A-SYNC WITH FASUDIL
35315
  121NASP     N    1   2.729   5.785   2.147  0.0946  0.5138 -0.3616
  121NASP    H1    2   2.790   5.800   2.226 -0.5814 -0.8436  0.4519
  121NASP    H2    3   2.742   5.865   2.086 -1.8114  1.7575  0.7425
  121NASP    H3    4   2.763   5.701   2.102 -3.9893 -0.8847 -1.2088
  121NASP    CA    5   2.589   5.775   2.200 -0.1584  0.2823  0.0461
  121NASP    HA    6   2.524   5.728   2.127  1.0177 -0.8839 -0.2882
  121NASP    CB    7   2.581   5.684   2.331 -0.1444 -0.3279  0.5575
  121NASP   HB1    8   2.585   5.583   2.290  0.4810  0.2748 -0.9449
  121NASP   HB2    9   2.489   5.702   2.388 -0.1447  0.9629  0.1852
  121NASP    CG   10   2.684   5.711   2.439 -0.3111 -0.8186 -1.0438
  121NASP   OD1   11   2.690   5.636   2.534 -0.2903  0.3721 -0.2542
  121NASP   OD2   12   2.763   5.801   2.412  0.0660 -0.3322  0.3760
  121NASP     C   13   2.524   5.909   2.204 -0.5374 -0.8198 -0.3603
  121NASP     O   14   2.591   6.009   2.238  0.2988 -0.0600 -0.2550
  122ASN      N   15   2.397   5.917   2.173  0.5233 -0.0988  0.6340
  122ASN      H   16   2.345   5.833   2.155  0.4276  0.1602 -0.3657
  122ASN     CA   17   2.311   6.033   2.170 -0.1989 -0.1377 -0.1334
  122ASN     HA   18   2.368   6.123   2.196  1.2914 -1.5515  1.8601
  122ASN     CB   19   2.264   6.047   2.020  0.6410  0.4010 -0.7954
  122ASN    HB1   20   2.192   6.128   2.027  0.9347  0.5366  1.3047
  122ASN    HB2   21   2.208   5.959   1.988  2.2553 -0.8383 -0.4128
  122ASN     CG   22   2.365   6.090   1.913 -0.0090  0.1940  0.3241
  122ASN    OD1   23   2.440   6.005   1.862 -0.3531 -0.4950  0.0380
  122ASN    ND2   24   2.369   6.217   1.875 -0.3014 -0.0889  0.4843
  122ASN   HD21   25   2.451   6.248   1.825 -0.4978  0.6793  0.6148
  122ASN   HD22   26   2.305   6.285   1.913  0.9382  0.8312  1.0043
  122ASN      C   27   2.199   6.013   2.267  0.3379  0.5111 -0.5953
  122ASN      O   28   2.097   5.939   2.249 -0.2101 -0.5156 -0.3432
  123GLU      N   29   2.218   6.069   2.385  0.6625  0.1071  0.0785
  123GLU      H   30   2.292   6.137   2.391  0.0672  0.6683  1.6697
  123GLU     CA   31   2.140   6.042   2.511  0.4358 -0.3758 -0.1116
  123GLU     HA   32   2.113   5.937   2.528 -0.5698 -0.1262 -0.0863
  123GLU     CB   33   2.216   6.084   2.649 -0.0270 -0.3609 -0.0008
  123GLU    HB1   34   2.156   6.066   2.738  2.1217 -1.8861  1.2451
  123GLU    HB2   35   2.242   6.190   2.642 -2.6226  0.2782 -1.3058
  123GLU     CG   36   2.344   5.994   2.655 -0.0062 -0.4035  0.3793
  123GLU    HG1   37   2.404   6.017   2.567 -1.2055 -1.6853 -0.8211
  123GLU    HG2   38   2.332   5.886   2.650  0.8793 -0.7100  3.2307
  123GLU     CD   39   2.439   6.021   2.773 -0.1098  0.1565  0.0182
  123GLU    OE1   40   2.478   5.921   2.840 -0.0327 -0.1573 -0.6814
  123GLU    OE2   41   2.474   6.133   2.806  0.7859 -0.8560 -0.1019
  123GLU      C   42   2.003   6.114   2.515  0.0797 -0.8189 -0.2161
  123GLU      O   43   1.985   6.216   2.448 -0.0657 -0.3591  0.0532
  124ALA      N   44   1.914   6.063   2.599 -0.2300 -0.0194  0.0829
  124ALA      H   45   1.942   5.982   2.652  1.1282  0.7433  0.5998
  124ALA     CA   46   1.780   6.118   2.630 -0.3495  0.5775  0.2775
  124ALA     HA   47   1.746   6.155   2.534  1.1149  0.3607 -0.3560
  124ALA     CB   48   1.682   6.007   2.682 -0.6631  0.1385 -0.1069
  124ALA    HB1   49   1.662   5.923   2.615  0.0995 -2.6934  2.9809
  124ALA    HB2   50   1.588   6.057   2.705 -1.6685 -1.4407 -0.5519
  124ALA    HB3   51   1.742   5.955   2.757  3.1769  1.9027 -1.6914
  124ALA      C   52   1.777   6.239   2.726 -0.2650 -0.1404 -0.2100
  124ALA      O   53   1.870   6.258   2.803 -0.2591 -0.1616 -0.5382
  125TYR      N   54   1.672   6.327   2.722 -0.3351  0.1651  0.1374
  125TYR      H   55   1.599   6.290   2.662 -0.4448 -0.3547  0.5807
  125TYR     CA   56   1.648   6.442   2.816  0.6674  0.2154  0.3559
  125TYR     HA   57   1.742   6.496   2.825  2.3611 -2.1246 -1.8209
  125TYR     CB   58   1.548   6.541   2.760 -0.0292  0.0372 -0.0079
  125TYR    HB1   59   1.517   6.608   2.840  0.2329 -0.9583  0.9451
  125TYR    HB2   60   1.462   6.482   2.728  0.1515  0.2633 -0.9568
  125TYR     CG   61   1.576   6.628   2.639  0.1696 -0.1847  0.4497
  125TYR    CD1   62   1.650   6.755   2.665  0.6225  0.4935  0.2827
  125TYR    HD1   63   1.683   6.773   2.766  1.6193 -1.1896  0.3019
  125TYR    CE1   64   1.670   6.843   2.555 -0.0238 -1.1755 -0.3161
  125TYR    HE1   65   1.721   6.938   2.570 -0.8466 -0.6603 -0.7095
  125TYR     CZ   66   1.621   6.813   2.429 -0.7500 -0.4943  0.3814
  125TYR     OH   67   1.658   6.892   2.324  0.0996 -0.5504  0.2675
  125TYR     HH   68   1.689   6.975   2.362  2.9978 -1.3631 -0.0335
  125TYR    CE2   69   1.554   6.694   2.407  0.1432 -0.0006  0.1406
  125TYR    HE2   70   1.515   6.676   2.307 -0.3087  0.6154  0.2037
  125TYR    CD2   71   1.530   6.601   2.506 -0.4002 -0.0398 -0.3891
  125TYR    HD2   72   1.478   6.513   2.472 -0.9267  0.2761 -0.4102
  125TYR      C   73   1.613   6.394   2.959  0.1039 -0.1908 -0.3882
  125TYR      O   74   1.534   6.303   2.978  1.1899  0.0773 -0.0827
  126GLU      N   75   1.661   6.461   3.070  0.0662  0.3922 -0.0139
  126GLU      H   76   1.741   6.523   3.062  0.4665  0.8708  4.6337
  126GLU     CA   77   1.624   6.427   3.211  0.3359  0.4948  0.3519
  126GLU     HA   78   1.616   6.319   3.214  0.2406  0.2587 -3.6742
  126GLU     CB   79   1.733   6.478   3.296  0.3775  0.0521  0.4032
  126GLU    HB1   80   1.729   6.586   3.313 -1.9950 -0.2534  2.2682
  126GLU    HB2   81   1.829   6.460   3.248 -0.0212  0.3598 -0.5453
  126GLU     CG   82   1.743   6.412   3.433 -0.3946  0.6692 -0.4192
  126GLU    HG1   83   1.741   6.303   3.429  0.5069  0.6665 -1.9479
  126GLU    HG2   84   1.655   6.441   3.490 -1.6660  1.1969 -2.5358
  126GLU     CD   85   1.860   6.467   3.520  0.0743  0.2579  0.3108
  126GLU    OE1   86   1.903   6.396   3.613  0.4044 -0.4195  0.2662
  126GLU    OE2   87   1.900   6.582   3.497 -0.0051  0.3095  0.3983
  126GLU      C   88   1.489   6.483   3.250  0.1553  0.3477  0.6909
  126GLU      O   89   1.458   6.501   3.368 -0.7827  0.4589 -0.0043
  127MET      N   90   1.401   6.494   3.149  0.2734 -0.2048 -0.7931
  127MET      H   91   1.424   6.456   3.059 -0.3545  0.1930 -1.1271
  127MET     CA   92   1.257   6.516   3.176  0.3248  0.2907 -0.2038
  127MET     HA   93   1.238   6.496   3.281  1.5052  0.0901 -0.0148
  127MET     CB   94   1.224   6.662   3.168  0.1334 -0.3207  0.0242
  127MET    HB1   95   1.263   6.700   3.073 -2.5354  0.0929 -1.0133
  127MET    HB2   96   1.279   6.714   3.246 -0.3080  0.3331 -0.0918
  127MET     CG   97   1.076   6.698   3.180  0.2484 -0.7320  0.2767
  127MET    HG1   98   1.028   6.670   3.086  0.4148  0.1732 -0.0913
  127MET    HG2   99   1.064   6.806   3.181 -0.2901 -0.7609 -1.1434
  127MET     SD  100   0.996   6.627   3.326  0.3374 -0.1823  0.3408
  127MET     CE  101   0.844   6.726   3.319 -0.2509  0.7159 -0.3478
  127MET    HE1  102   0.767   6.684   3.385  0.1761 -1.4363 -1.1316
  127MET    HE2  103   0.804   6.737   3.218 -0.6328 -0.9727 -0.4040
  127MET    HE3  104   0.869   6.823   3.361 -0.5519  0.1077  1.3314
  127MET      C  105   1.171   6.428   3.084 -0.3117  0.3390 -0.4208
  127MET      O  106   1.187   6.448   2.961 -0.3043  0.5484 -0.2624
  128PRO      N  107   1.094   6.335   3.134  0.1361  0.0468  0.3615
  128PRO     CD  108   1.079   6.288   3.270  0.2279  0.3652 -0.1621
  128PRO    HD1  109   1.004   6.353   3.315 -0.2123 -0.6545  0.6222
  128PRO    HD2  110   1.170   6.287   3.331  1.4205  0.2136 -1.8533
  128PRO     CG  111   1.024   6.144   3.271  0.3103 -0.4983  0.3477
  128PRO    HG1  112   0.956   6.142   3.356  1.1873  0.0236  1.0849
  128PRO    HG2  113   1.100   6.066   3.267 -0.5001 -1.2449 -1.1277
  128PRO     CB  114   0.943   6.140   3.145  0.5235 -0.0234  0.1128
  128PRO    HB1  115   0.928   6.041   3.103  0.3543 -0.3826  1.0143
  128PRO    HB2  116   0.843   6.177   3.168 -0.4307 -1.9609 -0.6663
  128PRO     CA  117   1.016   6.240   3.049  0.1424  0.8864  0.2577
  128PRO     HA  118   1.095   6.191   2.991  0.6343  1.9998 -0.0325
  128PRO      C  119   0.913   6.307   2.953  0.3131  0.2363  0.3119
  128PRO      O  120   0.862   6.418   2.979  0.5324 -0.8339  0.7243
  129SER      N  121   0.885   6.235   2.844  0.1722 -0.7360  0.0945
  129SER      H  122   0.942   6.153   2.832  0.3961 -0.5069 -0.3910
  129SER     CA  123   0.758   6.248   2.761 -0.4211 -0.1394 -0.3150
  129SER     HA  124   0.741   6.350   2.725 -2.6194 -0.4424 -0.2831
  129SER     CB  125   0.763   6.164   2.635 -0.2905  0.2608 -0.1266
  129SER    HB1  126   0.756   6.059   2.661  2.5265 -0.5280 -2.0567
  129SER    HB2  127   0.856   6.190   2.584  1.2676  0.2457  2.5288
  129SER     OG  128   0.650   6.194   2.553 -0.1809  0.1386  0.4553
  129SER    HG1  129   0.637   6.123   2.489 -0.3499  0.3774  0.2219
  129SER      C  130   0.635   6.212   2.843  0.2085 -0.4985 -0.5948
  129SER      O  131   0.641   6.139   2.937  0.0101  0.5137  0.2230
  130GLU      N  132   0.522   6.287   2.817  0.2581 -0.1255 -0.1303
  130GLU      H  133   0.532   6.350   2.739  1.8048 -2.9397 -2.4110
  130GLU     CA  134   0.388   6.270   2.875  0.2770  0.2867 -0.1751
  130GLU     HA  135   0.397   6.261   2.983 -0.4463 -1.2227 -0.2056
  130GLU     CB  136   0.293   6.387   2.855 -0.1132  0.5330  0.2314
  130GLU    HB1  137   0.325   6.467   2.922  0.2462  0.6069 -0.0265
  130GLU    HB2  138   0.192   6.359   2.885 -0.1495  0.5586  0.1354
  130GLU     CG  139   0.286   6.445   2.713  0.2744  0.2545 -0.2796
  130GLU    HG1  140   0.264   6.364   2.643  2.2003  1.2823 -2.1926
  130GLU    HG2  141   0.384   6.478   2.680  0.2745  1.2309  0.6642
  130GLU     CD  142   0.185   6.556   2.702  0.4319 -0.3907 -0.1517
  130GLU    OE1  143   0.207   6.668   2.644 -0.4842  0.0139 -0.2862
  130GLU    OE2  144   0.075   6.543   2.763  0.3897 -0.1126  0.5896
  130GLU      C  145   0.324   6.137   2.820  0.7748 -0.0353 -0.1716
  130GLU      O  146   0.221   6.092   2.867  0.2310 -0.0157  0.1583
  131GLU      N  147   0.394   6.067   2.724  0.4034  0.7674 -0.4340
  131GLU      H  148   0.481   6.103   2.688 -0.0324  0.9420 -1.3331
  131GLU     CA  149   0.352   5.937   2.669  0.1838 -0.3395 -0.0350
  131GLU     HA  150   0.251   5.932   2.628 -0.8963 -0.7549  2.4846
  131GLU     CB  151   0.447   5.908   2.557  0.8767  0.1250  0.6641
  131GLU    HB1  152   0.432   5.807   2.519  0.2341  0.8133 -0.9874
  131GLU    HB2  153   0.548   5.940   2.581  1.4568  1.1948 -2.7292
  131GLU     CG  154   0.404   5.986   2.433 -0.2854 -0.0047  0.1083
  131GLU    HG1  155   0.399   6.091   2.461  1.9593  0.1499  0.0959
  131GLU    HG2  156   0.309   5.955   2.389  1.0201 -0.9063 -2.2914
  131GLU     CD  157   0.508   5.973   2.321  0.6289 -0.3627  0.3061
  131GLU    OE1  158   0.466   5.991   2.204 -0.0992 -0.0857 -0.4007
  131GLU    OE2  159   0.633   5.974   2.348 -0.5450  0.2937  0.1513
  131GLU      C  160   0.350   5.826   2.771  0.3662 -0.4284 -0.4828
  131GLU      O  161   0.450   5.810   2.837 -0.0468  0.3188 -0.2347
  132GLY      N  162   0.229   5.766   2.796 -0.9372 -0.0200  0.0357
  132GLY      H  163   0.156   5.786   2.729 -1.5991 -0.3578  0.6490
  132GLY     CA  164   0.209   5.655   2.879 -0.3468  0.6903 -0.4861
  132GLY    HA1  165   0.242   5.664   2.983 -2.2990 -1.3223  0.4059
  132GLY    HA2  166   0.262   5.578   2.823  1.1845  1.7075 -0.4810
  132GLY      C  167   0.055   5.627   2.881  0.6082  0.2505 -0.1818
  132GLY      O  168  -0.028   5.695   2.820  0.8671  0.1394 -0.2728
  133TYR      N  169   0.023   5.515   2.950 -0.0666 -0.0172 -0.1583
  133TYR      H  170   0.097   5.456   2.988 -0.7259  0.5349  2.1382
  133TYR     CA  171  -0.108   5.489   3.009  0.6632 -0.8162 -0.8487
  133TYR     HA  172  -0.129   5.591   3.043 -0.9375  0.2581 -4.5349
  133TYR     CB  173  -0.221   5.458   2.916  0.0174 -0.2594 -0.4605
  133TYR    HB1  174  -0.237   5.350   2.924  0.5059 -0.2470  0.9424
  133TYR    HB2  175  -0.192   5.482   2.813  0.1996 -0.9062 -0.5650
  133TYR     CG  176  -0.350   5.539   2.948 -0.0979  0.3220 -0.2218
  133TYR    CD1  177  -0.453   5.491   3.028 -0.5923 -0.3530  0.7605
  133TYR    HD1  178  -0.446   5.401   3.087  0.0202  0.8498  2.5911
  133TYR    CE1  179  -0.569   5.571   3.044 -0.6966 -0.9978 -0.3180
  133TYR    HE1  180  -0.644   5.544   3.117 -0.4413  0.0758  0.3583
  133TYR     CZ  181  -0.580   5.697   2.978  0.3779 -0.2313  0.4490
  133TYR     OH  182  -0.695   5.765   2.999  0.1372 -0.7709 -0.1689
  133TYR     HH  183  -0.704   5.854   2.965  0.1923  0.1237  1.9907
  133TYR    CE2  184  -0.476   5.740   2.892  0.3363 -0.4961 -0.3776
  133TYR    HE2  185  -0.496   5.831   2.838 -0.3937  0.6009  1.6304
  133TYR    CD2  186  -0.369   5.658   2.872  0.0273 -0.2447 -0.7513
  133TYR    HD2  187  -0.300   5.677   2.790  0.1122 -0.2460 -0.6807
  133TYR      C  188  -0.097   5.393   3.130 -0.1384 -0.0837 -0.3506
  133TYR      O  189  -0.032   5.287   3.124  0.3760  0.5615  0.5282
  134GLN      N  190  -0.168   5.423   3.241 -0.5121 -0.6745 -0.0078
  134GLN      H  191  -0.203   5.517   3.256  0.4714 -0.3761  0.5252
  134GLN     CA  192  -0.183   5.339   3.355 -0.2999  0.1044  0.2081
  134GLN     HA  193  -0.084   5.317   3.396  1.3816  3.3818 -1.7337
  134GLN     CB  194  -0.260   5.411   3.460  0.6124  0.7308  0.0675
  134GLN    HB1  195  -0.291   5.336   3.533  2.0563  1.2122  1.2306
  134GLN    HB2  196  -0.354   5.444   3.415  0.5762 -2.0615 -2.1031
  134GLN     CG  197  -0.195   5.532   3.526  0.1699  0.0297 -0.0924
  134GLN    HG1  198  -0.087   5.515   3.520  0.0147 -0.5823 -2.4125
  134GLN    HG2  199  -0.216   5.550   3.631  0.8511 -0.1876  0.0908
  134GLN     CD  200  -0.210   5.663   3.452 -0.1262  0.6637 -0.0766
  134GLN    OE1  201  -0.242   5.672   3.332 -0.2335  0.1158 -0.0995
  134GLN    NE2  202  -0.188   5.772   3.524  0.1205  0.1966  0.2340
  134GLN   HE21  203  -0.205   5.860   3.477  1.6826  1.5319  2.0222
  134GLN   HE22  204  -0.150   5.765   3.617  2.5590  0.7127 -0.6444
  134GLN      C  205  -0.252   5.208   3.322  0.3684 -0.0153  0.1579
  134GLN      O  206  -0.304   5.188   3.213  0.0483  0.1079  0.1111
  135ASP      N  207  -0.235   5.104   3.404  0.5927  0.4094  0.6460
  135ASP      H  208  -0.198   5.143   3.490  2.2180  1.6061 -0.5157
  135ASP     CA  209  -0.291   4.966   3.387 -0.1071 -0.2307 -0.1581
  135ASP     HA  210  -0.297   4.954   3.279  1.0716  1.9817 -0.5252
  135ASP     CB  211  -0.189   4.869   3.445  0.2872 -0.0920  0.0962
  135ASP    HB1  212  -0.220   4.766   3.428  0.9516 -0.3998  0.6728
  135ASP    HB2  213  -0.197   4.890   3.552 -1.8919  1.6807 -0.3527
  135ASP     CG  214  -0.045   4.892   3.394  0.4675  0.3038  0.0412
  135ASP    OD1  215   0.041   4.905   3.487 -0.4920  0.6631 -0.1324
  135ASP    OD2  216  -0.009   4.868   3.277 -0.5690  0.0365  0.2935
  135ASP      C  217  -0.431   4.949   3.442 -0.9205 -0.2439 -0.1793
  135ASP      O  218  -0.468   4.999   3.552 -0.2417 -0.0600  0.7221
  136TYR      N  219  -0.511   4.858   3.382 -0.0931  0.1686 -0.6312
  136TYR      H  220  -0.486   4.814   3.295 -1.9386 -0.6644 -0.7796
  136TYR     CA  221  -0.631   4.800   3.443 -0.3916 -0.3678  0.2921
  136TYR     HA  222  -0.682   4.879   3.500 -0.5346 -1.0965  1.1935
  136TYR     CB  223  -0.721   4.747   3.328  0.2033  0.0941 -0.0552
  136TYR    HB1  224  -0.666   4.681   3.260 -0.0562 -1.9087  1.5610
  136TYR    HB2  225  -0.759   4.826   3.263  0.8348 -0.6133 -1.3296
  136TYR     CG  226  -0.836   4.661   3.384 -0.4465 -0.1095  0.5318
  136TYR    CD1  227  -0.923   4.733   3.470 -0.2852  0.7121  0.1446
  136TYR    HD1  228  -0.904   4.837   3.492  1.7992  0.7324 -1.4663
  136TYR    CE1  229  -1.027   4.662   3.537 -0.0774  0.1191 -0.0457
  136TYR    HE1  230  -1.086   4.721   3.605 -0.5653  0.7990 -1.0515
  136TYR     CZ  231  -1.052   4.526   3.508 -0.1498  0.3231  0.1056
  136TYR     OH  232  -1.139   4.455   3.581 -0.8466  0.1903 -0.1794
  136TYR     HH  233  -1.112   4.363   3.577 -0.3662  0.1335  2.4584
  136TYR    CE2  234  -0.965   4.458   3.421  0.5534  0.4897 -0.1516
  136TYR    HE2  235  -0.982   4.354   3.401 -0.6288  0.6394  0.0365
  136TYR    CD2  236  -0.865   4.525   3.351  0.2876  0.3032 -0.3081
  136TYR    HD2  237  -0.808   4.483   3.269 -1.2254 -0.0803 -1.2049
  136TYR      C  238  -0.592   4.694   3.550 -0.5996 -0.2191 -0.0416
  136TYR      O  239  -0.480   4.643   3.550 -0.0940  0.2796  0.3023
  137GLU      N  240  -0.687   4.661   3.641  0.1899  0.2778  0.1330
  137GLU      H  241  -0.777   4.701   3.620  0.0096 -0.4679 -0.5723
  137GLU     CA  242  -0.654   4.578   3.759  0.2792  0.4627  0.6413
  137GLU     HA  243  -0.556   4.614   3.791 -0.5873  2.1385  1.4804
  137GLU     CB  244  -0.752   4.594   3.880 -0.8924 -0.1102  0.0753
  137GLU    HB1  245  -0.713   4.547   3.971  0.6197 -0.5142 -0.7353
  137GLU    HB2  246  -0.844   4.541   3.856 -1.1277  0.7177 -0.9067
  137GLU     CG  247  -0.779   4.740   3.910  0.2098 -0.3374 -0.1974
  137GLU    HG1  248  -0.816   4.800   3.828  0.1788  1.0842  0.8162
  137GLU    HG2  249  -0.688   4.792   3.939 -1.3256  1.5146  1.5830
  137GLU     CD  250  -0.872   4.767   4.030  0.5362  0.0092  0.2853
  137GLU    OE1  251  -0.936   4.670   4.080 -0.0078  0.3427 -0.1090
  137GLU    OE2  252  -0.879   4.887   4.074  0.6291 -0.5896  0.5077
  137GLU      C  253  -0.646   4.433   3.721  0.2336  0.0748  0.2509
  137GLU      O  254  -0.724   4.396   3.635 -0.1654  0.4884  0.3126
  138PRO      N  255  -0.553   4.353   3.775  0.2274 -0.4388  0.0692
  138PRO     CD  256  -0.452   4.396   3.872  0.3774  1.0567 -0.4086
  138PRO    HD1  257  -0.503   4.448   3.953 -3.5837  0.1097 -2.0418
  138PRO    HD2  258  -0.380   4.456   3.816  1.8924  1.6742  2.0389
  138PRO     CG  259  -0.375   4.271   3.910  0.2286 -0.6066 -0.3409
  138PRO    HG1  260  -0.397   4.245   4.013 -0.0414  2.6306  0.5091
  138PRO    HG2  261  -0.267   4.285   3.908  0.0150  1.4191 -0.1437
  138PRO     CB  262  -0.415   4.170   3.808 -0.5898  0.6816  0.0796
  138PRO    HB1  263  -0.335   4.165   3.735  0.9373 -0.9059  1.7385
  138PRO    HB2  264  -0.423   4.074   3.858  0.0431 -0.1302 -1.3377
  138PRO     CA  265  -0.551   4.212   3.759  0.2147  0.2088  0.1332
  138PRO     HA  266  -0.560   4.187   3.654 -1.4866 -1.4881  0.6387
  138PRO      C  267  -0.671   4.139   3.828  0.5329  0.4320  0.6223
  138PRO      O  268  -0.732   4.185   3.922  0.4010  0.0250 -0.2871
  139GLU      N  269  -0.684   4.011   3.793  0.7916  0.3284 -0.0929
  139GLU      H  270  -0.607   3.974   3.740 -0.1788 -2.5061  0.3286
  139GLU     CA  271  -0.786   3.918   3.838 -0.6407  0.4589 -0.4268
  139GLU     HA  272  -0.881   3.972   3.836 -1.9727 -1.6897  1.1354
  139GLU     CB  273  -0.798   3.804   3.737 -0.5100  0.2108 -0.1082
  139GLU    HB1  274  -0.841   3.719   3.790  0.9264  0.7138  1.9960
  139GLU    HB2  275  -0.699   3.766   3.713 -0.1249  1.7601 -1.1662
  139GLU     CG  276  -0.852   3.830   3.601 -0.2695 -0.1147  0.4485
  139GLU    HG1  277  -0.828   3.932   3.573 -0.8897  0.0804  0.6162
  139GLU    HG2  278  -0.961   3.833   3.602 -0.2660 -0.0847  1.2170
  139GLU     CD  279  -0.813   3.729   3.504  0.7515  0.6902  0.0984
  139GLU    OE1  280  -0.786   3.610   3.530 -0.4971 -0.2825 -0.4495
  139GLU    OE2  281  -0.822   3.760   3.383 -0.0115 -0.6400  0.4736
  139GLU      C  282  -0.765   3.882   3.987  0.1096  0.5182 -0.5672
  139GLU      O  283  -0.649   3.862   4.030  0.0539  0.5569 -0.5037
  140CALA     N  284  -0.868   3.880   4.072 -0.0063  0.2130 -0.1059
  140CALA     H  285  -0.963   3.891   4.039 -0.7289  0.6776  1.9852
  140CALA    CA  286  -0.859   3.866   4.217  0.2630  0.1775  0.0652
  140CALA    HA  287  -0.768   3.918   4.249 -0.3598  2.0415 -1.0037
  140CALA    CB  288  -0.981   3.931   4.279 -0.6249  0.0973  0.3847
  140CALA   HB1  289  -0.993   3.897   4.382 -1.5311 -0.9425 -0.0458
  140CALA   HB2  290  -1.068   3.909   4.218  1.2834 -2.5194 -1.6703
  140CALA   HB3  291  -0.968   4.039   4.288 -0.4056  0.2279 -1.2342
  140CALA     C  292  -0.837   3.723   4.264 -0.7804 -0.0751 -0.3233
  140CALA   OC1  293  -0.748   3.707   4.354 -0.0760 -0.4564 -0.2899
  140CALA   OC2  294  -0.902   3.630   4.212  0.1259 -0.4763 -0.1406
  141FAS      C  295   5.731   5.756   4.041 -0.2305 -0.3743 -0.5699
  141FAS     C1  296   5.736   5.843   4.167  0.1057  0.1827 -0.2555
  141FAS      N  297   5.882   5.861   4.204  0.3011  0.2339  0.2763
  141FAS     C2  298   5.944   5.735   4.260 -0.1612 -0.4894  0.0758
  141FAS     C3  299   6.003   5.649   4.151 -0.3003  0.8805 -0.2685
  141FAS     N1  300   5.932   5.616   4.030 -0.0936 -0.8208  0.5711
  141FAS     C4  301   5.785   5.615   4.048 -0.8230 -0.3305  0.0547
  141FAS      S  302   6.015   5.522   3.923 -0.0115 -0.2900  0.2389
  141FAS      O  303   6.148   5.590   3.907 -0.4233 -0.1286  0.7005
  141FAS     O1  304   5.996   5.389   3.974 -0.0537  0.0546 -0.2170
  141FAS     C5  305   5.919   5.539   3.769 -0.2229 -0.5597  0.0115
  141FAS     C6  306   5.851   5.425   3.727  0.1811  0.3839 -0.1333
  141FAS     C7  307   5.806   5.419   3.592 -0.1061 -0.4195 -0.3990
  141FAS     C8  308   5.823   5.535   3.509  0.0025  0.6714 -0.1178
  141FAS     C9  309   5.875   5.654   3.560 -0.2633 -0.0829 -0.7770
  141FAS    C10  310   5.924   5.655   3.692  0.4595 -0.1879  0.6285
  141FAS    C11  311   5.971   5.782   3.735  0.0766  0.2375 -0.0639
  141FAS    C12  312   5.975   5.894   3.651 -0.0316 -0.1377 -0.1315
  141FAS     N2  313   5.919   5.893   3.528 -0.5663 -0.2016 -0.8339
  141FAS    C13  314   5.877   5.772   3.481  0.7946 -0.2255 -0.6590
  141FAS      H  315   5.773   5.816   3.959 -2.0344 -0.8400 -1.8830
  141FAS     H1  316   5.629   5.754   4.000 -0.1840  2.6322 -1.0351
  141FAS     H2  317   5.674   5.796   4.245  0.7136  0.6894  0.5415
  141FAS     H3  318   5.688   5.938   4.145 -1.7731 -0.6512  0.0045
  141FAS     H4  319   5.933   5.904   4.126 -0.0320  2.2340  1.0963
  141FAS     H5  320   5.868   5.691   4.324  1.2032 -2.2545  0.5470
  141FAS     H6  321   6.020   5.764   4.333 -0.7707  1.5901 -0.0412
  141FAS     H7  322   6.027   5.559   4.209  1.5621  0.1587 -2.0380
  141FAS     H8  323   6.101   5.686   4.120 -0.5094  1.4059 -0.3107
  141FAS     H9  324   5.749   5.566   4.139 -1.8811  2.5624  1.2922
  141FAS    H10  325   5.740   5.570   3.958  2.4321 -1.4170 -1.1894
  141FAS    H11  326   5.849   5.331   3.780 -2.6918  1.2622  1.5285
  141FAS    H12  327   5.758   5.329   3.554 -0.6160 -0.6336  0.7185
  141FAS    H13  328   5.789   5.525   3.406  0.0873 -0.5624 -0.0421
  141FAS    H14  329   6.008   5.794   3.837 -0.9039 -2.9895  0.8185
  141FAS    H15  330   6.016   5.989   3.685 -0.2014  0.8533 -2.4646
  141FAS    H16  331   5.841   5.782   3.379  0.2504  0.8107 -0.3770
  141FAS    H17  332   5.889   5.932   4.278 -0.3127 -0.0630  0.6311
  142SOL     OW  333   4.979   3.890   5.927  0.1529  0.4069 -0.6055
  142SOL    HW2  334   4.983   3.975   5.884  1.0061  0.2544 -0.8568
  142SOL    HW3  335   5.070   3.859   5.927  0.1250  0.2460  0.9935
  142SOL    MW4  336   4.992   3.897   5.921  0.2618  0.3655 -0.4277
  143SOL     OW  337   4.704   0.122   1.723 -0.3258 -0.8054 -0.6863
  143SOL    HW2  338   4.754   0.194   1.763 -1.9670  0.7781 -1.3897
  143SOL    HW3  339   4.769   0.052   1.714  0.8857 -0.1594  1.8108
  143SOL    MW4  340   4.719   0.122   1.727 -0.3825 -0.5113 -0.4497
  144SOL     OW  341   2.328   0.989   2.796 -0.5013  0.4614  0.0122
  144SOL    HW2  342   2.269   0.926   2.753  0.0459  0.7475 -1.2203
  144SOL    HW3  343   2.360   1.044   2.724  0.4536  0.9822  0.8133
  144SOL    MW4  344   2.324   0.988   2.781 -0.3031  0.5678 -0.0447
  145SOL     OW  345   3.539   0.060   3.403  0.6769  0.0281 -0.5211
  145SOL    HW2  346   3.579  -0.003   3.343 -1.5574  0.0825 -2.1775
  145SOL    HW3  347   3.511   0.132   3.347 -1.7560 -0.0427  0.4710
  145SOL    MW4  348   3.541   0.061   3.388  0.0611  0.0260 -0.6088
  146SOL     OW  349   4.083   2.153   2.172  0.8503 -0.0484 -0.5106
  146SOL    HW2  350   4.029   2.116   2.102  0.0016  0.3876 -0.0968
  146SOL    HW3  351   4.072   2.247   2.164  0.8286  0.0068  0.1541
  146SOL    MW4  352   4.075   2.160   2.161  0.7354  0.0164 -0.3683
  147SOL     OW  353   1.415   1.651   6.008 -0.6951  0.5650  0.1397
  147SOL    HW2  354   1.387   1.577   6.062  1.3065 -0.3111  0.0585
  147SOL    HW3  355   1.467   1.706   6.067 -0.2077  0.6761 -0.3851
  147SOL    MW4  356   1.418   1.649   6.023 -0.3667  0.4640  0.0597
  148SOL     OW  357   1.897   1.484   2.045  0.2963 -0.4376 -0.9199
  148SOL    HW2  358   1.849   1.411   2.005 -2.0469  0.4964 -0.0004
  148SOL    HW3  359   1.912   1.545   1.973  1.7190 -1.5157 -1.5699
  148SOL    MW4  360   1.892   1.482   2.030  0.1749 -0.4566 -0.8843
  149SOL     OW  361   5.697   3.448   2.890 -0.1405  0.2097 -0.3390
  149SOL    HW2  362   5.764   3.400   2.842  0.1683  1.1952 -0.9258
  149SOL    HW3  363   5.680   3.395   2.968  0.9917 -0.2729 -0.4060
  149SOL    MW4  364   5.704   3.435   2.894  0.0496  0.2760 -0.4253
  150SOL     OW  365   6.013   1.715   0.730  0.9218  0.0901 -0.1667
  150SOL    HW2  366   5.942   1.666   0.687 -0.6346  1.0739  1.1621
  150SOL    HW3  367   5.977   1.739   0.815  2.7787  0.8916  0.4295
  150SOL    MW4  368   5.999   1.712   0.735  0.9615  0.3256  0.0873
  151SOL     OW  369   3.225   1.081   6.081 -0.5716  0.1514 -1.0381
  151SOL    HW2  370   3.181   1.041   6.007  0.7631 -0.3568 -1.5872
  151SOL    HW3  371   3.289   1.016   6.110 -1.4246  0.0974  0.9306
  151SOL    MW4  372   3.228   1.068   6.075 -0.5080  0.0772 -0.8508
  152SOL     OW  373   4.870   6.284   5.379 -0.1676  0.2492 -0.2150
  152SOL    HW2  374   4.806   6.353   5.397 -0.4791 -0.3011  0.8737
  152SOL    HW3  375   4.822   6.203   5.395  0.8330 -0.1723  0.7469
  152SOL    MW4  376   4.855   6.283   5.384 -0.0767  0.1210  0.0556
  153SOL     OW  377   5.736   4.417   4.626  0.2831 -0.7047 -0.6884
  153SOL    HW2  378   5.774   4.499   4.595  1.8044 -1.5603 -1.1983
  153SOL    HW3  379   5.641   4.430   4.618  0.4945  0.9169 -0.9246
  153SOL    MW4  380   5.728   4.430   4.621  0.5117 -0.6036 -0.7868
  154SOL     OW  381   3.504   0.862   1.082 -0.5564 -0.1646  0.2860
  154SOL    HW2  382   3.593   0.850   1.114 -0.0269 -2.0454 -1.6146
  154SOL    HW3  383   3.451   0.799   1.131 -1.0271  1.3757  1.8528
  154SOL    MW4  384   3.508   0.852   1.093 -0.5486 -0.2096  0.2420
  155SOL     OW  385   1.039   3.696   3.878 -0.2480 -0.1093 -0.1055
  155SOL    HW2  386   0.960   3.722   3.831 -1.2377 -3.3324 -0.4598
  155SOL    HW3  387   1.105   3.682   3.810  0.7296  2.4611  0.1808
  155SOL    MW4  388   1.037   3.697   3.863 -0.2496 -0.1954 -0.1144
  156SOL     OW  389   5.975   0.026   3.866  0.2373  0.4171 -0.0596
  156SOL    HW2  390   5.989   0.079   3.945  0.4768 -0.7089  0.6845
  156SOL    HW3  391   6.058   0.032   3.818 -0.3193  2.0973 -0.8726
  156SOL    MW4  392   5.988   0.033   3.870  0.1955  0.4902 -0.0687
  157SOL     OW  393   2.057   5.479   1.688 -0.3447  0.0251 -0.0912
  157SOL    HW2  394   1.988   5.415   1.671 -1.6335  0.5548  2.5896
  157SOL    HW3  395   2.058   5.489   1.784  0.8566  2.8334 -0.2815
  157SOL    MW4  396   2.048   5.472   1.699 -0.3563  0.4655  0.2374
  158SOL     OW  397   6.310   1.751   2.667 -0.6897  0.1997 -0.2385
  158SOL    HW2  398   6.329   1.692   2.739 -0.9813  0.3319 -0.0513
  158SOL    HW3  399   6.251   1.817   2.704  1.9330  2.3536  0.3635
  158SOL    MW4  400   6.305   1.752   2.681 -0.3822  0.5014 -0.1344
  159SOL     OW  401   3.092   4.671   1.724 -0.2029  0.4405  0.0977
  159SOL    HW2  402   3.109   4.713   1.640 -0.3402 -0.0246 -0.1663
  159SOL    HW3  403   3.154   4.598   1.728 -0.1890  0.4680  0.4041
  159SOL    MW4  404   3.102   4.667   1.714 -0.2192  0.3827  0.1033
  160SOL     OW  405   0.524   0.511   3.476 -0.0063 -0.1445 -0.4383
  160SOL    HW2  406   0.596   0.569   3.503  0.3313 -0.3584 -0.8521
  160SOL    HW3  407   0.474   0.563   3.413 -0.4016  0.1171  0.0899
  160SOL    MW4  408   0.527   0.526   3.471 -0.0139 -0.1382 -0.4232
  161SOL     OW  409   5.155   5.304   3.095  0.1478 -0.3827  0.7775
  161SOL    HW2  410   5.232   5.293   3.039  1.5590 -0.2825  2.5929
  161SOL    HW3  411   5.137   5.216   3.128 -0.2416 -0.3275  0.7160
  161SOL    MW4  412   5.163   5.291   3.092  0.2826 -0.3622  1.0089
  162SOL     OW  413   5.197   0.689   5.530  0.0891  0.5662  0.2918
  162SOL    HW2  414   5.253   0.766   5.520  0.6547  0.1292  0.0508
  162SOL    HW3  415   5.231   0.645   5.608 -1.1663  1.3258  1.3188
  162SOL    MW4  416   5.209   0.693   5.539 -0.0019  0.6088  0.3955
  163SOL     OW  417   3.703   1.211   2.070  0.4828 -0.0513  0.2067
  163SOL    HW2  418   3.649   1.133   2.056  0.7042  0.1587 -2.2817
  163SOL    HW3  419   3.755   1.190   2.147  0.0567 -2.1107  0.0008
  163SOL    MW4  420   3.703   1.198   2.078  0.4558 -0.2953 -0.1488
  164SOL     OW  421   3.049   4.435   3.773 -0.9506 -0.2878 -0.1284
  164SOL    HW2  422   2.989   4.489   3.826  2.6247  2.8204  1.2059
  164SOL    HW3  423   3.098   4.384   3.838 -0.9404 -1.4537 -1.0302
  164SOL    MW4  424   3.047   4.435   3.789 -0.4776 -0.0316 -0.0713
  165SOL     OW  425   0.109   4.842   5.266 -0.0380  0.0527  0.5969
  165SOL    HW2  426   0.073   4.839   5.355 -0.8549 -0.6928  0.2502
  165SOL    HW3  427   0.107   4.752   5.236  1.0853  0.1671  0.1377
  165SOL    MW4  428   0.104   4.830   5.274  0.0024 -0.0306  0.4906
  166SOL     OW  429   5.000   0.169   2.300  0.5734  0.3777  0.2002
  166SOL    HW2  430   5.024   0.104   2.367  0.9614  1.2072  0.8795
  166SOL    HW3  431   4.999   0.119   2.218  3.0449 -0.0412  0.3525
  166SOL    MW4  432   5.003   0.154   2.298  0.9507  0.4319  0.3099
  167SOL     OW  433   1.079   3.786   6.239  0.2943 -0.5710  0.8716
  167SOL    HW2  434   1.122   3.703   6.260  1.7642 -0.2836 -0.7870
  167SOL    HW3  435   1.083   3.792   6.144 -0.7811  0.9111  0.8814
  167SOL    MW4  436   1.085   3.776   6.229  0.3463 -0.3376  0.6540
  168SOL     OW  437   0.983   4.333   4.640 -0.5880 -0.2585  0.1491
  168SOL    HW2  438   1.041   4.275   4.689 -1.8903 -0.3644  1.6185
  168SOL    HW3  439   0.996   4.307   4.548  1.1355 -0.7446  0.4915
  168SOL    MW4  440   0.992   4.322   4.634 -0.5324 -0.3366  0.3881
  169SOL     OW  441   4.749   5.649   5.725 -0.4568 -0.4742  0.6105
  169SOL    HW2  442   4.793   5.721   5.679 -0.4704 -0.2476  0.9484
  169SOL    HW3  443   4.812   5.623   5.793 -0.1289 -1.2913  0.0063
  169SOL    MW4  444   4.763   5.655   5.728 -0.4154 -0.5521  0.5754
  170SOL     OW  445   3.859   6.174   1.893 -0.1435  0.0811 -0.1197
  170SOL    HW2  446   3.831   6.264   1.908 -0.1202  0.2645 -1.1009
  170SOL    HW3  447   3.908   6.178   1.811  2.5913 -0.2598  1.3870
  170SOL    MW4  448   3.862   6.186   1.884  0.2204  0.0603 -0.0504
  171SOL     OW  449   0.424   1.157   3.777 -0.3210 -0.4160  0.5511
  171SOL    HW2  450   0.454   1.244   3.748 -1.0753 -0.0978  0.6993
  171SOL    HW3  451   0.334   1.151   3.744 -0.4540 -0.9305  0.9987
  171SOL    MW4  452   0.416   1.168   3.769 -0.4381 -0.4419  0.6297
  172SOL     OW  453   1.959   1.428   4.481  0.2371  0.2820  0.2122
  172SOL    HW2  454   1.990   1.484   4.553  1.3804  0.7349 -0.5984
  172SOL    HW3  455   2.039   1.390   4.445 -0.4350 -0.9196 -0.0383
  172SOL    MW4  456   1.974   1.431   4.486  0.2993  0.1832  0.0722
  173SOL     OW  457   2.562   1.916   0.014  0.0934  0.2781  0.1536
  173SOL    HW2  458   2.574   2.011   0.011 -0.3950  0.3902  1.2123
  173SOL    HW3  459   2.529   1.893  -0.073 -0.9518  1.2519  0.2730
  173SOL    MW4  460   2.559   1.926   0.002 -0.1090  0.4213  0.3091
  174SOL     OW  461   0.417   1.728   1.810 -0.5089  0.1815  0.1447
  174SOL    HW2  462   0.464   1.799   1.767 -0.0640 -0.1963  0.0043
  174SOL    HW3  463   0.325   1.746   1.791 -0.3748  0.5177 -0.1957
  174SOL    MW4  464   0.411   1.740   1.802 -0.4325  0.1760  0.0813
  175SOL     OW  465   4.571   5.003   0.832 -0.2716 -0.2147  0.1340
  175SOL    HW2  466   4.622   5.043   0.902  0.3755  0.0626 -0.4868
  175SOL    HW3  467   4.482   5.037   0.844  0.1710  1.0873 -0.1309
  175SOL    MW4  468   4.566   5.013   0.842 -0.1278 -0.0064  0.0171
  176SOL     OW  469   0.591   2.404   4.782  0.4517  0.0578 -0.3279
  176SOL    HW2  470   0.572   2.311   4.767 -0.0197  0.2841 -1.1727
  176SOL    HW3  471   0.632   2.434   4.701  0.3858  0.6401 -0.1487
  176SOL    MW4  472   0.594   2.395   4.770  0.3808  0.1645 -0.4157
  177SOL     OW  473   6.399   0.618   0.949 -0.7220  0.5139  0.3697
  177SOL    HW2  474   6.406   0.569   1.031 -1.5536  0.0226  0.1615
  177SOL    HW3  475   6.360   0.702   0.975 -2.8386 -0.3645  0.2673
  177SOL    MW4  476   6.395   0.623   0.963 -1.1110  0.3332  0.3287
  178SOL     OW  477   0.400   3.104   4.602 -0.5181 -0.4470 -0.3534
  178SOL    HW2  478   0.389   3.083   4.510  0.5448  0.7530 -0.7933
  178SOL    HW3  479   0.495   3.112   4.614 -0.6629 -0.0994  0.7160
  178SOL    MW4  480   0.411   3.102   4.592 -0.3969 -0.2428 -0.2703
  179SOL     OW  481   4.231   3.979   0.956 -0.3747 -0.5432 -0.0786
  179SOL    HW2  482   4.184   3.938   1.029  0.7267  0.5421  1.2927
  179SOL    HW3  483   4.315   3.933   0.953  0.1357  0.3421  0.2754
  179SOL    MW4  484   4.236   3.967   0.966 -0.1620 -0.2832  0.1490
  180SOL     OW  485   3.290   3.506   1.255  0.5271  0.2656 -0.1190
  180SOL    HW2  486   3.367   3.450   1.259  0.6316  0.4328  0.3114
  180SOL    HW3  487   3.325   3.595   1.247  0.4096  0.1382 -4.8256
  180SOL    MW4  488   3.305   3.511   1.255  0.5254  0.2708 -0.6832
  181SOL     OW  489   2.283   3.937   0.323 -0.1706 -0.7910 -0.3654
  181SOL    HW2  490   2.222   3.982   0.382  1.2922 -0.4262  0.9350
  181SOL    HW3  491   2.304   4.002   0.256  0.7507  0.0058  0.6519
  181SOL    MW4  492   2.278   3.952   0.322  0.1439 -0.6378 -0.0596
  182SOL     OW  493   4.673   2.645   4.122 -0.1085  0.0691 -0.2213
  182SOL    HW2  494   4.630   2.565   4.151 -0.5681  0.4712  0.2173
  182SOL    HW3  495   4.675   2.638   4.026 -2.0674  0.4888 -0.3363
  182SOL    MW4  496   4.668   2.633   4.113 -0.4276  0.1775 -0.1786
  183SOL     OW  497   5.249   1.005   4.470 -0.1074  0.2658 -0.1180
  183SOL    HW2  498   5.198   0.965   4.540  1.2826  1.3606  1.6195
  183SOL    HW3  499   5.310   0.937   4.442 -1.5978 -0.6323 -1.3226
  183SOL    MW4  500   5.250   0.991   4.475 -0.1206  0.2917 -0.0477
  184SOL     OW  501   6.276   0.129   0.380 -0.0330  0.6674 -0.4468
  184SOL    HW2  502   6.264   0.221   0.404  1.1965  1.0477 -1.1431
  184SOL    HW3  503   6.262   0.128   0.285 -2.3677 -0.3324 -0.1489
  184SOL    MW4  504   6.273   0.141   0.370 -0.1788  0.5857 -0.4994
  185SOL     OW  505   5.636   3.554   3.977 -0.2029  0.2378 -0.1019
  185SOL    HW2  506   5.729   3.559   4.001  0.3179 -3.9278 -0.5693
  185SOL    HW3  507   5.590   3.553   4.061  0.2983  0.4976  0.1869
  185SOL    MW4  508   5.642   3.555   3.991 -0.0681 -0.2775 -0.1255
  186SOL     OW  509   2.680   2.018   0.952 -0.5812 -0.7092  0.4511
  186SOL    HW2  510   2.607   2.046   0.897 -1.8327 -1.5817  1.5725
  186SOL    HW3  511   2.752   2.003   0.891 -1.1903  0.6009 -0.6480
  186SOL    MW4  512   2.680   2.020   0.937 -0.8267 -0.6515  0.4541
  187SOL     OW  513   3.834   0.882   1.744  0.3925 -0.7297 -1.2294
  187SOL    HW2  514   3.764   0.898   1.806 -0.6679 -3.6328 -1.5577
  187SOL    HW3  515   3.904   0.943   1.771 -1.3660  0.6542  0.4787
  187SOL    MW4  516   3.834   0.892   1.756  0.0206 -0.9301 -1.0473
  188SOL     OW  517   1.942   1.782   5.180  0.0005  0.0989 -0.4434
  188SOL    HW2  518   1.937   1.857   5.239 -3.5951 -0.1853 -0.1601
  188SOL    HW3  519   1.987   1.715   5.230  0.0388  0.9358  0.6719
  188SOL    MW4  520   1.947   1.783   5.194 -0.4688  0.1719 -0.2589
  189SOL     OW  521   0.758   4.127   5.530  0.6000  0.2670  0.2830
  189SOL    HW2  522   0.669   4.091   5.527  1.1201 -1.0193 -0.4046
  189SOL    HW3  523   0.789   4.107   5.618  0.0494  1.1646  0.6966
  189SOL    MW4  524   0.750   4.120   5.541  0.5960  0.2157  0.2468
  190SOL     OW  525   1.105   0.431   1.565  0.5079 -0.0435 -0.4184
  190SOL    HW2  526   1.189   0.474   1.581  0.3808 -0.0000  0.1720
  190SOL    HW3  527   1.099   0.423   1.470 -0.0149  2.3373 -0.6442
  190SOL    MW4  528   1.115   0.436   1.555  0.4222  0.2764 -0.3703
  191SOL     OW  529   5.867   4.112   5.743 -0.2457  0.0460  0.0726
  191SOL    HW2  530   5.872   4.028   5.697  0.5272 -0.2577  0.6953
  191SOL    HW3  531   5.850   4.176   5.674 -0.5584 -0.5865 -0.4466
  191SOL    MW4  532   5.865   4.109   5.728 -0.1850 -0.0775  0.0862
  192SOL     OW  533   2.053   4.741   4.611 -0.4863  0.3559 -0.2447
  192SOL    HW2  534   2.007   4.696   4.682 -0.7909 -2.6244 -2.1674
  192SOL    HW3  535   2.134   4.692   4.598  0.1846  1.6226 -1.1191
  192SOL    MW4  536   2.057   4.729   4.618 -0.4380  0.1298 -0.6137
  193SOL     OW  537   0.187   3.546   0.920  0.0708 -0.3754 -0.1806
  193SOL    HW2  538   0.109   3.587   0.880 -0.5996 -2.0988 -0.7484
  193SOL    HW3  539   0.249   3.539   0.848  0.7357  0.8968  0.2485
  193SOL    MW4  540   0.185   3.551   0.905  0.0701 -0.4349 -0.1989
  194SOL     OW  541   6.378   4.971   5.039 -0.2441 -0.0986 -0.4478
  194SOL    HW2  542   6.353   4.906   4.973  0.7204  0.9613 -1.8926
  194SOL    HW3  543   6.410   4.918   5.112 -2.7446 -1.3579 -0.1327
  194SOL    MW4  544   6.379   4.955   5.040 -0.4468 -0.1249 -0.5969
  195SOL     OW  545   2.125   3.707   4.191 -0.1291 -0.0127  0.0666
  195SOL    HW2  546   2.106   3.754   4.273 -0.0719  0.4766 -0.1944
  195SOL    HW3  547   2.139   3.617   4.218  1.5924  0.4285  0.8445
  195SOL    MW4  548   2.125   3.702   4.206  0.1056  0.1100  0.1348
  196SOL     OW  549   1.446   3.164   4.658  0.0535  0.1164 -0.0712
  196SOL    HW2  550   1.540   3.149   4.655  0.5056  2.5389 -0.5475
  196SOL    HW3  551   1.414   3.110   4.730  1.9598 -0.0431  0.6911
  196SOL    MW4  552   1.454   3.155   4.667  0.3646  0.4150 -0.0335
  197SOL     OW  553   4.147   2.078   5.002 -0.6642 -0.6297  0.2915
  197SOL    HW2  554   4.097   2.130   5.064 -1.0808  2.2963 -2.2874
  197SOL    HW3  555   4.092   2.001   4.985 -3.1501  1.2069 -0.5044
  197SOL    MW4  556   4.134   2.075   5.008 -1.0472 -0.0013 -0.1537
  198SOL     OW  557   3.024   6.051   5.047  0.2065  1.1371  0.0652
  198SOL    HW2  558   2.951   5.990   5.061  0.3118  0.7274 -1.0560
  198SOL    HW3  559   2.981   6.134   5.025  0.0744  1.3096  0.9203
  198SOL    MW4  560   3.008   6.054   5.046  0.2030  1.1058  0.0301
  199SOL     OW  561   4.085   1.282   6.016 -0.0385 -0.7525 -0.1830
  199SOL    HW2  562   4.165   1.249   5.975 -0.3703 -2.8771  0.7257
  199SOL    HW3  563   4.102   1.275   6.110 -1.3987 -1.5891  0.0312
  199SOL    MW4  564   4.098   1.277   6.023 -0.2617 -1.1432 -0.0349
  200SOL     OW  565   4.114   0.553   2.867  0.1663  0.0646 -0.2359
  200SOL    HW2  566   4.021   0.553   2.890  0.4670  1.0028  1.0392
  200SOL    HW3  567   4.143   0.464   2.887 -0.1957  0.0959  0.4369
  200SOL    MW4  568   4.106   0.541   2.872  0.1582  0.1925  0.0211
  201SOL     OW  569   6.298   4.416   2.945  0.5616 -0.3355  0.0007
  201SOL    HW2  570   6.295   4.416   2.849  2.3073  0.2307 -0.0886
  201SOL    HW3  571   6.285   4.325   2.970 -0.5201 -0.3975 -0.7288
  201SOL    MW4  572   6.296   4.404   2.936  0.6492 -0.2690 -0.1073
  202SOL     OW  573   4.769   1.623   5.009  0.2391  0.1039 -0.3399
  202SOL    HW2  574   4.846   1.568   5.021  1.6073  1.3186 -2.7486
  202SOL    HW3  575   4.732   1.596   4.925 -1.4878  0.1392  0.3555
  202SOL    MW4  576   4.774   1.612   5.000  0.1918  0.2688 -0.5659
  203SOL     OW  577   3.350   3.458   1.566 -0.4408 -0.2361 -0.4382
  203SOL    HW2  578   3.381   3.442   1.477 -0.1825 -0.7482 -0.2593
  203SOL    HW3  579   3.361   3.374   1.611  0.8208  0.4071  0.4878
  203SOL    MW4  580   3.355   3.445   1.560 -0.2403 -0.2188 -0.2925
  204SOL     OW  581   1.471   1.021   3.853  0.3013 -0.1579 -0.2557
  204SOL    HW2  582   1.489   1.109   3.822 -1.3193  0.4982  0.5459
  204SOL    HW3  583   1.427   0.978   3.779  2.2587 -0.7969 -1.1347
  204SOL    MW4  584   1.468   1.027   3.839  0.3458 -0.1556 -0.2659
  205SOL     OW  585   2.672   4.201   4.730  0.3338 -0.3625 -1.0949
  205SOL    HW2  586   2.758   4.241   4.735  0.1951 -0.0109 -1.4797
  205SOL    HW3  587   2.635   4.232   4.647 -0.6703  0.5309 -0.3595
  205SOL    MW4  588   2.678   4.210   4.720  0.1830 -0.1982 -1.0486
  206SOL     OW  589   1.518   1.012   2.008 -0.7459  0.7061  0.5150
  206SOL    HW2  590   1.452   1.081   2.002  0.4953  2.1168  2.1356
  206SOL    HW3  591   1.514   0.967   1.923 -2.2138  2.1724 -0.2492
  206SOL    MW4  592   1.508   1.015   1.996 -0.7758  1.0857  0.6280
  207SOL     OW  593   3.239   1.358   1.466 -0.7339  0.5894  0.2166
  207SOL    HW2  594   3.147   1.341   1.483 -0.4567  0.5811  1.8559
  207SOL    HW3  595   3.262   1.429   1.526  0.8721 -0.9637  1.5493
  207SOL    MW4  596   3.230   1.365   1.476 -0.4854  0.3834  0.6087
  208SOL     OW  597   4.330   5.305   4.327  0.2767 -0.1155  0.6669
  208SOL    HW2  598   4.354   5.343   4.411 -1.4306 -0.2118  1.2377
  208SOL    HW3  599   4.370   5.363   4.262  0.8435  0.4935  1.5408
  208SOL    MW4  600   4.338   5.318   4.329  0.1262 -0.0478  0.8575
  209SOL     OW  601   1.745   2.475   3.592 -0.0154 -0.4255  0.0939
  209SOL    HW2  602   1.774   2.523   3.515  1.6207 -1.7181 -0.1612
  209SOL    HW3  603   1.713   2.542   3.653  2.4685  1.0404 -0.0957
  209SOL    MW4  604   1.744   2.490   3.590  0.5282 -0.4026  0.0352
  210SOL     OW  605   4.998   2.856   1.294 -0.1955  0.1933 -0.0390
  210SOL    HW2  606   5.050   2.776   1.293 -0.5793 -0.0701  0.7000
  210SOL    HW3  607   4.959   2.858   1.381 -0.9335  0.7081 -0.3770
  210SOL    MW4  608   5.000   2.846   1.306 -0.3435  0.2265  0.0139
  211SOL     OW  609   3.064   0.570   3.806  0.4379  0.5803 -0.3600
  211SOL    HW2  610   2.985   0.622   3.821 -0.5252 -1.1288  0.7071
  211SOL    HW3  611   3.119   0.587   3.882 -0.5211 -1.0588  0.7384
  211SOL    MW4  612   3.061   0.579   3.818  0.1843  0.1386 -0.0743
  212SOL     OW  613   3.875   3.804   3.868  0.2369 -1.0520  0.1558
  212SOL    HW2  614   3.824   3.773   3.793 -0.8696 -1.7453  1.1651
  212SOL    HW3  615   3.952   3.746   3.871  1.3976  0.2881 -1.6498
  212SOL    MW4  616   3.878   3.792   3.858  0.2441 -0.9667  0.0507
  213SOL     OW  617   3.850   2.637   5.157 -0.2419 -0.3230  0.1253
  213SOL    HW2  618   3.908   2.601   5.225 -1.2375  1.8620  2.2722
  213SOL    HW3  619   3.906   2.696   5.106 -0.2279  0.8271  1.4109
  213SOL    MW4  620   3.865   2.640   5.159 -0.3714  0.1170  0.5782
  214SOL     OW  621   3.648   0.466   1.526  0.0340 -0.3757 -0.2509
  214SOL    HW2  622   3.662   0.511   1.442 -1.2968  0.1567 -0.2053
  214SOL    HW3  623   3.721   0.495   1.580  0.6825 -0.3970 -1.0901
  214SOL    MW4  624   3.660   0.476   1.522 -0.0560 -0.3082 -0.3556
  215SOL     OW  625   4.114   0.280   2.950  0.2868 -0.1144 -0.1062
  215SOL    HW2  626   4.159   0.200   2.978 -0.9456 -0.9627 -0.4277
  215SOL    HW3  627   4.042   0.248   2.895  0.7103  1.3243 -1.5466
  215SOL    MW4  628   4.110   0.265   2.946  0.1801 -0.0365 -0.3387
  216SOL     OW  629   6.291   4.103   2.001 -0.2117 -0.3823 -0.6170
  216SOL    HW2  630   6.290   4.121   2.095  0.4138  1.4007 -0.9176
  216SOL    HW3  631   6.209   4.057   1.985 -1.3845  1.2079  0.4746
  216SOL    MW4  632   6.280   4.099   2.011 -0.2839  0.0628 -0.5126
  217SOL     OW  633   3.612   3.679   4.534  0.5354 -0.3559 -0.2381
  217SOL    HW2  634   3.580   3.750   4.590 -0.7687 -0.6548 -0.5723
  217SOL    HW3  635   3.703   3.667   4.561 -0.3986 -1.4976  2.9317
  217SOL    MW4  636   3.619   3.687   4.545  0.2401 -0.5460  0.1360
  218SOL     OW  637   1.319   2.298   5.618 -0.5392 -0.2540  0.3278
  218SOL    HW2  638   1.227   2.295   5.591 -0.5744 -0.2639  0.4514
  218SOL    HW3  639   1.317   2.289   5.713 -0.3256 -1.8263  0.2143
  218SOL    MW4  640   1.307   2.296   5.627 -0.5157 -0.4627  0.3292
  219SOL     OW  641   1.597   2.329   5.301  0.3816  0.0516  0.1814
  219SOL    HW2  642   1.581   2.269   5.374 -1.1707  0.8344  0.5419
  219SOL    HW3  643   1.577   2.416   5.337 -3.2032  0.2413 -1.8318
  219SOL    MW4  644   1.592   2.333   5.315 -0.2961  0.1799 -0.0367
  220SOL     OW  645   0.289   3.799   5.798 -0.3138 -0.4332 -0.1964
  220SOL    HW2  646   0.195   3.797   5.811 -0.1947 -0.6190  0.7189
  220SOL    HW3  647   0.301   3.781   5.705 -1.1916  0.0169 -0.4113
  220SOL    MW4  648   0.279   3.797   5.788 -0.4139 -0.3983 -0.1040
  221SOL     OW  649   3.214   0.263   5.560  0.3314 -0.0525 -0.0130
  221SOL    HW2  650   3.294   0.305   5.591  0.0857  1.1600 -0.9668
  221SOL    HW3  651   3.231   0.169   5.570  0.9526  0.2305  2.0127
  221SOL    MW4  652   3.227   0.256   5.565  0.3809  0.1448  0.1284
  222SOL     OW  653   6.133   1.281   6.066 -0.1039  0.0193  0.2057
  222SOL    HW2  654   6.228   1.276   6.073 -0.1603  1.2686  3.5974
  222SOL    HW3  655   6.116   1.364   6.020  0.4105 -0.1604 -0.3173
  222SOL    MW4  656   6.143   1.291   6.061 -0.0435  0.1604  0.5842
  223SOL     OW  657   6.408   0.765   0.314 -0.1950  0.3451 -0.8239
  223SOL    HW2  658   6.403   0.670   0.312 -3.4993  0.3194  0.9116
  223SOL    HW3  659   6.435   0.790   0.226  0.4296 -2.1497 -1.4168
  223SOL    MW4  660   6.411   0.756   0.302 -0.5486  0.0126 -0.6732
  224SOL     OW  661   5.351   1.900   5.952 -0.9107  0.2317  0.1682
  224SOL    HW2  662   5.350   1.957   5.876 -0.2813 -1.0313 -0.8321
  224SOL    HW3  663   5.441   1.867   5.956 -1.7024 -2.2211 -0.5236
  224SOL    MW4  664   5.363   1.903   5.943 -0.9321 -0.2585 -0.0550
  225SOL     OW  665   1.674   6.371   4.415 -0.0299 -0.4144 -0.0679
  225SOL    HW2  666   1.676   6.369   4.319  0.3103 -0.8239 -0.0525
  225SOL    HW3  667   1.756   6.330   4.442 -0.0134 -0.0807  0.3996
  225SOL    MW4  668   1.685   6.365   4.406  0.0172 -0.4244 -0.0042
  226SOL     OW  669   0.493   2.987   0.766  0.5626  0.6031  0.0586
  226SOL    HW2  670   0.536   3.072   0.771  4.1212 -1.1024  1.0023
  226SOL    HW3  671   0.546   2.936   0.705 -1.4420 -1.0471 -0.4503
  226SOL    MW4  672   0.505   2.992   0.758  0.7676  0.1604  0.1159
  227SOL     OW  673   2.093   2.727   3.269 -0.3249  0.2226 -0.4585
  227SOL    HW2  674   2.168   2.779   3.299  0.2022 -0.3532 -0.7655
  227SOL    HW3  675   2.110   2.639   3.302 -0.8132  0.0630 -0.6269
  227SOL    MW4  676   2.105   2.722   3.277 -0.3198  0.1256 -0.5212
  228SOL     OW  677   2.692   1.377   5.253 -0.2899 -0.2603  0.1549
  228SOL    HW2  678   2.659   1.343   5.169 -0.7844  0.5571 -0.0014
  228SOL    HW3  679   2.680   1.306   5.315 -2.0697 -0.1185  0.0208
  228SOL    MW4  680   2.686   1.363   5.250 -0.5900 -0.1338  0.1166
  229SOL     OW  681   0.218   4.211   1.864 -0.7263  0.3349 -0.8397
  229SOL    HW2  682   0.302   4.255   1.855 -0.0482 -0.6600  0.2123
  229SOL    HW3  683   0.189   4.194   1.774  1.2936 -1.2556 -1.2797
  229SOL    MW4  684   0.225   4.214   1.851 -0.3703 -0.0062 -0.7590
  230SOL     OW  685   1.029   1.871   5.183 -0.2685 -0.4749  0.2729
  230SOL    HW2  686   0.960   1.886   5.248 -1.2649 -1.7592 -0.4357
  230SOL    HW3  687   1.090   1.943   5.196 -1.8668  0.8572  0.7669
  230SOL    MW4  688   1.028   1.882   5.194 -0.6108 -0.4686  0.2446
  231SOL     OW  689   3.796   4.849   0.385 -0.2887  0.2519 -0.0397
  231SOL    HW2  690   3.795   4.755   0.401  0.1674  0.3380  0.5055
  231SOL    HW3  691   3.721   4.864   0.327  0.4982 -0.6651 -1.3737
  231SOL    MW4  692   3.786   4.839   0.379 -0.1247  0.1423 -0.1437
  232SOL     OW  693   5.707   2.942   3.359 -0.3499 -0.0673 -0.0706
  232SOL    HW2  694   5.701   3.035   3.380 -0.5099 -0.0127 -0.3424
  232SOL    HW3  695   5.789   2.934   3.310  0.4789 -0.3466  1.3076
  232SOL    MW4  696   5.717   2.954   3.355 -0.2617 -0.0970  0.0754
  233SOL     OW  697   0.681   2.466   1.249 -0.0129  0.4500 -0.2792
  233SOL    HW2  698   0.615   2.530   1.222 -0.8153 -0.5936 -0.8899
  233SOL    HW3  699   0.732   2.451   1.169 -0.2119 -0.1091 -0.3017
  233SOL    MW4  700   0.679   2.473   1.235 -0.1450  0.2385 -0.3627
  234SOL     OW  701   6.085   6.415   3.310  0.2896 -0.1746 -0.7035
  234SOL    HW2  702   6.013   6.356   3.286  0.0440 -1.4225  2.6507
  234SOL    HW3  703   6.154   6.357   3.342  1.7985  1.1739 -1.3664
  234SOL    MW4  704   6.085   6.400   3.311  0.4563 -0.1613 -0.3484
  235SOL     OW  705   3.312   0.787   4.802 -0.2068  0.0272 -0.1230
  235SOL    HW2  706   3.386   0.771   4.862 -0.5693 -1.5284 -0.0525
  235SOL    HW3  707   3.351   0.783   4.715  0.3928  2.6587 -0.0681
  235SOL    MW4  708   3.327   0.784   4.799 -0.1755  0.1691 -0.1064
  236SOL     OW  709   4.554   1.894   3.844 -0.0619  0.6444  0.3575
  236SOL    HW2  710   4.503   1.813   3.857  0.3689  0.0437 -1.3480
  236SOL    HW3  711   4.537   1.946   3.922 -2.9398  0.2847  0.0880
  236SOL    MW4  712   4.545   1.890   3.856 -0.3848  0.5177  0.0969
  237SOL     OW  713   0.032   5.321   0.813  0.0242 -0.3337  0.5635
  237SOL    HW2  714   0.072   5.315   0.900 -0.8405  0.9319  1.0893
  237SOL    HW3  715  -0.038   5.256   0.814 -0.5310  0.2492  1.1567
  237SOL    MW4  716   0.028   5.312   0.825 -0.1631 -0.0898  0.7111
  238SOL     OW  717   3.774   5.097   3.862 -0.0333  0.2071 -0.2317
  238SOL    HW2  718   3.827   5.058   3.932  0.9200  1.2351 -0.3580
  238SOL    HW3  719   3.798   5.048   3.783 -1.3515 -1.1772  0.1580
  238SOL    MW4  720   3.784   5.085   3.861 -0.0814  0.1601 -0.1970
  239SOL     OW  721   0.371   4.098   3.331 -0.0192 -0.3271 -0.2629
  239SOL    HW2  722   0.441   4.087   3.395  0.3235  1.0899 -0.3733
  239SOL    HW3  723   0.332   4.011   3.323  1.9547 -1.2392 -0.4621
  239SOL    MW4  724   0.375   4.085   3.338  0.2865 -0.2605 -0.3037
  240SOL     OW  725   2.106   0.797   2.037 -0.1265  0.3703  0.2262
  240SOL    HW2  726   2.185   0.801   2.091 -0.9875  0.2795  1.5506
  240SOL    HW3  727   2.094   0.887   2.006  1.1150  0.1605 -0.9760
  240SOL    MW4  728   2.115   0.810   2.040 -0.0763  0.3307  0.2423
  241SOL     OW  729   2.499   5.622   0.359 -0.1085 -0.2592 -0.6903
  241SOL    HW2  730   2.577   5.677   0.361 -0.7987  0.7372  0.1235
  241SOL    HW3  731   2.440   5.666   0.299 -0.1435 -0.8903 -1.1293
  241SOL    MW4  732   2.502   5.635   0.352 -0.2042 -0.2110 -0.6408
  242SOL     OW  733   6.258   0.645   5.747 -0.1251  0.0483  0.3674
  242SOL    HW2  734   6.281   0.728   5.706 -1.0026  0.6826  1.1105
  242SOL    HW3  735   6.291   0.653   5.837 -1.4350  0.1725  0.8554
  242SOL    MW4  736   6.266   0.657   5.753 -0.4137  0.1484  0.5298
  243SOL     OW  737   0.231   3.235   0.340  0.2722  0.0673  0.2066
  243SOL    HW2  738   0.243   3.319   0.384  1.0125  0.0788 -0.0014
  243SOL    HW3  739   0.291   3.176   0.385 -1.3269 -0.7384  1.3372
  243SOL    MW4  740   0.241   3.238   0.351  0.1589 -0.0375  0.3283
  244SOL     OW  741   0.693   4.337   1.294 -0.1205  0.5461 -0.7858
  244SOL    HW2  742   0.765   4.308   1.238  0.6338  0.2846  0.2825
  244SOL    HW3  743   0.710   4.430   1.308  1.2883  0.0645  1.2011
  244SOL    MW4  744   0.705   4.346   1.289  0.1649  0.4481 -0.3827
  245SOL     OW  745   3.047   0.780   5.246  0.1812 -0.0509 -0.1486
  245SOL    HW2  746   2.992   0.701   5.252 -0.1476  0.1092 -0.8710
  245SOL    HW3  747   3.082   0.792   5.334 -0.0027 -0.8370  0.0427
  245SOL    MW4  748   3.044   0.771   5.258  0.1135 -0.1335 -0.2187
  246SOL     OW  749   3.683   1.814   5.887 -0.0190 -0.6256 -0.0799
  246SOL    HW2  750   3.763   1.765   5.867  0.0992 -0.2927 -0.4529
  246SOL    HW3  751   3.691   1.837   5.979  0.6461 -0.0157 -0.2717
  246SOL    MW4  752   3.695   1.811   5.896  0.0843 -0.5012 -0.1544
  247SOL     OW  753   4.750   0.004   1.245 -0.4560  0.7123 -0.3829
  247SOL    HW2  754   4.734  -0.086   1.217  1.3782  0.1997  0.0855
  247SOL    HW3  755   4.825  -0.002   1.304  0.9227  2.7373 -1.7972
  247SOL    MW4  756   4.758  -0.008   1.249 -0.0321  0.9118 -0.5077
  248SOL     OW  757   4.794   0.759   1.779  0.2744 -0.1117 -0.1695
  248SOL    HW2  758   4.729   0.826   1.802  1.0030  0.7267 -0.4985
  248SOL    HW3  759   4.862   0.768   1.846  0.3791 -0.5279 -0.2185
  248SOL    MW4  760   4.794   0.769   1.791  0.3843 -0.0560 -0.2194
  249SOL     OW  761   2.573   0.791   3.513  0.4075  0.1778 -0.0138
  249SOL    HW2  762   2.514   0.719   3.493 -1.4387  1.5571  0.1914
  249SOL    HW3  763   2.575   0.795   3.609  0.0310  0.7439 -0.0238
  249SOL    MW4  764   2.566   0.782   3.523  0.1143  0.4345  0.0120
  250SOL     OW  765   2.821   1.608   5.036 -0.8981  0.3215  0.0396
  250SOL    HW2  766   2.756   1.597   5.105  0.4756  2.0387  1.7037
  250SOL    HW3  767   2.859   1.695   5.051  1.1418 -0.2242 -1.4058
  250SOL    MW4  768   2.818   1.618   5.047 -0.4477  0.4761  0.0685
  251SOL     OW  769   5.899   5.604   2.085  0.1099 -0.2946 -0.4395
  251SOL    HW2  770   5.853   5.552   2.151 -0.1628 -0.9652 -1.1492
  251SOL    HW3  771   5.954   5.664   2.136 -1.6651  0.6686  0.4600
  251SOL    MW4  772   5.900   5.605   2.100 -0.1603 -0.2560 -0.4144
  252SOL     OW  773   3.177   1.974   2.611  0.0217 -0.2004 -0.0953
  252SOL    HW2  774   3.193   2.015   2.526  1.0482  2.0393  1.0652
  252SOL    HW3  775   3.172   1.881   2.593  0.6423  0.1753 -2.5475
  252SOL    MW4  776   3.179   1.967   2.597  0.2390  0.1447 -0.2657
  253SOL     OW  777   5.357   5.721   5.518 -0.1980  0.1996  0.3425
  253SOL    HW2  778   5.434   5.745   5.467 -0.0187  0.2538  0.6381
  253SOL    HW3  779   5.316   5.805   5.540  0.6775  0.2811  1.7642
  253SOL    MW4  780   5.362   5.735   5.514 -0.0588  0.2175  0.5691
  254SOL     OW  781   2.899   5.367   4.302  0.0611  0.0516  0.4724
  254SOL    HW2  782   2.821   5.386   4.249 -0.1290  0.8560  1.0262
  254SOL    HW3  783   2.973   5.384   4.243 -0.1355 -2.8318 -0.7962
  254SOL    MW4  784   2.898   5.372   4.287  0.0101 -0.2227  0.3781
  255SOL     OW  785   1.787   4.068   0.093 -0.2713  0.3188  0.2908
  255SOL    HW2  786   1.767   3.991   0.040  1.2385 -0.7153  1.1511
  255SOL    HW3  787   1.731   4.137   0.058 -1.2346 -1.0151 -0.8877
  255SOL    MW4  788   1.777   4.067   0.082 -0.1992  0.0064  0.2488
  256SOL     OW  789   0.737   3.722   3.964 -0.1794  0.0110  0.3991
  256SOL    HW2  790   0.742   3.757   4.053 -1.6745 -1.7040  1.2200
  256SOL    HW3  791   0.699   3.635   3.974  0.5319 -0.6448 -1.8432
  256SOL    MW4  792   0.733   3.715   3.977 -0.2828 -0.3018  0.2116
  257SOL     OW  793   5.838   1.431   4.098  0.0895 -0.4094 -0.8584
  257SOL    HW2  794   5.918   1.479   4.075 -0.9602  1.5789 -0.5970
  257SOL    HW3  795   5.851   1.344   4.060  1.9789  0.1373 -1.6134
  257SOL    MW4  796   5.851   1.426   4.090  0.2003 -0.0750 -0.9235
  258SOL     OW  797   3.715   4.084   3.925 -0.0199  0.1128 -0.2331
  258SOL    HW2  798   3.788   4.068   3.866  0.0751 -0.9071  0.1385
  258SOL    HW3  799   3.751   4.137   3.996  0.0323  0.7338 -0.7113
  258SOL    MW4  800   3.729   4.089   3.927 -0.0005  0.0602 -0.2472
  259SOL     OW  801   0.334   4.832   0.259 -0.5441  0.7454  0.7269
  259SOL    HW2  802   0.345   4.907   0.317 -0.0312  0.7293  0.6566
  259SOL    HW3  803   0.386   4.762   0.299  1.3059  1.2447 -0.6412
  259SOL    MW4  804   0.343   4.833   0.272 -0.2324  0.8092  0.5371
  260SOL     OW  805   0.832   6.177   1.987  0.7452  0.7221  0.3858
  260SOL    HW2  806   0.774   6.151   1.915 -0.3881 -1.3869  1.9596
  260SOL    HW3  807   0.876   6.256   1.954  0.4106 -0.2087 -2.6571
  260SOL    MW4  808   0.830   6.184   1.973  0.5516  0.3210  0.1920
  261SOL     OW  809   1.791   4.986   3.228 -0.7308  0.5250 -0.0490
  261SOL    HW2  810   1.853   4.946   3.167  2.9465  0.2284  3.4419
  261SOL    HW3  811   1.818   5.077   3.234  1.2138 -0.0738  3.1851
  261SOL    MW4  812   1.803   4.993   3.221  0.0110  0.4069  0.8383
  262SOL     OW  813   2.235   0.613   2.464  0.4794  0.1307 -0.5901
  262SOL    HW2  814   2.279   0.591   2.546  0.8535  3.7423  0.3918
  262SOL    HW3  815   2.165   0.548   2.456 -0.1716  0.1354  3.1656
  262SOL    MW4  816   2.231   0.602   2.474  0.4429  0.6078  0.0350
  263SOL     OW  817   1.998   3.004   2.846 -0.4768 -0.4489 -0.7274
  263SOL    HW2  818   1.993   2.935   2.913 -1.0580 -0.0594 -0.3549
  263SOL    HW3  819   1.966   2.963   2.766 -1.3730 -0.4560 -0.3715
  263SOL    MW4  820   1.993   2.990   2.844 -0.6717 -0.3985 -0.6313
  264SOL     OW  821   3.133   6.044   0.311 -0.4130  0.0753 -0.1100
  264SOL    HW2  822   3.049   6.090   0.303 -1.1583 -1.0176  0.8906
  264SOL    HW3  823   3.199   6.112   0.300 -1.4468  1.1718  0.1951
  264SOL    MW4  824   3.131   6.059   0.309 -0.6477  0.0758  0.0623
  265SOL     OW  825   4.655   0.573   2.504  0.0456 -0.1368 -0.1837
  265SOL    HW2  826   4.726   0.636   2.517  0.5449 -1.0115  1.5586
  265SOL    HW3  827   4.695   0.502   2.453  0.1431 -0.1604 -0.0751
  265SOL    MW4  828   4.670   0.572   2.499  0.1244 -0.2553  0.0605
  266SOL     OW  829   3.592   0.784   2.678 -0.3185 -0.0305  0.5225
  266SOL    HW2  830   3.617   0.865   2.721 -0.5938  0.2122  0.2255
  266SOL    HW3  831   3.670   0.759   2.628  0.1077 -0.4714  1.3777
  266SOL    MW4  832   3.606   0.791   2.677 -0.2986 -0.0566  0.5962
  267SOL     OW  833   5.131   0.317   4.587  0.0809 -0.2323 -0.1312
  267SOL    HW2  834   5.083   0.329   4.505 -1.6603 -0.5875  0.7923
  267SOL    HW3  835   5.130   0.222   4.601  1.6927 -0.3333 -0.4111
  267SOL    MW4  836   5.125   0.306   4.578  0.0639 -0.2925 -0.0463
  268SOL     OW  837   6.352   6.160   5.641 -0.2273  0.0317  0.4433
  268SOL    HW2  838   6.276   6.199   5.598  0.6272  1.2676 -0.0002
  268SOL    HW3  839   6.378   6.225   5.707  0.5313 -0.3009  0.4793
  268SOL    MW4  840   6.346   6.174   5.644 -0.0144  0.1509  0.3896
  269SOL     OW  841   3.934   6.230   2.943 -0.0108 -0.2263 -0.4071
  269SOL    HW2  842   3.957   6.242   3.035 -0.3807  1.6279 -0.5361
  269SOL    HW3  843   3.918   6.135   2.935  0.0372 -0.4206  1.4163
  269SOL    MW4  844   3.935   6.219   2.954 -0.0533 -0.0073 -0.1835
  270SOL     OW  845   2.576   5.775   4.990  0.2464  0.3199 -0.1451
  270SOL    HW2  846   2.490   5.785   5.032  1.0192  2.4129  1.1200
  270SOL    HW3  847   2.572   5.690   4.946 -0.9265 -1.7386  3.5242
  270SOL    MW4  848   2.564   5.765   4.990  0.1936  0.3244  0.5060
  271SOL     OW  849   3.711   4.277   6.108 -0.0026 -0.0117 -0.0262
  271SOL    HW2  850   3.705   4.258   6.014  0.9360  0.0878 -0.1140
  271SOL    HW3  851   3.805   4.282   6.126 -0.0450 -2.2829  1.3645
  271SOL    MW4  852   3.723   4.275   6.098  0.1156 -0.2983  0.1457
  272SOL     OW  853   0.852   4.996   1.209 -0.2592  0.0969  0.5305
  272SOL    HW2  854   0.814   5.074   1.250  0.1018 -0.5469  2.1486
  272SOL    HW3  855   0.784   4.966   1.148 -0.7799  1.1273  0.5803
  272SOL    MW4  856   0.838   5.003   1.206 -0.2803  0.1479  0.7506
  273SOL     OW  857   1.779   4.466   4.467  0.1227 -0.1532  0.0735
  273SOL    HW2  858   1.766   4.558   4.447 -0.6626 -0.1506  0.5676
  273SOL    HW3  859   1.756   4.458   4.559 -0.0967 -0.8956 -0.0385
  273SOL    MW4  860   1.774   4.477   4.476 -0.0098 -0.2508  0.1239
  274SOL     OW  861   4.489   3.042   5.960  0.1242  0.1270 -0.4301
  274SOL    HW2  862   4.515   2.958   5.921 -1.4172 -1.3809  1.5547
  274SOL    HW3  863   4.464   3.096   5.885  1.4737 -1.0479 -1.7995
  274SOL    MW4  864   4.489   3.038   5.945  0.0989 -0.2270 -0.3489
  275SOL     OW  865   0.436   4.405   4.603 -0.2389  0.6789 -0.0463
  275SOL    HW2  866   0.481   4.480   4.643 -0.6641 -0.1307  2.1296
  275SOL    HW3  867   0.506   4.344   4.581  0.0414  1.3364 -1.0465
  275SOL    MW4  868   0.451   4.407   4.606 -0.2580  0.6588  0.1088
  276SOL     OW  869   1.469   1.224   6.274 -0.0771 -0.0027 -0.1375
  276SOL    HW2  870   1.392   1.173   6.251  1.1488 -1.2582 -1.7604
  276SOL    HW3  871   1.459   1.307   6.228  0.2307 -0.7634 -1.6195
  276SOL    MW4  872   1.458   1.228   6.265  0.1252 -0.2687 -0.5471
  277SOL     OW  873   0.937   5.376   0.605 -0.2696  0.4012 -0.4965
  277SOL    HW2  874   0.864   5.438   0.607  0.5521  1.3908 -0.2531
  277SOL    HW3  875   0.949   5.358   0.512  0.0544  1.3215 -0.6448
  277SOL    MW4  876   0.929   5.382   0.593 -0.1184  0.6532 -0.4839
  278SOL     OW  877   5.618   4.359   1.516 -0.0248 -0.7722  0.0471
  278SOL    HW2  878   5.524   4.375   1.512 -0.0806 -1.2047 -0.5459
  278SOL    HW3  879   5.642   4.380   1.606 -0.5635 -0.0093  0.0170
  278SOL    MW4  880   5.609   4.364   1.527 -0.1032 -0.7286 -0.0351
  279SOL     OW  881   5.878   3.463   6.128  0.1034 -0.3353 -0.0293
  279SOL    HW2  882   5.784   3.464   6.114  0.0336  3.9610 -0.5688
  279SOL    HW3  883   5.915   3.497   6.047  1.6838  2.0158  1.5313
  279SOL    MW4  884   5.871   3.468   6.116  0.3027  0.5417  0.1055
  280SOL     OW  885   6.274   6.234   4.674  0.1126 -0.1154 -0.3078
  280SOL    HW2  886   6.242   6.168   4.736 -1.7783  1.7195  0.8055
  280SOL    HW3  887   6.364   6.209   4.657 -0.2263 -2.4141  0.8226
  280SOL    MW4  888   6.281   6.222   4.680 -0.1816 -0.1766 -0.0118
  281SOL     OW  889   0.832   1.195   5.861  0.8342  0.3265  0.3620
  281SOL    HW2  890   0.879   1.121   5.897  0.9552 -0.2456 -0.9277
  281SOL    HW3  891   0.900   1.258   5.837  0.7317  0.8786  1.4590
  281SOL    MW4  892   0.847   1.194   5.862  0.8366  0.3239  0.3366
  282SOL     OW  893   0.776   0.884   1.160  0.1249  0.1606  0.5416
  282SOL    HW2  894   0.807   0.910   1.247  0.6850  0.1073  0.3624
  282SOL    HW3  895   0.712   0.815   1.177  1.0540 -0.6454  0.8793
  282SOL    MW4  896   0.771   0.878   1.174  0.3214  0.0473  0.5625
  283SOL     OW  897   1.896   0.637   6.242 -0.0307  0.0893  0.5355
  283SOL    HW2  898   1.939   0.717   6.210 -0.2152 -0.2268 -0.5469
  283SOL    HW3  899   1.894   0.580   6.165 -2.8107  0.2756  0.3907
  283SOL    MW4  900   1.902   0.640   6.227 -0.4218  0.0722  0.3736
  284SOL     OW  901   3.037   3.957   4.854 -0.2795  0.0818  0.1038
  284SOL    HW2  902   3.045   4.026   4.919 -0.1887 -0.6829  0.9231
  284SOL    HW3  903   3.122   3.954   4.810 -0.2522  0.4132  0.1338
  284SOL    MW4  904   3.049   3.965   4.857 -0.2639  0.0247  0.2159
  285SOL     OW  905   1.052   3.230   3.833 -0.2732 -0.2060  0.1218
  285SOL    HW2  906   1.099   3.189   3.906 -0.0134  1.0432  0.6673
  285SOL    HW3  907   0.967   3.254   3.870 -1.0215 -1.5732 -0.6016
  285SOL    MW4  908   1.047   3.228   3.847 -0.3377 -0.2216  0.0984
  286SOL     OW  909   4.082   5.696   1.509 -0.0727  0.4596  0.8483
  286SOL    HW2  910   4.036   5.614   1.495 -0.5296  0.5795  1.6087
  286SOL    HW3  911   4.022   5.750   1.560  0.1250  1.3650  0.1469
  286SOL    MW4  912   4.068   5.693   1.514 -0.1069  0.5949  0.8560
  287SOL     OW  913   5.383   5.441   2.668  0.0103 -0.3827 -0.1001
  287SOL    HW2  914   5.288   5.440   2.656 -0.0968 -0.4536  0.7146
  287SOL    HW3  915   5.418   5.448   2.579 -0.7598 -0.0921 -0.3903
  287SOL    MW4  916   5.375   5.442   2.654 -0.1055 -0.3537 -0.0309
  288SOL     OW  917   2.802   3.588   0.349  0.3548  0.0526  0.7055
  288SOL    HW2  918   2.760   3.674   0.344 -1.1597 -0.3967  3.4579
  288SOL    HW3  919   2.765   3.539   0.276  0.7696  1.5364 -0.5341
  288SOL    MW4  920   2.791   3.593   0.339  0.2097  0.1891  0.9051
  289SOL     OW  921   0.512   2.510   0.129 -0.0994 -0.1604 -0.0448
  289SOL    HW2  922   0.542   2.600   0.127 -1.0661  0.1651 -1.3891
  289SOL    HW3  923   0.588   2.459   0.158  0.1507  1.1686  1.8075
  289SOL    MW4  924   0.526   2.515   0.133 -0.1940  0.0579  0.0222
  290SOL     OW  925   1.377   4.559   5.881  0.1248  0.0990 -0.1717
  290SOL    HW2  926   1.292   4.587   5.915 -0.5732 -1.4571 -0.5484
  290SOL    HW3  927   1.395   4.477   5.927  0.2446 -0.8516 -1.8554
  290SOL    MW4  928   1.368   4.552   5.892  0.0485 -0.2317 -0.4436
  291SOL     OW  929   5.943   3.254   3.502 -0.2509  0.1459  0.5479
  291SOL    HW2  930   6.036   3.232   3.497 -0.4206 -1.3843  3.0235
  291SOL    HW3  931   5.939   3.344   3.467  2.0473  0.0849 -0.0699
  291SOL    MW4  932   5.955   3.263   3.497  0.0299 -0.0640  0.7930
  292SOL     OW  933   6.144   1.498   0.531 -0.0015 -0.2001 -0.4254
  292SOL    HW2  934   6.050   1.499   0.515 -0.2526 -2.3886  0.5378
  292SOL    HW3  935   6.153   1.525   0.622  0.2526 -0.4150 -0.3865
  292SOL    MW4  936   6.133   1.502   0.541 -0.0011 -0.5172 -0.2932
  293SOL     OW  937   1.302   0.481   5.005 -0.1631 -0.0614 -0.4043
  293SOL    HW2  938   1.375   0.485   4.943 -0.5320  0.4538 -0.8087
  293SOL    HW3  939   1.299   0.389   5.032  1.6421  0.1862  0.8328
  293SOL    MW4  940   1.311   0.470   5.000  0.0264  0.0392 -0.2944
  294SOL     OW  941   4.355   4.479   1.124  0.0049 -0.6600  1.1113
  294SOL    HW2  942   4.451   4.478   1.124  0.0067 -0.7942  0.7573
  294SOL    HW3  943   4.331   4.391   1.096 -0.2182 -0.4460  0.6291
  294SOL    MW4  944   4.365   4.467   1.120 -0.0243 -0.6494  1.0010
  295SOL     OW  945   0.480   6.241   4.939  0.2038 -0.5817 -0.7483
  295SOL    HW2  946   0.528   6.244   4.856 -0.8285  2.2249 -1.3763
  295SOL    HW3  947   0.388   6.239   4.913 -0.1146 -1.3606  0.3759
  295SOL    MW4  948   0.474   6.241   4.925  0.0256 -0.3142 -0.6828
  296SOL     OW  949   4.977   4.434   1.131 -0.2983  0.3659 -0.2021
  296SOL    HW2  950   4.964   4.442   1.036 -3.5853 -0.1911  0.0583
  296SOL    HW3  951   4.901   4.384   1.161  0.5144  0.7308  2.7742
  296SOL    MW4  952   4.965   4.429   1.123 -0.6248  0.3405  0.2249
  297SOL     OW  953   0.140   4.518   3.414  0.0820 -0.1089 -0.5967
  297SOL    HW2  954   0.180   4.603   3.432 -0.8498  0.2151  0.0532
  297SOL    HW3  955   0.101   4.492   3.497 -2.8815  0.6209 -1.6106
  297SOL    MW4  956   0.140   4.526   3.427 -0.4319  0.0301 -0.6447
  298SOL     OW  957   0.139   2.524   3.671  0.1937  0.3661  0.3547
  298SOL    HW2  958   0.083   2.586   3.624 -0.9915  0.1149  1.3786
  298SOL    HW3  959   0.180   2.575   3.740  0.4348  0.3302  0.2401
  298SOL    MW4  960   0.137   2.539   3.674  0.0692  0.3283  0.4747
  299SOL     OW  961   0.265   5.356   5.864 -0.5028  0.0503  0.5016
  299SOL    HW2  962   0.174   5.329   5.853 -1.0224  1.3373  1.4662
  299SOL    HW3  963   0.287   5.401   5.782 -0.4630 -0.9215 -0.0412
  299SOL    MW4  964   0.256   5.358   5.851 -0.5661  0.0918  0.5572
  300SOL     OW  965   4.891   4.191   0.937  0.1549  0.1594 -0.5021
  300SOL    HW2  966   4.887   4.097   0.918  2.7739 -0.0364 -0.3824
  300SOL    HW3  967   4.860   4.199   1.027 -0.7039 -0.4767 -0.7283
  300SOL    MW4  968   4.886   4.180   0.946  0.3871  0.0496 -0.5161
  301SOL     OW  969   1.715   1.548   4.114 -0.4468  0.2590  0.5148
  301SOL    HW2  970   1.654   1.504   4.173 -2.1857 -0.4983 -1.6922
  301SOL    HW3  971   1.791   1.490   4.111 -1.3497 -0.9418  0.1794
  301SOL    MW4  972   1.717   1.534   4.122 -0.7953  0.0006  0.1794
  302SOL     OW  973   1.987   5.932   3.321 -0.1278 -0.0903  0.4528
  302SOL    HW2  974   1.921   5.864   3.326 -0.1558 -0.0474  0.6862
  302SOL    HW3  975   1.938   6.013   3.310 -0.1142 -0.0571  0.6373
  302SOL    MW4  976   1.972   5.934   3.320 -0.1297 -0.0803  0.5080
  303SOL     OW  977   6.295   1.265   0.552 -0.0504  0.4893  0.9828
  303SOL    HW2  978   6.256   1.349   0.528  1.6538  1.5169  1.6104
  303SOL    HW3  979   6.291   1.212   0.472  0.2673  1.7410  0.1102
  303SOL    MW4  980   6.289   1.269   0.538  0.2164  0.7900  0.9505
  304SOL     OW  981   3.110   5.125   2.551  0.0108 -0.0083  0.2932
  304SOL    HW2  982   3.095   5.208   2.504 -0.7953 -0.5490 -0.4598
  304SOL    HW3  983   3.053   5.131   2.628 -1.0422 -0.3639 -0.4286
  304SOL    MW4  984   3.100   5.137   2.555 -0.2345 -0.1266  0.0987
  305SOL     OW  985   4.798   0.406   0.574  0.5482  0.3818  0.0127
  305SOL    HW2  986   4.732   0.407   0.505  0.2151 -1.7037  0.2496
  305SOL    HW3  987   4.815   0.499   0.592  1.0325  1.0494 -3.2107
  305SOL    MW4  988   4.792   0.419   0.567  0.5681  0.1947 -0.3813
  306SOL     OW  989   3.040   3.248   2.591 -0.3222 -0.5013  0.4238
  306SOL    HW2  990   2.988   3.232   2.512 -0.9570  0.2936  0.6646
  306SOL    HW3  991   3.071   3.161   2.617 -0.9313 -0.9010 -0.1343
  306SOL    MW4  992   3.037   3.234   2.584 -0.4863 -0.4492  0.3819
  307SOL     OW  993   4.415   2.987   2.726 -0.4370  0.5803 -0.2535
  307SOL    HW2  994   4.387   3.070   2.766  1.1850  1.1463 -0.2246
  307SOL    HW3  995   4.422   3.007   2.633 -2.1113 -0.1456 -0.5685
  307SOL    MW4  996   4.412   3.001   2.719 -0.4439  0.5592 -0.2912
  308SOL     OW  997   5.636   2.983   5.455  0.2441 -0.1505 -0.1078
  308SOL    HW2  998   5.725   3.016   5.468 -0.0990  1.2270 -1.1140
  308SOL    HW3  999   5.625   2.979   5.360  0.3868 -3.6117 -0.1239
  308SOL    MW4 1000   5.646   2.987   5.444  0.2177 -0.4254 -0.2427
  309SOL     OW 1001   5.991   3.616   6.347  0.5900  0.1985 -1.3220
  309SOL    HW2 1002   6.023   3.540   6.394  0.3118  0.1307 -1.2400
  309SOL    HW3 1003   5.927   3.581   6.285 -1.9682  0.6512  0.8823
  309SOL    MW4 1004   5.987   3.602   6.345  0.2157  0.2493 -1.0204
  310SOL     OW 1005   1.743   2.807   1.375 -0.4314  0.0290  0.1284
  310SOL    HW2 1006   1.775   2.779   1.461 -0.0451  1.3279  0.4236
  310SOL    HW3 1007   1.752   2.902   1.375 -1.9178  0.2132 -0.7498
  310SOL    MW4 1008   1.748   2.816   1.386 -0.5765  0.2247  0.0515
  311SOL     OW 1009   0.444   5.343   1.261 -0.3824  0.0995 -0.2394
  311SOL    HW2 1010   0.469   5.370   1.173 -1.4469  0.5095 -0.4329
  311SOL    HW3 1011   0.407   5.421   1.301  0.1439 -0.0729  0.5916
  311SOL    MW4 1012   0.442   5.357   1.255 -0.4534  0.1308 -0.1553
  312SOL     OW 1013   5.937   6.390   1.357 -0.0262 -0.1360 -0.0370
  312SOL    HW2 1014   5.884   6.424   1.430  1.4229  1.2995  0.4262
  312SOL    HW3 1015   5.927   6.295   1.362 -2.3929  0.0584  0.1000
  312SOL    MW4 1016   5.928   6.382   1.368 -0.1472  0.0790  0.0422
  313SOL     OW 1017   1.916   6.317   5.717 -0.2127  0.0639 -0.6118
  313SOL    HW2 1018   1.951   6.362   5.795 -1.6692 -0.1643  0.2240
  313SOL    HW3 1019   1.915   6.385   5.649 -0.2572  0.6839 -0.0095
  313SOL    MW4 1020   1.921   6.332   5.719 -0.4107  0.1156 -0.4220
  314SOL     OW 1021   1.528   5.979   5.320  0.3853  0.1369 -0.1504
  314SOL    HW2 1022   1.547   5.897   5.274 -1.0538  0.2552 -1.0545
  314SOL    HW3 1023   1.435   5.995   5.301  0.7438  2.2075 -0.3895
  314SOL    MW4 1024   1.518   5.970   5.311  0.2427  0.4257 -0.3012
  315SOL     OW 1025   3.164   5.012   0.697  0.0572 -0.0963  0.1832
  315SOL    HW2 1026   3.113   5.007   0.616  1.1551  0.3283 -0.5610
  315SOL    HW3 1027   3.170   4.922   0.728 -2.3140 -0.0224  1.0746
  315SOL    MW4 1028   3.158   4.999   0.691 -0.1108 -0.0305  0.2026
  316SOL     OW 1029   5.037   5.468   5.607 -0.1180  0.0775 -0.0955
  316SOL    HW2 1030   5.072   5.396   5.555  0.9350  1.6904 -1.7175
  316SOL    HW3 1031   4.952   5.489   5.567 -0.2386  0.0218  0.1239
  316SOL    MW4 1032   5.030   5.462   5.595  0.0051  0.2830 -0.2805
  317SOL     OW 1033   4.438   3.310   5.425 -0.2973 -0.0000  0.3241
  317SOL    HW2 1034   4.343   3.317   5.435 -0.3820 -2.5658  2.5221
  317SOL    HW3 1035   4.451   3.252   5.350 -0.4658  0.3029  0.0605
  317SOL    MW4 1036   4.427   3.303   5.417 -0.3307 -0.2986  0.5793
  318SOL     OW 1037   2.472   2.363   3.026  0.5322  0.3532 -0.0010
  318SOL    HW2 1038   2.454   2.394   3.115  0.4098  0.9138 -0.2186
  318SOL    HW3 1039   2.413   2.413   2.970 -0.6391 -1.2221 -0.2442
  318SOL    MW4 1040   2.462   2.374   3.031  0.3615  0.2193 -0.0618
  319SOL     OW 1041   1.345   1.298   3.514 -0.1929 -0.0429 -0.0053
  319SOL    HW2 1042   1.437   1.325   3.518 -0.4433  0.8050  0.4129
  319SOL    HW3 1043   1.322   1.279   3.605 -0.4197 -0.3143 -0.1167
  319SOL    MW4 1044   1.354   1.299   3.527 -0.2559  0.0332  0.0352
  320SOL     OW 1045   5.401   1.278   3.093  0.6471 -0.0921 -0.1078
  320SOL    HW2 1046   5.441   1.252   3.176  1.0438  1.9248  0.3820
  320SOL    HW3 1047   5.464   1.249   3.027  1.3539  0.1611  0.4381
  320SOL    MW4 1048   5.415   1.270   3.096  0.7927  0.2074  0.0288
  321SOL     OW 1049   2.122   5.912   1.578 -0.1812  0.2758 -0.1396
  321SOL    HW2 1050   2.066   5.952   1.512  1.0566  1.1636 -0.6976
  321SOL    HW3 1051   2.086   5.942   1.662 -0.0179  1.5717 -0.5133
  321SOL    MW4 1052   2.110   5.922   1.580  0.0036  0.5639 -0.2625
  322SOL     OW 1053   3.735   2.565   5.569  0.3187  0.4207 -0.3280
  322SOL    HW2 1054   3.751   2.549   5.662 -2.0268  1.0637  0.2565
  322SOL    HW3 1055   3.702   2.482   5.536 -1.4837  0.9270  0.1129
  322SOL    MW4 1056   3.733   2.552   5.577 -0.2286  0.5724 -0.1927
  323SOL     OW 1057   1.094   1.608   5.063  0.4520  0.4690 -0.0578
  323SOL    HW2 1058   1.058   1.551   5.131 -1.0917  0.4687 -0.8237
  323SOL    HW3 1059   1.090   1.696   5.102 -0.1838  0.4366 -0.0308
  323SOL    MW4 1060   1.089   1.612   5.077  0.1645  0.4647 -0.1553
  324SOL     OW 1061   2.117   1.596   1.671 -0.1193 -0.1625 -0.2307
  324SOL    HW2 1062   2.138   1.510   1.706  0.2197  0.3838  0.9427
  324SOL    HW3 1063   2.199   1.629   1.636 -0.6191 -1.0604 -2.4477
  324SOL    MW4 1064   2.130   1.589   1.671 -0.1405 -0.2089 -0.3684
  325SOL     OW 1065   2.343   4.997   0.213  0.2552  0.0896  0.7843
  325SOL    HW2 1066   2.388   5.080   0.199 -0.5225  0.2600 -1.0284
  325SOL    HW3 1067   2.262   5.021   0.258 -0.3260  0.4718 -0.3951
  325SOL    MW4 1068   2.338   5.011   0.217  0.0759  0.1625  0.3895
  326SOL     OW 1069   2.915   1.720   4.572  0.4759  0.0531 -0.2087
  326SOL    HW2 1070   2.902   1.781   4.645  0.3988 -1.5395  1.1601
  326SOL    HW3 1071   2.972   1.652   4.607 -0.2262 -1.1932 -1.3838
  326SOL    MW4 1072   2.921   1.719   4.586  0.3731 -0.3215 -0.1831
  327SOL     OW 1073   0.223   5.628   4.038 -0.3182  0.1445  0.0674
  327SOL    HW2 1074   0.253   5.543   4.007 -1.4652 -1.3411  2.6809
  327SOL    HW3 1075   0.145   5.608   4.090 -0.3816  2.7593  1.1298
  327SOL    MW4 1076   0.217   5.614   4.041 -0.4779  0.2935  0.5524
  328SOL     OW 1077   4.452   5.828   2.697 -0.3085 -0.0730 -0.3541
  328SOL    HW2 1078   4.407   5.752   2.734 -0.9636  0.1898 -0.5848
  328SOL    HW3 1079   4.501   5.866   2.769 -1.2164  0.1803  0.1407
  328SOL    MW4 1080   4.453   5.823   2.711 -0.5147 -0.0049 -0.3193
  329SOL     OW 1081   1.640   1.979   1.697 -0.0626  0.3457 -0.3071
  329SOL    HW2 1082   1.731   2.001   1.721  0.1190 -0.4863 -0.1907
  329SOL    HW3 1083   1.609   1.926   1.770 -0.1743 -0.5484 -0.9929
  329SOL    MW4 1084   1.648   1.975   1.710 -0.0534  0.1180 -0.3822
  330SOL     OW 1085   4.771   3.185   4.565  0.3951 -0.4621 -0.6392
  330SOL    HW2 1086   4.750   3.167   4.657 -0.4783  2.2598 -0.1932
  330SOL    HW3 1087   4.866   3.178   4.560  0.4386 -0.8105  0.4484
  330SOL    MW4 1088   4.781   3.182   4.577  0.2856 -0.1490 -0.4369
  331SOL     OW 1089   2.734   0.160   2.000 -0.1960  0.1362  0.2221
  331SOL    HW2 1090   2.655   0.109   1.982 -0.9680  1.1025  0.7503
  331SOL    HW3 1091   2.783   0.108   2.064  0.8669 -1.6579 -1.8953
  331SOL    MW4 1092   2.730   0.146   2.006 -0.1576  0.0270  0.0124
  332SOL     OW 1093   3.858   5.032   3.609  0.1340  0.0170 -0.7448
  332SOL    HW2 1094   3.832   4.963   3.548 -0.0132  0.1239 -0.8038
  332SOL    HW3 1095   3.951   5.017   3.625 -0.1571 -0.9285  0.1848
  332SOL    MW4 1096   3.867   5.021   3.603  0.0762 -0.0936 -0.6299
  333SOL     OW 1097   2.031   2.326   5.327 -0.4000  0.1409  0.2149
  333SOL    HW2 1098   1.965   2.314   5.260 -0.3475  2.4971 -0.3178
  333SOL    HW3 1099   2.102   2.373   5.283  0.6953 -0.3862  1.3388
  333SOL    MW4 1100   2.032   2.330   5.313 -0.2485  0.3822  0.2929
  334SOL     OW 1101   1.151   6.416   1.382 -0.4985  0.6277  0.3963
  334SOL    HW2 1102   1.210   6.434   1.309 -0.8145  0.8104  0.1802
  334SOL    HW3 1103   1.071   6.464   1.359 -0.7440  0.3428  0.6613
  334SOL    MW4 1104   1.148   6.425   1.369 -0.5726  0.6142  0.4027
  335SOL     OW 1105   0.360   4.361   4.889  0.0341  0.3187  1.0713
  335SOL    HW2 1106   0.323   4.283   4.930 -0.3482  0.9513  1.9595
  335SOL    HW3 1107   0.285   4.404   4.847  0.0378  0.7662  1.5107
  335SOL    MW4 1108   0.345   4.357   4.889 -0.0159  0.4612  1.2465
  336SOL     OW 1109   4.635   1.471   4.526  0.3078 -0.4315  0.4063
  336SOL    HW2 1110   4.624   1.494   4.434 -1.1703  1.7426  1.0591
  336SOL    HW3 1111   4.644   1.555   4.572  3.9507 -1.4803  1.9955
  336SOL    MW4 1112   4.635   1.485   4.520  0.5934 -0.2831  0.7021
  337SOL     OW 1113   1.517   6.047   1.698  0.6232  0.2884  0.7405
  337SOL    HW2 1114   1.611   6.046   1.679  0.5318 -0.8549  0.2772
  337SOL    HW3 1115   1.476   6.045   1.612  0.1759  0.2808  0.9525
  337SOL    MW4 1116   1.524   6.047   1.684  0.5521  0.1365  0.7073
  338SOL     OW 1117   3.654   0.154   1.806  0.5689  0.2601  0.1191
  338SOL    HW2 1118   3.670   0.141   1.712 -1.6300 -0.4094 -0.2316
  338SOL    HW3 1119   3.633   0.246   1.814 -0.7397  0.0221 -0.3388
  338SOL    MW4 1120   3.654   0.164   1.794  0.1061  0.1404  0.0124
  339SOL     OW 1121   6.252   3.949   4.354  0.1973  0.5157 -0.4293
  339SOL    HW2 1122   6.332   3.906   4.385  0.7080  1.3103 -0.6015
  339SOL    HW3 1123   6.240   4.022   4.415  1.5953  2.5146 -2.3776
  339SOL    MW4 1124   6.261   3.953   4.366  0.4491  0.8843 -0.7091
  340SOL     OW 1125   1.688   4.605   3.128 -0.6060  0.1809  0.1768
  340SOL    HW2 1126   1.607   4.615   3.178 -1.0458  0.0239 -0.4740
  340SOL    HW3 1127   1.658   4.570   3.043 -0.0985  1.9528 -0.7941
  340SOL    MW4 1128   1.673   4.602   3.123 -0.5971  0.3940 -0.0372
  341SOL     OW 1129   3.877   5.363   4.994  0.2603 -0.2313  0.4597
  341SOL    HW2 1130   3.835   5.370   4.909  1.1754 -0.9727 -0.0738
  341SOL    HW3 1131   3.805   5.346   5.055 -0.7109  2.5498  0.2358
  341SOL    MW4 1132   3.862   5.361   4.991  0.2529  0.0378  0.3597
  342SOL     OW 1133   1.653   0.527   1.165  0.2024 -0.5014 -0.4376
  342SOL    HW2 1134   1.578   0.541   1.222  0.9945  0.2507  0.4686
  342SOL    HW3 1135   1.630   0.570   1.083 -0.5398 -0.6909 -0.3371
  342SOL    MW4 1136   1.640   0.534   1.162  0.2090 -0.4272 -0.3048
  343SOL     OW 1137   2.712   1.457   2.436 -0.0305  0.5008  0.3010
  343SOL    HW2 1138   2.692   1.455   2.530 -0.0811  0.9074  0.3008
  343SOL    HW3 1139   2.753   1.542   2.422 -1.3403  1.0657 -0.2949
  343SOL    MW4 1140   2.714   1.468   2.446 -0.2100  0.6290  0.2223
  344SOL     OW 1141   6.251   5.973   0.197 -0.3649 -0.2272  0.1997
  344SOL    HW2 1142   6.242   6.051   0.143 -0.3435  0.1353  0.7084
  344SOL    HW3 1143   6.328   5.991   0.252 -1.0770 -0.0715  1.1795
  344SOL    MW4 1144   6.260   5.986   0.197 -0.4560 -0.1588  0.3961
  345SOL     OW 1145   4.344   5.334   3.355 -0.1211 -0.4345  0.2138
  345SOL    HW2 1146   4.362   5.357   3.446 -0.2131  0.2331  0.0690
  345SOL    HW3 1147   4.429   5.337   3.312 -0.0793 -0.7399  0.2743
  345SOL    MW4 1148   4.358   5.338   3.361 -0.1278 -0.3867  0.2027
  346SOL     OW 1149   2.454   0.166   4.326  0.2125 -0.5643 -0.5438
  346SOL    HW2 1150   2.445   0.082   4.370 -0.2836  0.4462  1.4006
  346SOL    HW3 1151   2.527   0.154   4.265  1.2890 -1.9292  0.9336
  346SOL    MW4 1152   2.463   0.154   4.323  0.2891 -0.6110 -0.0923
  347SOL     OW 1153   0.872   1.534   1.268  0.4531 -0.4854 -0.7512
  347SOL    HW2 1154   0.879   1.508   1.176 -0.9995 -0.6655 -0.8288
  347SOL    HW3 1155   0.804   1.601   1.268  1.4140  0.5228  0.0138
  347SOL    MW4 1156   0.864   1.539   1.256  0.3883 -0.3762 -0.6605
  348SOL     OW 1157   4.957   0.355   5.166 -0.8315 -0.0656  0.3071
  348SOL    HW2 1158   4.922   0.266   5.174 -0.5915 -0.2826 -0.8319
  348SOL    HW3 1159   4.883   0.412   5.187 -1.1743 -0.5257  0.3793
  348SOL    MW4 1160   4.943   0.351   5.170 -0.8451 -0.1549  0.1664
  349SOL     OW 1161   1.200   4.108   3.282 -0.0075  0.6900  0.1081
  349SOL    HW2 1162   1.171   4.023   3.316  1.4866 -0.4278 -1.2786
  349SOL    HW3 1163   1.123   4.143   3.237 -0.8120  0.3670  1.1827
  349SOL    MW4 1164   1.186   4.101   3.281  0.0835  0.4999  0.0669
  350SOL     OW 1165   5.565   0.513   1.405  0.2887  0.3489 -0.0795
  350SOL    HW2 1166   5.630   0.552   1.347  1.7695 -0.6939  0.8281
  350SOL    HW3 1167   5.551   0.425   1.370  0.1328  0.2086  0.3279
  350SOL    MW4 1168   5.572   0.507   1.393  0.4635  0.1928  0.0940
  351SOL     OW 1169   3.713   3.701   5.114 -0.1515 -0.3816 -0.0093
  351SOL    HW2 1170   3.784   3.714   5.051 -0.0779 -0.4912  0.0503
  351SOL    HW3 1171   3.691   3.608   5.108 -2.5229  0.2099 -2.3865
  351SOL    MW4 1172   3.720   3.691   5.105 -0.4547 -0.3180 -0.3151
  352SOL     OW 1173   2.050   1.621   0.485 -0.0675  0.0092 -0.8611
  352SOL    HW2 1174   2.125   1.563   0.498 -1.1860 -1.1884  0.7182
  352SOL    HW3 1175   2.016   1.597   0.399 -0.8964 -2.2308  0.0173
  352SOL    MW4 1176   2.056   1.610   0.475 -0.3244 -0.4444 -0.5369
  353SOL     OW 1177   0.135   5.803   0.628 -0.0238  0.3649  0.0520
  353SOL    HW2 1178   0.084   5.747   0.687 -0.1603  0.7482  0.2971
  353SOL    HW3 1179   0.111   5.773   0.541 -0.7130  0.5730  0.1633
  353SOL    MW4 1180   0.125   5.792   0.625 -0.1328  0.4429  0.0990
  354SOL     OW 1181   0.981   1.342   0.000  0.1687 -0.1114  0.2723
  354SOL    HW2 1182   1.076   1.356  -0.002  0.2468 -0.6783 -1.4814
  354SOL    HW3 1183   0.968   1.259  -0.046 -1.1390 -0.3900  1.0891
  354SOL    MW4 1184   0.992   1.333  -0.006  0.0065 -0.2229  0.1487
  355SOL     OW 1185   3.905   1.393   1.359  0.2135  0.1011 -0.0116
  355SOL    HW2 1186   3.963   1.470   1.357  0.4274  0.0196  1.4775
  355SOL    HW3 1187   3.819   1.427   1.335  0.2758  0.8566  0.7902
  355SOL    MW4 1188   3.901   1.408   1.356  0.2499  0.1900  0.2907
  356SOL     OW 1189   4.652   4.889   1.959  0.3107 -0.4337  0.0697
  356SOL    HW2 1190   4.560   4.867   1.942 -0.4469  0.9115  2.0707
  356SOL    HW3 1191   4.697   4.804   1.959 -0.8847 -1.1087 -1.0633
  356SOL    MW4 1192   4.646   4.875   1.956  0.0530 -0.3453  0.1843
  357SOL     OW 1193   3.167   2.293   4.966 -0.0648 -0.0160 -0.2154
  357SOL    HW2 1194   3.208   2.373   4.933 -0.8134  0.1544 -0.7527
  357SOL    HW3 1195   3.240   2.241   4.998  0.3173  1.5745  1.7370
  357SOL    MW4 1196   3.182   2.297   4.966 -0.1131  0.2163 -0.0287
  358SOL     OW 1197   0.744   0.232   4.643 -0.2972  0.2936 -0.4007
  358SOL    HW2 1198   0.780   0.305   4.692  0.5669  0.3494 -1.0981
  358SOL    HW3 1199   0.813   0.166   4.643 -0.9177 -0.3779 -0.1202
  358SOL    MW4 1200   0.758   0.233   4.650 -0.2651  0.2124 -0.4557
  359SOL     OW 1201   4.226   2.226   6.203  0.1648  0.4976  0.2275
  359SOL    HW2 1202   4.133   2.219   6.225  0.2184 -2.2686 -0.0748
  359SOL    HW3 1203   4.271   2.222   6.288  0.0452  1.6097  0.3571
  359SOL    MW4 1204   4.220   2.225   6.217  0.1561  0.2793  0.2047
  360SOL     OW 1205   0.294   0.263   2.272  0.1733  0.2139 -0.1651
  360SOL    HW2 1206   0.334   0.177   2.289  0.4423  0.2833 -0.4353
  360SOL    HW3 1207   0.218   0.266   2.330  0.6766  0.1650  0.5146
  360SOL    MW4 1208   0.289   0.252   2.282  0.2752  0.2166 -0.1110
  361SOL     OW 1209   2.558   1.704   2.776  0.2667  0.0551 -0.4245
  361SOL    HW2 1210   2.573   1.779   2.718  1.6427  0.1520  0.0114
  361SOL    HW3 1211   2.625   1.641   2.750  1.2860  0.3222  1.3752
  361SOL    MW4 1212   2.569   1.706   2.765  0.5828  0.1031 -0.1295
  362SOL     OW 1213   2.709   2.019   4.385 -0.3290 -0.0415 -0.0779
  362SOL    HW2 1214   2.647   1.972   4.441 -1.6329 -1.5054 -2.5355
  362SOL    HW3 1215   2.695   1.981   4.298  1.2161  2.4147 -1.5122
  362SOL    MW4 1216   2.699   2.008   4.381 -0.2972  0.0894 -0.5914
  363SOL     OW 1217   1.262   4.917   4.030  0.0346  0.2499 -0.1854
  363SOL    HW2 1218   1.202   4.843   4.033 -0.9685  1.0372 -0.4429
  363SOL    HW3 1219   1.335   4.892   4.087 -1.3435 -0.0188  1.5219
  363SOL    MW4 1220   1.264   4.904   4.038 -0.2795  0.3184  0.0059
  364SOL     OW 1221   4.230   3.772   4.710  0.1387  0.3607 -0.0580
  364SOL    HW2 1222   4.246   3.694   4.764 -0.9693  0.4667  0.4570
  364SOL    HW3 1223   4.317   3.798   4.680  0.5993 -0.6954  0.2898
  364SOL    MW4 1224   4.244   3.765   4.714  0.0533  0.2353  0.0558
  365SOL     OW 1225   2.141   5.129   1.159 -0.3496  0.1788 -0.4814
  365SOL    HW2 1226   2.216   5.085   1.118  1.7166  0.8864  2.3131
  365SOL    HW3 1227   2.151   5.221   1.136 -0.7968  0.1902 -0.6528
  365SOL    MW4 1228   2.152   5.135   1.150 -0.1360  0.2736 -0.1353
  366SOL     OW 1229   6.350   5.635   5.119  0.3297  0.1845  0.5573
  366SOL    HW2 1230   6.300   5.553   5.121 -0.1161  0.4467  0.3804
  366SOL    HW3 1231   6.430   5.613   5.072  0.5993 -0.3581  1.2495
  366SOL    MW4 1232   6.354   5.621   5.113  0.3065  0.1475  0.6252
  367SOL     OW 1233   0.851   1.095   3.239  0.1240 -0.2181 -0.2601
  367SOL    HW2 1234   0.901   1.175   3.222  1.3690 -1.0386 -0.6313
  367SOL    HW3 1235   0.906   1.045   3.300 -1.2387 -0.2455  0.9937
  367SOL    MW4 1236   0.865   1.099   3.245  0.1085 -0.3300 -0.1437
  368SOL     OW 1237   0.564   1.036   4.283 -0.0801  0.1743  0.7230
  368SOL    HW2 1238   0.584   1.080   4.201 -1.1354  0.0763  0.3996
  368SOL    HW3 1239   0.631   0.967   4.291 -1.1485 -1.1487 -1.0899
  368SOL    MW4 1240   0.576   1.032   4.273 -0.3603 -0.0132  0.4411
  369SOL     OW 1241   4.427   0.516   3.809 -0.3923  0.2373  0.3575
  369SOL    HW2 1242   4.471   0.489   3.728 -0.8322  0.3644  0.0719
  369SOL    HW3 1243   4.496   0.554   3.863 -0.2207  0.8158 -0.2574
  369SOL    MW4 1244   4.442   0.518   3.806 -0.4277  0.3304  0.2387
  370SOL     OW 1245   6.274   5.876   6.000  0.3141  0.0017 -0.4722
  370SOL    HW2 1246   6.338   5.935   6.039 -0.3147 -0.6326  1.6349
  370SOL    HW3 1247   6.229   5.836   6.075 -0.6293 -1.6616 -1.8531
  370SOL    MW4 1248   6.277   5.879   6.015  0.1066 -0.3014 -0.3764
  371SOL     OW 1249   6.227   3.488   4.378 -0.2361  0.6785  0.8249
  371SOL    HW2 1250   6.182   3.468   4.296  1.8073  0.2269 -0.2417
  371SOL    HW3 1251   6.189   3.572   4.406 -1.1266  0.7324 -0.4603
  371SOL    MW4 1252   6.216   3.497   4.371 -0.0840  0.6260  0.5146
  372SOL     OW 1253   1.372   1.647   1.736 -0.2161  0.3408  0.6695
  372SOL    HW2 1254   1.355   1.739   1.756 -0.0439 -0.1988  3.7939
  372SOL    HW3 1255   1.460   1.647   1.697  0.6519  1.3787  2.4866
  372SOL    MW4 1256   1.382   1.659   1.733 -0.0788  0.4065  1.3215
  373SOL     OW 1257   4.201   2.727   1.263 -0.2229  0.0385 -0.1412
  373SOL    HW2 1258   4.234   2.637   1.255  0.7196  0.3393  0.1842
  373SOL    HW3 1259   4.280   2.780   1.278 -0.8127  0.8611  0.1235
  373SOL    MW4 1260   4.216   2.722   1.264 -0.1763  0.1867 -0.0633
  374SOL     OW 1261   2.863   5.231   1.299 -0.5474  0.3090  0.1180
  374SOL    HW2 1262   2.893   5.289   1.229  1.7112  1.2830  1.7680
  374SOL    HW3 1263   2.801   5.284   1.350 -1.1357  0.0609 -0.3243
  374SOL    MW4 1264   2.859   5.246   1.297 -0.3270  0.4048  0.2773
  375SOL     OW 1265   5.434   0.036   3.686 -0.7286  0.0683  0.3718
  375SOL    HW2 1266   5.523   0.051   3.654 -1.1608 -0.0285 -0.9597
  375SOL    HW3 1267   5.440   0.048   3.781  0.2568  2.3366  0.0976
  375SOL    MW4 1268   5.446   0.040   3.694 -0.6556  0.3548  0.1599
  376SOL     OW 1269   0.961   1.440   0.628  0.0775 -0.1689 -0.7303
  376SOL    HW2 1270   1.046   1.397   0.636 -0.7760 -1.9601 -0.8451
  376SOL    HW3 1271   0.898   1.369   0.617 -1.5207  1.0777 -0.1886
  376SOL    MW4 1272   0.964   1.425   0.627 -0.2460 -0.2407 -0.6740
  377SOL     OW 1273   3.020   2.524   3.587 -0.0607  0.3622  0.4992
  377SOL    HW2 1274   2.964   2.579   3.531 -1.8349  0.6124  2.3821
  377SOL    HW3 1275   2.976   2.525   3.672  1.7626 -1.1604  1.5270
  377SOL    MW4 1276   3.007   2.532   3.591 -0.0542  0.1943  0.8832
  378SOL     OW 1277   1.004   5.479   4.004 -0.1744  0.3311 -0.2238
  378SOL    HW2 1278   0.960   5.398   3.979  2.8288 -1.0069 -1.7653
  378SOL    HW3 1279   0.997   5.534   3.926  1.2192 -0.1218 -0.7050
  378SOL    MW4 1280   0.998   5.475   3.990  0.4057  0.0948 -0.4907
  379SOL     OW 1281   2.443   1.546   2.360  0.5961 -0.2457 -0.7700
  379SOL    HW2 1282   2.450   1.609   2.288  2.0269 -2.5677 -2.8202
  379SOL    HW3 1283   2.526   1.498   2.357 -0.9917 -3.2064 -0.3138
  379SOL    MW4 1284   2.455   1.548   2.350  0.5754 -0.9427 -0.9803
  380SOL     OW 1285   0.942   1.988   3.111 -0.0101  0.3372  0.4293
  380SOL    HW2 1286   0.847   1.989   3.123  0.0470  0.2281  0.9033
  380SOL    HW3 1287   0.960   2.061   3.052 -0.3577  0.5239  0.5548
  380SOL    MW4 1288   0.932   1.998   3.104 -0.0484  0.3474  0.5084
  381SOL     OW 1289   4.259   5.480   1.164  0.5531 -0.0320  0.0028
  381SOL    HW2 1290   4.182   5.483   1.221  0.8380 -1.1366  0.4798
  381SOL    HW3 1291   4.306   5.561   1.183 -0.4864  0.6600 -0.3004
  381SOL    MW4 1292   4.255   5.491   1.174  0.4535 -0.0864  0.0257
  382SOL     OW 1293   2.147   1.926   2.404 -0.5543 -0.6176  0.0285
  382SOL    HW2 1294   2.218   1.989   2.416 -0.1594 -1.1324  0.4852
  382SOL    HW3 1295   2.182   1.844   2.441 -1.4487 -0.8368  0.4047
  382SOL    MW4 1296   2.161   1.923   2.410 -0.6202 -0.7144  0.1384
  383SOL     OW 1297   1.850   2.101   4.507  0.1318  0.1195 -0.1239
  383SOL    HW2 1298   1.825   2.120   4.417  1.3545  2.6462 -0.0235
  383SOL    HW3 1299   1.778   2.134   4.560  0.6094  1.1537 -0.0988
  383SOL    MW4 1300   1.837   2.108   4.502  0.3561  0.5893 -0.1074
  384SOL     OW 1301   3.597   5.183   4.913 -0.0808  0.5056  0.1782
  384SOL    HW2 1302   3.517   5.186   4.860  0.7187  2.5263 -1.0115
  384SOL    HW3 1303   3.632   5.095   4.897 -0.2981  0.7482 -2.0623
  384SOL    MW4 1304   3.591   5.171   4.904 -0.0040  0.8042 -0.2744
  385SOL     OW 1305   1.809   1.527   5.719  0.1525 -0.7325  0.7823
  385SOL    HW2 1306   1.795   1.493   5.630 -0.5940  0.2190  0.5255
  385SOL    HW3 1307   1.735   1.585   5.735  1.1846  0.4692  1.3642
  385SOL    MW4 1308   1.797   1.530   5.709  0.1902 -0.4484  0.8252
  386SOL     OW 1309   1.680   1.133   5.971  0.3475  0.1258  0.0751
  386SOL    HW2 1310   1.642   1.063   6.023 -0.1973  0.5415  0.2516
  386SOL    HW3 1311   1.612   1.200   5.968  1.1675  1.0145  0.6374
  386SOL    MW4 1312   1.666   1.133   5.978  0.3838  0.2979  0.1726
  387SOL     OW 1313   5.187   3.162   0.604  0.0938  1.0725  0.0423
  387SOL    HW2 1314   5.212   3.125   0.688  2.8585  2.3084 -0.1139
  387SOL    HW3 1315   5.238   3.112   0.540 -3.1909 -0.9835 -1.2046
  387SOL    MW4 1316   5.197   3.151   0.606  0.0252  0.9643 -0.1428
  388SOL     OW 1317   4.939   2.100   0.912 -0.0946 -0.0518  0.0714
  388SOL    HW2 1318   4.894   2.067   0.990 -1.3663  0.4971 -0.4057
  388SOL    HW3 1319   4.948   2.194   0.927  0.2723 -0.0482 -0.1516
  388SOL    MW4 1320   4.935   2.108   0.924 -0.2140  0.0211 -0.0210
  389SOL     OW 1321   0.162   1.931   2.845  0.0436 -0.2139 -0.2577
  389SOL    HW2 1322   0.183   2.024   2.858 -2.2591  0.3952 -0.5360
  389SOL    HW3 1323   0.080   1.918   2.893 -0.3276 -1.8056 -1.2568
  389SOL    MW4 1324   0.154   1.942   2.853 -0.3092 -0.3435 -0.4263
  390SOL     OW 1325   1.145   2.424   5.881 -0.2176  0.4229 -0.0739
  390SOL    HW2 1326   1.228   2.393   5.917  0.8174  1.2597 -1.6506
  390SOL    HW3 1327   1.127   2.505   5.928  0.8296  1.2085 -1.0035
  390SOL    MW4 1328   1.153   2.430   5.892  0.0571  0.6369 -0.4046
  391SOL     OW 1329   6.031   3.763   2.774  0.0351 -0.5222 -0.2677
  391SOL    HW2 1330   5.962   3.751   2.839  0.9798 -2.4785  0.4571
  391SOL    HW3 1331   6.112   3.764   2.824  0.7937 -2.1595 -1.3601
  391SOL    MW4 1332   6.032   3.761   2.789  0.2598 -0.9963 -0.3162
  392SOL     OW 1333   2.331   3.361   2.057 -0.2712  1.0173  0.0635
  392SOL    HW2 1334   2.285   3.418   1.995 -0.1804  0.9865 -0.0327
  392SOL    HW3 1335   2.338   3.277   2.011  0.2685  1.1467 -0.0928
  392SOL    MW4 1336   2.326   3.358   2.043 -0.1880  1.0303  0.0302
  393SOL     OW 1337   1.618   5.476   3.057  0.6906 -0.2370  0.0310
  393SOL    HW2 1338   1.704   5.445   3.029 -0.5880 -2.4725 -1.7609
  393SOL    HW3 1339   1.578   5.401   3.102 -0.1324  0.9602  1.4154
  393SOL    MW4 1340   1.624   5.462   3.060  0.4133 -0.3740 -0.0228
  394SOL     OW 1341   5.410   4.758   6.035 -0.0020  0.0341  0.1099
  394SOL    HW2 1342   5.336   4.731   5.981 -1.1103 -0.6289  1.8667
  394SOL    HW3 1343   5.474   4.687   6.025  0.6509  0.8215 -1.7668
  394SOL    MW4 1344   5.409   4.745   6.027 -0.0621  0.0505  0.0941
  395SOL     OW 1345   3.627   4.891   2.445 -0.1478  0.8277 -0.4557
  395SOL    HW2 1346   3.600   4.895   2.537  0.0499  0.6604 -0.3913
  395SOL    HW3 1347   3.611   4.801   2.419  0.6647  0.6430 -0.3240
  395SOL    MW4 1348   3.621   4.880   2.454 -0.0145  0.7813 -0.4298
  396SOL     OW 1349   5.511   5.113   6.346  0.6875  0.1787 -0.4357
  396SOL    HW2 1350   5.486   5.061   6.422  1.7936 -0.2043 -0.3086
  396SOL    HW3 1351   5.448   5.090   6.278 -1.4215  1.8308  0.8314
  396SOL    MW4 1352   5.500   5.103   6.347  0.5551  0.3461 -0.2518
  397SOL     OW 1353   0.764   1.269   0.922  0.1280  0.2313  0.6104
  397SOL    HW2 1354   0.697   1.242   0.860  0.1390  0.3895  0.5296
  397SOL    HW3 1355   0.836   1.207   0.908  0.7730  1.2001 -0.6464
  397SOL    MW4 1356   0.765   1.257   0.912  0.2145  0.3800  0.4339
  398SOL     OW 1357   4.854   3.244   3.005  0.0127 -0.4225  0.0309
  398SOL    HW2 1358   4.926   3.252   3.068  0.1077 -2.2591  0.2053
  398SOL    HW3 1359   4.856   3.326   2.955  1.2931  0.1593  0.9960
  398SOL    MW4 1360   4.864   3.256   3.007  0.1941 -0.5880  0.1812
  399SOL     OW 1361   3.003   4.708   4.121 -1.0178  0.0233 -0.0614
  399SOL    HW2 1362   2.977   4.773   4.186  0.0253  1.6201 -1.1573
  399SOL    HW3 1363   2.961   4.736   4.040  0.8065  0.3625 -0.9476
  399SOL    MW4 1364   2.994   4.720   4.118 -0.6395  0.2787 -0.3229
  400SOL     OW 1365   3.303   3.666   5.948  0.1687  0.1545 -0.0654
  400SOL    HW2 1366   3.234   3.628   5.893 -1.2059  0.1073  1.5960
  400SOL    HW3 1367   3.323   3.597   6.011  0.5877  0.7416  0.4564
  400SOL    MW4 1368   3.296   3.652   5.949  0.0426  0.2258  0.2227
  401SOL     OW 1369   0.533   5.982   0.237  0.5954  0.0848  0.1469
  401SOL    HW2 1370   0.539   6.071   0.203 -0.1280 -0.2519 -0.9260
  401SOL    HW3 1371   0.540   5.926   0.159  0.7141 -0.7856  0.7677
  401SOL    MW4 1372   0.535   5.986   0.222  0.5156 -0.0744  0.0872
  402SOL     OW 1373   5.645   6.337   5.069 -0.0156  0.0871 -0.1433
  402SOL    HW2 1374   5.656   6.256   5.118 -1.4028 -0.9666 -1.4718
  402SOL    HW3 1375   5.640   6.405   5.136  0.6659 -0.9832  1.0310
  402SOL    MW4 1376   5.646   6.335   5.084 -0.1087 -0.1931 -0.1637
  403SOL     OW 1377   5.114   3.450   0.109 -0.3826 -0.5781 -0.3964
  403SOL    HW2 1378   5.043   3.510   0.132  1.0250  1.5085 -1.2283
  403SOL    HW3 1379   5.180   3.463   0.177  1.3212  1.3281 -2.2992
  403SOL    MW4 1380   5.113   3.460   0.121  0.0279 -0.0513 -0.7572
  404SOL     OW 1381   1.505   0.861   2.460  0.0297  0.0969 -0.7543
  404SOL    HW2 1382   1.464   0.821   2.537  1.4139  0.4977  0.2161
  404SOL    HW3 1383   1.431   0.885   2.404 -0.9740 -0.8268  0.1264
  404SOL    MW4 1384   1.490   0.859   2.463  0.0799  0.0279 -0.5101
  405SOL     OW 1385   0.363   6.001   4.979 -0.0065  0.0441 -0.2306
  405SOL    HW2 1386   0.429   5.934   4.999  0.6057  0.4744 -0.7857
  405SOL    HW3 1387   0.413   6.080   4.960 -0.7315  0.7044  0.5286
  405SOL    MW4 1388   0.378   6.002   4.979 -0.0214  0.1880 -0.2037
  406SOL     OW 1389   1.118   5.615   3.445 -0.2333 -0.3038 -0.2077
  406SOL    HW2 1390   1.037   5.633   3.399 -1.0971  0.1871  1.4242
  406SOL    HW3 1391   1.159   5.544   3.395 -2.4540 -1.7039 -0.1635
  406SOL    MW4 1392   1.113   5.608   3.433 -0.6403 -0.4238  0.0134
  407SOL     OW 1393   5.706   6.328   1.125  0.2789  0.9061  0.1560
  407SOL    HW2 1394   5.650   6.270   1.176  1.6921 -0.3168  0.3750
  407SOL    HW3 1395   5.793   6.290   1.131  0.7967  1.6373 -1.8167
  407SOL    MW4 1396   5.710   6.316   1.132  0.5337  0.8412 -0.0754
  408SOL     OW 1397   2.243   0.341   5.846  0.5752 -0.0403 -0.3071
  408SOL    HW2 1398   2.236   0.381   5.933  1.0724  3.4192 -1.6680
  408SOL    HW3 1399   2.153   0.318   5.823  0.1584  0.7480  0.4442
  408SOL    MW4 1400   2.230   0.343   5.855  0.5858  0.5201 -0.3875
  409SOL     OW 1401   5.398   5.965   5.226  0.3970 -0.2705 -0.2133
  409SOL    HW2 1402   5.380   5.985   5.318 -0.5790  0.3115 -0.5091
  409SOL    HW3 1403   5.467   5.898   5.229  0.1793 -0.4761  0.9449
  409SOL    MW4 1404   5.405   5.959   5.239  0.2395 -0.2208 -0.0995
  410SOL     OW 1405   1.522   5.054   4.879  0.3792  0.3034  0.0871
  410SOL    HW2 1406   1.434   5.065   4.843  0.5390  2.4247  0.2194
  410SOL    HW3 1407   1.572   5.129   4.846  1.4585  0.4832  1.9399
  410SOL    MW4 1408   1.517   5.065   4.870  0.5427  0.6070  0.3490
  411SOL     OW 1409   4.211   4.470   1.744 -0.0475  0.4493  0.2694
  411SOL    HW2 1410   4.118   4.485   1.761 -0.0654  0.8484 -0.1690
  411SOL    HW3 1411   4.212   4.407   1.672  0.0034  1.7750 -0.9223
  411SOL    MW4 1412   4.199   4.464   1.737 -0.0431  0.6769  0.0543
  412SOL     OW 1413   5.135   4.466   4.086  0.4779  0.4693  0.5116
  412SOL    HW2 1414   5.181   4.454   4.170  2.1858  0.5590 -0.3654
  412SOL    HW3 1415   5.195   4.518   4.033  0.2876 -1.1515 -1.4221
  412SOL    MW4 1416   5.149   4.471   4.090  0.6782  0.2673  0.1408
  413SOL     OW 1417   4.613   3.310   2.546 -0.2697 -0.0145 -0.5591
  413SOL    HW2 1418   4.540   3.299   2.486  1.5377  3.5666 -3.8137
  413SOL    HW3 1419   4.684   3.259   2.508 -0.3762 -1.8177  1.4662
  413SOL    MW4 1420   4.613   3.302   2.533 -0.0453  0.2200 -0.7213
  414SOL     OW 1421   5.108   1.203   3.066  0.0481  0.1835  0.0546
  414SOL    HW2 1422   5.079   1.268   3.131 -1.1687  0.1280 -0.4053
  414SOL    HW3 1423   5.199   1.226   3.049  0.3723  0.2777  1.6888
  414SOL    MW4 1424   5.116   1.215   3.072 -0.0697  0.1886  0.2096
  415SOL     OW 1425   2.278   0.683   5.279  0.0902  0.0355 -0.1322
  415SOL    HW2 1426   2.298   0.593   5.304  1.6490  0.3557 -0.0875
  415SOL    HW3 1427   2.220   0.675   5.204 -0.0365 -1.0051  0.0653
  415SOL    MW4 1428   2.273   0.670   5.272  0.2792 -0.0595 -0.1002
  416SOL     OW 1429   5.458   5.931   3.060  0.5879  0.1572 -0.1108
  416SOL    HW2 1430   5.517   5.870   3.017  0.3792  0.1609 -0.4003
  416SOL    HW3 1431   5.436   5.888   3.143  2.1423  0.7936  0.6823
  416SOL    MW4 1432   5.463   5.917   3.066  0.7654  0.2416 -0.0444
  417SOL     OW 1433   0.140   4.895   2.841 -0.4024  0.2233  0.2583
  417SOL    HW2 1434   0.059   4.944   2.830  0.6513  1.7154 -1.5640
  417SOL    HW3 1435   0.151   4.887   2.935 -1.6559  1.7439  0.5771
  417SOL    MW4 1436   0.131   4.900   2.852 -0.4288  0.6208  0.0600
  418SOL     OW 1437   1.141   1.768   3.178 -0.1798  0.1752  0.8861
  418SOL    HW2 1438   1.217   1.804   3.131 -0.1062 -1.7888 -0.6589
  418SOL    HW3 1439   1.070   1.830   3.160  0.5738  0.9697  0.6045
  418SOL    MW4 1440   1.141   1.781   3.169 -0.0707  0.0209  0.6451
  419SOL     OW 1441   3.211   2.467   5.327 -0.5959  0.1459  0.0880
  419SOL    HW2 1442   3.294   2.429   5.297 -0.5113  0.1784  0.2785
  419SOL    HW3 1443   3.237   2.534   5.389 -0.7683  0.1190  0.1893
  419SOL    MW4 1444   3.225   2.471   5.331 -0.6075  0.1466  0.1265
  420SOL     OW 1445   0.953   0.175   5.984  0.3654 -0.2397  0.3401
  420SOL    HW2 1446   0.963   0.089   6.024  0.5298 -0.4404 -0.1303
  420SOL    HW3 1447   0.937   0.234   6.058 -1.0697 -0.8672  0.5682
  420SOL    MW4 1448   0.952   0.171   5.999  0.1977 -0.3490  0.3081
  421SOL     OW 1449   2.715   6.277   1.922  0.2140 -0.3684  0.1572
  421SOL    HW2 1450   2.662   6.311   1.995 -0.6837  0.1000 -0.6800
  421SOL    HW3 1451   2.721   6.183   1.939 -1.4249 -0.5325 -0.0325
  421SOL    MW4 1452   2.709   6.269   1.934 -0.1207 -0.3282  0.0217
  422SOL     OW 1453   3.700   5.150   4.341  0.4305  0.6031  0.6660
  422SOL    HW2 1454   3.619   5.100   4.341  1.3426 -0.9649 -0.4377
  422SOL    HW3 1455   3.705   5.189   4.254  0.9346  0.5828  0.6843
  422SOL    MW4 1456   3.690   5.149   4.330  0.6173  0.3935  0.5228
  423SOL     OW 1457   5.734   1.236   1.697 -0.1056 -0.0896  0.2019
  423SOL    HW2 1458   5.763   1.325   1.716 -1.8069  0.4788  0.3525
  423SOL    HW3 1459   5.709   1.238   1.604  2.6491 -1.2689 -0.6624
  423SOL    MW4 1460   5.735   1.248   1.687  0.0334 -0.1702  0.1077
  424SOL     OW 1461   3.615   4.706   2.028 -0.1467 -0.4528 -0.6289
  424SOL    HW2 1462   3.548   4.747   2.082 -0.5336 -2.5225  0.5618
  424SOL    HW3 1463   3.583   4.718   1.938 -1.2099  0.1220 -0.1938
  424SOL    MW4 1464   3.602   4.713   2.023 -0.3380 -0.6500 -0.4144
  425SOL     OW 1465   2.886   0.986   5.480  0.1843  0.0626  0.0204
  425SOL    HW2 1466   2.819   0.919   5.478 -0.0299  0.2828 -0.1879
  425SOL    HW3 1467   2.969   0.938   5.487  0.0386 -0.2233 -0.2277
  425SOL    MW4 1468   2.888   0.971   5.481  0.1368  0.0539 -0.0399
  426SOL     OW 1469   2.090   4.349   5.665  0.1732 -0.4714  0.3473
  426SOL    HW2 1470   2.003   4.372   5.632 -0.3053  0.4184  2.1285
  426SOL    HW3 1471   2.111   4.267   5.620 -0.2698  0.7633 -2.3259
  426SOL    MW4 1472   2.081   4.341   5.655  0.0516 -0.1911  0.2296
  427SOL     OW 1473   1.484   6.286   5.866  0.3476 -0.0690 -0.2528
  427SOL    HW2 1474   1.555   6.263   5.807  0.0684 -0.4593 -0.4477
  427SOL    HW3 1475   1.415   6.320   5.809  0.2521 -0.0093 -0.1048
  427SOL    MW4 1476   1.484   6.287   5.851  0.2982 -0.1126 -0.2590
  428SOL     OW 1477   3.204   1.816   1.758  0.5076 -0.4610 -0.2437
  428SOL    HW2 1478   3.297   1.837   1.769  0.5476 -1.5296  2.1343
  428SOL    HW3 1479   3.168   1.822   1.847 -1.5594 -0.6943 -1.0279
  428SOL    MW4 1480   3.212   1.819   1.771  0.2402 -0.6328 -0.0334
  429SOL     OW 1481   0.668   5.247   2.132 -0.0534 -0.2319 -0.2975
  429SOL    HW2 1482   0.623   5.210   2.208  1.3002 -1.3753  0.0083
  429SOL    HW3 1483   0.761   5.236   2.153  0.3466 -0.0324 -1.8619
  429SOL    MW4 1484   0.675   5.240   2.145  0.1779 -0.3564 -0.4635
  430SOL     OW 1485   0.330   4.343   4.086 -0.3438  0.0596 -0.3553
  430SOL    HW2 1486   0.396   4.321   4.020 -0.0558  1.6205 -0.6179
  430SOL    HW3 1487   0.301   4.431   4.062 -0.9322  0.2713  1.0547
  430SOL    MW4 1488   0.335   4.351   4.074 -0.3834  0.2935 -0.2039
  431SOL     OW 1489   0.523   3.270   2.303 -0.4610  0.1720  0.5187
  431SOL    HW2 1490   0.610   3.285   2.267 -0.7410  0.6016  0.0083
  431SOL    HW3 1491   0.524   3.317   2.387 -0.2046  0.1855  0.5103
  431SOL    MW4 1492   0.535   3.279   2.310 -0.4641  0.2305  0.4503
  432SOL     OW 1493   6.360   4.481   5.999 -0.3069  0.4544  0.1932
  432SOL    HW2 1494   6.413   4.539   5.945 -1.0455  2.0862  1.1296
  432SOL    HW3 1495   6.406   4.478   6.083 -1.1588  1.1552  0.7177
  432SOL    MW4 1496   6.373   4.488   6.003 -0.5168  0.7621  0.3859
  433SOL     OW 1497   4.656   3.838   2.664  0.1398 -0.4982  0.1789
  433SOL    HW2 1498   4.673   3.926   2.699 -0.6840 -0.1898 -0.1661
  433SOL    HW3 1499   4.686   3.842   2.573 -1.0163 -0.1703 -0.2158
  433SOL    MW4 1500   4.662   3.850   2.656 -0.1214 -0.4142  0.0813
  434SOL     OW 1501   6.047   1.327   4.478  0.0963 -0.8992 -0.8964
  434SOL    HW2 1502   5.963   1.283   4.482 -0.0636 -0.5576 -0.2835
  434SOL    HW3 1503   6.059   1.363   4.566  0.4706 -0.1934 -1.2271
  434SOL    MW4 1504   6.038   1.326   4.490  0.1246 -0.7610 -0.8592
  435SOL     OW 1505   3.815   4.884   4.655 -0.1783  0.3031  0.1337
  435SOL    HW2 1506   3.850   4.964   4.616 -0.3913  0.5382  0.4197
  435SOL    HW3 1507   3.743   4.859   4.597  0.9810 -0.6668 -0.9517
  435SOL    MW4 1508   3.810   4.891   4.642 -0.0535  0.2061  0.0282
  436SOL     OW 1509   4.242   4.310   1.512  0.5249  0.2825  0.2071
  436SOL    HW2 1510   4.182   4.239   1.487  0.4900  0.4207 -0.1052
  436SOL    HW3 1511   4.326   4.285   1.475  0.9935 -0.5842  1.7954
  436SOL    MW4 1512   4.245   4.297   1.504  0.5821  0.1864  0.3754
  437SOL     OW 1513   5.272   5.848   2.216  0.2905  0.1811  0.3409
  437SOL    HW2 1514   5.210   5.902   2.265  0.0550  0.2473 -0.0279
  437SOL    HW3 1515   5.329   5.810   2.283 -1.5759 -1.7623  0.9049
  437SOL    MW4 1516   5.271   5.850   2.231  0.0132 -0.0666  0.3666
  438SOL     OW 1517   2.513   4.577   3.207  0.5791 -0.5290  0.4413
  438SOL    HW2 1518   2.487   4.487   3.227 -0.9647 -0.0032  0.9614
  438SOL    HW3 1519   2.438   4.614   3.160  1.1976  0.4902  0.2029
  438SOL    MW4 1520   2.500   4.570   3.203  0.4570 -0.3252  0.4785
  439SOL     OW 1521   3.746   3.875   3.387  0.2035 -0.3827  0.1893
  439SOL    HW2 1522   3.729   3.782   3.370 -0.5684 -0.0386 -1.1423
  439SOL    HW3 1523   3.661   3.910   3.414  0.1522  0.1827 -0.6536
  439SOL    MW4 1524   3.732   3.867   3.388  0.0949 -0.2627 -0.0976
  440SOL     OW 1525   1.280   5.295   2.125  0.1821 -0.0846  0.0753
  440SOL    HW2 1526   1.372   5.271   2.140  0.3978  0.4087 -0.4371
  440SOL    HW3 1527   1.255   5.244   2.048  0.2698  0.4046 -0.2752
  440SOL    MW4 1528   1.289   5.285   2.117  0.2221  0.0450 -0.0385
  441SOL     OW 1529   2.395   4.056   6.180 -0.1603  0.5892  0.0209
  441SOL    HW2 1530   2.444   4.132   6.213 -0.2906  0.3772  0.7189
  441SOL    HW3 1531   2.326   4.042   6.246 -0.2656 -0.0063 -0.2131
  441SOL    MW4 1532   2.392   4.064   6.193 -0.1914  0.4826  0.0821
  442SOL     OW 1533   0.841   0.531   4.013  0.2902  0.3106  0.0525
  442SOL    HW2 1534   0.768   0.558   3.957 -1.0135 -0.2442  1.4188
  442SOL    HW3 1535   0.802   0.516   4.099  1.7902 -1.2034  0.5379
  442SOL    MW4 1536   0.826   0.533   4.017  0.3161  0.0376  0.2968
  443SOL     OW 1537   4.300   4.317   1.978  0.2223 -0.5324 -0.1916
  443SOL    HW2 1538   4.233   4.280   2.035  0.1003 -2.8848 -1.7279
  443SOL    HW3 1539   4.251   4.355   1.905  0.3960  2.1554  0.9480
  443SOL    MW4 1540   4.285   4.317   1.976  0.2291 -0.4882 -0.2439
  444SOL     OW 1541   1.633   3.128   4.372  0.0586 -0.3643  0.7203
  444SOL    HW2 1542   1.685   3.080   4.308  0.2835 -0.0208  0.6431
  444SOL    HW3 1543   1.631   3.218   4.340  1.6471  0.2114  2.0691
  444SOL    MW4 1544   1.640   3.134   4.359  0.2979 -0.2430  0.8881
  445SOL     OW 1545   3.551   1.549   1.062 -0.5638  0.1296  0.1421
  445SOL    HW2 1546   3.531   1.639   1.035 -1.7659  0.3939  1.7453
  445SOL    HW3 1547   3.467   1.513   1.088  0.2508 -0.5995  1.9259
  445SOL    MW4 1548   3.537   1.556   1.062 -0.6150  0.0682  0.5890
  446SOL     OW 1549   3.769   4.238   2.428  0.0870  0.4499  0.3362
  446SOL    HW2 1550   3.829   4.217   2.500  0.6145 -1.8839 -0.7046
  446SOL    HW3 1551   3.773   4.162   2.370 -0.3928  2.2218 -2.1534
  446SOL    MW4 1552   3.777   4.225   2.430  0.0933  0.3758 -0.1296
  447SOL     OW 1553   2.737   1.398   1.068 -0.0305  0.5019 -0.3780
  447SOL    HW2 1554   2.733   1.390   0.973  0.3036 -1.2431 -0.2754
  447SOL    HW3 1555   2.830   1.413   1.087  0.1029 -0.4122 -0.2666
  447SOL    MW4 1556   2.749   1.399   1.058  0.0312  0.1510 -0.3497
  448SOL     OW 1557   4.584   2.683   6.316  0.0955  0.0078  0.3707
  448SOL    HW2 1558   4.592   2.614   6.250  0.2399 -0.6724  1.0847
  448SOL    HW3 1559   4.648   2.660   6.383 -0.1129  0.6367  0.7931
  448SOL    MW4 1560   4.593   2.671   6.316  0.0870  0.0010  0.5207
  449SOL     OW 1561   1.370   3.366   2.808 -0.2554  0.1127 -0.6689
  449SOL    HW2 1562   1.394   3.325   2.890 -0.0489  0.5087 -0.5290
  449SOL    HW3 1563   1.447   3.356   2.752  0.5465  2.0205  0.0220
  449SOL    MW4 1564   1.383   3.360   2.811 -0.1223  0.4167 -0.5593
  450SOL     OW 1565   0.254   5.351   1.932 -0.4668  0.4858  0.0507
  450SOL    HW2 1566   0.188   5.380   1.868  1.1331 -0.1530 -2.0107
  450SOL    HW3 1567   0.292   5.273   1.893  1.6352  0.9376  1.0703
  450SOL    MW4 1568   0.250   5.345   1.918  0.0216  0.4611 -0.0867
  451SOL     OW 1569   0.276   2.717   6.018  0.1201  0.0538 -0.1160
  451SOL    HW2 1570   0.296   2.735   6.109 -0.0956 -0.6634  0.0811
  451SOL    HW3 1571   0.349   2.754   5.969 -0.1645  1.1819  0.2805
  451SOL    MW4 1572   0.288   2.724   6.023  0.0541  0.1080 -0.0377
  452SOL     OW 1573   3.139   0.880   5.896  0.7032 -0.5225  0.1535
  452SOL    HW2 1574   3.089   0.909   5.820  0.3675 -0.2230  0.4859
  452SOL    HW3 1575   3.092   0.803   5.927  0.1671  0.0305  0.7449
  452SOL    MW4 1576   3.126   0.874   5.890  0.5882 -0.4100  0.2754
  453SOL     OW 1577   5.082   2.370   3.793 -0.4675  0.3590 -0.1267
  453SOL    HW2 1578   5.040   2.328   3.719 -0.1326  0.6098 -0.4659
  453SOL    HW3 1579   5.065   2.464   3.781 -1.1615  0.3328  0.5895
  453SOL    MW4 1580   5.074   2.377   3.782 -0.5149  0.3886 -0.0769
  454SOL     OW 1581   4.762   3.993   3.496  0.8080  0.6276 -0.4747
  454SOL    HW2 1582   4.836   4.026   3.548  1.9306 -1.1833 -0.8613
  454SOL    HW3 1583   4.797   3.979   3.409 -0.2254  0.5016 -0.8904
  454SOL    MW4 1584   4.776   3.995   3.492  0.8197  0.3720 -0.5806
  455SOL     OW 1585   0.076   5.754   2.508 -0.4431 -0.8918  0.4621
  455SOL    HW2 1586   0.011   5.691   2.537 -0.4210 -1.2433 -0.2322
  455SOL    HW3 1587   0.124   5.709   2.439 -0.0078 -0.3425  0.3980
  455SOL    MW4 1588   0.074   5.740   2.503 -0.3827 -0.8657  0.3620
  456SOL     OW 1589   6.123   2.095   4.187 -0.2877  0.4833 -0.2279
  456SOL    HW2 1590   6.116   2.176   4.137 -0.3453  0.4278 -0.3097
  456SOL    HW3 1591   6.070   2.031   4.138  0.0662  0.2954 -0.3699
  456SOL    MW4 1592   6.115   2.097   4.174 -0.2486  0.4512 -0.2574
  457SOL     OW 1593   3.736   5.914   5.681 -0.1512  0.5480  0.1911
  457SOL    HW2 1594   3.648   5.943   5.655 -0.1935  0.1965 -0.0635
  457SOL    HW3 1595   3.771   5.987   5.731 -0.6881  0.5943  0.5131
  457SOL    MW4 1596   3.729   5.927   5.684 -0.2276  0.5077  0.2000
  458SOL     OW 1597   1.603   1.752   3.523 -0.8763 -0.1551  0.2454
  458SOL    HW2 1598   1.585   1.825   3.582 -2.2874  0.2508 -0.6393
  458SOL    HW3 1599   1.589   1.674   3.576 -1.5839  0.2093  0.6098
  458SOL    MW4 1600   1.599   1.751   3.538 -1.1558 -0.0535  0.1767
  459SOL     OW 1601   3.432   1.558   6.013  0.4837  0.0098 -0.2309
  459SOL    HW2 1602   3.407   1.635   5.962  0.1422 -0.1828 -0.3592
  459SOL    HW3 1603   3.381   1.566   6.094  1.1016  0.3692  0.1313
  459SOL    MW4 1604   3.422   1.569   6.017  0.5202  0.0318 -0.2001
  460SOL     OW 1605   0.188   1.020   4.538 -0.2739 -0.3444  0.2432
  460SOL    HW2 1606   0.172   1.072   4.616 -0.8354  0.7034 -0.5543
  460SOL    HW3 1607   0.283   1.004   4.539 -0.0170  1.0860  0.2681
  460SOL    MW4 1608   0.199   1.025   4.549 -0.3141 -0.0174  0.1412
  461SOL     OW 1609   6.186   2.718   2.120  0.0189  0.1626 -0.5870
  461SOL    HW2 1610   6.125   2.688   2.053  0.7208 -2.1827 -0.2612
  461SOL    HW3 1611   6.135   2.779   2.173 -1.4682 -0.2793 -1.4477
  461SOL    MW4 1612   6.171   2.722   2.118 -0.0847 -0.2051 -0.6576
  462SOL     OW 1613   0.101   3.221   2.226 -0.0316  0.2526 -0.1663
  462SOL    HW2 1614   0.183   3.235   2.178  1.4027  0.0844  2.0728
  462SOL    HW3 1615   0.085   3.303   2.271  0.0096 -0.3291  0.9481
  462SOL    MW4 1616   0.110   3.233   2.226  0.1631  0.1536  0.2762
  463SOL     OW 1617   2.634   2.759   1.901  0.0780 -0.6734 -0.1414
  463SOL    HW2 1618   2.681   2.819   1.842 -1.1455  1.3044  0.8076
  463SOL    HW3 1619   2.555   2.736   1.853 -1.1149  1.2564  0.7964
  463SOL    MW4 1620   2.630   2.764   1.887 -0.2409 -0.1578  0.1076
  464SOL     OW 1621   2.011   1.486   2.448 -0.2469  0.3320 -0.3782
  464SOL    HW2 1622   1.951   1.548   2.408  0.9704  2.3174  0.7389
  464SOL    HW3 1623   2.050   1.533   2.522  0.6396 -1.8087  0.6154
  464SOL    MW4 1624   2.008   1.500   2.453  0.0307  0.3115 -0.0997
  465SOL     OW 1625   0.935   0.996   6.022  0.2756 -0.1728 -0.7976
  465SOL    HW2 1626   0.862   0.935   6.010 -0.3289  0.9371 -3.3867
  465SOL    HW3 1627   1.013   0.940   6.026 -0.5631 -1.3160  1.1496
  465SOL    MW4 1628   0.936   0.981   6.021  0.0852 -0.1772 -0.8823
  466SOL     OW 1629   2.962   3.903   0.536  0.1336  0.1990 -0.0978
  466SOL    HW2 1630   2.916   3.957   0.601 -1.6580 -1.0963 -0.2031
  466SOL    HW3 1631   2.974   3.818   0.580  0.3948 -0.1787 -0.8803
  466SOL    MW4 1632   2.957   3.899   0.550 -0.0683 -0.0217 -0.2149
  467SOL     OW 1633   2.905   1.193   6.411 -0.2129  0.0873  0.6894
  467SOL    HW2 1634   2.931   1.178   6.501  1.0190  1.1381  0.5411
  467SOL    HW3 1635   2.926   1.111   6.366  0.0055 -0.1340  1.1908
  467SOL    MW4 1636   2.911   1.181   6.417 -0.0215  0.1968  0.7360
  468SOL     OW 1637   5.887   1.690   5.635  0.3569 -0.2377  0.2220
  468SOL    HW2 1638   5.801   1.652   5.650 -0.2363  1.4491  1.3299
  468SOL    HW3 1639   5.889   1.709   5.541 -0.0777 -1.1851  0.0123
  468SOL    MW4 1640   5.876   1.688   5.625  0.2213 -0.1401  0.3405
  469SOL     OW 1641   0.320   4.772   2.668 -0.0770  0.1303  0.2692
  469SOL    HW2 1642   0.289   4.828   2.740  1.8932  1.1847  0.3658
  469SOL    HW3 1643   0.366   4.700   2.711  0.4667  0.3713  0.1081
  469SOL    MW4 1644   0.322   4.770   2.683  0.2546  0.3012  0.2607
  470SOL     OW 1645   0.343   3.466   5.675  0.2780 -0.4313 -0.2591
  470SOL    HW2 1646   0.383   3.379   5.674 -2.0579 -1.6158  0.3711
  470SOL    HW3 1647   0.351   3.496   5.765 -0.7787 -0.9883  0.0423
  470SOL    MW4 1648   0.349   3.458   5.687 -0.1696 -0.6611 -0.1362
  471SOL     OW 1649   3.944   1.712   5.836 -0.5630  0.0182  0.2334
  471SOL    HW2 1650   4.012   1.659   5.878  0.0083  2.2744  2.3992
  471SOL    HW3 1651   3.991   1.786   5.799 -1.5319 -0.0057 -1.0923
  471SOL    MW4 1652   3.959   1.714   5.837 -0.6155  0.3127  0.3443
  472SOL     OW 1653   4.686   3.684   3.517 -0.3814 -0.3718  0.1166
  472SOL    HW2 1654   4.591   3.678   3.532 -0.2994 -1.5414  0.2537
  472SOL    HW3 1655   4.704   3.620   3.449  0.4087 -0.6690  0.5889
  472SOL    MW4 1656   4.676   3.675   3.510 -0.2663 -0.5653  0.1970
  473SOL     OW 1657   5.150   2.678   3.234  0.3007  0.5669  0.0864
  473SOL    HW2 1658   5.199   2.642   3.159 -1.0185 -0.7778 -0.1924
  473SOL    HW3 1659   5.176   2.770   3.238  0.3716  0.7023 -2.0823
  473SOL    MW4 1660   5.160   2.685   3.224  0.1360  0.4074 -0.2366
  474SOL     OW 1661   6.308   1.543   3.896  0.2067 -0.3967  0.2319
  474SOL    HW2 1662   6.326   1.632   3.926 -0.7921 -0.1474  0.1124
  474SOL    HW3 1663   6.395   1.506   3.877  0.5682  0.9069 -0.7634
  474SOL    MW4 1664   6.322   1.549   3.897  0.1226 -0.1918  0.0848
  475SOL     OW 1665   6.445   0.564   2.426  0.2259  0.3770 -0.1650
  475SOL    HW2 1666   6.487   0.586   2.509 -0.6499  0.7487  0.1926
  475SOL    HW3 1667   6.456   0.469   2.419  0.8625  0.4263  0.0563
  475SOL    MW4 1668   6.452   0.554   2.436  0.1944  0.4326 -0.0887
  476SOL     OW 1669   6.279   0.438   3.477  0.3298  0.3051  0.4962
  476SOL    HW2 1670   6.307   0.430   3.569  1.7433  0.4153  0.0952
  476SOL    HW3 1671   6.289   0.350   3.441  2.2136  0.7558 -0.1872
  476SOL    MW4 1672   6.284   0.426   3.485  0.7648  0.3791  0.3531
  477SOL     OW 1673   4.545   4.884   2.331  0.3124 -0.7844 -0.4718
  477SOL    HW2 1674   4.542   4.789   2.329  2.2622 -0.8912  0.1826
  477SOL    HW3 1675   4.565   4.910   2.241 -0.0396 -0.9935 -0.6118
  477SOL    MW4 1676   4.547   4.875   2.319  0.5232 -0.8261 -0.4040
  478SOL     OW 1677   2.826   0.882   2.781  0.8381  0.3339 -0.3181
  478SOL    HW2 1678   2.819   0.861   2.688  1.5569 -0.5424 -0.1760
  478SOL    HW3 1679   2.860   0.803   2.822  0.9863  0.8694  0.6282
  478SOL    MW4 1680   2.829   0.869   2.774  0.9525  0.2889 -0.1745
  479SOL     OW 1681   1.893   2.027   5.328 -0.8210  0.6021 -0.6071
  479SOL    HW2 1682   1.829   1.965   5.362  2.7164 -2.7981  0.5325
  479SOL    HW3 1683   1.887   2.102   5.387 -2.8017 -0.1629  0.2485
  479SOL    MW4 1684   1.884   2.029   5.340 -0.6156  0.0525 -0.3438
  480SOL     OW 1685   4.972   4.789   3.273 -0.5602  0.0383  0.5321
  480SOL    HW2 1686   5.067   4.795   3.274 -0.3363 -2.5323  1.2015
  480SOL    HW3 1687   4.943   4.869   3.228  2.0537 -0.9640 -3.4129
  480SOL    MW4 1688   4.980   4.800   3.267 -0.1858 -0.4331  0.0999
  481SOL     OW 1689   1.145   2.807   6.343  0.8888  0.1627 -0.4673
  481SOL    HW2 1690   1.188   2.722   6.329  1.6415  0.5678 -0.6746
  481SOL    HW3 1691   1.212   2.860   6.386  0.5471  0.7684 -0.6798
  481SOL    MW4 1692   1.160   2.803   6.347  0.9430  0.2961 -0.5227
  482SOL     OW 1693   0.392   0.477   5.064 -0.1312  0.0455 -0.1751
  482SOL    HW2 1694   0.333   0.552   5.054  2.0873  2.0702  0.9514
  482SOL    HW3 1695   0.362   0.433   5.144 -1.7276 -0.6123 -1.0872
  482SOL    MW4 1696   0.380   0.481   5.073 -0.0491  0.2259 -0.1468
  483SOL     OW 1697   6.016   4.374   3.179  0.2018 -0.5385 -0.2081
  483SOL    HW2 1698   6.111   4.386   3.183  0.3979 -1.7213 -0.7697
  483SOL    HW3 1699   5.994   4.330   3.262  0.1744 -0.5013 -0.1954
  483SOL    MW4 1700   6.026   4.370   3.191  0.2241 -0.6896 -0.2805
  484SOL     OW 1701   5.835   5.135   3.222 -0.1058 -0.2620  0.8852
  484SOL    HW2 1702   5.787   5.139   3.139 -0.1175  1.3598  0.9458
  484SOL    HW3 1703   5.927   5.133   3.196 -0.1341 -1.4861  0.8160
  484SOL    MW4 1704   5.841   5.135   3.207 -0.1111 -0.2095  0.8840
  485SOL     OW 1705   6.364   3.430   0.667 -0.1980  0.1159  0.0267
  485SOL    HW2 1706   6.396   3.509   0.711  2.9205 -0.6930 -0.5743
  485SOL    HW3 1707   6.339   3.460   0.580  0.1582  0.5791  0.0789
  485SOL    MW4 1708   6.365   3.444   0.661  0.2605  0.0703 -0.0457
  486SOL     OW 1709   1.264   6.275   0.024 -0.6200  0.4318  0.4149
  486SOL    HW2 1710   1.250   6.257  -0.069  0.7923  0.9608  0.0872
  486SOL    HW3 1711   1.211   6.209   0.068 -0.8971 -0.1696 -0.7614
  486SOL    MW4 1712   1.255   6.264   0.017 -0.4702  0.4223  0.2165
  487SOL     OW 1713   0.539   2.799   5.305  0.4962 -0.2538  0.1314
  487SOL    HW2 1714   0.582   2.737   5.247 -1.0107 -0.4790 -0.8071
  487SOL    HW3 1715   0.457   2.756   5.331  0.4784  0.4221  1.2970
  487SOL    MW4 1716   0.534   2.785   5.301  0.2950 -0.1944  0.1614
  488SOL     OW 1717   4.113   4.503   4.204 -0.2470  0.1261 -0.1447
  488SOL    HW2 1718   4.150   4.455   4.131 -1.1721  0.2425 -0.7118
  488SOL    HW3 1719   4.118   4.595   4.178  0.4416  0.2571  0.4268
  488SOL    MW4 1720   4.118   4.509   4.191 -0.2782  0.1588 -0.1441
  489SOL     OW 1721   2.478   2.281   6.027  0.3228 -0.2624 -0.5029
  489SOL    HW2 1722   2.464   2.205   5.970  1.8296  0.8500 -2.5178
  489SOL    HW3 1723   2.552   2.326   5.987  1.0064  0.9933  2.0213
  489SOL    MW4 1724   2.486   2.277   6.014  0.6118  0.0500 -0.4357
  490SOL     OW 1725   4.522   3.200   1.620 -0.1354 -0.6069 -0.5731
  490SOL    HW2 1726   4.446   3.197   1.563  1.5618 -2.2297 -2.9150
  490SOL    HW3 1727   4.540   3.109   1.642 -0.7764 -0.0606  2.8016
  490SOL    MW4 1728   4.514   3.188   1.616  0.0039 -0.7489 -0.4369
  491SOL     OW 1729   0.510   1.766   4.745 -0.6232 -0.2767 -0.2171
  491SOL    HW2 1730   0.547   1.848   4.776 -1.2362  0.4236 -1.3022
  491SOL    HW3 1731   0.556   1.699   4.796 -0.2841  0.7311  0.8502
  491SOL    MW4 1732   0.521   1.768   4.756 -0.6593 -0.0513 -0.2195
  492SOL     OW 1733   2.453   2.674   0.597 -0.2896 -0.3421  0.1536
  492SOL    HW2 1734   2.372   2.677   0.545  0.8143 -0.5518 -1.6609
  492SOL    HW3 1735   2.498   2.595   0.567  1.4996  0.8086 -0.3298
  492SOL    MW4 1736   2.448   2.664   0.586  0.0921 -0.2179 -0.1496
  493SOL     OW 1737   3.857   5.717   6.142  0.4749  0.1896  0.2618
  493SOL    HW2 1738   3.920   5.745   6.076  0.8924 -0.2067  0.4888
  493SOL    HW3 1739   3.894   5.747   6.225  0.2057  0.2351  0.3683
  493SOL    MW4 1740   3.870   5.725   6.144  0.4945  0.1433  0.3058
  494SOL     OW 1741   2.301   5.265   0.891  0.0765  0.3110 -0.1958
  494SOL    HW2 1742   2.347   5.199   0.942 -0.8926 -0.4555 -0.2856
  494SOL    HW3 1743   2.223   5.287   0.943  0.2250  1.1646 -0.3104
  494SOL    MW4 1744   2.297   5.259   0.904 -0.0317  0.3225 -0.2228
  495SOL     OW 1745   5.404   1.940   4.220 -0.1480 -0.1286  0.0278
  495SOL    HW2 1746   5.441   1.944   4.132  1.2426  0.0804  0.5901
  495SOL    HW3 1747   5.460   1.877   4.266 -1.4579 -0.9815  0.5056
  495SOL    MW4 1748   5.417   1.932   4.214 -0.1374 -0.2136  0.1651
  496SOL     OW 1749   3.252   3.299   0.077 -0.6314 -0.0561 -0.0235
  496SOL    HW2 1750   3.189   3.348   0.024 -0.6427 -0.5978 -0.5245
  496SOL    HW3 1751   3.207   3.285   0.161 -0.1497  1.8569  0.6021
  496SOL    MW4 1752   3.237   3.303   0.081 -0.5693  0.1249 -0.0070
  497SOL     OW 1753   5.142   5.898   0.407 -0.5233 -0.0941 -0.6089
  497SOL    HW2 1754   5.119   5.897   0.500  0.7711  1.2552 -0.2398
  497SOL    HW3 1755   5.212   5.834   0.398  0.9479  1.3744 -0.1533
  497SOL    MW4 1756   5.148   5.890   0.418 -0.1584  0.2777 -0.5001
  498SOL     OW 1757   3.722   1.609   2.437 -0.4680  0.4888  0.2569
  498SOL    HW2 1758   3.728   1.515   2.456  1.7988  0.6767  0.7974
  498SOL    HW3 1759   3.652   1.641   2.495  0.3515 -0.4947  1.8748
  498SOL    MW4 1760   3.713   1.601   2.447 -0.0608  0.3838  0.5416
  499SOL     OW 1761   0.981   0.054   3.891  0.0115  0.0848  0.5545
  499SOL    HW2 1762   1.069   0.084   3.866 -0.2491  0.0408 -0.4244
  499SOL    HW3 1763   0.951   0.119   3.955  0.9303 -0.1472  1.2521
  499SOL    MW4 1764   0.989   0.066   3.896  0.0984  0.0484  0.5174
  500SOL     OW 1765   6.056   3.960   1.919 -0.1587 -0.2426  0.2372
  500SOL    HW2 1766   6.026   3.869   1.923  0.4212 -0.4297  0.4471
  500SOL    HW3 1767   5.979   4.009   1.891 -0.3185 -0.8786 -0.4947
  500SOL    MW4 1768   6.042   3.954   1.916 -0.1032 -0.3512  0.1683
  501SOL     OW 1769   2.878   2.289   6.330 -0.7086 -0.0653  0.2507
  501SOL    HW2 1770   2.869   2.373   6.374  1.5269 -0.0937  0.8758
  501SOL    HW3 1771   2.870   2.224   6.400 -1.3323 -0.3396 -0.0631
  501SOL    MW4 1772   2.876   2.291   6.345 -0.4960 -0.1052  0.2917
  502SOL     OW 1773   3.589   1.968   5.455  0.3680  0.1843  0.2443
  502SOL    HW2 1774   3.506   2.015   5.458 -0.1799 -0.7328 -0.0221
  502SOL    HW3 1775   3.567   1.878   5.478  0.7737 -0.7071 -2.4025
  502SOL    MW4 1776   3.576   1.962   5.458  0.3492 -0.0543 -0.1400
  503SOL     OW 1777   2.969   4.887   3.757 -0.3246 -0.0545 -0.7907
  503SOL    HW2 1778   2.926   4.957   3.709 -2.3836  0.1459  1.2038
  503SOL    HW3 1779   2.992   4.926   3.841  1.2113 -0.9930 -0.7284
  503SOL    MW4 1780   2.967   4.901   3.761 -0.3936 -0.1518 -0.5193
  504SOL     OW 1781   3.686   2.293   2.222  0.2478  0.1984  0.1620
  504SOL    HW2 1782   3.678   2.205   2.185 -3.2615  0.2303  0.4172
  504SOL    HW3 1783   3.755   2.286   2.288 -0.6683 -2.7455  0.9762
  504SOL    MW4 1784   3.694   2.280   2.226 -0.3361 -0.1858  0.3031
  505SOL     OW 1785   5.911   0.456   0.163  0.3890  0.0291  0.0868
  505SOL    HW2 1786   5.933   0.384   0.222  1.7812  0.7585  0.4960
  505SOL    HW3 1787   5.989   0.512   0.164 -1.0353  2.1011  0.6091
  505SOL    MW4 1788   5.924   0.454   0.171  0.3847  0.3987  0.2097
  506SOL     OW 1789   4.873   3.660   5.757  0.2045  0.0260 -0.0908
  506SOL    HW2 1790   4.780   3.682   5.746  0.6415  1.5525 -1.2394
  506SOL    HW3 1791   4.908   3.733   5.808  1.0795  0.3557 -1.1289
  506SOL    MW4 1792   4.865   3.673   5.762  0.3776  0.2709 -0.3793
  507SOL     OW 1793   5.377   5.361   6.364  0.8070  0.2583  0.3455
  507SOL    HW2 1794   5.432   5.283   6.353  0.2074  0.1242 -2.3312
  507SOL    HW3 1795   5.419   5.428   6.309 -0.2538  0.9398  0.3516
  507SOL    MW4 1796   5.390   5.359   6.355  0.5880  0.3305 -0.0068
  508SOL     OW 1797   5.896   3.217   4.289 -0.8437 -0.3268  0.3546
  508SOL    HW2 1798   5.831   3.235   4.357 -0.6577  2.0999  0.0060
  508SOL    HW3 1799   5.845   3.202   4.210 -1.0270 -0.1667  0.4416
  508SOL    MW4 1800   5.881   3.217   4.287 -0.8433  0.0145  0.3201
  509SOL     OW 1801   2.744   6.289   5.861 -0.4202 -0.3355  0.1792
  509SOL    HW2 1802   2.685   6.228   5.817 -1.1452  0.5431 -0.1012
  509SOL    HW3 1803   2.721   6.375   5.825  0.8257  0.0741  0.2909
  509SOL    MW4 1804   2.733   6.292   5.850 -0.3515 -0.1656  0.1570
  510SOL     OW 1805   0.667   6.062   3.876  0.0475  0.3571  0.2896
  510SOL    HW2 1806   0.648   6.149   3.910 -0.2570  0.9377 -1.2855
  510SOL    HW3 1807   0.702   6.077   3.789 -1.1749 -1.1287 -0.5097
  510SOL    MW4 1808   0.669   6.075   3.869 -0.1539  0.2377 -0.0237
  511SOL     OW 1809   5.575   0.473   2.092 -0.6871  0.3875 -0.3954
  511SOL    HW2 1810   5.506   0.420   2.052  0.0222 -1.2758  0.4957
  511SOL    HW3 1811   5.531   0.554   2.117 -1.8550  0.1564 -1.6156
  511SOL    MW4 1812   5.560   0.477   2.090 -0.7476  0.1376 -0.4388
  512SOL     OW 1813   1.015   1.018   0.493  0.0835  0.2442 -0.0498
  512SOL    HW2 1814   0.995   0.963   0.568  0.7792 -1.2475 -0.9194
  512SOL    HW3 1815   0.951   1.090   0.497 -0.7571 -0.5548  1.1773
  512SOL    MW4 1816   1.004   1.020   0.503  0.0644 -0.0580 -0.0026
  513SOL     OW 1817   5.382   4.169   3.601  0.1495 -0.1204 -0.5420
  513SOL    HW2 1818   5.455   4.147   3.542 -0.3030 -1.8647 -0.5024
  513SOL    HW3 1819   5.342   4.084   3.622 -0.2591  0.5462  1.5622
  513SOL    MW4 1820   5.386   4.155   3.596  0.0359 -0.2626 -0.2592
  514SOL     OW 1821   3.940   3.370   0.870  0.5026 -0.1808  0.7267
  514SOL    HW2 1822   4.022   3.362   0.820 -0.2140  0.2083 -0.5574
  514SOL    HW3 1823   3.911   3.280   0.883 -0.2074 -0.2792 -1.1698
  514SOL    MW4 1824   3.947   3.357   0.865  0.3144 -0.1424  0.3070
  515SOL     OW 1825   0.072   4.715   4.422 -0.1119 -0.1096 -0.5353
  515SOL    HW2 1826   0.125   4.648   4.464 -1.1740 -0.9010 -0.4196
  515SOL    HW3 1827   0.026   4.758   4.495  0.1589  0.3991 -0.6572
  515SOL    MW4 1828   0.073   4.712   4.437 -0.2163 -0.1469 -0.5361
  516SOL     OW 1829   5.247   4.470   2.085 -0.1246  0.0140  0.5500
  516SOL    HW2 1830   5.300   4.543   2.053 -0.9593 -0.1195 -1.2414
  516SOL    HW3 1831   5.183   4.511   2.144 -1.0740  0.8791 -1.0189
  516SOL    MW4 1832   5.245   4.485   2.089 -0.3600  0.1105  0.1066
  517SOL     OW 1833   5.634   4.471   1.121 -0.1042  0.1025 -0.4378
  517SOL    HW2 1834   5.553   4.427   1.145 -1.0764  2.0171 -0.0160
  517SOL    HW3 1835   5.664   4.425   1.043  1.0177 -3.7018  1.9622
  517SOL    MW4 1836   5.627   4.459   1.114 -0.0844 -0.1468 -0.0655
  518SOL     OW 1837   1.459   1.434   4.697 -0.4355  0.2660  0.5260
  518SOL    HW2 1838   1.406   1.441   4.776  0.1537  0.0111  0.9580
  518SOL    HW3 1839   1.397   1.444   4.625 -0.8132  1.8049  1.0139
  518SOL    MW4 1840   1.444   1.436   4.698 -0.4076  0.4354  0.6474
  519SOL     OW 1841   2.059   0.291   6.214 -0.2270  0.0563 -0.3477
  519SOL    HW2 1842   1.966   0.284   6.193 -0.4842  0.5641  0.5861
  519SOL    HW3 1843   2.096   0.207   6.185 -1.3267 -0.9383  1.0222
  519SOL    MW4 1844   2.052   0.279   6.207 -0.4061 -0.0079 -0.0437
  520SOL     OW 1845   3.063   5.445   1.665  0.0928 -0.4884 -0.2898
  520SOL    HW2 1846   3.141   5.496   1.685 -0.4291  0.6237 -0.9986
  520SOL    HW3 1847   3.044   5.465   1.573 -0.9733 -0.8179 -0.1556
  520SOL    MW4 1848   3.071   5.454   1.655 -0.1167 -0.3851 -0.3656
  521SOL     OW 1849   4.804   4.312   4.357 -0.6290 -0.6675  0.0678
  521SOL    HW2 1850   4.818   4.399   4.320  1.2055 -1.9764 -2.6708
  521SOL    HW3 1851   4.879   4.299   4.416  2.1844 -2.1664 -3.4786
  521SOL    MW4 1852   4.816   4.322   4.360 -0.0158 -1.0379 -0.7614
  522SOL     OW 1853   2.517   4.215   1.724 -0.8748 -0.4324  0.4081
  522SOL    HW2 1854   2.528   4.305   1.692 -0.8490 -0.2040  1.0538
  522SOL    HW3 1855   2.563   4.162   1.660 -0.4355  0.0611  0.3073
  522SOL    MW4 1856   2.524   4.220   1.711 -0.8134 -0.3371  0.4800
  523SOL     OW 1857   2.956   0.673   0.900 -0.1923  0.1860  0.1187
  523SOL    HW2 1858   2.993   0.648   0.985  2.2015  0.3397 -0.7783
  523SOL    HW3 1859   3.013   0.630   0.836 -0.8069  1.5379 -1.4188
  523SOL    MW4 1860   2.969   0.664   0.902  0.0424  0.3847 -0.2025
  524SOL     OW 1861   2.302   0.645   3.211  0.1559 -0.0718 -0.3020
  524SOL    HW2 1862   2.332   0.594   3.287  1.1783  1.4644  0.3777
  524SOL    HW3 1863   2.248   0.715   3.250  0.4993  0.5938 -0.9932
  524SOL    MW4 1864   2.299   0.648   3.226  0.3361  0.2187 -0.3035
  525SOL     OW 1865   4.173   2.750   2.865 -0.4742 -0.4559 -0.3231
  525SOL    HW2 1866   4.144   2.800   2.941 -0.4811 -1.6504  0.5005
  525SOL    HW3 1867   4.269   2.747   2.874 -0.5743 -2.2636  0.8049
  525SOL    MW4 1868   4.182   2.756   2.876 -0.4883 -0.8520 -0.0656
  526SOL     OW 1869   1.678   4.142   5.560  0.3684  0.3550 -0.2938
  526SOL    HW2 1870   1.743   4.083   5.600 -1.0450 -0.4532  0.8972
  526SOL    HW3 1871   1.662   4.105   5.473 -0.7489 -1.2765  0.5626
  526SOL    MW4 1872   1.685   4.129   5.554  0.0345  0.0331 -0.0236
  527SOL     OW 1873   6.382   1.455   6.368  0.3784 -0.5722 -0.6653
  527SOL    HW2 1874   6.422   1.518   6.428 -0.2687  0.9864 -1.7957
  527SOL    HW3 1875   6.323   1.404   6.423 -1.1247  1.6268 -0.1018
  527SOL    MW4 1876   6.379   1.457   6.383  0.0947 -0.0765 -0.7401
  528SOL     OW 1877   2.488   2.637   1.189  0.4194  0.3107 -0.0123
  528SOL    HW2 1878   2.411   2.692   1.175  0.6105  0.3898 -0.8343
  528SOL    HW3 1879   2.562   2.696   1.176  0.6226  0.2149  0.6969
  528SOL    MW4 1880   2.488   2.652   1.185  0.4714  0.3085 -0.0272
  529SOL     OW 1881   0.937   4.190   3.194  0.5610  0.1287 -0.1201
  529SOL    HW2 1882   0.930   4.157   3.105 -0.8077  1.2063 -0.4236
  529SOL    HW3 1883   0.888   4.127   3.247  2.0871 -0.9884  0.0415
  529SOL    MW4 1884   0.930   4.177   3.190  0.5818  0.1235 -0.1388
  530SOL     OW 1885   1.660   3.654   0.131  0.2284 -0.5456  0.9012
  530SOL    HW2 1886   1.637   3.730   0.186  2.0738  1.4329 -0.8694
  530SOL    HW3 1887   1.596   3.655   0.060  0.8076 -0.0255  0.3712
  530SOL    MW4 1888   1.649   3.664   0.129  0.5483 -0.2159  0.5977
  531SOL     OW 1889   4.858   5.903   0.329 -0.1323  1.0179  0.0090
  531SOL    HW2 1890   4.821   5.826   0.373 -0.3545  0.5467 -0.9895
  531SOL    HW3 1891   4.948   5.908   0.362 -0.0329  0.1820 -0.1099
  531SOL    MW4 1892   4.865   5.893   0.339 -0.1485  0.8455 -0.1385
  532SOL     OW 1893   1.114   3.996   5.234  0.0449  0.3453  0.8431
  532SOL    HW2 1894   1.185   3.943   5.270  0.2465  0.3159  0.4090
  532SOL    HW3 1895   1.139   4.086   5.253  0.0280  0.3195  0.9923
  532SOL    MW4 1896   1.127   4.001   5.241  0.0693  0.3380  0.8055
  533SOL     OW 1897   2.132   3.855   3.719  0.6710  0.2184  0.5896
  533SOL    HW2 1898   2.097   3.779   3.673  0.2321  0.2900  0.7934
  533SOL    HW3 1899   2.075   3.927   3.693  1.8799  0.7748 -0.6511
  533SOL    MW4 1900   2.120   3.854   3.710  0.7726  0.3013  0.4528
  534SOL     OW 1901   4.865   1.260   2.929  0.0177  0.0560 -0.5165
  534SOL    HW2 1902   4.874   1.303   2.843  1.6554  1.7417  0.4299
  534SOL    HW3 1903   4.947   1.214   2.941 -0.5848 -0.9693 -0.2327
  534SOL    MW4 1904   4.877   1.260   2.919  0.1543  0.1431 -0.3542
  535SOL     OW 1905   2.768   4.759   5.694  0.4583 -0.4395  0.2169
  535SOL    HW2 1906   2.824   4.704   5.748 -1.4493 -0.6937  2.0408
  535SOL    HW3 1907   2.700   4.701   5.662  0.4673  0.1349 -0.9029
  535SOL    MW4 1908   2.767   4.744   5.697  0.2078 -0.3973  0.3098
  536SOL     OW 1909   3.789   3.125   0.857  0.0841  0.3180 -0.5078
  536SOL    HW2 1910   3.743   3.134   0.941  2.0223  1.8928  0.4939
  536SOL    HW3 1911   3.824   3.036   0.859 -1.0239 -0.1298 -0.2852
  536SOL    MW4 1912   3.787   3.115   0.868  0.1936  0.4667 -0.3462
  537SOL     OW 1913   1.304   4.855   3.439  0.1358  0.1219  0.1709
  537SOL    HW2 1914   1.257   4.856   3.523  0.0443 -1.3050  0.1533
  537SOL    HW3 1915   1.392   4.826   3.461  0.3709  0.6093 -0.1135
  537SOL    MW4 1916   1.309   4.851   3.453  0.1548 -0.0021  0.1310
  538SOL     OW 1917   2.539   3.962   5.946  0.0073 -0.1372  0.1124
  538SOL    HW2 1918   2.483   3.984   6.021  1.0250  1.2812  0.4900
  538SOL    HW3 1919   2.492   3.997   5.870 -1.0497 -1.6206  0.0342
  538SOL    MW4 1920   2.525   3.969   5.946  0.0021 -0.1458  0.1519
  539SOL     OW 1921   6.110   4.599   4.080  0.3258 -0.8403 -0.0932
  539SOL    HW2 1922   6.100   4.634   3.992  1.2867 -0.8238 -0.2032
  539SOL    HW3 1923   6.021   4.602   4.117  0.2528  1.0978 -0.3133
  539SOL    MW4 1924   6.097   4.604   4.074  0.4429 -0.5824 -0.1368
  540SOL     OW 1925   2.925   3.386   3.017 -0.8872 -0.3671  0.2604
  540SOL    HW2 1926   2.869   3.382   3.094 -0.5901  0.0144  0.5014
  540SOL    HW3 1927   2.937   3.295   2.990 -1.9302 -0.4343 -0.0261
  540SOL    MW4 1928   2.919   3.373   3.023 -0.9856 -0.3256  0.2544
  541SOL     OW 1929   3.451   1.254   5.145  0.3618 -0.1927  0.0120
  541SOL    HW2 1930   3.490   1.241   5.058  1.6974 -0.9625  0.7082
  541SOL    HW3 1931   3.361   1.223   5.135  0.3609  0.1291 -1.2026
  541SOL    MW4 1932   3.444   1.248   5.132  0.5379 -0.2518 -0.0564
  542SOL     OW 1933   5.249   1.588   4.728  0.0567 -0.2324 -0.6549
  542SOL    HW2 1934   5.157   1.613   4.738 -0.1278 -1.1688  0.1357
  542SOL    HW3 1935   5.246   1.494   4.710  0.8885 -0.3784 -0.0425
  542SOL    MW4 1936   5.236   1.579   4.727  0.1421 -0.3752 -0.4698
  543SOL     OW 1937   6.195   4.735   0.304 -0.1139 -0.5294  0.1743
  543SOL    HW2 1938   6.258   4.798   0.340  0.1835 -1.3550  1.1476
  543SOL    HW3 1939   6.118   4.787   0.283 -1.1866 -0.2054  4.0694
  543SOL    MW4 1940   6.193   4.750   0.306 -0.2162 -0.5956  0.8166
  544SOL     OW 1941   1.355   5.758   3.331 -0.4784  0.3256  0.2874
  544SOL    HW2 1942   1.274   5.709   3.347  0.6280 -0.9708  2.3029
  544SOL    HW3 1943   1.416   5.725   3.396  2.0860  0.3958 -1.9278
  544SOL    MW4 1944   1.352   5.747   3.342  0.0059  0.1638  0.2611
  545SOL     OW 1945   3.143   3.784   2.585 -0.1679  0.3057 -0.1360
  545SOL    HW2 1946   3.086   3.707   2.580  0.1605  0.1099 -1.0207
  545SOL    HW3 1947   3.210   3.769   2.520  0.5781  0.8129  0.4918
  545SOL    MW4 1948   3.144   3.772   2.576 -0.0262  0.3468 -0.1699
  546SOL     OW 1949   3.277   4.372   3.098 -0.0988 -0.3876 -0.3631
  546SOL    HW2 1950   3.228   4.427   3.158 -0.6365 -2.0976  0.8306
  546SOL    HW3 1951   3.369   4.384   3.123 -0.0841  0.8493 -0.9222
  546SOL    MW4 1952   3.283   4.381   3.109 -0.1678 -0.4500 -0.2793
  547SOL     OW 1953   0.872   5.732   0.825 -0.0960 -0.1030  0.1933
  547SOL    HW2 1954   0.850   5.816   0.784  0.5848  0.2659  0.5740
  547SOL    HW3 1955   0.832   5.737   0.912  0.4526  0.0804  0.4404
  547SOL    MW4 1956   0.864   5.744   0.831  0.0662 -0.0302  0.2761
  548SOL     OW 1957   6.183   3.333   5.609 -0.1361  0.2632 -0.4167
  548SOL    HW2 1958   6.270   3.297   5.626 -0.3578  0.2091  0.6796
  548SOL    HW3 1959   6.186   3.360   5.517  1.4753  1.4463 -0.0796
  548SOL    MW4 1960   6.195   3.332   5.599  0.0473  0.4122 -0.2276
  549SOL     OW 1961   1.917   2.004   1.793  0.0172  0.0875 -0.3094
  549SOL    HW2 1962   1.953   2.062   1.860 -1.3977  2.8851 -1.7975
  549SOL    HW3 1963   1.980   2.008   1.722  1.0110 -2.0870  0.3487
  549SOL    MW4 1964   1.930   2.012   1.793 -0.0384  0.1697 -0.4189
  550SOL     OW 1965   1.090   0.342   0.939 -0.0574 -0.1893 -0.2687
  550SOL    HW2 1966   1.062   0.281   0.871  0.2516 -1.8891  1.0802
  550SOL    HW3 1967   1.185   0.335   0.940  0.0604  1.0495 -0.7228
  550SOL    MW4 1968   1.099   0.333   0.930 -0.0011 -0.2501 -0.1506
  551SOL     OW 1969   3.013   5.254   3.855  0.0485  0.2199  0.4301
  551SOL    HW2 1970   3.047   5.180   3.906  0.2154  0.3018  0.4373
  551SOL    HW3 1971   2.951   5.214   3.794 -0.1305  0.1184  0.6789
  551SOL    MW4 1972   3.009   5.239   3.854  0.0469  0.2173  0.4639
  552SOL     OW 1973   4.702   3.471   4.661  0.4709  0.3907  0.0424
  552SOL    HW2 1974   4.753   3.391   4.652  0.1672  0.0409  1.2343
  552SOL    HW3 1975   4.703   3.490   4.755 -2.2288 -0.0712  0.2421
  552SOL    MW4 1976   4.708   3.463   4.672  0.0747  0.2836  0.2260
  553SOL     OW 1977   5.157   1.299   0.159  0.1560 -0.4025  0.1684
  553SOL    HW2 1978   5.218   1.280   0.230 -0.2073  1.8963  1.1890
  553SOL    HW3 1979   5.094   1.226   0.162  1.4175 -1.5163  0.6980
  553SOL    MW4 1980   5.157   1.287   0.169  0.2745 -0.2461  0.3729
  554SOL     OW 1981   4.279   2.199   0.062  0.2252  0.1426 -0.3596
  554SOL    HW2 1982   4.225   2.273   0.091 -1.6421 -1.1183 -0.3855
  554SOL    HW3 1983   4.215   2.130   0.042  1.9175 -2.3969  2.2307
  554SOL    MW4 1984   4.263   2.200   0.063  0.2021 -0.3588 -0.0213
  555SOL     OW 1985   1.975   6.267   3.208  0.1139  0.1441  0.3236
  555SOL    HW2 1986   1.902   6.207   3.217  0.5640 -0.6069 -0.8945
  555SOL    HW3 1987   2.019   6.264   3.294 -0.7381 -0.0866  0.7622
  555SOL    MW4 1988   1.971   6.259   3.221  0.0609  0.0146  0.2207
  556SOL     OW 1989   0.172   3.272   3.229  1.0616  0.7122  0.8534
  556SOL    HW2 1990   0.194   3.270   3.322  1.1257  1.1989  0.8505
  556SOL    HW3 1991   0.227   3.204   3.190  0.6907  0.1803  1.2382
  556SOL    MW4 1992   0.182   3.262   3.236  1.0211  0.7062  0.9038
  557SOL     OW 1993   3.729   5.725   0.755 -0.0495  0.3666 -0.3014
  557SOL    HW2 1994   3.812   5.723   0.706 -0.2157 -0.8823 -0.5670
  557SOL    HW3 1995   3.669   5.773   0.699  0.4912  1.3171 -0.0920
  557SOL    MW4 1996   3.732   5.731   0.741 -0.0001  0.3272 -0.3088
  558SOL     OW 1997   3.223   5.850   3.384  0.4990 -0.3558  0.2015
  558SOL    HW2 1998   3.272   5.927   3.357  2.3660 -1.5309  0.1054
  558SOL    HW3 1999   3.284   5.778   3.375 -0.7683 -1.6811  1.5809
  558SOL    MW4 2000   3.237   5.851   3.380  0.5781 -0.6857  0.3708
  559SOL     OW 2001   6.105   1.935   2.760  0.1458  0.0598 -0.4327
  559SOL    HW2 2002   6.039   1.919   2.693  1.5167 -1.4366 -1.4928
  559SOL    HW3 2003   6.058   1.928   2.843 -1.3705  0.8889 -1.1852
  559SOL    MW4 2004   6.090   1.932   2.762  0.1266 -0.0282 -0.6718
  560SOL     OW 2005   6.301   5.949   4.012  0.3435 -0.9904  0.8629
  560SOL    HW2 2006   6.356   5.923   4.086  1.3047 -0.5050  0.3315
  560SOL    HW3 2007   6.332   6.036   3.988 -0.5716 -0.7649  0.4618
  560SOL    MW4 2008   6.312   5.957   4.019  0.3496 -0.8966  0.7398
  561SOL     OW 2009   4.854   2.396   2.459  0.8979  0.5130 -0.6429
  561SOL    HW2 2010   4.927   2.450   2.489  0.9709  1.0916 -1.8236
  561SOL    HW3 2011   4.805   2.452   2.399 -0.9337  0.3788  0.6122
  561SOL    MW4 2012   4.857   2.410   2.455  0.6659  0.5716 -0.6331
  562SOL     OW 2013   2.831   4.256   3.742 -0.2040 -0.1863 -0.5453
  562SOL    HW2 2014   2.914   4.303   3.740 -0.7054  0.7034 -0.6965
  562SOL    HW3 2015   2.817   4.227   3.652 -0.4317  0.3431 -0.6858
  562SOL    MW4 2016   2.840   4.258   3.730 -0.3002  0.0009 -0.5838
  563SOL     OW 2017   3.239   3.230   1.315  0.6073 -0.2618 -0.4260
  563SOL    HW2 2018   3.253   3.310   1.366  0.7608 -0.4474 -0.1800
  563SOL    HW3 2019   3.146   3.211   1.325  0.2175  0.7779 -1.7791
  563SOL    MW4 2020   3.229   3.238   1.323  0.5761 -0.1491 -0.5721
  564SOL     OW 2021   5.084   4.987   2.792  0.2801  0.1958 -0.1849
  564SOL    HW2 2022   5.030   4.946   2.725  2.6806 -1.9983 -0.9596
  564SOL    HW3 2023   5.084   4.924   2.864  1.0301  0.6133  0.1883
  564SOL    MW4 2024   5.077   4.973   2.793  0.6957 -0.0386 -0.2379
  565SOL     OW 2025   4.467   0.103   1.537  0.2198 -0.0499  0.9095
  565SOL    HW2 2026   4.434   0.180   1.491  0.6857 -0.6075 -0.4156
  565SOL    HW3 2027   4.544   0.135   1.585  0.5758  0.2642  0.1452
  565SOL    MW4 2028   4.473   0.117   1.537  0.3282 -0.0821  0.6338
  566SOL     OW 2029   1.010   1.287   4.780 -0.3610 -0.0869 -0.2954
  566SOL    HW2 2030   1.096   1.252   4.759  0.4062  1.3902  0.1805
  566SOL    HW3 2031   1.021   1.382   4.775 -1.0765  0.2961  2.8098
  566SOL    MW4 2032   1.022   1.295   4.777 -0.3542  0.1586  0.1771
  567SOL     OW 2033   2.775   4.724   1.682 -0.3505 -0.0423  0.2553
  567SOL    HW2 2034   2.860   4.764   1.697 -0.2449 -0.8660  2.0564
  567SOL    HW3 2035   2.715   4.798   1.669  0.5670  0.5439 -0.7757
  567SOL    MW4 2036   2.778   4.739   1.682 -0.2155 -0.0737  0.3569
  568SOL     OW 2037   3.310   4.304   5.309 -0.0793 -0.3998 -0.1500
  568SOL    HW2 2038   3.302   4.321   5.403  0.2712  0.5246 -0.2848
  568SOL    HW3 2039   3.366   4.226   5.304 -0.1744 -0.5090  0.4003
  568SOL    MW4 2040   3.316   4.296   5.321 -0.0456 -0.2923 -0.0952
  569SOL     OW 2041   4.410   3.671   3.572 -0.1850  0.2997 -0.6407
  569SOL    HW2 2042   4.362   3.696   3.493  3.1429 -0.5046 -3.1797
  569SOL    HW3 2043   4.394   3.577   3.581  0.5388  0.0914 -1.3177
  569SOL    MW4 2044   4.402   3.662   3.562  0.3496  0.1661 -1.0650
  570SOL     OW 2045   1.239   4.083   5.954 -0.0534 -0.4066 -0.6868
  570SOL    HW2 2046   1.269   4.172   5.937  3.8409 -1.3600  0.1516
  570SOL    HW3 2047   1.170   4.093   6.019  0.0925  2.0298 -0.8187
  570SOL    MW4 2048   1.234   4.096   5.961  0.4796 -0.2109 -0.5936
  571SOL     OW 2049   5.790   1.735   0.268 -0.4040  1.0846 -0.0168
  571SOL    HW2 2050   5.793   1.761   0.176  0.1957  0.5503 -0.1581
  571SOL    HW3 2051   5.756   1.812   0.314 -1.0086  1.2431 -0.7203
  571SOL    MW4 2052   5.786   1.749   0.262 -0.4046  1.0350 -0.1283
  572SOL     OW 2053   4.005   4.949   0.987 -0.0345  0.1560  0.6699
  572SOL    HW2 2054   3.944   4.968   1.059 -0.1674 -1.4504  1.0293
  572SOL    HW3 2055   3.950   4.911   0.918  0.6555 -2.9498  1.6501
  572SOL    MW4 2056   3.990   4.946   0.988  0.0390 -0.4657  0.8467
  573SOL     OW 2057   1.267   2.264   1.398 -0.3149  0.1802 -0.4095
  573SOL    HW2 2058   1.219   2.226   1.471 -0.0778  0.4037 -0.1356
  573SOL    HW3 2059   1.275   2.192   1.335 -0.7086  0.0488 -0.3124
  573SOL    MW4 2060   1.262   2.249   1.399 -0.3356  0.1923 -0.3606
  574SOL     OW 2061   3.881   0.778   3.074 -0.2281 -0.5938 -0.0949
  574SOL    HW2 2062   3.887   0.822   3.159  1.7339 -2.1215  0.6484
  574SOL    HW3 2063   3.936   0.830   3.016  1.2677 -1.4055  0.5265
  574SOL    MW4 2064   3.889   0.790   3.078  0.2281 -0.9025  0.0851
  575SOL     OW 2065   5.571   4.025   5.858 -0.6361 -0.2443  0.4257
  575SOL    HW2 2066   5.593   4.101   5.805  0.0974 -1.3755 -0.9721
  575SOL    HW3 2067   5.644   4.016   5.920 -0.5740  0.0011  0.3855
  575SOL    MW4 2068   5.584   4.034   5.859 -0.5311 -0.3612  0.2360
  576SOL     OW 2069   5.943   5.888   0.567  0.0439 -1.2311 -0.4068
  576SOL    HW2 2070   6.005   5.818   0.588  0.8337 -0.8060 -1.2517
  576SOL    HW3 2071   5.869   5.874   0.627  1.4927 -0.9947  1.5081
  576SOL    MW4 2072   5.941   5.877   0.578  0.3393 -1.1438 -0.2656
  577SOL     OW 2073   4.432   3.320   3.402 -0.6424 -0.7200  0.3946
  577SOL    HW2 2074   4.514   3.355   3.368  0.0030 -1.9250  0.6692
  577SOL    HW3 2075   4.413   3.244   3.346 -1.9800 -0.0283 -0.1526
  577SOL    MW4 2076   4.440   3.315   3.390 -0.7337 -0.7877  0.3587
  578SOL     OW 2077   3.535   5.335   0.792  0.2472  0.5875 -0.4648
  578SOL    HW2 2078   3.472   5.327   0.720  1.7436 -0.4162 -1.7190
  578SOL    HW3 2079   3.484   5.312   0.870 -0.6112 -1.8280 -1.6236
  578SOL    MW4 2080   3.520   5.331   0.792  0.3314  0.1364 -0.7831
  579SOL     OW 2081   5.576   1.142   4.796  0.0755 -0.3093 -0.3960
  579SOL    HW2 2082   5.639   1.208   4.824 -1.3983  1.6899 -1.5556
  579SOL    HW3 2083   5.621   1.094   4.727 -0.1171  2.1368 -2.3458
  579SOL    MW4 2084   5.590   1.144   4.791 -0.1444  0.2772 -0.8062
  580SOL     OW 2085   0.157   6.143   5.477  0.4018 -0.0584  0.1607
  580SOL    HW2 2086   0.229   6.126   5.539  0.1528  2.0008  1.0992
  580SOL    HW3 2087   0.079   6.148   5.532  0.0305  0.8597 -0.4337
  580SOL    MW4 2088   0.157   6.142   5.493  0.3199  0.3345  0.2061
  581SOL     OW 2089   5.429   0.564   3.242 -0.3772  0.0770 -0.3210
  581SOL    HW2 2090   5.492   0.627   3.278  0.6597 -1.4147  0.6119
  581SOL    HW3 2091   5.346   0.612   3.238  0.2094  1.2700  1.0448
  581SOL    MW4 2092   5.427   0.579   3.246 -0.1630  0.0376 -0.0177
  582SOL     OW 2093   0.453   4.649   1.174 -0.9148  0.3592 -0.0338
  582SOL    HW2 2094   0.366   4.688   1.167 -1.4212 -0.9187 -1.3266
  582SOL    HW3 2095   0.447   4.566   1.126  0.9097  0.0424  0.1884
  582SOL    MW4 2096   0.441   4.643   1.167 -0.7409  0.1488 -0.1750
  583SOL     OW 2097   5.628   1.124   5.456  0.1719  0.1588  0.1103
  583SOL    HW2 2098   5.629   1.068   5.533  1.5923  0.3637  0.2553
  583SOL    HW3 2099   5.552   1.181   5.470 -0.2161 -0.5099  0.8293
  583SOL    MW4 2100   5.618   1.124   5.468  0.3081  0.0976  0.2243
  584SOL     OW 2101   6.139   3.765   5.496  0.5102 -0.2165  0.5047
  584SOL    HW2 2102   6.190   3.716   5.561 -0.7751 -1.5783  0.5128
  584SOL    HW3 2103   6.049   3.735   5.508 -0.2482  1.7754  0.1426
  584SOL    MW4 2104   6.134   3.755   5.506  0.2406 -0.1334  0.4580
  585SOL     OW 2105   4.082   3.658   5.302 -0.2211  0.2224 -0.1401
  585SOL    HW2 2106   4.013   3.723   5.290 -1.4666 -1.2602 -1.6073
  585SOL    HW3 2107   4.076   3.632   5.394 -1.3586  0.4102 -0.1547
  585SOL    MW4 2108   4.072   3.663   5.312 -0.5355  0.0515 -0.3356
  586SOL     OW 2109   0.573   1.381   5.608 -0.0649  0.3124 -0.5302
  586SOL    HW2 2110   0.592   1.374   5.701 -0.9988 -0.4001 -0.3748
  586SOL    HW3 2111   0.513   1.456   5.601 -0.3539  0.0880 -0.4906
  586SOL    MW4 2112   0.567   1.390   5.619 -0.2262  0.1888 -0.5045
  587SOL     OW 2113   3.606   1.512   5.693 -0.1643  0.0881 -0.2464
  587SOL    HW2 2114   3.645   1.517   5.781  0.2887 -0.6349 -0.3946
  587SOL    HW3 2115   3.564   1.597   5.681 -0.7429 -0.0104  0.9036
  587SOL    MW4 2116   3.606   1.524   5.703 -0.1808 -0.0203 -0.1142
  588SOL     OW 2117   0.244   2.857   1.978  0.0555 -0.3799  0.6537
  588SOL    HW2 2118   0.231   2.762   1.971 -0.1957 -0.4044  1.4271
  588SOL    HW3 2119   0.185   2.894   1.912 -1.0681 -0.6784  1.4659
  588SOL    MW4 2120   0.235   2.849   1.968 -0.1259 -0.4225  0.8629
  589SOL     OW 2121   4.465   2.726   2.869 -0.3455 -0.2414 -0.1172
  589SOL    HW2 2122   4.471   2.820   2.885  1.1800 -0.0928 -1.3534
  589SOL    HW3 2123   4.521   2.686   2.935  0.4099 -0.1458 -0.6967
  589SOL    MW4 2124   4.473   2.733   2.880 -0.0446 -0.2091 -0.3568
  590SOL     OW 2125   2.285   3.307   2.820  0.0724 -0.2816 -0.1747
  590SOL    HW2 2126   2.356   3.370   2.832 -0.9358  0.7731  0.5000
  590SOL    HW3 2127   2.209   3.361   2.797 -1.3008 -0.9943  2.3124
  590SOL    MW4 2128   2.284   3.323   2.818 -0.2418 -0.2365  0.2424
  591SOL     OW 2129   3.874   3.794   4.534  0.0927 -0.2656  0.4855
  591SOL    HW2 2130   3.949   3.734   4.528 -1.5168 -2.4433  1.0945
  591SOL    HW3 2131   3.837   3.795   4.445 -0.0234 -0.3492  0.5332
  591SOL    MW4 2132   3.879   3.786   4.521 -0.1350 -0.5640  0.5721
  592SOL     OW 2133   1.575   2.275   0.194 -0.3262 -0.3128  0.2280
  592SOL    HW2 2134   1.491   2.253   0.235  1.2284 -3.4682  2.1111
  592SOL    HW3 2135   1.576   2.224   0.113 -0.9031  1.1416 -0.7250
  592SOL    MW4 2136   1.564   2.265   0.189 -0.1972 -0.5372  0.3507
  593SOL     OW 2137   5.520   0.019   4.262 -0.7234  0.3711  0.6417
  593SOL    HW2 2138   5.578  -0.057   4.253 -0.2036  0.7043  1.1107
  593SOL    HW3 2139   5.559   0.087   4.207 -1.0029  0.4149  0.4897
  593SOL    MW4 2140   5.532   0.018   4.253 -0.6917  0.4208  0.6835
  594SOL     OW 2141   0.657   1.433   5.278 -0.3083 -0.4546  0.1309
  594SOL    HW2 2142   0.659   1.385   5.195 -0.4551 -1.1291  0.5127
  594SOL    HW3 2143   0.564   1.441   5.298 -0.2797 -0.1285  0.1429
  594SOL    MW4 2144   0.645   1.428   5.270 -0.3239 -0.5006  0.1828
  595SOL     OW 2145   0.455   5.767   0.408 -0.3267 -1.1355  0.4095
  595SOL    HW2 2146   0.531   5.719   0.375  0.9164 -1.0671  2.9319
  595SOL    HW3 2147   0.459   5.852   0.364  1.3740 -0.9682  0.8286
  595SOL    MW4 2148   0.465   5.772   0.398  0.0617 -1.1044  0.7976
  596SOL     OW 2149   2.600   2.671   4.175 -0.1232  0.2503  0.5096
  596SOL    HW2 2150   2.683   2.661   4.222  1.1027 -2.1366 -1.9195
  596SOL    HW3 2151   2.625   2.690   4.085 -2.2205 -0.2527 -0.2351
  596SOL    MW4 2152   2.614   2.672   4.169 -0.2382 -0.1310  0.0909
  597SOL     OW 2153   4.897   5.878   1.848 -0.1103 -0.4072  0.5199
  597SOL    HW2 2154   4.855   5.830   1.920 -0.6875 -0.0638  0.4274
  597SOL    HW3 2155   4.901   5.815   1.776 -2.7248  0.2084 -0.2725
  597SOL    MW4 2156   4.892   5.863   1.848 -0.5314 -0.2807  0.4032
  598SOL     OW 2157   5.543   1.982   4.652  0.3099 -0.0715  0.1067
  598SOL    HW2 2158   5.563   1.889   4.646 -1.3810 -0.5928  1.4117
  598SOL    HW3 2159   5.465   1.986   4.708 -0.7436  1.9941 -1.3623
  598SOL    MW4 2160   5.535   1.971   4.659 -0.0522  0.1322  0.0851
  599SOL     OW 2161   6.296   3.665   5.283  0.3002  0.2677  0.0105
  599SOL    HW2 2162   6.243   3.714   5.345  1.1850  1.1951  0.0594
  599SOL    HW3 2163   6.276   3.702   5.198  0.3033  0.1093 -0.0597
  599SOL    MW4 2164   6.286   3.676   5.280  0.4173  0.3691  0.0077
  600SOL     OW 2165   4.858   2.520   6.116  0.3825  0.6026 -0.0703
  600SOL    HW2 2166   4.828   2.603   6.078  0.0337  1.1987  1.3949
  600SOL    HW3 2167   4.778   2.478   6.148  0.7804  0.8370  1.2927
  600SOL    MW4 2168   4.844   2.526   6.116  0.3890  0.7122  0.3029
  601SOL     OW 2169   0.806   4.756   1.686 -0.0895  0.2682  0.3399
  601SOL    HW2 2170   0.809   4.781   1.593 -0.2828  1.9711  0.7612
  601SOL    HW3 2171   0.825   4.662   1.686 -0.5512  0.1398 -1.4595
  601SOL    MW4 2172   0.809   4.746   1.673 -0.1759  0.4759  0.1581
  602SOL     OW 2173   4.249   0.095   3.831  0.2292 -0.2306 -0.3227
  602SOL    HW2 2174   4.281   0.035   3.764 -0.1105  1.4388 -2.0419
  602SOL    HW3 2175   4.220   0.173   3.783 -0.6835  0.7579  1.6984
  602SOL    MW4 2176   4.249   0.097   3.816  0.0639  0.1201 -0.2828
  603SOL     OW 2177   1.631   3.335   2.687 -0.0558 -0.1909 -0.2840
  603SOL    HW2 2178   1.716   3.332   2.730  0.8254 -2.8807 -1.9691
  603SOL    HW3 2179   1.649   3.312   2.596 -2.2798  1.8409 -1.3543
  603SOL    MW4 2180   1.645   3.332   2.681 -0.2330 -0.2777 -0.6476
  604SOL     OW 2181   0.820   6.168   2.271 -0.5619 -0.4397  0.3951
  604SOL    HW2 2182   0.752   6.103   2.289 -1.3182 -0.5379 -2.3393
  604SOL    HW3 2183   0.831   6.165   2.176  1.3859  1.4845  0.4846
  604SOL    MW4 2184   0.812   6.159   2.260 -0.4047 -0.1988  0.0461
  605SOL     OW 2185   2.331   5.779   3.481  0.4243  0.1305  0.3807
  605SOL    HW2 2186   2.400   5.840   3.453 -0.1505  0.1791 -1.0187
  605SOL    HW3 2187   2.254   5.835   3.492 -1.1582 -0.6173 -4.5682
  605SOL    MW4 2188   2.330   5.795   3.479  0.1397  0.0383 -0.4568
  606SOL     OW 2189   1.832   4.387   5.550  0.4429  0.6118 -0.2939
  606SOL    HW2 2190   1.865   4.374   5.461  0.3464 -0.2429 -0.2143
  606SOL    HW3 2191   1.765   4.320   5.560  0.2688  0.8769  0.3355
  606SOL    MW4 2192   1.827   4.376   5.539  0.4072  0.5340 -0.2004
  607SOL     OW 2193   2.435   0.139   6.186 -0.5001  0.4871 -0.4774
  607SOL    HW2 2194   2.483   0.060   6.162 -0.2913  0.6781 -0.6844
  607SOL    HW3 2195   2.343   0.111   6.187 -0.5065  0.4507 -1.3953
  607SOL    MW4 2196   2.429   0.125   6.183 -0.4734  0.5075 -0.6258
  608SOL     OW 2197   2.831   2.550   5.046  0.0944  0.7144  0.4237
  608SOL    HW2 2198   2.880   2.582   5.122 -0.8927 -2.7783  2.7682
  608SOL    HW3 2199   2.740   2.570   5.067 -0.0447  1.5963 -0.9249
  608SOL    MW4 2200   2.826   2.557   5.059 -0.0542  0.3700  0.5551
  609SOL     OW 2201   2.586   5.936   3.608 -0.2926 -0.4775 -0.3653
  609SOL    HW2 2202   2.640   5.865   3.575  2.3029  1.2511 -0.1765
  609SOL    HW3 2203   2.600   6.008   3.546 -1.4790  0.4005  0.3354
  609SOL    MW4 2204   2.595   5.936   3.596 -0.1067 -0.1336 -0.2480
  610SOL     OW 2205   2.656   4.039   5.533  0.4353 -0.1216  0.6485
  610SOL    HW2 2206   2.569   3.999   5.531  0.0144  0.8148 -0.5359
  610SOL    HW3 2207   2.640   4.133   5.540  1.4003 -0.0345  2.4598
  610SOL    MW4 2208   2.643   4.046   5.534  0.5071  0.0134  0.7312
  611SOL     OW 2209   2.755   0.562   3.185  0.3593  0.0485 -0.2705
  611SOL    HW2 2210   2.790   0.604   3.264  0.4782  0.7875 -0.7115
  611SOL    HW3 2211   2.719   0.479   3.217  2.5666 -0.8082  0.2077
  611SOL    MW4 2212   2.755   0.557   3.200  0.6662  0.0330 -0.2656
  612SOL     OW 2213   3.014   2.089   4.107 -0.2413 -0.6105  0.3346
  612SOL    HW2 2214   3.005   2.098   4.202 -1.1489 -0.4290  0.2407
  612SOL    HW3 2215   3.045   2.174   4.078  1.4962 -1.0992  0.6108
  612SOL    MW4 2216   3.017   2.101   4.116 -0.1318 -0.6511  0.3587
  613SOL     OW 2217   4.132   6.140   3.747 -0.1592  0.4351  0.5406
  613SOL    HW2 2218   4.228   6.144   3.739 -0.3035  0.7836 -1.7700
  613SOL    HW3 2219   4.114   6.053   3.782  0.9487 -0.6683 -1.4428
  613SOL    MW4 2220   4.142   6.129   3.751 -0.0321  0.3355 -0.0259
  614SOL     OW 2221   3.813   5.683   3.187 -0.2555 -0.0753 -0.4814
  614SOL    HW2 2222   3.805   5.671   3.281  1.6708 -0.1804 -0.2998
  614SOL    HW3 2223   3.738   5.635   3.150  0.0995 -1.7608  0.8983
  614SOL    MW4 2224   3.802   5.675   3.194  0.0455 -0.3116 -0.2754
  615SOL     OW 2225   4.746   5.505   6.180  0.4355 -0.1102  0.8969
  615SOL    HW2 2226   4.780   5.416   6.167  0.8109 -0.0131  1.1754
  615SOL    HW3 2227   4.651   5.495   6.181  0.4559 -0.3974  0.1329
  615SOL    MW4 2228   4.738   5.492   6.179  0.4877 -0.1353  0.8329
  616SOL     OW 2229   2.842   3.966   1.800 -0.0494 -0.2718  0.4551
  616SOL    HW2 2230   2.810   3.931   1.884  1.7506 -0.3907  1.1340
  616SOL    HW3 2231   2.849   4.060   1.815  0.1946 -0.2840  0.4222
  616SOL    MW4 2232   2.839   3.973   1.813  0.2203 -0.2891  0.5403
  617SOL     OW 2233   4.624   4.999   5.518  0.2357  0.0282  0.3645
  617SOL    HW2 2234   4.684   5.024   5.448  1.6556  0.0635  1.5526
  617SOL    HW3 2235   4.596   4.910   5.496 -0.0268  0.3583 -0.6830
  617SOL    MW4 2236   4.628   4.991   5.506  0.3884  0.0764  0.3830
  618SOL     OW 2237   3.782   5.932   3.971  0.1431 -0.5431  0.2346
  618SOL    HW2 2238   3.798   6.021   3.940 -1.4560  0.1778  1.3402
  618SOL    HW3 2239   3.828   5.927   4.054 -0.5572 -0.4119  0.6360
  618SOL    MW4 2240   3.790   5.943   3.978 -0.1603 -0.4307  0.4335
  619SOL     OW 2241   1.191   1.245   2.594  0.1813 -0.0243 -0.9910
  619SOL    HW2 2242   1.219   1.156   2.617  1.8004  0.9001  0.9095
  619SOL    HW3 2243   1.261   1.278   2.538  0.6288  0.7441  0.0069
  619SOL    MW4 2244   1.204   1.238   2.589  0.4540  0.1990 -0.6086
  620SOL     OW 2245   5.377   0.873   1.900  0.0731  0.4714  0.6674
  620SOL    HW2 2246   5.328   0.852   1.820  0.0509 -0.7500  0.9806
  620SOL    HW3 2247   5.397   0.966   1.892 -0.2020  0.4404 -0.6167
  620SOL    MW4 2248   5.373   0.882   1.888  0.0339  0.3061  0.5393
  621SOL     OW 2249   0.332   0.981   5.211 -0.0658 -0.0366  0.1196
  621SOL    HW2 2250   0.293   0.972   5.124 -0.7139 -1.6426  0.5448
  621SOL    HW3 2251   0.297   0.907   5.260  1.4122  0.0418  1.3321
  621SOL    MW4 2252   0.322   0.970   5.206  0.0437 -0.2381  0.3357
  622SOL     OW 2253   3.541   4.327   4.062  0.1853 -1.2397 -0.2627
  622SOL    HW2 2254   3.544   4.393   4.131  1.1695 -1.3579 -0.1804
  622SOL    HW3 2255   3.619   4.273   4.077  0.1824 -1.5266 -1.2093
  622SOL    MW4 2256   3.552   4.328   4.073  0.3148 -1.2932 -0.3767
  623SOL     OW 2257   1.108   6.084   1.573  0.0043  0.3052 -0.3178
  623SOL    HW2 2258   1.038   6.040   1.525 -0.5943  0.7436  0.1439
  623SOL    HW3 2259   1.084   6.074   1.665  1.2567 -0.7176 -0.0807
  623SOL    MW4 2260   1.095   6.077   1.579  0.0905  0.2281 -0.2256
  624SOL     OW 2261   4.529   2.900   4.156 -0.3486 -0.9052 -0.2818
  624SOL    HW2 2262   4.590   2.826   4.154 -0.7914 -1.3916  1.9830
  624SOL    HW3 2263   4.450   2.865   4.198 -0.3403  0.9815  1.4400
  624SOL    MW4 2264   4.526   2.886   4.161 -0.4059 -0.7204  0.2442
  625SOL     OW 2265   2.020   2.109   5.740 -0.5068 -0.3986 -0.9954
  625SOL    HW2 2266   2.017   2.186   5.797  0.8425 -1.7772  1.0631
  625SOL    HW3 2267   1.956   2.128   5.671 -1.1645  1.9821  0.1637
  625SOL    MW4 2268   2.011   2.122   5.739 -0.4155 -0.2664 -0.5709
  626SOL     OW 2269   3.368   3.074   5.313  0.6161 -0.4580 -0.0548
  626SOL    HW2 2270   3.303   3.070   5.243 -1.1645  0.7556  1.4211
  626SOL    HW3 2271   3.369   2.986   5.351 -0.3214 -0.4501  0.0050
  626SOL    MW4 2272   3.360   3.062   5.309  0.2575 -0.2969  0.1478
  627SOL     OW 2273   0.383   0.023   2.371 -0.0011  0.2025 -0.1395
  627SOL    HW2 2274   0.378  -0.033   2.294  0.3810  0.0495 -0.0539
  627SOL    HW3 2275   0.294   0.024   2.407  0.1672 -1.0281  0.3454
  627SOL    MW4 2276   0.370   0.016   2.366  0.0715  0.0200 -0.0643
  628SOL     OW 2277   6.091   0.377   4.443 -0.1485 -0.1787  0.5458
  628SOL    HW2 2278   6.054   0.433   4.511 -0.7010  0.3712 -0.1823
  628SOL    HW3 2279   6.014   0.346   4.394  0.2946  0.5521 -0.6702
  628SOL    MW4 2280   6.076   0.380   4.445 -0.1630 -0.0097  0.2893
  629SOL     OW 2281   5.133   5.515   3.338  0.2871  0.0243  0.8111
  629SOL    HW2 2282   5.101   5.457   3.408 -1.7417  0.2761  0.1453
  629SOL    HW3 2283   5.184   5.457   3.281 -0.3077 -0.7578  1.0583
  629SOL    MW4 2284   5.136   5.499   3.340 -0.0591 -0.0457  0.7559
  630SOL     OW 2285   0.050   6.398   2.113 -0.6524  0.1499 -0.0841
  630SOL    HW2 2286   0.115   6.417   2.045 -0.5014 -0.8420 -0.2324
  630SOL    HW3 2287   0.011   6.315   2.087  0.3678 -0.9688  1.7269
  630SOL    MW4 2288   0.053   6.390   2.101 -0.4979 -0.1286  0.1353
  631SOL     OW 2289   5.393   6.335   6.266  0.1629  0.2045  0.3303
  631SOL    HW2 2290   5.442   6.283   6.330  0.1328  2.6554  2.5024
  631SOL    HW3 2291   5.322   6.374   6.317 -2.4910 -1.0471 -2.1567
  631SOL    MW4 2292   5.390   6.333   6.281 -0.1912  0.3628  0.2887
  632SOL     OW 2293   4.278   3.617   1.597 -0.0573 -0.7286 -0.1562
  632SOL    HW2 2294   4.280   3.695   1.542 -0.6365 -0.8559 -0.3585
  632SOL    HW3 2295   4.370   3.601   1.619  0.0175  0.3471  0.3654
  632SOL    MW4 2296   4.291   3.625   1.593 -0.1239 -0.6035 -0.1141
  633SOL     OW 2297   1.019   4.167   0.615 -0.5787  0.1735  0.0079
  633SOL    HW2 2298   1.052   4.231   0.678  1.9529 -0.6301 -0.3959
  633SOL    HW3 2299   1.041   4.204   0.529  1.0751 -1.2414 -0.2268
  633SOL    MW4 2300   1.026   4.180   0.612 -0.0265 -0.1192 -0.0764
  634SOL     OW 2301   0.390   2.737   4.143 -0.6687  0.7632  0.3126
  634SOL    HW2 2302   0.468   2.748   4.089 -2.0725  0.6338 -1.9030
  634SOL    HW3 2303   0.405   2.656   4.192 -0.6946 -1.1959 -2.6204
  634SOL    MW4 2304   0.402   2.728   4.142 -0.8573  0.4877 -0.3667
  635SOL     OW 2305   0.899   1.844   0.254  0.1810 -0.1055 -0.1524
  635SOL    HW2 2306   0.986   1.884   0.265 -0.3180  0.9417  0.1348
  635SOL    HW3 2307   0.858   1.853   0.340 -0.6341  0.4792 -0.5925
  635SOL    MW4 2308   0.905   1.851   0.267  0.0076  0.1098 -0.1725
  636SOL     OW 2309   1.120   5.547   5.993 -0.0228 -0.1733 -0.0663
  636SOL    HW2 2310   1.143   5.492   6.068 -0.7546 -0.7422 -0.2439
  636SOL    HW3 2311   1.094   5.484   5.925 -1.0227  0.3898 -0.2265
  636SOL    MW4 2312   1.120   5.531   5.994 -0.2513 -0.1740 -0.1108
  637SOL     OW 2313   5.200   4.303   4.733  0.0130  0.1703 -0.1534
  637SOL    HW2 2314   5.260   4.349   4.675 -0.3163 -0.1701 -0.7649
  637SOL    HW3 2315   5.239   4.217   4.745 -0.4258 -0.1052 -0.6768
  637SOL    MW4 2316   5.213   4.298   4.727 -0.0883  0.0890 -0.3031
  638SOL     OW 2317   2.147   5.592   2.717 -0.1687 -0.1215  0.2439
  638SOL    HW2 2318   2.232   5.633   2.734 -0.4107 -0.2122  1.7902
  638SOL    HW3 2319   2.089   5.666   2.697 -0.1639  0.1393  1.1446
  638SOL    MW4 2320   2.150   5.607   2.717 -0.2000 -0.0991  0.5668
  639SOL     OW 2321   3.695   3.646   1.603  0.1378  0.7507 -0.5831
  639SOL    HW2 2322   3.657   3.686   1.524 -0.4696  2.7575  0.6346
  639SOL    HW3 2323   3.705   3.720   1.663 -2.7002 -1.1123  2.5291
  639SOL    MW4 2324   3.691   3.661   1.600 -0.3168  0.7697 -0.0118
  640SOL     OW 2325   4.369   1.314   3.548 -0.0148 -0.5538 -0.5003
  640SOL    HW2 2326   4.447   1.288   3.500  0.9293  0.5641  0.3516
  640SOL    HW3 2327   4.374   1.266   3.631  0.4896  0.4659  0.0908
  640SOL    MW4 2328   4.380   1.304   3.553  0.1763 -0.2718 -0.3099
  641SOL     OW 2329   0.927   5.043   5.051 -0.3288 -0.3111  0.1904
  641SOL    HW2 2330   0.887   4.957   5.067  1.4874 -1.1684  0.3310
  641SOL    HW3 2331   0.904   5.063   4.960 -0.4240 -1.1272  0.0266
  641SOL    MW4 2332   0.918   5.035   5.041 -0.1017 -0.5319  0.1874
  642SOL     OW 2333   0.746   2.382   4.171  0.0368 -0.3437  0.0383
  642SOL    HW2 2334   0.776   2.473   4.170  0.3851 -0.4291 -1.7131
  642SOL    HW3 2335   0.772   2.348   4.257  0.4182  1.0399  0.4900
  642SOL    MW4 2336   0.754   2.390   4.182  0.1331 -0.1725 -0.1332
  643SOL     OW 2337   4.116   0.234   0.530  0.0339  0.0792  0.5541
  643SOL    HW2 2338   4.035   0.184   0.531 -0.0030  0.0632 -0.8715
  643SOL    HW3 2339   4.106   0.300   0.599 -0.3959 -1.1215  1.6556
  643SOL    MW4 2340   4.104   0.236   0.539 -0.0277 -0.0813  0.5113
  644SOL     OW 2341   4.336   2.070   2.102 -0.5219 -0.2753  0.4490
  644SOL    HW2 2342   4.338   1.977   2.079  0.6312 -0.2598  0.4272
  644SOL    HW3 2343   4.245   2.087   2.125 -0.6289 -1.5776  1.0910
  644SOL    MW4 2344   4.324   2.060   2.102 -0.3839 -0.4451  0.5308
  645SOL     OW 2345   0.060   2.142   0.472 -0.5920 -0.6769 -0.1126
  645SOL    HW2 2346   0.115   2.217   0.492 -1.8576  0.0025  0.9599
  645SOL    HW3 2347   0.044   2.148   0.378  0.1042 -0.1661 -0.2053
  645SOL    MW4 2348   0.065   2.152   0.462 -0.6671 -0.5199  0.0167
  646SOL     OW 2349   2.066   3.356   6.355 -0.0837 -0.5389 -0.4909
  646SOL    HW2 2350   2.023   3.441   6.367 -0.6190 -0.8560 -0.0791
  646SOL    HW3 2351   1.999   3.302   6.312  0.2359 -0.7669 -0.7048
  646SOL    MW4 2352   2.051   3.360   6.351 -0.1122 -0.6108 -0.4648
  647SOL     OW 2353   0.797   0.946   0.306 -0.0677 -0.3404 -0.3547
  647SOL    HW2 2354   0.760   0.891   0.374  0.3921 -1.0428 -0.6636
  647SOL    HW3 2355   0.881   0.975   0.342 -0.2193  0.0130 -0.2737
  647SOL    MW4 2356   0.803   0.943   0.320 -0.0270 -0.3864 -0.3848
  648SOL     OW 2357   2.781   3.415   1.091 -0.5838 -0.1334  0.5109
  648SOL    HW2 2358   2.858   3.391   1.039 -0.8343 -0.9501  0.5003
  648SOL    HW3 2359   2.817   3.458   1.169 -0.1112 -0.5767  0.5427
  648SOL    MW4 2360   2.796   3.418   1.094 -0.5545 -0.2997  0.5137
  649SOL     OW 2361   6.183   5.512   4.374 -0.6519  0.7043  0.6836
  649SOL    HW2 2362   6.138   5.442   4.329 -0.3747  0.2872  1.0464
  649SOL    HW3 2363   6.274   5.506   4.343 -0.5108  0.5579  1.1192
  649SOL    MW4 2364   6.189   5.502   4.364 -0.5967  0.6299  0.7889
  650SOL     OW 2365   1.128   4.729   4.475 -0.2449  0.0364 -0.0847
  650SOL    HW2 2366   1.135   4.797   4.408  0.8983 -0.6997 -0.7324
  650SOL    HW3 2367   1.034   4.708   4.478 -0.3993  0.5335 -0.9959
  650SOL    MW4 2368   1.116   4.735   4.467 -0.1144  0.0049 -0.2904
  651SOL     OW 2369   4.302   4.445   2.816  0.0511  0.1848  0.3004
  651SOL    HW2 2370   4.221   4.432   2.865  0.2212 -0.7219  0.3592
  651SOL    HW3 2371   4.363   4.381   2.853  0.3802 -0.0685 -0.6569
  651SOL    MW4 2372   4.299   4.435   2.827  0.1169  0.0317  0.1818
  652SOL     OW 2373   1.115   4.928   1.167  0.5213 -0.0128 -0.5500
  652SOL    HW2 2374   1.176   5.001   1.163 -0.7441  1.0612 -1.1068
  652SOL    HW3 2375   1.028   4.969   1.168 -0.2022 -1.4412  1.4480
  652SOL    MW4 2376   1.111   4.943   1.167  0.2589 -0.0596 -0.3599
  653SOL     OW 2377   3.933   2.074   4.646  0.1282  0.0295 -0.3130
  653SOL    HW2 2378   3.871   2.114   4.707  0.9176  0.8021  0.0260
  653SOL    HW3 2379   4.018   2.081   4.691  0.4481 -1.1149 -0.7009
  653SOL    MW4 2380   3.936   2.080   4.660  0.2746 -0.0195 -0.3194
  654SOL     OW 2381   5.485   2.343   3.984 -0.6136 -0.5755  0.0425
  654SOL    HW2 2382   5.448   2.407   4.045  0.3762  0.5544 -0.4960
  654SOL    HW3 2383   5.577   2.368   3.976 -0.2029 -2.0482 -0.2376
  654SOL    MW4 2384   5.492   2.354   3.991 -0.4288 -0.6207 -0.0655
  655SOL     OW 2385   1.298   2.143   4.975 -0.9606  0.6064 -0.2444
  655SOL    HW2 2386   1.244   2.135   4.897 -1.5934  0.8892  0.1598
  655SOL    HW3 2387   1.376   2.091   4.956 -2.0606 -1.1255 -0.2227
  655SOL    MW4 2388   1.302   2.135   4.962 -1.1892  0.4152 -0.1882
  656SOL     OW 2389   4.275   4.698   4.573 -0.2891  0.0584 -0.2927
  656SOL    HW2 2390   4.316   4.692   4.659 -1.6203  1.7492  0.5203
  656SOL    HW3 2391   4.281   4.609   4.538  1.5903 -0.3503  0.8983
  656SOL    MW4 2392   4.281   4.685   4.580 -0.2168  0.2276 -0.0283
  657SOL     OW 2393   0.108   1.532   0.211  0.6404 -0.5536 -0.0565
  657SOL    HW2 2394   0.137   1.461   0.268  0.8729 -1.9133 -1.7764
  657SOL    HW3 2395   0.014   1.538   0.226  0.8641 -0.0842  1.2885
  657SOL    MW4 2396   0.100   1.524   0.220  0.7006 -0.6711 -0.1060
  658SOL     OW 2397   2.738   0.399   4.084 -0.5071 -0.1489 -0.3213
  658SOL    HW2 2398   2.749   0.489   4.053 -0.6835  0.1221  0.3907
  658SOL    HW3 2399   2.803   0.389   4.153 -0.8298 -0.4005 -0.0484
  658SOL    MW4 2400   2.748   0.409   4.089 -0.5730 -0.1464 -0.1913
  659SOL     OW 2401   1.358   5.882   5.793  0.1262 -0.0138 -0.2264
  659SOL    HW2 2402   1.370   5.796   5.831 -0.2864  0.1390  0.2598
  659SOL    HW3 2403   1.362   5.943   5.867 -2.9987  0.1151 -0.0004
  659SOL    MW4 2404   1.360   5.879   5.808 -0.3405  0.0233 -0.1325
  660SOL     OW 2405   3.929   0.356   3.134  0.6362 -0.4246 -0.3894
  660SOL    HW2 2406   3.924   0.268   3.172  0.6607 -0.4491 -0.4430
  660SOL    HW3 2407   3.989   0.347   3.060  0.0369 -0.5230 -0.8628
  660SOL    MW4 2408   3.936   0.343   3.129  0.5604 -0.4408 -0.4589
  661SOL     OW 2409   3.367   0.674   0.248 -0.3396  0.1495 -0.2690
  661SOL    HW2 2410   3.290   0.719   0.213 -1.3812 -0.9983  0.4920
  661SOL    HW3 2411   3.371   0.591   0.200  1.8454  1.1537 -2.0074
  661SOL    MW4 2412   3.357   0.669   0.237 -0.1887  0.1306 -0.3979
  662SOL     OW 2413   3.160   0.292   5.876  0.0249  0.2912 -0.3313
  662SOL    HW2 2414   3.080   0.298   5.927 -1.0508  1.5150 -2.0540
  662SOL    HW3 2415   3.146   0.351   5.802  3.0331  1.5853 -0.0206
  662SOL    MW4 2416   3.148   0.300   5.873  0.2799  0.6234 -0.5176
  663SOL     OW 2417   3.029   6.386   5.759  0.1256  0.4090 -0.3027
  663SOL    HW2 2418   3.013   6.352   5.671  0.5782 -0.7126  0.0340
  663SOL    HW3 2419   2.943   6.412   5.790 -0.2073 -0.2589 -0.6460
  663SOL    MW4 2420   3.016   6.385   5.751  0.1414  0.1729 -0.3036
  664SOL     OW 2421   2.441   5.757   6.305 -0.1215 -0.5663  0.2333
  664SOL    HW2 2422   2.435   5.742   6.399  0.2890 -1.8021  0.0795
  664SOL    HW3 2423   2.532   5.784   6.291 -0.0713 -0.7757  0.1477
  664SOL    MW4 2424   2.453   5.759   6.315 -0.0607 -0.7569  0.2017
  665SOL     OW 2425   4.149   0.720   0.962  0.3472 -0.7037 -0.0952
  665SOL    HW2 2426   4.119   0.733   1.052 -0.8254 -1.5683 -0.3361
  665SOL    HW3 2427   4.073   0.682   0.917  0.1889  1.6014 -1.9735
  665SOL    MW4 2428   4.135   0.716   0.968  0.1716 -0.5137 -0.3748
  666SOL     OW 2429   5.569   1.120   4.362 -0.8581  0.3416 -0.3090
  666SOL    HW2 2430   5.660   1.142   4.382 -1.3389  0.5457  1.8515
  666SOL    HW3 2431   5.517   1.173   4.423 -2.3228 -1.7181  0.3422
  666SOL    MW4 2432   5.574   1.130   4.372 -1.1148  0.0968  0.0619
  667SOL     OW 2433   6.190   1.174   2.450  0.5998 -0.1021 -0.0806
  667SOL    HW2 2434   6.282   1.149   2.446  0.3592 -0.9540 -0.4031
  667SOL    HW3 2435   6.154   1.151   2.365 -0.0607 -0.3611  0.2615
  667SOL    MW4 2436   6.198   1.168   2.439  0.4809 -0.2486 -0.0780
  668SOL     OW 2437   3.729   6.032   0.053  0.2349 -0.2691 -0.1953
  668SOL    HW2 2438   3.722   5.990  -0.033  0.4399 -1.3190  0.2911
  668SOL    HW3 2439   3.817   6.071   0.053  0.0100  0.2640 -0.6801
  668SOL    MW4 2440   3.740   6.032   0.042  0.2323 -0.3373 -0.1951
  669SOL     OW 2441   5.062   5.261   3.830 -0.5533 -0.1383  0.4437
  669SOL    HW2 2442   5.014   5.179   3.838  0.8188 -1.2823 -2.0725
  669SOL    HW3 2443   5.005   5.326   3.872 -1.4880 -2.3685  2.8900
  669SOL    MW4 2444   5.048   5.259   3.837 -0.4956 -0.5835  0.4345
  670SOL     OW 2445   0.475   3.396   0.187  0.2866 -0.2158  0.2590
  670SOL    HW2 2446   0.561   3.427   0.216 -0.4972  2.9438 -0.3365
  670SOL    HW3 2447   0.413   3.445   0.241 -1.1365 -0.7775 -0.8083
  670SOL    MW4 2448   0.478   3.407   0.198 -0.0046  0.1270  0.0396
  671SOL     OW 2449   4.531   0.682   0.625 -0.3350  0.4295 -0.2898
  671SOL    HW2 2450   4.456   0.657   0.679 -0.8310  1.3503 -0.5467
  671SOL    HW3 2451   4.577   0.748   0.677  0.6779 -0.5615  0.1459
  671SOL    MW4 2452   4.527   0.687   0.639 -0.2668  0.4202 -0.2662
  672SOL     OW 2453   0.529   5.157   1.881  0.2634 -0.6221  0.1714
  672SOL    HW2 2454   0.553   5.181   1.971  1.7180 -2.3605  0.3098
  672SOL    HW3 2455   0.585   5.082   1.861  0.6364  0.2637 -2.5252
  672SOL    MW4 2456   0.539   5.150   1.890  0.5046 -0.7346 -0.1661
  673SOL     OW 2457   2.705   6.223   1.548  0.2165  0.1720 -0.4142
  673SOL    HW2 2458   2.687   6.200   1.457  0.7321  0.8905 -0.7118
  673SOL    HW3 2459   2.745   6.310   1.544 -0.3882  0.5159  0.5566
  673SOL    MW4 2460   2.708   6.231   1.536  0.2047  0.3122 -0.3254
  674SOL     OW 2461   0.244   2.657   5.654  0.5321 -0.1612 -0.2644
  674SOL    HW2 2462   0.179   2.591   5.681  1.4851 -0.5087  1.3392
  674SOL    HW3 2463   0.233   2.664   5.560 -1.8106 -0.2283 -0.0615
  674SOL    MW4 2464   0.234   2.649   5.645  0.3487 -0.2159 -0.0261
  675SOL     OW 2465   5.608   0.943   1.388 -0.0107 -0.3403 -0.2872
  675SOL    HW2 2466   5.640   0.867   1.339 -2.3502 -3.8584  3.0946
  675SOL    HW3 2467   5.514   0.944   1.371  0.1231  3.0894 -1.6124
  675SOL    MW4 2468   5.600   0.933   1.379 -0.3017 -0.3519 -0.0158
  676SOL     OW 2469   5.485   1.930   2.869  0.1357 -0.2235 -0.2497
  676SOL    HW2 2470   5.497   1.846   2.824 -0.5061  0.0784 -0.9984
  676SOL    HW3 2471   5.404   1.920   2.918  0.7140 -0.4696  0.6860
  676SOL    MW4 2472   5.476   1.917   2.869  0.1273 -0.2162 -0.2250
  677SOL     OW 2473   1.987   1.278   1.517 -0.1197 -0.2621  0.0041
  677SOL    HW2 2474   1.904   1.296   1.563  0.2481 -0.1210  0.6310
  677SOL    HW3 2475   1.996   1.183   1.520 -0.4265 -0.3022 -0.3627
  677SOL    MW4 2476   1.977   1.268   1.524 -0.1116 -0.2488  0.0384
  678SOL     OW 2477   5.658   2.417   1.650 -0.1486  0.1698  0.1522
  678SOL    HW2 2478   5.570   2.402   1.616  0.0601  1.0132 -0.8242
  678SOL    HW3 2479   5.699   2.330   1.653 -0.4793 -0.0331 -0.9319
  678SOL    MW4 2480   5.652   2.404   1.646 -0.1647  0.2543 -0.1197
  679SOL     OW 2481   2.483   1.279   4.252  0.3779  0.0996  0.4498
  679SOL    HW2 2482   2.536   1.246   4.179  0.9834 -0.1613  1.0000
  679SOL    HW3 2483   2.473   1.372   4.234  3.2608  0.7425  1.6553
  679SOL    MW4 2484   2.489   1.287   4.240  0.8382  0.1500  0.6815
  680SOL     OW 2485   4.095   0.462   0.358  0.1283 -0.0605 -0.0907
  680SOL    HW2 2486   4.120   0.388   0.414  0.4088  0.0004 -0.1325
  680SOL    HW3 2487   4.178   0.496   0.325 -0.0732 -0.5553 -1.1481
  680SOL    MW4 2488   4.109   0.457   0.361  0.1387 -0.1177 -0.2357
  681SOL     OW 2489   4.009   3.309   3.625  0.1968  0.7378  0.4223
  681SOL    HW2 2490   4.009   3.233   3.682  0.4826  0.3601 -0.0772
  681SOL    HW3 2491   3.916   3.326   3.607  0.1642 -0.1062 -0.2699
  681SOL    MW4 2492   3.997   3.301   3.630  0.2302  0.5766  0.2650
  682SOL     OW 2493   1.878   0.420   3.774 -0.7042 -0.1186  0.0553
  682SOL    HW2 2494   1.837   0.397   3.690 -1.4007  0.2898  0.2743
  682SOL    HW3 2495   1.957   0.366   3.778 -0.5898 -0.0381 -0.9307
  682SOL    MW4 2496   1.883   0.410   3.763 -0.7810 -0.0541 -0.0459
  683SOL     OW 2497   2.577   1.488   3.149 -0.5963  0.3562  0.4736
  683SOL    HW2 2498   2.597   1.573   3.111 -1.5647  0.8524  1.0479
  683SOL    HW3 2499   2.641   1.429   3.110  0.2335  1.3831  0.2508
  683SOL    MW4 2500   2.588   1.491   3.138 -0.6146  0.5571  0.5200
  684SOL     OW 2501   3.173   3.595   3.850  0.2662  0.0159  0.0893
  684SOL    HW2 2502   3.120   3.661   3.804  0.9049  0.7822  0.4405
  684SOL    HW3 2503   3.163   3.617   3.942  2.1314  0.9038  0.1111
  684SOL    MW4 2504   3.164   3.607   3.856  0.5966  0.2342  0.1385
  685SOL     OW 2505   5.559   3.403   2.614  0.7764  0.4926  0.4224
  685SOL    HW2 2506   5.515   3.467   2.669  0.6779  1.0074 -0.2358
  685SOL    HW3 2507   5.643   3.444   2.592  1.3357 -0.2272  1.1790
  685SOL    MW4 2508   5.565   3.417   2.618  0.8372  0.4656  0.4354
  686SOL     OW 2509   5.304   1.111   5.381 -0.7170  0.2499 -0.3609
  686SOL    HW2 2510   5.211   1.089   5.382 -0.6548 -0.0080  0.3130
  686SOL    HW3 2511   5.348   1.033   5.416 -0.5273  1.5272  2.4703
  686SOL    MW4 2512   5.298   1.098   5.386 -0.6838  0.3844  0.1016
  687SOL     OW 2513   3.207   4.505   0.281  0.0653 -0.9930  0.3557
  687SOL    HW2 2514   3.182   4.413   0.284  1.4007 -1.3708  3.1568
  687SOL    HW3 2515   3.245   4.523   0.367  3.3757  1.1753 -1.3379
  687SOL    MW4 2516   3.208   4.496   0.293  0.6782 -0.7568  0.5018
  688SOL     OW 2517   4.337   3.894   5.174 -0.0849 -0.1729  0.3708
  688SOL    HW2 2518   4.275   3.925   5.108 -0.2277 -0.9890  0.1164
  688SOL    HW3 2519   4.284   3.876   5.251 -0.0471 -0.0918  0.4158
  688SOL    MW4 2520   4.322   3.896   5.175 -0.0988 -0.2699  0.3431
  689SOL     OW 2521   4.606   3.344   3.836 -0.1826  0.1832  0.2604
  689SOL    HW2 2522   4.652   3.319   3.916 -0.2490 -0.5570  0.0764
  689SOL    HW3 2523   4.644   3.289   3.768 -2.6473 -1.9559  0.4283
  689SOL    MW4 2524   4.617   3.333   3.838 -0.5166 -0.1967  0.2583
  690SOL     OW 2525   3.333   3.441   3.191  0.1184  0.4034 -0.1692
  690SOL    HW2 2526   3.378   3.480   3.267 -1.3097 -0.1484  1.0109
  690SOL    HW3 2527   3.275   3.510   3.159  1.6406  1.0736 -1.6157
  690SOL    MW4 2528   3.332   3.455   3.197  0.1308  0.4190 -0.2043
  691SOL     OW 2529   4.612   5.486   2.078  0.0306  0.5926  0.2216
  691SOL    HW2 2530   4.540   5.472   2.140 -0.7023  0.0622 -0.7191
  691SOL    HW3 2531   4.604   5.414   2.015  0.4657  1.3789 -0.7597
  691SOL    MW4 2532   4.601   5.475   2.078 -0.0087  0.6263 -0.0320
  692SOL     OW 2533   1.937   4.060   5.331 -0.3892 -0.4537 -0.2473
  692SOL    HW2 2534   1.894   4.013   5.260  0.9592  0.2049 -1.5766
  692SOL    HW3 2535   1.912   4.152   5.317  0.8876 -0.1482 -0.6712
  692SOL    MW4 2536   1.928   4.066   5.319 -0.0428 -0.3265 -0.4786
  693SOL     OW 2537   0.412   6.363   6.166 -0.5690  0.0764  0.3980
  693SOL    HW2 2538   0.361   6.428   6.117 -0.2837 -0.1711 -0.2459
  693SOL    HW3 2539   0.346   6.310   6.210 -0.7831  1.3906  1.7512
  693SOL    MW4 2540   0.396   6.364   6.165 -0.5596  0.2171  0.4916
  694SOL     OW 2541   1.689   3.276   2.415 -0.7553  0.2855  0.4615
  694SOL    HW2 2542   1.781   3.300   2.420 -0.2493 -0.8650 -2.0054
  694SOL    HW3 2543   1.689   3.185   2.386 -2.6870 -0.4912  2.6093
  694SOL    MW4 2544   1.701   3.267   2.412 -0.9434  0.0312  0.4194
  695SOL     OW 2545   2.763   6.267   3.627  0.1808  0.4408 -0.2753
  695SOL    HW2 2546   2.808   6.348   3.605  0.2835  0.1622 -1.1343
  695SOL    HW3 2547   2.810   6.234   3.704  0.2573  1.0902 -0.0356
  695SOL    MW4 2548   2.775   6.273   3.635  0.2044  0.4897 -0.3570
  696SOL     OW 2549   5.515   1.762   2.473 -0.2529  0.1945  0.0056
  696SOL    HW2 2550   5.495   1.762   2.380 -0.3225 -0.5300  0.0129
  696SOL    HW3 2551   5.569   1.839   2.487 -1.1227  0.8987 -0.4418
  696SOL    MW4 2552   5.519   1.772   2.463 -0.3769  0.1918 -0.0525
  697SOL     OW 2553   3.972   4.181   3.189  0.4580 -0.3118 -0.1917
  697SOL    HW2 2554   3.904   4.118   3.164 -1.2263  1.5695 -0.6489
  697SOL    HW3 2555   4.003   4.217   3.106  0.4819  0.3473  0.0946
  697SOL    MW4 2556   3.967   4.178   3.175  0.2389  0.0234 -0.2142
  698SOL     OW 2557   4.189   4.370   3.971 -0.3460 -0.1334  0.4511
  698SOL    HW2 2558   4.122   4.428   3.933 -0.9051 -0.2813  1.1840
  698SOL    HW3 2559   4.161   4.282   3.946  0.2097 -0.1368 -0.2036
  698SOL    MW4 2560   4.176   4.366   3.963 -0.3464 -0.1534  0.4614
  699SOL     OW 2561   0.270   0.127   1.468  0.5390 -0.0097 -0.0742
  699SOL    HW2 2562   0.270   0.033   1.488  0.0256 -0.8854 -3.5447
  699SOL    HW3 2563   0.317   0.135   1.385 -1.0996  2.4981 -0.9148
  699SOL    MW4 2564   0.276   0.116   1.460  0.2551  0.2056 -0.6430
  700SOL     OW 2565   1.222   5.873   4.637  0.1638 -0.1137 -0.1034
  700SOL    HW2 2566   1.269   5.804   4.683 -0.1706 -1.8097 -2.1590
  700SOL    HW3 2567   1.142   5.831   4.605 -1.4271  1.9597  0.8837
  700SOL    MW4 2568   1.217   5.858   4.638 -0.0902 -0.0639 -0.2444
  701SOL     OW 2569   0.387   0.079   5.688  0.6212  0.4632 -0.0217
  701SOL    HW2 2570   0.430   0.157   5.723  0.3548  1.2689 -1.4081
  701SOL    HW3 2571   0.441   0.006   5.718 -0.6286  0.8481  3.6666
  701SOL    MW4 2572   0.400   0.080   5.696  0.4212  0.6203  0.2820
  702SOL     OW 2573   3.373   2.266   2.190  0.4259  0.0735  0.7497
  702SOL    HW2 2574   3.385   2.322   2.114 -0.7751 -0.9631 -0.2595
  702SOL    HW3 2575   3.461   2.235   2.211  1.0530  1.9966  1.1065
  702SOL    MW4 2576   3.386   2.269   2.183  0.3502  0.1905  0.6636
  703SOL     OW 2577   0.507   3.673   5.243 -0.1161  0.7865 -0.1294
  703SOL    HW2 2578   0.441   3.642   5.305  0.8294  0.7945  0.9161
  703SOL    HW3 2579   0.586   3.683   5.296  0.9876 -0.1481 -1.5552
  703SOL    MW4 2580   0.508   3.670   5.258  0.1543  0.6642 -0.1796
  704SOL     OW 2581   2.289   4.326   4.958  0.1311 -0.1485 -0.2380
  704SOL    HW2 2582   2.354   4.256   4.948  0.9458  0.7741 -1.6934
  704SOL    HW3 2583   2.236   4.320   4.878 -1.1682 -0.4432  0.6116
  704SOL    MW4 2584   2.290   4.316   4.946  0.0672 -0.0657 -0.3179
  705SOL     OW 2585   0.465   4.132   2.185  0.1859 -0.6150 -0.4760
  705SOL    HW2 2586   0.411   4.132   2.107  0.0337 -0.8223 -0.3719
  705SOL    HW3 2587   0.554   4.152   2.154 -0.2910  1.9956 -0.4102
  705SOL    MW4 2588   0.470   4.135   2.171  0.1029 -0.2979 -0.4536
  706SOL     OW 2589   2.605   5.489   3.608 -0.2911  0.1824  0.3718
  706SOL    HW2 2590   2.580   5.432   3.535 -2.1227  2.7833 -1.1844
  706SOL    HW3 2591   2.523   5.510   3.651  0.2476  1.9463  0.6198
  706SOL    MW4 2592   2.591   5.484   3.604 -0.4617  0.7583  0.1992
  707SOL     OW 2593   2.225   2.955   4.897 -0.0121 -0.4115  0.3526
  707SOL    HW2 2594   2.315   2.925   4.894  0.0092 -0.3110 -0.0942
  707SOL    HW3 2595   2.203   2.957   4.990  0.4441 -0.4380  0.4605
  707SOL    MW4 2596   2.234   2.952   4.909  0.0509 -0.4017  0.3079
  708SOL     OW 2597   6.207   6.209   1.749  0.3036  0.2966 -0.1298
  708SOL    HW2 2598   6.258   6.249   1.819  0.4710 -1.9443  1.1163
  708SOL    HW3 2599   6.160   6.282   1.709  1.4575  1.8656  1.2443
  708SOL    MW4 2600   6.207   6.224   1.753  0.4779  0.2079  0.2159
  709SOL     OW 2601   3.837   1.705   6.400 -0.1085 -0.2172 -0.3279
  709SOL    HW2 2602   3.866   1.664   6.481 -2.0405  0.2115  0.6414
  709SOL    HW3 2603   3.860   1.642   6.332 -1.5787 -2.2496  0.9367
  709SOL    MW4 2604   3.844   1.692   6.402 -0.5574 -0.4288 -0.0332
  710SOL     OW 2605   2.983   1.008   6.198 -0.2741 -0.3238  0.0062
  710SOL    HW2 2606   2.982   0.935   6.259  1.8534 -0.8117 -0.4819
  710SOL    HW3 2607   3.072   1.043   6.202 -0.1185 -0.2164 -2.6130
  710SOL    MW4 2608   2.995   1.003   6.206  0.0271 -0.3740 -0.4038
  711SOL     OW 2609   5.493   3.909   5.416  0.2559 -0.6272  0.2386
  711SOL    HW2 2610   5.481   3.926   5.510 -0.9747 -0.5243  0.0915
  711SOL    HW3 2611   5.541   3.826   5.412 -1.9556 -2.0376  1.0018
  711SOL    MW4 2612   5.497   3.900   5.428 -0.1983 -0.7997  0.3199
  712SOL     OW 2613   1.935   2.734   4.337  0.1467 -0.1081 -0.4582
  712SOL    HW2 2614   1.897   2.671   4.276 -0.0213  0.9225 -1.4505
  712SOL    HW3 2615   2.028   2.733   4.317  0.1493 -0.0520 -0.4467
  712SOL    MW4 2616   1.942   2.725   4.326  0.1248  0.0353 -0.5876
  713SOL     OW 2617   4.047   1.606   1.170  0.4270  0.9581  0.9046
  713SOL    HW2 2618   3.973   1.624   1.112 -0.6378 -0.2354  1.8220
  713SOL    HW3 2619   4.122   1.602   1.112 -0.6931 -0.8769 -0.5288
  713SOL    MW4 2620   4.047   1.608   1.155  0.1387  0.5585  0.8365
  714SOL     OW 2621   0.538   5.581   2.985  0.0517 -0.2999  0.1549
  714SOL    HW2 2622   0.489   5.658   2.957  0.9519 -0.6070 -2.5935
  714SOL    HW3 2623   0.557   5.534   2.904  2.4256 -1.6545  1.3800
  714SOL    MW4 2624   0.534   5.585   2.971  0.4837 -0.5192 -0.0461
  715SOL     OW 2625   2.604   0.128   2.392  0.6251  0.0652 -0.1883
  715SOL    HW2 2626   2.675   0.117   2.456 -1.4933  0.3658  2.3878
  715SOL    HW3 2627   2.556   0.044   2.395  0.3911  0.1405 -1.3048
  715SOL    MW4 2628   2.607   0.115   2.401  0.3148  0.1148  0.0043
  716SOL     OW 2629   5.846   2.450   1.371  0.8463 -0.9059 -0.4856
  716SOL    HW2 2630   5.821   2.441   1.463  0.1444 -1.6135 -0.7302
  716SOL    HW3 2631   5.928   2.500   1.373  0.6645 -0.6227  0.4962
  716SOL    MW4 2632   5.854   2.455   1.383  0.7297 -0.9619 -0.3883
  717SOL     OW 2633   0.252   4.887   2.021  0.1323  0.0963  0.2832
  717SOL    HW2 2634   0.298   4.811   1.985  0.3051  0.2053  0.2690
  717SOL    HW3 2635   0.165   4.884   1.983  1.0054  1.5175 -2.0643
  717SOL    MW4 2636   0.247   4.877   2.011  0.2703  0.2982 -0.0284
  718SOL     OW 2637   3.970   0.575   2.068  0.3437  0.0186  0.3293
  718SOL    HW2 2638   4.028   0.595   2.142  0.5756  0.3038  0.0720
  718SOL    HW3 2639   4.024   0.592   1.990 -0.2093  0.6797  0.0801
  718SOL    MW4 2640   3.985   0.580   2.067  0.3013  0.1435  0.2625
  719SOL     OW 2641   1.626   4.021   2.403 -0.6073 -0.3426  0.1121
  719SOL    HW2 2642   1.584   3.957   2.460 -0.0209  0.3297  1.3473
  719SOL    HW3 2643   1.698   3.974   2.362 -0.6074 -0.6649  0.4773
  719SOL    MW4 2644   1.630   4.007   2.405 -0.5300 -0.2965  0.3232
  720SOL     OW 2645   5.964   1.471   3.062  0.5611 -0.0217 -0.0641
  720SOL    HW2 2646   6.011   1.482   3.144 -0.9239  0.4845  0.7549
  720SOL    HW3 2647   5.919   1.554   3.049 -0.4373 -0.6273 -0.5872
  720SOL    MW4 2648   5.964   1.483   3.071  0.2334 -0.0348 -0.0251
  721SOL     OW 2649   4.133   5.376   4.818  0.6328  0.2167 -0.4141
  721SOL    HW2 2650   4.065   5.343   4.876 -0.9778  1.5634 -1.4369
  721SOL    HW3 2651   4.215   5.358   4.863 -0.2736 -2.8118  0.1986
  721SOL    MW4 2652   4.135   5.370   4.832  0.3007 -0.0052 -0.4682
  722SOL     OW 2653   0.718   2.357   0.230 -0.2498 -0.7043  0.1880
  722SOL    HW2 2654   0.693   2.265   0.234  0.4518 -0.8700  1.1477
  722SOL    HW3 2655   0.690   2.393   0.314  0.2247 -0.2383  0.1509
  722SOL    MW4 2656   0.711   2.349   0.242 -0.0946 -0.6647  0.3097
  723SOL     OW 2657   4.596   1.208   3.419  0.4817  0.3023 -0.2319
  723SOL    HW2 2658   4.682   1.227   3.457  1.0178 -2.6302  0.3310
  723SOL    HW3 2659   4.611   1.206   3.325  0.5705  1.6602 -0.2547
  723SOL    MW4 2660   4.610   1.210   3.412  0.5642  0.0945 -0.1606
  724SOL     OW 2661   5.874   3.018   2.394  0.2266 -0.2428  0.3506
  724SOL    HW2 2662   5.843   3.021   2.485  0.7824  1.0052  0.5207
  724SOL    HW3 2663   5.797   2.992   2.344 -1.0403  2.2640  0.8159
  724SOL    MW4 2664   5.860   3.015   2.400  0.1328  0.2526  0.4344
  725SOL     OW 2665   0.558   4.667   4.631  0.0992  0.3896 -0.2681
  725SOL    HW2 2666   0.631   4.673   4.570  0.4237  1.9481  0.2466
  725SOL    HW3 2667   0.502   4.741   4.610  1.6875  2.8196  3.1243
  725SOL    MW4 2668   0.560   4.677   4.620  0.3516  0.9159  0.2474
  726SOL     OW 2669   3.179   1.043   1.711 -0.2521 -0.1911  0.3022
  726SOL    HW2 2670   3.178   0.949   1.697 -0.7833 -0.2731  0.8516
  726SOL    HW3 2671   3.272   1.066   1.711 -0.0763 -0.8627  1.0675
  726SOL    MW4 2672   3.192   1.034   1.709 -0.2990 -0.2905  0.4756
  727SOL     OW 2673   3.345   2.465   0.433 -0.7239  0.4815 -0.5872
  727SOL    HW2 2674   3.326   2.416   0.513 -1.2154  0.8340 -0.4845
  727SOL    HW3 2675   3.285   2.539   0.435 -0.4087  0.7555 -1.0468
  727SOL    MW4 2676   3.334   2.468   0.444 -0.7472  0.5642 -0.6343
  728SOL     OW 2677   3.565   0.471   5.885 -1.2797 -0.1227  0.5038
  728SOL    HW2 2678   3.622   0.505   5.817 -2.2779 -0.1008 -0.3507
  728SOL    HW3 2679   3.591   0.380   5.897 -1.5890 -0.3400 -0.4483
  728SOL    MW4 2680   3.576   0.463   5.878 -1.4522 -0.1485  0.2655
  729SOL     OW 2681   0.325   3.264   2.076 -0.1216 -0.2542 -0.0322
  729SOL    HW2 2682   0.272   3.307   2.010 -0.7951 -2.1987 -0.8442
  729SOL    HW3 2683   0.399   3.323   2.091  0.4901 -0.0900 -3.1578
  729SOL    MW4 2684   0.328   3.277   2.070 -0.1297 -0.4891 -0.5517
  730SOL     OW 2685   1.099   0.364   1.291 -0.1033 -0.2730 -0.5021
  730SOL    HW2 2686   1.038   0.293   1.269  0.8325 -0.9857 -0.8816
  730SOL    HW3 2687   1.184   0.320   1.298  0.0408  0.2791  2.3372
  730SOL    MW4 2688   1.102   0.349   1.289  0.0392 -0.2942 -0.1776
  731SOL     OW 2689   1.805   2.421   1.888 -0.1006 -0.1321 -0.1050
  731SOL    HW2 2690   1.860   2.396   1.815  0.4363  0.7372 -0.0120
  731SOL    HW3 2691   1.771   2.339   1.922 -0.1297 -0.5658 -1.1482
  731SOL    MW4 2692   1.807   2.407   1.883 -0.0336 -0.0746 -0.2304
  732SOL     OW 2693   3.454   1.175   0.493 -0.2217 -0.2915  0.1609
  732SOL    HW2 2694   3.524   1.221   0.539 -1.0288 -0.3844  1.5196
  732SOL    HW3 2695   3.480   1.178   0.401  1.9750 -1.0460  0.7077
  732SOL    MW4 2696   3.467   1.182   0.487 -0.0383 -0.4033  0.4123
  733SOL     OW 2697   3.589   4.205   0.130 -0.3124 -0.0503  0.4948
  733SOL    HW2 2698   3.555   4.116   0.142 -0.8809  0.1285  0.2032
  733SOL    HW3 2699   3.558   4.231   0.043  1.0971 -0.1314 -0.0692
  733SOL    MW4 2700   3.581   4.196   0.120 -0.2015 -0.0374  0.3819
  734SOL     OW 2701   1.970   4.298   1.599  0.3966 -0.3678 -0.1916
  734SOL    HW2 2702   1.976   4.355   1.522 -0.3111  0.8360  0.6019
  734SOL    HW3 2703   1.880   4.268   1.600  0.9224 -2.0782 -0.9569
  734SOL    MW4 2704   1.959   4.302   1.589  0.3726 -0.4346 -0.1879
  735SOL     OW 2705   3.902   1.752   1.493  0.2569 -0.4357 -0.1422
  735SOL    HW2 2706   3.989   1.752   1.455  0.4785  0.3815  0.3352
  735SOL    HW3 2707   3.903   1.680   1.556  0.3049 -0.9590 -0.7309
  735SOL    MW4 2708   3.914   1.742   1.497  0.2925 -0.3969 -0.1569
  736SOL     OW 2709   2.609   4.884   2.834  0.2005 -0.1723  0.1717
  736SOL    HW2 2710   2.682   4.828   2.808  1.2860  0.3099  2.0142
  736SOL    HW3 2711   2.633   4.916   2.921 -0.2490  3.3354 -0.8623
  736SOL    MW4 2712   2.622   4.881   2.842  0.2844  0.3541  0.2784
  737SOL     OW 2713   4.897   1.948   2.762 -0.2703  0.2076 -0.5690
  737SOL    HW2 2714   4.811   1.990   2.767 -0.5581 -0.4307 -0.0765
  737SOL    HW3 2715   4.881   1.858   2.789  0.3689 -0.1867 -1.4462
  737SOL    MW4 2716   4.884   1.942   2.766 -0.2239  0.0714 -0.6198
  738SOL     OW 2717   3.337   2.059   1.439  0.1496  0.2150 -0.4118
  738SOL    HW2 2718   3.427   2.071   1.410  0.9023 -0.6184  1.4322
  738SOL    HW3 2719   3.333   2.101   1.525 -1.1402 -0.0502 -0.3165
  738SOL    MW4 2720   3.348   2.066   1.447  0.0787  0.0701 -0.1559
  739SOL     OW 2721   6.446   2.091   0.189  0.3436  0.1270 -0.1266
  739SOL    HW2 2722   6.357   2.127   0.190 -0.0322 -0.8130  0.2482
  739SOL    HW3 2723   6.465   2.079   0.096 -0.2093 -0.3646 -0.1817
  739SOL    MW4 2724   6.437   2.094   0.177  0.2211 -0.0619 -0.0844
  740SOL     OW 2725   5.942   1.666   1.347 -0.2010  0.0135 -0.3650
  740SOL    HW2 2726   5.948   1.571   1.344 -0.6328  0.0124 -1.7862
  740SOL    HW3 2727   5.862   1.687   1.298 -0.4967  1.0720  0.5218
  740SOL    MW4 2728   5.932   1.656   1.340 -0.2970  0.1530 -0.4355
  741SOL     OW 2729   5.037   4.044   4.898 -0.2432  0.4453  0.2041
  741SOL    HW2 2730   5.006   3.955   4.912  1.7074 -0.3942 -0.3784
  741SOL    HW3 2731   4.959   4.094   4.874 -1.4058 -1.0571  0.7411
  741SOL    MW4 2732   5.023   4.039   4.896 -0.1392  0.1363  0.1981
  742SOL     OW 2733   3.722   0.998   4.593  0.1153  0.2182  0.0807
  742SOL    HW2 2734   3.807   1.038   4.576  0.8033 -0.2228  2.1776
  742SOL    HW3 2735   3.718   0.990   4.688 -1.5688 -1.2909 -0.0668
  742SOL    MW4 2736   3.733   1.002   4.603 -0.0162 -0.0391  0.3379
  743SOL     OW 2737   2.417   4.651   1.454 -0.5763  0.2050 -0.1049
  743SOL    HW2 2738   2.503   4.691   1.447 -0.5873  0.2064 -0.2350
  743SOL    HW3 2739   2.371   4.702   1.520 -0.0687 -0.5205  0.8308
  743SOL    MW4 2740   2.422   4.663   1.462 -0.5108  0.1095  0.0014
  744SOL     OW 2741   1.834   5.413   2.186  0.3001  0.0496 -0.0657
  744SOL    HW2 2742   1.778   5.486   2.213 -0.2593 -0.6331  0.6212
  744SOL    HW3 2743   1.861   5.437   2.097 -2.7384 -0.5393 -1.2888
  744SOL    MW4 2744   1.830   5.426   2.178 -0.1746 -0.1182 -0.1365
  745SOL     OW 2745   1.960   0.457   5.202 -0.6222  0.3439  0.4414
  745SOL    HW2 2746   1.876   0.501   5.187 -0.2336  0.8734 -0.1654
  745SOL    HW3 2747   1.968   0.395   5.130 -0.2012  0.7343  0.1478
  745SOL    MW4 2748   1.950   0.455   5.191 -0.5154  0.4653  0.3226
  746SOL     OW 2749   1.658   4.443   0.708 -0.1113  0.1390 -0.2203
  746SOL    HW2 2750   1.622   4.494   0.635  0.2214 -0.9981 -1.2203
  746SOL    HW3 2751   1.621   4.356   0.696  0.1739 -0.1332  0.8237
  746SOL    MW4 2752   1.649   4.438   0.696 -0.0298 -0.0469 -0.2145
  747SOL     OW 2753   2.677   0.836   4.539 -0.0416  0.4145 -0.3435
  747SOL    HW2 2754   2.610   0.772   4.561  1.6603 -2.2617 -2.3732
  747SOL    HW3 2755   2.658   0.862   4.449  0.7095  0.8514 -0.3855
  747SOL    MW4 2756   2.666   0.831   4.530  0.2821  0.1191 -0.6168
  748SOL     OW 2757   5.653   5.684   1.223 -0.0065  0.0548  0.1659
  748SOL    HW2 2758   5.747   5.700   1.227  0.2210 -1.0713 -0.0800
  748SOL    HW3 2759   5.626   5.678   1.314 -0.0954  1.6629  0.2577
  748SOL    MW4 2760   5.662   5.685   1.235  0.0118  0.1184  0.1455
  749SOL     OW 2761   0.164   1.691   4.147  0.0930 -0.3233 -0.3447
  749SOL    HW2 2762   0.212   1.610   4.133 -0.2972 -0.7511  0.7182
  749SOL    HW3 2763   0.101   1.670   4.216 -1.0941  0.4356 -1.1575
  749SOL    MW4 2764   0.162   1.678   4.154 -0.1151 -0.2796 -0.3117
  750SOL     OW 2765   1.371   4.262   6.311 -0.0021  0.0141  0.5668
  750SOL    HW2 2766   1.280   4.257   6.342  0.2653  0.2412  1.4192
  750SOL    HW3 2767   1.386   4.356   6.299  0.2093 -0.0005  0.7170
  750SOL    MW4 2768   1.361   4.274   6.314  0.0611  0.0421  0.6991
  751SOL     OW 2769   3.696   1.939   4.141  0.4979 -0.1894  0.0601
  751SOL    HW2 2770   3.784   1.914   4.171  0.1477 -0.2130  1.0793
  751SOL    HW3 2771   3.671   1.869   4.080  0.6177 -0.9301  0.8468
  751SOL    MW4 2772   3.704   1.927   4.137  0.4675 -0.2902  0.2984
  752SOL     OW 2773   3.277   4.372   3.509 -0.1930  0.0190  0.1389
  752SOL    HW2 2774   3.274   4.349   3.602  2.9889 -0.3824  0.2424
  752SOL    HW3 2775   3.329   4.303   3.469  2.2689  2.4367 -1.1137
  752SOL    MW4 2776   3.283   4.360   3.516  0.5516  0.2850 -0.0127
  753SOL     OW 2777   3.922   3.954   0.362 -0.9332  0.3228 -0.0288
  753SOL    HW2 2778   3.895   3.866   0.337 -0.7208  0.4491 -0.7109
  753SOL    HW3 2779   3.897   3.961   0.454  1.1303 -1.2796  0.7362
  753SOL    MW4 2780   3.915   3.944   0.371 -0.6329  0.1281 -0.0179
  754SOL     OW 2781   1.916   0.729   4.607  0.4499 -0.1360  0.2808
  754SOL    HW2 2782   1.974   0.678   4.664  0.9273 -0.3255 -0.3537
  754SOL    HW3 2783   1.944   0.819   4.619  0.0589 -0.0906  0.8916
  754SOL    MW4 2784   1.928   0.734   4.616  0.4613 -0.1550  0.2776
  755SOL     OW 2785   2.177   1.133   4.089  0.7434 -0.4146 -0.0177
  755SOL    HW2 2786   2.213   1.203   4.034  1.4351 -0.8237 -0.1032
  755SOL    HW3 2787   2.104   1.097   4.038 -1.0714  1.6546  0.9620
  755SOL    MW4 2788   2.172   1.137   4.075  0.5952 -0.1956  0.1003
  756SOL     OW 2789   0.113   1.148   0.160 -0.2700  0.6839 -0.6071
  756SOL    HW2 2790   0.187   1.129   0.218 -0.2684  1.5883 -0.3039
  756SOL    HW3 2791   0.152   1.194   0.086 -0.3682  0.1232 -1.0117
  756SOL    MW4 2792   0.128   1.151   0.158 -0.2827  0.7293 -0.6204
  757SOL     OW 2793   4.219   1.332   3.081  1.0324 -0.4530  0.0671
  757SOL    HW2 2794   4.277   1.266   3.042  2.7692  0.1287  1.5564
  757SOL    HW3 2795   4.276   1.385   3.135 -0.9256  0.1261  1.6693
  757SOL    MW4 2796   4.234   1.330   3.083  1.0032 -0.2998  0.4750
  758SOL     OW 2797   1.398   4.736   2.581 -0.2080  0.0433  0.1682
  758SOL    HW2 2798   1.315   4.692   2.562 -0.0654  1.4876 -5.7475
  758SOL    HW3 2799   1.465   4.675   2.550  1.0034 -0.3676  3.2587
  758SOL    MW4 2800   1.396   4.722   2.574 -0.0294  0.1797 -0.2046
  759SOL     OW 2801   1.190   3.331   3.607 -0.3576 -0.2437  0.2596
  759SOL    HW2 2802   1.255   3.270   3.642 -0.5660 -0.4764  0.2458
  759SOL    HW3 2803   1.121   3.332   3.673 -1.6007 -2.0539 -0.9261
  759SOL    MW4 2804   1.189   3.323   3.620 -0.5491 -0.5132  0.1014
  760SOL     OW 2805   2.521   3.771   2.257  0.2608  0.0012 -0.4381
  760SOL    HW2 2806   2.504   3.863   2.239 -1.5889 -0.0860  0.6354
  760SOL    HW3 2807   2.441   3.739   2.300  1.9011 -1.4053  1.7970
  760SOL    MW4 2808   2.508   3.779   2.260  0.2331 -0.1959 -0.0016
  761SOL     OW 2809   6.321   3.502   4.841  0.6620 -0.2477  0.0607
  761SOL    HW2 2810   6.290   3.571   4.900  0.2701 -0.5558  0.2231
  761SOL    HW3 2811   6.412   3.526   4.822  1.3658 -1.0254  2.1507
  761SOL    MW4 2812   6.329   3.514   4.846  0.7032 -0.3909  0.3579
  762SOL     OW 2813   4.989   0.958   5.944  0.1206 -0.3593  0.1120
  762SOL    HW2 2814   4.928   1.026   5.973 -0.9889 -0.4736 -1.7848
  762SOL    HW3 2815   5.076   0.993   5.964 -0.2060  3.0021 -3.2107
  762SOL    MW4 2816   4.992   0.972   5.950 -0.0689  0.0691 -0.5766
  763SOL     OW 2817   3.945   4.197   2.648 -0.2730  0.1379  0.3122
  763SOL    HW2 2818   3.929   4.163   2.735  0.6104 -0.6574  0.1760
  763SOL    HW3 2819   3.972   4.288   2.663  2.4126 -0.6875  1.1268
  763SOL    MW4 2820   3.947   4.205   2.661  0.1979 -0.0759  0.4017
  764SOL     OW 2821   0.521   4.584   4.923 -0.5397 -0.5594  0.0012
  764SOL    HW2 2822   0.552   4.598   4.833  1.4535 -1.6305  0.4540
  764SOL    HW3 2823   0.461   4.509   4.916 -3.0687  1.3909 -0.8559
  764SOL    MW4 2824   0.517   4.576   4.910 -0.6104 -0.4434 -0.0522
  765SOL     OW 2825   3.623   0.807   3.376  0.2108 -0.6200  0.4764
  765SOL    HW2 2826   3.627   0.899   3.348 -0.4197 -0.1538  1.8302
  765SOL    HW3 2827   3.700   0.796   3.432  1.3173 -1.4681 -1.1256
  765SOL    MW4 2828   3.634   0.818   3.380  0.2736 -0.6704  0.4437
  766SOL     OW 2829   1.558   5.540   4.328 -0.4892 -0.5855  0.1339
  766SOL    HW2 2830   1.548   5.595   4.406  2.1009  0.9662 -0.5229
  766SOL    HW3 2831   1.549   5.601   4.255 -0.0473 -1.4949 -0.7035
  766SOL    MW4 2832   1.555   5.556   4.329 -0.0891 -0.5008 -0.0633
  767SOL     OW 2833   0.919   3.298   5.334 -0.6247 -0.1598 -0.1122
  767SOL    HW2 2834   0.904   3.387   5.302 -2.8089  0.8407  3.1838
  767SOL    HW3 2835   0.852   3.245   5.291 -0.5252  0.1687 -0.6760
  767SOL    MW4 2836   0.908   3.303   5.324 -0.8998  0.0156  0.2483
  768SOL     OW 2837   2.415   3.238   5.597 -0.3509  0.0894 -0.2053
  768SOL    HW2 2838   2.452   3.322   5.622  0.7525 -0.9032  1.6922
  768SOL    HW3 2839   2.490   3.186   5.568 -1.0397 -0.2187 -1.5189
  768SOL    MW4 2840   2.430   3.242   5.597 -0.2962 -0.0822 -0.1283
  769SOL     OW 2841   4.609   2.793   0.833  0.2827  0.3918 -0.5844
  769SOL    HW2 2842   4.686   2.821   0.882  0.0369 -0.9731  0.6535
  769SOL    HW3 2843   4.644   2.764   0.749  0.8651  1.5869 -0.7802
  769SOL    MW4 2844   4.624   2.793   0.828  0.3271  0.3694 -0.4469
  770SOL     OW 2845   5.919   3.347   5.600 -0.1614 -0.0241  1.0557
  770SOL    HW2 2846   6.013   3.351   5.619 -0.0939  1.7296  0.5714
  770SOL    HW3 2847   5.877   3.360   5.685  0.1001  2.2914  0.9055
  770SOL    MW4 2848   5.926   3.349   5.614 -0.1180  0.5127  0.9720
  771SOL     OW 2849   6.163   3.888   2.370 -0.0126  0.3338  0.2994
  771SOL    HW2 2850   6.126   3.954   2.311  0.4042 -0.8706 -1.3908
  771SOL    HW3 2851   6.252   3.876   2.339 -0.5627 -2.1648 -0.5139
  771SOL    MW4 2852   6.170   3.895   2.358 -0.0302 -0.1547 -0.0309
  772SOL     OW 2853   5.315   6.196   3.674  0.4723 -1.0185 -0.0262
  772SOL    HW2 2854   5.378   6.267   3.659  2.0779 -2.1045  1.2397
  772SOL    HW3 2855   5.297   6.162   3.586  0.1636  0.5211 -0.5903
  772SOL    MW4 2856   5.321   6.201   3.660  0.6434 -0.9587  0.0664
  773SOL     OW 2857   5.289   1.033   6.361  0.5212  0.5665  0.5555
  773SOL    HW2 2858   5.277   0.955   6.306  0.1473  2.4074 -2.1928
  773SOL    HW3 2859   5.223   1.024   6.429 -0.5829 -0.7972 -0.6215
  773SOL    MW4 2860   5.279   1.022   6.362  0.3262  0.6294  0.0376
  774SOL     OW 2861   1.320   0.860   0.565  0.5395  0.3972  0.2501
  774SOL    HW2 2862   1.299   0.940   0.517  1.0204  1.2971  1.4739
  774SOL    HW3 2863   1.291   0.877   0.654  1.1094 -0.6052  0.6462
  774SOL    MW4 2864   1.314   0.873   0.570  0.6781  0.3837  0.4638
  775SOL     OW 2865   3.010   4.906   2.418 -0.2195  0.1083  0.2181
  775SOL    HW2 2866   2.981   4.854   2.493  0.1767  2.3358  2.0127
  775SOL    HW3 2867   3.028   4.993   2.454  2.2798  0.6561 -2.0394
  775SOL    MW4 2868   3.008   4.910   2.433  0.1626  0.4745  0.1570
  776SOL     OW 2869   4.373   4.508   0.251 -0.0744  0.2683  0.6403
  776SOL    HW2 2870   4.455   4.496   0.203  1.5390  0.0458  3.2563
  776SOL    HW3 2871   4.319   4.433   0.226  1.3396 -0.7087  0.3892
  776SOL    MW4 2872   4.376   4.496   0.241  0.3251  0.1101  0.9524
  777SOL     OW 2873   0.818   2.877   5.301 -0.3369  0.3747  0.0658
  777SOL    HW2 2874   0.723   2.890   5.308 -0.4864  1.4013 -2.5842
  777SOL    HW3 2875   0.828   2.788   5.267 -0.4053  0.5489 -0.4157
  777SOL    MW4 2876   0.807   2.867   5.298 -0.3656  0.5331 -0.3474
  778SOL     OW 2877   2.105   4.295   3.273 -0.9750  0.4433 -0.0277
  778SOL    HW2 2878   2.037   4.244   3.317 -1.1706  3.1285  3.1447
  778SOL    HW3 2879   2.074   4.385   3.277  2.1179  1.6084  0.2613
  778SOL    MW4 2880   2.092   4.300   3.279 -0.5927  0.9513  0.4290
  779SOL     OW 2881   2.109   4.628   2.401 -0.2975 -0.6745 -0.3164
  779SOL    HW2 2882   2.158   4.709   2.413 -2.2439  0.5700 -0.2778
  779SOL    HW3 2883   2.084   4.602   2.490 -1.8029  0.1161 -0.4771
  779SOL    MW4 2884   2.112   4.635   2.414 -0.7529 -0.4060 -0.3325
  780SOL     OW 2885   4.816   2.106   5.748 -0.4382 -0.2654 -0.3381
  780SOL    HW2 2886   4.804   2.163   5.672 -0.0516 -0.5828 -0.6439
  780SOL    HW3 2887   4.856   2.026   5.712  1.3545  0.2386  0.4123
  780SOL    MW4 2888   4.820   2.103   5.733 -0.1507 -0.2408 -0.2794
  781SOL     OW 2889   2.782   0.395   0.568  0.3692  0.2073  0.0316
  781SOL    HW2 2890   2.848   0.360   0.628  1.1577  1.9930  0.2774
  781SOL    HW3 2891   2.766   0.485   0.599 -1.0350  0.3443 -0.9642
  781SOL    MW4 2892   2.788   0.403   0.580  0.2879  0.4610 -0.0673
  782SOL     OW 2893   5.018   0.526   0.840  0.1951  0.2826 -0.0649
  782SOL    HW2 2894   5.080   0.459   0.810  0.6403  0.3815  0.6217
  782SOL    HW3 2895   5.066   0.575   0.907 -0.2579  1.0428 -0.2801
  782SOL    MW4 2896   5.033   0.524   0.845  0.1941  0.3959 -0.0027
  783SOL     OW 2897   4.821   2.889   1.039 -0.0005  0.2407 -0.2642
  783SOL    HW2 2898   4.795   2.980   1.053  0.3479  0.4701 -1.0483
  783SOL    HW3 2899   4.782   2.841   1.112 -0.5522  0.9486 -0.0860
  783SOL    MW4 2900   4.813   2.895   1.051 -0.0274  0.3644 -0.3441
  784SOL     OW 2901   5.908   3.314   2.753 -0.1990  0.4772  0.6569
  784SOL    HW2 2902   5.993   3.346   2.784 -0.8060  1.0609  1.7603
  784SOL    HW3 2903   5.910   3.220   2.772  0.2247  0.4770  0.6176
  784SOL    MW4 2904   5.919   3.306   2.759 -0.2232  0.5542  0.7973
  785SOL     OW 2905   4.426   4.932   5.992  0.5146  0.0430 -0.1536
  785SOL    HW2 2906   4.402   5.002   6.053 -3.4064 -1.3809  0.2593
  785SOL    HW3 2907   4.349   4.924   5.935  1.5136 -2.8275 -1.2416
  785SOL    MW4 2908   4.413   4.941   5.992  0.1291 -0.5236 -0.2427
  786SOL     OW 2909   0.214   1.427   5.527 -0.0294 -0.3598 -0.0715
  786SOL    HW2 2910   0.192   1.337   5.551 -1.6385  0.0795  0.2152
  786SOL    HW3 2911   0.196   1.479   5.605  1.6339  0.1368  0.0180
  786SOL    MW4 2912   0.209   1.422   5.540 -0.0222 -0.2363 -0.0219
  787SOL     OW 2913   0.252   1.744   2.431 -0.2594  0.0775  0.5430
  787SOL    HW2 2914   0.166   1.746   2.388  0.4312 -0.6241 -0.9047
  787SOL    HW3 2915   0.239   1.685   2.506 -1.0808  0.1127  0.4453
  787SOL    MW4 2916   0.239   1.737   2.435 -0.2766 -0.0104  0.3391
  788SOL     OW 2917   2.155   1.861   5.677 -0.2090 -0.1997 -0.0240
  788SOL    HW2 2918   2.133   1.937   5.730 -0.2496  0.0893 -0.4545
  788SOL    HW3 2919   2.179   1.794   5.741 -1.4818 -0.2517  0.4366
  788SOL    MW4 2920   2.155   1.862   5.693 -0.3823 -0.1684 -0.0200
  789SOL     OW 2921   5.619   1.289   0.266 -0.5218  0.4561 -0.3290
  789SOL    HW2 2922   5.707   1.266   0.297 -0.0104  2.1639 -0.4392
  789SOL    HW3 2923   5.631   1.310   0.174 -1.5485 -1.8301 -1.0603
  789SOL    MW4 2924   5.632   1.289   0.258 -0.5898  0.3798 -0.4400
  790SOL     OW 2925   3.945   0.776   4.870  0.2933  0.2515  0.7953
  790SOL    HW2 2926   3.958   0.772   4.775 -1.0275  0.4341  0.5846
  790SOL    HW3 2927   3.948   0.685   4.899  2.2048  0.2871  0.8277
  790SOL    MW4 2928   3.947   0.764   4.861  0.3712  0.2803  0.7717
  791SOL     OW 2929   1.778   3.887   2.722 -0.2005  0.0945  0.4304
  791SOL    HW2 2930   1.790   3.958   2.659 -0.3013 -0.3877 -0.1367
  791SOL    HW3 2931   1.749   3.932   2.802  1.5381  0.8765  0.6598
  791SOL    MW4 2932   1.775   3.903   2.724  0.0156  0.1341  0.3858
  792SOL     OW 2933   2.470   3.325   1.088 -0.1125  0.4812 -0.1715
  792SOL    HW2 2934   2.540   3.372   1.134  0.4659 -1.4954  1.1245
  792SOL    HW3 2935   2.399   3.319   1.152 -1.0895  1.5514 -1.1170
  792SOL    MW4 2936   2.470   3.330   1.103 -0.1651  0.3616 -0.1253
  793SOL     OW 2937   0.335   0.278   0.950  0.0465 -0.5697 -0.2593
  793SOL    HW2 2938   0.430   0.292   0.947 -0.2738  1.8929 -1.3122
  793SOL    HW3 2939   0.322   0.194   0.907  1.7530 -0.9416 -0.1178
  793SOL    MW4 2940   0.346   0.269   0.944  0.2294 -0.2939 -0.3795
  794SOL     OW 2941   2.401   0.229   3.682  0.0830  0.0093 -0.1065
  794SOL    HW2 2942   2.315   0.216   3.642 -0.3500  0.1669  0.7617
  794SOL    HW3 2943   2.399   0.174   3.760 -0.0495  1.6789  1.1039
  794SOL    MW4 2944   2.389   0.220   3.687  0.0084  0.2504  0.1677
  795SOL     OW 2945   1.566   5.798   4.867 -0.4968  0.2436  0.6800
  795SOL    HW2 2946   1.525   5.866   4.812 -0.2408  0.0224  0.2116
  795SOL    HW3 2947   1.659   5.807   4.850 -0.4292  0.0773  0.9699
  795SOL    MW4 2948   1.573   5.808   4.857 -0.4541  0.1924  0.6565
  796SOL     OW 2949   6.027   5.291   6.257  0.4341 -0.5485  0.4208
  796SOL    HW2 2950   5.933   5.281   6.273  0.4687  0.6201  1.6447
  796SOL    HW3 2951   6.036   5.293   6.162 -0.7148 -1.2169  0.2878
  796SOL    MW4 2952   6.016   5.290   6.247  0.2871 -0.4825  0.5647
  797SOL     OW 2953   0.494   2.050   4.158  0.3658 -0.0141  0.1096
  797SOL    HW2 2954   0.495   2.127   4.101  2.6816 -0.3214 -0.3491
  797SOL    HW3 2955   0.492   1.976   4.098  1.1638 -0.3333  0.4729
  797SOL    MW4 2956   0.494   2.050   4.143  0.7766 -0.0968  0.0970
  798SOL     OW 2957   3.613   5.914   0.505  0.0321  0.1824  0.3620
  798SOL    HW2 2958   3.688   5.969   0.527  0.1080  0.4855 -0.6357
  798SOL    HW3 2959   3.636   5.873   0.421  0.0406 -1.4918  1.1256
  798SOL    MW4 2960   3.626   5.916   0.497  0.0432  0.0015  0.3311
  799SOL     OW 2961   5.483   3.562   5.730  0.3744 -0.0239 -0.6352
  799SOL    HW2 2962   5.470   3.518   5.646  1.8023 -1.1969 -0.2775
  799SOL    HW3 2963   5.516   3.649   5.707 -0.6101  0.1976 -1.2944
  799SOL    MW4 2964   5.485   3.568   5.716  0.4329 -0.1494 -0.6750
  800SOL     OW 2965   0.741   4.559   5.679  0.1205  0.3760  0.4551
  800SOL    HW2 2966   0.780   4.574   5.593 -0.3502 -0.7195  0.0319
  800SOL    HW3 2967   0.773   4.472   5.705 -0.9230  0.0578  0.7151
  800SOL    MW4 2968   0.750   4.550   5.671 -0.0793  0.1895  0.4335
  801SOL     OW 2969   6.393   4.164   4.028 -0.3002 -0.1701 -0.1311
  801SOL    HW2 2970   6.454   4.099   4.062  1.3462  1.7945  0.9448
  801SOL    HW3 2971   6.447   4.218   3.970 -1.4955  0.5040 -0.6429
  801SOL    MW4 2972   6.408   4.163   4.025 -0.2407  0.1781 -0.0567
  802SOL     OW 2973   0.196   5.010   0.891  0.4620 -0.4011 -0.1049
  802SOL    HW2 2974   0.112   5.034   0.851  0.2231 -0.7909  0.1644
  802SOL    HW3 2975   0.214   5.082   0.952  0.6276 -0.0078 -0.6065
  802SOL    MW4 2976   0.187   5.023   0.893  0.4523 -0.4007 -0.1356
  803SOL     OW 2977   5.230   6.123   0.277  0.0483  0.2281  0.7162
  803SOL    HW2 2978   5.196   6.125   0.188  0.3843 -2.0582  0.4868
  803SOL    HW3 2979   5.205   6.037   0.311 -0.4116  1.1735  2.9915
  803SOL    MW4 2980   5.222   6.112   0.270  0.0319  0.0512  0.9861
  804SOL     OW 2981   4.134   4.465   2.342  0.0655  0.7291  0.4680
  804SOL    HW2 2982   4.048   4.484   2.303  0.3712 -0.1739 -0.6746
  804SOL    HW3 2983   4.131   4.510   2.427 -0.9055  2.1067 -0.2516
  804SOL    MW4 2984   4.122   4.474   2.348 -0.0223  0.7917  0.2223
  805SOL     OW 2985   3.933   0.765   4.135  0.3253 -0.0288 -0.5338
  805SOL    HW2 2986   3.883   0.782   4.214  1.4960  4.1381 -0.4752
  805SOL    HW3 2987   3.874   0.789   4.063  0.6757  0.4196 -0.6797
  805SOL    MW4 2988   3.919   0.770   4.136  0.5260  0.5801 -0.5453
  806SOL     OW 2989   5.909   6.247   3.142 -0.1897 -0.0320 -0.0010
  806SOL    HW2 2990   5.844   6.241   3.212  1.0869  0.4041  1.2730
  806SOL    HW3 2991   5.968   6.174   3.157 -0.7492 -0.8744 -1.5998
  806SOL    MW4 2992   5.908   6.237   3.153 -0.0951 -0.0856 -0.0438
  807SOL     OW 2993   2.693   5.803   3.283  0.1241  0.3163  0.1129
  807SOL    HW2 2994   2.785   5.814   3.261  0.0289 -1.3410 -1.3126
  807SOL    HW3 2995   2.647   5.857   3.219  0.0811  1.3763  1.0068
  807SOL    MW4 2996   2.699   5.812   3.272  0.1059  0.2375  0.0427
  808SOL     OW 2997   0.329   5.585   0.855 -0.0509  0.1884 -0.6319
  808SOL    HW2 2998   0.276   5.608   0.933  0.7034 -1.7096  0.4983
  808SOL    HW3 2999   0.334   5.667   0.806 -0.3739  1.5357  1.4282
  808SOL    MW4 3000   0.323   5.599   0.859  0.0060  0.1157 -0.2109
  809SOL     OW 3001   4.453   1.813   2.864 -0.3165  0.2145 -0.4853
  809SOL    HW2 3002   4.514   1.836   2.934 -1.4848 -0.5939  0.8567
  809SOL    HW3 3003   4.441   1.719   2.873 -0.3057  0.0459 -1.9723
  809SOL    MW4 3004   4.460   1.804   2.875 -0.4692  0.0856 -0.5044
  810SOL     OW 3005   5.185   0.431   2.954 -0.4464  0.2651 -0.3567
  810SOL    HW2 3006   5.131   0.358   2.986 -1.6128  0.6693 -1.3412
  810SOL    HW3 3007   5.187   0.420   2.859  0.2917  0.8938 -0.4254
  810SOL    MW4 3008   5.178   0.420   2.946 -0.5029  0.4014 -0.4957
  811SOL     OW 3009   1.380   3.103   0.811  0.3680  0.2681 -0.0224
  811SOL    HW2 3010   1.444   3.161   0.769 -0.8440  0.8035 -1.2016
  811SOL    HW3 3011   1.429   3.023   0.830  0.8606 -0.3525 -3.2664
  811SOL    MW4 3012   1.395   3.100   0.808  0.2731  0.2569 -0.6060
  812SOL     OW 3013   2.643   2.762   2.968 -0.1454  0.2501 -0.3764
  812SOL    HW2 3014   2.576   2.749   2.901 -1.4617  0.5616  0.8309
  812SOL    HW3 3015   2.607   2.829   3.025  0.7387 -0.3420  0.9167
  812SOL    MW4 3016   2.629   2.770   2.966 -0.2025  0.2131 -0.0465
  813SOL     OW 3017   3.257   5.148   4.293 -0.9976  0.5651 -0.0387
  813SOL    HW2 3018   3.220   5.169   4.379 -2.8483 -0.8215 -0.4362
  813SOL    HW3 3019   3.245   5.229   4.243  1.2015  1.8047  1.2845
  813SOL    MW4 3020   3.250   5.162   4.298 -0.9517  0.5457  0.0834
  814SOL     OW 3021   3.153   1.593   2.058  0.4134 -0.4049 -0.0688
  814SOL    HW2 3022   3.068   1.559   2.085  1.1297  0.0315  3.2151
  814SOL    HW3 3023   3.138   1.685   2.038  0.1996 -0.1352  1.2614
  814SOL    MW4 3024   3.140   1.601   2.059  0.4797 -0.3118  0.5400
  815SOL     OW 3025   4.968   0.950   3.134  0.4145  0.3788 -0.5103
  815SOL    HW2 3026   4.957   0.901   3.053  1.4775 -1.4566  0.3955
  815SOL    HW3 3027   5.033   1.018   3.112  1.7219 -0.9331 -0.9044
  815SOL    MW4 3028   4.975   0.952   3.120  0.7272 -0.0365 -0.4428
  816SOL     OW 3029   4.340   2.033   1.047 -0.5119 -0.7005  0.1764
  816SOL    HW2 3030   4.358   1.982   0.968 -1.7447  1.0570 -1.3248
  816SOL    HW3 3031   4.369   2.121   1.026  0.6861 -0.5141  2.3617
  816SOL    MW4 3032   4.346   2.038   1.034 -0.5165 -0.4440  0.2667
  817SOL     OW 3033   2.933   1.121   2.093  0.1501  0.0227  0.5378
  817SOL    HW2 3034   2.844   1.141   2.120  0.5980 -0.5799  2.5776
  817SOL    HW3 3035   2.960   1.048   2.149  1.1607 -1.3531 -1.5857
  817SOL    MW4 3036   2.925   1.114   2.104  0.3425 -0.2383  0.5267
  818SOL     OW 3037   2.294   6.236   5.469 -0.2660 -0.0065  0.0237
  818SOL    HW2 3038   2.338   6.213   5.387 -0.2979  0.5619 -0.1628
  818SOL    HW3 3039   2.306   6.160   5.526  0.9531  0.1254 -0.0250
  818SOL    MW4 3040   2.301   6.223   5.466 -0.1093  0.0859 -0.0074
  819SOL     OW 3041   2.827   5.948   0.052  0.4437 -0.7112 -0.0705
  819SOL    HW2 3042   2.832   5.877   0.116 -1.1509 -0.9666 -0.1792
  819SOL    HW3 3043   2.784   5.907  -0.024  0.6403  0.0646 -0.6088
  819SOL    MW4 3044   2.822   5.933   0.050  0.2592 -0.6425 -0.1558
  820SOL     OW 3045   0.284   3.839   0.277 -0.3286 -0.4239 -0.4682
  820SOL    HW2 3046   0.294   3.870   0.367  0.3120  1.1225 -1.0392
  820SOL    HW3 3047   0.242   3.912   0.231  0.7728 -0.5522 -1.7555
  820SOL    MW4 3048   0.280   3.853   0.283 -0.0988 -0.2368 -0.7134
  821SOL     OW 3049   1.465   3.241   3.040 -0.5742  0.2966  0.1984
  821SOL    HW2 3050   1.451   3.147   3.051  0.2688 -0.0361 -1.2702
  821SOL    HW3 3051   1.560   3.252   3.047 -0.6680  1.0336  0.3205
  821SOL    MW4 3052   1.476   3.230   3.042 -0.4753  0.3500  0.0207
  822SOL     OW 3053   1.238   1.628   4.650  0.2220  0.1861  0.4342
  822SOL    HW2 3054   1.264   1.706   4.698 -0.4340  0.1143  0.9320
  822SOL    HW3 3055   1.155   1.601   4.691  0.2832 -0.5926  0.0777
  822SOL    MW4 3056   1.231   1.634   4.662  0.1435  0.0739  0.4528
  823SOL     OW 3057   4.764   3.226   5.232 -0.2004 -0.2221 -0.1311
  823SOL    HW2 3058   4.798   3.282   5.163 -0.9468 -0.2846 -0.5588
  823SOL    HW3 3059   4.680   3.195   5.199 -1.2867  0.9404  1.3917
  823SOL    MW4 3060   4.757   3.230   5.219 -0.4422 -0.0770  0.0134
  824SOL     OW 3061   4.135   6.387   6.126 -0.2109 -0.0435  0.2966
  824SOL    HW2 3062   4.120   6.342   6.043  1.6789  0.0185 -0.1194
  824SOL    HW3 3063   4.051   6.381   6.172 -2.0594  1.8658 -2.4890
  824SOL    MW4 3064   4.122   6.380   6.121 -0.2055  0.2166 -0.1258
  825SOL     OW 3065   0.695   0.744   3.803  0.1017 -0.0551 -0.7550
  825SOL    HW2 3066   0.628   0.677   3.816  1.8332 -1.4769  1.6047
  825SOL    HW3 3067   0.739   0.718   3.721 -0.1221 -1.0251 -0.5742
  825SOL    MW4 3068   0.692   0.732   3.794  0.3006 -0.3706 -0.4198
  826SOL     OW 3069   2.512   4.800   1.782  0.6593  0.2393 -0.1867
  826SOL    HW2 3070   2.483   4.724   1.833  0.1838  0.4678 -0.1124
  826SOL    HW3 3071   2.436   4.824   1.729  1.2378 -0.1896 -1.2599
  826SOL    MW4 3072   2.498   4.793   1.781  0.6729  0.2129 -0.3185
  827SOL     OW 3073   4.152   1.767   3.963  0.3307 -0.2572  0.4218
  827SOL    HW2 3074   4.082   1.790   3.902 -0.6846 -1.5256  1.0498
  827SOL    HW3 3075   4.227   1.748   3.907 -0.5605 -1.3440 -0.4781
  827SOL    MW4 3076   4.152   1.767   3.948  0.0792 -0.5679  0.3859
  828SOL     OW 3077   3.655   0.561   5.134 -0.2831 -0.0971  0.1637
  828SOL    HW2 3078   3.616   0.476   5.113 -1.9629  0.3934  1.0324
  828SOL    HW3 3079   3.746   0.542   5.157  0.0833 -1.3029 -2.0556
  828SOL    MW4 3080   3.662   0.547   5.135 -0.4564 -0.1915 -0.0145
  829SOL     OW 3081   6.387   0.854   4.931 -0.6533 -0.4945  0.1451
  829SOL    HW2 3082   6.393   0.833   5.024 -1.6493  1.3578  0.6862
  829SOL    HW3 3083   6.333   0.933   4.928  0.7229  0.4432 -1.8814
  829SOL    MW4 3084   6.380   0.861   4.943 -0.6031 -0.1264 -0.0509
  830SOL     OW 3085   2.059   3.453   5.665 -0.5419  0.6633 -0.5856
  830SOL    HW2 3086   2.108   3.533   5.683 -0.5661  0.5114  0.2145
  830SOL    HW3 3087   2.108   3.410   5.595 -0.6387  1.4646 -1.1566
  830SOL    MW4 3088   2.072   3.458   5.658 -0.5579  0.7490 -0.5554
  831SOL     OW 3089   4.342   5.785   6.001 -0.1490 -0.1867  0.4369
  831SOL    HW2 3090   4.354   5.706   6.054  0.8267  0.2682  0.9162
  831SOL    HW3 3091   4.314   5.852   6.063 -2.1748 -0.4214 -0.1558
  831SOL    MW4 3092   4.340   5.784   6.016 -0.2875 -0.1577  0.4220
  832SOL     OW 3093   3.581   3.574   5.474  0.3000 -0.4047 -1.0079
  832SOL    HW2 3094   3.515   3.631   5.434  0.0795  1.0474  1.2063
  832SOL    HW3 3095   3.557   3.486   5.446 -1.6219  0.2433 -1.5699
  832SOL    MW4 3096   3.569   3.570   5.465  0.0173 -0.1276 -0.7899
  833SOL     OW 3097   4.585   5.638   4.692 -0.0198  0.6719 -0.3669
  833SOL    HW2 3098   4.573   5.662   4.784 -0.8579  0.0455 -0.2956
  833SOL    HW3 3099   4.669   5.676   4.668  0.6474  0.0715  0.9260
  833SOL    MW4 3100   4.594   5.646   4.701 -0.0424  0.5101 -0.1869
  834SOL     OW 3101   3.788   2.357   4.001 -0.1029  0.3504 -0.2697
  834SOL    HW2 3102   3.878   2.348   4.032 -0.0903  2.3221  0.3960
  834SOL    HW3 3103   3.777   2.451   3.987 -2.3128  0.2454  0.4393
  834SOL    MW4 3104   3.799   2.368   4.003 -0.3928  0.5967 -0.0883
  835SOL     OW 3105   1.991   1.293   0.269  0.2947  0.2057  0.0356
  835SOL    HW2 3106   2.082   1.266   0.263  0.6191  0.8514  1.7022
  835SOL    HW3 3107   1.941   1.215   0.243  1.2831  0.3749 -2.6923
  835SOL    MW4 3108   1.996   1.279   0.265  0.4679  0.3132 -0.1044
  836SOL     OW 3109   1.368   5.534   1.292  0.4124  0.0642 -0.6334
  836SOL    HW2 3110   1.332   5.492   1.369  2.5218 -0.1489  0.3150
  836SOL    HW3 3111   1.362   5.467   1.223 -0.6448 -0.0613 -0.4331
  836SOL    MW4 3112   1.363   5.519   1.293  0.5512  0.0195 -0.4818
  837SOL     OW 3113   5.873   4.288   4.846  0.2722  0.1182  0.0842
  837SOL    HW2 3114   5.962   4.321   4.842  0.2792  0.3128  1.3832
  837SOL    HW3 3115   5.828   4.331   4.773  0.8748  1.1410  0.2977
  837SOL    MW4 3116   5.879   4.298   4.836  0.3526  0.2788  0.2838
  838SOL     OW 3117   5.278   6.283   6.001  0.1338 -0.5483  0.4123
  838SOL    HW2 3118   5.294   6.285   6.096  0.6925 -1.1842  0.3430
  838SOL    HW3 3119   5.212   6.215   5.990 -1.2450  0.7222  0.5006
  838SOL    MW4 3120   5.272   6.274   6.012  0.0256 -0.4645  0.4148
  839SOL     OW 3121   0.469   4.045   1.262 -0.2401  0.8890 -0.1615
  839SOL    HW2 3122   0.405   3.997   1.314 -0.3838 -2.9853 -3.3955
  839SOL    HW3 3123   0.554   4.018   1.298 -0.3711  0.2866 -0.2880
  839SOL    MW4 3124   0.472   4.035   1.274 -0.2764  0.2984 -0.6049
  840SOL     OW 3125   5.431   3.690   0.181  0.0729 -0.2222  0.6000
  840SOL    HW2 3126   5.473   3.615   0.138 -1.7516 -0.2359 -1.2992
  840SOL    HW3 3127   5.378   3.651   0.251 -1.2294 -0.8099 -0.6692
  840SOL    MW4 3128   5.430   3.675   0.185 -0.3397 -0.3015  0.1820
  841SOL     OW 3129   4.219   5.187   5.835  0.1701 -0.2804 -0.0559
  841SOL    HW2 3130   4.260   5.259   5.788 -0.1763 -0.2463 -0.3102
  841SOL    HW3 3131   4.128   5.188   5.806  0.0665 -0.5630  0.2500
  841SOL    MW4 3132   4.212   5.196   5.825  0.1107 -0.3132 -0.0491
  842SOL     OW 3133   5.090   6.089   3.953  0.3645  0.6973  0.3238
  842SOL    HW2 3134   5.141   6.027   3.901 -2.2077 -0.8790 -0.5203
  842SOL    HW3 3135   5.117   6.175   3.921  2.2648 -0.0371 -0.2052
  842SOL    MW4 3136   5.100   6.092   3.942  0.2758  0.3924  0.1426
  843SOL     OW 3137   3.249   0.284   2.438  0.6807  0.0559 -0.2426
  843SOL    HW2 3138   3.319   0.222   2.456  0.1863  0.2751  3.0497
  843SOL    HW3 3139   3.270   0.360   2.492 -1.8337  0.3047  0.5192
  843SOL    MW4 3140   3.261   0.286   2.447  0.2837  0.1176  0.2923
  844SOL     OW 3141   4.384   6.001   2.241  0.4142  0.6178  1.0339
  844SOL    HW2 3142   4.312   5.959   2.194  0.0071  3.9577 -1.6984
  844SOL    HW3 3143   4.354   6.090   2.257  3.6332  1.9926  0.3307
  844SOL    MW4 3144   4.371   6.007   2.237  0.7852  1.2398  0.5806
  845SOL     OW 3145   1.436   1.544   3.684  0.0262 -0.8071 -0.4408
  845SOL    HW2 3146   1.379   1.592   3.744  0.8219 -0.0335 -0.2774
  845SOL    HW3 3147   1.415   1.452   3.698 -0.5053 -0.5796  0.3032
  845SOL    MW4 3148   1.426   1.539   3.694  0.0611 -0.6750 -0.3211
  846SOL     OW 3149   1.474   4.729   2.875 -0.3641 -0.3794  0.6142
  846SOL    HW2 3150   1.385   4.710   2.905 -0.6012 -1.7728 -0.8168
  846SOL    HW3 3151   1.467   4.731   2.780  0.7520  1.6883  0.5267
  846SOL    MW4 3152   1.461   4.727   2.866 -0.2481 -0.2904  0.4139
  847SOL     OW 3153   3.299   2.849   5.965 -0.0143  0.1728 -0.2605
  847SOL    HW2 3154   3.243   2.792   6.016  1.4525 -2.1632 -1.1209
  847SOL    HW3 3155   3.270   2.836   5.874  1.8912 -1.1818 -0.7388
  847SOL    MW4 3156   3.288   2.840   5.959  0.4307 -0.3141 -0.4371
  848SOL     OW 3157   4.388   2.093   5.790  0.0150 -0.4933  0.8879
  848SOL    HW2 3158   4.397   2.070   5.882  1.3197 -1.1720  0.6144
  848SOL    HW3 3159   4.444   2.031   5.744 -2.6938 -1.9884 -0.6538
  848SOL    MW4 3160   4.396   2.082   5.796 -0.1703 -0.7801  0.6484
  849SOL     OW 3161   3.460   2.724   2.128  0.1640  0.3221  0.1738
  849SOL    HW2 3162   3.531   2.689   2.181 -0.5590  1.5996  2.1444
  849SOL    HW3 3163   3.383   2.717   2.185 -0.6682  1.7005 -0.7274
  849SOL    MW4 3164   3.459   2.719   2.143 -0.0412  0.6725  0.3149
  850SOL     OW 3165   4.093   2.725  -0.005  0.1733 -0.1164  0.3446
  850SOL    HW2 3166   4.046   2.809  -0.002 -0.6625 -0.5472 -0.3577
  850SOL    HW3 3167   4.179   2.748  -0.039 -0.0814  0.4429  0.0620
  850SOL    MW4 3168   4.098   2.739  -0.009  0.0294 -0.0994  0.2147
  851SOL     OW 3169   1.259   2.710   3.188 -0.2345 -0.0959 -0.0568
  851SOL    HW2 3170   1.337   2.717   3.242  0.2016  1.9359 -0.8745
  851SOL    HW3 3171   1.189   2.690   3.249  0.6243 -0.2505  0.9058
  851SOL    MW4 3172   1.260   2.708   3.203 -0.0637  0.1518 -0.0377
  852SOL     OW 3173   1.723   5.658   2.653  0.2795  0.1995  0.4143
  852SOL    HW2 3174   1.649   5.682   2.598  0.8897  2.4426  0.4845
  852SOL    HW3 3175   1.758   5.579   2.613 -1.7620 -0.5677  0.0321
  852SOL    MW4 3176   1.718   5.651   2.641  0.0907  0.3942  0.3731
  853SOL     OW 3177   3.509   3.927   3.505  0.3540 -0.0170  0.1560
  853SOL    HW2 3178   3.508   3.988   3.579  0.5441 -0.7010  0.7372
  853SOL    HW3 3179   3.455   3.853   3.535  0.7909 -0.4891 -0.2222
  853SOL    MW4 3180   3.502   3.925   3.519  0.4367 -0.1695  0.1828
  854SOL     OW 3181   1.073   3.967   4.017  0.0621 -0.4915  0.3295
  854SOL    HW2 3182   1.143   3.967   4.082  0.3193  1.4468  0.1063
  854SOL    HW3 3183   1.076   3.879   3.979  2.5054 -0.4340  0.2064
  854SOL    MW4 3184   1.083   3.955   4.020  0.4184 -0.2282  0.2838
  855SOL     OW 3185   3.897   5.203   0.703 -0.4726  0.6975 -0.0683
  855SOL    HW2 3186   3.942   5.137   0.650  1.0854  2.4375 -1.0269
  855SOL    HW3 3187   3.847   5.152   0.767  0.7430 -1.4077 -0.6938
  855SOL    MW4 3188   3.897   5.187   0.705 -0.1067  0.6493 -0.2773
  856SOL     OW 3189   3.866   5.470   1.586  0.0057 -0.1332 -0.4152
  856SOL    HW2 3190   3.892   5.379   1.567 -0.8364 -0.6390  0.7270
  856SOL    HW3 3191   3.774   5.463   1.611 -0.0712  1.0604 -0.3513
  856SOL    MW4 3192   3.857   5.457   1.587 -0.1156 -0.0425 -0.2561
  857SOL     OW 3193   3.104   1.452   0.146  0.5265 -0.2373  0.0326
  857SOL    HW2 3194   3.140   1.460   0.234  1.4344 -0.4929 -0.3012
  857SOL    HW3 3195   3.033   1.388   0.155 -0.2704  0.7266  0.8146
  857SOL    MW4 3196   3.099   1.445   0.159  0.5412 -0.1438  0.0917
  858SOL     OW 3197   1.426   4.755   0.740  0.3506 -0.4886 -0.4194
  858SOL    HW2 3198   1.397   4.688   0.802  1.6363  0.4157  1.2626
  858SOL    HW3 3199   1.487   4.709   0.682  0.2442 -1.0368 -0.1070
  858SOL    MW4 3200   1.430   4.740   0.740  0.5062 -0.4416 -0.1563
  859SOL     OW 3201   3.830   5.962   1.212 -0.0135  0.0151 -0.7184
  859SOL    HW2 3202   3.779   5.932   1.137 -1.2446  0.0604  0.0588
  859SOL    HW3 3203   3.886   5.888   1.235 -0.0590 -0.2055 -1.3197
  859SOL    MW4 3204   3.830   5.948   1.205 -0.1819 -0.0080 -0.6952
  860SOL     OW 3205   2.553   1.823   4.526 -0.4030 -0.2438 -0.5856
  860SOL    HW2 3206   2.470   1.812   4.574  0.0304 -0.8127  0.0601
  860SOL    HW3 3207   2.560   1.743   4.474  0.0949 -0.5521 -0.0631
  860SOL    MW4 3208   2.543   1.811   4.526 -0.2801 -0.3595 -0.4315
  861SOL     OW 3209   5.687   4.994   4.836  0.0990  0.7121  0.1236
  861SOL    HW2 3210   5.661   5.046   4.913 -0.7207 -0.8427  0.9440
  861SOL    HW3 3211   5.606   4.982   4.787  0.4373  0.8587 -0.4747
  861SOL    MW4 3212   5.673   4.999   4.840  0.0355  0.5263  0.1529
  862SOL     OW 3213   0.435   2.264   6.336  0.0463 -0.2593  0.5112
  862SOL    HW2 3214   0.468   2.353   6.320  1.2932 -0.8218 -0.2506
  862SOL    HW3 3215   0.409   2.265   6.428 -0.1699  0.9552  0.4591
  862SOL    MW4 3216   0.436   2.276   6.346  0.1823 -0.1732  0.4038
  863SOL     OW 3217   3.187   6.134   3.909 -0.3094 -0.3412 -0.2872
  863SOL    HW2 3218   3.259   6.084   3.945 -0.8438 -1.4681 -0.7189
  863SOL    HW3 3219   3.216   6.225   3.911  1.5225 -0.8555 -1.3709
  863SOL    MW4 3220   3.200   6.139   3.914 -0.1382 -0.5578 -0.4872
  864SOL     OW 3221   5.565   3.127   2.702 -0.6217 -0.1561  0.1480
  864SOL    HW2 3222   5.574   3.219   2.676  0.3912 -0.0348  0.8476
  864SOL    HW3 3223   5.540   3.131   2.794 -0.2048 -0.5754  0.2814
  864SOL    MW4 3224   5.563   3.140   2.711 -0.4330 -0.1954  0.2579
  865SOL     OW 3225   4.484   3.872   0.915  0.4072  0.0034 -0.3670
  865SOL    HW2 3226   4.483   3.780   0.886 -0.9563 -0.0802 -0.0963
  865SOL    HW3 3227   4.510   3.921   0.838  0.7861 -0.5775 -0.6198
  865SOL    MW4 3228   4.488   3.866   0.901  0.2773 -0.0843 -0.3646
  866SOL     OW 3229   5.692   5.216   2.971 -0.3267  0.2579 -0.5512
  866SOL    HW2 3230   5.664   5.308   2.966  1.9691  1.1215  0.8006
  866SOL    HW3 3231   5.706   5.190   2.880 -0.0894  1.6001 -0.9247
  866SOL    MW4 3232   5.690   5.225   2.959  0.0075  0.5489 -0.4221
  867SOL     OW 3233   1.970   6.366   4.137  0.0561 -0.4139 -0.3636
  867SOL    HW2 3234   2.004   6.388   4.223  0.4681 -1.1929 -0.3196
  867SOL    HW3 3235   2.011   6.282   4.115 -0.5907 -0.5771 -1.0057
  867SOL    MW4 3236   1.980   6.358   4.146  0.0251 -0.5382 -0.4425
  868SOL     OW 3237   6.169   3.378   4.644 -0.3342 -0.0514  0.0169
  868SOL    HW2 3238   6.225   3.416   4.712  0.7133 -0.1752 -0.7492
  868SOL    HW3 3239   6.186   3.431   4.566 -1.8390  0.3612 -0.0730
  868SOL    MW4 3240   6.179   3.390   4.642 -0.3946 -0.0133 -0.0960
  869SOL     OW 3241   5.223   1.688   3.739  0.5430  0.0607  0.2802
  869SOL    HW2 3242   5.274   1.745   3.796 -0.3455 -0.8962  2.1010
  869SOL    HW3 3243   5.153   1.744   3.705 -0.8949 -0.0714  2.8117
  869SOL    MW4 3244   5.221   1.703   3.742  0.2361 -0.0830  0.8544
  870SOL     OW 3245   5.584   0.977   3.545  0.3715  0.1631  0.4435
  870SOL    HW2 3246   5.496   0.940   3.539  0.1947  0.8018 -1.2442
  870SOL    HW3 3247   5.579   1.038   3.619 -0.4898 -0.0875  0.6014
  870SOL    MW4 3248   5.572   0.980   3.554  0.2346  0.2143  0.2417
  871SOL     OW 3249   1.917   3.151   6.243 -0.0503 -0.4343 -0.2057
  871SOL    HW2 3250   1.856   3.149   6.169 -1.1868  0.7317  0.6599
  871SOL    HW3 3251   1.885   3.085   6.303  2.0063 -2.8081 -1.5140
  871SOL    MW4 3252   1.905   3.142   6.241  0.0711 -0.5936 -0.2641
  872SOL     OW 3253   2.785   3.871   0.318  0.4927  0.1225  0.2408
  872SOL    HW2 3254   2.844   3.878   0.393  1.3022  1.4103 -0.4923
  872SOL    HW3 3255   2.704   3.912   0.347  0.3529 -0.5392  0.8252
  872SOL    MW4 3256   2.782   3.877   0.331  0.5811  0.2051  0.2212
  873SOL     OW 3257   4.531   0.220   5.132  0.0945 -0.1387 -0.4260
  873SOL    HW2 3258   4.530   0.155   5.202 -0.6289  0.7173  0.4013
  873SOL    HW3 3259   4.609   0.200   5.081  1.3443 -0.0425  1.3557
  873SOL    MW4 3260   4.541   0.209   5.134  0.1640 -0.0131 -0.0818
  874SOL     OW 3261   0.770   3.514   3.170 -0.2212  0.8710  0.3721
  874SOL    HW2 3262   0.851   3.515   3.120  1.0299  0.5908  2.2758
  874SOL    HW3 3263   0.733   3.601   3.157  0.0620  0.7998 -1.0001
  874SOL    MW4 3264   0.776   3.526   3.162 -0.0188  0.8247  0.4422
  875SOL     OW 3265   3.731   3.291   0.100 -0.2469  0.8663  0.3867
  875SOL    HW2 3266   3.656   3.292   0.040  0.1013 -0.9846 -0.1479
  875SOL    HW3 3267   3.757   3.383   0.108 -1.1014  1.2902 -1.3018
  875SOL    MW4 3268   3.725   3.304   0.093 -0.3137  0.6780  0.0934
  876SOL     OW 3269   2.868   1.936   0.780  0.1842  0.4938  0.1019
  876SOL    HW2 3270   2.820   1.862   0.743  0.6465  0.2011  0.0838
  876SOL    HW3 3271   2.870   2.001   0.710 -0.9596  0.8746  0.3965
  876SOL    MW4 3272   2.862   1.935   0.766  0.0943  0.5054  0.1384
  877SOL     OW 3273   3.590   1.213   1.265  0.0060 -0.2540 -0.1475
  877SOL    HW2 3274   3.592   1.158   1.343 -0.0115  1.3073  0.9948
  877SOL    HW3 3275   3.675   1.197   1.223 -0.6901 -2.4641 -0.8370
  877SOL    MW4 3276   3.602   1.204   1.270 -0.0881 -0.3396 -0.0877
  878SOL     OW 3277   1.348   2.760   1.749 -0.4358  0.4821 -0.2402
  878SOL    HW2 3278   1.292   2.706   1.693 -0.4134  1.9652 -1.7491
  878SOL    HW3 3279   1.422   2.703   1.770 -0.4089 -0.0861 -1.7886
  878SOL    MW4 3280   1.350   2.745   1.745 -0.4293  0.6028 -0.6436
  879SOL     OW 3281   1.450   5.949   3.783 -0.0737 -0.5035 -0.0305
  879SOL    HW2 3282   1.384   6.014   3.806 -0.0263 -0.4489 -0.0511
  879SOL    HW3 3283   1.406   5.865   3.799 -0.9273 -0.5158 -2.1031
  879SOL    MW4 3284   1.435   5.946   3.788 -0.1801 -0.4979 -0.3067
  880SOL     OW 3285   2.866   3.511   4.248  0.1471 -0.2004 -0.7035
  880SOL    HW2 3286   2.834   3.601   4.251  2.2091  0.5965 -0.1946
  880SOL    HW3 3287   2.830   3.474   4.168 -1.6866  0.6793 -0.3207
  880SOL    MW4 3288   2.857   3.518   4.238  0.1772  0.0208 -0.5859
  881SOL     OW 3289   4.509   3.140   2.070  0.5998  0.4058  0.1078
  881SOL    HW2 3290   4.476   3.190   1.996 -2.0718 -2.4826 -0.8611
  881SOL    HW3 3291   4.452   3.163   2.143  0.6180  0.2126  0.1835
  881SOL    MW4 3292   4.497   3.150   2.070  0.2497 -0.0008 -0.0101
  882SOL     OW 3293   2.777   4.262   3.208  0.0366  0.1053  0.0366
  882SOL    HW2 3294   2.708   4.213   3.164 -1.6696  1.9883  0.4437
  882SOL    HW3 3295   2.802   4.331   3.146  0.9612 -0.0264  0.2346
  882SOL    MW4 3296   2.772   4.265   3.194 -0.0666  0.3363  0.1165
  883SOL     OW 3297   4.219   5.790   0.549  0.8901 -0.2498  0.3679
  883SOL    HW2 3298   4.238   5.834   0.631  3.2932  0.7379 -0.6153
  883SOL    HW3 3299   4.236   5.697   0.567  2.1330  0.0459  0.8318
  883SOL    MW4 3300   4.224   5.784   0.562  1.3711 -0.0804  0.2994
  884SOL     OW 3301   0.805   4.271   3.786 -0.4076  0.5344  0.0345
  884SOL    HW2 3302   0.758   4.266   3.702 -0.5554 -0.3463  0.1617
  884SOL    HW3 3303   0.871   4.202   3.780 -1.0376 -0.1782  1.0151
  884SOL    MW4 3304   0.808   4.261   3.774 -0.5102  0.3242  0.1807
  885SOL     OW 3305   0.932   2.356   1.727 -0.1051 -0.0844  0.3852
  885SOL    HW2 3306   0.964   2.410   1.800 -0.0703 -1.0105  1.0774
  885SOL    HW3 3307   0.995   2.283   1.723 -1.3861 -1.2635  0.9392
  885SOL    MW4 3308   0.945   2.353   1.736 -0.2695 -0.3622  0.5496
  886SOL     OW 3309   5.379   0.856   5.149  0.2051  0.2115 -0.2316
  886SOL    HW2 3310   5.398   0.763   5.137 -0.9939  0.1070 -1.5017
  886SOL    HW3 3311   5.458   0.891   5.192  1.0305 -1.2104 -0.5281
  886SOL    MW4 3312   5.392   0.848   5.153  0.1558  0.0101 -0.4383
  887SOL     OW 3313   2.662   6.287   3.173 -0.5421  0.0058  0.3037
  887SOL    HW2 3314   2.661   6.229   3.097 -1.1165  1.5490 -0.9274
  887SOL    HW3 3315   2.740   6.341   3.161 -1.6560  1.5874 -0.3109
  887SOL    MW4 3316   2.672   6.287   3.161 -0.7649  0.4181  0.0601
  888SOL     OW 3317   4.936   0.386   6.294  0.0853 -0.2436 -0.0439
  888SOL    HW2 3318   5.015   0.439   6.295 -0.3112  0.3490  0.5638
  888SOL    HW3 3319   4.920   0.364   6.386  0.5761 -1.9460 -0.3200
  888SOL    MW4 3320   4.944   0.390   6.306  0.0977 -0.3900 -0.0001
  889SOL     OW 3321   2.764   5.884   5.143  0.0913 -0.7642 -0.1818
  889SOL    HW2 3322   2.723   5.970   5.151  3.0103  0.8899 -1.1436
  889SOL    HW3 3323   2.699   5.831   5.097 -1.6611  1.0346  0.0565
  889SOL    MW4 3324   2.750   5.888   5.138  0.2452 -0.3086 -0.2773
  890SOL     OW 3325   2.901   4.425   3.010 -0.1640  0.0566 -0.2676
  890SOL    HW2 3326   2.929   4.367   2.940 -0.1265  0.4249 -0.5617
  890SOL    HW3 3327   2.982   4.461   3.046 -0.1554 -0.5259  0.3112
  890SOL    MW4 3328   2.915   4.422   3.005 -0.1579  0.0283 -0.2300
  891SOL     OW 3329   4.351   1.801   5.869  0.5451  0.5263 -0.2666
  891SOL    HW2 3330   4.281   1.839   5.815 -0.9760 -0.2120  1.0918
  891SOL    HW3 3331   4.374   1.870   5.931 -0.7552 -0.0231  0.8674
  891SOL    MW4 3332   4.345   1.815   5.870  0.1728  0.3564  0.0623
  892SOL     OW 3333   1.973   5.246   2.362  0.1095  0.1879 -0.1151
  892SOL    HW2 3334   1.946   5.307   2.293  1.0820 -0.6940 -1.3272
  892SOL    HW3 3335   2.068   5.255   2.365  0.1169 -0.1209  0.8078
  892SOL    MW4 3336   1.982   5.255   2.353  0.2388  0.0308 -0.1533
  893SOL     OW 3337   4.615   1.516   0.159  0.0207 -0.0525  0.2607
  893SOL    HW2 3338   4.658   1.483   0.081  0.6494  0.5761  0.3278
  893SOL    HW3 3339   4.553   1.581   0.126  1.4711  1.4538  0.3618
  893SOL    MW4 3340   4.613   1.521   0.145  0.2950  0.2292  0.2829
  894SOL     OW 3341   0.864   0.345   2.161  0.5621 -0.2318 -0.0080
  894SOL    HW2 3342   0.880   0.439   2.171 -0.4902  0.2964 -2.4874
  894SOL    HW3 3343   0.799   0.324   2.228 -0.5270  1.2386 -0.5583
  894SOL    MW4 3344   0.857   0.355   2.171  0.2795  0.0319 -0.4077
  895SOL     OW 3345   2.886   2.988   5.180  0.1513  0.5927 -0.0048
  895SOL    HW2 3346   2.827   3.010   5.108  0.5184  1.3896 -0.0795
  895SOL    HW3 3347   2.851   2.907   5.216  0.7245 -0.5712 -1.9210
  895SOL    MW4 3348   2.873   2.980   5.175  0.2754  0.5443 -0.2674
  896SOL     OW 3349   5.861   0.361   1.230 -0.3049 -0.0489 -0.1220
  896SOL    HW2 3350   5.847   0.365   1.324  0.0243  0.7813 -0.0932
  896SOL    HW3 3351   5.954   0.338   1.220 -0.4209 -0.4725 -0.2492
  896SOL    MW4 3352   5.872   0.359   1.241 -0.2768  0.0048 -0.1350
  897SOL     OW 3353   2.569   3.778   0.648 -0.3758 -0.2873  0.3331
  897SOL    HW2 3354   2.573   3.828   0.566 -0.9542  1.2097  1.1829
  897SOL    HW3 3355   2.660   3.757   0.668 -0.0377  1.0502  0.2997
  897SOL    MW4 3356   2.581   3.781   0.640 -0.4075  0.0867  0.4408
  898SOL     OW 3357   5.589   5.751   4.504  0.1669 -0.5237  0.5794
  898SOL    HW2 3358   5.535   5.702   4.566 -0.4613  1.5077  1.6980
  898SOL    HW3 3359   5.544   5.835   4.494  0.6833 -0.4793 -2.0322
  898SOL    MW4 3360   5.576   5.755   4.511  0.1521 -0.2498  0.3824
  899SOL     OW 3361   2.266   1.713   3.373  0.2042 -0.1059 -0.4882
  899SOL    HW2 3362   2.273   1.775   3.445 -2.2151 -2.3110  1.9157
  899SOL    HW3 3363   2.351   1.670   3.369  0.5832  0.5033  0.6560
  899SOL    MW4 3364   2.278   1.716   3.382 -0.0650 -0.3164 -0.0201
  900SOL     OW 3365   3.177   1.851   0.683 -0.7785 -0.0715  0.5137
  900SOL    HW2 3366   3.130   1.845   0.600 -2.1938 -1.0558  1.3188
  900SOL    HW3 3367   3.173   1.762   0.718  3.1243 -0.6058 -0.0400
  900SOL    MW4 3368   3.170   1.839   0.677 -0.4503 -0.2718  0.5469
  901SOL     OW 3369   4.120   2.635   2.573  0.7818  0.7852  0.9026
  901SOL    HW2 3370   4.176   2.688   2.517  0.7141  0.1879  0.2660
  901SOL    HW3 3371   4.139   2.666   2.662  2.3008  0.4149  0.7241
  901SOL    MW4 3372   4.130   2.646   2.577  0.9733  0.6575  0.7951
  902SOL     OW 3373   4.095   3.900   1.235 -0.0347 -0.3813 -0.3439
  902SOL    HW2 3374   4.050   3.973   1.276  0.6140  0.4481 -1.0760
  902SOL    HW3 3375   4.148   3.862   1.306  1.1693  1.1093 -0.3789
  902SOL    MW4 3376   4.096   3.904   1.250  0.2098 -0.0752 -0.4451
  903SOL     OW 3377   1.592   3.155   4.050  0.0262  0.0013  0.3102
  903SOL    HW2 3378   1.561   3.236   4.091  0.3102 -0.5568  1.6699
  903SOL    HW3 3379   1.654   3.184   3.983  0.8983  0.8753  1.4609
  903SOL    MW4 3380   1.596   3.170   4.046  0.1787  0.0430  0.6414
  904SOL     OW 3381   0.484   1.053   5.946  0.8505  0.1889 -0.0436
  904SOL    HW2 3382   0.546   1.101   6.001  0.1270  0.7258  0.3196
  904SOL    HW3 3383   0.475   0.968   5.988  1.4651  0.0390 -0.1971
  904SOL    MW4 3384   0.491   1.048   5.959  0.8361  0.2399 -0.0159
  905SOL     OW 3385   6.367   2.479   5.197  0.4220  0.6951 -0.2299
  905SOL    HW2 3386   6.349   2.467   5.104 -0.1440  0.7683 -0.1378
  905SOL    HW3 3387   6.347   2.394   5.237 -2.1487  1.4166  0.2134
  905SOL    MW4 3388   6.362   2.466   5.190  0.0081  0.7999 -0.1593
  906SOL     OW 3389   4.420   1.821   2.271 -0.1405 -0.0780  0.3562
  906SOL    HW2 3390   4.427   1.820   2.366  2.9450  1.9902  0.2995
  906SOL    HW3 3391   4.441   1.731   2.244  0.6189 -0.3010  1.6068
  906SOL    MW4 3392   4.424   1.809   2.280  0.3668  0.1655  0.5137
  907SOL     OW 3393   4.027   4.594   3.875  0.1908 -0.3521  0.2960
  907SOL    HW2 3394   3.972   4.617   3.950 -1.1700 -0.0960 -0.7513
  907SOL    HW3 3395   4.091   4.665   3.868 -0.7752  0.5102  0.1685
  907SOL    MW4 3396   4.028   4.606   3.884 -0.1162 -0.2045  0.1410
  908SOL     OW 3397   5.797   6.355   0.221  0.1962  0.4211  0.7011
  908SOL    HW2 3398   5.711   6.314   0.227  0.2383  0.4057  1.2136
  908SOL    HW3 3399   5.857   6.290   0.258  0.7161 -0.3948 -1.3857
  908SOL    MW4 3400   5.794   6.341   0.227  0.2703  0.3114  0.4934
  909SOL     OW 3401   5.970   1.420   2.296 -0.0286 -0.0614 -0.3924
  909SOL    HW2 3402   5.972   1.409   2.201  3.7317 -0.4760 -0.4411
  909SOL    HW3 3403   5.940   1.510   2.309 -0.2106  0.1418 -1.9877
  909SOL    MW4 3404   5.966   1.430   2.285  0.4435 -0.0893 -0.6093
  910SOL     OW 3405   0.157   5.654   4.916 -0.2567 -0.0208  0.0767
  910SOL    HW2 3406   0.126   5.731   4.868 -0.1484 -1.4603 -2.4311
  910SOL    HW3 3407   0.214   5.690   4.984  0.3146  2.0948 -1.4227
  910SOL    MW4 3408   0.160   5.669   4.919 -0.1670  0.0684 -0.4520
  911SOL     OW 3409   4.141   2.030   1.356 -0.1032 -0.6566  0.4648
  911SOL    HW2 3410   4.092   1.992   1.282 -0.1058 -1.2606  0.7767
  911SOL    HW3 3411   4.163   1.956   1.411 -1.1450 -0.0878  1.7075
  911SOL    MW4 3412   4.137   2.016   1.353 -0.2410 -0.6613  0.6699
  912SOL     OW 3413   1.295   2.740   4.486  0.6143 -0.2099 -0.0716
  912SOL    HW2 3414   1.328   2.748   4.576  1.0565  0.2276 -0.2672
  912SOL    HW3 3415   1.361   2.783   4.433  0.2550 -0.2945 -0.5917
  912SOL    MW4 3416   1.308   2.747   4.491  0.6252 -0.1633 -0.1660
  913SOL     OW 3417   1.102   6.002   2.503  0.1232 -0.0883  0.0730
  913SOL    HW2 3418   1.077   5.966   2.418  1.4944  2.1136 -1.3445
  913SOL    HW3 3419   1.192   5.972   2.517  0.1690  0.1864  0.3893
  913SOL    MW4 3420   1.110   5.993   2.494  0.3101  0.2385 -0.0723
  914SOL     OW 3421   1.530   4.350   5.176 -0.5785 -0.2470  1.0002
  914SOL    HW2 3422   1.440   4.383   5.178 -0.7456 -0.7137  2.4224
  914SOL    HW3 3423   1.585   4.427   5.189 -0.6458  0.3301 -1.7523
  914SOL    MW4 3424   1.525   4.364   5.178 -0.6094 -0.2324  0.8247
  915SOL     OW 3425   4.156   5.004   3.547 -0.3310 -0.3304  0.6959
  915SOL    HW2 3426   4.241   5.045   3.564 -0.1573  0.4944 -1.7496
  915SOL    HW3 3427   4.135   5.030   3.458 -1.2869 -3.8274 -0.2333
  915SOL    MW4 3428   4.165   5.013   3.538 -0.4342 -0.6830  0.2506
  916SOL     OW 3429   2.016   1.586   1.421 -0.2071  0.2337  0.3812
  916SOL    HW2 3430   2.036   1.495   1.398  3.6824  0.8960  0.4715
  916SOL    HW3 3431   2.041   1.594   1.514  0.4430  1.5700  0.1257
  916SOL    MW4 3432   2.022   1.575   1.431  0.3919  0.4974  0.3594
  917SOL     OW 3433   3.530   3.196   1.938 -0.2634 -0.4457 -0.4964
  917SOL    HW2 3434   3.542   3.253   1.862 -0.6895  0.6456  0.2298
  917SOL    HW3 3435   3.489   3.253   2.004  0.2595 -1.3262  0.6092
  917SOL    MW4 3436   3.526   3.211   1.936 -0.2506 -0.4179 -0.2547
  918SOL     OW 3437   2.680   5.850   0.386 -0.5223 -0.2645 -0.3164
  918SOL    HW2 3438   2.713   5.871   0.473 -0.6745  0.1214 -0.3500
  918SOL    HW3 3439   2.758   5.822   0.337  0.3692  3.3808 -1.2563
  918SOL    MW4 3440   2.695   5.849   0.391 -0.4248  0.2673 -0.4448
  919SOL     OW 3441   6.381   4.374  -0.001 -0.0018 -0.5225  0.5073
  919SOL    HW2 3442   6.449   4.377   0.067  0.5487  2.0753 -0.0190
  919SOL    HW3 3443   6.309   4.426   0.035  0.3450  0.9920 -0.8752
  919SOL    MW4 3444   6.381   4.381   0.013  0.1166  0.0201  0.2555
  920SOL     OW 3445   4.727   0.868   0.282  0.1478 -0.5080  0.3643
  920SOL    HW2 3446   4.681   0.880   0.199  2.4830 -1.5162 -1.1749
  920SOL    HW3 3447   4.780   0.947   0.292  0.7084 -0.8723  0.3128
  920SOL    MW4 3448   4.727   0.880   0.273  0.5298 -0.6891  0.1545
  921SOL     OW 3449   5.381   5.020   2.747  0.1438  0.0819  0.0312
  921SOL    HW2 3450   5.285   5.016   2.751  0.1875 -2.0128  0.5124
  921SOL    HW3 3451   5.403   4.974   2.665  0.7168  2.3359 -1.1455
  921SOL    MW4 3452   5.371   5.013   2.737  0.2252  0.1030 -0.0606
  922SOL     OW 3453   2.330   1.421   5.065 -0.0702  0.5097  0.3039
  922SOL    HW2 3454   2.296   1.413   5.154 -1.9513  0.2790 -0.3922
  922SOL    HW3 3455   2.339   1.516   5.051 -1.5856  0.6498  0.1228
  922SOL    MW4 3456   2.327   1.433   5.075 -0.5183  0.4977  0.1882
  923SOL     OW 3457   2.075   5.691   1.179 -0.2863  0.2805 -0.0350
  923SOL    HW2 3458   2.090   5.671   1.271  1.5574  2.9281  0.3481
  923SOL    HW3 3459   1.999   5.750   1.179  0.5482  1.3857 -0.0166
  923SOL    MW4 3460   2.067   5.696   1.191  0.0671  0.7756  0.0180
  924SOL     OW 3461   0.526   0.217   3.029  0.1088 -0.5159  0.1007
  924SOL    HW2 3462   0.544   0.302   3.071  0.0230 -0.1323 -0.6282
  924SOL    HW3 3463   0.515   0.238   2.936 -1.5321 -1.0901  0.1332
  924SOL    MW4 3464   0.527   0.231   3.022 -0.1190 -0.5410  0.0088
  925SOL     OW 3465   1.099   0.582   5.480 -0.0707  0.5595 -0.0337
  925SOL    HW2 3466   1.059   0.527   5.413 -0.2228 -0.1374  0.6049
  925SOL    HW3 3467   1.191   0.589   5.455  0.2245 -1.0306  0.5237
  925SOL    MW4 3468   1.106   0.576   5.468 -0.0518  0.2578  0.1241
  926SOL     OW 3469   2.702   4.546   3.548  0.5893 -0.6506 -0.4998
  926SOL    HW2 3470   2.775   4.489   3.523  0.3194 -1.0943 -0.2946
  926SOL    HW3 3471   2.707   4.620   3.488  2.1658  0.1159  0.5023
  926SOL    MW4 3472   2.712   4.548   3.537  0.7617 -0.6080 -0.3405
  927SOL     OW 3473   6.442   3.249   5.653  0.2781  0.2353  0.2536
  927SOL    HW2 3474   6.451   3.250   5.748 -3.4667 -0.2238  0.7744
  927SOL    HW3 3475   6.494   3.323   5.623  2.1855 -0.0669  2.5256
  927SOL    MW4 3476   6.450   3.259   5.662  0.0357  0.1349  0.6221
  928SOL     OW 3477   4.130   5.090   1.207  0.1631 -0.1182  0.1628
  928SOL    HW2 3478   4.164   5.005   1.178 -1.4390 -0.4482 -0.9099
  928SOL    HW3 3479   4.108   5.136   1.125  1.6248  1.6258  0.6963
  928SOL    MW4 3480   4.131   5.085   1.192  0.1446  0.0683  0.0916
  929SOL     OW 3481   4.218   0.037   0.076 -0.2956  0.0148 -0.0206
  929SOL    HW2 3482   4.221  -0.009   0.160  2.1636 -0.9207 -0.5266
  929SOL    HW3 3483   4.228  -0.032   0.010 -1.3565  0.8104 -1.0656
  929SOL    MW4 3484   4.220   0.022   0.078 -0.1111 -0.0037 -0.2253
  930SOL     OW 3485   3.073   1.682   1.417 -0.4471  0.7166 -0.2242
  930SOL    HW2 3486   3.031   1.705   1.500 -1.8492 -0.4088 -0.5677
  930SOL    HW3 3487   3.155   1.731   1.417  0.9704 -1.3030  3.0956
  930SOL    MW4 3488   3.078   1.691   1.428 -0.4450  0.3016  0.1685
  931SOL     OW 3489   0.169   3.562   4.817 -0.4824 -0.1959  0.1856
  931SOL    HW2 3490   0.225   3.571   4.894 -0.1321  0.0737 -0.0927
  931SOL    HW3 3491   0.225   3.520   4.751  0.4978  2.8780 -1.1599
  931SOL    MW4 3492   0.184   3.558   4.818 -0.3068  0.2453 -0.0287
  932SOL     OW 3493   4.540   5.494   5.568 -0.4024  0.0602  0.4212
  932SOL    HW2 3494   4.506   5.450   5.645  0.9556  2.0775  2.2885
  932SOL    HW3 3495   4.625   5.529   5.595 -0.0594  1.2025 -1.8464
  932SOL    MW4 3496   4.547   5.493   5.581 -0.1780  0.4770  0.3684
  933SOL     OW 3497   3.382   0.043   5.466 -0.0857 -0.5991 -0.2178
  933SOL    HW2 3498   3.378  -0.012   5.387  2.2557 -2.2573  0.6877
  933SOL    HW3 3499   3.406   0.129   5.433  0.3869 -1.1439 -1.3892
  933SOL    MW4 3500   3.385   0.047   5.451  0.2856 -0.8897 -0.2529
  934SOL     OW 3501   4.145   1.696   3.211 -0.1273  0.8856 -0.1931
  934SOL    HW2 3502   4.151   1.670   3.120 -1.4602 -1.4977  0.2988
  934SOL    HW3 3503   4.204   1.636   3.257  2.6737  3.7931  0.3517
  934SOL    MW4 3504   4.154   1.685   3.205  0.0664  0.9548 -0.0563
  935SOL     OW 3505   3.393   2.428   2.413 -0.3592 -0.1840 -0.5535
  935SOL    HW2 3506   3.325   2.384   2.463  0.7123 -1.5525 -0.2647
  935SOL    HW3 3507   3.400   2.377   2.333 -1.8052  1.7701 -2.0464
  935SOL    MW4 3508   3.385   2.416   2.409 -0.4086 -0.1068 -0.7124
  936SOL     OW 3509   4.798   2.698   0.084  0.5520 -0.0766 -0.8221
  936SOL    HW2 3510   4.869   2.649   0.042  0.5008 -0.5958 -0.3183
  936SOL    HW3 3511   4.813   2.789   0.057  0.7043 -0.3474 -1.6943
  936SOL    MW4 3512   4.809   2.703   0.075  0.5653 -0.1808 -0.8707
  937SOL     OW 3513   5.861   2.701   4.527  0.3101  0.1175 -0.1308
  937SOL    HW2 3514   5.805   2.624   4.533 -0.1883  0.4642 -0.3053
  937SOL    HW3 3515   5.801   2.775   4.525  0.7132  0.4302 -1.6170
  937SOL    MW4 3516   5.846   2.701   4.528  0.2976  0.2045 -0.3499
  938SOL     OW 3517   2.439   4.118   3.840  0.1707  0.6615  0.7060
  938SOL    HW2 3518   2.489   4.197   3.862 -1.3371  1.8347  0.0737
  938SOL    HW3 3519   2.469   4.094   3.753  1.8050 -0.4762  1.5187
  938SOL    MW4 3520   2.450   4.125   3.832  0.1874  0.6662  0.7298
  939SOL     OW 3521   3.422   4.466   1.370  0.5956 -0.4776 -0.1356
  939SOL    HW2 3522   3.474   4.394   1.405  0.1278  0.3954  2.5308
  939SOL    HW3 3523   3.415   4.528   1.442 -3.3317 -0.1071 -0.6289
  939SOL    MW4 3524   3.428   4.465   1.384  0.0157 -0.3135  0.1511
  940SOL     OW 3525   5.089   2.452   5.294 -0.1191  0.3884 -0.2612
  940SOL    HW2 3526   5.057   2.368   5.261  0.5408  0.2673 -0.6105
  940SOL    HW3 3527   5.065   2.515   5.227  0.3629  0.2974 -0.5235
  940SOL    MW4 3528   5.082   2.449   5.281  0.0315  0.3604 -0.3419
  941SOL     OW 3529   0.539   0.642   2.251  0.2589  0.1383 -0.1363
  941SOL    HW2 3530   0.527   0.548   2.262 -1.3854  0.5658  2.6234
  941SOL    HW3 3531   0.452   0.679   2.264  0.9869  2.1080 -0.5503
  941SOL    MW4 3532   0.526   0.635   2.254  0.1380  0.4546  0.1732
  942SOL     OW 3533   3.876   2.909   4.487 -0.3221 -0.2207  0.7223
  942SOL    HW2 3534   3.900   2.906   4.394  0.7628  0.7799  0.9367
  942SOL    HW3 3535   3.870   3.002   4.506 -0.4738 -0.4222  1.6687
  942SOL    MW4 3536   3.879   2.921   4.477 -0.1990 -0.1153  0.8754
  943SOL     OW 3537   2.696   3.334   2.283  0.4331  0.2011 -0.8457
  943SOL    HW2 3538   2.659   3.364   2.366 -0.3076 -1.1409 -0.6499
  943SOL    HW3 3539   2.665   3.397   2.218 -1.2817 -0.2337 -0.4998
  943SOL    MW4 3540   2.687   3.346   2.285  0.1092 -0.0333 -0.7742
  944SOL     OW 3541   6.084   4.054   2.740  0.1537  1.2486  0.4190
  944SOL    HW2 3542   6.050   3.965   2.732  1.9474  0.3672  1.8515
  944SOL    HW3 3543   6.040   4.090   2.817  0.6269  0.9714  0.8305
  944SOL    MW4 3544   6.074   4.047   2.749  0.4528  1.0957  0.6623
  945SOL     OW 3545   4.403   2.054   4.510  0.1356  0.8513  0.5430
  945SOL    HW2 3546   4.482   2.007   4.483 -0.5265 -0.5331  0.9067
  945SOL    HW3 3547   4.370   2.093   4.429  2.1070  2.9776  0.6607
  945SOL    MW4 3548   4.409   2.053   4.496  0.3083  0.9491  0.6065
  946SOL     OW 3549   4.782   4.567   4.225 -0.1152  0.5760  0.2790
  946SOL    HW2 3550   4.824   4.642   4.268  1.8722 -1.2209  1.6717
  946SOL    HW3 3551   4.807   4.575   4.133  0.6789  1.2490  0.5396
  946SOL    MW4 3552   4.791   4.578   4.218  0.2518  0.4277  0.4971
  947SOL     OW 3553   0.660   0.658   4.591 -0.3765 -0.1941  0.0845
  947SOL    HW2 3554   0.628   0.692   4.508 -2.1946 -1.2272  0.2873
  947SOL    HW3 3555   0.606   0.702   4.657  1.5383  1.1744  0.8390
  947SOL    MW4 3556   0.648   0.668   4.589 -0.3637 -0.1499  0.2108
  948SOL     OW 3557   1.714   3.947   1.603  0.1528  0.1195  0.4232
  948SOL    HW2 3558   1.691   3.887   1.532 -1.5111 -1.0853  1.8726
  948SOL    HW3 3559   1.802   3.978   1.581  0.2817 -1.3405 -1.3970
  948SOL    MW4 3560   1.723   3.943   1.591 -0.0497 -0.2321  0.3743
  949SOL     OW 3561   4.759   4.482   6.245  0.0693  0.0776  0.1081
  949SOL    HW2 3562   4.813   4.539   6.300  1.2112 -0.1605 -0.7301
  949SOL    HW3 3563   4.797   4.395   6.258 -1.3452 -0.4358  0.9954
  949SOL    MW4 3564   4.771   4.478   6.254  0.0333 -0.0215  0.1146
  950SOL     OW 3565   6.345   4.048   2.846  0.0201 -0.2314 -0.8157
  950SOL    HW2 3566   6.270   4.021   2.793  0.0078 -1.2097 -0.3126
  950SOL    HW3 3567   6.372   4.132   2.808 -1.0970 -0.0447 -1.2294
  950SOL    MW4 3568   6.339   4.056   2.834 -0.1289 -0.3358 -0.8039
  951SOL     OW 3569   6.006   5.518   1.700  0.2648  0.0605 -0.1771
  951SOL    HW2 3570   5.911   5.529   1.708  0.2646 -0.0719  0.0287
  951SOL    HW3 3571   6.036   5.509   1.791  0.4918  0.2429 -0.2340
  951SOL    MW4 3572   5.998   5.518   1.713  0.2947  0.0671 -0.1575
  952SOL     OW 3573   3.145   6.105   5.822  0.2276 -0.5798  0.7938
  952SOL    HW2 3574   3.113   6.154   5.898  1.2605 -0.2381  1.0276
  952SOL    HW3 3575   3.179   6.172   5.763  0.9474 -0.9517  0.7751
  952SOL    MW4 3576   3.146   6.121   5.824  0.4588 -0.5838  0.8222
  953SOL     OW 3577   1.030   3.929   4.634 -0.3019  0.4307 -0.5023
  953SOL    HW2 3578   0.960   3.926   4.569 -1.9927 -0.9448  1.2994
  953SOL    HW3 3579   0.988   3.960   4.714  0.6195 -2.3519  1.1832
  953SOL    MW4 3580   1.015   3.933   4.636 -0.4034 -0.1179 -0.0422
  954SOL     OW 3581   5.791   5.764   4.800  0.3196  1.1269  1.1365
  954SOL    HW2 3582   5.882   5.751   4.828  0.3279  2.8106  1.9832
  954SOL    HW3 3583   5.744   5.785   4.881 -0.7811  0.5993  0.6618
  954SOL    MW4 3584   5.797   5.765   4.815  0.1755  1.2794  1.1856
  955SOL     OW 3585   4.596   0.333   4.600  0.0451  0.4353 -0.4893
  955SOL    HW2 3586   4.657   0.300   4.533  1.4020  1.0573  0.4031
  955SOL    HW3 3587   4.646   0.399   4.648 -1.7518  1.8874 -0.5052
  955SOL    MW4 3588   4.611   0.337   4.598 -0.0129  0.7089 -0.3737
  956SOL     OW 3589   3.312   0.574   1.590  0.1311  0.2227  0.3146
  956SOL    HW2 3590   3.268   0.516   1.653 -0.2681  0.0677 -0.0949
  956SOL    HW3 3591   3.390   0.605   1.635 -0.6713  0.9150  1.2534
  956SOL    MW4 3592   3.316   0.570   1.604 -0.0274  0.2936  0.3844
  957SOL     OW 3593   5.427   4.542   0.253 -0.2743  0.0828  0.3349
  957SOL    HW2 3594   5.447   4.478   0.321  1.8515 -0.1271 -0.4180
  957SOL    HW3 3595   5.335   4.526   0.232 -0.7210 -0.4322  2.4983
  957SOL    MW4 3596   5.417   4.531   0.259 -0.0528 -0.0129  0.5210
  958SOL     OW 3597   6.218   5.876   1.917  0.2194  0.6287  0.3394
  958SOL    HW2 3598   6.261   5.792   1.900  0.7797  0.9976 -0.1663
  958SOL    HW3 3599   6.147   5.879   1.853 -1.2888 -0.4620  1.9050
  958SOL    MW4 3600   6.215   5.865   1.906  0.0943  0.5335  0.4793
  959SOL     OW 3601   4.271   6.252   2.303 -0.5193  0.2343  0.3654
  959SOL    HW2 3602   4.237   6.219   2.386 -1.1911  1.3843  0.5774
  959SOL    HW3 3603   4.198   6.243   2.242 -0.9791  1.8899  0.6003
  959SOL    MW4 3604   4.257   6.247   2.306 -0.6686  0.6045  0.4244
  960SOL     OW 3605   3.374   6.320   1.382 -0.5201 -0.1067  0.1926
  960SOL    HW2 3606   3.419   6.269   1.315  0.4752  1.2432 -0.1809
  960SOL    HW3 3607   3.328   6.388   1.334 -0.2340  0.5523  0.8433
  960SOL    MW4 3608   3.374   6.322   1.367 -0.3511  0.1583  0.2292
  961SOL     OW 3609   3.777   1.165   1.058  0.6663 -0.5054  0.3698
  961SOL    HW2 3610   3.733   1.116   0.988  0.5759 -3.1030  2.0789
  961SOL    HW3 3611   3.870   1.159   1.036  0.5336  0.2867 -0.4504
  961SOL    MW4 3612   3.784   1.157   1.046  0.6369 -0.7436  0.4871
  962SOL     OW 3613   0.631   1.150   4.017 -0.0142  0.1709  0.5142
  962SOL    HW2 3614   0.692   1.206   3.969  0.7696 -0.3152  0.9239
  962SOL    HW3 3615   0.565   1.126   3.952  1.2888 -0.8831 -0.5041
  962SOL    MW4 3616   0.631   1.154   4.002  0.2612 -0.0323  0.4339
  963SOL     OW 3617   0.404   1.891   1.207  0.6661 -0.0541  1.0066
  963SOL    HW2 3618   0.470   1.861   1.145 -0.3457  3.1695 -1.9511
  963SOL    HW3 3619   0.348   1.815   1.222  1.3986 -1.1956 -1.5177
  963SOL    MW4 3620   0.406   1.877   1.201  0.6292  0.2206  0.2833
  964SOL     OW 3621   4.989   1.158   3.886 -0.0188 -0.1533 -0.3775
  964SOL    HW2 3622   5.023   1.183   3.972  0.8857  1.8290 -1.2390
  964SOL    HW3 3623   4.895   1.175   3.891 -0.1352 -0.9917  0.5075
  964SOL    MW4 3624   4.981   1.164   3.898  0.0852 -0.0024 -0.3744
  965SOL     OW 3625   6.293   4.550   2.178 -0.4894 -0.2390 -0.4396
  965SOL    HW2 3626   6.313   4.518   2.090  0.8673  1.8752 -0.9625
  965SOL    HW3 3627   6.327   4.640   2.180 -2.9277  0.7765  1.3331
  965SOL    MW4 3628   6.300   4.558   2.167 -0.6321  0.1739 -0.2747
  966SOL     OW 3629   5.602   5.357   4.283  0.3034 -0.0956  0.1083
  966SOL    HW2 3630   5.583   5.295   4.353 -1.6225 -1.6118 -1.6139
  966SOL    HW3 3631   5.659   5.309   4.223 -0.2580  0.1700 -0.6716
  966SOL    MW4 3632   5.607   5.342   4.284 -0.0247 -0.2606 -0.2218
  967SOL     OW 3633   1.519   5.183   5.314  0.1307 -0.1326  0.0754
  967SOL    HW2 3634   1.614   5.195   5.319  0.2994 -0.3828 -1.7861
  967SOL    HW3 3635   1.505   5.092   5.340  0.6478 -0.7027 -1.5236
  967SOL    MW4 3636   1.530   5.173   5.318  0.2211 -0.2409 -0.3812
  968SOL     OW 3637   3.997   4.417   5.195  0.4856  0.2051  0.1782
  968SOL    HW2 3638   3.934   4.353   5.162 -0.7096  0.5286  1.7121
  968SOL    HW3 3639   4.025   4.467   5.117 -0.6616 -0.3664 -0.6186
  968SOL    MW4 3640   3.993   4.415   5.180  0.1766  0.1724  0.2755
  969SOL     OW 3641   5.585   2.810   0.452 -0.3778  0.5783 -0.1774
  969SOL    HW2 3642   5.654   2.809   0.385  0.2608 -0.3442  0.4755
  969SOL    HW3 3643   5.579   2.719   0.482 -0.7081  0.9667  0.9790
  969SOL    MW4 3644   5.593   2.798   0.447 -0.3372  0.5079  0.0613
  970SOL     OW 3645   5.091   0.950   4.245  0.2850 -0.2307 -0.1275
  970SOL    HW2 3646   5.146   0.962   4.322 -0.7301 -2.3252  1.0100
  970SOL    HW3 3647   5.001   0.961   4.278 -0.1955 -1.7235 -0.8412
  970SOL    MW4 3648   5.086   0.953   4.259  0.0877 -0.7040 -0.0716
  971SOL     OW 3649   1.174   4.471   0.411 -0.5053 -0.4200  0.2446
  971SOL    HW2 3650   1.212   4.392   0.371  0.5290  0.6791 -1.0357
  971SOL    HW3 3651   1.084   4.471   0.379 -1.0450 -1.9512  1.6289
  971SOL    MW4 3652   1.167   4.460   0.401 -0.4400 -0.4770  0.2583
  972SOL     OW 3653   1.968   0.793   5.461 -0.1569 -0.2436  0.5123
  972SOL    HW2 3654   2.049   0.753   5.429 -0.4534  0.1867 -0.8525
  972SOL    HW3 3655   1.901   0.764   5.399 -0.8695  0.1914  1.0634
  972SOL    MW4 3656   1.970   0.784   5.449 -0.2901 -0.1294  0.4049
  973SOL     OW 3657   6.101   2.229   2.971  0.3582 -0.5068 -0.2011
  973SOL    HW2 3658   6.062   2.147   3.000 -1.4373  0.1934 -0.5360
  973SOL    HW3 3659   6.075   2.293   3.037 -0.1924  0.2496 -1.1385
  973SOL    MW4 3660   6.093   2.226   2.984  0.0486 -0.3146 -0.3689
  974SOL     OW 3661   3.379   5.308   4.052 -0.0649  0.1886  0.4652
  974SOL    HW2 3662   3.314   5.367   4.014 -1.6216 -0.1844  2.3366
  974SOL    HW3 3663   3.374   5.229   3.999 -2.3500 -0.4130  1.4450
  974SOL    MW4 3664   3.370   5.305   4.040 -0.5718  0.0600  0.8414
  975SOL     OW 3665   5.487   2.016   3.203 -0.6243 -0.6169 -0.4394
  975SOL    HW2 3666   5.520   1.927   3.188 -0.9424 -0.7495 -0.3610
  975SOL    HW3 3667   5.538   2.048   3.277 -1.0031 -1.0017 -0.0059
  975SOL    MW4 3668   5.498   2.008   3.211 -0.7163 -0.6852 -0.3719
  976SOL     OW 3669   5.348   4.064   2.252 -0.0569  0.4816  0.3532
  976SOL    HW2 3670   5.371   4.155   2.268 -1.4738  1.1539 -1.2243
  976SOL    HW3 3671   5.393   4.042   2.171 -1.7847  0.6196 -0.6765
  976SOL    MW4 3672   5.357   4.073   2.244 -0.4718  0.5885  0.0092
  977SOL     OW 3673   4.014   5.446   6.015 -0.4740 -0.4108  0.3994
  977SOL    HW2 3674   4.040   5.523   6.064  1.6296  0.7856 -2.3231
  977SOL    HW3 3675   4.043   5.372   6.068  1.4283  0.7980  1.1182
  977SOL    MW4 3676   4.021   5.446   6.028  0.0545 -0.0935  0.1350
  978SOL     OW 3677   0.418   4.384   6.322 -0.1355  0.2419 -0.4553
  978SOL    HW2 3678   0.394   4.448   6.255 -1.0399  0.1932 -0.1871
  978SOL    HW3 3679   0.359   4.310   6.306  1.2682 -0.7773 -1.1239
  978SOL    MW4 3680   0.407   4.383   6.311 -0.0696  0.1010 -0.5082
  979SOL     OW 3681   0.860   3.040   5.062  0.7752  0.0493  0.0798
  979SOL    HW2 3682   0.850   2.962   5.006  0.2955  0.7937 -0.9115
  979SOL    HW3 3683   0.822   3.014   5.146  1.6449 -1.1507  0.1415
  979SOL    MW4 3684   0.854   3.026   5.065  0.8267 -0.0108 -0.0429
  980SOL     OW 3685   2.192   5.334   5.105 -0.6011 -0.5526 -0.6638
  980SOL    HW2 3686   2.229   5.389   5.174 -0.9309 -0.1404 -0.8082
  980SOL    HW3 3687   2.112   5.380   5.079 -0.7294 -0.9573 -0.9835
  980SOL    MW4 3688   2.186   5.348   5.111 -0.6615 -0.5516 -0.7251
  981SOL     OW 3689   4.475   4.123   4.083  0.7632  0.3585  0.5611
  981SOL    HW2 3690   4.569   4.132   4.098  0.8901  0.1954 -0.1123
  981SOL    HW3 3691   4.446   4.213   4.065  0.9543  0.2878 -0.1284
  981SOL    MW4 3692   4.484   4.136   4.083  0.8051  0.3277  0.3813
  982SOL     OW 3693   3.704   4.425   4.531 -0.4686 -0.7932  0.0288
  982SOL    HW2 3694   3.779   4.406   4.475  0.7613 -0.8623  1.6258
  982SOL    HW3 3695   3.660   4.341   4.542 -1.3922 -0.5722 -1.7060
  982SOL    MW4 3696   3.708   4.412   4.525 -0.4282 -0.7731  0.0106
  983SOL     OW 3697   4.697   1.275   4.194 -0.0956 -0.9356  0.1217
  983SOL    HW2 3698   4.764   1.329   4.151  0.5447  0.3360  2.5262
  983SOL    HW3 3699   4.743   1.194   4.216  0.0941 -0.8517  0.0388
  983SOL    MW4 3700   4.712   1.271   4.191  0.0139 -0.7568  0.4280
  984SOL     OW 3701   6.373   1.539   3.372  0.3701  0.1015  0.1717
  984SOL    HW2 3702   6.410   1.471   3.429  1.6690  1.1215  0.6066
  984SOL    HW3 3703   6.447   1.598   3.356 -0.0896  0.1249 -2.1581
  984SOL    MW4 3704   6.388   1.537   3.378  0.4808  0.2392 -0.0783
  985SOL     OW 3705   0.792   4.610   1.296  0.5920 -0.0350 -0.1114
  985SOL    HW2 3706   0.759   4.670   1.363  0.2346 -1.1709  0.7389
  985SOL    HW3 3707   0.758   4.647   1.214 -0.2934  0.4906  0.4680
  985SOL    MW4 3708   0.783   4.623   1.294  0.4280 -0.1155  0.0772
  986SOL     OW 3709   4.190   2.805   5.567  0.0930 -0.0058 -0.0495
  986SOL    HW2 3710   4.192   2.842   5.656 -1.5858 -1.0810  0.4843
  986SOL    HW3 3711   4.108   2.839   5.530  0.1305 -0.6347 -0.7010
  986SOL    MW4 3712   4.179   2.815   5.574 -0.1236 -0.2306 -0.0650
  987SOL     OW 3713   2.837   4.155   4.421 -0.2980 -0.5320  0.1115
  987SOL    HW2 3714   2.854   4.076   4.473 -0.2075  0.0234  0.9504
  987SOL    HW3 3715   2.842   4.125   4.330 -0.7376 -1.5877  0.4139
  987SOL    MW4 3716   2.840   4.141   4.416 -0.3440 -0.5980  0.2621
  988SOL     OW 3717   6.279   1.212   0.108  0.2952  0.2069  0.0168
  988SOL    HW2 3718   6.255   1.131   0.153 -0.7490  0.5204  0.0398
  988SOL    HW3 3719   6.372   1.201   0.089 -0.1886 -1.7660 -1.5446
  988SOL    MW4 3720   6.288   1.199   0.112  0.0936 -0.0120 -0.1861
  989SOL     OW 3721   1.633   5.107   1.051  0.2434 -0.2724 -0.2710
  989SOL    HW2 3722   1.704   5.171   1.046  1.0783 -1.2079 -1.0002
  989SOL    HW3 3723   1.603   5.112   1.142  0.1294  1.2909 -0.3795
  989SOL    MW4 3724   1.638   5.116   1.062  0.3385 -0.1896 -0.3815
  990SOL     OW 3725   0.675   5.972   1.054 -0.3911 -0.6615  0.6608
  990SOL    HW2 3726   0.767   5.999   1.050 -0.6245  0.0301 -0.2506
  990SOL    HW3 3727   0.648   5.994   1.143 -0.6383  2.4370 -0.0718
  990SOL    MW4 3728   0.684   5.979   1.066 -0.4545 -0.1615  0.4439
  991SOL     OW 3729   6.364   2.480   4.067 -0.0512 -0.2999  0.2850
  991SOL    HW2 3730   6.432   2.482   4.134 -0.1984 -2.1723  0.5463
  991SOL    HW3 3731   6.372   2.564   4.022  1.4000  0.1504  1.3030
  991SOL    MW4 3732   6.374   2.491   4.070  0.1209 -0.4875  0.4538
  992SOL     OW 3733   1.220   3.046   4.508 -0.0805 -0.6801  0.4517
  992SOL    HW2 3734   1.224   2.956   4.475 -1.8117 -0.2765 -1.0390
  992SOL    HW3 3735   1.310   3.067   4.531  0.7415 -2.0690 -1.2549
  992SOL    MW4 3736   1.232   3.037   4.507 -0.2004 -0.8101  0.0298
  993SOL     OW 3737   1.413   1.613   2.128 -0.2922 -0.0659 -0.2829
  993SOL    HW2 3738   1.479   1.605   2.059 -3.0825 -1.0325 -3.0831
  993SOL    HW3 3739   1.383   1.704   2.122  0.0888  0.1091  0.3414
  993SOL    MW4 3740   1.417   1.624   2.118 -0.6101 -0.1704 -0.5700
  994SOL     OW 3741   5.815   6.117   6.366  0.3435 -0.6072  0.0065
  994SOL    HW2 3742   5.806   6.108   6.461  0.9710 -2.4595 -0.0733
  994SOL    HW3 3743   5.765   6.043   6.331 -1.6673  1.2237 -1.2356
  994SOL    MW4 3744   5.807   6.106   6.374  0.1610 -0.6100 -0.1679
  995SOL     OW 3745   0.576   1.406   2.572 -0.2524 -0.3618  0.6542
  995SOL    HW2 3746   0.485   1.392   2.543 -0.4387  1.0731  0.4709
  995SOL    HW3 3747   0.584   1.353   2.651 -1.2330 -0.5725  0.6344
  995SOL    MW4 3748   0.565   1.397   2.578 -0.4064 -0.2003  0.6274
  996SOL     OW 3749   0.130   5.979   3.785 -0.3847  0.2406  0.6885
  996SOL    HW2 3750   0.074   5.904   3.766 -1.3240  0.8006  1.1466
  996SOL    HW3 3751   0.200   5.944   3.840 -0.5209 -0.3877  0.4669
  996SOL    MW4 3752   0.132   5.965   3.790 -0.5266  0.2316  0.7197
  997SOL     OW 3753   0.748   3.425   5.636  0.3878 -0.0331 -0.1544
  997SOL    HW2 3754   0.731   3.463   5.550 -0.2932 -3.1655 -1.5664
  997SOL    HW3 3755   0.826   3.470   5.667  0.0087  1.9880 -1.8694
  997SOL    MW4 3756   0.756   3.436   5.629  0.2479 -0.1797 -0.5670
  998SOL     OW 3757   6.347   5.839   2.167  0.1318  0.4433 -0.0470
  998SOL    HW2 3758   6.291   5.897   2.115 -0.4191  0.1623  0.2307
  998SOL    HW3 3759   6.289   5.770   2.199 -0.2063  2.0047  3.1557
  998SOL    MW4 3760   6.332   5.838   2.165  0.0145  0.6122  0.4122
  999SOL     OW 3761   2.517   6.209   4.665 -0.3204  0.3589 -0.1218
  999SOL    HW2 3762   2.500   6.149   4.737  2.0413 -0.4284 -0.1504
  999SOL    HW3 3763   2.594   6.259   4.692 -0.0274  0.7842 -1.6421
  999SOL    MW4 3764   2.525   6.208   4.678  0.0299  0.3112 -0.3261
 1000SOL     OW 3765   5.350   0.677   1.458 -0.2163  0.7325 -0.1512
 1000SOL    HW2 3766   5.434   0.634   1.438 -0.0912  0.0894  1.5932
 1000SOL    HW3 3767   5.290   0.644   1.392  0.5307 -0.0152 -0.4745
 1000SOL    MW4 3768   5.353   0.667   1.447 -0.1012  0.5490  0.0363
 1001SOL     OW 3769   3.858   4.612   6.042  0.4246 -0.5002  0.0666
 1001SOL    HW2 3770   3.914   4.688   6.024 -0.0172  0.1365  1.2086
 1001SOL    HW3 3771   3.920   4.542   6.065  0.8097 -0.2497 -0.1921
 1001SOL    MW4 3772   3.874   4.613   6.043  0.4171 -0.3832  0.1832
 1002SOL     OW 3773   3.961   4.963   0.556  0.2916 -0.4365  0.0717
 1002SOL    HW2 3774   3.923   4.919   0.632  1.5227 -1.7633 -0.0228
 1002SOL    HW3 3775   3.898   4.948   0.485 -1.4202  1.7770  1.0102
 1002SOL    MW4 3776   3.948   4.955   0.556  0.2282 -0.3195  0.1831
 1003SOL     OW 3777   5.009   3.790   5.256 -0.1137  0.1426  1.2000
 1003SOL    HW2 3778   4.958   3.745   5.322 -0.2708 -1.4915  0.0155
 1003SOL    HW3 3779   4.958   3.868   5.235 -2.5002 -1.7247 -0.3761
 1003SOL    MW4 3780   4.996   3.795   5.262 -0.4493 -0.3194  0.8358
 1004SOL     OW 3781   2.373   5.531   6.108 -0.5215  0.4025 -0.2027
 1004SOL    HW2 3782   2.314   5.528   6.184 -0.4305  0.1679 -0.1401
 1004SOL    HW3 3783   2.442   5.592   6.134  0.1721 -0.6089  0.3908
 1004SOL    MW4 3784   2.374   5.539   6.121 -0.4180  0.2381 -0.1162
 1005SOL     OW 3785   2.512   0.828   0.160  0.3452 -0.0896  0.1228
 1005SOL    HW2 3786   2.461   0.903   0.129 -1.6603 -0.5219  2.1651
 1005SOL    HW3 3787   2.470   0.752   0.120 -1.0813 -0.4909  2.2409
 1005SOL    MW4 3788   2.500   0.828   0.150 -0.1076 -0.1996  0.6717
 1006SOL     OW 3789   2.520   2.964   3.798 -0.3025  0.2629 -0.5913
 1006SOL    HW2 3790   2.454   2.914   3.750 -0.6364  0.9683 -0.8641
 1006SOL    HW3 3791   2.475   2.993   3.877 -0.1312  0.2152 -0.4753
 1006SOL    MW4 3792   2.505   2.961   3.802 -0.3239  0.3497 -0.6120
 1007SOL     OW 3793   5.137   3.586   5.669 -0.0678  0.0567  0.1953
 1007SOL    HW2 3794   5.184   3.669   5.660 -0.3981  0.1428 -0.9397
 1007SOL    HW3 3795   5.045   3.611   5.673 -0.0883 -0.1755  1.3404
 1007SOL    MW4 3796   5.131   3.601   5.668 -0.1141  0.0374  0.1967
 1008SOL     OW 3797   2.450   3.050   1.460 -0.2873 -0.4703 -0.3381
 1008SOL    HW2 3798   2.473   2.964   1.426  0.4719 -0.2203 -0.4691
 1008SOL    HW3 3799   2.503   3.060   1.539  0.4662  0.3276 -0.9310
 1008SOL    MW4 3800   2.460   3.040   1.466 -0.0877 -0.3320 -0.4336
 1009SOL     OW 3801   3.456   0.322   5.376  0.1540  0.3376  0.0106
 1009SOL    HW2 3802   3.481   0.365   5.457 -1.0680  0.2180  0.4607
 1009SOL    HW3 3803   3.378   0.368   5.346  0.6794  0.4982 -1.2041
 1009SOL    MW4 3804   3.449   0.334   5.382  0.0621  0.3430 -0.0903
 1010SOL     OW 3805   2.595   2.311   1.573 -0.0340  0.1711 -0.3413
 1010SOL    HW2 3806   2.514   2.363   1.577  0.2748  0.6776 -0.5495
 1010SOL    HW3 3807   2.587   2.259   1.493 -0.1144  0.2946 -0.4141
 1010SOL    MW4 3808   2.583   2.311   1.563 -0.0038  0.2543 -0.3784
 1011SOL     OW 3809   2.966   6.353   2.829 -0.7963 -0.0729  1.1355
 1011SOL    HW2 3810   3.047   6.304   2.848 -0.8040  0.0449  1.4771
 1011SOL    HW3 3811   2.897   6.287   2.833 -0.3668 -1.0656 -3.0995
 1011SOL    MW4 3812   2.968   6.338   2.832 -0.7407 -0.1884  0.6218
 1012SOL     OW 3813   4.246   4.259   0.961  0.6739 -0.2248 -0.2802
 1012SOL    HW2 3814   4.258   4.164   0.958  3.1136  0.0226 -0.8616
 1012SOL    HW3 3815   4.255   4.287   0.869 -1.3509  0.4775 -0.3047
 1012SOL    MW4 3816   4.249   4.250   0.948  0.7286 -0.0995 -0.3601
 1013SOL     OW 3817   2.127   5.000   3.725 -0.0247  0.3414  0.0236
 1013SOL    HW2 3818   2.174   5.083   3.714 -0.1418  0.1662 -1.9951
 1013SOL    HW3 3819   2.037   5.020   3.699 -0.5355  0.0485  1.4646
 1013SOL    MW4 3820   2.121   5.014   3.720 -0.1075  0.2796 -0.0526
 1014SOL     OW 3821   6.123   3.386   0.053 -0.1872 -0.0387  0.4425
 1014SOL    HW2 3822   6.133   3.295   0.082  2.4508  0.1879  0.4584
 1014SOL    HW3 3823   6.172   3.437   0.118  1.7349  0.9619 -1.6711
 1014SOL    MW4 3824   6.131   3.381   0.065  0.4144  0.1232  0.1658
 1015SOL     OW 3825   4.178   3.930   0.678  0.3853 -0.7460  0.0432
 1015SOL    HW2 3826   4.156   3.962   0.765 -2.9840 -2.2403 -0.0874
 1015SOL    HW3 3827   4.202   3.838   0.692 -0.4817 -1.0836 -0.5886
 1015SOL    MW4 3828   4.178   3.922   0.691 -0.1737 -0.9877 -0.0574
 1016SOL     OW 3829   0.901   1.930   5.420 -0.3692  0.1257  0.1274
 1016SOL    HW2 3830   0.954   1.972   5.488 -0.2484 -0.2651  0.2831
 1016SOL    HW3 3831   0.835   1.995   5.396 -1.0695 -0.0944  1.3729
 1016SOL    MW4 3832   0.900   1.944   5.426 -0.4457  0.0451  0.3123
 1017SOL     OW 3833   5.818   5.450   2.585 -0.1999  0.1949 -0.3505
 1017SOL    HW2 3834   5.757   5.391   2.541  0.6641 -1.4497  0.5624
 1017SOL    HW3 3835   5.779   5.467   2.670  0.9917 -1.6444  0.6213
 1017SOL    MW4 3836   5.805   5.444   2.590  0.0713 -0.2647 -0.1018
 1018SOL     OW 3837   3.507   0.409   1.792 -0.6699 -0.0404  0.2215
 1018SOL    HW2 3838   3.529   0.430   1.701 -0.5257  0.0999  0.2863
 1018SOL    HW3 3839   3.532   0.488   1.841 -0.1545 -0.3497  0.4661
 1018SOL    MW4 3840   3.514   0.422   1.786 -0.5828 -0.0627  0.2623
 1019SOL     OW 3841   5.295   2.781   5.280  0.4787  0.0390 -0.7938
 1019SOL    HW2 3842   5.361   2.843   5.250  0.4021  0.6825  0.3282
 1019SOL    HW3 3843   5.221   2.835   5.308  0.0292 -0.6000 -0.7287
 1019SOL    MW4 3844   5.294   2.796   5.280  0.4093  0.0396 -0.6372
 1020SOL     OW 3845   1.898   0.919   2.337  0.0228 -0.0984  0.0738
 1020SOL    HW2 3846   1.859   0.937   2.251 -1.3572  0.5498  0.8057
 1020SOL    HW3 3847   1.984   0.962   2.334  0.3021 -0.6939 -1.2184
 1020SOL    MW4 3848   1.904   0.927   2.325 -0.1224 -0.0914 -0.0001
 1021SOL     OW 3849   2.765   0.422   3.634 -0.4123 -0.2660  0.4373
 1021SOL    HW2 3850   2.810   0.338   3.642 -0.5498 -0.2883  1.0370
 1021SOL    HW3 3851   2.684   0.411   3.683 -0.8616 -0.0735 -0.2541
 1021SOL    MW4 3852   2.760   0.410   3.642 -0.4897 -0.2436  0.4252
 1022SOL     OW 3853   1.107   0.619   4.846 -0.0606  0.4144  0.6988
 1022SOL    HW2 3854   1.142   0.601   4.758 -1.3611  2.1091 -0.2189
 1022SOL    HW3 3855   1.162   0.567   4.904  0.2512 -1.5280 -1.1898
 1022SOL    MW4 3856   1.119   0.609   4.842 -0.1910  0.3817  0.3286
 1023SOL     OW 3857   5.210   3.849   1.704  0.0068 -0.3935 -0.7062
 1023SOL    HW2 3858   5.261   3.830   1.626  1.3546  0.0847  0.0247
 1023SOL    HW3 3859   5.266   3.823   1.777  0.8276  3.4039  0.2652
 1023SOL    MW4 3860   5.224   3.843   1.703  0.2929  0.1706 -0.4816
 1024SOL     OW 3861   3.962   3.597   1.502  0.0600  0.3581 -0.0354
 1024SOL    HW2 3862   3.890   3.614   1.563  0.2811  0.5471  0.1735
 1024SOL    HW3 3863   4.041   3.599   1.556  0.0914 -1.5925  0.0528
 1024SOL    MW4 3864   3.963   3.599   1.517  0.0933  0.1257  0.0038
 1025SOL     OW 3865   5.463   1.072   0.267  0.2100  0.2240  0.1261
 1025SOL    HW2 3866   5.503   1.008   0.326  1.1276  1.4171  0.8593
 1025SOL    HW3 3867   5.517   1.150   0.277  1.7719 -0.1096 -3.9311
 1025SOL    MW4 3868   5.475   1.074   0.276  0.5372  0.3374 -0.3124
 1026SOL     OW 3869   1.604   1.678   4.951 -0.3442 -0.4833  0.1644
 1026SOL    HW2 3870   1.527   1.621   4.955 -0.3373 -0.4303  1.7202
 1026SOL    HW3 3871   1.605   1.711   4.861 -1.6989 -1.0781 -0.0952
 1026SOL    MW4 3872   1.594   1.674   4.940 -0.5220 -0.5548  0.3354
 1027SOL     OW 3873   1.984   3.290   1.834 -0.3418  0.4171 -0.3050
 1027SOL    HW2 3874   1.906   3.287   1.778  0.2895  2.5362 -1.4226
 1027SOL    HW3 3875   2.057   3.275   1.774  0.1569 -2.7832  0.9228
 1027SOL    MW4 3876   1.983   3.288   1.819 -0.1927  0.2744 -0.2905
 1028SOL     OW 3877   2.766   1.188   1.477 -0.2678  0.6312 -0.8363
 1028SOL    HW2 3878   2.715   1.173   1.398  1.4312  1.9351 -2.2507
 1028SOL    HW3 3879   2.806   1.103   1.495  0.8627  0.7576 -2.5483
 1028SOL    MW4 3880   2.764   1.175   1.469  0.1055  0.8199 -1.2488
 1029SOL     OW 3881   3.919   1.957   1.918  1.1751 -0.5812  0.2624
 1029SOL    HW2 3882   3.941   1.979   1.828  2.2057 -0.3195  0.5563
 1029SOL    HW3 3883   3.835   2.000   1.934  1.9750  1.1787  0.0649
 1029SOL    MW4 3884   3.911   1.966   1.909  1.4166 -0.3145  0.2751
 1030SOL     OW 3885   4.917   1.227   6.267 -0.1317 -0.8336 -0.0534
 1030SOL    HW2 3886   4.868   1.159   6.314 -0.2116  0.1283  1.3302
 1030SOL    HW3 3887   4.859   1.303   6.270  0.7985 -0.1244  0.2335
 1030SOL    MW4 3888   4.903   1.228   6.274 -0.0195 -0.6131  0.1670
 1031SOL     OW 3889   1.624   4.902   0.086 -0.2340  0.2342  0.1761
 1031SOL    HW2 3890   1.675   4.980   0.065 -1.0415  0.5965 -0.4934
 1031SOL    HW3 3891   1.538   4.936   0.112 -0.3462 -0.3958  0.6543
 1031SOL    MW4 3892   1.619   4.917   0.087 -0.3554  0.1989  0.1509
 1032SOL     OW 3893   4.366   2.213   1.840 -0.1238  0.3401  0.0898
 1032SOL    HW2 3894   4.372   2.193   1.934  0.4549  1.5338  0.3255
 1032SOL    HW3 3895   4.401   2.302   1.833 -0.0164  0.1973 -1.2861
 1032SOL    MW4 3896   4.372   2.222   1.852 -0.0333  0.4787 -0.0606
 1033SOL     OW 3897   0.835   6.362   0.632  0.5133  0.0759 -0.4205
 1033SOL    HW2 3898   0.774   6.307   0.681  1.1266  0.0990  0.4068
 1033SOL    HW3 3899   0.795   6.373   0.546 -1.2711  1.1593  0.4895
 1033SOL    MW4 3900   0.822   6.356   0.627  0.3588  0.2219 -0.1913
 1034SOL     OW 3901   0.836   6.131   5.479  0.0004 -1.0817 -0.5328
 1034SOL    HW2 3902   0.845   6.132   5.384 -0.0611 -4.3950 -0.6962
 1034SOL    HW3 3903   0.851   6.040   5.503 -1.3162 -0.6062  2.5187
 1034SOL    MW4 3904   0.839   6.119   5.470 -0.1814 -1.4561 -0.1518
 1035SOL     OW 3905   0.696   3.131   5.682 -0.0584 -0.5076  0.0695
 1035SOL    HW2 3906   0.718   3.224   5.680  1.2787 -0.7944  0.0839
 1035SOL    HW3 3907   0.755   3.094   5.749  0.3437 -1.5632 -0.8388
 1035SOL    MW4 3908   0.707   3.138   5.691  0.1711 -0.6847 -0.0484
 1036SOL     OW 3909   0.252   1.171   3.519  0.2394  0.0999  0.2569
 1036SOL    HW2 3910   0.178   1.111   3.524 -0.0947  0.6221  3.5452
 1036SOL    HW3 3911   0.319   1.122   3.471 -1.5743 -1.0366 -1.2681
 1036SOL    MW4 3912   0.251   1.156   3.513 -0.0439  0.0188  0.4895
 1037SOL     OW 3913   5.384   4.429   0.771  0.5668  0.2642 -0.4506
 1037SOL    HW2 3914   5.462   4.379   0.748 -0.2788 -2.3651  1.7566
 1037SOL    HW3 3915   5.414   4.492   0.836  1.0620  0.1364 -0.5548
 1037SOL    MW4 3916   5.398   4.431   0.777  0.5206 -0.0996 -0.1731
 1038SOL     OW 3917   6.258   4.829   4.605 -0.3351  0.1657  0.0658
 1038SOL    HW2 3918   6.213   4.792   4.529 -0.6503 -0.9866  0.7992
 1038SOL    HW3 3919   6.200   4.900   4.634 -0.9888 -0.3841  0.1456
 1038SOL    MW4 3920   6.244   4.834   4.598 -0.4630 -0.0589  0.1731
 1039SOL     OW 3921   2.738   4.189   2.396  0.1116 -0.6300  0.1856
 1039SOL    HW2 3922   2.655   4.230   2.374  1.5908  1.5190 -2.0167
 1039SOL    HW3 3923   2.715   4.102   2.428 -2.9179 -0.4893 -1.2855
 1039SOL    MW4 3924   2.724   4.183   2.397 -0.0929 -0.3279 -0.2991
 1040SOL     OW 3925   5.812   4.699   2.018 -0.5018 -0.2767  1.0345
 1040SOL    HW2 3926   5.735   4.728   2.068  0.0628  0.3354  1.5624
 1040SOL    HW3 3927   5.862   4.779   2.002 -1.1062 -0.2755 -1.3357
 1040SOL    MW4 3928   5.808   4.713   2.022 -0.5070 -0.1958  0.7914
 1041SOL     OW 3929   6.173   3.181   4.302  0.2497  0.0853 -0.0271
 1041SOL    HW2 3930   6.081   3.192   4.281  0.2162  1.5207  0.7806
 1041SOL    HW3 3931   6.195   3.255   4.358  2.3172  0.7960 -1.5970
 1041SOL    MW4 3932   6.164   3.192   4.306  0.5180  0.3685 -0.1277
 1042SOL     OW 3933   3.412   6.086   2.994 -0.1859  0.5120 -0.1450
 1042SOL    HW2 3934   3.455   6.006   2.965  0.7848  1.1013 -0.3684
 1042SOL    HW3 3935   3.477   6.155   2.981 -0.9321  1.3121  0.2311
 1042SOL    MW4 3936   3.426   6.085   2.989 -0.1563  0.6953 -0.1248
 1043SOL     OW 3937   3.244   2.710   3.133  0.1276  0.4493 -0.2512
 1043SOL    HW2 3938   3.314   2.705   3.198  0.2362 -0.8156 -0.4407
 1043SOL    HW3 3939   3.186   2.636   3.154 -0.5001  0.7640 -0.8347
 1043SOL    MW4 3940   3.245   2.700   3.144  0.0591  0.3239 -0.3532
 1044SOL     OW 3941   2.436   5.503   0.066 -0.3089 -0.3640  0.3079
 1044SOL    HW2 3942   2.418   5.567   0.135  0.0031  1.3664 -1.1156
 1044SOL    HW3 3943   2.356   5.502   0.013  0.1175 -0.2146 -0.3596
 1044SOL    MW4 3944   2.423   5.512   0.068 -0.2115 -0.1160  0.0320
 1045SOL     OW 3945   4.436   0.627   1.267  0.1493 -0.0308  0.1403
 1045SOL    HW2 3946   4.526   0.605   1.244  0.2430 -1.2566  1.5692
 1045SOL    HW3 3947   4.438   0.643   1.362 -1.0180  0.5818  0.0910
 1045SOL    MW4 3948   4.448   0.626   1.277  0.0076 -0.1117  0.3223
 1046SOL     OW 3949   6.373   1.963   4.177  0.6204  0.1453  0.2336
 1046SOL    HW2 3950   6.440   2.014   4.132  0.3711 -1.0393 -1.5756
 1046SOL    HW3 3951   6.294   2.015   4.171  1.2155  1.3718  2.0370
 1046SOL    MW4 3952   6.372   1.976   4.170  0.6660  0.1509  0.2328
 1047SOL     OW 3953   5.521   2.475   2.393  0.4523  1.2716 -0.2074
 1047SOL    HW2 3954   5.526   2.380   2.404  0.8775  1.2124 -0.8539
 1047SOL    HW3 3955   5.552   2.511   2.475 -0.7486  0.8526  0.4582
 1047SOL    MW4 3956   5.526   2.467   2.405  0.3500  1.2085 -0.2049
 1048SOL     OW 3957   3.953   1.579   5.143 -0.6421 -0.1199  0.4999
 1048SOL    HW2 3958   3.896   1.612   5.213 -1.0445 -1.1690  0.6789
 1048SOL    HW3 3959   3.992   1.658   5.105 -0.6261  0.4942  1.7255
 1048SOL    MW4 3960   3.951   1.594   5.148 -0.6930 -0.1773  0.6852
 1049SOL     OW 3961   3.062   5.349   2.387 -0.3406 -0.0319  0.2462
 1049SOL    HW2 3962   2.977   5.307   2.376 -0.9503  1.6741 -2.5282
 1049SOL    HW3 3963   3.118   5.307   2.323 -0.1949  1.4286 -0.6248
 1049SOL    MW4 3964   3.058   5.338   2.377 -0.4018  0.3859 -0.2348
 1050SOL     OW 3965   2.709   6.174   0.713  0.3065 -0.1572  0.0641
 1050SOL    HW2 3966   2.649   6.194   0.641  1.0416 -2.7471 -1.4007
 1050SOL    HW3 3967   2.749   6.090   0.689  1.0344 -0.8651  3.2394
 1050SOL    MW4 3968   2.707   6.165   0.700  0.4996 -0.5923  0.2898
 1051SOL     OW 3969   4.309   3.612   2.725  0.3213  0.4369 -0.2040
 1051SOL    HW2 3970   4.286   3.701   2.753  1.3661  1.0405 -1.1525
 1051SOL    HW3 3971   4.226   3.572   2.701 -0.3601  0.5783  1.7474
 1051SOL    MW4 3972   4.295   3.619   2.726  0.3693  0.5352 -0.0717
 1052SOL     OW 3973   3.731   1.819   3.194  0.1922 -0.3150  0.2604
 1052SOL    HW2 3974   3.805   1.829   3.254  2.1339  0.7190 -2.0988
 1052SOL    HW3 3975   3.721   1.724   3.184  1.3530 -0.4787  0.4818
 1052SOL    MW4 3976   3.740   1.807   3.201  0.6016 -0.2002 -0.0217
 1053SOL     OW 3977   5.861   2.882   4.127 -0.1133 -0.0202  0.2141
 1053SOL    HW2 3978   5.919   2.925   4.065  0.2367 -1.2388 -0.3258
 1053SOL    HW3 3979   5.917   2.862   4.202 -0.5129  1.3612  0.9162
 1053SOL    MW4 3980   5.876   2.885   4.129 -0.1198  0.0013  0.2355
 1054SOL     OW 3981   5.632   1.650   0.924 -0.7137 -0.0678  0.6229
 1054SOL    HW2 3982   5.542   1.630   0.898 -0.7028  0.1878  0.3858
 1054SOL    HW3 3983   5.652   1.733   0.881  0.1591 -0.8544 -0.5527
 1054SOL    MW4 3984   5.623   1.659   0.915 -0.5971 -0.1379  0.4365
 1055SOL     OW 3985   2.955   2.005   1.446 -0.1218  0.1069 -0.6268
 1055SOL    HW2 3986   2.976   1.929   1.499  0.5227  1.0463  0.5237
 1055SOL    HW3 3987   2.927   1.969   1.362  1.5898 -1.3497 -0.6299
 1055SOL    MW4 3988   2.954   1.990   1.442  0.1891  0.0387 -0.4754
 1056SOL     OW 3989   6.037   1.365   5.426 -0.6086 -0.2461 -0.1576
 1056SOL    HW2 3990   5.972   1.310   5.382 -0.5600 -0.0670 -0.4553
 1056SOL    HW3 3991   6.105   1.304   5.455 -0.1326 -0.2582 -1.2335
 1056SOL    MW4 3992   6.038   1.350   5.424 -0.5394 -0.2241 -0.3388
 1057SOL     OW 3993   1.222   3.291   2.454  0.6458 -0.0988  0.3098
 1057SOL    HW2 3994   1.254   3.215   2.502  1.4560  0.3612  0.5077
 1057SOL    HW3 3995   1.191   3.256   2.370  0.6227 -0.6980  0.5699
 1057SOL    MW4 3996   1.222   3.277   2.449  0.7497 -0.1172  0.3702
 1058SOL     OW 3997   1.791   4.958   2.084 -0.5145 -0.5831 -0.1291
 1058SOL    HW2 3998   1.801   4.871   2.046  0.7416 -0.3234 -0.4152
 1058SOL    HW3 3999   1.878   4.982   2.113 -0.7634  0.7513 -0.4209
 1058SOL    MW4 4000   1.804   4.950   2.083 -0.3816 -0.3727 -0.2054
 1059SOL     OW 4001   4.757   5.642   0.120 -0.4173  0.1206 -0.3526
 1059SOL    HW2 4002   4.667   5.632   0.153  0.2729 -0.8263  1.3407
 1059SOL    HW3 4003   4.805   5.681   0.192  0.5546  0.6551 -1.2639
 1059SOL    MW4 4004   4.751   5.646   0.134 -0.1980  0.0662 -0.2494
 1060SOL     OW 4005   2.945   6.398   5.306  0.1884 -0.0057 -0.2913
 1060SOL    HW2 4006   2.997   6.421   5.229  1.2540  1.0372  0.7136
 1060SOL    HW3 4007   2.956   6.471   5.366 -0.6889 -0.7675  0.8460
 1060SOL    MW4 4008   2.953   6.410   5.304  0.2133  0.0314 -0.0087
 1061SOL     OW 4009   4.747   0.235   3.521  0.3136  0.4951 -0.1087
 1061SOL    HW2 4010   4.685   0.170   3.553  1.4076 -0.3482  0.3754
 1061SOL    HW3 4011   4.832   0.191   3.526  0.7690  0.9860 -2.3728
 1061SOL    MW4 4012   4.750   0.221   3.526  0.5180  0.4486 -0.3436
 1062SOL     OW 4013   2.557   5.262   5.240  0.1269 -0.1755  0.2655
 1062SOL    HW2 4014   2.603   5.330   5.191  0.5599  1.0529  2.2364
 1062SOL    HW3 4015   2.624   5.196   5.258  0.2347 -0.1078  0.1175
 1062SOL    MW4 4016   2.572   5.263   5.236  0.1982 -0.0045  0.5060
 1063SOL     OW 4017   1.007   6.189   1.266 -0.2648 -0.5723  0.1085
 1063SOL    HW2 4018   1.035   6.108   1.307  0.4996 -0.1956  0.3509
 1063SOL    HW3 4019   1.067   6.255   1.299 -1.3081  0.2294  0.4524
 1063SOL    MW4 4020   1.018   6.187   1.276 -0.3016 -0.4168  0.1859
 1064SOL     OW 4021   2.658   4.948   4.288 -0.0886  0.7929 -0.2494
 1064SOL    HW2 4022   2.563   4.950   4.278 -0.3454 -3.5605 -0.7101
 1064SOL    HW3 4023   2.691   4.933   4.200  0.5335 -2.1186  0.3727
 1064SOL    MW4 4024   2.650   4.946   4.275 -0.0404 -0.1656 -0.2281
 1065SOL     OW 4025   6.284   0.659   4.746  0.8671 -0.2395  0.2853
 1065SOL    HW2 4026   6.350   0.603   4.705  0.2574 -1.1447  0.5100
 1065SOL    HW3 4027   6.333   0.735   4.779  1.4535  0.2962 -1.6806
 1065SOL    MW4 4028   6.299   0.662   4.745  0.8640 -0.2883  0.0556
 1066SOL     OW 4029   2.099   2.414   3.041  0.7596  0.1739  0.5363
 1066SOL    HW2 4030   2.164   2.482   3.025  1.2435 -0.4447 -0.1764
 1066SOL    HW3 4031   2.035   2.455   3.100  1.0316  1.2437  0.1006
 1066SOL    MW4 4032   2.099   2.428   3.047  0.8594  0.2334  0.3848
 1067SOL     OW 4033   5.559   2.523   3.696 -0.2512  0.0319  0.3258
 1067SOL    HW2 4034   5.560   2.551   3.604  0.1487 -1.4304 -0.1468
 1067SOL    HW3 4035   5.589   2.432   3.693 -1.2628 -0.3704  1.8013
 1067SOL    MW4 4036   5.563   2.515   3.683 -0.3319 -0.2141  0.4581
 1068SOL     OW 4037   0.523   2.762   4.613  0.4483 -0.5047 -0.0184
 1068SOL    HW2 4038   0.605   2.718   4.588 -0.0506 -1.3985 -0.1113
 1068SOL    HW3 4039   0.462   2.691   4.632 -0.2906  0.1544  0.1337
 1068SOL    MW4 4040   0.526   2.747   4.612  0.2850 -0.5356 -0.0106
 1069SOL     OW 4041   4.051   1.385   4.125  0.1232  0.1130 -0.0223
 1069SOL    HW2 4042   4.039   1.334   4.205  0.2897 -1.4939 -0.9730
 1069SOL    HW3 4043   4.120   1.339   4.077  1.6851  2.3459 -0.0889
 1069SOL    MW4 4044   4.058   1.372   4.129  0.3512  0.1956 -0.1565
 1070SOL     OW 4045   5.770   2.123   0.832  0.1837 -0.5184  0.3913
 1070SOL    HW2 4046   5.725   2.181   0.770 -0.8278  0.0905  1.6497
 1070SOL    HW3 4047   5.862   2.126   0.805  0.0003  0.9325 -0.1730
 1070SOL    MW4 4048   5.776   2.131   0.820  0.0260 -0.2466  0.4829
 1071SOL     OW 4049   4.131   0.587   2.305  0.4098 -0.8492  0.2307
 1071SOL    HW2 4050   4.205   0.541   2.345  0.0933 -0.9847  0.6717
 1071SOL    HW3 4051   4.137   0.676   2.340 -0.5933 -1.2884  1.6042
 1071SOL    MW4 4052   4.142   0.592   2.315  0.2357 -0.9250  0.4701
 1072SOL     OW 4053   1.061   2.766   1.284 -0.1493  0.4049 -0.7783
 1072SOL    HW2 4054   1.083   2.744   1.194  1.5449  1.5015 -0.6688
 1072SOL    HW3 4055   0.966   2.752   1.289 -0.5276  1.5699 -3.0988
 1072SOL    MW4 4056   1.051   2.761   1.273  0.0243  0.7033 -1.0700
 1073SOL     OW 4057   1.878   5.974   0.351 -0.8516  0.2351  0.3856
 1073SOL    HW2 4058   1.839   5.934   0.273  0.4434  0.4583 -0.3994
 1073SOL    HW3 4059   1.856   5.913   0.422 -1.1126 -0.5313 -0.3370
 1073SOL    MW4 4060   1.870   5.961   0.350 -0.7152  0.1634  0.1867
 1074SOL     OW 4061   4.979   6.180   2.162 -0.4410  0.1854  0.6484
 1074SOL    HW2 4062   4.890   6.184   2.128 -1.1174  1.3731  2.4313
 1074SOL    HW3 4063   5.017   6.265   2.142  0.0610 -0.0575  0.5391
 1074SOL    MW4 4064   4.972   6.192   2.155 -0.4640  0.3101  0.8692
 1075SOL     OW 4065   1.966   6.263   1.812 -0.0828  0.0150  0.1459
 1075SOL    HW2 4066   2.023   6.318   1.865  0.5817 -1.3378  0.8930
 1075SOL    HW3 4067   1.878   6.297   1.828  0.2385  0.4091  1.1414
 1075SOL    MW4 4068   1.962   6.275   1.821  0.0473 -0.1115  0.3758
 1076SOL     OW 4069   6.071   4.699   1.061  0.7616 -0.0570  0.0777
 1076SOL    HW2 4070   6.037   4.788   1.052  0.6590  0.1066  1.8641
 1076SOL    HW3 4071   6.043   4.671   1.148  0.4129 -2.0191 -0.6187
 1076SOL    MW4 4072   6.063   4.707   1.071  0.7021 -0.2943  0.2215
 1077SOL     OW 4073   1.696   3.345   6.189  0.0020 -0.5207 -0.3075
 1077SOL    HW2 4074   1.670   3.435   6.168  3.7310  0.9163  0.5458
 1077SOL    HW3 4075   1.685   3.337   6.283 -0.4825 -1.0737 -0.4001
 1077SOL    MW4 4076   1.691   3.355   6.198  0.4301 -0.4041 -0.2071
 1078SOL     OW 4077   2.135   1.481   1.111  0.0910 -0.1711  0.5866
 1078SOL    HW2 4078   2.132   1.491   1.016  0.8808 -0.6288  0.5106
 1078SOL    HW3 4079   2.156   1.568   1.144 -0.8302  0.1399  0.3931
 1078SOL    MW4 4080   2.137   1.494   1.103  0.0737 -0.1905  0.5511
 1079SOL     OW 4081   0.693   2.341   5.558 -0.0298  0.3199  0.5490
 1079SOL    HW2 4082   0.749   2.295   5.620 -1.3910 -0.2674  1.3784
 1079SOL    HW3 4083   0.705   2.434   5.579  1.2328  0.2505  0.1729
 1079SOL    MW4 4084   0.702   2.347   5.569 -0.0428  0.2332  0.6088
 1080SOL     OW 4085   0.756   2.172   1.853 -0.3369  0.2297  0.3412
 1080SOL    HW2 4086   0.838   2.207   1.820 -0.0731 -0.5940  0.0895
 1080SOL    HW3 4087   0.689   2.235   1.825 -0.1961 -0.6192 -2.2061
 1080SOL    MW4 4088   0.758   2.185   1.845 -0.2835  0.0090 -0.0281
 1081SOL     OW 4089   0.801   5.389   5.775 -0.2063  0.6830 -0.1243
 1081SOL    HW2 4090   0.737   5.459   5.760 -1.0744  0.3633  1.7909
 1081SOL    HW3 4091   0.762   5.335   5.844  1.4054 -0.4710 -0.0561
 1081SOL    MW4 4092   0.787   5.391   5.782 -0.1082  0.4885  0.1374
 1082SOL     OW 4093   6.027   0.189   5.374  0.7128  0.5629  0.4306
 1082SOL    HW2 4094   6.092   0.138   5.326  0.0088  1.1425 -1.2382
 1082SOL    HW3 4095   5.978   0.124   5.424  1.2184 -0.1286  0.0479
 1082SOL    MW4 4096   6.029   0.174   5.374  0.6866  0.5481  0.1599
 1083SOL     OW 4097   2.277   5.987   5.628 -0.1376 -0.2009 -0.1169
 1083SOL    HW2 4098   2.301   5.931   5.702 -1.7682  0.4987  1.0088
 1083SOL    HW3 4099   2.183   6.002   5.639  0.1084  2.2170 -0.7323
 1083SOL    MW4 4100   2.267   5.982   5.639 -0.3203  0.2104 -0.0495
 1084SOL     OW 4101   5.387   2.405   1.602 -0.1389 -0.6076  0.2305
 1084SOL    HW2 4102   5.372   2.338   1.668  1.0552 -1.7094 -0.5714
 1084SOL    HW3 4103   5.356   2.366   1.520  1.8867 -0.8030 -0.4998
 1084SOL    MW4 4104   5.380   2.391   1.600  0.2859 -0.7787  0.0284
 1085SOL     OW 4105   5.380   5.731   1.194  0.3143 -0.6026  0.2907
 1085SOL    HW2 4106   5.378   5.820   1.230 -0.4733 -0.0155 -1.1014
 1085SOL    HW3 4107   5.466   5.697   1.219  0.9504  0.8459  0.2114
 1085SOL    MW4 4108   5.391   5.738   1.202  0.2943 -0.3340  0.0966
 1086SOL     OW 4109   4.884   0.146   3.955  0.0502 -0.2240  0.0523
 1086SOL    HW2 4110   4.834   0.192   4.023 -0.4884  1.3996 -1.3422
 1086SOL    HW3 4111   4.934   0.080   4.002 -1.1583  0.0779  1.8731
 1086SOL    MW4 4112   4.884   0.144   3.970 -0.1803  0.0300  0.1085
 1087SOL     OW 4113   6.392   3.280   5.010  0.2582 -0.1119  0.4949
 1087SOL    HW2 4114   6.375   3.357   4.956  0.2665 -0.5966 -0.2132
 1087SOL    HW3 4115   6.483   3.291   5.038  0.9154 -0.7880 -1.2026
 1087SOL    MW4 4116   6.402   3.291   5.007  0.3460 -0.2651  0.1775
 1088SOL     OW 4117   5.072   2.779   0.249 -0.0380 -0.1011 -0.6258
 1088SOL    HW2 4118   5.082   2.813   0.160  0.4429  2.0840  0.2097
 1088SOL    HW3 4119   4.978   2.779   0.264 -0.0382  2.1903 -0.2341
 1088SOL    MW4 4120   5.061   2.783   0.239  0.0254  0.4895 -0.4639
 1089SOL     OW 4121   0.176   2.617   0.925  0.2277  0.3635 -0.6511
 1089SOL    HW2 4122   0.129   2.556   0.868 -1.3694 -0.8820  1.8277
 1089SOL    HW3 4123   0.262   2.578   0.937  0.0096 -0.2029 -0.9093
 1089SOL    MW4 4124   0.181   2.604   0.919 -0.0118  0.1244 -0.3581
 1090SOL     OW 4125   3.149   5.152   4.553 -0.0437 -0.1868  0.2432
 1090SOL    HW2 4126   3.135   5.060   4.576  0.4139  0.1797  2.1641
 1090SOL    HW3 4127   3.069   5.196   4.582 -0.3219  0.0216 -0.8013
 1090SOL    MW4 4128   3.137   5.145   4.560 -0.0200 -0.1110  0.3588
 1091SOL     OW 4129   0.304   1.783   4.410 -0.4826 -0.5384 -0.0146
 1091SOL    HW2 4130   0.305   1.878   4.397  1.2753 -0.5232 -0.1032
 1091SOL    HW3 4131   0.267   1.748   4.329 -0.1717  0.0350 -0.4113
 1091SOL    MW4 4132   0.299   1.791   4.397 -0.2096 -0.4608 -0.0786
 1092SOL     OW 4133   2.399   0.648   1.049  0.3524  0.5741  0.2571
 1092SOL    HW2 4134   2.324   0.628   0.994  1.4956 -0.4467 -0.9834
 1092SOL    HW3 4135   2.364   0.644   1.139 -1.0336  0.0255 -0.2766
 1092SOL    MW4 4136   2.384   0.645   1.054  0.3204  0.3671  0.0230
 1093SOL     OW 4137   0.466   1.034   4.793  0.6006  0.6488 -0.1160
 1093SOL    HW2 4138   0.539   1.090   4.818  0.6950  0.5611 -0.1942
 1093SOL    HW3 4139   0.483   1.012   4.701  0.7251  0.2516 -0.0003
 1093SOL    MW4 4140   0.478   1.038   4.784  0.6295  0.5848 -0.1110
 1094SOL     OW 4141   4.022   3.798   2.477  0.0365 -0.2756 -0.3504
 1094SOL    HW2 4142   4.009   3.715   2.523  0.7198  0.1994  0.7291
 1094SOL    HW3 4143   3.943   3.849   2.497  0.9591  0.4727  1.5227
 1094SOL    MW4 4144   4.010   3.794   2.485  0.2483 -0.1142  0.0392
 1095SOL     OW 4145   0.702   3.694   1.205 -0.3474  0.0012 -0.0903
 1095SOL    HW2 4146   0.608   3.681   1.211 -0.3557 -0.8367 -1.6869
 1095SOL    HW3 4147   0.714   3.789   1.218 -1.4434  0.1842 -0.3663
 1095SOL    MW4 4148   0.691   3.705   1.207 -0.4931 -0.0852 -0.3374
 1096SOL     OW 4149   2.149   2.672   0.987 -0.0384 -0.3516  0.1592
 1096SOL    HW2 4150   2.188   2.741   1.041  1.5908 -0.6517 -0.5900
 1096SOL    HW3 4151   2.222   2.632   0.941 -1.3663  0.0572 -2.5226
 1096SOL    MW4 4152   2.163   2.676   0.988  0.0013 -0.3372 -0.2935
 1097SOL     OW 4153   0.082   5.357   4.351 -0.4116  0.0588 -0.5050
 1097SOL    HW2 4154   0.136   5.351   4.430 -0.1204  1.5472 -0.5580
 1097SOL    HW3 4155   0.007   5.300   4.369  1.1374 -2.0606 -0.4379
 1097SOL    MW4 4156   0.079   5.349   4.364 -0.1688 -0.0245 -0.5031
 1098SOL     OW 4157   3.043   4.928   0.153 -0.0319  0.3587 -0.2902
 1098SOL    HW2 4158   3.009   4.843   0.181 -0.6678  0.7709  0.1870
 1098SOL    HW3 4159   2.967   4.986   0.152  0.0419  0.5066 -2.3297
 1098SOL    MW4 4160   3.028   4.924   0.156 -0.1061  0.4326 -0.4963
 1099SOL     OW 4161   2.326   2.602   2.973 -0.4374 -0.2678  0.3356
 1099SOL    HW2 4162   2.320   2.649   3.057  0.4082  1.4377 -0.5084
 1099SOL    HW3 4163   2.339   2.671   2.908  1.3903 -1.7155 -0.9297
 1099SOL    MW4 4164   2.327   2.618   2.976 -0.0847 -0.2338  0.0573
 1100SOL     OW 4165   2.462   2.023   2.181  0.6096  0.0742 -0.4468
 1100SOL    HW2 4166   2.518   2.081   2.131  0.2879 -0.9990 -2.1580
 1100SOL    HW3 4167   2.407   2.081   2.233  1.6457  1.2095 -0.5823
 1100SOL    MW4 4168   2.462   2.038   2.181  0.7039  0.0824 -0.6904
 1101SOL     OW 4169   1.573   5.882   0.288 -0.0820  0.2344  0.2125
 1101SOL    HW2 4170   1.532   5.898   0.203  0.9194 -2.3503 -0.8575
 1101SOL    HW3 4171   1.499   5.876   0.349 -0.8294  1.9453 -0.4289
 1101SOL    MW4 4172   1.558   5.884   0.285 -0.0485  0.1191 -0.0133
 1102SOL     OW 4173   1.303   3.325   0.551  0.6732 -0.1711 -0.3000
 1102SOL    HW2 4174   1.236   3.266   0.516  0.6081 -0.9332  1.0427
 1102SOL    HW3 4175   1.361   3.342   0.477 -0.4386 -0.2976 -1.2265
 1102SOL    MW4 4176   1.301   3.319   0.537  0.5179 -0.2884 -0.2451
 1103SOL     OW 4177   1.855   1.267   0.502 -0.4227 -0.2415 -0.1029
 1103SOL    HW2 4178   1.908   1.281   0.424  0.4961  0.3584  0.6004
 1103SOL    HW3 4179   1.880   1.180   0.533 -0.7993 -0.4865 -0.4663
 1103SOL    MW4 4180   1.865   1.257   0.496 -0.3512 -0.1947 -0.0580
 1104SOL     OW 4181   1.274   0.427   0.500 -0.1129 -0.4025  0.3154
 1104SOL    HW2 4182   1.233   0.340   0.496  1.0956 -0.9764 -0.2792
 1104SOL    HW3 4183   1.277   0.456   0.409 -2.0144  1.0369  0.6623
 1104SOL    MW4 4184   1.269   0.419   0.488 -0.2043 -0.2883  0.2827
 1105SOL     OW 4185   0.772   0.554   2.732 -0.6088  0.4501  0.2383
 1105SOL    HW2 4186   0.677   0.544   2.731 -0.5770  0.1543 -0.1761
 1105SOL    HW3 4187   0.804   0.477   2.686 -0.1792  0.6754  0.1577
 1105SOL    MW4 4188   0.764   0.542   2.726 -0.5480  0.4408  0.1730
 1106SOL     OW 4189   1.833   1.634   6.023  0.3172  0.0888 -0.4771
 1106SOL    HW2 4190   1.842   1.583   5.943  1.6931  0.1274 -0.3766
 1106SOL    HW3 4191   1.866   1.721   6.000 -0.9022  0.6155 -0.3234
 1106SOL    MW4 4192   1.838   1.639   6.009  0.3379  0.1634 -0.4436
 1107SOL     OW 4193   1.603   2.824   2.887  0.4104  0.5486  0.1637
 1107SOL    HW2 4194   1.594   2.903   2.832 -1.9193  0.0796 -0.2610
 1107SOL    HW3 4195   1.633   2.756   2.826  2.5483  1.0794  0.5566
 1107SOL    MW4 4196   1.606   2.826   2.871  0.3851  0.5567  0.1595
 1108SOL     OW 4197   2.817   3.579   5.707 -0.2116  0.0088 -0.1012
 1108SOL    HW2 4198   2.821   3.506   5.645 -1.8891 -2.7020  2.6451
 1108SOL    HW3 4199   2.906   3.588   5.739 -0.3604 -3.0298  1.5862
 1108SOL    MW4 4200   2.829   3.570   5.703 -0.4526 -0.7497  0.4838
 1109SOL     OW 4201   3.326   4.384   4.674 -0.6435  0.2849 -0.2271
 1109SOL    HW2 4202   3.402   4.440   4.684 -1.2032  1.0012  0.0668
 1109SOL    HW3 4203   3.298   4.365   4.763 -0.3523 -0.6279 -0.3143
 1109SOL    MW4 4204   3.332   4.389   4.687 -0.6789  0.2590 -0.1998
 1110SOL     OW 4205   1.611   0.934   0.388 -0.2936 -0.0689 -0.1439
 1110SOL    HW2 4206   1.632   0.969   0.475  0.4047  1.2884 -0.8251
 1110SOL    HW3 4207   1.696   0.907   0.352 -0.6697 -1.2937 -0.1346
 1110SOL    MW4 4208   1.625   0.935   0.395 -0.2511 -0.0515 -0.2325
 1111SOL     OW 4209   5.690   3.406   5.812  0.1708 -0.3862  0.2754
 1111SOL    HW2 4210   5.623   3.468   5.782 -0.1653 -0.8795 -0.0060
 1111SOL    HW3 4211   5.657   3.321   5.785  1.7852 -0.5057 -1.5511
 1111SOL    MW4 4212   5.677   3.403   5.805  0.3394 -0.4671 -0.0027
 1112SOL     OW 4213   0.043   3.242   5.932 -0.3569  0.0260 -0.0899
 1112SOL    HW2 4214   0.110   3.178   5.957 -0.4705 -0.0754 -0.0439
 1112SOL    HW3 4215   0.074   3.324   5.969 -1.0393 -0.3119  1.2979
 1112SOL    MW4 4216   0.056   3.244   5.940 -0.4619 -0.0319  0.0992
 1113SOL     OW 4217   0.408   4.924   4.594 -0.2362  0.1588 -0.2697
 1113SOL    HW2 4218   0.319   4.924   4.559  0.5475 -1.0496 -2.4604
 1113SOL    HW3 4219   0.455   4.987   4.540  0.2570  0.8802  0.9444
 1113SOL    MW4 4220   0.403   4.933   4.582 -0.0677  0.0946 -0.3986
 1114SOL     OW 4221   3.819   1.210   4.027  0.5879  0.0587  0.0298
 1114SOL    HW2 4222   3.894   1.157   4.000  0.7859  0.8609 -1.0348
 1114SOL    HW3 4223   3.743   1.161   3.996  0.6909 -0.4020  0.4872
 1114SOL    MW4 4224   3.819   1.196   4.019  0.6276  0.1037 -0.0503
 1115SOL     OW 4225   5.293   0.439   1.624 -0.1042  0.4702  0.0592
 1115SOL    HW2 4226   5.322   0.490   1.548 -0.5804 -0.9894 -1.1559
 1115SOL    HW3 4227   5.208   0.478   1.647  0.3537  1.3602  0.3054
 1115SOL    MW4 4228   5.285   0.451   1.617 -0.1066  0.3951 -0.0686
 1116SOL     OW 4229   4.261   3.354   3.075  0.1030 -0.7371 -0.1024
 1116SOL    HW2 4230   4.357   3.361   3.078 -0.0061  0.5157  1.6108
 1116SOL    HW3 4231   4.230   3.411   3.146 -1.9800  0.1274 -1.5915
 1116SOL    MW4 4232   4.270   3.363   3.085 -0.1862 -0.4577 -0.0728
 1117SOL     OW 4233   0.947   0.694   3.338  0.0872  0.1732  0.1526
 1117SOL    HW2 4234   0.973   0.785   3.350  1.6670  0.1572 -2.3610
 1117SOL    HW3 4235   1.020   0.643   3.375 -0.5637 -0.0970  1.1053
 1117SOL    MW4 4236   0.960   0.699   3.345  0.2097  0.1355 -0.0533
 1118SOL     OW 4237   2.918   5.115   4.191 -0.5309 -0.5266  0.4340
 1118SOL    HW2 4238   2.925   5.196   4.243 -0.8710 -1.6786  2.3715
 1118SOL    HW3 4239   2.919   5.045   4.256 -1.9466 -2.0274 -1.0791
 1118SOL    MW4 4240   2.919   5.117   4.206 -0.7626 -0.8766  0.4900
 1119SOL     OW 4241   4.404   2.985   1.058  0.3572 -0.2066  0.1379
 1119SOL    HW2 4242   4.492   3.022   1.058  0.8207 -1.2730  0.7232
 1119SOL    HW3 4243   4.398   2.937   0.975 -0.5138  1.7271 -0.9808
 1119SOL    MW4 4244   4.415   2.984   1.047  0.3034 -0.0922  0.0675
 1120SOL     OW 4245   1.092   1.015   4.147  0.1996  0.5368  0.6860
 1120SOL    HW2 4246   1.085   1.049   4.236 -0.8856  0.4263  0.6599
 1120SOL    HW3 4247   1.001   1.006   4.118  0.5419  0.9116 -0.5596
 1120SOL    MW4 4248   1.079   1.019   4.155  0.1016  0.5716  0.5182
 1121SOL     OW 4249   3.174   5.343   2.983 -0.7701 -0.2735 -0.0771
 1121SOL    HW2 4250   3.144   5.413   2.925 -0.2366  0.4465  0.4922
 1121SOL    HW3 4251   3.269   5.342   2.972 -0.8658 -1.9477 -1.2199
 1121SOL    MW4 4252   3.183   5.352   2.974 -0.7123 -0.3994 -0.1528
 1122SOL     OW 4253   1.322   1.528   4.151 -0.0216 -0.6685  0.4187
 1122SOL    HW2 4254   1.332   1.620   4.130 -0.3523 -0.9070 -0.8933
 1122SOL    HW3 4255   1.341   1.522   4.244  1.1577  0.5375  0.2786
 1122SOL    MW4 4256   1.326   1.539   4.160  0.0904 -0.5408  0.2271
 1123SOL     OW 4257   0.181   3.465   1.898  0.0828 -0.6709  0.1959
 1123SOL    HW2 4258   0.102   3.430   1.939 -0.0041 -0.1721  0.4673
 1123SOL    HW3 4259   0.215   3.528   1.961 -1.3601  1.9311 -1.4004
 1123SOL    MW4 4260   0.175   3.469   1.911 -0.1191 -0.2618  0.0211
 1124SOL     OW 4261   5.659   3.673   5.385  0.1538  0.2078  0.2530
 1124SOL    HW2 4262   5.701   3.697   5.303  3.2050  0.7285  1.8181
 1124SOL    HW3 4263   5.606   3.597   5.363  0.4897  0.6069 -2.2601
 1124SOL    MW4 4264   5.657   3.666   5.371  0.6007  0.3292  0.1279
 1125SOL     OW 4265   6.143   1.520   1.086  0.4789  0.5046 -0.3722
 1125SOL    HW2 4266   6.163   1.495   0.995  0.9872  0.3846 -0.2311
 1125SOL    HW3 4267   6.056   1.560   1.081 -0.2860 -1.0963 -0.6420
 1125SOL    MW4 4268   6.134   1.522   1.073  0.4451  0.2776 -0.3892
 1126SOL     OW 4269   3.714   1.870   1.198 -0.1059  0.5846 -0.2985
 1126SOL    HW2 4270   3.645   1.863   1.133 -1.2213 -1.7710  1.0240
 1126SOL    HW3 4271   3.676   1.923   1.268 -0.3968 -0.2658  0.1947
 1126SOL    MW4 4272   3.700   1.876   1.199 -0.2914  0.1616 -0.0589
 1127SOL     OW 4273   4.539   4.442   0.040  0.2681 -0.3370  0.1307
 1127SOL    HW2 4274   4.573   4.353   0.046 -0.2276 -0.4956  0.7754
 1127SOL    HW3 4275   4.488   4.443  -0.041 -0.1172 -0.7874  0.3616
 1127SOL    MW4 4276   4.537   4.431   0.030  0.1519 -0.4173  0.2462
 1128SOL     OW 4277   0.933   3.573   5.255 -0.6078  0.1029 -0.2229
 1128SOL    HW2 4278   1.024   3.577   5.282 -1.0002  0.0022  1.2026
 1128SOL    HW3 4279   0.932   3.608   5.166  0.6498  1.1991  0.1782
 1128SOL    MW4 4280   0.945   3.578   5.247 -0.4937  0.2342  0.0181
 1129SOL     OW 4281   5.250   1.641   4.428 -0.4053 -0.3643 -0.1097
 1129SOL    HW2 4282   5.208   1.591   4.498 -0.5761 -0.4060 -0.2429
 1129SOL    HW3 4283   5.237   1.733   4.453 -1.8107 -0.3342 -0.8664
 1129SOL    MW4 4284   5.243   1.646   4.441 -0.6132 -0.3658 -0.2271
 1130SOL     OW 4285   0.887   3.180   0.076  0.0089  0.1174 -0.2994
 1130SOL    HW2 4286   0.905   3.186  -0.018  1.5324 -0.4110 -0.0564
 1130SOL    HW3 4287   0.968   3.208   0.118 -0.8916  1.0457  0.8864
 1130SOL    MW4 4288   0.900   3.184   0.069  0.0911  0.1702 -0.1109
 1131SOL     OW 4289   1.712   5.231   4.791 -0.0609 -0.4804  0.1080
 1131SOL    HW2 4290   1.657   5.304   4.760  1.0089  0.2204 -0.1955
 1131SOL    HW3 4291   1.719   5.173   4.715  0.7591  0.1419 -0.3125
 1131SOL    MW4 4292   1.706   5.233   4.777  0.1885 -0.3058  0.0125
 1132SOL     OW 4293   1.412   3.723   0.765 -0.3123  0.2492  0.2962
 1132SOL    HW2 4294   1.452   3.736   0.850 -1.2122 -0.4256  0.8530
 1132SOL    HW3 4295   1.335   3.668   0.783  0.5649 -1.5914 -1.1910
 1132SOL    MW4 4296   1.407   3.717   0.778 -0.3153 -0.0827  0.1735
 1133SOL     OW 4297   3.298   4.626   3.438  0.1233  0.1653  0.3597
 1133SOL    HW2 4298   3.205   4.648   3.439  0.1432  0.2519  2.0141
 1133SOL    HW3 4299   3.300   4.532   3.454  0.2816 -0.1445 -1.2806
 1133SOL    MW4 4300   3.286   4.616   3.440  0.1468  0.1359  0.3615
 1134SOL     OW 4301   1.990   1.704   4.317  0.5245  0.2669 -0.7819
 1134SOL    HW2 4302   1.981   1.609   4.332  0.4381  0.1974 -1.2640
 1134SOL    HW3 4303   1.992   1.741   4.405  1.1020 -0.2326 -0.5731
 1134SOL    MW4 4304   1.989   1.696   4.331  0.5893  0.1918 -0.8180
 1135SOL     OW 4305   1.755   5.769   3.352  0.0613 -0.0579 -0.3055
 1135SOL    HW2 4306   1.701   5.808   3.421 -0.3882 -0.0705 -0.6400
 1135SOL    HW3 4307   1.719   5.805   3.271 -2.1609 -3.0973 -0.8674
 1135SOL    MW4 4308   1.743   5.779   3.350 -0.2912 -0.4606 -0.4238
 1136SOL     OW 4309   0.673   6.199   0.824  0.4012 -0.0818  0.4770
 1136SOL    HW2 4310   0.624   6.264   0.874  1.4651  0.5386  0.7510
 1136SOL    HW3 4311   0.747   6.176   0.881  1.8242  0.8775 -0.9060
 1136SOL    MW4 4312   0.677   6.204   0.838  0.7293  0.1266  0.3307
 1137SOL     OW 4313   3.702   2.444   3.153  0.3323 -0.4318 -0.1024
 1137SOL    HW2 4314   3.726   2.405   3.237  0.8082  0.1965  0.0620
 1137SOL    HW3 4315   3.783   2.486   3.123 -0.4961  1.5837  0.3645
 1137SOL    MW4 4316   3.716   2.444   3.160  0.2858 -0.0829 -0.0191
 1138SOL     OW 4317   4.783   0.973   2.321  0.8614 -0.4347  0.4595
 1138SOL    HW2 4318   4.790   0.886   2.283  0.4614 -0.0387 -0.5749
 1138SOL    HW3 4319   4.689   0.987   2.332  0.9497 -0.3317  1.0908
 1138SOL    MW4 4320   4.771   0.963   2.317  0.8202 -0.3688  0.4063
 1139SOL     OW 4321   2.219   1.633   3.916  0.5942 -0.6466 -0.3407
 1139SOL    HW2 4322   2.315   1.625   3.915  0.7715  0.7548  1.1573
 1139SOL    HW3 4323   2.203   1.725   3.899 -0.4319 -0.6187  0.6881
 1139SOL    MW4 4324   2.230   1.644   3.913  0.4822 -0.4580 -0.0073
 1140SOL     OW 4325   1.160   0.033   1.723  0.0624 -0.2851 -0.1733
 1140SOL    HW2 4326   1.214   0.106   1.753  0.2977  0.3998 -2.1713
 1140SOL    HW3 4327   1.085   0.074   1.681 -1.3442 -1.2369  1.2790
 1140SOL    MW4 4328   1.158   0.048   1.722 -0.0922 -0.3203 -0.2453
 1141SOL     OW 4329   0.118   0.936   1.968  0.3315 -0.2717  0.4401
 1141SOL    HW2 4330   0.069   0.853   1.969  0.8324 -0.5851 -0.0813
 1141SOL    HW3 4331   0.183   0.926   2.038  1.0745 -0.7546 -0.3041
 1141SOL    MW4 4332   0.120   0.923   1.978  0.4956 -0.3768  0.2732
 1142SOL     OW 4333   0.852   3.261   1.303  0.1686 -0.2193  0.2079
 1142SOL    HW2 4334   0.878   3.331   1.362 -1.9199 -0.8767  2.0452
 1142SOL    HW3 4335   0.920   3.194   1.314  2.3045  1.4471 -1.7316
 1142SOL    MW4 4336   0.864   3.261   1.312  0.1748 -0.0861  0.1944
 1143SOL     OW 4337   4.296   4.962   4.951  0.8261  0.5995 -0.1977
 1143SOL    HW2 4338   4.324   5.003   4.869  0.3309  0.5348 -0.4070
 1143SOL    HW3 4339   4.208   4.997   4.966  1.4948  1.8288  1.1421
 1143SOL    MW4 4340   4.288   4.972   4.942  0.8490  0.7531 -0.0485
 1144SOL     OW 4341   4.246   2.776   3.966  0.7509 -0.7999 -0.5413
 1144SOL    HW2 4342   4.291   2.693   3.950  1.4832  0.0420 -3.5367
 1144SOL    HW3 4343   4.266   2.829   3.889  0.4090  2.2425  1.3016
 1144SOL    MW4 4344   4.255   2.772   3.953  0.8024 -0.2874 -0.6934
 1145SOL     OW 4345   3.961   5.750   5.709  0.3898 -0.2046  0.3630
 1145SOL    HW2 4346   3.930   5.662   5.728  0.7319 -0.8593 -1.8084
 1145SOL    HW3 4347   3.885   5.794   5.670  0.8090 -0.2578 -0.5365
 1145SOL    MW4 4348   3.947   5.744   5.706  0.4903 -0.2980 -0.0421
 1146SOL     OW 4349   4.157   0.138   1.818  0.1149  0.0300  0.0547
 1146SOL    HW2 4350   4.182   0.066   1.760 -0.8330  0.1930 -0.5823
 1146SOL    HW3 4351   4.113   0.095   1.891 -0.9082 -0.0267 -0.5717
 1146SOL    MW4 4352   4.154   0.123   1.820 -0.1451  0.0440 -0.1120
 1147SOL     OW 4353   3.091   0.317   0.329  0.7371 -0.1935 -0.0753
 1147SOL    HW2 4354   3.059   0.323   0.239  0.9544  0.6306 -0.1016
 1147SOL    HW3 4355   3.112   0.224   0.340  0.7008 -0.3044 -0.8717
 1147SOL    MW4 4356   3.090   0.305   0.319  0.7609 -0.0994 -0.1838
 1148SOL     OW 4357   4.860   3.111   1.225  0.3054  0.6376 -0.1161
 1148SOL    HW2 4358   4.895   3.023   1.238  0.5676  0.8236  0.4617
 1148SOL    HW3 4359   4.838   3.142   1.313 -0.9711  0.6725 -0.4220
 1148SOL    MW4 4360   4.862   3.104   1.238  0.1715  0.6667 -0.0802
 1149SOL     OW 4361   5.276   5.216   0.469 -0.5781 -0.0885  0.1262
 1149SOL    HW2 4362   5.300   5.124   0.482 -1.6077 -0.6412 -1.5830
 1149SOL    HW3 4363   5.343   5.265   0.517  1.9753 -1.6416 -1.5755
 1149SOL    MW4 4364   5.288   5.210   0.477 -0.3770 -0.3663 -0.3238
 1150SOL     OW 4365   2.260   4.617   3.054  0.2732  0.1747  0.1935
 1150SOL    HW2 4366   2.191   4.599   3.118  0.9802 -1.1517  0.6117
 1150SOL    HW3 4367   2.229   4.695   3.007 -0.6839  0.6358  1.5249
 1150SOL    MW4 4368   2.246   4.625   3.056  0.2402  0.0605  0.4243
 1151SOL     OW 4369   1.872   3.250   2.803 -0.1106 -0.6364  0.1270
 1151SOL    HW2 4370   1.934   3.323   2.800  0.0284 -0.6617  1.5878
 1151SOL    HW3 4371   1.926   3.173   2.818 -0.2989 -1.0006 -0.9717
 1151SOL    MW4 4372   1.887   3.250   2.805 -0.1171 -0.6878  0.1748
 1152SOL     OW 4373   3.158   2.802   3.817  0.9109  0.2888 -0.3886
 1152SOL    HW2 4374   3.177   2.867   3.885  0.2811 -1.2109  1.3020
 1152SOL    HW3 4375   3.239   2.753   3.807  0.5698 -0.4599  0.4116
 1152SOL    MW4 4376   3.171   2.804   3.825  0.7828 -0.0079 -0.0600
 1153SOL     OW 4377   0.210   2.672   0.535 -0.1757 -0.0580 -0.5503
 1153SOL    HW2 4378   0.150   2.695   0.605 -1.4880  0.9317 -1.9199
 1153SOL    HW3 4379   0.185   2.730   0.462  1.1058 -1.0316 -1.8244
 1153SOL    MW4 4380   0.198   2.683   0.534 -0.1798 -0.0559 -0.8991
 1154SOL     OW 4381   4.086   0.084   4.297  0.3578  0.6675  0.0981
 1154SOL    HW2 4382   4.164   0.049   4.340 -0.0956  0.0398  0.4255
 1154SOL    HW3 4383   4.119   0.137   4.225  1.0950  0.7203  0.4717
 1154SOL    MW4 4384   4.100   0.086   4.293  0.3953  0.5916  0.1906
 1155SOL     OW 4385   3.506   3.160   3.723  0.4576 -0.0750  0.7680
 1155SOL    HW2 4386   3.533   3.104   3.795  0.5465 -0.6798  0.2736
 1155SOL    HW3 4387   3.418   3.132   3.701  0.3316  0.2806  0.8052
 1155SOL    MW4 4388   3.498   3.149   3.729  0.4527 -0.1079  0.7077
 1156SOL     OW 4389   6.398   4.891   1.947 -0.1887 -0.2239 -0.2904
 1156SOL    HW2 4390   6.382   4.985   1.948  0.4456 -0.1124  0.2309
 1156SOL    HW3 4391   6.365   4.860   2.031 -0.4110 -0.4703 -0.4679
 1156SOL    MW4 4392   6.391   4.899   1.958 -0.1344 -0.2417 -0.2450
 1157SOL     OW 4393   5.627   0.867   2.285 -0.1271 -0.3169 -0.3894
 1157SOL    HW2 4394   5.668   0.925   2.349 -0.0190 -0.1123 -0.6387
 1157SOL    HW3 4395   5.538   0.901   2.276  0.1386  0.2411 -1.0371
 1157SOL    MW4 4396   5.621   0.879   2.292 -0.0778 -0.2163 -0.5077
 1158SOL     OW 4397   4.826   4.724   0.484  0.0079  0.5078 -0.0646
 1158SOL    HW2 4398   4.861   4.727   0.395  1.3768  1.5220  0.4771
 1158SOL    HW3 4399   4.830   4.632   0.508 -0.6879  0.1738 -1.1587
 1158SOL    MW4 4400   4.831   4.712   0.476  0.0967  0.5976 -0.1375
 1159SOL     OW 4401   1.678   2.406   2.966  0.2331 -0.2030 -0.3192
 1159SOL    HW2 4402   1.592   2.410   2.924 -0.4870  1.3739  1.2028
 1159SOL    HW3 4403   1.727   2.478   2.926  1.2248 -1.6481 -1.8450
 1159SOL    MW4 4404   1.673   2.416   2.955  0.2689 -0.1856 -0.3197
 1160SOL     OW 4405   2.490   0.409   4.508  0.0904 -0.3775 -0.3996
 1160SOL    HW2 4406   2.441   0.418   4.426 -0.0287 -1.5878 -0.4744
 1160SOL    HW3 4407   2.473   0.491   4.555 -2.3706 -0.8862 -0.2422
 1160SOL    MW4 4408   2.481   0.421   4.504 -0.2500 -0.6043 -0.3887
 1161SOL     OW 4409   5.978   5.902   5.168 -0.5945 -0.2170  0.5067
 1161SOL    HW2 4410   6.057   5.919   5.118 -0.9305  0.1267  0.0794
 1161SOL    HW3 4411   5.998   5.930   5.257 -0.9228  1.8821 -0.0380
 1161SOL    MW4 4412   5.991   5.908   5.173 -0.6822  0.1053  0.3784
 1162SOL     OW 4413   2.512   5.924   4.216  0.5065 -0.1380 -0.7369
 1162SOL    HW2 4414   2.588   5.966   4.174  1.0165 -1.2962 -0.9921
 1162SOL    HW3 4415   2.520   5.949   4.308  0.2712  1.0913 -1.0251
 1162SOL    MW4 4416   2.523   5.933   4.223  0.5427 -0.1286 -0.8086
 1163SOL     OW 4417   4.536   4.585   0.706  0.4129  0.1002  0.3880
 1163SOL    HW2 4418   4.460   4.616   0.755 -0.3316 -1.5607  0.3488
 1163SOL    HW3 4419   4.526   4.623   0.619  0.1933  0.7263  0.6778
 1163SOL    MW4 4420   4.525   4.594   0.701  0.2857 -0.0364  0.4211
 1164SOL     OW 4421   0.699   1.268   2.792  0.3166  0.2095 -0.2365
 1164SOL    HW2 4422   0.778   1.284   2.740 -1.0220 -0.6545 -2.6719
 1164SOL    HW3 4423   0.704   1.175   2.813 -0.1028  0.1330 -0.4793
 1164SOL    MW4 4424   0.710   1.258   2.788  0.0846  0.0854 -0.5899
 1165SOL     OW 4425   0.611   3.140   0.179  0.6706  0.1311  0.3735
 1165SOL    HW2 4426   0.545   3.209   0.179  0.4416 -0.0765  1.3622
 1165SOL    HW3 4427   0.687   3.180   0.137  0.6194  1.0619  1.1406
 1165SOL    MW4 4428   0.612   3.154   0.173  0.6336  0.2265  0.6051
 1166SOL     OW 4429   5.162   4.114   1.590  0.3654 -0.0135  0.1899
 1166SOL    HW2 4430   5.141   4.028   1.627  0.2891 -0.1453 -0.1535
 1166SOL    HW3 4431   5.251   4.105   1.557 -0.0546 -0.3395 -0.9235
 1166SOL    MW4 4432   5.171   4.101   1.590  0.2999 -0.0739 -0.0023
 1167SOL     OW 4433   3.130   3.526   6.375 -0.0698  0.2190 -0.0028
 1167SOL    HW2 4434   3.052   3.482   6.340  1.8389 -2.6760 -1.0573
 1167SOL    HW3 4435   3.127   3.509   6.469 -0.0287 -1.1778 -0.2301
 1167SOL    MW4 4436   3.120   3.518   6.383  0.1874 -0.3473 -0.1719
 1168SOL     OW 4437   3.068   5.900   5.667  0.0180  0.3244  0.7886
 1168SOL    HW2 4438   3.092   5.972   5.725 -0.0092 -0.0230  1.2345
 1168SOL    HW3 4439   3.057   5.825   5.725 -0.9211  0.1840  0.4473
 1168SOL    MW4 4440   3.070   5.899   5.682 -0.1095  0.2600  0.8024
 1169SOL     OW 4441   2.608   6.080   5.461  0.1523  0.1228  0.4753
 1169SOL    HW2 4442   2.549   6.107   5.390 -0.8333 -1.5287  0.6100
 1169SOL    HW3 4443   2.695   6.103   5.429 -0.2571 -0.6053 -1.3280
 1169SOL    MW4 4444   2.612   6.087   5.447 -0.0317 -0.1912  0.2552
 1170SOL     OW 4445   0.981   1.140   5.493  0.2825  0.0999  0.0238
 1170SOL    HW2 4446   1.010   1.194   5.419  0.6327  1.4771  1.1197
 1170SOL    HW3 4447   0.886   1.141   5.488  0.2651 -2.0504 -1.9150
 1170SOL    MW4 4448   0.972   1.147   5.483  0.3264 -0.0021 -0.0874
 1171SOL     OW 4449   3.753   6.383   1.220  0.1431  0.0626  0.7016
 1171SOL    HW2 4450   3.831   6.327   1.218  1.5819  1.9740  1.4167
 1171SOL    HW3 4451   3.697   6.345   1.152  0.6592 -2.7296  1.6655
 1171SOL    MW4 4452   3.756   6.370   1.211  0.4011 -0.0536  0.9232
 1172SOL     OW 4453   5.551   5.167   5.059  0.5973 -0.1772  0.0126
 1172SOL    HW2 4454   5.582   5.105   5.125 -0.0882  0.2150  0.7206
 1172SOL    HW3 4455   5.622   5.230   5.049  1.7189 -1.5955 -1.4420
 1172SOL    MW4 4456   5.564   5.167   5.066  0.6548 -0.3126 -0.0859
 1173SOL     OW 4457   5.644   1.562   1.742  0.4118  0.5510  0.2930
 1173SOL    HW2 4458   5.696   1.581   1.820  1.9815  0.8788 -0.8037
 1173SOL    HW3 4459   5.688   1.610   1.672 -1.4947  1.0133 -0.6555
 1173SOL    MW4 4460   5.656   1.571   1.743  0.3674  0.6553  0.0231
 1174SOL     OW 4461   1.040   2.652   2.444 -0.3753  0.1005 -0.3451
 1174SOL    HW2 4462   0.997   2.709   2.507 -0.2191  0.7975 -0.8631
 1174SOL    HW3 4463   1.002   2.565   2.461 -1.1767  0.4966 -0.0666
 1174SOL    MW4 4464   1.029   2.648   2.454 -0.4604  0.2447 -0.3767
 1175SOL     OW 4465   5.771   3.910   1.156  0.2110 -0.6466  0.0785
 1175SOL    HW2 4466   5.682   3.875   1.146 -0.4019  0.9168 -0.2840
 1175SOL    HW3 4467   5.766   3.966   1.233  0.4418  0.6482 -0.8032
 1175SOL    MW4 4468   5.758   3.913   1.165  0.1606 -0.2695 -0.0856
 1176SOL     OW 4469   0.391   1.538   5.881  0.6205  0.1517  0.5159
 1176SOL    HW2 4470   0.351   1.537   5.794 -1.6436  1.6066  1.4544
 1176SOL    HW3 4471   0.476   1.495   5.869 -0.6315 -1.9101 -1.8869
 1176SOL    MW4 4472   0.397   1.532   5.868  0.1566  0.0716  0.3227
 1177SOL     OW 4473   1.341   4.672   0.345  0.2424  0.3535 -0.0578
 1177SOL    HW2 4474   1.292   4.593   0.370  1.2105 -0.2335  0.0378
 1177SOL    HW3 4475   1.297   4.743   0.392 -0.5895 -0.1341 -0.0741
 1177SOL    MW4 4476   1.329   4.671   0.354  0.2604  0.2117 -0.0474
 1178SOL     OW 4477   4.502   0.829   5.489  0.0808  0.2236  0.5418
 1178SOL    HW2 4478   4.525   0.795   5.403 -2.1362  0.7419 -0.3496
 1178SOL    HW3 4479   4.545   0.914   5.494  1.0547 -0.2518  0.3977
 1178SOL    MW4 4480   4.510   0.836   5.478 -0.0832  0.2293  0.4052
 1179SOL     OW 4481   0.282   5.496   5.293  0.6035  0.3520 -0.1199
 1179SOL    HW2 4482   0.363   5.474   5.248  1.4442  1.5030  0.7947
 1179SOL    HW3 4483   0.309   5.539   5.373 -0.8681 -1.0739  1.2286
 1179SOL    MW4 4484   0.296   5.499   5.298  0.5202  0.3157  0.1787
 1180SOL     OW 4485   5.061   0.715   1.888 -0.6635 -0.0132 -0.2104
 1180SOL    HW2 4486   5.122   0.768   1.838 -0.2602 -0.8340 -0.5865
 1180SOL    HW3 4487   5.039   0.641   1.831 -2.1240  0.3281 -0.1530
 1180SOL    MW4 4488   5.066   0.713   1.874 -0.8030 -0.0764 -0.2524
 1181SOL     OW 4489   2.738   5.849   2.828  0.1724 -0.2102 -0.1796
 1181SOL    HW2 4490   2.736   5.754   2.821  1.8475 -0.2801 -0.1122
 1181SOL    HW3 4491   2.646   5.874   2.839 -0.3563 -1.7607 -0.7572
 1181SOL    MW4 4492   2.725   5.840   2.828  0.3237 -0.4240 -0.2469
 1182SOL     OW 4493   1.921   4.437   1.341 -0.6730  0.1420 -0.1985
 1182SOL    HW2 4494   1.846   4.403   1.292 -1.1011  0.5996  0.1299
 1182SOL    HW3 4495   1.995   4.384   1.311 -0.7508  0.9288 -1.9507
 1182SOL    MW4 4496   1.921   4.426   1.330 -0.7397  0.3062 -0.3864
 1183SOL     OW 4497   5.146   3.002   5.964  0.1842  0.1030 -0.5540
 1183SOL    HW2 4498   5.073   3.025   6.022  0.5086 -0.7525  0.2328
 1183SOL    HW3 4499   5.217   3.060   5.991 -0.0894  0.7065 -1.0958
 1183SOL    MW4 4500   5.145   3.013   5.976  0.1909  0.0698 -0.5217
 1184SOL     OW 4501   1.422   4.117   4.819  0.2583 -0.1705  0.0489
 1184SOL    HW2 4502   1.384   4.082   4.899 -1.9748  0.8862 -0.4727
 1184SOL    HW3 4503   1.465   4.198   4.845 -0.8778  0.4185  0.1187
 1184SOL    MW4 4504   1.423   4.123   4.833 -0.1862  0.0466 -0.0107
 1185SOL     OW 4505   3.489   0.902   5.394 -0.1227 -0.0837 -0.3738
 1185SOL    HW2 4506   3.442   0.891   5.312 -1.7635  0.7099  0.4273
 1185SOL    HW3 4507   3.575   0.936   5.367  0.1277 -1.7426 -1.8673
 1185SOL    MW4 4508   3.494   0.905   5.380 -0.3062 -0.1979 -0.4651
 1186SOL     OW 4509   2.945   0.826   6.412  0.0962 -0.3513  0.2765
 1186SOL    HW2 4510   2.924   0.734   6.393  1.0938 -0.3889 -0.7852
 1186SOL    HW3 4511   3.008   0.822   6.484  2.1497 -0.7050 -1.4399
 1186SOL    MW4 4512   2.951   0.813   6.419  0.4987 -0.4029 -0.0900
 1187SOL     OW 4513   3.840   6.149   2.474  0.5500 -0.2697 -0.0531
 1187SOL    HW2 4514   3.803   6.173   2.388  1.1927  2.1059  0.2446
 1187SOL    HW3 4515   3.764   6.145   2.532  0.2784 -0.1850 -0.3973
 1187SOL    MW4 4516   3.825   6.152   2.470  0.5990  0.0549 -0.0592
 1188SOL     OW 4517   2.611   4.715   5.944 -0.0107 -0.1980 -0.5238
 1188SOL    HW2 4518   2.674   4.726   5.873  1.0268 -3.1512 -0.2059
 1188SOL    HW3 4519   2.647   4.767   6.016  0.3520  0.6446 -1.2876
 1188SOL    MW4 4520   2.624   4.724   5.944  0.1741 -0.4765 -0.5826
 1189SOL     OW 4521   6.293   5.775   1.610  0.0381  0.1659  0.1400
 1189SOL    HW2 4522   6.381   5.765   1.646  0.7378 -2.3016 -2.0341
 1189SOL    HW3 4523   6.238   5.721   1.667  0.8708 -2.4495 -1.4185
 1189SOL    MW4 4524   6.297   5.767   1.622  0.2403 -0.5047 -0.3525
 1190SOL     OW 4525   1.556   4.500   3.999  0.0513  0.3112  0.2895
 1190SOL    HW2 4526   1.617   4.462   4.062  0.6408  0.4422 -0.2057
 1190SOL    HW3 4527   1.528   4.426   3.945 -0.3113  0.2330  0.5783
 1190SOL    MW4 4528   1.560   4.485   4.000  0.0812  0.3181  0.2623
 1191SOL     OW 4529   2.075   2.377   0.587  0.2373  0.6648 -0.3423
 1191SOL    HW2 4530   2.015   2.446   0.558  0.0585  0.0958 -1.3922
 1191SOL    HW3 4531   2.048   2.300   0.537 -1.3188 -0.9387  2.7071
 1191SOL    MW4 4532   2.063   2.376   0.576  0.0084  0.3782 -0.0785
 1192SOL     OW 4533   1.995   0.180   2.759  0.1070  0.0109  0.1184
 1192SOL    HW2 4534   2.027   0.268   2.738  3.6171 -1.2902 -0.6666
 1192SOL    HW3 4535   2.003   0.174   2.854  1.3073  0.1002  0.0416
 1192SOL    MW4 4536   2.000   0.191   2.769  0.7284 -0.1490  0.0047
 1193SOL     OW 4537   5.925   4.278   5.301  0.4054 -0.3843 -0.0361
 1193SOL    HW2 4538   5.878   4.219   5.242 -0.8788  1.4499 -0.9439
 1193SOL    HW3 4539   5.886   4.262   5.387  1.2619 -2.0173  0.0887
 1193SOL    MW4 4540   5.914   4.268   5.304  0.3489 -0.3577 -0.1394
 1194SOL     OW 4541   3.193   2.033   6.378  0.1378 -0.0999 -0.1102
 1194SOL    HW2 4542   3.109   1.986   6.372 -0.2438  0.7431 -1.7982
 1194SOL    HW3 4543   3.182   2.090   6.454  0.1585 -1.7868  1.2388
 1194SOL    MW4 4544   3.180   2.034   6.387  0.0902 -0.2112 -0.1549
 1195SOL     OW 4545   4.784   5.005   1.370 -0.0719  0.2269  0.6924
 1195SOL    HW2 4546   4.696   5.026   1.338 -0.7037 -0.6754  1.7148
 1195SOL    HW3 4547   4.777   4.913   1.399  1.4965 -0.1787 -0.1371
 1195SOL    MW4 4548   4.771   4.995   1.370  0.0516  0.0543  0.7178
 1196SOL     OW 4549   5.805   3.267   0.067 -0.4943 -0.0255  0.3695
 1196SOL    HW2 4550   5.765   3.348   0.036  1.2873  0.4741 -0.8013
 1196SOL    HW3 4551   5.731   3.208   0.083 -1.7744  1.5458  0.4296
 1196SOL    MW4 4552   5.790   3.270   0.065 -0.4281  0.2477  0.2229
 1197SOL     OW 4553   5.209   0.109   3.282  0.0505  0.0336 -0.5985
 1197SOL    HW2 4554   5.258   0.190   3.294  0.0595 -0.0548 -0.0038
 1197SOL    HW3 4555   5.143   0.109   3.351 -0.4506 -0.1018 -1.0702
 1197SOL    MW4 4556   5.207   0.119   3.292 -0.0144  0.0040 -0.5823
 1198SOL     OW 4557   6.204   3.726   4.960 -0.1542 -0.6069 -0.4272
 1198SOL    HW2 4558   6.134   3.664   4.937  0.4827 -0.8035 -1.9713
 1198SOL    HW3 4559   6.212   3.782   4.883  2.0054 -1.1827 -0.6802
 1198SOL    MW4 4560   6.196   3.725   4.947  0.2147 -0.7088 -0.6643
 1199SOL     OW 4561   5.568   4.766   2.128  0.1269  0.0362  0.5065
 1199SOL    HW2 4562   5.573   4.848   2.079  1.1033  0.0466  0.6122
 1199SOL    HW3 4563   5.499   4.716   2.084  2.0109 -0.6160 -1.9226
 1199SOL    MW4 4564   5.560   4.770   2.116  0.5043 -0.0485  0.1999
 1200SOL     OW 4565   0.783   5.711   6.207  0.0201 -0.2459 -0.2727
 1200SOL    HW2 4566   0.690   5.689   6.207 -0.2447  0.6612 -1.9404
 1200SOL    HW3 4567   0.828   5.627   6.199 -0.7644 -0.5760 -1.6609
 1200SOL    MW4 4568   0.777   5.697   6.206 -0.1183 -0.1697 -0.6759
 1201SOL     OW 4569   1.828   0.033   2.267  0.6263 -0.7596 -0.0516
 1201SOL    HW2 4570   1.753  -0.022   2.289  0.5095 -0.5029  0.2049
 1201SOL    HW3 4571   1.845   0.083   2.347  0.9018 -0.6203 -0.1942
 1201SOL    MW4 4572   1.821   0.033   2.281  0.6472 -0.7073 -0.0366
 1202SOL     OW 4573   1.587   5.742   0.691 -0.7036  0.3617 -0.0433
 1202SOL    HW2 4574   1.619   5.815   0.745  2.0544 -0.1221 -0.9181
 1202SOL    HW3 4575   1.580   5.668   0.752  2.7730 -0.2918 -0.2859
 1202SOL    MW4 4576   1.590   5.742   0.706  0.1189  0.2116 -0.1908
 1203SOL     OW 4577   0.331   6.301   3.948 -0.4494  0.2585  0.0705
 1203SOL    HW2 4578   0.336   6.393   3.924 -0.3488  0.4735  0.8931
 1203SOL    HW3 4579   0.416   6.282   3.989 -0.7096 -0.0181  0.4959
 1203SOL    MW4 4580   0.343   6.310   3.951 -0.4704  0.2504  0.2351
 1204SOL     OW 4581   4.999   6.280   5.690 -0.5973  0.1400 -0.2665
 1204SOL    HW2 4582   5.038   6.367   5.687 -2.8377  1.2217  0.0028
 1204SOL    HW3 4583   5.059   6.225   5.640  2.4022  1.1380  1.9679
 1204SOL    MW4 4584   5.012   6.284   5.683 -0.4971  0.4144  0.0638
 1205SOL     OW 4585   4.549   5.257   1.946 -0.0544  0.1802  0.6401
 1205SOL    HW2 4586   4.501   5.287   1.868  0.0523  0.5605  0.7197
 1205SOL    HW3 4587   4.484   5.208   1.996  0.0847 -0.7841 -0.0865
 1205SOL    MW4 4588   4.534   5.254   1.942 -0.0220  0.1031  0.5547
 1206SOL     OW 4589   2.572   4.245   5.208  0.4089 -0.1227 -0.6522
 1206SOL    HW2 4590   2.560   4.304   5.133  1.5378  0.7389 -0.1897
 1206SOL    HW3 4591   2.666   4.226   5.208  0.4567  0.0343  0.6449
 1206SOL    MW4 4592   2.583   4.250   5.198  0.5641  0.0117 -0.4201
 1207SOL     OW 4593   0.784   0.613   3.107  0.5288 -0.1803  0.2844
 1207SOL    HW2 4594   0.835   0.640   3.184  1.2907 -0.2283 -0.1858
 1207SOL    HW3 4595   0.847   0.616   3.035  0.6277 -3.0060  0.1457
 1207SOL    MW4 4596   0.799   0.617   3.107  0.6423 -0.5595  0.2040
 1208SOL     OW 4597   2.909   5.160   2.774  0.6731  0.1896 -0.2010
 1208SOL    HW2 4598   2.897   5.220   2.848  2.7553  1.4837 -0.8430
 1208SOL    HW3 4599   2.821   5.154   2.735 -0.2774  0.1799  1.7915
 1208SOL    MW4 4600   2.896   5.167   2.779  0.8224  0.3591 -0.0228
 1209SOL     OW 4601   4.143   4.733   0.537  0.2718 -0.7990  0.2752
 1209SOL    HW2 4602   4.141   4.684   0.455 -1.9133 -1.5844  0.7285
 1209SOL    HW3 4603   4.071   4.796   0.530  2.3068  1.7129  0.1683
 1209SOL    MW4 4604   4.133   4.735   0.525  0.2520 -0.5712  0.3209
 1210SOL     OW 4605   3.612   5.156   0.472  0.2225 -0.1599  0.2146
 1210SOL    HW2 4606   3.522   5.172   0.502 -0.2687  0.1734 -1.3611
 1210SOL    HW3 4607   3.609   5.171   0.378  1.3876 -2.5656 -0.2735
 1210SOL    MW4 4608   3.599   5.160   0.464  0.3114 -0.4334 -0.0577
 1211SOL     OW 4609   6.009   3.827   5.831  0.1302  0.4010  0.5311
 1211SOL    HW2 4610   5.976   3.836   5.741  0.3471  1.6751  0.5717
 1211SOL    HW3 4611   5.999   3.733   5.850 -0.1484  0.1526 -0.7282
 1211SOL    MW4 4612   6.003   3.816   5.821  0.1221  0.5363  0.3703
 1212SOL     OW 4613   1.939   2.454   0.067 -0.3480  0.0142  0.1355
 1212SOL    HW2 4614   1.903   2.372   0.101 -0.5605  0.2975  0.5949
 1212SOL    HW3 4615   2.025   2.430   0.032  0.3432 -0.0729  1.8373
 1212SOL    MW4 4616   1.945   2.440   0.067 -0.2848  0.0401  0.4206
 1213SOL     OW 4617   0.656   1.090   1.796  0.3790 -0.0216 -0.0392
 1213SOL    HW2 4618   0.668   0.997   1.775 -0.0998  0.2016 -1.3731
 1213SOL    HW3 4619   0.652   1.092   1.892  1.4411 -1.2394  0.0601
 1213SOL    MW4 4620   0.657   1.078   1.806  0.4560 -0.1528 -0.2021
 1214SOL     OW 4621   2.507   2.091   2.949 -0.0340  0.2115  0.1830
 1214SOL    HW2 4622   2.472   2.176   2.974  0.6626  0.2330  1.1439
 1214SOL    HW3 4623   2.460   2.028   3.003  1.4994  0.2605  1.6709
 1214SOL    MW4 4624   2.496   2.094   2.959  0.2602  0.2208  0.5061
 1215SOL     OW 4625   4.549   5.608   1.773  0.0290  0.3135  0.2821
 1215SOL    HW2 4626   4.500   5.623   1.853 -3.0915  0.9958 -1.5728
 1215SOL    HW3 4627   4.521   5.521   1.743  0.2758  0.5296 -0.6126
 1215SOL    MW4 4628   4.539   5.598   1.779 -0.3502  0.4320 -0.0807
 1216SOL     OW 4629   2.028   1.302   3.327 -0.5180 -0.0945  0.4906
 1216SOL    HW2 4630   2.050   1.340   3.243  0.6980 -0.8737  0.4312
 1216SOL    HW3 4631   2.081   1.350   3.391 -0.4328 -0.3941  0.6477
 1216SOL    MW4 4632   2.038   1.313   3.325 -0.3463 -0.2368  0.5035
 1217SOL     OW 4633   4.088   3.724   6.258 -0.1290 -0.3853 -0.0783
 1217SOL    HW2 4634   4.038   3.704   6.179 -0.5531 -1.1811  0.3764
 1217SOL    HW3 4635   4.088   3.642   6.308  0.3392  0.0347  0.6336
 1217SOL    MW4 4636   4.082   3.711   6.255 -0.1232 -0.4349  0.0756
 1218SOL     OW 4637   0.868   3.396   1.705  0.1435 -0.0234 -0.2977
 1218SOL    HW2 4638   0.883   3.426   1.795  1.6359 -0.9835 -0.1893
 1218SOL    HW3 4639   0.785   3.348   1.709 -0.1652  0.5586  0.4058
 1218SOL    MW4 4640   0.859   3.393   1.717  0.2997 -0.0733 -0.1906
 1219SOL     OW 4641   5.429   2.708   5.009 -0.1931 -0.0895 -0.1599
 1219SOL    HW2 4642   5.360   2.740   4.951 -0.3054 -0.7876 -0.4205
 1219SOL    HW3 4643   5.389   2.711   5.096 -0.5210 -0.3859 -0.2954
 1219SOL    MW4 4644   5.414   2.713   5.013 -0.2512 -0.2207 -0.2122
 1220SOL     OW 4645   0.462   1.825   1.481  0.1422  0.6087  0.4065
 1220SOL    HW2 4646   0.424   1.737   1.487  0.7378  0.3497  0.4657
 1220SOL    HW3 4647   0.449   1.851   1.389 -0.3931  0.6239  0.4866
 1220SOL    MW4 4648   0.455   1.817   1.469  0.1502  0.5766  0.4249
 1221SOL     OW 4649   3.598   3.461   2.234 -0.4976 -0.0842  0.6420
 1221SOL    HW2 4650   3.526   3.451   2.171  0.2074 -0.5450 -0.1061
 1221SOL    HW3 4651   3.565   3.420   2.314 -2.3432  2.5954  1.3908
 1221SOL    MW4 4652   3.584   3.454   2.237 -0.6481  0.2085  0.6421
 1222SOL     OW 4653   5.932   3.747   4.301  0.0511 -0.2907  0.5119
 1222SOL    HW2 4654   5.840   3.731   4.323  0.1044 -0.4051  0.6532
 1222SOL    HW3 4655   5.937   3.841   4.285 -0.0376 -0.2417  0.7608
 1222SOL    MW4 4656   5.921   3.757   4.302  0.0464 -0.2993  0.5634
 1223SOL     OW 4657   1.847   2.196   0.194 -0.3697  0.5052  0.2332
 1223SOL    HW2 4658   1.751   2.198   0.200 -0.4775  1.2441 -1.1779
 1223SOL    HW3 4659   1.866   2.111   0.155 -0.3069 -0.3442  2.0335
 1223SOL    MW4 4660   1.836   2.185   0.189 -0.3756  0.4907  0.2846
 1224SOL     OW 4661   3.572   2.258   0.029 -0.5294 -0.3420 -0.1401
 1224SOL    HW2 4662   3.531   2.271   0.115  0.6485  1.1499  0.2439
 1224SOL    HW3 4663   3.666   2.266   0.047 -0.0350 -2.8208 -1.1293
 1224SOL    MW4 4664   3.579   2.260   0.043 -0.3088 -0.4722 -0.2200
 1225SOL     OW 4665   0.713   3.945   1.334  0.0090  0.0862 -0.6681
 1225SOL    HW2 4666   0.734   4.027   1.381  1.4051 -0.4963 -0.2213
 1225SOL    HW3 4667   0.702   3.880   1.404  1.6679 -0.6938 -1.0845
 1225SOL    MW4 4668   0.715   3.948   1.350  0.4121 -0.0935 -0.6641
 1226SOL     OW 4669   4.421   3.475   4.588  0.2552 -0.7454  0.4074
 1226SOL    HW2 4670   4.410   3.569   4.573 -1.1913 -0.6304  1.9270
 1226SOL    HW3 4671   4.513   3.466   4.614  0.4997  0.1792 -0.0872
 1226SOL    MW4 4672   4.432   3.486   4.589  0.0966 -0.6082  0.5426
 1227SOL     OW 4673   0.242   3.785   1.018 -0.8399 -0.5272 -0.6697
 1227SOL    HW2 4674   0.292   3.747   1.090  0.2845 -0.3317 -1.3352
 1227SOL    HW3 4675   0.216   3.710   0.964 -0.6307 -0.5662 -0.7176
 1227SOL    MW4 4676   0.245   3.770   1.020 -0.6640 -0.5065 -0.7638
 1228SOL     OW 4677   0.522   0.690   0.910  0.2317 -0.3185 -0.5422
 1228SOL    HW2 4678   0.548   0.757   0.847 -0.7369 -0.9833 -1.6833
 1228SOL    HW3 4679   0.523   0.609   0.860 -1.3187 -0.7542  0.0820
 1228SOL    MW4 4680   0.526   0.688   0.895 -0.1006 -0.4637 -0.6104
 1229SOL     OW 4681   0.583   1.435   3.415  0.2587 -0.6369  0.4577
 1229SOL    HW2 4682   0.606   1.342   3.427 -1.3212 -1.0304  0.6181
 1229SOL    HW3 4683   0.544   1.439   3.328  1.1011  0.0650  0.0952
 1229SOL    MW4 4684   0.581   1.423   3.405  0.1614 -0.5962  0.4310
 1230SOL     OW 4685   4.346   3.244   4.057  0.4388  0.4928  0.2300
 1230SOL    HW2 4686   4.398   3.316   4.093  1.1693  0.1801 -0.1714
 1230SOL    HW3 4687   4.410   3.189   4.011 -0.1602 -0.2440  0.2647
 1230SOL    MW4 4688   4.361   3.246   4.055  0.4562  0.3544  0.1816
 1231SOL     OW 4689   2.837   0.665   3.473 -0.3516  0.3159 -0.3329
 1231SOL    HW2 4690   2.830   0.582   3.520  2.2441 -0.3973 -1.0518
 1231SOL    HW3 4691   2.747   0.699   3.471 -1.1226 -1.3057  1.9989
 1231SOL    MW4 4692   2.824   0.659   3.479 -0.1108  0.0079 -0.1201
 1232SOL     OW 4693   4.766   1.842   0.778 -0.6186 -0.0728 -0.1028
 1232SOL    HW2 4694   4.670   1.844   0.769 -0.6879 -2.5329 -0.5385
 1232SOL    HW3 4695   4.791   1.934   0.786 -2.8995  0.7329 -1.3172
 1232SOL    MW4 4696   4.756   1.855   0.777 -0.9287 -0.2911 -0.3205
 1233SOL     OW 4697   0.988   2.808   3.895  0.7417  0.3101  0.1157
 1233SOL    HW2 4698   0.929   2.872   3.935  1.8377  1.0291  0.6303
 1233SOL    HW3 4699   1.056   2.793   3.960  0.1900 -1.8869  0.2537
 1233SOL    MW4 4700   0.989   2.814   3.909  0.8135  0.1151  0.2018
 1234SOL     OW 4701   0.072   5.965   5.231 -0.0795  0.0755  0.0795
 1234SOL    HW2 4702   0.102   5.975   5.321 -0.4562  3.5631 -0.0559
 1234SOL    HW3 4703   0.131   5.900   5.193  0.4386 -1.0602  2.6381
 1234SOL    MW4 4704   0.083   5.958   5.237 -0.0609  0.3858  0.3992
 1235SOL     OW 4705   0.827   4.111   1.864 -0.2915 -0.2221  1.1395
 1235SOL    HW2 4706   0.790   4.026   1.839 -2.0300  0.0440  2.5453
 1235SOL    HW3 4707   0.805   4.119   1.957  1.4457  0.9939  1.4903
 1235SOL    MW4 4708   0.819   4.101   1.873 -0.2916 -0.0265  1.3713
 1236SOL     OW 4709   5.783   4.064   6.039 -1.0257 -0.0268  0.3343
 1236SOL    HW2 4710   5.768   4.136   6.099 -3.0157 -0.2079  0.0953
 1236SOL    HW3 4711   5.799   3.988   6.096 -1.2588  0.1274  0.6048
 1236SOL    MW4 4712   5.783   4.063   6.054 -1.3190 -0.0304  0.3384
 1237SOL     OW 4713   1.788   0.168   6.403 -0.3646 -0.1737  0.2344
 1237SOL    HW2 4714   1.787   0.253   6.448 -0.9112 -0.0623  0.0322
 1237SOL    HW3 4715   1.730   0.112   6.456 -1.6900  0.2018 -0.7460
 1237SOL    MW4 4716   1.780   0.172   6.416 -0.6115 -0.1095  0.0784
 1238SOL     OW 4717   2.786   4.924   2.276  0.4996  0.0881 -0.1668
 1238SOL    HW2 4718   2.870   4.914   2.322  0.8222  0.3367 -0.6911
 1238SOL    HW3 4719   2.726   4.959   2.342  0.2212 -2.0639  0.8158
 1238SOL    MW4 4720   2.789   4.927   2.291  0.5054 -0.1630 -0.1064
 1239SOL     OW 4721   4.416   0.414   2.932  0.1364  0.0821 -0.1098
 1239SOL    HW2 4722   4.364   0.362   2.870  1.3368 -1.4226  0.0936
 1239SOL    HW3 4723   4.480   0.459   2.877 -0.1074  0.3552 -0.1683
 1239SOL    MW4 4724   4.418   0.413   2.916  0.2626 -0.0804 -0.0907
 1240SOL     OW 4725   1.512   0.414   3.452 -0.0246 -0.2004  0.1832
 1240SOL    HW2 4726   1.509   0.383   3.362  0.7711  1.3634 -0.4189
 1240SOL    HW3 4727   1.476   0.342   3.503 -1.9951 -0.5492 -1.5280
 1240SOL    MW4 4728   1.507   0.400   3.447 -0.1796 -0.0401 -0.1220
 1241SOL     OW 4729   3.402   3.411   2.060 -0.2259 -0.1242 -0.5067
 1241SOL    HW2 4730   3.327   3.427   2.119 -1.5631 -0.6767 -1.9899
 1241SOL    HW3 4731   3.408   3.491   2.008  0.6216  0.1506 -0.0106
 1241SOL    MW4 4732   3.393   3.424   2.061 -0.2905 -0.1609 -0.6369
 1242SOL     OW 4733   4.129   5.860   0.968  0.0497 -0.2520  0.1339
 1242SOL    HW2 4734   4.168   5.896   1.048 -1.1237  1.6155 -0.0639
 1242SOL    HW3 4735   4.108   5.770   0.991  0.9135 -0.1454  1.5069
 1242SOL    MW4 4736   4.131   5.853   0.982  0.0089  0.0085  0.2889
 1243SOL     OW 4737   6.181   5.855   3.100  0.5305 -0.7456  0.0533
 1243SOL    HW2 4738   6.156   5.766   3.075 -0.9474 -0.5738  0.8278
 1243SOL    HW3 4739   6.191   5.901   3.017  0.4875 -1.4216 -0.3356
 1243SOL    MW4 4740   6.179   5.849   3.086  0.3298 -0.8121  0.1041
 1244SOL     OW 4741   3.649   1.994   3.780  0.2384 -0.3970  0.5535
 1244SOL    HW2 4742   3.676   2.079   3.745  1.9264 -1.2249 -0.2425
 1244SOL    HW3 4743   3.729   1.953   3.812 -0.8092 -0.9558  2.6769
 1244SOL    MW4 4744   3.663   2.000   3.779  0.3229 -0.5800  0.7286
 1245SOL     OW 4745   2.120   6.311   3.777 -0.1974  0.2949  0.0355
 1245SOL    HW2 4746   2.107   6.243   3.843  2.1797 -1.7993 -1.4387
 1245SOL    HW3 4747   2.034   6.324   3.738 -0.8253 -1.5759  0.6964
 1245SOL    MW4 4748   2.107   6.303   3.780  0.0334 -0.2283 -0.0718
 1246SOL     OW 4749   2.871   2.140   1.664  0.0971 -0.1273 -0.0540
 1246SOL    HW2 4750   2.941   2.113   1.723  1.1361  0.5506 -0.9221
 1246SOL    HW3 4751   2.887   2.090   1.584 -0.7527 -0.3782 -0.0717
 1246SOL    MW4 4752   2.883   2.130   1.661  0.1221 -0.0710 -0.1708
 1247SOL     OW 4753   2.514   6.382   0.569 -0.0980  0.0809 -0.1865
 1247SOL    HW2 4754   2.480   6.404   0.656 -1.8557 -0.1605 -0.7770
 1247SOL    HW3 4755   2.449   6.322   0.532 -1.5978  3.1837 -3.2052
 1247SOL    MW4 4756   2.501   6.377   0.576 -0.5278  0.4584 -0.6627
 1248SOL     OW 4757   2.424   0.365   2.163 -0.6822 -0.1752 -0.1787
 1248SOL    HW2 4758   2.333   0.394   2.158 -0.7684 -0.3511  0.3326
 1248SOL    HW3 4759   2.438   0.346   2.256 -0.6503 -1.8034 -0.4857
 1248SOL    MW4 4760   2.414   0.366   2.175 -0.6894 -0.4132 -0.1517
 1249SOL     OW 4761   4.557   4.643   2.147 -0.1889  0.6472 -0.0565
 1249SOL    HW2 4762   4.526   4.598   2.226 -1.1305 -0.5313 -1.0454
 1249SOL    HW3 4763   4.477   4.671   2.103  0.2904  0.6863 -0.9221
 1249SOL    MW4 4764   4.543   4.641   2.151 -0.2499  0.4968 -0.3012
 1250SOL     OW 4765   5.794   0.730   4.200  0.2769 -0.5884 -0.3573
 1250SOL    HW2 4766   5.764   0.802   4.145 -1.9185 -1.0284  0.1541
 1250SOL    HW3 4767   5.869   0.694   4.154 -0.4761  0.1009 -2.2004
 1250SOL    MW4 4768   5.800   0.735   4.187 -0.1121 -0.5555 -0.5330
 1251SOL     OW 4769   2.430   3.654   6.313 -0.0303  0.0352 -0.1091
 1251SOL    HW2 4770   2.456   3.723   6.375 -0.3290 -0.9447  1.1525
 1251SOL    HW3 4771   2.496   3.586   6.325  0.0971 -0.0371 -1.1358
 1251SOL    MW4 4772   2.442   3.654   6.323 -0.0529 -0.1036 -0.0781
 1252SOL     OW 4773   1.698   1.980   4.055  0.4399 -0.4215  0.1447
 1252SOL    HW2 4774   1.700   1.911   4.122  0.9335  0.2505  0.8336
 1252SOL    HW3 4775   1.753   1.946   3.985  0.4910 -0.8296  0.3759
 1252SOL    MW4 4776   1.705   1.966   4.054  0.5117 -0.3867  0.2661
 1253SOL     OW 4777   1.664   2.934   5.991  0.4910  0.2106  0.1564
 1253SOL    HW2 4778   1.675   2.890   5.907 -1.4027  0.6705 -0.3666
 1253SOL    HW3 4779   1.642   2.863   6.052 -0.0477  0.1193 -0.1447
 1253SOL    MW4 4780   1.663   2.919   5.988  0.1701  0.2592  0.0477
 1254SOL     OW 4781   5.849   1.662   2.394  0.2130 -0.4052  0.6568
 1254SOL    HW2 4782   5.761   1.627   2.380 -0.0149  0.1453  0.6711
 1254SOL    HW3 4783   5.863   1.721   2.321  1.1628 -1.5884 -0.1428
 1254SOL    MW4 4784   5.839   1.665   2.383  0.3082 -0.4887  0.5532
 1255SOL     OW 4785   4.099   4.047   1.692 -0.4955  0.2265  0.2998
 1255SOL    HW2 4786   4.066   4.003   1.771  0.3205  0.2243  0.6459
 1255SOL    HW3 4787   4.191   4.021   1.687 -0.5075  0.3299 -0.5849
 1255SOL    MW4 4788   4.107   4.037   1.702 -0.3894  0.2398  0.2287
 1256SOL     OW 4789   3.668   4.800   3.950 -0.2238  0.1831  0.0752
 1256SOL    HW2 4790   3.714   4.879   3.978  0.7237 -0.0498 -0.7760
 1256SOL    HW3 4791   3.575   4.821   3.962  0.0521  1.0899  0.7143
 1256SOL    MW4 4792   3.662   4.814   3.955 -0.0624  0.2720  0.0472
 1257SOL     OW 4793   6.202   5.049   3.880 -0.0702  0.0013 -0.5016
 1257SOL    HW2 4794   6.263   5.004   3.822 -0.4409 -0.2892 -0.6692
 1257SOL    HW3 4795   6.117   5.011   3.860 -0.2944  0.3328 -0.1991
 1257SOL    MW4 4796   6.199   5.038   3.870 -0.1487  0.0067 -0.4838
 1258SOL     OW 4797   2.664   3.260   3.134 -0.0169 -0.6702 -0.1699
 1258SOL    HW2 4798   2.694   3.265   3.044  0.3220  1.0862  0.0015
 1258SOL    HW3 4799   2.571   3.236   3.127  0.7456 -3.8537 -0.7894
 1258SOL    MW4 4800   2.655   3.257   3.121  0.1284 -0.8585 -0.2291
 1259SOL     OW 4801   4.004   0.400   5.959 -0.0752 -0.0094 -0.3186
 1259SOL    HW2 4802   4.055   0.475   5.930 -0.9524  0.5940 -0.3538
 1259SOL    HW3 4803   3.942   0.436   6.023 -1.0957 -0.5245 -0.9857
 1259SOL    MW4 4804   4.003   0.414   5.963 -0.3256  0.0022 -0.4112
 1260SOL     OW 4805   0.356   3.381   4.656  0.6291  0.3729  0.0622
 1260SOL    HW2 4806   0.403   3.420   4.582  0.2558 -1.0752 -0.9706
 1260SOL    HW3 4807   0.359   3.287   4.640 -0.2660  0.0898  1.4182
 1260SOL    MW4 4808   0.362   3.374   4.644  0.4617  0.1445  0.1048
 1261SOL     OW 4809   1.611   2.090   6.404  0.1758  0.0456 -0.5170
 1261SOL    HW2 4810   1.599   2.002   6.439 -0.9530  1.2615  2.5089
 1261SOL    HW3 4811   1.529   2.109   6.357 -0.9451  0.5206  1.5137
 1261SOL    MW4 4812   1.599   2.081   6.403 -0.1211  0.2687  0.1502
 1262SOL     OW 4813   5.629   2.898   3.885  0.5676  0.2533 -0.3772
 1262SOL    HW2 4814   5.680   2.819   3.869 -0.0635 -0.8594  2.4161
 1262SOL    HW3 4815   5.685   2.953   3.939 -0.2644  0.0653  0.7241
 1262SOL    MW4 4816   5.643   2.895   3.890  0.3746  0.0817  0.1366
 1263SOL     OW 4817   6.230   0.586   6.319  0.9472  0.1061  0.3180
 1263SOL    HW2 4818   6.204   0.529   6.247 -0.5459  0.1426  0.7858
 1263SOL    HW3 4819   6.201   0.673   6.293  1.3259  0.2992  0.5238
 1263SOL    MW4 4820   6.223   0.590   6.306  0.8002  0.1364  0.4069
 1264SOL     OW 4821   5.042   1.430   5.015  0.2962 -0.1742 -0.2990
 1264SOL    HW2 4822   5.126   1.386   5.009  0.3250 -0.1218 -0.2866
 1264SOL    HW3 4823   4.996   1.386   5.086  0.4716  0.0581 -0.0365
 1264SOL    MW4 4824   5.047   1.419   5.024  0.3232 -0.1367 -0.2627
 1265SOL     OW 4825   1.123   0.956   1.742  0.0246  0.2505 -0.5740
 1265SOL    HW2 4826   1.037   0.994   1.723  0.2457  1.7025  1.0729
 1265SOL    HW3 4827   1.136   0.973   1.836  2.4561  0.7694 -0.9495
 1265SOL    MW4 4828   1.113   0.963   1.752  0.3745  0.5105 -0.4062
 1266SOL     OW 4829   3.697   2.322   4.425  0.1405  0.3389 -0.5569
 1266SOL    HW2 4830   3.698   2.417   4.415  1.5290  0.2872 -1.0678
 1266SOL    HW3 4831   3.668   2.290   4.339  1.1382  0.2657 -0.8781
 1266SOL    MW4 4832   3.693   2.330   4.412  0.4553  0.3224 -0.6667
 1267SOL     OW 4833   3.732   5.394   4.766  0.0609  0.1065 -0.0534
 1267SOL    HW2 4834   3.665   5.398   4.697  1.0707  1.0917 -1.0061
 1267SOL    HW3 4835   3.696   5.332   4.829 -1.3474 -0.0814 -0.9765
 1267SOL    MW4 4836   3.718   5.386   4.765  0.0083  0.2117 -0.3009
 1268SOL     OW 4837   1.249   4.718   0.067 -0.1313 -0.1087 -0.5524
 1268SOL    HW2 4838   1.303   4.766   0.004  0.6015  0.4161  0.4614
 1268SOL    HW3 4839   1.276   4.750   0.153 -1.9011 -0.0050  0.0052
 1268SOL    MW4 4840   1.259   4.728   0.070 -0.2681 -0.0258 -0.3451
 1269SOL     OW 4841   4.149   5.313   2.209 -0.3589  0.2045  0.4611
 1269SOL    HW2 4842   4.119   5.337   2.121  0.8465  2.0247  0.4872
 1269SOL    HW3 4843   4.104   5.374   2.267 -1.0474 -0.9056  1.1267
 1269SOL    MW4 4844   4.139   5.324   2.205 -0.2907  0.2982  0.5524
 1270SOL     OW 4845   4.649   3.157   1.049  0.3203  0.3407  0.2825
 1270SOL    HW2 4846   4.700   3.178   1.127  0.6127  2.5103 -0.4273
 1270SOL    HW3 4847   4.711   3.165   0.976  0.1009 -1.8392 -0.2339
 1270SOL    MW4 4848   4.664   3.161   1.049  0.3299  0.3394  0.1207
 1271SOL     OW 4849   2.618   3.443   6.306  0.1154 -0.2523  0.1500
 1271SOL    HW2 4850   2.592   3.379   6.240 -1.1747 -0.8411  1.1848
 1271SOL    HW3 4851   2.695   3.486   6.269 -1.0993  0.1055 -2.1526
 1271SOL    MW4 4852   2.625   3.441   6.293 -0.2151 -0.2828 -0.0173
 1272SOL     OW 4853   0.986   2.212   2.940 -0.4992  0.3940  0.3883
 1272SOL    HW2 4854   0.915   2.246   2.887  0.8378  2.4227 -0.2193
 1272SOL    HW3 4855   0.995   2.275   3.012  0.6541  0.1878  0.4538
 1272SOL    MW4 4856   0.978   2.225   2.943 -0.1706  0.6345  0.3168
 1273SOL     OW 4857   5.386   1.492   0.299  1.0174 -0.5074  0.6670
 1273SOL    HW2 4858   5.321   1.448   0.354  1.2132  0.1162  1.4093
 1273SOL    HW3 4859   5.470   1.458   0.329  1.0729 -1.0452 -0.0540
 1273SOL    MW4 4860   5.388   1.481   0.310  1.0506 -0.4961  0.6698
 1274SOL     OW 4861   3.786   3.747   4.256  0.1126 -0.7232 -0.0542
 1274SOL    HW2 4862   3.752   3.668   4.214 -0.2739 -0.0057 -1.1449
 1274SOL    HW3 4863   3.881   3.741   4.243  0.1194 -1.1619  0.1627
 1274SOL    MW4 4864   3.794   3.736   4.249  0.0625 -0.6864 -0.1695
 1275SOL     OW 4865   4.325   3.628   5.175  0.0680  0.2783 -0.2999
 1275SOL    HW2 4866   4.332   3.718   5.145  0.4121 -0.1022 -1.4157
 1275SOL    HW3 4867   4.237   3.622   5.212 -0.4362  0.7465 -1.3712
 1275SOL    MW4 4868   4.315   3.639   5.176  0.0469  0.2898 -0.5885
 1276SOL     OW 4869   4.956   4.121   2.531 -0.7950  0.6318  0.0818
 1276SOL    HW2 4870   4.961   4.038   2.483  0.2428  0.2979  0.7212
 1276SOL    HW3 4871   4.864   4.129   2.556 -0.7432 -0.8897  0.9265
 1276SOL    MW4 4872   4.944   4.111   2.528 -0.6513  0.3870  0.2776
 1277SOL     OW 4873   4.174   3.307   5.425  0.6567  0.4715  0.3400
 1277SOL    HW2 4874   4.169   3.236   5.490  0.8702  1.1551  1.1306
 1277SOL    HW3 4875   4.139   3.384   5.472 -1.0698  0.5732 -0.9973
 1277SOL    MW4 4876   4.168   3.308   5.440  0.4571  0.5751  0.2678
 1278SOL     OW 4877   6.256   0.914   1.271  0.0648 -0.5415  0.6486
 1278SOL    HW2 4878   6.330   0.889   1.327 -0.6898 -1.6537  1.1835
 1278SOL    HW3 4879   6.287   0.898   1.182  0.7680 -0.1713  0.8198
 1278SOL    MW4 4880   6.270   0.908   1.267  0.0580 -0.6394  0.7417
 1279SOL     OW 4881   2.195   4.335   5.210 -0.1165 -0.1437 -0.9406
 1279SOL    HW2 4882   2.207   4.330   5.115 -1.7667 -0.5674 -1.1635
 1279SOL    HW3 4883   2.235   4.419   5.235 -1.2731  0.8721 -2.3093
 1279SOL    MW4 4884   2.202   4.346   5.201 -0.4868 -0.0656 -1.1506
 1280SOL     OW 4885   4.212   1.809   0.037 -0.2039  0.6046 -0.3379
 1280SOL    HW2 4886   4.150   1.759  -0.015 -2.0050  0.2698  1.9644
 1280SOL    HW3 4887   4.297   1.768   0.019 -1.0840 -0.9214 -1.2384
 1280SOL    MW4 4888   4.215   1.797   0.028 -0.5577  0.3591 -0.1529
 1281SOL     OW 4889   0.414   4.598   0.799 -0.3995  0.5755  0.4909
 1281SOL    HW2 4890   0.362   4.661   0.849 -0.7844  1.4842 -0.9903
 1281SOL    HW3 4891   0.475   4.652   0.749 -1.3679 -0.1149 -1.5300
 1281SOL    MW4 4892   0.415   4.614   0.799 -0.5781  0.6043  0.0288
 1282SOL     OW 4893   0.329   3.872   1.400  0.4350 -0.1009 -0.3296
 1282SOL    HW2 4894   0.366   3.887   1.487 -0.7526 -1.4714  0.4459
 1282SOL    HW3 4895   0.235   3.866   1.415  0.2799 -1.1319 -1.6028
 1282SOL    MW4 4896   0.322   3.873   1.413  0.2579 -0.4178 -0.3952
 1283SOL     OW 4897   2.802   0.736   3.810 -0.0496  0.2735 -0.5739
 1283SOL    HW2 4898   2.836   0.825   3.813  0.5481  0.0258  1.6035
 1283SOL    HW3 4899   2.708   0.747   3.795  0.0055  1.2768 -0.2648
 1283SOL    MW4 4900   2.794   0.749   3.808  0.0365  0.3732 -0.2459
 1284SOL     OW 4901   4.069   6.318   3.992  0.3347  0.1688  0.6288
 1284SOL    HW2 4902   3.995   6.274   3.950 -1.0961  1.4783  1.6639
 1284SOL    HW3 4903   4.111   6.368   3.922 -1.0158  1.0228  0.3995
 1284SOL    MW4 4904   4.065   6.318   3.977 -0.0322  0.4543  0.7351
 1285SOL     OW 4905   5.930   2.451   3.609 -1.0736 -0.2045 -0.0780
 1285SOL    HW2 4906   6.017   2.483   3.634 -0.6723 -1.2537 -0.1030
 1285SOL    HW3 4907   5.898   2.404   3.686 -1.7402  0.3971  0.0244
 1285SOL    MW4 4908   5.937   2.449   3.623 -1.1086 -0.2636 -0.0678
 1286SOL     OW 4909   4.755   3.960   5.539 -0.3906  0.1656 -0.2456
 1286SOL    HW2 4910   4.807   4.027   5.583 -1.2679  0.7414 -0.0630
 1286SOL    HW3 4911   4.778   3.968   5.446 -1.6329  1.7854 -0.4471
 1286SOL    MW4 4912   4.765   3.970   5.533 -0.6702  0.4553 -0.2481
 1287SOL     OW 4913   4.004   2.498   1.389  0.4441 -0.2875 -0.7610
 1287SOL    HW2 4914   3.948   2.546   1.449 -1.4214 -1.1531 -1.7477
 1287SOL    HW3 4915   4.077   2.469   1.443 -0.3424  0.3555  0.6972
 1287SOL    MW4 4916   4.007   2.501   1.404  0.0942 -0.3169 -0.6988
 1288SOL     OW 4917   4.983   6.295   4.424  0.2503 -0.3905 -0.1226
 1288SOL    HW2 4918   5.031   6.365   4.467 -1.6988 -0.2366  1.9711
 1288SOL    HW3 4919   5.000   6.308   4.330  2.2079  1.0978  0.3846
 1288SOL    MW4 4920   4.991   6.306   4.417  0.2514 -0.1739  0.2206
 1289SOL     OW 4921   0.633   2.408   2.598  0.4394 -0.4254 -0.1551
 1289SOL    HW2 4922   0.620   2.350   2.523 -0.8604  1.1779 -1.2571
 1289SOL    HW3 4923   0.545   2.420   2.635  0.8117  0.1164  0.5979
 1289SOL    MW4 4924   0.620   2.402   2.593  0.3170 -0.1424 -0.2011
 1290SOL     OW 4925   3.537   0.305   4.985 -0.0583 -0.4493 -0.3709
 1290SOL    HW2 4926   3.599   0.308   4.913  0.0994 -1.5089 -0.3016
 1290SOL    HW3 4927   3.562   0.226   5.034  1.2503  1.3641  2.1207
 1290SOL    MW4 4928   3.549   0.295   4.982  0.1352 -0.3499 -0.0331
 1291SOL     OW 4929   3.551   5.128   1.129 -0.5548  0.5135 -0.3417
 1291SOL    HW2 4930   3.641   5.110   1.155  0.0503 -1.5851 -3.3594
 1291SOL    HW3 4931   3.499   5.107   1.206  1.4069  0.1372  0.9417
 1291SOL    MW4 4932   3.556   5.123   1.142 -0.2162  0.1870 -0.5705
 1292SOL     OW 4933   2.951   6.256   4.215 -0.2203 -0.1047 -0.0768
 1292SOL    HW2 4934   2.873   6.224   4.260 -0.6586  0.4372 -0.4601
 1292SOL    HW3 4935   2.992   6.177   4.179  0.2024 -0.5776  1.3436
 1292SOL    MW4 4936   2.946   6.241   4.216 -0.2223 -0.0956  0.0600
 1293SOL     OW 4937   3.781   2.617   3.921  0.1499 -0.1710  0.2656
 1293SOL    HW2 4938   3.807   2.603   3.830 -0.8474  0.0817 -0.0749
 1293SOL    HW3 4939   3.848   2.675   3.956 -0.6335  1.5867 -0.9720
 1293SOL    MW4 4940   3.793   2.623   3.913 -0.0850  0.0943  0.0574
 1294SOL     OW 4941   6.302   4.851   2.203 -0.1827  0.1890  0.2154
 1294SOL    HW2 4942   6.215   4.889   2.213 -0.2000  0.4963 -0.9704
 1294SOL    HW3 4943   6.362   4.920   2.232 -0.2834  0.5032 -0.3102
 1294SOL    MW4 4944   6.299   4.865   2.208 -0.1983  0.2710 -0.0104
 1295SOL     OW 4945   0.177   1.111   5.486 -0.0716  0.3005 -0.2434
 1295SOL    HW2 4946   0.140   1.025   5.466 -0.3996  0.1991  0.7337
 1295SOL    HW3 4947   0.267   1.106   5.453 -0.3553 -0.1032 -0.9809
 1295SOL    MW4 4948   0.184   1.099   5.479 -0.1523  0.2339 -0.2118
 1296SOL     OW 4949   0.600   5.094   5.759  0.6916  0.1493 -0.4240
 1296SOL    HW2 4950   0.598   5.170   5.701  1.0350  0.8733  0.4956
 1296SOL    HW3 4951   0.648   5.027   5.709 -0.5031  0.1567 -1.6502
 1296SOL    MW4 4952   0.606   5.095   5.744  0.5793  0.2458 -0.4645
 1297SOL     OW 4953   2.857   6.011   4.420  0.4466  0.0369 -0.0364
 1297SOL    HW2 4954   2.874   5.932   4.369  0.7938 -0.2922  0.5730
 1297SOL    HW3 4955   2.821   5.979   4.503  1.6682  0.4236  0.6761
 1297SOL    MW4 4956   2.855   5.996   4.424  0.6536  0.0445  0.1380
 1298SOL     OW 4957   2.205   0.250   0.067 -0.2321  0.5489 -0.2593
 1298SOL    HW2 4958   2.123   0.240   0.115 -0.9906  0.3372 -1.5663
 1298SOL    HW3 4959   2.179   0.250  -0.025  1.3119 -0.2338 -0.7189
 1298SOL    MW4 4960   2.191   0.249   0.061 -0.1285  0.4177 -0.4924
 1299SOL     OW 4961   4.119   4.330   4.616  0.1770 -0.6468  0.2152
 1299SOL    HW2 4962   4.126   4.248   4.567 -1.9805  0.4885 -2.2283
 1299SOL    HW3 4963   4.032   4.326   4.657 -0.5730  0.9381 -1.1061
 1299SOL    MW4 4964   4.109   4.319   4.615 -0.2066 -0.2879 -0.2816
 1300SOL     OW 4965   4.667   2.226   1.586 -0.4512  0.0576 -0.1704
 1300SOL    HW2 4966   4.744   2.197   1.537  0.8540 -0.6785  2.1545
 1300SOL    HW3 4967   4.673   2.321   1.585 -0.4073  0.0586 -1.3211
 1300SOL    MW4 4968   4.678   2.235   1.580 -0.2732 -0.0394 -0.0155
 1301SOL     OW 4969   2.038   5.605   0.110  0.7268 -0.1659 -0.2063
 1301SOL    HW2 4970   1.970   5.663   0.074  0.9160  1.2057  1.4678
 1301SOL    HW3 4971   2.022   5.607   0.205  1.6728 -1.7145  0.0182
 1301SOL    MW4 4972   2.027   5.613   0.118  0.8766 -0.1892  0.0442
 1302SOL     OW 4973   5.135   2.701   2.164 -0.5663  0.3182  0.7866
 1302SOL    HW2 4974   5.134   2.631   2.229  0.6956 -0.1963  0.2747
 1302SOL    HW3 4975   5.131   2.656   2.080  0.6270  0.8189  0.4388
 1302SOL    MW4 4976   5.134   2.686   2.162 -0.2423  0.3164  0.6732
 1303SOL     OW 4977   3.090   5.826   1.471 -0.3523 -0.1535  0.0253
 1303SOL    HW2 4978   3.007   5.816   1.519 -0.5709  1.1466 -0.0366
 1303SOL    HW3 4979   3.081   5.911   1.428  0.5448 -0.5426 -0.9378
 1303SOL    MW4 4980   3.078   5.836   1.472 -0.2628 -0.0333 -0.1099
 1304SOL     OW 4981   3.556   0.226   6.124 -1.0035  0.1756 -0.3295
 1304SOL    HW2 4982   3.611   0.160   6.081  1.0292  2.2791 -1.1250
 1304SOL    HW3 4983   3.471   0.183   6.134 -0.4118 -1.7925 -2.8086
 1304SOL    MW4 4984   3.552   0.211   6.120 -0.6573  0.1935 -0.7615
 1305SOL     OW 4985   0.520   4.024   5.475  0.1624 -0.6819 -0.4180
 1305SOL    HW2 4986   0.448   4.077   5.509  1.2575  1.7567 -1.6233
 1305SOL    HW3 4987   0.500   4.015   5.381  0.6984 -1.2111 -0.4866
 1305SOL    MW4 4988   0.508   4.030   5.467  0.3776 -0.4300 -0.5861
 1306SOL     OW 4989   2.664   2.496   3.786 -0.1232 -0.3458 -0.0491
 1306SOL    HW2 4990   2.583   2.483   3.836  0.1005 -0.6175  0.2437
 1306SOL    HW3 4991   2.664   2.589   3.764 -1.3260 -0.6400 -1.4441
 1306SOL    MW4 4992   2.653   2.507   3.789 -0.2524 -0.4205 -0.1945
 1307SOL     OW 4993   0.994   1.708   3.424 -0.3592 -0.0562 -0.0012
 1307SOL    HW2 4994   1.062   1.722   3.359  0.5227  2.0563  1.3056
 1307SOL    HW3 4995   1.026   1.634   3.477  1.3511  1.3813  1.0697
 1307SOL    MW4 4996   1.007   1.700   3.422 -0.0172  0.4122  0.3125
 1308SOL     OW 4997   2.148   1.098   4.934  0.2309  0.3071  0.1551
 1308SOL    HW2 4998   2.103   1.080   5.017  0.9767 -1.6224  0.2023
 1308SOL    HW3 4999   2.138   1.192   4.921 -1.8300  0.3193  1.3068
 1308SOL    MW4 5000   2.140   1.108   4.943  0.0574  0.0541  0.3133
 1309SOL     OW 5001   2.871   4.942   1.943  0.2855  0.2093  0.2689
 1309SOL    HW2 5002   2.914   4.866   1.982 -0.2517 -0.2200  0.0435
 1309SOL    HW3 5003   2.779   4.932   1.966 -0.0405 -0.0524 -1.0783
 1309SOL    MW4 5004   2.865   4.931   1.951  0.1716  0.1181  0.0614
 1310SOL     OW 5005   3.283   0.525   5.989 -0.1167  0.2764  0.6427
 1310SOL    HW2 5006   3.376   0.529   5.968 -0.6124  1.0304 -1.8227
 1310SOL    HW3 5007   3.254   0.440   5.955 -0.4410  0.3345  0.7660
 1310SOL    MW4 5008   3.291   0.514   5.982 -0.2249  0.3836  0.3337
 1311SOL     OW 5009   4.475   4.825   1.139  0.0675  0.3585  0.0795
 1311SOL    HW2 5010   4.389   4.831   1.099  0.1338 -0.0661 -0.1380
 1311SOL    HW3 5011   4.489   4.910   1.181  0.1682  0.9624 -1.1433
 1311SOL    MW4 5012   4.466   4.837   1.139  0.0895  0.3821 -0.1105
 1312SOL     OW 5013   6.263   4.124   6.295 -0.2007  0.1863  0.0601
 1312SOL    HW2 5014   6.323   4.081   6.234  0.3131  0.7420  0.1599
 1312SOL    HW3 5015   6.307   4.206   6.317 -2.0940  1.8247 -1.7835
 1312SOL    MW4 5016   6.277   4.129   6.290 -0.3827  0.4758 -0.1700
 1313SOL     OW 5017   1.348   6.105   1.437 -0.4735 -0.5567 -0.1963
 1313SOL    HW2 5018   1.259   6.100   1.471 -0.6899  1.9637 -0.1730
 1313SOL    HW3 5019   1.337   6.110   1.342 -0.4440  0.5586 -0.1542
 1313SOL    MW4 5020   1.335   6.105   1.429 -0.4981 -0.0770 -0.1877
 1314SOL     OW 5021   3.551   2.899   0.862  0.1860  0.1184  0.1741
 1314SOL    HW2 5022   3.643   2.892   0.885 -0.1501 -2.0465  1.1438
 1314SOL    HW3 5023   3.540   2.837   0.789 -0.6467 -0.3562  0.6790
 1314SOL    MW4 5024   3.561   2.890   0.855  0.0318 -0.2299  0.3687
 1315SOL     OW 5025   3.864   0.662   3.446 -0.3549  0.3712  0.2784
 1315SOL    HW2 5026   3.895   0.670   3.356  0.2696 -0.6676  0.3852
 1315SOL    HW3 5027   3.935   0.617   3.492 -0.3232  1.5833  1.4820
 1315SOL    MW4 5028   3.878   0.657   3.440 -0.2684  0.3941  0.4513
 1316SOL     OW 5029   2.273   5.653   4.751  0.2215  0.2683  0.0552
 1316SOL    HW2 5030   2.342   5.713   4.725 -0.4504  0.8379 -0.4584
 1316SOL    HW3 5031   2.224   5.700   4.819  2.1167 -1.2965  2.7204
 1316SOL    MW4 5032   2.275   5.667   4.757  0.3829  0.1370  0.3391
 1317SOL     OW 5033   0.294   4.275   5.848 -0.3133 -0.0012  0.3028
 1317SOL    HW2 5034   0.338   4.232   5.921  0.6741  0.3060 -0.0957
 1317SOL    HW3 5035   0.342   4.357   5.836 -0.4898 -0.0247 -0.6546
 1317SOL    MW4 5036   0.306   4.280   5.856 -0.2063  0.0362  0.1239
 1318SOL     OW 5037   4.715   4.545   1.602  0.0556  0.0762  0.1153
 1318SOL    HW2 5038   4.635   4.516   1.646  0.6577 -0.3320  0.9737
 1318SOL    HW3 5039   4.752   4.466   1.563 -0.6247  0.4820 -1.4296
 1318SOL    MW4 5040   4.710   4.531   1.603  0.0452  0.0759  0.0248
 1319SOL     OW 5041   3.446   4.591   6.308  0.4457 -0.1157 -0.0878
 1319SOL    HW2 5042   3.540   4.608   6.297  0.3867  0.5160  0.3308
 1319SOL    HW3 5043   3.423   4.637   6.389 -0.2671 -0.0870 -0.3028
 1319SOL    MW4 5044   3.456   4.599   6.317  0.3439 -0.0285 -0.0609
 1320SOL     OW 5045   5.145   0.108   0.600  0.3065  0.4241 -0.0303
 1320SOL    HW2 5046   5.065   0.060   0.622  0.4158 -0.4332 -1.3834
 1320SOL    HW3 5047   5.114   0.187   0.556  0.1860  0.4089  0.0256
 1320SOL    MW4 5048   5.130   0.112   0.597  0.3050  0.3090 -0.2015
 1321SOL     OW 5049   2.330   3.589   1.269 -0.2142 -0.3354  0.7504
 1321SOL    HW2 5050   2.397   3.647   1.232  0.7829 -0.4120  2.3179
 1321SOL    HW3 5051   2.375   3.544   1.340 -0.6831 -3.7149 -0.8969
 1321SOL    MW4 5052   2.345   3.591   1.273 -0.1445 -0.7914  0.7399
 1322SOL     OW 5053   3.224   0.887   4.400 -0.1585 -0.8775 -0.0178
 1322SOL    HW2 5054   3.187   0.966   4.439 -2.3027 -2.7033  1.9393
 1322SOL    HW3 5055   3.151   0.846   4.353  0.5304 -2.3378  0.1046
 1322SOL    MW4 5056   3.209   0.892   4.399 -0.3505 -1.3110  0.2566
 1323SOL     OW 5057   3.677   1.892   6.217  0.2855 -0.1751 -0.2111
 1323SOL    HW2 5058   3.733   1.855   6.285  0.2362  2.2612  1.2482
 1323SOL    HW3 5059   3.623   1.957   6.262 -0.4590  0.8244 -2.3988
 1323SOL    MW4 5060   3.677   1.896   6.232  0.1808  0.2782 -0.3072
 1324SOL     OW 5061   3.766   3.586   0.128 -0.5105 -0.4352 -0.6219
 1324SOL    HW2 5062   3.680   3.613   0.097  0.0112  0.0412 -1.7123
 1324SOL    HW3 5063   3.828   3.631   0.070  0.5096  0.1044  0.8324
 1324SOL    MW4 5064   3.763   3.596   0.116 -0.3071 -0.3012 -0.5739
 1325SOL     OW 5065   1.469   1.703   3.043 -0.0434 -0.3054  1.0111
 1325SOL    HW2 5066   1.480   1.659   3.127 -0.5876 -0.0806  1.2032
 1325SOL    HW3 5067   1.437   1.635   2.983 -2.1142  0.0736  1.6147
 1325SOL    MW4 5068   1.466   1.689   3.046 -0.3884 -0.2257  1.1161
 1326SOL     OW 5069   1.153   2.234   0.130  0.5856 -0.6704 -0.4894
 1326SOL    HW2 5070   1.196   2.158   0.170  0.8499 -0.2136  0.1148
 1326SOL    HW3 5071   1.096   2.269   0.200 -1.5172 -1.8019 -1.5291
 1326SOL    MW4 5072   1.151   2.229   0.145  0.3430 -0.7594 -0.5469
 1327SOL     OW 5073   5.522   1.695   4.597  0.3862  0.1713  0.0182
 1327SOL    HW2 5074   5.545   1.734   4.513  1.4114 -0.7980 -0.1725
 1327SOL    HW3 5075   5.432   1.664   4.586  0.1374  1.0130 -0.3548
 1327SOL    MW4 5076   5.513   1.696   4.584  0.4886  0.1545 -0.0561
 1328SOL     OW 5077   2.496   0.159   4.679  0.1714  0.1563 -0.1111
 1328SOL    HW2 5078   2.503   0.218   4.603 -1.0511 -0.2901 -0.5912
 1328SOL    HW3 5079   2.433   0.092   4.652 -0.6874  0.2696  1.4720
 1328SOL    MW4 5080   2.489   0.158   4.665 -0.1032  0.1123  0.0345
 1329SOL     OW 5081   0.765   4.395   4.393  0.6354  0.3383 -0.1027
 1329SOL    HW2 5082   0.683   4.409   4.345  1.3131  1.6265 -0.9535
 1329SOL    HW3 5083   0.742   4.336   4.464 -0.9288  0.2995 -0.6120
 1329SOL    MW4 5084   0.751   4.389   4.396  0.5184  0.5031 -0.2822
 1330SOL     OW 5085   5.850   0.455   1.517 -0.2792 -0.2208 -0.2202
 1330SOL    HW2 5086   5.813   0.536   1.552 -1.2370 -0.7078 -0.0710
 1330SOL    HW3 5087   5.880   0.408   1.595 -0.2933 -0.2827 -0.2528
 1330SOL    MW4 5088   5.849   0.460   1.532 -0.4074 -0.2932 -0.2048
 1331SOL     OW 5089   1.286   5.959   0.717 -0.3094 -0.4856 -0.6108
 1331SOL    HW2 5090   1.362   5.940   0.663  0.0865 -2.6920  0.5760
 1331SOL    HW3 5091   1.216   5.905   0.679 -0.2906 -1.2616  0.4043
 1331SOL    MW4 5092   1.287   5.949   0.705 -0.2547 -0.8791 -0.3203
 1332SOL     OW 5093   3.215   0.141   0.736 -0.4360  0.3186  1.1604
 1332SOL    HW2 5094   3.300   0.181   0.719 -0.8317  0.9062  0.4763
 1332SOL    HW3 5095   3.228   0.089   0.815  0.6379  0.1319  0.8741
 1332SOL    MW4 5096   3.228   0.139   0.744 -0.3465  0.3715  1.0324
 1333SOL     OW 5097   2.905   5.818   4.680 -0.0719  0.4070  0.1145
 1333SOL    HW2 5098   2.923   5.755   4.610 -0.3392  0.7468 -0.2598
 1333SOL    HW3 5099   2.920   5.768   4.760 -1.3480 -0.4547 -0.1614
 1333SOL    MW4 5100   2.910   5.803   4.681 -0.2755  0.3382  0.0287
 1334SOL     OW 5101   0.884   5.207   5.541  0.3007  0.4446 -0.2746
 1334SOL    HW2 5102   0.932   5.272   5.491 -0.9978  1.1564 -0.6484
 1334SOL    HW3 5103   0.869   5.248   5.626  0.1949  0.3022 -0.2233
 1334SOL    MW4 5104   0.888   5.221   5.546  0.1154  0.5197 -0.3171
 1335SOL     OW 5105   1.614   5.803   6.040  0.2144 -0.3611  0.7061
 1335SOL    HW2 5106   1.654   5.719   6.016  1.8591  0.7414 -0.6521
 1335SOL    HW3 5107   1.631   5.860   5.965  0.4215  1.6209  2.1860
 1335SOL    MW4 5108   1.621   5.799   6.027  0.4587  0.0459  0.7222
 1336SOL     OW 5109   2.565   3.534   2.123  0.6140 -0.0160 -0.2334
 1336SOL    HW2 5110   2.480   3.495   2.102  0.9522 -0.2801 -1.1754
 1336SOL    HW3 5111   2.543   3.615   2.170 -0.1447 -0.2754 -0.1173
 1336SOL    MW4 5112   2.551   3.539   2.127  0.5586 -0.0851 -0.3423
 1337SOL     OW 5113   2.199   2.631   5.466  0.0515  0.0776 -0.1476
 1337SOL    HW2 5114   2.171   2.677   5.386  0.4501  2.9379  1.2426
 1337SOL    HW3 5115   2.191   2.697   5.535  0.9241 -1.9395  1.9747
 1337SOL    MW4 5116   2.194   2.646   5.464  0.2193  0.1889  0.3158
 1338SOL     OW 5117   3.247   4.301   6.398 -0.1882 -0.4230 -0.1062
 1338SOL    HW2 5118   3.339   4.283   6.378  0.1031 -1.1986  1.7361
 1338SOL    HW3 5119   3.224   4.375   6.341  2.0156  0.7504  0.3984
 1338SOL    MW4 5120   3.256   4.309   6.388  0.1410 -0.3705  0.2035
 1339SOL     OW 5121   0.289   1.634   3.086  0.2796  0.4919  0.0522
 1339SOL    HW2 5122   0.206   1.589   3.070 -0.7158  2.7918 -1.6950
 1339SOL    HW3 5123   0.264   1.720   3.119  2.0086  0.9620  0.2408
 1339SOL    MW4 5124   0.275   1.639   3.088  0.3764  0.8574 -0.1534
 1340SOL     OW 5125   2.881   5.793   1.658 -0.1952  0.2662  0.5758
 1340SOL    HW2 5126   2.799   5.843   1.662 -0.3645 -0.0622  2.8457
 1340SOL    HW3 5127   2.871   5.726   1.725  0.6555 -1.9059 -1.3410
 1340SOL    MW4 5128   2.869   5.791   1.668 -0.1053 -0.0637  0.6224
 1341SOL     OW 5129   6.070   4.955   5.631  0.7189  0.3747  0.2848
 1341SOL    HW2 5130   6.007   4.971   5.561 -1.4726 -0.2020  1.9965
 1341SOL    HW3 5131   6.063   5.031   5.688 -0.4770 -0.8586  1.8805
 1341SOL    MW4 5132   6.061   4.967   5.629  0.2720  0.1359  0.7212
 1342SOL     OW 5133   4.843   5.434   3.182  0.2477  0.0425  0.6076
 1342SOL    HW2 5134   4.899   5.378   3.236  0.4926  0.0774  0.3922
 1342SOL    HW3 5135   4.783   5.373   3.139 -0.9269  0.1343  2.0383
 1342SOL    MW4 5136   4.843   5.418   3.184  0.1250  0.0592  0.7679
 1343SOL     OW 5137   0.347   1.315   2.857 -0.0728 -0.2998 -0.0095
 1343SOL    HW2 5138   0.390   1.276   2.933 -0.3710 -2.7363 -0.9985
 1343SOL    HW3 5139   0.368   1.256   2.785  0.5008  2.1043 -1.9596
 1343SOL    MW4 5140   0.355   1.302   2.857 -0.0365 -0.3041 -0.3973
 1344SOL     OW 5141   5.007   0.469   4.396 -0.2180 -0.0322  0.3722
 1344SOL    HW2 5142   4.974   0.413   4.326 -0.6938  0.0155  0.5478
 1344SOL    HW3 5143   5.058   0.537   4.352 -1.1552  0.4459  0.0011
 1344SOL    MW4 5144   5.009   0.471   4.381 -0.4044  0.0371  0.3464
 1345SOL     OW 5145   1.070   3.472   0.646  0.2410  0.6639  1.0569
 1345SOL    HW2 5146   0.986   3.427   0.658  0.6868  0.1389  2.3890
 1345SOL    HW3 5147   1.133   3.401   0.630  0.4675  1.0396  0.2421
 1345SOL    MW4 5148   1.067   3.456   0.646  0.3297  0.6442  1.1251
 1346SOL     OW 5149   5.446   5.337   3.334 -0.2068  0.3903  0.3671
 1346SOL    HW2 5150   5.525   5.284   3.329  0.6265  1.4525  1.7941
 1346SOL    HW3 5151   5.385   5.284   3.385  0.5259  0.6411  1.5461
 1346SOL    MW4 5152   5.448   5.323   3.340 -0.0002  0.5636  0.7109
 1347SOL     OW 5153   1.075   2.720   1.583 -0.2113 -0.0368 -0.2154
 1347SOL    HW2 5154   1.075   2.708   1.488  1.5647  1.1129 -0.4122
 1347SOL    HW3 5155   1.104   2.636   1.618 -1.5126 -0.6797 -0.6171
 1347SOL    MW4 5156   1.079   2.708   1.575 -0.1487  0.0300 -0.2944
 1348SOL     OW 5157   6.232   1.179   5.593 -0.0989 -0.6131 -0.2156
 1348SOL    HW2 5158   6.322   1.188   5.624  0.1652 -0.0057 -1.1247
 1348SOL    HW3 5159   6.221   1.086   5.576  0.4724 -0.6422 -0.4446
 1348SOL    MW4 5160   6.242   1.168   5.595  0.0113 -0.5368 -0.3658
 1349SOL     OW 5161   4.591   3.026   0.324  0.1392 -0.3140 -0.0610
 1349SOL    HW2 5162   4.626   3.116   0.325  1.5096 -0.8279  0.8473
 1349SOL    HW3 5163   4.668   2.970   0.314 -0.5586 -1.4436  0.6709
 1349SOL    MW4 5164   4.606   3.031   0.323  0.2279 -0.5308  0.1554
 1350SOL     OW 5165   0.108   4.180   1.610 -0.3163 -0.3058 -0.0008
 1350SOL    HW2 5166   0.040   4.131   1.563 -0.5150 -0.8705  0.8439
 1350SOL    HW3 5167   0.186   4.172   1.555 -0.6957 -0.4398 -0.5268
 1350SOL    MW4 5168   0.109   4.172   1.597 -0.3926 -0.3980  0.0412
 1351SOL     OW 5169   0.865   3.437   3.875 -0.6484  0.1200 -0.8986
 1351SOL    HW2 5170   0.833   3.516   3.831 -1.4273  1.0970  1.2818
 1351SOL    HW3 5171   0.881   3.465   3.966  0.9338 -1.7754 -0.5341
 1351SOL    MW4 5172   0.863   3.451   3.881 -0.5424 -0.0012 -0.5629
 1352SOL     OW 5173   2.089   0.682   5.047  0.2346 -0.0527 -0.4328
 1352SOL    HW2 5174   2.150   0.609   5.036  1.1178  0.5625  0.3000
 1352SOL    HW3 5175   2.027   0.651   5.113  0.4908 -0.2163 -0.2670
 1352SOL    MW4 5176   2.089   0.668   5.055  0.3849  0.0069 -0.3142
 1353SOL     OW 5177   3.035   4.930   1.074 -0.4340  0.2589  0.0179
 1353SOL    HW2 5178   2.957   4.878   1.059 -1.9386  1.9845  1.4279
 1353SOL    HW3 5179   3.107   4.867   1.074 -1.4338 -1.0993 -3.7728
 1353SOL    MW4 5180   3.034   4.915   1.072 -0.7645  0.3073 -0.2962
 1354SOL     OW 5181   3.176   2.115   0.775  0.0874 -0.2528 -0.3934
 1354SOL    HW2 5182   3.136   2.138   0.858  1.2326  0.3647  0.0094
 1354SOL    HW3 5183   3.149   2.025   0.759 -0.8281 -0.0964  0.2249
 1354SOL    MW4 5184   3.168   2.107   0.784  0.1177 -0.1507 -0.2587
 1355SOL     OW 5185   3.660   2.662   4.808  0.0860 -0.1197  0.4663
 1355SOL    HW2 5186   3.723   2.615   4.753 -0.6361  0.8084 -1.2464
 1355SOL    HW3 5187   3.692   2.753   4.807  0.3631 -0.1744  2.0787
 1355SOL    MW4 5188   3.673   2.668   4.800  0.0273 -0.0045  0.4530
 1356SOL     OW 5189   4.770   1.218   4.555  0.5056  0.3091  0.4312
 1356SOL    HW2 5190   4.740   1.308   4.546 -0.6604 -0.0780  0.2921
 1356SOL    HW3 5191   4.831   1.220   4.629  1.0692  1.3420 -0.0486
 1356SOL    MW4 5192   4.774   1.230   4.564  0.4261  0.3943  0.3495
 1357SOL     OW 5193   2.903   5.523   2.214 -0.0931 -0.0153  0.4126
 1357SOL    HW2 5194   2.845   5.467   2.161  0.5936 -0.2418 -0.1107
 1357SOL    HW3 5195   2.955   5.462   2.265  0.1716  0.1705  0.3643
 1357SOL    MW4 5196   2.902   5.507   2.214  0.0324 -0.0207  0.3372
 1358SOL     OW 5197   3.711   3.816   2.222 -0.2830 -0.7341  0.0356
 1358SOL    HW2 5198   3.705   3.793   2.130 -1.2104 -2.2063  0.4288
 1358SOL    HW3 5199   3.733   3.734   2.266  1.7856  0.2540  0.9789
 1358SOL    MW4 5200   3.713   3.802   2.216 -0.1324 -0.7980  0.2119
 1359SOL     OW 5201   3.361   1.360   0.759 -0.4319  0.3705  0.3031
 1359SOL    HW2 5202   3.366   1.314   0.843  1.1349  0.0733  0.0680
 1359SOL    HW3 5203   3.293   1.312   0.711 -0.1204 -0.5612  0.7545
 1359SOL    MW4 5204   3.352   1.347   0.764 -0.1841  0.2084  0.3317
 1360SOL     OW 5205   6.346   0.492   3.755  0.1280  0.1912  0.2347
 1360SOL    HW2 5206   6.384   0.564   3.706 -0.4679 -0.4497 -1.2339
 1360SOL    HW3 5207   6.420   0.436   3.779  0.4920  0.8419  0.6588
 1360SOL    MW4 5208   6.361   0.494   3.752  0.0974  0.1925  0.0969
 1361SOL     OW 5209   5.712   5.532   1.684  0.0182  0.3197  0.3123
 1361SOL    HW2 5210   5.651   5.572   1.623 -0.0599 -0.9691 -0.4859
 1361SOL    HW3 5211   5.727   5.444   1.650  0.3814 -0.2619  1.8559
 1361SOL    MW4 5212   5.706   5.526   1.672  0.0558  0.0729  0.4107
 1362SOL     OW 5213   0.846   4.601   5.414  0.1053 -0.0134  0.3507
 1362SOL    HW2 5214   0.929   4.570   5.450 -0.5810 -1.2516  0.9670
 1362SOL    HW3 5215   0.820   4.532   5.353 -0.3126  0.5248 -0.0901
 1362SOL    MW4 5216   0.854   4.587   5.410 -0.0404 -0.1057  0.3739
 1363SOL     OW 5217   5.347   3.853   1.472  0.1928  0.0507  0.6576
 1363SOL    HW2 5218   5.357   3.946   1.455  1.3753 -0.2343 -0.3119
 1363SOL    HW3 5219   5.428   3.813   1.438 -0.8079 -1.4655 -0.0396
 1363SOL    MW4 5220   5.359   3.860   1.466  0.2168 -0.1870  0.4377
 1364SOL     OW 5221   2.315   3.831   5.459 -0.5107  0.0128 -0.4425
 1364SOL    HW2 5222   2.264   3.764   5.414 -1.1226  0.2472 -0.1161
 1364SOL    HW3 5223   2.341   3.892   5.390 -3.8884  1.9554 -0.1989
 1364SOL    MW4 5224   2.312   3.830   5.444 -1.0371  0.3000 -0.3673
 1365SOL     OW 5225   5.104   6.015   1.951  0.4675 -0.1515  0.2511
 1365SOL    HW2 5226   5.070   6.061   2.028  0.9139  0.6159 -0.0024
 1365SOL    HW3 5227   5.026   5.979   1.909  0.2536 -0.9232  1.2739
 1365SOL    MW4 5228   5.089   6.017   1.955  0.4982 -0.1520  0.3526
 1366SOL     OW 5229   1.278   4.586   4.109  0.1676  0.0582  0.0936
 1366SOL    HW2 5230   1.270   4.506   4.161 -1.9745 -0.2713 -0.6476
 1366SOL    HW3 5231   1.344   4.566   4.043 -1.2299 -1.6052 -0.8823
 1366SOL    MW4 5232   1.286   4.573   4.108 -0.2994 -0.2047 -0.1329
 1367SOL     OW 5233   6.378   1.347   2.100 -0.5444 -0.3280 -0.2968
 1367SOL    HW2 5234   6.422   1.397   2.169  0.9185  0.2273 -1.5712
 1367SOL    HW3 5235   6.378   1.257   2.132  0.1941 -0.0944  0.3842
 1367SOL    MW4 5236   6.384   1.342   2.114 -0.2539 -0.2239 -0.3751
 1368SOL     OW 5237   4.420   1.313   0.855  0.5419  0.3394 -0.1309
 1368SOL    HW2 5238   4.335   1.342   0.890  1.3644  1.3330  1.1699
 1368SOL    HW3 5239   4.480   1.385   0.876  1.7805 -0.4814 -0.7277
 1368SOL    MW4 5240   4.417   1.327   0.863  0.8138  0.3622 -0.0380
 1369SOL     OW 5241   3.286   4.918   3.670  0.3656 -0.1537 -0.9819
 1369SOL    HW2 5242   3.195   4.912   3.699  0.6802  1.8069  0.5755
 1369SOL    HW3 5243   3.323   4.832   3.690 -0.3584  0.0142  1.3684
 1369SOL    MW4 5244   3.279   4.906   3.676  0.3116  0.1271 -0.4663
 1370SOL     OW 5245   0.323   0.195   4.547  0.6553 -0.1311  0.0487
 1370SOL    HW2 5246   0.369   0.163   4.625  2.3866 -1.2788 -1.3632
 1370SOL    HW3 5247   0.296   0.116   4.502 -1.7286  0.5335  0.2127
 1370SOL    MW4 5248   0.326   0.180   4.552  0.5692 -0.1949 -0.1159
 1371SOL     OW 5249   2.284   1.353   6.360  0.0773 -0.0410 -0.0974
 1371SOL    HW2 5250   2.240   1.437   6.379  0.0732  0.0214 -0.3731
 1371SOL    HW3 5251   2.377   1.372   6.371  0.1103  0.1409 -0.6857
 1371SOL    MW4 5252   2.290   1.367   6.364  0.0811 -0.0088 -0.2114
 1372SOL     OW 5253   5.804   4.809   1.574 -0.1193 -0.1510 -0.4926
 1372SOL    HW2 5254   5.868   4.742   1.552  0.2626 -0.4393  1.3517
 1372SOL    HW3 5255   5.772   4.841   1.489  2.5768  0.1520 -1.4846
 1372SOL    MW4 5256   5.808   4.804   1.560  0.2868 -0.1491 -0.3801
 1373SOL     OW 5257   2.619   4.608   0.988  0.0382 -0.0615 -0.0729
 1373SOL    HW2 5258   2.579   4.523   1.007 -0.5231  0.0630 -0.6635
 1373SOL    HW3 5259   2.551   4.656   0.941  0.4325  0.6331  0.0560
 1373SOL    MW4 5260   2.605   4.603   0.985  0.0162  0.0466 -0.1338
 1374SOL     OW 5261   2.978   0.859   4.032  0.1586 -0.3128 -0.3255
 1374SOL    HW2 5262   3.062   0.892   4.000 -0.2233  1.6531  0.5545
 1374SOL    HW3 5263   3.000   0.815   4.114  0.6276 -2.0403 -1.3324
 1374SOL    MW4 5264   2.992   0.858   4.039  0.1701 -0.2813 -0.3422
 1375SOL     OW 5265   3.994   6.231   5.697 -0.1993 -0.2068 -0.0722
 1375SOL    HW2 5266   3.982   6.326   5.704  0.2941  0.1806 -3.1340
 1375SOL    HW3 5267   4.039   6.207   5.778 -2.1286  1.7928  1.7312
 1375SOL    MW4 5268   3.998   6.241   5.708 -0.3888  0.1081 -0.2382
 1376SOL     OW 5269   3.519   1.338   5.395  0.0028  0.3951 -0.2861
 1376SOL    HW2 5270   3.499   1.300   5.309 -2.5278 -0.2588  0.5096
 1376SOL    HW3 5271   3.460   1.413   5.402  0.8800  1.0306  0.5281
 1376SOL    MW4 5272   3.509   1.343   5.384 -0.2154  0.3926 -0.0737
 1377SOL     OW 5273   4.237   3.293   0.877 -0.3144 -0.6083  0.0689
 1377SOL    HW2 5274   4.270   3.258   0.794  0.3914 -0.3833  0.2466
 1377SOL    HW3 5275   4.206   3.216   0.925 -0.5468 -0.7628 -0.3236
 1377SOL    MW4 5276   4.237   3.278   0.872 -0.2520 -0.5990  0.0406
 1378SOL     OW 5277   3.577   4.148   3.681  0.5794  0.1126 -0.2602
 1378SOL    HW2 5278   3.622   4.231   3.664  1.5755 -0.4322 -0.4128
 1378SOL    HW3 5279   3.607   4.123   3.769  0.2679 -0.0741 -0.2083
 1378SOL    MW4 5280   3.587   4.156   3.690  0.6697  0.0160 -0.2735
 1379SOL     OW 5281   2.095   5.204   3.412  0.0984  0.3131 -0.1517
 1379SOL    HW2 5282   2.022   5.230   3.355 -0.1272 -2.0399 -1.0373
 1379SOL    HW3 5283   2.173   5.237   3.369 -0.2139  0.1076 -0.8813
 1379SOL    MW4 5284   2.095   5.212   3.399  0.0274 -0.0245 -0.3648
 1380SOL     OW 5285   5.083   5.122   4.521 -0.2940 -0.0763  0.0420
 1380SOL    HW2 5286   5.148   5.099   4.587  0.5232  0.2691 -0.6161
 1380SOL    HW3 5287   5.124   5.098   4.438 -1.1761 -0.2194 -0.3646
 1380SOL    MW4 5288   5.097   5.116   4.518 -0.3026 -0.0496 -0.0985
 1381SOL     OW 5289   2.053   5.940   4.550 -0.0155 -0.1515  0.4997
 1381SOL    HW2 5290   2.032   5.847   4.564 -2.3770  0.2814  0.2483
 1381SOL    HW3 5291   2.049   5.951   4.455 -0.4365  0.3405  0.5706
 1381SOL    MW4 5292   2.050   5.929   4.539 -0.3826 -0.0295  0.4759
 1382SOL     OW 5293   0.292   1.069   6.225  0.0703 -0.1658 -0.3740
 1382SOL    HW2 5294   0.281   1.160   6.253 -0.5010 -0.7979  1.6403
 1382SOL    HW3 5295   0.212   1.025   6.254  0.5541 -1.4093 -0.8509
 1382SOL    MW4 5296   0.280   1.075   6.233  0.0588 -0.4132 -0.1712
 1383SOL     OW 5297   3.781   0.004   2.009 -0.1604  0.2715 -0.0587
 1383SOL    HW2 5298   3.724  -0.013   2.085  0.2412 -0.1533  0.1517
 1383SOL    HW3 5299   3.721   0.033   1.940 -1.1080 -3.1019 -0.8259
 1383SOL    MW4 5300   3.765   0.006   2.010 -0.2324 -0.2296 -0.1321
 1384SOL     OW 5301   1.961   3.896   2.025 -0.5112 -1.0938  0.8605
 1384SOL    HW2 5302   1.912   3.839   1.967 -1.6295  1.3787 -0.8178
 1384SOL    HW3 5303   1.916   3.889   2.110 -2.5931 -0.4294 -0.1190
 1384SOL    MW4 5304   1.949   3.888   2.029 -0.9334 -0.6799  0.5099
 1385SOL     OW 5305   1.254   2.398   2.364  0.4358 -0.3483  0.2409
 1385SOL    HW2 5306   1.323   2.365   2.307  1.2829 -0.5897  1.3640
 1385SOL    HW3 5307   1.282   2.487   2.386 -0.2868  0.0296 -0.3401
 1385SOL    MW4 5308   1.267   2.406   2.360  0.4522 -0.3303  0.3124
 1386SOL     OW 5309   0.849   0.295   2.641  0.1126 -0.2019 -0.4908
 1386SOL    HW2 5310   0.917   0.235   2.673 -0.0125 -0.7213 -1.1821
 1386SOL    HW3 5311   0.802   0.245   2.574 -0.1160  0.5971 -0.9416
 1386SOL    MW4 5312   0.852   0.280   2.636  0.0659 -0.1650 -0.6415
 1387SOL     OW 5313   0.079   0.545   6.339 -0.1963  0.1470  0.0761
 1387SOL    HW2 5314   0.095   0.451   6.350  1.5457  0.3925 -0.0970
 1387SOL    HW3 5315  -0.016   0.552   6.325 -0.1853 -1.7427 -1.3772
 1387SOL    MW4 5316   0.068   0.534   6.338  0.0350 -0.0699 -0.1385
 1388SOL     OW 5317   2.696   1.849   1.757  0.0814 -0.5466 -0.1567
 1388SOL    HW2 5318   2.782   1.849   1.715  1.0984  1.0660  1.7267
 1388SOL    HW3 5319   2.708   1.794   1.835 -1.1667 -1.8181 -0.8289
 1388SOL    MW4 5320   2.709   1.842   1.762  0.0509 -0.5016  0.0031
 1389SOL     OW 5321   4.487   1.791   4.862 -0.0565  0.6388  0.1965
 1389SOL    HW2 5322   4.546   1.776   4.788 -0.7269 -1.6382  0.0583
 1389SOL    HW3 5323   4.535   1.851   4.919  0.6395  2.1506 -1.8675
 1389SOL    MW4 5324   4.501   1.797   4.860 -0.0531  0.5378 -0.0940
 1390SOL     OW 5325   0.031   3.890   1.729  0.8701  0.4331 -0.4367
 1390SOL    HW2 5326   0.049   3.806   1.688  0.1761  0.0249  0.0665
 1390SOL    HW3 5327   0.030   3.871   1.823 -0.0025  0.8503 -0.3515
 1390SOL    MW4 5328   0.033   3.876   1.736  0.6634  0.4342 -0.3591
 1391SOL     OW 5329   2.770   2.918   1.724  0.7556  0.2879 -0.0078
 1391SOL    HW2 5330   2.771   2.907   1.629  2.3220  1.4960 -0.1792
 1391SOL    HW3 5331   2.727   3.003   1.738  1.0738  0.3996  0.3161
 1391SOL    MW4 5332   2.765   2.928   1.713  1.0043  0.4620  0.0123
 1392SOL     OW 5333   1.252   0.277   1.819 -0.2469  0.2978  0.0152
 1392SOL    HW2 5334   1.310   0.348   1.848 -2.9164  2.5809  0.1583
 1392SOL    HW3 5335   1.166   0.300   1.854 -1.5253 -2.3612 -1.0777
 1392SOL    MW4 5336   1.248   0.290   1.828 -0.7678  0.2482 -0.1101
 1393SOL     OW 5337   5.733   2.658   6.054  0.2287  0.3988 -0.8045
 1393SOL    HW2 5338   5.705   2.748   6.041  0.7113  1.0284  1.9733
 1393SOL    HW3 5339   5.823   2.656   6.023  0.5897  1.1953  0.1458
 1393SOL    MW4 5340   5.741   2.669   6.048  0.3400  0.5869 -0.3126
 1394SOL     OW 5341   4.373   3.992   1.634 -0.6909 -0.6908 -0.5864
 1394SOL    HW2 5342   4.423   4.069   1.608 -0.5056 -0.8780 -0.7940
 1394SOL    HW3 5343   4.419   3.958   1.711  0.5367 -1.8515 -1.7861
 1394SOL    MW4 5344   4.385   3.998   1.641 -0.5045 -0.8686 -0.7721
 1395SOL     OW 5345   0.861   4.394   4.118 -0.3092 -0.0426 -0.3937
 1395SOL    HW2 5346   0.787   4.447   4.088  1.6515  3.7618  0.7889
 1395SOL    HW3 5347   0.843   4.377   4.210 -0.4874 -0.6127 -0.5316
 1395SOL    MW4 5348   0.849   4.399   4.126 -0.0740  0.3842 -0.2558
 1396SOL     OW 5349   4.287   6.343   1.682  0.0340  0.4584 -0.2141
 1396SOL    HW2 5350   4.343   6.401   1.631  0.0981 -1.1002 -2.0317
 1396SOL    HW3 5351   4.345   6.275   1.715 -0.6894 -1.2061 -2.1683
 1396SOL    MW4 5352   4.302   6.342   1.680 -0.0530  0.0332 -0.7118
 1397SOL     OW 5353   2.981   1.655   3.994  0.3854  0.0291  0.3845
 1397SOL    HW2 5354   2.949   1.745   3.992 -0.9557 -0.4380 -0.1081
 1397SOL    HW3 5355   3.017   1.645   4.082  0.0623  0.8835  0.6287
 1397SOL    MW4 5356   2.982   1.666   4.005  0.1658  0.0802  0.3518
 1398SOL     OW 5357   6.267   4.723   3.117  0.2775  0.2638  0.6057
 1398SOL    HW2 5358   6.315   4.782   3.175  0.0679 -0.0463  1.1055
 1398SOL    HW3 5359   6.300   4.743   3.029  2.0751 -0.6523  1.0321
 1398SOL    MW4 5360   6.277   4.734   3.113  0.4870  0.1020  0.7279
 1399SOL     OW 5361   0.147   1.777   1.732 -0.1771 -0.1517 -0.7834
 1399SOL    HW2 5362   0.072   1.813   1.780 -0.4027  1.1351 -2.0528
 1399SOL    HW3 5363   0.178   1.849   1.678  2.6447 -0.3291  0.4251
 1399SOL    MW4 5364   0.141   1.791   1.732  0.1654 -0.0053 -0.7914
 1400SOL     OW 5365   4.571   4.593   4.670 -0.5158 -0.1439 -0.2662
 1400SOL    HW2 5366   4.510   4.626   4.736 -1.3388 -0.1389 -1.0044
 1400SOL    HW3 5367   4.592   4.670   4.617 -0.1099 -0.2120 -0.2046
 1400SOL    MW4 5368   4.566   4.608   4.672 -0.5708 -0.1522 -0.3555
 1401SOL     OW 5369   0.595   2.447   0.472 -0.1433 -0.2005 -0.6893
 1401SOL    HW2 5370   0.632   2.373   0.521 -1.4271 -1.1553 -1.0908
 1401SOL    HW3 5371   0.570   2.511   0.539  1.5797  0.1847 -0.3795
 1401SOL    MW4 5372   0.597   2.446   0.487 -0.0854 -0.2756 -0.7014
 1402SOL     OW 5373   4.568   0.684   4.272  0.0728  0.4293 -0.1687
 1402SOL    HW2 5374   4.500   0.659   4.334 -0.3109  1.2456 -0.2503
 1402SOL    HW3 5375   4.643   0.707   4.326  0.0656  0.1740 -0.0500
 1402SOL    MW4 5376   4.569   0.684   4.287  0.0213  0.5033 -0.1638
 1403SOL     OW 5377   4.798   5.983   6.064 -0.6109  0.4545  0.0225
 1403SOL    HW2 5378   4.736   5.999   5.993 -0.3399  0.2752 -0.2560
 1403SOL    HW3 5379   4.753   5.920   6.121 -2.0068  2.6616  1.5362
 1403SOL    MW4 5380   4.784   5.977   6.062 -0.7593  0.7220  0.1855
 1404SOL     OW 5381   4.725   0.288   4.127  0.0294  0.1076 -0.3095
 1404SOL    HW2 5382   4.630   0.277   4.137 -0.2487  0.3595 -2.3456
 1404SOL    HW3 5383   4.736   0.381   4.108  0.8611  0.3768  1.3026
 1404SOL    MW4 5384   4.714   0.299   4.126  0.1024  0.1764 -0.3654
 1405SOL     OW 5385   4.165   1.003   4.721 -0.1485 -0.8006 -0.2370
 1405SOL    HW2 5386   4.097   0.967   4.665 -0.1501  0.9940 -1.4748
 1405SOL    HW3 5387   4.131   1.089   4.747  1.1659 -0.3480  0.0333
 1405SOL    MW4 5388   4.151   1.010   4.717  0.0247 -0.5041 -0.3646
 1406SOL     OW 5389   3.916   3.388   4.347  1.3112 -0.5161  0.1044
 1406SOL    HW2 5390   3.832   3.420   4.315 -0.4196 -1.7182  3.0936
 1406SOL    HW3 5391   3.955   3.462   4.392  0.3519 -0.7742  1.3988
 1406SOL    MW4 5392   3.910   3.402   4.348  0.9562 -0.7087  0.6695
 1407SOL     OW 5393   1.949   2.234   3.599 -0.1218 -0.2061 -0.3597
 1407SOL    HW2 5394   1.916   2.253   3.511 -0.1362 -0.1332 -0.3389
 1407SOL    HW3 5395   1.914   2.305   3.653 -1.4290 -1.0995  0.0162
 1407SOL    MW4 5396   1.940   2.246   3.595 -0.2962 -0.3144 -0.3073
 1408SOL     OW 5397   1.192   4.318   2.048 -0.1929 -0.2937 -0.1215
 1408SOL    HW2 5398   1.200   4.270   2.131  0.6877 -0.0640 -0.0727
 1408SOL    HW3 5399   1.201   4.410   2.073 -1.1490 -0.1362 -0.3143
 1408SOL    MW4 5400   1.194   4.324   2.062 -0.2028 -0.2427 -0.1405
 1409SOL     OW 5401   4.722   1.030   6.045 -0.4237  0.5840  0.3000
 1409SOL    HW2 5402   4.693   1.080   5.969  0.0299  1.3826  0.6340
 1409SOL    HW3 5403   4.712   0.939   6.020 -0.5466  0.8444 -0.6149
 1409SOL    MW4 5404   4.717   1.025   6.032 -0.3801  0.7237  0.2233
 1410SOL     OW 5405   1.440   2.147   3.301  0.1599 -0.1432 -0.3480
 1410SOL    HW2 5406   1.534   2.132   3.297  0.0715 -1.1181  0.5665
 1410SOL    HW3 5407   1.403   2.062   3.326 -0.8285  0.5433  0.6704
 1410SOL    MW4 5408   1.447   2.134   3.304  0.0178 -0.1813 -0.0930
 1411SOL     OW 5409   0.657   1.378   6.165  0.1800 -0.4198  0.1663
 1411SOL    HW2 5410   0.584   1.424   6.207  1.6342  1.4922  0.7320
 1411SOL    HW3 5411   0.654   1.290   6.202 -0.9462  0.0626  1.2947
 1411SOL    MW4 5412   0.647   1.372   6.175  0.2233 -0.1039  0.3898
 1412SOL     OW 5413   4.804   1.161   3.592  0.2065  0.1302 -0.0620
 1412SOL    HW2 5414   4.882   1.115   3.562  0.6398  1.0466 -0.3765
 1412SOL    HW3 5415   4.731   1.106   3.562  0.6367  0.6765 -2.2909
 1412SOL    MW4 5416   4.805   1.148   3.584  0.3204  0.3232 -0.3976
 1413SOL     OW 5417   0.969   2.536   1.925 -0.2288  0.1748 -0.3797
 1413SOL    HW2 5418   0.914   2.525   2.002  0.6410  0.0626  0.2352
 1413SOL    HW3 5419   0.924   2.602   1.873  0.2207  1.7816  1.2031
 1413SOL    MW4 5420   0.956   2.543   1.928 -0.0547  0.3720 -0.0898
 1414SOL     OW 5421   4.631   4.334   3.606 -0.7385 -0.7963 -0.5699
 1414SOL    HW2 5422   4.550   4.297   3.641 -0.0718 -0.5113  1.3637
 1414SOL    HW3 5423   4.641   4.418   3.650 -1.3206  1.0020 -3.6064
 1414SOL    MW4 5424   4.622   4.340   3.616 -0.7273 -0.5214 -0.7154
 1415SOL     OW 5425   0.814   2.197   5.810 -0.0985 -0.1008 -0.5436
 1415SOL    HW2 5426   0.799   2.276   5.863 -1.3469  0.9938 -2.3916
 1415SOL    HW3 5427   0.760   2.130   5.852  1.2941 -0.1288  1.2971
 1415SOL    MW4 5428   0.805   2.199   5.823 -0.0795  0.0399 -0.5446
 1416SOL     OW 5429   2.784   0.915   1.720 -0.5406  0.2057 -0.2828
 1416SOL    HW2 5430   2.856   0.974   1.742 -0.1252 -0.1406 -0.7000
 1416SOL    HW3 5431   2.801   0.836   1.773  1.0034 -1.0253 -2.4471
 1416SOL    MW4 5432   2.796   0.912   1.730 -0.2821 -0.0024 -0.6234
 1417SOL     OW 5433   1.892   1.740   1.058 -0.4288  0.2994  0.0706
 1417SOL    HW2 5434   1.836   1.816   1.075  0.6323  0.9031  1.0166
 1417SOL    HW3 5435   1.889   1.689   1.139  0.2923  0.2786  0.0877
 1417SOL    MW4 5436   1.884   1.743   1.071 -0.1937  0.3763  0.1977
 1418SOL     OW 5437   6.341   0.038   5.574  0.2575 -0.6075  0.3317
 1418SOL    HW2 5438   6.391   0.118   5.591 -0.6008 -0.1138  0.5776
 1418SOL    HW3 5439   6.257   0.053   5.618 -1.7659  0.3358 -3.4488
 1418SOL    MW4 5440   6.337   0.051   5.582 -0.1227 -0.4179 -0.1347
 1419SOL     OW 5441   3.423   0.713   4.229  0.8794  0.4346  0.1165
 1419SOL    HW2 5442   3.384   0.786   4.278  0.6106  0.0253  0.5191
 1419SOL    HW3 5443   3.484   0.755   4.168  2.4729  0.8723  1.9242
 1419SOL    MW4 5444   3.426   0.728   4.227  1.0541  0.4383  0.4081
 1420SOL     OW 5445   3.300   0.678   5.657 -0.0391  0.1030 -0.0679
 1420SOL    HW2 5446   3.231   0.670   5.723  1.1872  0.1214  1.2482
 1420SOL    HW3 5447   3.338   0.764   5.672  0.0876  0.2148 -0.9811
 1420SOL    MW4 5448   3.296   0.688   5.668  0.1394  0.1202 -0.0147
 1421SOL     OW 5449   5.468   0.931   2.609  0.0251 -0.3355  0.2488
 1421SOL    HW2 5450   5.507   0.991   2.545  0.0375 -1.6407 -1.0102
 1421SOL    HW3 5451   5.457   0.985   2.688  0.8326  1.0799 -0.5541
 1421SOL    MW4 5452   5.472   0.946   2.611  0.1333 -0.3210 -0.0233
 1422SOL     OW 5453   5.610   3.439   6.097  0.3368 -1.0473 -0.2750
 1422SOL    HW2 5454   5.615   3.344   6.105  0.6987 -1.1120 -1.1278
 1422SOL    HW3 5455   5.620   3.455   6.003 -3.4585 -0.4028 -0.7417
 1422SOL    MW4 5456   5.612   3.428   6.085 -0.1162 -0.9708 -0.4491
 1423SOL     OW 5457   4.237   1.740   0.325  0.2893 -0.0811  0.2895
 1423SOL    HW2 5458   4.330   1.761   0.323 -0.1150  1.8872 -0.0791
 1423SOL    HW3 5459   4.204   1.768   0.240 -0.5167 -1.5767  0.0643
 1423SOL    MW4 5460   4.245   1.746   0.314  0.1296 -0.0187  0.2112
 1424SOL     OW 5461   2.444   5.865   5.417  0.4590 -0.3438 -0.1771
 1424SOL    HW2 5462   2.523   5.918   5.425  1.6926 -2.2667  1.3546
 1424SOL    HW3 5463   2.373   5.921   5.448  1.1893  1.3640 -1.4097
 1424SOL    MW4 5464   2.445   5.879   5.422  0.7181 -0.3722 -0.1377
 1425SOL     OW 5465   6.349   4.163   5.460 -0.0069 -0.1709  0.2838
 1425SOL    HW2 5466   6.294   4.183   5.384 -0.1935 -0.7826  0.2512
 1425SOL    HW3 5467   6.437   4.151   5.424 -0.0812 -0.3859  0.1751
 1425SOL    MW4 5468   6.354   4.164   5.445 -0.0413 -0.2800  0.2652
 1426SOL     OW 5469   1.275   0.979   2.668 -0.4902 -0.3583 -0.1517
 1426SOL    HW2 5470   1.304   0.893   2.638 -1.5962 -0.6279 -0.4998
 1426SOL    HW3 5471   1.197   0.962   2.721 -0.9551  0.4384 -0.5440
 1426SOL    MW4 5472   1.268   0.966   2.671 -0.6975 -0.2887 -0.2494
 1427SOL     OW 5473   2.545   6.390   1.713 -0.0284 -0.0844 -0.2787
 1427SOL    HW2 5474   2.596   6.357   1.787  0.0178  1.7034  0.5467
 1427SOL    HW3 5475   2.579   6.343   1.637  0.0486 -1.8403  0.7858
 1427SOL    MW4 5476   2.556   6.379   1.713 -0.0121 -0.0802 -0.0293
 1428SOL     OW 5477   3.514   4.330   2.426  0.2128  0.5765 -0.2527
 1428SOL    HW2 5478   3.590   4.274   2.444  0.8528  1.0920 -1.2333
 1428SOL    HW3 5479   3.443   4.290   2.475  1.1147  0.0843  0.7116
 1428SOL    MW4 5480   3.515   4.317   2.435  0.4162  0.5796 -0.2548
 1429SOL     OW 5481   1.049   6.261   4.293 -0.7488  0.3393 -0.0176
 1429SOL    HW2 5482   1.058   6.235   4.201 -0.0140 -0.4345  0.2605
 1429SOL    HW3 5483   0.954   6.269   4.306 -0.9644 -1.1869 -0.4168
 1429SOL    MW4 5484   1.038   6.258   4.282 -0.6803  0.0359 -0.0336
 1430SOL     OW 5485   3.352   4.664   3.716  0.2033 -0.3599  0.0652
 1430SOL    HW2 5486   3.321   4.639   3.629 -1.0822  1.6725 -0.1452
 1430SOL    HW3 5487   3.446   4.676   3.706  0.1980 -0.9643 -0.8196
 1430SOL    MW4 5488   3.360   4.662   3.703  0.0330 -0.1715 -0.0793
 1431SOL     OW 5489   2.848   3.962   4.646  0.0924  0.1747 -0.4343
 1431SOL    HW2 5490   2.769   3.932   4.691 -0.1002  1.3810  0.0764
 1431SOL    HW3 5491   2.915   3.965   4.715  0.7056 -1.1938 -0.9341
 1431SOL    MW4 5492   2.846   3.959   4.661  0.1479  0.1533 -0.4329
 1432SOL     OW 5493   4.730   3.962   0.098  0.0321 -0.2032 -0.2645
 1432SOL    HW2 5494   4.792   3.902   0.056 -0.6007 -1.7037  0.8530
 1432SOL    HW3 5495   4.749   3.954   0.192 -0.6164  0.7556 -0.0351
 1432SOL    MW4 5496   4.741   3.953   0.105 -0.1369 -0.2746 -0.0868
 1433SOL     OW 5497   5.284   1.696   5.681 -0.1242  0.2862  0.0413
 1433SOL    HW2 5498   5.242   1.780   5.700 -1.2015 -0.2419  0.1112
 1433SOL    HW3 5499   5.310   1.663   5.767 -1.2895 -0.2289  0.2235
 1433SOL    MW4 5500   5.282   1.702   5.695 -0.4201  0.1486  0.0746
 1434SOL     OW 5501   1.009   5.895   1.351  0.4264  0.8991 -0.2666
 1434SOL    HW2 5502   1.075   5.836   1.314 -0.9598 -0.2213 -1.0530
 1434SOL    HW3 5503   0.958   5.840   1.410  0.4384  1.8565  0.6662
 1434SOL    MW4 5504   1.011   5.880   1.354  0.2451  0.8776 -0.2473
 1435SOL     OW 5505   4.156   0.957   0.400 -0.3835 -0.5083  0.5607
 1435SOL    HW2 5506   4.249   0.936   0.389 -0.3982 -0.5261  0.4681
 1435SOL    HW3 5507   4.147   1.047   0.368 -0.4907 -0.6786  0.0981
 1435SOL    MW4 5508   4.167   0.966   0.394 -0.3996 -0.5331  0.4874
 1436SOL     OW 5509   2.744   4.134   3.480 -0.5117 -0.4474 -0.5457
 1436SOL    HW2 5510   2.677   4.065   3.483 -0.4725 -0.4564  0.3203
 1436SOL    HW3 5511   2.733   4.174   3.394 -0.0597 -1.9960 -1.3473
 1436SOL    MW4 5512   2.733   4.130   3.469 -0.4469 -0.6529 -0.5372
 1437SOL     OW 5513   0.269   4.290   2.344  0.5259  0.3034  0.1024
 1437SOL    HW2 5514   0.342   4.232   2.325  1.4156  1.3835  0.1112
 1437SOL    HW3 5515   0.302   4.378   2.321 -0.4933  0.8979  0.8473
 1437SOL    MW4 5516   0.283   4.294   2.339  0.5088  0.5243  0.2018
 1438SOL     OW 5517   5.481   3.521   5.212  0.0832  0.1267 -0.8645
 1438SOL    HW2 5518   5.405   3.567   5.245  0.8100 -0.0095  1.1557
 1438SOL    HW3 5519   5.511   3.573   5.137 -0.1667  1.9358  0.2434
 1438SOL    MW4 5520   5.475   3.534   5.206  0.1461  0.3474 -0.4518
 1439SOL     OW 5521   3.787   3.670   0.712 -1.2814 -0.1013 -0.0865
 1439SOL    HW2 5522   3.828   3.621   0.641 -1.0602 -1.7590  1.1300
 1439SOL    HW3 5523   3.715   3.615   0.741 -1.0902  0.3204  1.2788
 1439SOL    MW4 5524   3.783   3.657   0.706 -1.2270 -0.2644  0.2541
 1440SOL     OW 5525   1.520   3.145   6.102 -0.7221  0.3518  0.4711
 1440SOL    HW2 5526   1.572   3.213   6.146 -2.3077  0.9950  1.4760
 1440SOL    HW3 5527   1.584   3.081   6.072  0.5648  0.4487  2.7589
 1440SOL    MW4 5528   1.535   3.146   6.104 -0.7615  0.4495  0.9055
 1441SOL     OW 5529   1.309   2.596   1.109  0.0886  0.0817  0.2251
 1441SOL    HW2 5530   1.380   2.637   1.157  0.7026 -0.2172 -0.4168
 1441SOL    HW3 5531   1.263   2.543   1.175  0.4530  0.2847  0.6446
 1441SOL    MW4 5532   1.312   2.594   1.124  0.2177  0.0691  0.1957
 1442SOL     OW 5533   4.386   3.260   6.301 -1.2823 -0.4377 -0.2844
 1442SOL    HW2 5534   4.430   3.326   6.248  0.0298 -1.2164 -0.2088
 1442SOL    HW3 5535   4.360   3.192   6.239  0.5492 -1.5076  0.0560
 1442SOL    MW4 5536   4.388   3.260   6.286 -0.8675 -0.6816 -0.2295
 1443SOL     OW 5537   5.243   0.353   0.743  0.2307  0.1023  0.1013
 1443SOL    HW2 5538   5.276   0.330   0.830  2.3138  0.5910 -0.5133
 1443SOL    HW3 5539   5.243   0.271   0.695  2.0190  0.3036 -0.3154
 1443SOL    MW4 5540   5.247   0.339   0.748  0.7414  0.1934 -0.0348
 1444SOL     OW 5541   2.302   4.602   3.535 -0.1256  0.4315 -0.4852
 1444SOL    HW2 5542   2.373   4.642   3.584 -1.0525  1.1466  0.3123
 1444SOL    HW3 5543   2.255   4.550   3.600  0.2475 -0.8598 -1.2175
 1444SOL    MW4 5544   2.305   4.600   3.550 -0.1987  0.3555 -0.4766
 1445SOL     OW 5545   0.491   5.387   5.140 -0.4598  0.2039  0.1333
 1445SOL    HW2 5546   0.502   5.357   5.049  0.8822 -0.1592  0.3984
 1445SOL    HW3 5547   0.507   5.309   5.193 -0.2023  0.6526  0.7288
 1445SOL    MW4 5548   0.494   5.373   5.135 -0.2488  0.2152  0.2468
 1446SOL     OW 5549   2.200   0.559   1.564 -0.0934 -0.0077 -0.2683
 1446SOL    HW2 5550   2.235   0.579   1.477 -0.3543 -0.9065 -0.5903
 1446SOL    HW3 5551   2.126   0.501   1.547 -0.8563  0.7152  0.5005
 1446SOL    MW4 5552   2.195   0.554   1.550 -0.2285 -0.0309 -0.2094
 1447SOL     OW 5553   4.811   5.009   4.598 -0.2799 -0.2818 -0.1584
 1447SOL    HW2 5554   4.733   5.061   4.581  0.5136  0.2203 -2.7418
 1447SOL    HW3 5555   4.884   5.064   4.569  0.9173 -1.3091  0.7916
 1447SOL    MW4 5556   4.810   5.023   4.592 -0.0173 -0.3511 -0.3739
 1448SOL     OW 5557   0.257   0.747   1.235 -0.3590 -0.5755  0.0086
 1448SOL    HW2 5558   0.238   0.720   1.145  1.5489 -1.1687 -0.2514
 1448SOL    HW3 5559   0.333   0.804   1.228 -0.4061 -0.3360  1.2187
 1448SOL    MW4 5560   0.265   0.751   1.222 -0.1135 -0.6222  0.1339
 1449SOL     OW 5561   5.526   0.360   5.884  0.1433 -0.0689  0.0236
 1449SOL    HW2 5562   5.462   0.364   5.813  0.6556 -1.2664 -0.5348
 1449SOL    HW3 5563   5.477   0.383   5.962 -0.8571 -0.4986 -0.4613
 1449SOL    MW4 5564   5.511   0.363   5.885  0.0789 -0.2836 -0.1140
 1450SOL     OW 5565   4.405   0.919   2.098  0.4184  0.8767 -0.0433
 1450SOL    HW2 5566   4.360   0.835   2.106 -0.7332  1.4214 -0.5187
 1450SOL    HW3 5567   4.478   0.901   2.038  1.2860 -0.1775  1.2796
 1450SOL    MW4 5568   4.409   0.905   2.091  0.3809  0.8094  0.0685
 1451SOL     OW 5569   3.801   2.353   4.956 -0.2515  0.1763 -0.3079
 1451SOL    HW2 5570   3.734   2.415   4.983  0.4525  1.8658 -2.2039
 1451SOL    HW3 5571   3.816   2.372   4.864  2.3857 -0.5730 -0.1122
 1451SOL    MW4 5572   3.794   2.364   4.948  0.1893  0.3003 -0.5322
 1452SOL     OW 5573   2.750   4.859   5.052 -0.0019 -0.2902  1.3872
 1452SOL    HW2 5574   2.719   4.895   4.969  0.3895 -2.0344  0.4221
 1452SOL    HW3 5575   2.673   4.860   5.109 -0.7966 -0.7986  0.3651
 1452SOL    MW4 5576   2.736   4.864   5.048 -0.0551 -0.5874  1.1250
 1453SOL     OW 5577   4.087   0.925   2.017  0.1349 -0.2199  0.4151
 1453SOL    HW2 5578   4.074   0.837   1.982 -1.7195  0.0552  0.3224
 1453SOL    HW3 5579   4.112   0.978   1.941  1.6772 -0.6999  0.5414
 1453SOL    MW4 5580   4.089   0.921   2.002  0.0937 -0.2470  0.4195
 1454SOL     OW 5581   4.689   3.614   3.876 -0.5204 -0.7286  0.5849
 1454SOL    HW2 5582   4.648   3.543   3.826 -3.6573  2.1585 -1.3914
 1454SOL    HW3 5583   4.638   3.618   3.957  0.3225 -1.3188  1.1576
 1454SOL    MW4 5584   4.677   3.605   3.880 -0.8231 -0.4256  0.3997
 1455SOL     OW 5585   2.039   1.737   6.236  0.1304  0.0492  0.1561
 1455SOL    HW2 5586   2.096   1.680   6.289  0.6413  1.1320  0.8129
 1455SOL    HW3 5587   2.071   1.825   6.254 -0.3760  0.5261 -1.1674
 1455SOL    MW4 5588   2.051   1.741   6.246  0.1310  0.2550  0.0682
 1456SOL     OW 5589   1.941   5.486   1.956  0.0393 -0.4253 -0.5402
 1456SOL    HW2 5590   1.864   5.452   1.910 -1.4422 -1.3520  2.4191
 1456SOL    HW3 5591   1.924   5.580   1.963  0.9435 -0.0084 -2.9007
 1456SOL    MW4 5592   1.928   5.494   1.951 -0.0369 -0.4926 -0.4612
 1457SOL     OW 5593   1.004   4.815   3.326 -0.0088 -0.6536 -0.0918
 1457SOL    HW2 5594   1.099   4.818   3.316 -0.0442  0.5368 -0.2047
 1457SOL    HW3 5595   0.977   4.739   3.276  0.7465 -0.1409 -1.3168
 1457SOL    MW4 5596   1.013   4.806   3.318  0.0862 -0.4289 -0.2683
 1458SOL     OW 5597   0.219   5.182   2.847  0.2576 -0.2456 -0.0944
 1458SOL    HW2 5598   0.230   5.170   2.941 -2.2401  0.8607  0.4205
 1458SOL    HW3 5599   0.190   5.097   2.815 -1.6048  0.0502  0.6786
 1458SOL    MW4 5600   0.217   5.170   2.855 -0.3176 -0.0606  0.0756
 1459SOL     OW 5601   4.889   0.685   2.644  0.2374 -0.0062 -0.4548
 1459SOL    HW2 5602   4.960   0.716   2.587  2.6889 -0.7512  1.9899
 1459SOL    HW3 5603   4.903   0.590   2.649 -2.0873 -0.4550 -1.2795
 1459SOL    MW4 5604   4.900   0.676   2.637  0.2541 -0.1637 -0.2411
 1460SOL     OW 5605   5.921   1.740   1.012  0.4486  0.0936  0.0774
 1460SOL    HW2 5606   5.839   1.740   1.062  0.1951  2.4928 -0.2405
 1460SOL    HW3 5607   5.971   1.813   1.048  1.5899 -0.0808 -1.0917
 1460SOL    MW4 5608   5.917   1.750   1.024  0.5657  0.3871 -0.1188
 1461SOL     OW 5609   5.391   0.330   0.277  0.6515  0.0200 -0.2395
 1461SOL    HW2 5610   5.411   0.390   0.205  2.5370 -0.2380  0.0031
 1461SOL    HW3 5611   5.450   0.256   0.262  0.9960 -0.0984  1.4981
 1461SOL    MW4 5612   5.402   0.328   0.265  0.9457 -0.0296  0.0218
 1462SOL     OW 5613   5.320   4.735   4.317  0.9603 -0.3858  0.0940
 1462SOL    HW2 5614   5.297   4.643   4.327  2.3888 -0.6787  1.0836
 1462SOL    HW3 5615   5.371   4.738   4.236  0.5524 -0.3836 -0.1647
 1462SOL    MW4 5616   5.324   4.723   4.308  1.0950 -0.4241  0.1904
 1463SOL     OW 5617   2.281   0.154   2.657  0.2013 -0.1073  0.2836
 1463SOL    HW2 5618   2.338   0.097   2.709  0.1631  0.1116  0.5686
 1463SOL    HW3 5619   2.202   0.163   2.710  0.3490  0.5022  0.4060
 1463SOL    MW4 5620   2.278   0.148   2.671  0.2158  0.0020  0.3373
 1464SOL     OW 5621   2.952   3.028   1.908  0.2130  0.4357 -0.0035
 1464SOL    HW2 5622   2.910   2.994   1.828  1.5163  0.4472 -0.7253
 1464SOL    HW3 5623   2.911   2.979   1.979  0.2993 -0.8833 -0.8277
 1464SOL    MW4 5624   2.941   3.017   1.906  0.3964  0.2632 -0.2074
 1465SOL     OW 5625   2.170   4.303   1.797  0.2397  0.8685  0.2027
 1465SOL    HW2 5626   2.105   4.295   1.727  1.4780  0.6952 -0.9724
 1465SOL    HW3 5627   2.214   4.218   1.798 -0.2066  0.6226  1.6927
 1465SOL    MW4 5628   2.167   4.290   1.788  0.3442  0.8132  0.2443
 1466SOL     OW 5629   5.178   3.850   4.455 -0.5158  0.2180 -0.3870
 1466SOL    HW2 5630   5.194   3.925   4.397 -1.4719  1.2304  0.6259
 1466SOL    HW3 5631   5.104   3.876   4.509 -2.3220 -2.3040 -1.4423
 1466SOL    MW4 5632   5.171   3.864   4.454 -0.8803  0.0188 -0.3926
 1467SOL     OW 5633   1.081   1.963   4.890  0.4439  0.2138 -0.1290
 1467SOL    HW2 5634   1.154   1.912   4.855 -0.9849 -2.6964  0.7740
 1467SOL    HW3 5635   1.068   1.928   4.978  0.6745  3.7237  1.4603
 1467SOL    MW4 5636   1.089   1.951   4.897  0.2858  0.2929  0.1999
 1468SOL     OW 5637   2.179   3.298   1.577  0.1602 -0.2139  0.7687
 1468SOL    HW2 5638   2.166   3.221   1.521 -0.1951  0.6701 -0.4123
 1468SOL    HW3 5639   2.261   3.336   1.546  0.1448  0.0896  1.1004
 1468SOL    MW4 5640   2.188   3.293   1.566  0.1113 -0.0572  0.6566
 1469SOL     OW 5641   3.302   1.818   3.206 -0.0040  0.3060  0.0596
 1469SOL    HW2 5642   3.368   1.887   3.191  0.2007 -0.0935 -0.9641
 1469SOL    HW3 5643   3.324   1.750   3.143 -1.2552  0.0440 -0.1113
 1469SOL    MW4 5644   3.314   1.818   3.196 -0.1421  0.2187 -0.0980
 1470SOL     OW 5645   4.281   2.523   0.435  0.0282  0.1121  0.1705
 1470SOL    HW2 5646   4.289   2.583   0.361 -3.0200  1.3435  0.7063
 1470SOL    HW3 5647   4.187   2.519   0.453  0.3435 -2.9254  1.7735
 1470SOL    MW4 5648   4.270   2.530   0.428 -0.3324 -0.1262  0.4527
 1471SOL     OW 5649   2.753   6.088   2.435  0.0777 -0.8209  0.0834
 1471SOL    HW2 5650   2.683   6.076   2.371 -1.8551 -0.9781  2.0866
 1471SOL    HW3 5651   2.780   5.999   2.457 -1.3576 -0.9569  1.5486
 1471SOL    MW4 5652   2.747   6.074   2.429 -0.3667 -0.8596  0.5410
 1472SOL     OW 5653   1.718   1.968   1.401  0.3666  0.0924  0.5568
 1472SOL    HW2 5654   1.680   2.020   1.473 -1.1798 -1.4685  0.9260
 1472SOL    HW3 5655   1.649   1.907   1.376 -0.0462  1.9643 -3.8342
 1472SOL    MW4 5656   1.704   1.967   1.407  0.1081  0.1334  0.0262
 1473SOL     OW 5657   4.614   4.259   0.876 -0.5312 -0.2219 -0.5527
 1473SOL    HW2 5658   4.705   4.226   0.874 -1.3026 -3.0049  2.1401
 1473SOL    HW3 5659   4.616   4.330   0.939 -0.4105 -1.2785  0.6850
 1473SOL    MW4 5660   4.627   4.264   0.884 -0.6171 -0.7285 -0.0342
 1474SOL     OW 5661   5.112   3.592   2.077  0.1341 -0.1165  0.0796
 1474SOL    HW2 5662   5.071   3.591   2.164 -0.2305  0.8524 -0.0647
 1474SOL    HW3 5663   5.119   3.500   2.053  0.2713 -0.3979  1.1500
 1474SOL    MW4 5664   5.107   3.580   2.085  0.1041 -0.0258  0.2018
 1475SOL     OW 5665   3.042   4.099   3.155  0.2296  0.0945 -0.7848
 1475SOL    HW2 5666   3.118   4.152   3.181  0.4374 -0.4037 -0.3380
 1475SOL    HW3 5667   2.967   4.153   3.177  0.4541  0.6893 -1.4434
 1475SOL    MW4 5668   3.042   4.113   3.161  0.2866  0.1072 -0.8127
 1476SOL     OW 5669   4.871   2.788   4.708 -0.8333  0.1119 -0.1151
 1476SOL    HW2 5670   4.873   2.799   4.803 -0.7315  0.0230 -0.1068
 1476SOL    HW3 5671   4.845   2.697   4.694  1.0835 -0.4819 -0.1369
 1476SOL    MW4 5672   4.868   2.777   4.718 -0.5669  0.0218 -0.1169
 1477SOL     OW 5673   2.844   3.189   6.147 -0.1320 -0.2294  0.2241
 1477SOL    HW2 5674   2.921   3.175   6.093 -0.0370  2.1590 -0.3613
 1477SOL    HW3 5675   2.878   3.199   6.236  0.1564  0.2329  0.0585
 1477SOL    MW4 5676   2.859   3.188   6.152 -0.0814  0.1467  0.1250
 1478SOL     OW 5677   0.131   1.439   3.825 -0.1533 -0.0741  0.3332
 1478SOL    HW2 5678   0.177   1.518   3.855  1.1341 -1.4262  2.0971
 1478SOL    HW3 5679   0.145   1.375   3.894 -1.3933 -1.8059 -0.9359
 1478SOL    MW4 5680   0.139   1.441   3.838 -0.1470 -0.4810  0.3985
 1479SOL     OW 5681   4.818   2.485   0.278 -0.1784 -0.3319  0.0356
 1479SOL    HW2 5682   4.806   2.569   0.236  1.1735 -0.3765 -0.4926
 1479SOL    HW3 5683   4.814   2.421   0.207  0.7411 -0.5268  0.1441
 1479SOL    MW4 5684   4.816   2.487   0.263  0.1213 -0.3635 -0.0198
 1480SOL     OW 5685   0.403   4.589   6.112  0.3863 -0.2568 -0.2119
 1480SOL    HW2 5686   0.313   4.559   6.101  0.5215 -1.0044  0.6096
 1480SOL    HW3 5687   0.395   4.679   6.143 -0.0363  0.2651 -1.7483
 1480SOL    MW4 5688   0.390   4.597   6.115  0.3484 -0.2866 -0.3063
 1481SOL     OW 5689   4.363   4.614   5.945  0.0516 -0.2161  0.5553
 1481SOL    HW2 5690   4.365   4.557   5.869 -2.7135 -0.0932  0.2825
 1481SOL    HW3 5691   4.329   4.697   5.912 -1.0545 -0.1102  1.8496
 1481SOL    MW4 5692   4.359   4.618   5.931 -0.4592 -0.1859  0.6901
 1482SOL     OW 5693   3.178   1.448   5.758  0.2421  0.2050 -0.2224
 1482SOL    HW2 5694   3.087   1.424   5.777  0.5623 -1.5662 -0.7212
 1482SOL    HW3 5695   3.229   1.404   5.827  0.6454  2.9567  1.4053
 1482SOL    MW4 5696   3.173   1.439   5.770  0.3376  0.3343 -0.0735
 1483SOL     OW 5697   3.436   5.691   0.298 -0.8757  0.1816  0.1671
 1483SOL    HW2 5698   3.429   5.662   0.389 -2.7187 -0.3855 -0.1145
 1483SOL    HW3 5699   3.356   5.743   0.283  0.2504  1.7769 -0.6279
 1483SOL    MW4 5700   3.424   5.694   0.308 -0.9703  0.3172  0.0251
 1484SOL     OW 5701   2.540   3.001   5.393  0.1441 -0.2926 -0.1237
 1484SOL    HW2 5702   2.620   2.970   5.436  0.0810 -1.3161 -0.7304
 1484SOL    HW3 5703   2.517   2.933   5.331  0.5214  1.3822 -2.2119
 1484SOL    MW4 5704   2.547   2.988   5.391  0.1855 -0.2067 -0.4792
 1485SOL     OW 5705   1.050   4.176   4.417  0.1027 -0.1661  0.1724
 1485SOL    HW2 5706   1.124   4.157   4.474  1.7443 -0.7081 -2.0426
 1485SOL    HW3 5707   0.985   4.108   4.439  0.4139  0.0184  1.7793
 1485SOL    MW4 5708   1.051   4.165   4.428  0.3603 -0.2132  0.0922
 1486SOL     OW 5709   2.501   0.537   2.564 -0.5888  0.3284 -0.3443
 1486SOL    HW2 5710   2.566   0.494   2.620  1.1226  2.4450 -0.5949
 1486SOL    HW3 5711   2.457   0.465   2.519  1.2317 -1.2144  0.2192
 1486SOL    MW4 5712   2.503   0.521   2.565 -0.1228  0.4041 -0.3030
 1487SOL     OW 5713   1.519   5.678   3.564 -0.1524  0.3549 -0.0966
 1487SOL    HW2 5714   1.582   5.607   3.579 -0.3793 -0.5196 -2.7174
 1487SOL    HW3 5715   1.456   5.670   3.635 -0.1075 -2.0371 -0.2509
 1487SOL    MW4 5716   1.519   5.667   3.575 -0.1764 -0.0761 -0.4627
 1488SOL     OW 5717   1.185   2.855   2.760  0.0284  0.2564  0.6131
 1488SOL    HW2 5718   1.252   2.791   2.784  1.2790  1.8197  1.4725
 1488SOL    HW3 5719   1.178   2.913   2.836 -2.1795  0.2876  0.4683
 1488SOL    MW4 5720   1.193   2.854   2.773 -0.0979  0.4668  0.7074
 1489SOL     OW 5721   4.189   1.073   2.245 -0.3963 -0.3830  0.5900
 1489SOL    HW2 5722   4.172   1.035   2.159  2.2226 -0.3176 -0.0286
 1489SOL    HW3 5723   4.125   1.145   2.252 -1.8606 -1.5144 -0.4734
 1489SOL    MW4 5724   4.178   1.078   2.234 -0.2439 -0.5237  0.3681
 1490SOL     OW 5725   6.387   0.632   3.062 -0.2403  0.1466  0.3099
 1490SOL    HW2 5726   6.338   0.707   3.096 -3.3132 -1.5113 -0.1443
 1490SOL    HW3 5727   6.388   0.645   2.967  0.8595  0.4811  0.3488
 1490SOL    MW4 5728   6.381   0.644   3.054 -0.5006 -0.0280  0.2551
 1491SOL     OW 5729   5.372   1.616   1.239  0.0933 -0.4760 -0.1244
 1491SOL    HW2 5730   5.312   1.579   1.175 -0.1523  1.2963 -0.9755
 1491SOL    HW3 5731   5.395   1.702   1.204  0.8682  0.0738  1.6101
 1491SOL    MW4 5732   5.367   1.623   1.226  0.1631 -0.1696 -0.0079
 1492SOL     OW 5733   5.155   3.773   6.332 -0.0773  0.8291 -0.0340
 1492SOL    HW2 5734   5.164   3.785   6.426  0.6588 -1.1626  0.2010
 1492SOL    HW3 5735   5.108   3.690   6.322  1.5875 -0.0318 -1.3773
 1492SOL    MW4 5736   5.150   3.764   6.343  0.2395  0.4527 -0.1802
 1493SOL     OW 5737   4.685   6.076   1.144 -0.8564 -0.2404 -0.1103
 1493SOL    HW2 5738   4.653   6.034   1.224  0.6783 -0.7177  0.2837
 1493SOL    HW3 5739   4.657   6.017   1.073 -1.4574 -0.2732  0.1495
 1493SOL    MW4 5740   4.677   6.063   1.145 -0.7332 -0.3077 -0.0240
 1494SOL     OW 5741   2.348   4.409   4.116 -0.0008  0.2187  0.0916
 1494SOL    HW2 5742   2.355   4.315   4.100 -3.4342 -0.0263 -0.8799
 1494SOL    HW3 5743   2.303   4.415   4.201  1.3766  1.0545  0.7866
 1494SOL    MW4 5744   2.343   4.397   4.125 -0.2721  0.2967  0.0551
 1495SOL     OW 5745   5.350   1.144   1.920 -0.5490 -0.2048  0.3337
 1495SOL    HW2 5746   5.285   1.184   1.979  0.7905  1.2094  0.9207
 1495SOL    HW3 5747   5.432   1.186   1.944  0.5807 -1.8715 -0.4799
 1495SOL    MW4 5748   5.352   1.155   1.931 -0.2232 -0.2381  0.3038
 1496SOL     OW 5749   4.956   6.401   1.418 -0.2744  0.0169  0.2950
 1496SOL    HW2 5750   5.037   6.361   1.389  0.5915  1.2716  0.8806
 1496SOL    HW3 5751   4.945   6.371   1.508 -0.3157  0.0396  0.2976
 1496SOL    MW4 5752   4.965   6.392   1.426 -0.1656  0.1855  0.3726
 1497SOL     OW 5753   3.824   0.600   1.720  0.0857 -0.0509  0.5450
 1497SOL    HW2 5754   3.861   0.687   1.735  1.0737 -0.0748 -1.4169
 1497SOL    HW3 5755   3.889   0.540   1.754  1.2527 -0.0559 -1.5335
 1497SOL    MW4 5756   3.837   0.604   1.726  0.3700 -0.0547  0.0119
 1498SOL     OW 5757   3.664   3.319   2.736 -0.0785  0.5758  0.0620
 1498SOL    HW2 5758   3.616   3.280   2.809  0.5720  1.3923  0.9618
 1498SOL    HW3 5759   3.599   3.327   2.666 -0.2284 -2.0896 -0.2042
 1498SOL    MW4 5760   3.649   3.315   2.736 -0.0124  0.3319  0.1456
 1499SOL     OW 5761   5.684   2.919   6.004 -0.0808  0.9738  0.0212
 1499SOL    HW2 5762   5.759   2.917   5.946 -0.6012  0.0086 -0.6536
 1499SOL    HW3 5763   5.609   2.899   5.947 -0.6525  0.4249  0.9433
 1499SOL    MW4 5764   5.684   2.916   5.989 -0.2249  0.7740  0.0538
 1500SOL     OW 5765   2.406   4.326   5.949  0.2971  0.2751 -0.1659
 1500SOL    HW2 5766   2.426   4.352   5.859 -1.1200  0.7814 -0.3573
 1500SOL    HW3 5767   2.326   4.273   5.942 -0.7281  1.6006  0.9188
 1500SOL    MW4 5768   2.398   4.323   5.936 -0.0251  0.5168 -0.0481
 1501SOL     OW 5769   0.572   5.650   1.359 -0.3043  0.4535 -0.0539
 1501SOL    HW2 5770   0.608   5.624   1.444 -1.0993  1.3643  0.5770
 1501SOL    HW3 5771   0.591   5.743   1.353 -1.4808  0.6904 -0.2511
 1501SOL    MW4 5772   0.579   5.659   1.370 -0.5644  0.6049  0.0033
 1502SOL     OW 5773   1.921   4.355   5.292 -0.4428  0.0417  0.3897
 1502SOL    HW2 5774   1.866   4.425   5.257 -2.0988 -1.9707 -1.2863
 1502SOL    HW3 5775   2.010   4.378   5.264 -0.7746  1.9621  0.7885
 1502SOL    MW4 5776   1.926   4.367   5.284 -0.7051  0.0296  0.2212
 1503SOL     OW 5777   3.669   0.560   2.463 -0.1795 -0.0113  0.3269
 1503SOL    HW2 5778   3.701   0.522   2.382 -1.3413  0.2668 -0.2812
 1503SOL    HW3 5779   3.632   0.486   2.511 -1.3462  0.1429 -0.3185
 1503SOL    MW4 5780   3.668   0.545   2.459 -0.4867  0.0457  0.1615
 1504SOL     OW 5781   1.856   2.400   0.829  0.3098 -0.7555 -0.0155
 1504SOL    HW2 5782   1.935   2.375   0.878 -0.0047 -0.9702  0.3899
 1504SOL    HW3 5783   1.876   2.485   0.792  0.5303 -0.5570  0.5508
 1504SOL    MW4 5784   1.869   2.408   0.831  0.2974 -0.7577  0.1127
 1505SOL     OW 5785   1.292   3.926   2.488 -0.0058  0.0602  0.0657
 1505SOL    HW2 5786   1.369   3.871   2.502 -0.0928 -0.5821 -1.7213
 1505SOL    HW3 5787   1.315   3.979   2.411  0.4498  3.2857  2.1945
 1505SOL    MW4 5788   1.305   3.926   2.480  0.0428  0.4010  0.1108
 1506SOL     OW 5789   2.515   2.694   2.732  0.8668  0.2037  0.2493
 1506SOL    HW2 5790   2.443   2.672   2.673  0.0558 -0.2144  1.3450
 1506SOL    HW3 5791   2.537   2.784   2.709  0.1266  0.2730 -0.2522
 1506SOL    MW4 5792   2.508   2.703   2.721  0.6621  0.1577  0.3277
 1507SOL     OW 5793   1.987   0.974   3.941  0.0101  0.9504 -0.0740
 1507SOL    HW2 5794   2.033   0.931   3.869  0.1447 -0.1960  0.6683
 1507SOL    HW3 5795   1.896   0.980   3.912 -0.1239 -0.3613  0.0045
 1507SOL    MW4 5796   1.981   0.969   3.928  0.0102  0.6261  0.0343
 1508SOL     OW 5797   3.341   4.494   5.952  0.1720 -0.3942  0.1154
 1508SOL    HW2 5798   3.422   4.442   5.950 -1.0323 -2.6146  2.6905
 1508SOL    HW3 5799   3.370   4.581   5.978  1.8855 -0.7223 -0.5393
 1508SOL    MW4 5800   3.356   4.499   5.955  0.2391 -0.7304  0.3688
 1509SOL     OW 5801   5.136   0.604   1.283 -0.3843 -0.0028 -0.7416
 1509SOL    HW2 5802   5.138   0.645   1.197  1.6711 -0.5844 -1.0150
 1509SOL    HW3 5803   5.093   0.520   1.270 -0.5044  0.1177 -1.1092
 1509SOL    MW4 5804   5.131   0.598   1.270 -0.1289 -0.0636 -0.8261
 1510SOL     OW 5805   0.719   5.949   3.288 -0.2230  0.5328 -0.0481
 1510SOL    HW2 5806   0.762   5.864   3.297  0.2745  0.7862  0.0008
 1510SOL    HW3 5807   0.671   5.943   3.205 -0.3128  0.1554  0.0307
 1510SOL    MW4 5808   0.718   5.937   3.278 -0.1692  0.5165 -0.0313
 1511SOL     OW 5809   5.273   3.936   3.977  0.0889  0.1608  0.5193
 1511SOL    HW2 5810   5.265   4.023   4.018 -0.6067 -0.0047  0.7477
 1511SOL    HW3 5811   5.256   3.952   3.884 -0.0677  0.2672  0.5659
 1511SOL    MW4 5812   5.270   3.950   3.970 -0.0235  0.1530  0.5556
 1512SOL     OW 5813   4.191   5.546   6.236 -0.1597  0.3168 -0.0579
 1512SOL    HW2 5814   4.152   5.470   6.278  0.2684 -0.8875 -1.7289
 1512SOL    HW3 5815   4.242   5.589   6.305  2.2678 -2.7739  0.2664
 1512SOL    MW4 5816   4.193   5.542   6.250  0.2171 -0.2499 -0.2356
 1513SOL     OW 5817   5.661   2.903   1.842 -0.0546  0.2678  0.3147
 1513SOL    HW2 5818   5.576   2.896   1.886 -0.3902 -0.4831 -0.4154
 1513SOL    HW3 5819   5.662   2.990   1.804 -0.8125  0.0322 -0.2688
 1513SOL    MW4 5820   5.650   2.913   1.843 -0.1989  0.1376  0.1414
 1514SOL     OW 5821   2.222   3.448   4.268 -0.3634 -0.2703 -0.3938
 1514SOL    HW2 5822   2.280   3.462   4.343  0.1776  0.6182 -0.9753
 1514SOL    HW3 5823   2.189   3.359   4.281  0.5762 -0.5324  0.3147
 1514SOL    MW4 5824   2.225   3.438   4.280 -0.1681 -0.1877 -0.3771
 1515SOL     OW 5825   2.404   4.022   2.193  0.2677 -0.0235  0.1656
 1515SOL    HW2 5826   2.451   4.011   2.110  1.3877  1.4699  0.5679
 1515SOL    HW3 5827   2.335   4.085   2.173 -0.4406 -0.8147  0.0317
 1515SOL    MW4 5828   2.401   4.029   2.179  0.3220  0.0692  0.2010
 1516SOL     OW 5829   2.252   6.176   4.414 -0.0245 -0.6536 -0.5322
 1516SOL    HW2 5830   2.304   6.101   4.444 -0.7988 -0.5995  1.0425
 1516SOL    HW3 5831   2.308   6.219   4.349  2.0817 -0.4059  1.2999
 1516SOL    MW4 5832   2.267   6.172   4.410  0.1512 -0.6138 -0.0827
 1517SOL     OW 5833   1.925   5.438   3.060 -0.2271  0.3644  0.4303
 1517SOL    HW2 5834   1.972   5.414   2.980 -0.7650 -1.3009  0.5989
 1517SOL    HW3 5835   1.995   5.460   3.122  0.2146  0.8555 -0.2150
 1517SOL    MW4 5836   1.940   5.438   3.058 -0.2398  0.2095  0.3674
 1518SOL     OW 5837   6.040   3.384   1.416  0.0116  0.3174 -0.6552
 1518SOL    HW2 5838   6.029   3.344   1.503  0.2734  2.0389  0.2025
 1518SOL    HW3 5839   6.132   3.367   1.394 -0.3181 -1.0280 -1.0986
 1518SOL    MW4 5840   6.051   3.376   1.425  0.0027  0.3670 -0.6005
 1519SOL     OW 5841   5.907   0.905   0.531  0.0455 -0.0427 -0.1889
 1519SOL    HW2 5842   5.897   0.852   0.452 -0.4901 -0.6038  0.2419
 1519SOL    HW3 5843   5.987   0.871   0.573  0.1413  0.0277 -0.3139
 1519SOL    MW4 5844   5.916   0.893   0.526 -0.0125 -0.1074 -0.1486
 1520SOL     OW 5845   5.566   1.806   0.605  0.0634  0.1829  0.1246
 1520SOL    HW2 5846   5.498   1.772   0.546  0.4946  0.2085 -0.3948
 1520SOL    HW3 5847   5.639   1.744   0.595  0.2115  0.3001  0.4830
 1520SOL    MW4 5848   5.567   1.793   0.596  0.1399  0.2018  0.1033
 1521SOL     OW 5849   4.921   2.227   4.471  0.3786 -0.1800 -0.2898
 1521SOL    HW2 5850   4.836   2.225   4.427  0.8793 -1.9434 -1.2598
 1521SOL    HW3 5851   4.949   2.136   4.474  1.4729  0.1707  1.5880
 1521SOL    MW4 5852   4.913   2.215   4.465  0.5890 -0.3664 -0.1700
 1522SOL     OW 5853   4.371   4.329   0.713  0.2862 -0.4485  0.1265
 1522SOL    HW2 5854   4.450   4.291   0.753 -0.0927 -0.7145  0.6386
 1522SOL    HW3 5855   4.390   4.422   0.707  0.3769 -0.4069  0.8869
 1522SOL    MW4 5856   4.384   4.336   0.718  0.2482 -0.4781  0.2944
 1523SOL     OW 5857   1.191   3.560   1.857 -0.2218 -0.4489 -0.4952
 1523SOL    HW2 5858   1.233   3.497   1.916  0.1535  0.8106  0.6398
 1523SOL    HW3 5859   1.146   3.506   1.792 -0.9318 -1.9079  1.1301
 1523SOL    MW4 5860   1.190   3.545   1.856 -0.2659 -0.4752 -0.1310
 1524SOL     OW 5861   1.094   0.290   0.191  0.0868 -0.1466  0.1015
 1524SOL    HW2 5862   1.027   0.352   0.161  0.9875  1.0534  0.5035
 1524SOL    HW3 5863   1.098   0.225   0.122  0.2183  1.1045 -1.1172
 1524SOL    MW4 5864   1.086   0.290   0.178  0.2230  0.1768 -0.0063
 1525SOL     OW 5865   2.492   5.109   6.264 -0.6860 -0.0906  0.2671
 1525SOL    HW2 5866   2.579   5.141   6.290 -1.0405  1.5151 -0.4225
 1525SOL    HW3 5867   2.435   5.133   6.338 -0.7572 -0.1174  0.2208
 1525SOL    MW4 5868   2.496   5.116   6.277 -0.7422  0.1177  0.1700
 1526SOL     OW 5869   4.859   2.162   6.027 -0.0798 -0.1846 -0.2326
 1526SOL    HW2 5870   4.837   2.179   5.935  0.4094 -2.8672 -0.9333
 1526SOL    HW3 5871   4.945   2.121   6.023  0.0331 -0.1743  1.4719
 1526SOL    MW4 5872   4.868   2.159   6.014 -0.0003 -0.5372 -0.1002
 1527SOL     OW 5873   4.934   3.874   4.610 -0.0235  0.1854 -0.2208
 1527SOL    HW2 5874   4.942   3.840   4.699 -0.0870  1.1082  0.1427
 1527SOL    HW3 5875   4.869   3.943   4.615  0.5984  0.8323 -0.8106
 1527SOL    MW4 5876   4.927   3.878   4.622  0.0501  0.3925 -0.2507
 1528SOL     OW 5877   3.008   1.782   0.445 -0.0247  0.3360 -0.4533
 1528SOL    HW2 5878   2.927   1.833   0.457 -0.1642  0.2046 -0.7989
 1528SOL    HW3 5879   2.981   1.691   0.460  0.1774  0.3417 -0.0461
 1528SOL    MW4 5880   2.993   1.776   0.448 -0.0164  0.3194 -0.4451
 1529SOL     OW 5881   3.711   2.762   5.385  0.3442  0.5165 -0.2295
 1529SOL    HW2 5882   3.694   2.689   5.444 -1.5461  1.3217  0.3156
 1529SOL    HW3 5883   3.742   2.721   5.304 -0.6386 -0.9022  0.0669
 1529SOL    MW4 5884   3.713   2.747   5.382 -0.0349  0.4356 -0.1185
 1530SOL     OW 5885   0.774   3.687   6.221  0.2881  0.3141 -0.1980
 1530SOL    HW2 5886   0.799   3.735   6.300 -0.4100 -1.1081  0.9322
 1530SOL    HW3 5887   0.840   3.619   6.213  2.5016  2.5485 -2.9774
 1530SOL    MW4 5888   0.786   3.684   6.231  0.4881  0.4213 -0.4156
 1531SOL     OW 5889   2.081   0.726   2.952 -0.3265 -0.0319  0.0425
 1531SOL    HW2 5890   2.113   0.678   3.029 -0.4882 -1.8497 -0.9598
 1531SOL    HW3 5891   2.091   0.818   2.976 -1.2060 -0.5065  2.5914
 1531SOL    MW4 5892   2.087   0.732   2.965 -0.4639 -0.3344  0.2465
 1532SOL     OW 5893   3.362   2.947   1.599 -0.1997  0.3279  0.1166
 1532SOL    HW2 5894   3.426   2.890   1.641  0.9488  1.0756 -0.5628
 1532SOL    HW3 5895   3.364   2.923   1.506  0.2491  1.4036 -0.1667
 1532SOL    MW4 5896   3.371   2.937   1.592  0.0110  0.5685 -0.0104
 1533SOL     OW 5897   4.726   1.274   3.855 -0.5191  0.8014 -0.0193
 1533SOL    HW2 5898   4.632   1.279   3.841 -0.2551  1.6901 -1.6959
 1533SOL    HW3 5899   4.762   1.253   3.769  0.7005 -1.6959  1.0013
 1533SOL    MW4 5900   4.718   1.272   3.842 -0.3233  0.5892 -0.1059
 1534SOL     OW 5901   3.257   3.859   5.091  0.2199 -0.7021  0.0912
 1534SOL    HW2 5902   3.270   3.846   5.186  0.7648  0.1180  0.1446
 1534SOL    HW3 5903   3.223   3.948   5.084  0.2361 -0.7409 -0.4871
 1534SOL    MW4 5904   3.254   3.869   5.103  0.2939 -0.5990  0.0220
 1535SOL     OW 5905   1.807   4.395   0.982  0.2342  0.3923  0.1409
 1535SOL    HW2 5906   1.750   4.404   0.906  0.3628  3.3216  0.2899
 1535SOL    HW3 5907   1.754   4.425   1.056  0.5285 -1.1882  1.0385
 1535SOL    MW4 5908   1.793   4.400   0.982  0.2900  0.5702  0.2790
 1536SOL     OW 5909   0.103   2.331   3.908  0.2836  0.7231  0.2953
 1536SOL    HW2 5910   0.155   2.390   3.853 -1.8970  0.9749 -1.6505
 1536SOL    HW3 5911   0.045   2.389   3.957  1.4369  0.4184  2.1244
 1536SOL    MW4 5912   0.102   2.346   3.907  0.1481  0.7161  0.2799
 1537SOL     OW 5913   0.278   2.333   4.178 -0.6030  0.0083  0.0373
 1537SOL    HW2 5914   0.214   2.264   4.159 -1.1550  0.6978 -0.7165
 1537SOL    HW3 5915   0.231   2.394   4.236 -0.6935  0.5769 -0.6120
 1537SOL    MW4 5916   0.263   2.332   4.183 -0.6878  0.1743 -0.1478
 1538SOL     OW 5917   6.250   5.920   2.846  0.3556  0.0289 -0.0904
 1538SOL    HW2 5918   6.309   5.986   2.810 -0.1829  0.3834 -0.3227
 1538SOL    HW3 5919   6.300   5.838   2.841  0.3753  0.1119 -1.4084
 1538SOL    MW4 5920   6.265   5.918   2.841  0.2871  0.0866 -0.2949
 1539SOL     OW 5921   5.050   3.330   6.293  0.1626  0.0327 -0.1089
 1539SOL    HW2 5922   5.074   3.394   6.226 -4.2016  0.8035 -1.2511
 1539SOL    HW3 5923   5.081   3.369   6.375  2.2971  0.9093 -1.2516
 1539SOL    MW4 5924   5.057   3.344   6.295 -0.1316  0.2501 -0.4104
 1540SOL     OW 5925   1.867   2.937   0.026 -0.0415  0.1429  0.4080
 1540SOL    HW2 5926   1.846   2.910   0.115  1.8213 -1.6494  0.3679
 1540SOL    HW3 5927   1.936   2.877  -0.002  0.2738  1.4303 -1.8190
 1540SOL    MW4 5928   1.873   2.926   0.034  0.2459  0.0763  0.1089
 1541SOL     OW 5929   2.868   2.571   1.783 -0.3021  0.1435 -0.3677
 1541SOL    HW2 5930   2.815   2.623   1.844  0.4575  0.3804  0.1165
 1541SOL    HW3 5931   2.816   2.567   1.703 -1.7203 -0.9087  0.5551
 1541SOL    MW4 5932   2.854   2.577   1.780 -0.3890  0.0359 -0.1820
 1542SOL     OW 5933   1.168   1.674   1.555  0.6914 -0.0626 -0.5030
 1542SOL    HW2 5934   1.252   1.684   1.601 -0.3754 -0.4186  1.6210
 1542SOL    HW3 5935   1.154   1.579   1.552 -0.8910  0.0330  1.6757
 1542SOL    MW4 5936   1.177   1.662   1.561  0.3419 -0.0969  0.0647
 1543SOL     OW 5937   5.862   1.490   0.386  0.0003 -0.4354 -0.6672
 1543SOL    HW2 5938   5.826   1.416   0.337  1.4301  0.0747 -2.6234
 1543SOL    HW3 5939   5.841   1.566   0.332  2.0828  0.1012 -0.8059
 1543SOL    MW4 5940   5.854   1.490   0.372  0.4637 -0.2973 -0.9436
 1544SOL     OW 5941   3.920   2.770   0.608 -0.2118 -0.1208  0.2846
 1544SOL    HW2 5942   3.948   2.683   0.580  1.9764  0.8292 -0.6663
 1544SOL    HW3 5943   3.862   2.800   0.538  2.3645  0.7880 -1.6090
 1544SOL    MW4 5944   3.916   2.762   0.595  0.4168  0.1245 -0.0907
 1545SOL     OW 5945   4.135   3.583   2.981  0.8360  0.0389 -0.0703
 1545SOL    HW2 5946   4.048   3.566   2.946  1.4005 -1.1085 -1.0169
 1545SOL    HW3 5947   4.180   3.499   2.975  2.0845  0.6602  0.1561
 1545SOL    MW4 5948   4.130   3.570   2.975  1.0752 -0.0305 -0.1654
 1546SOL     OW 5949   1.056   4.564   6.235 -0.0657 -0.1240 -0.3626
 1546SOL    HW2 5950   1.127   4.628   6.224  1.6062 -1.7713  0.3645
 1546SOL    HW3 5951   1.046   4.556   6.330 -0.0596 -1.1292 -0.4414
 1546SOL    MW4 5952   1.064   4.572   6.246  0.1557 -0.4740 -0.2771
 1547SOL     OW 5953   4.087   4.296   5.684  0.3052  0.7137 -0.3559
 1547SOL    HW2 5954   4.068   4.227   5.747  0.1874  0.4420 -0.6858
 1547SOL    HW3 5955   4.013   4.356   5.691 -0.5014 -0.1297 -1.3457
 1547SOL    MW4 5956   4.075   4.295   5.693  0.1833  0.5666 -0.5300
 1548SOL     OW 5957   4.477   5.777   1.000 -0.4203  0.0748 -0.0494
 1548SOL    HW2 5958   4.503   5.854   0.949 -2.2548  1.3857  0.9003
 1548SOL    HW3 5959   4.558   5.725   1.008  0.5704  1.2511 -1.7763
 1548SOL    MW4 5960   4.491   5.780   0.994 -0.5316  0.4029 -0.1519
 1549SOL     OW 5961   2.598   5.312   3.402  0.7873  0.0005 -0.2686
 1549SOL    HW2 5962   2.635   5.350   3.322  2.5459 -0.0544  0.4690
 1549SOL    HW3 5963   2.627   5.221   3.400 -1.0798 -0.6104 -0.6623
 1549SOL    MW4 5964   2.607   5.305   3.391  0.7730 -0.0873 -0.2232
 1550SOL     OW 5965   0.887   4.826   4.706 -0.2095  0.1440 -0.0125
 1550SOL    HW2 5966   0.863   4.760   4.641  1.3475 -0.9458  0.4447
 1550SOL    HW3 5967   0.805   4.872   4.725 -0.7730  0.2888 -2.4632
 1550SOL    MW4 5968   0.873   4.823   4.700 -0.0784  0.0193 -0.2755
 1551SOL     OW 5969   1.624   5.941   4.001 -0.0248  0.0386 -0.0316
 1551SOL    HW2 5970   1.686   5.884   3.956 -1.9390 -1.6436 -0.7264
 1551SOL    HW3 5971   1.569   5.975   3.931 -0.1756  1.1300  0.6047
 1551SOL    MW4 5972   1.625   5.938   3.986 -0.2973 -0.0394 -0.0393
 1552SOL     OW 5973   6.332   5.034   2.791 -0.1816 -0.3482  0.3489
 1552SOL    HW2 5974   6.274   4.960   2.773 -0.4471 -0.4142  1.3966
 1552SOL    HW3 5975   6.329   5.044   2.886  2.8243 -1.4177  0.6648
 1552SOL    MW4 5976   6.324   5.025   2.801  0.1799 -0.4981  0.5288
 1553SOL     OW 5977   5.190   5.431   4.679 -0.6893 -0.2784  0.3244
 1553SOL    HW2 5978   5.277   5.473   4.677 -1.1161  0.7957  1.9189
 1553SOL    HW3 5979   5.208   5.340   4.701  0.0273  0.0771  1.3060
 1553SOL    MW4 5980   5.204   5.425   4.681 -0.6511 -0.0898  0.6643
 1554SOL     OW 5981   4.600   2.464   6.145  0.2977 -0.6006  0.1880
 1554SOL    HW2 5982   4.564   2.427   6.065 -0.8408  1.9903 -0.6249
 1554SOL    HW3 5983   4.563   2.410   6.215 -0.6460 -1.4634 -0.9315
 1554SOL    MW4 5984   4.590   2.452   6.144  0.0230 -0.3726 -0.0669
 1555SOL     OW 5985   6.229   1.788   4.017  0.1137 -0.2511 -0.2719
 1555SOL    HW2 5986   6.292   1.845   4.063  0.6859  0.0232 -1.3531
 1555SOL    HW3 5987   6.152   1.844   4.004 -0.4235 -0.6131  1.1310
 1555SOL    MW4 5988   6.227   1.803   4.021  0.1183 -0.2627 -0.2295
 1556SOL     OW 5989   4.514   1.147   2.571  0.2531  0.4440 -0.1717
 1556SOL    HW2 5990   4.528   1.093   2.494 -0.4595  1.0516 -0.7364
 1556SOL    HW3 5991   4.451   1.099   2.625 -0.6161  0.8386 -0.8171
 1556SOL    MW4 5992   4.508   1.134   2.568  0.0444  0.5762 -0.3314
 1557SOL     OW 5993   1.736   2.143   4.937  0.3937  0.3850 -0.1068
 1557SOL    HW2 5994   1.678   2.073   4.967  0.2167  0.2834 -0.6783
 1557SOL    HW3 5995   1.824   2.107   4.948  0.3785  0.6751  1.1086
 1557SOL    MW4 5996   1.740   2.129   4.943  0.3683  0.4098 -0.0219
 1558SOL     OW 5997   4.193   5.856   2.089 -0.1907 -0.7278 -0.0502
 1558SOL    HW2 5998   4.195   5.784   2.152  0.8612  0.9909  2.0073
 1558SOL    HW3 5999   4.106   5.894   2.099  0.6688  0.8566  2.0494
 1558SOL    MW4 6000   4.182   5.852   2.099  0.0615 -0.2920  0.4983
 1559SOL     OW 6001   1.383   0.926   4.108  0.1016 -0.0570 -0.0839
 1559SOL    HW2 6002   1.292   0.948   4.128  0.0531  0.3860 -0.7540
 1559SOL    HW3 6003   1.409   0.990   4.041  1.3179  0.6651  1.0129
 1559SOL    MW4 6004   1.374   0.938   4.101  0.2557  0.0967 -0.0276
 1560SOL     OW 6005   6.329   6.146   2.030 -0.0651 -0.0332 -0.4336
 1560SOL    HW2 6006   6.249   6.137   2.083 -0.1071  2.4928  0.0517
 1560SOL    HW3 6007   6.312   6.094   1.952 -2.2801  0.5762 -0.4190
 1560SOL    MW4 6008   6.316   6.138   2.027 -0.3629  0.3805 -0.3676
 1561SOL     OW 6009   0.291   2.933   2.823  0.0668 -0.4695  0.5004
 1561SOL    HW2 6010   0.381   2.939   2.792 -0.0081 -5.1952 -1.3336
 1561SOL    HW3 6011   0.244   2.999   2.772  2.0290  0.3490 -0.3687
 1561SOL    MW4 6012   0.297   2.943   2.812  0.3158 -0.9850  0.1437
 1562SOL     OW 6013   3.807   1.632   0.693  0.1372  0.0265  0.4150
 1562SOL    HW2 6014   3.800   1.627   0.788  0.2109 -0.8144  0.3830
 1562SOL    HW3 6015   3.806   1.726   0.674 -4.9119  0.2913  0.8463
 1562SOL    MW4 6016   3.806   1.644   0.703 -0.5193 -0.0495  0.4677
 1563SOL     OW 6017   2.335   2.833   0.173  0.1132 -0.1689 -0.4040
 1563SOL    HW2 6018   2.364   2.745   0.147  1.4141  0.1445 -0.0651
 1563SOL    HW3 6019   2.307   2.823   0.264  0.0810 -0.2628 -0.4238
 1563SOL    MW4 6020   2.335   2.820   0.181  0.2806 -0.1399 -0.3619
 1564SOL     OW 6021   5.963   2.486   4.275 -0.7776 -0.2973 -0.0561
 1564SOL    HW2 6022   5.893   2.503   4.212 -0.3457  0.4950 -0.3220
 1564SOL    HW3 6023   6.031   2.441   4.225  0.4627  2.1441 -0.6972
 1564SOL    MW4 6024   5.963   2.482   4.260 -0.5570  0.1294 -0.1757
 1565SOL     OW 6025   2.635   3.989   1.209 -0.0033 -0.0712  0.1456
 1565SOL    HW2 6026   2.686   4.057   1.254  1.3740 -1.4139  0.6806
 1565SOL    HW3 6027   2.663   3.994   1.118 -0.8368  0.8738 -0.0859
 1565SOL    MW4 6028   2.645   3.999   1.203  0.0684 -0.1237  0.1856
 1566SOL     OW 6029   4.531   1.792   1.761  0.1277 -0.6597 -0.1330
 1566SOL    HW2 6030   4.592   1.725   1.731 -0.9171 -1.1174 -1.3425
 1566SOL    HW3 6031   4.583   1.872   1.766  0.7751 -0.9565 -1.4881
 1566SOL    MW4 6032   4.546   1.794   1.757  0.0753 -0.7592 -0.4714
 1567SOL     OW 6033   2.769   0.509   1.268 -0.2020 -0.1976  0.1233
 1567SOL    HW2 6034   2.768   0.433   1.210 -0.7847  1.3608 -2.0478
 1567SOL    HW3 6035   2.727   0.578   1.217  0.0249  1.5069  2.1298
 1567SOL    MW4 6036   2.763   0.508   1.253 -0.2490  0.2329  0.1016
 1568SOL     OW 6037   4.048   5.595   1.013 -0.3552 -0.1161  0.1299
 1568SOL    HW2 6038   4.013   5.552   1.091  1.3489 -0.0376  0.9972
 1568SOL    HW3 6039   3.998   5.559   0.940 -2.0346 -0.1489  1.2513
 1568SOL    MW4 6040   4.037   5.585   1.014 -0.3519 -0.1101  0.3923
 1569SOL     OW 6041   3.056   1.980   5.772 -0.0282  0.3075  0.4508
 1569SOL    HW2 6042   2.981   1.973   5.713 -0.2515  0.8314  0.6650
 1569SOL    HW3 6043   3.065   1.893   5.809 -1.9324  0.7420  2.1196
 1569SOL    MW4 6044   3.047   1.968   5.769 -0.3089  0.4340  0.6992
 1570SOL     OW 6045   0.703   1.060   2.955  0.0788 -0.1206 -0.3785
 1570SOL    HW2 6046   0.757   1.076   3.032 -1.4356  0.3836  0.6139
 1570SOL    HW3 6047   0.668   0.972   2.967 -0.7687  0.2437 -0.0832
 1570SOL    MW4 6048   0.706   1.051   2.967 -0.2328 -0.0060 -0.2086
 1571SOL     OW 6049   1.385   3.474   1.108  0.2773  0.4001  0.1051
 1571SOL    HW2 6050   1.419   3.452   1.195 -2.1254 -0.9518  0.7813
 1571SOL    HW3 6051   1.340   3.557   1.120 -1.8207 -0.7496  0.7447
 1571SOL    MW4 6052   1.384   3.482   1.121 -0.3165  0.0701  0.2787
 1572SOL     OW 6053   1.115   3.561   3.408  0.1282  0.4480 -0.4791
 1572SOL    HW2 6054   1.025   3.528   3.405  1.0021 -2.0094 -1.8410
 1572SOL    HW3 6055   1.155   3.513   3.481  0.0908  2.4361  0.9392
 1572SOL    MW4 6056   1.108   3.550   3.417  0.2385  0.3861 -0.4717
 1573SOL     OW 6057   2.157   4.264   0.134  0.3181 -0.0542  0.3493
 1573SOL    HW2 6058   2.097   4.206   0.181 -0.7176  1.1662  0.6030
 1573SOL    HW3 6059   2.244   4.244   0.170 -0.4591  0.9807  3.0042
 1573SOL    MW4 6060   2.161   4.254   0.145  0.0789  0.2433  0.7330
 1574SOL     OW 6061   4.030   3.723   0.839 -0.0505  0.3096 -1.0556
 1574SOL    HW2 6062   4.012   3.719   0.933 -1.0225  1.2125 -1.1770
 1574SOL    HW3 6063   3.945   3.703   0.798 -0.7623  4.0102 -1.6857
 1574SOL    MW4 6064   4.016   3.720   0.846 -0.2727  0.9170 -1.1548
 1575SOL     OW 6065   4.672   2.755   1.241  0.6074 -0.3437 -0.3892
 1575SOL    HW2 6066   4.672   2.828   1.303 -0.1880 -0.4242 -0.2878
 1575SOL    HW3 6067   4.623   2.685   1.285 -0.1042 -0.3484 -1.1624
 1575SOL    MW4 6068   4.666   2.755   1.255  0.4086 -0.3549 -0.4779
 1576SOL     OW 6069   3.860   0.286   3.989 -0.4582  0.2275 -0.2366
 1576SOL    HW2 6070   3.821   0.272   4.076  0.6726 -0.5909  0.1607
 1576SOL    HW3 6071   3.954   0.269   4.002 -0.4039 -0.8546 -1.8320
 1576SOL    MW4 6072   3.868   0.282   4.002 -0.3019 -0.0232 -0.3947
 1577SOL     OW 6073   0.484   4.176   0.664 -0.7668 -0.3972 -0.4698
 1577SOL    HW2 6074   0.558   4.116   0.655 -2.0419 -2.1101 -0.0410
 1577SOL    HW3 6075   0.412   4.121   0.695 -1.4873  1.7200  1.9756
 1577SOL    MW4 6076   0.484   4.161   0.667 -1.0301 -0.3438 -0.0906
 1578SOL     OW 6077   1.505   5.214   3.146 -0.4913 -0.3732 -0.3701
 1578SOL    HW2 6078   1.520   5.225   3.240  0.5913  1.2105 -0.6991
 1578SOL    HW3 6079   1.523   5.121   3.130  0.5993 -0.3797  0.7668
 1578SOL    MW4 6080   1.509   5.203   3.157 -0.2046 -0.1651 -0.2635
 1579SOL     OW 6081   1.958   2.261   3.308  0.5611  0.3526 -0.6782
 1579SOL    HW2 6082   1.941   2.320   3.234  0.1381  0.4518 -0.5092
 1579SOL    HW3 6083   2.000   2.185   3.269  0.7536  0.6000 -0.9563
 1579SOL    MW4 6084   1.961   2.259   3.293  0.5307  0.3983 -0.6926
 1580SOL     OW 6085   1.249   0.873   2.334 -0.7621 -0.0609 -1.0158
 1580SOL    HW2 6086   1.218   0.785   2.358 -0.7858 -0.1935 -1.5131
 1580SOL    HW3 6087   1.198   0.932   2.389  1.5567 -0.4658  1.7485
 1580SOL    MW4 6088   1.238   0.869   2.344 -0.4593 -0.1318 -0.7167
 1581SOL     OW 6089   0.628   2.822   0.553 -0.2431 -0.0320  0.3151
 1581SOL    HW2 6090   0.580   2.754   0.601  0.1727 -0.3788  0.2430
 1581SOL    HW3 6091   0.720   2.798   0.564 -0.0890  0.5845  0.3814
 1581SOL    MW4 6092   0.634   2.810   0.561 -0.1679  0.0036  0.3143
 1582SOL     OW 6093   6.180   1.166   5.185 -0.0484  0.0043  0.0209
 1582SOL    HW2 6094   6.273   1.167   5.208  0.7318  0.4104 -2.8193
 1582SOL    HW3 6095   6.159   1.257   5.164 -0.0474 -0.5551 -2.8171
 1582SOL    MW4 6096   6.189   1.178   5.185  0.0547 -0.0159 -0.7283
 1583SOL     OW 6097   4.953   3.362   5.032 -0.0549 -1.0755 -0.0192
 1583SOL    HW2 6098   5.001   3.435   5.071  0.4937 -1.4728  0.0719
 1583SOL    HW3 6099   5.020   3.296   5.014 -0.5214 -1.5099 -0.2118
 1583SOL    MW4 6100   4.968   3.363   5.035 -0.0440 -1.1852 -0.0326
 1584SOL     OW 6101   3.079   4.098   0.125  0.0798  0.4289  0.2872
 1584SOL    HW2 6102   3.115   4.168   0.071 -0.8848  0.1075 -0.8239
 1584SOL    HW3 6103   3.153   4.038   0.140  0.1819  0.0809 -1.4347
 1584SOL    MW4 6104   3.094   4.099   0.120 -0.0340  0.3406 -0.0866
 1585SOL     OW 6105   1.534   0.332   1.969  1.0215 -0.6863  0.3871
 1585SOL    HW2 6106   1.499   0.401   2.026  0.4814  1.1527 -2.0007
 1585SOL    HW3 6107   1.600   0.288   2.022 -0.2243  0.1506  2.7863
 1585SOL    MW4 6108   1.538   0.335   1.983  0.7858 -0.3333  0.3886
 1586SOL     OW 6109   1.581   0.645   3.999 -0.1845 -0.5620 -0.3853
 1586SOL    HW2 6110   1.538   0.625   3.916  0.4927 -1.0188 -0.6352
 1586SOL    HW3 6111   1.672   0.621   3.985  0.5134  1.8744 -0.4013
 1586SOL    MW4 6112   1.587   0.639   3.986 -0.0031 -0.3008 -0.4204
 1587SOL     OW 6113   1.333   2.581   6.272  0.0024 -0.5833  0.3371
 1587SOL    HW2 6114   1.303   2.496   6.238 -1.3415  0.4351 -1.1622
 1587SOL    HW3 6115   1.390   2.615   6.203 -0.3109  0.2018  0.4628
 1587SOL    MW4 6116   1.337   2.574   6.258 -0.2163 -0.3453  0.1559
 1588SOL     OW 6117   1.430   4.027   2.751  0.1171 -0.5205 -0.1584
 1588SOL    HW2 6118   1.353   3.977   2.780 -1.1941  1.6709  0.3867
 1588SOL    HW3 6119   1.394   4.107   2.713  2.0987  1.6115  2.0895
 1588SOL    MW4 6120   1.415   4.031   2.750  0.2055  0.0499  0.2101
 1589SOL     OW 6121   0.457   6.006   1.516 -0.0647 -0.3916 -0.1917
 1589SOL    HW2 6122   0.420   5.944   1.579 -0.7788  1.7902  1.6750
 1589SOL    HW3 6123   0.505   6.069   1.570 -0.2969  1.3032 -1.8483
 1589SOL    MW4 6124   0.458   6.006   1.532 -0.1895  0.1199 -0.1640
 1590SOL     OW 6125   1.688   5.867   4.336  0.2699  0.3446 -0.0946
 1590SOL    HW2 6126   1.724   5.782   4.311 -0.9826 -0.5393  0.9652
 1590SOL    HW3 6127   1.731   5.929   4.278  2.0578 -0.8669 -0.1620
 1590SOL    MW4 6128   1.699   5.864   4.325  0.3406  0.0682  0.0363
 1591SOL     OW 6129   3.903   2.880   0.882 -0.2015  0.2863  0.4538
 1591SOL    HW2 6130   3.916   2.826   0.803 -1.6797  1.0641 -0.3676
 1591SOL    HW3 6131   3.902   2.817   0.954 -1.6752 -0.8063 -0.4600
 1591SOL    MW4 6132   3.905   2.864   0.881 -0.5909  0.2448  0.2248
 1592SOL     OW 6133   0.151   0.416   4.824 -0.3161  0.5264  0.0607
 1592SOL    HW2 6134   0.114   0.371   4.748  0.3838 -0.7023  0.4176
 1592SOL    HW3 6135   0.244   0.426   4.803  0.1778 -1.0585  1.2707
 1592SOL    MW4 6136   0.158   0.411   4.811 -0.1586  0.1552  0.2675
 1593SOL     OW 6137   4.042   0.821   1.212  0.4038  0.5089 -0.0629
 1593SOL    HW2 6138   4.014   0.748   1.267  0.0223  0.9921  0.4003
 1593SOL    HW3 6139   4.048   0.895   1.272  1.1766  0.7760 -0.4506
 1593SOL    MW4 6140   4.039   0.821   1.227  0.4555  0.6079 -0.0529
 1594SOL     OW 6141   2.892   1.680   2.378 -0.6063  0.4269  0.4201
 1594SOL    HW2 6142   2.976   1.668   2.424  0.0924 -2.0010 -1.3013
 1594SOL    HW3 6143   2.893   1.772   2.352  0.3611  1.0931  2.5519
 1594SOL    MW4 6144   2.903   1.691   2.381 -0.3865  0.1945  0.4743
 1595SOL     OW 6145   2.885   5.482   2.623  0.2222 -0.0795  0.5046
 1595SOL    HW2 6146   2.950   5.450   2.561  0.4206  0.1257  0.6043
 1595SOL    HW3 6147   2.821   5.528   2.569 -0.6047 -1.4906  0.2445
 1595SOL    MW4 6148   2.885   5.484   2.608  0.1393 -0.2386  0.4834
 1596SOL     OW 6149   0.137   2.985   6.081 -0.8012 -0.2929 -0.0249
 1596SOL    HW2 6150   0.142   2.911   6.019  0.0287 -0.7100  0.5249
 1596SOL    HW3 6151   0.049   2.978   6.119 -0.4961 -1.4237  0.5283
 1596SOL    MW4 6152   0.126   2.974   6.078 -0.6515 -0.4971  0.1206
 1597SOL     OW 6153   5.491   0.847   4.408  0.1764  0.0538  0.5454
 1597SOL    HW2 6154   5.518   0.795   4.484  1.6725  1.6645  1.1791
 1597SOL    HW3 6155   5.543   0.927   4.414 -0.6486  0.8014 -1.4632
 1597SOL    MW4 6156   5.501   0.851   4.419  0.2650  0.3649  0.3640
 1598SOL     OW 6157   1.011   0.141   4.595 -0.6726 -0.8701  0.0759
 1598SOL    HW2 6158   0.979   0.063   4.549 -0.7457 -1.5488  1.2599
 1598SOL    HW3 6159   1.106   0.127   4.603 -0.4067 -0.0225 -1.2097
 1598SOL    MW4 6160   1.019   0.129   4.590 -0.6471 -0.8478  0.0625
 1599SOL     OW 6161   5.612   3.458   1.903 -0.8019  0.0812  0.1605
 1599SOL    HW2 6162   5.637   3.545   1.935 -0.9908  0.2073 -0.0306
 1599SOL    HW3 6163   5.640   3.458   1.812  1.2721 -0.8818  0.7420
 1599SOL    MW4 6164   5.619   3.470   1.895 -0.5532 -0.0292  0.2120
 1600SOL     OW 6165   0.781   0.143   5.658 -0.0521 -0.1272  0.7854
 1600SOL    HW2 6166   0.815   0.214   5.604 -1.3288  0.5219  0.7979
 1600SOL    HW3 6167   0.696   0.122   5.620  0.9215 -2.7262 -0.1503
 1600SOL    MW4 6168   0.774   0.150   5.646 -0.0921 -0.3845  0.6636
 1601SOL     OW 6169   4.353   1.092   1.309  0.2847  0.1654 -0.5333
 1601SOL    HW2 6170   4.260   1.112   1.301  0.4843  0.7086 -1.7464
 1601SOL    HW3 6171   4.381   1.075   1.219  1.7324  1.7884 -0.4334
 1601SOL    MW4 6172   4.344   1.092   1.296  0.5020  0.4512 -0.6802
 1602SOL     OW 6173   1.463   3.398   0.329  0.6248  0.1791 -0.2892
 1602SOL    HW2 6174   1.411   3.461   0.279  0.4950  0.1390 -0.2040
 1602SOL    HW3 6175   1.548   3.441   0.340  0.2641  0.7183  0.5226
 1602SOL    MW4 6176   1.468   3.412   0.324  0.5601  0.2449 -0.1709
 1603SOL     OW 6177   4.615   2.498   5.051 -0.1427 -0.0953  0.6593
 1603SOL    HW2 6178   4.669   2.419   5.047  0.7312  0.3993  1.9375
 1603SOL    HW3 6179   4.667   2.559   5.104 -1.4552  0.8059  0.9469
 1603SOL    MW4 6180   4.629   2.496   5.058 -0.2006  0.0888  0.8659
 1604SOL     OW 6181   1.120   4.367   3.900  0.5215  0.1544  0.4953
 1604SOL    HW2 6182   1.141   4.327   3.985 -0.1588  0.4812  0.8271
 1604SOL    HW3 6183   1.025   4.372   3.899  0.5847  2.2697  0.7288
 1604SOL    MW4 6184   1.110   4.363   3.911  0.4401  0.4766  0.5699
 1605SOL     OW 6185   1.239   5.380   3.333 -0.0857  0.9818 -0.2471
 1605SOL    HW2 6186   1.202   5.315   3.394 -1.3914  0.6600 -1.3387
 1605SOL    HW3 6187   1.333   5.378   3.351 -0.1293 -0.9655  0.0109
 1605SOL    MW4 6188   1.246   5.371   3.343 -0.2637  0.6824 -0.3571
 1606SOL     OW 6189   4.757   0.195   4.391 -0.3394  0.0652  0.2023
 1606SOL    HW2 6190   4.766   0.238   4.307 -0.6229  0.2396  0.2607
 1606SOL    HW3 6191   4.702   0.118   4.374  0.7662 -0.6883 -0.0461
 1606SOL    MW4 6192   4.751   0.191   4.378 -0.2310 -0.0112  0.1772
 1607SOL     OW 6193   0.697   0.293  -0.003 -0.0811 -0.3205 -0.0486
 1607SOL    HW2 6194   0.764   0.353   0.030 -0.1391 -0.1896 -0.1650
 1607SOL    HW3 6195   0.663   0.337  -0.081 -0.4479 -0.2852  0.1288
 1607SOL    MW4 6196   0.701   0.307  -0.009 -0.1371 -0.2986 -0.0405
 1608SOL     OW 6197   5.848   4.901   5.141 -0.4836 -0.4229  0.2168
 1608SOL    HW2 6198   5.753   4.892   5.136 -0.6526  0.7502  0.8520
 1608SOL    HW3 6199   5.864   4.995   5.137  0.6717 -0.6122 -0.1155
 1608SOL    MW4 6200   5.838   4.912   5.140 -0.3535 -0.2931  0.2568
 1609SOL     OW 6201   2.861   1.620   1.268  0.1925 -0.5208  0.6896
 1609SOL    HW2 6202   2.901   1.588   1.187  0.8860  2.4795 -0.3023
 1609SOL    HW3 6203   2.935   1.628   1.328  0.0076 -0.8871  0.9656
 1609SOL    MW4 6204   2.876   1.617   1.265  0.2596 -0.1733  0.5952
 1610SOL     OW 6205   0.925   6.292   5.698  0.1479 -0.4981  0.0633
 1610SOL    HW2 6206   0.878   6.376   5.699 -0.0283 -0.5958  0.6132
 1610SOL    HW3 6207   0.908   6.256   5.611  1.8736  0.9445 -0.9211
 1610SOL    MW4 6208   0.916   6.298   5.687  0.3523 -0.3206  0.0060
 1611SOL     OW 6209   0.068   0.292   2.434 -0.4099 -0.1750 -0.2535
 1611SOL    HW2 6210   0.020   0.212   2.413 -0.2260 -0.9088  1.8268
 1611SOL    HW3 6211   0.113   0.272   2.517  1.7529  1.2127 -0.9977
 1611SOL    MW4 6212   0.068   0.279   2.442 -0.1003 -0.0887 -0.0772
 1612SOL     OW 6213   4.424   3.297   2.784 -0.0086 -0.2410  0.0249
 1612SOL    HW2 6214   4.495   3.296   2.720  1.1418 -1.7421  1.2470
 1612SOL    HW3 6215   4.465   3.327   2.865 -0.4053 -2.2974  1.0662
 1612SOL    MW4 6216   4.439   3.301   2.786  0.0908 -0.7104  0.3235
 1613SOL     OW 6217   2.980   3.842   4.452  0.4836 -0.7250  0.5045
 1613SOL    HW2 6218   2.923   3.877   4.520  0.8089 -0.5115  0.6692
 1613SOL    HW3 6219   3.033   3.776   4.497  0.5401 -0.7457  0.4084
 1613SOL    MW4 6220   2.980   3.838   4.467  0.5340 -0.6995  0.5135
 1614SOL     OW 6221   5.439   5.440   3.069 -0.0315 -0.3748  0.2050
 1614SOL    HW2 6222   5.429   5.402   3.156 -1.1780 -1.0823 -0.2218
 1614SOL    HW3 6223   5.430   5.367   3.008  1.3204  0.0043 -0.5244
 1614SOL    MW4 6224   5.437   5.426   3.072 -0.0044 -0.4181  0.0525
 1615SOL     OW 6225   0.958   5.531   1.131  0.2866  0.3453  0.3498
 1615SOL    HW2 6226   0.986   5.466   1.066 -0.4544  0.2511  0.1093
 1615SOL    HW3 6227   0.891   5.582   1.086  0.2593  0.7276  0.8184
 1615SOL    MW4 6228   0.953   5.529   1.116  0.1853  0.3833  0.3799
 1616SOL     OW 6229   6.314   3.812   3.317 -0.0519 -0.0232  0.1980
 1616SOL    HW2 6230   6.272   3.897   3.332  0.1100 -0.0831  1.0103
 1616SOL    HW3 6231   6.296   3.762   3.396  2.8849  0.4934  1.3242
 1616SOL    MW4 6232   6.306   3.817   3.329  0.3569  0.0370  0.4538
 1617SOL     OW 6233   1.893   1.638   0.726  0.1784 -0.1521 -0.3187
 1617SOL    HW2 6234   1.949   1.680   0.791  0.3304 -0.5619 -0.1820
 1617SOL    HW3 6235   1.949   1.628   0.649 -0.7892  3.0342 -1.6267
 1617SOL    MW4 6236   1.907   1.642   0.724  0.0708  0.2143 -0.4733
 1618SOL     OW 6237   0.902   6.397   2.432 -0.1716 -0.3874 -0.0183
 1618SOL    HW2 6238   0.867   6.327   2.378  0.8857 -0.0380 -1.2059
 1618SOL    HW3 6239   0.936   6.461   2.370  2.8517 -0.8588  1.0037
 1618SOL    MW4 6240   0.902   6.397   2.417  0.3668 -0.4035 -0.0402
 1619SOL     OW 6241   0.329   1.267   0.515 -0.0601 -0.4966  0.3980
 1619SOL    HW2 6242   0.389   1.338   0.538 -0.6244  0.0457  0.1921
 1619SOL    HW3 6243   0.331   1.209   0.591 -0.7282  0.4885  1.1827
 1619SOL    MW4 6244   0.337   1.268   0.528 -0.2227 -0.2951  0.4744
 1620SOL     OW 6245   4.270   0.029   5.831  0.1530 -0.0969 -0.1152
 1620SOL    HW2 6246   4.312  -0.034   5.772 -0.6459 -0.4386 -0.3321
 1620SOL    HW3 6247   4.340   0.090   5.854  1.0856 -1.3272  0.4795
 1620SOL    MW4 6248   4.285   0.028   5.827  0.1706 -0.3043 -0.0653
 1621SOL     OW 6249   3.041   6.136   4.720  0.0803 -0.3856 -0.0358
 1621SOL    HW2 6250   3.069   6.044   4.717  1.2755 -0.0872  1.1651
 1621SOL    HW3 6251   3.078   6.175   4.640  0.6285 -0.6670  0.0758
 1621SOL    MW4 6252   3.050   6.129   4.709  0.3103 -0.3834  0.1374
 1622SOL     OW 6253   2.961   0.902   3.605 -0.2335 -0.6595  0.5730
 1622SOL    HW2 6254   2.910   0.824   3.629 -1.8751  0.7134  1.8388
 1622SOL    HW3 6255   2.912   0.942   3.534 -0.3309  0.0833  1.0480
 1622SOL    MW4 6256   2.948   0.897   3.599 -0.4629 -0.3803  0.8027
 1623SOL     OW 6257   3.769   1.870   5.009 -0.2232  0.2073 -0.2511
 1623SOL    HW2 6258   3.774   1.948   4.953  2.2005  0.8349  0.7326
 1623SOL    HW3 6259   3.753   1.798   4.948  1.9069  0.9249 -1.7435
 1623SOL    MW4 6260   3.767   1.871   4.993  0.3776  0.3848 -0.3182
 1624SOL     OW 6261   6.272   4.851   0.678  0.5804 -0.1360  0.0617
 1624SOL    HW2 6262   6.191   4.800   0.683  0.4647 -0.0284 -0.6172
 1624SOL    HW3 6263   6.280   4.891   0.765 -0.5911  0.5966 -0.1396
 1624SOL    MW4 6264   6.262   4.850   0.690  0.4106 -0.0252 -0.0544
 1625SOL     OW 6265   2.588   1.426   5.662  0.3808  0.2884  0.3827
 1625SOL    HW2 6266   2.568   1.333   5.671  1.0496  0.1817  0.7586
 1625SOL    HW3 6267   2.629   1.451   5.745 -0.9599  1.2302  0.8115
 1625SOL    MW4 6268   2.591   1.417   5.674  0.2922  0.3986  0.4889
 1626SOL     OW 6269   2.833   2.873   5.505  0.0632  0.7712 -0.4594
 1626SOL    HW2 6270   2.822   2.778   5.498 -0.0798  0.7403  0.1438
 1626SOL    HW3 6271   2.919   2.885   5.544 -0.1025  0.8764 -0.1232
 1626SOL    MW4 6272   2.843   2.862   5.509  0.0225  0.7810 -0.3355
 1627SOL     OW 6273   0.544   4.080   1.611  0.4131 -0.4118 -0.2180
 1627SOL    HW2 6274   0.480   4.141   1.576  0.9463  0.9067  0.9855
 1627SOL    HW3 6275   0.491   4.011   1.652 -0.2290  0.0013 -0.3368
 1627SOL    MW4 6276   0.528   4.079   1.612  0.3987 -0.1834 -0.0749
 1628SOL     OW 6277   4.478   5.660   2.423 -0.7554 -0.0698  0.0057
 1628SOL    HW2 6278   4.426   5.626   2.350 -1.9174 -0.6354  1.0574
 1628SOL    HW3 6279   4.554   5.602   2.426 -0.9406 -0.3458 -0.4607
 1628SOL    MW4 6280   4.481   5.648   2.414 -0.9332 -0.1808  0.0829
 1629SOL     OW 6281   4.002   0.085   3.494 -0.7054  0.7725 -0.3731
 1629SOL    HW2 6282   3.989   0.002   3.540  1.8494 -0.5746 -1.7990
 1629SOL    HW3 6283   3.977   0.153   3.556 -1.4012 -1.0331  1.4052
 1629SOL    MW4 6284   3.997   0.083   3.508 -0.4601  0.3566 -0.3266
 1630SOL     OW 6285   4.821   5.984   4.817 -0.2410 -0.4044  0.1299
 1630SOL    HW2 6286   4.912   5.966   4.840  0.4197  0.9880 -1.2248
 1630SOL    HW3 6287   4.826   6.024   4.730 -1.8532  2.7152  1.3193
 1630SOL    MW4 6288   4.834   5.987   4.808 -0.3665  0.1909  0.1081
 1631SOL     OW 6289   5.669   4.613   0.670  0.4650  0.2081  0.2947
 1631SOL    HW2 6290   5.731   4.606   0.743  0.3217  2.6630  0.7338
 1631SOL    HW3 6291   5.583   4.615   0.712  0.4236  2.6408  0.2383
 1631SOL    MW4 6292   5.666   4.612   0.685  0.4406  0.8529  0.3452
 1632SOL     OW 6293   6.008   3.813   3.649  0.1536  0.1054  0.0694
 1632SOL    HW2 6294   5.987   3.725   3.680  0.0513  0.5376  1.2689
 1632SOL    HW3 6295   5.969   3.818   3.562 -0.2151 -0.8800  0.1722
 1632SOL    MW4 6296   6.000   3.802   3.642  0.0914  0.0324  0.2413
 1633SOL     OW 6297   1.501   6.106   3.372 -0.0937  0.0691  0.1098
 1633SOL    HW2 6298   1.504   6.014   3.397 -0.6500 -0.2260 -0.8405
 1633SOL    HW3 6299   1.456   6.150   3.444  2.4578  0.0887  1.8356
 1633SOL    MW4 6300   1.496   6.100   3.385  0.1695  0.0328  0.2121
 1634SOL     OW 6301   1.968   5.331   3.698  0.0509  0.1298  0.1740
 1634SOL    HW2 6302   1.999   5.333   3.789  1.9934 -0.1670 -0.4278
 1634SOL    HW3 6303   2.047   5.340   3.646 -0.7503 -1.8398 -1.5147
 1634SOL    MW4 6304   1.983   5.332   3.703  0.2015 -0.1692 -0.1282
 1635SOL     OW 6305   5.358   1.971   1.539  0.0946 -0.1808  0.3751
 1635SOL    HW2 6306   5.263   1.980   1.553  0.3062  1.0581  1.1577
 1635SOL    HW3 6307   5.377   1.880   1.562 -0.7885 -0.2369  0.9485
 1635SOL    MW4 6308   5.348   1.960   1.544  0.0060 -0.0247  0.5540
 1636SOL     OW 6309   6.304   3.263   3.243 -0.0045  0.0172 -0.7221
 1636SOL    HW2 6310   6.302   3.169   3.226 -1.2921 -0.0788 -0.1104
 1636SOL    HW3 6311   6.395   3.288   3.225  1.1605 -1.8639  1.9037
 1636SOL    MW4 6312   6.316   3.254   3.239 -0.0207 -0.2437 -0.2949
 1637SOL     OW 6313   3.858   0.762   6.234 -0.2176  0.8166  0.5488
 1637SOL    HW2 6314   3.797   0.833   6.255  0.3518  0.9114  2.0196
 1637SOL    HW3 6315   3.859   0.708   6.314 -0.8865 -1.0415 -0.6423
 1637SOL    MW4 6316   3.850   0.764   6.248 -0.2308  0.5840  0.5857
 1638SOL     OW 6317   2.365   3.028   6.014  0.1092 -0.1016  0.0011
 1638SOL    HW2 6318   2.399   2.939   6.003  0.0644 -0.0609 -0.4772
 1638SOL    HW3 6319   2.341   3.056   5.926  1.4249  0.9144 -0.0658
 1638SOL    MW4 6320   2.366   3.020   6.001  0.2769  0.0378 -0.0708
 1639SOL     OW 6321   0.269   2.608   6.306 -0.0520  0.0751 -0.3339
 1639SOL    HW2 6322   0.273   2.701   6.328  0.4174  0.0851 -0.4390
 1639SOL    HW3 6323   0.357   2.575   6.325 -0.6734 -0.7325  1.3672
 1639SOL    MW4 6324   0.281   2.616   6.311 -0.0721 -0.0302 -0.1233
 1640SOL     OW 6325   5.873   6.356   2.683  0.3442  0.1493 -0.3242
 1640SOL    HW2 6326   5.801   6.400   2.729 -1.2716 -1.9050 -0.7135
 1640SOL    HW3 6327   5.935   6.335   2.753 -0.1660  0.5905  0.2845
 1640SOL    MW4 6328   5.872   6.359   2.699  0.0637 -0.0635 -0.2953
 1641SOL     OW 6329   3.656   4.693   1.755  0.2517  0.8891 -0.2587
 1641SOL    HW2 6330   3.716   4.763   1.730  1.1738  1.6072  3.3972
 1641SOL    HW3 6331   3.712   4.617   1.771  0.3479  1.4584  2.8080
 1641SOL    MW4 6332   3.671   4.692   1.754  0.3861  1.0590  0.6283
 1642SOL     OW 6333   3.493   1.048   4.367  0.6446 -0.1388  0.0447
 1642SOL    HW2 6334   3.436   1.031   4.292  0.1909 -1.8373  0.7298
 1642SOL    HW3 6335   3.581   1.046   4.330  0.3814 -0.0622 -0.5979
 1642SOL    MW4 6336   3.497   1.046   4.352  0.5500 -0.3528  0.0503
 1643SOL     OW 6337   2.037   3.991   1.197 -0.1361 -0.3074 -0.0937
 1643SOL    HW2 6338   2.005   3.901   1.205  0.1810 -0.3085  1.5520
 1643SOL    HW3 6339   2.114   3.984   1.140 -1.4151 -0.7002 -1.8608
 1643SOL    MW4 6340   2.043   3.978   1.190 -0.2630 -0.3594 -0.1097
 1644SOL     OW 6341   3.708   5.504   0.517  0.4025  0.5441 -0.2116
 1644SOL    HW2 6342   3.753   5.421   0.529  0.8272  0.6946 -0.7089
 1644SOL    HW3 6343   3.768   5.569   0.554  0.4442  0.7138 -0.5771
 1644SOL    MW4 6344   3.722   5.502   0.524  0.4640  0.5864 -0.3254
 1645SOL     OW 6345   4.987   5.255   1.570 -0.1502  0.0156 -0.1826
 1645SOL    HW2 6346   4.994   5.333   1.625  0.9543  0.1291 -0.4495
 1645SOL    HW3 6347   4.895   5.230   1.574  0.0643 -0.6377  2.6381
 1645SOL    MW4 6348   4.976   5.262   1.578  0.0238 -0.0556  0.1543
 1646SOL     OW 6349   3.930   5.321   5.364  0.3720  0.1828 -0.1450
 1646SOL    HW2 6350   3.868   5.292   5.297  0.4757  0.7265 -0.4773
 1646SOL    HW3 6351   3.946   5.413   5.344  0.7783  0.2195  0.3382
 1646SOL    MW4 6352   3.924   5.329   5.353  0.4392  0.2594 -0.1251
 1647SOL     OW 6353   2.920   4.514   4.503 -0.6021  0.2106 -0.2341
 1647SOL    HW2 6354   2.927   4.447   4.571  2.2543  0.1522 -0.4352
 1647SOL    HW3 6355   3.005   4.511   4.458 -1.7170  1.4667 -2.6613
 1647SOL    MW4 6356   2.932   4.505   4.506 -0.3723  0.3687 -0.5809
 1648SOL     OW 6357   5.383   1.334   1.709 -0.1954 -0.2937 -0.0569
 1648SOL    HW2 6358   5.426   1.368   1.788 -2.5969 -0.7652  1.5356
 1648SOL    HW3 6359   5.355   1.246   1.732 -2.3505  0.1217 -0.8224
 1648SOL    MW4 6360   5.385   1.327   1.722 -0.7966 -0.3011  0.0522
 1649SOL     OW 6361   1.372   6.238   4.532 -0.5260  0.0143 -0.2903
 1649SOL    HW2 6362   1.403   6.252   4.443 -1.3024  0.0843 -0.5628
 1649SOL    HW3 6363   1.419   6.161   4.563 -3.1196 -2.5993 -2.2598
 1649SOL    MW4 6364   1.382   6.230   4.525 -0.9707 -0.3213 -0.5861
 1650SOL     OW 6365   3.186   5.399   3.674 -0.1168 -0.2948 -0.3412
 1650SOL    HW2 6366   3.167   5.492   3.661 -0.4810 -0.7721 -4.0943
 1650SOL    HW3 6367   3.135   5.376   3.752  0.3195  2.6610  0.9880
 1650SOL    MW4 6368   3.176   5.408   3.683 -0.1073  0.0322 -0.6610
 1651SOL     OW 6369   3.599   6.010   1.807 -0.1374  0.1248  0.2951
 1651SOL    HW2 6370   3.682   6.055   1.822 -0.2100  0.0289  1.0193
 1651SOL    HW3 6371   3.548   6.071   1.754  0.5108  0.0446 -0.4469
 1651SOL    MW4 6372   3.603   6.024   1.802 -0.0615  0.1016  0.2927
 1652SOL     OW 6373   5.964   0.889   3.398 -0.2098 -0.2806  0.1318
 1652SOL    HW2 6374   5.995   0.817   3.453 -1.5895 -0.3920  0.8244
 1652SOL    HW3 6375   5.908   0.846   3.332 -2.5789  0.2333  1.6766
 1652SOL    MW4 6376   5.961   0.874   3.397 -0.7044 -0.2275  0.4270
 1653SOL     OW 6377   3.537   5.302   3.749 -0.6505 -0.5487  0.9005
 1653SOL    HW2 6378   3.504   5.264   3.667 -2.2216 -1.8822  2.0794
 1653SOL    HW3 6379   3.530   5.231   3.813 -0.8283  0.8586  2.5198
 1653SOL    MW4 6380   3.531   5.288   3.747 -0.8813 -0.5390  1.2697
 1654SOL     OW 6381   2.677   4.763   1.320 -0.5177 -0.2242 -0.4316
 1654SOL    HW2 6382   2.666   4.796   1.230 -0.9608 -0.3906 -0.4416
 1654SOL    HW3 6383   2.687   4.842   1.373  0.9052 -0.1531 -0.7661
 1654SOL    MW4 6384   2.677   4.778   1.315 -0.3884 -0.2368 -0.4770
 1655SOL     OW 6385   0.473   1.179   3.051  0.4491  0.3874  0.2499
 1655SOL    HW2 6386   0.560   1.144   3.033 -0.0537 -0.8188  0.1193
 1655SOL    HW3 6387   0.490   1.266   3.089  1.7545 -0.3609  1.4839
 1655SOL    MW4 6388   0.487   1.186   3.054  0.5550  0.1295  0.3955
 1656SOL     OW 6389   6.407   2.334   1.027  0.0845 -0.3563  0.4916
 1656SOL    HW2 6390   6.441   2.344   0.938  0.5854  1.4761  0.8458
 1656SOL    HW3 6391   6.412   2.422   1.065 -0.1104 -1.0897  2.3427
 1656SOL    MW4 6392   6.412   2.347   1.020  0.1249 -0.2113  0.7825
 1657SOL     OW 6393   2.454   4.012   4.341 -0.1324  0.5670 -0.0562
 1657SOL    HW2 6394   2.430   4.054   4.259 -0.4319 -1.6864 -1.1993
 1657SOL    HW3 6395   2.378   4.024   4.398 -0.9412  0.0207 -0.9971
 1657SOL    MW4 6396   2.441   4.019   4.338 -0.2787  0.1976 -0.3312
 1658SOL     OW 6397   5.577   4.014   2.776 -0.4511  0.7009  0.0250
 1658SOL    HW2 6398   5.550   4.089   2.723  1.8168  0.5654 -1.4435
 1658SOL    HW3 6399   5.614   3.952   2.714  2.3100  0.5114  1.6643
 1658SOL    MW4 6400   5.578   4.016   2.761  0.2124  0.6580  0.0475
 1659SOL     OW 6401   0.126   4.530   2.909  0.5486  0.0733  0.3863
 1659SOL    HW2 6402   0.043   4.490   2.935  1.1455 -0.5764  1.3388
 1659SOL    HW3 6403   0.129   4.613   2.957  0.6795 -0.1379  0.7437
 1659SOL    MW4 6404   0.115   4.536   2.919  0.6447 -0.0403  0.5592
 1660SOL     OW 6405   2.950   6.111   2.205 -0.6880 -0.5373 -0.0041
 1660SOL    HW2 6406   3.027   6.129   2.152 -0.9664 -0.8676 -0.5329
 1660SOL    HW3 6407   2.908   6.196   2.217 -0.6282 -0.4581 -0.3336
 1660SOL    MW4 6408   2.955   6.125   2.199 -0.7168 -0.5704 -0.1173
 1661SOL     OW 6409   1.494   2.601   2.245 -0.1006  0.2318 -0.0458
 1661SOL    HW2 6410   1.411   2.643   2.225 -0.5622 -0.6976 -0.1348
 1661SOL    HW3 6411   1.532   2.581   2.159  1.6507  3.2956 -0.1157
 1661SOL    MW4 6412   1.488   2.604   2.231  0.0696  0.5134 -0.0667
 1662SOL     OW 6413   3.936   2.728   5.873 -0.1757 -0.0878  0.1487
 1662SOL    HW2 6414   3.978   2.726   5.959 -1.6025 -2.0301  0.8980
 1662SOL    HW3 6415   4.000   2.689   5.813  0.3165  0.0086  0.6071
 1662SOL    MW4 6416   3.950   2.723   5.877 -0.2990 -0.3313  0.3080
 1663SOL     OW 6417   2.928   1.593   5.382  0.0080 -0.1185 -0.4600
 1663SOL    HW2 6418   3.002   1.647   5.352 -0.5449  0.8035 -0.2226
 1663SOL    HW3 6419   2.852   1.634   5.342 -0.3616 -1.2248 -0.9256
 1663SOL    MW4 6420   2.928   1.606   5.373 -0.1137 -0.1428 -0.4901
 1664SOL     OW 6421   3.606   0.073   5.148 -0.1626  0.3086 -0.5207
 1664SOL    HW2 6422   3.623   0.107   5.236 -0.6784 -0.1269 -0.2452
 1664SOL    HW3 6423   3.530   0.016   5.159  0.5165 -0.7244 -1.0258
 1664SOL    MW4 6424   3.598   0.070   5.161 -0.1410  0.1148 -0.5510
 1665SOL     OW 6425   5.895   4.816   2.920  0.3241 -0.6420 -0.1476
 1665SOL    HW2 6426   5.937   4.902   2.924  1.7819 -1.2839 -0.7228
 1665SOL    HW3 6427   5.911   4.777   3.006  0.7057 -0.7895 -0.2836
 1665SOL    MW4 6428   5.903   4.822   2.932  0.5668 -0.7462 -0.2415
 1666SOL     OW 6429   5.350   3.790   4.671  0.7085 -0.1828  0.2589
 1666SOL    HW2 6430   5.288   3.811   4.601  1.7030  0.8360 -0.3467
 1666SOL    HW3 6431   5.300   3.734   4.731 -1.2563  1.6820  0.5121
 1666SOL    MW4 6432   5.335   3.786   4.670  0.5805  0.1976  0.2124
 1667SOL     OW 6433   2.124   0.491   4.513 -0.1338 -0.0227 -0.5655
 1667SOL    HW2 6434   2.030   0.473   4.510  0.0179 -0.7233 -1.2220
 1667SOL    HW3 6435   2.150   0.468   4.602 -0.5906  0.2578 -0.3526
 1667SOL    MW4 6436   2.115   0.486   4.525 -0.1740 -0.0782 -0.6240
 1668SOL     OW 6437   5.287   6.287   2.768 -0.2521 -0.4532 -0.0485
 1668SOL    HW2 6438   5.375   6.249   2.759 -0.7899 -2.2300  1.4933
 1668SOL    HW3 6439   5.254   6.292   2.678  1.2883 -0.0813 -0.6176
 1668SOL    MW4 6440   5.294   6.283   2.755 -0.1198 -0.6385  0.0798
 1669SOL     OW 6441   4.053   2.411   5.811 -0.2238  0.1925 -0.7319
 1669SOL    HW2 6442   4.081   2.455   5.731  0.5061  1.4759  0.1977
 1669SOL    HW3 6443   4.118   2.435   5.876 -0.4670 -1.3279  0.1216
 1669SOL    MW4 6444   4.065   2.420   5.809 -0.1596  0.1612 -0.4966
 1670SOL     OW 6445   3.547   1.192   0.220  0.6120  0.8825  0.0123
 1670SOL    HW2 6446   3.637   1.159   0.218  0.0951 -0.6404  0.3060
 1670SOL    HW3 6447   3.556   1.287   0.216  2.2313  0.7599  0.0778
 1670SOL    MW4 6448   3.560   1.200   0.219  0.7575  0.6654  0.0597
 1671SOL     OW 6449   4.634   0.306   3.253 -0.6815 -0.1689 -0.2657
 1671SOL    HW2 6450   4.686   0.279   3.328 -0.4446  0.0061 -0.3658
 1671SOL    HW3 6451   4.554   0.252   3.258 -2.0934  1.9478  1.8401
 1671SOL    MW4 6452   4.630   0.295   3.263 -0.8366  0.1335 -0.0011
 1672SOL     OW 6453   5.511   1.121   2.400 -0.4033 -0.3599 -0.1868
 1672SOL    HW2 6454   5.592   1.163   2.372 -0.2945  0.7250  1.6399
 1672SOL    HW3 6455   5.461   1.109   2.318  0.8797  0.4574 -1.1249
 1672SOL    MW4 6456   5.515   1.125   2.385 -0.2196 -0.1089 -0.0696
 1673SOL     OW 6457   3.942   2.258   6.230 -0.0701 -0.2890 -0.1811
 1673SOL    HW2 6458   3.905   2.195   6.168  0.5977 -0.1559 -0.7304
 1673SOL    HW3 6459   3.945   2.340   6.181  2.7754 -0.7126 -0.8853
 1673SOL    MW4 6460   3.938   2.261   6.215  0.3934 -0.3273 -0.3465
 1674SOL     OW 6461   4.826   3.452   2.816  0.4070 -0.4793 -0.2734
 1674SOL    HW2 6462   4.864   3.422   2.733  1.0069  0.0375 -0.1921
 1674SOL    HW3 6463   4.741   3.488   2.791  1.1759  0.9884 -0.8926
 1674SOL    MW4 6464   4.820   3.452   2.802  0.5876 -0.2175 -0.3444
 1675SOL     OW 6465   0.527   0.956   6.340 -0.3786 -0.2774 -0.2678
 1675SOL    HW2 6466   0.539   0.998   6.425 -0.5265 -0.4745 -0.1503
 1675SOL    HW3 6467   0.448   0.997   6.304 -0.5258 -0.4586 -0.1511
 1675SOL    MW4 6468   0.518   0.967   6.346 -0.4175 -0.3273 -0.2369
 1676SOL     OW 6469   3.742   0.188   2.369 -0.2948 -0.0034 -0.8436
 1676SOL    HW2 6470   3.826   0.145   2.383 -0.4756  0.0329  0.5082
 1676SOL    HW3 6471   3.683   0.119   2.340 -0.1250 -0.3049 -0.4749
 1676SOL    MW4 6472   3.745   0.173   2.367 -0.2963 -0.0384 -0.6166
 1677SOL     OW 6473   1.722   3.113   4.694  0.2065  0.1761  0.0950
 1677SOL    HW2 6474   1.774   3.095   4.615  0.9127  0.5801  0.4596
 1677SOL    HW3 6475   1.776   3.174   4.744 -0.5071  0.3822  0.6134
 1677SOL    MW4 6476   1.736   3.119   4.690  0.2055  0.2566  0.2115
 1678SOL     OW 6477   1.007   1.394   5.792 -0.2763  0.0348 -0.0382
 1678SOL    HW2 6478   0.968   1.474   5.829  0.2006 -0.3278  1.3107
 1678SOL    HW3 6479   1.101   1.414   5.787 -0.4025  0.3057 -1.7030
 1678SOL    MW4 6480   1.015   1.407   5.796 -0.2301  0.0227 -0.0798
 1679SOL     OW 6481   4.655   4.513   1.300 -0.0973  0.0031  0.2174
 1679SOL    HW2 6482   4.603   4.580   1.343  1.5653  1.6010 -0.1033
 1679SOL    HW3 6483   4.746   4.542   1.312  0.8205 -2.9793  1.3316
 1679SOL    MW4 6484   4.660   4.525   1.307  0.2431 -0.1796  0.3221
 1680SOL     OW 6485   1.454   3.772   3.755 -0.5019  0.8376 -0.1059
 1680SOL    HW2 6486   1.514   3.783   3.682 -0.7759 -0.0151 -0.4830
 1680SOL    HW3 6487   1.507   3.787   3.833 -0.3107  2.2036 -0.4732
 1680SOL    MW4 6488   1.469   3.775   3.756 -0.5128  0.9053 -0.2041
 1681SOL     OW 6489   4.790   6.261   3.810  0.3038  0.0563  0.5089
 1681SOL    HW2 6490   4.879   6.297   3.804  0.2345  0.1203 -0.2496
 1681SOL    HW3 6491   4.772   6.258   3.904  0.6164  1.2709  0.6347
 1681SOL    MW4 6492   4.799   6.266   3.821  0.3359  0.2250  0.4255
 1682SOL     OW 6493   4.586   0.632   0.348  0.0079 -0.3579 -0.4134
 1682SOL    HW2 6494   4.659   0.693   0.351  0.8711 -1.3944  0.7056
 1682SOL    HW3 6495   4.558   0.623   0.438 -0.0882 -1.5927 -0.5474
 1682SOL    MW4 6496   4.592   0.639   0.360  0.1091 -0.6576 -0.2834
 1683SOL     OW 6497   3.315   3.953   4.315  0.0024  0.8528  0.5369
 1683SOL    HW2 6498   3.352   3.869   4.287 -2.0078  0.3343 -0.7779
 1683SOL    HW3 6499   3.365   4.019   4.267 -0.7285  0.1731 -1.2464
 1683SOL    MW4 6500   3.327   3.951   4.305 -0.3593  0.6947  0.1281
 1684SOL     OW 6501   5.545   4.991   6.092  0.1542  0.2793  0.0935
 1684SOL    HW2 6502   5.509   5.056   6.031 -0.1407 -0.6153 -0.6975
 1684SOL    HW3 6503   5.482   4.919   6.091  0.0451  0.3022  1.6002
 1684SOL    MW4 6504   5.532   4.990   6.084  0.1009  0.1643  0.1879
 1685SOL     OW 6505   0.590   0.113   5.401  0.1078 -0.0574  0.6453
 1685SOL    HW2 6506   0.654   0.083   5.337 -0.5971 -0.1660 -0.0263
 1685SOL    HW3 6507   0.558   0.196   5.365 -1.0966 -0.6582  0.2706
 1685SOL    MW4 6508   0.594   0.120   5.388 -0.1441 -0.1510  0.5072
 1686SOL     OW 6509   3.395   5.662   0.830 -0.4759 -0.3730 -0.2775
 1686SOL    HW2 6510   3.318   5.625   0.873 -0.1469 -1.2140 -0.3950
 1686SOL    HW3 6511   3.409   5.747   0.872 -2.4777  0.5805 -1.3889
 1686SOL    MW4 6512   3.387   5.668   0.841 -0.6966 -0.3582 -0.4397
 1687SOL     OW 6513   1.825   5.602   5.436 -0.1455  0.2767 -0.2701
 1687SOL    HW2 6514   1.915   5.630   5.449  0.2970 -1.4461  0.6352
 1687SOL    HW3 6515   1.806   5.624   5.344  1.3045  0.3458 -0.5650
 1687SOL    MW4 6516   1.834   5.608   5.425  0.1042  0.0585 -0.1896
 1688SOL     OW 6517   3.000   2.960   4.781 -0.3376  0.5664 -0.1376
 1688SOL    HW2 6518   2.992   2.960   4.685  1.0295 -0.9773 -0.3071
 1688SOL    HW3 6519   3.070   3.023   4.798 -1.7990  2.2059  0.0354
 1688SOL    MW4 6520   3.008   2.968   4.770 -0.3501  0.5790 -0.1371
 1689SOL     OW 6521   5.094   4.375   1.678  0.0464  0.5887  0.4478
 1689SOL    HW2 6522   5.042   4.373   1.759 -2.4365  1.1991 -1.0012
 1689SOL    HW3 6523   5.096   4.284   1.649  2.1586  0.1258  1.8149
 1689SOL    MW4 6524   5.087   4.362   1.685 -0.0025  0.6081  0.4370
 1690SOL     OW 6525   3.691   1.265   0.605  0.2474 -0.1044 -0.1053
 1690SOL    HW2 6526   3.740   1.309   0.536 -0.3588  0.1386 -0.3884
 1690SOL    HW3 6527   3.709   1.318   0.683 -0.3536  0.5724 -0.4127
 1690SOL    MW4 6528   3.700   1.278   0.606  0.0881  0.0170 -0.1832
 1691SOL     OW 6529   1.182   4.809   3.680 -0.2448 -0.3534 -0.3069
 1691SOL    HW2 6530   1.129   4.867   3.735 -0.1960 -0.9669  0.4063
 1691SOL    HW3 6531   1.118   4.751   3.638 -0.2398 -0.2187 -0.5046
 1691SOL    MW4 6532   1.166   4.809   3.682 -0.2377 -0.4166 -0.2389
 1692SOL     OW 6533   2.686   2.283   4.463 -0.1009 -0.1173 -0.4543
 1692SOL    HW2 6534   2.704   2.188   4.461 -2.5070 -0.6336 -0.2272
 1692SOL    HW3 6535   2.649   2.301   4.377 -0.0098  0.5622 -0.3512
 1692SOL    MW4 6536   2.684   2.273   4.451 -0.4063 -0.0958 -0.4108
 1693SOL     OW 6537   2.174   4.932   0.011  0.5631  0.1668 -0.4248
 1693SOL    HW2 6538   2.257   4.942   0.058  0.4916 -2.1978  0.3029
 1693SOL    HW3 6539   2.200   4.909  -0.079  0.6707  1.3357 -0.7117
 1693SOL    MW4 6540   2.189   4.930   0.005  0.5678  0.0091 -0.3667
 1694SOL     OW 6541   5.220   6.239   5.147  0.0026 -0.2750  0.2368
 1694SOL    HW2 6542   5.275   6.167   5.177 -0.1590 -0.2026  0.7083
 1694SOL    HW3 6543   5.131   6.202   5.146  0.2000 -0.8365 -1.8769
 1694SOL    MW4 6544   5.215   6.225   5.150  0.0074 -0.3396  0.0202
 1695SOL     OW 6545   1.916   0.549   5.978 -0.1551  0.3252 -0.1515
 1695SOL    HW2 6546   1.893   0.543   5.885  0.7164 -3.0904 -0.2526
 1695SOL    HW3 6547   2.001   0.594   5.979  0.6766 -1.1637 -1.2022
 1695SOL    MW4 6548   1.924   0.554   5.966  0.0696 -0.3219 -0.3035
 1696SOL     OW 6549   3.763   1.520   1.688 -0.2990  0.0292  0.1747
 1696SOL    HW2 6550   3.718   1.488   1.766 -0.5255  0.5641  0.2753
 1696SOL    HW3 6551   3.692   1.552   1.632 -0.1612 -0.6375 -0.3864
 1696SOL    MW4 6552   3.747   1.520   1.691 -0.3107  0.0118  0.1140
 1697SOL     OW 6553   0.117   1.751   3.386 -0.0228  0.3080  0.1810
 1697SOL    HW2 6554   0.180   1.752   3.458 -1.5848  2.1322  1.6584
 1697SOL    HW3 6555   0.155   1.809   3.320 -0.1711  1.5279  1.1286
 1697SOL    MW4 6556   0.130   1.759   3.387 -0.2484  0.7096  0.5009
 1698SOL     OW 6557   4.936   6.350   1.706 -1.2880  0.5906 -0.5428
 1698SOL    HW2 6558   4.903   6.261   1.715 -0.5292  0.1366 -1.9699
 1698SOL    HW3 6559   5.026   6.346   1.737 -0.5775  0.3475 -2.4863
 1698SOL    MW4 6560   4.943   6.338   1.711 -1.0942  0.4986 -0.9875
 1699SOL     OW 6561   4.061   4.128   5.450  0.2602 -0.2745 -0.1722
 1699SOL    HW2 6562   3.977   4.083   5.443  0.6445 -1.0200 -0.1176
 1699SOL    HW3 6563   4.071   4.146   5.543  1.0872 -2.0471  0.1232
 1699SOL    MW4 6564   4.051   4.124   5.461  0.4200 -0.6067 -0.1260
 1700SOL     OW 6565   1.251   1.265   2.244 -0.7437 -0.2164 -0.3402
 1700SOL    HW2 6566   1.312   1.293   2.313 -1.4301  3.3487 -0.9944
 1700SOL    HW3 6567   1.204   1.191   2.283  1.5671 -0.8708  1.4684
 1700SOL    MW4 6568   1.253   1.259   2.258 -0.5294  0.1676 -0.1879
 1701SOL     OW 6569   2.760   5.889   5.677 -0.3146  0.1147 -0.2077
 1701SOL    HW2 6570   2.688   5.934   5.632 -0.6391  0.6508  0.8257
 1701SOL    HW3 6571   2.809   5.848   5.606  0.0634  2.1755 -1.2256
 1701SOL    MW4 6572   2.757   5.890   5.662 -0.3075  0.4574 -0.2057
 1702SOL     OW 6573   3.971   2.722   6.140 -0.4333 -0.1607 -0.1501
 1702SOL    HW2 6574   3.910   2.648   6.138 -0.1733 -0.4029 -2.8138
 1702SOL    HW3 6575   4.002   2.725   6.231 -2.8249 -1.2935  0.8090
 1702SOL    MW4 6576   3.967   2.713   6.152 -0.7145 -0.3421 -0.3750
 1703SOL     OW 6577   4.567   4.839   6.415  0.6890  0.1358  0.6428
 1703SOL    HW2 6578   4.543   4.786   6.340 -0.8819  2.5904 -0.7303
 1703SOL    HW3 6579   4.653   4.875   6.393 -0.3281  1.9152 -0.7330
 1703SOL    MW4 6580   4.576   4.837   6.402  0.3475  0.6944  0.2801
 1704SOL     OW 6581   3.841   1.533   5.557 -0.6838  0.3310  0.0963
 1704SOL    HW2 6582   3.843   1.486   5.474  0.7939  1.5379 -0.6031
 1704SOL    HW3 6583   3.754   1.516   5.593 -0.9608 -1.0935 -1.1636
 1704SOL    MW4 6584   3.830   1.525   5.551 -0.5254  0.3023 -0.1622
 1705SOL     OW 6585   4.996   4.735   6.084  0.1663 -0.2860  0.7404
 1705SOL    HW2 6586   4.906   4.754   6.056  0.3060 -1.4433 -0.6951
 1705SOL    HW3 6587   4.986   4.665   6.149 -0.0655  1.2204  2.3976
 1705SOL    MW4 6588   4.982   4.728   6.089  0.1542 -0.2400  0.7697
 1706SOL     OW 6589   2.220   4.335   6.247 -0.1654  0.0282  0.3972
 1706SOL    HW2 6590   2.247   4.282   6.172  0.0956 -0.7829  1.0517
 1706SOL    HW3 6591   2.136   4.298   6.274  0.3215 -0.4831  1.2568
 1706SOL    MW4 6592   2.212   4.323   6.241 -0.0667 -0.1463  0.5970
 1707SOL     OW 6593   2.739   1.946   2.362 -0.1988  0.8939 -0.4225
 1707SOL    HW2 6594   2.690   1.932   2.443 -2.7886 -2.4602 -2.3317
 1707SOL    HW3 6595   2.735   2.041   2.348 -2.4892  1.2187  1.7324
 1707SOL    MW4 6596   2.732   1.957   2.371 -0.8427  0.4942 -0.3901
 1708SOL     OW 6597   2.077   4.241   0.931  0.3339  0.7019  0.0801
 1708SOL    HW2 6598   2.014   4.302   0.891  0.5354 -0.3422 -1.9818
 1708SOL    HW3 6599   2.162   4.271   0.899  0.5019 -0.1622 -0.3119
 1708SOL    MW4 6600   2.079   4.253   0.921  0.3826  0.4501 -0.2436
 1709SOL     OW 6601   1.657   4.601   5.566 -0.0948 -0.0527 -0.3252
 1709SOL    HW2 6602   1.715   4.524   5.564  1.3875  1.0050  0.0661
 1709SOL    HW3 6603   1.716   4.675   5.555 -1.4918  1.0538 -0.6297
 1709SOL    MW4 6604   1.673   4.600   5.564 -0.0835  0.2328 -0.3137
 1710SOL     OW 6605   2.927   2.794   3.137  0.5005  0.4583 -0.1474
 1710SOL    HW2 6606   2.976   2.876   3.145  0.3881  0.4766  0.4167
 1710SOL    HW3 6607   2.836   2.822   3.124  0.4988  0.4218 -0.2144
 1710SOL    MW4 6608   2.921   2.809   3.136  0.4854  0.4559 -0.0818
 1711SOL     OW 6609   1.453   4.032   0.439 -0.8543  0.2049 -0.5770
 1711SOL    HW2 6610   1.525   4.009   0.380  1.0343  1.2712  1.1791
 1711SOL    HW3 6611   1.414   3.947   0.462  1.4160 -0.6837  0.2925
 1711SOL    MW4 6612   1.458   4.017   0.434 -0.3056  0.2283 -0.2305
 1712SOL     OW 6613   0.100   0.285   5.639  0.3496  0.0702  0.3003
 1712SOL    HW2 6614   0.111   0.231   5.717 -0.2956 -0.3710  0.0897
 1712SOL    HW3 6615   0.187   0.322   5.624  0.9279 -1.2877  0.1772
 1712SOL    MW4 6616   0.113   0.282   5.647  0.3407 -0.1672  0.2563
 1713SOL     OW 6617   4.019   5.121   4.984 -0.9438  0.1282 -0.1042
 1713SOL    HW2 6618   3.958   5.079   4.924  0.4902  1.4054 -2.6523
 1713SOL    HW3 6619   3.981   5.207   5.002 -0.1986  0.7126 -1.2506
 1713SOL    MW4 6620   4.006   5.127   4.979 -0.6562  0.3738 -0.5916
 1714SOL     OW 6621   5.898   4.051   4.210 -0.5539 -0.7162  0.2559
 1714SOL    HW2 6622   5.859   4.008   4.133 -0.8126 -1.6965  0.9111
 1714SOL    HW3 6623   5.991   4.056   4.190 -0.8987  1.1420 -1.0908
 1714SOL    MW4 6624   5.905   4.046   4.197 -0.6335 -0.6004  0.1647
 1715SOL     OW 6625   5.030   6.321   1.120  0.5228  0.1911  0.1747
 1715SOL    HW2 6626   4.995   6.410   1.110  2.2926  0.6364 -3.8773
 1715SOL    HW3 6627   4.977   6.268   1.061  1.0222 -0.9812  0.7494
 1715SOL    MW4 6628   5.018   6.326   1.111  0.8222  0.0952 -0.2841
 1716SOL     OW 6629   4.672   6.283   4.716 -0.0862 -0.5474 -0.0964
 1716SOL    HW2 6630   4.728   6.357   4.693 -0.8690 -0.5627 -2.2158
 1716SOL    HW3 6631   4.711   6.208   4.671  0.2392 -1.3153  1.3890
 1716SOL    MW4 6632   4.684   6.283   4.707 -0.1465 -0.6508 -0.1800
 1717SOL     OW 6633   3.935   4.848   2.460  0.0222  0.1726 -0.1390
 1717SOL    HW2 6634   3.977   4.857   2.374  0.5436  1.3039  0.2255
 1717SOL    HW3 6635   3.845   4.824   2.439  0.1335  0.4625 -1.0151
 1717SOL    MW4 6636   3.929   4.846   2.446  0.1057  0.3601 -0.2065
 1718SOL     OW 6637   4.445   1.797   2.577  1.1231 -0.1158  0.1113
 1718SOL    HW2 6638   4.474   1.884   2.551 -1.4269  0.4277 -1.1642
 1718SOL    HW3 6639   4.455   1.795   2.672  1.0727  1.6314  0.1739
 1718SOL    MW4 6640   4.450   1.808   2.586  0.7800  0.1864 -0.0487
 1719SOL     OW 6641   1.577   1.667   5.762  0.1172  0.2277  0.0608
 1719SOL    HW2 6642   1.528   1.647   5.842 -1.4246 -0.8484 -1.0991
 1719SOL    HW3 6643   1.551   1.756   5.740  0.5910  0.5498  0.7662
 1719SOL    MW4 6644   1.567   1.676   5.769 -0.0237  0.1282  0.0008
 1720SOL     OW 6645   3.227   4.456   2.086 -0.4071  0.0556 -0.2931
 1720SOL    HW2 6646   3.236   4.370   2.127 -2.1834  0.5492  1.2767
 1720SOL    HW3 6647   3.134   4.476   2.093 -0.1344  1.8266 -1.2285
 1720SOL    MW4 6648   3.216   4.447   2.093 -0.6055  0.3544 -0.2094
 1721SOL     OW 6649   4.321   1.610   6.120 -0.1353 -0.0755  0.3186
 1721SOL    HW2 6650   4.405   1.656   6.118  0.3858 -0.9353  1.4087
 1721SOL    HW3 6651   4.338   1.530   6.169 -1.3562 -0.7758 -0.3408
 1721SOL    MW4 6652   4.334   1.605   6.126 -0.2276 -0.2814  0.3754
 1722SOL     OW 6653   4.239   1.989   1.724  0.0227 -0.0195  0.2681
 1722SOL    HW2 6654   4.256   1.917   1.785 -0.1071  0.4622  0.8871
 1722SOL    HW3 6655   4.278   2.065   1.767  2.2636 -0.1075 -1.4387
 1722SOL    MW4 6656   4.247   1.990   1.738  0.3013  0.0324  0.1246
 1723SOL     OW 6657   4.711   1.298   1.595 -0.0782 -0.0990  0.0748
 1723SOL    HW2 6658   4.621   1.304   1.564 -0.3271 -0.5303  0.6826
 1723SOL    HW3 6659   4.704   1.257   1.681  0.7186 -0.2998  0.0539
 1723SOL    MW4 6660   4.698   1.294   1.602 -0.0059 -0.1824  0.1522
 1724SOL     OW 6661   5.565   1.875   2.011 -0.5930 -0.1966  0.3929
 1724SOL    HW2 6662   5.560   1.795   2.063 -0.8821 -0.3060  0.2004
 1724SOL    HW3 6663   5.478   1.883   1.971 -0.4636  0.0400  0.1566
 1724SOL    MW4 6664   5.553   1.866   2.012 -0.6140 -0.1798  0.3363
 1725SOL     OW 6665   4.239   2.544   0.915  0.1553  0.2023  0.3059
 1725SOL    HW2 6666   4.184   2.495   0.854 -1.4367  2.9497 -0.6562
 1725SOL    HW3 6667   4.235   2.493   0.996 -0.7255 -1.6367 -0.8165
 1725SOL    MW4 6668   4.231   2.531   0.918 -0.1709  0.3221  0.0309
 1726SOL     OW 6669   4.081   3.043   5.183 -0.1687 -0.0848  0.7915
 1726SOL    HW2 6670   4.062   3.000   5.266 -1.6303 -0.7948  0.1328
 1726SOL    HW3 6671   4.043   2.985   5.117  0.2118  0.8819 -0.3095
 1726SOL    MW4 6672   4.073   3.030   5.185 -0.3114 -0.0510  0.5593
 1727SOL     OW 6673   1.460   4.211   3.589  0.4516  0.4590 -0.1979
 1727SOL    HW2 6674   1.372   4.202   3.625 -0.2079  0.0772 -1.8271
 1727SOL    HW3 6675   1.513   4.243   3.662 -1.5028  3.0169  0.2270
 1727SOL    MW4 6676   1.455   4.214   3.603  0.1067  0.7461 -0.3568
 1728SOL     OW 6677   3.360   1.963   2.855  0.0942  0.2263 -0.0411
 1728SOL    HW2 6678   3.305   1.954   2.778  0.1109 -1.0370  0.0770
 1728SOL    HW3 6679   3.309   2.017   2.915 -0.0663  0.9185 -0.7924
 1728SOL    MW4 6680   3.346   1.969   2.853  0.0752  0.1510 -0.1247
 1729SOL     OW 6681   0.781   4.424   2.746  0.1150  0.1881  0.3857
 1729SOL    HW2 6682   0.712   4.483   2.713  0.9712  1.6698  1.1492
 1729SOL    HW3 6683   0.769   4.425   2.841  2.4004  2.1316  0.7414
 1729SOL    MW4 6684   0.770   4.432   2.754  0.5295  0.6400  0.5333
 1730SOL     OW 6685   4.033   1.804   4.991  0.2942 -0.5604  0.1262
 1730SOL    HW2 6686   4.035   1.792   4.896  2.1144 -1.5902  0.2336
 1730SOL    HW3 6687   3.947   1.841   5.009 -0.2471 -0.7096 -1.8755
 1730SOL    MW4 6688   4.022   1.807   4.981  0.4630 -0.7160 -0.1237
 1731SOL     OW 6689   0.729   1.122   4.783 -0.0179  0.0124  0.1322
 1731SOL    HW2 6690   0.788   1.197   4.777  0.2158  0.0623  2.3101
 1731SOL    HW3 6691   0.786   1.049   4.809 -0.6421 -0.3004  0.6484
 1731SOL    MW4 6692   0.745   1.122   4.786 -0.0694 -0.0223  0.4877
 1732SOL     OW 6693   1.669   1.619   3.824 -0.5743  1.0404 -0.2857
 1732SOL    HW2 6694   1.586   1.595   3.783 -0.3558 -0.0643 -0.0967
 1732SOL    HW3 6695   1.662   1.587   3.914  0.8285 -0.9430 -0.8184
 1732SOL    MW4 6696   1.657   1.612   3.830 -0.3604  0.6329 -0.3311
 1733SOL     OW 6697   5.910   3.472   0.241 -0.3970  0.2677 -0.2541
 1733SOL    HW2 6698   5.940   3.558   0.272 -1.2004  0.5116 -0.1252
 1733SOL    HW3 6699   5.983   3.439   0.188 -0.0409  0.9911 -0.2346
 1733SOL    MW4 6700   5.924   3.479   0.238 -0.4560  0.3953 -0.2345
 1734SOL     OW 6701   5.847   3.753   1.787 -0.2512  0.1723 -0.0386
 1734SOL    HW2 6702   5.887   3.672   1.819 -0.1192  0.4992  0.6193
 1734SOL    HW3 6703   5.761   3.755   1.829 -0.8865 -0.3941 -1.2407
 1734SOL    MW4 6704   5.841   3.742   1.796 -0.3176  0.1407 -0.1104
 1735SOL     OW 6705   3.208   3.254   5.477  0.1348  0.3647 -0.4620
 1735SOL    HW2 6706   3.271   3.192   5.438  0.1953 -0.5716  1.0651
 1735SOL    HW3 6707   3.125   3.231   5.435  0.4930  0.5348 -1.3038
 1735SOL    MW4 6708   3.206   3.243   5.466  0.1901  0.2636 -0.3716
 1736SOL     OW 6709   4.375   2.368   5.167 -0.4952 -0.2153  0.1228
 1736SOL    HW2 6710   4.370   2.358   5.262 -1.9601  0.1232  0.0979
 1736SOL    HW3 6711   4.450   2.426   5.153  1.0114 -1.8633  0.9198
 1736SOL    MW4 6712   4.384   2.374   5.177 -0.4897 -0.3881  0.2247
 1737SOL     OW 6713   6.126   0.091   5.743 -0.1331  0.0949 -0.3311
 1737SOL    HW2 6714   6.052   0.145   5.717 -0.2982  0.4686  0.8544
 1737SOL    HW3 6715   6.177   0.147   5.801 -0.1807 -0.9293  0.7302
 1737SOL    MW4 6716   6.123   0.105   5.747 -0.1612  0.0091 -0.0347
 1738SOL     OW 6717   4.631   3.755   5.691 -0.0512 -0.0574 -0.2787
 1738SOL    HW2 6718   4.672   3.830   5.649  0.3608 -1.2582 -2.1540
 1738SOL    HW3 6719   4.544   3.749   5.651 -0.6707  0.2882  0.9700
 1738SOL    MW4 6720   4.625   3.764   5.681 -0.0786 -0.1702 -0.3614
 1739SOL     OW 6721   1.770   4.945   1.707 -0.2586  0.0972 -0.2719
 1739SOL    HW2 6722   1.759   5.030   1.751 -0.3359 -0.4370  0.7870
 1739SOL    HW3 6723   1.693   4.894   1.733  0.9560 -1.1251  1.1568
 1739SOL    MW4 6724   1.759   4.949   1.716 -0.1085 -0.1345  0.0563
 1740SOL     OW 6725   2.614   3.912   5.003  0.0247  0.1704 -0.3351
 1740SOL    HW2 6726   2.589   4.004   4.994 -0.5511  0.0142 -0.3417
 1740SOL    HW3 6727   2.601   3.876   4.915 -0.9320 -0.2065 -0.0435
 1740SOL    MW4 6728   2.609   3.920   4.990 -0.1775  0.1001 -0.2975
 1741SOL     OW 6729   5.984   4.067   2.228  0.1188  0.4345 -0.6196
 1741SOL    HW2 6730   5.993   4.137   2.163  1.6885  1.4150  0.5768
 1741SOL    HW3 6731   5.977   4.113   2.312  0.5775 -0.8332  0.1442
 1741SOL    MW4 6732   5.984   4.082   2.231  0.3864  0.3966 -0.3610
 1742SOL     OW 6733   3.079   1.390   5.229  0.1025  0.6130  0.1173
 1742SOL    HW2 6734   3.118   1.368   5.314 -1.5818 -1.8087  0.3521
 1742SOL    HW3 6735   2.989   1.413   5.249  0.2617  2.1872 -0.8298
 1742SOL    MW4 6736   3.072   1.390   5.243 -0.0987  0.5012  0.0233
 1743SOL     OW 6737   1.037   5.731   4.413 -0.5555 -0.5512 -0.1638
 1743SOL    HW2 6738   0.982   5.701   4.340 -1.5396 -0.7716  0.6478
 1743SOL    HW3 6739   1.082   5.809   4.378 -0.8699 -0.7539 -1.0589
 1743SOL    MW4 6740   1.036   5.738   4.399 -0.7268 -0.6070 -0.1748
 1744SOL     OW 6741   5.146   0.261   0.119  0.3792  0.1548 -0.3841
 1744SOL    HW2 6742   5.183   0.298   0.039  1.0502  2.1583  0.7598
 1744SOL    HW3 6743   5.207   0.287   0.188 -1.4254  0.6997  1.1203
 1744SOL    MW4 6744   5.159   0.270   0.118  0.2296  0.4911 -0.0347
 1745SOL     OW 6745   2.980   2.997   3.467 -0.0468  0.1562  0.1157
 1745SOL    HW2 6746   2.935   3.047   3.398 -1.3399  0.2835  1.0117
 1745SOL    HW3 6747   2.928   3.014   3.546  0.9991 -0.5491  0.9785
 1745SOL    MW4 6748   2.967   3.006   3.468 -0.0795  0.0799  0.3478
 1746SOL     OW 6749   0.422   4.942   0.718  0.1585  0.1118 -0.5539
 1746SOL    HW2 6750   0.347   4.964   0.773  0.7220  1.0684 -0.1619
 1746SOL    HW3 6751   0.403   4.983   0.634 -0.2683 -0.5856 -0.8130
 1746SOL    MW4 6752   0.410   4.950   0.714  0.1765  0.1460 -0.5364
 1747SOL     OW 6753   4.880   0.974   4.785  0.1683  0.6701  0.3548
 1747SOL    HW2 6754   4.967   0.938   4.771 -0.2662 -0.0103 -0.7863
 1747SOL    HW3 6755   4.892   1.068   4.781  0.4433  0.6195 -3.1101
 1747SOL    MW4 6756   4.893   0.981   4.783  0.1473  0.5736 -0.2529
 1748SOL     OW 6757   1.856   3.323   4.807  0.0978 -0.0652  0.4122
 1748SOL    HW2 6758   1.809   3.330   4.890  0.3985 -0.1185  0.5862
 1748SOL    HW3 6759   1.823   3.396   4.754  0.6029  0.5397  0.9227
 1748SOL    MW4 6760   1.845   3.334   4.811  0.2041  0.0076  0.5025
 1749SOL     OW 6761   0.405   5.523   3.504  0.1918 -0.2884  0.1853
 1749SOL    HW2 6762   0.483   5.498   3.454  1.4790  2.1932  0.7771
 1749SOL    HW3 6763   0.368   5.596   3.454 -1.4988 -1.1165  0.1889
 1749SOL    MW4 6764   0.411   5.530   3.491  0.1386 -0.0703  0.2638
 1750SOL     OW 6765   1.705   1.456   5.450  0.0562 -0.5808 -0.3843
 1750SOL    HW2 6766   1.703   1.523   5.382  1.1957 -0.3801 -0.2486
 1750SOL    HW3 6767   1.776   1.397   5.423  0.0437 -0.9002  0.2588
 1750SOL    MW4 6768   1.714   1.457   5.437  0.2049 -0.5964 -0.2816
 1751SOL     OW 6769   1.075   4.598   1.413  0.3673 -0.5885  0.0423
 1751SOL    HW2 6770   1.123   4.516   1.425  1.6372 -0.1043 -1.4457
 1751SOL    HW3 6771   0.992   4.571   1.373  0.6304 -1.1876 -0.1192
 1751SOL    MW4 6772   1.070   4.584   1.409  0.5696 -0.6037 -0.1754
 1752SOL     OW 6773   0.686   5.339   6.367  1.0067  0.0057 -0.4606
 1752SOL    HW2 6774   0.647   5.339   6.455 -0.3522 -1.2744 -1.0134
 1752SOL    HW3 6775   0.646   5.263   6.324  0.0715  1.7300 -2.8435
 1752SOL    MW4 6776   0.675   5.329   6.373  0.7040  0.0643 -0.8480
 1753SOL     OW 6777   5.968   5.404   5.335 -0.4118  0.6863 -0.1143
 1753SOL    HW2 6778   5.972   5.353   5.416 -0.1809 -1.9224 -1.6587
 1753SOL    HW3 6779   6.058   5.405   5.303 -0.7223  0.5517 -0.9969
 1753SOL    MW4 6780   5.980   5.398   5.342 -0.4223  0.3244 -0.4346
 1754SOL     OW 6781   5.139   2.628   1.235  0.2851 -0.6072  1.0937
 1754SOL    HW2 6782   5.228   2.658   1.252  0.3725 -0.6272  0.6836
 1754SOL    HW3 6783   5.113   2.673   1.156  0.2167 -1.1915  0.7739
 1754SOL    MW4 6784   5.148   2.638   1.227  0.2876 -0.6870  0.9974
 1755SOL     OW 6785   2.335   2.199   4.264  0.3945 -0.3972  0.4716
 1755SOL    HW2 6786   2.276   2.272   4.282  0.0511 -0.8879  1.3835
 1755SOL    HW3 6787   2.418   2.241   4.239 -0.1644  0.2953 -0.3084
 1755SOL    MW4 6788   2.338   2.214   4.263  0.2754 -0.3705  0.4890
 1756SOL     OW 6789   5.756   2.374   4.787  0.0140  0.0005 -0.2199
 1756SOL    HW2 6790   5.698   2.403   4.858  0.4602 -1.3304  0.7299
 1756SOL    HW3 6791   5.709   2.398   4.707 -1.9733 -1.1734  0.5085
 1756SOL    MW4 6792   5.742   2.381   4.786 -0.1893 -0.3300  0.0016
 1757SOL     OW 6793   2.319   5.477   3.500  0.0764  0.1964  0.5034
 1757SOL    HW2 6794   2.384   5.461   3.432  0.9875  1.7089  0.9847
 1757SOL    HW3 6795   2.302   5.571   3.497  1.7479  0.7412  3.7232
 1757SOL    MW4 6796   2.325   5.487   3.491  0.4171  0.4679  0.9917
 1758SOL     OW 6797   5.282   2.275   5.800 -0.2249  0.6278 -0.0900
 1758SOL    HW2 6798   5.353   2.212   5.790  0.5875  1.6164 -0.7679
 1758SOL    HW3 6799   5.303   2.322   5.881  0.0222  1.0825 -0.4185
 1758SOL    MW4 6800   5.294   2.273   5.810 -0.0851  0.8182 -0.2228
 1759SOL     OW 6801   0.711   0.194   2.323 -0.3357 -0.4170 -0.2344
 1759SOL    HW2 6802   0.686   0.134   2.394 -3.8218  1.4560  0.3712
 1759SOL    HW3 6803   0.671   0.156   2.245 -1.3419  0.2938 -0.0962
 1759SOL    MW4 6804   0.702   0.181   2.322 -0.9284 -0.0761 -0.1363
 1760SOL     OW 6805   6.043   1.475   1.845 -0.1603 -0.7307 -0.0106
 1760SOL    HW2 6806   6.087   1.391   1.838  1.0928 -0.4311  2.7664
 1760SOL    HW3 6807   6.069   1.523   1.766 -0.8305 -2.8178 -1.5986
 1760SOL    MW4 6808   6.052   1.470   1.834 -0.0834 -0.9666  0.1463
 1761SOL     OW 6809   3.728   6.196   6.102  0.1993 -0.4608  0.2384
 1761SOL    HW2 6810   3.752   6.178   6.011  1.9415  1.3590  0.2868
 1761SOL    HW3 6811   3.734   6.110   6.145  0.1879 -1.1986 -1.1594
 1761SOL    MW4 6812   3.732   6.182   6.096  0.4277 -0.3181  0.0604
 1762SOL     OW 6813   1.901   5.660   4.307  0.2835 -0.4625 -0.2743
 1762SOL    HW2 6814   1.974   5.694   4.257 -0.1665 -1.6636 -1.8232
 1762SOL    HW3 6815   1.896   5.567   4.283 -0.8957 -0.7262  0.8454
 1762SOL    MW4 6816   1.910   5.652   4.298  0.0686 -0.6558 -0.3309
 1763SOL     OW 6817   2.721   2.679   6.217 -0.1999 -0.0916 -0.2323
 1763SOL    HW2 6818   2.702   2.773   6.210 -0.5648  0.0606  1.9196
 1763SOL    HW3 6819   2.749   2.667   6.308  0.7914 -1.9350 -0.7180
 1763SOL    MW4 6820   2.722   2.690   6.228 -0.1172 -0.3147 -0.0125
 1764SOL     OW 6821   2.114   2.898   0.654  0.3997 -0.7514 -0.1173
 1764SOL    HW2 6822   2.092   2.980   0.610  0.7973 -0.8121 -0.4269
 1764SOL    HW3 6823   2.201   2.913   0.691  1.4575 -1.7663 -2.0404
 1764SOL    MW4 6824   2.122   2.911   0.653  0.5917 -0.8933 -0.4119
 1765SOL     OW 6825   1.640   3.536   1.585 -0.4297 -0.0949  1.0429
 1765SOL    HW2 6826   1.589   3.578   1.655  0.5389  1.3413  0.9361
 1765SOL    HW3 6827   1.574   3.500   1.526 -1.4576  2.5261  0.4167
 1765SOL    MW4 6828   1.624   3.537   1.586 -0.4375  0.4404  0.9462
 1766SOL     OW 6829   0.650   2.269   0.921 -0.0250 -0.2005 -0.2716
 1766SOL    HW2 6830   0.698   2.343   0.959 -1.8215  1.6080 -1.2987
 1766SOL    HW3 6831   0.568   2.266   0.971 -1.3343  0.6113 -2.2476
 1766SOL    MW4 6832   0.645   2.279   0.933 -0.4348  0.1452 -0.6678
 1767SOL     OW 6833   6.274   3.262   0.874  0.1428 -0.1630  0.2783
 1767SOL    HW2 6834   6.355   3.261   0.925  0.1282 -2.1015  0.3377
 1767SOL    HW3 6835   6.289   3.329   0.806  1.5346 -0.0505  0.6688
 1767SOL    MW4 6836   6.287   3.271   0.871  0.3245 -0.4039  0.3377
 1768SOL     OW 6837   1.140   2.206   3.618  0.7939 -0.1071  0.0845
 1768SOL    HW2 6838   1.206   2.248   3.564  0.1211  0.2357 -0.4926
 1768SOL    HW3 6839   1.105   2.136   3.563 -0.1434  0.4713 -0.0790
 1768SOL    MW4 6840   1.144   2.202   3.603  0.5815  0.0144 -0.0132
 1769SOL     OW 6841   4.377   2.203   4.939 -0.4172 -0.6441 -0.3241
 1769SOL    HW2 6842   4.390   2.265   5.011  1.9797 -0.5789 -0.7572
 1769SOL    HW3 6843   4.303   2.150   4.968  0.1831 -0.3331  2.0105
 1769SOL    MW4 6844   4.369   2.204   4.952 -0.0218 -0.5944 -0.0732
 1770SOL     OW 6845   1.571   2.116   0.516 -0.2814  0.0723 -0.4729
 1770SOL    HW2 6846   1.492   2.168   0.533  0.6493  1.1408  0.8435
 1770SOL    HW3 6847   1.636   2.153   0.576  1.0831 -1.0952 -1.1986
 1770SOL    MW4 6848   1.569   2.128   0.526  0.0215  0.0592 -0.3950
 1771SOL     OW 6849   1.663   2.401   1.190 -0.2947 -0.0106 -0.0790
 1771SOL    HW2 6850   1.692   2.492   1.181 -0.0493 -0.2092 -1.8363
 1771SOL    HW3 6851   1.741   2.355   1.220 -0.0545  0.1856 -0.3767
 1771SOL    MW4 6852   1.677   2.407   1.193 -0.2306 -0.0109 -0.3501
 1772SOL     OW 6853   0.678   0.044   3.197 -0.0821  0.0072  0.3133
 1772SOL    HW2 6854   0.627   0.096   3.136 -0.5911 -1.5317 -0.6481
 1772SOL    HW3 6855   0.748   0.006   3.144  1.5276  1.3056  1.4071
 1772SOL    MW4 6856   0.681   0.046   3.182  0.0631 -0.0245  0.3308
 1773SOL     OW 6857   6.200   0.423   0.121 -0.7605 -0.6686  0.7973
 1773SOL    HW2 6858   6.204   0.467   0.036 -2.5022 -0.2555  0.8992
 1773SOL    HW3 6859   6.281   0.449   0.164 -1.1041  1.3899  0.3347
 1773SOL    MW4 6860   6.211   0.432   0.115 -1.0356 -0.3425  0.7497
 1774SOL     OW 6861   4.990   0.724   5.340 -0.2104  0.1097 -0.0721
 1774SOL    HW2 6862   5.063   0.710   5.400 -0.2888 -0.0361 -0.0106
 1774SOL    HW3 6863   5.029   0.774   5.267 -0.1449  0.3914  0.1547
 1774SOL    MW4 6864   5.005   0.729   5.338 -0.2121  0.1276 -0.0341
 1775SOL     OW 6865   0.144   0.773   0.053  0.4546 -0.0689 -0.2195
 1775SOL    HW2 6866   0.106   0.841  -0.003  0.9462  0.9576  0.6656
 1775SOL    HW3 6867   0.129   0.692   0.005 -0.5126  0.6113 -1.1062
 1775SOL    MW4 6868   0.137   0.771   0.039  0.3919  0.1563 -0.2197
 1776SOL     OW 6869   2.509   1.092   2.097  0.7436  0.4130  0.1074
 1776SOL    HW2 6870   2.507   1.035   2.174 -0.3389 -0.2729 -0.3952
 1776SOL    HW3 6871   2.575   1.158   2.117 -1.4194  1.9660  2.8632
 1776SOL    MW4 6872   2.517   1.093   2.110  0.3154  0.5274  0.4047
 1777SOL     OW 6873   4.174   0.408   4.900  0.9428  0.1677  0.1228
 1777SOL    HW2 6874   4.259   0.448   4.879  1.0780 -1.1017 -2.1346
 1777SOL    HW3 6875   4.196   0.316   4.919 -0.0206 -0.6496 -2.3425
 1777SOL    MW4 6876   4.188   0.401   4.900  0.8336 -0.1076 -0.5003
 1778SOL     OW 6877   3.632   2.053   0.694 -0.1789  0.1759 -0.2143
 1778SOL    HW2 6878   3.570   1.981   0.685  0.4671 -0.2945 -1.0130
 1778SOL    HW3 6879   3.705   2.016   0.744 -0.4335  0.6713  0.5521
 1778SOL    MW4 6880   3.634   2.039   0.699 -0.1272  0.1792 -0.2186
 1779SOL     OW 6881   5.937   2.981   3.866  0.3183 -0.0220 -0.0051
 1779SOL    HW2 6882   5.937   2.925   3.788  1.5428 -1.3495  0.8869
 1779SOL    HW3 6883   5.902   3.065   3.835  1.7365 -0.1488 -2.2366
 1779SOL    MW4 6884   5.933   2.985   3.851  0.6670 -0.2139 -0.1818
 1780SOL     OW 6885   3.345   0.354   4.556  0.4058  0.0730  0.0422
 1780SOL    HW2 6886   3.314   0.306   4.634  0.3922  0.8471  0.5277
 1780SOL    HW3 6887   3.323   0.297   4.483 -1.2667  0.1252  0.4554
 1780SOL    MW4 6888   3.338   0.340   4.557  0.1834  0.1820  0.1608
 1781SOL     OW 6889   6.268   4.538   1.445  0.3350 -0.3200  0.2618
 1781SOL    HW2 6890   6.248   4.495   1.362  0.5057 -1.7544  0.9421
 1781SOL    HW3 6891   6.291   4.467   1.505  2.7689  0.8425  0.8497
 1781SOL    MW4 6892   6.269   4.523   1.442  0.6786 -0.3559  0.4291
 1782SOL     OW 6893   0.413   2.450   3.817  0.1335  0.6306 -0.8193
 1782SOL    HW2 6894   0.437   2.399   3.894  2.2028  1.4100 -0.8941
 1782SOL    HW3 6895   0.408   2.386   3.746 -0.8555  0.0490 -0.2479
 1782SOL    MW4 6896   0.415   2.435   3.818  0.2760  0.6567 -0.7538
 1783SOL     OW 6897   0.169   1.034   1.049 -0.0134  0.2077  0.5445
 1783SOL    HW2 6898   0.207   0.947   1.063 -1.5733 -0.2997  2.0174
 1783SOL    HW3 6899   0.163   1.072   1.136 -2.5592  0.3353  0.3966
 1783SOL    MW4 6900   0.173   1.028   1.062 -0.5551  0.1576  0.7193
 1784SOL     OW 6901   4.817   5.170   2.350 -0.6595  0.0392 -0.2857
 1784SOL    HW2 6902   4.801   5.090   2.301 -0.3598  0.6817 -1.4626
 1784SOL    HW3 6903   4.753   5.168   2.421  0.7884 -2.3447  1.1015
 1784SOL    MW4 6904   4.807   5.159   2.353 -0.4289 -0.1905 -0.2580
 1785SOL     OW 6905   6.198   4.996   0.454  0.0109  0.1670 -0.6550
 1785SOL    HW2 6906   6.227   4.966   0.541  0.0257 -0.9025 -1.0247
 1785SOL    HW3 6907   6.273   5.046   0.421 -0.4344  1.6456  0.4258
 1785SOL    MW4 6908   6.212   4.999   0.461 -0.0459  0.2209 -0.5612
 1786SOL     OW 6909   4.886   5.662   2.668 -0.1730 -0.0316 -0.2860
 1786SOL    HW2 6910   4.925   5.626   2.748  0.2656  0.9808 -0.0345
 1786SOL    HW3 6911   4.815   5.601   2.647 -1.9070  0.9566  2.2394
 1786SOL    MW4 6912   4.882   5.649   2.676 -0.3439  0.2323  0.0803
 1787SOL     OW 6913   3.329   1.805   2.411  0.6116 -0.4437 -0.3788
 1787SOL    HW2 6914   3.285   1.728   2.375 -0.7000  0.0567  0.0568
 1787SOL    HW3 6915   3.388   1.834   2.342 -0.8186 -0.3187 -1.6135
 1787SOL    MW4 6916   3.331   1.799   2.397  0.2499 -0.3612 -0.4842
 1788SOL     OW 6917   1.732   5.088   1.439  0.0449 -0.1815  0.4777
 1788SOL    HW2 6918   1.681   5.164   1.467  1.8944  0.5220  2.1578
 1788SOL    HW3 6919   1.759   5.046   1.521 -0.8290 -2.6406 -0.3913
 1788SOL    MW4 6920   1.729   5.092   1.454  0.1736 -0.4132  0.5847
 1789SOL     OW 6921   5.451   0.501   5.380  0.0245  0.2853 -0.2962
 1789SOL    HW2 6922   5.497   0.574   5.421  0.9306 -1.8385  2.8322
 1789SOL    HW3 6923   5.518   0.432   5.373 -0.9434 -0.5156 -2.5432
 1789SOL    MW4 6924   5.466   0.501   5.384  0.0163 -0.1005 -0.1799
 1790SOL     OW 6925   3.446   4.828   2.202 -0.2196 -0.1315 -0.0556
 1790SOL    HW2 6926   3.491   4.906   2.233  0.6479 -0.3827 -0.6267
 1790SOL    HW3 6927   3.353   4.845   2.217  0.0904  0.1186  1.7955
 1790SOL    MW4 6928   3.440   4.840   2.208 -0.0643 -0.1316  0.1133
 1791SOL     OW 6929   6.035   3.676   2.243 -0.3906  0.0916 -0.1502
 1791SOL    HW2 6930   5.942   3.698   2.254 -0.0883  2.3816 -1.5064
 1791SOL    HW3 6931   6.081   3.742   2.295  0.4865 -0.3370 -0.3756
 1791SOL    MW4 6932   6.029   3.688   2.251 -0.2350  0.3372 -0.3589
 1792SOL     OW 6933   4.796   0.652   3.470 -0.3028  0.5537  0.9753
 1792SOL    HW2 6934   4.773   0.637   3.378 -0.2181  0.0106  1.0340
 1792SOL    HW3 6935   4.751   0.582   3.517  1.3278 -0.4633  1.1012
 1792SOL    MW4 6936   4.787   0.640   3.464 -0.0765  0.3479  0.9997
 1793SOL     OW 6937   4.121   5.747   3.331  0.1975 -0.4927  0.6350
 1793SOL    HW2 6938   4.094   5.657   3.319  0.0935 -0.1805 -2.3742
 1793SOL    HW3 6939   4.052   5.787   3.383  0.1955 -2.0811  1.9199
 1793SOL    MW4 6940   4.109   5.741   3.336  0.1835 -0.6610  0.4075
 1794SOL     OW 6941   0.583   1.669   5.107 -0.0375 -0.2292 -0.6706
 1794SOL    HW2 6942   0.576   1.760   5.135  2.9929 -0.2753  0.6069
 1794SOL    HW3 6943   0.604   1.620   5.186  0.2549 -1.7462 -1.6366
 1794SOL    MW4 6944   0.585   1.675   5.121  0.4009 -0.4354 -0.6295
 1795SOL     OW 6945   0.904   6.268   4.614 -0.4676  0.4656 -0.0348
 1795SOL    HW2 6946   0.953   6.191   4.642  3.1756  1.7204 -2.2716
 1795SOL    HW3 6947   0.904   6.325   4.690 -0.0092 -0.3232  0.5723
 1795SOL    MW4 6948   0.911   6.265   4.627  0.0736  0.5271 -0.2498
 1796SOL     OW 6949   2.201   0.154   0.570 -0.3474 -0.6197 -0.5152
 1796SOL    HW2 6950   2.118   0.163   0.522 -1.0274  0.7905  0.8365
 1796SOL    HW3 6951   2.265   0.198   0.514 -0.4150 -1.9548 -1.7003
 1796SOL    MW4 6952   2.199   0.161   0.556 -0.4460 -0.6098 -0.4933
 1797SOL     OW 6953   5.964   6.161   1.917 -0.0391 -0.2903  0.6539
 1797SOL    HW2 6954   5.948   6.083   1.865 -0.2556 -0.3002  0.7323
 1797SOL    HW3 6955   6.023   6.214   1.863 -3.0258  1.3564 -1.2865
 1797SOL    MW4 6956   5.970   6.158   1.903 -0.4617 -0.0743  0.4082
 1798SOL     OW 6957   5.771   1.260   3.142  0.1675 -0.0964  0.0380
 1798SOL    HW2 6958   5.813   1.338   3.107 -0.4659  0.1297 -0.2361
 1798SOL    HW3 6959   5.838   1.219   3.197  0.6271  0.4330 -0.1182
 1798SOL    MW4 6960   5.785   1.265   3.145  0.1446  0.0033 -0.0187
 1799SOL     OW 6961   5.116   3.831   2.731  0.4391  0.1266 -0.4138
 1799SOL    HW2 6962   5.209   3.853   2.735  0.4424 -0.1116  1.4135
 1799SOL    HW3 6963   5.111   3.739   2.758 -0.3945  0.3752  0.3373
 1799SOL    MW4 6964   5.127   3.822   2.735  0.3296  0.1280 -0.0736
 1800SOL     OW 6965   6.092   3.010   5.116 -0.0517 -0.3634  0.6911
 1800SOL    HW2 6966   6.055   2.923   5.136 -0.6043 -0.7577 -1.6872
 1800SOL    HW3 6967   6.117   3.004   5.024 -1.8908  2.5873 -0.1353
 1800SOL    MW4 6968   6.090   2.997   5.106 -0.3673 -0.0261  0.2683
 1801SOL     OW 6969   4.822   0.457   5.622  0.2233  0.8344  0.0824
 1801SOL    HW2 6970   4.839   0.453   5.716 -1.4208 -0.7106  0.3569
 1801SOL    HW3 6971   4.804   0.550   5.605  1.6395  1.3121  1.0573
 1801SOL    MW4 6972   4.822   0.469   5.632  0.1933  0.6936  0.2473
 1802SOL     OW 6973   1.316   4.412   5.661 -0.6318  0.1102  0.0311
 1802SOL    HW2 6974   1.349   4.469   5.591 -0.2415  1.3263  1.1712
 1802SOL    HW3 6975   1.329   4.463   5.741  0.6634 -1.9614  1.2194
 1802SOL    MW4 6976   1.322   4.426   5.662 -0.4094 -0.0026  0.3383
 1803SOL     OW 6977   1.522   1.267   3.747  0.4718 -0.0385  0.0955
 1803SOL    HW2 6978   1.592   1.272   3.683  0.5734 -1.8698  0.0228
 1803SOL    HW3 6979   1.567   1.274   3.832  0.4824  0.9745  0.0214
 1803SOL    MW4 6980   1.537   1.269   3.750  0.4866 -0.1465  0.0761
 1804SOL     OW 6981   0.533   3.119   5.022  0.6013  0.2430 -0.2831
 1804SOL    HW2 6982   0.466   3.058   5.053  2.9689 -1.3225  2.1026
 1804SOL    HW3 6983   0.569   3.078   4.943  1.8695 -1.3109  1.0482
 1804SOL    MW4 6984   0.529   3.106   5.015  1.0810 -0.1686  0.2073
 1805SOL     OW 6985   0.909   4.600   4.997  0.5024  0.8333 -0.3809
 1805SOL    HW2 6986   0.985   4.647   5.032  0.5345  0.3889  0.1682
 1805SOL    HW3 6987   0.834   4.652   5.024  0.5428  0.6169  0.1661
 1805SOL    MW4 6988   0.909   4.613   5.005  0.5120  0.7462 -0.2362
 1806SOL     OW 6989   0.763   4.729   3.566 -0.1040  0.4040 -0.1698
 1806SOL    HW2 6990   0.855   4.702   3.562 -0.6093 -1.4125 -0.8317
 1806SOL    HW3 6991   0.722   4.664   3.623 -1.3003  0.0482 -1.3774
 1806SOL    MW4 6992   0.770   4.717   3.573 -0.3285  0.1174 -0.4165
 1807SOL     OW 6993   4.785   4.442   5.542  0.1988 -0.0487 -0.5078
 1807SOL    HW2 6994   4.775   4.509   5.475 -0.8814 -1.2368 -1.5662
 1807SOL    HW3 6995   4.696   4.413   5.562  0.6458 -1.2534 -0.1577
 1807SOL    MW4 6996   4.772   4.447   5.536  0.1152 -0.3644 -0.6012
 1808SOL     OW 6997   4.199   5.040   3.878 -0.7879 -0.1911 -0.1600
 1808SOL    HW2 6998   4.164   5.039   3.788  1.8839  0.8244 -1.3224
 1808SOL    HW3 6999   4.166   5.122   3.915 -1.5130 -0.3826 -0.3550
 1808SOL    MW4 7000   4.190   5.051   3.871 -0.5311 -0.0824 -0.3391
 1809SOL     OW 7001   2.160   4.107   3.033  0.6903 -0.2587 -0.3116
 1809SOL    HW2 7002   2.246   4.122   2.994  0.1550  0.5064 -1.2307
 1809SOL    HW3 7003   2.146   4.182   3.090  1.1626 -1.0220  0.8541
 1809SOL    MW4 7004   2.170   4.119   3.036  0.6820 -0.2584 -0.2791
 1810SOL     OW 7005   4.069   5.802   5.228  0.1105  0.4146 -0.3015
 1810SOL    HW2 7006   4.078   5.816   5.322  0.2758  0.6050 -0.3440
 1810SOL    HW3 7007   4.143   5.850   5.190 -0.7571  1.5621 -0.6205
 1810SOL    MW4 7008   4.080   5.810   5.235  0.0178  0.5912 -0.3492
 1811SOL     OW 7009   6.376   5.374   1.263 -0.1298 -0.1009  0.9788
 1811SOL    HW2 7010   6.302   5.338   1.214  0.8428  0.2066 -0.7899
 1811SOL    HW3 7011   6.348   5.462   1.288 -0.4012 -0.0176  0.3949
 1811SOL    MW4 7012   6.362   5.381   1.260 -0.0373 -0.0494  0.6684
 1812SOL     OW 7013   3.639   0.310   2.598  0.6618  0.3023  0.1221
 1812SOL    HW2 7014   3.706   0.307   2.666  0.1601  1.0355  0.6521
 1812SOL    HW3 7015   3.682   0.273   2.521  0.8095 -1.8527  1.1658
 1812SOL    MW4 7016   3.654   0.304   2.597  0.6151  0.1147  0.3297
 1813SOL     OW 7017   0.040   1.477   4.578 -0.2635 -0.3586 -0.7101
 1813SOL    HW2 7018   0.126   1.434   4.574 -0.5706 -1.1160  0.4437
 1813SOL    HW3 7019  -0.022   1.406   4.560 -0.6672  0.1745 -1.4754
 1813SOL    MW4 7020   0.043   1.462   4.575 -0.3573 -0.3882 -0.6588
 1814SOL     OW 7021   1.555   0.019   4.663 -0.1347 -0.2463  0.1352
 1814SOL    HW2 7022   1.467   0.036   4.630 -0.4086 -0.4561  0.7377
 1814SOL    HW3 7023   1.599  -0.028   4.592  0.1946  1.7070 -1.0244
 1814SOL    MW4 7024   1.549   0.015   4.649 -0.1274 -0.0163  0.0617
 1815SOL     OW 7025   1.495   4.527   1.745 -0.0417 -0.2332 -0.1482
 1815SOL    HW2 7026   1.541   4.483   1.817  1.6186 -1.2337 -1.7220
 1815SOL    HW3 7027   1.523   4.480   1.666 -1.4787  1.0644 -1.5224
 1815SOL    MW4 7028   1.505   4.515   1.744 -0.0122 -0.1940 -0.5372
 1816SOL     OW 7029   5.605   1.870   5.260 -0.4825  0.3196 -0.5499
 1816SOL    HW2 7030   5.587   1.787   5.215  0.0562  0.8769 -1.8268
 1816SOL    HW3 7031   5.632   1.930   5.191 -0.1831  1.3775  0.4506
 1816SOL    MW4 7032   5.606   1.867   5.245 -0.3719  0.5327 -0.5864
 1817SOL     OW 7033   0.396   6.258   0.471 -0.0610  0.3137 -0.3913
 1817SOL    HW2 7034   0.300   6.265   0.476 -0.0022  0.5578  0.5948
 1817SOL    HW3 7035   0.427   6.341   0.506  0.5222 -0.1406  0.1826
 1817SOL    MW4 7036   0.387   6.270   0.477  0.0237  0.2860 -0.1855
 1818SOL     OW 7037   2.612   0.436   0.276 -0.0866  0.2478  0.3981
 1818SOL    HW2 7038   2.689   0.477   0.314 -0.2350  0.5933  0.3260
 1818SOL    HW3 7039   2.585   0.370   0.341  1.4472 -1.3047 -0.4527
 1818SOL    MW4 7040   2.618   0.432   0.290  0.0962  0.0886  0.2763
 1819SOL     OW 7041   5.983   0.537   0.474  0.4230 -0.0175 -0.2574
 1819SOL    HW2 7042   5.995   0.584   0.557 -1.2498  0.2827 -0.1533
 1819SOL    HW3 7043   5.985   0.606   0.407  0.3491 -0.0893 -0.3340
 1819SOL    MW4 7044   5.985   0.553   0.476  0.1925  0.0126 -0.2538
 1820SOL     OW 7045   2.427   0.592   4.070  0.1062 -0.5426  0.0061
 1820SOL    HW2 7046   2.385   0.516   4.110 -1.4504 -0.5826 -1.5848
 1820SOL    HW3 7047   2.456   0.562   3.984 -1.6738  0.8983 -1.1948
 1820SOL    MW4 7048   2.425   0.578   4.064 -0.3341 -0.3577 -0.3623
 1821SOL     OW 7049   3.508   2.984   5.062  0.0292 -0.1415 -0.2292
 1821SOL    HW2 7050   3.508   3.021   5.151  0.9311 -0.2920 -0.1616
 1821SOL    HW3 7051   3.433   2.924   5.062  0.1600 -0.3204  0.5063
 1821SOL    MW4 7052   3.498   2.981   5.074  0.1655 -0.1850 -0.1232
 1822SOL     OW 7053   3.824   5.974   2.854  0.0836  0.3933  0.2525
 1822SOL    HW2 7054   3.757   5.960   2.921 -0.2638 -0.8822 -0.3497
 1822SOL    HW3 7055   3.777   5.979   2.772  0.7625 -1.2885 -0.2723
 1822SOL    MW4 7056   3.809   5.973   2.852  0.1273  0.0031  0.1038
 1823SOL     OW 7057   0.439   3.375   2.552 -0.1087  0.1131  0.3826
 1823SOL    HW2 7058   0.490   3.350   2.629 -0.0145 -1.9662 -0.2827
 1823SOL    HW3 7059   0.363   3.316   2.554 -2.1928  2.6475  0.9545
 1823SOL    MW4 7060   0.436   3.364   2.563 -0.3713  0.1731  0.3703
 1824SOL     OW 7061   5.324   3.051   4.849  0.4743  0.4930  0.7037
 1824SOL    HW2 7062   5.270   3.021   4.775 -0.2742  0.8084  1.1162
 1824SOL    HW3 7063   5.414   3.042   4.817  0.2462 -1.2698  0.4636
 1824SOL    MW4 7064   5.328   3.046   4.835  0.3454  0.3021  0.7264
 1825SOL     OW 7065   2.142   0.554   0.016  0.7528 -0.4750 -0.3303
 1825SOL    HW2 7066   2.096   0.471   0.032 -0.2449  0.2079  0.4983
 1825SOL    HW3 7067   2.235   0.530   0.017  0.4968 -1.5449  0.2047
 1825SOL    MW4 7068   2.148   0.540   0.019  0.5874 -0.5261 -0.1504
 1826SOL     OW 7069   2.265   5.192   2.982 -0.0378 -0.1537  0.0978
 1826SOL    HW2 7070   2.186   5.215   2.932  0.0991 -0.3132 -0.1887
 1826SOL    HW3 7071   2.335   5.244   2.943  0.1558 -0.6095 -0.1642
 1826SOL    MW4 7072   2.263   5.202   2.970  0.0058 -0.2349  0.0255
 1827SOL     OW 7073   4.261   4.782   3.858 -0.0099  0.1517 -0.1853
 1827SOL    HW2 7074   4.353   4.778   3.884  0.1436 -0.6991 -0.7940
 1827SOL    HW3 7075   4.242   4.875   3.847  0.8858  0.3121 -0.4100
 1827SOL    MW4 7076   4.271   4.794   3.860  0.1285  0.0606 -0.2952
 1828SOL     OW 7077   3.261   4.634   4.077 -0.5927 -0.1468 -0.3948
 1828SOL    HW2 7078   3.167   4.629   4.096 -0.6530  0.0988 -0.6108
 1828SOL    HW3 7079   3.275   4.568   4.009 -0.4716 -0.6756  0.1350
 1828SOL    MW4 7080   3.250   4.625   4.070 -0.5847 -0.1842 -0.3534
 1829SOL     OW 7081   6.292   0.583   1.541 -0.6412 -0.0848  0.4251
 1829SOL    HW2 7082   6.253   0.637   1.610 -0.0668  1.9823 -0.7794
 1829SOL    HW3 7083   6.386   0.585   1.559 -0.5420 -0.0130 -0.0712
 1829SOL    MW4 7084   6.299   0.590   1.552 -0.5523  0.1974  0.2007
 1830SOL     OW 7085   3.860   5.948   4.904  0.1054 -0.3292 -0.4796
 1830SOL    HW2 7086   3.858   5.860   4.943 -0.7048  0.7741  2.2166
 1830SOL    HW3 7087   3.871   6.007   4.978 -1.7070  1.9938 -1.8942
 1830SOL    MW4 7088   3.861   5.944   4.919 -0.2406  0.1228 -0.3105
 1831SOL     OW 7089   0.102   2.472   6.047  0.0541 -0.2230  0.3630
 1831SOL    HW2 7090   0.067   2.459   5.959  1.4986 -0.5639 -0.2027
 1831SOL    HW3 7091   0.167   2.542   6.037  0.1962 -0.2237  1.1800
 1831SOL    MW4 7092   0.106   2.480   6.034  0.2635 -0.2681  0.3962
 1832SOL     OW 7093   1.896   5.281   1.614 -0.4842 -0.0430 -0.2045
 1832SOL    HW2 7094   1.824   5.323   1.569 -0.5773 -1.4793 -1.4754
 1832SOL    HW3 7095   1.926   5.212   1.554  1.6023  0.1695  0.5010
 1832SOL    MW4 7096   1.891   5.277   1.600 -0.2212 -0.2045 -0.2791
 1833SOL     OW 7097   0.813   5.931   0.611  0.1777 -0.1752 -0.1393
 1833SOL    HW2 7098   0.736   5.987   0.613  0.5773  0.6723 -3.3033
 1833SOL    HW3 7099   0.887   5.992   0.605  0.8042 -1.0064 -1.2370
 1833SOL    MW4 7100   0.813   5.946   0.611  0.3131 -0.1730 -0.7016
 1834SOL     OW 7101   5.890   5.108   1.220  0.3252 -0.0458  0.6431
 1834SOL    HW2 7102   5.829   5.051   1.266  0.3761  0.0454  0.8222
 1834SOL    HW3 7103   5.977   5.083   1.252  0.5519 -1.3474 -0.8428
 1834SOL    MW4 7104   5.894   5.097   1.230  0.3618 -0.2055  0.4706
 1835SOL     OW 7105   5.193   4.214   5.119  0.2762 -0.2424 -0.2543
 1835SOL    HW2 7106   5.148   4.190   5.038  1.6352 -0.5076 -0.9613
 1835SOL    HW3 7107   5.241   4.135   5.144 -0.6604 -0.3845  1.2100
 1835SOL    MW4 7108   5.194   4.200   5.111  0.3319 -0.2962 -0.1544
 1836SOL     OW 7109   4.797   4.964   6.346 -0.1457 -0.4051 -0.3687
 1836SOL    HW2 7110   4.829   5.029   6.409  2.7583 -1.0669 -1.0281
 1836SOL    HW3 7111   4.736   5.013   6.291 -0.2928  0.9859  0.9455
 1836SOL    MW4 7112   4.793   4.979   6.347  0.2181 -0.3089 -0.2823
 1837SOL     OW 7113   0.251   1.571   4.887  0.7084  0.3878  0.1180
 1837SOL    HW2 7114   0.211   1.622   4.817 -0.2999 -1.0443 -0.3951
 1837SOL    HW3 7115   0.306   1.507   4.842 -0.3703 -0.9036  0.5601
 1837SOL    MW4 7116   0.253   1.569   4.872  0.4330  0.0285  0.1087
 1838SOL     OW 7117   1.845   0.539   2.867 -0.7182  0.1722 -0.4130
 1838SOL    HW2 7118   1.761   0.572   2.898  0.6165  0.2674  3.7788
 1838SOL    HW3 7119   1.899   0.618   2.856  0.4035 -0.0376  2.6953
 1838SOL    MW4 7120   1.841   0.554   2.870 -0.3941  0.1571  0.5501
 1839SOL     OW 7121   0.978   3.800   2.891  0.0949  0.4693 -0.1951
 1839SOL    HW2 7122   0.977   3.810   2.987  0.7646  2.4369 -0.3481
 1839SOL    HW3 7123   1.070   3.793   2.869  0.1697  2.7902 -0.8775
 1839SOL    MW4 7124   0.990   3.801   2.901  0.1931  1.0351 -0.3053
 1840SOL     OW 7125   1.426   3.889   5.771  1.1211  0.0009  0.0357
 1840SOL    HW2 7126   1.422   3.979   5.738  0.2702  0.1760  0.5990
 1840SOL    HW3 7127   1.389   3.894   5.858 -0.3351 -1.1679 -0.4865
 1840SOL    MW4 7128   1.421   3.901   5.778  0.8167 -0.1302  0.0411
 1841SOL     OW 7129   0.535   4.839   5.055  0.0094 -0.0582 -0.2293
 1841SOL    HW2 7130   0.526   4.755   5.010  0.2459 -0.5677  0.6574
 1841SOL    HW3 7131   0.575   4.896   4.991  1.2927 -1.0540 -0.3496
 1841SOL    MW4 7132   0.539   4.835   5.041  0.2099 -0.2568 -0.1282
 1842SOL     OW 7133   1.430   2.043   3.948 -0.0773  0.1514  0.1001
 1842SOL    HW2 7134   1.516   2.029   3.987  0.0018  0.8644  0.2032
 1842SOL    HW3 7135   1.382   1.962   3.965  0.3465  0.0064  0.6444
 1842SOL    MW4 7136   1.435   2.031   3.956 -0.0109  0.2263  0.1855
 1843SOL     OW 7137   3.965   4.777   5.544  0.5586 -0.6798 -0.5037
 1843SOL    HW2 7138   3.869   4.777   5.541  0.5760  0.7727 -2.6062
 1843SOL    HW3 7139   3.986   4.718   5.617 -1.9678  1.7156  2.4331
 1843SOL    MW4 7140   3.955   4.769   5.553  0.2276 -0.1721 -0.3937
 1844SOL     OW 7141   5.937   6.125   0.977  0.1077  0.6086  0.0318
 1844SOL    HW2 7142   5.918   6.188   0.907  0.1589  0.9650  0.3321
 1844SOL    HW3 7143   6.030   6.140   0.997 -0.0467  0.8918  0.5505
 1844SOL    MW4 7144   5.947   6.136   0.970  0.0941  0.6930  0.1399
 1845SOL     OW 7145   3.727   0.967   0.648  0.3566  0.2985  0.6277
 1845SOL    HW2 7146   3.820   0.961   0.667  0.8549  2.5241 -0.6664
 1845SOL    HW3 7147   3.712   1.060   0.632 -2.1332  0.0233  0.9215
 1845SOL    MW4 7148   3.737   0.978   0.648  0.0938  0.5558  0.4958
 1846SOL     OW 7149   1.831   2.928   1.984 -0.1537 -0.0364  0.0082
 1846SOL    HW2 7150   1.859   2.837   1.994  0.9556 -0.7693 -5.9059
 1846SOL    HW3 7151   1.912   2.979   1.993 -0.6051  0.3877  2.2846
 1846SOL    MW4 7152   1.846   2.923   1.986 -0.0669 -0.0771 -0.4718
 1847SOL     OW 7153   5.866   1.000   6.164  0.0864 -0.0157  0.3854
 1847SOL    HW2 7154   5.929   1.063   6.200 -0.3599  0.1590  0.8526
 1847SOL    HW3 7155   5.856   0.934   6.232 -0.6363  0.2335  0.5232
 1847SOL    MW4 7156   5.873   1.000   6.177 -0.0678  0.0402  0.4652
 1848SOL     OW 7157   0.260   5.382   0.157  0.1423  0.0118 -0.0892
 1848SOL    HW2 7158   0.352   5.408   0.144 -0.4604  2.3263 -0.1688
 1848SOL    HW3 7159   0.214   5.423   0.084 -1.1079 -0.2377  0.5438
 1848SOL    MW4 7160   0.266   5.391   0.146 -0.1022  0.2842 -0.0162
 1849SOL     OW 7161   6.145   3.061   5.943 -0.2950 -0.1800  0.6458
 1849SOL    HW2 7162   6.157   3.011   6.024 -1.0418 -0.7592  0.4118
 1849SOL    HW3 7163   6.139   3.152   5.971 -0.6478 -0.3869  1.2483
 1849SOL    MW4 7164   6.146   3.066   5.958 -0.4400 -0.2837  0.6944
 1850SOL     OW 7165   2.450   4.956   5.916  0.7044  0.3474  0.7088
 1850SOL    HW2 7166   2.521   5.011   5.949  2.3449 -0.7349 -0.8364
 1850SOL    HW3 7167   2.487   4.868   5.912 -0.2700 -0.0437 -1.3424
 1850SOL    MW4 7168   2.464   4.952   5.920  0.7923  0.1530  0.2343
 1851SOL     OW 7169   5.152   2.321   1.780 -0.1481 -0.0058  0.5817
 1851SOL    HW2 7170   5.086   2.286   1.839  0.0291 -2.7372 -0.6928
 1851SOL    HW3 7171   5.233   2.275   1.803  0.1091 -0.5161 -1.1739
 1851SOL    MW4 7172   5.154   2.310   1.791 -0.0908 -0.4335  0.1819
 1852SOL     OW 7173   2.637   0.882   4.808  0.2105 -0.1510 -0.2484
 1852SOL    HW2 7174   2.643   0.879   4.712  2.0950  1.0343 -0.2395
 1852SOL    HW3 7175   2.711   0.829   4.838 -0.1834 -0.2642  0.5414
 1852SOL    MW4 7176   2.648   0.875   4.799  0.4072 -0.0095 -0.1430
 1853SOL     OW 7177   5.936   5.580   0.750 -0.3363 -0.2917  0.5671
 1853SOL    HW2 7178   5.960   5.642   0.819  1.2575  0.2797 -0.4499
 1853SOL    HW3 7179   5.859   5.619   0.708  1.2190  1.5694 -0.6903
 1853SOL    MW4 7180   5.929   5.593   0.753  0.0792  0.0292  0.2670
 1854SOL     OW 7181   5.944   5.142   2.414 -0.5079  0.4455 -0.8599
 1854SOL    HW2 7182   5.989   5.222   2.390 -0.7233  0.6762 -0.5107
 1854SOL    HW3 7183   5.990   5.111   2.493  1.0183 -0.9912 -2.2253
 1854SOL    MW4 7184   5.956   5.148   2.422 -0.3349  0.2864 -0.9940
 1855SOL     OW 7185   6.372   2.224   3.207 -0.1781  0.6743 -0.2454
 1855SOL    HW2 7186   6.342   2.245   3.296 -1.5072  1.8627 -0.9292
 1855SOL    HW3 7187   6.409   2.306   3.174  2.2235 -0.2898 -0.1045
 1855SOL    MW4 7188   6.373   2.238   3.215 -0.0366  0.7039 -0.3170
 1856SOL     OW 7189   0.253   4.279   3.025  0.0058  0.2010  0.3390
 1856SOL    HW2 7190   0.210   4.358   2.994  1.2945  0.9879  0.4986
 1856SOL    HW3 7191   0.307   4.308   3.099  0.8270 -0.7449  0.1301
 1856SOL    MW4 7192   0.254   4.293   3.031  0.2842  0.1800  0.3325
 1857SOL     OW 7193   5.236   1.002   3.751  0.0958  0.5654  0.0058
 1857SOL    HW2 7194   5.177   0.989   3.677 -0.0578  2.2858 -0.2129
 1857SOL    HW3 7195   5.189   1.062   3.809  1.3992  1.6008  0.0512
 1857SOL    MW4 7196   5.222   1.009   3.749  0.2475  0.9290 -0.0171
 1858SOL     OW 7197   2.878   5.692   0.216 -0.5939 -0.0561  0.0341
 1858SOL    HW2 7198   2.969   5.705   0.244 -1.0852 -0.2980  1.8900
 1858SOL    HW3 7199   2.884   5.675   0.122  1.1058  1.8660 -0.2866
 1858SOL    MW4 7200   2.891   5.692   0.208 -0.4345  0.1656  0.2367
 1859SOL     OW 7201   0.138   4.564   4.862 -0.2953  0.5930  0.1503
 1859SOL    HW2 7202   0.094   4.529   4.785  1.3056 -0.1069 -0.4954
 1859SOL    HW3 7203   0.183   4.643   4.830  2.3174 -0.9505 -0.3187
 1859SOL    MW4 7204   0.138   4.570   4.848  0.2606  0.2970  0.0032
 1860SOL     OW 7205   5.925   1.549   2.690 -0.3741  0.6307 -0.6208
 1860SOL    HW2 7206   5.997   1.496   2.657 -0.0725  0.4037  0.3440
 1860SOL    HW3 7207   5.954   1.640   2.676  0.5199  0.5570  0.5446
 1860SOL    MW4 7208   5.939   1.554   2.684 -0.2164  0.5911 -0.3397
 1861SOL     OW 7209   5.851   4.126   1.855  0.4733 -0.3003  0.5046
 1861SOL    HW2 7210   5.793   4.088   1.789 -0.3275  0.8715  0.4970
 1861SOL    HW3 7211   5.792   4.173   1.915  1.3779  0.6626  0.6669
 1861SOL    MW4 7212   5.835   4.128   1.854  0.4870 -0.0186  0.5250
 1862SOL     OW 7213   5.279   4.956   4.039 -0.6607 -0.0005  0.3723
 1862SOL    HW2 7214   5.367   4.921   4.052 -0.3168  0.6034 -0.2106
 1862SOL    HW3 7215   5.247   4.977   4.126 -0.0658  0.1472  0.5543
 1862SOL    MW4 7216   5.286   4.954   4.052 -0.5369  0.0986  0.3194
 1863SOL     OW 7217   5.299   6.392   4.065 -0.7801  0.2697 -0.1996
 1863SOL    HW2 7218   5.238   6.466   4.059 -1.2259 -0.1813 -1.6058
 1863SOL    HW3 7219   5.343   6.405   4.149 -1.2991  1.7791 -0.1165
 1863SOL    MW4 7220   5.297   6.404   4.075 -0.9074  0.4093 -0.3741
 1864SOL     OW 7221   4.475   2.822   3.515 -0.1571  0.2662 -0.2024
 1864SOL    HW2 7222   4.530   2.756   3.557 -1.7622 -0.2077  1.3010
 1864SOL    HW3 7223   4.436   2.777   3.440  0.9344  0.4060 -0.8774
 1864SOL    MW4 7224   4.477   2.807   3.511 -0.2249  0.2221 -0.0931
 1865SOL     OW 7225   3.326   1.596   5.389  0.3958 -0.6626 -0.6121
 1865SOL    HW2 7226   3.269   1.520   5.393 -0.3634 -0.0821  1.7235
 1865SOL    HW3 7227   3.267   1.671   5.398  1.1926  0.1976 -2.1421
 1865SOL    MW4 7228   3.311   1.596   5.391  0.4007 -0.4725 -0.5058
 1866SOL     OW 7229   4.307   3.322   0.213  0.0254 -0.4168  0.3600
 1866SOL    HW2 7230   4.399   3.328   0.189 -0.4445 -0.3051 -1.6113
 1866SOL    HW3 7231   4.283   3.411   0.239  0.0865 -0.0617 -0.7519
 1866SOL    MW4 7232   4.316   3.335   0.213 -0.0285 -0.3552 -0.0468
 1867SOL     OW 7233   0.649   3.917   0.851  0.4513 -1.2466  0.0852
 1867SOL    HW2 7234   0.616   3.833   0.884 -1.0048 -0.8431 -0.2546
 1867SOL    HW3 7235   0.600   3.983   0.901  1.0485 -0.6012 -0.1598
 1867SOL    MW4 7236   0.638   3.915   0.862  0.3380 -1.1082  0.0081
 1868SOL     OW 7237   2.204   4.021   6.391 -0.7307  0.1151  0.1562
 1868SOL    HW2 7238   2.145   4.076   6.340 -0.4020 -0.1208 -0.5027
 1868SOL    HW3 7239   2.240   4.079   6.458 -1.9529  0.1725  0.7798
 1868SOL    MW4 7240   2.201   4.036   6.393 -0.8486  0.0916  0.1516
 1869SOL     OW 7241   5.085   6.013   2.345  0.5313 -0.1759  0.7753
 1869SOL    HW2 7242   5.058   6.084   2.287 -1.2044 -0.3126  1.3784
 1869SOL    HW3 7243   5.006   5.962   2.360  1.8085 -2.5279  0.0099
 1869SOL    MW4 7244   5.071   6.016   2.339  0.4708 -0.5042  0.7539
 1870SOL     OW 7245   6.151   2.334   6.046  0.1281 -0.2476  0.1384
 1870SOL    HW2 7246   6.061   2.313   6.070  0.3350 -1.2752  0.0966
 1870SOL    HW3 7247   6.154   2.429   6.041 -1.2656 -0.2425 -1.0519
 1870SOL    MW4 7248   6.139   2.344   6.049 -0.0285 -0.3825 -0.0241
 1871SOL     OW 7249   5.776   2.177   4.279  0.1799 -0.0398  0.1112
 1871SOL    HW2 7250   5.865   2.172   4.315  0.3898  0.5506 -0.3019
 1871SOL    HW3 7251   5.719   2.173   4.356  0.6206  1.0995  0.5226
 1871SOL    MW4 7252   5.780   2.176   4.294  0.2657  0.1884  0.1110
 1872SOL     OW 7253   3.256   5.755   2.899 -0.3805  0.0996  0.4561
 1872SOL    HW2 7254   3.196   5.798   2.959 -1.4811  0.4802 -0.8496
 1872SOL    HW3 7255   3.287   5.824   2.841  0.1370 -0.3593  0.1655
 1872SOL    MW4 7256   3.252   5.769   2.899 -0.4574  0.0893  0.2455
 1873SOL     OW 7257   5.592   2.533   4.546  0.0408 -0.2568 -0.0488
 1873SOL    HW2 7258   5.597   2.609   4.604 -0.7103 -0.7203  0.6366
 1873SOL    HW3 7259   5.509   2.491   4.567 -0.7690  0.1183 -2.1717
 1873SOL    MW4 7260   5.582   2.538   4.556 -0.1651 -0.2685 -0.2384
 1874SOL     OW 7261   0.426   3.199   5.658  0.0106  0.1080  0.1492
 1874SOL    HW2 7262   0.517   3.174   5.673  0.2372 -0.1428 -1.4612
 1874SOL    HW3 7263   0.375   3.144   5.718  0.8674 -0.3150  0.4946
 1874SOL    MW4 7264   0.431   3.189   5.668  0.1535  0.0191 -0.0177
 1875SOL     OW 7265   2.377   5.469   1.559 -0.4237  0.1074 -0.1198
 1875SOL    HW2 7266   2.286   5.499   1.550 -0.3546  0.1114 -0.8321
 1875SOL    HW3 7267   2.391   5.412   1.484  0.1449  0.0487  0.0268
 1875SOL    MW4 7268   2.367   5.466   1.548 -0.3395  0.1002 -0.1944
 1876SOL     OW 7269   0.583   4.801   3.063  0.0563  0.7098 -0.1583
 1876SOL    HW2 7270   0.579   4.814   3.158  0.8910  0.5391 -0.0917
 1876SOL    HW3 7271   0.536   4.719   3.047  0.3637  0.4677  0.1726
 1876SOL    MW4 7272   0.576   4.792   3.073  0.2070  0.6554 -0.1058
 1877SOL     OW 7273   1.142   4.883   0.792 -0.1721  0.0537 -0.3044
 1877SOL    HW2 7274   1.113   4.828   0.865 -1.0842 -0.5771 -1.1203
 1877SOL    HW3 7275   1.237   4.881   0.797 -0.1014  2.3606  2.5884
 1877SOL    MW4 7276   1.151   4.876   0.802 -0.2831  0.2749 -0.0304
 1878SOL     OW 7277   2.555   2.336   2.568  0.2362  0.2885  0.1618
 1878SOL    HW2 7278   2.604   2.275   2.512 -1.6284 -0.6989 -0.4925
 1878SOL    HW3 7279   2.502   2.387   2.507 -0.3562  0.5938  0.9188
 1878SOL    MW4 7280   2.555   2.335   2.552 -0.0880  0.1985  0.1753
 1879SOL     OW 7281   2.551   0.736   3.102  0.6952 -0.1192 -0.4059
 1879SOL    HW2 7282   2.630   0.698   3.140  0.0203  0.2674  1.4752
 1879SOL    HW3 7283   2.481   0.712   3.163 -0.2949  1.3088 -0.9359
 1879SOL    MW4 7284   2.552   0.728   3.115  0.4755  0.1202 -0.2276
 1880SOL     OW 7285   5.148   0.439   2.662  0.6001  0.2515  0.0140
 1880SOL    HW2 7286   5.061   0.417   2.630  0.0476  0.2010  1.4960
 1880SOL    HW3 7287   5.193   0.476   2.586 -0.3186 -0.7736 -1.0631
 1880SOL    MW4 7288   5.142   0.441   2.648  0.4060  0.1096  0.0674
 1881SOL     OW 7289   5.745   0.629   0.019  0.5127  0.0924  0.1473
 1881SOL    HW2 7290   5.791   0.590   0.094 -1.1629 -0.6848  0.8026
 1881SOL    HW3 7291   5.748   0.561  -0.048 -1.1417 -0.6581  0.7908
 1881SOL    MW4 7292   5.752   0.615   0.020  0.0734 -0.1092  0.3187
 1882SOL     OW 7293   1.859   0.603   1.844  0.7299 -0.1803  0.1697
 1882SOL    HW2 7294   1.803   0.532   1.812  0.3867  0.7961 -1.5543
 1882SOL    HW3 7295   1.945   0.563   1.856  0.3225 -1.0883  0.1141
 1882SOL    MW4 7296   1.863   0.588   1.841  0.6309 -0.1713 -0.0651
 1883SOL     OW 7297   2.773   0.979   3.119 -0.2242  0.1433  0.0711
 1883SOL    HW2 7298   2.685   1.003   3.091  0.1547  0.8320 -0.5630
 1883SOL    HW3 7299   2.770   0.986   3.215 -0.9457 -0.1656  0.0753
 1883SOL    MW4 7300   2.761   0.983   3.128 -0.2694  0.1934 -0.0120
 1884SOL     OW 7301   5.450   5.807   1.998 -0.4636  0.0455  0.4567
 1884SOL    HW2 7302   5.402   5.832   1.919 -0.9446 -0.4109  0.6061
 1884SOL    HW3 7303   5.384   5.806   2.067 -0.5409 -1.9843  0.4007
 1884SOL    MW4 7304   5.435   5.810   1.996 -0.5372 -0.2825  0.4690
 1885SOL     OW 7305   1.197   4.095   5.540 -0.3772 -0.3870  0.0852
 1885SOL    HW2 7306   1.182   4.166   5.477  1.5144 -0.5138 -0.5979
 1885SOL    HW3 7307   1.274   4.124   5.589  0.2835 -1.8496 -0.0453
 1885SOL    MW4 7308   1.205   4.109   5.538 -0.0404 -0.5967 -0.0222
 1886SOL     OW 7309   5.162   1.843   6.288 -0.4091 -0.1355 -0.2088
 1886SOL    HW2 7310   5.109   1.805   6.217 -0.6255 -0.4631  0.1245
 1886SOL    HW3 7311   5.141   1.936   6.286 -0.1958 -0.0922 -0.7605
 1886SOL    MW4 7312   5.152   1.850   6.278 -0.4095 -0.1730 -0.2376
 1887SOL     OW 7313   0.826   4.053   0.350  0.4605 -0.0730 -0.2113
 1887SOL    HW2 7314   0.821   4.034   0.444  0.9342 -0.6077 -0.2892
 1887SOL    HW3 7315   0.917   4.035   0.327  1.0206  2.4636 -0.2737
 1887SOL    MW4 7316   0.837   4.048   0.359  0.5969  0.1911 -0.2298
 1888SOL     OW 7317   0.626   5.873   4.743 -0.2060  0.1429  0.2945
 1888SOL    HW2 7318   0.702   5.900   4.691 -0.3866 -0.9636 -0.5692
 1888SOL    HW3 7319   0.552   5.919   4.703 -0.0959  0.7714  0.7815
 1888SOL    MW4 7320   0.626   5.883   4.731 -0.2153  0.0799  0.2448
 1889SOL     OW 7321   1.752   4.727   3.622  0.5254 -0.0573 -0.3732
 1889SOL    HW2 7322   1.785   4.760   3.539 -0.5441 -1.0283 -1.2286
 1889SOL    HW3 7323   1.664   4.695   3.602  0.3935 -0.6833  1.0436
 1889SOL    MW4 7324   1.744   4.727   3.609  0.3669 -0.2680 -0.2991
 1890SOL     OW 7325   5.963   4.659   2.674 -0.0679  0.0155 -0.4138
 1890SOL    HW2 7326   5.952   4.709   2.593  1.6669  1.6438  0.3032
 1890SOL    HW3 7327   5.920   4.712   2.741  1.4158  0.3985  0.2796
 1890SOL    MW4 7328   5.956   4.673   2.672  0.3567  0.2809 -0.2277
 1891SOL     OW 7329   3.029   5.243   6.363  0.3663 -0.6895  0.7058
 1891SOL    HW2 7330   3.045   5.337   6.370 -0.1592 -0.5953  0.7160
 1891SOL    HW3 7331   3.116   5.204   6.357  0.5547 -0.1011 -0.7010
 1891SOL    MW4 7332   3.042   5.251   6.363  0.3218 -0.5995  0.5215
 1892SOL     OW 7333   4.903   1.839   5.907  0.7214  0.0914  0.4266
 1892SOL    HW2 7334   4.916   1.931   5.928  0.8949  0.2158 -0.2341
 1892SOL    HW3 7335   4.809   1.825   5.920  0.6791  0.3814  0.4321
 1892SOL    MW4 7336   4.892   1.849   5.912  0.7387  0.1461  0.3401
 1893SOL     OW 7337   5.293   0.929   5.974 -0.2551 -0.0806 -0.3982
 1893SOL    HW2 7338   5.371   0.904   5.923 -0.2759 -1.9056  0.4009
 1893SOL    HW3 7339   5.321   1.006   6.022  0.2971  0.6927 -1.8807
 1893SOL    MW4 7340   5.307   0.936   5.973 -0.1850 -0.2194 -0.4884
 1894SOL     OW 7341   5.456   0.055   4.898  0.3049 -0.3983  0.3092
 1894SOL    HW2 7342   5.520   0.017   4.958 -1.1244  0.2394  2.3382
 1894SOL    HW3 7343   5.401  -0.019   4.871 -1.5887 -0.2087  3.1378
 1894SOL    MW4 7344   5.457   0.040   4.902 -0.1335 -0.2891  0.9501
 1895SOL     OW 7345   1.224   4.505   1.776 -0.0257 -0.6584  0.3897
 1895SOL    HW2 7346   1.319   4.505   1.786  0.0740 -0.4375 -0.4637
 1895SOL    HW3 7347   1.194   4.429   1.827  0.6162 -0.8076  0.5478
 1895SOL    MW4 7348   1.232   4.495   1.784  0.0721 -0.6490  0.2979
 1896SOL     OW 7349   0.906   6.307   6.406  0.3096  0.1683  0.2406
 1896SOL    HW2 7350   0.962   6.385   6.413 -0.8509  1.1206 -0.7325
 1896SOL    HW3 7351   0.907   6.270   6.494  1.9623  0.4975  0.4063
 1896SOL    MW4 7352   0.914   6.312   6.419  0.3745  0.3374  0.1341
 1897SOL     OW 7353   4.636   1.886   0.186  0.5155  0.1515  0.0450
 1897SOL    HW2 7354   4.610   1.976   0.205  2.9955  0.8137  0.6735
 1897SOL    HW3 7355   4.604   1.835   0.260 -0.4418  0.6029 -0.0496
 1897SOL    MW4 7356   4.628   1.891   0.198  0.7164  0.2984  0.1155
 1898SOL     OW 7357   5.975   3.165   3.105 -0.3515  0.3638  0.4940
 1898SOL    HW2 7358   5.975   3.078   3.146 -3.0025  0.0622  0.0300
 1898SOL    HW3 7359   5.904   3.212   3.148  0.1553  1.8438 -0.2298
 1898SOL    MW4 7360   5.966   3.160   3.116 -0.6344  0.5193  0.3373
 1899SOL     OW 7361   0.865   0.794   2.821  0.4245  0.2602  0.3902
 1899SOL    HW2 7362   0.863   0.712   2.772  0.1827  0.1250  0.6214
 1899SOL    HW3 7363   0.778   0.802   2.859  0.8725 -0.1354  1.5853
 1899SOL    MW4 7364   0.854   0.784   2.820  0.4517  0.1901  0.5784
 1900SOL     OW 7365   5.953   1.396   1.269 -0.8194  0.0156  0.0134
 1900SOL    HW2 7366   5.988   1.317   1.311 -0.4326  0.1797  0.0102
 1900SOL    HW3 7367   6.017   1.416   1.201 -1.4717 -0.2719 -0.6833
 1900SOL    MW4 7368   5.966   1.388   1.266 -0.8545 -0.0007 -0.0790
 1901SOL     OW 7369   1.827   0.186   1.681 -0.2450 -1.0724 -0.5458
 1901SOL    HW2 7370   1.883   0.178   1.759 -0.5476 -0.5081 -0.2630
 1901SOL    HW3 7371   1.859   0.119   1.621  2.1754  0.5599 -1.2591
 1901SOL    MW4 7372   1.839   0.176   1.683  0.0344 -0.7826 -0.6026
 1902SOL     OW 7373   0.329   5.255   6.153 -0.1550 -0.1409  0.2213
 1902SOL    HW2 7374   0.318   5.259   6.058  1.4896 -1.9840 -0.1192
 1902SOL    HW3 7375   0.243   5.227   6.185 -0.6086  0.0707 -0.7554
 1902SOL    MW4 7376   0.316   5.252   6.144  0.0022 -0.3562  0.0475
 1903SOL     OW 7377   3.641   0.596   0.408  1.1098 -0.7328 -0.0031
 1903SOL    HW2 7378   3.568   0.568   0.463  1.0773  1.4723  1.1855
 1903SOL    HW3 7379   3.645   0.531   0.338 -2.3099 -0.6780 -0.4056
 1903SOL    MW4 7380   3.632   0.584   0.406  0.6543 -0.4346  0.1006
 1904SOL     OW 7381   4.654   1.776   1.071 -0.0696 -0.1641 -0.1206
 1904SOL    HW2 7382   4.593   1.813   1.008 -0.8779  0.4444  0.9777
 1904SOL    HW3 7383   4.606   1.777   1.154  0.7454 -1.4916  0.4006
 1904SOL    MW4 7384   4.640   1.781   1.074 -0.0687 -0.2590  0.0931
 1905SOL     OW 7385   5.560   4.180   5.235 -0.2578 -0.3415  0.3777
 1905SOL    HW2 7386   5.561   4.108   5.299  0.9782  0.1120  0.8958
 1905SOL    HW3 7387   5.630   4.159   5.174 -0.2656  0.1428  0.1988
 1905SOL    MW4 7388   5.569   4.168   5.236 -0.0958 -0.2177  0.4225
 1906SOL     OW 7389   1.370   0.354   0.947 -0.3883 -0.0893 -0.2018
 1906SOL    HW2 7390   1.452   0.329   0.907 -0.3966  0.5024 -0.6075
 1906SOL    HW3 7391   1.386   0.442   0.982 -1.2450  0.6271 -1.5317
 1906SOL    MW4 7392   1.383   0.362   0.947 -0.5024  0.0833 -0.4308
 1907SOL     OW 7393   4.341   1.139   1.940 -0.3232 -0.4457 -0.1960
 1907SOL    HW2 7394   4.293   1.111   1.862  1.8099 -0.2103 -1.6665
 1907SOL    HW3 7395   4.350   1.059   1.992 -1.1946 -0.7524 -0.5013
 1907SOL    MW4 7396   4.336   1.124   1.936 -0.1567 -0.4551 -0.4303
 1908SOL     OW 7397   1.428   4.945   5.400 -0.2849 -0.3261 -0.4632
 1908SOL    HW2 7398   1.467   4.982   5.480  1.4260  1.0531 -1.8618
 1908SOL    HW3 7399   1.343   4.987   5.394  1.0768  2.5922 -1.3012
 1908SOL    MW4 7400   1.422   4.956   5.410  0.1205  0.2409 -0.7583
 1909SOL     OW 7401   0.631   2.913   1.746  0.1619 -0.1468 -0.1818
 1909SOL    HW2 7402   0.647   2.950   1.659  0.2605 -0.2859 -0.2219
 1909SOL    HW3 7403   0.566   2.844   1.731 -0.0624  0.0454 -0.0989
 1909SOL    MW4 7404   0.624   2.909   1.732  0.1453 -0.1398 -0.1762
 1910SOL     OW 7405   2.574   4.978   3.924 -0.0380  0.2461  0.4632
 1910SOL    HW2 7406   2.497   4.976   3.981  0.0760  3.4224  0.9506
 1910SOL    HW3 7407   2.539   4.991   3.836 -0.1363 -3.0238 -0.1125
 1910SOL    MW4 7408   2.559   4.980   3.920 -0.0360  0.2338  0.4515
 1911SOL     OW 7409   3.346   5.443   1.802 -0.8245  0.3424  0.3128
 1911SOL    HW2 7410   3.323   5.407   1.887  2.5478  2.1046  2.1881
 1911SOL    HW3 7411   3.346   5.538   1.815  0.6965  0.6298 -1.3419
 1911SOL    MW4 7412   3.343   5.451   1.815 -0.1788  0.6128  0.3419
 1912SOL     OW 7413   2.811   3.640   0.673 -0.2138  0.1691  1.0531
 1912SOL    HW2 7414   2.779   3.552   0.651  2.3328 -1.3246  2.7500
 1912SOL    HW3 7415   2.791   3.650   0.766 -0.3833  1.4019  0.9044
 1912SOL    MW4 7416   2.804   3.630   0.682  0.0998  0.1347  1.2573
 1913SOL     OW 7417   0.241   4.635   3.153 -0.3770  0.4566 -0.2933
 1913SOL    HW2 7418   0.217   4.599   3.239 -0.5442  0.9259 -0.1409
 1913SOL    HW3 7419   0.250   4.729   3.168  0.4622  0.4332 -0.5991
 1913SOL    MW4 7420   0.239   4.643   3.166 -0.2883  0.5154 -0.3135
 1914SOL     OW 7421   2.096   1.004   5.592  0.3542 -0.0129  1.1542
 1914SOL    HW2 7422   2.093   0.985   5.686  0.3086  0.8974  1.3474
 1914SOL    HW3 7423   2.039   0.939   5.553 -2.1552  1.4859  2.0924
 1914SOL    MW4 7424   2.088   0.993   5.600  0.0171  0.3049  1.3035
 1915SOL     OW 7425   4.203   5.105   3.289  0.0662 -0.1005 -0.2889
 1915SOL    HW2 7426   4.241   5.191   3.305 -1.1046  0.3716  0.0713
 1915SOL    HW3 7427   4.133   5.121   3.225 -3.3366  0.1401  3.0834
 1915SOL    MW4 7428   4.199   5.119   3.283 -0.5372 -0.0064  0.2036
 1916SOL     OW 7429   6.196   4.049   3.356 -0.1299  0.1379 -0.4533
 1916SOL    HW2 7430   6.224   4.103   3.431  0.1463 -1.0921  0.3555
 1916SOL    HW3 7431   6.101   4.047   3.363 -0.1591  0.6921 -0.6170
 1916SOL    MW4 7432   6.188   4.056   3.367 -0.0973  0.0487 -0.3682
 1917SOL     OW 7433   0.785   3.618   2.617 -0.9556 -0.0024 -0.7266
 1917SOL    HW2 7434   0.760   3.686   2.680 -2.1084  0.3562 -1.5400
 1917SOL    HW3 7435   0.767   3.535   2.663  2.1381  0.1171  0.9599
 1917SOL    MW4 7436   0.779   3.616   2.632 -0.6995  0.0607 -0.6114
 1918SOL     OW 7437   2.132   5.509   3.236  0.0726 -0.0580 -0.1473
 1918SOL    HW2 7438   2.187   5.575   3.193  0.3346 -1.5542 -2.2721
 1918SOL    HW3 7439   2.193   5.439   3.260 -0.1158  0.6177  2.5653
 1918SOL    MW4 7440   2.148   5.508   3.233  0.0823 -0.1662 -0.0697
 1919SOL     OW 7441   3.838   6.372   4.188 -0.1832  0.0202 -0.1953
 1919SOL    HW2 7442   3.918   6.425   4.191  0.7190 -1.1725 -1.5863
 1919SOL    HW3 7443   3.795   6.398   4.107 -0.6428 -0.1378 -0.0037
 1919SOL    MW4 7444   3.843   6.382   4.178 -0.1248 -0.1580 -0.3536
 1920SOL     OW 7445   5.721   4.280   4.160 -0.0623 -0.0308 -0.5712
 1920SOL    HW2 7446   5.715   4.230   4.079 -1.5676 -1.4165  0.3419
 1920SOL    HW3 7447   5.794   4.242   4.207  0.4779  0.4257 -1.0274
 1920SOL    MW4 7448   5.730   4.269   4.156 -0.1896 -0.1534 -0.5109
 1921SOL     OW 7449   4.439   1.303   4.290 -0.4781 -0.1107  0.0534
 1921SOL    HW2 7450   4.423   1.209   4.292 -1.6412  0.0572 -0.8042
 1921SOL    HW3 7451   4.529   1.311   4.257 -0.1454 -0.9178  0.7143
 1921SOL    MW4 7452   4.449   1.292   4.286 -0.5877 -0.1950  0.0274
 1922SOL     OW 7453   6.241   3.589   5.708 -0.3845  0.0086 -0.1444
 1922SOL    HW2 7454   6.222   3.504   5.668  0.1832 -0.2492  0.1227
 1922SOL    HW3 7455   6.182   3.595   5.782 -1.0057  0.2146 -0.6447
 1922SOL    MW4 7456   6.231   3.579   5.712 -0.3916  0.0018 -0.1752
 1923SOL     OW 7457   2.168   0.120   2.198 -0.6251  0.4921  0.3487
 1923SOL    HW2 7458   2.154   0.086   2.286  1.7752 -0.5342  0.4102
 1923SOL    HW3 7459   2.167   0.215   2.208  1.4884  0.4171  1.8811
 1923SOL    MW4 7460   2.166   0.128   2.211 -0.0296  0.3468  0.5590
 1924SOL     OW 7461   1.085   3.214   1.991 -0.2076 -0.0593 -0.1539
 1924SOL    HW2 7462   1.148   3.286   1.990 -0.4596  0.1634 -0.1434
 1924SOL    HW3 7463   1.139   3.135   1.985 -0.0510  0.1653 -3.2747
 1924SOL    MW4 7464   1.101   3.213   1.990 -0.2202 -0.0003 -0.5642
 1925SOL     OW 7465   1.707   6.021   0.030  0.1814 -0.5458 -0.4265
 1925SOL    HW2 7466   1.659   6.091   0.075 -1.3194 -0.5198 -1.9290
 1925SOL    HW3 7467   1.796   6.054   0.021 -0.0014  0.3018  0.6539
 1925SOL    MW4 7468   1.712   6.034   0.035 -0.0408 -0.4305 -0.4822
 1926SOL     OW 7469   4.479   5.300   1.114  0.3197 -0.0005 -0.4126
 1926SOL    HW2 7470   4.398   5.349   1.129  1.1895  1.0282  1.3104
 1926SOL    HW3 7471   4.511   5.332   1.029 -0.5660  0.2989 -0.6446
 1926SOL    MW4 7472   4.472   5.311   1.105  0.3176  0.1747 -0.2159
 1927SOL     OW 7473   1.072   1.094   2.373 -0.3691  0.1691  0.0950
 1927SOL    HW2 7474   1.085   1.135   2.458 -0.0853  1.9892 -0.7730
 1927SOL    HW3 7475   0.980   1.067   2.372 -0.2687 -0.2428  1.1069
 1927SOL    MW4 7476   1.062   1.096   2.384 -0.3184  0.3549  0.1140
 1928SOL     OW 7477   0.640   1.134   3.412 -0.0162 -0.1413  0.2233
 1928SOL    HW2 7478   0.667   1.100   3.498  1.4536  0.3211 -0.0268
 1928SOL    HW3 7479   0.720   1.131   3.359 -0.8815 -0.3522 -1.1222
 1928SOL    MW4 7480   0.654   1.129   3.417  0.0635 -0.1081  0.0128
 1929SOL     OW 7481   2.040   0.730   4.160  0.4747 -0.1930 -0.4399
 1929SOL    HW2 7482   2.131   0.758   4.159  0.1760  0.8563  0.3686
 1929SOL    HW3 7483   2.011   0.739   4.069  0.8276  0.6858 -0.4754
 1929SOL    MW4 7484   2.048   0.735   4.148  0.4819  0.0614 -0.3379
 1930SOL     OW 7485   3.595   0.677   6.063 -0.5231  0.8220 -0.0448
 1930SOL    HW2 7486   3.594   0.594   6.016  1.1617 -0.4809  2.0287
 1930SOL    HW3 7487   3.601   0.743   5.994  2.1503 -0.9601 -1.7500
 1930SOL    MW4 7488   3.596   0.675   6.048  0.0519  0.4150  0.0038
 1931SOL     OW 7489   5.554   2.941   6.340  0.4291  0.9647 -0.3590
 1931SOL    HW2 7490   5.475   2.976   6.382  0.1904  0.5756 -0.4770
 1931SOL    HW3 7491   5.578   3.007   6.275  1.0146  1.7491  0.6258
 1931SOL    MW4 7492   5.546   2.954   6.337  0.4748  1.0169 -0.2446
 1932SOL     OW 7493   4.826   0.222   0.803 -0.2184 -0.7634 -0.8094
 1932SOL    HW2 7494   4.881   0.147   0.779  2.6853  1.0711 -0.3223
 1932SOL    HW3 7495   4.823   0.275   0.723  1.7650  0.8261  0.0650
 1932SOL    MW4 7496   4.833   0.219   0.789  0.4264 -0.3116 -0.6298
 1933SOL     OW 7497   2.188   5.460   2.053  0.2678  0.2248  0.2799
 1933SOL    HW2 7498   2.106   5.476   2.007 -0.3265  1.3415  1.6432
 1933SOL    HW3 7499   2.185   5.367   2.076 -0.7084  0.2935  0.4783
 1933SOL    MW4 7500   2.177   5.450   2.050  0.0606  0.3812  0.4860
 1934SOL     OW 7501   0.489   1.811   4.004  0.0624  0.4012 -0.3137
 1934SOL    HW2 7502   0.583   1.815   4.026 -0.2565  0.0502  1.2322
 1934SOL    HW3 7503   0.487   1.820   3.909  1.7895 -1.2781 -0.5697
 1934SOL    MW4 7504   0.501   1.813   3.994  0.2482  0.1333 -0.1435
 1935SOL     OW 7505   5.266   1.584   3.165 -0.2429 -0.3130  0.0317
 1935SOL    HW2 7506   5.277   1.639   3.243  1.0147  0.9603 -0.9852
 1935SOL    HW3 7507   5.333   1.516   3.174 -0.3390 -0.3792  0.2428
 1935SOL    MW4 7508   5.277   1.582   3.176 -0.0897 -0.1537 -0.0746
 1936SOL     OW 7509   0.408   5.691   2.075 -0.0782  0.0238 -0.1024
 1936SOL    HW2 7510   0.470   5.764   2.075  1.3945 -1.1356  1.1663
 1936SOL    HW3 7511   0.459   5.616   2.043 -0.8115 -0.9546  0.9192
 1936SOL    MW4 7512   0.423   5.691   2.071  0.0194 -0.2582  0.1998
 1937SOL     OW 7513   5.371   0.428   5.634  0.0398 -0.5748  0.3350
 1937SOL    HW2 7514   5.278   0.410   5.639  0.4598 -3.1463  0.2609
 1937SOL    HW3 7515   5.389   0.440   5.541 -0.1715 -0.1640  0.3430
 1937SOL    MW4 7516   5.361   0.428   5.622  0.0673 -0.8599  0.3263
 1938SOL     OW 7517   4.860   0.404   2.717 -0.1315  0.4664  0.3039
 1938SOL    HW2 7518   4.889   0.320   2.753 -0.3792 -0.0325 -0.6153
 1938SOL    HW3 7519   4.770   0.388   2.690  0.2392  0.6053 -1.1128
 1938SOL    MW4 7520   4.852   0.391   2.718 -0.1153  0.4189 -0.0043
 1939SOL     OW 7521   6.134   1.538   4.307 -0.4156 -0.7576 -0.4753
 1939SOL    HW2 7522   6.108   1.467   4.366 -1.1356  0.0021  0.1431
 1939SOL    HW3 7523   6.100   1.511   4.221 -0.7622 -1.1203 -0.2299
 1939SOL    MW4 7524   6.126   1.525   4.303 -0.5564 -0.7052 -0.3613
 1940SOL     OW 7525   2.521   1.149   5.645 -0.0237  0.2935 -0.4410
 1940SOL    HW2 7526   2.580   1.168   5.572  0.7566  3.5599  0.8281
 1940SOL    HW3 7527   2.434   1.167   5.612  0.0898 -0.5425 -1.2058
 1940SOL    MW4 7528   2.518   1.154   5.631  0.0942  0.6142 -0.3745
 1941SOL     OW 7529   3.105   2.617   0.741  0.4629 -0.1459 -0.0737
 1941SOL    HW2 7530   3.154   2.586   0.664  1.7583 -0.5231  0.8665
 1941SOL    HW3 7531   3.018   2.580   0.730  0.5165  0.0655 -1.5112
 1941SOL    MW4 7532   3.100   2.608   0.729  0.6409 -0.1678 -0.1393
 1942SOL     OW 7533   2.510   3.379   4.738  0.2414 -0.4380  0.1499
 1942SOL    HW2 7534   2.416   3.392   4.726  0.5832  2.0105 -0.4153
 1942SOL    HW3 7535   2.536   3.325   4.663 -0.6873 -1.1063  0.2940
 1942SOL    MW4 7536   2.501   3.374   4.726  0.1640 -0.2032  0.0943
 1943SOL     OW 7537   5.040   0.784   3.365  0.1724  0.0624 -0.8555
 1943SOL    HW2 7538   4.964   0.727   3.376  1.4139 -1.9819 -2.1494
 1943SOL    HW3 7539   5.026   0.826   3.280  0.0090  0.4876 -0.6204
 1943SOL    MW4 7540   5.028   0.782   3.355  0.3146 -0.1512 -0.9952
 1944SOL     OW 7541   1.207   4.371   0.720 -0.3106  1.0175 -0.4873
 1944SOL    HW2 7542   1.238   4.420   0.644  1.5109  1.6793  0.6246
 1944SOL    HW3 7543   1.235   4.422   0.796 -3.1574  1.0263  0.6997
 1944SOL    MW4 7544   1.214   4.384   0.720 -0.4459  1.1060 -0.1840
 1945SOL     OW 7545   5.912   4.844   4.797 -0.5684  0.5892  0.3522
 1945SOL    HW2 7546   5.913   4.779   4.868 -1.0978 -0.1619 -0.3131
 1945SOL    HW3 7547   5.834   4.896   4.813 -0.3434  0.8350  0.6759
 1945SOL    MW4 7548   5.902   4.842   4.809 -0.6086  0.5225  0.3071
 1946SOL     OW 7549   0.820   5.915   4.518 -0.0115 -0.2934 -0.6843
 1946SOL    HW2 7550   0.881   5.949   4.583 -0.1754 -0.5819 -0.3787
 1946SOL    HW3 7551   0.843   5.823   4.509 -0.3047 -0.3680 -0.6772
 1946SOL    MW4 7552   0.831   5.907   4.525 -0.0718 -0.3413 -0.6430
 1947SOL     OW 7553   5.297   1.978   0.804  0.3287 -0.3942  0.3479
 1947SOL    HW2 7554   5.267   1.990   0.894 -1.0065 -1.2945  0.0586
 1947SOL    HW3 7555   5.392   1.973   0.810  0.3366  0.6657  1.5594
 1947SOL    MW4 7556   5.306   1.979   0.817  0.1536 -0.3732  0.4695
 1948SOL     OW 7557   3.039   0.219   0.077 -0.4933 -0.1544 -0.5961
 1948SOL    HW2 7558   2.947   0.193   0.082 -0.3442 -0.8524 -1.2131
 1948SOL    HW3 7559   3.088   0.138   0.092  0.0665  0.4765  1.2284
 1948SOL    MW4 7560   3.033   0.205   0.079 -0.3997 -0.1632 -0.4368
 1949SOL     OW 7561   2.740   4.702   2.139 -0.3884 -0.3577 -0.3593
 1949SOL    HW2 7562   2.664   4.672   2.189 -1.8853  1.3781 -1.4748
 1949SOL    HW3 7563   2.751   4.794   2.164  2.6529 -1.0243  1.2612
 1949SOL    MW4 7564   2.731   4.710   2.149 -0.1846 -0.2167 -0.2927
 1950SOL     OW 7565   4.186   0.646   4.178 -0.0581 -0.0132 -0.0385
 1950SOL    HW2 7566   4.201   0.668   4.270 -1.0292 -2.2316  0.7238
 1950SOL    HW3 7567   4.122   0.710   4.148  0.0754  0.5836  0.8901
 1950SOL    MW4 7568   4.180   0.657   4.186 -0.1686 -0.2272  0.1846
 1951SOL     OW 7569   6.142   1.580   6.192 -0.0024  0.1246  0.3379
 1951SOL    HW2 7570   6.215   1.641   6.196 -0.2219  0.4678 -0.5968
 1951SOL    HW3 7571   6.171   1.504   6.243  0.9818  0.2745  0.0134
 1951SOL    MW4 7572   6.156   1.578   6.199  0.0985  0.1896  0.1717
 1952SOL     OW 7573   6.159   3.309   1.841  0.0228  0.2608 -0.8928
 1952SOL    HW2 7574   6.146   3.219   1.869  0.0262 -0.1852 -2.2931
 1952SOL    HW3 7575   6.201   3.303   1.756 -0.4255  1.5830 -1.2379
 1952SOL    MW4 7576   6.163   3.297   1.834 -0.0359  0.3764 -1.1231
 1953SOL     OW 7577   0.087   1.121   4.779 -0.0583 -0.2958 -0.0151
 1953SOL    HW2 7578   0.097   1.166   4.863  2.1412 -1.0278  0.1887
 1953SOL    HW3 7579  -0.007   1.107   4.770 -0.4840  1.2273  1.5456
 1953SOL    MW4 7580   0.076   1.125   4.789  0.1757 -0.1914  0.2177
 1954SOL     OW 7581   5.447   4.331   4.997 -0.4285  0.1510 -0.2480
 1954SOL    HW2 7582   5.499   4.291   5.067  1.6631  2.2525 -0.4766
 1954SOL    HW3 7583   5.358   4.337   5.034  0.7680  1.9900  2.6961
 1954SOL    MW4 7584   5.442   4.327   5.011  0.0053  0.6709  0.1103
 1955SOL     OW 7585   2.816   5.224   2.367 -0.2198 -0.6225  0.5181
 1955SOL    HW2 7586   2.727   5.251   2.344  0.1595  0.2128 -0.0470
 1955SOL    HW3 7587   2.851   5.186   2.286  0.4458  0.4793  0.2611
 1955SOL    MW4 7588   2.809   5.223   2.353 -0.0820 -0.3669  0.4096
 1956SOL     OW 7589   2.035   1.101   5.198 -0.0457  0.3514 -0.6680
 1956SOL    HW2 7590   1.990   1.016   5.200 -1.0641  0.8685 -0.8152
 1956SOL    HW3 7591   2.109   1.091   5.257 -1.0488 -0.1551  0.5411
 1956SOL    MW4 7592   2.039   1.088   5.206 -0.3124  0.3528 -0.5279
 1957SOL     OW 7593   2.824   3.041   3.675 -0.1694  0.3447  0.0640
 1957SOL    HW2 7594   2.841   3.084   3.759  1.2517  0.5342 -0.2856
 1957SOL    HW3 7595   2.742   2.994   3.688  0.5513 -0.5010  1.9049
 1957SOL    MW4 7596   2.816   3.041   3.688  0.1132  0.2581  0.2608
 1958SOL     OW 7597   6.403   1.641   4.362 -0.0884 -0.5183 -0.7490
 1958SOL    HW2 7598   6.319   1.601   4.336  1.2794 -1.4198 -4.4811
 1958SOL    HW3 7599   6.440   1.579   4.425 -1.6646 -0.7126  0.0468
 1958SOL    MW4 7600   6.397   1.628   4.367 -0.1159 -0.6629 -1.1364
 1959SOL     OW 7601   2.103   3.868   4.428 -0.8058  0.0838 -0.8382
 1959SOL    HW2 7602   2.105   3.799   4.495 -1.7126 -0.1155 -1.0085
 1959SOL    HW3 7603   2.029   3.923   4.453  0.1662  1.2609 -0.4626
 1959SOL    MW4 7604   2.093   3.866   4.441 -0.7972  0.2128 -0.8111
 1960SOL     OW 7605   1.389   3.748   4.217  0.5128  0.1974  0.0957
 1960SOL    HW2 7606   1.323   3.700   4.165  2.1818 -1.5196 -0.5564
 1960SOL    HW3 7607   1.356   3.838   4.220 -1.2404 -0.3329 -1.2427
 1960SOL    MW4 7608   1.376   3.753   4.211  0.5017 -0.0991 -0.1669
 1961SOL     OW 7609   2.897   1.925   4.791 -0.1935  0.2952 -0.2655
 1961SOL    HW2 7610   2.880   2.018   4.773 -0.4004 -0.1318 -2.4650
 1961SOL    HW3 7611   2.895   1.920   4.887  0.3575  2.6480 -0.0514
 1961SOL    MW4 7612   2.894   1.937   4.802 -0.1481  0.5493 -0.5275
 1962SOL     OW 7613   1.411   6.075   3.080 -0.9527 -0.4302  0.2299
 1962SOL    HW2 7614   1.444   6.067   3.169 -0.7659 -0.8273  0.1287
 1962SOL    HW3 7615   1.452   6.154   3.046 -0.1251 -0.8954  0.1174
 1962SOL    MW4 7616   1.421   6.084   3.087 -0.8189 -0.5439  0.2017
 1963SOL     OW 7617   1.612   4.328   0.351 -0.3732 -0.4772 -0.5736
 1963SOL    HW2 7618   1.584   4.320   0.260 -0.5676  1.0514 -0.6758
 1963SOL    HW3 7619   1.622   4.422   0.365  1.5985 -0.7884  0.4178
 1963SOL    MW4 7620   1.609   4.340   0.341 -0.1387 -0.3166 -0.4563
 1964SOL     OW 7621   3.051   5.088   4.890  0.7156 -0.0346  0.7945
 1964SOL    HW2 7622   3.090   5.138   4.818 -0.0289 -2.0040 -1.0931
 1964SOL    HW3 7623   3.097   5.005   4.889 -1.6366 -1.4304  0.2162
 1964SOL    MW4 7624   3.062   5.084   4.880  0.3071 -0.4786  0.4691
 1965SOL     OW 7625   1.370   1.894   3.405  0.2139  0.0753  0.0992
 1965SOL    HW2 7626   1.451   1.860   3.443  0.6558  1.0470  0.0554
 1965SOL    HW3 7627   1.318   1.816   3.388  1.0918 -0.5654  0.2344
 1965SOL    MW4 7628   1.374   1.879   3.408  0.3880  0.1190  0.1112
 1966SOL     OW 7629   3.859   1.358   4.964  0.0488 -0.4082  0.2479
 1966SOL    HW2 7630   3.933   1.323   4.913  0.2785 -1.4253  1.2407
 1966SOL    HW3 7631   3.895   1.435   5.007 -0.1490  0.4774 -1.0971
 1966SOL    MW4 7632   3.874   1.363   4.963  0.0530 -0.4255  0.2015
 1967SOL     OW 7633   0.258   1.727   5.410 -0.3217  0.3241 -0.3646
 1967SOL    HW2 7634   0.253   1.814   5.451  3.6105  0.5914 -0.1097
 1967SOL    HW3 7635   0.237   1.743   5.318  0.1522  1.5395 -0.2877
 1967SOL    MW4 7636   0.254   1.741   5.403  0.2597  0.5197 -0.3208
 1968SOL     OW 7637   5.355   3.128   2.924  0.1086 -0.1229  0.1294
 1968SOL    HW2 7638   5.406   3.120   3.004  1.0588  1.0738 -0.3385
 1968SOL    HW3 7639   5.286   3.062   2.933 -0.2225  0.4390  2.2392
 1968SOL    MW4 7640   5.352   3.118   2.935  0.1903  0.1091  0.3461
 1969SOL     OW 7641   4.168   5.477   2.830 -0.1205  0.2180 -0.4969
 1969SOL    HW2 7642   4.229   5.492   2.759 -0.5057 -1.8755 -1.3557
 1969SOL    HW3 7643   4.222   5.475   2.909  0.7544 -0.3901 -1.0980
 1969SOL    MW4 7644   4.183   5.479   2.831 -0.0559 -0.1385 -0.6895
 1970SOL     OW 7645   1.406   4.546   6.296 -0.3978  0.1252 -0.0328
 1970SOL    HW2 7646   1.501   4.547   6.278  0.1972 -0.2166  2.6865
 1970SOL    HW3 7647   1.381   4.638   6.294  0.2266  0.3125  0.3009
 1970SOL    MW4 7648   1.415   4.558   6.293 -0.2369  0.1048  0.3700
 1971SOL     OW 7649   6.046   0.844   2.586  0.0815  0.3627  0.1610
 1971SOL    HW2 7650   6.133   0.828   2.548 -0.1411  0.9940 -0.6325
 1971SOL    HW3 7651   6.061   0.911   2.652 -0.2704  2.9179 -2.2084
 1971SOL    MW4 7652   6.060   0.850   2.590  0.0057  0.7831 -0.2563
 1972SOL     OW 7653   3.853   4.308   4.041 -0.2477 -0.0586 -0.1137
 1972SOL    HW2 7654   3.907   4.324   3.964 -1.3267  0.6823 -0.7371
 1972SOL    HW3 7655   3.817   4.393   4.064 -0.8590 -0.4743  0.5197
 1972SOL    MW4 7656   3.856   4.321   4.034 -0.4708 -0.0157 -0.1124
 1973SOL     OW 7657   1.415   4.089   0.970 -0.4849  0.5783 -0.2917
 1973SOL    HW2 7658   1.376   4.055   0.889  0.1433  2.2624 -1.3499
 1973SOL    HW3 7659   1.372   4.039   1.040 -1.9459 -0.0591 -1.5868
 1973SOL    MW4 7660   1.404   4.078   0.968 -0.5948  0.7164 -0.6022
 1974SOL     OW 7661   4.346   5.935   5.595 -0.5188  0.3193 -0.0866
 1974SOL    HW2 7662   4.375   5.885   5.671  1.1059  2.1502  0.5907
 1974SOL    HW3 7663   4.267   5.891   5.565 -0.0619 -1.6381  1.4309
 1974SOL    MW4 7664   4.340   5.923   5.601 -0.2442  0.3026  0.2030
 1975SOL     OW 7665   1.489   1.305   0.674  0.6559  0.3276  0.5839
 1975SOL    HW2 7666   1.548   1.365   0.630 -0.5371  0.6346 -0.6643
 1975SOL    HW3 7667   1.523   1.218   0.656 -0.7382  0.3151 -2.5235
 1975SOL    MW4 7668   1.501   1.301   0.666  0.3146  0.3665  0.0092
 1976SOL     OW 7669   3.144   5.695   5.855  0.2997  0.2282 -0.5633
 1976SOL    HW2 7670   3.137   5.732   5.943 -0.1074 -0.5526 -0.2515
 1976SOL    HW3 7671   3.218   5.741   5.815 -0.4798  1.6959 -0.3764
 1976SOL    MW4 7672   3.153   5.706   5.862  0.1431  0.3188 -0.4975
 1977SOL     OW 7673   0.586   4.246   6.151 -0.0583 -0.0434  0.4783
 1977SOL    HW2 7674   0.539   4.314   6.199 -0.1184 -1.5615  2.7106
 1977SOL    HW3 7675   0.646   4.209   6.216  0.3231 -1.7750 -0.8188
 1977SOL    MW4 7676   0.588   4.250   6.166 -0.0159 -0.4721  0.6017
 1978SOL     OW 7677   1.416   3.453   3.873  0.2828 -0.2223  0.0982
 1978SOL    HW2 7678   1.369   3.506   3.936  1.0172 -0.8147  1.1767
 1978SOL    HW3 7679   1.387   3.363   3.891  0.1671 -0.3548 -0.7109
 1978SOL    MW4 7680   1.406   3.448   3.883  0.3644 -0.3180  0.1337
 1979SOL     OW 7681   2.213   5.179   5.838  0.0215  0.1748  0.2546
 1979SOL    HW2 7682   2.222   5.099   5.787 -0.7634 -0.3760  0.9672
 1979SOL    HW3 7683   2.303   5.206   5.857  0.3089 -0.0093 -0.7852
 1979SOL    MW4 7684   2.226   5.172   5.834 -0.0442  0.0779  0.2114
 1980SOL     OW 7685   1.227   2.980   3.383 -0.5829  0.1456  0.9030
 1980SOL    HW2 7686   1.294   2.951   3.446  0.4585 -0.7228 -0.5515
 1980SOL    HW3 7687   1.145   2.958   3.426  0.0992 -0.5078  1.9426
 1980SOL    MW4 7688   1.225   2.973   3.397 -0.3555 -0.0552  0.8483
 1981SOL     OW 7689   2.988   2.860   6.294  0.1664 -0.0496  0.7145
 1981SOL    HW2 7690   2.918   2.822   6.240 -0.9593 -0.6821  2.5020
 1981SOL    HW3 7691   2.942   2.914   6.358  1.6183  2.7272 -0.4394
 1981SOL    MW4 7692   2.972   2.862   6.295  0.2094  0.2333  0.7981
 1982SOL     OW 7693   1.894   1.032   0.207 -0.1752 -0.0096 -0.4274
 1982SOL    HW2 7694   1.801   1.036   0.183 -0.2010 -1.9461 -0.8188
 1982SOL    HW3 7695   1.941   1.065   0.131 -0.5123  0.1155 -0.5819
 1982SOL    MW4 7696   1.888   1.037   0.194 -0.2231 -0.2486 -0.4995
 1983SOL     OW 7697   4.162   2.942   0.523 -0.6181  0.0735 -0.2638
 1983SOL    HW2 7698   4.102   2.886   0.573  0.5549 -0.8746  0.1411
 1983SOL    HW3 7699   4.187   2.888   0.447 -1.1041  0.8700 -1.0032
 1983SOL    MW4 7700   4.157   2.927   0.519 -0.5275  0.0535 -0.3080
 1984SOL     OW 7701   0.832   1.674   0.714 -0.7578  0.1817 -0.4531
 1984SOL    HW2 7702   0.869   1.591   0.685 -0.4946  0.5506 -1.2048
 1984SOL    HW3 7703   0.902   1.715   0.765 -0.3726  0.5677 -1.2822
 1984SOL    MW4 7704   0.846   1.669   0.717 -0.6722  0.2813 -0.6617
 1985SOL     OW 7705   1.394   5.955   2.350  0.1288  0.9997  0.3757
 1985SOL    HW2 7706   1.354   5.869   2.345  2.0775  0.0638 -0.2956
 1985SOL    HW3 7707   1.336   6.012   2.300  0.1361 -0.4978 -1.4563
 1985SOL    MW4 7708   1.381   5.951   2.343  0.3869  0.6786  0.0454
 1986SOL     OW 7709   6.093   1.959   1.116  0.3322  0.8137  0.3928
 1986SOL    HW2 7710   6.056   2.045   1.134  0.6681  1.1887 -0.5805
 1986SOL    HW3 7711   6.146   1.973   1.037  1.0804 -0.0955  0.7203
 1986SOL    MW4 7712   6.095   1.973   1.108  0.4752  0.7432  0.3076
 1987SOL     OW 7713   2.427   4.066   2.656 -0.3880  0.5828  0.1929
 1987SOL    HW2 7714   2.344   4.039   2.618 -0.5871 -0.2741  1.2012
 1987SOL    HW3 7715   2.465   4.125   2.591 -0.3671 -1.3749 -1.6778
 1987SOL    MW4 7716   2.421   4.070   2.643 -0.4115  0.2115  0.0792
 1988SOL     OW 7717   2.291   3.255   1.285  0.9422  0.9585  0.9905
 1988SOL    HW2 7718   2.282   3.345   1.315  0.7307  0.4978  2.3901
 1988SOL    HW3 7719   2.360   3.218   1.340  0.3289 -0.0141  1.1409
 1988SOL    MW4 7720   2.299   3.262   1.296  0.8334  0.7694  1.1950
 1989SOL     OW 7721   2.785   1.323   3.071  0.1608  0.0400 -0.5395
 1989SOL    HW2 7722   2.779   1.250   3.010  2.4853 -0.2028 -0.5769
 1989SOL    HW3 7723   2.870   1.364   3.051  1.2033 -0.2427  2.6626
 1989SOL    MW4 7724   2.796   1.319   3.060  0.6050 -0.0293 -0.1220
 1990SOL     OW 7725   5.098   0.734   1.029 -0.0344 -0.5341 -0.7597
 1990SOL    HW2 7726   5.180   0.780   1.007  0.1862  0.1267  1.2170
 1990SOL    HW3 7727   5.033   0.804   1.036  0.1720 -0.4880  1.6864
 1990SOL    MW4 7728   5.101   0.749   1.027  0.0219 -0.4408 -0.1762
 1991SOL     OW 7729   2.452   5.633   5.742 -0.8468  0.3218 -0.0721
 1991SOL    HW2 7730   2.356   5.628   5.742 -1.0959  3.2003 -1.7195
 1991SOL    HW3 7731   2.477   5.605   5.654 -0.3234  1.1527 -0.1938
 1991SOL    MW4 7732   2.443   5.629   5.730 -0.8106  0.8112 -0.3055
 1992SOL     OW 7733   2.855   4.885   3.019  0.8981  0.3914 -0.0143
 1992SOL    HW2 7734   2.821   4.798   2.998  1.5519  0.1608 -0.1408
 1992SOL    HW3 7735   2.784   4.927   3.067  0.9547 -0.5940  0.9863
 1992SOL    MW4 7736   2.841   4.879   3.022  0.9918  0.2310  0.1011
 1993SOL     OW 7737   3.567   6.406   3.722  0.4485  0.1590 -0.3671
 1993SOL    HW2 7738   3.655   6.444   3.722 -0.1250  1.5991  1.4493
 1993SOL    HW3 7739   3.536   6.417   3.632  0.2548  4.2731  0.0455
 1993SOL    MW4 7740   3.575   6.412   3.710  0.3473  0.8918 -0.0730
 1994SOL     OW 7741   2.825   4.028   5.754  0.2728  0.0324 -0.6911
 1994SOL    HW2 7742   2.752   4.016   5.694  0.1604  0.4998 -0.6510
 1994SOL    HW3 7743   2.785   4.064   5.833  0.7778  2.1664 -1.3433
 1994SOL    MW4 7744   2.810   4.031   5.757  0.3246  0.3756 -0.7719
 1995SOL     OW 7745   2.517   0.745   5.139  0.6566 -0.5200  1.0519
 1995SOL    HW2 7746   2.445   0.719   5.196 -0.6288 -0.5661 -0.4999
 1995SOL    HW3 7747   2.494   0.708   5.053  1.7686  0.7361  0.1706
 1995SOL    MW4 7748   2.505   0.737   5.135  0.6337 -0.3603  0.7309
 1996SOL     OW 7749   2.449   0.153   5.916 -0.0263  0.4154 -0.0912
 1996SOL    HW2 7750   2.446   0.157   6.011 -0.9234 -1.7875  0.0338
 1996SOL    HW3 7751   2.369   0.197   5.887 -0.0900  0.4931  0.2076
 1996SOL    MW4 7752   2.438   0.160   5.925 -0.1531  0.1350 -0.0353
 1997SOL     OW 7753   3.318   5.825   2.438  0.0231 -0.4521  0.1371
 1997SOL    HW2 7754   3.296   5.761   2.370 -0.0958  1.0634 -1.3140
 1997SOL    HW3 7755   3.408   5.804   2.463  0.4362 -0.4231 -1.2481
 1997SOL    MW4 7756   3.327   5.814   2.433  0.0619 -0.2484 -0.2371
 1998SOL     OW 7757   5.677   0.973   0.998  0.1142 -0.1475 -0.2568
 1998SOL    HW2 7758   5.702   0.880   0.997 -0.6022 -0.3593  0.2943
 1998SOL    HW3 7759   5.588   0.973   1.034 -0.7255  0.5640 -2.1944
 1998SOL    MW4 7760   5.669   0.960   1.002 -0.0911 -0.0815 -0.4397
 1999SOL     OW 7761   2.828   0.018   4.578  0.3521 -0.4473 -0.1976
 1999SOL    HW2 7762   2.775   0.098   4.569 -1.3453 -1.6912 -2.4161
 1999SOL    HW3 7763   2.914   0.042   4.545 -0.2537  0.3723 -1.2257
 1999SOL    MW4 7764   2.832   0.032   4.573  0.0482 -0.5032 -0.6260
 2000SOL     OW 7765   5.703   0.438   6.233  0.0717  1.1170 -0.2014
 2000SOL    HW2 7766   5.790   0.397   6.226  0.5850  2.3180 -1.4091
 2000SOL    HW3 7767   5.647   0.370   6.270  1.6973  0.5673  1.3907
 2000SOL    MW4 7768   5.707   0.424   6.237  0.3539  1.2029 -0.1507
 2001SOL     OW 7769   0.168   0.317   3.499 -0.3734 -0.0453  0.0413
 2001SOL    HW2 7770   0.172   0.327   3.594  0.8850  0.3656 -0.0397
 2001SOL    HW3 7771   0.253   0.280   3.475 -0.2766  0.8310 -1.0264
 2001SOL    MW4 7772   0.180   0.313   3.508 -0.1946  0.1246 -0.1103
 2002SOL     OW 7773   1.106   2.127   2.021 -0.3047  0.6715 -0.2099
 2002SOL    HW2 7774   1.031   2.120   2.080  1.6404 -0.0248  2.4058
 2002SOL    HW3 7775   1.119   2.038   1.988  0.1608  0.4713  0.4785
 2002SOL    MW4 7776   1.098   2.114   2.025  0.0133  0.5532  0.2261
 2003SOL     OW 7777   2.425   6.124   5.257  0.0774 -0.4611  0.1075
 2003SOL    HW2 7778   2.473   6.129   5.175 -1.0495  1.7001 -0.5101
 2003SOL    HW3 7779   2.369   6.047   5.247  0.1318 -0.3730 -1.0638
 2003SOL    MW4 7780   2.424   6.115   5.245 -0.0641 -0.1643 -0.1285
 2004SOL     OW 7781   4.944   1.656   0.881  0.1675 -0.2876  0.3561
 2004SOL    HW2 7782   5.019   1.692   0.833  0.5821 -2.8680 -1.1147
 2004SOL    HW3 7783   4.870   1.708   0.851  1.0994  1.1815  0.5029
 2004SOL    MW4 7784   4.944   1.667   0.870  0.3451 -0.4342  0.1814
 2005SOL     OW 7785   0.988   5.430   0.292 -0.0222  0.0291 -0.5704
 2005SOL    HW2 7786   1.010   5.507   0.344  0.7339  0.0664 -0.9302
 2005SOL    HW3 7787   1.042   5.360   0.328 -1.8747 -0.7648  0.8278
 2005SOL    MW4 7788   0.998   5.431   0.303 -0.1669 -0.0707 -0.4334
 2006SOL     OW 7789   2.175   2.309   5.904 -0.2489 -0.1316 -0.5821
 2006SOL    HW2 7790   2.145   2.361   5.978  0.4498 -0.9594  0.3035
 2006SOL    HW3 7791   2.271   2.318   5.906 -0.0916 -1.5634 -0.2969
 2006SOL    MW4 7792   2.184   2.317   5.914 -0.1360 -0.4297 -0.4276
 2007SOL     OW 7793   1.535   5.397   3.783 -0.3819  0.0539  0.2788
 2007SOL    HW2 7794   1.448   5.434   3.766 -1.0535 -2.5946 -3.1723
 2007SOL    HW3 7795   1.522   5.340   3.858 -1.5064  0.0545  0.1053
 2007SOL    MW4 7796   1.522   5.395   3.790 -0.6189 -0.2955 -0.1994
 2008SOL     OW 7797   5.851   3.252   3.754 -0.0579  0.3296  0.6471
 2008SOL    HW2 7798   5.898   3.255   3.670 -1.1294  1.0185  0.0474
 2008SOL    HW3 7799   5.762   3.226   3.730 -0.4090  0.6824  1.5602
 2008SOL    MW4 7800   5.846   3.249   3.739 -0.2456  0.4671  0.6884
 2009SOL     OW 7801   1.172   2.295   4.539 -0.9469  0.4535 -0.2937
 2009SOL    HW2 7802   1.244   2.315   4.600  0.6000  1.5233 -2.3578
 2009SOL    HW3 7803   1.097   2.280   4.596  1.0975 -1.9085  2.0487
 2009SOL    MW4 7804   1.172   2.296   4.555 -0.4731  0.2830 -0.2569
 2010SOL     OW 7805   1.797   0.730   0.559 -0.2322  0.4459  0.5726
 2010SOL    HW2 7806   1.868   0.675   0.525 -0.7631 -0.0778  0.3038
 2010SOL    HW3 7807   1.803   0.720   0.654  0.3664  0.8048  0.5810
 2010SOL    MW4 7808   1.807   0.722   0.567 -0.2232  0.4241  0.5383
 2011SOL     OW 7809   0.819   1.845   4.525 -0.0928  0.2015  0.1372
 2011SOL    HW2 7810   0.900   1.798   4.502 -0.0726  1.2692 -2.2305
 2011SOL    HW3 7811   0.753   1.776   4.534  0.5824 -0.5082 -0.2398
 2011SOL    MW4 7812   0.821   1.830   4.524 -0.0010  0.2487 -0.2250
 2012SOL     OW 7813   4.312   3.838   1.432  0.3597  0.2478 -0.6212
 2012SOL    HW2 7814   4.374   3.842   1.359  0.2170  1.7212 -0.6895
 2012SOL    HW3 7815   4.334   3.913   1.486  0.5822 -0.9204  0.9955
 2012SOL    MW4 7816   4.323   3.848   1.429  0.3703  0.2881 -0.4169
 2013SOL     OW 7817   2.254   3.697   2.376  0.2070 -0.0085 -0.0841
 2013SOL    HW2 7818   2.201   3.698   2.295 -0.6672  0.3040  0.4800
 2013SOL    HW3 7819   2.213   3.762   2.432  1.3156  0.3630  0.3136
 2013SOL    MW4 7820   2.241   3.706   2.372  0.2379  0.0817  0.0428
 2014SOL     OW 7821   4.719   5.343   2.657  0.0902 -0.2313  0.3578
 2014SOL    HW2 7822   4.631   5.308   2.640 -0.2338  0.1090  1.2441
 2014SOL    HW3 7823   4.771   5.267   2.683  0.2742 -0.5600 -0.9409
 2014SOL    MW4 7824   4.714   5.329   2.659  0.0718 -0.2298  0.3034
 2015SOL     OW 7825   2.743   4.343   6.400 -0.7441 -0.1280  0.4056
 2015SOL    HW2 7826   2.691   4.282   6.347  1.4732 -0.6697 -1.2944
 2015SOL    HW3 7827   2.774   4.409   6.338  0.4434  0.2784  1.3864
 2015SOL    MW4 7828   2.740   4.344   6.385 -0.2949 -0.1459  0.3107
 2016SOL     OW 7829   1.075   1.426   1.573  0.1377  0.2728  0.0758
 2016SOL    HW2 7830   1.082   1.341   1.529 -1.9724 -0.1164  0.3881
 2016SOL    HW3 7831   0.981   1.445   1.574  0.4505  1.9775  1.2230
 2016SOL    MW4 7832   1.064   1.417   1.567 -0.0994  0.4463  0.2684
 2017SOL     OW 7833   4.422   4.798   4.201  0.7362  0.0895  0.2227
 2017SOL    HW2 7834   4.431   4.839   4.287  0.5391 -2.1210  1.3775
 2017SOL    HW3 7835   4.441   4.705   4.217 -2.5485 -1.0236 -1.4258
 2017SOL    MW4 7836   4.425   4.791   4.215  0.2768 -0.3490  0.1575
 2018SOL     OW 7837   5.996   4.033   0.210 -0.3694 -0.4930  0.1366
 2018SOL    HW2 7838   6.025   3.966   0.148 -0.3554  1.2732 -1.8835
 2018SOL    HW3 7839   6.077   4.077   0.237 -0.4316 -0.8798  0.9563
 2018SOL    MW4 7840   6.010   4.030   0.205 -0.3758 -0.3110 -0.0218
 2019SOL     OW 7841   4.900   3.888   1.468 -0.1996  0.7037  0.0473
 2019SOL    HW2 7842   4.891   3.878   1.563  1.9025 -1.3129  0.1275
 2019SOL    HW3 7843   4.831   3.831   1.433  0.9861 -1.0988  0.4672
 2019SOL    MW4 7844   4.889   3.879   1.476  0.2342  0.1998  0.1133
 2020SOL     OW 7845   2.249   4.591   3.940 -0.2187 -0.4875 -0.0526
 2020SOL    HW2 7846   2.258   4.520   4.003  0.1984 -0.4921 -0.1137
 2020SOL    HW3 7847   2.339   4.615   3.919 -0.3591 -0.1923 -0.3140
 2020SOL    MW4 7848   2.262   4.585   3.945 -0.1822 -0.4492 -0.0952
 2021SOL     OW 7849   0.445   3.959   5.209 -0.9253 -0.2769  0.3409
 2021SOL    HW2 7850   0.410   3.874   5.235 -1.6310 -0.5901 -1.5045
 2021SOL    HW3 7851   0.528   3.939   5.165 -0.8572  0.0389  0.3202
 2021SOL    MW4 7852   0.452   3.945   5.207 -1.0094 -0.2766  0.0947
 2022SOL     OW 7853   1.850   0.413   4.608  0.0136  0.3201 -0.5179
 2022SOL    HW2 7854   1.896   0.460   4.676 -2.6358 -0.7291  2.2233
 2022SOL    HW3 7855   1.889   0.325   4.607 -2.2050 -0.8788  2.4656
 2022SOL    MW4 7856   1.861   0.407   4.617 -0.6286  0.0235  0.2374
 2023SOL     OW 7857   3.651   5.522   0.958  0.5265 -0.1388  0.4993
 2023SOL    HW2 7858   3.666   5.601   0.907 -0.2874  0.0427  0.5321
 2023SOL    HW3 7859   3.592   5.469   0.905  0.8356 -0.5991  0.6053
 2023SOL    MW4 7860   3.645   5.526   0.945  0.4599 -0.1756  0.5176
 2024SOL     OW 7861   1.569   5.666   2.009 -0.3207 -0.1119  0.0666
 2024SOL    HW2 7862   1.489   5.621   2.034 -0.0586 -0.2021  0.7609
 2024SOL    HW3 7863   1.540   5.750   1.972 -0.6868  0.3622  1.4014
 2024SOL    MW4 7864   1.555   5.671   2.007 -0.3344 -0.0613  0.3343
 2025SOL     OW 7865   3.628   4.716   4.523  0.3357 -0.0413  0.0030
 2025SOL    HW2 7866   3.644   4.626   4.550 -2.8220 -1.3991 -2.1167
 2025SOL    HW3 7867   3.668   4.723   4.436  0.2539  0.4717  0.0037
 2025SOL    MW4 7868   3.635   4.705   4.515 -0.0917 -0.1527 -0.2766
 2026SOL     OW 7869   3.671   5.631   2.020  0.1514 -0.1439  0.4419
 2026SOL    HW2 7870   3.582   5.661   2.001  0.2159 -1.1313 -1.7865
 2026SOL    HW3 7871   3.671   5.539   1.995  2.3113  0.3297 -1.7671
 2026SOL    MW4 7872   3.659   5.623   2.014  0.4449 -0.2117 -0.1435
 2027SOL     OW 7873   2.247   6.304   0.508 -0.2176 -0.0917  0.2601
 2027SOL    HW2 7874   2.207   6.237   0.564  0.4087  0.0098  0.8475
 2027SOL    HW3 7875   2.223   6.387   0.550  0.5292 -0.0266  0.5877
 2027SOL    MW4 7876   2.239   6.306   0.521 -0.0364 -0.0697  0.3808
 2028SOL     OW 7877   5.261   4.288   2.796  0.1209 -0.4328  0.0036
 2028SOL    HW2 7878   5.204   4.342   2.741 -0.5755 -0.8003  0.3573
 2028SOL    HW3 7879   5.201   4.233   2.846  0.8242 -1.6128 -0.4200
 2028SOL    MW4 7880   5.246   4.288   2.795  0.1218 -0.6370 -0.0056
 2029SOL     OW 7881   4.803   6.113   0.507  0.4467 -0.1687 -0.4321
 2029SOL    HW2 7882   4.891   6.146   0.489  0.7255  0.6050  2.0111
 2029SOL    HW3 7883   4.790   6.043   0.442  2.5255  0.2296 -1.3582
 2029SOL    MW4 7884   4.813   6.108   0.496  0.7577 -0.0140 -0.2319
 2030SOL     OW 7885   6.146   0.206   0.852  0.0756 -0.8551  0.0033
 2030SOL    HW2 7886   6.153   0.213   0.947 -0.0698  1.1176 -0.0907
 2030SOL    HW3 7887   6.232   0.175   0.823  0.9619  0.9433  0.6024
 2030SOL    MW4 7888   6.158   0.203   0.861  0.1733 -0.3575  0.0699
 2031SOL     OW 7889   4.184   5.740   3.012 -0.0511 -0.6234  0.3711
 2031SOL    HW2 7890   4.248   5.811   3.014  3.1923 -3.3318  2.4462
 2031SOL    HW3 7891   4.134   5.751   3.093  0.5779 -0.7882  0.7876
 2031SOL    MW4 7892   4.186   5.751   3.023  0.4598 -1.0025  0.6998
 2032SOL     OW 7893   0.108   0.406   2.844  0.3755 -0.7974  0.3268
 2032SOL    HW2 7894   0.063   0.355   2.911 -2.7459  1.2071 -0.0194
 2032SOL    HW3 7895   0.129   0.343   2.776  0.6897 -2.3258  1.7832
 2032SOL    MW4 7896   0.104   0.391   2.844  0.0051 -0.7346  0.4733
 2033SOL     OW 7897   0.816   0.113   3.670 -0.0183 -0.7305  0.0972
 2033SOL    HW2 7898   0.878   0.102   3.742 -0.6516  0.5947  0.8754
 2033SOL    HW3 7899   0.737   0.148   3.710 -0.5838 -0.4872 -1.1633
 2033SOL    MW4 7900   0.814   0.116   3.685 -0.1764 -0.5236  0.0336
 2034SOL     OW 7901   3.179   6.363   0.145 -0.0571 -0.0666 -0.2761
 2034SOL    HW2 7902   3.104   6.396   0.195 -0.0619 -1.0480  0.3926
 2034SOL    HW3 7903   3.141   6.305   0.079  0.1269 -1.0395  0.4451
 2034SOL    MW4 7904   3.164   6.360   0.143 -0.0334 -0.3244 -0.0927
 2035SOL     OW 7905   0.032   6.059   6.099 -0.3643 -0.2961 -0.4434
 2035SOL    HW2 7906   0.037   6.128   6.032  0.1755 -0.8050 -0.9413
 2035SOL    HW3 7907   0.117   6.015   6.093 -1.6615 -2.7915 -2.0751
 2035SOL    MW4 7908   0.044   6.063   6.089 -0.4643 -0.6925 -0.7244
 2036SOL     OW 7909   3.499   5.280   3.470  0.3682  0.2064 -0.4927
 2036SOL    HW2 7910   3.573   5.323   3.428  0.6722  0.4530  0.2769
 2036SOL    HW3 7911   3.508   5.187   3.447  1.3206  0.1210  0.1762
 2036SOL    MW4 7912   3.510   5.273   3.462  0.5340  0.2276 -0.3029
 2037SOL     OW 7913   5.539   5.894   3.759  0.8582  0.0108  0.0833
 2037SOL    HW2 7914   5.547   5.798   3.764 -0.5178 -0.0930  1.0477
 2037SOL    HW3 7915   5.446   5.910   3.779  1.1070  1.5562  0.0613
 2037SOL    MW4 7916   5.528   5.883   3.762  0.7095  0.2010  0.2076
 2038SOL     OW 7917   0.525   2.238   1.304 -0.2117  0.4762  0.2792
 2038SOL    HW2 7918   0.577   2.176   1.354 -0.9145  0.8488  1.5034
 2038SOL    HW3 7919   0.581   2.315   1.295 -0.0752  0.3998  0.4769
 2038SOL    MW4 7920   0.539   2.240   1.309 -0.2865  0.5153  0.4668
 2039SOL     OW 7921   1.556   2.266   1.733 -0.3116  0.0287 -0.1074
 2039SOL    HW2 7922   1.498   2.277   1.809 -0.6946  0.8925 -0.5103
 2039SOL    HW3 7923   1.550   2.173   1.712  1.3688 -0.6672  2.1516
 2039SOL    MW4 7924   1.547   2.255   1.741 -0.1404  0.0509  0.1375
 2040SOL     OW 7925   0.709   0.761   4.283 -0.1944 -1.0584 -0.1106
 2040SOL    HW2 7926   0.726   0.811   4.203 -0.7268  0.3644  0.6194
 2040SOL    HW3 7927   0.794   0.757   4.326 -0.4108  0.6167  0.5546
 2040SOL    MW4 7928   0.723   0.767   4.278 -0.2932 -0.6496  0.0735
 2041SOL     OW 7929   1.978   2.861   5.845  0.0715  0.7723  0.5074
 2041SOL    HW2 7930   2.029   2.896   5.918  1.7693 -0.5543  0.0113
 2041SOL    HW3 7931   1.945   2.939   5.800 -0.5172  1.6195  2.3074
 2041SOL    MW4 7932   1.980   2.876   5.848  0.2178  0.7091  0.6794
 2042SOL     OW 7933   0.812   2.768   2.314  0.0562 -0.1904  0.2325
 2042SOL    HW2 7934   0.882   2.748   2.377 -0.7357 -0.6837  0.9779
 2042SOL    HW3 7935   0.853   2.758   2.228  1.4129  1.3692  0.6374
 2042SOL    MW4 7936   0.827   2.764   2.311  0.1307 -0.0497  0.3843
 2043SOL     OW 7937   4.299   3.202   1.434 -0.0103 -0.1172 -0.1345
 2043SOL    HW2 7938   4.245   3.152   1.495  0.1896 -1.4869 -1.0528
 2043SOL    HW3 7939   4.238   3.262   1.391 -0.2543  0.4393  0.9612
 2043SOL    MW4 7940   4.284   3.203   1.436 -0.0161 -0.2245 -0.1111
 2044SOL     OW 7941   0.927   0.147   1.244 -0.1871  0.4745 -0.4302
 2044SOL    HW2 7942   0.852   0.140   1.303 -0.4079 -1.2841 -0.8519
 2044SOL    HW3 7943   0.888   0.147   1.157  0.2600 -2.7431 -0.7762
 2044SOL    MW4 7944   0.912   0.146   1.241 -0.1572 -0.1820 -0.5315
 2045SOL     OW 7945   4.132   5.159   6.095  0.2217 -0.3105  0.5191
 2045SOL    HW2 7946   4.133   5.185   6.003 -0.7404 -0.5609  0.4229
 2045SOL    HW3 7947   4.206   5.205   6.134  1.5588 -1.3501 -0.6697
 2045SOL    MW4 7948   4.142   5.169   6.088  0.2712 -0.4807  0.3495
 2046SOL     OW 7949   1.139   2.992   3.688 -0.3152 -0.0217 -0.4126
 2046SOL    HW2 7950   1.103   3.077   3.713 -1.1950 -0.3006 -0.6689
 2046SOL    HW3 7951   1.136   2.940   3.768  4.5171  1.4829  1.0464
 2046SOL    MW4 7952   1.134   2.996   3.702  0.2063  0.1400 -0.2539
 2047SOL     OW 7953   1.615   2.013   6.030  0.0440 -0.1958 -0.3299
 2047SOL    HW2 7954   1.674   2.070   6.078 -0.6287  0.3413 -0.1312
 2047SOL    HW3 7955   1.668   1.979   5.958  0.6907  0.0021  0.0451
 2047SOL    MW4 7956   1.630   2.016   6.027  0.0406 -0.0988 -0.2542
 2048SOL     OW 7957   5.104   5.202   2.412  0.5149  0.2590  0.4948
 2048SOL    HW2 7958   5.015   5.179   2.388  0.2614  1.8417 -0.2518
 2048SOL    HW3 7959   5.154   5.121   2.404 -0.3430 -0.1115 -1.6719
 2048SOL    MW4 7960   5.099   5.189   2.408  0.3683  0.4189  0.1104
 2049SOL     OW 7961   5.330   0.260   5.186  0.3155 -0.0113 -0.0697
 2049SOL    HW2 7962   5.305   0.259   5.093  0.1723  1.4780 -0.0700
 2049SOL    HW3 7963   5.300   0.345   5.218  1.1568 -0.1423  1.1268
 2049SOL    MW4 7964   5.323   0.271   5.178  0.4076  0.1679  0.0881
 2050SOL     OW 7965   3.724   4.635   6.289 -0.3552 -0.0636  1.2282
 2050SOL    HW2 7966   3.772   4.617   6.208  0.4848 -0.5336  1.8082
 2050SOL    HW3 7967   3.770   4.584   6.356 -0.2008  1.3253  2.2443
 2050SOL    MW4 7968   3.737   4.626   6.287 -0.2240  0.0576  1.4388
 2051SOL     OW 7969   3.257   0.384   3.458 -0.1658  0.4244 -0.3847
 2051SOL    HW2 7970   3.181   0.327   3.473  0.6975 -1.6334 -2.9961
 2051SOL    HW3 7971   3.225   0.472   3.479 -3.4000 -0.3099 -1.5631
 2051SOL    MW4 7972   3.243   0.388   3.463 -0.4786  0.0560 -0.8847
 2052SOL     OW 7973   1.626   1.159   4.888 -0.2608 -0.3921  0.1904
 2052SOL    HW2 7974   1.569   1.127   4.819 -0.0144 -0.3272 -0.0474
 2052SOL    HW3 7975   1.665   1.239   4.852 -1.6627  0.7830  1.1657
 2052SOL    MW4 7976   1.624   1.165   4.874 -0.4133 -0.2285  0.2877
 2053SOL     OW 7977   4.342   0.560   0.827 -0.0924  0.0282 -0.4562
 2053SOL    HW2 7978   4.283   0.597   0.892 -0.0152 -0.2322 -0.2393
 2053SOL    HW3 7979   4.384   0.486   0.871  0.5867  0.3702 -0.5213
 2053SOL    MW4 7980   4.340   0.555   0.841  0.0074  0.0389 -0.4362
 2054SOL     OW 7981   3.885   5.513   5.772  0.2440  0.0533 -0.5881
 2054SOL    HW2 7982   3.922   5.497   5.859 -2.0883 -1.5878  0.2040
 2054SOL    HW3 7983   3.939   5.460   5.713  0.4556 -0.6224  0.1954
 2054SOL    MW4 7984   3.897   5.504   5.776 -0.0358 -0.2524 -0.3802
 2055SOL     OW 7985   1.092   4.212   4.885  0.2314 -0.7034 -0.0511
 2055SOL    HW2 7986   1.158   4.152   4.919 -0.9383 -0.1489  3.7046
 2055SOL    HW3 7987   1.128   4.299   4.901 -0.4574 -0.4053 -0.0521
 2055SOL    MW4 7988   1.105   4.216   4.892 -0.0138 -0.5909  0.4443
 2056SOL     OW 7989   6.030   2.983   1.535  0.3195 -0.1622 -0.3033
 2056SOL    HW2 7990   5.977   3.024   1.467 -0.1304 -0.5523 -0.1949
 2056SOL    HW3 7991   6.117   3.021   1.524  0.6011 -1.2014 -1.9523
 2056SOL    MW4 7992   6.034   2.994   1.525  0.2973 -0.3508 -0.5066
 2057SOL     OW 7993   1.683   5.925   3.570  0.6694  0.5466 -0.2993
 2057SOL    HW2 7994   1.599   5.902   3.611  0.7017 -0.4447 -0.7640
 2057SOL    HW3 7995   1.694   6.018   3.589 -2.2617  1.6690 -3.2349
 2057SOL    MW4 7996   1.673   5.934   3.578  0.2870  0.5639 -0.7479
 2058SOL     OW 7997   2.962   4.535   2.150 -0.0084 -0.0755  0.1220
 2058SOL    HW2 7998   2.988   4.518   2.240  0.9918  1.2325  0.1148
 2058SOL    HW3 7999   2.886   4.592   2.156  0.0356 -0.0181  0.1259
 2058SOL    MW4 8000   2.956   4.540   2.162  0.1294  0.1046  0.1216
 2059SOL     OW 8001   4.571   5.404   0.871  0.6348 -0.1158 -0.3542
 2059SOL    HW2 8002   4.616   5.409   0.787  0.5546 -0.2219 -0.4048
 2059SOL    HW3 8003   4.495   5.463   0.861 -0.1709 -1.2034 -0.8628
 2059SOL    MW4 8004   4.567   5.413   0.859  0.5179 -0.2733 -0.4280
 2060SOL     OW 8005   2.407   1.451   3.635  0.0386 -0.4732  0.2107
 2060SOL    HW2 8006   2.423   1.498   3.717 -1.1323 -0.5600  0.5194
 2060SOL    HW3 8007   2.416   1.359   3.658 -0.7623 -0.5236  0.3889
 2060SOL    MW4 8008   2.410   1.445   3.649 -0.2216 -0.4913  0.2750
 2061SOL     OW 8009   2.683   5.514   0.607  0.1370  0.4212 -0.2343
 2061SOL    HW2 8010   2.602   5.564   0.621 -1.6843 -2.4829  0.5000
 2061SOL    HW3 8011   2.717   5.498   0.694  0.5444  0.1367 -0.4427
 2061SOL    MW4 8012   2.677   5.518   0.620 -0.0495  0.0005 -0.1649
 2062SOL     OW 8013   4.358   2.696   5.363  0.1385 -0.4336  0.6437
 2062SOL    HW2 8014   4.377   2.606   5.391 -1.5227 -1.3164 -0.8788
 2062SOL    HW3 8015   4.293   2.727   5.426  0.5449 -0.3609  1.0356
 2062SOL    MW4 8016   4.352   2.688   5.375 -0.0271 -0.5405  0.4946
 2063SOL     OW 8017   0.119   5.723   2.011  1.1119 -0.2188  0.7173
 2063SOL    HW2 8018   0.053   5.771   2.061  1.4519 -0.7895  1.7438
 2063SOL    HW3 8019   0.202   5.762   2.038  1.1601  1.4031 -1.5577
 2063SOL    MW4 8020   0.121   5.734   2.021  1.1631 -0.0801  0.5525
 2064SOL     OW 8021   2.260   2.617   4.020 -0.0841  0.1351  0.0458
 2064SOL    HW2 8022   2.311   2.685   4.063 -0.6665 -0.2760  1.4297
 2064SOL    HW3 8023   2.215   2.662   3.949 -0.2252  1.1271  0.7495
 2064SOL    MW4 8024   2.261   2.632   4.016 -0.1796  0.2117  0.3212
 2065SOL     OW 8025   4.846   4.230   3.173  0.1605 -0.2497 -0.1250
 2065SOL    HW2 8026   4.857   4.146   3.217 -0.5116  0.1481  0.8678
 2065SOL    HW3 8027   4.935   4.263   3.160  0.4270 -1.1713 -0.6435
 2065SOL    MW4 8028   4.859   4.223   3.177  0.1070 -0.3188 -0.0625
 2066SOL     OW 8029   2.993   4.027   6.056  0.0400 -0.4174 -0.1360
 2066SOL    HW2 8030   2.974   3.978   6.136 -0.4172 -1.3416 -0.7893
 2066SOL    HW3 8031   3.047   4.101   6.085 -1.1162 -0.0590  1.1864
 2066SOL    MW4 8032   2.998   4.031   6.070 -0.1729 -0.4921 -0.0477
 2067SOL     OW 8033   0.687   1.968   3.216  0.0308 -0.3503  0.4212
 2067SOL    HW2 8034   0.677   1.886   3.266 -0.1048 -0.7523 -0.2540
 2067SOL    HW3 8035   0.614   1.967   3.154  0.7654 -0.3489 -0.4632
 2067SOL    MW4 8036   0.676   1.957   3.215  0.1098 -0.4031  0.2154
 2068SOL     OW 8037   1.481   1.836   1.356  0.8539 -0.1506  0.2538
 2068SOL    HW2 8038   1.439   1.854   1.440  1.8614  0.9468  0.5447
 2068SOL    HW3 8039   1.497   1.741   1.358 -1.0178 -0.5158  0.3716
 2068SOL    MW4 8040   1.477   1.826   1.367  0.7399 -0.0540  0.3077
 2069SOL     OW 8041   2.276   1.095   6.224  0.2040  0.6924 -0.1567
 2069SOL    HW2 8042   2.280   1.086   6.129 -1.3890 -0.3658 -0.1523
 2069SOL    HW3 8043   2.286   1.189   6.239  0.6733  0.8499 -1.3479
 2069SOL    MW4 8044   2.278   1.107   6.213  0.0558  0.5736 -0.3133
 2070SOL     OW 8045   5.992   4.689   3.133 -0.1440 -0.1582  0.1174
 2070SOL    HW2 8046   5.995   4.596   3.158  0.6710 -0.8768 -2.3368
 2070SOL    HW3 8047   6.084   4.716   3.131  0.0511 -0.5813 -3.1111
 2070SOL    MW4 8048   6.005   4.680   3.136 -0.0107 -0.3088 -0.6324
 2071SOL     OW 8049   6.217   4.091   5.833 -0.6037  0.5440 -0.2257
 2071SOL    HW2 8050   6.254   4.031   5.768 -0.9084  1.0108 -0.8488
 2071SOL    HW3 8051   6.291   4.142   5.864 -0.6123  1.0363 -0.9925
 2071SOL    MW4 8052   6.232   4.090   5.828 -0.6451  0.6705 -0.4091
 2072SOL     OW 8053   0.415   3.044   0.425 -0.2499  0.3103  0.6752
 2072SOL    HW2 8054   0.508   3.064   0.435 -0.4205  0.6394  1.7522
 2072SOL    HW3 8055   0.413   2.952   0.400  0.3915  0.5876 -0.5001
 2072SOL    MW4 8056   0.427   3.035   0.423 -0.1878  0.3903  0.6622
 2073SOL     OW 8057   3.615   5.979   4.688 -0.8099  0.0413 -0.1695
 2073SOL    HW2 8058   3.583   5.901   4.644 -1.1307  0.3672 -0.5176
 2073SOL    HW3 8059   3.669   5.946   4.760 -1.7209 -0.5099  0.2739
 2073SOL    MW4 8060   3.618   5.964   4.692 -0.9724  0.0116 -0.1569
 2074SOL     OW 8061   1.305   6.357   1.051 -0.0464  0.2387  0.0598
 2074SOL    HW2 8062   1.389   6.341   1.009 -0.2871  1.4214 -0.9467
 2074SOL    HW3 8063   1.314   6.444   1.091 -0.8310  0.4622 -0.2231
 2074SOL    MW4 8064   1.317   6.366   1.051 -0.1817  0.4242 -0.1103
 2075SOL     OW 8065   0.033   2.351   5.473 -0.4945 -0.3218  0.3067
 2075SOL    HW2 8066  -0.055   2.315   5.466 -0.8983  0.8087 -0.7194
 2075SOL    HW3 8067   0.088   2.276   5.492 -1.2711 -1.5409 -1.9542
 2075SOL    MW4 8068   0.029   2.337   5.475 -0.6503 -0.3335 -0.1270
 2076SOL     OW 8069   5.680   1.758   4.896  0.2925  0.1728  0.5206
 2076SOL    HW2 8070   5.763   1.741   4.942  0.6537  0.3243 -0.0572
 2076SOL    HW3 8071   5.706   1.767   4.804 -0.1536  1.6808  0.5070
 2076SOL    MW4 8072   5.695   1.757   4.890  0.2813  0.3918  0.4426
 2077SOL     OW 8073   2.082   4.783   5.268 -0.0626 -0.0712  0.2402
 2077SOL    HW2 8074   2.004   4.816   5.223  2.8216  2.5210 -3.5031
 2077SOL    HW3 8075   2.117   4.859   5.315  1.0017 -0.7408  0.5862
 2077SOL    MW4 8076   2.077   4.798   5.268  0.4584  0.1824 -0.2080
 2078SOL     OW 8077   3.375   3.604   0.335 -0.0794 -0.1750  0.0062
 2078SOL    HW2 8078   3.412   3.517   0.354 -0.2447 -0.5903 -1.4543
 2078SOL    HW3 8079   3.436   3.665   0.375  2.5126 -0.8192 -2.5908
 2078SOL    MW4 8080   3.388   3.600   0.343  0.2408 -0.3148 -0.5291
 2079SOL     OW 8081   1.124   5.376   3.076  0.1447 -0.4337 -0.4462
 2079SOL    HW2 8082   1.167   5.393   3.160 -0.7876 -0.9638  0.1484
 2079SOL    HW3 8083   1.032   5.362   3.098 -0.4918  1.3419 -1.7650
 2079SOL    MW4 8084   1.118   5.376   3.090 -0.0623 -0.2694 -0.5418
 2080SOL     OW 8085   3.115   4.156   4.552 -0.2188  0.1052 -0.9704
 2080SOL    HW2 8086   3.112   4.093   4.480  0.6884  0.4639 -1.3391
 2080SOL    HW3 8087   3.199   4.138   4.596 -0.5107  0.2582 -0.3344
 2080SOL    MW4 8088   3.126   4.145   4.548 -0.1377  0.1727 -0.9351
 2081SOL     OW 8089   5.971   4.245   0.980 -0.8259 -0.4434  0.3438
 2081SOL    HW2 8090   5.878   4.247   0.957 -0.4869 -0.6473 -1.1314
 2081SOL    HW3 8091   5.992   4.336   0.999 -1.4074 -0.4513  1.0902
 2081SOL    MW4 8092   5.961   4.257   0.979 -0.8579 -0.4714  0.2476
 2082SOL     OW 8093   4.599   3.456   1.429  0.3107  0.2391  0.1398
 2082SOL    HW2 8094   4.564   3.456   1.518  1.2562  2.0373  0.5530
 2082SOL    HW3 8095   4.665   3.387   1.428 -1.1121 -1.1722  0.2045
 2082SOL    MW4 8096   4.603   3.447   1.440  0.2477  0.2901  0.2029
 2083SOL     OW 8097   3.861   3.165   4.541  0.7338  0.0239  0.1114
 2083SOL    HW2 8098   3.770   3.176   4.568 -0.0320 -2.1302 -1.3008
 2083SOL    HW3 8099   3.874   3.231   4.473  0.8703  1.5812  1.5902
 2083SOL    MW4 8100   3.851   3.175   4.535  0.6508 -0.0548  0.1202
 2084SOL     OW 8101   5.933   2.226   2.712 -0.3959  0.4010  0.7528
 2084SOL    HW2 8102   5.840   2.201   2.712 -0.6037  1.0467 -1.1538
 2084SOL    HW3 8103   5.961   2.213   2.803 -2.7736  1.7656  1.7758
 2084SOL    MW4 8104   5.924   2.221   2.724 -0.7370  0.6662  0.6362
 2085SOL     OW 8105   5.225   3.085   0.153 -0.1972  0.2715 -0.0114
 2085SOL    HW2 8106   5.140   3.098   0.196  0.0443 -1.9734  1.2535
 2085SOL    HW3 8107   5.287   3.074   0.225  1.0168  0.7785 -0.9374
 2085SOL    MW4 8108   5.222   3.086   0.168 -0.0052  0.0422  0.0333
 2086SOL     OW 8109   2.298   6.377   1.254 -0.7779  0.0295 -0.8372
 2086SOL    HW2 8110   2.304   6.343   1.343 -3.8735 -1.5485 -1.1022
 2086SOL    HW3 8111   2.364   6.327   1.205  0.5796  0.5326  0.3801
 2086SOL    MW4 8112   2.308   6.366   1.260 -1.0073 -0.1123 -0.7115
 2087SOL     OW 8113   2.477   2.869   4.905  0.3742 -0.0123  0.7221
 2087SOL    HW2 8114   2.502   2.793   4.958  0.1538 -0.7582 -0.2203
 2087SOL    HW3 8115   2.552   2.929   4.911  0.2464  0.0379  2.0732
 2087SOL    MW4 8116   2.490   2.867   4.913  0.3282 -0.1041  0.7760
 2088SOL     OW 8117   1.122   0.554   0.690 -0.8609 -0.5618  0.2068
 2088SOL    HW2 8118   1.159   0.536   0.604  0.9952  1.3964  0.5162
 2088SOL    HW3 8119   1.092   0.468   0.721 -1.4797 -1.3383 -2.2883
 2088SOL    MW4 8120   1.123   0.540   0.683 -0.6976 -0.4059 -0.0815
 2089SOL     OW 8121   5.423   0.639   0.774 -0.0227  0.1305  0.1198
 2089SOL    HW2 8122   5.390   0.575   0.711  1.5443 -0.2908 -0.3336
 2089SOL    HW3 8123   5.511   0.659   0.743  1.1251 -0.6864  2.5908
 2089SOL    MW4 8124   5.430   0.634   0.761  0.3355 -0.0329  0.3860
 2090SOL     OW 8125   4.078   5.902   2.801 -0.2548  0.2213  0.5885
 2090SOL    HW2 8126   3.987   5.921   2.821 -0.8551 -1.2939 -0.5103
 2090SOL    HW3 8127   4.111   5.857   2.878  0.4159  3.1023  2.1109
 2090SOL    MW4 8128   4.071   5.898   2.814 -0.2455  0.4015  0.6444
 2091SOL     OW 8129   0.393   4.382   3.286 -0.0468  0.1553 -0.6392
 2091SOL    HW2 8130   0.331   4.423   3.347  0.4839 -0.4828  0.3523
 2091SOL    HW3 8131   0.376   4.288   3.295 -0.3432  0.0587 -1.9119
 2091SOL    MW4 8132   0.382   4.375   3.295 -0.0159  0.0584 -0.6763
 2092SOL     OW 8133   5.767   2.816   1.335 -0.1679  0.6856 -0.3149
 2092SOL    HW2 8134   5.675   2.835   1.314 -0.7195 -0.7138  0.6753
 2092SOL    HW3 8135   5.764   2.778   1.422  1.2943 -0.0457 -0.5524
 2092SOL    MW4 8136   5.754   2.814   1.344 -0.0478  0.4045 -0.2156
 2093SOL     OW 8137   5.397   3.242   5.220 -0.0632  0.3125  0.1110
 2093SOL    HW2 8138   5.393   3.290   5.303 -1.3017  1.5466 -0.6309
 2093SOL    HW3 8139   5.438   3.304   5.159 -1.2111  0.2532 -0.7364
 2093SOL    MW4 8140   5.402   3.257   5.223 -0.3780  0.4675 -0.0987
 2094SOL     OW 8141   6.438   0.137   4.013 -0.4828 -0.0588  0.8398
 2094SOL    HW2 8142   6.386   0.217   4.024  0.2574  0.7038 -0.8270
 2094SOL    HW3 8143   6.455   0.133   3.919  1.0171 -1.2211  1.1330
 2094SOL    MW4 8144   6.433   0.147   4.002 -0.1872 -0.1115  0.6586
 2095SOL     OW 8145   5.576   3.466   3.732 -0.1718 -0.0706  0.0699
 2095SOL    HW2 8146   5.601   3.509   3.813 -0.3522  0.6172 -0.2329
 2095SOL    HW3 8147   5.614   3.521   3.663  1.8850 -1.8210 -0.2989
 2095SOL    MW4 8148   5.584   3.479   3.733  0.0758 -0.2108 -0.0187
 2096SOL     OW 8149   4.058   1.524   3.835 -0.2707  0.4677  0.5817
 2096SOL    HW2 8150   4.127   1.458   3.846 -0.6022 -0.5425 -2.4202
 2096SOL    HW3 8151   4.082   1.594   3.896  1.4418 -1.3410  2.1397
 2096SOL    MW4 8152   4.070   1.524   3.844 -0.0885  0.0958  0.3912
 2097SOL     OW 8153   5.403   1.774   4.965  0.1718 -0.0153 -0.0760
 2097SOL    HW2 8154   5.497   1.764   4.948 -0.0581  0.2404 -1.7134
 2097SOL    HW3 8155   5.381   1.700   5.022  1.5526  0.5260  1.2338
 2097SOL    MW4 8156   5.412   1.763   4.970  0.3237  0.0898 -0.1192
 2098SOL     OW 8157   5.310   3.460   1.287 -0.5595  0.7405 -0.2643
 2098SOL    HW2 8158   5.219   3.445   1.311 -0.8383 -0.2727 -1.7962
 2098SOL    HW3 8159   5.355   3.475   1.370 -1.8711 -0.1955  0.6518
 2098SOL    MW4 8160   5.304   3.460   1.301 -0.7694  0.4833 -0.3455
 2099SOL     OW 8161   3.203   4.488   6.201  0.0662 -0.0407 -0.1870
 2099SOL    HW2 8162   3.253   4.564   6.232 -0.5666  0.1348  0.4125
 2099SOL    HW3 8163   3.229   4.479   6.109  1.3115 -0.0411  0.1415
 2099SOL    MW4 8164   3.213   4.497   6.193  0.1470 -0.0176 -0.0645
 2100SOL     OW 8165   1.091   2.143   1.664  0.1707  0.5109  0.1746
 2100SOL    HW2 8166   1.121   2.080   1.729  0.4268  0.3624 -0.0915
 2100SOL    HW3 8167   1.024   2.096   1.614 -0.3200  0.7563  0.5946
 2100SOL    MW4 8168   1.086   2.129   1.666  0.1398  0.5237  0.1949
 2101SOL     OW 8169   0.230   4.911   3.123  0.4913  0.0570 -0.1649
 2101SOL    HW2 8170   0.263   5.000   3.112 -0.5286  0.4923  0.2075
 2101SOL    HW3 8171   0.152   4.920   3.177 -1.6374 -0.6513 -2.8997
 2101SOL    MW4 8172   0.224   4.924   3.128  0.0759  0.0210 -0.4766
 2102SOL     OW 8173   1.526   1.695   1.008  0.1726  0.3186  0.0447
 2102SOL    HW2 8174   1.440   1.654   1.017  0.1610  0.3335  0.0037
 2102SOL    HW3 8175   1.553   1.714   1.097  0.0545  0.4749  0.0478
 2102SOL    MW4 8176   1.519   1.692   1.021  0.1555  0.3412  0.0397
 2103SOL     OW 8177   0.994   0.254   4.893  0.0254  0.2105 -0.2689
 2103SOL    HW2 8178   0.987   0.281   4.802 -3.0291 -0.2881 -0.3188
 2103SOL    HW3 8179   0.965   0.331   4.943 -0.1740 -0.1177  0.1317
 2103SOL    MW4 8180   0.989   0.268   4.888 -0.4039  0.1014 -0.2226
 2104SOL     OW 8181   1.698   2.510   0.329  0.1127 -0.2782  0.0011
 2104SOL    HW2 8182   1.622   2.553   0.367 -0.5905  0.0103 -1.6519
 2104SOL    HW3 8183   1.665   2.426   0.299  0.4947 -0.2422 -0.5311
 2104SOL    MW4 8184   1.684   2.505   0.330  0.0703 -0.2354 -0.2872
 2105SOL     OW 8185   6.005   2.475   5.198  0.1535 -0.3895  0.5046
 2105SOL    HW2 8186   5.963   2.458   5.282  0.9897 -1.4103  0.7428
 2105SOL    HW3 8187   5.934   2.475   5.135 -1.0985  4.2582  1.5763
 2105SOL    MW4 8188   5.990   2.473   5.201  0.0987  0.0890  0.6774
 2106SOL     OW 8189   1.755   4.831   1.339 -0.4751  0.5405  0.0748
 2106SOL    HW2 8190   1.715   4.795   1.260 -1.8310  0.0688  0.9273
 2106SOL    HW3 8191   1.715   4.918   1.348  0.3900  0.9768 -0.2640
 2106SOL    MW4 8192   1.744   4.838   1.330 -0.5399  0.5359  0.1426
 2107SOL     OW 8193   1.856   3.035   5.675 -0.1280  0.2983 -0.0812
 2107SOL    HW2 8194   1.909   3.050   5.597  0.6982  0.7965  0.5688
 2107SOL    HW3 8195   1.829   3.123   5.703 -0.3975  0.1216  0.2168
 2107SOL    MW4 8196   1.859   3.049   5.668 -0.0545  0.3407  0.0439
 2108SOL     OW 8197   6.341   5.428   6.202 -0.1191  0.1462  0.1238
 2108SOL    HW2 8198   6.385   5.447   6.285  1.4317  0.5705 -0.7728
 2108SOL    HW3 8199   6.365   5.501   6.145  0.1745 -0.9552 -1.2081
 2108SOL    MW4 8200   6.350   5.440   6.206  0.1243  0.0569 -0.1702
 2109SOL     OW 8201   4.667   2.683   0.595 -0.1180 -1.1984  0.2296
 2109SOL    HW2 8202   4.582   2.699   0.555  0.5431 -1.6221 -1.4378
 2109SOL    HW3 8203   4.658   2.597   0.636 -0.8663 -0.6723  1.2096
 2109SOL    MW4 8204   4.655   2.673   0.595 -0.1295 -1.1849  0.1389
 2110SOL     OW 8205   2.662   5.403   4.160 -0.5073  0.2158 -0.3584
 2110SOL    HW2 8206   2.637   5.360   4.242 -1.6377 -0.2527 -0.9359
 2110SOL    HW3 8207   2.622   5.490   4.165 -1.7648 -0.2959 -0.9861
 2110SOL    MW4 8208   2.654   5.409   4.172 -0.8223  0.0865 -0.5174
 2111SOL     OW 8209   3.575   4.233   1.467 -0.3261 -0.7752 -0.3856
 2111SOL    HW2 8210   3.625   4.173   1.412  2.3206  1.1160 -0.2271
 2111SOL    HW3 8211   3.526   4.176   1.526  2.0578 -2.8480 -0.2262
 2111SOL    MW4 8212   3.575   4.217   1.468  0.3377 -0.7992 -0.3437
 2112SOL     OW 8213   6.096   2.733   4.883  0.0608  0.0650 -0.1892
 2112SOL    HW2 8214   6.053   2.793   4.822 -2.0878  0.0096  1.1517
 2112SOL    HW3 8215   6.073   2.646   4.851 -0.1213  0.0215  0.0559
 2112SOL    MW4 8216   6.087   2.729   4.871 -0.2467  0.0520  0.0201
 2113SOL     OW 8217   5.311   1.882   1.888 -0.2687 -0.1131 -0.3392
 2113SOL    HW2 8218   5.325   1.815   1.821  0.8394  0.6310 -0.8866
 2113SOL    HW3 8219   5.218   1.904   1.882 -0.6275 -1.4852 -0.2323
 2113SOL    MW4 8220   5.301   1.876   1.879 -0.1699 -0.1959 -0.3973
 2114SOL     OW 8221   4.973   4.059   2.799 -1.2402  0.0200 -0.4103
 2114SOL    HW2 8222   5.026   3.982   2.782  0.8798  0.9112  1.5557
 2114SOL    HW3 8223   4.984   4.115   2.722  0.6447  0.1262 -0.0961
 2114SOL    MW4 8224   4.981   4.057   2.787 -0.7118  0.1516 -0.1094
 2115SOL     OW 8225   2.836   3.591   6.183 -0.2059 -0.2703 -0.2238
 2115SOL    HW2 8226   2.789   3.599   6.100  1.3795  0.5702 -1.0821
 2115SOL    HW3 8227   2.920   3.551   6.160 -0.2289 -1.2151  1.1780
 2115SOL    MW4 8228   2.841   3.586   6.169  0.0002 -0.2840 -0.1521
 2116SOL     OW 8229   2.402   4.049   5.724  0.5745 -0.0826  0.1400
 2116SOL    HW2 8230   2.417   4.126   5.669  0.0212 -0.7944 -1.0534
 2116SOL    HW3 8231   2.317   4.015   5.697  0.5791 -0.8348  0.9917
 2116SOL    MW4 8232   2.393   4.054   5.713  0.5021 -0.2757  0.0949
 2117SOL     OW 8233   6.376   5.213   3.669  0.0463 -0.0472 -0.3297
 2117SOL    HW2 8234   6.438   5.244   3.603 -0.9256  0.3844 -1.0615
 2117SOL    HW3 8235   6.409   5.126   3.694  3.1617  1.6392  2.1683
 2117SOL    MW4 8236   6.389   5.205   3.663  0.3291  0.2323 -0.0967
 2118SOL     OW 8237   5.642   2.931   2.229  0.0608 -0.3723 -0.4330
 2118SOL    HW2 8238   5.555   2.915   2.194  0.1191  0.6353 -1.0741
 2118SOL    HW3 8239   5.698   2.940   2.152  0.2483  1.5532 -0.1203
 2118SOL    MW4 8240   5.638   2.930   2.215  0.0932  0.0147 -0.4763
 2119SOL     OW 8241   2.850   2.123   0.577  0.5264 -0.1571 -0.0255
 2119SOL    HW2 8242   2.940   2.139   0.548 -0.1347  0.3950 -1.8946
 2119SOL    HW3 8243   2.813   2.067   0.508 -0.5701 -0.3567  0.7087
 2119SOL    MW4 8244   2.857   2.117   0.564  0.2945 -0.1106 -0.1752
 2120SOL     OW 8245   1.642   1.049   0.662  0.4375  0.4335 -0.0462
 2120SOL    HW2 8246   1.610   1.035   0.751 -0.2810 -0.7607 -0.4725
 2120SOL    HW3 8247   1.738   1.044   0.671  0.3546 -1.7911  0.3920
 2120SOL    MW4 8248   1.651   1.046   0.675  0.3318 -0.0176 -0.0446
 2121SOL     OW 8249   0.469   6.272   5.422  0.4206 -0.7163 -0.0946
 2121SOL    HW2 8250   0.513   6.357   5.425  1.0231 -0.9786 -1.0136
 2121SOL    HW3 8251   0.376   6.293   5.424  0.5656 -0.0408 -0.1613
 2121SOL    MW4 8252   0.463   6.286   5.423  0.5192 -0.6618 -0.2246
 2122SOL     OW 8253   4.812   6.109   1.751  0.0542  0.2823  0.4090
 2122SOL    HW2 8254   4.848   6.033   1.796 -0.5846 -1.4782 -1.8502
 2122SOL    HW3 8255   4.795   6.078   1.662 -2.6687  2.3211  0.0903
 2122SOL    MW4 8256   4.815   6.095   1.745 -0.3893  0.3190  0.0688
 2123SOL     OW 8257   1.321   2.352   4.747 -0.9703  0.3981 -0.2625
 2123SOL    HW2 8258   1.391   2.404   4.710 -1.5614  0.1668 -1.7804
 2123SOL    HW3 8259   1.257   2.416   4.780  0.3919  0.6282  2.1605
 2123SOL    MW4 8260   1.322   2.367   4.747 -0.8686  0.3980 -0.1431
 2124SOL     OW 8261   2.727   3.940   2.498 -0.4806  0.8133  0.2436
 2124SOL    HW2 8262   2.795   3.925   2.433  0.2943  0.6816  1.0623
 2124SOL    HW3 8263   2.709   3.853   2.534  0.2431  1.0867  1.3074
 2124SOL    MW4 8264   2.734   3.927   2.494 -0.2829  0.8320  0.4920
 2125SOL     OW 8265   1.364   0.511   3.003 -0.2421 -0.3348  0.1658
 2125SOL    HW2 8266   1.299   0.558   3.055 -0.2023 -0.0222 -0.0630
 2125SOL    HW3 8267   1.314   0.470   2.933 -0.2061 -0.1585  0.0348
 2125SOL    MW4 8268   1.349   0.512   3.001 -0.2321 -0.2703  0.1183
 2126SOL     OW 8269   5.228   1.100   1.556 -0.4769 -0.0305  0.6899
 2126SOL    HW2 8270   5.135   1.116   1.568 -0.7069 -0.3005 -0.5770
 2126SOL    HW3 8271   5.268   1.187   1.551 -0.6481  0.0830  1.2709
 2126SOL    MW4 8272   5.221   1.114   1.557 -0.5298 -0.0511  0.5994
 2127SOL     OW 8273   3.706   3.249   0.616 -0.5755 -0.1596 -0.3211
 2127SOL    HW2 8274   3.685   3.166   0.574 -0.8442 -0.3516  0.1885
 2127SOL    HW3 8275   3.724   3.226   0.707 -2.4248  0.5644  0.2715
 2127SOL    MW4 8276   3.706   3.235   0.623 -0.8549 -0.0894 -0.1757
 2128SOL     OW 8277   1.669   0.248   4.976  0.0753  0.2845 -0.2237
 2128SOL    HW2 8278   1.659   0.157   5.003  0.1980 -0.1153 -1.4471
 2128SOL    HW3 8279   1.582   0.286   4.987  0.1991  0.2447  1.0193
 2128SOL    MW4 8280   1.656   0.241   4.981  0.1078  0.2265 -0.2211
 2129SOL     OW 8281   3.250   0.871   2.915 -0.2525 -0.3123 -0.1925
 2129SOL    HW2 8282   3.168   0.842   2.953  0.6380 -0.7340  1.5161
 2129SOL    HW3 8283   3.303   0.792   2.908  0.0673 -0.0244 -1.1120
 2129SOL    MW4 8284   3.246   0.857   2.919 -0.0928 -0.3299 -0.0884
 2130SOL     OW 8285   1.521   1.937   5.010  0.3754 -0.1828  0.1203
 2130SOL    HW2 8286   1.552   1.848   4.995  1.2849  0.0012  0.8324
 2130SOL    HW3 8287   1.487   1.936   5.100  0.3205  0.1628  0.1062
 2130SOL    MW4 8288   1.521   1.925   5.020  0.4882 -0.1129  0.2124
 2131SOL     OW 8289   1.660   0.766   4.788  0.1503  0.5545  0.1836
 2131SOL    HW2 8290   1.749   0.750   4.756  0.4688  1.0038  0.8323
 2131SOL    HW3 8291   1.635   0.849   4.747  0.5221  1.0814  1.0047
 2131SOL    MW4 8292   1.669   0.775   4.778  0.2414  0.6833  0.3775
 2132SOL     OW 8293   0.921   4.006   4.941 -0.4302  0.5163  0.3431
 2132SOL    HW2 8294   0.862   4.016   5.016 -1.3966  1.0580 -0.4697
 2132SOL    HW3 8295   0.966   4.091   4.935 -1.5905  1.0879 -0.6927
 2132SOL    MW4 8296   0.919   4.019   4.950 -0.7108  0.6632  0.0992
 2133SOL     OW 8297   1.569   1.312   2.853 -0.2528  0.5937  0.3356
 2133SOL    HW2 8298   1.550   1.218   2.852  1.1901  0.2816 -0.3161
 2133SOL    HW3 8299   1.625   1.326   2.777 -1.5955  2.2655 -0.4176
 2133SOL    MW4 8300   1.574   1.301   2.843 -0.2396  0.7731  0.1503
 2134SOL     OW 8301   6.156   5.369   1.500  0.1113  0.3388 -0.2802
 2134SOL    HW2 8302   6.100   5.409   1.567 -0.3167 -0.0468 -0.4053
 2134SOL    HW3 8303   6.233   5.426   1.497 -1.0385  1.9321 -1.3691
 2134SOL    MW4 8304   6.158   5.382   1.509 -0.0969  0.4981 -0.4404
 2135SOL     OW 8305   2.894   6.167   0.250  0.5941  0.1870  0.5412
 2135SOL    HW2 8306   2.852   6.140   0.168  1.2891  1.4457 -0.2703
 2135SOL    HW3 8307   2.842   6.242   0.280  1.0260  0.4680  0.6089
 2135SOL    MW4 8308   2.882   6.173   0.243  0.7428  0.3902  0.4430
 2136SOL     OW 8309   1.872   3.750   1.208 -0.2136 -0.1614 -0.5045
 2136SOL    HW2 8310   1.863   3.751   1.112 -0.6736 -0.0837 -0.4618
 2136SOL    HW3 8311   1.925   3.673   1.226  0.4877  0.2217 -0.8766
 2136SOL    MW4 8312   1.878   3.740   1.198 -0.1818 -0.1006 -0.5479
 2137SOL     OW 8313   1.328   6.103   1.164 -0.7410  0.3507 -0.2990
 2137SOL    HW2 8314   1.301   6.042   1.095  0.4606 -1.1550  0.4992
 2137SOL    HW3 8315   1.316   6.190   1.126 -2.7244 -0.3459 -1.4024
 2137SOL    MW4 8316   1.323   6.106   1.150 -0.8441  0.0601 -0.3393
 2138SOL     OW 8317   3.576   3.118   1.486  0.0008  0.3609 -0.3186
 2138SOL    HW2 8318   3.494   3.097   1.532 -0.6843  1.0713 -1.1680
 2138SOL    HW3 8319   3.620   3.034   1.476 -0.7125 -0.0633 -0.0075
 2138SOL    MW4 8320   3.571   3.104   1.491 -0.1837  0.3986 -0.3896
 2139SOL     OW 8321   5.022   3.588   3.500  0.0712 -0.2543  0.0837
 2139SOL    HW2 8322   5.064   3.560   3.419  0.9713  0.1703  0.3838
 2139SOL    HW3 8323   5.005   3.681   3.488  1.0602  0.0248  0.7174
 2139SOL    MW4 8324   5.026   3.597   3.488  0.3205 -0.1615  0.2069
 2140SOL     OW 8325   1.050   2.667   3.390  0.2266 -0.0613  0.3688
 2140SOL    HW2 8326   1.012   2.750   3.419 -0.7907 -0.8483  1.4248
 2140SOL    HW3 8327   1.015   2.603   3.452  0.7695 -1.3185 -0.5912
 2140SOL    MW4 8328   1.040   2.670   3.402  0.1640 -0.3310  0.3815
 2141SOL     OW 8329   0.954   5.467   4.824 -0.5172 -0.1940 -0.0409
 2141SOL    HW2 8330   0.871   5.425   4.801  0.0762 -2.7211  1.9692
 2141SOL    HW3 8331   0.951   5.474   4.920  1.1223  0.6902 -0.0231
 2141SOL    MW4 8332   0.943   5.462   4.834 -0.2226 -0.4108  0.2267
 2142SOL     OW 8333   2.009   3.975   0.861 -0.6119 -0.7643  0.1365
 2142SOL    HW2 8334   2.038   4.049   0.914  1.3695 -1.0608 -0.4423
 2142SOL    HW3 8335   1.979   4.014   0.779  0.5822 -0.5954 -0.2305
 2142SOL    MW4 8336   2.009   3.990   0.857 -0.1930 -0.7811  0.0117
 2143SOL     OW 8337   6.430   5.998   4.574  0.3512 -0.3964  0.3106
 2143SOL    HW2 8338   6.466   6.013   4.487 -2.6433  0.1075 -0.9340
 2143SOL    HW3 8339   6.376   5.920   4.565 -2.4788  1.3620  0.8184
 2143SOL    MW4 8340   6.428   5.990   4.561 -0.4173 -0.0979  0.2134
 2144SOL     OW 8341   2.550   1.425   6.384  0.2445 -0.1374 -0.1096
 2144SOL    HW2 8342   2.545   1.446   6.477  1.0277 -2.4711  0.5463
 2144SOL    HW3 8343   2.643   1.436   6.362  0.0853  0.2703 -0.5805
 2144SOL    MW4 8344   2.562   1.429   6.393  0.3268 -0.3915 -0.0852
 2145SOL     OW 8345   5.806   4.381   1.324  0.3212 -0.0476 -0.2629
 2145SOL    HW2 8346   5.752   4.412   1.251  0.1663 -2.2540 -1.1667
 2145SOL    HW3 8347   5.748   4.382   1.400 -1.5837 -3.5356 -1.4409
 2145SOL    MW4 8348   5.791   4.385   1.324  0.0494 -0.7989 -0.5376
 2146SOL     OW 8349   6.419   3.605   3.148 -0.3369  0.0011  0.0096
 2146SOL    HW2 8350   6.506   3.641   3.134 -0.4133  0.6298  1.0046
 2146SOL    HW3 8351   6.383   3.658   3.219 -0.7477 -1.5558  1.0180
 2146SOL    MW4 8352   6.426   3.617   3.156 -0.4012 -0.1214  0.2739
 2147SOL     OW 8353   0.320   4.664   1.900 -0.0403  0.0319  0.5146
 2147SOL    HW2 8354   0.237   4.617   1.892  0.2084 -0.3826  0.3124
 2147SOL    HW3 8355   0.340   4.694   1.812  0.1663 -0.1218  0.5072
 2147SOL    MW4 8356   0.312   4.662   1.887  0.0197 -0.0430  0.4869
 2148SOL     OW 8357   0.209   0.333   2.008 -0.3247 -0.4814 -0.5243
 2148SOL    HW2 8358   0.280   0.380   1.965 -1.0501  0.0594 -1.1616
 2148SOL    HW3 8359   0.243   0.311   2.095  0.1573  0.9125 -0.3413
 2148SOL    MW4 8360   0.223   0.336   2.014 -0.3568 -0.2261 -0.5842
 2149SOL     OW 8361   4.269   0.903   5.782 -0.0207 -0.1592 -0.6298
 2149SOL    HW2 8362   4.278   0.809   5.770 -0.4358 -0.1194 -1.2794
 2149SOL    HW3 8363   4.238   0.913   5.872 -0.0076 -0.6447 -0.5724
 2149SOL    MW4 8364   4.266   0.892   5.792 -0.0738 -0.2180 -0.7079
 2150SOL     OW 8365   3.972   3.431   2.814  0.2247 -0.4632  0.0361
 2150SOL    HW2 8366   4.024   3.352   2.802  1.2416  0.4626 -2.2890
 2150SOL    HW3 8367   3.881   3.400   2.816  0.6595 -1.7884  0.5663
 2150SOL    MW4 8368   3.967   3.417   2.813  0.4163 -0.5159 -0.2007
 2151SOL     OW 8369   0.957   2.847   2.069 -0.0543 -0.2289  0.1505
 2151SOL    HW2 8370   0.913   2.862   1.985  0.2922 -0.1475 -0.0186
 2151SOL    HW3 8371   1.049   2.862   2.050  0.0544 -0.4743  0.4859
 2151SOL    MW4 8372   0.963   2.851   2.055  0.0058 -0.2505  0.1725
 2152SOL     OW 8373   4.568   1.463   3.163  0.5588  0.7330 -0.2012
 2152SOL    HW2 8374   4.641   1.525   3.162  0.2155  1.1560 -1.9221
 2152SOL    HW3 8375   4.603   1.384   3.123 -0.2361  1.3868 -2.3380
 2152SOL    MW4 8376   4.582   1.461   3.158  0.4086  0.8750 -0.7102
 2153SOL     OW 8377   2.490   1.130   2.605 -0.0244 -0.0813  0.0969
 2153SOL    HW2 8378   2.582   1.121   2.626  0.0659 -0.1278 -0.3043
 2153SOL    HW3 8379   2.478   1.224   2.589 -0.1177 -0.0295  0.4626
 2153SOL    MW4 8380   2.500   1.141   2.605 -0.0248 -0.0806  0.0922
 2154SOL     OW 8381   2.443   1.188   3.714 -0.2851 -0.0585  0.7158
 2154SOL    HW2 8382   2.533   1.206   3.741 -1.1017  2.3990  2.1092
 2154SOL    HW3 8383   2.389   1.227   3.783 -2.4440  0.0150 -0.9118
 2154SOL    MW4 8384   2.447   1.195   3.726 -0.6777  0.2755  0.6849
 2155SOL     OW 8385   5.926   5.794   5.952  0.0062 -0.5127 -0.3458
 2155SOL    HW2 8386   6.003   5.739   5.963 -0.6317 -1.5204 -0.7618
 2155SOL    HW3 8387   5.864   5.762   6.018 -0.5407 -0.5975 -0.8967
 2155SOL    MW4 8388   5.928   5.783   5.962 -0.1501 -0.6568 -0.4733
 2156SOL     OW 8389   2.704   5.008   1.425  0.0812 -0.5376 -0.0917
 2156SOL    HW2 8390   2.750   5.004   1.509 -2.1295  0.5540  1.2467
 2156SOL    HW3 8391   2.754   5.070   1.373  1.0565 -0.6512  0.6756
 2156SOL    MW4 8392   2.717   5.015   1.429 -0.0818 -0.4086  0.1861
 2157SOL     OW 8393   5.252   3.784   2.244 -0.0729 -0.0769  0.0173
 2157SOL    HW2 8394   5.185   3.766   2.178  1.5073 -0.2939 -1.5942
 2157SOL    HW3 8395   5.267   3.879   2.237 -1.2245  0.2550  1.4452
 2157SOL    MW4 8396   5.245   3.794   2.234 -0.0164 -0.0617 -0.0069
 2158SOL     OW 8397   2.925   4.430   3.439  0.0096  0.2567  0.3126
 2158SOL    HW2 8398   3.001   4.373   3.455 -0.2068 -0.3534 -0.7134
 2158SOL    HW3 8399   2.964   4.514   3.416  0.3495  0.2980  1.0107
 2158SOL    MW4 8400   2.940   4.433   3.438  0.0259  0.1816  0.2694
 2159SOL     OW 8401   4.141   6.312   5.414 -0.2775  0.6204  0.1679
 2159SOL    HW2 8402   4.196   6.290   5.339  2.5460 -1.4570  2.5917
 2159SOL    HW3 8403   4.062   6.259   5.403 -0.3662  1.0936 -1.7478
 2159SOL    MW4 8404   4.138   6.302   5.403  0.0833  0.4088  0.2350
 2160SOL     OW 8405   1.918   4.605   2.614  0.0256 -0.4500 -1.1811
 2160SOL    HW2 8406   1.830   4.570   2.603 -0.3913  1.0971 -3.3637
 2160SOL    HW3 8407   1.905   4.696   2.640  0.9741 -0.2265 -1.4337
 2160SOL    MW4 8408   1.905   4.613   2.616  0.0957 -0.2164 -1.5024
 2161SOL     OW 8409   1.668   1.642   5.251  0.3254  0.0565  0.6191
 2161SOL    HW2 8410   1.752   1.671   5.216  0.6302 -0.1783  1.1463
 2161SOL    HW3 8411   1.611   1.635   5.174  1.7860 -3.4163 -0.3287
 2161SOL    MW4 8412   1.671   1.645   5.236  0.5583 -0.4327  0.5636
 2162SOL     OW 8413   2.803   4.488   2.547  0.1769 -0.2155  0.3775
 2162SOL    HW2 8414   2.733   4.552   2.550  0.8796  0.6344 -0.7146
 2162SOL    HW3 8415   2.759   4.404   2.557 -0.9060  0.3406  0.4220
 2162SOL    MW4 8416   2.788   4.485   2.549  0.1267 -0.0300  0.2393
 2163SOL     OW 8417   0.849   5.538   2.827  0.3571 -0.3530  0.0534
 2163SOL    HW2 8418   0.933   5.580   2.846  0.8890 -0.2645 -2.1794
 2163SOL    HW3 8419   0.794   5.609   2.794 -0.4349 -0.5171  0.9834
 2163SOL    MW4 8420   0.853   5.553   2.825  0.3228 -0.3630 -0.1185
 2164SOL     OW 8421   3.808   0.785   4.404 -0.1017  0.2528  0.4776
 2164SOL    HW2 8422   3.747   0.847   4.443  0.2438  1.7037 -1.1720
 2164SOL    HW3 8423   3.754   0.711   4.376 -0.6441  0.1799  1.6972
 2164SOL    MW4 8424   3.793   0.784   4.405 -0.1277  0.4347  0.4208
 2165SOL     OW 8425   6.053   0.070   2.009 -0.4460  0.1715 -0.2384
 2165SOL    HW2 8426   6.131   0.107   2.051 -0.4369 -0.6028  0.4475
 2165SOL    HW3 8427   5.986   0.072   2.078 -0.3681 -1.3291 -0.0904
 2165SOL    MW4 8428   6.054   0.075   2.024 -0.4345 -0.1287 -0.1284
 2166SOL     OW 8429   1.727   1.641   0.358 -0.0991 -0.0827  0.1357
 2166SOL    HW2 8430   1.681   1.589   0.292 -0.5134  1.1929 -0.6180
 2166SOL    HW3 8431   1.718   1.591   0.439  1.0468 -2.0830 -0.8721
 2166SOL    MW4 8432   1.720   1.628   0.360 -0.0026 -0.1783 -0.0967
 2167SOL     OW 8433   2.724   3.628   5.147 -0.6190 -0.4252  0.0648
 2167SOL    HW2 8434   2.798   3.688   5.153  0.2880 -1.4718 -0.2104
 2167SOL    HW3 8435   2.716   3.609   5.053 -0.4057 -1.2887  0.2067
 2167SOL    MW4 8436   2.733   3.633   5.135 -0.4712 -0.6772  0.0472
 2168SOL     OW 8437   5.257   1.259   3.488  0.0160  0.2250 -0.1053
 2168SOL    HW2 8438   5.315   1.334   3.480 -0.4244  0.4293 -1.7587
 2168SOL    HW3 8439   5.196   1.283   3.557 -0.8473  1.9198 -1.3847
 2168SOL    MW4 8440   5.257   1.272   3.496 -0.1560  0.4756 -0.4923
 2169SOL     OW 8441   0.165   0.468   5.354  0.2124 -0.5784  0.5554
 2169SOL    HW2 8442   0.098   0.512   5.407 -0.3310 -0.5376 -0.1500
 2169SOL    HW3 8443   0.118   0.395   5.313 -0.2082  1.1276 -2.2696
 2169SOL    MW4 8444   0.150   0.464   5.356  0.0852 -0.3480  0.0896
 2170SOL     OW 8445   3.992   5.542   1.282  0.3662  0.7350  0.2220
 2170SOL    HW2 8446   3.923   5.476   1.285 -0.2199  1.3038 -0.3271
 2170SOL    HW3 8447   3.951   5.621   1.319  1.1367  0.7278  1.1274
 2170SOL    MW4 8448   3.978   5.544   1.288  0.3906  0.8091  0.2690
 2171SOL     OW 8449   4.907   5.164   4.115  0.2253 -0.3773 -0.2186
 2171SOL    HW2 8450   4.899   5.093   4.051 -0.7615 -1.3876  0.9892
 2171SOL    HW3 8451   4.831   5.154   4.173 -0.0765  1.8098 -0.1370
 2171SOL    MW4 8452   4.896   5.153   4.114  0.0553 -0.2220 -0.0485
 2172SOL     OW 8453   5.209   5.779   5.154  0.0639  0.2586 -0.3880
 2172SOL    HW2 8454   5.253   5.743   5.077  0.8123 -2.0032  0.9985
 2172SOL    HW3 8455   5.264   5.852   5.181  1.2051 -0.5008 -0.5702
 2172SOL    MW4 8456   5.222   5.784   5.147  0.3132 -0.1400 -0.2291
 2173SOL     OW 8457   0.712   5.651   4.417 -0.4081  0.5327  0.2219
 2173SOL    HW2 8458   0.658   5.719   4.376  0.6937  1.3090  0.0064
 2173SOL    HW3 8459   0.783   5.637   4.355 -1.3775 -1.9358 -0.4500
 2173SOL    MW4 8460   0.714   5.658   4.403 -0.3907  0.3094  0.1048
 2174SOL     OW 8461   3.579   3.761   3.999 -0.5372  0.6725  0.0377
 2174SOL    HW2 8462   3.589   3.710   3.919 -1.1206  0.3389  0.1716
 2174SOL    HW3 8463   3.667   3.795   4.018 -0.4260  0.8585 -0.8075
 2174SOL    MW4 8464   3.592   3.759   3.991 -0.5995  0.6531 -0.0561
 2175SOL     OW 8465   2.941   2.203   3.746  0.2502 -0.4124  0.0471
 2175SOL    HW2 8466   2.996   2.253   3.806  0.3887  1.4975 -1.5564
 2175SOL    HW3 8467   3.003   2.161   3.686  0.0590  0.5164 -0.8353
 2175SOL    MW4 8468   2.956   2.204   3.746  0.2432 -0.0379 -0.2808
 2176SOL     OW 8469   1.390   2.921   2.319  0.4457  0.0952 -0.5028
 2176SOL    HW2 8470   1.421   2.993   2.264  1.2850  0.6922  0.7040
 2176SOL    HW3 8471   1.463   2.903   2.378 -0.4719 -0.3910  0.5335
 2176SOL    MW4 8472   1.403   2.928   2.320  0.4354  0.1098 -0.2068
 2177SOL     OW 8473   5.864   1.821   4.635 -0.0393 -0.7591  0.4673
 2177SOL    HW2 8474   5.894   1.800   4.546  1.2646  1.3256  0.3364
 2177SOL    HW3 8475   5.945   1.840   4.683 -0.8225 -0.4596  1.7019
 2177SOL    MW4 8476   5.879   1.821   4.630  0.0294 -0.4445  0.6129
 2178SOL     OW 8477   4.647   3.569   0.595  0.2688 -0.5873  0.1502
 2178SOL    HW2 8478   4.619   3.633   0.531 -2.7302 -2.0730 -0.1987
 2178SOL    HW3 8479   4.735   3.597   0.621  0.1194  2.0953 -1.8759
 2178SOL    MW4 8480   4.655   3.581   0.590 -0.1466 -0.4294 -0.1632
 2179SOL     OW 8481   2.480   5.517   4.889 -0.1736  0.3050  0.0133
 2179SOL    HW2 8482   2.392   5.551   4.872  0.2276  2.6213  2.0438
 2179SOL    HW3 8483   2.465   5.426   4.916 -1.7920  0.2504 -0.9254
 2179SOL    MW4 8484   2.467   5.509   4.890 -0.3342  0.6034  0.1573
 2180SOL     OW 8485   4.699   5.113   0.209  0.1230 -0.4988 -0.5273
 2180SOL    HW2 8486   4.656   5.198   0.221  0.6262 -0.4760  1.4581
 2180SOL    HW3 8487   4.645   5.052   0.259  0.7947 -0.9911 -0.3942
 2180SOL    MW4 8488   4.686   5.116   0.217  0.2780 -0.5608 -0.2478
 2181SOL     OW 8489   1.469   5.894   2.884  0.4729 -0.8827  0.3908
 2181SOL    HW2 8490   1.490   5.957   2.953 -1.5900 -0.5631  0.7881
 2181SOL    HW3 8491   1.456   5.811   2.929 -0.5015 -0.7593  0.3448
 2181SOL    MW4 8492   1.470   5.892   2.899  0.0721 -0.8242  0.4372
 2182SOL     OW 8493   0.860   3.154   3.353  0.0899 -0.4435 -0.6622
 2182SOL    HW2 8494   0.875   3.070   3.397 -0.8878 -0.5754 -0.5766
 2182SOL    HW3 8495   0.914   3.149   3.273  2.4615  0.0842  0.8038
 2182SOL    MW4 8496   0.869   3.142   3.348  0.2738 -0.3913 -0.4575
 2183SOL     OW 8497   3.678   4.750   5.094 -0.3312  0.2015 -0.1083
 2183SOL    HW2 8498   3.595   4.757   5.142 -1.5047 -0.8248 -1.8852
 2183SOL    HW3 8499   3.723   4.676   5.135 -0.9148 -0.0981  0.0053
 2183SOL    MW4 8500   3.673   4.741   5.106 -0.5630  0.0265 -0.3278
 2184SOL     OW 8501   4.033   4.305   1.153  0.1696 -0.4497 -0.4869
 2184SOL    HW2 8502   4.093   4.305   1.079 -1.5242  0.0005 -1.9472
 2184SOL    HW3 8503   3.994   4.393   1.152 -1.2205 -1.0348 -0.2231
 2184SOL    MW4 8504   4.035   4.317   1.143 -0.2373 -0.4675 -0.6448
 2185SOL     OW 8505   6.229   0.863   0.487  0.0155 -0.2289 -0.3916
 2185SOL    HW2 8506   6.271   0.873   0.572 -0.9520  0.6354  0.0032
 2185SOL    HW3 8507   6.296   0.823   0.432  0.3943 -1.5846  0.9862
 2185SOL    MW4 8508   6.244   0.859   0.491 -0.0622 -0.2937 -0.1577
 2186SOL     OW 8509   3.610   1.969   2.754 -0.3932  0.6690 -0.0539
 2186SOL    HW2 8510   3.530   1.983   2.804 -1.5042 -0.9709 -1.2610
 2186SOL    HW3 8511   3.669   1.923   2.815 -1.1890 -0.0499  0.1860
 2186SOL    MW4 8512   3.608   1.965   2.769 -0.6448  0.3578 -0.1815
 2187SOL     OW 8513   5.494   2.048   4.937 -0.0822 -0.0956 -0.5025
 2187SOL    HW2 8514   5.432   1.978   4.961  1.1272 -1.4486 -1.2121
 2187SOL    HW3 8515   5.577   2.003   4.921  0.4714  1.3632 -2.0754
 2187SOL    MW4 8516   5.496   2.033   4.938  0.1504 -0.0816 -0.8036
 2188SOL     OW 8517   3.011   4.869   3.255 -0.1136  0.1859  0.1135
 2188SOL    HW2 8518   3.057   4.952   3.258 -0.7088  0.5223  0.1548
 2188SOL    HW3 8519   2.960   4.873   3.174 -2.3681  1.1000  1.4824
 2188SOL    MW4 8520   3.010   4.880   3.245 -0.4896  0.3509  0.2996
 2189SOL     OW 8521   5.678   2.013   2.488  0.0050  0.4634  0.1669
 2189SOL    HW2 8522   5.732   1.983   2.414  1.3750  1.5720  0.6879
 2189SOL    HW3 8523   5.627   2.086   2.452  0.4559  0.8144  0.2352
 2189SOL    MW4 8524   5.678   2.018   2.473  0.2453  0.6560  0.2446
 2190SOL     OW 8525   0.157   1.822   3.900  0.8042 -0.1329  0.2402
 2190SOL    HW2 8526   0.234   1.832   3.843  0.0459  0.7901 -0.6671
 2190SOL    HW3 8527   0.192   1.785   3.981  2.2587  0.5874 -0.0238
 2190SOL    MW4 8528   0.172   1.818   3.903  0.8961  0.0839  0.0857
 2191SOL     OW 8529   1.408   2.426   3.836 -0.7176  0.2507  0.0005
 2191SOL    HW2 8530   1.361   2.473   3.906  1.1344  0.3878  1.2310
 2191SOL    HW3 8531   1.428   2.341   3.874  1.0335  0.6194 -0.0130
 2191SOL    MW4 8532   1.404   2.421   3.850 -0.2422  0.3175  0.1611
 2192SOL     OW 8533   2.718   0.705   6.253  0.2977  0.1369 -0.5739
 2192SOL    HW2 8534   2.632   0.668   6.275  0.8558  0.9385  3.7727
 2192SOL    HW3 8535   2.701   0.798   6.238  0.4104  0.3428  0.5352
 2192SOL    MW4 8536   2.704   0.712   6.254  0.3862  0.2698  0.1459
 2193SOL     OW 8537   2.361   1.996   1.064 -0.1403 -0.1025  0.0632
 2193SOL    HW2 8538   2.295   1.926   1.071 -0.4642  0.2392  0.4650
 2193SOL    HW3 8539   2.328   2.052   0.993  0.1180 -0.3542 -0.2573
 2193SOL    MW4 8540   2.348   1.994   1.055 -0.1490 -0.0906  0.0739
 2194SOL     OW 8541   3.207   1.951   4.760  0.3006 -0.3558 -0.3404
 2194SOL    HW2 8542   3.213   2.029   4.705  0.4002 -0.0222  0.1414
 2194SOL    HW3 8543   3.113   1.933   4.765  0.0062  1.3508  1.7631
 2194SOL    MW4 8544   3.195   1.959   4.754  0.2749 -0.0866  0.0007
 2195SOL     OW 8545   3.277   1.411   0.405  0.3528 -0.5007  0.3833
 2195SOL    HW2 8546   3.330   1.490   0.404  1.9777 -1.5205  1.3192
 2195SOL    HW3 8547   3.326   1.349   0.459 -1.1154 -1.9831  0.1246
 2195SOL    MW4 8548   3.290   1.413   0.412  0.3735 -0.8308  0.4727
 2196SOL     OW 8549   1.281   1.106   0.432  0.0556 -0.2045  0.4818
 2196SOL    HW2 8550   1.305   1.086   0.341  1.8602  0.9873  0.6399
 2196SOL    HW3 8551   1.193   1.069   0.442 -1.0771  1.3829 -2.3712
 2196SOL    MW4 8552   1.273   1.098   0.421  0.1443  0.1622  0.1263
 2197SOL     OW 8553   1.593   0.187   5.748  0.6129 -0.3457  0.0017
 2197SOL    HW2 8554   1.637   0.270   5.728  3.4334 -1.4330  1.2740
 2197SOL    HW3 8555   1.545   0.166   5.668  0.5881  2.0231 -0.6849
 2197SOL    MW4 8556   1.592   0.196   5.735  0.9817 -0.1766  0.0790
 2198SOL     OW 8557   0.355   3.056   3.196  0.0490  0.1025  0.1993
 2198SOL    HW2 8558   0.406   3.004   3.135 -0.5139 -0.5764  0.2852
 2198SOL    HW3 8559   0.419   3.092   3.257  0.4164 -0.8379  0.3806
 2198SOL    MW4 8560   0.370   3.054   3.196  0.0232 -0.1111  0.2346
 2199SOL     OW 8561   1.825   4.313   3.449 -0.4910  0.6615 -0.0091
 2199SOL    HW2 8562   1.756   4.328   3.385 -2.1490 -3.0056  0.6611
 2199SOL    HW3 8563   1.825   4.392   3.504 -2.5932  1.6812 -1.3620
 2199SOL    MW4 8564   1.816   4.325   3.448 -0.9871  0.3122 -0.0992
 2200SOL     OW 8565   2.691   5.080   2.592  0.0957 -0.7475  0.5555
 2200SOL    HW2 8566   2.705   5.115   2.504 -0.8213 -1.8533 -0.0543
 2200SOL    HW3 8567   2.754   5.009   2.601  0.9647  0.0857  1.2420
 2200SOL    MW4 8568   2.701   5.075   2.582  0.0894 -0.7835  0.5656
 2201SOL     OW 8569   5.753   0.823   3.730 -0.4811  0.0079 -0.0134
 2201SOL    HW2 8570   5.845   0.843   3.744 -0.7814  0.9423  0.7040
 2201SOL    HW3 8571   5.721   0.895   3.674 -0.9778  0.1916  0.4916
 2201SOL    MW4 8572   5.761   0.835   3.724 -0.5863  0.1554  0.1479
 2202SOL     OW 8573   4.653   1.716   2.018 -0.0706  0.2990  0.1785
 2202SOL    HW2 8574   4.689   1.638   1.975  1.1185 -0.2723  2.0914
 2202SOL    HW3 8575   4.596   1.755   1.952 -1.9657 -3.0049 -0.3939
 2202SOL    MW4 8576   4.650   1.711   2.004 -0.1638 -0.2123  0.3553
 2203SOL     OW 8577   2.791   4.573   4.224 -0.2551  0.5328  0.0605
 2203SOL    HW2 8578   2.866   4.624   4.191  1.3939 -2.2116 -0.7653
 2203SOL    HW3 8579   2.813   4.555   4.315 -0.0089 -0.0323 -0.1034
 2203SOL    MW4 8580   2.804   4.577   4.232 -0.0050  0.0961 -0.0701
 2204SOL     OW 8581   0.382   2.178   2.000 -0.3708  0.1576  0.2334
 2204SOL    HW2 8582   0.428   2.221   1.928  0.9512 -0.9133  0.3925
 2204SOL    HW3 8583   0.361   2.248   2.061  0.3087  0.8019 -0.2581
 2204SOL    MW4 8584   0.385   2.193   1.998 -0.1067  0.1013  0.1896
 2205SOL     OW 8585   4.418   1.350   2.372  0.0905 -0.5454  0.7952
 2205SOL    HW2 8586   4.341   1.353   2.430  0.0413 -1.5331  0.7899
 2205SOL    HW3 8587   4.406   1.424   2.313 -0.4587 -0.2242  1.2989
 2205SOL    MW4 8588   4.406   1.360   2.372  0.0115 -0.6334  0.8610
 2206SOL     OW 8589   4.124   6.149   5.927 -0.1777 -0.1459 -0.5409
 2206SOL    HW2 8590   4.214   6.165   5.953 -0.3071 -1.5260  0.9041
 2206SOL    HW3 8591   4.114   6.054   5.931 -2.0241  0.0326  0.5804
 2206SOL    MW4 8592   4.135   6.139   5.931 -0.4384 -0.3045 -0.2023
 2207SOL     OW 8593   1.980   3.320   0.557  0.0249  0.3886  0.9572
 2207SOL    HW2 8594   2.070   3.293   0.578 -0.3339 -0.2520  1.7650
 2207SOL    HW3 8595   1.959   3.387   0.622  0.8252  2.5682 -0.9002
 2207SOL    MW4 8596   1.989   3.325   0.568  0.0832  0.5917  0.8187
 2208SOL     OW 8597   4.086   1.986   0.969 -0.5215 -0.7748  0.4928
 2208SOL    HW2 8598   4.170   2.017   1.003 -0.8855 -0.7988  1.4369
 2208SOL    HW3 8599   4.045   1.940   1.043 -0.0158 -3.5300 -0.8175
 2208SOL    MW4 8600   4.091   1.984   0.983 -0.5028 -1.1415  0.4445
 2209SOL     OW 8601   5.414   0.917   3.133 -0.8276 -0.2593 -0.0661
 2209SOL    HW2 8602   5.342   0.874   3.087  0.3338 -0.9981 -1.2789
 2209SOL    HW3 8603   5.377   0.942   3.217 -2.7767  0.2842 -1.0291
 2209SOL    MW4 8604   5.400   0.914   3.138 -0.9315 -0.2851 -0.3532
 2210SOL     OW 8605   0.926   0.695   4.421  0.1753  0.2468  0.2215
 2210SOL    HW2 8606   1.016   0.726   4.413  0.1335  0.4612  0.5640
 2210SOL    HW3 8607   0.934   0.604   4.451  0.3039 -0.1811 -1.0404
 2210SOL    MW4 8608   0.939   0.687   4.424  0.1868  0.2186  0.1002
 2211SOL     OW 8609   1.184   1.254   3.748  0.3560  0.2870 -0.0319
 2211SOL    HW2 8610   1.172   1.272   3.841  0.9162  0.9599 -0.0841
 2211SOL    HW3 8611   1.179   1.159   3.741  1.6792  0.1369  0.8831
 2211SOL    MW4 8612   1.181   1.244   3.759  0.6044  0.3560  0.0819
 2212SOL     OW 8613   1.520   4.021   1.963  0.1006 -0.2793  0.5979
 2212SOL    HW2 8614   1.582   4.085   1.997  0.9790 -1.5399  1.4993
 2212SOL    HW3 8615   1.502   4.049   1.874  3.3295 -0.7566 -0.3400
 2212SOL    MW4 8616   1.526   4.033   1.956  0.6425 -0.5086  0.5931
 2213SOL     OW 8617   0.951   1.335   2.706 -0.2267 -0.3570 -0.2374
 2213SOL    HW2 8618   0.949   1.427   2.679 -1.2381 -0.0014  0.9814
 2213SOL    HW3 8619   1.027   1.299   2.661 -0.3217  0.8529 -1.4305
 2213SOL    MW4 8620   0.961   1.342   2.697 -0.3727 -0.1505 -0.2340
 2214SOL     OW 8621   0.535   1.419   3.757  0.3008  0.1248 -0.1493
 2214SOL    HW2 8622   0.496   1.462   3.833  0.9984  0.3911  0.0705
 2214SOL    HW3 8623   0.477   1.439   3.684 -0.8543 -0.8612  0.4692
 2214SOL    MW4 8624   0.522   1.427   3.757  0.2404  0.0298 -0.0387
 2215SOL     OW 8625   3.167   6.110   3.627  0.0948  0.3002  0.2802
 2215SOL    HW2 8626   3.097   6.045   3.631  2.1856 -2.0214  1.9185
 2215SOL    HW3 8627   3.192   6.124   3.718  4.4450 -2.2443 -0.2477
 2215SOL    MW4 8628   3.161   6.103   3.640  0.9446 -0.3418  0.4267
 2216SOL     OW 8629   4.596   1.184   5.837  0.7361  0.2024 -0.6987
 2216SOL    HW2 8630   4.658   1.236   5.786  1.6827 -0.6673 -0.4801
 2216SOL    HW3 8631   4.557   1.123   5.774  1.0399 -0.0868 -0.6118
 2216SOL    MW4 8632   4.599   1.183   5.822  0.9011  0.0495 -0.6584
 2217SOL     OW 8633   1.585   0.853   1.160 -0.0222 -0.4192 -0.3976
 2217SOL    HW2 8634   1.675   0.884   1.158 -0.8000  2.2147  1.0672
 2217SOL    HW3 8635   1.593   0.758   1.163  2.7098 -0.2638  0.0131
 2217SOL    MW4 8636   1.598   0.844   1.160  0.2356 -0.0512 -0.1502
 2218SOL     OW 8637   3.828   5.221   1.840 -0.2650  0.3513  0.4529
 2218SOL    HW2 8638   3.791   5.133   1.829 -0.3613  0.7074 -3.1189
 2218SOL    HW3 8639   3.760   5.271   1.884 -3.3382  0.3622 -3.7724
 2218SOL    MW4 8640   3.814   5.216   1.844 -0.6832  0.3998 -0.5758
 2219SOL     OW 8641   3.474   4.250   1.942  0.1328 -0.4615  0.4357
 2219SOL    HW2 8642   3.405   4.315   1.927  1.1372  0.9463  1.6103
 2219SOL    HW3 8643   3.444   4.202   2.019  0.1647 -0.2515  0.5816
 2219SOL    MW4 8644   3.461   4.253   1.950  0.2695 -0.2480  0.6099
 2220SOL     OW 8645   0.609   4.746   0.640 -0.0147  0.1252  0.0719
 2220SOL    HW2 8646   0.566   4.730   0.556 -0.3046 -1.6782  0.5317
 2220SOL    HW3 8647   0.560   4.819   0.678 -2.6518 -1.7586  0.5095
 2220SOL    MW4 8648   0.597   4.754   0.634 -0.4009 -0.3613  0.1903
 2221SOL     OW 8649   0.062   3.288   3.695 -0.1523 -0.2588 -0.2180
 2221SOL    HW2 8650   0.143   3.292   3.643 -0.4921  0.1796 -0.7307
 2221SOL    HW3 8651   0.084   3.332   3.777 -0.3221  1.3899 -1.0019
 2221SOL    MW4 8652   0.075   3.294   3.699 -0.2195  0.0166 -0.3890
 2222SOL     OW 8653   5.455   5.687   0.879 -0.1328  0.8702  0.1759
 2222SOL    HW2 8654   5.475   5.617   0.941  0.6377  0.9704  0.0518
 2222SOL    HW3 8655   5.468   5.768   0.928  0.6522  0.9547 -0.1534
 2222SOL    MW4 8656   5.459   5.688   0.893  0.0725  0.8946  0.1161
 2223SOL     OW 8657   3.419   2.373   5.889  0.4912  0.6745 -0.1335
 2223SOL    HW2 8658   3.499   2.320   5.895  0.4818  0.7862  1.3990
 2223SOL    HW3 8659   3.444   2.458   5.926 -0.7059  0.2144  1.9177
 2223SOL    MW4 8660   3.433   2.377   5.895  0.3320  0.6285  0.3393
 2224SOL     OW 8661   1.380   4.631   4.520  0.2394 -0.5465 -0.1298
 2224SOL    HW2 8662   1.287   4.657   4.517 -0.6764 -3.5010 -0.7532
 2224SOL    HW3 8663   1.393   4.599   4.609  0.7518  0.0737  0.0250
 2224SOL    MW4 8664   1.369   4.630   4.531  0.1862 -0.8545 -0.1916
 2225SOL     OW 8665   4.639   1.124   0.877 -0.6246  0.5363 -0.0049
 2225SOL    HW2 8666   4.555   1.153   0.912 -1.1614 -0.8545 -0.0796
 2225SOL    HW3 8667   4.636   1.149   0.785 -0.8762  0.6664  0.0360
 2225SOL    MW4 8668   4.627   1.131   0.869 -0.7286  0.3699 -0.0094
 2226SOL     OW 8669   3.850   1.956   2.469 -0.0441  0.5626 -0.4791
 2226SOL    HW2 8670   3.780   2.008   2.509 -1.0420 -0.1570 -1.2354
 2226SOL    HW3 8671   3.814   1.927   2.386  0.4182 -1.4257 -0.0469
 2226SOL    MW4 8672   3.836   1.959   2.464 -0.1148  0.2053 -0.5219
 2227SOL     OW 8673   5.952   0.869   1.685  0.6664  0.3536  0.8773
 2227SOL    HW2 8674   5.963   0.925   1.608  1.0792  0.9969  1.3830
 2227SOL    HW3 8675   5.867   0.827   1.673  0.8403  0.2539 -0.0434
 2227SOL    MW4 8676   5.942   0.871   1.674  0.7438  0.4253  0.8225
 2228SOL     OW 8677   5.698   5.148   5.320  0.6791 -0.1267 -0.2085
 2228SOL    HW2 8678   5.681   5.240   5.341 -0.0168 -0.2531 -0.1647
 2228SOL    HW3 8679   5.652   5.100   5.389  0.2651 -0.5171 -0.7514
 2228SOL    MW4 8680   5.689   5.154   5.332  0.5327 -0.1949 -0.2744
 2229SOL     OW 8681   2.390   1.389   2.570 -0.2469 -0.4017  0.2180
 2229SOL    HW2 8682   2.396   1.430   2.484 -0.9689 -0.5518  0.0848
 2229SOL    HW3 8683   2.301   1.354   2.573 -0.8403  1.0873  1.6818
 2229SOL    MW4 8684   2.379   1.390   2.559 -0.4205 -0.2250  0.3935
 2230SOL     OW 8685   0.085   6.285   0.803  0.3007  0.0535  0.0729
 2230SOL    HW2 8686   0.020   6.298   0.734  0.7457  0.8817 -0.2010
 2230SOL    HW3 8687   0.134   6.207   0.777  2.1086  1.7315 -1.8890
 2230SOL    MW4 8688   0.083   6.276   0.791  0.5980  0.3841 -0.2221
 2231SOL     OW 8689   2.430   4.154   0.157  0.4622 -0.1175  0.4707
 2231SOL    HW2 8690   2.483   4.098   0.100  1.3915 -0.2064  1.3747
 2231SOL    HW3 8691   2.492   4.219   0.190 -0.3504  0.7261  0.3561
 2231SOL    MW4 8692   2.445   4.155   0.154  0.4776 -0.0180  0.5749
 2232SOL     OW 8693   4.619   2.444   2.610  0.6397  0.1078  0.7281
 2232SOL    HW2 8694   4.631   2.430   2.704  0.7277  1.2464  0.9115
 2232SOL    HW3 8695   4.706   2.430   2.572  0.4792 -0.9299  0.7249
 2232SOL    MW4 8696   4.632   2.441   2.617  0.6301  0.1211  0.7518
 2233SOL     OW 8697   5.308   3.242   5.960  0.7508  0.3287  0.2588
 2233SOL    HW2 8698   5.224   3.261   5.918 -0.2544 -2.1573  0.9419
 2233SOL    HW3 8699   5.319   3.312   6.025  0.7097  2.3243 -1.7787
 2233SOL    MW4 8700   5.298   3.254   5.963  0.6128  0.2640  0.0801
 2234SOL     OW 8701   0.573   5.094   6.273 -0.1666  0.1550  0.0186
 2234SOL    HW2 8702   0.502   5.057   6.326 -0.3283 -1.0665 -1.0095
 2234SOL    HW3 8703   0.529   5.160   6.219 -0.4230 -0.1694 -0.1776
 2234SOL    MW4 8704   0.558   5.098   6.273 -0.2218 -0.0489 -0.1429
 2235SOL     OW 8705   3.164   5.131   3.515  0.3240  0.2374 -0.1698
 2235SOL    HW2 8706   3.237   5.076   3.543 -1.3378 -1.9574  0.1610
 2235SOL    HW3 8707   3.159   5.200   3.582  0.8505 -0.7467  0.9285
 2235SOL    MW4 8708   3.173   5.133   3.528  0.1742 -0.1820  0.0188
 2236SOL     OW 8709   0.170   5.933   1.009 -0.5816 -0.2175 -0.5147
 2236SOL    HW2 8710   0.253   5.953   0.968 -0.6814  2.3913  0.3518
 2236SOL    HW3 8711   0.179   5.843   1.040  1.7476 -0.1449 -0.8120
 2236SOL    MW4 8712   0.182   5.924   1.008 -0.2874  0.1363 -0.4396
 2237SOL     OW 8713   3.347   3.088   6.126  0.7717  0.0488 -0.0437
 2237SOL    HW2 8714   3.277   3.124   6.181  0.2671  0.8747 -1.1700
 2237SOL    HW3 8715   3.301   3.035   6.061  1.4235 -1.6230  0.8267
 2237SOL    MW4 8716   3.331   3.086   6.124  0.7911 -0.0628 -0.0774
 2238SOL     OW 8717   4.883   3.618   0.710 -0.6357 -0.3743 -0.1962
 2238SOL    HW2 8718   4.918   3.707   0.716  0.4380 -0.6000 -2.0458
 2238SOL    HW3 8719   4.864   3.593   0.800 -1.5946  1.9458  0.3135
 2238SOL    MW4 8720   4.885   3.626   0.723 -0.6205 -0.0980 -0.3730
 2239SOL     OW 8721   0.221   0.840   2.992  0.4184 -0.1341  0.2422
 2239SOL    HW2 8722   0.248   0.751   3.014  1.1428 -0.2506 -1.0626
 2239SOL    HW3 8723   0.134   0.830   2.953 -0.0946 -0.1069  1.3354
 2239SOL    MW4 8724   0.213   0.827   2.990  0.4463 -0.1459  0.2143
 2240SOL     OW 8725   3.098   2.644   0.410  0.0388  0.0882 -0.0527
 2240SOL    HW2 8726   3.081   2.676   0.321  0.6971  2.3361  0.5694
 2240SOL    HW3 8727   3.068   2.715   0.467  0.2262 -1.0392  1.5233
 2240SOL    MW4 8728   3.092   2.658   0.406  0.1504  0.2361  0.2373
 2241SOL     OW 8729   3.923   2.120   5.516  0.2985 -0.6826 -0.0664
 2241SOL    HW2 8730   4.007   2.095   5.554  0.2973 -0.6663 -0.0526
 2241SOL    HW3 8731   3.858   2.078   5.573  0.2826 -0.0689  0.3825
 2241SOL    MW4 8732   3.925   2.112   5.529  0.2963 -0.5995 -0.0053
 2242SOL     OW 8733   1.138   6.272   2.541 -0.3861 -0.2194 -0.2737
 2242SOL    HW2 8734   1.054   6.295   2.501 -1.2802 -1.3761  0.8958
 2242SOL    HW3 8735   1.136   6.177   2.550  0.5846 -0.1647  0.7749
 2242SOL    MW4 8736   1.126   6.263   2.537 -0.3760 -0.3648  0.0189
 2243SOL     OW 8737   1.758   3.030   2.248  0.7604 -0.2734 -0.4644
 2243SOL    HW2 8738   1.706   2.955   2.278  0.8520 -1.1209 -2.2738
 2243SOL    HW3 8739   1.820   2.993   2.185  0.4747  1.3613 -1.7990
 2243SOL    MW4 8740   1.759   3.016   2.244  0.7348 -0.1696 -0.8792
 2244SOL     OW 8741   3.544   5.733   5.109 -0.5628 -0.0240 -0.1860
 2244SOL    HW2 8742   3.516   5.642   5.124  0.7770 -0.4113  0.1245
 2244SOL    HW3 8743   3.493   5.762   5.034  0.2701 -1.6667 -1.4621
 2244SOL    MW4 8744   3.534   5.725   5.101 -0.2761 -0.2919 -0.3134
 2245SOL     OW 8745   3.562   2.158   3.390 -0.0680 -0.5158 -0.4418
 2245SOL    HW2 8746   3.522   2.104   3.458  0.5507  0.4352  0.7171
 2245SOL    HW3 8747   3.497   2.226   3.372  0.6868  0.6137  0.9310
 2245SOL    MW4 8748   3.548   2.160   3.396  0.1132 -0.2413 -0.1077
 2246SOL     OW 8749   3.043   3.857   3.261  0.4230  0.0313 -0.2679
 2246SOL    HW2 8750   2.976   3.802   3.221  0.7884 -0.5177 -0.1494
 2246SOL    HW3 8751   3.035   3.941   3.217  0.0840 -0.2253 -0.7058
 2246SOL    MW4 8752   3.033   3.861   3.250  0.4265 -0.0750 -0.3100
 2247SOL     OW 8753   4.503   2.234   4.702  0.3882  0.6210  0.0083
 2247SOL    HW2 8754   4.451   2.227   4.782  3.4151 -1.1264  2.0626
 2247SOL    HW3 8755   4.472   2.162   4.647  1.0449 -0.9031  1.5269
 2247SOL    MW4 8756   4.492   2.223   4.705  0.8742  0.1894  0.4797
 2248SOL     OW 8757   3.135   0.875   1.069  0.2870  0.0785 -0.2961
 2248SOL    HW2 8758   3.207   0.861   1.007 -0.5357  2.6784 -2.0105
 2248SOL    HW3 8759   3.134   0.970   1.083 -2.7389  0.1352 -0.2890
 2248SOL    MW4 8760   3.145   0.886   1.063 -0.2208  0.4290 -0.5214
 2249SOL     OW 8761   3.790   4.018   5.718  0.2426  0.3744  0.1502
 2249SOL    HW2 8762   3.784   4.029   5.624 -1.3257 -0.8332  0.0627
 2249SOL    HW3 8763   3.783   4.106   5.754  0.8916  0.8450 -0.8492
 2249SOL    MW4 8764   3.788   4.031   5.711  0.1213  0.2771  0.0068
 2250SOL     OW 8765   5.378   0.321   3.585  1.1708 -0.2901  0.1729
 2250SOL    HW2 8766   5.404   0.320   3.493 -1.5183  1.6838 -0.7368
 2250SOL    HW3 8767   5.365   0.228   3.607  2.1673 -0.8146 -1.3181
 2250SOL    MW4 8768   5.380   0.309   3.576  0.9475 -0.0989 -0.1439
 2251SOL     OW 8769   3.896   2.338   2.416  0.4330  0.3368 -0.3420
 2251SOL    HW2 8770   3.971   2.281   2.433  0.9635  1.7597  2.8200
 2251SOL    HW3 8771   3.934   2.416   2.377  0.5283  0.7277  0.5068
 2251SOL    MW4 8772   3.911   2.340   2.413  0.5156  0.5761  0.1872
 2252SOL     OW 8773   3.673   1.035   2.805  0.7936  0.2341  0.3303
 2252SOL    HW2 8774   3.712   1.085   2.734 -1.8122  2.3586  0.2320
 2252SOL    HW3 8775   3.682   1.092   2.882  0.4159 -0.4643  0.9041
 2252SOL    MW4 8776   3.679   1.049   2.806  0.4000  0.4223  0.3930
 2253SOL     OW 8777   4.998   2.222   5.153 -0.3014  0.1995 -0.2720
 2253SOL    HW2 8778   5.035   2.167   5.083 -2.4399 -0.7675 -0.7368
 2253SOL    HW3 8779   5.004   2.168   5.231  2.5484  1.4677  0.5325
 2253SOL    MW4 8780   5.004   2.207   5.154 -0.2076  0.2392 -0.2272
 2254SOL     OW 8781   1.646   1.583   1.988  0.4588  0.3610 -0.4183
 2254SOL    HW2 8782   1.631   1.509   1.928 -0.6921  1.1020 -1.0769
 2254SOL    HW3 8783   1.731   1.564   2.028  0.6471 -0.8145 -1.3128
 2254SOL    MW4 8784   1.655   1.571   1.985  0.3318  0.3037 -0.6232
 2255SOL     OW 8785   1.454   2.899   5.191  0.0390 -0.3099  0.0379
 2255SOL    HW2 8786   1.455   2.816   5.144  1.7032 -0.5408  0.4133
 2255SOL    HW3 8787   1.497   2.960   5.132 -2.0523  0.5782 -0.6565
 2255SOL    MW4 8788   1.460   2.896   5.177 -0.0173 -0.2232 -0.0042
 2256SOL     OW 8789   5.999   2.928   0.082  0.2793 -0.4609  0.1155
 2256SOL    HW2 8790   5.925   2.886   0.125  0.7401 -0.4235  0.9755
 2256SOL    HW3 8791   6.076   2.900   0.133  0.8373 -0.3538 -0.6426
 2256SOL    MW4 8792   6.000   2.919   0.094  0.4137 -0.4418  0.1289
 2257SOL     OW 8793   0.950   4.748   2.090 -0.2990 -0.3152  0.0622
 2257SOL    HW2 8794   0.944   4.804   2.013 -1.3161  0.9080  0.9763
 2257SOL    HW3 8795   0.906   4.667   2.064  1.5346 -0.8949 -1.4066
 2257SOL    MW4 8796   0.943   4.744   2.076 -0.1913 -0.2303 -0.0110
 2258SOL     OW 8797   4.578   1.144   0.006  0.1443  0.0170  0.6230
 2258SOL    HW2 8798   4.604   1.226  -0.035  1.1966 -1.3781 -1.7071
 2258SOL    HW3 8799   4.653   1.086  -0.007 -1.0608 -1.7125  1.0267
 2258SOL    MW4 8800   4.591   1.147  -0.001  0.1242 -0.3953  0.3688
 2259SOL     OW 8801   1.895   5.731   2.984 -0.2789  0.7981 -0.2320
 2259SOL    HW2 8802   1.873   5.662   3.047 -0.2030 -0.1196 -1.1888
 2259SOL    HW3 8803   1.973   5.773   3.021 -1.1589  1.3431  1.0881
 2259SOL    MW4 8804   1.902   5.728   2.997 -0.3850  0.7489 -0.1841
 2260SOL     OW 8805   1.821   4.684   1.961 -0.3238 -0.2977  0.1006
 2260SOL    HW2 8806   1.833   4.619   1.892  3.1662  0.2947 -0.0224
 2260SOL    HW3 8807   1.840   4.637   2.042 -0.2597 -0.0277  0.2429
 2260SOL    MW4 8808   1.825   4.669   1.963  0.1451 -0.1839  0.1032
 2261SOL     OW 8809   4.194   4.391   3.640 -0.2137 -0.2295  0.0971
 2261SOL    HW2 8810   4.246   4.471   3.646 -0.9705  0.1948  1.6325
 2261SOL    HW3 8811   4.258   4.320   3.648  0.3553  0.2374 -0.2728
 2261SOL    MW4 8812   4.209   4.392   3.642 -0.2385 -0.1119  0.2509
 2262SOL     OW 8813   2.427   1.762   5.276 -0.2965  0.1896  0.2315
 2262SOL    HW2 8814   2.429   1.672   5.307 -1.5007  0.1967  0.3602
 2262SOL    HW3 8815   2.417   1.754   5.181  0.3341  0.1950  0.1575
 2262SOL    MW4 8816   2.426   1.749   5.267 -0.3722  0.1912  0.2387
 2263SOL     OW 8817   4.211   1.237   0.293  0.2557  0.4211 -0.3246
 2263SOL    HW2 8818   4.210   1.319   0.342 -0.8102 -0.4478  1.2047
 2263SOL    HW3 8819   4.302   1.209   0.295  0.1713  0.1783  1.6436
 2263SOL    MW4 8820   4.223   1.244   0.300  0.1039  0.2744  0.1369
 2264SOL     OW 8821   5.694   5.223   2.488 -0.0913 -0.5302 -0.0034
 2264SOL    HW2 8822   5.674   5.173   2.568  1.6949 -0.0908  0.7777
 2264SOL    HW3 8823   5.786   5.202   2.470  0.5463  2.0098  0.0259
 2264SOL    MW4 8824   5.704   5.213   2.496  0.2285 -0.1371  0.1035
 2265SOL     OW 8825   2.865   2.575   0.029  0.5976 -0.0515 -0.1069
 2265SOL    HW2 8826   2.948   2.599   0.072  0.4036  0.9393 -0.2629
 2265SOL    HW3 8827   2.798   2.593   0.094  0.3239  1.2254 -0.7209
 2265SOL    MW4 8828   2.867   2.581   0.043  0.5359  0.2477 -0.2085
 2266SOL     OW 8829   5.940   0.294   1.732 -0.5222  0.3013 -0.7731
 2266SOL    HW2 8830   6.008   0.258   1.674 -0.8428 -0.5122 -0.6623
 2266SOL    HW3 8831   5.879   0.221   1.744 -0.8934  0.7247 -0.0763
 2266SOL    MW4 8832   5.941   0.280   1.726 -0.6135  0.2499 -0.6665
 2267SOL     OW 8833   5.956   5.560   0.292  0.3788  0.0163 -0.1251
 2267SOL    HW2 8834   6.017   5.540   0.221 -0.4158  1.6586 -1.3539
 2267SOL    HW3 8835   5.981   5.647   0.322  0.5771 -0.5816  1.5282
 2267SOL    MW4 8836   5.967   5.569   0.286  0.3001  0.1541 -0.0691
 2268SOL     OW 8837   4.398   5.167   5.230  0.0745 -0.1004  0.1872
 2268SOL    HW2 8838   4.476   5.207   5.267 -0.0040 -0.9570  1.3533
 2268SOL    HW3 8839   4.415   5.073   5.236  1.0743 -0.3986 -4.1885
 2268SOL    MW4 8840   4.411   5.160   5.236  0.1960 -0.2527 -0.2363
 2269SOL     OW 8841   2.462   1.587   6.158 -0.9166  0.2201 -0.5554
 2269SOL    HW2 8842   2.461   1.682   6.170 -1.8096  0.0813  0.5975
 2269SOL    HW3 8843   2.483   1.552   6.244 -1.7477 -0.6601 -0.6992
 2269SOL    MW4 8844   2.464   1.595   6.171 -1.1440  0.0856 -0.4223
 2270SOL     OW 8845   1.400   5.490   0.174 -0.1963 -0.8249  0.1074
 2270SOL    HW2 8846   1.388   5.415   0.233  1.7419 -0.5752  0.9123
 2270SOL    HW3 8847   1.483   5.529   0.203 -1.0134  1.4731 -0.4766
 2270SOL    MW4 8848   1.410   5.485   0.186 -0.0484 -0.4888  0.1366
 2271SOL     OW 8849   1.852   5.257   3.278 -0.0321 -0.0781  0.1186
 2271SOL    HW2 8850   1.878   5.303   3.198 -0.4277 -0.5980 -0.3112
 2271SOL    HW3 8851   1.793   5.318   3.322 -1.3820 -0.5562 -0.9566
 2271SOL    MW4 8852   1.848   5.271   3.273 -0.2624 -0.2098 -0.0800
 2272SOL     OW 8853   3.640   2.198   5.903 -0.0621  0.2089  0.1727
 2272SOL    HW2 8854   3.708   2.155   5.955 -1.8235 -0.9568  1.6382
 2272SOL    HW3 8855   3.637   2.147   5.822 -1.0293 -1.5068  1.2375
 2272SOL    MW4 8856   3.649   2.186   5.899 -0.4221 -0.1712  0.5065
 2273SOL     OW 8857   5.577   6.186   3.138  0.6056 -0.0674 -0.2739
 2273SOL    HW2 8858   5.613   6.152   3.220  1.1868 -0.6701 -0.7718
 2273SOL    HW3 8859   5.534   6.111   3.098 -0.4748  0.4465 -0.0980
 2273SOL    MW4 8860   5.576   6.172   3.144  0.5397 -0.0792 -0.3164
 2274SOL     OW 8861   0.362   1.448   5.280 -0.1960  0.1001 -0.1403
 2274SOL    HW2 8862   0.316   1.450   5.364 -2.7766  0.9047 -1.4722
 2274SOL    HW3 8863   0.336   1.529   5.236 -0.4547 -1.1593 -2.4636
 2274SOL    MW4 8864   0.353   1.459   5.286 -0.5706  0.0401 -0.6226
 2275SOL     OW 8865   5.714   1.611   5.194  0.4438  0.3232 -0.3398
 2275SOL    HW2 8866   5.719   1.519   5.169 -1.0429  1.0211 -3.8018
 2275SOL    HW3 8867   5.667   1.610   5.278  1.1566 -2.0561  0.1108
 2275SOL    MW4 8868   5.708   1.599   5.202  0.3417  0.1013 -0.7371
 2276SOL     OW 8869   1.256   6.112   2.154 -0.0506 -0.6033  0.2586
 2276SOL    HW2 8870   1.253   6.204   2.180 -1.2858 -0.5944  0.1041
 2276SOL    HW3 8871   1.336   6.105   2.101  0.4627  0.2014  0.8956
 2276SOL    MW4 8872   1.266   6.123   2.150 -0.1458 -0.4959  0.3223
 2277SOL     OW 8873   4.323   0.298   1.375  0.0248  0.3203 -0.1242
 2277SOL    HW2 8874   4.345   0.327   1.287  0.9998  3.3927  1.0077
 2277SOL    HW3 8875   4.280   0.374   1.416 -1.5025 -1.3902  1.7085
 2277SOL    MW4 8876   4.320   0.312   1.369 -0.0481  0.5000  0.2670
 2278SOL     OW 8877   4.463   0.008   5.323 -0.0474 -0.6688 -0.1083
 2278SOL    HW2 8878   4.539  -0.031   5.366 -0.3799 -1.1974  0.0082
 2278SOL    HW3 8879   4.414   0.050   5.393 -0.4911 -1.3703  0.0131
 2278SOL    MW4 8880   4.467   0.008   5.338 -0.1498 -0.8311 -0.0769
 2279SOL     OW 8881   0.094   3.254   4.752  0.6290 -0.4557  0.1885
 2279SOL    HW2 8882   0.038   3.228   4.824  1.8168  0.3248  1.4539
 2279SOL    HW3 8883   0.169   3.297   4.794 -0.0251  2.7408 -1.5920
 2279SOL    MW4 8884   0.097   3.256   4.767  0.6994  0.0691  0.1205
 2280SOL     OW 8885   3.397   2.523   1.740 -0.2146  0.0908 -0.3436
 2280SOL    HW2 8886   3.379   2.508   1.833 -0.9251 -1.1274 -0.6493
 2280SOL    HW3 8887   3.311   2.538   1.701 -0.3539 -2.5403 -1.2829
 2280SOL    MW4 8888   3.383   2.523   1.747 -0.3267 -0.4170 -0.5079
 2281SOL     OW 8889   1.729   5.221   3.605 -0.1294  0.2514  0.4693
 2281SOL    HW2 8890   1.811   5.261   3.633  0.3933 -0.8168  0.5110
 2281SOL    HW3 8891   1.665   5.245   3.672 -0.0161  1.6108  0.1156
 2281SOL    MW4 8892   1.731   5.230   3.617 -0.0455  0.2898  0.4281
 2282SOL     OW 8893   5.263   1.836   2.987 -0.1123  0.0012 -0.0115
 2282SOL    HW2 8894   5.202   1.822   2.914 -0.1896 -0.8431  0.2038
 2282SOL    HW3 8895   5.283   1.748   3.019  1.2358  0.2623 -0.0768
 2282SOL    MW4 8896   5.257   1.822   2.981  0.0554 -0.0758  0.0083
 2283SOL     OW 8897   4.910   0.165   1.080  0.5775  0.3515 -0.1923
 2283SOL    HW2 8898   4.835   0.124   1.121  1.9406 -0.3077  1.7626
 2283SOL    HW3 8899   4.877   0.196   0.995 -2.2086  1.2904  1.1319
 2283SOL    MW4 8900   4.896   0.164   1.074  0.3897  0.3884  0.2404
 2284SOL     OW 8901   4.824   3.667   2.063 -0.2707  0.6332 -0.2265
 2284SOL    HW2 8902   4.760   3.728   2.100  0.8020  1.4001  0.4297
 2284SOL    HW3 8903   4.903   3.719   2.053  0.6499 -0.6298  0.2754
 2284SOL    MW4 8904   4.826   3.682   2.067 -0.0077  0.5678 -0.0737
 2285SOL     OW 8905   2.703   1.241   2.187 -0.0168 -0.0603 -0.8034
 2285SOL    HW2 8906   2.722   1.310   2.250 -0.0748 -0.6319 -0.1499
 2285SOL    HW3 8907   2.719   1.282   2.102  0.5192  0.5821 -0.4074
 2285SOL    MW4 8908   2.708   1.256   2.184  0.0463 -0.0510 -0.6649
 2286SOL     OW 8909   4.745   3.135   5.999  0.4111 -0.6247 -0.0014
 2286SOL    HW2 8910   4.756   3.229   5.983  1.9478 -0.8483 -0.3607
 2286SOL    HW3 8911   4.652   3.125   6.019  0.4511  1.1656  1.2904
 2286SOL    MW4 8912   4.734   3.146   6.000  0.6191 -0.4180  0.1217
 2287SOL     OW 8913   0.840   3.152   2.758  0.1026  0.1799 -0.4359
 2287SOL    HW2 8914   0.900   3.225   2.741  0.6182  0.0426  0.6976
 2287SOL    HW3 8915   0.841   3.101   2.677  1.1802  0.4296 -0.5982
 2287SOL    MW4 8916   0.848   3.154   2.745  0.3128  0.1948 -0.3078
 2288SOL     OW 8917   1.661   1.874   5.380  0.5008  0.3369  0.4803
 2288SOL    HW2 8918   1.646   1.865   5.474  0.5861 -0.5629  0.4209
 2288SOL    HW3 8919   1.659   1.784   5.347  0.9578  0.6043 -0.3046
 2288SOL    MW4 8920   1.658   1.861   5.388  0.5723  0.2535  0.3689
 2289SOL     OW 8921   0.576   5.342   4.428 -0.4086  0.2216 -0.4016
 2289SOL    HW2 8922   0.635   5.388   4.368  0.9330 -1.2474 -0.2840
 2289SOL    HW3 8923   0.628   5.268   4.460 -2.1167 -0.7721  0.2045
 2289SOL    MW4 8924   0.591   5.338   4.424 -0.4570 -0.1033 -0.3062
 2290SOL     OW 8925   1.495   1.327   5.628  0.1728  0.4123 -0.1342
 2290SOL    HW2 8926   1.572   1.363   5.584  0.9638 -0.2997  0.6275
 2290SOL    HW3 8927   1.472   1.250   5.577  0.1109  0.4909 -0.2247
 2290SOL    MW4 8928   1.503   1.322   5.616  0.2690  0.3287 -0.0456
 2291SOL     OW 8929   3.085   4.819   1.482  0.1716 -0.4627  0.4607
 2291SOL    HW2 8930   3.029   4.753   1.440  1.9200 -1.2681 -0.7332
 2291SOL    HW3 8931   3.086   4.892   1.421 -0.6557  0.1438  1.1416
 2291SOL    MW4 8932   3.078   4.820   1.469  0.2931 -0.4889  0.3930
 2292SOL     OW 8933   0.385   4.939   1.698  0.7354  0.5515  0.4956
 2292SOL    HW2 8934   0.463   4.969   1.745  0.2565 -0.9510  2.3473
 2292SOL    HW3 8935   0.414   4.863   1.648  0.6676  0.5935  0.3909
 2292SOL    MW4 8936   0.399   4.933   1.697  0.6633  0.3588  0.7261
 2293SOL     OW 8937   5.516   5.209   2.228 -0.3074  0.2859 -0.0384
 2293SOL    HW2 8938   5.564   5.248   2.300 -0.2039  1.6522 -0.8194
 2293SOL    HW3 8939   5.558   5.243   2.149  0.1281 -1.8326 -0.8009
 2293SOL    MW4 8940   5.528   5.218   2.227 -0.2363  0.1867 -0.2421
 2294SOL     OW 8941   5.083   5.094   1.775  0.1573  0.5635  0.4278
 2294SOL    HW2 8942   5.002   5.064   1.815  1.0249 -2.4325  0.2119
 2294SOL    HW3 8943   5.057   5.125   1.688 -0.7747 -0.6919  0.2276
 2294SOL    MW4 8944   5.069   5.094   1.769  0.1488  0.0026  0.3729
 2295SOL     OW 8945   2.096   4.595   3.289 -0.4851 -0.2486 -0.3149
 2295SOL    HW2 8946   2.158   4.586   3.361 -0.6341 -1.1100 -0.2875
 2295SOL    HW3 8947   2.034   4.662   3.319  0.1723  0.3069 -0.1679
 2295SOL    MW4 8948   2.096   4.603   3.302 -0.4180 -0.2889 -0.2919
 2296SOL     OW 8949   1.304   0.388   2.553  0.2103  0.0525  0.1182
 2296SOL    HW2 8950   1.387   0.362   2.512  0.7561  0.3709  0.9875
 2296SOL    HW3 8951   1.276   0.465   2.505  0.6519  0.2046  0.0984
 2296SOL    MW4 8952   1.311   0.395   2.542  0.3405  0.1146  0.2303
 2297SOL     OW 8953   4.151   1.879   2.602 -0.3165  0.3187 -0.0460
 2297SOL    HW2 8954   4.242   1.850   2.590 -0.4357 -0.3734  0.6384
 2297SOL    HW3 8955   4.142   1.954   2.544  0.6983  0.3994 -0.1180
 2297SOL    MW4 8956   4.162   1.885   2.593 -0.1983  0.2380  0.0348
 2298SOL     OW 8957   2.965   5.905   3.648 -0.5879  0.3457 -0.1094
 2298SOL    HW2 8958   2.979   5.910   3.743  2.9635 -0.9941 -0.3715
 2298SOL    HW3 8959   2.917   5.823   3.635  2.2081 -1.5355  0.4787
 2298SOL    MW4 8960   2.961   5.894   3.659  0.2495 -0.0792 -0.0664
 2299SOL     OW 8961   0.934   5.854   3.845 -0.3664 -0.2710  0.7020
 2299SOL    HW2 8962   0.934   5.867   3.939  0.8423 -3.2950  1.2601
 2299SOL    HW3 8963   0.873   5.781   3.831 -2.3406  1.6192 -1.2208
 2299SOL    MW4 8964   0.926   5.846   3.855 -0.4674 -0.4206  0.5220
 2300SOL     OW 8965   5.771   5.457   0.010 -0.1838  0.1261 -0.1749
 2300SOL    HW2 8966   5.818   5.389   0.058  0.1914  1.0559  0.8256
 2300SOL    HW3 8967   5.709   5.492   0.074  1.0870  2.1415  0.0460
 2300SOL    MW4 8968   5.769   5.453   0.025  0.0334  0.5147 -0.0137
 2301SOL     OW 8969   1.117   4.726   5.087  0.1155  0.0758 -0.0866
 2301SOL    HW2 8970   1.168   4.740   5.007 -0.4988  1.6636 -0.2414
 2301SOL    HW3 8971   1.132   4.806   5.138 -0.2804 -0.5057  0.9443
 2301SOL    MW4 8972   1.126   4.739   5.083 -0.0178  0.2086  0.0290
 2302SOL     OW 8973   5.519   4.183   3.218 -0.5173 -0.1615 -0.7533
 2302SOL    HW2 8974   5.438   4.223   3.186 -0.5797 -0.0019 -0.3975
 2302SOL    HW3 8975   5.519   4.095   3.179 -0.3106  0.2268 -1.6469
 2302SOL    MW4 8976   5.508   4.176   3.209 -0.4983 -0.0892 -0.8242
 2303SOL     OW 8977   4.949   0.868   3.821 -0.1419  0.7004 -0.4626
 2303SOL    HW2 8978   4.858   0.879   3.846  0.2584 -0.2613  1.6933
 2303SOL    HW3 8979   4.998   0.915   3.889  0.9892 -0.5616 -0.3594
 2303SOL    MW4 8980   4.944   0.875   3.834  0.0602  0.4070 -0.1646
 2304SOL     OW 8981   3.028   1.825   1.974 -0.4180  0.1565  0.0064
 2304SOL    HW2 8982   3.010   1.867   2.058 -1.0284 -0.0410 -0.0230
 2304SOL    HW3 8983   2.945   1.785   1.949  0.3895 -2.0324  0.5630
 2304SOL    MW4 8984   3.015   1.825   1.982 -0.3920 -0.1583  0.0759
 2305SOL     OW 8985   5.484   3.351   0.088 -0.2523 -0.3241  0.2497
 2305SOL    HW2 8986   5.551   3.409   0.052  0.5409 -0.1636  1.8963
 2305SOL    HW3 8987   5.447   3.306   0.011  1.4201 -0.0981 -0.7342
 2305SOL    MW4 8988   5.488   3.353   0.073  0.0730 -0.2731  0.3372
 2306SOL     OW 8989   6.036   6.042   5.406  0.0202 -0.7267  0.0381
 2306SOL    HW2 8990   6.114   5.999   5.442  0.3191 -0.9121 -0.8095
 2306SOL    HW3 8991   5.969   6.031   5.473  1.3875  1.6467  1.9754
 2306SOL    MW4 8992   6.038   6.035   5.419  0.2400 -0.4380  0.1819
 2307SOL     OW 8993   3.325   1.060   3.128 -0.2948  0.8161  0.1028
 2307SOL    HW2 8994   3.263   1.032   3.195 -0.5742 -1.8608 -1.1488
 2307SOL    HW3 8995   3.282   1.040   3.045  1.6519  0.1748 -0.8160
 2307SOL    MW4 8996   3.311   1.053   3.126 -0.0748  0.3783 -0.1835
 2308SOL     OW 8997   6.030   4.293   6.286  0.2793 -0.1802 -0.3893
 2308SOL    HW2 8998   6.103   4.233   6.306  1.0475  0.6748 -0.5685
 2308SOL    HW3 8999   6.017   4.283   6.192 -0.7474 -1.3222 -0.1508
 2308SOL    MW4 9000   6.038   4.284   6.276  0.2452 -0.2180 -0.3815
 2309SOL     OW 9001   0.745   4.061   0.630 -0.6357  0.3778  0.0559
 2309SOL    HW2 9002   0.701   3.990   0.677  0.1681 -0.7817 -0.8835
 2309SOL    HW3 9003   0.811   4.093   0.691 -0.5709 -0.1348  0.2627
 2309SOL    MW4 9004   0.748   4.055   0.644 -0.5211  0.1572 -0.0407
 2310SOL     OW 9005   5.074   4.529   4.841 -0.3097 -0.1106  0.1548
 2310SOL    HW2 9006   5.124   4.458   4.799  1.0896  1.5097 -1.0590
 2310SOL    HW3 9007   5.040   4.489   4.921  1.1702 -1.9240 -0.0322
 2310SOL    MW4 9008   5.076   4.514   4.846  0.0702 -0.1361 -0.0300
 2311SOL     OW 9009   3.634   5.520   6.070 -0.0990  0.0002  0.1852
 2311SOL    HW2 9010   3.551   5.562   6.094 -1.3804 -1.1450 -1.9338
 2311SOL    HW3 9011   3.699   5.590   6.076 -1.5040  1.3402  0.3575
 2311SOL    MW4 9012   3.632   5.535   6.074 -0.4534  0.0259 -0.0717
 2312SOL     OW 9013   1.363   2.251   1.947  0.2921  0.2663 -0.0957
 2312SOL    HW2 9014   1.368   2.341   1.979  2.4501  0.6317 -1.2745
 2312SOL    HW3 9015   1.277   2.219   1.977  0.2112  2.1102  1.8500
 2312SOL    MW4 9016   1.352   2.258   1.955  0.5662  0.5578  0.0055
 2313SOL     OW 9017   5.339   5.737   4.917 -0.0822 -0.3548 -0.4935
 2313SOL    HW2 9018   5.423   5.778   4.937  0.1126 -0.5175 -0.9819
 2313SOL    HW3 9019   5.345   5.650   4.957 -0.1776 -0.2129 -0.1705
 2313SOL    MW4 9020   5.351   5.731   4.925 -0.0691 -0.3575 -0.5153
 2314SOL     OW 9021   0.730   0.771   6.073 -0.0709  0.8052 -0.3856
 2314SOL    HW2 9022   0.733   0.724   5.989 -0.9710 -0.9354  0.4904
 2314SOL    HW3 9023   0.637   0.789   6.086 -0.4367 -1.9165  1.7087
 2314SOL    MW4 9024   0.718   0.767   6.063 -0.2379  0.2164  0.0063
 2315SOL     OW 9025   6.059   6.223   5.667 -0.0512  0.0370 -0.2608
 2315SOL    HW2 9026   6.064   6.153   5.733 -2.0032 -0.8304 -0.9652
 2315SOL    HW3 9027   6.092   6.301   5.712  0.6366 -0.9756  1.0590
 2315SOL    MW4 9028   6.064   6.224   5.682 -0.2180 -0.2111 -0.1796
 2316SOL     OW 9029   6.362   2.959   4.862  0.7264 -0.8232 -0.0546
 2316SOL    HW2 9030   6.320   3.011   4.793 -0.0423 -0.1485  0.9022
 2316SOL    HW3 9031   6.361   2.870   4.828  0.3135 -0.5080 -0.9014
 2316SOL    MW4 9032   6.356   2.954   4.848  0.5705 -0.6926 -0.0400
 2317SOL     OW 9033   0.582   6.075   0.584  0.7160  0.5788  0.5712
 2317SOL    HW2 9034   0.519   6.127   0.534  1.1287  1.7787  1.2879
 2317SOL    HW3 9035   0.599   6.126   0.663  2.2412  0.0620  0.6059
 2317SOL    MW4 9036   0.576   6.088   0.588  0.9716  0.6689  0.6703
 2318SOL     OW 9037   0.500   4.090   0.998 -0.2007 -0.0251  0.5907
 2318SOL    HW2 9038   0.502   4.056   1.087  0.0252 -0.3709  0.4559
 2318SOL    HW3 9039   0.413   4.068   0.966 -0.7566  1.2470  1.1608
 2318SOL    MW4 9040   0.489   4.082   1.005 -0.2442  0.0971  0.6482
 2319SOL     OW 9041   3.941   4.526   1.825 -0.2811  0.3265  0.0054
 2319SOL    HW2 9042   3.882   4.465   1.782 -0.1419 -0.3771  0.7710
 2319SOL    HW3 9043   3.907   4.534   1.914  0.4043  0.4111  0.2694
 2319SOL    MW4 9044   3.929   4.519   1.831 -0.1723  0.2448  0.1413
 2320SOL     OW 9045   4.144   6.103   3.441  0.3852 -0.2699 -0.2068
 2320SOL    HW2 9046   4.102   6.131   3.523  1.8451  1.3303  0.0413
 2320SOL    HW3 9047   4.074   6.110   3.376 -0.9788 -2.1548  0.9358
 2320SOL    MW4 9048   4.129   6.108   3.444  0.3978 -0.3075 -0.0233
 2321SOL     OW 9049   2.074   0.055   4.928 -0.2297  0.3099  0.5456
 2321SOL    HW2 9050   2.143   0.031   4.990 -0.4342 -1.3207  0.1824
 2321SOL    HW3 9051   2.001  -0.002   4.951 -0.2700 -0.4189 -1.2649
 2321SOL    MW4 9052   2.074   0.045   4.939 -0.2620 -0.0014  0.2588
 2322SOL     OW 9053   1.419   2.659   5.055  0.2919  0.1386  0.3674
 2322SOL    HW2 9054   1.328   2.688   5.047  0.0464 -0.7767 -0.2064
 2322SOL    HW3 9055   1.414   2.565   5.066  1.1986 -0.0027 -0.3081
 2322SOL    MW4 9056   1.406   2.651   5.055  0.3791 -0.0008  0.2025
 2323SOL     OW 9057   0.380   5.298   3.704  0.2042  0.1566  0.4881
 2323SOL    HW2 9058   0.306   5.321   3.759  1.1353  0.9876  1.4597
 2323SOL    HW3 9059   0.369   5.352   3.626 -0.1049  0.4507  0.7279
 2323SOL    MW4 9060   0.369   5.308   3.701  0.2862  0.3050  0.6479
 2324SOL     OW 9061   0.382   1.654   0.409 -0.0539  0.4725 -0.1442
 2324SOL    HW2 9062   0.438   1.724   0.442  0.1421  0.1216  0.2713
 2324SOL    HW3 9063   0.415   1.575   0.452 -0.9944  0.2918  0.2607
 2324SOL    MW4 9064   0.394   1.653   0.419 -0.1521  0.4023 -0.0360
 2325SOL     OW 9065   2.280   3.942   1.049 -0.2593  0.4184 -0.0027
 2325SOL    HW2 9066   2.365   3.968   1.014 -0.2477  0.7116  0.2393
 2325SOL    HW3 9067   2.255   3.866   0.997 -0.7429  1.4736 -1.3734
 2325SOL    MW4 9068   2.288   3.935   1.038 -0.3216  0.5963 -0.1516
 2326SOL     OW 9069   4.402   5.170   3.048  0.4300 -0.7779  0.3969
 2326SOL    HW2 9070   4.359   5.256   3.056  0.8365 -0.4074 -1.1794
 2326SOL    HW3 9071   4.353   5.125   2.980  0.6797 -1.5253  0.7079
 2326SOL    MW4 9072   4.390   5.176   3.040  0.5166 -0.8276  0.2299
 2327SOL     OW 9073   2.454   3.983   5.235  0.1189  0.0439  0.1782
 2327SOL    HW2 9074   2.499   3.938   5.163 -1.3762 -0.7246 -0.3317
 2327SOL    HW3 9075   2.505   4.062   5.251  1.0491 -0.2882 -1.0516
 2327SOL    MW4 9076   2.466   3.987   5.228  0.0444 -0.1013 -0.0513
 2328SOL     OW 9077   5.526   3.672   4.967 -0.1613 -0.7729 -0.1952
 2328SOL    HW2 9078   5.503   3.765   4.975 -0.9037 -0.8849 -0.8277
 2328SOL    HW3 9079   5.591   3.669   4.897 -1.3992 -0.8893 -1.3829
 2328SOL    MW4 9080   5.531   3.684   4.958 -0.4226 -0.8030 -0.4354
 2329SOL     OW 9081   3.010   3.820   3.790  0.3985  0.0778  0.4785
 2329SOL    HW2 9082   3.024   3.852   3.701 -0.0664  0.2108  0.4496
 2329SOL    HW3 9083   3.053   3.885   3.846 -1.8916  1.6738  0.5144
 2329SOL    MW4 9084   3.018   3.833   3.786  0.0350  0.3060  0.4795
 2330SOL     OW 9085   3.622   5.063   0.762  0.3887 -0.0067 -0.5149
 2330SOL    HW2 9086   3.597   5.154   0.777  0.1199 -0.1062 -0.3619
 2330SOL    HW3 9087   3.622   5.054   0.667 -1.0284 -0.2380 -0.5190
 2330SOL    MW4 9088   3.619   5.074   0.751  0.1663 -0.0503 -0.4952
 2331SOL     OW 9089   6.371   4.458   4.657  0.1690  0.1722 -0.4465
 2331SOL    HW2 9090   6.369   4.429   4.566 -1.0278  1.3291 -0.8241
 2331SOL    HW3 9091   6.283   4.493   4.673  0.0186 -0.9064  1.4710
 2331SOL    MW4 9092   6.359   4.459   4.647 -0.0087  0.1825 -0.2433
 2332SOL     OW 9093   0.827   4.514   2.043  0.5159 -1.0467 -0.0342
 2332SOL    HW2 9094   0.732   4.511   2.054  0.4235  2.0627  1.0115
 2332SOL    HW3 9095   0.861   4.484   2.127  0.3145  1.0967  0.8668
 2332SOL    MW4 9096   0.819   4.510   2.056  0.4771 -0.3536  0.2227
 2333SOL     OW 9097   0.465   5.032   3.608  0.2272 -0.8174 -0.2431
 2333SOL    HW2 9098   0.464   5.128   3.605 -0.0478 -0.8312 -0.9374
 2333SOL    HW3 9099   0.556   5.010   3.624  0.1547 -0.4327  0.8044
 2333SOL    MW4 9100   0.477   5.042   3.610  0.1813 -0.7685 -0.1965
 2334SOL     OW 9101   1.244   6.103   5.605  0.1452  0.1261 -0.3192
 2334SOL    HW2 9102   1.163   6.073   5.646  0.4609  1.4831  1.3990
 2334SOL    HW3 9103   1.313   6.055   5.651  0.4140  0.3166 -0.5208
 2334SOL    MW4 9104   1.243   6.092   5.616  0.2223  0.3303 -0.1191
 2335SOL     OW 9105   6.356   1.648   4.844  0.0382  0.3032  0.4347
 2335SOL    HW2 9106   6.382   1.740   4.837  0.6201  0.0921 -0.2871
 2335SOL    HW3 9107   6.397   1.606   4.769 -2.3475 -0.0797 -0.7780
 2335SOL    MW4 9108   6.365   1.655   4.833 -0.1998  0.2248  0.1794
 2336SOL     OW 9109   2.597   4.717   2.524 -0.1258 -0.5311  0.2673
 2336SOL    HW2 9110   2.557   4.701   2.439 -1.6576 -1.0111  1.0498
 2336SOL    HW3 9111   2.524   4.735   2.583  0.8314 -1.0970  1.6892
 2336SOL    MW4 9112   2.582   4.718   2.521 -0.2016 -0.6691  0.5582
 2337SOL     OW 9113   4.183   1.960   3.311  0.1771 -0.2628  0.3396
 2337SOL    HW2 9114   4.201   2.021   3.240  0.8578 -0.1911  0.5655
 2337SOL    HW3 9115   4.174   1.875   3.269  0.8808 -0.2720  0.1903
 2337SOL    MW4 9116   4.184   1.957   3.296  0.3597 -0.2546  0.3497
 2338SOL     OW 9117   5.767   1.504   4.520 -0.0661  0.5157  0.1490
 2338SOL    HW2 9118   5.709   1.575   4.550 -3.7787 -0.9133 -2.8032
 2338SOL    HW3 9119   5.763   1.508   4.425  1.5642 -2.1797 -0.1378
 2338SOL    MW4 9120   5.759   1.514   4.512 -0.3408 -0.0285 -0.2783
 2339SOL     OW 9121   0.731   5.701   1.085 -0.4800  0.3663 -0.7326
 2339SOL    HW2 9122   0.689   5.786   1.082 -1.0922  0.0928 -0.1953
 2339SOL    HW3 9123   0.661   5.639   1.064  0.1736  0.0471 -2.1367
 2339SOL    MW4 9124   0.716   5.704   1.081 -0.4746  0.2881 -0.8470
 2340SOL     OW 9125   2.852   3.159   3.301  0.5423  0.0884  0.4566
 2340SOL    HW2 9126   2.923   3.222   3.309 -0.2371  1.0037  0.2742
 2340SOL    HW3 9127   2.788   3.201   3.244 -0.9233 -0.0025  1.9509
 2340SOL    MW4 9128   2.853   3.173   3.294  0.2461  0.1972  0.6297
 2341SOL     OW 9129   5.727   3.482   1.639 -0.0141 -0.0310  0.1765
 2341SOL    HW2 9130   5.781   3.553   1.605 -0.2762  0.0802 -0.0139
 2341SOL    HW3 9131   5.786   3.406   1.643  0.4670  0.3768  1.0917
 2341SOL    MW4 9132   5.742   3.481   1.635  0.0148  0.0374  0.2721
 2342SOL     OW 9133   2.278   0.027   4.514  0.0278  0.7303  0.1293
 2342SOL    HW2 9134   2.300  -0.063   4.490  1.1655  1.0968 -0.3072
 2342SOL    HW3 9135   2.221   0.058   4.444 -0.6544  0.2491  0.4607
 2342SOL    MW4 9136   2.274   0.019   4.502  0.0879  0.7152  0.1154
 2343SOL     OW 9137   2.198   3.626   3.124  0.1741 -0.3968  0.1445
 2343SOL    HW2 9138   2.189   3.702   3.066 -1.3090 -0.2313  0.5640
 2343SOL    HW3 9139   2.108   3.597   3.140  0.5200 -0.3327  2.5067
 2343SOL    MW4 9140   2.185   3.632   3.118  0.0241 -0.3665  0.5115
 2344SOL     OW 9141   4.210   0.233   6.082  0.6317 -0.0958 -0.5439
 2344SOL    HW2 9142   4.131   0.284   6.066  1.2080  0.8795 -0.4142
 2344SOL    HW3 9143   4.179   0.146   6.107 -0.4771  0.8365  1.5490
 2344SOL    MW4 9144   4.196   0.228   6.083  0.5614  0.1559 -0.2507
 2345SOL     OW 9145   3.733   4.744   1.454  1.2942  0.6684 -0.2500
 2345SOL    HW2 9146   3.714   4.657   1.488 -1.5761  1.6215  0.8625
 2345SOL    HW3 9147   3.709   4.740   1.362 -0.6499  0.6967  0.2092
 2345SOL    MW4 9148   3.728   4.732   1.446  0.6590  0.7979 -0.0426
 2346SOL     OW 9149   2.781   0.626   5.273 -0.2406  0.1048  0.4659
 2346SOL    HW2 9150   2.774   0.659   5.362  2.0076  2.2884 -0.0676
 2346SOL    HW3 9151   2.716   0.676   5.223  1.9933  2.7343 -0.0074
 2346SOL    MW4 9152   2.771   0.637   5.278  0.3507  0.7399  0.3330
 2347SOL     OW 9153   3.011   6.180   2.477 -0.3536  0.2301  0.3564
 2347SOL    HW2 9154   3.009   6.140   2.564 -1.6357  0.4387  0.4417
 2347SOL    HW3 9155   2.937   6.141   2.431  1.1378 -0.9410 -1.1455
 2347SOL    MW4 9156   3.001   6.170   2.482 -0.3260  0.1031  0.1695
 2348SOL     OW 9157   3.596   5.298   3.090  0.1151 -1.0056  0.2109
 2348SOL    HW2 9158   3.657   5.226   3.076 -0.7457 -1.4914 -1.2982
 2348SOL    HW3 9159   3.557   5.314   3.004  1.1944  2.1495  0.1468
 2348SOL    MW4 9160   3.599   5.291   3.077  0.1439 -0.6534  0.0033
 2349SOL     OW 9161   0.249   5.099   3.413 -0.0193 -0.2828  0.2592
 2349SOL    HW2 9162   0.175   5.038   3.415 -1.4708  1.3569  3.2763
 2349SOL    HW3 9163   0.318   5.054   3.462 -1.3612  0.6168  3.2033
 2349SOL    MW4 9164   0.248   5.085   3.420 -0.3879  0.0522  1.0457
 2350SOL     OW 9165   5.237   3.937   3.124  0.2030  0.7036  0.3305
 2350SOL    HW2 9166   5.297   3.902   3.189  0.3921 -0.7715 -0.5886
 2350SOL    HW3 9167   5.272   3.906   3.040 -1.0623  0.9805 -0.3297
 2350SOL    MW4 9168   5.249   3.928   3.121  0.0610  0.5455  0.1222
 2351SOL     OW 9169   0.098   1.861   2.153  0.6277 -0.2499 -0.0926
 2351SOL    HW2 9170   0.048   1.832   2.077  1.9042  0.3243 -1.1792
 2351SOL    HW3 9171   0.077   1.954   2.162  1.5317  0.0116 -0.6019
 2351SOL    MW4 9172   0.089   1.869   2.144  0.9154 -0.1396 -0.3031
 2352SOL     OW 9173   4.693   0.397   1.507  0.4295 -0.3080 -0.5098
 2352SOL    HW2 9174   4.630   0.431   1.570 -1.5244 -0.7943 -2.0825
 2352SOL    HW3 9175   4.760   0.465   1.499 -0.8367  1.0244 -0.0740
 2352SOL    MW4 9176   4.694   0.410   1.514  0.0047 -0.1963 -0.6598
 2353SOL     OW 9177   5.946   3.613   1.027 -0.0373  0.8635 -0.2633
 2353SOL    HW2 9178   5.935   3.606   1.122  1.1038  0.8280 -0.1250
 2353SOL    HW3 9179   5.862   3.585   0.991 -1.9988  4.6115  0.8175
 2353SOL    MW4 9180   5.933   3.609   1.034 -0.1455  1.3533 -0.1025
 2354SOL     OW 9181   1.073   4.270   2.427 -0.0522 -0.2025 -0.5212
 2354SOL    HW2 9182   1.083   4.255   2.521  0.0667 -0.8156 -0.6297
 2354SOL    HW3 9183   1.067   4.182   2.389  0.9541  0.0116 -1.2075
 2354SOL    MW4 9184   1.073   4.257   2.434  0.0962 -0.2552 -0.6261
 2355SOL     OW 9185   1.222   0.629   3.412 -0.0226  0.4645 -0.0877
 2355SOL    HW2 9186   1.243   0.663   3.325 -1.3729  1.2031 -0.1494
 2355SOL    HW3 9187   1.238   0.535   3.406  0.8095  0.6401 -0.8333
 2355SOL    MW4 9188   1.227   0.621   3.400 -0.0909  0.5851 -0.1942
 2356SOL     OW 9189   6.300   5.393   5.548  0.3182 -0.2194 -0.0591
 2356SOL    HW2 9190   6.247   5.319   5.519 -1.2940  0.6180  0.6151
 2356SOL    HW3 9191   6.339   5.428   5.468 -0.0664 -0.9171 -0.5606
 2356SOL    MW4 9192   6.298   5.388   5.534  0.0547 -0.2009 -0.0363
 2357SOL     OW 9193   3.046   4.438   2.383 -0.0867 -0.5177 -0.4883
 2357SOL    HW2 9194   2.985   4.451   2.455  0.3904 -0.1111 -0.1514
 2357SOL    HW3 9195   3.120   4.495   2.403 -0.5821  0.7450 -2.0611
 2357SOL    MW4 9196   3.048   4.447   2.395 -0.0891 -0.2975 -0.6513
 2358SOL     OW 9197   0.535   5.548   4.039 -0.2188 -0.1474  0.4427
 2358SOL    HW2 9198   0.494   5.537   3.953 -1.1053  0.6220  0.7513
 2358SOL    HW3 9199   0.539   5.643   4.051  1.5652 -0.1895  0.4800
 2358SOL    MW4 9200   0.530   5.559   4.029 -0.1004 -0.0514  0.4883
 2359SOL     OW 9201   0.388   4.701   4.290  0.2527 -0.2544  0.4528
 2359SOL    HW2 9202   0.324   4.651   4.341 -1.4034  1.2945 -0.0014
 2359SOL    HW3 9203   0.361   4.688   4.199  1.7221 -1.0347  0.0980
 2359SOL    MW4 9204   0.376   4.692   4.285  0.2281 -0.1530  0.3461
 2360SOL     OW 9205   3.800   4.755   4.313 -0.0257 -0.4050 -0.6259
 2360SOL    HW2 9206   3.889   4.765   4.345 -0.6231 -0.4184  1.1102
 2360SOL    HW3 9207   3.787   4.831   4.256  0.1197  1.2834  1.4839
 2360SOL    MW4 9208   3.810   4.766   4.310 -0.0854 -0.1840 -0.1185
 2361SOL     OW 9209   0.533   5.606   6.258  0.2530  0.3904 -0.6671
 2361SOL    HW2 9210   0.531   5.694   6.296  1.6407  0.9503 -1.7780
 2361SOL    HW3 9211   0.571   5.552   6.327 -0.7173  0.6104  0.0687
 2361SOL    MW4 9212   0.538   5.611   6.272  0.3081  0.4933 -0.7166
 2362SOL     OW 9213   2.144   1.498   3.512 -0.2877 -0.2156  0.6906
 2362SOL    HW2 9214   2.217   1.476   3.570 -0.6399 -0.5423  1.0134
 2362SOL    HW3 9215   2.174   1.576   3.464  0.2731 -0.3530  0.8125
 2362SOL    MW4 9216   2.158   1.506   3.513 -0.2602 -0.2768  0.7493
 2363SOL     OW 9217   3.402   3.005   4.784 -0.1638  0.2961 -0.0638
 2363SOL    HW2 9218   3.393   2.918   4.745 -1.5060  0.3554  0.0817
 2363SOL    HW3 9219   3.416   2.988   4.877 -2.1671  0.2210  0.2768
 2363SOL    MW4 9220   3.403   2.991   4.791 -0.6052  0.2940  0.0004
 2364SOL     OW 9221   2.721   1.696   1.998  0.4933  0.3439 -0.1890
 2364SOL    HW2 9222   2.670   1.738   2.067  1.7489  0.1299  0.9179
 2364SOL    HW3 9223   2.768   1.626   2.043  0.2416 -0.7507 -1.5513
 2364SOL    MW4 9224   2.721   1.692   2.013  0.6257  0.1713 -0.2227
 2365SOL     OW 9225   3.808   3.938   2.583 -0.1111 -0.0347  0.1755
 2365SOL    HW2 9226   3.715   3.954   2.592 -0.0008 -0.5498  2.7509
 2365SOL    HW3 9227   3.850   4.019   2.613  0.2793 -0.3716  0.5495
 2365SOL    MW4 9228   3.802   3.951   2.588 -0.0450 -0.1471  0.5646
 2366SOL     OW 9229   5.414   5.457   5.507 -0.1638  0.6894  0.5220
 2366SOL    HW2 9230   5.391   5.549   5.524 -1.8666  0.1638  1.3455
 2366SOL    HW3 9231   5.478   5.461   5.436 -1.7740  2.4348 -0.9669
 2366SOL    MW4 9232   5.419   5.470   5.500 -0.6009  0.8503  0.4342
 2367SOL     OW 9233   3.401   3.103   2.484  0.5770  0.2279 -0.1582
 2367SOL    HW2 9234   3.465   3.034   2.472  0.3461  0.1762 -1.2193
 2367SOL    HW3 9235   3.362   3.115   2.397  0.4152  1.4863  0.0603
 2367SOL    MW4 9236   3.404   3.096   2.471  0.5252  0.3871 -0.2694
 2368SOL     OW 9237   1.282   5.432   1.752  0.5494 -0.0524  0.5467
 2368SOL    HW2 9238   1.209   5.432   1.815  2.0907  1.7899  2.4692
 2368SOL    HW3 9239   1.330   5.352   1.771 -1.3078 -1.7525 -1.3258
 2368SOL    MW4 9240   1.278   5.421   1.763  0.5077 -0.0336  0.5533
 2369SOL     OW 9241   4.117   2.444   4.804  0.1234 -0.5124  0.0363
 2369SOL    HW2 9242   4.191   2.492   4.767 -0.3212  1.1175  1.1927
 2369SOL    HW3 9243   4.122   2.461   4.898 -1.8451 -0.2175  0.1111
 2369SOL    MW4 9244   4.128   2.452   4.812 -0.1950 -0.2584  0.1987
 2370SOL     OW 9245   5.111   1.167   6.065 -0.1789  0.7238  0.8728
 2370SOL    HW2 9246   5.078   1.183   6.153 -0.9842 -0.1373  0.7327
 2370SOL    HW3 9247   5.204   1.191   6.070 -0.6054  2.3950  1.4747
 2370SOL    MW4 9248   5.119   1.172   6.077 -0.3415  0.8307  0.9337
 2371SOL     OW 9249   4.632   6.138   1.525 -0.2211  0.0911 -0.0576
 2371SOL    HW2 9250   4.570   6.128   1.598  0.9510 -1.0929  0.8207
 2371SOL    HW3 9251   4.579   6.175   1.454 -1.5313  0.7352  1.1985
 2371SOL    MW4 9252   4.617   6.141   1.526 -0.2393  0.0198  0.2240
 2372SOL     OW 9253   4.895   1.342   2.646  0.1832 -0.2284 -0.6494
 2372SOL    HW2 9254   4.917   1.262   2.599 -0.1027 -0.4364 -0.4303
 2372SOL    HW3 9255   4.950   1.409   2.606  0.0153 -0.4214 -1.2088
 2372SOL    MW4 9256   4.905   1.340   2.635  0.1234 -0.2813 -0.6943
 2373SOL     OW 9257   3.435   5.324   2.868  0.0222  0.0970 -0.0379
 2373SOL    HW2 9258   3.423   5.256   2.802  0.0944  0.1158 -0.0711
 2373SOL    HW3 9259   3.436   5.406   2.819 -0.6782  0.1724  0.0687
 2373SOL    MW4 9260   3.434   5.326   2.853 -0.0607  0.1094 -0.0282
 2374SOL     OW 9261   5.385   4.930   1.771 -0.0257  0.1340 -0.4955
 2374SOL    HW2 9262   5.387   4.871   1.696 -2.4509 -1.6618  0.7244
 2374SOL    HW3 9263   5.328   5.002   1.742  0.5827  0.4192 -1.0014
 2374SOL    MW4 9264   5.377   4.932   1.757 -0.2654 -0.0653 -0.4013
 2375SOL     OW 9265   6.178   2.259   5.384  0.1721 -0.2224  0.2598
 2375SOL    HW2 9266   6.134   2.331   5.429  0.7073 -0.8738  1.8930
 2375SOL    HW3 9267   6.137   2.180   5.419  1.8433 -0.8015  1.0012
 2375SOL    MW4 9268   6.167   2.258   5.394  0.4632 -0.3847  0.5731
 2376SOL     OW 9269   3.173   4.914   2.159  0.2217 -0.5589  0.4019
 2376SOL    HW2 9270   3.135   4.892   2.244  0.1812 -0.7511  0.3342
 2376SOL    HW3 9271   3.129   4.857   2.097 -0.2392  0.0553  0.1508
 2376SOL    MW4 9272   3.162   4.904   2.162  0.1555 -0.5032  0.3598
 2377SOL     OW 9273   2.955   5.396   1.918 -0.2459 -0.1492 -0.4248
 2377SOL    HW2 9274   3.037   5.400   1.966  0.1075 -0.2036 -1.0053
 2377SOL    HW3 9275   2.982   5.400   1.826 -0.9786  1.2768 -0.6040
 2377SOL    MW4 9276   2.970   5.397   1.912 -0.2959  0.0317 -0.5251
 2378SOL     OW 9277   5.046   1.983   1.520  0.2611  0.4912 -0.7151
 2378SOL    HW2 9278   4.993   2.061   1.503 -2.5011 -1.2548 -0.7242
 2378SOL    HW3 9279   5.039   1.930   1.441  0.7810 -0.4756 -0.1424
 2378SOL    MW4 9280   5.038   1.986   1.508 -0.0348  0.1333 -0.6407
 2379SOL     OW 9281   6.156   2.233   5.780  0.1609  0.1274 -0.6955
 2379SOL    HW2 9282   6.156   2.262   5.871 -2.7658 -1.1279 -0.2046
 2379SOL    HW3 9283   6.234   2.178   5.772  0.8217  0.7907  0.8168
 2379SOL    MW4 9284   6.167   2.230   5.791 -0.1380  0.0493 -0.4312
 2380SOL     OW 9285   2.274   1.181   0.579 -0.0496  0.1286  0.1859
 2380SOL    HW2 9286   2.233   1.262   0.549 -0.6671  0.4340  1.7839
 2380SOL    HW3 9287   2.368   1.195   0.566 -0.2227  0.6185 -0.6221
 2380SOL    MW4 9288   2.281   1.193   0.573 -0.1539  0.2335  0.2902
 2381SOL     OW 9289   0.299   4.072   2.752 -0.0815  0.3620 -0.0069
 2381SOL    HW2 9290   0.271   4.017   2.825  0.2800 -0.9618 -0.8230
 2381SOL    HW3 9291   0.387   4.100   2.775 -0.2345  0.5387  0.3755
 2381SOL    MW4 9292   0.307   4.068   2.765 -0.0540  0.2106 -0.0641
 2382SOL     OW 9293   2.171   6.417   1.953  0.0037 -0.4785  0.0464
 2382SOL    HW2 9294   2.224   6.486   1.912 -1.7850  0.1130 -1.4041
 2382SOL    HW3 9295   2.181   6.432   2.047  1.6483  0.1690 -0.1973
 2382SOL    MW4 9296   2.180   6.428   1.960 -0.0153 -0.3151 -0.1771
 2383SOL     OW 9297   3.898   4.392   4.336  0.8816 -0.4794 -0.0350
 2383SOL    HW2 9298   3.897   4.326   4.267 -0.6691  0.9849 -1.5374
 2383SOL    HW3 9299   3.965   4.455   4.309 -0.3487  0.5829 -0.8135
 2383SOL    MW4 9300   3.907   4.392   4.323  0.5147 -0.1460 -0.3359
 2384SOL     OW 9301   5.013   2.531   4.155 -0.3745 -0.2031  0.2724
 2384SOL    HW2 9302   4.992   2.445   4.119  0.0488 -0.4272  0.5421
 2384SOL    HW3 9303   4.961   2.538   4.235  0.9924 -1.0219  1.2809
 2384SOL    MW4 9304   5.004   2.521   4.161 -0.1383 -0.3407  0.4410
 2385SOL     OW 9305   0.741   3.406   0.280  0.4304 -0.6444 -0.1819
 2385SOL    HW2 9306   0.716   3.437   0.367 -2.9087 -0.3316 -1.1146
 2385SOL    HW3 9307   0.744   3.486   0.226  1.5777 -0.9373 -0.5902
 2385SOL    MW4 9308   0.738   3.421   0.284  0.1412 -0.6418 -0.3588
 2386SOL     OW 9309   6.241   4.171   3.076 -0.4992  0.0460  0.1202
 2386SOL    HW2 9310   6.211   4.116   3.149 -0.2512 -0.5677 -0.2272
 2386SOL    HW3 9311   6.257   4.108   3.005  1.6236  0.3282  0.2815
 2386SOL    MW4 9312   6.239   4.155   3.076 -0.1864  0.0023  0.0956
 2387SOL     OW 9313   4.649   5.051   2.542  0.3039 -0.6085 -0.1661
 2387SOL    HW2 9314   4.601   4.990   2.485  0.3580 -1.1261  0.3376
 2387SOL    HW3 9315   4.608   5.041   2.628  1.0738 -0.7912  0.1900
 2387SOL    MW4 9316   4.637   5.041   2.546  0.4127 -0.7009 -0.0527
 2388SOL     OW 9317   3.427   5.533   3.639  0.2704  0.0332 -0.1033
 2388SOL    HW2 9318   3.474   5.451   3.620 -0.3139 -0.3160 -0.0380
 2388SOL    HW3 9319   3.339   5.519   3.605  0.7919  1.5103 -2.3298
 2388SOL    MW4 9320   3.422   5.520   3.632  0.2622  0.1820 -0.3885
 2389SOL     OW 9321   0.572   4.285   3.933 -0.0759  0.1612 -0.0543
 2389SOL    HW2 9322   0.576   4.189   3.938  0.7079  0.2279  0.7569
 2389SOL    HW3 9323   0.647   4.309   3.878 -1.1470  0.2452 -1.5608
 2389SOL    MW4 9324   0.582   4.275   3.926 -0.1138  0.1811 -0.1460
 2390SOL     OW 9325   4.349   3.278   1.866  0.6755 -0.4043 -0.2987
 2390SOL    HW2 9326   4.400   3.291   1.786  0.2426  1.7984 -0.2739
 2390SOL    HW3 9327   4.261   3.307   1.843  0.3183 -0.6711  0.7115
 2390SOL    MW4 9328   4.344   3.283   1.852  0.5713 -0.1489 -0.1621
 2391SOL     OW 9329   2.358   4.242   0.938 -0.1690 -0.1345 -0.7803
 2391SOL    HW2 9330   2.408   4.164   0.913 -0.1049  0.0870 -1.3727
 2391SOL    HW3 9331   2.418   4.294   0.991 -0.3004 -0.6118 -0.1586
 2391SOL    MW4 9332   2.373   4.239   0.942 -0.1779 -0.1682 -0.7764
 2392SOL     OW 9333   6.401   6.207   5.047  0.9262  0.1806  0.1912
 2392SOL    HW2 9334   6.326   6.227   5.103  1.8747  1.6219  1.0104
 2392SOL    HW3 9335   6.459   6.154   5.102  0.9238 -0.1804 -0.1464
 2392SOL    MW4 9336   6.399   6.203   5.062  1.0510  0.3231  0.2547
 2393SOL     OW 9337   3.422   5.614   2.710 -0.7128  0.8528 -0.2677
 2393SOL    HW2 9338   3.381   5.657   2.786 -0.3211 -0.4632  0.7170
 2393SOL    HW3 9339   3.350   5.567   2.668 -0.5609 -0.0177  0.4352
 2393SOL    MW4 9340   3.407   5.614   2.714 -0.6410  0.5643 -0.0450
 2394SOL     OW 9341   4.718   4.582   5.033  0.2880 -0.0470 -0.5763
 2394SOL    HW2 9342   4.725   4.600   4.939 -1.8922  0.4383 -0.6983
 2394SOL    HW3 9343   4.625   4.569   5.048  0.3692  1.5094  1.8046
 2394SOL    MW4 9344   4.707   4.583   5.022  0.0111  0.2224 -0.2782
 2395SOL     OW 9345   5.020   1.322   3.669  0.2220 -0.7006  0.0040
 2395SOL    HW2 9346   5.018   1.269   3.748  1.3445 -1.3886 -0.4092
 2395SOL    HW3 9347   4.951   1.286   3.614  0.7726 -1.5546 -0.1476
 2395SOL    MW4 9348   5.011   1.311   3.672  0.4428 -0.9041 -0.0705
 2396SOL     OW 9349   6.378   5.911   5.743  0.0227  0.0666  0.2020
 2396SOL    HW2 9350   6.363   6.004   5.725 -2.3978 -0.6945 -2.3356
 2396SOL    HW3 9351   6.336   5.897   5.828 -2.0419  0.8340 -0.6165
 2396SOL    MW4 9352   6.370   5.921   5.752 -0.5690  0.0674 -0.2408
 2397SOL     OW 9353   4.563   1.682   5.224 -0.6070  0.4920 -0.1982
 2397SOL    HW2 9354   4.620   1.676   5.147 -1.3835  0.6972 -0.7930
 2397SOL    HW3 9355   4.578   1.600   5.271  1.0155  0.9974  0.2521
 2397SOL    MW4 9356   4.573   1.671   5.220 -0.4954  0.5858 -0.2173
 2398SOL     OW 9357   2.287   4.228   3.485  0.3004  0.1121 -0.2358
 2398SOL    HW2 9358   2.237   4.230   3.403 -0.7089 -2.8859  0.1734
 2398SOL    HW3 9359   2.367   4.277   3.466 -0.5836  0.7952 -2.5197
 2398SOL    MW4 9360   2.291   4.235   3.472  0.0506 -0.1933 -0.4831
 2399SOL     OW 9361   2.348   5.773   5.185  0.3429 -0.5395  0.3003
 2399SOL    HW2 9362   2.289   5.848   5.182  2.7366  1.4593 -0.6152
 2399SOL    HW3 9363   2.398   5.785   5.266  1.3756 -0.5937 -0.3076
 2399SOL    MW4 9364   2.347   5.784   5.195  0.7950 -0.2829  0.0993
 2400SOL     OW 9365   4.095   5.504   0.190  0.4602 -0.1011  0.1639
 2400SOL    HW2 9366   4.035   5.571   0.222 -0.5132 -0.4819 -0.7872
 2400SOL    HW3 9367   4.130   5.463   0.269  1.4471  1.8184  0.7632
 2400SOL    MW4 9368   4.092   5.507   0.205  0.4620  0.1019  0.1175
 2401SOL     OW 9369   2.291   3.640   4.957 -0.0852  0.4252 -0.0503
 2401SOL    HW2 9370   2.202   3.672   4.967 -0.8523 -1.6673  0.3718
 2401SOL    HW3 9371   2.328   3.645   5.046  1.2874  3.9230 -0.6574
 2401SOL    MW4 9372   2.284   3.645   4.970 -0.0053  0.6106 -0.0747
 2402SOL     OW 9373   5.274   0.118   2.927 -0.3997  0.3218 -0.3895
 2402SOL    HW2 9374   5.353   0.118   2.981 -0.1808 -0.3164 -0.7003
 2402SOL    HW3 9375   5.266   0.028   2.897 -0.4367  0.6857 -1.5292
 2402SOL    MW4 9376   5.284   0.107   2.930 -0.3757  0.2856 -0.5809
 2403SOL     OW 9377   2.661   5.615   5.940  0.1060  0.3161  0.4370
 2403SOL    HW2 9378   2.748   5.616   5.898  0.5676 -0.6209  1.3180
 2403SOL    HW3 9379   2.600   5.632   5.868  0.8601 -1.4213 -0.6969
 2403SOL    MW4 9380   2.665   5.617   5.925  0.2664 -0.0368  0.4036
 2404SOL     OW 9381   2.478   2.621   0.013  0.1865  0.4990  0.5548
 2404SOL    HW2 9382   2.560   2.597   0.058  0.7331  0.5216 -0.4066
 2404SOL    HW3 9383   2.496   2.707  -0.025  0.0951  0.0428 -0.5547
 2404SOL    MW4 9384   2.491   2.629   0.014  0.2465  0.4418  0.2816
 2405SOL     OW 9385   1.457   6.226   2.555  0.1043 -0.3619  0.0754
 2405SOL    HW2 9386   1.393   6.232   2.626  1.9533 -2.9931  2.1926
 2405SOL    HW3 9387   1.460   6.132   2.534  0.1514  0.2499 -3.0509
 2405SOL    MW4 9388   1.449   6.214   2.562  0.3545 -0.6283 -0.0577
 2406SOL     OW 9389   2.314   2.365   0.372  0.0773 -0.3163  0.3776
 2406SOL    HW2 9390   2.394   2.369   0.424 -0.2164  2.1271  0.7353
 2406SOL    HW3 9391   2.247   2.405   0.428 -0.7598  0.2340 -0.9842
 2406SOL    MW4 9392   2.315   2.371   0.386 -0.0719  0.0787  0.2451
 2407SOL     OW 9393   1.268   3.037   5.953 -0.1195 -0.2367  0.1253
 2407SOL    HW2 9394   1.355   3.054   5.988 -0.0748 -0.3153  0.0513
 2407SOL    HW3 9395   1.223   2.987   6.022 -0.2079  0.0657  0.2903
 2407SOL    MW4 9396   1.273   3.033   5.967 -0.1252 -0.2072  0.1373
 2408SOL     OW 9397   0.286   4.009   0.829  0.2447  0.3136 -0.5386
 2408SOL    HW2 9398   0.204   4.058   0.839  0.1007 -0.0517  0.0916
 2408SOL    HW3 9399   0.284   3.944   0.899  2.1515  1.7690  0.9357
 2408SOL    MW4 9400   0.275   4.007   0.839  0.4773  0.4574 -0.2609
 2409SOL     OW 9401   4.594   0.592   2.794  0.4743 -0.2577 -0.1117
 2409SOL    HW2 9402   4.624   0.594   2.703 -0.8304 -0.6016 -0.5627
 2409SOL    HW3 9403   4.675   0.582   2.845  1.4320  1.8229 -1.0969
 2409SOL    MW4 9404   4.609   0.591   2.789  0.4285 -0.0286 -0.3012
 2410SOL     OW 9405   2.167   4.664   5.026 -0.2060  0.4551 -0.4658
 2410SOL    HW2 9406   2.150   4.714   5.106 -2.0075 -0.0141 -0.5155
 2410SOL    HW3 9407   2.262   4.654   5.024 -0.0416  1.4048  1.0433
 2410SOL    MW4 9408   2.177   4.669   5.036 -0.4220  0.5185 -0.2733
 2411SOL     OW 9409   0.757   4.930   5.590 -0.2454 -0.0419  0.4365
 2411SOL    HW2 9410   0.799   5.012   5.564  0.2295  0.2689  2.0649
 2411SOL    HW3 9411   0.692   4.914   5.521  0.6562  0.9103 -0.6892
 2411SOL    MW4 9412   0.754   4.939   5.577 -0.0638  0.1247  0.5028
 2412SOL     OW 9413   5.343   1.724   0.453  0.0805  0.2478 -0.1239
 2412SOL    HW2 9414   5.356   1.646   0.399  1.8562  0.8935 -0.6908
 2412SOL    HW3 9415   5.274   1.773   0.407 -1.3160 -1.0876  0.4269
 2412SOL    MW4 9416   5.335   1.720   0.440  0.1305  0.1568 -0.1261
 2413SOL     OW 9417   2.350   2.372   2.746  0.1184 -0.2584  0.1064
 2413SOL    HW2 9418   2.418   2.351   2.682 -0.7915 -2.5443 -0.1944
 2413SOL    HW3 9419   2.304   2.290   2.760 -1.0309  0.6578  2.1708
 2413SOL    MW4 9420   2.353   2.358   2.739 -0.1533 -0.4391  0.3391
 2414SOL     OW 9421   1.537   2.289   4.205 -0.1989  0.6759 -0.0439
 2414SOL    HW2 9422   1.450   2.261   4.235  0.1982  0.2905  0.7604
 2414SOL    HW3 9423   1.530   2.385   4.200 -1.8975  0.5410 -3.8199
 2414SOL    MW4 9424   1.524   2.298   4.208 -0.3706  0.6072 -0.4360
 2415SOL     OW 9425   4.914   5.611   5.970 -0.1891 -0.3300 -0.2185
 2415SOL    HW2 9426   4.967   5.538   6.002  1.3278  1.0885  0.6754
 2415SOL    HW3 9427   4.835   5.607   6.024  0.4432 -0.5518  0.7165
 2415SOL    MW4 9428   4.910   5.601   5.982  0.0944 -0.1721  0.0228
 2416SOL     OW 9429   0.460   0.883   3.842 -0.1853  0.2242  0.4445
 2416SOL    HW2 9430   0.418   0.951   3.789 -0.0279 -0.0225  0.0019
 2416SOL    HW3 9431   0.546   0.871   3.802  0.5366  1.0980  1.6542
 2416SOL    MW4 9432   0.466   0.891   3.829 -0.0693  0.3069  0.5457
 2417SOL     OW 9433   3.212   4.729   0.765 -0.1306 -0.5353  0.1167
 2417SOL    HW2 9434   3.125   4.701   0.795  0.3682 -0.4574  1.7527
 2417SOL    HW3 9435   3.273   4.690   0.828  0.9599  0.1014 -0.5145
 2417SOL    MW4 9436   3.208   4.720   0.777  0.0791 -0.4410  0.2492
 2418SOL     OW 9437   2.383   3.855   1.948 -0.7471 -0.9969 -0.2261
 2418SOL    HW2 9438   2.338   3.909   1.883  0.3647 -0.8112 -0.8861
 2418SOL    HW3 9439   2.339   3.874   2.031 -0.0690  1.3702 -0.3286
 2418SOL    MW4 9440   2.372   3.864   1.950 -0.5110 -0.6601 -0.3267
 2419SOL     OW 9441   3.942   1.230   2.916  0.1171  0.2744  0.4583
 2419SOL    HW2 9442   3.922   1.253   3.007 -0.3961 -0.5782  0.5707
 2419SOL    HW3 9443   3.863   1.254   2.868 -0.3218 -0.9267  0.5345
 2419SOL    MW4 9444   3.929   1.236   2.922 -0.0085  0.0034  0.4832
 2420SOL     OW 9445   3.858   5.117   2.449  0.5593 -0.0125 -0.2882
 2420SOL    HW2 9446   3.798   5.115   2.523  0.5410  1.9328 -0.1821
 2420SOL    HW3 9447   3.903   5.033   2.451 -0.5524 -0.6057  0.9840
 2420SOL    MW4 9448   3.856   5.106   2.459  0.4102  0.1659 -0.1064
 2421SOL     OW 9449   5.691   1.413   2.627  0.2555 -0.3265  0.4650
 2421SOL    HW2 9450   5.729   1.351   2.565  0.7177 -0.3713  0.7880
 2421SOL    HW3 9451   5.766   1.462   2.662 -0.1397  0.7644 -0.1557
 2421SOL    MW4 9452   5.706   1.411   2.624  0.2644 -0.1885  0.4257
 2422SOL     OW 9453   6.160   5.040   5.194 -0.0836  0.0486 -0.3412
 2422SOL    HW2 9454   6.236   5.030   5.136  0.6708  1.6879  0.3210
 2422SOL    HW3 9455   6.152   4.955   5.237  1.3750 -0.1625 -0.4325
 2422SOL    MW4 9456   6.169   5.027   5.192  0.2084  0.2370 -0.2659
 2423SOL     OW 9457   2.518   4.010   0.914  0.4381  1.0846 -0.2365
 2423SOL    HW2 9458   2.605   4.041   0.938  0.9519  0.2120 -0.9337
 2423SOL    HW3 9459   2.534   3.937   0.854 -0.5837 -2.5677  3.4371
 2423SOL    MW4 9460   2.531   4.004   0.910  0.3711  0.4876  0.1562
 2424SOL     OW 9461   4.486   4.919   4.475 -0.3413  0.2989 -0.1113
 2424SOL    HW2 9462   4.507   5.011   4.494  0.2636  0.1267  0.0827
 2424SOL    HW3 9463   4.412   4.899   4.532  0.1192  0.3980  0.5343
 2424SOL    MW4 9464   4.479   4.929   4.485 -0.2007  0.2893 -0.0005
 2425SOL     OW 9465   5.483   2.744   4.231  0.1703  0.9347 -0.6040
 2425SOL    HW2 9466   5.435   2.678   4.280  2.6600 -1.0093 -0.6025
 2425SOL    HW3 9467   5.427   2.765   4.157 -1.0661 -0.5012 -0.1119
 2425SOL    MW4 9468   5.470   2.738   4.228  0.3357  0.4888 -0.5389
 2426SOL     OW 9469   1.531   0.740   2.875  0.9705 -0.5338  0.2238
 2426SOL    HW2 9470   1.616   0.785   2.869  1.1055 -0.9536 -1.2241
 2426SOL    HW3 9471   1.530   0.704   2.964  2.0557 -0.0309  0.4576
 2426SOL    MW4 9472   1.542   0.741   2.886  1.1315 -0.5228  0.0636
 2427SOL     OW 9473   5.793   4.179   0.096 -0.4090  0.0322 -0.0877
 2427SOL    HW2 9474   5.803   4.266   0.134 -0.6361  0.1110 -0.2084
 2427SOL    HW3 9475   5.866   4.129   0.132 -1.0495 -0.1127  1.0609
 2427SOL    MW4 9476   5.804   4.184   0.106 -0.5235  0.0235  0.0479
 2428SOL     OW 9477   0.596   2.761   6.067 -0.1688  0.0721 -0.2832
 2428SOL    HW2 9478   0.613   2.850   6.098 -0.2707  0.0622 -0.1971
 2428SOL    HW3 9479   0.652   2.750   5.991  0.1998  0.0470 -0.0107
 2428SOL    MW4 9480   0.605   2.771   6.061 -0.1336  0.0675 -0.2359
 2429SOL     OW 9481   3.832   4.384   5.438  0.0939  0.0785  0.5091
 2429SOL    HW2 9482   3.847   4.293   5.464 -1.5123 -0.6430 -0.8627
 2429SOL    HW3 9483   3.892   4.397   5.364  0.2461  0.1072  0.6366
 2429SOL    MW4 9484   3.842   4.373   5.431 -0.0979 -0.0129  0.3449
 2430SOL     OW 9485   0.382   1.979   0.238 -0.5153  0.3276  0.3832
 2430SOL    HW2 9486   0.360   2.068   0.214 -0.8115 -0.3852 -2.2790
 2430SOL    HW3 9487   0.477   1.973   0.228 -0.6029  0.1177 -0.4146
 2430SOL    MW4 9488   0.392   1.990   0.234 -0.5659  0.2059 -0.0733
 2431SOL     OW 9489   2.880   4.696   4.709  0.4551 -0.7386  0.0400
 2431SOL    HW2 9490   2.825   4.649   4.772  1.7688 -0.5835  1.3391
 2431SOL    HW3 9491   2.910   4.628   4.649  0.1502 -1.0927  0.2764
 2431SOL    MW4 9492   2.876   4.681   4.710  0.5882 -0.7649  0.2426
 2432SOL     OW 9493   3.130   0.008   5.099  0.2005  0.2863 -0.0016
 2432SOL    HW2 9494   3.156   0.097   5.077 -1.5968  1.2291  1.4377
 2432SOL    HW3 9495   3.114  -0.035   5.015  1.8332  1.0342 -0.7416
 2432SOL    MW4 9496   3.132   0.014   5.085  0.1788  0.5094  0.0907
 2433SOL     OW 9497   0.912   5.966   6.158  0.3571  0.3343 -0.8460
 2433SOL    HW2 9498   0.864   5.886   6.179 -0.5020  0.9270 -0.4800
 2433SOL    HW3 9499   1.004   5.944   6.171  0.0581 -0.2925  0.2858
 2433SOL    MW4 9500   0.918   5.953   6.162  0.2043  0.3298 -0.6484
 2434SOL     OW 9501   1.933   6.253   0.387  0.1327 -0.0157 -0.1359
 2434SOL    HW2 9502   1.855   6.297   0.355  0.2646 -0.3323 -0.9188
 2434SOL    HW3 9503   1.908   6.160   0.391 -0.1288  0.0948  1.4408
 2434SOL    MW4 9504   1.920   6.246   0.383  0.1156 -0.0429 -0.0311
 2435SOL     OW 9505   1.103   3.151   0.460 -0.3116  0.2268  0.1506
 2435SOL    HW2 9506   1.023   3.197   0.487 -0.9994 -0.6674 -0.3159
 2435SOL    HW3 9507   1.118   3.086   0.529  0.9453  1.4313  1.0720
 2435SOL    MW4 9508   1.094   3.148   0.473 -0.2365  0.2677  0.2106
 2436SOL     OW 9509   4.277   5.431   3.061 -0.0818 -0.0184  0.2133
 2436SOL    HW2 9510   4.209   5.426   3.128 -1.6574  1.2445 -1.2116
 2436SOL    HW3 9511   4.336   5.500   3.091 -1.2736  1.1638 -0.0705
 2436SOL    MW4 9512   4.276   5.439   3.074 -0.4470  0.3042 -0.0122
 2437SOL     OW 9513   2.225   5.449   2.424 -0.3104  0.2483 -0.1947
 2437SOL    HW2 9514   2.252   5.486   2.340  2.6787 -0.2270  0.4578
 2437SOL    HW3 9515   2.172   5.517   2.465  1.5124  2.1220 -0.8135
 2437SOL    MW4 9516   2.221   5.463   2.418  0.3245  0.4328 -0.1903
 2438SOL     OW 9517   5.438   6.197   3.942  0.2228  0.1355 -0.3763
 2438SOL    HW2 9518   5.396   6.182   3.857  1.2011 -0.7714 -0.7181
 2438SOL    HW3 9519   5.383   6.263   3.984 -0.5727  0.2220 -1.4988
 2438SOL    MW4 9520   5.425   6.204   3.936  0.2469  0.0272 -0.5695
 2439SOL     OW 9521   3.206   5.486   4.525 -0.1926 -0.1442  0.2124
 2439SOL    HW2 9522   3.275   5.506   4.588 -0.5338  2.0647 -0.0076
 2439SOL    HW3 9523   3.250   5.442   4.453  0.7175 -0.0587  0.7047
 2439SOL    MW4 9524   3.221   5.483   4.524 -0.1176  0.1585  0.2483
 2440SOL     OW 9525   2.931   1.350   5.823  0.1944  0.2319  0.2664
 2440SOL    HW2 9526   2.879   1.368   5.745  0.5861 -1.8595 -0.5320
 2440SOL    HW3 9527   2.866   1.330   5.891 -0.1086 -0.6638 -0.2730
 2440SOL    MW4 9528   2.915   1.350   5.822  0.2061 -0.1622  0.0899
 2441SOL     OW 9529   1.395   2.993   3.156  0.2137 -0.1251  0.2490
 2441SOL    HW2 9530   1.322   3.002   3.096 -0.9490  3.7809  1.9258
 2441SOL    HW3 9531   1.355   2.991   3.243  2.0029 -0.1208  1.1244
 2441SOL    MW4 9532   1.380   2.994   3.160  0.2964  0.3908  0.5857
 2442SOL     OW 9533   1.933   3.418   3.412  0.1050  0.3032 -0.1162
 2442SOL    HW2 9534   1.912   3.441   3.322 -1.5036 -1.7382 -0.3426
 2442SOL    HW3 9535   2.011   3.363   3.406  0.3017  0.5888 -0.1975
 2442SOL    MW4 9536   1.940   3.414   3.399 -0.0813  0.0716 -0.1568
 2443SOL     OW 9537   4.034   5.886   3.819 -0.2910  0.5060 -0.2273
 2443SOL    HW2 9538   4.024   5.801   3.776  1.2440  0.0307  0.3081
 2443SOL    HW3 9539   3.964   5.888   3.884 -0.0810 -0.5294  0.0392
 2443SOL    MW4 9540   4.023   5.875   3.822 -0.0608  0.3067 -0.1215
 2444SOL     OW 9541   2.074   0.132   3.043 -0.2850 -0.2736  0.8316
 2444SOL    HW2 9542   2.000   0.138   3.103 -0.5897  0.4958  0.3913
 2444SOL    HW3 9543   2.097   0.040   3.042 -1.2840 -0.5336  0.9231
 2444SOL    MW4 9544   2.068   0.121   3.051 -0.4570 -0.2064  0.7856
 2445SOL     OW 9545   5.933   1.631   3.479  0.0030  0.7299 -0.0276
 2445SOL    HW2 9546   5.869   1.562   3.467 -0.2416  1.1790 -1.5212
 2445SOL    HW3 9547   5.991   1.598   3.548 -0.7204 -0.4962  0.0262
 2445SOL    MW4 9548   5.933   1.617   3.487 -0.1247  0.6274 -0.2176
 2446SOL     OW 9549   6.179   6.234   3.961 -0.1270 -1.0798  0.2755
 2446SOL    HW2 9550   6.272   6.215   3.964  0.5549  1.6866 -0.2564
 2446SOL    HW3 9551   6.157   6.232   3.868  0.7334  3.2397 -0.2095
 2446SOL    MW4 9552   6.188   6.231   3.949  0.0765 -0.1449  0.1414
 2447SOL     OW 9553   5.825   1.076   1.268  0.0415  0.2492 -0.5522
 2447SOL    HW2 9554   5.754   1.044   1.324  0.7024  1.2732  0.9323
 2447SOL    HW3 9555   5.796   1.055   1.179 -1.5660 -0.4210  0.0792
 2447SOL    MW4 9556   5.812   1.069   1.264 -0.0834  0.2959 -0.2730
 2448SOL     OW 9557   1.505   3.392   4.172  0.1674  0.0012 -0.6522
 2448SOL    HW2 9558   1.493   3.403   4.266 -0.1954 -1.2682 -0.5273
 2448SOL    HW3 9559   1.415   3.383   4.138  0.3392 -1.1069 -0.8781
 2448SOL    MW4 9560   1.491   3.392   4.180  0.1422 -0.3125 -0.6655
 2449SOL     OW 9561   3.515   4.707   3.283  0.0332  0.2384 -0.3184
 2449SOL    HW2 9562   3.485   4.746   3.201  0.3039 -0.3965 -0.7305
 2449SOL    HW3 9563   3.437   4.668   3.322  0.2326 -1.1108 -1.2148
 2449SOL    MW4 9564   3.501   4.707   3.277  0.0952 -0.0234 -0.4910
 2450SOL     OW 9565   3.139   4.949   6.266 -0.0624 -0.0276 -0.4217
 2450SOL    HW2 9566   3.203   5.020   6.276  0.7012 -0.7273 -0.1700
 2450SOL    HW3 9567   3.104   4.935   6.354  0.5572 -0.6466 -0.2636
 2450SOL    MW4 9568   3.143   4.957   6.279  0.1201 -0.2016 -0.3677
 2451SOL     OW 9569   1.423   1.228   1.094  0.6478 -0.3859 -0.3452
 2451SOL    HW2 9570   1.474   1.293   1.046  0.7163 -0.6081 -0.5767
 2451SOL    HW3 9571   1.336   1.267   1.104 -0.4111 -1.6092 -3.5237
 2451SOL    MW4 9572   1.418   1.242   1.089  0.5171 -0.5766 -0.7951
 2452SOL     OW 9573   2.703   1.423   2.743  0.1806  0.0670  0.6601
 2452SOL    HW2 9574   2.677   1.333   2.763 -2.2313  0.3675 -0.6518
 2452SOL    HW3 9575   2.797   1.419   2.727  0.2803 -2.0356  1.4950
 2452SOL    MW4 9576   2.712   1.411   2.744 -0.1245 -0.1708  0.5972
 2453SOL     OW 9577   6.104   2.878   0.932  0.4481 -0.2981 -0.0021
 2453SOL    HW2 9578   6.177   2.918   0.885 -0.2186 -0.9013 -1.6407
 2453SOL    HW3 9579   6.037   2.864   0.864 -0.4899 -1.3916  1.1047
 2453SOL    MW4 9580   6.105   2.881   0.917  0.2364 -0.5219 -0.0723
 2454SOL     OW 9581   5.966   3.595   4.869 -0.6060 -0.2719  0.4214
 2454SOL    HW2 9582   5.955   3.563   4.959 -0.4868 -1.6898 -0.0329
 2454SOL    HW3 9583   5.934   3.523   4.814 -0.7267  0.5934 -0.6697
 2454SOL    MW4 9584   5.961   3.581   4.874 -0.6062 -0.3448  0.2175
 2455SOL     OW 9585   5.743   3.794   4.842 -0.4141 -0.2034  0.4721
 2455SOL    HW2 9586   5.826   3.747   4.832 -0.5574 -0.5718  0.9668
 2455SOL    HW3 9587   5.711   3.805   4.753  0.1996 -0.0028  0.2750
 2455SOL    MW4 9588   5.750   3.789   4.829 -0.3520 -0.2255  0.5114
 2456SOL     OW 9589   2.186   2.831   5.668  0.0883 -0.2500 -0.6704
 2456SOL    HW2 9590   2.209   2.924   5.662 -0.3824 -0.0160  0.9028
 2456SOL    HW3 9591   2.107   2.829   5.721  0.0361 -1.5590 -0.7645
 2456SOL    MW4 9592   2.179   2.843   5.674  0.0193 -0.3918 -0.4753
 2457SOL     OW 9593   0.103   4.500   6.241  0.1233 -0.6557  0.9898
 2457SOL    HW2 9594   0.043   4.457   6.302  0.5351 -1.4397  0.8585
 2457SOL    HW3 9595   0.151   4.563   6.294  0.6430 -1.4968  1.5525
 2457SOL    MW4 9596   0.102   4.502   6.256  0.2462 -0.8701  1.0467
 2458SOL     OW 9597   3.742   2.952   4.883  0.5117  0.4479 -0.0937
 2458SOL    HW2 9598   3.734   3.020   4.816 -1.3878 -0.5937 -1.0100
 2458SOL    HW3 9599   3.674   2.973   4.946  1.4093  0.6490  0.8330
 2458SOL    MW4 9600   3.732   2.964   4.882  0.3795  0.3370 -0.0923
 2459SOL     OW 9601   3.453   0.277   0.690  0.7166  0.3214  0.1270
 2459SOL    HW2 9602   3.454   0.253   0.597  1.1149  1.0765 -0.0635
 2459SOL    HW3 9603   3.423   0.368   0.691 -0.6596 -0.1083  0.8419
 2459SOL    MW4 9604   3.449   0.286   0.677  0.5876  0.3643  0.1962
 2460SOL     OW 9605   3.655   5.415   2.621  0.3552  0.4199 -0.0640
 2460SOL    HW2 9606   3.728   5.461   2.579  0.4639  1.5769  1.3179
 2460SOL    HW3 9607   3.689   5.327   2.639  1.5719  1.0621  0.9154
 2460SOL    MW4 9608   3.669   5.410   2.618  0.5300  0.6573  0.2476
 2461SOL     OW 9609   1.458   1.962   4.571 -0.3664  0.1371  0.5062
 2461SOL    HW2 9610   1.407   2.022   4.517 -0.6572  0.0429  0.6725
 2461SOL    HW3 9611   1.531   2.015   4.603  1.2756 -0.4340 -2.0342
 2461SOL    MW4 9612   1.461   1.977   4.568 -0.1881  0.0493  0.1930
 2462SOL     OW 9613   5.392   4.512   5.585 -0.6801 -0.5223 -0.1821
 2462SOL    HW2 9614   5.450   4.463   5.526  0.3915  0.1099  0.3179
 2462SOL    HW3 9615   5.381   4.456   5.661  1.1142  0.2491  0.6992
 2462SOL    MW4 9616   5.398   4.498   5.587 -0.3020 -0.3371  0.0002
 2463SOL     OW 9617   1.251   5.363   2.770  0.0516 -0.2595  0.1406
 2463SOL    HW2 9618   1.339   5.401   2.776 -0.1585  0.0663  1.9114
 2463SOL    HW3 9619   1.220   5.361   2.861 -1.7988 -0.2991 -0.4429
 2463SOL    MW4 9620   1.258   5.368   2.783 -0.2203 -0.2217  0.2973
 2464SOL     OW 9621   3.689   1.046   3.599  0.0993  0.7894  0.3605
 2464SOL    HW2 9622   3.599   1.059   3.628  0.2258  0.8353  0.7372
 2464SOL    HW3 9623   3.719   1.134   3.574  0.4643  1.0058  1.4875
 2464SOL    MW4 9624   3.681   1.060   3.599  0.1641  0.8240  0.5589
 2465SOL     OW 9625   6.045   0.779   5.014  0.1039 -0.5970  0.2413
 2465SOL    HW2 9626   6.121   0.804   4.961  1.5984  0.5940  2.7491
 2465SOL    HW3 9627   6.073   0.702   5.063 -1.9663 -2.9725 -2.0094
 2465SOL    MW4 9628   6.059   0.772   5.014  0.0279 -0.7533  0.2752
 2466SOL     OW 9629   6.179   2.029   1.932 -0.1465 -0.0734  0.1249
 2466SOL    HW2 9630   6.233   2.070   1.999  1.5713 -2.1005  0.1039
 2466SOL    HW3 9631   6.203   2.074   1.851  0.2922  0.1668  0.3835
 2466SOL    MW4 9632   6.190   2.040   1.930  0.1380 -0.3091  0.1562
 2467SOL     OW 9633   5.006   1.750   3.325  0.0740 -0.2896  0.0010
 2467SOL    HW2 9634   5.048   1.825   3.283  0.9745 -0.7903 -0.0262
 2467SOL    HW3 9635   5.078   1.692   3.347 -0.7143 -1.8931 -1.4184
 2467SOL    MW4 9636   5.021   1.752   3.322  0.0888 -0.5672 -0.1899
 2468SOL     OW 9637   0.900   6.135   0.996 -0.2722 -0.2813  0.3136
 2468SOL    HW2 9638   0.982   6.131   0.947  0.4577  0.4817  1.4288
 2468SOL    HW3 9639   0.925   6.172   1.081 -1.8463  0.3965  0.5078
 2468SOL    MW4 9640   0.914   6.140   1.000 -0.3836 -0.0912  0.4863
 2469SOL     OW 9641   0.340   3.477   3.151  0.5882  0.1368 -0.1607
 2469SOL    HW2 9642   0.267   3.418   3.164  0.6582  0.1544  0.3306
 2469SOL    HW3 9643   0.301   3.558   3.118  0.5793 -0.4536 -1.6469
 2469SOL    MW4 9644   0.325   3.480   3.149  0.5962  0.0613 -0.2920
 2470SOL     OW 9645   5.722   0.643   4.467  0.1452 -0.4569 -0.2339
 2470SOL    HW2 9646   5.802   0.608   4.506  0.6176  0.6153 -0.1935
 2470SOL    HW3 9647   5.752   0.701   4.397 -0.5208  0.8541  0.5070
 2470SOL    MW4 9648   5.736   0.646   4.463  0.1196 -0.1425 -0.1309
 2471SOL     OW 9649   4.674   2.252   3.910  0.5695 -0.0230  0.3438
 2471SOL    HW2 9650   4.760   2.227   3.944  1.0812  1.5190  0.2658
 2471SOL    HW3 9651   4.667   2.346   3.930 -1.5203 -0.3061  1.2466
 2471SOL    MW4 9652   4.685   2.261   3.917  0.3613  0.1431  0.4526
 2472SOL     OW 9653   6.181   1.191   1.182  0.4277 -0.1231  0.4235
 2472SOL    HW2 9654   6.117   1.207   1.112 -0.9060  0.2065  1.6628
 2472SOL    HW3 9655   6.180   1.096   1.194  3.4603 -0.6881 -2.4675
 2472SOL    MW4 9656   6.172   1.181   1.175  0.6518 -0.1542  0.2056
 2473SOL     OW 9657   0.877   3.015   1.844 -0.0097 -0.0019  0.3629
 2473SOL    HW2 9658   0.784   3.031   1.830  0.2405  1.5591  0.3756
 2473SOL    HW3 9659   0.903   3.079   1.910  1.2822  0.2141 -0.3297
 2473SOL    MW4 9660   0.868   3.026   1.851  0.1938  0.2325  0.2732
 2474SOL     OW 9661   5.297   3.450   3.861  0.2890  0.2351  0.6642
 2474SOL    HW2 9662   5.364   3.463   3.794  0.2327  1.3664  0.8085
 2474SOL    HW3 9663   5.317   3.516   3.928 -1.5002  1.2535  0.2751
 2474SOL    MW4 9664   5.308   3.461   3.861  0.0455  0.5188  0.6319
 2475SOL     OW 9665   3.516   3.361   2.502 -0.0717 -0.4288 -0.2888
 2475SOL    HW2 9666   3.486   3.271   2.492 -0.0542 -0.5427  0.5468
 2475SOL    HW3 9667   3.441   3.407   2.539  0.6784 -0.6902  1.7193
 2475SOL    MW4 9668   3.502   3.356   2.506  0.0296 -0.4783  0.0864
 2476SOL     OW 9669   0.180   2.406   3.082 -0.4559  0.3596  0.0578
 2476SOL    HW2 9670   0.216   2.494   3.072 -1.0478  0.4910 -1.0114
 2476SOL    HW3 9671   0.211   2.358   3.005 -0.0065 -0.4302  0.7076
 2476SOL    MW4 9672   0.189   2.411   3.071 -0.4747  0.2727  0.0025
 2477SOL     OW 9673   1.105   3.002   4.250 -0.0575  0.1231 -0.1126
 2477SOL    HW2 9674   1.166   2.942   4.207 -0.8131 -0.4004 -0.4956
 2477SOL    HW3 9675   1.146   3.023   4.334  0.1307 -1.1249  0.1326
 2477SOL    MW4 9676   1.118   2.997   4.256 -0.1324 -0.1107 -0.1307
 2478SOL     OW 9677   3.090   3.001   1.589 -0.1386  0.0069  0.5124
 2478SOL    HW2 9678   3.039   2.927   1.555  0.7918 -0.0911 -0.7340
 2478SOL    HW3 9679   3.176   2.964   1.608  0.0080  0.5462  0.9091
 2478SOL    MW4 9680   3.094   2.986   1.587  0.0035  0.0651  0.4003
 2479SOL     OW 9681   4.039   1.812   2.847 -0.0784 -0.0523  0.4318
 2479SOL    HW2 9682   4.069   1.838   2.759 -2.4644  0.9454 -0.1635
 2479SOL    HW3 9683   4.084   1.729   2.864  1.4545  0.3818 -1.1486
 2479SOL    MW4 9684   4.049   1.804   2.837 -0.1910  0.1366  0.1448
 2480SOL     OW 9685   2.939   1.312   2.358 -0.1355  0.1352  0.0203
 2480SOL    HW2 9686   2.866   1.347   2.410  1.3133  2.0070  0.9192
 2480SOL    HW3 9687   2.975   1.243   2.412 -0.8105 -0.3424 -0.1243
 2480SOL    MW4 9688   2.934   1.308   2.372 -0.0334  0.3191  0.1198
 2481SOL     OW 9689   0.502   2.507   4.352 -0.2750  0.3078  0.1919
 2481SOL    HW2 9690   0.425   2.489   4.406  1.5061 -0.2582  2.7279
 2481SOL    HW3 9691   0.516   2.426   4.302 -0.7684  0.0700  0.4278
 2481SOL    MW4 9692   0.493   2.494   4.353 -0.1051  0.2018  0.5576
 2482SOL     OW 9693   1.770   5.609   5.894 -0.1150 -0.1953 -0.9710
 2482SOL    HW2 9694   1.844   5.662   5.864 -0.4449 -0.0593 -1.5708
 2482SOL    HW3 9695   1.715   5.599   5.816 -1.9356  1.6853 -0.0095
 2482SOL    MW4 9696   1.773   5.614   5.879 -0.3988  0.0708 -0.9233
 2483SOL     OW 9697   0.228   3.112   5.254  0.1758 -0.0427  0.1997
 2483SOL    HW2 9698   0.270   3.029   5.233  2.1114  1.1639 -0.9691
 2483SOL    HW3 9699   0.192   3.098   5.342  1.0370 -1.8874  0.3208
 2483SOL    MW4 9700   0.229   3.099   5.263  0.5448 -0.1269  0.0614
 2484SOL     OW 9701   4.624   0.210   0.172  0.6568  0.2307 -0.7853
 2484SOL    HW2 9702   4.655   0.123   0.196  1.6279  0.7169 -0.1816
 2484SOL    HW3 9703   4.703   0.265   0.177 -0.2466  1.4833  0.5907
 2484SOL    MW4 9704   4.639   0.206   0.176  0.6658  0.4601 -0.5241
 2485SOL     OW 9705   4.912   3.261   0.944  0.6918  0.1059  0.0689
 2485SOL    HW2 9706   4.947   3.251   1.033  1.3030 -1.6667 -0.3395
 2485SOL    HW3 9707   4.962   3.334   0.908  1.9543 -0.5264  0.4831
 2485SOL    MW4 9708   4.923   3.270   0.951  0.9391 -0.2114  0.0697
 2486SOL     OW 9709   2.082   4.039   2.352 -0.4870 -0.2118  0.0584
 2486SOL    HW2 9710   2.125   4.099   2.291  1.0374  0.0877  1.3474
 2486SOL    HW3 9711   2.021   4.093   2.401 -0.2812 -0.0420  0.1275
 2486SOL    MW4 9712   2.080   4.054   2.351 -0.2587 -0.1499  0.2376
 2487SOL     OW 9713   3.387   4.889   4.085  0.9045 -0.0662 -0.1149
 2487SOL    HW2 9714   3.342   4.805   4.096 -0.8797  0.3699 -2.9702
 2487SOL    HW3 9715   3.397   4.923   4.173  0.6033 -2.7044  1.0474
 2487SOL    MW4 9716   3.382   4.882   4.098  0.6293 -0.3568 -0.3383
 2488SOL     OW 9717   4.159   6.050   4.070 -0.1599  0.0871  0.5350
 2488SOL    HW2 9718   4.134   6.141   4.055  0.4290  0.3038  0.8083
 2488SOL    HW3 9719   4.238   6.038   4.018 -0.0546 -0.1723  0.7498
 2488SOL    MW4 9720   4.166   6.061   4.061 -0.0683  0.0815  0.5994
 2489SOL     OW 9721   3.850   4.469   2.332 -0.1012  0.1673  0.0424
 2489SOL    HW2 9722   3.826   4.380   2.357  1.9459 -0.1018  1.2749
 2489SOL    HW3 9723   3.787   4.525   2.377 -1.8062 -0.6366 -1.2561
 2489SOL    MW4 9724   3.839   4.465   2.341 -0.0561  0.0257  0.0337
 2490SOL     OW 9725   0.296   0.567   2.994  0.1642  0.6438  0.2132
 2490SOL    HW2 9726   0.235   0.509   2.949 -2.0235  1.3534  2.0809
 2490SOL    HW3 9727   0.352   0.508   3.044 -1.4174  0.0440  1.3569
 2490SOL    MW4 9728   0.296   0.552   2.994 -0.3331  0.6583  0.6105
 2491SOL     OW 9729   5.694   2.915   4.989 -0.3176  0.3786  0.0673
 2491SOL    HW2 9730   5.743   2.994   5.011  0.7039  0.7830 -3.1904
 2491SOL    HW3 9731   5.751   2.843   5.019  1.2373  0.8776 -1.5096
 2491SOL    MW4 9732   5.708   2.916   4.996  0.0223  0.4978 -0.5706
 2492SOL     OW 9733   4.859   5.625   1.427 -0.6565  0.3177  0.3403
 2492SOL    HW2 9734   4.790   5.685   1.399 -2.2141 -1.9188 -0.9405
 2492SOL    HW3 9735   4.827   5.538   1.402  2.1354 -0.9401  0.7516
 2492SOL    MW4 9736   4.846   5.621   1.420 -0.4937 -0.1433  0.2256
 2493SOL     OW 9737   5.293   1.277   2.485 -0.1521  0.1471 -0.3117
 2493SOL    HW2 9738   5.303   1.367   2.453  0.5790 -0.0797 -0.7557
 2493SOL    HW3 9739   5.379   1.237   2.470 -0.8311 -1.0017 -1.2721
 2493SOL    MW4 9740   5.306   1.284   2.479 -0.1452 -0.0344 -0.4970
 2494SOL     OW 9741   2.662   3.934   2.010 -0.1517  0.5361  0.1938
 2494SOL    HW2 9742   2.596   3.893   1.953  0.2618  0.2228 -0.0682
 2494SOL    HW3 9743   2.686   3.865   2.071 -0.4124  0.7977  0.5992
 2494SOL    MW4 9744   2.656   3.919   2.011 -0.1316  0.5293  0.2127
 2495SOL     OW 9745   2.375   6.011   1.558 -0.2931 -0.2835 -0.2461
 2495SOL    HW2 9746   2.297   5.960   1.579 -0.4303 -0.7824 -1.8707
 2495SOL    HW3 9747   2.447   5.962   1.597 -0.7787  0.3693  1.5873
 2495SOL    MW4 9748   2.374   5.998   1.566 -0.3753 -0.2632 -0.2185
 2496SOL     OW 9749   5.424   1.021   1.099 -0.1554 -0.3623 -0.0542
 2496SOL    HW2 9750   5.432   1.109   1.135  0.2663  0.4008 -1.9047
 2496SOL    HW3 9751   5.363   0.976   1.158 -0.2637  1.1150  0.9957
 2496SOL    MW4 9752   5.417   1.026   1.112 -0.1140 -0.0667 -0.1599
 2497SOL     OW 9753   1.431   5.321   5.907 -0.2602 -0.0359  0.0192
 2497SOL    HW2 9754   1.491   5.266   5.957  0.0120 -0.1200 -0.3963
 2497SOL    HW3 9755   1.448   5.410   5.939  1.1459  0.1491 -1.1132
 2497SOL    MW4 9756   1.441   5.326   5.918 -0.0388 -0.0226 -0.1850
 2498SOL     OW 9757   4.666   4.685   2.676 -0.4121 -0.1267  0.1638
 2498SOL    HW2 9758   4.680   4.615   2.613  1.0208 -0.4280  0.7576
 2498SOL    HW3 9759   4.738   4.746   2.660 -2.3815  1.9773 -1.2587
 2498SOL    MW4 9760   4.678   4.684   2.666 -0.4829  0.1111  0.0544
 2499SOL     OW 9761   5.478   4.160   1.020  0.9827  0.8107  0.4125
 2499SOL    HW2 9762   5.466   4.067   1.039  0.3645  0.8546  0.2678
 2499SOL    HW3 9763   5.389   4.193   1.006  1.2862  1.0570 -1.1950
 2499SOL    MW4 9764   5.464   4.152   1.021  0.9412  0.8490  0.1813
 2500SOL     OW 9765   4.505   4.535   4.251  0.2210  0.0543  0.5234
 2500SOL    HW2 9766   4.501   4.497   4.338  2.2603 -2.6435 -0.4189
 2500SOL    HW3 9767   4.597   4.557   4.239 -0.0869  0.7189 -0.8242
 2500SOL    MW4 9768   4.517   4.533   4.261  0.4495 -0.2140  0.2213
 2501SOL     OW 9769   4.348   0.186   2.007  0.0008 -0.2297 -0.4238
 2501SOL    HW2 9770   4.284   0.177   1.936 -0.0403 -2.0136 -0.2233
 2501SOL    HW3 9771   4.408   0.112   1.994  1.4089  0.7981  0.0101
 2501SOL    MW4 9772   4.348   0.175   1.996  0.1812 -0.3295 -0.3401
 2502SOL     OW 9773   1.545   4.235   3.014 -0.3452  0.4809 -0.5990
 2502SOL    HW2 9774   1.468   4.182   3.035  0.8202 -2.8945 -3.9114
 2502SOL    HW3 9775   1.515   4.295   2.946 -0.5384  0.7127 -0.3117
 2502SOL    MW4 9776   1.531   4.236   3.008 -0.2169  0.0661 -0.9981
 2503SOL     OW 9777   2.627   0.166   1.326  0.9190 -0.6347 -0.1234
 2503SOL    HW2 9778   2.685   0.209   1.264  0.9645  0.6867  0.7994
 2503SOL    HW3 9779   2.579   0.238   1.368 -0.6596 -1.6299 -0.1515
 2503SOL    MW4 9780   2.628   0.181   1.324  0.7167 -0.5916 -0.0054
 2504SOL     OW 9781   2.701   3.142   5.635 -0.3192 -0.0966  0.4188
 2504SOL    HW2 9782   2.734   3.057   5.663  1.7730  0.8327  0.9796
 2504SOL    HW3 9783   2.693   3.192   5.717  2.0300  1.3752 -0.1488
 2504SOL    MW4 9784   2.704   3.137   5.650  0.2668  0.2202  0.4179
 2505SOL     OW 9785   6.290   4.505   3.283  0.9302  0.0336  0.2760
 2505SOL    HW2 9786   6.371   4.521   3.331  0.8094  0.0622  0.4671
 2505SOL    HW3 9787   6.293   4.567   3.210 -0.0305  1.7211  1.5814
 2505SOL    MW4 9788   6.301   4.516   3.279  0.7875  0.2600  0.4734
 2506SOL     OW 9789   5.403   3.575   1.037  0.4150 -0.3566 -0.0194
 2506SOL    HW2 9790   5.362   3.553   1.120  0.1011  0.1774 -0.0279
 2506SOL    HW3 9791   5.476   3.514   1.029  0.4248 -0.4341  0.6267
 2506SOL    MW4 9792   5.407   3.564   1.047  0.3749 -0.2963  0.0647
 2507SOL     OW 9793   3.623   5.348   2.008 -0.3357 -0.5951 -0.4846
 2507SOL    HW2 9794   3.664   5.300   2.079 -0.7845 -0.5613 -0.2026
 2507SOL    HW3 9795   3.547   5.296   1.983 -0.8539 -0.0200 -0.1460
 2507SOL    MW4 9796   3.619   5.335   2.014 -0.4633 -0.5148 -0.4027
 2508SOL     OW 9797   1.685   4.354   4.221 -0.0984 -0.3441 -0.0526
 2508SOL    HW2 9798   1.592   4.362   4.243  0.0690 -0.8269  0.8782
 2508SOL    HW3 9799   1.731   4.386   4.298  0.5558  2.3186 -1.4090
 2508SOL    MW4 9800   1.679   4.359   4.234  0.0100 -0.0565 -0.1088
 2509SOL     OW 9801   2.173   2.248   5.547 -0.3635  0.0013 -0.4292
 2509SOL    HW2 9802   2.103   2.272   5.487  0.4757  1.7500 -0.8016
 2509SOL    HW3 9803   2.130   2.196   5.615 -1.8326  0.2570 -1.1230
 2509SOL    MW4 9804   2.158   2.245   5.548 -0.4466  0.2657 -0.5699
 2510SOL     OW 9805   2.000   2.013   2.967  0.2435 -0.2315 -0.0268
 2510SOL    HW2 9806   1.932   2.080   2.961  2.0233  1.5780 -1.0206
 2510SOL    HW3 9807   2.019   2.006   3.061  1.0874  1.8310 -0.0013
 2510SOL    MW4 9808   1.993   2.021   2.979  0.5897  0.2793 -0.1546
 2511SOL     OW 9809   2.501   1.548   1.875 -0.1674 -0.8912 -0.0417
 2511SOL    HW2 9810   2.560   1.609   1.921 -0.9427 -1.0834  1.2417
 2511SOL    HW3 9811   2.545   1.464   1.881 -0.6760 -1.0921  1.1749
 2511SOL    MW4 9812   2.515   1.545   1.882 -0.3368 -0.9431  0.2882
 2512SOL     OW 9813   0.573   5.614   4.652 -0.0025 -0.1562  0.4652
 2512SOL    HW2 9814   0.619   5.605   4.569 -0.8204 -1.8939  0.1494
 2512SOL    HW3 9815   0.599   5.700   4.685 -0.0438  0.7891 -1.8118
 2512SOL    MW4 9816   0.583   5.624   4.646 -0.1159 -0.2608  0.1231
 2513SOL     OW 9817   2.684   3.280   5.891 -0.2530 -0.4856  1.1490
 2513SOL    HW2 9818   2.620   3.283   5.962 -0.0779  0.5547  1.2872
 2513SOL    HW3 9819   2.769   3.279   5.936 -0.1523 -0.5779  0.9572
 2513SOL    MW4 9820   2.687   3.280   5.907 -0.2166 -0.3605  1.1419
 2514SOL     OW 9821   3.106   4.138   2.387  0.1770  0.4441  0.3826
 2514SOL    HW2 9822   3.158   4.165   2.311  1.1245  2.2808  1.6020
 2514SOL    HW3 9823   3.035   4.201   2.391 -0.3389 -0.1393  0.5663
 2514SOL    MW4 9824   3.104   4.150   2.378  0.2339  0.6094  0.5677
 2515SOL     OW 9825   6.117   0.516   3.167 -0.0984 -0.2605  0.0579
 2515SOL    HW2 9826   6.102   0.422   3.181 -0.3808 -0.1542  0.4740
 2515SOL    HW3 9827   6.208   0.529   3.193 -0.1933 -0.3350  0.4313
 2515SOL    MW4 9828   6.127   0.505   3.172 -0.1482 -0.2563  0.1621
 2516SOL     OW 9829   2.224   2.834   2.155  0.4878 -0.0244 -0.2437
 2516SOL    HW2 9830   2.207   2.744   2.184  3.2436 -0.7608 -0.6352
 2516SOL    HW3 9831   2.176   2.889   2.217 -0.1937 -1.7269  0.7987
 2516SOL    MW4 9832   2.215   2.830   2.167  0.7615 -0.3462 -0.1578
 2517SOL     OW 9833   2.393   4.835   5.667  0.4843 -0.1110 -0.0439
 2517SOL    HW2 9834   2.342   4.762   5.702  0.9720 -0.4006  0.0708
 2517SOL    HW3 9835   2.396   4.899   5.738  1.9203 -0.9192  0.6657
 2517SOL    MW4 9836   2.387   4.834   5.681  0.7381 -0.2559  0.0648
 2518SOL     OW 9837   2.571   4.405   0.574  0.4314 -0.0407 -0.2276
 2518SOL    HW2 9838   2.556   4.467   0.504  0.4126  1.1668  0.8068
 2518SOL    HW3 9839   2.487   4.359   0.584  0.5623 -0.5137 -1.2471
 2518SOL    MW4 9840   2.558   4.407   0.566  0.4462  0.0562 -0.2257
 2519SOL     OW 9841   1.931   0.035   5.488  0.4015 -0.0454  0.1449
 2519SOL    HW2 9842   1.963  -0.034   5.430  1.7531 -0.6556  1.5437
 2519SOL    HW3 9843   1.857   0.073   5.441  1.4967 -0.4214 -2.0096
 2519SOL    MW4 9844   1.925   0.031   5.474  0.7244 -0.1756  0.0452
 2520SOL     OW 9845   6.070   2.525   6.326 -0.6784  0.4906  0.4078
 2520SOL    HW2 9846   5.985   2.568   6.332 -0.5856  0.9714 -1.1865
 2520SOL    HW3 9847   6.095   2.535   6.234  1.0788  0.3129  0.8335
 2520SOL    MW4 9848   6.062   2.532   6.315 -0.4343  0.5306  0.2536
 2521SOL     OW 9849   5.975   1.973   3.011 -0.5445  0.1418 -0.5513
 2521SOL    HW2 9850   5.904   1.979   3.075 -1.0470 -0.6231 -1.0230
 2521SOL    HW3 9851   6.046   1.931   3.059 -1.3310 -1.5639 -0.8055
 2521SOL    MW4 9852   5.975   1.968   3.026 -0.7145 -0.1841 -0.6470
 2522SOL     OW 9853   4.761   3.853   6.099  0.1267  0.3866  0.1514
 2522SOL    HW2 9854   4.820   3.852   6.023  0.3279  1.4042  0.2779
 2522SOL    HW3 9855   4.709   3.932   6.088 -0.2766  0.2136  0.7548
 2522SOL    MW4 9856   4.762   3.863   6.088  0.1000  0.4980  0.2477
 2523SOL     OW 9857   3.791   4.409   3.381  0.5285  0.4021 -0.0281
 2523SOL    HW2 9858   3.871   4.356   3.375  0.5704  0.4819 -0.1628
 2523SOL    HW3 9859   3.811   4.488   3.331  0.3244  0.3711 -0.1588
 2523SOL    MW4 9860   3.804   4.412   3.373  0.5071  0.4085 -0.0631
 2524SOL     OW 9861   4.897   0.690   6.049  0.0259  0.2814 -0.5197
 2524SOL    HW2 9862   4.933   0.768   6.007  0.8152  0.5596  0.6226
 2524SOL    HW3 9863   4.802   0.699   6.040  0.0418  2.0252  0.6621
 2524SOL    MW4 9864   4.889   0.701   6.042  0.1321  0.5482 -0.2130
 2525SOL     OW 9865   3.943   3.951   5.165  0.1342  0.3356 -0.3635
 2525SOL    HW2 9866   3.887   3.874   5.151  0.2413  0.2064 -0.0909
 2525SOL    HW3 9867   3.920   4.011   5.094 -0.0060  0.0830 -0.5321
 2525SOL    MW4 9868   3.933   3.949   5.154  0.1298  0.2852 -0.3498
 2526SOL     OW 9869   5.523   1.529   1.460 -0.0992 -0.1737 -0.5805
 2526SOL    HW2 9870   5.475   1.545   1.379 -2.1065  3.4701  1.0769
 2526SOL    HW3 9871   5.462   1.478   1.513  0.4637 -0.9623 -0.6804
 2526SOL    MW4 9872   5.509   1.524   1.456 -0.2898  0.2030 -0.3750
 2527SOL     OW 9873   6.146   3.729   4.483 -0.3906  0.1377 -0.2380
 2527SOL    HW2 9874   6.195   3.799   4.440  0.2045  0.5498  1.0644
 2527SOL    HW3 9875   6.066   3.720   4.431 -0.0704  1.1803 -0.9337
 2527SOL    MW4 9876   6.142   3.737   4.471 -0.2698  0.3297 -0.1579
 2528SOL     OW 9877   4.427   6.277   1.383 -0.0941 -0.1536 -0.3682
 2528SOL    HW2 9878   4.337   6.257   1.409 -0.1489 -1.3619 -1.3854
 2528SOL    HW3 9879   4.447   6.359   1.427 -1.2260 -0.5492  0.9481
 2528SOL    MW4 9880   4.418   6.285   1.392 -0.2506 -0.3652 -0.3287
 2529SOL     OW 9881   2.293   4.911   2.990  0.3425  0.0124  0.0893
 2529SOL    HW2 9882   2.307   5.006   2.990  2.8101 -0.2741 -0.1720
 2529SOL    HW3 9883   2.308   4.885   3.081 -0.2637 -0.1308  0.1476
 2529SOL    MW4 9884   2.297   4.920   3.002  0.5881 -0.0443  0.0625
 2530SOL     OW 9885   3.575   5.446   1.401  0.0617 -0.0375  0.4078
 2530SOL    HW2 9886   3.494   5.396   1.412 -0.7004  1.1397  0.3537
 2530SOL    HW3 9887   3.607   5.459   1.490 -1.0503  1.4090  0.6481
 2530SOL    MW4 9888   3.568   5.441   1.414 -0.1856  0.3087  0.4324
 2531SOL     OW 9889   0.056   0.023   3.759 -0.0796 -0.2014 -0.6740
 2531SOL    HW2 9890   0.032  -0.041   3.692 -0.1654 -0.5678 -0.2967
 2531SOL    HW3 9891   0.150   0.033   3.751  0.0371 -0.9263 -0.2562
 2531SOL    MW4 9892   0.065   0.016   3.749 -0.0755 -0.3454 -0.5691
 2532SOL     OW 9893   5.888   1.305   2.062 -0.5380 -0.6117 -0.2679
 2532SOL    HW2 9894   5.807   1.264   2.034 -0.8039 -1.1665  1.2447
 2532SOL    HW3 9895   5.955   1.266   2.006 -1.0957 -1.3930 -0.4045
 2532SOL    MW4 9896   5.886   1.294   2.051 -0.6466 -0.7880 -0.0864
 2533SOL     OW 9897   0.759   5.826   2.081 -0.2457  0.2920 -0.4118
 2533SOL    HW2 9898   0.725   5.824   2.171 -0.3430  1.8669 -0.4010
 2533SOL    HW3 9899   0.854   5.817   2.092 -0.4061 -1.8715 -0.3206
 2533SOL    MW4 9900   0.767   5.824   2.094 -0.2797  0.2143 -0.3983
 2534SOL     OW 9901   1.282   3.925   1.172 -0.7495  0.0716 -0.4264
 2534SOL    HW2 9902   1.318   3.846   1.213 -1.0486 -0.4071 -1.0709
 2534SOL    HW3 9903   1.187   3.916   1.181 -0.8763 -0.5544 -2.1212
 2534SOL    MW4 9904   1.274   3.913   1.179 -0.8057 -0.0742 -0.7350
 2535SOL     OW 9905   0.295   5.577   1.363 -0.2577 -0.2267  0.0275
 2535SOL    HW2 9906   0.262   5.610   1.447 -2.4565  1.9719 -1.5562
 2535SOL    HW3 9907   0.377   5.625   1.349 -1.2634  1.4851 -0.2605
 2535SOL    MW4 9908   0.302   5.588   1.372 -0.6805  0.2892 -0.2194
 2536SOL     OW 9909   5.600   3.917   2.324 -0.7392  0.6508  0.0327
 2536SOL    HW2 9910   5.653   3.981   2.277 -0.8205  1.3438  0.8621
 2536SOL    HW3 9911   5.512   3.953   2.322 -1.3496 -0.7552 -1.8094
 2536SOL    MW4 9912   5.596   3.930   2.317 -0.8305  0.5567 -0.1009
 2537SOL     OW 9913   3.279   5.325   5.380  0.2369  0.1336 -0.2823
 2537SOL    HW2 9914   3.199   5.305   5.331 -0.2459 -1.7941  1.1742
 2537SOL    HW3 9915   3.260   5.297   5.469  0.7989  4.2223  1.3481
 2537SOL    MW4 9916   3.266   5.319   5.385  0.2474  0.4187  0.1250
 2538SOL     OW 9917   3.853   4.535   1.062 -0.0055 -0.2075  0.4715
 2538SOL    HW2 9918   3.826   4.620   1.098  0.7680  0.5179 -0.6031
 2538SOL    HW3 9919   3.781   4.476   1.082 -1.8744  1.3659 -1.2067
 2538SOL    MW4 9920   3.840   4.539   1.069 -0.1500  0.0958  0.1083
 2539SOL     OW 9921   0.619   4.819   2.082  0.1751  0.3713  0.3363
 2539SOL    HW2 9922   0.713   4.815   2.099  0.2844 -1.0457 -0.4200
 2539SOL    HW3 9923   0.586   4.883   2.145  1.6268  0.8427  0.6638
 2539SOL    MW4 9924   0.627   4.827   2.093  0.3810  0.2465  0.2797
 2540SOL     OW 9925   3.998   5.595   1.815  0.3713 -0.2907 -0.3761
 2540SOL    HW2 9926   3.945   5.664   1.856  1.4919 -0.0881  0.7965
 2540SOL    HW3 9927   3.943   5.561   1.745 -2.3340 -1.7910  2.2861
 2540SOL    MW4 9928   3.984   5.600   1.811  0.1622 -0.4619  0.1299
 2541SOL     OW 9929   1.337   1.693   5.426 -0.5472 -0.1930  0.0087
 2541SOL    HW2 9930   1.246   1.682   5.454 -0.8123 -0.3143 -0.8772
 2541SOL    HW3 9931   1.359   1.611   5.382 -0.0077 -0.1630  0.2190
 2541SOL    MW4 9932   1.328   1.681   5.424 -0.5110 -0.2050 -0.0804
 2542SOL     OW 9933   4.423   4.127   4.939 -0.2311 -0.6465 -0.4653
 2542SOL    HW2 9934   4.494   4.148   5.000  0.1547 -0.3184 -1.0185
 2542SOL    HW3 9935   4.344   4.123   4.994 -0.1175  0.9627 -0.1311
 2542SOL    MW4 9936   4.422   4.129   4.954 -0.1652 -0.3909 -0.4942
 2543SOL     OW 9937   0.352   2.429   2.649 -0.2275 -0.4929 -0.1115
 2543SOL    HW2 9938   0.339   2.523   2.636  0.5369 -0.4558 -0.6590
 2543SOL    HW3 9939   0.308   2.388   2.574 -1.3796 -0.6385  0.6178
 2543SOL    MW4 9940   0.344   2.436   2.637 -0.2786 -0.5072 -0.0875
 2544SOL     OW 9941   2.752   2.353   0.325  0.1136 -0.3282  0.4784
 2544SOL    HW2 9942   2.831   2.358   0.379 -0.8168 -0.5022  1.9093
 2544SOL    HW3 9943   2.757   2.267   0.283  1.6954  0.4726 -1.1455
 2544SOL    MW4 9944   2.763   2.343   0.326  0.1996 -0.2455  0.4529
 2545SOL     OW 9945   1.899   2.378   3.844  0.6513  0.3513 -0.0989
 2545SOL    HW2 9946   1.834   2.445   3.868 -1.5169 -1.4577 -0.5572
 2545SOL    HW3 9947   1.929   2.343   3.928  2.6838  2.5414  0.2063
 2545SOL    MW4 9948   1.894   2.382   3.858  0.6334  0.4016 -0.1191
 2546SOL     OW 9949   5.373   2.718   1.330  0.1784 -0.0729  0.5699
 2546SOL    HW2 9950   5.407   2.794   1.284 -3.3830  1.0689 -0.5203
 2546SOL    HW3 9951   5.444   2.654   1.328  1.9612  1.8264 -1.9599
 2546SOL    MW4 9952   5.387   2.719   1.323 -0.0563  0.3284  0.0923
 2547SOL     OW 9953   1.858   3.337   1.091  0.4387  0.3036 -0.0370
 2547SOL    HW2 9954   1.772   3.352   1.051  1.2069  2.8909 -0.9475
 2547SOL    HW3 9955   1.918   3.333   1.016  1.2659 -0.1984  0.6392
 2547SOL    MW4 9956   1.855   3.338   1.076  0.6492  0.5787 -0.0679
 2548SOL     OW 9957   4.111   2.506   1.861 -0.1545  0.2220  0.4986
 2548SOL    HW2 9958   4.098   2.475   1.951 -0.3729  1.1473  0.7990
 2548SOL    HW3 9959   4.095   2.429   1.807  1.6894 -0.8050  1.3254
 2548SOL    MW4 9960   4.107   2.492   1.866  0.0600  0.2086  0.6473
 2549SOL     OW 9961   2.542   4.697   5.471  0.2452 -0.0452 -0.1871
 2549SOL    HW2 9962   2.489   4.732   5.544  0.9907  0.5046  0.1028
 2549SOL    HW3 9963   2.493   4.621   5.441 -0.5157  0.2207  0.3359
 2549SOL    MW4 9964   2.528   4.692   5.477  0.2431  0.0624 -0.0798
 2550SOL     OW 9965   1.422   5.100   3.618 -0.3494 -0.1358  0.5277
 2550SOL    HW2 9966   1.439   5.053   3.700 -1.3481 -0.5261  0.5191
 2550SOL    HW3 9967   1.463   5.045   3.550 -0.6585 -0.4921  0.6258
 2550SOL    MW4 9968   1.430   5.086   3.620 -0.5220 -0.2343  0.5395
 2551SOL     OW 9969   2.692   2.730   4.726 -0.2882 -0.1165 -0.9747
 2551SOL    HW2 9970   2.723   2.727   4.817  0.3635 -2.3023 -1.2028
 2551SOL    HW3 9971   2.732   2.653   4.685 -1.1389  0.4308 -2.9402
 2551SOL    MW4 9972   2.701   2.719   4.732 -0.3145 -0.3327 -1.2641
 2552SOL     OW 9973   0.493   4.020   4.489 -0.3717  0.0182  0.3703
 2552SOL    HW2 9974   0.463   3.995   4.402 -0.3382 -0.2231  0.4281
 2552SOL    HW3 9975   0.497   3.938   4.538 -0.1699  0.1212  0.5310
 2552SOL    MW4 9976   0.490   4.006   4.484 -0.3406 -0.0001  0.3991
 2553SOL     OW 9977   2.705   0.130   5.793  0.0325 -0.3206 -0.2045
 2553SOL    HW2 9978   2.666   0.141   5.707  0.4815  2.1231 -0.1909
 2553SOL    HW3 9979   2.632   0.144   5.854 -0.1222 -1.2463 -0.1613
 2553SOL    MW4 9980   2.690   0.134   5.790  0.0714 -0.1203 -0.1970
 2554SOL     OW 9981   1.175   5.674   2.667 -0.3060  0.1065 -0.1468
 2554SOL    HW2 9982   1.172   5.638   2.755 -0.6161 -1.3246 -0.7096
 2554SOL    HW3 9983   1.232   5.750   2.674  1.5900 -1.2962  0.8465
 2554SOL    MW4 9984   1.182   5.679   2.679 -0.0968 -0.2674 -0.0900
 2555SOL     OW 9985   4.140   3.430   4.717  0.2308  0.4038 -0.5207
 2555SOL    HW2 9986   4.236   3.438   4.719  0.5274 -2.2912  0.1486
 2555SOL    HW3 9987   4.124   3.337   4.706 -2.3523  0.7865 -0.6190
 2555SOL    MW4 9988   4.151   3.419   4.716 -0.0709  0.0987 -0.4454
 2556SOL     OW 9989   4.567   1.385   2.686 -0.4430 -0.6146 -0.5339
 2556SOL    HW2 9990   4.548   1.310   2.631  0.7512  0.1178 -2.0132
 2556SOL    HW3 9991   4.656   1.412   2.661 -1.1974  1.8815 -0.7881
 2556SOL    MW4 9992   4.576   1.379   2.676 -0.3850 -0.1886 -0.7626
 2557SOL     OW 9993   4.212   3.490   1.353 -0.2754  0.0123  0.4147
 2557SOL    HW2 9994   4.129   3.446   1.369 -1.2947  1.8580  0.4631
 2557SOL    HW3 9995   4.228   3.542   1.431  0.7050  0.0364  0.2172
 2557SOL    MW4 9996   4.203   3.491   1.365 -0.2805  0.2590  0.3950
 2558SOL     OW 9997   1.049   5.990   5.740 -0.1350 -0.0137 -0.2921
 2558SOL    HW2 9998   0.978   5.960   5.682 -0.7351 -0.2010  0.5250
 2558SOL    HW3 9999   1.062   5.917   5.800  0.2072  0.3406  0.0626
 2558SOL    MW410000   1.041   5.976   5.740 -0.1690  0.0083 -0.1375
 2559SOL     OW10001   1.025   4.820   2.338 -0.4457  0.1654  0.2778
 2559SOL    HW210002   1.009   4.795   2.247  1.9043 -0.3933 -0.0483
 2559SOL    HW310003   1.029   4.916   2.337  0.8740  0.1285 -0.5071
 2559SOL    MW410004   1.024   4.830   2.326  0.0385  0.0868  0.1312
 2560SOL     OW10005   1.484   4.015   6.078  0.1912 -0.1832 -0.7692
 2560SOL    HW210006   1.542   4.075   6.032 -1.0585  0.9626 -0.9240
 2560SOL    HW310007   1.399   4.027   6.036 -0.1462 -1.9627 -0.6815
 2560SOL    MW410008   1.480   4.024   6.066 -0.0182 -0.2668 -0.7780
 2561SOL     OW10009   5.499   0.692   6.281 -0.4095 -0.6618 -0.1963
 2561SOL    HW210010   5.516   0.765   6.340 -1.5751 -1.2892  0.9694
 2561SOL    HW310011   5.578   0.685   6.228  0.5827  0.1068  1.1112
 2561SOL    MW410012   5.512   0.701   6.282 -0.4324 -0.6431  0.1300
 2562SOL     OW10013   1.203   2.793   4.076  0.4607  0.3991  0.4469
 2562SOL    HW210014   1.228   2.703   4.098  0.1838  0.5267  1.3410
 2562SOL    HW310015   1.285   2.836   4.052  0.9142  0.4144  1.8966
 2562SOL    MW410016   1.217   2.787   4.076  0.4840  0.4179  0.7562
 2563SOL     OW10017   2.542   0.433   3.858  0.2298 -0.0360 -0.2288
 2563SOL    HW210018   2.498   0.363   3.810  0.0293  1.0441 -1.6637
 2563SOL    HW310019   2.591   0.387   3.926 -1.8736 -1.3923  0.4869
 2563SOL    MW410020   2.543   0.418   3.861 -0.0742 -0.0724 -0.3237
 2564SOL     OW10021   2.410   0.569   0.107 -0.2589  0.4546 -0.0149
 2564SOL    HW210022   2.340   0.591   0.169 -1.3584 -0.1685 -0.9985
 2564SOL    HW310023   2.470   0.514   0.158  0.2770  2.1054  1.2356
 2564SOL    MW410024   2.409   0.564   0.122 -0.3332  0.5902  0.0203
 2565SOL     OW10025   5.463   4.236   2.636 -0.1325  0.2736  0.1458
 2565SOL    HW210026   5.392   4.250   2.699  0.3652 -1.2790  1.1178
 2565SOL    HW310027   5.428   4.267   2.552 -1.5511  0.5249  0.8088
 2565SOL    MW410028   5.449   4.242   2.633 -0.2540  0.1019  0.3616
 2566SOL     OW10029   0.434   0.222   3.459  0.0924 -0.9120  0.0078
 2566SOL    HW210030   0.493   0.293   3.436 -0.1107 -0.4502  0.8775
 2566SOL    HW310031   0.436   0.164   3.383 -0.9649  0.8065 -1.3993
 2566SOL    MW410032   0.442   0.224   3.446 -0.0739 -0.6243 -0.0631
 2567SOL     OW10033   4.732   4.772   4.447  0.2919 -0.1488 -0.5941
 2567SOL    HW210034   4.652   4.823   4.435  0.7573  0.4382 -1.2825
 2567SOL    HW310035   4.787   4.825   4.504  0.7865  0.1443 -1.3283
 2567SOL    MW410036   4.729   4.786   4.453  0.4186 -0.0327 -0.7818
 2568SOL     OW10037   2.743   5.448   1.426  0.0018  0.2698  0.0950
 2568SOL    HW210038   2.829   5.489   1.418  0.9613 -0.9023  3.1307
 2568SOL    HW310039   2.683   5.521   1.442  0.5707  0.9892 -0.9018
 2568SOL    MW410040   2.746   5.463   1.427  0.2035  0.2100  0.3640
 2569SOL     OW10041   3.753   3.558   2.577  0.1216  0.8735 -0.1430
 2569SOL    HW210042   3.684   3.625   2.576 -0.1350  0.6060 -0.7715
 2569SOL    HW310043   3.721   3.493   2.639 -0.6230  0.3182 -1.0840
 2569SOL    MW410044   3.740   3.558   2.585 -0.0105  0.7649 -0.3501
 2570SOL     OW10045   3.288   1.539   2.304 -0.9453  0.0616 -0.3500
 2570SOL    HW210046   3.365   1.483   2.309 -0.4559  0.6504 -1.0789
 2570SOL    HW310047   3.254   1.526   2.215 -0.0016  1.9486 -1.0409
 2570SOL    MW410048   3.294   1.530   2.293 -0.7562  0.3883 -0.5373
 2571SOL     OW10049   4.700   5.501   4.102  0.1813 -0.1060  0.1838
 2571SOL    HW210050   4.685   5.593   4.124 -1.0289  0.1682 -1.5168
 2571SOL    HW310051   4.768   5.503   4.034 -1.8406 -0.1089 -2.0006
 2571SOL    MW410052   4.707   5.513   4.096 -0.2451 -0.0702 -0.3288
 2572SOL     OW10053   6.435   0.887   5.450 -0.4733 -0.4157  0.1181
 2572SOL    HW210054   6.449   0.811   5.394 -0.2630  0.8214 -1.5676
 2572SOL    HW310055   6.341   0.888   5.467 -0.6816 -0.3234 -0.9689
 2572SOL    MW410056   6.425   0.877   5.445 -0.4730 -0.2403 -0.2477
 2573SOL     OW10057   4.141   1.354   0.817 -0.1570 -0.1964 -0.1156
 2573SOL    HW210058   4.116   1.311   0.735 -2.1432  1.8996 -0.7250
 2573SOL    HW310059   4.068   1.335   0.877 -0.0930  0.6376  0.2306
 2573SOL    MW410060   4.128   1.346   0.814 -0.4106  0.1902 -0.1503
 2574SOL     OW10061   2.991   0.230   3.442  0.1657  0.4931 -0.4386
 2574SOL    HW210062   3.016   0.151   3.394  1.0862  0.5783 -0.1121
 2574SOL    HW310063   2.959   0.290   3.374 -1.8427 -0.6092 -0.5584
 2574SOL    MW410064   2.990   0.228   3.427  0.0221  0.3589 -0.4113
 2575SOL     OW10065   2.737   2.997   0.810 -0.7905  0.3999  0.2442
 2575SOL    HW210066   2.732   3.091   0.796  2.6494  0.8842  1.3464
 2575SOL    HW310067   2.763   2.987   0.902 -0.9481 -1.6008  0.1206
 2575SOL    MW410068   2.740   3.008   0.820 -0.3574  0.1999  0.3733
 2576SOL     OW10069   0.881   3.410   3.431  0.2386 -0.5154 -0.0433
 2576SOL    HW210070   0.834   3.451   3.359 -0.7467 -0.1826  0.7520
 2576SOL    HW310071   0.883   3.317   3.410  1.6221 -0.2138 -1.3895
 2576SOL    MW410072   0.875   3.403   3.419  0.2912 -0.4317 -0.1160
 2577SOL     OW10073   2.101   0.834   3.298 -0.5652  0.2628  0.6283
 2577SOL    HW210074   2.130   0.925   3.303  0.6757  0.1458 -2.3623
 2577SOL    HW310075   2.018   0.838   3.251 -0.3497 -0.1179  0.1974
 2577SOL    MW410076   2.094   0.846   3.292 -0.3730  0.1972  0.1769
 2578SOL     OW10077   2.043   5.007   4.357  0.0666  0.6904 -0.3857
 2578SOL    HW210078   1.950   5.019   4.340  0.4857 -0.1932 -4.1608
 2578SOL    HW310079   2.064   4.922   4.319  2.9935  2.3498 -2.9584
 2578SOL    MW410080   2.034   4.998   4.350  0.5081  0.7928 -1.2232
 2579SOL     OW10081   3.613   3.817   5.823 -0.5118  0.3212  0.0595
 2579SOL    HW210082   3.610   3.828   5.918  2.9585 -1.9494  0.6447
 2579SOL    HW310083   3.667   3.890   5.792 -0.8751  0.5504 -0.0313
 2579SOL    MW410084   3.620   3.828   5.831 -0.1018  0.0518  0.1247
 2580SOL     OW10085   5.237   1.376   0.858  0.3590  0.4240  0.2262
 2580SOL    HW210086   5.282   1.455   0.890  1.4273  0.3532 -1.0100
 2580SOL    HW310087   5.196   1.404   0.776  1.0942 -0.3857 -0.4376
 2580SOL    MW410088   5.238   1.390   0.851  0.5970  0.3078 -0.0245
 2581SOL     OW10089   2.990   3.005   5.737  0.0207 -0.4859  0.2539
 2581SOL    HW210090   2.933   2.984   5.811 -0.8604  1.3889  0.1623
 2581SOL    HW310091   3.023   3.093   5.757  1.3724 -0.7624 -0.6341
 2581SOL    MW410092   2.987   3.014   5.750  0.0828 -0.2751  0.1246
 2582SOL     OW10093   1.426   5.933   4.376  0.0753 -0.6748 -0.1864
 2582SOL    HW210094   1.409   5.881   4.455  0.1303  0.9607  0.9563
 2582SOL    HW310095   1.507   5.898   4.340 -0.5384 -2.1776 -0.1669
 2582SOL    MW410096   1.434   5.922   4.382  0.0016 -0.6573 -0.0331
 2583SOL     OW10097   4.345   5.129   0.938  0.2675 -0.2544  0.1679
 2583SOL    HW210098   4.305   5.053   0.982  0.6058 -0.5957 -0.1125
 2583SOL    HW310099   4.389   5.177   1.008  1.9034 -1.4824  0.0368
 2583SOL    MW410100   4.345   5.125   0.953  0.5280 -0.4615  0.1136
 2584SOL     OW10101   2.211   0.178   1.698  0.1470 -0.0981  0.1127
 2584SOL    HW210102   2.169   0.184   1.612  1.6845 -1.0735 -0.7549
 2584SOL    HW310103   2.303   0.198   1.681 -0.0340  3.1235  2.1427
 2584SOL    MW410104   2.217   0.181   1.684  0.3260  0.1983  0.2660
 2585SOL     OW10105   2.400   2.373   3.281 -0.2501 -0.1976  0.0475
 2585SOL    HW210106   2.446   2.418   3.352  2.1543 -0.3559 -1.3036
 2585SOL    HW310107   2.397   2.281   3.309  1.6082 -0.4431 -0.4259
 2585SOL    MW410108   2.406   2.367   3.294  0.3123 -0.2509 -0.1932
 2586SOL     OW10109   1.520   1.340   5.900  0.1291 -0.1809 -0.0394
 2586SOL    HW210110   1.517   1.338   5.804  0.6205  0.5326 -0.0731
 2586SOL    HW310111   1.571   1.418   5.921 -0.3621 -0.0771  0.8154
 2586SOL    MW410112   1.526   1.350   5.890  0.1291 -0.0730  0.0690
 2587SOL     OW10113   5.288   5.528   1.605  0.0301  0.1247  0.0406
 2587SOL    HW210114   5.209   5.526   1.658  0.6422  2.7697  1.1919
 2587SOL    HW310115   5.260   5.496   1.519 -2.5171  1.7043  0.1825
 2587SOL    MW410116   5.274   5.523   1.601 -0.2252  0.6821  0.2112
 2588SOL     OW10117   3.972   0.803   6.004  0.2330 -0.2990 -0.4483
 2588SOL    HW210118   3.933   0.882   5.968 -0.8107 -1.2229 -1.4359
 2588SOL    HW310119   3.920   0.785   6.083 -0.0560 -0.4210 -0.6620
 2588SOL    MW410120   3.960   0.811   6.010  0.0572 -0.4370 -0.6068
 2589SOL     OW10121   0.078   1.185   0.722 -0.0327 -0.8202 -0.0474
 2589SOL    HW210122   0.008   1.211   0.662  0.7098 -0.0628 -0.6109
 2589SOL    HW310123   0.048   1.214   0.808  0.4080  1.2884 -0.5441
 2589SOL    MW410124   0.065   1.192   0.725  0.1234 -0.4421 -0.1873
 2590SOL     OW10125   3.144   5.146   1.696  0.3334  0.5557 -0.4919
 2590SOL    HW210126   3.133   5.241   1.696  0.3505  0.5585 -0.0672
 2590SOL    HW310127   3.168   5.125   1.606 -1.0678  0.7873 -0.9285
 2590SOL    MW410128   3.146   5.156   1.684  0.1508  0.5866 -0.4935
 2591SOL     OW10129   2.004   0.861   6.169  0.3907 -0.0599 -0.3192
 2591SOL    HW210130   2.056   0.815   6.103 -0.5495  1.2112 -2.0715
 2591SOL    HW310131   2.059   0.864   6.247  1.8690 -1.0069 -1.2777
 2591SOL    MW410132   2.018   0.856   6.170  0.4617 -0.0172 -0.6769
 2592SOL     OW10133   6.019   0.543   5.659  0.3745 -0.0801  0.0083
 2592SOL    HW210134   6.102   0.574   5.694  0.4753 -0.3199 -0.0140
 2592SOL    HW310135   6.036   0.529   5.566  0.2454  0.0869 -0.0409
 2592SOL    MW410136   6.032   0.545   5.651  0.3708 -0.0897 -0.0011
 2593SOL     OW10137   3.557   1.707   5.271  0.4056 -0.5058 -0.1451
 2593SOL    HW210138   3.485   1.667   5.320  1.5401  0.9812  2.9505
 2593SOL    HW310139   3.543   1.801   5.280  0.9338 -0.1611 -2.4224
 2593SOL    MW410140   3.545   1.714   5.279  0.6250 -0.2641 -0.0371
 2594SOL     OW10141   5.107   0.774   2.135  0.6364 -0.2718 -0.2540
 2594SOL    HW210142   5.090   0.734   2.050 -1.3278 -0.4386  0.1825
 2594SOL    HW310143   5.046   0.847   2.141 -0.0907 -0.9579  1.4702
 2594SOL    MW410144   5.097   0.779   2.125  0.2813 -0.3843  0.0311
 2595SOL     OW10145   1.108   1.270   4.017  0.5254 -0.1238 -0.0119
 2595SOL    HW210146   1.083   1.329   4.088  0.2726 -0.4578  0.1788
 2595SOL    HW310147   1.086   1.183   4.049  0.4142 -0.2791 -0.4965
 2595SOL    MW410148   1.102   1.267   4.031  0.4774 -0.1883 -0.0507
 2596SOL     OW10149   4.078   3.544   2.581 -0.2740  0.2251 -0.3977
 2596SOL    HW210150   4.038   3.495   2.653 -0.4720 -0.4212 -0.9345
 2596SOL    HW310151   4.071   3.485   2.505 -0.3490  1.0195 -1.0169
 2596SOL    MW410152   4.072   3.529   2.580 -0.3100  0.2447 -0.5502
 2597SOL     OW10153   1.644   1.071   0.038  0.1130 -0.1754 -0.1513
 2597SOL    HW210154   1.603   1.115  -0.036 -1.2512  0.3754  0.8978
 2597SOL    HW310155   1.673   0.987   0.002 -0.7651 -0.0301 -1.2568
 2597SOL    MW410156   1.642   1.065   0.024 -0.1829 -0.0835 -0.1588
 2598SOL     OW10157   2.392   3.528   4.475  1.1025 -0.5200 -0.0429
 2598SOL    HW210158   2.459   3.586   4.439 -1.3170  1.6407 -1.3333
 2598SOL    HW310159   2.370   3.566   4.560 -0.2864  0.3709 -0.7680
 2598SOL    MW410160   2.398   3.540   4.482  0.6000 -0.1174 -0.3088
 2599SOL     OW10161   1.598   0.426   5.384 -0.7029 -0.9412 -0.2869
 2599SOL    HW210162   1.609   0.433   5.479 -0.0664  2.1572 -0.5047
 2599SOL    HW310163   1.598   0.332   5.368  0.6776 -1.5604  2.6028
 2599SOL    MW410164   1.599   0.414   5.395 -0.4368 -0.6141  0.0656
 2600SOL     OW10165   5.889   3.540   4.079 -0.1020 -0.5231 -0.0857
 2600SOL    HW210166   5.980   3.508   4.080 -0.0186 -0.4012 -1.4002
 2600SOL    HW310167   5.892   3.621   4.131  0.1411 -1.4604  1.4198
 2600SOL    MW410168   5.902   3.547   4.086 -0.0589 -0.6307 -0.0605
 2601SOL     OW10169   4.095   1.961   0.446  0.7053 -0.4700  0.6471
 2601SOL    HW210170   4.094   1.997   0.535 -0.2466 -0.3408  0.5959
 2601SOL    HW310171   4.157   1.889   0.450 -1.0977 -2.0331  2.0701
 2601SOL    MW410172   4.103   1.956   0.459  0.3418 -0.6592  0.8281
 2602SOL     OW10173   1.155   4.328   3.440 -0.0219  0.3025  0.6471
 2602SOL    HW210174   1.187   4.299   3.526 -1.7435 -2.4860  0.4631
 2602SOL    HW310175   1.170   4.254   3.382 -0.8538  1.3369 -0.9631
 2602SOL    MW410176   1.161   4.315   3.444 -0.3588  0.0710  0.4103
 2603SOL     OW10177   6.141   5.203   5.755  0.3540 -0.4316  0.4039
 2603SOL    HW210178   6.082   5.256   5.809  0.1129 -0.8397  0.5479
 2603SOL    HW310179   6.229   5.230   5.783  0.2386 -0.0361  0.3999
 2603SOL    MW410180   6.145   5.214   5.766  0.3070 -0.4333  0.4224
 2604SOL     OW10181   3.493   1.744   5.599 -0.4909  0.0697  0.0191
 2604SOL    HW210182   3.426   1.702   5.545  0.7131 -2.9976  0.6677
 2604SOL    HW310183   3.455   1.748   5.686 -0.6737  0.4798 -0.0804
 2604SOL    MW410184   3.479   1.739   5.603 -0.3562 -0.2809  0.0915
 2605SOL     OW10185   3.178   3.179   1.969 -0.3546  0.6150  0.5073
 2605SOL    HW210186   3.206   3.174   2.061 -0.4171 -2.1166  0.4600
 2605SOL    HW310187   3.102   3.122   1.964 -1.0673  1.6518 -1.0351
 2605SOL    MW410188   3.172   3.171   1.981 -0.4568  0.3914  0.2976
 2606SOL     OW10189   6.008   6.414   1.723 -0.7190  0.1531  0.4855
 2606SOL    HW210190   6.022   6.468   1.800  0.3704 -1.4820  1.5101
 2606SOL    HW310191   5.913   6.413   1.710 -0.7532  2.3820  0.3249
 2606SOL    MW410192   5.998   6.421   1.731 -0.5797  0.2314  0.5995
 2607SOL     OW10193   0.050   5.172   6.199 -0.1611 -0.8526 -0.3101
 2607SOL    HW210194   0.016   5.106   6.138  3.2518 -2.1630 -1.0570
 2607SOL    HW310195   0.020   5.255   6.164  2.0041 -1.4773 -4.2927
 2607SOL    MW410196   0.041   5.174   6.187  0.5748 -1.1079 -0.9341
 2608SOL     OW10197   5.513   4.745   5.477  0.2749  0.0545  0.3732
 2608SOL    HW210198   5.429   4.782   5.448  0.4530  0.0240 -0.1951
 2608SOL    HW310199   5.489   4.669   5.530 -0.0429 -0.3865 -0.3966
 2608SOL    MW410200   5.499   4.740   5.480  0.2565 -0.0077  0.1967
 2609SOL     OW10201   2.505   2.343   5.436 -0.3738 -0.5485 -0.4471
 2609SOL    HW210202   2.600   2.337   5.436 -0.4335 -2.0867  0.4867
 2609SOL    HW310203   2.484   2.377   5.523 -0.6650  0.4307 -0.8897
 2609SOL    MW410204   2.515   2.347   5.448 -0.4201 -0.6222 -0.3823
 2610SOL     OW10205   6.042   2.975   6.227  0.5071 -0.0035  0.4368
 2610SOL    HW210206   5.995   3.058   6.222  0.5969 -0.0036 -0.5724
 2610SOL    HW310207   6.024   2.943   6.315  0.0718  0.8521  0.6684
 2610SOL    MW410208   6.033   2.982   6.238  0.4615  0.1094  0.3342
 2611SOL     OW10209   0.694   3.098   0.452  0.0768 -0.1030 -0.0803
 2611SOL    HW210210   0.734   3.011   0.460 -1.0972 -0.6900 -0.2813
 2611SOL    HW310211   0.675   3.107   0.359 -0.1151  0.2139 -0.0116
 2611SOL    MW410212   0.696   3.088   0.441 -0.1034 -0.1386 -0.0978
 2612SOL     OW10213   5.565   0.118   0.198 -0.5093 -0.0568 -0.3835
 2612SOL    HW210214   5.510   0.046   0.228 -0.9327 -0.4930 -2.0928
 2612SOL    HW310215   5.654   0.093   0.224 -0.7911 -0.6541  0.0141
 2612SOL    MW410216   5.569   0.105   0.205 -0.6023 -0.1931 -0.5566
 2613SOL     OW10217   3.940   5.619   3.732  0.1839  0.5811 -0.5766
 2613SOL    HW210218   4.014   5.593   3.787  0.3814  1.7338 -0.2858
 2613SOL    HW310219   3.865   5.575   3.772  0.4620  0.6777  0.0699
 2613SOL    MW410220   3.940   5.610   3.744  0.2466  0.7459 -0.4529
 2614SOL     OW10221   3.908   0.649   2.616  0.2726 -0.2262 -0.1759
 2614SOL    HW210222   3.873   0.618   2.699 -0.0482  2.6979  0.8788
 2614SOL    HW310223   3.854   0.605   2.550  1.7585 -4.1520  0.8854
 2614SOL    MW410224   3.896   0.639   2.618  0.4263 -0.3584  0.1033
 2615SOL     OW10225   2.428   5.080   2.704 -0.6506 -0.0526 -0.1370
 2615SOL    HW210226   2.405   5.008   2.763  1.1018 -1.0349 -0.5741
 2615SOL    HW310227   2.523   5.090   2.714 -0.9088  2.6830  0.4001
 2615SOL    MW410228   2.438   5.072   2.713 -0.4535  0.1788 -0.1238
 2616SOL     OW10229   0.239   0.037   5.447  0.5994 -0.2159 -0.4129
 2616SOL    HW210230   0.180  -0.036   5.468 -1.7030  1.2022 -1.5683
 2616SOL    HW310231   0.278   0.062   5.531 -1.0513 -0.6989  0.5317
 2616SOL    MW410232   0.237   0.030   5.461  0.0778 -0.0925 -0.4407
 2617SOL     OW10233   3.360   3.883   2.869  0.2050  0.2126  0.3646
 2617SOL    HW210234   3.348   3.789   2.860  0.8527  0.1562 -0.0026
 2617SOL    HW310235   3.272   3.918   2.881 -0.2254 -0.2719 -1.1876
 2617SOL    MW410236   3.347   3.875   2.869  0.2337  0.1412  0.1114
 2618SOL     OW10237   4.135   1.258   6.283  0.7924 -0.0678 -0.3337
 2618SOL    HW210238   4.087   1.175   6.291  0.4948  0.1725  0.5614
 2618SOL    HW310239   4.104   1.310   6.358  2.0525  0.2907 -0.0406
 2618SOL    MW410240   4.125   1.254   6.294  0.9194  0.0112 -0.1769
 2619SOL     OW10241   4.327   2.220   0.689  0.2186  0.7329 -0.3337
 2619SOL    HW210242   4.374   2.296   0.656  2.4811 -0.2572  0.3821
 2619SOL    HW310243   4.358   2.148   0.634  1.5974 -0.3770  1.7377
 2619SOL    MW410244   4.338   2.220   0.678  0.6990  0.4559  0.0340
 2620SOL     OW10245   0.296   4.119   5.018 -0.2743  0.1178  0.1149
 2620SOL    HW210246   0.221   4.061   5.028 -0.2156 -0.0031 -0.1555
 2620SOL    HW310247   0.359   4.087   5.083 -0.5176  0.3217  0.4546
 2620SOL    MW410248   0.295   4.107   5.028 -0.2987  0.1288  0.1241
 2621SOL     OW10249   5.462   1.332   5.546  0.4311  0.1122 -0.1333
 2621SOL    HW210250   5.424   1.271   5.610  1.8186 -1.6071 -0.8755
 2621SOL    HW310251   5.386   1.370   5.502 -0.5038 -0.0951  1.2210
 2621SOL    MW410252   5.447   1.329   5.549  0.4908 -0.1420 -0.0526
 2622SOL     OW10253   3.611   3.736   1.969 -0.1302  0.9941 -0.1685
 2622SOL    HW210254   3.631   3.796   1.896 -0.0596  0.9481 -0.1869
 2622SOL    HW310255   3.525   3.700   1.948 -0.1479  1.0459 -0.1861
 2622SOL    MW410256   3.602   3.739   1.957 -0.1232  0.9949 -0.1733
 2623SOL     OW10257   4.005   1.582   1.708 -0.1617  0.0774 -0.1731
 2623SOL    HW210258   4.007   1.627   1.793  1.1385  0.1857 -0.2358
 2623SOL    HW310259   3.917   1.546   1.702 -0.6231  0.9994  0.7340
 2623SOL    MW410260   3.994   1.583   1.719 -0.0510  0.2133 -0.0617
 2624SOL     OW10261   2.352   2.090   3.332  0.0318 -0.3262 -0.4863
 2624SOL    HW210262   2.366   2.107   3.425 -1.0896  1.1161 -0.5505
 2624SOL    HW310263   2.435   2.053   3.302  1.0841  0.9538  0.7027
 2624SOL    MW410264   2.365   2.087   3.340  0.0227  0.0330 -0.3379
 2625SOL     OW10265   6.437   1.230   5.300 -0.0321 -0.3180  0.2779
 2625SOL    HW210266   6.498   1.242   5.228 -1.3707 -1.2390 -1.0715
 2625SOL    HW310267   6.485   1.176   5.363  0.9537  0.0083 -0.1771
 2625SOL    MW410268   6.451   1.224   5.299 -0.0787 -0.3965  0.0398
 2626SOL     OW10269   4.387   3.347   5.859 -0.4358  0.4351 -0.1468
 2626SOL    HW210270   4.448   3.398   5.807  0.0677 -0.5657 -0.5639
 2626SOL    HW310271   4.406   3.371   5.950  0.0704  0.6710 -0.3175
 2626SOL    MW410272   4.397   3.357   5.864 -0.3025  0.3342 -0.2243
 2627SOL     OW10273   3.030   3.264   1.648 -0.2662 -0.3343  0.2139
 2627SOL    HW210274   3.119   3.299   1.650 -0.0133 -0.9721  0.7958
 2627SOL    HW310275   3.041   3.170   1.634 -0.9169 -0.2400 -1.0160
 2627SOL    MW410276   3.043   3.256   1.647 -0.3187 -0.4060  0.1284
 2628SOL     OW10277   5.787   4.440   2.766  0.3976 -0.0209  0.5209
 2628SOL    HW210278   5.818   4.530   2.763 -0.4454  0.2461 -1.0535
 2628SOL    HW310279   5.695   4.447   2.790 -0.3577 -0.2324 -2.0667
 2628SOL    MW410280   5.779   4.453   2.769  0.1867 -0.0136 -0.0282
 2629SOL     OW10281   4.933   3.500   3.792  0.2225  0.2862 -0.0412
 2629SOL    HW210282   4.934   3.555   3.713  0.9852  0.0720 -0.1889
 2629SOL    HW310283   4.862   3.536   3.845 -0.8729 -0.1095 -1.2066
 2629SOL    MW410284   4.924   3.512   3.789  0.1786  0.2057 -0.2145
 2630SOL     OW10285   3.439   0.317   3.272  0.0850  0.2171  0.7264
 2630SOL    HW210286   3.501   0.389   3.287  1.3322 -0.7021  0.1360
 2630SOL    HW310287   3.364   0.339   3.327  0.2471  2.1875  0.2583
 2630SOL    MW410288   3.437   0.330   3.281  0.2710  0.3558  0.5867
 2631SOL     OW10289   2.844   3.589   2.836  0.0547 -0.0425 -0.5254
 2631SOL    HW210290   2.893   3.661   2.875  1.3165 -1.1138 -0.0427
 2631SOL    HW310291   2.863   3.514   2.892 -2.0006 -0.5646 -0.4431
 2631SOL    MW410292   2.853   3.588   2.848 -0.0500 -0.2527 -0.4509
 2632SOL     OW10293   0.692   2.264   0.646 -0.1102 -0.0798  0.5695
 2632SOL    HW210294   0.685   2.296   0.736  0.4167 -1.0278  0.9507
 2632SOL    HW310295   0.746   2.186   0.652 -0.4904 -0.4400 -0.5080
 2632SOL    MW410296   0.698   2.258   0.659 -0.0908 -0.2524  0.4776
 2633SOL     OW10297   2.899   5.138   3.621  0.0838 -0.0274  0.5002
 2633SOL    HW210298   2.824   5.107   3.569 -1.2368 -0.3690  2.4753
 2633SOL    HW310299   2.963   5.167   3.556 -1.2244 -0.9499 -1.3055
 2633SOL    MW410300   2.897   5.137   3.605 -0.2631 -0.1942  0.5226
 2634SOL     OW10301   1.950   0.184   1.928 -0.0018 -0.0924  0.8029
 2634SOL    HW210302   2.023   0.137   1.968 -0.2123  0.3583  1.7593
 2634SOL    HW310303   1.895   0.210   2.002 -1.9960 -1.7929  0.0543
 2634SOL    MW410304   1.952   0.181   1.943 -0.2927 -0.2573  0.8303
 2635SOL     OW10305   1.136   2.529   4.862  0.0025 -0.1899 -0.1160
 2635SOL    HW210306   1.074   2.477   4.912 -0.7141  0.5481 -0.2182
 2635SOL    HW310307   1.174   2.590   4.925 -0.1195  0.0336 -0.2574
 2635SOL    MW410308   1.133   2.530   4.877 -0.1081 -0.0630 -0.1481
 2636SOL     OW10309   1.149   5.199   3.506 -0.3720 -0.3298 -0.4666
 2636SOL    HW210310   1.101   5.231   3.582  0.3119 -2.4062  0.9407
 2636SOL    HW310311   1.232   5.167   3.542  0.7980  0.3835 -2.3829
 2636SOL    MW410312   1.154   5.199   3.521 -0.1274 -0.5097 -0.5337
 2637SOL     OW10313   5.627   0.389   4.387  0.2961  0.1509  0.3644
 2637SOL    HW210314   5.535   0.382   4.360  0.9701 -0.0804 -2.0967
 2637SOL    HW310315   5.639   0.482   4.407 -0.7980 -0.0499  2.1713
 2637SOL    MW410316   5.616   0.401   4.386  0.2407  0.0939  0.2781
 2638SOL     OW10317   3.875   4.496   5.678  0.6921  0.2474 -0.2277
 2638SOL    HW210318   3.802   4.554   5.701  1.3235  0.3103  1.8652
 2638SOL    HW310319   3.851   4.460   5.593 -0.5499  2.2151 -0.7797
 2638SOL    MW410320   3.862   4.499   5.670  0.6116  0.5153 -0.0244
 2639SOL     OW10321   3.728   0.683   0.962 -0.3469 -0.6055  0.7106
 2639SOL    HW210322   3.803   0.661   0.906 -0.7259 -0.2486  0.0618
 2639SOL    HW310323   3.759   0.758   1.014 -0.4798 -0.0269 -0.0359
 2639SOL    MW410324   3.742   0.690   0.962 -0.4145 -0.4821  0.5265
 2640SOL     OW10325   5.351   0.404   4.376  0.2063  1.0049  0.5691
 2640SOL    HW210326   5.332   0.479   4.320 -2.4057 -0.8285 -1.2790
 2640SOL    HW310327   5.298   0.419   4.455 -1.0862  0.7312 -0.2080
 2640SOL    MW410328   5.341   0.416   4.379 -0.3088  0.7269  0.2227
 2641SOL     OW10329   5.850   6.324   6.189 -0.1075  0.6326  0.8537
 2641SOL    HW210330   5.779   6.379   6.154 -0.0636  0.1237 -0.0760
 2641SOL    HW310331   5.806   6.262   6.247 -0.3106  0.8995  0.9841
 2641SOL    MW410332   5.835   6.323   6.192 -0.1285  0.6006  0.7482
 2642SOL     OW10333   1.121   1.899   1.085 -0.5802 -0.3592  0.7693
 2642SOL    HW210334   1.085   1.852   1.161 -1.0395  0.7895  1.2724
 2642SOL    HW310335   1.199   1.942   1.119  1.6224 -3.0789 -0.3731
 2642SOL    MW410336   1.126   1.898   1.100 -0.3502 -0.5665  0.6849
 2643SOL     OW10337   2.158   2.576   2.181 -0.0183 -0.1703  0.1677
 2643SOL    HW210338   2.139   2.499   2.236 -0.1385 -0.9695 -0.9595
 2643SOL    HW310339   2.222   2.544   2.118  1.3226  1.1645  0.8014
 2643SOL    MW410340   2.164   2.562   2.180  0.1427 -0.0996  0.1026
 2644SOL     OW10341   0.307   2.474   0.349 -0.0123  0.2097 -0.7444
 2644SOL    HW210342   0.271   2.547   0.400  1.1260 -0.7217  1.5534
 2644SOL    HW310343   0.396   2.503   0.326  0.1419 -0.1031 -0.5545
 2644SOL    MW410344   0.314   2.488   0.353  0.1582  0.0455 -0.4162
 2645SOL     OW10345   1.474   3.418   1.391  0.0224  0.2118 -0.0302
 2645SOL    HW210346   1.379   3.428   1.389 -0.1822 -1.3948  0.1781
 2645SOL    HW310347   1.489   3.325   1.372  1.4890  0.2018  0.9708
 2645SOL    MW410348   1.463   3.407   1.388  0.1889 -0.0015  0.1294
 2646SOL     OW10349   5.727   0.295   4.999 -0.2592  0.2108 -0.3669
 2646SOL    HW210350   5.798   0.238   5.031  1.1488  2.1056  0.0702
 2646SOL    HW310351   5.656   0.281   5.061  0.4169 -0.3272  0.3104
 2646SOL    MW410352   5.727   0.285   5.011  0.0158  0.3898 -0.2199
 2647SOL     OW10353   1.963   4.841   3.078 -0.4054  0.4844 -0.5280
 2647SOL    HW210354   1.968   4.756   3.122 -0.4472  0.8532  0.2175
 2647SOL    HW310355   2.018   4.831   3.001  0.1495 -0.0117 -0.0847
 2647SOL    MW410356   1.971   4.828   3.074 -0.3377  0.4676 -0.3711
 2648SOL     OW10357   0.916   5.019   5.960  0.3011  0.1577  0.3046
 2648SOL    HW210358   0.874   4.933   5.962  0.6692 -0.0231  0.3646
 2648SOL    HW310359   0.972   5.017   5.883 -1.1269  1.0466 -0.8291
 2648SOL    MW410360   0.917   5.008   5.950  0.1613  0.2511  0.1630
 2649SOL     OW10361   6.346   0.448   1.196  0.1417  0.3798  0.0911
 2649SOL    HW210362   6.388   0.416   1.276 -1.8029 -1.8207  0.3453
 2649SOL    HW310363   6.287   0.517   1.225 -0.3047 -0.1761  0.5072
 2649SOL    MW410364   6.344   0.453   1.210 -0.1738  0.0161  0.1795
 2650SOL     OW10365   4.633   0.755   3.102 -0.2561  0.5096  0.0983
 2650SOL    HW210366   4.668   0.840   3.125  1.0904  0.2489 -0.8724
 2650SOL    HW310367   4.676   0.694   3.162 -1.4880  0.5225  1.0351
 2650SOL    MW410368   4.643   0.758   3.113 -0.2410  0.4769  0.0939
 2651SOL     OW10369   0.034   2.130   6.352  0.3098 -0.4261  0.0929
 2651SOL    HW210370  -0.047   2.098   6.312 -0.7233 -1.2580  2.6727
 2651SOL    HW310371   0.031   2.225   6.341  0.0791 -0.5889 -1.6632
 2651SOL    MW410372   0.023   2.138   6.345  0.1431 -0.5574  0.2015
 2652SOL     OW10373   5.771   6.317   4.027 -0.4588 -0.1671 -0.4572
 2652SOL    HW210374   5.859   6.337   3.997 -0.2554  1.1052  0.8634
 2652SOL    HW310375   5.714   6.373   3.975 -0.3375  0.1822 -0.2173
 2652SOL    MW410376   5.775   6.327   4.016 -0.4159  0.0469 -0.2513
 2653SOL     OW10377   0.912   4.242   1.136  0.2985  0.0826 -0.2591
 2653SOL    HW210378   0.996   4.285   1.155  0.3747 -0.3237  0.3632
 2653SOL    HW310379   0.921   4.155   1.175 -0.6350  0.2504  0.3626
 2653SOL    MW410380   0.924   4.236   1.144  0.1854  0.0511 -0.0950
 2654SOL     OW10381   2.182   2.422   4.309 -0.6769 -0.5642 -0.8430
 2654SOL    HW210382   2.127   2.386   4.377 -0.4890  2.6265  1.2196
 2654SOL    HW310383   2.125   2.428   4.232 -1.5844 -2.1278 -0.3264
 2654SOL    MW410384   2.168   2.418   4.307 -0.7719 -0.3495 -0.5027
 2655SOL     OW10385   5.501   3.417   3.392  0.4662  0.1792  0.0828
 2655SOL    HW210386   5.543   3.485   3.446 -0.5581 -0.4772  1.7829
 2655SOL    HW310387   5.553   3.338   3.408  2.0019  0.5966 -2.3288
 2655SOL    MW410388   5.514   3.416   3.401  0.5336  0.1476 -0.0111
 2656SOL     OW10389   1.861   5.865   2.353 -0.5153  0.1520 -0.4326
 2656SOL    HW210390   1.948   5.890   2.322 -0.7259 -0.1428 -1.2797
 2656SOL    HW310391   1.805   5.937   2.327 -0.4516  0.5752  0.5532
 2656SOL    MW410392   1.865   5.878   2.346 -0.5347  0.1690 -0.4143
 2657SOL     OW10393   4.206   1.177   5.359 -0.4412 -0.2289  0.0168
 2657SOL    HW210394   4.174   1.104   5.412 -0.6419 -0.6874 -0.7187
 2657SOL    HW310395   4.141   1.245   5.371 -0.2319 -0.1493  0.7440
 2657SOL    MW410396   4.194   1.176   5.368 -0.4401 -0.2789  0.0157
 2658SOL     OW10397   4.778   0.533   3.213  0.3041 -0.5900 -0.1423
 2658SOL    HW210398   4.722   0.455   3.221  0.2326 -0.3753  1.7454
 2658SOL    HW310399   4.821   0.522   3.128 -2.7092 -0.6723 -1.7903
 2658SOL    MW410400   4.776   0.521   3.202 -0.1029 -0.5725 -0.1107
 2659SOL     OW10401   1.259   2.069   2.592 -0.7366  0.1564  0.8373
 2659SOL    HW210402   1.300   1.996   2.639  0.0541 -0.1317 -0.2738
 2659SOL    HW310403   1.332   2.117   2.554 -1.3279  0.8054  0.4997
 2659SOL    MW410404   1.274   2.065   2.593 -0.7103  0.2040  0.6461
 2660SOL     OW10405   5.435   4.300   3.860  0.5328  1.1341 -0.0189
 2660SOL    HW210406   5.526   4.282   3.885  0.1748  0.4509  0.8411
 2660SOL    HW310407   5.425   4.256   3.775  0.4016 -0.6665  0.8866
 2660SOL    MW410408   5.446   4.292   3.852  0.4682  0.8064  0.2140
 2661SOL     OW10409   5.797   3.903   6.249  0.2514  0.1940 -0.3062
 2661SOL    HW210410   5.825   3.895   6.340 -0.4330 -0.3965 -0.1392
 2661SOL    HW310411   5.704   3.927   6.254  0.5933  1.7491 -0.8508
 2661SOL    MW410412   5.788   3.905   6.262  0.2062  0.3212 -0.3560
 2662SOL     OW10413   2.893   3.573   3.250  0.3800 -0.4117 -0.5250
 2662SOL    HW210414   2.952   3.567   3.326  0.2207 -0.1480 -0.3764
 2662SOL    HW310415   2.813   3.612   3.286  0.0676 -0.8954 -0.7028
 2662SOL    MW410416   2.890   3.578   3.265  0.3177 -0.4407 -0.5289
 2663SOL     OW10417   6.134   5.671   0.594  0.2102  0.3884  0.2410
 2663SOL    HW210418   6.202   5.669   0.661  0.5132  1.0431 -0.0409
 2663SOL    HW310419   6.062   5.621   0.632  0.0266  1.5169  1.4454
 2663SOL    MW410420   6.133   5.664   0.608  0.2260  0.6236  0.3627
 2664SOL     OW10421   0.327   2.266   5.060  0.0768 -0.2766  0.8113
 2664SOL    HW210422   0.364   2.352   5.042 -0.7582 -0.0899 -0.0801
 2664SOL    HW310423   0.403   2.209   5.074  0.6328  0.5605  1.2192
 2664SOL    MW410424   0.342   2.270   5.059  0.0400 -0.1415  0.7475
 2665SOL     OW10425   2.275   2.151   4.664 -0.3533 -0.5647 -0.5642
 2665SOL    HW210426   2.283   2.075   4.607  0.8377  0.0737 -1.2924
 2665SOL    HW310427   2.360   2.195   4.657 -1.6513  1.9547 -1.7877
 2665SOL    MW410428   2.287   2.147   4.656 -0.3674 -0.1481 -0.8217
 2666SOL     OW10429   4.203   3.107   4.287 -0.0845 -0.4832  0.0119
 2666SOL    HW210430   4.271   3.144   4.343  0.2668 -0.9970 -0.0661
 2666SOL    HW310431   4.213   3.154   4.204 -0.5580  0.2265  0.3465
 2666SOL    MW410432   4.213   3.118   4.283 -0.1006 -0.4573  0.0458
 2667SOL     OW10433   1.833   0.353   4.070  0.2704  0.6794 -0.1313
 2667SOL    HW210434   1.784   0.377   3.991 -1.8790  0.7686  1.1705
 2667SOL    HW310435   1.824   0.428   4.128 -1.1503 -0.6616  1.5092
 2667SOL    MW410436   1.825   0.366   4.067 -0.2006  0.5142  0.2569
 2668SOL     OW10437   3.534   5.597   5.627  0.6925  0.4088  0.9205
 2668SOL    HW210438   3.548   5.521   5.570  0.6991  0.9202  0.2259
 2668SOL    HW310439   3.536   5.561   5.716  0.1636 -0.4834  0.5817
 2668SOL    MW410440   3.536   5.582   5.631  0.6236  0.3586  0.7841
 2669SOL     OW10441   2.501   4.815   0.363  0.3216 -0.0579 -0.4047
 2669SOL    HW210442   2.445   4.874   0.313  1.4536 -0.0088 -1.6782
 2669SOL    HW310443   2.445   4.741   0.385 -0.2070 -0.1207 -1.8483
 2669SOL    MW410444   2.486   4.813   0.359  0.4012 -0.0597 -0.7632
 2670SOL     OW10445   3.659   6.403   3.979  0.1328 -0.4563 -0.5153
 2670SOL    HW210446   3.616   6.404   3.894  0.4514  0.6229 -0.6716
 2670SOL    HW310447   3.619   6.474   4.028 -0.0718 -1.0895  0.2648
 2670SOL    MW410448   3.648   6.412   3.975  0.1478 -0.3975 -0.4330
 2671SOL     OW10449   4.839   4.350   0.179 -0.0117  0.0650 -0.0651
 2671SOL    HW210450   4.781   4.419   0.210 -1.0381 -1.0981  0.6741
 2671SOL    HW310451   4.863   4.300   0.257  0.3951 -0.6547 -0.6312
 2671SOL    MW410452   4.835   4.352   0.193 -0.0934 -0.1834 -0.0422
 2672SOL     OW10453   0.977   2.319   0.732  0.1157  0.4700  0.5691
 2672SOL    HW210454   0.932   2.237   0.707  2.0096 -0.5155  0.2263
 2672SOL    HW310455   1.015   2.300   0.817  0.6703  0.9461  0.4342
 2672SOL    MW410456   0.976   2.305   0.740  0.4388  0.4028  0.5061
 2673SOL     OW10457   6.269   2.978   2.326  0.2350  0.0340 -0.7312
 2673SOL    HW210458   6.336   2.932   2.275  0.7052 -0.7496  0.5340
 2673SOL    HW310459   6.214   2.908   2.362 -0.2957  0.5772 -0.4639
 2673SOL    MW410460   6.271   2.963   2.324  0.2270  0.0023 -0.5290
 2674SOL     OW10461   6.329   5.366   2.166 -0.4396  0.2844 -0.3460
 2674SOL    HW210462   6.300   5.308   2.236  0.3947  0.3243  0.0484
 2674SOL    HW310463   6.424   5.374   2.180 -0.2103  0.0597 -1.6545
 2674SOL    MW410464   6.338   5.359   2.177 -0.2993  0.2600 -0.4666
 2675SOL     OW10465   1.094   1.204   1.379 -0.6105  0.1530 -0.3358
 2675SOL    HW210466   1.180   1.164   1.387 -0.6134 -0.5321 -2.8345
 2675SOL    HW310467   1.040   1.137   1.338 -1.8392  1.1909 -0.4800
 2675SOL    MW410468   1.098   1.190   1.374 -0.7730  0.1996 -0.6845
 2676SOL     OW10469   0.900   3.176   4.184  0.3133  0.0714 -0.3095
 2676SOL    HW210470   0.887   3.242   4.252  0.9321 -0.6229  0.4974
 2676SOL    HW310471   0.977   3.128   4.212 -0.4690 -1.3828 -0.5744
 2676SOL    MW410472   0.908   3.179   4.197  0.2917 -0.2121 -0.2380
 2677SOL     OW10473   5.489   4.965   2.488 -0.3259 -0.5098 -0.7388
 2677SOL    HW210474   5.546   4.889   2.493  1.4107  0.8223  1.4537
 2677SOL    HW310475   5.532   5.024   2.426 -2.0126 -1.4402 -2.9672
 2677SOL    MW410476   5.502   4.963   2.480 -0.3193 -0.4568 -0.7435
 2678SOL     OW10477   3.608   6.017   5.356 -0.4084  0.4164 -0.1998
 2678SOL    HW210478   3.643   5.930   5.335 -0.0136  0.5576 -0.1234
 2678SOL    HW310479   3.560   6.043   5.278  1.2048  1.0175 -1.0428
 2678SOL    MW410480   3.606   6.009   5.343 -0.1435  0.5143 -0.3009
 2679SOL     OW10481   5.315   5.247   3.974  0.5450 -0.1538  0.1030
 2679SOL    HW210482   5.239   5.271   3.921  0.3832  1.5266  1.0339
 2679SOL    HW310483   5.308   5.152   3.983 -1.2051 -0.0968 -0.2045
 2679SOL    MW410484   5.304   5.237   3.968  0.2928  0.0754  0.1853
 2680SOL     OW10485   5.862   0.283   3.326  0.3828 -0.4787 -0.1160
 2680SOL    HW210486   5.901   0.245   3.405  0.0930  0.2869  0.4068
 2680SOL    HW310487   5.858   0.377   3.344 -0.3767 -0.3803 -0.7412
 2680SOL    MW410488   5.866   0.291   3.339  0.2444 -0.3647 -0.1295
 2681SOL     OW10489   2.172   4.291   4.686 -0.2456  0.3023 -0.1168
 2681SOL    HW210490   2.222   4.217   4.651  0.8358  1.2846 -0.7353
 2681SOL    HW310491   2.107   4.310   4.618  0.8219  1.1951 -0.9436
 2681SOL    MW410492   2.170   4.284   4.672  0.0379  0.5497 -0.3075
 2682SOL     OW10493   5.087   4.302   1.374 -0.2607  0.0066  0.5362
 2682SOL    HW210494   5.066   4.327   1.284  1.9985  1.4894  0.3150
 2682SOL    HW310495   5.083   4.206   1.375 -1.3263  0.0190 -0.8481
 2682SOL    MW410496   5.084   4.292   1.362 -0.1033  0.2039  0.3244
 2683SOL     OW10497   5.033   5.506   4.023  0.4018  0.2729  0.3715
 2683SOL    HW210498   5.067   5.451   4.095 -1.7906  1.6557  2.6187
 2683SOL    HW310499   5.034   5.595   4.059 -3.6134  0.6385 -0.0516
 2683SOL    MW410500   5.038   5.510   4.037 -0.4172  0.5035  0.6122
 2684SOL     OW10501   5.098   5.394   6.231  0.1797  0.4183  0.4796
 2684SOL    HW210502   5.052   5.471   6.266  2.6636  1.0194  2.7842
 2684SOL    HW310503   5.189   5.422   6.225  0.9185 -1.9128 -0.1603
 2684SOL    MW410504   5.104   5.408   6.234  0.6049  0.1901  0.6992
 2685SOL     OW10505   6.243   0.337   4.069 -0.0428  0.9818  0.2337
 2685SOL    HW210506   6.201   0.413   4.030  0.4113  1.7874  1.2686
 2685SOL    HW310507   6.171   0.278   4.090 -0.3884  1.0767 -0.6601
 2685SOL    MW410508   6.228   0.339   4.067 -0.0285  1.1006  0.2523
 2686SOL     OW10509   6.431   2.117   2.144  0.2562 -0.1495 -0.9262
 2686SOL    HW210510   6.447   2.178   2.071  1.8029  0.6419  0.0209
 2686SOL    HW310511   6.370   2.163   2.201  2.4267  1.1959  0.4619
 2686SOL    MW410512   6.425   2.131   2.142  0.7466  0.1324 -0.6181
 2687SOL     OW10513   3.316   4.173   2.568  0.2441 -0.0109  1.0826
 2687SOL    HW210514   3.288   4.199   2.656 -1.1461 -1.9511  1.2817
 2687SOL    HW310515   3.234   4.165   2.519  1.0218  1.4166 -0.5439
 2687SOL    MW410516   3.302   4.175   2.573  0.1633 -0.0786  0.8943
 2688SOL     OW10517   4.268   4.248   5.966  0.0758 -0.1700 -0.5553
 2688SOL    HW210518   4.305   4.335   5.952 -1.3055  0.3669 -1.0808
 2688SOL    HW310519   4.319   4.191   5.909  1.9259 -0.0013  0.8282
 2688SOL    MW410520   4.280   4.252   5.957  0.1377 -0.0769 -0.4421
 2689SOL     OW10521   4.257   0.295   6.366 -0.1357  0.4077  0.1832
 2689SOL    HW210522   4.246   0.216   6.419  0.9507 -0.4615 -0.8135
 2689SOL    HW310523   4.202   0.281   6.290  0.5503  0.3014 -0.3049
 2689SOL    MW410524   4.248   0.283   6.363  0.0982  0.2790 -0.0127
 2690SOL     OW10525   6.398   5.298   5.812 -0.1586 -0.1429 -0.1687
 2690SOL    HW210526   6.375   5.345   5.731 -1.3712  0.1261  0.3062
 2690SOL    HW310527   6.421   5.210   5.783 -2.4031 -0.6211 -0.6744
 2690SOL    MW410528   6.398   5.293   5.797 -0.6147 -0.1705 -0.1727
 2691SOL     OW10529   4.525   5.212   0.560  0.4838 -0.7927 -0.2388
 2691SOL    HW210530   4.604   5.161   0.580  1.5660  0.5140 -0.9800
 2691SOL    HW310531   4.539   5.295   0.606 -1.2591 -1.1291  0.9873
 2691SOL    MW410532   4.538   5.216   0.569  0.3966 -0.6647 -0.1749
 2692SOL     OW10533   5.251   4.848   5.498 -0.2268 -0.4894 -0.1921
 2692SOL    HW210534   5.206   4.764   5.502 -0.8794 -0.1397 -0.0230
 2692SOL    HW310535   5.251   4.880   5.589  0.0054 -0.3053 -0.2561
 2692SOL    MW410536   5.245   4.841   5.511 -0.2822 -0.4190 -0.1782
 2693SOL     OW10537   3.529   4.171   5.144 -0.0450 -0.2214  0.2404
 2693SOL    HW210538   3.491   4.096   5.099 -0.5743 -0.2719  0.7612
 2693SOL    HW310539   3.522   4.243   5.081  0.0787 -0.5059 -0.1026
 2693SOL    MW410540   3.523   4.170   5.130 -0.0985 -0.2656  0.2638
 2694SOL     OW10541   5.058   2.620   5.059 -0.0307 -1.0936  0.6748
 2694SOL    HW210542   5.078   2.550   4.997 -0.5352 -0.7642  0.1231
 2694SOL    HW310543   5.140   2.669   5.067 -0.0523 -0.9416 -0.0000
 2694SOL    MW410544   5.071   2.617   5.052 -0.1001 -1.0301  0.5130
 2695SOL     OW10545   4.678   5.868   1.381  0.5980  0.3046 -0.5912
 2695SOL    HW210546   4.623   5.861   1.459  1.1915 -1.3273 -0.2820
 2695SOL    HW310547   4.751   5.923   1.408  0.1440  0.8159 -0.3931
 2695SOL    MW410548   4.680   5.874   1.395  0.6164  0.1568 -0.5242
 2696SOL     OW10549   0.501   2.290   3.075 -0.2121  0.4204 -0.3948
 2696SOL    HW210550   0.521   2.204   3.038  2.5768  1.2016 -0.9049
 2696SOL    HW310551   0.489   2.347   3.000  2.5561  1.3811 -0.2351
 2696SOL    MW410552   0.502   2.286   3.060  0.5211  0.6502 -0.4410
 2697SOL     OW10553   5.121   2.040   0.080  0.2312  0.1553  0.4172
 2697SOL    HW210554   5.128   2.006   0.170  2.2537 -1.1480 -0.1739
 2697SOL    HW310555   5.036   2.008   0.049  0.3860 -1.1014  1.2131
 2697SOL    MW410556   5.111   2.031   0.088  0.5185 -0.1825  0.4442
 2698SOL     OW10557   0.351   5.044   4.308 -0.6751  0.1030  0.2069
 2698SOL    HW210558   0.366   4.951   4.290 -0.8342  0.1682 -0.2664
 2698SOL    HW310559   0.273   5.066   4.258 -0.6767  0.4788  0.3717
 2698SOL    MW410560   0.342   5.034   4.299 -0.6963  0.1612  0.1662
 2699SOL     OW10561   6.264   2.930   2.783 -0.8783 -0.2600  0.2068
 2699SOL    HW210562   6.318   2.887   2.717 -1.5449 -1.0187  0.1424
 2699SOL    HW310563   6.326   2.979   2.837 -0.1968 -0.6283 -0.2324
 2699SOL    MW410564   6.279   2.931   2.782 -0.8763 -0.4087  0.1403
 2700SOL     OW10565   3.615   6.388   4.367  0.5471 -0.3032 -0.0874
 2700SOL    HW210566   3.664   6.353   4.293 -0.0738  0.2239 -0.7584
 2700SOL    HW310567   3.681   6.435   4.419  1.5264 -2.8702  1.1570
 2700SOL    MW410568   3.630   6.390   4.364  0.5944 -0.5724 -0.0118
 2701SOL     OW10569   4.050   6.229   2.123  0.0803 -0.2665 -0.1756
 2701SOL    HW210570   4.054   6.324   2.123 -0.3070 -0.1806  2.4251
 2701SOL    HW310571   3.991   6.208   2.050 -0.0952  1.4866 -0.5888
 2701SOL    MW410572   4.043   6.239   2.113  0.0060 -0.0239  0.1130
 2702SOL     OW10573   5.751   2.335   0.135 -0.1104  0.0323  0.1146
 2702SOL    HW210574   5.734   2.321   0.228 -0.8782 -0.7583 -0.1332
 2702SOL    HW310575   5.666   2.324   0.093  0.2538  0.2322 -0.7023
 2702SOL    MW410576   5.738   2.332   0.142 -0.1636 -0.0456 -0.0258
 2703SOL     OW10577   6.289   3.762   3.637 -0.1194  0.1707  0.0010
 2703SOL    HW210578   6.194   3.765   3.644  0.0222  0.7634  2.7148
 2703SOL    HW310579   6.317   3.851   3.657  1.0688 -0.3390  0.6829
 2703SOL    MW410580   6.280   3.774   3.640  0.0561  0.1816  0.4491
 2704SOL     OW10581   4.326   4.210   0.486 -0.0980 -0.4258  0.7520
 2704SOL    HW210582   4.412   4.214   0.444 -0.2417 -2.1205  0.2280
 2704SOL    HW310583   4.340   4.251   0.572  1.3573 -1.0914  0.8679
 2704SOL    MW410584   4.339   4.216   0.492  0.0751 -0.7372  0.6981
 2705SOL     OW10585   2.036   2.663   2.601  0.2331 -0.3037 -0.1792
 2705SOL    HW210586   1.992   2.618   2.530  0.5420 -0.2923 -0.3811
 2705SOL    HW310587   1.985   2.642   2.679 -1.8361  1.9835 -0.7939
 2705SOL    MW410588   2.024   2.655   2.602  0.0009 -0.0004 -0.2869
 2706SOL     OW10589   2.281   5.519   5.277 -0.7026 -0.4871 -0.0276
 2706SOL    HW210590   2.353   5.496   5.336  0.1312 -0.0621 -0.8447
 2706SOL    HW310591   2.300   5.609   5.249 -1.0736 -0.6778 -0.9390
 2706SOL    MW410592   2.293   5.528   5.281 -0.6415 -0.4562 -0.2556
 2707SOL     OW10593   3.794   3.295   1.505 -0.5400  0.2356 -0.1851
 2707SOL    HW210594   3.749   3.379   1.512  0.3551  1.0131 -2.8353
 2707SOL    HW310595   3.724   3.230   1.519 -1.5203  1.4003  0.5018
 2707SOL    MW410596   3.779   3.297   1.508 -0.5512  0.4919 -0.4442
 2708SOL     OW10597   2.092   5.335   2.819 -0.1338 -0.0698  0.1961
 2708SOL    HW210598   2.012   5.318   2.769  1.0558  0.8872 -2.1642
 2708SOL    HW310599   2.123   5.420   2.787  1.6548 -0.2565  1.2932
 2708SOL    MW410600   2.085   5.344   2.808  0.2591  0.0318  0.0294
 2709SOL     OW10601   5.132   3.933   0.535  0.4898 -0.2234  0.1705
 2709SOL    HW210602   5.084   3.896   0.461  1.1001 -0.8088  0.0525
 2709SOL    HW310603   5.070   3.931   0.608 -0.4369  1.2723 -0.5353
 2709SOL    MW410604   5.118   3.928   0.535  0.4481 -0.1033  0.0618
 2710SOL     OW10605   0.785   4.446   0.953  0.2828 -0.2799  0.0020
 2710SOL    HW210606   0.712   4.400   0.910  0.6665 -0.3608 -0.5626
 2710SOL    HW310607   0.827   4.379   1.006  1.3261 -0.7940 -1.4342
 2710SOL    MW410608   0.781   4.431   0.954  0.4711 -0.3584 -0.2620
 2711SOL     OW10609   5.764   1.265   3.652 -0.3694 -0.1326 -0.3536
 2711SOL    HW210610   5.793   1.333   3.712  0.1720  0.8692 -1.7016
 2711SOL    HW310611   5.829   1.196   3.660  0.5531  0.6437 -0.8641
 2711SOL    MW410612   5.776   1.265   3.661 -0.1763  0.1020 -0.5988
 2712SOL     OW10613   5.737   2.348   5.654  0.2501 -0.0394 -0.7136
 2712SOL    HW210614   5.742   2.313   5.742  2.4623  0.8349 -0.4314
 2712SOL    HW310615   5.661   2.405   5.655  1.4560  1.6662  1.3361
 2712SOL    MW410616   5.728   2.351   5.665  0.7010  0.3010 -0.4059
 2713SOL     OW10617   3.019   1.477   4.677 -0.2817 -0.2426 -0.7031
 2713SOL    HW210618   2.959   1.449   4.746 -0.3677  1.2747 -0.1345
 2713SOL    HW310619   3.101   1.433   4.697 -0.7634 -1.1068 -0.5946
 2713SOL    MW410620   3.022   1.468   4.689 -0.3566 -0.1564 -0.6138
 2714SOL     OW10621   3.735   1.839   2.249  0.5147 -0.4554  0.1855
 2714SOL    HW210622   3.742   1.753   2.290 -2.9924 -1.2538 -0.5937
 2714SOL    HW310623   3.726   1.820   2.155  0.5313  0.8234 -0.0933
 2714SOL    MW410624   3.735   1.825   2.242  0.0542 -0.3920  0.0459
 2715SOL     OW10625   0.269   2.666   3.045 -0.1645 -0.7957 -0.0638
 2715SOL    HW210626   0.307   2.754   3.047 -0.3761 -0.6656 -1.2578
 2715SOL    HW310627   0.175   2.681   3.034 -0.2289 -1.1675 -0.0080
 2715SOL    MW410628   0.262   2.680   3.044 -0.2009 -0.8276 -0.2140
 2716SOL     OW10629   4.142   6.182   1.428 -0.3918 -0.0353 -0.0835
 2716SOL    HW210630   4.175   6.092   1.418  2.0438  0.8388 -0.6205
 2716SOL    HW310631   4.079   6.176   1.500 -1.1677 -2.3643 -0.8575
 2716SOL    MW410632   4.138   6.169   1.436 -0.1728 -0.2273 -0.2565
 2717SOL     OW10633   6.174   1.288   3.465 -0.0495  0.4060 -0.1690
 2717SOL    HW210634   6.095   1.234   3.464  0.1353 -0.0418  2.8531
 2717SOL    HW310635   6.165   1.344   3.387 -3.2897  0.3239  0.0243
 2717SOL    MW410636   6.162   1.288   3.454 -0.4527  0.3361  0.2553
 2718SOL     OW10637   4.963   4.552   5.744 -0.2571  0.6827  0.6111
 2718SOL    HW210638   5.032   4.538   5.679  0.1218 -0.7966  1.2903
 2718SOL    HW310639   4.883   4.519   5.703  0.2790 -1.9018  1.4591
 2718SOL    MW410640   4.962   4.546   5.730 -0.1364  0.1465  0.8126
 2719SOL     OW10641   2.397   4.895   2.166  0.4276  0.2760  0.3022
 2719SOL    HW210642   2.436   4.939   2.242  0.6288  2.7696 -1.1174
 2719SOL    HW310643   2.467   4.896   2.100 -0.1359 -0.7246 -0.3325
 2719SOL    MW410644   2.412   4.901   2.167  0.3798  0.4730  0.0312
 2720SOL     OW10645   0.850   1.635   0.038 -0.4159 -0.0436  0.0566
 2720SOL    HW210646   0.881   1.684   0.114  0.1645 -0.8301  0.3375
 2720SOL    HW310647   0.895   1.551   0.043 -0.1785 -0.0176 -1.3086
 2720SOL    MW410648   0.860   1.630   0.049 -0.3080 -0.1439 -0.0865
 2721SOL     OW10649   0.056   2.003   1.468 -0.2150 -0.3056 -0.6522
 2721SOL    HW210650   0.027   2.064   1.400 -1.3591  0.5304  0.5209
 2721SOL    HW310651   0.022   1.918   1.440 -0.4507 -0.0204 -1.2538
 2721SOL    MW410652   0.048   2.000   1.455 -0.3971 -0.1577 -0.5768
 2722SOL     OW10653   6.435   5.490   0.067 -0.0080 -0.1023 -0.1278
 2722SOL    HW210654   6.412   5.578   0.096  2.3778 -0.2422  2.7893
 2722SOL    HW310655   6.378   5.432   0.119 -0.6966 -0.3327 -1.1135
 2722SOL    MW410656   6.425   5.494   0.078  0.2159 -0.1512  0.1270
 2723SOL     OW10657   0.565   5.084   3.277  0.1016 -0.0865 -0.4344
 2723SOL    HW210658   0.558   4.995   3.313  0.6803  0.9572  2.6224
 2723SOL    HW310659   0.644   5.083   3.224  0.9938 -1.0748  0.8431
 2723SOL    MW410660   0.575   5.072   3.275  0.2957 -0.0792  0.1375
 2724SOL     OW10661   2.799   2.479   4.638 -0.4926  0.0918 -0.2012
 2724SOL    HW210662   2.835   2.433   4.714  1.6727  0.4756 -0.9008
 2724SOL    HW310663   2.759   2.411   4.585 -0.6184 -0.4125  0.5192
 2724SOL    MW410664   2.799   2.464   4.641 -0.2235  0.0759 -0.1984
 2725SOL     OW10665   3.180   5.808   6.341 -0.2847  1.0179  0.7784
 2725SOL    HW210666   3.189   5.715   6.362  1.4434  0.8376 -0.5384
 2725SOL    HW310667   3.137   5.810   6.256 -0.1232  1.4142  0.7008
 2725SOL    MW410668   3.175   5.796   6.333 -0.0354  1.0464  0.5944
 2726SOL     OW10669   1.333   2.419   0.294 -0.0132  0.1269  0.2290
 2726SOL    HW210670   1.243   2.420   0.263 -0.2852  0.4855  1.0149
 2726SOL    HW310671   1.384   2.448   0.218 -0.6202  0.5570 -0.0229
 2726SOL    MW410672   1.328   2.423   0.280 -0.1292  0.2310  0.2995
 2727SOL     OW10673   5.894   2.972   5.806 -0.2213 -0.2230  0.1777
 2727SOL    HW210674   5.876   2.984   5.713 -1.2912  0.2864  0.4244
 2727SOL    HW310675   5.968   3.029   5.824  1.1344 -1.6334 -0.6939
 2727SOL    MW410676   5.901   2.981   5.796 -0.1836 -0.3419  0.0953
 2728SOL     OW10677   3.562   5.627   4.296  0.3628  0.2765  0.3586
 2728SOL    HW210678   3.500   5.679   4.244  0.9641  1.3347  0.6726
 2728SOL    HW310679   3.641   5.623   4.241  0.3218 -0.3136  0.3395
 2728SOL    MW410680   3.565   5.633   4.282  0.4367  0.3383  0.3975
 2729SOL     OW10681   5.332   3.771   3.337 -0.4015 -0.3280 -0.6249
 2729SOL    HW210682   5.297   3.682   3.337  1.7650 -1.2813  1.3873
 2729SOL    HW310683   5.424   3.761   3.361  0.0408  2.4513 -0.7880
 2729SOL    MW410684   5.339   3.758   3.340 -0.0573 -0.0870 -0.3809
 2730SOL     OW10685   4.236   0.559   6.390  0.2734 -0.4343  0.0638
 2730SOL    HW210686   4.255   0.466   6.392  3.4940  0.1322  1.6284
 2730SOL    HW310687   4.246   0.584   6.298 -1.1644 -1.6338 -0.4698
 2730SOL    MW410688   4.240   0.550   6.378  0.5086 -0.5178  0.1998
 2731SOL     OW10689   0.315   6.018   0.006 -0.5759 -0.4552  0.3443
 2731SOL    HW210690   0.305   6.053   0.094 -0.7134  0.1040  0.1074
 2731SOL    HW310691   0.270   5.933   0.009 -3.4445  0.9285 -0.0375
 2731SOL    MW410692   0.308   6.011   0.018 -0.9725 -0.1988  0.2627
 2732SOL     OW10693   5.158   5.089   1.076 -0.7219 -0.5953  0.6119
 2732SOL    HW210694   5.175   5.101   0.983 -0.0473  2.2319  1.0073
 2732SOL    HW310695   5.111   5.005   1.082 -0.8362 -0.8116 -2.2400
 2732SOL    MW410696   5.154   5.079   1.065 -0.6480 -0.2508  0.2878
 2733SOL     OW10697   4.012   2.865   1.440 -0.0492 -0.1792  0.1449
 2733SOL    HW210698   4.068   2.941   1.455 -0.7824  0.4495 -0.2590
 2733SOL    HW310699   4.073   2.795   1.418  0.8592 -0.3774  2.8955
 2733SOL    MW410700   4.028   2.866   1.440 -0.0261 -0.1224  0.4545
 2734SOL     OW10701   0.274   1.256   5.946  0.4646 -0.0653 -0.2741
 2734SOL    HW210702   0.309   1.322   5.886 -0.7670 -0.3402 -1.3419
 2734SOL    HW310703   0.347   1.196   5.961  1.6056  1.4934  0.7084
 2734SOL    MW410704   0.288   1.257   5.940  0.4527  0.1041 -0.2853
 2735SOL     OW10705   4.068   5.359   1.951 -0.1226 -0.1636  0.1268
 2735SOL    HW210706   3.998   5.305   1.917  0.5213 -0.2890 -1.0663
 2735SOL    HW310707   4.048   5.447   1.920 -0.2776 -0.0102  0.6450
 2735SOL    MW410708   4.056   5.364   1.942 -0.0581 -0.1599  0.0378
 2736SOL     OW10709   3.654   0.558   4.332 -0.2608 -0.1146  0.3905
 2736SOL    HW210710   3.578   0.596   4.286 -1.7158 -3.8778 -0.7030
 2736SOL    HW310711   3.622   0.540   4.420 -1.1829 -2.6186 -0.3443
 2736SOL    MW410712   3.639   0.561   4.337 -0.5744 -0.9415  0.1493
 2737SOL     OW10713   0.270   5.764   5.451 -0.0496 -0.0192  0.0172
 2737SOL    HW210714   0.309   5.818   5.383 -0.7817  1.3092  0.5963
 2737SOL    HW310715   0.314   5.792   5.532  0.1304 -0.8786  0.2268
 2737SOL    MW410716   0.281   5.775   5.453 -0.1224  0.0427  0.1213
 2738SOL     OW10717   3.106   1.761   6.130  0.2295 -0.2037  0.3069
 2738SOL    HW210718   3.173   1.694   6.142 -1.1120 -1.3094  2.1787
 2738SOL    HW310719   3.156   1.840   6.108  1.9602 -1.4352 -0.4612
 2738SOL    MW410720   3.122   1.763   6.129  0.2809 -0.5121  0.4525
 2739SOL     OW10721   1.746   6.339   1.311 -0.3155 -0.5118 -0.7592
 2739SOL    HW210722   1.837   6.331   1.284  0.3384 -0.3711  1.2686
 2739SOL    HW310723   1.720   6.251   1.338 -0.3460 -0.3018 -0.0781
 2739SOL    MW410724   1.754   6.326   1.311 -0.2333 -0.4655 -0.4018
 2740SOL     OW10725   1.446   5.218   4.219  0.1583 -0.2848 -0.8889
 2740SOL    HW210726   1.402   5.302   4.234 -0.8375 -0.7052 -1.3196
 2740SOL    HW310727   1.422   5.164   4.294  3.4735  0.7797  1.1428
 2740SOL    MW410728   1.437   5.222   4.231  0.4643 -0.1998 -0.6776
 2741SOL     OW10729   4.295   0.424   4.077  0.1318 -0.8379  0.0750
 2741SOL    HW210730   4.258   0.505   4.114  0.4765 -1.3045  1.4915
 2741SOL    HW310731   4.325   0.449   3.989 -0.7745  0.2920  0.0657
 2741SOL    MW410732   4.294   0.438   4.070  0.0577 -0.7504  0.2607
 2742SOL     OW10733   5.859   2.508   0.771 -0.1960 -0.0539  0.1222
 2742SOL    HW210734   5.797   2.458   0.719  0.0884  0.4224 -0.6952
 2742SOL    HW310735   5.945   2.487   0.733 -0.0474  0.8056 -0.0355
 2742SOL    MW410736   5.862   2.499   0.759 -0.1389  0.1223 -0.0065
 2743SOL     OW10737   3.306   6.121   4.907  0.4155 -0.3528 -0.4889
 2743SOL    HW210738   3.211   6.109   4.899  0.3914  0.4001 -1.6515
 2743SOL    HW310739   3.343   6.046   4.862  0.3337  0.2568 -1.6140
 2743SOL    MW410740   3.298   6.110   4.900  0.4016 -0.1730 -0.7907
 2744SOL     OW10741   3.324   4.581   1.135  0.4785  0.0019  0.1711
 2744SOL    HW210742   3.229   4.567   1.140  0.6926 -3.7794 -2.1538
 2744SOL    HW310743   3.359   4.534   1.210  0.5804 -1.1602 -0.5749
 2744SOL    MW410744   3.316   4.573   1.146  0.5202 -0.6504 -0.2341
 2745SOL     OW10745   3.761   1.160   4.298  0.4163 -0.3414 -0.0103
 2745SOL    HW210746   3.836   1.161   4.357 -0.4986 -0.6543  1.1878
 2745SOL    HW310747   3.798   1.183   4.213  1.4306  2.2353  1.0357
 2745SOL    MW410748   3.776   1.163   4.294  0.4294 -0.0427  0.2858
 2746SOL     OW10749   6.322   4.319   0.946 -0.4644 -0.1990 -0.5336
 2746SOL    HW210750   6.359   4.402   0.916 -1.8347 -0.0041 -1.8021
 2746SOL    HW310751   6.281   4.341   1.030  0.1912  0.1297 -0.2930
 2746SOL    MW410752   6.321   4.333   0.953 -0.5587 -0.1299 -0.6693
 2747SOL     OW10753   5.687   2.877   2.920 -0.3187  0.3564  0.1974
 2747SOL    HW210754   5.610   2.836   2.880 -0.5295 -1.8134  2.5616
 2747SOL    HW310755   5.749   2.805   2.933 -0.0409  1.0084  3.0631
 2747SOL    MW410756   5.685   2.862   2.917 -0.3098  0.1562  0.8875
 2748SOL     OW10757   4.759   2.951   5.202  0.1829  0.2804 -0.6301
 2748SOL    HW210758   4.794   3.034   5.236  0.8292 -0.2176 -0.0415
 2748SOL    HW310759   4.699   2.921   5.270  1.2211 -0.5516 -0.0408
 2748SOL    MW410760   4.756   2.958   5.216  0.4052  0.1049 -0.4747
 2749SOL     OW10761   5.087   5.074   3.476  0.0055  0.0291 -0.2643
 2749SOL    HW210762   5.002   5.033   3.495 -0.3126 -0.3037 -2.1755
 2749SOL    HW310763   5.075   5.165   3.500 -0.6769 -0.1520  0.1167
 2749SOL    MW410764   5.074   5.080   3.481 -0.1265 -0.0387 -0.4662
 2750SOL     OW10765   0.134   3.222   2.648 -0.1003 -0.0551  0.0534
 2750SOL    HW210766   0.183   3.229   2.567  0.5653 -0.4433  0.4153
 2750SOL    HW310767   0.051   3.181   2.623  0.2987 -0.6191 -0.3456
 2750SOL    MW410768   0.129   3.218   2.634  0.0402 -0.1807  0.0485
 2751SOL     OW10769   4.718   1.571   4.279  0.6640 -0.0289  0.4901
 2751SOL    HW210770   4.690   1.657   4.246 -1.6948 -1.0020 -0.2815
 2751SOL    HW310771   4.785   1.542   4.218 -0.2124  0.2894 -0.6728
 2751SOL    MW410772   4.723   1.579   4.267  0.2371 -0.1153  0.2349
 2752SOL     OW10773   1.377   4.045   3.863  0.8518  0.5553 -0.4852
 2752SOL    HW210774   1.318   4.081   3.797  0.6303 -0.1090 -0.6545
 2752SOL    HW310775   1.410   3.964   3.825  0.6141  0.0917  0.2770
 2752SOL    MW410776   1.374   4.039   3.850  0.7912  0.4065 -0.4069
 2753SOL     OW10777   1.964   4.364   4.084 -0.5407 -0.0639  0.1273
 2753SOL    HW210778   1.978   4.450   4.045  0.1926 -0.3789 -0.3250
 2753SOL    HW310779   1.896   4.378   4.150 -1.0850  0.6720 -0.5774
 2753SOL    MW410780   1.957   4.377   4.088 -0.5157 -0.0084 -0.0254
 2754SOL     OW10781   2.023   4.316   4.446 -0.2601 -0.2405 -0.0206
 2754SOL    HW210782   2.016   4.241   4.386 -1.8984 -0.3169  0.2423
 2754SOL    HW310783   1.939   4.361   4.439  0.6804  1.5950 -0.1605
 2754SOL    MW410784   2.011   4.312   4.437 -0.3522 -0.0084 -0.0044
 2755SOL     OW10785   2.339   3.120   1.884 -0.1802  0.1203 -0.4962
 2755SOL    HW210786   2.251   3.088   1.862  0.1419  0.0819 -1.8609
 2755SOL    HW310787   2.380   3.048   1.931 -1.0015  0.2775  0.4826
 2755SOL    MW410788   2.333   3.106   1.887 -0.2461  0.1360 -0.5471
 2756SOL     OW10789   6.176   0.930   5.993 -0.1317  0.1925 -0.7557
 2756SOL    HW210790   6.247   0.926   5.929 -2.9854 -1.6479 -4.1892
 2756SOL    HW310791   6.113   0.992   5.954 -0.9861  0.8757  1.5537
 2756SOL    MW410792   6.177   0.938   5.979 -0.6209  0.0398 -0.9040
 2757SOL     OW10793   2.984   0.061   0.354 -0.1535  0.0555  0.2984
 2757SOL    HW210794   2.906   0.028   0.310 -0.1050  0.1261  0.1577
 2757SOL    HW310795   2.979   0.025   0.442 -0.8994  0.9128  0.6202
 2757SOL    MW410796   2.973   0.052   0.360 -0.2455  0.1779  0.3223
 2758SOL     OW10797   1.755   3.557   2.928  0.2137 -0.1919 -0.8091
 2758SOL    HW210798   1.737   3.473   2.970  1.9227 -0.4500 -0.4941
 2758SOL    HW310799   1.696   3.619   2.970 -0.8729 -1.1743 -0.8454
 2758SOL    MW410800   1.745   3.554   2.939  0.2958 -0.3555 -0.7723
 2759SOL     OW10801   2.019   2.655   1.730 -0.2740  0.3273 -0.0784
 2759SOL    HW210802   1.934   2.695   1.710 -0.3898  0.3027  0.3516
 2759SOL    HW310803   2.061   2.718   1.789 -0.5596 -0.2886  0.8077
 2759SOL    MW410804   2.013   2.669   1.735 -0.3269  0.2428  0.0952
 2760SOL     OW10805   4.815   3.012   5.760  0.0061 -0.3028  0.2178
 2760SOL    HW210806   4.744   3.039   5.702  0.6604  0.5180 -0.2370
 2760SOL    HW310807   4.794   3.052   5.844 -1.1393 -1.8031  0.6803
 2760SOL    MW410808   4.803   3.021   5.764 -0.0587 -0.3925  0.2188
 2761SOL     OW10809   0.469   4.898   6.096 -0.0508  0.0341  0.8963
 2761SOL    HW210810   0.376   4.911   6.113 -0.0188  0.2154  0.9333
 2761SOL    HW310811   0.511   4.978   6.126  0.0306  0.2741  0.1673
 2761SOL    MW410812   0.463   4.910   6.102 -0.0359  0.0897  0.8050
 2762SOL     OW10813   0.097   4.849   2.514  0.1734 -0.1900 -0.1423
 2762SOL    HW210814   0.152   4.814   2.584  0.6179 -0.0791 -0.4334
 2762SOL    HW310815   0.026   4.786   2.506  0.7624 -0.8287 -0.4016
 2762SOL    MW410816   0.095   4.836   2.523  0.3098 -0.2596 -0.2149
 2763SOL     OW10817   0.054   6.377   1.803  0.3221  0.2524 -0.5976
 2763SOL    HW210818   0.097   6.297   1.835 -1.0158 -0.4268 -0.4177
 2763SOL    HW310819   0.050   6.365   1.708  1.6673  0.9241 -0.7629
 2763SOL    MW410820   0.059   6.365   1.795  0.3231  0.2514 -0.5957
 2764SOL     OW10821   0.566   3.651   2.188 -0.5419 -0.0019  0.0798
 2764SOL    HW210822   0.620   3.585   2.232  0.3244  0.8838  0.3730
 2764SOL    HW310823   0.547   3.716   2.255 -0.8530  0.3681 -0.3623
 2764SOL    MW410824   0.571   3.651   2.202 -0.4686  0.1638  0.0601
 2765SOL     OW10825   4.633   0.281   1.238 -0.2425 -0.1647 -0.0170
 2765SOL    HW210826   4.630   0.306   1.330  0.2736 -1.1838  0.2874
 2765SOL    HW310827   4.639   0.186   1.238 -1.2689 -0.2528 -1.1356
 2765SOL    MW410828   4.633   0.272   1.250 -0.3098 -0.3108 -0.1244
 2766SOL     OW10829   2.125   4.848   3.953 -0.3210 -0.8363 -0.8047
 2766SOL    HW210830   2.174   4.766   3.948 -0.1536 -0.7295 -0.9180
 2766SOL    HW310831   2.120   4.879   3.863 -1.1186 -1.1515 -0.8759
 2766SOL    MW410832   2.131   4.842   3.941 -0.4042 -0.8638 -0.8290
 2767SOL     OW10833   2.827   4.816   0.508  0.2515 -0.4088  0.4344
 2767SOL    HW210834   2.899   4.876   0.490 -0.4658  1.1338  2.3617
 2767SOL    HW310835   2.842   4.787   0.598 -1.3110 -0.3099  0.7575
 2767SOL    MW410836   2.838   4.820   0.518 -0.0493 -0.1922  0.7313
 2768SOL     OW10837   0.814   5.045   3.175  0.3553 -0.1978 -0.1127
 2768SOL    HW210838   0.831   4.956   3.144  1.4625 -0.1972  0.4250
 2768SOL    HW310839   0.845   5.045   3.266  0.0239  0.6409  0.0143
 2768SOL    MW410840   0.820   5.033   3.183  0.4576 -0.0870 -0.0250
 2769SOL     OW10841   6.106   1.604   5.341 -0.0245  0.0869 -0.1591
 2769SOL    HW210842   6.074   1.526   5.387  0.5754 -0.2102 -0.2383
 2769SOL    HW310843   6.169   1.643   5.402  1.5547 -0.8755 -1.1200
 2769SOL    MW410844   6.110   1.599   5.355  0.2630 -0.0793 -0.2963
 2770SOL     OW10845   4.326   2.268   1.378  0.7469 -0.1555  0.4095
 2770SOL    HW210846   4.279   2.185   1.371  0.7916 -0.3570  2.0363
 2770SOL    HW310847   4.418   2.245   1.363  0.4909  0.0732 -1.7741
 2770SOL    MW410848   4.332   2.254   1.375  0.7190 -0.1520  0.3361
 2771SOL     OW10849   4.587   1.477   3.614  0.2256 -0.3354 -0.2040
 2771SOL    HW210850   4.550   1.562   3.592  0.5550  0.0230  0.5554
 2771SOL    HW310851   4.514   1.416   3.606 -0.0394  0.0336 -0.6568
 2771SOL    MW410852   4.573   1.480   3.610  0.2341 -0.2394 -0.1635
 2772SOL     OW10853   0.215   4.831   4.845  0.1145  0.4859 -0.1820
 2772SOL    HW210854   0.196   4.905   4.903 -0.7097  0.5395 -0.5172
 2772SOL    HW310855   0.228   4.871   4.759  0.7475  0.3416 -0.1611
 2772SOL    MW410856   0.214   4.846   4.841  0.0893  0.4739 -0.2235
 2773SOL     OW10857   0.887   1.559   3.156 -0.5266 -0.0550  0.4626
 2773SOL    HW210858   0.848   1.624   3.214 -0.3516  0.2195  0.2771
 2773SOL    HW310859   0.820   1.544   3.088 -0.3898  0.2684  0.2544
 2773SOL    MW410860   0.873   1.565   3.155 -0.4855  0.0239  0.4106
 2774SOL     OW10861   4.822   1.009   6.393  0.1682  0.0381  0.1175
 2774SOL    HW210862   4.864   1.029   6.477 -0.8881  0.3034  0.6059
 2774SOL    HW310863   4.866   0.930   6.362 -1.7496 -2.2660  2.7127
 2774SOL    MW410864   4.833   1.001   6.400 -0.2242 -0.2309  0.5243
 2775SOL     OW10865   5.778   2.681   3.768  0.4544  0.5748  0.0264
 2775SOL    HW210866   5.704   2.636   3.727  1.3562 -0.7064 -0.2724
 2775SOL    HW310867   5.806   2.746   3.703  1.1807 -0.6987 -1.0020
 2775SOL    MW410868   5.772   2.684   3.754  0.6692  0.2377 -0.1487
 2776SOL     OW10869   2.140   1.277   2.580 -0.4103  0.3483  0.2923
 2776SOL    HW210870   2.077   1.336   2.538 -0.8640 -1.0242 -1.0322
 2776SOL    HW310871   2.085   1.213   2.625  0.0400 -0.6104 -0.5084
 2776SOL    MW410872   2.124   1.276   2.580 -0.4107  0.0408  0.0119
 2777SOL     OW10873   2.375   2.057   5.556 -0.0945  0.4774 -0.4097
 2777SOL    HW210874   2.314   2.128   5.536  1.1074  0.9791 -2.5989
 2777SOL    HW310875   2.447   2.068   5.494  1.9853 -0.4494  1.6493
 2777SOL    MW410876   2.377   2.068   5.545  0.3385  0.4213 -0.4269
 2778SOL     OW10877   1.201   3.322   5.927  0.1552 -0.6808  0.3835
 2778SOL    HW210878   1.227   3.242   5.882  0.4440 -0.6197  0.4343
 2778SOL    HW310879   1.238   3.313   6.015  2.7344  0.7486 -0.4423
 2778SOL    MW410880   1.209   3.310   5.933  0.5336 -0.4841  0.2812
 2779SOL     OW10881   1.926   4.112   0.630  0.5090 -0.0933 -0.0764
 2779SOL    HW210882   1.898   4.196   0.594 -1.2572 -0.7014 -0.2267
 2779SOL    HW310883   1.851   4.054   0.616  1.9824 -1.9381 -0.7438
 2779SOL    MW410884   1.912   4.115   0.623  0.4704 -0.4169 -0.1843
 2780SOL     OW10885   4.570   6.015   0.874  0.0526 -0.2527 -0.3789
 2780SOL    HW210886   4.576   6.111   0.879  0.3319 -0.2506 -0.6725
 2780SOL    HW310887   4.660   5.987   0.855 -0.0304 -0.5726 -0.3017
 2780SOL    MW410888   4.583   6.024   0.872  0.0785 -0.2946 -0.4074
 2781SOL     OW10889   1.359   0.546   6.357 -0.1003 -0.3859 -0.3179
 2781SOL    HW210890   1.439   0.544   6.410  0.2862  1.5525 -0.7450
 2781SOL    HW310891   1.373   0.620   6.297 -1.8393 -0.5833 -1.0015
 2781SOL    MW410892   1.372   0.556   6.356 -0.2787 -0.1562 -0.4644
 2782SOL     OW10893   1.482   3.337   4.954 -0.1730  0.1621 -0.4740
 2782SOL    HW210894   1.410   3.342   5.018 -0.8726 -0.7090 -1.1661
 2782SOL    HW310895   1.487   3.426   4.919 -0.0682  0.5444  0.4762
 2782SOL    MW410896   1.473   3.350   4.958 -0.2515  0.0976 -0.4400
 2783SOL     OW10897   3.423   2.780   4.653 -0.0861 -0.2207  0.6829
 2783SOL    HW210898   3.487   2.816   4.591 -0.6538  1.3797  0.9797
 2783SOL    HW310899   3.472   2.713   4.702  0.6899 -0.6661 -0.6617
 2783SOL    MW410900   3.438   2.776   4.652 -0.0586 -0.0683  0.5446
 2784SOL     OW10901   2.507   0.607   2.052  0.3217  0.1145 -0.1323
 2784SOL    HW210902   2.469   0.525   2.081  0.7070 -0.6150 -1.5455
 2784SOL    HW310903   2.585   0.618   2.106 -0.0788 -0.1124  0.4971
 2784SOL    MW410904   2.513   0.598   2.063  0.3197 -0.0117 -0.2357
 2785SOL     OW10905   3.559   4.145   3.080 -0.0239  0.3112 -0.0410
 2785SOL    HW210906   3.522   4.216   3.132  2.9037  0.6444  1.8021
 2785SOL    HW310907   3.560   4.179   2.991 -0.7622  1.6855  0.4426
 2785SOL    MW410908   3.554   4.159   3.075  0.2649  0.5365  0.2660
 2786SOL     OW10909   0.114   6.260   0.469  0.4324  0.2798  0.2517
 2786SOL    HW210910   0.093   6.214   0.387 -1.9582  0.8073  0.4880
 2786SOL    HW310911   0.133   6.191   0.532 -0.5336 -0.2923 -0.0652
 2786SOL    MW410912   0.114   6.245   0.466 -0.0105  0.2739  0.2411
 2787SOL     OW10913   3.959   5.907   4.201  0.0710 -0.2199 -0.9497
 2787SOL    HW210914   3.955   5.965   4.276 -0.9976 -0.2993 -0.9270
 2787SOL    HW310915   4.030   5.942   4.147  1.2469 -0.5050  0.3570
 2787SOL    MW410916   3.968   5.919   4.204  0.0852 -0.2680 -0.7743
 2788SOL     OW10917   2.526   0.333   0.741 -0.1958 -0.0985  0.2962
 2788SOL    HW210918   2.580   0.377   0.675 -0.4147 -1.5008 -0.8842
 2788SOL    HW310919   2.436   0.359   0.720 -0.2525 -0.4302  0.1128
 2788SOL    MW410920   2.521   0.342   0.729 -0.2322 -0.3273  0.1163
 2789SOL     OW10921   4.595   2.630   3.122  0.1067 -0.1467  0.2084
 2789SOL    HW210922   4.645   2.550   3.137  2.7160  1.7656  2.7420
 2789SOL    HW310923   4.659   2.700   3.126 -2.5188  2.4040  2.0137
 2789SOL    MW410924   4.610   2.629   3.124  0.1046  0.4421  0.7809
 2790SOL     OW10925   4.955   3.548   1.221 -0.0674  0.6343  0.6587
 2790SOL    HW210926   4.989   3.459   1.218  0.2417  0.7716 -0.2233
 2790SOL    HW310927   5.027   3.600   1.256 -0.2204  0.5617  1.0966
 2790SOL    MW410928   4.969   3.543   1.225 -0.0468  0.6428  0.6001
 2791SOL     OW10929   5.987   3.550   3.766  0.5753 -0.1705 -0.2387
 2791SOL    HW210930   5.933   3.534   3.843  0.0521  1.6919 -0.1720
 2791SOL    HW310931   5.937   3.513   3.693  1.3834 -2.5526  0.3334
 2791SOL    MW410932   5.974   3.543   3.766  0.6129 -0.2391 -0.1544
 2792SOL     OW10933   5.214   0.603   4.954 -0.5540 -0.2591  0.0005
 2792SOL    HW210934   5.303   0.605   4.989  0.1764  0.7474 -1.7646
 2792SOL    HW310935   5.166   0.668   5.006 -0.2915 -0.8630  1.0125
 2792SOL    MW410936   5.219   0.612   4.965 -0.4230 -0.2060 -0.0989
 2793SOL     OW10937   0.378   5.881   3.554  0.2229  0.2470  0.3354
 2793SOL    HW210938   0.353   5.922   3.471 -0.2503 -2.0873 -0.7591
 2793SOL    HW310939   0.355   5.946   3.621 -1.7499  1.2237 -1.1813
 2793SOL    MW410940   0.372   5.895   3.552 -0.0998  0.0679 -0.0091
 2794SOL     OW10941   0.525   2.013   2.970 -0.1432  0.4943 -1.2767
 2794SOL    HW210942   0.582   2.012   2.893 -0.3097 -0.0211 -1.3968
 2794SOL    HW310943   0.444   1.971   2.941  0.6174 -1.9003 -0.2373
 2794SOL    MW410944   0.522   2.007   2.956 -0.0649  0.1104 -1.1554
 2795SOL     OW10945   5.492   2.195   2.338  0.1492 -0.1611  0.0445
 2795SOL    HW210946   5.496   2.215   2.244 -0.9928 -0.3253 -0.0541
 2795SOL    HW310947   5.399   2.178   2.355  0.4084 -0.5945  1.1124
 2795SOL    MW410948   5.480   2.195   2.328  0.0327 -0.2400  0.1724
 2796SOL     OW10949   2.688   0.591   5.746 -0.3305  0.2487 -0.0202
 2796SOL    HW210950   2.603   0.573   5.785 -0.4255 -2.0796 -1.1659
 2796SOL    HW310951   2.712   0.511   5.700  1.8287  1.3317 -0.9643
 2796SOL    MW410952   2.680   0.578   5.745 -0.0582  0.0844 -0.2959
 2797SOL     OW10953   2.225   0.087   5.559 -0.2311  0.1134  0.4240
 2797SOL    HW210954   2.256  -0.003   5.548  2.6624  1.0230  0.4126
 2797SOL    HW310955   2.180   0.107   5.477  1.7637 -0.3696 -0.8509
 2797SOL    MW410956   2.223   0.077   5.547  0.4138  0.1696  0.2543
 2798SOL     OW10957   2.960   1.887   6.310 -0.0701  0.4683  0.1786
 2798SOL    HW210958   3.016   1.844   6.246  0.1155 -0.5734  1.0049
 2798SOL    HW310959   2.948   1.822   6.380 -0.4330  1.4840  1.1054
 2798SOL    MW410960   2.965   1.873   6.311 -0.0935  0.4649  0.4099
 2799SOL     OW10961   0.465   2.769   0.347  0.0838  0.2643 -0.4131
 2799SOL    HW210962   0.532   2.771   0.279  0.4291  1.5521 -0.0609
 2799SOL    HW310963   0.514   2.763   0.429 -0.3091 -0.6221 -0.2281
 2799SOL    MW410964   0.480   2.769   0.349  0.0776  0.3173 -0.3422
 2800SOL     OW10965   5.956   4.623   5.404  0.2235 -0.1462 -0.4777
 2800SOL    HW210966   5.888   4.605   5.339  0.6080 -0.6521 -0.7488
 2800SOL    HW310967   6.013   4.688   5.361 -0.9368  1.4814  0.3445
 2800SOL    MW410968   5.955   4.629   5.390  0.1211  0.0018 -0.4049
 2801SOL     OW10969   0.604   5.304   3.445  0.4514  0.6743 -0.0468
 2801SOL    HW210970   0.635   5.370   3.384  1.2137  1.4425  1.1371
 2801SOL    HW310971   0.595   5.224   3.392  3.4793  0.6574 -0.6872
 2801SOL    MW410972   0.607   5.302   3.430  0.9515  0.7734  0.0249
 2802SOL     OW10973   4.997   5.644   4.448  0.4050 -0.3775  0.0601
 2802SOL    HW210974   5.087   5.660   4.474  0.1764 -1.5131  1.6298
 2802SOL    HW310975   4.944   5.684   4.517 -0.2765 -0.9668 -0.1104
 2802SOL    MW410976   5.002   5.652   4.460  0.2849 -0.6051  0.2447
 2803SOL     OW10977   1.503   3.060   2.084  0.2067 -0.9086 -0.0616
 2803SOL    HW210978   1.550   3.133   2.043  0.2105 -1.1986 -0.5769
 2803SOL    HW310979   1.572   3.007   2.124  0.3857 -1.5851 -1.2126
 2803SOL    MW410980   1.518   3.063   2.084  0.2308 -1.0361 -0.2814
 2804SOL     OW10981   5.188   2.178   5.574 -0.1440  0.2963  0.3087
 2804SOL    HW210982   5.265   2.174   5.518  0.2245 -0.6526  0.8447
 2804SOL    HW310983   5.217   2.224   5.652 -0.2793  0.4445  0.2714
 2804SOL    MW410984   5.202   2.183   5.577 -0.1132  0.1907  0.3745
 2805SOL     OW10985   1.385   5.153   1.745 -0.3554 -0.1336 -0.2659
 2805SOL    HW210986   1.386   5.088   1.674  1.3259  0.2135 -0.6178
 2805SOL    HW310987   1.298   5.145   1.784 -0.7168 -1.5361 -1.2691
 2805SOL    MW410988   1.374   5.143   1.741 -0.1813 -0.2729 -0.4447
 2806SOL     OW10989   1.666   0.325   0.625 -0.5443  0.4543 -0.5800
 2806SOL    HW210990   1.616   0.314   0.706 -1.0418  0.7961 -0.8368
 2806SOL    HW310991   1.612   0.382   0.571  0.5538  1.6462 -0.4855
 2806SOL    MW410992   1.653   0.331   0.629 -0.4651  0.6566 -0.6014
 2807SOL     OW10993   5.953   1.850   1.883  0.0388  0.1137 -0.5989
 2807SOL    HW210994   6.013   1.910   1.928 -0.1112  0.3915 -0.7628
 2807SOL    HW310995   5.885   1.908   1.847  0.7448  0.0182 -2.1290
 2807SOL    MW410996   5.952   1.866   1.884  0.1122  0.1377 -0.8224
 2808SOL     OW10997   6.202   0.671   2.141  0.1006 -0.3895 -0.3634
 2808SOL    HW210998   6.218   0.685   2.047 -0.1470 -0.7987 -0.4713
 2808SOL    HW310999   6.184   0.577   2.148 -0.6446 -0.2281 -0.0149
 2808SOL    MW411000   6.201   0.660   2.129 -0.0304 -0.4222 -0.3317
 2809SOL     OW11001   3.677   3.904   1.737 -0.5050 -0.3110 -0.6363
 2809SOL    HW211002   3.745   3.924   1.672 -1.2850 -0.3881 -1.5062
 2809SOL    HW311003   3.616   3.978   1.730 -1.1450 -0.8370 -0.7636
 2809SOL    MW411004   3.678   3.917   1.727 -0.6923 -0.3906 -0.7679
 2810SOL     OW11005   1.045   0.039   5.345  0.3594 -0.2458 -0.1391
 2810SOL    HW211006   1.029   0.088   5.426 -0.4332 -1.7273  0.6327
 2810SOL    HW311007   0.960   0.037   5.301  1.0101  1.5082 -1.6230
 2810SOL    MW411008   1.031   0.045   5.350  0.3407 -0.2098 -0.2331
 2811SOL     OW11009   1.233   3.306   6.219  0.0244  0.3345  0.0414
 2811SOL    HW211010   1.292   3.230   6.217 -0.3550  0.0385 -0.9897
 2811SOL    HW311011   1.146   3.268   6.226 -0.1812  0.6542 -0.6737
 2811SOL    MW411012   1.229   3.291   6.219 -0.0528  0.3376 -0.1890
 2812SOL     OW11013   6.439   5.408   1.770  0.4713 -0.0150  0.4583
 2812SOL    HW211014   6.458   5.382   1.680 -2.7172  0.2690 -0.3990
 2812SOL    HW311015   6.391   5.334   1.807 -1.3882  1.2782  0.7146
 2812SOL    MW411016   6.435   5.395   1.763 -0.1947  0.1931  0.3790
 2813SOL     OW11017   6.062   5.088   0.790  0.3864 -0.2519 -0.3924
 2813SOL    HW211018   6.005   5.077   0.713 -0.4444 -0.6543  0.2603
 2813SOL    HW311019   6.048   5.178   0.817  0.5095 -0.1747 -0.5844
 2813SOL    MW411020   6.052   5.098   0.783  0.2931 -0.2948 -0.3316
 2814SOL     OW11021   1.030   2.759   2.985  0.3749 -0.1152 -0.1213
 2814SOL    HW211022   1.051   2.687   3.044  2.8968  1.3275  0.8866
 2814SOL    HW311023   1.059   2.728   2.899 -0.3267 -1.0062 -0.0497
 2814SOL    MW411024   1.037   2.745   2.982  0.6150 -0.0424  0.0211
 2815SOL     OW11025   4.561   3.732   2.194 -0.2042 -0.3316 -0.2508
 2815SOL    HW211026   4.513   3.690   2.122  0.1041 -0.6527 -0.2687
 2815SOL    HW311027   4.498   3.736   2.266 -1.0249  1.3902 -1.0089
 2815SOL    MW411028   4.546   3.727   2.194 -0.2718 -0.1468 -0.3532
 2816SOL     OW11029   2.367   3.076   4.397 -1.1486  0.2712  0.5743
 2816SOL    HW211030   2.400   3.012   4.333 -1.0938  1.3192 -0.4903
 2816SOL    HW311031   2.372   3.031   4.481 -2.4542 -1.6358 -0.3028
 2816SOL    MW411032   2.372   3.062   4.399 -1.3137  0.1579  0.3181
 2817SOL     OW11033   1.937   4.202   2.517 -0.7909 -0.0316  0.2132
 2817SOL    HW211034   1.889   4.210   2.599 -0.4802 -0.6735  0.4612
 2817SOL    HW311035   2.008   4.267   2.524 -1.3979  0.6716 -0.0088
 2817SOL    MW411036   1.940   4.212   2.529 -0.8300 -0.0235  0.2166
 2818SOL     OW11037   4.989   5.951   5.315 -0.2097  0.1004  0.2624
 2818SOL    HW211038   5.011   5.858   5.317  1.9131  0.5205 -0.9218
 2818SOL    HW311039   5.060   5.992   5.266 -1.8871  2.1479 -0.6486
 2818SOL    MW411040   5.001   5.944   5.309 -0.1509  0.4260 -0.0140
 2819SOL     OW11041   4.321   5.975   0.747  0.0551 -0.1227  0.0364
 2819SOL    HW211042   4.256   5.984   0.817 -1.0028 -0.1493 -0.9109
 2819SOL    HW311043   4.403   6.003   0.787 -0.4323 -0.5582  1.4152
 2819SOL    MW411044   4.323   5.980   0.761 -0.1488 -0.1837  0.0933
 2820SOL     OW11045   0.903   4.082   0.911 -0.5611  0.4029 -0.0322
 2820SOL    HW211046   0.906   4.113   1.002 -0.1971 -1.6526  0.7089
 2820SOL    HW311047   0.810   4.067   0.895 -0.5507 -0.0186  0.2903
 2820SOL    MW411048   0.891   4.084   0.921 -0.5117  0.0761  0.1082
 2821SOL     OW11049   1.019   4.130   6.139 -0.3416  0.2653 -0.8482
 2821SOL    HW211050   0.984   4.212   6.105 -0.2327  0.5063 -0.3769
 2821SOL    HW311051   0.948   4.067   6.128 -1.8194  1.2184  2.1760
 2821SOL    MW411052   1.005   4.133   6.133 -0.5222  0.4228 -0.3870
 2822SOL     OW11053   3.856   3.301   3.188 -0.7655 -0.4922 -0.2874
 2822SOL    HW211054   3.918   3.283   3.117  0.6623 -1.4587  1.1310
 2822SOL    HW311055   3.855   3.397   3.195 -0.0460 -0.4336 -0.8534
 2822SOL    MW411056   3.864   3.312   3.180 -0.4822 -0.6120 -0.1750
 2823SOL     OW11057   4.712   0.695   2.240 -0.2295  0.2862  0.2128
 2823SOL    HW211058   4.654   0.652   2.303 -2.1528  0.8584 -1.0815
 2823SOL    HW311059   4.730   0.627   2.175 -1.4681  0.7300 -0.6497
 2823SOL    MW411060   4.707   0.680   2.239 -0.6467  0.4202 -0.0718
 2824SOL     OW11061   5.442   4.121   1.794  0.1329  0.0759  0.4511
 2824SOL    HW211062   5.473   4.211   1.784  1.1468 -0.3665 -0.6634
 2824SOL    HW311063   5.349   4.124   1.773  0.3288  0.7439 -0.3651
 2824SOL    MW411064   5.434   4.133   1.790  0.2925  0.1056  0.1964
 2825SOL     OW11065   0.937   2.883   0.098 -0.2843 -0.6789 -0.0509
 2825SOL    HW211066   1.003   2.854   0.035 -1.5088 -1.9768 -0.7911
 2825SOL    HW311067   0.953   2.977   0.109  1.2727 -0.8550 -0.6739
 2825SOL    MW411068   0.948   2.891   0.091 -0.2405 -0.8734 -0.2307
 2826SOL     OW11069   2.019   0.970   1.630 -0.4317 -0.0789 -0.6185
 2826SOL    HW211070   1.929   0.937   1.640 -1.0808  1.9651  0.8726
 2826SOL    HW311071   2.073   0.905   1.676 -1.4777 -0.0095  0.7891
 2826SOL    MW411072   2.014   0.957   1.638 -0.6554  0.1999 -0.2360
 2827SOL     OW11073   2.445   1.058   4.968 -0.2274  0.5096 -0.8738
 2827SOL    HW211074   2.493   1.005   4.904 -0.0942  0.4986 -0.7661
 2827SOL    HW311075   2.353   1.035   4.955 -0.2803  1.1422 -1.6481
 2827SOL    MW411076   2.439   1.048   4.958 -0.2168  0.5916 -0.9618
 2828SOL     OW11077   3.372   0.044   2.065  0.1985 -0.1313 -0.2909
 2828SOL    HW211078   3.297  -0.014   2.078 -0.4943  0.2454 -2.2669
 2828SOL    HW311079   3.348   0.125   2.110 -1.8753  0.9636 -3.0714
 2828SOL    MW411080   3.359   0.047   2.072 -0.1665  0.0628 -0.9185
 2829SOL     OW11081   2.512   5.541   5.459  0.6881 -0.1266 -0.1715
 2829SOL    HW211082   2.577   5.473   5.475  0.5245 -0.2736 -0.1299
 2829SOL    HW311083   2.556   5.602   5.399 -0.1816 -1.8295 -2.7033
 2829SOL    MW411084   2.527   5.540   5.453  0.5517 -0.3707 -0.5000
 2830SOL     OW11085   2.057   5.417   0.639  0.2224 -0.5604 -0.5145
 2830SOL    HW211086   1.964   5.394   0.643  0.4347 -1.2751  1.3526
 2830SOL    HW311087   2.071   5.475   0.714  0.8966  1.2104 -1.9417
 2830SOL    MW411088   2.046   5.422   0.649  0.3393 -0.4210 -0.4565
 2831SOL     OW11089   4.656   4.264   5.073  0.4083  0.4551  0.0659
 2831SOL    HW211090   4.604   4.341   5.050 -1.6052 -0.0140  2.5866
 2831SOL    HW311091   4.725   4.298   5.129  1.8835  0.8324 -1.8559
 2831SOL    MW411092   4.658   4.279   5.077  0.3373  0.4430  0.1449
 2832SOL     OW11093   3.366   2.204   3.704  0.0755  0.6022 -0.9809
 2832SOL    HW211094   3.365   2.144   3.779  0.8771  0.8230 -0.7864
 2832SOL    HW311095   3.453   2.244   3.707 -0.5466  1.9770 -0.9482
 2832SOL    MW411096   3.377   2.201   3.715  0.0992  0.8127 -0.9509
 2833SOL     OW11097   1.559   0.599   5.165 -0.1647  0.2972  0.5305
 2833SOL    HW211098   1.543   0.556   5.081  1.1024  1.0563 -0.1190
 2833SOL    HW311099   1.576   0.527   5.226 -0.5290 -0.2293  0.0184
 2833SOL    MW411100   1.559   0.584   5.162 -0.0456  0.3279  0.3772
 2834SOL     OW11101   3.262   5.173   2.246  0.0188 -0.0150  0.2222
 2834SOL    HW211102   3.232   5.097   2.197 -1.1110  0.4015  0.2357
 2834SOL    HW311103   3.352   5.152   2.271 -0.1537 -1.1814 -0.0879
 2834SOL    MW411104   3.270   5.160   2.243 -0.1530 -0.1140  0.1830
 2835SOL     OW11105   3.694   5.529   3.837 -0.2256  0.4201 -0.4115
 2835SOL    HW211106   3.636   5.605   3.842 -0.8059 -0.0269 -0.2981
 2835SOL    HW311107   3.637   5.456   3.814  0.4000  0.0907 -0.9524
 2835SOL    MW411108   3.679   5.529   3.835 -0.2196  0.3177 -0.4679
 2836SOL     OW11109   0.129   4.823   6.089 -0.3852 -0.9252 -0.2357
 2836SOL    HW211110   0.052   4.876   6.069 -0.1173  0.0652  1.2157
 2836SOL    HW311111   0.112   4.788   6.176  1.4093  0.5380  0.7875
 2836SOL    MW411112   0.117   4.825   6.098 -0.1131 -0.6015  0.0908
 2837SOL     OW11113   0.989   3.618   4.770 -0.1248 -0.2504 -0.2129
 2837SOL    HW211114   0.937   3.680   4.821  0.6465  0.1256  0.1464
 2837SOL    HW311115   0.931   3.544   4.754 -2.1407  1.7373 -3.2217
 2837SOL    MW411116   0.975   3.617   4.775 -0.2890  0.0615 -0.5625
 2838SOL     OW11117   4.893   4.683   6.373  0.6250 -0.2645 -0.2871
 2838SOL    HW211118   4.910   4.718   6.461 -1.8679  0.3795  0.0188
 2838SOL    HW311119   4.843   4.752   6.329  1.7389 -0.6222 -2.2114
 2838SOL    MW411120   4.888   4.697   6.379  0.4431 -0.2267 -0.5007
 2839SOL     OW11121   2.710   0.633   0.694  0.2169 -0.1711  0.3922
 2839SOL    HW211122   2.672   0.717   0.670 -0.2068 -0.2503  0.7745
 2839SOL    HW311123   2.737   0.643   0.785  2.1391  0.2415 -0.1648
 2839SOL    MW411124   2.709   0.645   0.703  0.4146 -0.1271  0.3692
 2840SOL     OW11125   2.863   2.524   0.685 -0.4059 -0.1099 -0.1308
 2840SOL    HW211126   2.829   2.592   0.627 -1.5211 -2.6485 -2.7264
 2840SOL    HW311127   2.814   2.535   0.766  1.5420  3.8866  0.7631
 2840SOL    MW411128   2.852   2.534   0.688 -0.2960  0.0824 -0.3553
 2841SOL     OW11129   0.116   5.765   3.526  0.0345 -0.4860 -0.1883
 2841SOL    HW211130   0.116   5.698   3.458  0.3845 -0.5057 -0.1700
 2841SOL    HW311131   0.206   5.797   3.528  0.1741 -0.9157  0.6885
 2841SOL    MW411132   0.128   5.761   3.517  0.0991 -0.5453 -0.0702
 2842SOL     OW11133   6.027   4.981   2.639  0.3884  0.1886 -0.6942
 2842SOL    HW211134   6.064   4.900   2.674  0.4352  0.6188  0.3163
 2842SOL    HW311135   6.024   5.040   2.715 -1.1901  0.5918 -1.0371
 2842SOL    MW411136   6.032   4.978   2.654  0.1863  0.2985 -0.6061
 2843SOL     OW11137   2.202   3.698   6.148 -0.4654 -0.0714  0.1825
 2843SOL    HW211138   2.275   3.691   6.210  0.2505 -0.0392 -0.6202
 2843SOL    HW311139   2.174   3.608   6.132 -0.2404 -0.1255  0.0880
 2843SOL    MW411140   2.208   3.685   6.154 -0.3413 -0.0743  0.0641
 2844SOL     OW11141   6.335   4.744   4.181 -0.0881 -0.5805  0.0014
 2844SOL    HW211142   6.383   4.728   4.262 -1.9966  1.4355  1.6636
 2844SOL    HW311143   6.257   4.690   4.189 -0.6396  0.1916 -0.1268
 2844SOL    MW411144   6.331   4.735   4.193 -0.4126 -0.2127  0.2038
 2845SOL     OW11145   6.325   5.083   0.878  0.5793  0.2599 -0.4093
 2845SOL    HW211146   6.243   5.092   0.829  1.1114  0.2886 -1.3169
 2845SOL    HW311147   6.304   5.115   0.966 -0.2497  0.7477 -0.7731
 2845SOL    MW411148   6.311   5.089   0.883  0.5401  0.3281 -0.5771
 2846SOL     OW11149   4.433   5.404   4.061 -0.4208 -0.0721  0.1597
 2846SOL    HW211150   4.515   5.444   4.089  1.0109 -0.5973 -2.9587
 2846SOL    HW311151   4.387   5.473   4.014  0.2534 -0.9170 -1.8151
 2846SOL    MW411152   4.437   5.418   4.059 -0.1430 -0.2528 -0.5123
 2847SOL     OW11153   5.329   1.505   1.990  0.6350  0.1285  0.2487
 2847SOL    HW211154   5.414   1.501   2.034  0.0772  0.1157  1.3744
 2847SOL    HW311155   5.281   1.430   2.026  0.2395 -0.0251 -0.5877
 2847SOL    MW411156   5.334   1.494   2.001  0.5093  0.1065  0.2869
 2848SOL     OW11157   0.515   4.451   4.256 -0.1519 -0.8133  0.1284
 2848SOL    HW211158   0.462   4.403   4.192 -0.3288 -0.5135  0.0459
 2848SOL    HW311159   0.455   4.515   4.294  0.5908  0.9386 -1.4330
 2848SOL    MW411160   0.501   4.453   4.252 -0.0773 -0.5426 -0.0885
 2849SOL     OW11161   1.761   6.102   3.249 -0.2147 -0.2359 -0.2872
 2849SOL    HW211162   1.679   6.105   3.298 -0.3209  1.0179 -0.4924
 2849SOL    HW311163   1.750   6.029   3.188 -0.8006 -0.6688  0.3299
 2849SOL    MW411164   1.748   6.093   3.247 -0.3060 -0.1276 -0.2328
 2850SOL     OW11165   2.899   3.527   2.304 -0.8994 -0.0318 -0.0810
 2850SOL    HW211166   2.831   3.461   2.293 -0.3013 -0.7629  0.5049
 2850SOL    HW311167   2.917   3.527   2.398 -2.3046  2.4173  0.2652
 2850SOL    MW411168   2.893   3.518   2.315 -1.0059  0.1949  0.0420
 2851SOL     OW11169   1.568   6.295   2.298 -0.1392 -0.2757  0.3352
 2851SOL    HW211170   1.518   6.312   2.219  0.4242  0.3453  0.0936
 2851SOL    HW311171   1.503   6.291   2.368 -0.4818  1.4380  0.1700
 2851SOL    MW411172   1.553   6.297   2.297 -0.1101  0.0324  0.2816
 2852SOL     OW11173   2.386   5.652   0.625  0.4863  0.4745  0.1184
 2852SOL    HW211174   2.417   5.624   0.539  0.9924  1.3749 -0.0061
 2852SOL    HW311175   2.316   5.715   0.606  0.4410  0.5021  0.3699
 2852SOL    MW411176   2.380   5.657   0.611  0.5471  0.5969  0.1351
 2853SOL     OW11177   3.443   0.109   2.515 -0.0326 -0.4840 -0.1455
 2853SOL    HW211178   3.478   0.077   2.432 -1.1218  1.0459 -1.2488
 2853SOL    HW311179   3.517   0.157   2.554 -0.3665  1.6043 -1.8424
 2853SOL    MW411180   3.458   0.111   2.509 -0.2204 -0.0066 -0.5150
 2854SOL     OW11181   2.653   1.148   5.405 -0.2725  0.1123  0.3822
 2854SOL    HW211182   2.602   1.081   5.360  0.3267 -0.1024  0.0051
 2854SOL    HW311183   2.742   1.111   5.410  0.1188  0.9648 -0.0318
 2854SOL    MW411184   2.658   1.134   5.400 -0.1418  0.1964  0.2779
 2855SOL     OW11185   2.446   5.516   1.122  0.0555  0.5370  0.3471
 2855SOL    HW211186   2.447   5.510   1.026 -0.7555  0.3772  0.3492
 2855SOL    HW311187   2.460   5.426   1.152 -0.9658  0.3752  0.3715
 2855SOL    MW411188   2.448   5.503   1.113 -0.1862  0.4946  0.3506
 2856SOL     OW11189   5.179   5.134   6.144  0.0268  0.1017 -0.1476
 2856SOL    HW211190   5.143   5.085   6.218 -0.4965  0.1369 -0.3768
 2856SOL    HW311191   5.162   5.226   6.167  0.0185  0.1205 -0.2300
 2856SOL    MW411192   5.172   5.140   6.157 -0.0434  0.1089 -0.1887
 2857SOL     OW11193   2.157   1.122   1.229 -0.6552  0.2331 -0.5747
 2857SOL    HW211194   2.185   1.091   1.315 -0.2250  0.5657 -0.5902
 2857SOL    HW311195   2.235   1.165   1.193 -1.3312  1.6580 -0.3930
 2857SOL    MW411196   2.171   1.123   1.236 -0.6877  0.4650 -0.5528
 2858SOL     OW11197   6.101   6.336   2.327  0.2191  0.6609 -0.4107
 2858SOL    HW211198   6.032   6.352   2.391 -2.9642  1.2260 -3.7277
 2858SOL    HW311199   6.169   6.291   2.377 -2.1905  0.6475  3.2218
 2858SOL    MW411200   6.101   6.333   2.342 -0.5188  0.7337 -0.3691
 2859SOL     OW11201   4.117   3.540   5.582 -0.4403 -0.5144 -0.2898
 2859SOL    HW211202   4.199   3.590   5.580 -1.1022  0.6186 -1.6901
 2859SOL    HW311203   4.085   3.549   5.672 -0.2181  1.1215 -0.3324
 2859SOL    MW411204   4.123   3.548   5.593 -0.4983 -0.1491 -0.4801
 2860SOL     OW11205   6.095   3.290   3.892  0.3186  0.6261 -0.0597
 2860SOL    HW211206   6.015   3.253   3.854  1.0976 -0.6910 -0.5049
 2860SOL    HW311207   6.159   3.219   3.885  1.6276  1.7692 -0.0475
 2860SOL    MW411208   6.092   3.275   3.886  0.5941  0.6032 -0.1168
 2861SOL     OW11209   5.400   2.738   5.856  0.0168 -0.4364  0.1841
 2861SOL    HW211210   5.410   2.794   5.778  0.6673 -0.4759  0.2365
 2861SOL    HW311211   5.440   2.655   5.830 -1.4316 -1.0881 -0.0902
 2861SOL    MW411212   5.406   2.734   5.842 -0.0885 -0.5276  0.1548
 2862SOL     OW11213   3.148   5.753   0.525  0.4637 -0.3390  0.0828
 2862SOL    HW211214   3.174   5.741   0.434  1.2818 -0.3565  0.3085
 2862SOL    HW311215   3.219   5.804   0.564 -1.0177  1.8684  0.1282
 2862SOL    MW411216   3.161   5.758   0.518  0.3762 -0.0501  0.1186
 2863SOL     OW11217   3.212   2.778   3.466  0.2499 -0.5467  0.2905
 2863SOL    HW211218   3.233   2.690   3.497  0.1334  0.5065  3.7705
 2863SOL    HW311219   3.117   2.784   3.475  0.2754 -0.0196  0.2292
 2863SOL    MW411220   3.202   2.767   3.472  0.2379 -0.3382  0.7415
 2864SOL     OW11221   2.113   0.086   0.909  0.2544  0.1103  0.1078
 2864SOL    HW211222   2.038   0.131   0.870 -0.7909  1.0694  3.0081
 2864SOL    HW311223   2.079   0.000   0.934  0.6902 -0.2003 -0.3533
 2864SOL    MW411224   2.099   0.081   0.907  0.1740  0.1959  0.4297
 2865SOL     OW11225   4.919   2.259   4.767 -0.6996 -0.3883  0.3128
 2865SOL    HW211226   4.901   2.256   4.674 -2.5119 -0.8898  0.6431
 2865SOL    HW311227   4.989   2.194   4.780 -0.7501 -0.6377 -0.6293
 2865SOL    MW411228   4.926   2.250   4.757 -0.9454 -0.4874  0.2321
 2866SOL     OW11229   6.218   3.239   5.229  0.2949 -0.0043 -0.0491
 2866SOL    HW211230   6.176   3.157   5.203 -0.6968  1.3028 -2.9501
 2866SOL    HW311231   6.279   3.258   5.158  2.1340  0.7530  1.6241
 2866SOL    MW411232   6.221   3.231   5.216  0.4067  0.2680 -0.2111
 2867SOL     OW11233   5.894   3.402   4.638  0.0049  0.0584 -0.2719
 2867SOL    HW211234   5.987   3.389   4.624 -0.0256 -0.4675 -0.0051
 2867SOL    HW311235   5.863   3.443   4.557  0.6963  1.4427  0.1419
 2867SOL    MW411236   5.902   3.406   4.625  0.0921  0.1717 -0.1821
 2868SOL     OW11237   0.565   4.515   2.105 -0.7433  0.2751 -0.2155
 2868SOL    HW211238   0.506   4.468   2.045 -1.2322 -1.5560  1.5739
 2868SOL    HW311239   0.548   4.608   2.088 -3.2621 -0.1942 -0.6411
 2868SOL    MW411240   0.555   4.521   2.095 -1.1401 -0.0284 -0.0355
 2869SOL     OW11241   3.203   0.589   2.341  0.4473 -0.5550  0.2665
 2869SOL    HW211242   3.269   0.654   2.364 -0.3770  0.3215  0.2383
 2869SOL    HW311243   3.179   0.611   2.250  0.4412 -1.1355  0.1276
 2869SOL    MW411244   3.208   0.601   2.332  0.3377 -0.5160  0.2445
 2870SOL     OW11245   2.565   0.356   5.396  0.0533  0.4408 -0.3331
 2870SOL    HW211246   2.552   0.282   5.455 -1.2415  1.6875  1.0335
 2870SOL    HW311247   2.640   0.403   5.433  0.8573 -0.1282 -1.1844
 2870SOL    MW411248   2.573   0.353   5.409 -0.0115  0.5303 -0.2651
 2871SOL     OW11249   1.984   3.375   0.259 -1.0964  0.3160 -0.4127
 2871SOL    HW211250   1.994   3.365   0.353  1.6629 -0.5008 -0.7051
 2871SOL    HW311251   2.010   3.291   0.222 -0.9912  0.9748 -1.9602
 2871SOL    MW411252   1.988   3.363   0.266 -0.7185  0.2952 -0.6555
 2872SOL     OW11253   5.952   0.155   5.092  0.3187 -0.5177 -0.3984
 2872SOL    HW211254   5.936   0.066   5.060 -0.7810 -0.3886 -0.2635
 2872SOL    HW311255   5.946   0.148   5.187  1.9976 -0.6052 -0.2695
 2872SOL    MW411256   5.949   0.142   5.100  0.3951 -0.5122 -0.3636
 2873SOL     OW11257   5.239   6.288   4.873 -1.0431  0.0274  0.2684
 2873SOL    HW211258   5.199   6.204   4.853 -1.6599  0.1023  1.1059
 2873SOL    HW311259   5.259   6.284   4.966 -1.1517  0.8232  0.3399
 2873SOL    MW411260   5.236   6.277   4.883 -1.1388  0.1423  0.3883
 2874SOL     OW11261   2.307   5.289   3.233 -0.6593 -0.2790 -0.3551
 2874SOL    HW211262   2.294   5.244   3.149  0.7539  0.4206 -0.9855
 2874SOL    HW311263   2.402   5.294   3.243 -0.7943  1.0461  0.5214
 2874SOL    MW411264   2.317   5.284   3.223 -0.4907 -0.0119 -0.3227
 2875SOL     OW11265   3.229   1.114   2.356  0.1320 -0.2221 -0.5267
 2875SOL    HW211266   3.187   1.193   2.392  0.2687  0.2167 -1.2987
 2875SOL    HW311267   3.314   1.110   2.399 -0.2164 -0.4437  0.1591
 2875SOL    MW411268   3.235   1.124   2.367  0.1041 -0.1935 -0.5381
 2876SOL     OW11269   6.216   3.102   4.669  0.4249 -0.1347 -0.2223
 2876SOL    HW211270   6.200   3.193   4.645 -0.7033 -0.2052  0.2028
 2876SOL    HW311271   6.254   3.062   4.591  0.0591  0.4756 -0.7172
 2876SOL    MW411272   6.219   3.109   4.656  0.2278 -0.0635 -0.2315
 2877SOL     OW11273   3.529   0.496   0.969  0.2045  0.1108 -0.5055
 2877SOL    HW211274   3.448   0.523   0.928  1.1190 -0.6133 -2.9436
 2877SOL    HW311275   3.585   0.574   0.966  1.0717 -0.5149 -2.9047
 2877SOL    MW411276   3.526   0.510   0.964  0.4396 -0.0673 -1.1437
 2878SOL     OW11277   3.648   4.733   5.584  0.2633  0.0304 -0.1062
 2878SOL    HW211278   3.642   4.781   5.501 -1.2707  0.6952  0.3414
 2878SOL    HW311279   3.615   4.795   5.650  1.0672 -0.6221  0.9429
 2878SOL    MW411280   3.643   4.748   5.582  0.1670  0.0320  0.0913
 2879SOL     OW11281   5.459   3.282   0.358  0.0272  0.4792  0.0011
 2879SOL    HW211282   5.549   3.303   0.384 -0.4399  0.2517  1.9795
 2879SOL    HW311283   5.461   3.282   0.263  2.0284  0.8846 -0.0049
 2879SOL    MW411284   5.471   3.285   0.349  0.2296  0.5027  0.2613
 2880SOL     OW11285   1.898   3.110   0.688 -0.5371  0.1184 -0.2235
 2880SOL    HW211286   1.938   3.118   0.775  0.0836  1.1522 -0.5770
 2880SOL    HW311287   1.956   3.161   0.631 -0.2728 -1.4812 -1.4760
 2880SOL    MW411288   1.911   3.118   0.692 -0.4203  0.0438 -0.4354
 2881SOL     OW11289   5.074   0.351   5.566  0.3544 -0.3304  0.2198
 2881SOL    HW211290   4.992   0.399   5.575  0.6057 -0.0219  0.9748
 2881SOL    HW311291   5.105   0.372   5.478 -0.2135 -0.1934  0.0517
 2881SOL    MW411292   5.067   0.360   5.556  0.3127 -0.2716  0.2972
 2882SOL     OW11293   5.144   2.841   4.383 -0.0758 -0.2041 -0.2776
 2882SOL    HW211294   5.191   2.757   4.388 -1.3929 -1.1261 -2.2533
 2882SOL    HW311295   5.053   2.817   4.365 -0.6936  1.6326  0.1959
 2882SOL    MW411296   5.138   2.827   4.381 -0.3311 -0.0834 -0.4758
 2883SOL     OW11297   6.125   0.913   0.839  0.4544  0.1864 -0.3653
 2883SOL    HW211298   6.084   0.843   0.787 -0.1922 -0.1518  0.5700
 2883SOL    HW311299   6.103   0.993   0.792  0.2580 -0.1494 -0.8560
 2883SOL    MW411300   6.117   0.914   0.826  0.3431  0.0974 -0.3066
 2884SOL     OW11301   1.961   5.799   2.724  0.0800 -0.3105  0.5401
 2884SOL    HW211302   1.887   5.765   2.674 -1.6845  0.4637  2.4699
 2884SOL    HW311303   1.935   5.786   2.815  1.5872  1.5255  1.2804
 2884SOL    MW411304   1.947   5.793   2.729  0.0461  0.0339  0.8924
 2885SOL     OW11305   2.934   4.877   4.323  0.7225  0.6089  0.3451
 2885SOL    HW211306   2.961   4.900   4.412 -0.8446  0.1731  0.9580
 2885SOL    HW311307   2.840   4.863   4.329  0.9830 -2.4180 -0.6953
 2885SOL    MW411308   2.925   4.878   4.336  0.5501  0.1520  0.2887
 2886SOL     OW11309   2.004   1.852   1.330  0.0908 -0.9059 -0.0441
 2886SOL    HW211310   1.936   1.910   1.364  0.7813  0.9071 -1.5536
 2886SOL    HW311311   1.988   1.768   1.373 -2.9035 -0.4853 -0.1517
 2886SOL    MW411312   1.993   1.849   1.340 -0.2132 -0.6112 -0.2574
 2887SOL     OW11313   2.341   0.062   0.220  0.1739  0.2947  0.0198
 2887SOL    HW211314   2.291  -0.019   0.229  0.4724  0.2435  1.5106
 2887SOL    HW311315   2.293   0.113   0.154 -0.6716 -0.5927 -0.0811
 2887SOL    MW411316   2.328   0.058   0.212  0.1017  0.1709  0.2032
 2888SOL     OW11317   5.484   0.126   5.645 -0.3054 -0.2700 -0.2303
 2888SOL    HW211318   5.459   0.216   5.665 -0.2187 -0.4851  0.9052
 2888SOL    HW311319   5.418   0.097   5.581 -2.2841 -0.4026  1.7428
 2888SOL    MW411320   5.472   0.134   5.639 -0.5551 -0.3159  0.1798
 2889SOL     OW11321   3.256   0.475   2.668  0.0367 -0.6042 -0.2265
 2889SOL    HW211322   3.169   0.513   2.654 -0.2045 -1.4959 -1.3127
 2889SOL    HW311323   3.240   0.403   2.729  0.1728 -0.2062  0.2867
 2889SOL    MW411324   3.242   0.470   2.674  0.0229 -0.6693 -0.3021
 2890SOL     OW11325   3.328   5.916   0.633  0.4600 -0.0568  0.3572
 2890SOL    HW211326   3.346   5.903   0.726  1.2713 -1.1093  0.0698
 2890SOL    HW311327   3.414   5.916   0.591  0.0633 -0.3728 -0.4804
 2890SOL    MW411328   3.342   5.914   0.639  0.5147 -0.2374  0.2088
 2891SOL     OW11329   6.220   1.074   4.923  0.1636 -0.0491 -0.7124
 2891SOL    HW211330   6.136   1.090   4.880  1.5961  4.4287 -2.4693
 2891SOL    HW311331   6.213   1.122   5.006  1.1261  0.8215 -1.1223
 2891SOL    MW411332   6.208   1.083   4.929  0.4796  0.6566 -0.9983
 2892SOL     OW11333   1.192   2.504   4.320  0.7858 -0.1251 -0.0554
 2892SOL    HW211334   1.176   2.432   4.380  2.0747 -0.0520  0.3923
 2892SOL    HW311335   1.247   2.565   4.368  0.0925  0.9546 -0.5869
 2892SOL    MW411336   1.197   2.503   4.334  0.8644  0.0270 -0.0665
 2893SOL     OW11337   1.391   2.181   6.289  0.2614  0.2630 -0.1888
 2893SOL    HW211338   1.349   2.169   6.204 -0.3525  2.0464 -0.1830
 2893SOL    HW311339   1.336   2.244   6.335  1.8921  1.2117  0.5799
 2893SOL    MW411340   1.379   2.188   6.284  0.3956  0.6235 -0.0866
 2894SOL     OW11341   6.260   2.847   0.182  0.2408 -0.0637 -0.6427
 2894SOL    HW211342   6.299   2.775   0.133 -1.1149 -0.3085 -1.4125
 2894SOL    HW311343   6.257   2.815   0.273  0.9503 -0.4009 -0.7358
 2894SOL    MW411344   6.264   2.833   0.188  0.1555 -0.1405 -0.7565
 2895SOL     OW11345   4.760   5.954   3.303  0.2337  0.2817  0.0624
 2895SOL    HW211346   4.842   6.002   3.293  0.3741 -0.0134 -0.2372
 2895SOL    HW311347   4.781   5.865   3.273 -0.1399  0.1536  0.1827
 2895SOL    MW411348   4.774   5.948   3.297  0.2029  0.2259  0.0387
 2896SOL     OW11349   5.025   5.707   2.439 -0.1420 -0.6378 -0.1122
 2896SOL    HW211350   5.040   5.620   2.402 -0.5584 -0.7407 -0.0404
 2896SOL    HW311351   4.973   5.690   2.518  0.8418 -0.4410  0.6064
 2896SOL    MW411352   5.020   5.693   2.445 -0.0672 -0.6254 -0.0079
 2897SOL     OW11353   0.190   4.203   4.292 -0.6046  0.0112  0.0054
 2897SOL    HW211354   0.177   4.110   4.273  2.2473 -0.5885  0.4383
 2897SOL    HW311355   0.247   4.234   4.221 -0.8249  1.2031  0.3329
 2897SOL    MW411356   0.196   4.194   4.280 -0.2574  0.0893  0.1057
 2898SOL     OW11357   0.331   5.172   3.129 -0.5155 -0.4772  0.1847
 2898SOL    HW211358   0.311   5.159   3.221  0.7885 -0.0213  0.5473
 2898SOL    HW311359   0.419   5.136   3.118  0.7966  2.5110 -0.0897
 2898SOL    MW411360   0.340   5.165   3.139 -0.1703 -0.0228  0.1963
 2899SOL     OW11361   6.425   0.479   0.268 -0.3992  0.2312  0.4541
 2899SOL    HW211362   6.495   0.415   0.255 -0.6786 -0.2921  1.4570
 2899SOL    HW311363   6.385   0.454   0.351 -2.2035  0.1199 -0.4072
 2899SOL    MW411364   6.429   0.467   0.277 -0.6741  0.1474  0.4728
 2900SOL     OW11365   3.254   4.746   5.405  0.0108  0.0038  0.3351
 2900SOL    HW211366   3.236   4.677   5.469 -1.1162 -0.7683 -0.7478
 2900SOL    HW311367   3.252   4.827   5.455 -0.6166 -0.6016  1.3154
 2900SOL    MW411368   3.251   4.748   5.420 -0.2207 -0.1779  0.3215
 2901SOL     OW11369   5.783   0.535   3.679  0.3654 -0.1871 -0.0785
 2901SOL    HW211370   5.765   0.624   3.707  0.0172  0.0226 -0.9387
 2901SOL    HW311371   5.714   0.482   3.718  0.6266 -0.1004  0.5088
 2901SOL    MW411372   5.772   0.540   3.688  0.3539 -0.1480 -0.1145
 2902SOL     OW11373   5.586   0.189   0.556 -0.3108 -0.4021 -0.5771
 2902SOL    HW211374   5.662   0.133   0.544  0.1915 -0.6555  2.7368
 2902SOL    HW311375   5.616   0.277   0.531  1.1926 -0.4719  0.8175
 2902SOL    MW411376   5.600   0.194   0.551 -0.0462 -0.4448  0.0441
 2903SOL     OW11377   5.146   4.946   5.943 -1.0808 -0.2022  0.5221
 2903SOL    HW211378   5.086   4.887   5.989 -0.1101 -0.4707  1.4987
 2903SOL    HW311379   5.158   5.019   6.004 -1.4061  0.4688 -0.2101
 2903SOL    MW411380   5.140   4.947   5.957 -0.9957 -0.1491  0.5543
 2904SOL     OW11381   3.376   3.597   1.832  0.0646  0.5126  0.0906
 2904SOL    HW211382   3.315   3.660   1.794 -0.2598 -0.5415 -1.2278
 2904SOL    HW311383   3.421   3.559   1.757  1.6910  0.5777  0.9799
 2904SOL    MW411384   3.374   3.600   1.817  0.2364  0.3821  0.0340
 2905SOL     OW11385   4.508   3.948   0.642 -0.0224  0.5218 -0.1523
 2905SOL    HW211386   4.546   4.025   0.600  0.7021  0.2885  0.0567
 2905SOL    HW311387   4.416   3.969   0.653  0.1240  1.2593 -0.3225
 2905SOL    MW411388   4.501   3.961   0.638  0.0925  0.5883 -0.1472
 2906SOL     OW11389   1.858   5.036   4.949 -0.2029 -0.0075  0.3141
 2906SOL    HW211390   1.812   5.119   4.955 -0.5023 -0.1037 -0.5348
 2906SOL    HW311391   1.864   5.018   4.855  1.5574 -0.0053  0.3941
 2906SOL    MW411392   1.853   5.045   4.937 -0.0102 -0.0199  0.2126
 2907SOL     OW11393   3.376   4.128   3.329 -0.2051 -0.3599  0.0275
 2907SOL    HW211394   3.377   4.072   3.251  1.4197 -1.3929  0.7426
 2907SOL    HW311395   3.439   4.088   3.388  0.1809  1.6021  1.0354
 2907SOL    MW411396   3.384   4.115   3.326  0.0602 -0.2373  0.2548
 2908SOL     OW11397   6.397   1.231   6.154 -0.4057 -0.1197 -0.0108
 2908SOL    HW211398   6.455   1.263   6.085  1.6483  0.4046  1.8250
 2908SOL    HW311399   6.396   1.301   6.219 -0.7842 -1.2977  1.3036
 2908SOL    MW411400   6.405   1.244   6.154 -0.1846 -0.2060  0.4048
 2909SOL     OW11401   0.421   6.393   3.277 -0.0338  0.1259 -0.0176
 2909SOL    HW211402   0.513   6.385   3.251  0.7506  3.5859  1.1387
 2909SOL    HW311403   0.419   6.361   3.367  0.1143  0.3901  0.0793
 2909SOL    MW411404   0.433   6.388   3.286  0.0892  0.6173  0.1477
 2910SOL     OW11405   5.480   0.133   2.196 -0.0221 -0.3910 -0.3236
 2910SOL    HW211406   5.480   0.136   2.292 -2.7261  1.2810 -0.2952
 2910SOL    HW311407   5.572   0.119   2.173  0.4371 -3.1943  2.4990
 2910SOL    MW411408   5.492   0.132   2.206 -0.3183 -0.5403  0.0526
 2911SOL     OW11409   6.000   2.582   1.918 -0.5092  0.4788 -0.1412
 2911SOL    HW211410   5.916   2.605   1.958 -0.4284  0.9892 -0.2653
 2911SOL    HW311411   6.014   2.649   1.852  0.1518  0.5822  0.0956
 2911SOL    MW411412   5.990   2.594   1.915 -0.4114  0.5598 -0.1263
 2912SOL     OW11413   2.533   3.972   3.578 -0.1953 -0.1719 -0.0918
 2912SOL    HW211414   2.473   3.898   3.588 -0.2005 -0.3712 -1.3969
 2912SOL    HW311415   2.592   3.965   3.653 -0.4794 -1.2334  0.0544
 2912SOL    MW411416   2.533   3.961   3.589 -0.2334 -0.3383 -0.2447
 2913SOL     OW11417   5.341   1.810   5.424  0.2636 -0.0520  0.4867
 2913SOL    HW211418   5.335   1.897   5.463  0.1306 -0.3068  1.0552
 2913SOL    HW311419   5.301   1.752   5.489 -1.0865 -0.3461 -0.5754
 2913SOL    MW411420   5.335   1.814   5.438  0.0679 -0.1244  0.4216
 2914SOL     OW11421   2.518   5.272   2.316 -0.4345  0.1936  0.0042
 2914SOL    HW211422   2.527   5.337   2.386  4.4865 -1.7570  1.5778
 2914SOL    HW311423   2.563   5.311   2.241  0.5736 -0.4951  0.2427
 2914SOL    MW411424   2.525   5.286   2.315  0.3478 -0.1546  0.2433
 2915SOL     OW11425   5.839   6.229   3.594 -0.0637  0.6259  0.6412
 2915SOL    HW211426   5.828   6.181   3.512 -2.2160  0.9853  0.6599
 2915SOL    HW311427   5.785   6.181   3.657  1.5101  0.3863  1.8686
 2915SOL    MW411428   5.831   6.216   3.592 -0.1400  0.6417  0.8056
 2916SOL     OW11429   2.340   3.884   4.801 -1.5567 -0.7433 -0.0311
 2916SOL    HW211430   2.422   3.853   4.763 -0.7967 -0.8011  1.5624
 2916SOL    HW311431   2.307   3.809   4.849 -2.6203 -0.7476 -0.7420
 2916SOL    MW411432   2.347   3.870   4.802 -1.5967 -0.7515  0.0853
 2917SOL     OW11433   1.953   5.793   6.097 -0.1354  0.1025 -0.0251
 2917SOL    HW211434   1.975   5.803   6.004 -1.5678 -1.2125 -0.5389
 2917SOL    HW311435   2.037   5.803   6.142  1.2177 -2.5693 -1.7149
 2917SOL    MW411436   1.967   5.796   6.091 -0.1458 -0.4235 -0.3158
 2918SOL     OW11437   5.010   4.350   1.954  1.0497  0.2265 -0.1746
 2918SOL    HW211438   5.085   4.397   1.991  2.0783 -0.8558 -0.8035
 2918SOL    HW311439   4.934   4.391   1.995  2.0016  0.9566  0.9492
 2918SOL    MW411440   5.010   4.362   1.965  1.3110  0.1800 -0.1093
 2919SOL     OW11441   2.446   2.763   6.063 -0.4689 -0.3646  0.0911
 2919SOL    HW211442   2.412   2.689   6.114 -0.7042 -1.9914 -2.2421
 2919SOL    HW311443   2.433   2.737   5.972 -0.8526  2.7319 -0.8622
 2919SOL    MW411444   2.440   2.750   6.058 -0.5506 -0.1707 -0.3425
 2920SOL     OW11445   4.694   5.808   6.327 -0.1477 -0.0291 -0.2352
 2920SOL    HW211446   4.736   5.753   6.394  2.4454 -0.4755 -2.0623
 2920SOL    HW311447   4.646   5.747   6.272 -0.0390 -0.0397 -0.3202
 2920SOL    MW411448   4.693   5.793   6.329  0.2088 -0.0894 -0.4875
 2921SOL     OW11449   3.684   1.959   0.324 -0.1159 -0.0455 -0.3437
 2921SOL    HW211450   3.623   2.027   0.354  0.2136  0.9638 -1.8514
 2921SOL    HW311451   3.766   2.006   0.308  0.2915 -0.9118 -0.8740
 2921SOL    MW411452   3.687   1.974   0.326 -0.0187 -0.0267 -0.6126
 2922SOL     OW11453   4.649   4.934   4.090 -0.0333 -0.4683  0.6292
 2922SOL    HW211454   4.613   4.992   4.022 -0.2775  0.0216  1.1730
 2922SOL    HW311455   4.573   4.886   4.122  0.0664 -0.6292  0.6230
 2922SOL    MW411456   4.634   4.935   4.085 -0.0523 -0.4249  0.7001
 2923SOL     OW11457   6.270   4.500   5.245  0.1459  0.0377  0.2994
 2923SOL    HW211458   6.252   4.407   5.235  2.3869 -0.2109 -3.1343
 2923SOL    HW311459   6.364   4.505   5.261 -0.1265  1.7049  1.6944
 2923SOL    MW411460   6.280   4.488   5.246  0.4056  0.2249  0.0304
 2924SOL     OW11461   3.587   2.297   0.818 -0.2427 -0.1649  0.2378
 2924SOL    HW211462   3.665   2.353   0.810 -0.5997  0.3106  0.0136
 2924SOL    HW311463   3.610   2.217   0.770  0.1612 -0.0842  0.2920
 2924SOL    MW411464   3.600   2.294   0.810 -0.2365 -0.0915  0.2154
 2925SOL     OW11465   2.738   0.291   4.527  0.2622 -0.3443 -0.0351
 2925SOL    HW211466   2.787   0.304   4.445  0.3055  0.6142  0.1299
 2925SOL    HW311467   2.647   0.309   4.504  0.2474 -0.2655  0.0836
 2925SOL    MW411468   2.733   0.295   4.513  0.2660 -0.2075  0.0023
 2926SOL     OW11469   1.756   0.251   1.163  0.7522  0.1698 -0.0614
 2926SOL    HW211470   1.736   0.189   1.093 -1.8891  0.3661  0.4042
 2926SOL    HW311471   1.713   0.333   1.136  1.3799  0.8309  0.8651
 2926SOL    MW411472   1.748   0.254   1.150  0.4865  0.2829  0.1223
 2927SOL     OW11473   5.270   5.601   3.917  0.1587  0.3151  0.1788
 2927SOL    HW211474   5.191   5.548   3.928  0.9693 -1.0241 -0.1255
 2927SOL    HW311475   5.323   5.581   3.995  0.3833  0.8573  0.1672
 2927SOL    MW411476   5.267   5.591   3.929  0.2953  0.2099  0.1371
 2928SOL     OW11477   5.755   5.552   4.420  0.7855  0.2221  0.0636
 2928SOL    HW211478   5.693   5.489   4.382 -0.5973  0.8603  1.1445
 2928SOL    HW311479   5.702   5.630   4.437  1.8936  0.8013  1.0263
 2928SOL    MW411480   5.740   5.554   4.417  0.7492  0.3827  0.3332
 2929SOL     OW11481   3.546   5.755   3.533  0.2182 -0.1892  0.2979
 2929SOL    HW211482   3.484   5.817   3.573 -0.2661 -0.0689 -0.6109
 2929SOL    HW311483   3.524   5.671   3.574 -1.8099 -0.5079 -1.2985
 2929SOL    MW411484   3.535   5.752   3.544 -0.1133 -0.2154 -0.0326
 2930SOL     OW11485   2.764   1.268   6.030  0.2460  0.0835  0.2661
 2930SOL    HW211486   2.670   1.265   6.008  0.4275 -1.9058 -0.4919
 2930SOL    HW311487   2.768   1.237   6.121  0.2995 -2.5095 -0.5285
 2930SOL    MW411488   2.752   1.264   6.039  0.2770 -0.5211  0.0612
 2931SOL     OW11489   4.345   2.927   3.736  0.2739 -0.6919  0.0601
 2931SOL    HW211490   4.256   2.955   3.714 -0.1788 -0.5965  1.8351
 2931SOL    HW311491   4.380   2.891   3.655 -1.3071 -0.5375 -0.7286
 2931SOL    MW411492   4.338   2.926   3.723  0.0056 -0.6589  0.1902
 2932SOL     OW11493   1.201   6.026   0.415  0.3213 -0.0032 -0.4982
 2932SOL    HW211494   1.227   5.942   0.453 -0.2873 -0.4531 -1.0714
 2932SOL    HW311495   1.145   6.066   0.481  1.5595  0.5080  0.2974
 2932SOL    MW411496   1.197   6.020   0.429  0.4044  0.0049 -0.4688
 2933SOL     OW11497   5.778   2.018   5.084 -0.4566 -0.4906  0.1411
 2933SOL    HW211498   5.814   1.930   5.072 -0.0631 -0.3931  0.6238
 2933SOL    HW311499   5.794   2.062   5.000  1.0134 -0.2760  0.5250
 2933SOL    MW411500   5.785   2.012   5.071 -0.2108 -0.4495  0.2554
 2934SOL     OW11501   5.431   4.431   4.613 -0.0261 -0.8156 -0.3805
 2934SOL    HW211502   5.415   4.506   4.556  0.7590 -1.1602 -1.0829
 2934SOL    HW311503   5.454   4.360   4.553  2.8839 -0.6781  0.4360
 2934SOL    MW411504   5.432   4.432   4.597  0.4614 -0.8429 -0.3655
 2935SOL     OW11505   3.459   4.847   3.044  0.1335 -0.5022 -0.3506
 2935SOL    HW211506   3.455   4.941   3.059  0.2376 -0.4488 -0.6456
 2935SOL    HW311507   3.368   4.821   3.030  0.0613 -0.5147  0.1303
 2935SOL    MW411508   3.447   4.856   3.044  0.1377 -0.4968 -0.3261
 2936SOL     OW11509   1.529   5.166   3.973  0.3681  0.4971 -0.1734
 2936SOL    HW211510   1.490   5.083   3.946  1.0236  0.0869  0.0977
 2936SOL    HW311511   1.500   5.177   4.064 -0.7300  1.1950 -0.5952
 2936SOL    MW411512   1.520   5.156   3.982  0.3097  0.5351 -0.1933
 2937SOL     OW11513   3.577   3.550   5.767 -0.1671  0.0503 -0.2579
 2937SOL    HW211514   3.590   3.543   5.672  0.1011 -0.3963 -0.1906
 2937SOL    HW311515   3.567   3.644   5.783  0.4911  0.1892 -0.6380
 2937SOL    MW411516   3.578   3.562   5.757 -0.0449  0.0097 -0.2992
 2938SOL     OW11517   4.857   2.826   2.299 -0.3892  0.2844 -0.2994
 2938SOL    HW211518   4.778   2.874   2.275 -0.9411  0.0790  1.0409
 2938SOL    HW311519   4.833   2.734   2.291  0.5487  0.1742 -2.4796
 2938SOL    MW411520   4.844   2.821   2.295 -0.3382  0.2428 -0.4102
 2939SOL     OW11521   6.396   2.483   2.044  0.3187  0.1146 -0.4430
 2939SOL    HW211522   6.361   2.523   2.123  1.1103 -0.2962  0.1376
 2939SOL    HW311523   6.330   2.418   2.018 -2.0442  3.1001 -2.6306
 2939SOL    MW411524   6.383   2.480   2.051  0.1114  0.4543 -0.6550
 2940SOL     OW11525   1.318   0.044   5.295 -0.2098 -0.2106 -0.3308
 2940SOL    HW211526   1.374   0.064   5.369 -0.2759  2.2379 -0.8438
 2940SOL    HW311527   1.231   0.032   5.333 -0.0987  0.2557  0.0897
 2940SOL    MW411528   1.314   0.045   5.310 -0.2039  0.1740 -0.3430
 2941SOL     OW11529   2.683   0.759   5.517 -0.4161 -0.0985  0.1378
 2941SOL    HW211530   2.713   0.722   5.600  0.0418 -2.1648 -0.8853
 2941SOL    HW311531   2.594   0.789   5.535 -1.4398 -3.1189  0.7392
 2941SOL    MW411532   2.675   0.758   5.530 -0.4908 -0.7696  0.0822
 2942SOL     OW11533   5.198   5.985   6.290  0.4341  0.4412  0.0218
 2942SOL    HW211534   5.206   5.891   6.275 -1.4451  0.2890 -0.2533
 2942SOL    HW311535   5.183   6.022   6.202  3.2932  1.3294 -0.2075
 2942SOL    MW411536   5.197   5.978   6.276  0.5634  0.5383 -0.0447
 2943SOL     OW11537   1.187   5.873   6.108  0.2220  0.2298  0.1357
 2943SOL    HW211538   1.159   5.818   6.035 -0.4515  0.9991 -0.2009
 2943SOL    HW311539   1.241   5.941   6.068  2.9313 -1.3991  0.8140
 2943SOL    MW411540   1.190   5.875   6.093  0.4906  0.1164  0.1808
 2944SOL     OW11541   5.790   2.047   6.217  0.0159 -0.4177  0.1751
 2944SOL    HW211542   5.832   2.028   6.301 -1.7883  1.9932  1.7643
 2944SOL    HW311543   5.700   2.016   6.227 -0.6992  1.3870 -0.1489
 2944SOL    MW411544   5.783   2.041   6.229 -0.3165  0.1385  0.3420
 2945SOL     OW11545   1.291   3.788   0.500 -0.2393  0.4016 -0.3339
 2945SOL    HW211546   1.212   3.833   0.531  0.5986  1.7366 -0.0563
 2945SOL    HW311547   1.324   3.741   0.577 -2.3917 -2.7753 -1.1570
 2945SOL    MW411548   1.285   3.788   0.515 -0.4127  0.1586 -0.4059
 2946SOL     OW11549   3.086   3.208   0.285 -0.0702  0.2072  0.5987
 2946SOL    HW211550   3.123   3.286   0.328  0.9299 -0.3406  0.7706
 2946SOL    HW311551   3.147   3.137   0.308 -1.0616 -0.6654  0.5925
 2946SOL    MW411552   3.099   3.209   0.294 -0.0690  0.0198  0.6206
 2947SOL     OW11553   4.745   1.112   5.415 -0.1959 -0.1332 -0.4188
 2947SOL    HW211554   4.667   1.113   5.360 -0.2574 -1.0567 -0.3604
 2947SOL    HW311555   4.729   1.181   5.480 -1.2648 -0.7426 -0.0075
 2947SOL    MW411556   4.733   1.122   5.416 -0.3450 -0.3354 -0.3568
 2948SOL     OW11557   1.642   1.247   3.990 -0.0276 -0.6850  0.3154
 2948SOL    HW211558   1.557   1.252   4.034  0.2124  0.9501  0.6845
 2948SOL    HW311559   1.701   1.211   4.056  0.1316  0.8671  1.0765
 2948SOL    MW411560   1.638   1.243   4.004  0.0251 -0.2645  0.4645
 2949SOL     OW11561   3.413   2.797   5.319  0.7612 -0.3621  0.4329
 2949SOL    HW211562   3.508   2.797   5.331  1.0347 -0.8694 -1.3968
 2949SOL    HW311563   3.400   2.760   5.232 -1.0340  1.0257  0.0495
 2949SOL    MW411564   3.424   2.792   5.309  0.5604 -0.2459  0.1409
 2950SOL     OW11565   1.024   5.783   5.916  0.3677  0.0415 -0.5443
 2950SOL    HW211566   1.040   5.691   5.935 -0.8281  0.2576  1.9359
 2950SOL    HW311567   0.958   5.810   5.980  1.9887  3.0607  0.0808
 2950SOL    MW411568   1.018   5.775   5.927  0.4238  0.4684 -0.1346
 2951SOL     OW11569   1.843   0.333   0.883  0.0803 -0.4738 -0.7494
 2951SOL    HW211570   1.884   0.383   0.953 -0.4186 -1.3362  0.1885
 2951SOL    HW311571   1.870   0.377   0.803  0.4526  0.6949 -0.0075
 2951SOL    MW411572   1.852   0.345   0.882  0.0636 -0.4334 -0.5278
 2952SOL     OW11573   1.614   3.287   1.951  0.3622 -0.2873 -0.0873
 2952SOL    HW211574   1.652   3.274   1.865  0.3675 -1.1708  0.0414
 2952SOL    HW311575   1.662   3.362   1.988  0.5411 -0.0827 -0.7326
 2952SOL    MW411576   1.625   3.295   1.945  0.3865 -0.3769 -0.1554
 2953SOL     OW11577   3.384   3.352   5.854 -0.3250  0.2078  0.3735
 2953SOL    HW211578   3.431   3.427   5.819 -0.1549  0.3217  0.8435
 2953SOL    HW311579   3.426   3.333   5.938 -1.3839  0.5876  1.0160
 2953SOL    MW411580   3.396   3.359   5.861 -0.4423  0.2729  0.5203
 2954SOL     OW11581   5.304   4.745   4.873 -0.2032 -0.5272 -0.1144
 2954SOL    HW211582   5.226   4.698   4.844  0.1226 -1.1390 -0.0204
 2954SOL    HW311583   5.377   4.688   4.848  0.2580  0.3282 -0.7774
 2954SOL    MW411584   5.304   4.732   4.866 -0.0993 -0.4951 -0.1895
 2955SOL     OW11585   0.189   6.003   1.287  0.4026 -0.4411  0.0665
 2955SOL    HW211586   0.202   5.980   1.195  1.0975 -1.5954  0.4268
 2955SOL    HW311587   0.278   6.008   1.322  0.1174 -2.4880  1.2320
 2955SOL    MW411588   0.203   6.001   1.279  0.4566 -0.8635  0.2678
 2956SOL     OW11589   3.596   0.826   0.090 -0.2101 -0.3045 -0.4578
 2956SOL    HW211590   3.525   0.778   0.133 -0.3400  0.6453  0.4098
 2956SOL    HW311591   3.670   0.818   0.150 -0.2561  0.6367 -0.2659
 2956SOL    MW411592   3.597   0.819   0.103 -0.2333 -0.0550 -0.3180
 2957SOL     OW11593   6.250   4.339   1.227  0.4192 -0.3073 -0.3035
 2957SOL    HW211594   6.321   4.280   1.250  0.9362 -0.3664 -1.9213
 2957SOL    HW311595   6.172   4.299   1.264  1.1024 -0.6706  0.7905
 2957SOL    MW411596   6.249   4.326   1.235  0.5775 -0.3630 -0.3726
 2958SOL     OW11597   5.764   1.127   5.897  0.3051  0.0276 -0.0475
 2958SOL    HW211598   5.857   1.138   5.881  0.4150  0.7284  0.9927
 2958SOL    HW311599   5.758   1.100   5.989 -0.5792  1.1568  0.2455
 2958SOL    MW411600   5.775   1.125   5.907  0.2029  0.2691  0.1284
 2959SOL     OW11601   6.410   2.224   1.291 -0.5257  0.5906 -0.2958
 2959SOL    HW211602   6.396   2.254   1.202 -0.3842 -0.7671 -0.7999
 2959SOL    HW311603   6.468   2.289   1.330 -0.5623  1.1765 -1.1911
 2959SOL    MW411604   6.416   2.236   1.285 -0.5118  0.4888 -0.4804
 2960SOL     OW11605   2.266   6.300   1.527  0.5136 -0.2712  0.0335
 2960SOL    HW211606   2.280   6.208   1.547  1.2383 -0.2362 -0.3006
 2960SOL    HW311607   2.337   6.346   1.570 -1.2617  0.4437  2.4232
 2960SOL    MW411608   2.277   6.294   1.535  0.3750 -0.1723  0.3047
 2961SOL     OW11609   2.179   4.032   5.137  0.5012 -0.4896  0.1076
 2961SOL    HW211610   2.150   4.099   5.199 -0.0272  0.0299 -0.6791
 2961SOL    HW311611   2.274   4.028   5.148  0.3446 -0.9845  1.5030
 2961SOL    MW411612   2.188   4.040   5.147  0.4109 -0.4863  0.1879
 2962SOL     OW11613   0.790   1.663   1.739 -0.0615  0.7477  0.4948
 2962SOL    HW211614   0.793   1.742   1.686  0.3492  0.3708 -0.0495
 2962SOL    HW311615   0.781   1.592   1.676  0.6357  0.2797  0.9067
 2962SOL    MW411616   0.789   1.664   1.724  0.0847  0.6362  0.4773
 2963SOL     OW11617   4.633   1.209   3.062  0.3224  0.0448 -0.4255
 2963SOL    HW211618   4.713   1.219   3.010  1.3934  0.0717  1.1734
 2963SOL    HW311619   4.646   1.128   3.110 -0.2541  0.4556  0.4472
 2963SOL    MW411620   4.645   1.200   3.061  0.3876  0.1025 -0.0994
 2964SOL     OW11621   0.469   4.365   1.134 -0.0481  0.4657 -0.2770
 2964SOL    HW211622   0.540   4.362   1.198 -0.7795  0.4469  0.5524
 2964SOL    HW311623   0.505   4.323   1.056  0.8140  0.3625  0.1698
 2964SOL    MW411624   0.483   4.359   1.132 -0.0308  0.4496 -0.1086
 2965SOL     OW11625   5.102   5.028   3.185 -0.5478 -0.0777  0.1132
 2965SOL    HW211626   5.180   4.976   3.202  0.4378  1.4314  0.4166
 2965SOL    HW311627   5.077   5.062   3.271 -0.1435  1.3178 -0.2996
 2965SOL    MW411628   5.109   5.026   3.199 -0.3644  0.3055  0.0988
 2966SOL     OW11629   2.651   5.971   1.693 -0.0612 -0.1029 -0.1138
 2966SOL    HW211630   2.676   6.058   1.660 -1.5894 -0.6086 -2.8950
 2966SOL    HW311631   2.581   5.989   1.755 -0.1090  0.6964 -0.3782
 2966SOL    MW411632   2.645   5.985   1.697 -0.2691 -0.0642 -0.5156
 2967SOL     OW11633   0.629   5.591   1.658 -0.2399 -0.1104 -0.0048
 2967SOL    HW211634   0.693   5.601   1.729 -0.8000  2.4256  0.2418
 2967SOL    HW311635   0.598   5.501   1.666  0.4289 -0.1985  2.3756
 2967SOL    MW411636   0.633   5.580   1.669 -0.2256  0.2125  0.3418
 2968SOL     OW11637   4.183   5.669   2.297 -0.4280 -0.3748 -0.0945
 2968SOL    HW211638   4.116   5.622   2.348  0.9777  0.7396  3.0815
 2968SOL    HW311639   4.231   5.720   2.363  1.6251  1.2198 -2.6315
 2968SOL    MW411640   4.180   5.670   2.313  0.0283 -0.0173 -0.0102
 2969SOL     OW11641   3.067   0.568   5.471 -0.3385 -0.1891  0.5243
 2969SOL    HW211642   3.137   0.506   5.451 -0.5929 -0.8631  1.6445
 2969SOL    HW311643   3.049   0.555   5.564 -0.6507  1.3180  0.7115
 2969SOL    MW411644   3.074   0.558   5.481 -0.4133 -0.0792  0.6968
 2970SOL     OW11645   0.779   2.772   1.351  0.4740  0.1004  0.4435
 2970SOL    HW211646   0.744   2.787   1.263  1.2230 -1.4079 -0.1420
 2970SOL    HW311647   0.771   2.857   1.395 -0.2066  0.7958 -0.9657
 2970SOL    MW411648   0.773   2.786   1.345  0.4830 -0.0069  0.1804
 2971SOL     OW11649   4.047   3.282   6.051  0.5303  0.8790 -0.5233
 2971SOL    HW211650   3.990   3.229   5.996  1.9198  0.7868 -1.9283
 2971SOL    HW311651   4.094   3.340   5.990  1.0250  1.8308  0.7069
 2971SOL    MW411652   4.046   3.283   6.036  0.7789  0.9924 -0.5463
 2972SOL     OW11653   3.992   3.285   4.074 -0.2716  0.1503 -0.0446
 2972SOL    HW211654   4.040   3.360   4.039 -1.3693  0.9402  0.0878
 2972SOL    HW311655   3.974   3.309   4.165 -0.5483 -0.3295  0.0297
 2972SOL    MW411656   3.996   3.298   4.082 -0.4530  0.1912 -0.0173
 2973SOL     OW11657   2.271   0.111   3.328  0.0234  0.5102  0.2325
 2973SOL    HW211658   2.294   0.082   3.240 -2.1961  0.5347 -0.4171
 2973SOL    HW311659   2.279   0.032   3.382 -2.6434 -0.6094 -0.8499
 2973SOL    MW411660   2.275   0.097   3.324 -0.6213  0.3657  0.0040
 2974SOL     OW11661   1.344   3.728   3.147  0.3314 -0.5390 -0.0090
 2974SOL    HW211662   1.433   3.725   3.112  0.2197 -0.0044 -0.3458
 2974SOL    HW311663   1.320   3.636   3.159  0.1661 -0.7817 -1.8910
 2974SOL    MW411664   1.353   3.715   3.144  0.2949 -0.5005 -0.3017
 2975SOL     OW11665   3.556   1.132   3.951  0.4642 -0.5301 -0.0698
 2975SOL    HW211666   3.514   1.157   3.869  0.1309 -2.9695 -0.7253
 2975SOL    HW311667   3.541   1.206   4.010  0.1531  1.0038 -1.9854
 2975SOL    MW411668   3.549   1.145   3.948  0.3792 -0.6496 -0.4090
 2976SOL     OW11669   3.551   4.420   3.220 -0.3423  0.1691  0.4883
 2976SOL    HW211670   3.545   4.509   3.255 -2.4078 -0.1256  1.0072
 2976SOL    HW311671   3.624   4.380   3.267  1.1285  1.7968 -0.3072
 2976SOL    MW411672   3.560   4.427   3.231 -0.4207  0.3450  0.4518
 2977SOL     OW11673   5.413   1.178   0.645 -0.2085 -0.2943  0.1178
 2977SOL    HW211674   5.506   1.181   0.668  0.1631  1.6361 -1.3902
 2977SOL    HW311675   5.368   1.220   0.718  0.3593  0.7300 -0.1056
 2977SOL    MW411676   5.419   1.184   0.657 -0.0846  0.0955 -0.1107
 2978SOL     OW11677   3.928   6.011   0.841  0.9569  0.0875 -0.2061
 2978SOL    HW211678   3.967   6.091   0.804 -1.4163  1.3404 -0.1733
 2978SOL    HW311679   4.000   5.969   0.889  2.0965  2.5887  0.4196
 2978SOL    MW411680   3.943   6.016   0.842  0.7941  0.5828 -0.1192
 2979SOL     OW11681   4.518   6.092   3.338 -0.4061 -0.2133  0.1516
 2979SOL    HW211682   4.584   6.024   3.327  0.5165  0.5849  0.6651
 2979SOL    HW311683   4.447   6.049   3.386 -0.5702 -1.2555 -0.9889
 2979SOL    MW411684   4.517   6.077   3.343 -0.3060 -0.2455  0.0689
 2980SOL     OW11685   1.881   1.872   2.519  0.0705 -0.1039 -0.1196
 2980SOL    HW211686   1.886   1.861   2.614  0.1145  2.1584  0.1882
 2980SOL    HW311687   1.969   1.897   2.492 -0.4044  1.3408 -0.4161
 2980SOL    MW411688   1.893   1.874   2.528  0.0137  0.3852 -0.1181
 2981SOL     OW11689   2.974   5.521   3.461  0.4457 -0.2183 -0.0290
 2981SOL    HW211690   3.034   5.557   3.526  0.1008 -0.3018  0.3425
 2981SOL    HW311691   2.895   5.501   3.511 -0.0994  0.4252 -0.6125
 2981SOL    MW411692   2.972   5.523   3.476  0.3282 -0.1444 -0.0570
 2982SOL     OW11693   1.924   3.024   3.716 -0.7091  0.1826 -0.5762
 2982SOL    HW211694   1.848   3.073   3.748 -1.8430 -1.3933 -0.6848
 2982SOL    HW311695   1.994   3.088   3.709 -1.8367  1.5507  0.2364
 2982SOL    MW411696   1.923   3.039   3.719 -1.0075  0.1552 -0.4833
 2983SOL     OW11697   5.298   1.590   5.946 -0.3168  0.6984 -0.5171
 2983SOL    HW211698   5.376   1.536   5.960  0.4362  1.6080 -1.0231
 2983SOL    HW311699   5.305   1.659   6.012 -0.4376  1.0497 -0.8644
 2983SOL    MW411700   5.309   1.592   5.957 -0.2334  0.8648 -0.6297
 2984SOL     OW11701   3.694   3.094   5.754 -0.7401  0.5520  1.0635
 2984SOL    HW211702   3.669   3.154   5.825  0.8516 -1.4595  3.5249
 2984SOL    HW311703   3.688   3.007   5.794  0.1563 -0.6884 -1.3319
 2984SOL    MW411704   3.690   3.090   5.769 -0.4118  0.1229  1.0722
 2985SOL     OW11705   4.131   0.623   5.888 -0.4620 -0.1341  0.1727
 2985SOL    HW211706   4.074   0.689   5.926 -1.6870 -1.6990  1.1849
 2985SOL    HW311707   4.103   0.616   5.797 -1.8771 -0.8360  0.6394
 2985SOL    MW411708   4.120   0.631   5.881 -0.8103 -0.4332  0.3679
 2986SOL     OW11709   4.822   1.459   0.698  0.3405  0.4331 -0.0918
 2986SOL    HW211710   4.853   1.485   0.785 -0.4711  0.0055  0.3383
 2986SOL    HW311711   4.746   1.516   0.682 -0.1372 -0.1882 -0.0700
 2986SOL    MW411712   4.816   1.470   0.708  0.1704  0.2947 -0.0322
 2987SOL     OW11713   1.727   2.461   6.146  0.1241 -0.7708  0.1775
 2987SOL    HW211714   1.796   2.510   6.101  0.6793 -2.2027 -0.5797
 2987SOL    HW311715   1.703   2.517   6.220 -0.4789  1.4381 -1.5555
 2987SOL    MW411716   1.733   2.475   6.150  0.1178 -0.6683 -0.1510
 2988SOL     OW11717   4.843   3.372   2.001  0.4810  0.1895 -0.0925
 2988SOL    HW211718   4.833   3.466   2.015 -2.1055 -0.0908  0.3333
 2988SOL    HW311719   4.835   3.362   1.906 -0.4151  0.3103 -0.0403
 2988SOL    MW411720   4.841   3.383   1.990  0.0215  0.1685 -0.0294
 2989SOL     OW11721   5.518   3.178   5.779 -0.0144 -0.0454 -0.0620
 2989SOL    HW211722   5.472   3.188   5.862  1.9535 -0.9209  1.2230
 2989SOL    HW311723   5.496   3.089   5.750 -0.9418  0.3688 -0.6530
 2989SOL    MW411724   5.509   3.167   5.786  0.1229 -0.1063  0.0296
 2990SOL     OW11725   6.097   1.524   3.295 -0.3977  0.3867 -0.0165
 2990SOL    HW211726   6.190   1.538   3.311 -0.5951  1.7607 -0.0217
 2990SOL    HW311727   6.052   1.576   3.362 -1.1667  1.8220 -1.5746
 2990SOL    MW411728   6.103   1.532   3.306 -0.5252  0.7573 -0.2227
 2991SOL     OW11729   6.041   2.090   1.525  0.3568  0.4718 -0.0001
 2991SOL    HW211730   6.086   2.158   1.475  1.3554 -0.5679 -0.5306
 2991SOL    HW311731   6.048   2.011   1.471  0.5468 -0.4228  1.2977
 2991SOL    MW411732   6.048   2.089   1.511  0.5136  0.2166  0.1012
 2992SOL     OW11733   5.493   5.399   0.956  0.2284 -0.1421  0.2750
 2992SOL    HW211734   5.444   5.372   1.033  1.9867 -2.0091  0.8480
 2992SOL    HW311735   5.441   5.367   0.882 -0.3629 -0.3666  0.7790
 2992SOL    MW411736   5.480   5.391   0.956  0.3824 -0.4181  0.4171
 2993SOL     OW11737   1.384   5.713   6.226  0.1361 -0.1358 -0.1942
 2993SOL    HW211738   1.450   5.749   6.166  1.6612  1.2894  2.1405
 2993SOL    HW311739   1.302   5.754   6.199  1.1217  1.9980 -0.1588
 2993SOL    MW411740   1.382   5.723   6.214  0.4673  0.3337  0.1185
 2994SOL     OW11741   1.684   4.160   2.646  0.2579  0.0570  0.7860
 2994SOL    HW211742   1.621   4.136   2.714 -1.0997  1.1055 -0.0343
 2994SOL    HW311743   1.646   4.125   2.565  1.5067 -0.5918  0.4518
 2994SOL    MW411744   1.671   4.152   2.644  0.2435  0.1097  0.6337
 2995SOL     OW11745   4.961   2.798   5.524  0.7193 -0.1629  0.1094
 2995SOL    HW211746   4.890   2.846   5.567  0.6500  0.9435 -1.1933
 2995SOL    HW311747   5.024   2.781   5.595 -0.8740 -1.3321  1.3282
 2995SOL    MW411748   4.960   2.802   5.539  0.4999 -0.1712  0.0983
 2996SOL     OW11749   2.075   2.083   1.573  0.0999  0.7566 -0.1255
 2996SOL    HW211750   2.046   2.164   1.616 -1.1063  0.4117 -0.2672
 2996SOL    HW311751   2.151   2.055   1.624 -0.4373  1.1250  0.8907
 2996SOL    MW411752   2.081   2.090   1.585 -0.1301  0.7597 -0.0101
 2997SOL     OW11753   1.928   1.367   1.231 -0.2424 -0.1055  0.4710
 2997SOL    HW211754   1.964   1.285   1.264  0.4371 -0.1977 -0.4781
 2997SOL    HW311755   1.997   1.403   1.176 -0.1510  1.5691  1.5859
 2997SOL    MW411756   1.942   1.361   1.228 -0.1407  0.1032  0.4929
 2998SOL     OW11757   4.737   5.342   3.460  0.0850 -1.0666 -0.1031
 2998SOL    HW211758   4.689   5.409   3.412  1.2180  0.1546  0.4218
 2998SOL    HW311759   4.763   5.279   3.392 -0.6953 -0.8082 -0.6587
 2998SOL    MW411760   4.734   5.342   3.444  0.1315 -0.8714 -0.1071
 2999SOL     OW11761   3.867   0.527   5.295  0.0850  0.2274  0.0544
 2999SOL    HW211762   3.933   0.497   5.232 -1.3069  1.7078 -2.2575
 2999SOL    HW311763   3.869   0.622   5.289 -0.9391  0.3640  1.4065
 2999SOL    MW411764   3.876   0.535   5.286 -0.2338  0.4407 -0.0722
 3000SOL     OW11765   1.827   5.701   5.172 -0.1394  0.1169 -0.0536
 3000SOL    HW211766   1.731   5.709   5.168 -0.2339 -0.9547 -0.5839
 3000SOL    HW311767   1.858   5.789   5.188 -1.2233  0.4947  0.0845
 3000SOL    MW411768   1.818   5.713   5.173 -0.2948  0.0254 -0.1053
 3001SOL     OW11769   3.111   1.845   4.441 -0.3995  0.2004  0.0586
 3001SOL    HW211770   3.035   1.794   4.469 -1.1277  1.4034  0.3513
 3001SOL    HW311771   3.184   1.813   4.494 -1.0029 -0.0264  0.7634
 3001SOL    MW411772   3.111   1.834   4.451 -0.5752  0.3292  0.1902
 3002SOL     OW11773   3.367   1.322   3.091  0.2074 -0.3679  0.4162
 3002SOL    HW211774   3.360   1.231   3.119 -2.8778 -0.3374  0.1059
 3002SOL    HW311775   3.357   1.373   3.171 -1.3527 -0.3370  0.2365
 3002SOL    MW411776   3.365   1.317   3.105 -0.4055 -0.3598  0.3515
 3003SOL     OW11777   4.121   4.096   3.941  0.1160  0.0016  0.2234
 3003SOL    HW211778   4.100   4.098   4.035  0.5629  4.1340  0.4301
 3003SOL    HW311779   4.038   4.071   3.900 -0.0300 -2.1413  1.6545
 3003SOL    MW411780   4.107   4.093   3.948  0.1557  0.2641  0.4395
 3004SOL     OW11781   0.691   2.713   3.292  0.0096  0.3242 -0.3741
 3004SOL    HW211782   0.702   2.622   3.264  0.0131 -0.0694  0.8472
 3004SOL    HW311783   0.769   2.758   3.259  2.4978 -1.1208  2.9420
 3004SOL    MW411784   0.703   2.707   3.284  0.3383  0.0816  0.2246
 3005SOL     OW11785   4.206   0.525   1.500  0.0754 -0.3293  0.3972
 3005SOL    HW211786   4.136   0.565   1.447 -0.2408  1.0161  1.7670
 3005SOL    HW311787   4.273   0.594   1.507  0.7615 -1.0048  0.5389
 3005SOL    MW411788   4.205   0.540   1.494  0.1242 -0.2409  0.5967
 3006SOL     OW11789   5.264   3.997   0.869 -0.3809 -0.5418 -0.1420
 3006SOL    HW211790   5.246   4.090   0.883 -0.6128 -0.8025  1.4001
 3006SOL    HW311791   5.350   3.995   0.827 -0.7944  0.4007 -1.0623
 3006SOL    MW411792   5.273   4.009   0.865 -0.4660 -0.4519 -0.0600
 3007SOL     OW11793   4.210   2.883   5.840  0.2368 -0.5681 -0.0714
 3007SOL    HW211794   4.146   2.936   5.887  0.4656 -1.3946  1.2286
 3007SOL    HW311795   4.241   2.820   5.905  1.1436 -1.2569 -1.1359
 3007SOL    MW411796   4.206   2.881   5.855  0.3866 -0.7680 -0.0403
 3008SOL     OW11797   0.351   4.978   6.415 -0.1727 -0.1473 -0.3872
 3008SOL    HW211798   0.282   5.029   6.456  0.3350 -0.4997  0.9579
 3008SOL    HW311799   0.375   4.913   6.481 -0.1351 -1.5005 -1.6942
 3008SOL    MW411800   0.345   4.976   6.429 -0.1007 -0.3723 -0.3822
 3009SOL     OW11801   3.274   4.992   0.322  0.3590 -0.0188  0.3733
 3009SOL    HW211802   3.309   5.082   0.317 -0.2366  0.2616  1.0666
 3009SOL    HW311803   3.219   4.984   0.244  2.0630 -0.5252 -0.8266
 3009SOL    MW411804   3.272   5.003   0.311  0.5052 -0.0486  0.3065
 3010SOL     OW11805   3.036   2.700   4.894 -0.2756  0.3596 -0.2815
 3010SOL    HW211806   2.959   2.671   4.944  0.5790 -1.3491  0.1315
 3010SOL    HW311807   3.010   2.785   4.858 -2.6737 -0.5138 -0.8567
 3010SOL    MW411808   3.022   2.707   4.896 -0.4792  0.0189 -0.3029
 3011SOL     OW11809   4.998   5.566   4.820  0.3046 -0.0691 -0.0082
 3011SOL    HW211810   5.056   5.514   4.765  0.4049 -3.4966  2.9414
 3011SOL    HW311811   4.958   5.502   4.880 -1.9447  2.9336  2.0152
 3011SOL    MW411812   5.000   5.550   4.821  0.0210 -0.1251  0.6480
 3012SOL     OW11813   6.127   2.927   5.561  0.4980 -0.2311  0.0263
 3012SOL    HW211814   6.166   2.887   5.638 -0.6948 -0.1001  0.7217
 3012SOL    HW311815   6.201   2.940   5.501  1.5032 -0.0134  1.2658
 3012SOL    MW411816   6.142   2.923   5.563  0.4733 -0.1851  0.2816
 3013SOL     OW11817   2.995   0.524   5.743 -0.0403 -0.0897  0.0098
 3013SOL    HW211818   2.975   0.575   5.822 -0.1495  0.4780 -0.3768
 3013SOL    HW311819   2.919   0.466   5.733 -0.5876  0.6792 -0.3459
 3013SOL    MW411820   2.982   0.523   5.752 -0.1269  0.0867 -0.0881
 3014SOL     OW11821   0.729   6.107   3.591  0.1002 -0.4217  0.2590
 3014SOL    HW211822   0.758   6.165   3.520  1.1459 -1.8621 -0.5267
 3014SOL    HW311823   0.708   6.025   3.548 -1.8681 -0.5076  1.3033
 3014SOL    MW411824   0.730   6.104   3.576 -0.0215 -0.6231  0.2931
 3015SOL     OW11825   0.436   0.962   3.378  0.0549  0.2843 -0.1399
 3015SOL    HW211826   0.384   1.010   3.313 -2.0399 -0.5006  0.8600
 3015SOL    HW311827   0.513   1.016   3.391 -1.2069  2.3135 -0.6077
 3015SOL    MW411828   0.439   0.976   3.371 -0.3879  0.4485 -0.0697
 3016SOL     OW11829   3.925   0.505   4.920 -0.5250 -0.3554 -0.1663
 3016SOL    HW211830   3.904   0.444   4.990  0.8466 -1.1415 -0.3979
 3016SOL    HW311831   4.006   0.471   4.882  1.1975  2.4556  0.6821
 3016SOL    MW411832   3.933   0.492   4.924 -0.1168 -0.0882 -0.0849
 3017SOL     OW11833   2.176   1.381   5.287  0.4331  0.6493  0.5679
 3017SOL    HW211834   2.088   1.344   5.281  1.2184 -1.5800  1.5763
 3017SOL    HW311835   2.214   1.338   5.364  2.4713  1.4005  0.0315
 3017SOL    MW411836   2.169   1.370   5.297  0.8056  0.4543  0.6302
 3018SOL     OW11837   3.658   2.188   3.006  0.0235  0.2175 -0.0952
 3018SOL    HW211838   3.610   2.119   3.052 -0.9950  0.6784 -0.4350
 3018SOL    HW311839   3.647   2.265   3.061  2.1935 -0.1355  0.9179
 3018SOL    MW411840   3.650   2.189   3.019  0.1754  0.2318 -0.0064
 3019SOL     OW11841   5.288   3.959   5.872  0.9350  0.1653 -0.2324
 3019SOL    HW211842   5.242   4.035   5.909  0.0722 -0.3304 -0.2504
 3019SOL    HW311843   5.381   3.981   5.879  0.7118  1.0064  0.2236
 3019SOL    MW411844   5.294   3.972   5.878  0.7917  0.2109 -0.1746
 3020SOL     OW11845   5.950   6.119   1.450  0.5064  0.3360  0.4347
 3020SOL    HW211846   5.886   6.132   1.521  1.4724 -1.3937  1.7002
 3020SOL    HW311847   6.029   6.087   1.494  0.8809 -1.6435 -1.4787
 3020SOL    MW411848   5.952   6.116   1.465  0.6832 -0.1534  0.3492
 3021SOL     OW11849   4.129   0.008   3.032 -0.2222  0.0821  0.3399
 3021SOL    HW211850   4.060   0.014   2.966 -0.7609 -0.5535  0.8276
 3021SOL    HW311851   4.210  -0.004   2.982 -0.8594 -2.5950 -0.2280
 3021SOL    MW411852   4.131   0.007   3.017 -0.3773 -0.3550  0.3293
 3022SOL     OW11853   5.772   0.238   4.740 -0.0505 -0.1004 -0.7584
 3022SOL    HW211854   5.690   0.251   4.693  1.2196  0.2704 -2.9938
 3022SOL    HW311855   5.749   0.253   4.832 -2.3949  0.3315 -1.3455
 3022SOL    MW411856   5.758   0.242   4.746 -0.1923  0.0055 -1.1308
 3023SOL     OW11857   3.684   5.751   5.460  0.0062 -0.1836  0.2396
 3023SOL    HW211858   3.636   5.693   5.519 -0.0124  0.2977  0.7139
 3023SOL    HW311859   3.709   5.826   5.516  4.9142 -2.1504  1.2137
 3023SOL    MW411860   3.681   5.753   5.475  0.6513 -0.3796  0.4307
 3024SOL     OW11861   1.402   4.121   2.285  0.4194 -0.4681  0.2606
 3024SOL    HW211862   1.400   4.198   2.342  0.6872 -0.9344  0.9198
 3024SOL    HW311863   1.484   4.077   2.307  0.0475 -1.1906  0.2364
 3024SOL    MW411864   1.413   4.125   2.296  0.4057 -0.6250  0.3444
 3025SOL     OW11865   1.988   6.038   4.907  0.1156  0.7169 -0.0035
 3025SOL    HW211866   1.956   5.949   4.895 -0.8075  0.9928  0.3492
 3025SOL    HW311867   2.071   6.040   4.858  1.0926 -0.8382  1.4653
 3025SOL    MW411868   1.995   6.027   4.899  0.1227  0.5481  0.2368
 3026SOL     OW11869   5.903   5.253   0.579 -0.2721 -0.4290  0.1186
 3026SOL    HW211870   5.987   5.300   0.584 -0.1479 -0.4541 -1.2487
 3026SOL    HW311871   5.870   5.273   0.492 -1.0540 -1.4993  0.1503
 3026SOL    MW411872   5.910   5.262   0.568 -0.3589 -0.5735 -0.0576
 3027SOL     OW11873   0.642   1.573   1.970  0.3419 -0.2515  0.0224
 3027SOL    HW211874   0.589   1.518   1.912  0.5449  0.8332 -1.2213
 3027SOL    HW311875   0.701   1.621   1.912  0.2763  1.1775  1.0710
 3027SOL    MW411876   0.643   1.572   1.955  0.3600  0.0802 -0.0034
 3028SOL     OW11877   0.904   2.461   1.458 -0.4220  0.2170 -0.4405
 3028SOL    HW211878   0.815   2.477   1.425 -0.6553  1.2509  0.6254
 3028SOL    HW311879   0.891   2.426   1.546  0.2018 -2.1917 -1.2168
 3028SOL    MW411880   0.890   2.458   1.465 -0.3704  0.0356 -0.4023
 3029SOL     OW11881   0.673   2.235   2.385 -0.3387 -0.0011  0.5935
 3029SOL    HW211882   0.654   2.231   2.292  0.3452 -0.1731  0.4598
 3029SOL    HW311883   0.764   2.209   2.393 -0.6327 -0.8438  1.4046
 3029SOL    MW411884   0.682   2.231   2.374 -0.2873 -0.1350  0.6829
 3030SOL     OW11885   5.048   5.522   0.704  0.2770 -0.1873  0.4404
 3030SOL    HW211886   5.022   5.472   0.781  2.5121 -0.6638  0.9452
 3030SOL    HW311887   5.033   5.463   0.631  0.8150 -0.7908  0.8118
 3030SOL    MW411888   5.042   5.508   0.705  0.6428 -0.3298  0.5560
 3031SOL     OW11889   1.377   4.316   1.095  0.2099  0.5866  0.0942
 3031SOL    HW211890   1.393   4.232   1.051 -2.2789  0.5569 -0.9527
 3031SOL    HW311891   1.458   4.335   1.141  0.8964 -2.3770  0.3348
 3031SOL    MW411892   1.389   4.307   1.095 -0.0279  0.1916 -0.0122
 3032SOL     OW11893   1.069   5.784   0.657 -0.1792 -0.0064 -0.5345
 3032SOL    HW211894   1.024   5.783   0.572 -2.4742 -0.4553  0.6150
 3032SOL    HW311895   1.002   5.756   0.720  1.2861  0.9062  1.5232
 3032SOL    MW411896   1.054   5.780   0.654 -0.2886  0.0548 -0.1114
 3033SOL     OW11897   3.353   6.055   3.268  0.1638 -0.1731 -0.0124
 3033SOL    HW211898   3.344   6.142   3.306  0.4308 -0.0547 -0.2191
 3033SOL    HW311899   3.369   6.071   3.175 -4.2389 -0.4861 -1.0467
 3033SOL    MW411900   3.354   6.068   3.261 -0.3818 -0.1988 -0.1761
 3034SOL     OW11901   1.415   4.163   5.687 -0.2144 -0.3216 -0.6463
 3034SOL    HW211902   1.491   4.156   5.629  0.1193 -1.5974 -0.0938
 3034SOL    HW311903   1.393   4.256   5.687  1.0365 -0.0080 -1.2103
 3034SOL    MW411904   1.422   4.174   5.679 -0.0053 -0.4485 -0.6478
 3035SOL     OW11905   2.657   1.228   4.522  0.0405 -0.0298 -0.1790
 3035SOL    HW211906   2.654   1.133   4.509  0.5157 -0.0733  0.0250
 3035SOL    HW311907   2.624   1.264   4.440  1.2347 -0.3417 -0.8201
 3035SOL    MW411908   2.652   1.220   4.510  0.2608 -0.0767 -0.2367
 3036SOL     OW11909   6.009   4.084   1.576  0.4024  0.2693 -0.0549
 3036SOL    HW211910   6.100   4.056   1.584  0.8977  1.7379 -0.3919
 3036SOL    HW311911   5.980   4.097   1.667  0.6631  0.2549  0.0305
 3036SOL    MW411912   6.017   4.082   1.589  0.5021  0.4612 -0.0881
 3037SOL     OW11913   5.731   5.779   0.404  0.1325  0.2653  0.0507
 3037SOL    HW211914   5.666   5.849   0.402 -0.3098 -0.1537 -0.4108
 3037SOL    HW311915   5.813   5.823   0.381 -0.5341  0.2310 -2.6953
 3037SOL    MW411916   5.733   5.794   0.401 -0.0138  0.2055 -0.3725
 3038SOL     OW11917   1.049   2.390   5.614 -0.8542  0.1219  0.0818
 3038SOL    HW211918   1.078   2.407   5.704 -0.3106  0.9618 -0.2499
 3038SOL    HW311919   1.021   2.475   5.581 -0.3510 -0.0484 -0.8052
 3038SOL    MW411920   1.049   2.403   5.622 -0.7161  0.2103 -0.0790
 3039SOL     OW11921   6.125   3.470   3.331 -0.2323  0.1554 -0.1882
 3039SOL    HW211922   6.155   3.474   3.421 -0.6473 -0.4363 -0.0172
 3039SOL    HW311923   6.185   3.407   3.289 -0.2622  0.1570 -0.2330
 3039SOL    MW411924   6.137   3.462   3.337 -0.2910  0.0776 -0.1716
 3040SOL     OW11925   1.923   1.754   4.895  0.1053  0.0695  0.0143
 3040SOL    HW211926   1.861   1.729   4.826  0.8163 -0.1560 -0.5562
 3040SOL    HW311927   1.884   1.719   4.976 -0.3739 -0.3085 -0.3738
 3040SOL    MW411928   1.909   1.746   4.897  0.1359 -0.0102 -0.1122
 3041SOL     OW11929   3.979   5.743   6.387 -0.0791 -0.5828  1.0077
 3041SOL    HW211930   4.001   5.829   6.423  0.3515  0.5739 -1.7515
 3041SOL    HW311931   4.064   5.702   6.369 -0.0598  0.5783 -2.2531
 3041SOL    MW411932   3.993   5.749   6.389 -0.0198 -0.2770  0.2135
 3042SOL     OW11933   2.684   4.836   4.552 -0.0626  0.0101 -0.1586
 3042SOL    HW211934   2.728   4.751   4.549 -2.0382 -1.0586 -0.0949
 3042SOL    HW311935   2.653   4.851   4.463  0.3251  0.7074 -0.1828
 3042SOL    MW411936   2.686   4.827   4.540 -0.2721 -0.0389 -0.1534
 3043SOL     OW11937   2.361   5.217   1.712 -0.4923  0.5138 -0.2016
 3043SOL    HW211938   2.368   5.304   1.673 -0.6200  0.3798 -0.5271
 3043SOL    HW311939   2.267   5.204   1.725 -0.4278  0.7324  0.5568
 3043SOL    MW411940   2.349   5.226   1.709 -0.5006  0.5249 -0.1445
 3044SOL     OW11941   5.217   3.831   5.629  0.3699 -0.0870 -0.5076
 3044SOL    HW211942   5.239   3.873   5.712 -2.7172 -0.1371  0.4717
 3044SOL    HW311943   5.160   3.894   5.585  1.0845 -0.5202 -2.1453
 3044SOL    MW411944   5.212   3.845   5.634  0.0569 -0.1508 -0.5945
 3045SOL     OW11945   3.814   5.744   3.495 -0.3285  0.4019  0.2273
 3045SOL    HW211946   3.854   5.716   3.577 -0.0777  0.3628  0.0951
 3045SOL    HW311947   3.721   5.750   3.514 -0.1005  1.9930  0.9614
 3045SOL    MW411948   3.807   5.741   3.508 -0.2654  0.6067  0.3067
 3046SOL     OW11949   1.119   0.528   5.977 -0.1788 -0.2837 -0.0297
 3046SOL    HW211950   1.066   0.552   5.901 -1.5804  0.1086  1.0448
 3046SOL    HW311951   1.060   0.480   6.034  0.6003  0.1805  1.2232
 3046SOL    MW411952   1.104   0.525   5.974 -0.2609 -0.1707  0.2774
 3047SOL     OW11953   2.478   5.900   3.098 -0.3030 -0.2469 -0.2098
 3047SOL    HW211954   2.430   5.967   3.148  0.9070  1.4478 -1.2162
 3047SOL    HW311955   2.473   5.930   3.007  1.3045 -0.8486 -0.5254
 3047SOL    MW411956   2.471   5.913   3.093  0.0687 -0.1026 -0.3842
 3048SOL     OW11957   4.625   6.391   4.293 -0.0674  0.1040  0.0556
 3048SOL    HW211958   4.591   6.379   4.382  2.0807  0.2856  0.9646
 3048SOL    HW311959   4.550   6.372   4.236 -1.3990 -0.4164  1.8750
 3048SOL    MW411960   4.610   6.387   4.298  0.0403  0.0593  0.4156
 3049SOL     OW11961   0.241   2.676   4.603  0.3154 -0.2665 -0.3503
 3049SOL    HW211962   0.189   2.615   4.655  1.6439 -1.7179 -0.6552
 3049SOL    HW311963   0.213   2.762   4.634 -0.3110 -1.0340  1.4036
 3049SOL    MW411964   0.230   2.679   4.614  0.4081 -0.5593 -0.1591
 3050SOL     OW11965   6.176   4.338   5.668 -0.3813 -0.0598 -0.0254
 3050SOL    HW211966   6.194   4.270   5.603 -0.9670  1.3568 -1.7169
 3050SOL    HW311967   6.159   4.289   5.749  2.0320 -1.8142 -0.4625
 3050SOL    MW411968   6.176   4.323   5.670 -0.1402 -0.1044 -0.3062
 3051SOL     OW11969   1.241   3.978   4.994 -0.1294  0.1378 -0.0439
 3051SOL    HW211970   1.263   3.887   4.973  0.1828  0.3129 -0.5143
 3051SOL    HW311971   1.189   3.973   5.073  0.7391 -0.3866  0.5156
 3051SOL    MW411972   1.237   3.965   5.001  0.0264  0.0917 -0.0322
 3052SOL     OW11973   1.237   0.649   1.838 -0.0120  0.1201  0.1051
 3052SOL    HW211974   1.270   0.701   1.911  1.0850 -1.2421  0.6154
 3052SOL    HW311975   1.261   0.700   1.760  1.7120  0.0409  0.5542
 3052SOL    MW411976   1.245   0.663   1.837  0.3602 -0.0701  0.2317
 3053SOL     OW11977   3.542   5.776   1.655  0.1755  0.2399  0.1464
 3053SOL    HW211978   3.536   5.816   1.568 -0.6428  0.2169  0.1866
 3053SOL    HW311979   3.566   5.849   1.713  2.3991 -0.0486 -0.3184
 3053SOL    MW411980   3.544   5.791   1.651  0.3609  0.1988  0.0904
 3054SOL     OW11981   4.665   4.439   2.511  0.2983  0.1676  0.3156
 3054SOL    HW211982   4.589   4.430   2.455  0.0901  1.7808  0.3007
 3054SOL    HW311983   4.740   4.429   2.452  0.0837  0.9092 -0.0933
 3054SOL    MW411984   4.665   4.436   2.496  0.2426  0.4782  0.2597
 3055SOL     OW11985   5.225   6.065   1.087 -0.0882 -0.1242 -0.4785
 3055SOL    HW211986   5.140   6.035   1.118  0.3515 -1.9185 -0.9182
 3055SOL    HW311987   5.205   6.141   1.032 -1.3661 -0.4067 -0.4274
 3055SOL    MW411988   5.211   6.071   1.084 -0.1988 -0.3982 -0.5298
 3056SOL     OW11989   1.634   2.592   3.822 -0.4574 -0.0176 -0.3280
 3056SOL    HW211990   1.655   2.603   3.915 -1.3611 -0.1842 -0.0937
 3056SOL    HW311991   1.553   2.541   3.822 -0.2604 -0.3392 -1.2193
 3056SOL    MW411992   1.626   2.587   3.834 -0.5506 -0.0820 -0.4147
 3057SOL     OW11993   3.338   3.458   5.183  0.1584  0.2554 -0.2888
 3057SOL    HW211994   3.259   3.408   5.161  0.4706 -0.0688 -0.7042
 3057SOL    HW311995   3.377   3.411   5.257 -0.0118  0.3856 -0.1169
 3057SOL    MW411996   3.333   3.445   5.190  0.1771  0.2298 -0.3209
 3058SOL     OW11997   4.577   2.261   1.242 -0.1217  0.6470  0.6482
 3058SOL    HW211998   4.535   2.247   1.157 -0.8746  1.1768  0.9296
 3058SOL    HW311999   4.634   2.337   1.228  0.8091 -0.1076  0.2509
 3058SOL    MW412000   4.579   2.269   1.229 -0.0982  0.6173  0.6329
 3059SOL     OW12001   2.916   0.646   5.980 -0.4637 -0.4565  0.2121
 3059SOL    HW212002   2.873   0.731   5.986 -0.9263 -0.5629 -1.3519
 3059SOL    HW312003   2.980   0.648   6.052  0.8847  1.9991 -0.9032
 3059SOL    MW412004   2.919   0.658   5.990 -0.3468 -0.1466 -0.1414
 3060SOL     OW12005   5.027   3.828   2.446 -0.1760  0.2392 -0.1648
 3060SOL    HW212006   5.084   3.836   2.522  0.5572 -0.6885 -0.5941
 3060SOL    HW312007   5.052   3.745   2.405 -0.3235  0.8614 -1.6034
 3060SOL    MW412008   5.037   3.818   2.450 -0.0987  0.1989 -0.4113
 3061SOL     OW12009   5.939   1.255   2.868  0.0595 -0.2848 -0.4248
 3061SOL    HW212010   5.971   1.342   2.893 -0.6171 -0.6713  2.0755
 3061SOL    HW312011   5.847   1.255   2.893  0.1350 -1.8156 -0.0311
 3061SOL    MW412012   5.931   1.266   2.874 -0.0198 -0.5378 -0.0430
 3062SOL     OW12013   5.121   2.324   0.729 -0.4509  0.1918 -0.2148
 3062SOL    HW212014   5.095   2.416   0.733  1.2242  0.8292 -2.2051
 3062SOL    HW312015   5.204   2.321   0.778  0.0425 -0.0114 -1.0427
 3062SOL    MW412016   5.129   2.335   0.736 -0.1648  0.2491 -0.5866
 3063SOL     OW12017   6.140   2.355   0.950  0.4569  0.0322  0.9516
 3063SOL    HW212018   6.226   2.360   0.990  0.8141  0.9770  0.1092
 3063SOL    HW312019   6.081   2.391   1.017  0.6101 -1.1037  1.7357
 3063SOL    MW412020   6.143   2.361   0.964  0.5242  0.0070  0.9439
 3064SOL     OW12021   4.140   5.927   0.179 -0.1849  0.1861  0.4495
 3064SOL    HW212022   4.078   5.973   0.235  0.0142  0.9129  0.0802
 3064SOL    HW312023   4.216   5.985   0.174  0.6555 -0.7981  1.1130
 3064SOL    MW412024   4.142   5.941   0.186 -0.0478  0.1521  0.4883
 3065SOL     OW12025   0.668   6.387   6.024  0.1250 -0.3705  0.2233
 3065SOL    HW212026   0.753   6.373   6.066 -0.0122  1.0507  1.0246
 3065SOL    HW312027   0.604   6.377   6.095 -0.2136  0.6412  0.0748
 3065SOL    MW412028   0.671   6.384   6.039  0.0622 -0.0495  0.3095
 3066SOL     OW12029   3.824   1.646   0.998  0.6433 -0.6156 -0.4989
 3066SOL    HW212030   3.761   1.576   1.014  0.9319 -0.8516 -0.4054
 3066SOL    HW312031   3.785   1.722   1.042 -0.4034 -0.3261 -1.8397
 3066SOL    MW412032   3.810   1.647   1.006  0.5433 -0.6085 -0.6635
 3067SOL     OW12033   5.999   0.256   0.332 -0.0534 -0.1222  0.0159
 3067SOL    HW212034   5.992   0.288   0.422 -0.4081  0.3387 -0.1723
 3067SOL    HW312035   6.083   0.211   0.329  0.0750  0.0803  0.5101
 3067SOL    MW412036   6.009   0.254   0.343 -0.0833 -0.0346  0.0563
 3068SOL     OW12037   3.145   6.195   1.789  0.0990 -0.6328  1.1298
 3068SOL    HW212038   3.095   6.263   1.835 -0.3922  1.3783 -2.0907
 3068SOL    HW312039   3.084   6.122   1.781 -1.1825  0.4731  0.3066
 3068SOL    MW412040   3.131   6.194   1.794 -0.1349 -0.2215  0.5962
 3069SOL     OW12041   0.677   5.263   0.956 -0.7863  0.2332 -0.3949
 3069SOL    HW212042   0.772   5.270   0.969 -0.9806  3.3152  0.1606
 3069SOL    HW312043   0.664   5.287   0.864 -1.0020 -1.1904 -0.7625
 3069SOL    MW412044   0.688   5.267   0.946 -0.8404  0.4520 -0.3701
 3070SOL     OW12045   5.334   1.286   4.179  0.2356 -0.8484  0.4487
 3070SOL    HW212046   5.348   1.379   4.197 -0.9844 -0.5637  0.0241
 3070SOL    HW312047   5.390   1.267   4.104 -1.2238  0.1506 -0.9648
 3070SOL    MW412048   5.343   1.296   4.172 -0.1179 -0.6791  0.2062
 3071SOL     OW12049   2.692   2.772   3.915 -0.0305 -0.2241  0.4919
 3071SOL    HW212050   2.739   2.838   3.966  0.1980 -0.9679  1.2788
 3071SOL    HW312051   2.631   2.822   3.861  0.2676  0.6396  0.9373
 3071SOL    MW412052   2.690   2.787   3.915  0.0390 -0.2083  0.6545
 3072SOL     OW12053   2.217   2.997   5.163  0.6461 -0.3818 -0.1565
 3072SOL    HW212054   2.164   3.063   5.207  1.2387  0.0713 -0.1178
 3072SOL    HW312055   2.179   2.913   5.192 -2.1281 -0.1208 -2.6251
 3072SOL    MW412056   2.205   2.994   5.173  0.3583 -0.2875 -0.4771
 3073SOL     OW12057   6.016   6.353   4.536 -0.1876  0.4207  0.3833
 3073SOL    HW212058   6.089   6.291   4.538  0.8830  1.6644  1.4516
 3073SOL    HW312059   6.056   6.437   4.556 -1.3556  1.7593 -2.3721
 3073SOL    MW412060   6.031   6.356   4.539 -0.2005  0.7614  0.1607
 3074SOL     OW12061   5.920   5.675   2.398 -0.0310  0.2409 -0.1061
 3074SOL    HW212062   5.927   5.761   2.358 -0.9773  0.1953 -0.4081
 3074SOL    HW312063   5.832   5.674   2.437  1.0337  0.4717  2.4502
 3074SOL    MW412064   5.909   5.686   2.398 -0.0154  0.2653  0.1914
 3075SOL     OW12065   0.860   1.871   5.743  0.3973 -0.2731 -0.1227
 3075SOL    HW212066   0.821   1.890   5.658  1.9679 -1.9143 -1.2999
 3075SOL    HW312067   0.931   1.934   5.752  1.4995 -1.3325 -1.0151
 3075SOL    MW412068   0.864   1.882   5.733  0.7500 -0.6294 -0.3958
 3076SOL     OW12069   5.958   4.884   6.194 -0.3481 -0.0895 -0.2851
 3076SOL    HW212070   5.984   4.959   6.140 -0.3787  0.4478  0.4308
 3076SOL    HW312071   5.891   4.840   6.142  0.4585 -0.2618 -1.2011
 3076SOL    MW412072   5.953   4.888   6.180 -0.2457 -0.0414 -0.3115
 3077SOL     OW12073   5.290   4.042   4.775 -0.3386  0.4304 -0.5641
 3077SOL    HW212074   5.211   4.012   4.821 -0.9435  0.6677 -1.4238
 3077SOL    HW312075   5.323   3.964   4.731  0.3133  0.1736  0.3515
 3077SOL    MW412076   5.284   4.028   4.775 -0.3324  0.4278 -0.5567
 3078SOL     OW12077   2.729   4.475   5.751  0.4718 -0.6155 -0.1955
 3078SOL    HW212078   2.764   4.425   5.825  3.2293  1.7085  0.2187
 3078SOL    HW312079   2.785   4.450   5.677 -0.4352 -0.7735 -0.8432
 3078SOL    MW412080   2.741   4.465   5.751  0.7159 -0.3297 -0.2263
 3079SOL     OW12081   0.260   0.497   4.460  0.2633  0.1431  0.3793
 3079SOL    HW212082   0.279   0.449   4.541  2.3739  0.5620  0.1879
 3079SOL    HW312083   0.289   0.438   4.390 -2.6339 -0.7134 -0.1998
 3079SOL    MW412084   0.267   0.483   4.461  0.1595  0.0853  0.2776
 3080SOL     OW12085   6.178   2.444   5.608  0.5337 -0.1452  0.2168
 3080SOL    HW212086   6.178   2.377   5.676 -0.8014  0.5903  0.9800
 3080SOL    HW312087   6.088   2.446   5.576  0.9091  0.2464 -0.8509
 3080SOL    MW412088   6.166   2.435   5.613  0.4071  0.0035  0.1766
 3081SOL     OW12089   5.181   4.952   1.385  0.0148  0.2192 -0.5704
 3081SOL    HW212090   5.242   5.026   1.383 -2.2496  2.1853 -0.9884
 3081SOL    HW312091   5.184   4.916   1.296  0.6643  0.1926 -0.5430
 3081SOL    MW412092   5.190   4.957   1.373 -0.1982  0.4751 -0.6220
 3082SOL     OW12093   4.428   2.205   3.676 -0.3057 -0.0707  0.7071
 3082SOL    HW212094   4.392   2.119   3.652 -2.2855  0.8099  0.3136
 3082SOL    HW312095   4.393   2.221   3.764 -1.3591  1.0149  0.1260
 3082SOL    MW412096   4.419   2.196   3.685 -0.7059  0.1887  0.5785
 3083SOL     OW12097   2.328   0.998   5.950 -0.1468 -0.5979 -0.1054
 3083SOL    HW212098   2.246   0.975   5.905 -0.6658 -0.1052  0.5741
 3083SOL    HW312099   2.395   0.948   5.903 -0.7282 -0.4294 -1.1517
 3083SOL    MW412100   2.326   0.988   5.937 -0.2920 -0.5107 -0.1538
 3084SOL     OW12101   5.204   5.523   1.086  0.0455  0.5793  0.2037
 3084SOL    HW212102   5.260   5.456   1.125  1.2153  1.1318 -0.4652
 3084SOL    HW312103   5.247   5.606   1.109  0.0173  0.9735 -1.0768
 3084SOL    MW412104   5.217   5.525   1.094  0.1961  0.7042 -0.0535
 3085SOL     OW12105   5.320   0.299   2.015  0.9958 -0.0424 -0.4035
 3085SOL    HW212106   5.257   0.334   2.077  0.3501 -0.4456 -0.8247
 3085SOL    HW312107   5.366   0.230   2.063  0.1489 -0.7015 -0.5143
 3085SOL    MW412108   5.318   0.295   2.029  0.7988 -0.1825 -0.4737
 3086SOL     OW12109   3.320   1.083   4.158 -0.0461  0.0547  0.8600
 3086SOL    HW212110   3.249   1.105   4.219 -1.5791  1.0973 -1.1599
 3086SOL    HW312111   3.373   1.163   4.154 -0.6197  0.4151  0.0248
 3086SOL    MW412112   3.317   1.097   4.165 -0.3240  0.2398  0.4833
 3087SOL     OW12113   2.123   4.851   0.847 -0.0814 -0.4931 -0.1911
 3087SOL    HW212114   2.140   4.757   0.853  2.3478 -0.1236  0.0267
 3087SOL    HW312115   2.147   4.874   0.757  1.3790  0.2055  0.3382
 3087SOL    MW412116   2.129   4.842   0.836  0.4318 -0.3522 -0.0926
 3088SOL     OW12117   4.731   2.482   5.756 -0.3974  0.9556 -0.4938
 3088SOL    HW212118   4.801   2.443   5.704 -0.8182  0.7256 -0.9037
 3088SOL    HW312119   4.775   2.518   5.833  0.0690  0.1423 -0.3658
 3088SOL    MW412120   4.746   2.482   5.759 -0.3914  0.8180 -0.5310
 3089SOL     OW12121   4.746   4.129   4.153  0.1621 -0.3496  0.0524
 3089SOL    HW212122   4.771   4.191   4.221 -0.2202 -0.5424  0.3768
 3089SOL    HW312123   4.761   4.043   4.192  0.0131 -0.4601 -0.1318
 3089SOL    MW412124   4.751   4.126   4.167  0.0920 -0.3896  0.0709
 3090SOL     OW12125   0.572   5.468   2.713 -0.0333 -0.5583  0.1002
 3090SOL    HW212126   0.518   5.392   2.734  1.6787 -1.1777  2.7897
 3090SOL    HW312127   0.635   5.436   2.648 -0.2295 -1.0174  0.1337
 3090SOL    MW412128   0.573   5.454   2.707  0.1667 -0.7006  0.4595
 3091SOL     OW12129   3.280   0.277   2.162 -0.4401 -0.3803 -0.0521
 3091SOL    HW212130   3.250   0.296   2.251 -0.6906  0.5746 -0.3329
 3091SOL    HW312131   3.199   0.263   2.112 -0.3151 -0.4077 -0.2475
 3091SOL    MW412132   3.265   0.277   2.167 -0.4567 -0.2579 -0.1149
 3092SOL     OW12133   2.849   5.483   3.733 -0.0336 -0.0148  0.3914
 3092SOL    HW212134   2.762   5.499   3.696 -0.5629  1.2019  2.0003
 3092SOL    HW312135   2.838   5.406   3.788  0.3597 -0.8726 -0.6916
 3092SOL    MW412136   2.836   5.475   3.735 -0.0515  0.0326  0.4608
 3093SOL     OW12137   3.520   0.153   0.387 -0.5400 -0.0687  0.3214
 3093SOL    HW212138   3.480   0.108   0.312  1.0629 -0.5751 -0.2748
 3093SOL    HW312139   3.521   0.086   0.456 -0.0037 -0.3128  0.0814
 3093SOL    MW412140   3.515   0.138   0.386 -0.2578 -0.1677  0.2111
 3094SOL     OW12141   1.432   0.147   0.038 -0.4579  0.4366  0.6665
 3094SOL    HW212142   1.449   0.128  -0.054 -0.2389 -0.9316  0.9784
 3094SOL    HW312143   1.479   0.230   0.054  1.2918 -0.3903  0.0740
 3094SOL    MW412144   1.441   0.156   0.028 -0.1982  0.1470  0.6294
 3095SOL     OW12145   3.507   1.283   6.257  0.1295 -0.1262  0.4897
 3095SOL    HW212146   3.540   1.372   6.270  1.1142 -0.4698  0.3994
 3095SOL    HW312147   3.421   1.283   6.300  0.6196  0.5326  1.5088
 3095SOL    MW412148   3.500   1.295   6.264  0.3241 -0.0846  0.6122
 3096SOL     OW12149   0.276   1.600   2.033  0.1235 -0.1795  0.1078
 3096SOL    HW212150   0.230   1.559   1.959  1.4487  0.9111 -1.3929
 3096SOL    HW312151   0.223   1.577   2.109 -0.9228 -1.9411 -1.0670
 3096SOL    MW412152   0.263   1.591   2.033  0.1603 -0.2680 -0.2452
 3097SOL     OW12153   5.404   4.177   6.123  0.3146  0.2801  0.7802
 3097SOL    HW212154   5.466   4.159   6.052  0.3650  0.1848  0.8480
 3097SOL    HW312155   5.455   4.164   6.203  0.3320  0.6577  0.8337
 3097SOL    MW412156   5.419   4.173   6.124  0.3236  0.3174  0.7962
 3098SOL     OW12157   4.894   2.544   2.727 -0.2997  0.5932 -0.2344
 3098SOL    HW212158   4.855   2.458   2.742  1.2001  0.2592  2.2331
 3098SOL    HW312159   4.979   2.525   2.687  0.2165  0.8475  0.6994
 3098SOL    MW412160   4.900   2.530   2.724 -0.0337  0.5827  0.2144
 3099SOL     OW12161   6.003   0.949   4.302  0.7408 -0.2043 -0.2168
 3099SOL    HW212162   5.953   0.881   4.257 -1.1207 -1.2244  3.0867
 3099SOL    HW312163   6.057   0.902   4.366  0.6743  1.2767  0.9998
 3099SOL    MW412164   6.003   0.934   4.305  0.4864 -0.1435  0.3796
 3100SOL     OW12165   4.371   3.278   4.947  0.2715  0.1519 -0.7380
 3100SOL    HW212166   4.396   3.369   4.928 -0.7381  0.4775 -0.6203
 3100SOL    HW312167   4.303   3.287   5.015  1.9540 -0.8317  1.1531
 3100SOL    MW412168   4.365   3.291   4.954  0.3603  0.0651 -0.4730
 3101SOL     OW12169   0.882   0.464   0.153  0.5230  0.4987 -0.3516
 3101SOL    HW212170   0.857   0.480   0.244  0.9769  0.3748 -0.2016
 3101SOL    HW312171   0.865   0.547   0.109 -0.8519  0.1942 -0.4226
 3101SOL    MW412172   0.877   0.477   0.159  0.4015  0.4422 -0.3412
 3102SOL     OW12173   1.171   0.778   4.324 -1.0794  0.7432  0.1176
 3102SOL    HW212174   1.109   0.793   4.254 -0.9222  1.2493  0.0842
 3102SOL    HW312175   1.238   0.722   4.285 -1.3444  0.4620  0.0624
 3102SOL    MW412176   1.172   0.772   4.310 -1.0936  0.7729  0.1059
 3103SOL     OW12177   4.531   5.057   2.785  0.5186 -0.2895 -0.1197
 3103SOL    HW212178   4.467   5.002   2.832  1.4408  0.1097  1.6541
 3103SOL    HW312179   4.478   5.126   2.745 -0.4050 -1.2112 -0.5323
 3103SOL    MW412180   4.515   5.059   2.786  0.5184 -0.3584  0.0599
 3104SOL     OW12181   0.057   3.452   3.934 -0.1898 -0.5062  0.3208
 3104SOL    HW212182   0.023   3.389   3.998  0.0756  1.2883  2.3499
 3104SOL    HW312183   0.085   3.526   3.987 -0.8231  1.4962 -1.9818
 3104SOL    MW412184   0.056   3.453   3.950 -0.2383 -0.0053  0.2847
 3105SOL     OW12185   4.872   1.083   2.559 -0.1210  0.2524 -0.3866
 3105SOL    HW212186   4.863   1.042   2.472 -0.9922  1.0502 -0.6889
 3105SOL    HW312187   4.782   1.088   2.592  0.3439 -1.6952  1.3795
 3105SOL    MW412188   4.859   1.078   2.552 -0.1746  0.1007 -0.1934
 3106SOL     OW12189   2.145   3.698   2.130  0.1221  0.2877 -0.0220
 3106SOL    HW212190   2.111   3.779   2.091  0.1393 -0.1635 -1.0195
 3106SOL    HW312191   2.078   3.632   2.112  0.3854 -0.0507  0.2233
 3106SOL    MW412192   2.132   3.700   2.122  0.1591  0.1835 -0.1213
 3107SOL     OW12193   4.666   5.750   3.026  0.0946 -0.2972 -0.2706
 3107SOL    HW212194   4.669   5.846   3.024  1.0388 -0.3126 -0.3881
 3107SOL    HW312195   4.749   5.725   3.068 -0.8787 -1.0328  1.2997
 3107SOL    MW412196   4.678   5.760   3.032  0.0908 -0.3963 -0.0789
 3108SOL     OW12197   4.782   6.120   5.626  0.0134  0.0435  0.1504
 3108SOL    HW212198   4.722   6.191   5.603 -0.6128  0.1118  1.8190
 3108SOL    HW312199   4.863   6.164   5.651  0.1542  0.0720 -0.3628
 3108SOL    MW412200   4.785   6.135   5.626 -0.0506  0.0563  0.3029
 3109SOL     OW12201   2.335   0.815   4.225  0.5371  0.5074  0.8259
 3109SOL    HW212202   2.305   0.786   4.311  0.0805  1.4964  1.0178
 3109SOL    HW312203   2.345   0.734   4.175 -0.1311 -0.0190  1.5084
 3109SOL    MW412204   2.332   0.801   4.230  0.3887  0.5685  0.9413
 3110SOL     OW12205   3.903   0.984   1.472 -0.4777  0.8314  0.6915
 3110SOL    HW212206   3.817   1.021   1.455 -0.6396  0.1460 -0.0513
 3110SOL    HW312207   3.894   0.938   1.555 -0.5243  1.6603  1.1576
 3110SOL    MW412208   3.891   0.983   1.481 -0.5052  0.8503  0.6550
 3111SOL     OW12209   1.141   0.830   1.359  0.1660 -0.7101  0.8099
 3111SOL    HW212210   1.086   0.769   1.309 -0.7153 -1.0089  2.0972
 3111SOL    HW312211   1.213   0.851   1.300  0.2440 -2.6471  0.1448
 3111SOL    MW412212   1.144   0.825   1.345  0.0600 -1.0051  0.8920
 3112SOL     OW12213   4.759   4.408   3.358  0.1281  0.0825 -0.3323
 3112SOL    HW212214   4.778   4.342   3.292 -2.6538 -0.2751 -0.8993
 3112SOL    HW312215   4.720   4.360   3.431  2.0946  0.6218  1.1514
 3112SOL    MW412216   4.756   4.393   3.359  0.0205  0.1065 -0.2113
 3113SOL     OW12217   2.053   3.124   0.144  0.3103 -0.4787  0.0963
 3113SOL    HW212218   2.117   3.143   0.076  1.5241 -0.6960  1.1512
 3113SOL    HW312219   2.001   3.052   0.108  2.7227 -2.5416  0.4412
 3113SOL    MW412220   2.054   3.117   0.130  0.7887 -0.7795  0.2810
 3114SOL     OW12221   1.316   5.113   2.745 -0.4909  0.2686 -0.0261
 3114SOL    HW212222   1.297   5.207   2.743 -1.8685  0.0569  1.1398
 3114SOL    HW312223   1.300   5.089   2.837  0.1554 -1.0465 -0.2493
 3114SOL    MW412224   1.312   5.123   2.757 -0.5874  0.0671  0.0983
 3115SOL     OW12225   4.777   0.565   5.246  0.0157 -0.2311 -0.8735
 3115SOL    HW212226   4.824   0.636   5.290  1.1547 -0.8854 -1.0170
 3115SOL    HW312227   4.719   0.530   5.314  0.8859 -0.4428 -0.2147
 3115SOL    MW412228   4.775   0.570   5.261  0.2808 -0.3454 -0.8055
 3116SOL     OW12229   0.660   2.754   0.140 -0.2556  0.0677  0.0520
 3116SOL    HW212230   0.625   2.800   0.064 -0.3716  0.7104  0.4877
 3116SOL    HW312231   0.753   2.776   0.140 -0.3364  0.4153  0.3371
 3116SOL    MW412232   0.668   2.763   0.130 -0.2815  0.1984  0.1471
 3117SOL     OW12233   4.115   4.740   1.915  0.6170 -0.2630  0.1527
 3117SOL    HW212234   4.069   4.666   1.875 -0.6032  0.4223  0.2602
 3117SOL    HW312235   4.103   4.812   1.854  1.9602 -0.1708 -0.0373
 3117SOL    MW412236   4.107   4.740   1.902  0.6332 -0.1604  0.1418
 3118SOL     OW12237   6.028   0.989   1.426 -0.1530  0.3320 -0.0068
 3118SOL    HW212238   5.958   1.006   1.363 -1.7008  0.4198  1.6565
 3118SOL    HW312239   6.106   0.976   1.372 -1.9166 -2.5716 -2.1833
 3118SOL    MW412240   6.029   0.989   1.411 -0.5899 -0.0395 -0.0745
 3119SOL     OW12241   4.264   5.224   0.704  0.1028  0.2043  0.0949
 3119SOL    HW212242   4.313   5.178   0.636 -1.5512  0.6461 -1.4631
 3119SOL    HW312243   4.288   5.179   0.785 -0.9601 -3.0598 -1.2393
 3119SOL    MW412244   4.274   5.212   0.706 -0.2557 -0.1680 -0.2867
 3120SOL     OW12245   3.728   3.779   0.977 -0.0440 -0.5550  0.2114
 3120SOL    HW212246   3.745   3.774   0.883 -2.2614  1.8658 -0.4545
 3120SOL    HW312247   3.797   3.727   1.017  0.7556 -1.9965 -2.7634
 3120SOL    MW412248   3.739   3.772   0.970 -0.2310 -0.4258 -0.2689
 3121SOL     OW12249   3.713   5.469   0.229 -0.3680 -0.3444  0.1189
 3121SOL    HW212250   3.750   5.381   0.239 -0.2374 -0.2433  0.5601
 3121SOL    HW312251   3.703   5.500   0.319  0.9156  0.6480 -0.0471
 3121SOL    MW412252   3.717   5.461   0.242 -0.1814 -0.2002  0.1552
 3122SOL     OW12253   3.069   0.420   4.882 -0.1034 -0.0889  0.0624
 3122SOL    HW212254   3.105   0.500   4.919  1.6833 -0.6145 -0.4233
 3122SOL    HW312255   3.037   0.445   4.795 -0.6180  0.3225  0.3684
 3122SOL    MW412256   3.070   0.434   4.875  0.0644 -0.1040  0.0387
 3123SOL     OW12257   4.584   0.289   2.654 -0.6897  0.3865  0.0759
 3123SOL    HW212258   4.590   0.237   2.735 -0.3463  1.3009  0.6557
 3123SOL    HW312259   4.629   0.236   2.589 -1.9303 -0.8746  0.1998
 3123SOL    MW412260   4.591   0.275   2.656 -0.8081  0.3407  0.1687
 3124SOL     OW12261   2.888   2.211   5.561 -0.4768 -0.3944 -0.8467
 3124SOL    HW212262   2.859   2.123   5.582 -0.9580  0.3906  2.2356
 3124SOL    HW312263   2.983   2.205   5.554  0.0120 -0.5698  3.5995
 3124SOL    MW412264   2.897   2.199   5.563 -0.4758 -0.3140  0.1466
 3125SOL     OW12265   6.249   5.358   2.596 -0.4621  0.6459 -0.3488
 3125SOL    HW212266   6.238   5.446   2.559 -1.8081  1.2531  1.3540
 3125SOL    HW312267   6.334   5.361   2.639 -0.5931  1.2093 -0.1136
 3125SOL    MW412268   6.258   5.370   2.597 -0.6570  0.8003 -0.0931
 3126SOL     OW12269   0.574   0.492   0.675  0.3972 -0.0178  0.2994
 3126SOL    HW212270   0.589   0.402   0.702  0.4891  0.2720  1.2652
 3126SOL    HW312271   0.650   0.540   0.709 -0.6872  0.7769  1.7075
 3126SOL    MW412272   0.586   0.487   0.683  0.2662  0.1253  0.6126
 3127SOL     OW12273   1.820   2.460   4.300 -0.3140  0.1029  0.5755
 3127SOL    HW212274   1.747   2.400   4.313  0.0807 -0.0860  2.1105
 3127SOL    HW312275   1.879   2.415   4.240  0.0482 -1.1191  1.8210
 3127SOL    MW412276   1.818   2.446   4.294 -0.2142 -0.0833  0.9423
 3128SOL     OW12277   3.708   2.752   2.305 -0.0729  0.1200  0.0656
 3128SOL    HW212278   3.724   2.847   2.301 -2.0924  0.4632 -1.0782
 3128SOL    HW312279   3.755   2.717   2.229 -0.1429  0.3353 -0.0780
 3128SOL    MW412280   3.716   2.760   2.295 -0.3486  0.1937 -0.1043
 3129SOL     OW12281   0.840   2.285   3.927 -0.4952 -0.0197  0.1637
 3129SOL    HW212282   0.822   2.296   4.020  0.5061  1.8935  0.1809
 3129SOL    HW312283   0.918   2.230   3.924 -0.1894  0.3880  0.4876
 3129SOL    MW412284   0.848   2.280   3.939 -0.3227  0.2865  0.2087
 3130SOL     OW12285   5.253   1.930   4.474  0.4852  0.5534  0.2260
 3130SOL    HW212286   5.331   1.978   4.445 -0.4699  1.8758 -0.2700
 3130SOL    HW312287   5.255   1.935   4.569  1.0057  0.6044  0.2119
 3130SOL    MW412288   5.263   1.937   4.483  0.4279  0.7346  0.1587
 3131SOL     OW12289   1.264   1.461   5.729  0.1540 -0.3047  0.1818
 3131SOL    HW212290   1.336   1.406   5.696  0.0754  0.3725 -1.2086
 3131SOL    HW312291   1.306   1.544   5.752 -0.2432  0.3490 -1.3161
 3131SOL    MW412292   1.279   1.465   5.727  0.0912 -0.1291 -0.1993
 3132SOL     OW12293   1.974   4.776   1.653 -0.2205 -0.4303  0.1759
 3132SOL    HW212294   1.900   4.833   1.673 -1.4312 -1.5468 -0.9458
 3132SOL    HW312295   1.940   4.687   1.663  0.8749 -0.9799 -0.6667
 3132SOL    MW412296   1.960   4.772   1.657 -0.2357 -0.6501 -0.0833
 3133SOL     OW12297   0.981   4.050   3.768 -0.3055  0.4594  0.0604
 3133SOL    HW212298   1.032   4.016   3.842 -0.7147 -0.6646 -0.1667
 3133SOL    HW312299   0.984   3.981   3.703 -1.1811  0.8483 -0.4036
 3133SOL    MW412300   0.988   4.036   3.769 -0.4750  0.3624 -0.0308
 3134SOL     OW12301   5.768   1.608   0.644  0.0400  0.3248  0.4501
 3134SOL    HW212302   5.784   1.540   0.578 -0.8395  0.1304  0.4266
 3134SOL    HW312303   5.733   1.561   0.719 -0.8306  0.7725  0.3389
 3134SOL    MW412304   5.765   1.593   0.645 -0.1909  0.3582  0.4323
 3135SOL     OW12305   3.562   6.261   1.045  0.0988 -0.1553  0.1288
 3135SOL    HW212306   3.530   6.193   1.103 -0.3692 -0.0439  0.0053
 3135SOL    HW312307   3.581   6.215   0.963 -1.6771  0.0904 -0.4641
 3135SOL    MW412308   3.561   6.246   1.042 -0.1973 -0.1081  0.0343
 3136SOL     OW12309   5.956   0.236   2.730  0.1545 -0.0363 -0.0146
 3136SOL    HW212310   5.915   0.188   2.658 -1.0140  0.9872 -0.0731
 3136SOL    HW312311   5.972   0.170   2.797 -2.2776 -0.4150  0.2918
 3136SOL    MW412312   5.953   0.221   2.729 -0.3206  0.0488  0.0181
 3137SOL     OW12313   4.816   3.375   5.464  0.4592  0.0754 -0.2425
 3137SOL    HW212314   4.816   3.346   5.373  1.2745  0.5992 -0.4166
 3137SOL    HW312315   4.874   3.314   5.509 -0.0439 -0.2610 -0.0447
 3137SOL    MW412316   4.823   3.363   5.458  0.5004  0.1001 -0.2394
 3138SOL     OW12317   4.464   5.848   0.353 -0.5676  0.0178  0.1855
 3138SOL    HW212318   4.402   5.860   0.425 -0.7021  2.1572 -0.2175
 3138SOL    HW312319   4.445   5.920   0.293  0.4100 -0.9545 -1.3673
 3138SOL    MW412320   4.453   5.859   0.354 -0.4564  0.1718 -0.0726
 3139SOL     OW12321   0.954   2.604   4.440  0.6234  0.3315 -0.4586
 3139SOL    HW212322   0.931   2.685   4.393  0.3110  1.0494  0.8797
 3139SOL    HW312323   1.040   2.580   4.405 -0.6479 -0.5947 -3.2100
 3139SOL    MW412324   0.962   2.612   4.429  0.4145  0.3041 -0.6451
 3140SOL     OW12325   4.491   1.387   5.981  0.5359 -0.1244  0.2210
 3140SOL    HW212326   4.542   1.310   5.955  1.8106  1.4009 -2.2149
 3140SOL    HW312327   4.556   1.458   5.985 -1.1711  1.8549 -2.7805
 3140SOL    MW412328   4.507   1.386   5.978  0.4788  0.3380 -0.4964
 3141SOL     OW12329   6.298   2.090   1.691  0.4601  0.3653  0.2358
 3141SOL    HW212330   6.367   2.082   1.625  0.2463 -1.6213  0.1974
 3141SOL    HW312331   6.218   2.105   1.640  0.3180 -1.0244  0.0118
 3141SOL    MW412332   6.297   2.091   1.675  0.4132 -0.0802  0.2012
 3142SOL     OW12333   4.558   1.968   5.598 -0.2188 -0.0606  0.2854
 3142SOL    HW212334   4.509   1.992   5.519  0.3696  0.8175  0.1655
 3142SOL    HW312335   4.631   2.031   5.600  0.9340 -1.3505  0.4317
 3142SOL    MW412336   4.561   1.980   5.588  0.0109 -0.1149  0.2889
 3143SOL     OW12337   2.296   4.560   5.386 -0.3498 -0.2200 -0.0293
 3143SOL    HW212338   2.262   4.550   5.475 -2.2194 -0.8266 -0.7714
 3143SOL    HW312339   2.252   4.637   5.351 -0.6716 -0.7752 -0.8832
 3143SOL    MW412340   2.286   4.569   5.393 -0.6390 -0.3733 -0.2399
 3144SOL     OW12341   1.685   5.148   1.901 -0.0700 -0.0092  0.5531
 3144SOL    HW212342   1.592   5.136   1.920 -0.3346 -1.2841 -1.2240
 3144SOL    HW312343   1.730   5.114   1.978 -1.0638  0.2231  1.2612
 3144SOL    MW412344   1.679   5.142   1.913 -0.2360 -0.1468  0.4121
 3145SOL     OW12345   5.159   2.139   4.202  0.5802  0.1277 -0.4063
 3145SOL    HW212346   5.205   2.141   4.118  0.2851 -1.1547 -0.6234
 3145SOL    HW312347   5.181   2.053   4.239  0.8547  0.7388  0.9232
 3145SOL    MW412348   5.168   2.128   4.196  0.5775  0.0391 -0.2595
 3146SOL     OW12349   6.199   2.204   0.190  0.1180 -0.3118 -0.4790
 3146SOL    HW212350   6.170   2.149   0.117  0.1259  1.4053 -1.8402
 3146SOL    HW312351   6.135   2.188   0.259 -1.2158 -0.2882 -1.6735
 3146SOL    MW412352   6.187   2.194   0.190 -0.0569 -0.0821 -0.8162
 3147SOL     OW12353   5.609   5.564   1.992  0.2135  0.2519  0.3444
 3147SOL    HW212354   5.626   5.560   1.897 -2.4562 -1.1396 -0.1851
 3147SOL    HW312355   5.553   5.641   2.003 -1.2846 -0.7990  0.3855
 3147SOL    MW412356   5.604   5.573   1.981 -0.3364 -0.0704  0.2799
 3148SOL     OW12357   3.540   6.227   0.053  0.3855 -0.1850 -0.1061
 3148SOL    HW212358   3.492   6.204   0.133  1.0511 -0.1750  0.2999
 3148SOL    HW312359   3.611   6.164   0.049 -0.7067 -1.3988 -1.7053
 3148SOL    MW412360   3.543   6.216   0.063  0.3292 -0.3438 -0.2636
 3149SOL     OW12361   5.533   5.201   4.528  0.1885  0.4478  0.4103
 3149SOL    HW212362   5.538   5.114   4.489  1.6970 -0.6156  2.7767
 3149SOL    HW312363   5.448   5.235   4.501  0.2056 -1.0887 -1.8336
 3149SOL    MW412364   5.523   5.194   4.519  0.3898  0.1048  0.4264
 3150SOL     OW12365   2.191   6.252   0.254  0.1239 -0.3001  0.5989
 3150SOL    HW212366   2.225   6.270   0.341  0.5780  2.1475 -0.0076
 3150SOL    HW312367   2.096   6.257   0.264  0.1740 -0.1005  0.9910
 3150SOL    MW412368   2.183   6.255   0.267  0.1904  0.0492  0.5706
 3151SOL     OW12369   5.902   1.773   5.072  0.8556 -0.1776  0.2309
 3151SOL    HW212370   5.848   1.711   5.122  0.0342  0.4941  0.1862
 3151SOL    HW312371   5.972   1.719   5.035 -0.5427 -1.3094 -0.8289
 3151SOL    MW412372   5.904   1.758   5.074  0.5627 -0.2383  0.0852
 3152SOL     OW12373   4.733   4.227   2.213 -0.4507 -0.0769  0.1069
 3152SOL    HW212374   4.646   4.196   2.189  0.3102 -1.3338 -1.1784
 3152SOL    HW312375   4.786   4.148   2.220  1.0306  0.7515 -1.0864
 3152SOL    MW412376   4.729   4.213   2.211 -0.1549 -0.1334 -0.2202
 3153SOL     OW12377   4.710   2.359   2.866 -0.4962  0.2811 -0.3557
 3153SOL    HW212378   4.709   2.362   2.962  0.0609 -1.8402 -0.2172
 3153SOL    HW312379   4.660   2.280   2.845 -1.0060  0.9802 -1.8512
 3153SOL    MW412380   4.703   2.349   2.876 -0.4899  0.0934 -0.5347
 3154SOL     OW12381   5.204   0.594   5.842 -0.1032  0.1250 -0.4061
 3154SOL    HW212382   5.121   0.547   5.851 -0.1022 -0.4091 -2.7513
 3154SOL    HW312383   5.178   0.687   5.840 -0.8536 -0.0762 -2.5033
 3154SOL    MW412384   5.189   0.600   5.843 -0.2021  0.0280 -0.9922
 3155SOL     OW12385   2.338   4.916   1.037 -0.3693  0.4103 -0.4157
 3155SOL    HW212386   2.286   4.872   0.969  0.6031 -0.5159 -0.5731
 3155SOL    HW312387   2.320   4.866   1.117 -0.6222  0.8003 -0.2285
 3155SOL    MW412388   2.329   4.903   1.039 -0.2744  0.3395 -0.4118
 3156SOL     OW12389   5.123   2.489   2.561  0.0638 -0.0813  0.2024
 3156SOL    HW212390   5.164   2.441   2.633 -0.0439  0.3979  0.5968
 3156SOL    HW312391   5.125   2.580   2.590 -1.3315 -0.0440  0.2696
 3156SOL    MW412392   5.129   2.495   2.575 -0.1345 -0.0132  0.2633
 3157SOL     OW12393   1.418   3.649   6.399  0.5415  0.5957  0.4903
 3157SOL    HW212394   1.340   3.600   6.373  1.6259 -1.5333  0.9568
 3157SOL    HW312395   1.402   3.738   6.368 -1.4156 -0.0939 -0.7158
 3157SOL    MW412396   1.405   3.654   6.392  0.4263  0.2238  0.3927
 3158SOL     OW12397   2.979   3.838   1.597 -0.1911 -0.1197 -0.0484
 3158SOL    HW212398   2.941   3.872   1.678 -0.5376  1.0179 -0.6757
 3158SOL    HW312399   3.032   3.764   1.625 -1.2343 -0.4730  1.0895
 3158SOL    MW412400   2.981   3.833   1.611 -0.3745 -0.0162  0.0190
 3159SOL     OW12401   1.067   2.352   1.004  0.7492  0.1764  0.3034
 3159SOL    HW212402   1.154   2.352   0.964  1.2363  0.1238  1.3453
 3159SOL    HW312403   1.080   2.390   1.090 -0.5149  1.4570 -0.0331
 3159SOL    MW412404   1.080   2.357   1.010  0.6467  0.3384  0.3964
 3160SOL     OW12405   4.249   5.169   2.782  0.5456 -0.4659 -0.3464
 3160SOL    HW212406   4.225   5.101   2.720  0.1664 -1.4044  0.7990
 3160SOL    HW312407   4.192   5.243   2.761 -0.9301 -1.4452  0.1050
 3160SOL    MW412408   4.239   5.170   2.771  0.3009 -0.7189 -0.1357
 3161SOL     OW12409   2.923   0.674   1.551 -0.9029 -0.2550 -0.4055
 3161SOL    HW212410   2.979   0.707   1.621 -2.7809 -0.7581  1.4494
 3161SOL    HW312411   2.981   0.621   1.496  0.4384 -0.7877  1.4270
 3161SOL    MW412412   2.938   0.672   1.553 -0.9737 -0.3916  0.0810
 3162SOL     OW12413   2.819   2.600   4.308  0.3023 -0.6550  0.0124
 3162SOL    HW212414   2.889   2.643   4.258  1.2036 -2.6794 -0.5633
 3162SOL    HW312415   2.851   2.511   4.321 -1.1957 -0.9921  1.7459
 3162SOL    MW412416   2.833   2.594   4.303  0.2236 -0.9665  0.1651
 3163SOL     OW12417   5.181   3.259   2.252  0.1717 -0.1247 -0.0699
 3163SOL    HW212418   5.225   3.311   2.319  0.9398  1.0260 -1.4179
 3163SOL    HW312419   5.252   3.218   2.203 -0.4059 -1.5805  0.2656
 3163SOL    MW412420   5.196   3.261   2.255  0.1968 -0.1649 -0.2035
 3164SOL     OW12421   3.374   0.643   1.250  0.7705 -0.7463  0.4327
 3164SOL    HW212422   3.403   0.571   1.305 -0.1661 -0.8793  0.7725
 3164SOL    HW312423   3.310   0.604   1.190  0.6590 -0.3152  0.2655
 3164SOL    MW412424   3.369   0.629   1.249  0.6322 -0.7070  0.4554
 3165SOL     OW12425   2.259   4.746   1.255  0.2100 -0.0205  0.9771
 3165SOL    HW212426   2.202   4.799   1.312  1.7799  0.6785  1.9501
 3165SOL    HW312427   2.325   4.710   1.314  1.5029  0.1841 -0.2935
 3165SOL    MW412428   2.260   4.748   1.270  0.5877  0.0987  0.9378
 3166SOL     OW12429   1.004   5.419   1.860  0.3179  0.5247 -0.1579
 3166SOL    HW212430   0.923   5.452   1.897  0.7442  1.1294  0.2590
 3166SOL    HW312431   0.987   5.410   1.767 -0.2547  0.5476 -0.0577
 3166SOL    MW412432   0.991   5.422   1.853  0.2986  0.6075 -0.0897
 3167SOL     OW12433   4.711   2.666   1.865  0.1915 -0.9588  0.0750
 3167SOL    HW212434   4.798   2.690   1.833 -0.2321  0.1679 -0.2633
 3167SOL    HW312435   4.727   2.592   1.924  1.3318 -1.0129 -0.2834
 3167SOL    MW412436   4.725   2.659   1.869  0.2861 -0.8173 -0.0169
 3168SOL     OW12437   2.216   5.102   4.854 -0.2807 -0.4664  0.2628
 3168SOL    HW212438   2.177   5.077   4.937 -0.4598  0.6430  0.5355
 3168SOL    HW312439   2.299   5.143   4.877  0.6324 -1.9621 -0.2537
 3168SOL    MW412440   2.221   5.104   4.868 -0.1839 -0.5174  0.2306
 3169SOL     OW12441   3.758   5.035   3.150 -0.3685 -0.1960  0.2688
 3169SOL    HW212442   3.765   4.947   3.112 -0.2405  0.1447 -0.5157
 3169SOL    HW312443   3.718   5.021   3.236 -0.9612 -0.9515 -0.1181
 3169SOL    MW412444   3.754   5.022   3.157 -0.4298 -0.2508  0.1142
 3170SOL     OW12445   1.861   2.229   2.338  0.3222  0.5441  0.5872
 3170SOL    HW212446   1.874   2.187   2.423  1.7957 -0.9178 -0.3192
 3170SOL    HW312447   1.949   2.248   2.306 -0.0335 -1.2852 -1.7307
 3170SOL    MW412448   1.874   2.226   2.345  0.4697  0.1099  0.1618
 3171SOL     OW12449   0.298   3.004   3.874 -0.1291  0.4441  0.4549
 3171SOL    HW212450   0.225   3.009   3.813  0.0512 -2.0350 -0.0630
 3171SOL    HW312451   0.310   3.094   3.905 -2.3971  1.1678 -0.5815
 3171SOL    MW412452   0.290   3.016   3.870 -0.4046  0.2125  0.2499
 3172SOL     OW12453   3.805   5.164   5.569 -0.5005 -0.6271  0.0921
 3172SOL    HW212454   3.840   5.225   5.504  2.1029 -1.5779  0.4966
 3172SOL    HW312455   3.778   5.087   5.518 -1.5517 -0.1276 -0.1504
 3172SOL    MW412456   3.806   5.162   5.554 -0.2957 -0.6866  0.1135
 3173SOL     OW12457   3.840   3.682   0.376 -0.0921  0.0296 -0.5593
 3173SOL    HW212458   3.861   3.601   0.422 -1.3258  0.3912  0.7067
 3173SOL    HW312459   3.811   3.653   0.289  0.9087 -0.7627 -0.6439
 3173SOL    MW412460   3.839   3.667   0.370 -0.1228 -0.0272 -0.4034
 3174SOL     OW12461   4.535   5.760   4.951 -0.4535 -0.4500  0.7545
 3174SOL    HW212462   4.548   5.847   4.987  2.4420 -1.1275  1.6092
 3174SOL    HW312463   4.481   5.714   5.016 -1.0965  0.3547  0.8039
 3174SOL    MW412464   4.530   5.765   4.964 -0.1563 -0.4332  0.8738
 3175SOL     OW12465   3.305   2.790   5.042  0.4902 -0.1415 -0.5676
 3175SOL    HW212466   3.282   2.726   4.974  1.2032 -0.6865 -0.3043
 3175SOL    HW312467   3.223   2.834   5.062 -0.2325 -1.6886 -0.0183
 3175SOL    MW412468   3.291   2.788   5.036  0.4889 -0.4175 -0.4604
 3176SOL     OW12469   0.478   4.684   1.634  0.1443 -0.2783  0.1569
 3176SOL    HW212470   0.441   4.635   1.560  0.6687 -0.5227  0.0503
 3176SOL    HW312471   0.572   4.685   1.617  0.2029  0.2031  0.5041
 3176SOL    MW412472   0.485   4.678   1.622  0.2212 -0.2471  0.1886
 3177SOL     OW12473   0.164   5.553   3.318  0.1022  0.3335 -0.2562
 3177SOL    HW212474   0.101   5.608   3.272  0.5800  0.9613 -0.1804
 3177SOL    HW312475   0.224   5.521   3.250  0.7202  1.1426 -0.1156
 3177SOL    MW412476   0.164   5.556   3.303  0.2467  0.5230 -0.2277
 3178SOL     OW12477   2.804   0.391   2.172  0.4924 -0.3660 -0.7336
 3178SOL    HW212478   2.749   0.316   2.148 -1.6946  0.6709  0.7398
 3178SOL    HW312479   2.833   0.372   2.261  0.9870 -0.0094 -0.8125
 3178SOL    MW412480   2.801   0.379   2.181  0.2691 -0.1821 -0.5496
 3179SOL     OW12481   3.517   3.991   2.659  0.0466  0.0133 -0.1399
 3179SOL    HW212482   3.444   4.029   2.612 -1.2370 -0.8282  1.1041
 3179SOL    HW312483   3.479   3.958   2.741  1.8609 -0.1766  0.6827
 3179SOL    MW412484   3.503   3.992   2.664  0.1166 -0.1228  0.1328
 3180SOL     OW12485   6.421   5.639   6.018  0.2368 -0.1744 -0.0554
 3180SOL    HW212486   6.454   5.620   5.931 -0.0277  0.4898 -0.3098
 3180SOL    HW312487   6.382   5.726   6.010  0.5299  0.0442  0.8088
 3180SOL    MW412488   6.420   5.648   6.006  0.2406 -0.0579  0.0251
 3181SOL     OW12489   0.735   1.277   5.064  0.0694 -0.2855  0.0417
 3181SOL    HW212490   0.827   1.250   5.066 -0.0467 -0.6519  1.9638
 3181SOL    HW312491   0.686   1.198   5.085 -0.7339 -0.1165 -1.0612
 3181SOL    MW412492   0.741   1.263   5.067 -0.0519 -0.3115  0.1498
 3182SOL     OW12493   2.470   0.972   2.354 -0.3841  0.3499  0.1537
 3182SOL    HW212494   2.397   0.915   2.327 -0.0746 -1.3793  2.6249
 3182SOL    HW312495   2.432   1.028   2.422 -0.2046  1.8888 -0.9609
 3182SOL    MW412496   2.455   0.971   2.359 -0.3196  0.3248  0.3327
 3183SOL     OW12497   6.054   2.186   0.736  0.2782 -0.4240  0.1981
 3183SOL    HW212498   6.077   2.245   0.808  1.0384 -0.0980 -0.3041
 3183SOL    HW312499   6.112   2.111   0.747  0.1548 -0.5315  0.1205
 3183SOL    MW412500   6.064   2.184   0.747  0.3622 -0.3952  0.1216
 3184SOL     OW12501   1.233   0.857   5.759  0.4801 -0.5878 -0.1774
 3184SOL    HW212502   1.322   0.843   5.728  1.1188  0.8282  0.9407
 3184SOL    HW312503   1.212   0.947   5.733  0.3008 -0.0525  1.6501
 3184SOL    MW412504   1.242   0.867   5.751  0.5407 -0.3304  0.2112
 3185SOL     OW12505   2.483   0.058   3.093  0.5600 -0.4795 -0.2952
 3185SOL    HW212506   2.548  -0.001   3.131  0.9983 -0.4750 -1.0168
 3185SOL    HW312507   2.458   0.016   3.011 -0.4046 -0.5084  0.0021
 3185SOL    MW412508   2.488   0.045   3.087  0.4905 -0.4827 -0.3512
 3186SOL     OW12509   2.319   3.628   0.923 -0.2168  0.1746  0.1848
 3186SOL    HW212510   2.376   3.658   0.994 -0.8290 -1.5976  1.4929
 3186SOL    HW312511   2.250   3.578   0.967 -1.7357  0.6423 -1.5073
 3186SOL    MW412512   2.317   3.625   0.938 -0.4980  0.0025  0.1342
 3187SOL     OW12513   3.948   1.684   1.978  0.1372 -0.4606 -0.3018
 3187SOL    HW212514   3.983   1.679   2.068 -4.3228  0.4537  1.7387
 3187SOL    HW312515   3.941   1.778   1.960  0.6003 -0.6368 -1.4942
 3187SOL    MW412516   3.952   1.696   1.988 -0.3902 -0.3632 -0.1899
 3188SOL     OW12517   5.481   5.551   4.130  0.2776  0.1697 -0.4012
 3188SOL    HW212518   5.496   5.476   4.187 -0.3805 -0.4119 -0.9789
 3188SOL    HW312519   5.419   5.606   4.178 -0.6665 -0.5671 -0.7722
 3188SOL    MW412520   5.475   5.549   4.144  0.0662 -0.0043 -0.5264
 3189SOL     OW12521   1.097   3.632   1.151  0.0885 -0.0756  0.0381
 3189SOL    HW212522   1.132   3.621   1.063 -2.5435 -0.1124 -1.1163
 3189SOL    HW312523   1.018   3.578   1.152  0.5077 -0.8025  2.7640
 3189SOL    MW412524   1.091   3.623   1.139 -0.2035 -0.1764  0.2454
 3190SOL     OW12525   5.488   4.702   4.519 -0.1864  0.2793 -0.3892
 3190SOL    HW212526   5.436   4.730   4.444  1.6514  0.4953 -1.6479
 3190SOL    HW312527   5.577   4.697   4.485  0.6359  0.0091  1.6987
 3190SOL    MW412528   5.493   4.705   4.505  0.1646  0.2722 -0.2798
 3191SOL     OW12529   2.955   3.084   2.923  0.6662 -0.5962  0.7005
 3191SOL    HW212530   2.924   3.001   2.888 -0.7050 -0.0004  0.4473
 3191SOL    HW312531   3.048   3.070   2.940  0.4615 -2.1549  0.6142
 3191SOL    MW412532   2.963   3.071   2.921  0.4583 -0.7232  0.6557
 3192SOL     OW12533   3.063   3.674   4.084 -0.2125  0.8296 -0.2211
 3192SOL    HW212534   2.980   3.640   4.117 -0.8918 -0.4101 -2.8733
 3192SOL    HW312535   3.068   3.763   4.118 -0.7626 -0.2553  3.0296
 3192SOL    MW412536   3.053   3.681   4.093 -0.3747  0.5229 -0.1421
 3193SOL     OW12537   5.576   2.779   4.747 -0.3326 -0.7450  0.1619
 3193SOL    HW212538   5.485   2.750   4.741 -0.0527 -1.7392  0.4534
 3193SOL    HW312539   5.593   2.788   4.840 -0.1454 -0.5117  0.1062
 3193SOL    MW412540   5.567   2.776   4.758 -0.2710 -0.8454  0.1930
 3194SOL     OW12541   4.824   6.031   3.633 -0.2693  0.3422  0.2344
 3194SOL    HW212542   4.788   6.031   3.544 -0.2358  1.9325  0.2006
 3194SOL    HW312543   4.817   6.122   3.662  0.6372  0.0393  1.4867
 3194SOL    MW412544   4.819   6.043   3.625 -0.1453  0.5120  0.3952
 3195SOL     OW12545   2.740   2.535   2.640 -0.1193  0.1656 -0.0366
 3195SOL    HW212546   2.677   2.469   2.614 -0.4188  0.6496 -0.5681
 3195SOL    HW312547   2.687   2.608   2.672  0.1756  0.5072 -0.3235
 3195SOL    MW412548   2.725   2.536   2.641 -0.1199  0.2745 -0.1445
 3196SOL     OW12549   5.434   4.321   0.428  0.0438 -0.4427 -0.2136
 3196SOL    HW212550   5.481   4.262   0.370  2.7428  1.8659 -0.6053
 3196SOL    HW312551   5.483   4.317   0.511  0.2799  1.1159 -0.2404
 3196SOL    MW412552   5.447   4.313   0.431  0.4310  0.0675 -0.2688
 3197SOL     OW12553   1.202   3.834   3.378  0.2043  0.2407  0.4786
 3197SOL    HW212554   1.190   3.743   3.404  1.4061 -0.3975 -1.0655
 3197SOL    HW312555   1.272   3.832   3.313 -1.7539  1.8882 -1.8794
 3197SOL    MW412556   1.210   3.822   3.373  0.1045  0.3739 -0.0362
 3198SOL     OW12557   0.613   5.297   1.650 -0.5435 -0.3915 -0.1415
 3198SOL    HW212558   0.537   5.277   1.596 -0.5530 -0.3293 -0.1518
 3198SOL    HW312559   0.599   5.246   1.730 -0.7091 -0.2123 -0.0518
 3198SOL    MW412560   0.601   5.288   1.654 -0.5666 -0.3597 -0.1310
 3199SOL     OW12561   4.891   5.905   4.003 -0.1099 -0.0079  0.4206
 3199SOL    HW212562   4.971   5.956   3.988  0.8371 -1.2173  1.1301
 3199SOL    HW312563   4.824   5.949   3.952  0.6406  1.9901  1.0737
 3199SOL    MW412564   4.893   5.917   3.994  0.1141  0.0961  0.6004
 3200SOL     OW12565   4.382   0.397   5.743  0.1886  0.3281 -0.7424
 3200SOL    HW212566   4.414   0.319   5.789 -0.8013  1.1988  1.6016
 3200SOL    HW312567   4.419   0.470   5.792 -0.0569  1.3534 -2.0304
 3200SOL    MW412568   4.391   0.396   5.756  0.0256  0.5783 -0.6030
 3201SOL     OW12569   0.589   0.062   2.542 -0.0666  0.5271  0.1880
 3201SOL    HW212570   0.644  -0.014   2.526  0.8430  0.7188  2.1286
 3201SOL    HW312571   0.508   0.044   2.494  0.0681 -1.7316  0.7043
 3201SOL    MW412572   0.586   0.050   2.533  0.0711  0.2544  0.5122
 3202SOL     OW12573   0.661   0.440   1.838  0.1425 -0.3256  0.5288
 3202SOL    HW212574   0.744   0.484   1.853  0.3210  0.2322 -1.6733
 3202SOL    HW312575   0.683   0.347   1.836  0.8380 -0.1565 -0.5498
 3202SOL    MW412576   0.675   0.433   1.839  0.2578 -0.2297  0.0960
 3203SOL     OW12577   6.429   5.674   5.403  0.4053  0.1568 -0.1349
 3203SOL    HW212578   6.422   5.668   5.307  0.3621 -0.8895 -0.0719
 3203SOL    HW312579   6.518   5.705   5.419  0.7778 -0.7336 -0.4767
 3203SOL    MW412580   6.440   5.678   5.392  0.4487 -0.0987 -0.1717
 3204SOL     OW12581   3.740   1.737   3.594  0.2824  0.7372  0.1419
 3204SOL    HW212582   3.675   1.792   3.551 -0.0796  0.2178  0.0136
 3204SOL    HW312583   3.802   1.713   3.525  0.3110  0.7921  0.1482
 3204SOL    MW412584   3.740   1.741   3.579  0.2384  0.6759  0.1258
 3205SOL     OW12585   6.293   4.231   2.252  0.2087  0.5989  0.0381
 3205SOL    HW212586   6.221   4.292   2.238  0.7209  0.8690 -1.7001
 3205SOL    HW312587   6.368   4.272   2.209  1.0351 -0.3816  0.4918
 3205SOL    MW412588   6.293   4.245   2.244  0.3853  0.5051 -0.1314
 3206SOL     OW12589   6.427   3.911   0.031  0.4885 -0.0977  0.0994
 3206SOL    HW212590   6.371   3.970  -0.020 -0.9013  0.3054  1.9835
 3206SOL    HW312591   6.471   3.968   0.094  2.6511 -0.4993 -0.9491
 3206SOL    MW412592   6.425   3.927   0.032  0.5905 -0.0975  0.2097
 3207SOL     OW12593   1.358   6.083   6.006  0.3814  1.0700 -0.3224
 3207SOL    HW212594   1.420   6.052   6.072 -0.2417  0.9996  0.2420
 3207SOL    HW312595   1.410   6.140   5.949  1.2654 -0.0314 -0.6554
 3207SOL    MW412596   1.373   6.087   6.007  0.4158  0.9154 -0.2919
 3208SOL     OW12597   1.433   2.739   4.784  0.5642  0.0001  0.1397
 3208SOL    HW212598   1.511   2.784   4.751 -0.3976  1.3134 -0.4269
 3208SOL    HW312599   1.457   2.712   4.873  1.1069  1.9463  0.6390
 3208SOL    MW412600   1.446   2.742   4.791  0.5089  0.4301  0.1308
 3209SOL     OW12601   1.056   0.691   4.042 -0.2734 -0.6498  0.0420
 3209SOL    HW212602   1.142   0.649   4.042  0.7217  1.2799 -0.0051
 3209SOL    HW312603   0.995   0.619   4.060  1.4857 -1.7609  2.1406
 3209SOL    MW412604   1.060   0.676   4.044  0.0900 -0.5418  0.3127
 3210SOL     OW12605   0.895   4.501   1.759  0.3361  0.1619 -0.5917
 3210SOL    HW212606   0.945   4.422   1.741  0.0506  0.1899 -1.5328
 3210SOL    HW312607   0.889   4.504   1.855  3.4434  0.9864 -0.3154
 3210SOL    MW412608   0.901   4.491   1.769  0.7084  0.2743 -0.6794
 3211SOL     OW12609   3.329   3.794   1.214  0.1633 -0.1491  0.4584
 3211SOL    HW212610   3.373   3.861   1.162  0.0316 -1.5423 -1.5299
 3211SOL    HW312611   3.261   3.841   1.262  1.3620  1.4325  0.7021
 3211SOL    MW412612   3.326   3.809   1.214  0.3041 -0.1242  0.2282
 3212SOL     OW12613   6.042   4.942   2.199  0.0544  0.1314  0.2191
 3212SOL    HW212614   5.985   4.937   2.123 -0.8753 -1.8732  0.9848
 3212SOL    HW312615   6.006   5.013   2.252 -1.1405 -0.4419  0.2044
 3212SOL    MW412616   6.030   4.950   2.196 -0.2259 -0.2087  0.3182
 3213SOL     OW12617   2.296   4.058   1.780  0.2725  0.5603  0.5479
 3213SOL    HW212618   2.277   4.000   1.705 -1.5863  0.8768  0.7199
 3213SOL    HW312619   2.380   4.096   1.759  1.1036 -1.4425 -0.0562
 3213SOL    MW412620   2.304   4.055   1.767  0.1369  0.3378  0.4909
 3214SOL     OW12621   1.169   4.271   1.279  0.1715  0.5963  0.5108
 3214SOL    HW212622   1.188   4.321   1.358  1.6973  3.2591 -1.3725
 3214SOL    HW312623   1.251   4.273   1.228 -0.4694 -1.7765 -0.8030
 3214SOL    MW412624   1.182   4.278   1.282  0.2882  0.6346  0.0890
 3215SOL     OW12625   6.433   6.136   4.299  0.7859  0.4024 -0.1037
 3215SOL    HW212626   6.443   6.062   4.239  1.1505  0.0711  0.3597
 3215SOL    HW312627   6.456   6.213   4.246 -2.7444  0.6254 -1.5687
 3215SOL    MW412628   6.438   6.137   4.284  0.3682  0.3881 -0.2359
 3216SOL     OW12629   4.224   5.116   4.497  1.1020 -0.5844  0.0760
 3216SOL    HW212630   4.135   5.106   4.463  1.1061  0.3739 -0.2356
 3216SOL    HW312631   4.272   5.159   4.426  1.1614  1.2742  1.1815
 3216SOL    MW412632   4.218   5.120   4.483  1.1104 -0.2127  0.1808
 3217SOL     OW12633   5.305   0.929   1.343 -0.2273  0.3712 -0.3326
 3217SOL    HW212634   5.316   0.839   1.375  0.2401  0.9639  1.2322
 3217SOL    HW312635   5.268   0.977   1.417  0.9273  1.8004 -0.6363
 3217SOL    MW412636   5.302   0.923   1.357 -0.0133  0.6380 -0.1662
 3218SOL     OW12637   1.990   0.491   0.673 -0.3025 -0.2040 -0.4027
 3218SOL    HW212638   2.005   0.502   0.767  0.0096 -1.4652 -0.2942
 3218SOL    HW312639   2.068   0.528   0.631  0.5327 -1.5445 -0.0686
 3218SOL    MW412640   2.002   0.498   0.680 -0.1511 -0.5472 -0.3443
 3219SOL     OW12641   3.231   3.057   3.649  0.5790  0.4371 -0.2055
 3219SOL    HW212642   3.180   3.117   3.704  0.7703 -0.1293  0.6132
 3219SOL    HW312643   3.207   2.969   3.680  0.2658  0.0736 -1.4180
 3219SOL    MW412644   3.221   3.053   3.661  0.5629  0.3144 -0.2575
 3220SOL     OW12645   1.400   3.454   5.382  0.8283 -0.6994 -0.8369
 3220SOL    HW212646   1.367   3.433   5.469  2.7425 -0.0832  0.0849
 3220SOL    HW312647   1.352   3.395   5.323  0.3374 -1.9394  0.7410
 3220SOL    MW412648   1.389   3.443   5.386  1.0161 -0.7817 -0.5071
 3221SOL     OW12649   4.957   4.385   2.458 -0.1505 -0.6851 -0.0697
 3221SOL    HW212650   5.017   4.428   2.397  1.1877  1.1211  2.3647
 3221SOL    HW312651   4.978   4.292   2.450  2.8943 -0.1625  0.4883
 3221SOL    MW412652   4.968   4.378   2.449  0.4278 -0.3779  0.3251
 3222SOL     OW12653   0.303   3.599   5.420 -0.2751 -0.5561  0.4564
 3222SOL    HW212654   0.256   3.672   5.461  0.7444  0.6949 -0.5146
 3222SOL    HW312655   0.343   3.552   5.492  2.1964  2.0729  0.9919
 3222SOL    MW412656   0.302   3.603   5.435  0.1855 -0.0442  0.3989
 3223SOL     OW12657   1.473   2.354   5.030  0.8627  0.5117 -0.0417
 3223SOL    HW212658   1.411   2.290   4.998  1.2490  0.1924 -0.1632
 3223SOL    HW312659   1.504   2.318   5.113  1.3320  0.3700 -0.2734
 3223SOL    MW412660   1.469   2.341   5.037  0.9756  0.4509 -0.0883
 3224SOL     OW12661   3.374   2.624   0.958 -0.5699 -0.3316  0.1302
 3224SOL    HW212662   3.315   2.698   0.945  0.3872  0.3306 -0.5729
 3224SOL    HW312663   3.320   2.558   1.001 -2.2574 -0.3623 -1.9032
 3224SOL    MW412664   3.359   2.625   0.962 -0.6663 -0.2483 -0.2308
 3225SOL     OW12665   2.011   0.044   5.933  0.4425  0.2063  0.4106
 3225SOL    HW212666   1.922   0.037   5.967  0.3330 -2.3785 -0.2024
 3225SOL    HW312667   2.011   0.124   5.881 -1.6020  0.1453  0.2427
 3225SOL    MW412668   1.999   0.053   5.931  0.1583 -0.1428  0.3076
 3226SOL     OW12669   3.175   0.645   5.000 -0.0134  0.0799 -0.1506
 3226SOL    HW212670   3.223   0.679   4.924  0.4841 -2.5357 -1.1133
 3226SOL    HW312671   3.111   0.713   5.021  1.6927  2.0962 -1.1170
 3226SOL    MW412672   3.173   0.659   4.993  0.2773  0.0008 -0.4051
 3227SOL     OW12673   3.617   5.502   1.676  0.4764  0.4326  0.2961
 3227SOL    HW212674   3.533   5.462   1.700  0.7046 -1.0101 -1.0851
 3227SOL    HW312675   3.598   5.595   1.667 -1.4340 -0.0496 -1.5615
 3227SOL    MW412676   3.603   5.509   1.678  0.2545  0.1786 -0.1312
 3228SOL     OW12677   4.844   5.937   0.862  0.5601  0.3339 -0.0647
 3228SOL    HW212678   4.867   5.876   0.793 -1.4485  0.2299 -0.7260
 3228SOL    HW312679   4.837   5.882   0.941  1.0352  0.1326 -0.1596
 3228SOL    MW412680   4.846   5.922   0.864  0.3578  0.2936 -0.1645
 3229SOL     OW12681   2.001   6.395   1.569 -0.1406 -0.2372 -1.0398
 3229SOL    HW212682   1.980   6.337   1.642  1.3748  1.0604  0.5397
 3229SOL    HW312683   2.097   6.396   1.567 -0.0462  3.0422 -0.1957
 3229SOL    MW412684   2.011   6.388   1.578  0.0718  0.3667 -0.7201
 3230SOL     OW12685   4.063   2.290   4.115 -0.4685 -0.3361  0.1677
 3230SOL    HW212686   4.063   2.365   4.174  0.2805 -0.6554  0.5836
 3230SOL    HW312687   4.034   2.217   4.169  2.3116 -1.0831  0.7671
 3230SOL    MW412688   4.059   2.290   4.130 -0.0028 -0.4768  0.3017
 3231SOL     OW12689   4.299   6.322   4.884  0.2254  0.7136  0.5770
 3231SOL    HW212690   4.299   6.417   4.900  0.4468  0.5307  1.7802
 3231SOL    HW312691   4.242   6.311   4.808 -1.7739  1.6250  1.8334
 3231SOL    MW412692   4.291   6.333   4.876 -0.0092  0.8097  0.9015
 3232SOL     OW12693   3.380   4.667   4.322  0.2602  0.3914 -0.2781
 3232SOL    HW212694   3.340   4.654   4.236  2.1559  0.5774 -1.2399
 3232SOL    HW312695   3.459   4.613   4.320 -0.0999 -0.2833  1.6931
 3232SOL    MW412696   3.385   4.658   4.311  0.4628  0.3269 -0.1449
 3233SOL     OW12697   2.070   3.973   3.330 -0.4574 -0.5527 -0.1723
 3233SOL    HW212698   2.108   4.015   3.253 -0.1491  0.4939  0.5314
 3233SOL    HW312699   2.002   3.916   3.295  0.4295 -0.9485 -1.3000
 3233SOL    MW412700   2.066   3.971   3.316 -0.2997 -0.4669 -0.2283
 3234SOL     OW12701   6.244   0.378   0.483 -0.6854  0.2393  0.4299
 3234SOL    HW212702   6.151   0.382   0.506 -0.9042 -0.8049 -0.2134
 3234SOL    HW312703   6.286   0.438   0.545 -1.4742 -1.0683  2.3497
 3234SOL    MW412704   6.237   0.387   0.495 -0.8184 -0.0710  0.5983
 3235SOL     OW12705   0.303   4.368   5.441  0.3749  0.5092  0.0975
 3235SOL    HW212706   0.217   4.405   5.462  0.4359  1.4871 -1.2853
 3235SOL    HW312707   0.361   4.403   5.509 -0.2272  0.0911  0.8571
 3235SOL    MW412708   0.299   4.378   5.453  0.3036  0.5830  0.0153
 3236SOL     OW12709   2.406   3.696   5.940 -0.1261 -0.0496 -0.4431
 3236SOL    HW212710   2.424   3.789   5.953  0.7780 -0.3869  0.8598
 3236SOL    HW312711   2.335   3.676   6.002  0.9777 -0.6216  0.6824
 3236SOL    MW412712   2.399   3.705   5.950  0.1388 -0.1696 -0.1227
 3237SOL     OW12713   2.215   5.889   6.176  0.0113 -0.6088  0.0746
 3237SOL    HW212714   2.234   5.882   6.083 -0.4457 -0.2376 -0.0527
 3237SOL    HW312715   2.280   5.833   6.219 -0.0797 -1.1546 -0.4956
 3237SOL    MW412716   2.226   5.881   6.170 -0.0610 -0.6318 -0.0174
 3238SOL     OW12717   1.922   0.553   1.036 -0.6868  0.3921  0.0708
 3238SOL    HW212718   1.842   0.580   1.081 -1.0286  1.8990 -1.3213
 3238SOL    HW312719   1.993   0.591   1.087 -1.0560  1.9008 -0.4932
 3238SOL    MW412720   1.921   0.562   1.048 -0.7806  0.7900 -0.1873
 3239SOL     OW12721   3.066   0.760   0.224  0.9147  0.4207  0.4400
 3239SOL    HW212722   2.992   0.713   0.260 -1.1445  2.2648 -1.0877
 3239SOL    HW312723   3.078   0.835   0.282 -0.6462  1.9045 -1.0247
 3239SOL    MW412724   3.058   0.764   0.236  0.4371  0.8598  0.0452
 3240SOL     OW12725   3.955   1.814   4.291 -0.2902  0.1239 -0.3953
 3240SOL    HW212726   3.890   1.846   4.353  0.8721  3.1927 -0.5794
 3240SOL    HW312727   4.010   1.755   4.342 -2.4492 -1.6163  0.0449
 3240SOL    MW412728   3.953   1.811   4.306 -0.4217  0.2992 -0.3615
 3241SOL     OW12729   2.102   2.738   3.845  0.0980 -0.1099 -0.1438
 3241SOL    HW212730   2.079   2.701   3.760  3.3033  0.2185 -1.3056
 3241SOL    HW312731   2.053   2.820   3.850  1.0908  0.7278 -2.5377
 3241SOL    MW412732   2.093   2.744   3.835  0.6519  0.0439 -0.6129
 3242SOL     OW12733   3.439   1.279   4.470 -0.1954 -0.1999  0.3248
 3242SOL    HW212734   3.479   1.193   4.451  0.1537  0.2458 -1.1132
 3242SOL    HW312735   3.504   1.342   4.440 -0.4809  0.5890  1.3108
 3242SOL    MW412736   3.453   1.276   4.463 -0.1870 -0.0370  0.2652
 3243SOL     OW12737   3.751   1.176   5.587 -0.2216 -0.0515  0.0423
 3243SOL    HW212738   3.665   1.183   5.628  0.5310  1.2783  1.5153
 3243SOL    HW312739   3.762   1.259   5.540  0.4164 -0.0102  0.2539
 3243SOL    MW412740   3.741   1.188   5.586 -0.0381  0.1294  0.2645
 3244SOL     OW12741   0.570   5.214   4.936 -0.4091 -0.3526 -0.4186
 3244SOL    HW212742   0.637   5.273   4.901  0.0022  1.4683  2.9984
 3244SOL    HW312743   0.493   5.230   4.881  1.0417 -0.2831 -2.5630
 3244SOL    MW412744   0.569   5.224   4.924 -0.1634 -0.1032 -0.2507
 3245SOL     OW12745   4.188   5.980   1.761 -0.3932  0.2349  0.8081
 3245SOL    HW212746   4.098   5.981   1.728 -0.0588  1.3101 -0.1317
 3245SOL    HW312747   4.204   5.889   1.785 -0.2163 -1.0470 -3.3890
 3245SOL    MW412748   4.178   5.968   1.760 -0.3257  0.2076  0.1304
 3246SOL     OW12749   2.499   1.511   4.628  0.0188  0.2497  0.3908
 3246SOL    HW212750   2.576   1.491   4.575 -0.1416  0.7722 -0.0452
 3246SOL    HW312751   2.531   1.571   4.696  0.4135 -1.1063  1.4528
 3246SOL    MW412752   2.513   1.516   4.630  0.0497  0.1397  0.4734
 3247SOL     OW12753   5.723   2.064   1.128 -0.1777  0.0233 -0.0294
 3247SOL    HW212754   5.788   2.111   1.180 -0.5522 -0.5698  0.9971
 3247SOL    HW312755   5.752   2.076   1.038  0.9909  0.3264  0.3660
 3247SOL    MW412756   5.736   2.072   1.123 -0.0729 -0.0150  0.1582
 3248SOL     OW12757   4.556   5.389   5.860 -0.5472 -0.4508  0.0009
 3248SOL    HW212758   4.537   5.308   5.812  0.7795 -0.3775 -0.6752
 3248SOL    HW312759   4.651   5.398   5.855 -0.6553  1.0267  0.2931
 3248SOL    MW412760   4.566   5.379   5.853 -0.3864 -0.2462 -0.0497
 3249SOL     OW12761   5.380   2.359   4.593  0.2246 -0.3700 -0.5199
 3249SOL    HW212762   5.386   2.305   4.672  1.1021 -1.6007 -1.3828
 3249SOL    HW312763   5.291   2.345   4.561 -0.5572  1.0968  0.8617
 3249SOL    MW412764   5.369   2.350   4.599  0.2372 -0.3388 -0.4514
 3250SOL     OW12765   1.253   3.215   1.387  0.6212 -0.1407 -0.7706
 3250SOL    HW212766   1.164   3.185   1.372  0.5581 -0.1133 -0.4573
 3250SOL    HW312767   1.263   3.215   1.482  0.3768  1.5711 -0.7145
 3250SOL    MW412768   1.243   3.211   1.398  0.5807  0.0888 -0.7219
 3251SOL     OW12769   0.919   4.644   3.127 -0.3191 -0.4179  0.7026
 3251SOL    HW212770   0.929   4.701   3.050  1.4891 -0.5301  0.8002
 3251SOL    HW312771   0.881   4.563   3.093  0.2717 -0.3915 -0.0450
 3251SOL    MW412772   0.916   4.641   3.113 -0.0026 -0.4292  0.6169
 3252SOL     OW12773   4.233   2.770   0.277  0.1824 -0.2299  0.3640
 3252SOL    HW212774   4.192   2.771   0.190 -0.7611 -1.9624  0.7538
 3252SOL    HW312775   4.304   2.834   0.270 -0.7307  0.6856 -1.2430
 3252SOL    MW412776   4.237   2.779   0.264 -0.0626 -0.3377  0.2034
 3253SOL     OW12777   4.530   3.061   3.939  0.5251 -0.2478  0.2168
 3253SOL    HW212778   4.477   3.023   3.869 -0.1825 -0.6007  0.9413
 3253SOL    HW312779   4.525   2.998   4.011  0.4347  0.5677  0.9434
 3253SOL    MW412780   4.522   3.048   3.939  0.4198 -0.1868  0.4082
 3254SOL     OW12781   2.970   0.317   2.422  0.4220  0.8620 -0.3783
 3254SOL    HW212782   2.940   0.241   2.472  0.2235  1.6639  0.7648
 3254SOL    HW312783   3.064   0.302   2.409  0.1849 -0.0898 -1.1318
 3254SOL    MW412784   2.978   0.305   2.427  0.3645  0.8422 -0.3269
 3255SOL     OW12785   2.787   0.240   5.032 -0.3910 -0.4474 -0.3238
 3255SOL    HW212786   2.726   0.313   5.025 -0.0040  0.0585  1.2244
 3255SOL    HW312787   2.845   0.264   5.105  1.1752 -1.2628 -1.2396
 3255SOL    MW412788   2.787   0.253   5.040 -0.1333 -0.4882 -0.2404
 3256SOL     OW12789   0.414   0.746   1.879 -0.5179 -0.0508 -0.0485
 3256SOL    HW212790   0.419   0.650   1.876 -0.5328 -0.0769  0.6001
 3256SOL    HW312791   0.325   0.765   1.907  0.0917  0.0920  1.8987
 3256SOL    MW412792   0.403   0.736   1.882 -0.4394 -0.0354  0.2940
 3257SOL     OW12793   2.781   6.022   1.985  0.5878  0.0079 -0.3010
 3257SOL    HW212794   2.843   6.009   1.914  2.2402 -0.8127  1.2041
 3257SOL    HW312795   2.835   6.042   2.061 -1.1860  2.4805  0.4461
 3257SOL    MW412796   2.796   6.023   1.986  0.5718  0.2258 -0.0038
 3258SOL     OW12797   4.091   2.102   2.444 -0.0765 -0.2965 -0.7639
 3258SOL    HW212798   4.120   2.115   2.354  0.0012 -0.1978 -0.7264
 3258SOL    HW312799   4.007   2.058   2.437  1.2225 -2.9704 -0.8386
 3258SOL    MW412800   4.084   2.098   2.432  0.1051 -0.6362 -0.7688
 3259SOL     OW12801   1.725   1.959   2.173  0.0346 -0.0134 -0.4040
 3259SOL    HW212802   1.814   1.930   2.153  0.1766 -1.2704  1.7628
 3259SOL    HW312803   1.724   2.052   2.150  2.2955  0.3224  0.6435
 3259SOL    MW412804   1.736   1.967   2.168  0.3516 -0.1349  0.0201
 3260SOL     OW12805   0.611   3.230   0.741  0.2154  0.3163 -0.0589
 3260SOL    HW212806   0.679   3.214   0.676  0.1079 -2.2679  0.3650
 3260SOL    HW312807   0.637   3.312   0.784  1.8296  0.5410 -1.3991
 3260SOL    MW412808   0.623   3.239   0.738  0.4142  0.0050 -0.1798
 3261SOL     OW12809   5.051   4.760   5.148 -0.2171  0.0412  0.4145
 3261SOL    HW212810   5.143   4.740   5.133 -0.4059  0.1166 -0.9842
 3261SOL    HW312811   5.045   4.781   5.241  1.0178 -0.7742  0.6918
 3261SOL    MW412812   5.062   4.760   5.158 -0.0791 -0.0564  0.2666
 3262SOL     OW12813   2.091   3.473   2.696  0.7038 -0.1643  0.2295
 3262SOL    HW212814   2.069   3.566   2.695 -1.4931 -0.6165  1.3313
 3262SOL    HW312815   2.169   3.466   2.640 -0.5664  1.9530 -1.9979
 3262SOL    MW412816   2.099   3.484   2.688  0.2463  0.0554  0.0810
 3263SOL     OW12817   1.745   3.484   4.598  0.1767  0.1121  0.0403
 3263SOL    HW212818   1.810   3.502   4.530  1.4241 -3.3664  0.1636
 3263SOL    HW312819   1.669   3.449   4.551 -0.5906  1.5125  0.1634
 3263SOL    MW412820   1.743   3.482   4.583  0.2401 -0.1621  0.0728
 3264SOL     OW12821   2.432   5.386   3.841 -0.4644 -0.2021  0.2363
 3264SOL    HW212822   2.519   5.349   3.849 -0.9463 -1.4807 -0.2567
 3264SOL    HW312823   2.384   5.354   3.918 -1.1511 -1.3945 -0.6625
 3264SOL    MW412824   2.437   5.377   3.853 -0.6186 -0.5281  0.0527
 3265SOL     OW12825   0.213   3.336   5.099 -0.6335 -0.7870 -0.1322
 3265SOL    HW212826   0.219   3.260   5.155  1.0955  0.3057  1.2715
 3265SOL    HW312827   0.296   3.337   5.050  0.4222  1.3467  1.5316
 3265SOL    MW412828   0.225   3.326   5.100 -0.2661 -0.3613  0.2725
 3266SOL     OW12829   2.093   3.293   5.883 -0.2046  1.2319  0.3563
 3266SOL    HW212830   2.000   3.270   5.882  0.4617 -1.8122 -0.3549
 3266SOL    HW312831   2.106   3.346   5.805 -0.7555 -1.4731 -1.7418
 3266SOL    MW412832   2.082   3.297   5.873 -0.1893  0.4734 -0.0143
 3267SOL     OW12833   4.375   2.026   6.044 -0.2812  0.2753  0.2730
 3267SOL    HW212834   4.327   2.090   6.096  0.5134  0.5831  0.6444
 3267SOL    HW312835   4.464   2.029   6.078  0.0323 -0.2133 -0.4666
 3267SOL    MW412836   4.380   2.035   6.055 -0.1350  0.2515  0.2245
 3268SOL     OW12837   0.141   1.231   5.033  0.0360  0.3446  0.0106
 3268SOL    HW212838   0.110   1.322   5.031 -0.2909  0.2300 -0.1718
 3268SOL    HW312839   0.231   1.238   5.063 -0.7758  0.5062  2.6028
 3268SOL    MW412840   0.149   1.244   5.037 -0.1143  0.3508  0.3285
 3269SOL     OW12841   0.427   4.391   3.679  0.3063  0.0604 -0.5194
 3269SOL    HW212842   0.357   4.340   3.639  1.5265 -2.1617  0.0037
 3269SOL    HW312843   0.431   4.359   3.770  1.1182  1.0976 -0.1704
 3269SOL    MW412844   0.418   4.380   3.686  0.5744 -0.0960 -0.4044
 3270SOL     OW12845   1.127   0.986   3.671 -0.3515 -0.3498  0.6395
 3270SOL    HW212846   1.063   0.939   3.724  0.4223 -2.2094  0.0411
 3270SOL    HW312847   1.209   0.937   3.684  0.2999  0.3334 -0.6971
 3270SOL    MW412848   1.130   0.973   3.680 -0.1635 -0.5050  0.3842
 3271SOL     OW12849   3.520   3.942   0.161  0.1824  0.9988 -0.3124
 3271SOL    HW212850   3.542   3.875   0.226  1.1028  1.0062 -0.6160
 3271SOL    HW312851   3.426   3.928   0.144  0.1378  0.4332  0.3613
 3271SOL    MW412852   3.510   3.931   0.167  0.2980  0.9251 -0.2636
 3272SOL     OW12853   4.132   3.229   6.370  0.0363 -0.0819  0.2205
 3272SOL    HW212854   4.099   3.238   6.280 -0.2292 -2.2104  0.0660
 3272SOL    HW312855   4.226   3.244   6.362  0.1724 -1.2097 -0.6183
 3272SOL    MW412856   4.140   3.232   6.357  0.0193 -0.5115  0.0894
 3273SOL     OW12857   4.100   1.019   4.250 -0.1171  0.2910 -0.4087
 3273SOL    HW212858   4.184   1.029   4.205 -0.6778 -0.3912 -1.6791
 3273SOL    HW312859   4.036   1.017   4.179 -1.3846  2.3031  0.6023
 3273SOL    MW412860   4.103   1.020   4.235 -0.3583  0.4665 -0.4429
 3274SOL     OW12861   1.119   0.141   0.491 -0.5059  0.0701 -0.7928
 3274SOL    HW212862   1.165   0.066   0.529 -0.7606 -0.3820 -1.3592
 3274SOL    HW312863   1.040   0.104   0.451 -1.1052  0.7692 -0.2865
 3274SOL    MW412864   1.115   0.127   0.491 -0.6186  0.1027 -0.8007
 3275SOL     OW12865   5.167   2.665   3.658 -0.5605 -0.2757  0.2622
 3275SOL    HW212866   5.232   2.622   3.714 -0.2643 -0.0495  0.0932
 3275SOL    HW312867   5.167   2.614   3.577 -0.8520 -0.4878  0.3913
 3275SOL    MW412868   5.175   2.652   3.655 -0.5599 -0.2738  0.2569
 3276SOL     OW12869   5.875   3.046   2.067  0.0650  0.1385  0.4141
 3276SOL    HW212870   5.820   3.124   2.058  0.4345  0.2804 -0.9042
 3276SOL    HW312871   5.950   3.076   2.119  0.0179  0.5758  0.2407
 3276SOL    MW412872   5.878   3.061   2.073  0.1076  0.2149  0.2173
 3277SOL     OW12873   2.331   1.925   4.266  0.1712  0.0650 -0.5516
 3277SOL    HW212874   2.243   1.919   4.229  0.0425  0.0986 -0.2519
 3277SOL    HW312875   2.353   2.018   4.259 -0.2734  0.2606  0.4069
 3277SOL    MW412876   2.322   1.936   4.260  0.0956  0.0952 -0.3856
 3278SOL     OW12877   5.398   3.814   0.533  0.4097  0.2240  0.4288
 3278SOL    HW212878   5.400   3.762   0.614 -0.8922  1.5746  1.3660
 3278SOL    HW312879   5.307   3.838   0.522 -0.0573 -2.3363 -3.1013
 3278SOL    MW412880   5.387   3.810   0.542  0.1763  0.0644  0.0867
 3279SOL     OW12881   0.492   1.479   0.625  0.3048  0.9268 -0.3726
 3279SOL    HW212882   0.452   1.546   0.679  0.6491  1.7999 -1.1760
 3279SOL    HW312883   0.563   1.524   0.579  0.3466  0.0980 -1.1559
 3279SOL    MW412884   0.496   1.494   0.626  0.3557  0.9327 -0.5820
 3280SOL     OW12885   2.673   4.899   6.170  0.3012  0.1491  0.5286
 3280SOL    HW212886   2.622   4.970   6.209  0.1549 -0.4692  1.4811
 3280SOL    HW312887   2.683   4.835   6.240  0.8105 -0.5753 -0.1904
 3280SOL    MW412888   2.667   4.900   6.184  0.3491 -0.0280  0.5594
 3281SOL     OW12889   1.269   3.680   5.634 -0.4172 -0.2478  0.0823
 3281SOL    HW212890   1.305   3.734   5.704 -1.7698 -0.6760  1.1375
 3281SOL    HW312891   1.301   3.591   5.652 -2.2269 -0.7117  1.2613
 3281SOL    MW412892   1.278   3.675   5.645 -0.8344 -0.3655  0.3770
 3282SOL     OW12893   1.015   4.886   6.211 -0.4920 -0.1530  0.1943
 3282SOL    HW212894   0.986   4.945   6.141 -2.7578  0.8383  1.8488
 3282SOL    HW312895   0.950   4.816   6.213 -0.3566 -0.2679  1.1904
 3282SOL    MW412896   1.003   4.885   6.202 -0.7731 -0.0374  0.5440
 3283SOL     OW12897   5.534   1.463   5.981  0.0935  0.3416 -0.1949
 3283SOL    HW212898   5.582   1.441   5.901  0.3887  1.3251 -0.2961
 3283SOL    HW312899   5.599   1.504   6.038 -0.6754  2.0367 -0.4781
 3283SOL    MW412900   5.549   1.465   5.978  0.0310  0.6950 -0.2456
 3284SOL     OW12901   5.871   0.796   5.947 -0.1467 -0.0066 -0.7163
 3284SOL    HW212902   5.878   0.878   5.996  2.0089 -0.4363 -0.2074
 3284SOL    HW312903   5.795   0.751   5.985 -0.7951  1.3258 -0.3881
 3284SOL    MW412904   5.862   0.801   5.958  0.0521  0.1125 -0.6058
 3285SOL     OW12905   0.070   3.019   3.732  0.1531 -0.2506 -0.0770
 3285SOL    HW212906   0.081   3.113   3.713 -0.8677  0.0645  0.7699
 3285SOL    HW312907  -0.018   3.013   3.769  1.6127 -0.9290  3.6733
 3285SOL    MW412908   0.060   3.031   3.734  0.2110 -0.2985  0.5295
 3286SOL     OW12909   1.917   2.528   2.381 -0.0344 -0.0378  0.0332
 3286SOL    HW212910   1.880   2.441   2.369  0.3187 -0.1423 -0.2892
 3286SOL    HW312911   1.883   2.579   2.307  2.5961 -0.8283 -1.8714
 3286SOL    MW412912   1.907   2.523   2.370  0.3593 -0.1559 -0.2606
 3287SOL     OW12913   6.207   4.151   4.536  0.2816  0.1544 -0.1927
 3287SOL    HW212914   6.188   4.171   4.628 -2.0633  1.0382 -0.7845
 3287SOL    HW312915   6.288   4.199   4.518  1.4508 -0.9920  1.6772
 3287SOL    MW412916   6.215   4.160   4.546  0.1265  0.1198 -0.0241
 3288SOL     OW12917   0.254   2.660   1.257  0.1334 -0.4954  0.3279
 3288SOL    HW212918   0.265   2.724   1.327 -0.6642  0.3634 -0.2880
 3288SOL    HW312919   0.190   2.598   1.291  0.4477 -0.6135  0.7038
 3288SOL    MW412920   0.247   2.660   1.271  0.0696 -0.3977  0.2962
 3289SOL     OW12921   2.871   0.773   4.950 -0.1604  0.0180  0.7235
 3289SOL    HW212922   2.882   0.834   5.024  0.5312 -0.9639  1.4619
 3289SOL    HW312923   2.928   0.808   4.882  0.6833 -0.0871  1.3457
 3289SOL    MW412924   2.880   0.786   4.951  0.0421 -0.1254  0.9030
 3290SOL     OW12925   1.206   1.977   2.955 -0.0363  0.3028  0.1120
 3290SOL    HW212926   1.124   1.943   2.920  0.2300  0.4417 -0.6687
 3290SOL    HW312927   1.273   1.920   2.919  0.3026  0.8729 -0.1841
 3290SOL    MW412928   1.204   1.965   2.945  0.0436  0.3964 -0.0301
 3291SOL     OW12929   1.599   3.745   4.399  0.6304  0.3424 -0.3269
 3291SOL    HW212930   1.581   3.674   4.460  1.2327  0.4686  0.0083
 3291SOL    HW312931   1.537   3.732   4.327  0.7577 -0.5366 -0.2884
 3291SOL    MW412932   1.589   3.734   4.398  0.7266  0.2431 -0.2776
 3292SOL     OW12933   2.751   2.844   4.447 -0.1616  0.6824 -0.2232
 3292SOL    HW212934   2.701   2.823   4.525  0.1092  1.3694  0.1445
 3292SOL    HW312935   2.776   2.758   4.410  1.3745  0.3171  1.5232
 3292SOL    MW412936   2.748   2.830   4.452  0.0768  0.7249  0.0557
 3293SOL     OW12937   2.591   3.607   5.507  0.1390  0.2627  0.1004
 3293SOL    HW212938   2.594   3.587   5.601 -1.1698  0.8388  0.2894
 3293SOL    HW312939   2.651   3.681   5.497  0.4570  0.0538  0.4426
 3293SOL    MW412940   2.599   3.615   5.518  0.0083  0.3111  0.1705
 3294SOL     OW12941   4.476   2.453   0.616 -0.0677 -0.6801  0.3292
 3294SOL    HW212942   4.477   2.479   0.708 -0.6911  2.2810 -0.3820
 3294SOL    HW312943   4.416   2.515   0.574  2.6717  0.3361 -2.5815
 3294SOL    MW412944   4.468   2.465   0.622  0.2115 -0.1553 -0.1487
 3295SOL     OW12945   2.486   1.921   0.533  0.7529  1.0932  0.1766
 3295SOL    HW212946   2.423   1.966   0.477  1.3140 -0.9141 -2.2786
 3295SOL    HW312947   2.469   1.828   0.518  2.1807  0.4638  1.9898
 3295SOL    MW412948   2.475   1.914   0.524  1.0153  0.7453  0.0919
 3296SOL     OW12949   5.520   5.051   3.134  1.0835 -0.7895 -0.5432
 3296SOL    HW212950   5.581   5.109   3.088  2.3579 -0.9705  0.8197
 3296SOL    HW312951   5.515   4.974   3.078 -0.0607  0.3029 -2.0118
 3296SOL    MW412952   5.528   5.048   3.120  1.1007 -0.6693 -0.5572
 3297SOL     OW12953   3.415   1.786   5.861 -0.3903  0.0252  0.1432
 3297SOL    HW212954   3.377   1.844   5.927  1.5314  1.8998 -0.3000
 3297SOL    HW312955   3.509   1.789   5.877 -0.1169 -2.0125 -0.7301
 3297SOL    MW412956   3.423   1.794   5.872 -0.1007  0.0037 -0.0305
 3298SOL     OW12957   2.008   5.321   3.966 -0.8777  0.2950 -0.1800
 3298SOL    HW212958   2.092   5.309   4.010  0.3271 -0.3476 -2.4661
 3298SOL    HW312959   1.953   5.249   3.998  0.1563 -0.5154 -0.1762
 3298SOL    MW412960   2.011   5.309   3.976 -0.5823  0.1033 -0.4811
 3299SOL     OW12961   0.927   3.511   1.953 -0.3991 -0.4210  0.0484
 3299SOL    HW212962   1.019   3.528   1.934 -0.7431  0.4779 -0.8870
 3299SOL    HW312963   0.904   3.577   2.019 -0.9793  0.9658 -1.4801
 3299SOL    MW412964   0.936   3.522   1.959 -0.5210 -0.1194 -0.2767
 3300SOL     OW12965   2.976   2.622   2.918 -0.0245  0.1578 -0.0286
 3300SOL    HW212966   2.996   2.647   3.008  0.1144 -0.1758  0.0325
 3300SOL    HW312967   2.901   2.563   2.925 -0.0474  0.1731 -0.1361
 3300SOL    MW412968   2.969   2.618   2.930 -0.0092  0.1158 -0.0347
 3301SOL     OW12969   2.763   1.918   6.101 -0.0354 -0.0250  0.3536
 3301SOL    HW212970   2.819   1.893   6.174  0.8760 -1.1511 -0.6858
 3301SOL    HW312971   2.805   1.996   6.064  0.4298 -0.4156  0.0460
 3301SOL    MW412972   2.776   1.925   6.105  0.1463 -0.2251  0.1759
 3302SOL     OW12973   6.216   1.526   0.814 -0.0649 -0.7299  0.1710
 3302SOL    HW212974   6.303   1.556   0.838 -0.8251  0.4110  1.6320
 3302SOL    HW312975   6.166   1.606   0.799 -0.7778 -1.3745 -1.0955
 3302SOL    MW412976   6.221   1.540   0.815 -0.2593 -0.6644  0.1966
 3303SOL     OW12977   3.092   4.607   3.143 -0.0436  0.4007 -0.3467
 3303SOL    HW212978   3.054   4.688   3.180  1.5255  1.5727 -1.2171
 3303SOL    HW312979   3.131   4.634   3.061  1.0179 -1.1616 -0.3889
 3303SOL    MW412980   3.092   4.621   3.137  0.3035  0.3492 -0.4671
 3304SOL     OW12981   1.522   5.471   2.783  0.1978  0.4406 -0.1232
 3304SOL    HW212982   1.494   5.508   2.867 -1.2716  0.9790 -0.8142
 3304SOL    HW312983   1.573   5.540   2.742  1.0815  0.1081  0.3806
 3304SOL    MW412984   1.525   5.485   2.789  0.1205  0.4678 -0.1479
 3305SOL     OW12985   4.281   4.632   5.222  0.1407 -0.5665  0.2903
 3305SOL    HW212986   4.208   4.635   5.160 -0.9551 -2.1485  1.4051
 3305SOL    HW312987   4.318   4.720   5.220 -1.6920  0.2480 -0.4430
 3305SOL    MW412988   4.276   4.644   5.213 -0.2457 -0.6678  0.3406
 3306SOL     OW12989   4.117   0.342   5.635 -0.1838 -0.3482  0.1302
 3306SOL    HW212990   4.148   0.393   5.560 -0.0417  0.4055  0.6926
 3306SOL    HW312991   4.172   0.371   5.708 -0.8095 -0.5460  0.6842
 3306SOL    MW412992   4.129   0.353   5.634 -0.2476 -0.2749  0.2775
 3307SOL     OW12993   3.420   5.488   5.169 -0.1296  0.1596  0.0464
 3307SOL    HW212994   3.427   5.438   5.250  0.5861 -2.1210 -1.3157
 3307SOL    HW312995   3.327   5.488   5.148 -0.1277 -0.8344 -0.0166
 3307SOL    MW412996   3.409   5.481   5.177 -0.0349 -0.2725 -0.1416
 3308SOL     OW12997   2.651   1.112   1.059  0.5638  0.5754  0.0008
 3308SOL    HW212998   2.564   1.091   1.093 -0.3830  1.8915 -1.4970
 3308SOL    HW312999   2.670   1.200   1.094  0.9577  0.6032 -0.2730
 3308SOL    MW413000   2.642   1.121   1.068  0.4908  0.7527 -0.2329
 3309SOL     OW13001   4.816   4.433   4.726  0.1575  0.0445 -0.3126
 3309SOL    HW213002   4.735   4.481   4.707  0.8823  0.9106 -1.2737
 3309SOL    HW313003   4.885   4.499   4.719  1.2370 -1.2117 -2.1659
 3309SOL    MW413004   4.814   4.448   4.723  0.3956 -0.0069 -0.6840
 3310SOL     OW13005   1.996   4.104   3.566 -0.6008 -0.0258 -0.0548
 3310SOL    HW213006   1.954   4.178   3.522 -0.4616 -1.0877 -2.1351
 3310SOL    HW313007   2.010   4.040   3.496  0.9266 -1.2936  1.3179
 3310SOL    MW413008   1.992   4.105   3.551 -0.3809 -0.3332 -0.1481
 3311SOL     OW13009   5.024   5.473   2.013 -0.2645  0.5226  0.1802
 3311SOL    HW213010   5.048   5.566   2.018  0.8427  0.2755 -0.2035
 3311SOL    HW313011   4.953   5.463   2.077  0.1594  1.4575  0.8244
 3311SOL    MW413012   5.018   5.484   2.022 -0.0625  0.6133  0.2146
 3312SOL     OW13013   5.447   3.637   0.770 -0.8600  0.2908 -0.0164
 3312SOL    HW213014   5.421   3.628   0.862 -0.4085 -2.8056 -0.0759
 3312SOL    HW313015   5.542   3.633   0.772 -0.8143  1.0000 -0.5760
 3312SOL    MW413016   5.456   3.635   0.782 -0.7944 -0.0242 -0.0981
 3313SOL     OW13017   5.499   5.030   4.289  0.8807  0.5188 -0.2314
 3313SOL    HW213018   5.519   4.984   4.207 -1.2891 -0.3428 -0.3397
 3313SOL    HW313019   5.452   5.108   4.261 -1.6012 -0.7238  0.1634
 3313SOL    MW413020   5.495   5.034   4.275  0.2670  0.2412 -0.1936
 3314SOL     OW13021   3.901   3.674   6.070 -0.2905 -0.6277  0.1802
 3314SOL    HW213022   3.928   3.723   5.992 -0.0034 -1.0555  0.0053
 3314SOL    HW313023   3.900   3.582   6.041 -0.1623 -0.7893  0.6869
 3314SOL    MW413024   3.904   3.668   6.056 -0.2357 -0.7055  0.2240
 3315SOL     OW13025   1.746   4.060   3.215 -0.0247  0.9217  0.3079
 3315SOL    HW213026   1.667   4.055   3.269  0.7711  0.6061  1.5094
 3315SOL    HW313027   1.756   4.153   3.196 -0.9112  0.9182 -0.2242
 3315SOL    MW413028   1.737   4.072   3.220 -0.0366  0.8796  0.3962
 3316SOL     OW13029   0.609   1.347   0.315 -0.0367 -0.2663  0.6095
 3316SOL    HW213030   0.546   1.385   0.253 -0.6796  0.6128  1.7748
 3316SOL    HW313031   0.646   1.422   0.361  0.2343 -0.9207  1.4867
 3316SOL    MW413032   0.606   1.362   0.313 -0.0858 -0.2367  0.8790
 3317SOL     OW13033   0.056   3.634   1.668  0.2145  0.2922  0.1293
 3317SOL    HW213034  -0.040   3.640   1.666  0.2689  1.1266 -1.1532
 3317SOL    HW313035   0.075   3.581   1.745 -1.4053 -2.1578 -1.0249
 3317SOL    MW413036   0.045   3.628   1.678  0.0079  0.0790 -0.1922
 3318SOL     OW13037   0.110   4.322   2.125 -0.0627  0.3177  0.1686
 3318SOL    HW213038   0.146   4.259   2.062 -0.7538  0.6980 -0.6171
 3318SOL    HW313039   0.155   4.301   2.207 -1.4103 -2.2851  0.3607
 3318SOL    MW413040   0.121   4.311   2.127 -0.3317  0.0245  0.0903
 3319SOL     OW13041   4.910   2.132   6.299 -0.5732  0.4090  0.4394
 3319SOL    HW213042   4.885   2.041   6.312 -0.0845  0.4061  1.5487
 3319SOL    HW313043   4.891   2.150   6.207 -1.6966 -0.4813  0.4740
 3319SOL    MW413044   4.904   2.123   6.289 -0.6569  0.2911  0.5903
 3320SOL     OW13045   2.748   2.971   4.900  0.5038  0.0897  0.1275
 3320SOL    HW213046   2.721   3.056   4.866 -0.7734  0.0185  0.9071
 3320SOL    HW313047   2.823   2.947   4.847 -0.6083  0.5844 -1.7396
 3320SOL    MW413048   2.754   2.979   4.889  0.1886  0.1456 -0.0160
 3321SOL     OW13049   5.900   6.373   5.495  0.0627  0.1155 -0.4755
 3321SOL    HW213050   5.834   6.331   5.441 -1.2067 -0.4835  1.4362
 3321SOL    HW313051   5.947   6.300   5.537 -1.3749  0.4427  1.9450
 3321SOL    MW413052   5.898   6.358   5.494 -0.2945  0.0797  0.0961
 3322SOL     OW13053   3.489   1.857   4.314 -0.7078 -0.3021  0.1906
 3322SOL    HW213054   3.417   1.881   4.257 -1.0519 -0.2717  0.6357
 3322SOL    HW313055   3.568   1.882   4.265 -1.0008  3.4438  1.3148
 3322SOL    MW413056   3.490   1.863   4.300 -0.7919  0.1961  0.3976
 3323SOL     OW13057   0.764   3.437   0.847  0.0384 -0.2453  0.2168
 3323SOL    HW213058   0.712   3.514   0.869 -0.2787  0.0354 -1.4039
 3323SOL    HW313059   0.801   3.408   0.930 -1.9189  0.1269  1.2647
 3323SOL    MW413060   0.762   3.443   0.861 -0.2617 -0.1592  0.1413
 3324SOL     OW13061   6.441   6.339   1.333  0.5733  0.0952  0.3393
 3324SOL    HW213062   6.439   6.356   1.239  0.5803  1.3766  0.5456
 3324SOL    HW313063   6.366   6.387   1.367 -0.9284 -2.3908  0.7162
 3324SOL    MW413064   6.431   6.348   1.325  0.3761 -0.0637  0.4163
 3325SOL     OW13065   4.106   3.664   3.955 -0.2463 -0.1467  0.3959
 3325SOL    HW213066   4.170   3.728   3.925 -0.0967 -0.8943 -0.9277
 3325SOL    HW313067   4.131   3.582   3.912 -1.2813 -0.7703  0.9259
 3325SOL    MW413068   4.117   3.662   3.946 -0.3631 -0.3276  0.2912
 3326SOL     OW13069   4.034   1.803   4.708  0.2228 -0.0174  0.5217
 3326SOL    HW213070   4.124   1.816   4.677  0.5099  1.0062  1.6890
 3326SOL    HW313071   3.983   1.868   4.662  0.6436  1.4804  2.0628
 3326SOL    MW413072   4.039   1.813   4.698  0.3162  0.3152  0.8790
 3327SOL     OW13073   0.225   2.932   0.661 -0.1638 -0.4325  0.2715
 3327SOL    HW213074   0.319   2.945   0.678 -0.2322  1.2267 -0.4245
 3327SOL    HW313075   0.186   2.925   0.748  0.3760  0.9148  0.6558
 3327SOL    MW413076   0.233   2.933   0.675 -0.1016 -0.0358  0.2304
 3328SOL     OW13077   6.451   0.746   3.676 -0.3702 -0.1187  0.2211
 3328SOL    HW213078   6.406   0.820   3.634 -0.5344 -0.5069 -0.3005
 3328SOL    HW313079   6.541   0.751   3.644 -0.2249  0.2137  0.6712
 3328SOL    MW413080   6.457   0.756   3.666 -0.3727 -0.1261  0.2117
 3329SOL     OW13081   4.496   2.144   0.228 -0.1271 -0.5549 -0.4595
 3329SOL    HW213082   4.410   2.165   0.190 -0.4249  0.6118  0.7628
 3329SOL    HW313083   4.526   2.227   0.266  0.4357 -1.4857  1.2444
 3329SOL    MW413084   4.488   2.158   0.228 -0.0922 -0.5238 -0.0734
 3330SOL     OW13085   0.844   3.365   4.734  0.5811 -0.2007 -0.5039
 3330SOL    HW213086   0.809   3.366   4.823 -1.5127  1.3727 -1.2697
 3330SOL    HW313087   0.914   3.299   4.737  1.2482  0.4672  2.5097
 3330SOL    MW413088   0.849   3.357   4.746  0.3929  0.0951 -0.2073
 3331SOL     OW13089   3.540   6.314   2.957  0.0529 -0.2643 -0.2481
 3331SOL    HW213090   3.468   6.361   3.000 -0.9812 -1.2231 -0.8914
 3331SOL    HW313091   3.614   6.375   2.961 -0.7007  0.6183  0.7048
 3331SOL    MW413092   3.540   6.329   2.963 -0.1829 -0.2744 -0.2072
 3332SOL     OW13093   6.076   4.721   5.789 -0.1541 -0.1249 -0.5122
 3332SOL    HW213094   6.054   4.810   5.762  0.4255  0.1186 -0.2069
 3332SOL    HW313095   6.047   4.666   5.717 -1.6323  0.1823 -0.1760
 3332SOL    MW413096   6.069   4.726   5.776 -0.2727 -0.0523 -0.4276
 3333SOL     OW13097   0.197   4.314   0.847 -0.2096  0.3641 -0.4521
 3333SOL    HW213098   0.286   4.350   0.846 -0.0939  0.1306  0.4807
 3333SOL    HW313099   0.175   4.308   0.940 -1.3374  0.7366 -0.6916
 3333SOL    MW413100   0.206   4.318   0.859 -0.3431  0.3825 -0.3607
 3334SOL     OW13101   2.111   6.203   5.987  0.0057 -0.1686 -0.0391
 3334SOL    HW213102   2.086   6.290   5.955  0.7795  1.0488  2.4260
 3334SOL    HW313103   2.031   6.169   6.029 -0.2945 -0.6663 -0.9950
 3334SOL    MW413104   2.097   6.210   5.989  0.0682 -0.0737  0.1600
 3335SOL     OW13105   0.685   0.158   1.389 -0.2247  0.2041 -0.0130
 3335SOL    HW213106   0.677   0.250   1.365 -2.5755  0.1729  0.4829
 3335SOL    HW313107   0.620   0.113   1.336  0.7431 -1.1831 -0.0940
 3335SOL    MW413108   0.676   0.164   1.379 -0.4072  0.0169  0.0418
 3336SOL     OW13109   2.449   2.357   1.209  0.0580 -0.4211 -0.1791
 3336SOL    HW213110   2.377   2.386   1.265 -1.1849 -1.4675 -1.1922
 3336SOL    HW313111   2.492   2.438   1.181 -3.0451  0.5885 -2.5672
 3336SOL    MW413112   2.445   2.372   1.213 -0.5154 -0.4260 -0.6278
 3337SOL     OW13113   0.800   4.962   0.176 -0.5333 -0.6692  0.0295
 3337SOL    HW213114   0.892   4.960   0.148 -0.5173 -1.3545  0.1038
 3337SOL    HW313115   0.758   4.894   0.122 -0.9049 -0.6523  0.2996
 3337SOL    MW413116   0.806   4.953   0.165 -0.5802 -0.7574  0.0750
 3338SOL     OW13117   5.850   4.278   0.546 -0.0601  0.4381  0.1611
 3338SOL    HW213118   5.920   4.298   0.608  0.2646 -0.5725  0.1378
 3338SOL    HW313119   5.864   4.186   0.523 -0.8860  0.4681 -0.5018
 3338SOL    MW413120   5.861   4.268   0.552 -0.1263  0.3087  0.0706
 3339SOL     OW13121   5.584   0.217   6.356 -0.5066 -0.5690 -0.1445
 3339SOL    HW213122   5.594   0.182   6.445 -0.6366 -1.1582 -0.3531
 3339SOL    HW313123   5.585   0.139   6.300  0.9101 -0.1168 -0.7806
 3339SOL    MW413124   5.585   0.202   6.360 -0.3368 -0.5871 -0.2560
 3340SOL     OW13125   0.129   0.065   4.771  0.4653  0.2352  0.0628
 3340SOL    HW213126   0.183   0.119   4.828  1.2416 -1.1349  0.6694
 3340SOL    HW313127   0.047   0.055   4.818  0.5783  0.2902  0.2716
 3340SOL    MW413128   0.125   0.071   4.784  0.5827  0.0617  0.1704
 3341SOL     OW13129   6.438   0.952   6.275  0.3757  0.2416 -1.1197
 3341SOL    HW213130   6.409   1.035   6.238 -1.0418 -0.4026 -1.5087
 3341SOL    HW313131   6.478   0.905   6.202  2.0571  0.9263 -0.6936
 3341SOL    MW413132   6.439   0.956   6.261  0.4105  0.2470 -1.1148
 3342SOL     OW13133   0.241   0.171   4.263  0.1457 -0.0758 -0.4278
 3342SOL    HW213134   0.162   0.223   4.252  0.5430  0.7916  0.6142
 3342SOL    HW313135   0.212   0.080   4.249 -1.1158  0.1852  0.3103
 3342SOL    MW413136   0.227   0.166   4.260  0.0317  0.0731 -0.1930
 3343SOL     OW13137   4.784   2.274   5.479  0.0017 -0.3826 -0.3668
 3343SOL    HW213138   4.693   2.264   5.452 -1.2754  0.3016  3.1648
 3343SOL    HW313139   4.804   2.366   5.463 -0.8155  0.0736  1.0766
 3343SOL    MW413140   4.774   2.284   5.473 -0.2746 -0.2321  0.2896
 3344SOL     OW13141   1.896   5.350   5.366 -0.2715  0.0142 -0.0469
 3344SOL    HW213142   1.865   5.433   5.401 -0.8828  0.3665 -1.3678
 3344SOL    HW313143   1.991   5.352   5.379 -0.3467  0.6502  0.4650
 3344SOL    MW413144   1.905   5.361   5.372 -0.3621  0.1446 -0.1536
 3345SOL     OW13145   0.666   2.057   0.216 -0.3142 -0.6418 -0.2390
 3345SOL    HW213146   0.652   2.069   0.122  2.8993  1.1753 -0.6587
 3345SOL    HW313147   0.722   1.980   0.222  2.0358  0.9462 -0.2485
 3345SOL    MW413148   0.672   2.049   0.204  0.4199 -0.1925 -0.2957
 3346SOL     OW13149   3.948   5.085   4.488  0.0922  0.7180  0.5759
 3346SOL    HW213150   3.877   5.079   4.425 -0.5482  0.0392  1.3404
 3346SOL    HW313151   3.955   5.178   4.508  0.6988  1.0124 -0.9208
 3346SOL    MW413152   3.940   5.096   4.482  0.0878  0.6673  0.4793
 3347SOL     OW13153   1.224   4.795   5.653  0.0020 -0.2251  0.2620
 3347SOL    HW213154   1.191   4.727   5.711 -1.0051  0.8629  1.0092
 3347SOL    HW313155   1.158   4.800   5.583 -0.8541  1.1056  1.1080
 3347SOL    MW413156   1.211   4.787   5.651 -0.2439  0.0940  0.4722
 3348SOL     OW13157   3.775   1.525   3.154 -0.0442 -0.2688 -0.1715
 3348SOL    HW213158   3.697   1.492   3.199  0.8716 -1.4731  0.6025
 3348SOL    HW313159   3.755   1.515   3.061 -0.3708 -1.6647  0.0314
 3348SOL    MW413160   3.762   1.520   3.147  0.0335 -0.6119 -0.0426
 3349SOL     OW13161   3.487   2.541   0.095  0.6018 -0.7792  0.1310
 3349SOL    HW213162   3.539   2.537   0.175  2.8664 -1.1271 -1.2599
 3349SOL    HW313163   3.538   2.493   0.030 -0.8507 -0.0305 -1.6858
 3349SOL    MW413164   3.501   2.534   0.097  0.7090 -0.7263 -0.2922
 3350SOL     OW13165   5.758   2.398   4.055 -0.0287 -0.3338 -0.3646
 3350SOL    HW213166   5.732   2.487   4.078  4.2789  2.0345 -3.1244
 3350SOL    HW313167   5.755   2.350   4.137 -0.2982  3.0444  1.7915
 3350SOL    MW413168   5.754   2.404   4.069  0.5041  0.4244 -0.4442
 3351SOL     OW13169   3.826   2.948   2.876 -0.3356  0.3343 -0.1988
 3351SOL    HW213170   3.846   2.857   2.899 -1.1890  0.0032 -0.7141
 3351SOL    HW313171   3.733   2.947   2.855 -0.9655  1.8024  2.1092
 3351SOL    MW413172   3.816   2.936   2.876 -0.5313  0.4843  0.0377
 3352SOL     OW13173   1.442   2.570   0.840  0.1857  0.1648 -0.4051
 3352SOL    HW213174   1.394   2.574   0.922  0.0541 -0.4606 -0.4484
 3352SOL    HW313175   1.497   2.492   0.848  1.9486  1.3934  0.0565
 3352SOL    MW413176   1.443   2.560   0.852  0.4009  0.2444 -0.3499
 3353SOL     OW13177   3.525   3.300   6.111  0.5022  0.1153 -0.0540
 3353SOL    HW213178   3.530   3.320   6.204 -1.2028 -0.2570  0.1539
 3353SOL    HW313179   3.467   3.224   6.106  1.5728 -0.6682 -1.3392
 3353SOL    MW413180   3.518   3.293   6.122  0.4185 -0.0372 -0.1961
 3354SOL     OW13181   0.982   0.696   1.168  0.3164 -0.3478 -0.9685
 3354SOL    HW213182   0.902   0.743   1.146 -0.9007 -1.0722  1.4951
 3354SOL    HW313183   1.035   0.698   1.088 -1.9026  0.6470 -2.4966
 3354SOL    MW413184   0.979   0.703   1.154 -0.1369 -0.3121 -0.8451
 3355SOL     OW13185   1.894   3.079   4.490 -0.0340 -0.1450  0.2135
 3355SOL    HW213186   1.953   3.010   4.521 -1.6116 -0.9583  1.5173
 3355SOL    HW313187   1.864   3.049   4.405  0.7844 -0.0956 -0.1079
 3355SOL    MW413188   1.898   3.066   4.483 -0.1341 -0.2458  0.3431
 3356SOL     OW13189   0.109   1.398   3.556  0.7187  0.0159 -0.2982
 3356SOL    HW213190   0.122   1.401   3.651  1.1321  0.4358 -0.3700
 3356SOL    HW313191   0.144   1.313   3.530  0.1906 -0.2943 -0.0146
 3356SOL    MW413192   0.115   1.387   3.565  0.7036  0.0304 -0.2703
 3357SOL     OW13193   2.721   2.144   4.840 -0.0454  0.6900 -0.6575
 3357SOL    HW213194   2.770   2.220   4.868 -1.1703  1.2341 -0.1100
 3357SOL    HW313195   2.651   2.179   4.785 -1.6419  0.2785  1.0087
 3357SOL    MW413196   2.718   2.158   4.836 -0.4044  0.7075 -0.3655
 3358SOL     OW13197   5.182   2.571   1.922 -0.0194  0.3577 -0.0857
 3358SOL    HW213198   5.182   2.486   1.879  0.5218 -0.2168  1.0093
 3358SOL    HW313199   5.267   2.609   1.900  0.9541 -0.6259  1.7119
 3358SOL    MW413200   5.193   2.565   1.914  0.1804  0.1521  0.2960
 3359SOL     OW13201   2.008   5.646   0.391 -0.5667 -0.0415  0.4938
 3359SOL    HW213202   2.070   5.576   0.410 -0.5161  0.2621  1.5235
 3359SOL    HW313203   1.958   5.657   0.473 -0.2537  1.4227  0.5192
 3359SOL    MW413204   2.010   5.638   0.405 -0.5188  0.1917  0.6330
 3360SOL     OW13205   3.647   4.628   4.853  0.0676 -0.2570  0.1683
 3360SOL    HW213206   3.558   4.647   4.825 -0.1554  0.3956  1.2627
 3360SOL    HW313207   3.665   4.690   4.924  1.2301 -0.6682  0.2729
 3360SOL    MW413208   3.638   4.638   4.859  0.1915 -0.2251  0.3265
 3361SOL     OW13209   3.488   0.215   4.074  0.0810 -0.2951  0.0893
 3361SOL    HW213210   3.453   0.279   4.012  1.4601  0.4317  0.0210
 3361SOL    HW313211   3.555   0.263   4.122  2.0269 -1.9670 -0.7882
 3361SOL    MW413212   3.492   0.230   4.072  0.5197 -0.4198 -0.0355
 3362SOL     OW13213   1.475   4.555   1.397  0.1722 -0.1626 -0.0471
 3362SOL    HW213214   1.448   4.630   1.344  0.5298 -0.5312 -0.7619
 3362SOL    HW313215   1.562   4.580   1.430 -0.7524  0.8070  1.8367
 3362SOL    MW413216   1.483   4.568   1.395  0.0974 -0.0833  0.1071
 3363SOL     OW13217   3.801   2.203   2.758 -0.5025  0.6187 -0.1960
 3363SOL    HW213218   3.885   2.198   2.804 -1.2643  2.2780  1.5102
 3363SOL    HW313219   3.741   2.154   2.815 -1.2553  1.8604  0.1048
 3363SOL    MW413220   3.804   2.196   2.772 -0.7023  1.0014  0.0688
 3364SOL     OW13221   1.136   3.095   0.188  0.1808  0.0653 -0.0216
 3364SOL    HW213222   1.216   3.137   0.157  0.2640 -0.2195 -0.1959
 3364SOL    HW313223   1.133   3.116   0.282 -0.6785  1.9106 -0.4201
 3364SOL    MW413224   1.146   3.103   0.196  0.0784  0.2712 -0.0972
 3365SOL     OW13225   2.887   3.275   0.077  0.2640  0.2558  0.2086
 3365SOL    HW213226   2.934   3.262   0.159 -0.5585 -0.8850  0.5220
 3365SOL    HW313227   2.806   3.320   0.103  0.5100  0.9115 -0.1370
 3365SOL    MW413228   2.882   3.279   0.091  0.1879  0.1918  0.2043
 3366SOL     OW13229   6.274   5.102   1.154  0.3218 -0.3276  0.3131
 3366SOL    HW213230   6.365   5.107   1.183  0.0018  0.6533  1.1918
 3366SOL    HW313231   6.222   5.119   1.233 -0.5811  1.2405 -0.5551
 3366SOL    MW413232   6.279   5.105   1.168  0.1605  0.0087  0.3145
 3367SOL     OW13233   5.224   0.722   2.951  0.7311 -0.5933 -0.4385
 3367SOL    HW213234   5.200   0.630   2.960  0.8994 -0.6266 -0.3313
 3367SOL    HW313235   5.149   0.762   2.907 -0.1695 -0.4103  1.1730
 3367SOL    MW413236   5.211   0.715   2.947  0.6345 -0.5736 -0.2117
 3368SOL     OW13237   4.713   5.762   2.072  0.4999 -0.3606  0.5815
 3368SOL    HW213238   4.692   5.669   2.073  1.2481 -0.5457 -0.0800
 3368SOL    HW313239   4.768   5.775   2.149 -0.5127 -0.2286  1.3048
 3368SOL    MW413240   4.718   5.752   2.082  0.4650 -0.3676  0.5896
 3369SOL     OW13241   0.587   1.171   1.142 -0.4694 -0.5307 -0.5589
 3369SOL    HW213242   0.613   1.087   1.178 -0.4052 -0.2806 -0.0093
 3369SOL    HW313243   0.666   1.206   1.102 -0.0037  0.0956  0.8478
 3369SOL    MW413244   0.601   1.165   1.141 -0.3995 -0.4150 -0.3008
 3370SOL     OW13245   6.061   3.567   5.924  0.5365  0.5961 -0.4773
 3370SOL    HW213246   6.081   3.473   5.924 -0.4526  0.3739 -0.5527
 3370SOL    HW313247   6.107   3.602   6.001 -0.0592 -0.1675  0.2368
 3370SOL    MW413248   6.070   3.559   5.934  0.3274  0.4660 -0.3930
 3371SOL     OW13249   1.694   3.608   2.651 -0.1618 -0.7215 -0.0350
 3371SOL    HW213250   1.733   3.662   2.720  1.2499  0.6907 -1.8102
 3371SOL    HW313251   1.708   3.518   2.680 -0.3034 -0.1752  1.8419
 3371SOL    MW413252   1.701   3.603   2.664  0.0058 -0.4631 -0.0216
 3372SOL     OW13253   3.746   6.160   2.215 -0.0297 -0.3368  0.6086
 3372SOL    HW213254   3.811   6.124   2.155 -0.2952 -1.6123  1.0552
 3372SOL    HW313255   3.673   6.098   2.213 -0.5270  0.1929  1.3818
 3372SOL    MW413256   3.745   6.147   2.207 -0.1303 -0.4352  0.7695
 3373SOL     OW13257   3.847   3.581   2.323 -0.7806  0.1435  0.0057
 3373SOL    HW213258   3.777   3.536   2.277 -0.8448 -1.2332  1.3537
 3373SOL    HW313259   3.819   3.582   2.415 -0.1302  1.7357  0.2316
 3373SOL    MW413260   3.834   3.576   2.329 -0.7033  0.1719  0.2133
 3374SOL     OW13261   0.314   4.712   5.673  0.0311 -0.0175 -0.2188
 3374SOL    HW213262   0.389   4.749   5.719  0.6195  0.0313 -1.1767
 3374SOL    HW313263   0.334   4.725   5.580 -1.2106  0.0810 -0.4920
 3374SOL    MW413264   0.327   4.718   5.667 -0.0551  0.0019 -0.3812
 3375SOL     OW13265   5.250   1.849   2.493 -0.1437 -0.6416 -0.2285
 3375SOL    HW213266   5.210   1.858   2.407  0.4796 -0.5017 -0.5136
 3375SOL    HW313267   5.338   1.817   2.475  0.5262  0.8210  0.2479
 3375SOL    MW413268   5.257   1.846   2.479  0.0270 -0.4302 -0.2032
 3376SOL     OW13269   1.527   1.818   6.196 -0.2863 -0.1869 -0.0290
 3376SOL    HW213270   1.570   1.888   6.146  0.7295 -0.9693 -0.2734
 3376SOL    HW313271   1.441   1.855   6.219 -0.5224  0.4498 -1.7675
 3376SOL    MW413272   1.521   1.832   6.193 -0.1834 -0.2061 -0.2906
 3377SOL     OW13273   1.740   2.676   1.150 -0.2986 -0.0675  0.5517
 3377SOL    HW213274   1.732   2.746   1.085 -1.7753  0.5243  1.3281
 3377SOL    HW313275   1.738   2.722   1.234  0.1068 -0.9408  1.0523
 3377SOL    MW413276   1.739   2.691   1.153 -0.4400 -0.1047  0.7202
 3378SOL     OW13277   0.613   3.848   3.736  0.1712 -0.1904 -0.2435
 3378SOL    HW213278   0.531   3.799   3.728 -0.5294  0.8056  0.6150
 3378SOL    HW313279   0.661   3.802   3.805  0.0251 -0.3611 -0.2542
 3378SOL    MW413280   0.608   3.835   3.744  0.0595 -0.0815 -0.1317
 3379SOL     OW13281   3.711   0.969   6.309  0.3761  0.5138 -0.0498
 3379SOL    HW213282   3.641   0.967   6.244 -0.2536 -0.1214  0.6358
 3379SOL    HW313283   3.666   0.960   6.393  1.2367  0.6516  0.4335
 3379SOL    MW413284   3.696   0.968   6.311  0.4066  0.4482  0.1044
 3380SOL     OW13285   0.753   5.371   4.173  0.1552  0.3102  0.3353
 3380SOL    HW213286   0.830   5.353   4.227 -0.8112  1.0251  2.0563
 3380SOL    HW313287   0.762   5.463   4.147  0.8260 -0.1463 -1.1321
 3380SOL    MW413288   0.764   5.381   4.177  0.1162  0.3442  0.3688
 3381SOL     OW13289   3.661   2.153   1.054 -0.1186 -0.3417  0.0221
 3381SOL    HW213290   3.748   2.192   1.062 -0.0704 -0.6745  1.3664
 3381SOL    HW313291   3.628   2.184   0.970  0.2796  1.8756  0.6180
 3381SOL    MW413292   3.668   2.162   1.044 -0.0597 -0.0931  0.2781
 3382SOL     OW13293   3.803   3.099   1.958 -0.0366  0.2789 -0.7321
 3382SOL    HW213294   3.846   3.140   2.033 -0.4809  0.1038 -0.3767
 3382SOL    HW313295   3.713   3.133   1.961 -0.4218 -0.7316 -0.4084
 3382SOL    MW413296   3.797   3.109   1.968 -0.1460  0.1225 -0.6425
 3383SOL     OW13297   5.645   3.162   6.171  0.0182  0.2932  0.8413
 3383SOL    HW213298   5.736   3.175   6.194  0.2815  3.5664 -1.4103
 3383SOL    HW313299   5.648   3.114   6.088 -0.1417  1.7500 -0.0495
 3383SOL    MW413300   5.657   3.157   6.163  0.0319  0.9172  0.4267
 3384SOL     OW13301   2.360   6.377   2.866 -0.7995  0.3160 -0.3889
 3384SOL    HW213302   2.409   6.297   2.846 -0.7605  0.2756 -0.1331
 3384SOL    HW313303   2.275   6.345   2.896 -0.0016  0.2515  2.0658
 3384SOL    MW413304   2.355   6.362   2.867 -0.6890  0.3022 -0.0313
 3385SOL     OW13305   3.378   0.003   1.781 -0.7730  0.4587  0.2701
 3385SOL    HW213306   3.404   0.021   1.872 -2.6444  1.6236  0.6421
 3385SOL    HW313307   3.432   0.061   1.728  1.0918 -0.9853  0.4949
 3385SOL    MW413308   3.388   0.013   1.786 -0.7739  0.4219  0.3488
 3386SOL     OW13309   5.239   2.392   2.793 -0.4274  0.1009 -0.5089
 3386SOL    HW213310   5.294   2.314   2.782  1.3515  1.4814 -2.3568
 3386SOL    HW313311   5.280   2.439   2.866 -0.7486 -0.0947 -0.2004
 3386SOL    MW413312   5.252   2.388   2.801 -0.2351  0.2573 -0.7120
 3387SOL     OW13313   4.399   3.796   5.896  0.5205 -0.7456 -0.9087
 3387SOL    HW213314   4.391   3.891   5.886 -1.2556 -0.8619 -0.8958
 3387SOL    HW313315   4.481   3.774   5.851  1.4565  0.8850 -0.1001
 3387SOL    MW413316   4.409   3.805   5.889  0.4097 -0.5458 -0.8003
 3388SOL     OW13317   2.592   1.085   4.060 -0.3417  0.3417  0.1816
 3388SOL    HW213318   2.604   1.012   4.120  2.0968 -0.3262 -1.0014
 3388SOL    HW313319   2.520   1.058   4.002  0.0261 -0.7817  0.2425
 3388SOL    MW413320   2.584   1.072   4.060  0.0286  0.1054  0.0336
 3389SOL     OW13321   5.940   2.473   5.497  0.2506 -0.2387  0.0821
 3389SOL    HW213322   5.865   2.439   5.546  0.1873 -1.5270 -0.8438
 3389SOL    HW313323   5.923   2.567   5.489 -0.0048 -0.0825  2.0117
 3389SOL    MW413324   5.928   2.481   5.502  0.2086 -0.3881  0.2145
 3390SOL     OW13325   6.112   0.956   3.964 -0.3042  0.1109 -0.5164
 3390SOL    HW213326   6.096   0.911   3.881 -0.9858 -1.5730  0.4553
 3390SOL    HW313327   6.098   0.888   4.030  3.0036  0.6170  0.8903
 3390SOL    MW413328   6.108   0.941   3.962  0.0422 -0.0445 -0.2026
 3391SOL     OW13329   0.360   0.391   5.527 -0.1507 -0.5674  0.0963
 3391SOL    HW213330   0.295   0.393   5.457 -0.0564  0.2558  0.0316
 3391SOL    HW313331   0.379   0.483   5.546 -1.3146 -0.7109  2.2697
 3391SOL    MW413332   0.354   0.403   5.521 -0.2918 -0.4777  0.3745
 3392SOL     OW13333   2.534   5.569   3.261 -0.2545  0.0221  0.2020
 3392SOL    HW213334   2.450   5.600   3.229 -0.4914  1.2193  1.8809
 3392SOL    HW313335   2.586   5.648   3.273  1.0923 -0.6885 -0.6659
 3392SOL    MW413336   2.530   5.583   3.258 -0.1081  0.0863  0.3090
 3393SOL     OW13337   5.454   0.112   2.486 -0.2383 -0.6962  0.1493
 3393SOL    HW213338   5.522   0.167   2.524 -0.6716 -0.1451  0.1526
 3393SOL    HW313339   5.374   0.137   2.533 -0.7699 -0.0571 -1.0489
 3393SOL    MW413340   5.452   0.122   2.498 -0.3656 -0.5392 -0.0083
 3394SOL     OW13341   3.639   1.451   4.345 -0.0862 -0.1057  0.7665
 3394SOL    HW213342   3.691   1.481   4.271  2.2204 -0.3549  2.1843
 3394SOL    HW313343   3.589   1.529   4.372  0.6102  0.5477  0.2151
 3394SOL    MW413344   3.639   1.466   4.339  0.3100 -0.0524  0.8808
 3395SOL     OW13345   3.013   5.790   2.244  0.1642  0.1481 -0.3368
 3395SOL    HW213346   2.985   5.699   2.252  0.5677  0.1287  1.4172
 3395SOL    HW313347   2.997   5.828   2.331 -0.0971  1.7932 -1.0589
 3395SOL    MW413348   3.008   5.783   2.257  0.1830  0.3625 -0.2007
 3396SOL     OW13349   5.195   3.363   4.391  0.3644  0.3659 -0.5690
 3396SOL    HW213350   5.183   3.458   4.385  0.3079  0.4039 -0.0021
 3396SOL    HW313351   5.151   3.328   4.314 -2.1455  0.6161  0.6127
 3396SOL    MW413352   5.187   3.371   4.380  0.0258  0.4039 -0.3383
 3397SOL     OW13353   5.646   0.661   5.520 -0.3759 -0.3098  0.4332
 3397SOL    HW213354   5.669   0.614   5.600  2.1694 -1.5954 -0.9049
 3397SOL    HW313355   5.731   0.683   5.481 -1.4748 -0.8446 -2.5158
 3397SOL    MW413356   5.660   0.658   5.525 -0.1850 -0.5500 -0.1325
 3398SOL     OW13357   5.907   6.322   4.997  0.2558  0.1336 -0.2731
 3398SOL    HW213358   5.899   6.357   4.908  0.2474 -0.5972 -0.5668
 3398SOL    HW313359   5.817   6.308   5.026  0.2667 -0.2374 -0.4048
 3398SOL    MW413360   5.894   6.324   4.989  0.2561 -0.0117 -0.3293
 3399SOL     OW13361   2.775   0.284   1.108  0.6427  0.4399  0.1732
 3399SOL    HW213362   2.867   0.285   1.082  0.4751  3.0973 -0.5611
 3399SOL    HW313363   2.731   0.341   1.045 -1.7920 -1.6976 -0.2716
 3399SOL    MW413364   2.781   0.291   1.096  0.2993  0.5085  0.0177
 3400SOL     OW13365   4.877   3.897   1.767 -0.1411 -0.4640  0.2949
 3400SOL    HW213366   4.953   3.914   1.821  1.1578  1.0640 -1.8571
 3400SOL    HW313367   4.802   3.926   1.820  1.0086  0.5261  1.4256
 3400SOL    MW413368   4.877   3.903   1.781  0.1820 -0.1318  0.1601
 3401SOL     OW13369   1.428   6.360   4.026  0.4459 -0.0144  0.2167
 3401SOL    HW213370   1.415   6.452   4.000 -2.5595 -0.0482  1.2373
 3401SOL    HW313371   1.469   6.365   4.112  0.5574  0.3765  0.1448
 3401SOL    MW413372   1.431   6.373   4.034  0.0641  0.0327  0.3418
 3402SOL     OW13373   6.263   5.893   5.086  0.1574 -0.8465 -0.2721
 3402SOL    HW213374   6.342   5.925   5.130 -0.2217 -1.6943  1.0680
 3402SOL    HW313375   6.271   5.798   5.089 -0.9923 -0.9408  0.0177
 3402SOL    MW413376   6.275   5.885   5.092 -0.0443 -0.9708 -0.0570
 3403SOL     OW13377   3.411   5.022   1.338 -0.6911 -0.1765 -0.9398
 3403SOL    HW213378   3.417   4.967   1.415 -0.7852  0.4606 -0.4720
 3403SOL    HW313379   3.357   4.972   1.276 -2.0701  0.0490  0.0423
 3403SOL    MW413380   3.405   5.008   1.340 -0.8855 -0.0627 -0.7485
 3404SOL     OW13381   3.794   2.423   5.873  0.1066 -0.5247  0.0507
 3404SOL    HW213382   3.887   2.404   5.859 -0.1014 -1.2770 -0.3579
 3404SOL    HW313383   3.750   2.339   5.860 -0.6362 -0.1690  0.2195
 3404SOL    MW413384   3.800   2.409   5.870 -0.0188 -0.5770  0.0191
 3405SOL     OW13385   5.141   4.966   4.281  0.0271  0.5678 -0.0773
 3405SOL    HW213386   5.206   4.899   4.300  0.6857  1.4142  0.7159
 3405SOL    HW313387   5.065   4.917   4.249  0.6237 -0.5231  0.1347
 3405SOL    MW413388   5.139   4.951   4.280  0.1927  0.5355  0.0553
 3406SOL     OW13389   4.699   0.940   3.925 -0.2612 -0.0599 -0.1805
 3406SOL    HW213390   4.635   0.869   3.921  0.4207 -0.6542 -1.2457
 3406SOL    HW313391   4.651   1.014   3.962 -1.8979 -0.1345 -2.0171
 3406SOL    MW413392   4.684   0.940   3.929 -0.3871 -0.1481 -0.5633
 3407SOL     OW13393   3.927   5.190   1.570  0.3567  0.2554 -0.0923
 3407SOL    HW213394   3.875   5.216   1.646  1.7745 -1.3793  1.5386
 3407SOL    HW313395   3.864   5.187   1.498 -1.3303  0.5542  1.2937
 3407SOL    MW413396   3.912   5.193   1.570  0.3212  0.0791  0.3057
 3408SOL     OW13397   0.206   5.775  -0.002  0.1963  0.0900  0.0141
 3408SOL    HW213398   0.229   5.684  -0.021 -0.4466 -0.2446  0.8054
 3408SOL    HW313399   0.112   5.773   0.016  0.0464  1.0185 -0.5648
 3408SOL    MW413400   0.197   5.762  -0.002  0.0917  0.1684  0.0421
 3409SOL     OW13401   6.336   0.874   1.024  0.5615  0.6792  0.2180
 3409SOL    HW213402   6.272   0.909   0.962  0.2946 -1.1652 -0.5894
 3409SOL    HW313403   6.402   0.944   1.031 -0.0883  1.4663 -1.0954
 3409SOL    MW413404   6.336   0.888   1.016  0.4405  0.5397 -0.0618
 3410SOL     OW13405   2.531   2.640   5.064  0.4319  0.5766  0.0133
 3410SOL    HW213406   2.513   2.664   5.155  0.0354  3.1237 -0.6550
 3410SOL    HW313407   2.512   2.546   5.060  1.2009  0.2032  2.6978
 3410SOL    MW413408   2.526   2.631   5.076  0.4811  0.8634  0.2793
 3411SOL     OW13409   6.427   0.767   5.207 -0.6156 -0.0729 -0.0352
 3411SOL    HW213410   6.488   0.707   5.163 -0.6523  0.5332 -0.9415
 3411SOL    HW313411   6.344   0.720   5.208 -0.8952  0.3285 -1.6513
 3411SOL    MW413412   6.424   0.753   5.201 -0.6574  0.0600 -0.3680
 3412SOL     OW13413   3.115   0.468   4.204  0.1264 -0.3652  0.3312
 3412SOL    HW213414   3.165   0.517   4.138 -0.9900  0.6410  0.1962
 3412SOL    HW313415   3.175   0.400   4.233  1.6362  0.8803  0.2884
 3412SOL    MW413416   3.130   0.466   4.199  0.1783 -0.0681  0.3078
 3413SOL     OW13417   5.502   2.236   5.177  0.2889  0.0430  0.3052
 3413SOL    HW213418   5.594   2.228   5.199  0.2391 -4.1876 -0.1901
 3413SOL    HW313419   5.497   2.208   5.085 -1.4944 -0.0716  0.3997
 3413SOL    MW413420   5.513   2.231   5.168  0.0471 -0.5303  0.2523
 3414SOL     OW13421   2.075   5.083   6.055  0.2127  0.2880 -0.2117
 3414SOL    HW213422   2.094   5.114   5.967  0.3043 -2.4421 -1.2442
 3414SOL    HW313423   2.140   5.014   6.071 -0.3970  0.0752  1.6183
 3414SOL    MW413424   2.086   5.078   6.046  0.1443 -0.1003 -0.1065
 3415SOL     OW13425   1.705   2.543   5.685 -0.2003  0.5846  0.1673
 3415SOL    HW213426   1.781   2.526   5.630 -0.1191  1.3483  0.0373
 3415SOL    HW313427   1.632   2.552   5.623 -0.2311  0.7650  0.2294
 3415SOL    MW413428   1.705   2.542   5.670 -0.1937  0.7091  0.1584
 3416SOL     OW13429   3.715   2.046   5.214  0.3934  0.5006 -0.1623
 3416SOL    HW213430   3.679   2.021   5.298  0.7873  0.1020 -0.1109
 3416SOL    HW313431   3.713   1.966   5.161  0.5319  0.6469 -0.3939
 3416SOL    MW413432   3.710   2.032   5.218  0.4636  0.4673 -0.1860
 3417SOL     OW13433   1.813   1.110   4.194  0.0174 -0.4816  0.1731
 3417SOL    HW213434   1.773   1.033   4.152 -0.4816 -0.2330  0.1854
 3417SOL    HW313435   1.889   1.075   4.240 -0.1843 -0.9649  0.1450
 3417SOL    MW413436   1.818   1.095   4.195 -0.0750 -0.5125  0.1710
 3418SOL     OW13437   4.653   3.117   3.147 -0.0182  0.4597 -0.0359
 3418SOL    HW213438   4.746   3.135   3.132 -0.3105  3.0040  0.6820
 3418SOL    HW313439   4.644   3.113   3.242 -0.8222  1.5524 -0.0447
 3418SOL    MW413440   4.664   3.119   3.157 -0.1629  0.9395  0.0577
 3419SOL     OW13441   5.257   5.283   1.448 -0.2256 -0.3069 -0.3862
 3419SOL    HW213442   5.287   5.292   1.538  0.2127  0.9695 -0.6325
 3419SOL    HW313443   5.162   5.285   1.454 -0.1943 -0.0206  0.0422
 3419SOL    MW413444   5.248   5.285   1.460 -0.1637 -0.1007 -0.3622
 3420SOL     OW13445   5.419   0.301   3.322  0.0701 -0.1533 -0.5910
 3420SOL    HW213446   5.500   0.252   3.307 -0.0779 -0.0405 -1.9253
 3420SOL    HW313447   5.437   0.388   3.286 -1.3763 -0.8028 -3.1047
 3420SOL    MW413448   5.432   0.306   3.315 -0.1403 -0.2241 -1.0987
 3421SOL     OW13449   0.542   3.750   0.567  0.8258 -0.3587  0.1431
 3421SOL    HW213450   0.568   3.799   0.489 -0.5321 -1.7008 -1.2319
 3421SOL    HW313451   0.580   3.663   0.554 -2.9164 -1.9930 -1.3181
 3421SOL    MW413452   0.551   3.745   0.555  0.1529 -0.7514 -0.2311
 3422SOL     OW13453   0.549   5.928   3.069  0.4879 -0.2634  0.0621
 3422SOL    HW213454   0.477   5.905   3.011 -0.9067  2.8732  0.3579
 3422SOL    HW313455   0.605   5.985   3.017 -0.7661  2.5632  1.5765
 3422SOL    MW413456   0.547   5.932   3.055  0.1384  0.5234  0.3010
 3423SOL     OW13457   3.449   6.163   0.317 -0.2765  0.1155  0.0240
 3423SOL    HW213458   3.454   6.239   0.374 -2.4663  1.0986 -0.9801
 3423SOL    HW313459   3.459   6.088   0.375  0.5911  1.1272  1.2258
 3423SOL    MW413460   3.451   6.163   0.332 -0.4510  0.3787  0.0501
 3424SOL     OW13461   0.484   0.669   6.331  0.1020 -0.6545  0.0032
 3424SOL    HW213462   0.438   0.654   6.413 -0.1145 -1.3930 -0.2489
 3424SOL    HW313463   0.495   0.764   6.326 -2.2612 -0.3484 -0.3903
 3424SOL    MW413464   0.480   0.680   6.341 -0.2383 -0.7116 -0.0820
 3425SOL     OW13465   4.528   5.072   1.286  0.6080 -0.1326  0.5079
 3425SOL    HW213466   4.512   5.159   1.252 -1.1646  0.1758  1.9618
 3425SOL    HW313467   4.495   5.075   1.376  2.4591 -1.6968  1.3147
 3425SOL    MW413468   4.521   5.084   1.293  0.6184 -0.2983  0.8062
 3426SOL     OW13469   0.133   3.260   1.697  0.8110  0.6127  0.5007
 3426SOL    HW213470   0.136   3.326   1.767  2.3374  0.6680  0.4131
 3426SOL    HW313471   0.119   3.177   1.742  0.8212  0.7690  0.7911
 3426SOL    MW413472   0.132   3.258   1.712  1.0137  0.6406  0.5274
 3427SOL     OW13473   2.210   2.755   0.413 -0.3570  0.4800  0.7383
 3427SOL    HW213474   2.162   2.788   0.489  1.5957  0.0197  2.2805
 3427SOL    HW313475   2.147   2.701   0.366 -1.3503 -0.1323  2.6632
 3427SOL    MW413476   2.196   2.753   0.417 -0.2304  0.3385  1.1958
 3428SOL     OW13477   4.797   2.652   5.180  0.8952 -0.2517  0.1007
 3428SOL    HW213478   4.886   2.639   5.146  1.9744 -0.1679  2.6222
 3428SOL    HW313479   4.789   2.746   5.192  0.8548 -0.3283  0.7441
 3428SOL    MW413480   4.808   2.662   5.177  1.0322 -0.2507  0.5183
 3429SOL     OW13481   6.116   1.875   4.773  0.8074 -0.5657 -0.4305
 3429SOL    HW213482   6.086   1.964   4.756  0.2967 -0.4218  1.0868
 3429SOL    HW313483   6.156   1.847   4.691 -0.0166  0.6545 -1.2832
 3429SOL    MW413484   6.117   1.883   4.760  0.6313 -0.3857 -0.3428
 3430SOL     OW13485   2.882   0.467   4.673 -0.5185  0.1434  0.0081
 3430SOL    HW213486   2.959   0.480   4.618 -1.6954  0.9764 -1.5057
 3430SOL    HW313487   2.825   0.409   4.623 -0.6407 -0.9711  1.3786
 3430SOL    MW413488   2.884   0.461   4.659 -0.6899  0.1063 -0.0108
 3431SOL     OW13489   5.676   4.844   0.544  0.1224 -0.1712  0.7399
 3431SOL    HW213490   5.705   4.762   0.584  0.3026 -0.2299  0.4950
 3431SOL    HW313491   5.757   4.893   0.527 -0.0541  0.6374  2.0995
 3431SOL    MW413492   5.690   4.840   0.547  0.1229 -0.0722  0.8870
 3432SOL     OW13493   5.490   3.231   0.665  0.3280 -0.1662 -0.8188
 3432SOL    HW213494   5.468   3.271   0.581 -0.0649  1.3928 -0.0117
 3432SOL    HW313495   5.555   3.290   0.703  0.2100 -0.6454  0.1468
 3432SOL    MW413496   5.496   3.244   0.659  0.2606 -0.0237 -0.5849
 3433SOL     OW13497   1.470   1.013   2.861 -0.1601  0.1666  0.2351
 3433SOL    HW213498   1.402   1.005   2.795  0.1046  1.3137 -0.2003
 3433SOL    HW313499   1.500   0.923   2.875  0.3707 -0.0415 -1.8590
 3433SOL    MW413500   1.465   1.000   2.854 -0.0551  0.2905 -0.0986
 3434SOL     OW13501   2.685   2.243   5.795  0.3604 -0.3223  0.1273
 3434SOL    HW213502   2.745   2.201   5.857 -1.0348 -1.9856  0.4120
 3434SOL    HW313503   2.615   2.179   5.782 -0.5262  0.9067 -1.4521
 3434SOL    MW413504   2.684   2.229   5.802  0.0594 -0.3796 -0.0435
 3435SOL     OW13505   4.913   2.185   1.403  0.4306 -0.3780  0.3599
 3435SOL    HW213506   4.862   2.137   1.338 -0.3584 -0.3650  0.9554
 3435SOL    HW313507   4.947   2.260   1.355  0.1614 -0.5649 -0.1339
 3435SOL    MW413508   4.910   2.189   1.388  0.2910 -0.4010  0.3733
 3436SOL     OW13509   1.956   1.094   2.662  0.2622  0.2535 -0.0995
 3436SOL    HW213510   1.990   1.008   2.639 -0.1809 -0.1193  0.6000
 3436SOL    HW313511   1.869   1.097   2.622 -0.6002 -0.4814  1.6150
 3436SOL    MW413512   1.949   1.083   2.654  0.0899  0.1073  0.2190
 3437SOL     OW13513   4.780   1.816   3.449  0.0867  0.1407 -0.2952
 3437SOL    HW213514   4.874   1.813   3.429 -0.0280  0.3592 -0.8900
 3437SOL    HW313515   4.776   1.836   3.542  0.6401 -0.5151 -0.1225
 3437SOL    MW413516   4.792   1.818   3.458  0.1446  0.0830 -0.3509
 3438SOL     OW13517   6.237   2.701   0.421  0.0246 -0.1161 -0.5022
 3438SOL    HW213518   6.264   2.614   0.394  1.1481  0.3482 -0.9333
 3438SOL    HW313519   6.302   2.727   0.486  0.0448  0.6336 -0.8145
 3438SOL    MW413520   6.249   2.693   0.426  0.1755  0.0441 -0.6003
 3439SOL     OW13521   6.385   0.713   1.889  0.2633  0.3243 -0.3412
 3439SOL    HW213522   6.443   0.701   1.814  0.3290  0.6753 -0.3489
 3439SOL    HW313523   6.303   0.744   1.851  1.6252  5.0683 -0.0201
 3439SOL    MW413524   6.382   0.715   1.874  0.4516  0.9966 -0.2999
 3440SOL     OW13525   4.815   4.308   1.480  0.3815 -0.3032  0.0069
 3440SOL    HW213526   4.797   4.280   1.391  0.5654 -1.3386  0.2861
 3440SOL    HW313527   4.910   4.306   1.488  0.4001  0.4260  0.0301
 3440SOL    MW413528   4.825   4.304   1.470  0.4082 -0.3436  0.0468
 3441SOL     OW13529   2.031   0.980   4.287 -0.2187 -0.4117 -0.2014
 3441SOL    HW213530   2.009   0.898   4.244 -1.3071 -0.8025  1.0342
 3441SOL    HW313531   2.090   1.025   4.226 -0.9887 -1.3225 -1.6596
 3441SOL    MW413532   2.036   0.975   4.274 -0.4639 -0.5834 -0.2307
 3442SOL     OW13533   0.388   0.483   1.856 -0.1546 -0.0926 -0.1437
 3442SOL    HW213534   0.390   0.511   1.765 -0.2170  1.5228  0.3152
 3442SOL    HW313535   0.479   0.462   1.877 -0.3406 -1.8521 -0.9443
 3442SOL    MW413536   0.400   0.484   1.847 -0.1874 -0.1116 -0.1888
 3443SOL     OW13537   1.609   3.742   3.076 -0.5615 -0.1603  0.4496
 3443SOL    HW213538   1.656   3.747   3.159 -3.3978  0.2781  2.1466
 3443SOL    HW313539   1.625   3.827   3.035 -2.2873  1.2508  2.4842
 3443SOL    MW413540   1.617   3.754   3.081 -1.1634  0.0837  0.9419
 3444SOL     OW13541   3.556   0.635   6.333 -0.0768  0.3078  0.1951
 3444SOL    HW213542   3.581   0.658   6.243  0.4198 -0.5089  0.1197
 3444SOL    HW313543   3.607   0.695   6.387 -1.1825  1.5447 -0.0821
 3444SOL    MW413544   3.566   0.646   6.328 -0.1572  0.3633  0.1485
 3445SOL     OW13545   0.661   3.017   6.158 -0.1813  0.2614  0.0275
 3445SOL    HW213546   0.596   3.085   6.137  0.7982  1.7674  1.6419
 3445SOL    HW313547   0.737   3.040   6.104  0.0188  0.2083  0.2895
 3445SOL    MW413548   0.662   3.029   6.148 -0.0256  0.4531  0.2751
 3446SOL     OW13549   3.440   5.983   5.577  0.5585 -0.9504  0.1851
 3446SOL    HW213550   3.382   6.059   5.570 -0.5405 -1.6915  0.8507
 3446SOL    HW313551   3.482   5.977   5.491  0.1836  0.0329 -0.0824
 3446SOL    MW413552   3.438   5.992   5.565  0.3641 -0.9185  0.2376
 3447SOL     OW13553   0.292   2.012   5.423  0.5281 -0.0034  0.4131
 3447SOL    HW213554   0.247   2.046   5.346  0.5074 -1.2122 -0.1299
 3447SOL    HW313555   0.250   2.056   5.497 -0.4676  0.0642 -0.1783
 3447SOL    MW413556   0.281   2.022   5.423  0.3940 -0.1540  0.2634
 3448SOL     OW13557   0.360   0.644   0.172 -0.2044  0.2510 -0.4161
 3448SOL    HW213558   0.286   0.703   0.156 -1.6921 -1.0277  1.2112
 3448SOL    HW313559   0.388   0.665   0.261 -0.2274 -0.8967 -0.1172
 3448SOL    MW413560   0.354   0.655   0.182 -0.4037 -0.0691 -0.1619
 3449SOL     OW13561   2.263   6.005   1.181 -0.4636  0.0774 -0.3833
 3449SOL    HW213562   2.241   5.972   1.094 -0.8388 -0.2026 -0.1858
 3449SOL    HW313563   2.181   5.998   1.231 -0.7553  2.0174 -0.5378
 3449SOL    MW413564   2.249   6.000   1.176 -0.5516  0.2964 -0.3777
 3450SOL     OW13565   6.109   1.320   3.776  0.1116 -0.3042  0.1839
 3450SOL    HW213566   6.117   1.405   3.733  2.3633 -0.4051  0.2689
 3450SOL    HW313567   6.127   1.338   3.868 -0.3180 -0.7384  0.3578
 3450SOL    MW413568   6.113   1.333   3.782  0.3520 -0.3748  0.2180
 3451SOL     OW13569   0.190   5.648   1.090 -0.3431  0.1877  0.1260
 3451SOL    HW213570   0.099   5.620   1.090 -0.5179  0.7315 -0.4109
 3451SOL    HW313571   0.221   5.631   1.179 -1.0007  0.1086  0.3438
 3451SOL    MW413572   0.182   5.642   1.102 -0.4529  0.2490  0.0839
 3452SOL     OW13573   1.316   3.613   5.969  0.1267 -0.0664  0.0897
 3452SOL    HW213574   1.282   3.526   5.951 -0.1371 -0.3083  1.6553
 3452SOL    HW313575   1.247   3.673   5.940  0.0565 -0.3853 -0.4187
 3452SOL    MW413576   1.303   3.609   5.963  0.0826 -0.1404  0.2292
 3453SOL     OW13577   5.701   0.427   0.507 -0.5900  0.2977  0.0806
 3453SOL    HW213578   5.658   0.455   0.426  0.3105 -1.1480 -0.9475
 3453SOL    HW313579   5.793   0.452   0.495 -0.5662  0.6560  0.9536
 3453SOL    MW413580   5.708   0.434   0.495 -0.4680  0.1542  0.0601
 3454SOL     OW13581   5.537   6.233   1.779  0.2835  0.6158 -0.3998
 3454SOL    HW213582   5.501   6.257   1.864 -1.9428 -0.1367 -1.0741
 3454SOL    HW313583   5.471   6.260   1.716  0.4896 -1.5528 -1.6409
 3454SOL    MW413584   5.524   6.240   1.782  0.0169  0.2304 -0.6525
 3455SOL     OW13585   2.922   5.738   4.367 -0.4402  0.0259  0.8644
 3455SOL    HW213586   2.945   5.665   4.424 -0.4742  0.1251  1.0048
 3455SOL    HW313587   2.954   5.712   4.281 -3.2277 -1.5815  0.1949
 3455SOL    MW413588   2.929   5.725   4.363 -0.8125 -0.1731  0.7946
 3456SOL     OW13589   1.524   3.328   3.375  0.1825 -0.0031 -0.1334
 3456SOL    HW213590   1.440   3.290   3.348 -0.9825  0.8951  1.9781
 3456SOL    HW313591   1.535   3.405   3.319  0.6345 -1.2145 -1.7773
 3456SOL    MW413592   1.514   3.333   3.364  0.0884 -0.0444 -0.0717
 3457SOL     OW13593   1.568   5.293   2.149  0.0524  0.6652 -0.2707
 3457SOL    HW213594   1.576   5.259   2.238 -0.2765  0.5756 -0.2766
 3457SOL    HW313595   1.658   5.316   2.124  0.4020 -0.8933 -0.5472
 3457SOL    MW413596   1.581   5.292   2.157  0.0551  0.4477 -0.3080
 3458SOL     OW13597   5.558   4.626   0.034  0.1888  0.5120 -0.1884
 3458SOL    HW213598   5.494   4.691   0.007 -1.0408 -1.1020 -1.3569
 3458SOL    HW313599   5.517   4.582   0.109  0.5676  0.4328 -0.0273
 3458SOL    MW413600   5.544   4.629   0.041  0.0765  0.2886 -0.3213
 3459SOL     OW13601   2.584   3.305   4.468 -0.2762  0.0930  0.3014
 3459SOL    HW213602   2.541   3.390   4.478  1.0822  1.0122 -1.3125
 3459SOL    HW313603   2.513   3.245   4.444 -0.9456  1.2142 -0.6159
 3459SOL    MW413604   2.569   3.308   4.466 -0.1853  0.3622 -0.0325
 3460SOL     OW13605   6.274   4.001   1.548 -0.0453  0.1964 -0.2914
 3460SOL    HW213606   6.332   4.009   1.472  1.1458  1.4416  0.6969
 3460SOL    HW313607   6.332   3.977   1.620 -1.0254 -0.1486  0.4027
 3460SOL    MW413608   6.290   3.999   1.547 -0.0175  0.3152 -0.0694
 3461SOL     OW13609   4.246   5.023   0.496  0.4293  0.0037  0.2631
 3461SOL    HW213610   4.155   4.999   0.513 -0.0530  1.0377 -0.6913
 3461SOL    HW313611   4.295   4.941   0.503 -0.5831 -0.5688  0.7472
 3461SOL    MW413612   4.241   5.009   0.499  0.2321  0.0646  0.2011
 3462SOL     OW13613   3.732   3.913   6.320  0.1706  0.5577 -0.0114
 3462SOL    HW213614   3.692   3.900   6.406 -0.3565  0.3213 -0.2839
 3462SOL    HW313615   3.686   3.851   6.263  0.3364  0.8889 -0.5123
 3462SOL    MW413616   3.720   3.903   6.324  0.1229  0.5702 -0.1135
 3463SOL     OW13617   1.372   1.356   0.343  0.1744  0.5073 -0.8468
 3463SOL    HW213618   1.314   1.288   0.377 -0.8249  1.0265 -1.4467
 3463SOL    HW313619   1.460   1.328   0.368  0.0881 -2.2702 -3.1145
 3463SOL    MW413620   1.376   1.343   0.350  0.0312  0.2093 -1.2252
 3464SOL     OW13621   1.019   3.199   3.127 -0.7406  0.4774  0.5080
 3464SOL    HW213622   0.994   3.264   3.061 -1.1075  0.8563  1.0098
 3464SOL    HW313623   1.068   3.250   3.192 -0.9005  0.2248  0.8277
 3464SOL    MW413624   1.022   3.214   3.127 -0.8101  0.4941  0.6164
 3465SOL     OW13625   1.660   1.258   2.138  0.1995 -0.2423 -0.1293
 3465SOL    HW213626   1.575   1.226   2.108  0.2735 -0.2896 -0.2856
 3465SOL    HW313627   1.639   1.337   2.189  0.1074  0.0677 -0.6403
 3465SOL    MW413628   1.646   1.265   2.141  0.1971 -0.2076 -0.2174
 3466SOL     OW13629   3.863   1.936   0.810  0.0904 -0.4840  0.7088
 3466SOL    HW213630   3.942   1.986   0.833  0.9871 -2.0342  1.1473
 3466SOL    HW313631   3.877   1.913   0.718 -0.1360 -0.2601  0.6183
 3466SOL    MW413632   3.875   1.939   0.801  0.1788 -0.6590  0.7547
 3467SOL     OW13633   4.041   1.141   1.025 -0.0635  0.0409 -0.1748
 3467SOL    HW213634   4.080   1.146   1.112  2.0367 -0.8047 -0.9980
 3467SOL    HW313635   4.102   1.087   0.974 -1.5035  0.0535 -2.0285
 3467SOL    MW413636   4.055   1.135   1.030  0.0236 -0.0690 -0.5280
 3468SOL     OW13637   3.192   0.251   2.836 -0.2546  0.0745 -0.1368
 3468SOL    HW213638   3.169   0.231   2.927  0.7527 -0.7446 -0.0439
 3468SOL    HW313639   3.208   0.166   2.796  0.6351  0.4974 -0.7150
 3468SOL    MW413640   3.191   0.237   2.843 -0.0043  0.0222 -0.2008
 3469SOL     OW13641   4.738   2.467   0.782  0.0625  0.0032  0.3800
 3469SOL    HW213642   4.738   2.377   0.749 -0.0769  0.4906 -1.0305
 3469SOL    HW313643   4.716   2.459   0.874 -0.7949 -1.3468  0.0863
 3469SOL    MW413644   4.735   2.454   0.790 -0.0690 -0.1106  0.1552
 3470SOL     OW13645   5.899   4.443   0.070  0.4251  0.1919  0.1544
 3470SOL    HW213646   5.936   4.410  -0.012 -1.6665  0.2490 -0.8685
 3470SOL    HW313647   5.835   4.509   0.043  0.8577  1.4130  1.9263
 3470SOL    MW413648   5.895   4.447   0.055  0.2062  0.3606  0.2533
 3471SOL     OW13649   3.590   2.994   0.582  0.0391  0.1438 -0.4006
 3471SOL    HW213650   3.506   2.952   0.563 -0.7703  1.7305 -0.4879
 3471SOL    HW313651   3.592   3.003   0.677 -1.1697  2.5258 -0.5384
 3471SOL    MW413652   3.579   2.990   0.592 -0.2272  0.6674 -0.4303
 3472SOL     OW13653   5.330   5.833   6.041 -0.2700  0.5683  0.7333
 3472SOL    HW213654   5.328   5.846   5.946  0.1508  0.7290  0.7434
 3472SOL    HW313655   5.250   5.785   6.060  0.5346 -1.1726  0.0189
 3472SOL    MW413656   5.319   5.828   6.031 -0.1083  0.3598  0.6403
 3473SOL     OW13657   5.190   3.193   5.035  0.1973 -0.2852 -0.1836
 3473SOL    HW213658   5.237   3.139   4.972  0.4913  1.7054 -1.7658
 3473SOL    HW313659   5.256   3.215   5.101  0.4597 -0.6241 -0.3285
 3473SOL    MW413660   5.205   3.189   5.036  0.2707 -0.0673 -0.4115
 3474SOL     OW13661   4.111   4.618   3.217  1.1183 -0.2669  0.6228
 3474SOL    HW213662   4.109   4.538   3.270  0.0193  0.9440  2.5303
 3474SOL    HW313663   4.141   4.686   3.277 -2.1078  1.5635  0.3687
 3474SOL    MW413664   4.115   4.616   3.232  0.5476  0.1344  0.8409
 3475SOL     OW13665   2.055   3.676   1.729  0.1056  0.0261  0.0013
 3475SOL    HW213666   2.108   3.733   1.674 -0.3750 -1.0640 -1.6530
 3475SOL    HW313667   2.029   3.604   1.672 -0.8030 -0.9300  1.5390
 3475SOL    MW413668   2.059   3.674   1.714 -0.0777 -0.2439 -0.0141
 3476SOL     OW13669   0.785   2.098   3.455  0.4288  0.1083  0.0224
 3476SOL    HW213670   0.833   2.172   3.417  0.1512 -0.3040 -1.1878
 3476SOL    HW313671   0.751   2.050   3.379 -1.1635 -0.1044  0.8197
 3476SOL    MW413672   0.787   2.102   3.440  0.1821  0.0258 -0.0320
 3477SOL     OW13673   6.002   1.853   3.356  0.4853  0.2728 -0.2443
 3477SOL    HW213674   6.088   1.852   3.398 -0.2660  3.4349  1.6990
 3477SOL    HW313675   5.957   1.776   3.390  2.2555 -1.0567 -0.7838
 3477SOL    MW413676   6.008   1.843   3.366  0.6197  0.5146 -0.0591
 3478SOL     OW13677   2.850   1.944   5.586  0.2478  0.0455 -0.2220
 3478SOL    HW213678   2.782   1.877   5.597 -1.9112  2.1384  0.0605
 3478SOL    HW313679   2.866   1.945   5.491 -0.0505 -0.5142 -0.2866
 3478SOL    MW413680   2.843   1.935   5.575 -0.0764  0.2478 -0.1932
 3479SOL     OW13681   3.811   6.126   4.562 -0.4396 -0.4729 -0.6745
 3479SOL    HW213682   3.881   6.077   4.605 -1.3581 -1.6089 -0.4338
 3479SOL    HW313683   3.733   6.072   4.574 -1.3363  0.6994 -1.0666
 3479SOL    MW413684   3.810   6.112   4.569 -0.6791 -0.4681 -0.6944
 3480SOL     OW13685   1.102   3.061   1.025 -0.2601  0.8343 -0.2524
 3480SOL    HW213686   1.196   3.058   1.043  0.3805  0.4289 -3.1081
 3480SOL    HW313687   1.077   3.152   1.043  0.4433  0.7364  1.3801
 3480SOL    MW413688   1.111   3.073   1.030 -0.0827  0.7679 -0.4138
 3481SOL     OW13689   2.494   1.052   3.452 -0.0930  0.6783 -0.2245
 3481SOL    HW213690   2.482   0.964   3.486  0.3849  1.3277  1.7437
 3481SOL    HW313691   2.468   1.110   3.524  0.8184  2.1378 -1.0022
 3481SOL    MW413692   2.489   1.048   3.466  0.0903  0.9566 -0.0674
 3482SOL     OW13693   2.505   1.241   5.978  0.1788 -0.3927 -0.9692
 3482SOL    HW213694   2.478   1.155   5.947  1.7713 -1.2111 -0.2100
 3482SOL    HW313695   2.425   1.293   5.978 -0.5381 -1.4065 -2.8997
 3482SOL    MW413696   2.491   1.237   5.974  0.2944 -0.6344 -1.1238
 3483SOL     OW13697   5.298   5.860   1.769 -0.2789 -0.1153 -0.2432
 3483SOL    HW213698   5.256   5.835   1.686 -1.3905 -4.2737  1.3286
 3483SOL    HW313699   5.228   5.902   1.819 -0.3255  0.0503 -0.4436
 3483SOL    MW413700   5.283   5.862   1.764 -0.4317 -0.6421 -0.0622
 3484SOL     OW13701   4.142   5.755   5.494 -0.2235 -0.6322 -0.4162
 3484SOL    HW213702   4.172   5.669   5.464 -0.5458 -1.0904  0.5291
 3484SOL    HW313703   4.068   5.735   5.551  0.5545  0.1872  0.9153
 3484SOL    MW413704   4.136   5.741   5.498 -0.1634 -0.5845 -0.1158
 3485SOL     OW13705   3.182   3.811   0.349 -0.4672  0.0097  0.2855
 3485SOL    HW213706   3.112   3.819   0.414  0.1649  1.9638  0.8086
 3485SOL    HW313707   3.240   3.744   0.384 -1.5936 -0.9963  0.2854
 3485SOL    MW413708   3.180   3.803   0.362 -0.5325  0.1348  0.3545
 3486SOL     OW13709   3.111   0.505   4.523 -0.2636  0.1005 -0.0950
 3486SOL    HW213710   3.190   0.451   4.527 -0.2762  0.0424 -0.6025
 3486SOL    HW313711   3.117   0.551   4.439 -1.5100 -1.0596 -0.8569
 3486SOL    MW413712   3.122   0.504   4.512 -0.4297 -0.0602 -0.2625
 3487SOL     OW13713   0.780   6.090   1.624 -0.1413 -0.5963 -0.2587
 3487SOL    HW213714   0.701   6.123   1.668  0.5367  1.2263 -0.3170
 3487SOL    HW313715   0.801   6.157   1.559  3.4674  0.9159  2.1402
 3487SOL    MW413716   0.772   6.103   1.621  0.4243 -0.1563  0.0501
 3488SOL     OW13717   3.705   3.477   4.156  0.2838  0.3969 -0.3945
 3488SOL    HW213718   3.672   3.439   4.075  0.4933  0.1347 -0.3594
 3488SOL    HW313719   3.642   3.450   4.223  0.9304 -0.7007 -0.2041
 3488SOL    MW413720   3.693   3.469   4.154  0.3967  0.2175 -0.3648
 3489SOL     OW13721   3.666   1.206   3.023 -0.3757 -0.0725 -0.2486
 3489SOL    HW213722   3.659   1.144   3.095  0.2714  0.8837  0.6556
 3489SOL    HW313723   3.581   1.251   3.022 -0.6054 -0.4951 -0.4926
 3489SOL    MW413724   3.654   1.204   3.032 -0.3206 -0.0021 -0.1615
 3490SOL     OW13725   4.762   6.194   6.256  0.0500 -0.0615  0.6570
 3490SOL    HW213726   4.784   6.155   6.171 -0.1292  1.1021  0.0685
 3490SOL    HW313727   4.836   6.252   6.275 -0.0040 -0.1695  1.2221
 3490SOL    MW413728   4.775   6.196   6.247  0.0192  0.0777  0.6539
 3491SOL     OW13729   4.004   0.737   4.598 -0.0544 -0.0140 -0.3506
 3491SOL    HW213730   4.004   0.641   4.599  0.2913 -0.0229  0.6969
 3491SOL    HW313731   3.925   0.761   4.550  0.1355 -0.8183 -1.0844
 3491SOL    MW413732   3.994   0.728   4.592  0.0162 -0.1213 -0.3092
 3492SOL     OW13733   2.702   1.269   3.768  0.3503  0.3725 -0.7087
 3492SOL    HW213734   2.757   1.195   3.794  0.3166  0.5097 -0.2290
 3492SOL    HW313735   2.707   1.330   3.842 -0.5078  0.3466 -0.6151
 3492SOL    MW413736   2.710   1.267   3.781  0.2327  0.3872 -0.6331
 3493SOL     OW13737   2.524   6.286   6.103  0.4177 -0.0964  0.0890
 3493SOL    HW213738   2.464   6.242   6.164  1.8060 -1.6526  0.4153
 3493SOL    HW313739   2.489   6.265   6.017 -1.1636  1.5331  0.2694
 3493SOL    MW413740   2.512   6.277   6.100  0.3923 -0.0868  0.1559
 3494SOL     OW13741   1.439   4.831   6.301  0.4033  0.1241  0.4885
 3494SOL    HW213742   1.516   4.845   6.357 -0.6842 -0.2371  2.1555
 3494SOL    HW313743   1.431   4.911   6.251  2.2841 -0.1116 -0.2794
 3494SOL    MW413744   1.448   4.843   6.302  0.5080  0.0453  0.6071
 3495SOL     OW13745   0.401   3.337   0.608  0.2861  0.5123  0.1772
 3495SOL    HW213746   0.482   3.288   0.623  0.5857  1.0612  0.4261
 3495SOL    HW313747   0.331   3.277   0.631  0.6810  0.6759  1.9297
 3495SOL    MW413748   0.403   3.323   0.613  0.3777  0.6063  0.4412
 3496SOL     OW13749   5.365   0.748   0.350 -0.2217 -0.6716 -0.2796
 3496SOL    HW213750   5.337   0.671   0.399 -0.2253 -0.0416  0.7285
 3496SOL    HW313751   5.375   0.817   0.416 -1.0162  0.4210 -1.2480
 3496SOL    MW413752   5.362   0.747   0.365 -0.3270 -0.4444 -0.2744
 3497SOL     OW13753   1.409   2.971   3.998 -0.5164  0.4095  0.1180
 3497SOL    HW213754   1.483   3.019   4.034 -0.4179  0.6610 -0.4159
 3497SOL    HW313755   1.440   2.935   3.915  0.2496 -2.7588  1.6123
 3497SOL    MW413756   1.423   2.972   3.992 -0.4023  0.0247  0.2447
 3498SOL     OW13757   3.324   0.792   6.367  0.0735  0.0587 -0.5557
 3498SOL    HW213758   3.404   0.740   6.354  0.1106  0.1643 -0.7606
 3498SOL    HW313759   3.255   0.742   6.324 -0.2924 -0.8378  0.9770
 3498SOL    MW413760   3.326   0.778   6.360  0.0301 -0.0456 -0.3805
 3499SOL     OW13761   5.443   2.655   1.763  0.6695 -0.4488 -0.2302
 3499SOL    HW213762   5.443   2.586   1.697  0.4498 -1.1234  0.4598
 3499SOL    HW313763   5.482   2.614   1.840  0.8447  0.3010  0.0851
 3499SOL    MW413764   5.448   2.641   1.765  0.6636 -0.4388 -0.0976
 3500SOL     OW13765   1.296   5.373   1.503  0.1372 -0.1606 -0.1610
 3500SOL    HW213766   1.249   5.290   1.503 -0.6985  0.3092  0.2181
 3500SOL    HW313767   1.293   5.403   1.594  2.0461 -0.6015  0.0941
 3500SOL    MW413768   1.290   5.366   1.515  0.2788 -0.1568 -0.0773
 3501SOL     OW13769   5.347   2.124   0.330 -0.7223 -0.2125 -0.0887
 3501SOL    HW213770   5.371   2.202   0.281  0.6015 -1.1499 -1.0206
 3501SOL    HW313771   5.325   2.155   0.418 -0.3432  1.1915 -0.4770
 3501SOL    MW413772   5.347   2.138   0.335 -0.4976 -0.1509 -0.2629
 3502SOL     OW13773   2.515   2.634   2.211  0.2463  0.4632 -0.1880
 3502SOL    HW213774   2.489   2.634   2.119 -0.1633  0.5022 -0.0725
 3502SOL    HW313775   2.603   2.595   2.212  0.9427  1.9268 -0.7995
 3502SOL    MW413776   2.523   2.629   2.199  0.2842  0.6614 -0.2535
 3503SOL     OW13777   3.331   0.418   6.237  0.3380  0.4916 -0.5494
 3503SOL    HW213778   3.351   0.399   6.146  0.7216 -2.4323  0.0522
 3503SOL    HW313779   3.258   0.360   6.259 -0.3683  1.8078  0.7753
 3503SOL    MW413780   3.324   0.408   6.228  0.2954  0.2795 -0.2952
 3504SOL     OW13781   4.910   1.782   0.466  0.4595  0.4347  0.2555
 3504SOL    HW213782   4.859   1.797   0.546 -0.2383 -0.6106  0.0223
 3504SOL    HW313783   4.907   1.687   0.453  1.3686  0.4925 -0.4975
 3504SOL    MW413784   4.903   1.772   0.475  0.4874  0.3044  0.1254
 3505SOL     OW13785   2.753   2.073   2.825 -0.2593 -0.7366 -0.2611
 3505SOL    HW213786   2.795   2.015   2.889 -0.2811 -0.3429  0.1185
 3505SOL    HW313787   2.665   2.089   2.861  0.4134  1.1306  0.6951
 3505SOL    MW413788   2.747   2.068   2.839 -0.1735 -0.4383 -0.0849
 3506SOL     OW13789   0.535   3.348   4.389  0.5356 -0.1919 -0.1088
 3506SOL    HW213790   0.573   3.436   4.389  1.9317 -0.6697 -2.9689
 3506SOL    HW313791   0.596   3.295   4.441  0.9262  0.0743 -0.2952
 3506SOL    MW413792   0.548   3.353   4.396  0.7713 -0.2198 -0.5107
 3507SOL     OW13793   4.126   5.323   0.421 -0.2638  0.4340  0.0439
 3507SOL    HW213794   4.207   5.290   0.382 -1.8470 -1.9315 -1.4546
 3507SOL    HW313795   4.130   5.293   0.512  0.1102 -0.5469 -0.2796
 3507SOL    MW413796   4.138   5.315   0.428 -0.4233 -0.0075 -0.1965
 3508SOL     OW13797   0.349   4.681   5.384 -0.4860  0.0969 -0.2371
 3508SOL    HW213798   0.393   4.599   5.362  0.3195  0.1347  1.1083
 3508SOL    HW313799   0.277   4.687   5.322  1.9652  0.5650 -3.2545
 3508SOL    MW413800   0.345   4.671   5.373 -0.0563  0.1636 -0.4577
 3509SOL     OW13801   3.369   5.893   5.878 -0.4122 -0.3706 -0.0795
 3509SOL    HW213802   3.312   5.964   5.849 -1.0990 -0.6246  0.6165
 3509SOL    HW313803   3.417   5.867   5.800 -1.0348  0.0566 -0.6115
 3509SOL    MW413804   3.368   5.899   5.864 -0.5850 -0.3478 -0.0579
 3510SOL     OW13805   6.384   0.154   3.374 -0.2770  0.4646  0.3421
 3510SOL    HW213806   6.424   0.113   3.298 -0.4778 -0.4035  0.6868
 3510SOL    HW313807   6.448   0.220   3.402 -0.3847  1.0776 -0.8038
 3510SOL    MW413808   6.398   0.158   3.368 -0.3177  0.4309  0.2364
 3511SOL     OW13809   4.410   1.550   2.153 -0.1487  0.1457  0.2023
 3511SOL    HW213810   4.370   1.495   2.085 -0.5579  1.3903 -0.5923
 3511SOL    HW313811   4.504   1.529   2.148 -0.2684 -0.3190 -0.2371
 3511SOL    MW413812   4.417   1.540   2.143 -0.2185  0.2486  0.0395
 3512SOL     OW13813   0.747   5.774   2.485 -0.6244 -0.0519 -0.0456
 3512SOL    HW213814   0.720   5.860   2.453  0.3841  0.3719  0.2113
 3512SOL    HW313815   0.709   5.712   2.422 -0.3522  0.6529 -0.9349
 3512SOL    MW413816   0.739   5.777   2.472 -0.4554  0.0970 -0.1291
 3513SOL     OW13817   0.553   3.783   4.619  0.3262 -0.1852 -0.0413
 3513SOL    HW213818   0.641   3.796   4.654  0.3891 -2.9850  1.0734
 3513SOL    HW313819   0.494   3.804   4.692  0.2230 -1.2040  0.1773
 3513SOL    MW413820   0.557   3.788   4.633  0.3209 -0.6890  0.1346
 3514SOL     OW13821   5.231   1.370   1.395  0.2754  0.0705 -0.0686
 3514SOL    HW213822   5.239   1.465   1.402 -3.7903  0.6185 -0.5983
 3514SOL    HW313823   5.306   1.344   1.341  4.2110  2.1571  3.6725
 3514SOL    MW413824   5.242   1.379   1.389  0.2582  0.4181  0.3551
 3515SOL     OW13825   3.367   3.808   2.125  0.4893 -0.2083  0.3777
 3515SOL    HW213826   3.350   3.776   2.213 -0.7799 -1.9450 -0.4480
 3515SOL    HW313827   3.459   3.833   2.125  0.6248 -0.6563  2.0346
 3515SOL    MW413828   3.377   3.807   2.136  0.3397 -0.4966  0.4874
 3516SOL     OW13829   0.103   0.119   0.499 -0.0583 -0.1619 -0.3009
 3516SOL    HW213830   0.126   0.027   0.515 -0.4194 -0.1466  0.3251
 3516SOL    HW313831   0.017   0.116   0.457 -0.1829 -0.1009 -0.0515
 3516SOL    MW413832   0.095   0.106   0.495 -0.1224 -0.1518 -0.1854
 3517SOL     OW13833   3.667   4.134   4.560 -0.7970  0.0811  0.1418
 3517SOL    HW213834   3.606   4.073   4.601 -0.5850 -1.1630 -1.3190
 3517SOL    HW313835   3.753   4.102   4.586 -0.7144  0.8821  0.8864
 3517SOL    MW413836   3.670   4.122   4.569 -0.7581  0.0226  0.0473
 3518SOL     OW13837   4.432   2.254   0.957 -0.0962  0.1280  0.2102
 3518SOL    HW213838   4.466   2.343   0.962 -0.2506  0.1438  1.0192
 3518SOL    HW313839   4.395   2.247   0.869 -2.9654  1.9054  1.1456
 3518SOL    MW413840   4.432   2.265   0.946 -0.4952  0.3646  0.4404
 3519SOL     OW13841   1.623   1.851   2.779 -0.0852 -0.7937 -0.7080
 3519SOL    HW213842   1.659   1.836   2.866  1.1569  0.4428 -0.9904
 3519SOL    HW313843   1.616   1.763   2.741  1.0592 -1.1942 -0.0260
 3519SOL    MW413844   1.627   1.837   2.786  0.2296 -0.6834 -0.6553
 3520SOL     OW13845   4.943   1.243   4.790 -0.1427  0.1400 -0.0630
 3520SOL    HW213846   4.943   1.321   4.846  1.4782 -1.4976  2.4404
 3520SOL    HW313847   5.007   1.262   4.722 -1.1192  1.6386 -0.6384
 3520SOL    MW413848   4.951   1.256   4.789 -0.0577  0.1217  0.1914
 3521SOL     OW13849   3.527   5.739   4.576  0.1287 -0.1863  0.7565
 3521SOL    HW213850   3.614   5.730   4.615  0.2290 -1.0024  0.3685
 3521SOL    HW313851   3.540   5.714   4.484 -0.4503  0.0066  0.6202
 3521SOL    MW413852   3.540   5.734   4.569  0.0656 -0.2685  0.6873
 3522SOL     OW13853   3.127   5.543   0.877  0.7008 -0.1899 -0.3467
 3522SOL    HW213854   3.075   5.527   0.798 -0.1184 -0.4507  0.2254
 3522SOL    HW313855   3.091   5.483   0.942  0.0854  1.3223  0.7766
 3522SOL    MW413856   3.115   5.533   0.875  0.5115 -0.0248 -0.1230
 3523SOL     OW13857   1.330   0.463   5.794  0.4011 -0.3549 -0.3985
 3523SOL    HW213858   1.281   0.513   5.859 -0.8611 -0.5285 -1.1812
 3523SOL    HW313859   1.378   0.397   5.845  0.2592  0.1691  0.4273
 3523SOL    MW413860   1.330   0.460   5.810  0.2158 -0.3087 -0.3928
 3524SOL     OW13861   3.851   1.368   4.504 -0.1441  0.0814 -0.0589
 3524SOL    HW213862   3.772   1.365   4.449  0.0625  0.0467 -0.3573
 3524SOL    HW313863   3.890   1.454   4.484  0.2943 -0.2116 -0.4827
 3524SOL    MW413864   3.846   1.379   4.494 -0.0590  0.0381 -0.1542
 3525SOL     OW13865   3.417   2.734   2.914  0.5912 -0.4943  0.1581
 3525SOL    HW213866   3.336   2.721   2.962 -1.5079  1.1924 -2.6381
 3525SOL    HW313867   3.437   2.649   2.875 -0.2927 -0.7455  0.2416
 3525SOL    MW413868   3.409   2.721   2.915  0.1976 -0.3049 -0.1998
 3526SOL     OW13869   5.698   4.775   1.012 -0.1571  0.0755  0.1829
 3526SOL    HW213870   5.785   4.807   0.988  0.5008 -2.5905 -1.4305
 3526SOL    HW313871   5.712   4.683   1.035 -2.4753 -0.2489  0.5799
 3526SOL    MW413872   5.711   4.767   1.012 -0.3762 -0.3190  0.0224
 3527SOL     OW13873   4.378   5.120   4.721  0.6225 -0.2162  0.9293
 3527SOL    HW213874   4.319   5.130   4.646  1.9328 -2.0873 -0.4358
 3527SOL    HW313875   4.406   5.209   4.741  0.9017  0.2956 -1.3967
 3527SOL    MW413876   4.374   5.133   4.714  0.8323 -0.3955  0.4423
 3528SOL     OW13877   5.639   5.587   5.664  0.0815 -0.3039 -0.6031
 3528SOL    HW213878   5.568   5.526   5.641 -1.3092  0.8969  0.3620
 3528SOL    HW313879   5.687   5.541   5.733 -1.2181 -0.1883  0.4284
 3528SOL    MW413880   5.636   5.573   5.670 -0.2735 -0.1302 -0.3397
 3529SOL     OW13881   0.047   2.485   4.721  0.1330  0.4104 -0.1731
 3529SOL    HW213882   0.035   2.445   4.635  0.2683 -1.5555  0.6770
 3529SOL    HW313883   0.114   2.432   4.764 -0.9900  0.3792  1.6843
 3529SOL    MW413884   0.054   2.473   4.716  0.0027  0.1469  0.1841
 3530SOL     OW13885   0.434   2.452   5.942  0.4153 -0.2447 -0.5050
 3530SOL    HW213886   0.373   2.401   5.889  3.0168 -1.4584 -2.6186
 3530SOL    HW313887   0.444   2.534   5.895  1.1904 -0.5012 -0.8077
 3530SOL    MW413888   0.427   2.456   5.929  0.8608 -0.4387 -0.8238
 3531SOL     OW13889   1.243   3.578   4.066 -0.0639  0.0665 -0.3900
 3531SOL    HW213890   1.208   3.511   4.125  0.6761  1.7297  2.0882
 3531SOL    HW313891   1.166   3.620   4.028 -0.5469 -1.2675 -0.9604
 3531SOL    MW413892   1.229   3.575   4.068 -0.0300  0.1100 -0.1383
 3532SOL     OW13893   5.503   2.504   5.696 -0.8989  0.1257  0.8591
 3532SOL    HW213894   5.461   2.565   5.636 -1.8694  0.6678  2.0474
 3532SOL    HW313895   5.433   2.446   5.725 -0.1785 -0.9759  0.4779
 3532SOL    MW413896   5.489   2.504   5.692 -0.9319  0.0519  0.9656
 3533SOL     OW13897   4.753   4.426   0.674 -0.0097 -0.2436 -0.3263
 3533SOL    HW213898   4.672   4.474   0.693  0.5768  0.3761  0.7268
 3533SOL    HW313899   4.725   4.337   0.655 -0.8466 -0.4918  1.7846
 3533SOL    MW413900   4.739   4.421   0.674 -0.0427 -0.1946  0.0912
 3534SOL     OW13901   3.635   3.165   4.711 -0.1343  0.9238  0.0180
 3534SOL    HW213902   3.609   3.245   4.755  1.0371  0.4936  1.5749
 3534SOL    HW313903   3.553   3.121   4.688 -0.7658  2.0633  0.0709
 3534SOL    MW413904   3.621   3.169   4.714 -0.0631  1.0174  0.2304
 3535SOL     OW13905   2.144   5.017   5.392 -0.1568 -0.1486 -0.2453
 3535SOL    HW213906   2.123   5.000   5.484 -1.6947  3.0172  0.1204
 3535SOL    HW313907   2.207   5.089   5.395 -3.3805  3.0278 -1.5135
 3535SOL    MW413908   2.150   5.024   5.405 -0.7850  0.6882 -0.3644
 3536SOL     OW13909   3.763   2.862   0.413 -0.7041  0.0972  0.3497
 3536SOL    HW213910   3.691   2.899   0.465 -0.1669 -0.0361  1.2196
 3536SOL    HW313911   3.798   2.937   0.365  1.6058  1.3002  3.5444
 3536SOL    MW413912   3.758   2.877   0.414 -0.3285  0.2383  0.8860
 3537SOL     OW13913   4.854   2.968   0.024 -0.0485  0.3447 -0.0576
 3537SOL    HW213914   4.914   2.988  -0.048 -0.3814  3.3448  0.3347
 3537SOL    HW313915   4.786   3.035   0.017 -1.8134 -1.2176  1.2075
 3537SOL    MW413916   4.853   2.980   0.014 -0.3253  0.5344  0.1611
 3538SOL     OW13917   5.925   4.949   1.936  0.0682 -0.4568 -0.3570
 3538SOL    HW213918   5.964   5.025   1.895  0.2396 -0.6439 -0.5425
 3538SOL    HW313919   5.831   4.966   1.935  0.0931 -0.3358 -0.5711
 3538SOL    MW413920   5.917   4.961   1.931  0.0941 -0.4655 -0.4097
 3539SOL     OW13921   4.738   2.479   1.164 -0.5496 -0.3623  0.3284
 3539SOL    HW213922   4.728   2.574   1.161  0.1361 -0.2762  0.5647
 3539SOL    HW313923   4.823   2.463   1.121 -0.8590 -0.9016 -0.0947
 3539SOL    MW413924   4.748   2.490   1.158 -0.5000 -0.4221  0.3037
 3540SOL     OW13925   6.057   4.678   1.574  0.4938 -0.1632  0.1931
 3540SOL    HW213926   6.077   4.746   1.639  0.2409  0.5884 -0.4943
 3540SOL    HW313927   6.142   4.652   1.540  0.6420 -0.6696  0.9111
 3540SOL    MW413928   6.071   4.684   1.578  0.4800 -0.1309  0.1972
 3541SOL     OW13929   0.292   0.840   3.596  0.4117  0.0690  0.4286
 3541SOL    HW213930   0.323   0.754   3.625  0.5725  0.4654  1.4697
 3541SOL    HW313931   0.349   0.862   3.523  1.5741  0.0870  1.3153
 3541SOL    MW413932   0.303   0.831   3.590  0.5863  0.1237  0.6829
 3542SOL     OW13933   4.269   5.886   3.522 -0.5162  0.3108 -0.3946
 3542SOL    HW213934   4.241   5.819   3.460 -0.1439  0.2023 -0.4475
 3542SOL    HW313935   4.222   5.965   3.494  0.2938  0.4781 -1.3422
 3542SOL    MW413936   4.259   5.888   3.510 -0.3602  0.3185 -0.5266
 3543SOL     OW13937   5.304   5.319   5.745  0.0711  0.5174 -1.0074
 3543SOL    HW213938   5.289   5.316   5.650 -1.6790  1.4989 -0.8018
 3543SOL    HW313939   5.317   5.412   5.763 -0.7380  0.4645 -0.1259
 3543SOL    MW413940   5.304   5.331   5.735 -0.2665  0.6399 -0.8640
 3544SOL     OW13941   0.093   3.178   1.145  0.2852  0.0882  0.0197
 3544SOL    HW213942   0.074   3.105   1.204  1.2220 -0.5918 -0.4989
 3544SOL    HW313943   0.030   3.245   1.169 -1.3487 -1.2830 -0.2034
 3544SOL    MW413944   0.082   3.177   1.156  0.1932 -0.1824 -0.0781
 3545SOL     OW13945   4.110   3.576   3.566 -0.8331  0.1966  0.2458
 3545SOL    HW213946   4.173   3.613   3.628  0.8231 -0.3621 -1.0424
 3545SOL    HW313947   4.091   3.489   3.601  2.0518 -1.1618 -1.2067
 3545SOL    MW413948   4.116   3.569   3.579 -0.2339 -0.0563 -0.1158
 3546SOL     OW13949   5.721   4.832   5.626  0.2792  0.5349 -0.7206
 3546SOL    HW213950   5.783   4.845   5.553 -0.3211  2.8367 -0.9234
 3546SOL    HW313951   5.639   4.807   5.583  0.1031  1.2403 -0.8222
 3546SOL    MW413952   5.719   4.831   5.610  0.1767  0.9317 -0.7608
 3547SOL     OW13953   1.630   6.334   6.144 -0.4646 -0.3621 -0.2690
 3547SOL    HW213954   1.597   6.247   6.121  0.1393 -0.1672 -1.9968
 3547SOL    HW313955   1.551   6.388   6.154 -0.8002 -0.2555 -2.8900
 3547SOL    MW413956   1.615   6.330   6.142 -0.4292 -0.3223 -0.8428
 3548SOL     OW13957   0.095   6.009   0.319  0.0636 -0.1845 -0.0083
 3548SOL    HW213958   0.136   5.923   0.327  0.0868 -0.2616 -0.9561
 3548SOL    HW313959   0.151   6.057   0.258 -0.7137  0.0449 -0.5501
 3548SOL    MW413960   0.108   6.004   0.312 -0.0359 -0.1644 -0.2048
 3549SOL     OW13961   5.591   4.512   6.119 -0.3558  0.4152 -0.4706
 3549SOL    HW213962   5.575   4.446   6.187 -1.1030  1.9865  0.9591
 3549SOL    HW313963   5.683   4.536   6.130  0.0608 -0.6799 -1.3220
 3549SOL    MW413964   5.601   4.507   6.130 -0.3994  0.4780 -0.3943
 3550SOL     OW13965   0.106   4.300   3.827  0.2065 -0.7345 -0.1532
 3550SOL    HW213966   0.066   4.385   3.810  0.2290 -0.7177 -0.1229
 3550SOL    HW313967   0.155   4.279   3.747  1.7103  0.1279  0.5072
 3550SOL    MW413968   0.108   4.308   3.814  0.4079 -0.6185 -0.0621
 3551SOL     OW13969   3.783   1.382   5.336 -0.1135  0.0392 -0.5294
 3551SOL    HW213970   3.688   1.371   5.340  0.0650 -1.4593  0.0787
 3551SOL    HW313971   3.812   1.318   5.270  0.8185 -2.3566  2.0283
 3551SOL    MW413972   3.774   1.372   5.328  0.0330 -0.4746 -0.1117
 3552SOL     OW13973   1.402   4.025   1.434 -0.0972 -0.2437  0.2806
 3552SOL    HW213974   1.386   3.938   1.469  3.1769 -1.6156 -1.2918
 3552SOL    HW313975   1.360   4.024   1.348  2.6962 -1.5891 -1.1715
 3552SOL    MW413976   1.394   4.014   1.427  0.7034 -0.6022 -0.1184
 3553SOL     OW13977   4.433   5.298   2.552 -0.5962 -0.0873 -0.2906
 3553SOL    HW213978   4.366   5.239   2.587  0.0919 -1.2331 -0.8395
 3553SOL    HW313979   4.409   5.384   2.585 -1.1623 -0.7925  1.2281
 3553SOL    MW413980   4.421   5.301   2.561 -0.5801 -0.3315 -0.1627
 3554SOL     OW13981   0.637   2.133   2.123  0.6409 -0.0952 -0.0320
 3554SOL    HW213982   0.544   2.135   2.103  0.6975 -2.4484 -0.8526
 3554SOL    HW313983   0.677   2.188   2.055 -0.0561  0.2867 -0.1419
 3554SOL    MW413984   0.630   2.141   2.111  0.5564 -0.3553 -0.1548
 3555SOL     OW13985   1.841   1.047   3.348  0.3077  0.1187 -0.3059
 3555SOL    HW213986   1.924   1.094   3.340  0.3821 -0.0547 -0.5689
 3555SOL    HW313987   1.841   0.986   3.274  1.1869 -1.8606  1.2633
 3555SOL    MW413988   1.852   1.045   3.337  0.4335 -0.1653 -0.1335
 3556SOL     OW13989   2.818   4.108   5.253  0.2986  0.3233 -0.1078
 3556SOL    HW213990   2.876   4.179   5.226 -0.5936  1.0102 -0.2449
 3556SOL    HW313991   2.839   4.036   5.193  0.8513  0.6387 -0.2980
 3556SOL    MW413992   2.828   4.108   5.242  0.2538  0.4556 -0.1509
 3557SOL     OW13993   2.015   1.167   6.398  0.3180 -0.4856  0.3834
 3557SOL    HW213994   1.977   1.125   6.322 -1.0119  1.6354 -0.2097
 3557SOL    HW313995   2.106   1.184   6.374  0.0758 -0.4009 -0.4943
 3557SOL    MW413996   2.022   1.164   6.385  0.1105 -0.1946  0.1893
 3558SOL     OW13997   4.013   0.094   5.737 -0.1798 -0.2963 -0.0649
 3558SOL    HW213998   4.040   0.180   5.705  1.7701 -0.7111  0.3072
 3558SOL    HW313999   4.096   0.048   5.753 -1.1544 -2.7139 -1.4611
 3558SOL    MW414000   4.028   0.099   5.735 -0.0511 -0.6700 -0.2000
 3559SOL     OW14001   4.532   4.762   3.880  0.4009  0.1754  0.1642
 3559SOL    HW214002   4.563   4.673   3.867  0.5282 -0.1481  2.2919
 3559SOL    HW314003   4.595   4.801   3.941 -0.2574  1.3559  0.1350
 3559SOL    MW414004   4.544   4.755   3.887  0.3308  0.2885  0.4411
 3560SOL     OW14005   3.940   4.471   2.766 -0.3501  0.2006 -0.1326
 3560SOL    HW214006   3.854   4.454   2.804 -1.2643  0.3452 -2.0253
 3560SOL    HW314007   3.938   4.565   2.745  0.8504  0.5350  1.1279
 3560SOL    MW414008   3.928   4.481   2.768 -0.3123  0.2638 -0.2160
 3561SOL     OW14009   4.583   0.459   3.582 -0.2564  0.4058 -0.0588
 3561SOL    HW214010   4.515   0.453   3.514  0.5249  1.3165 -0.9573
 3561SOL    HW314011   4.632   0.378   3.575  0.7895  1.1269 -1.6893
 3561SOL    MW414012   4.580   0.448   3.572 -0.0153  0.6211 -0.3925
 3562SOL     OW14013   4.945   5.971   1.464 -0.5500  0.0522 -0.2153
 3562SOL    HW214014   5.017   6.016   1.509 -0.2884 -0.1549 -0.4188
 3562SOL    HW314015   4.962   5.986   1.371 -0.6516 -0.1756 -0.2720
 3562SOL    MW414016   4.957   5.979   1.457 -0.5289 -0.0052 -0.2496
 3563SOL     OW14017   3.691   0.614   1.302  0.0221  0.8701  0.4057
 3563SOL    HW214018   3.630   0.682   1.331 -0.8041 -0.0680  0.9167
 3563SOL    HW314019   3.655   0.582   1.220 -0.1815  0.3193  0.7035
 3563SOL    MW414020   3.678   0.619   1.295 -0.1137  0.6737  0.5124
 3564SOL     OW14021   4.978   2.193   3.584 -0.2598  0.4768 -0.1186
 3564SOL    HW214022   4.888   2.178   3.612  0.0138 -0.1215  0.4936
 3564SOL    HW314023   4.971   2.232   3.497 -1.1013  0.0797 -0.2334
 3564SOL    MW414024   4.965   2.196   3.576 -0.3348  0.3454 -0.0530
 3565SOL     OW14025   0.133   1.269   4.039  0.4591  0.5749 -0.9575
 3565SOL    HW214026   0.116   1.289   4.131 -0.2062  1.4359 -1.2490
 3565SOL    HW314027   0.076   1.195   4.019 -0.6754  1.4533 -1.0983
 3565SOL    MW414028   0.123   1.262   4.048  0.2216  0.8044 -1.0145
 3566SOL     OW14029   3.886   1.156   5.185 -0.7319  0.1265  0.0821
 3566SOL    HW214030   3.947   1.093   5.145 -1.0999 -0.4647  0.4451
 3566SOL    HW314031   3.859   1.213   5.112  1.2517  1.2446  0.1359
 3566SOL    MW414032   3.891   1.155   5.170 -0.5188  0.1960  0.1371
 3567SOL     OW14033   4.444   4.710   1.404 -0.1556 -0.0269 -0.8301
 3567SOL    HW214034   4.375   4.644   1.399  0.3785 -0.7383  0.6327
 3567SOL    HW314035   4.451   4.744   1.315 -0.5052 -1.9004 -1.6331
 3567SOL    MW414036   4.436   4.705   1.392 -0.1312 -0.3679 -0.7430
 3568SOL     OW14037   0.649   3.727   1.535 -0.1989  0.5130  0.4020
 3568SOL    HW214038   0.702   3.649   1.519 -0.8597  0.3318 -0.9980
 3568SOL    HW314039   0.686   3.764   1.616  2.0757  0.4251 -0.5202
 3568SOL    MW414040   0.661   3.721   1.544  0.0140  0.4775  0.0956
 3569SOL     OW14041   0.340   4.230   1.453  0.1725 -0.3462  0.3405
 3569SOL    HW214042   0.375   4.318   1.435  2.2123 -0.9645  1.0529
 3569SOL    HW314043   0.363   4.179   1.376 -0.0155 -0.5475  0.4170
 3569SOL    MW414044   0.347   4.235   1.441  0.4168 -0.4544  0.4446
 3570SOL     OW14045   3.642   1.558   2.904  0.2000  0.1015 -0.1063
 3570SOL    HW214046   3.656   1.496   2.833  3.1139 -2.5345  2.4838
 3570SOL    HW314047   3.696   1.634   2.880  0.5601 -0.4230 -1.0121
 3570SOL    MW414048   3.651   1.560   2.891  0.6319 -0.3155  0.1159
 3571SOL     OW14049   4.555   5.539   2.882 -0.2355 -0.0974 -0.1226
 3571SOL    HW214050   4.600   5.456   2.901  0.1360 -0.2218 -1.4192
 3571SOL    HW314051   4.615   5.607   2.913  1.1657 -0.2494 -2.3283
 3571SOL    MW414052   4.569   5.537   2.889 -0.0016 -0.1339 -0.5847
 3572SOL     OW14053   1.252   6.060   5.340  0.4233  0.0317  0.0846
 3572SOL    HW214054   1.244   6.081   5.433  0.9088  0.4915  0.0341
 3572SOL    HW314055   1.172   6.095   5.301 -0.1098 -0.7882  0.4257
 3572SOL    MW414056   1.241   6.068   5.347  0.4171 -0.0158  0.1230
 3573SOL     OW14057   5.637   2.983   4.267  0.0746 -0.3003  0.4208
 3573SOL    HW214058   5.556   2.931   4.270 -1.6579  2.1330 -0.6787
 3573SOL    HW314059   5.691   2.940   4.201 -1.0271 -1.0469 -0.0176
 3573SOL    MW414060   5.633   2.971   4.259 -0.2993 -0.0778  0.2179
 3574SOL     OW14061   5.633   1.490   4.266 -0.4988  0.0745  0.1656
 3574SOL    HW214062   5.695   1.467   4.197 -1.4246 -0.3163 -0.5484
 3574SOL    HW314063   5.604   1.406   4.302 -0.4167  0.2634  0.6883
 3574SOL    MW414064   5.637   1.476   4.262 -0.6101  0.0478  0.1403
 3575SOL     OW14065   5.465   2.543   2.687 -0.0614  0.5663 -0.7705
 3575SOL    HW214066   5.382   2.499   2.705  0.7775 -1.3595 -1.3325
 3575SOL    HW314067   5.523   2.516   2.759  0.7965 -0.1760 -1.7202
 3575SOL    MW414068   5.462   2.534   2.699  0.1624  0.2143 -0.9699
 3576SOL     OW14069   5.126   4.700   1.807 -0.3996 -0.0840 -0.3720
 3576SOL    HW214070   5.100   4.760   1.738  1.9238  1.6105  0.0831
 3576SOL    HW314071   5.045   4.678   1.852 -1.4082  2.5204 -0.7344
 3576SOL    MW414072   5.112   4.705   1.804 -0.2261  0.4832 -0.3598
 3577SOL     OW14073   2.217   0.324   0.999 -0.0731 -0.1793 -0.7422
 3577SOL    HW214074   2.295   0.315   1.054 -0.4041  0.0234 -0.2323
 3577SOL    HW314075   2.190   0.234   0.981 -1.9995 -0.3686  2.3726
 3577SOL    MW414076   2.224   0.311   1.004 -0.3709 -0.1775 -0.2639
 3578SOL     OW14077   4.436   3.282   2.318  0.1158  0.1797  0.5188
 3578SOL    HW214078   4.360   3.338   2.300 -0.1266 -0.7217 -1.6612
 3578SOL    HW314079   4.505   3.316   2.260  0.1068 -1.4207 -0.4959
 3578SOL    MW414080   4.435   3.294   2.308  0.0827 -0.1504  0.0973
 3579SOL     OW14081   3.627   2.620   4.381  0.6496  0.0629 -0.4738
 3579SOL    HW214082   3.615   2.715   4.390  0.2551 -0.1322  1.5061
 3579SOL    HW314083   3.543   2.589   4.348  0.0001  0.1890  0.9765
 3579SOL    MW414084   3.614   2.628   4.378  0.5119  0.0538 -0.0213
 3580SOL     OW14085   5.078   0.197   1.872 -0.0158 -0.1519  0.2538
 3580SOL    HW214086   5.153   0.247   1.905 -0.0735 -0.3329  0.6639
 3580SOL    HW314087   5.109   0.161   1.789  0.2406  0.0477  0.2594
 3580SOL    MW414088   5.092   0.199   1.866  0.0104 -0.1494  0.3087
 3581SOL     OW14089   2.896   0.034   3.086 -0.3656  0.5237 -0.1849
 3581SOL    HW214090   2.847   0.114   3.065 -1.3350 -0.0973 -0.3249
 3581SOL    HW314091   2.939   0.010   3.004 -1.9268 -0.3608 -0.7702
 3581SOL    MW414092   2.895   0.042   3.072 -0.6995  0.3251 -0.2806
 3582SOL     OW14093   2.917   4.715   0.767  0.3150 -0.5987 -0.4000
 3582SOL    HW214094   2.871   4.631   0.762 -2.1143  0.6837 -1.0900
 3582SOL    HW314095   2.849   4.778   0.791  1.6677  1.4544 -1.6789
 3582SOL    MW414096   2.902   4.712   0.769  0.1730 -0.1586 -0.6598
 3583SOL     OW14097   3.099   5.000   5.863  0.4825 -0.2030  0.1582
 3583SOL    HW214098   3.129   4.933   5.925 -0.7278  1.3739  2.6204
 3583SOL    HW314099   3.067   5.071   5.919 -2.6424  0.5089 -2.2580
 3583SOL    MW414100   3.099   5.001   5.879 -0.0895  0.0990  0.1643
 3584SOL     OW14101   6.008   3.547   1.916  1.1612  0.4810  0.2749
 3584SOL    HW214102   6.007   3.555   2.011 -0.8934 -0.6092  0.4047
 3584SOL    HW314103   6.072   3.477   1.899  1.3325  0.4858  0.8731
 3584SOL    MW414104   6.016   3.539   1.926  0.9127  0.3378  0.3709
 3585SOL     OW14105   5.871   4.163   4.463  0.1684 -0.0634 -0.6407
 3585SOL    HW214106   5.782   4.172   4.495  0.0226  1.2658 -1.3612
 3585SOL    HW314107   5.866   4.094   4.396 -0.2260 -0.2960 -0.3711
 3585SOL    MW414108   5.859   4.155   4.458  0.0971  0.0813 -0.7002
 3586SOL     OW14109   3.870   1.318   0.376 -0.3602  0.1025  0.2717
 3586SOL    HW214110   3.852   1.236   0.330 -0.2005  0.0597  0.2870
 3586SOL    HW314111   3.838   1.386   0.317 -0.3343  0.0381  0.1839
 3586SOL    MW414112   3.863   1.316   0.362 -0.3357  0.0884  0.2621
 3587SOL     OW14113   4.830   2.103   0.298 -0.8157 -0.0812  0.0656
 3587SOL    HW214114   4.837   2.009   0.310 -2.1356 -0.0938  0.9126
 3587SOL    HW314115   4.863   2.140   0.380  1.2584  0.3004 -0.8600
 3587SOL    MW414116   4.836   2.096   0.311 -0.7162 -0.0325  0.0553
 3588SOL     OW14117   0.971   4.972   3.766 -0.0547  0.0938  0.2571
 3588SOL    HW214118   0.976   5.040   3.834  1.6048 -0.4708  0.7541
 3588SOL    HW314119   0.885   4.984   3.727  0.2708  2.6540  0.1386
 3588SOL    MW414120   0.960   4.983   3.770  0.2072  0.3571  0.3071
 3589SOL     OW14121   1.640   4.040   4.419 -0.1186  0.2424 -0.2395
 3589SOL    HW214122   1.600   3.954   4.432 -0.3385  0.4875  0.7158
 3589SOL    HW314123   1.665   4.040   4.326 -1.0981 -0.4314 -0.5247
 3589SOL    MW414124   1.638   4.029   4.408 -0.2769  0.1858 -0.1511
 3590SOL     OW14125   4.443   5.781   3.708  0.2781  0.0647 -0.0485
 3590SOL    HW214126   4.478   5.696   3.680  0.6460  0.7745 -1.8693
 3590SOL    HW314127   4.396   5.814   3.632 -0.4892  1.1874  0.8802
 3590SOL    MW414128   4.442   5.774   3.694  0.2254  0.3065 -0.1662
 3591SOL     OW14129   2.917   0.373   5.242  0.8533  0.3000 -0.0026
 3591SOL    HW214130   2.879   0.457   5.268  0.7084 -0.6667  3.5084
 3591SOL    HW314131   3.010   0.392   5.229  0.2505  1.6480 -3.3477
 3591SOL    MW414132   2.925   0.386   5.244  0.7547  0.3503  0.0193
 3592SOL     OW14133   3.466   5.151   5.764 -0.1690  0.0516  0.3745
 3592SOL    HW214134   3.529   5.221   5.782  0.6516 -1.0399  1.9540
 3592SOL    HW314135   3.396   5.164   5.828 -0.8883  0.4354 -0.4707
 3592SOL    MW414136   3.465   5.162   5.775 -0.1557 -0.0418  0.4714
 3593SOL     OW14137   6.047   4.534   2.312 -0.0999  0.5361  0.1878
 3593SOL    HW214138   6.071   4.496   2.396 -0.7317  2.2105  1.1611
 3593SOL    HW314139   6.130   4.541   2.264  0.1029 -1.5547  0.1419
 3593SOL    MW414140   6.061   4.530   2.317 -0.1565  0.4812  0.3102
 3594SOL     OW14141   4.476   4.088   2.740  0.4659  0.1502  0.1271
 3594SOL    HW214142   4.402   4.103   2.680  0.6126 -0.2544 -0.1642
 3594SOL    HW314143   4.552   4.116   2.690  0.6311 -0.5652 -0.0286
 3594SOL    MW414144   4.476   4.094   2.725  0.5070  0.0024  0.0681
 3595SOL     OW14145   1.785   5.396   0.387 -0.4152 -0.5683  0.0317
 3595SOL    HW214146   1.870   5.385   0.344  0.3566  0.6189  1.1857
 3595SOL    HW314147   1.748   5.475   0.348 -0.4781 -0.4567  0.3099
 3595SOL    MW414148   1.791   5.405   0.376 -0.3216 -0.3969  0.2206
 3596SOL     OW14149   0.590   3.887   0.340 -0.5270  0.3539  0.5733
 3596SOL    HW214150   0.571   3.864   0.249 -1.5839  2.0630  0.3344
 3596SOL    HW314151   0.680   3.921   0.338  0.5955 -2.3092  0.7276
 3596SOL    MW414152   0.599   3.888   0.327 -0.5184  0.2280  0.5621
 3597SOL     OW14153   4.167   0.865   3.377 -0.3211 -0.0504 -0.3705
 3597SOL    HW214154   4.219   0.918   3.316  0.0935 -1.2988 -1.1479
 3597SOL    HW314155   4.153   0.782   3.331  1.4897 -1.7344  1.8641
 3597SOL    MW414156   4.172   0.861   3.363 -0.0275 -0.4373 -0.1782
 3598SOL     OW14157   2.719   0.687   4.072 -0.3120 -0.1126 -0.1898
 3598SOL    HW214158   2.763   0.718   3.993 -0.1064  0.1429  0.0247
 3598SOL    HW314159   2.627   0.680   4.047 -0.3040  0.3206 -0.3482
 3598SOL    MW414160   2.713   0.690   4.058 -0.2838 -0.0217 -0.1824
 3599SOL     OW14161   1.847   1.215   4.601 -0.3753 -0.0915  0.4976
 3599SOL    HW214162   1.890   1.290   4.561 -1.1491 -0.5063 -1.2036
 3599SOL    HW314163   1.916   1.150   4.611 -0.0757  0.1893  0.2556
 3599SOL    MW414164   1.861   1.216   4.597 -0.4378 -0.1092  0.2412
 3600SOL     OW14165   2.285   1.640   2.065  0.4828  0.3928  0.1814
 3600SOL    HW214166   2.343   1.601   2.000  0.5687  0.1733  0.3874
 3600SOL    HW314167   2.255   1.566   2.118  0.3579  0.5593  0.3462
 3600SOL    MW414168   2.289   1.625   2.064  0.4776  0.3858  0.2304
 3601SOL     OW14169   5.723   2.689   1.613  0.2540  0.2071 -0.2651
 3601SOL    HW214170   5.680   2.603   1.614 -0.8982  0.6893 -2.3575
 3601SOL    HW314171   5.667   2.744   1.668 -1.4761  0.6019 -2.2569
 3601SOL    MW414172   5.710   2.685   1.621 -0.1263  0.3228 -0.8040
 3602SOL     OW14173   5.182   5.500   5.312 -0.2619  0.0567  0.2822
 3602SOL    HW214174   5.237   5.462   5.380 -0.7998 -0.3592  0.4934
 3602SOL    HW314175   5.143   5.425   5.267 -1.2316  0.3336  0.6203
 3602SOL    MW414176   5.184   5.485   5.315 -0.4608  0.0384  0.3547
 3603SOL     OW14177   6.185   2.306   1.439 -0.3550  0.3828 -0.7304
 3603SOL    HW214178   6.230   2.385   1.470 -0.4322  0.1622 -0.0362
 3603SOL    HW314179   6.251   2.258   1.390  0.7376 -0.7933  1.7147
 3603SOL    MW414180   6.200   2.310   1.437 -0.2210  0.1985 -0.3162
 3604SOL     OW14181   0.500   0.059   0.584  0.2171 -0.2279  0.4567
 3604SOL    HW214182   0.434   0.050   0.654 -0.3658  0.2099 -0.0164
 3604SOL    HW314183   0.474   0.140   0.539  2.1139  0.9326  1.3423
 3604SOL    MW414184   0.488   0.069   0.587  0.3905 -0.0170  0.5112
 3605SOL     OW14185   2.968   2.549   2.454 -0.4679 -0.1799  0.2131
 3605SOL    HW214186   2.898   2.542   2.519 -1.0549 -2.2301 -0.5692
 3605SOL    HW314187   3.040   2.498   2.491 -0.2801 -0.1469 -0.1066
 3605SOL    MW414188   2.969   2.542   2.468 -0.5206 -0.4460  0.0677
 3606SOL     OW14189   1.516   5.704   4.569  0.2781 -0.5401  0.6295
 3606SOL    HW214190   1.512   5.636   4.637  1.2969 -1.5824 -0.3066
 3606SOL    HW314191   1.589   5.760   4.596 -0.0846 -0.2487  1.0141
 3606SOL    MW414192   1.525   5.703   4.581  0.3646 -0.6391  0.5568
 3607SOL     OW14193   2.467   4.510   6.299 -0.2531  0.0637  0.2043
 3607SOL    HW214194   2.541   4.566   6.320 -1.0639  0.6101  1.7953
 3607SOL    HW314195   2.436   4.542   6.214  1.8004 -0.7485 -0.9191
 3607SOL    MW414196   2.472   4.522   6.291 -0.0892  0.0287  0.2660
 3608SOL     OW14197   1.522   3.053   2.748 -0.7519 -0.1271  0.2454
 3608SOL    HW214198   1.432   3.067   2.721 -0.6820  1.0245  0.5850
 3608SOL    HW314199   1.561   3.140   2.750  0.3694 -0.6007  0.1189
 3608SOL    MW414200   1.516   3.066   2.745 -0.5948 -0.0376  0.2735
 3609SOL     OW14201   5.162   2.807   5.683  0.1096 -0.1270 -0.1956
 3609SOL    HW214202   5.229   2.763   5.630 -0.1266  0.6718 -1.1826
 3609SOL    HW314203   5.188   2.790   5.773  1.8612  0.4896 -0.5542
 3609SOL    MW414204   5.174   2.799   5.688  0.3095  0.0597 -0.3732
 3610SOL     OW14205   5.766   2.067   3.170 -0.4518  0.4360  0.0912
 3610SOL    HW214206   5.697   2.013   3.208 -0.6378  0.6922  0.1203
 3610SOL    HW314207   5.758   2.151   3.216 -1.1006  0.9714 -0.9662
 3610SOL    MW414208   5.756   2.071   3.181 -0.5619  0.5405 -0.0445
 3611SOL     OW14209   0.901   0.674   1.582 -0.9703 -0.5525  0.2742
 3611SOL    HW214210   0.944   0.659   1.667 -0.6884  1.5644  0.5636
 3611SOL    HW314211   0.961   0.634   1.519  0.8882  1.2151  0.7839
 3611SOL    MW414212   0.915   0.667   1.585 -0.6879 -0.0400  0.3797
 3612SOL     OW14213   1.908   0.980   0.574  0.1418  0.2179  0.6642
 3612SOL    HW214214   1.974   0.954   0.638  0.3008 -1.5130 -0.1504
 3612SOL    HW314215   1.859   0.899   0.557 -0.7459  0.9626 -0.4066
 3612SOL    MW414216   1.910   0.965   0.580  0.0457  0.0878  0.4155
 3613SOL     OW14217   6.174   3.753   1.442 -0.2338 -0.0453  0.3222
 3613SOL    HW214218   6.107   3.781   1.379 -0.0539 -2.0794 -0.8843
 3613SOL    HW314219   6.200   3.833   1.487 -2.0118  1.1234 -0.6022
 3613SOL    MW414220   6.169   3.767   1.439 -0.4446 -0.1595  0.0411
 3614SOL     OW14221   2.875   1.260   3.335 -0.2469  0.2345 -0.4088
 3614SOL    HW214222   2.827   1.340   3.357  0.4104  0.6046 -0.2865
 3614SOL    HW314223   2.863   1.251   3.240  0.8212  1.2660 -0.6648
 3614SOL    MW414224   2.867   1.269   3.325 -0.0192  0.4194 -0.4264
 3615SOL     OW14225   4.558   2.038   2.506 -0.3940  0.0490  0.0842
 3615SOL    HW214226   4.502   2.115   2.491 -0.4276 -0.0242 -0.1736
 3615SOL    HW314227   4.601   2.023   2.422 -2.2707 -1.7180 -0.6524
 3615SOL    MW414228   4.556   2.046   2.493 -0.6460 -0.1938 -0.0470
 3616SOL     OW14229   5.274   5.137   2.141  0.1496 -0.2227  0.3910
 3616SOL    HW214230   5.264   5.190   2.062  0.8909 -1.8938 -0.8837
 3616SOL    HW314231   5.364   5.153   2.169  0.8118 -1.6545 -0.7288
 3616SOL    MW414232   5.285   5.146   2.134  0.3348 -0.6321  0.0751
 3617SOL     OW14233   2.757   2.726   0.480 -0.4466 -0.2075  0.5827
 3617SOL    HW214234   2.825   2.770   0.429 -0.5268  1.7397  2.0490
 3617SOL    HW314235   2.689   2.792   0.491 -1.2345 -1.1702  1.6845
 3617SOL    MW414236   2.757   2.740   0.474 -0.5611 -0.0776  0.9215
 3618SOL     OW14237   3.608   0.844   3.023 -0.1691 -0.1446 -0.0189
 3618SOL    HW214238   3.628   0.903   2.950 -1.7382  0.6229  0.1443
 3618SOL    HW314239   3.692   0.802   3.043  0.5288  0.4706 -1.5107
 3618SOL    MW414240   3.622   0.846   3.016 -0.2841  0.0379 -0.1942
 3619SOL     OW14241   4.412   3.857   1.899 -0.6548 -0.0988 -0.3288
 3619SOL    HW214242   4.399   3.762   1.898  0.9588 -0.3786  0.9040
 3619SOL    HW314243   4.360   3.887   1.974 -1.1540  0.0111 -0.7104
 3619SOL    MW414244   4.403   3.849   1.909 -0.5077 -0.1212 -0.2165
 3620SOL     OW14245   5.320   5.299   1.174  0.0154  0.1566  0.3895
 3620SOL    HW214246   5.299   5.312   1.267 -0.4735  2.8609 -0.0102
 3620SOL    HW314247   5.260   5.231   1.145 -0.3261 -0.2217  1.8654
 3620SOL    MW414248   5.309   5.292   1.183 -0.0942  0.4635  0.5315
 3621SOL     OW14249   4.003   2.551   0.464 -0.0436  0.1480 -0.3144
 3621SOL    HW214250   3.972   2.464   0.491  1.3427 -0.1941  0.2536
 3621SOL    HW314251   3.979   2.558   0.372 -0.2695 -0.7865 -0.3344
 3621SOL    MW414252   3.996   2.541   0.456  0.1095 -0.0204 -0.2421
 3622SOL     OW14253   0.237   4.150   6.340 -0.2741 -0.1086  0.0477
 3622SOL    HW214254   0.310   4.089   6.326 -0.7657 -1.1811  1.7896
 3622SOL    HW314255   0.173   4.126   6.272 -0.2975 -1.3072  0.4702
 3622SOL    MW414256   0.238   4.138   6.329 -0.3420 -0.4082  0.3333
 3623SOL     OW14257   4.081   4.649   5.013 -0.1361 -0.1578 -0.7528
 3623SOL    HW214258   4.027   4.709   5.064 -0.8612 -1.3235 -0.0941
 3623SOL    HW314259   4.039   4.647   4.926  1.3128  2.1127 -1.5995
 3623SOL    MW414260   4.068   4.657   5.008 -0.0406 -0.0120 -0.7776
 3624SOL     OW14261   4.769   0.570   0.912  0.1187 -0.7314 -0.2363
 3624SOL    HW214262   4.695   0.519   0.879  0.5732 -2.2484  0.9634
 3624SOL    HW314263   4.846   0.532   0.870  0.3405  0.0059 -0.5142
 3624SOL    MW414264   4.770   0.558   0.902  0.2079 -0.8343 -0.1147
 3625SOL     OW14265   0.340   1.908   2.039 -0.1078 -0.1993 -0.1492
 3625SOL    HW214266   0.336   2.002   2.018  0.5003 -0.2448 -0.5031
 3625SOL    HW314267   0.258   1.890   2.084 -0.2105  0.5183 -0.0356
 3625SOL    MW414268   0.329   1.918   2.042 -0.0411 -0.1106 -0.1809
 3626SOL     OW14269   1.075   1.706   1.315  0.5728 -0.0805 -0.4975
 3626SOL    HW214270   1.122   1.694   1.398  1.3955  0.4827 -0.8655
 3626SOL    HW314271   0.995   1.655   1.325  0.7695 -0.2105  0.5581
 3626SOL    MW414272   1.070   1.698   1.328  0.7073 -0.0234 -0.4068
 3627SOL     OW14273   0.420   6.003   0.904 -0.3988  0.4489 -0.6363
 3627SOL    HW214274   0.439   5.936   0.839 -1.9723  0.2718 -0.9364
 3627SOL    HW314275   0.496   6.002   0.962 -1.4299 -3.3488  0.8841
 3627SOL    MW414276   0.433   5.994   0.903 -0.7424 -0.0755 -0.4753
 3628SOL     OW14277   1.041   0.180   2.268  0.2142  0.0231 -0.4445
 3628SOL    HW214278   1.113   0.167   2.207  0.8283  0.3633  0.1946
 3628SOL    HW314279   0.976   0.230   2.219 -0.3244 -1.6798 -1.5522
 3628SOL    MW414280   1.042   0.185   2.254  0.2242 -0.1567 -0.5063
 3629SOL     OW14281   5.889   0.453   4.629 -0.0909  0.2622  0.6857
 3629SOL    HW214282   5.853   0.368   4.654  1.6445 -0.4638  0.8269
 3629SOL    HW314283   5.959   0.470   4.693  0.8792  0.8598 -0.4874
 3629SOL    MW414284   5.894   0.444   4.641  0.2661  0.2452  0.5495
 3630SOL     OW14285   3.131   0.085   1.698  0.3279  0.2468 -0.3470
 3630SOL    HW214286   3.207   0.036   1.729  0.1771 -0.4615 -1.0420
 3630SOL    HW314287   3.138   0.081   1.602 -0.2315  0.7395 -0.4118
 3630SOL    MW414288   3.142   0.078   1.689  0.2342  0.2184 -0.4472
 3631SOL     OW14289   3.269   1.773   0.310 -0.9406 -0.5894 -0.1180
 3631SOL    HW214290   3.275   1.791   0.216 -1.2692  0.1833  0.0018
 3631SOL    HW314291   3.176   1.784   0.331 -0.8971 -0.9156  0.2724
 3631SOL    MW414292   3.258   1.777   0.300 -0.9782 -0.5305 -0.0507
 3632SOL     OW14293   4.235   3.847   0.371  0.3066  0.1082 -0.3445
 3632SOL    HW214294   4.196   3.914   0.314  0.9181  0.7787  0.0027
 3632SOL    HW314295   4.213   3.875   0.460  0.3645 -0.2849 -0.2045
 3632SOL    MW414296   4.227   3.860   0.375  0.3949  0.1448 -0.2802
 3633SOL     OW14297   3.115   4.197   0.696 -0.6057 -0.4867  0.0407
 3633SOL    HW214298   3.126   4.198   0.791  0.1390  0.7579 -0.0422
 3633SOL    HW314299   3.097   4.288   0.672 -0.2698 -0.6939 -1.0732
 3633SOL    MW414300   3.114   4.209   0.705 -0.4632 -0.3498 -0.1172
 3634SOL     OW14301   2.468   2.935   2.033  0.1281  0.6989  0.3787
 3634SOL    HW214302   2.397   2.887   2.074  1.2697 -1.4558 -0.0267
 3634SOL    HW314303   2.514   2.870   1.980  1.6334  2.2982 -0.4004
 3634SOL    MW414304   2.465   2.920   2.031  0.4773  0.6256  0.2224
 3635SOL     OW14305   3.424   5.563   0.567  0.1750 -0.6772 -0.4067
 3635SOL    HW214306   3.410   5.601   0.654 -0.4483 -0.0675 -0.7656
 3635SOL    HW314307   3.518   5.544   0.564  0.4399  0.5130 -0.0927
 3635SOL    MW414308   3.434   5.566   0.578  0.1277 -0.4397 -0.4126
 3636SOL     OW14309   6.039   3.051   1.833 -0.0978  0.1974  0.4261
 3636SOL    HW214310   5.988   3.032   1.912 -1.3777  0.4185 -0.3206
 3636SOL    HW314311   6.005   2.991   1.767  1.2613 -0.2964  0.1328
 3636SOL    MW414312   6.028   3.041   1.835 -0.0873  0.1614  0.2889
 3637SOL     OW14313   5.928   3.109   1.100  0.5372  0.9120 -0.1273
 3637SOL    HW214314   5.993   3.040   1.091 -1.7766 -1.2047 -2.1557
 3637SOL    HW314315   5.974   3.189   1.074  2.1579 -0.5789 -2.1530
 3637SOL    MW414316   5.943   3.111   1.096  0.4458  0.4360 -0.6622
 3638SOL     OW14317   0.389   1.235   0.965  0.3143  0.8913 -0.8152
 3638SOL    HW214318   0.456   1.212   1.028 -0.8848  2.7432  1.2856
 3638SOL    HW314319   0.313   1.181   0.988  0.1778  0.8630 -1.3114
 3638SOL    MW414320   0.388   1.225   0.976  0.1381  1.1319 -0.6035
 3639SOL     OW14321   3.025   4.620   2.708  0.6659 -0.2967 -0.1355
 3639SOL    HW214322   2.975   4.539   2.704 -1.0711  0.7483 -0.8608
 3639SOL    HW314323   3.111   4.597   2.673 -0.2790 -1.5019 -1.8030
 3639SOL    MW414324   3.030   4.606   2.702  0.3120 -0.3178 -0.4512
 3640SOL     OW14325   4.106   2.859   3.096 -0.0157 -0.4919  0.7367
 3640SOL    HW214326   4.061   2.831   3.176  1.3792 -2.3296  0.9485
 3640SOL    HW314327   4.091   2.953   3.092 -2.1944 -0.7446  1.8101
 3640SOL    MW414328   4.098   2.868   3.106 -0.1191 -0.7677  0.9063
 3641SOL     OW14329   0.950   3.693   2.393 -0.2650 -0.0870  0.3846
 3641SOL    HW214330   0.894   3.652   2.458 -0.9935 -2.4797 -1.6154
 3641SOL    HW314331   1.038   3.661   2.413 -0.0586  1.0604  1.5158
 3641SOL    MW414332   0.955   3.683   2.404 -0.3339 -0.2513  0.2700
 3642SOL     OW14333   5.994   4.438   1.695 -0.5585 -0.6121 -0.1227
 3642SOL    HW214334   6.046   4.435   1.775 -1.7857  0.4833  0.7623
 3642SOL    HW314335   6.012   4.525   1.658 -2.5746  0.2504  0.8126
 3642SOL    MW414336   6.003   4.449   1.701 -0.9864 -0.3538  0.1174
 3643SOL     OW14337   5.846   4.698   4.581  0.5196 -0.0533  0.4877
 3643SOL    HW214338   5.809   4.754   4.512 -1.1751 -1.4726  0.1685
 3643SOL    HW314339   5.860   4.757   4.655  0.2217  1.0735 -0.3248
 3643SOL    MW414340   5.843   4.713   4.582  0.2567 -0.0919  0.3384
 3644SOL     OW14341   2.613   0.842   4.256  0.0709 -0.4823 -0.1450
 3644SOL    HW214342   2.652   0.775   4.200  0.2286 -0.6331  0.1462
 3644SOL    HW314343   2.519   0.822   4.256 -0.1113  0.2649 -1.3729
 3644SOL    MW414344   2.606   0.831   4.248  0.0676 -0.4036 -0.2686
 3645SOL     OW14345   4.535   0.941   1.445  0.1193  0.5615 -0.2155
 3645SOL    HW214346   4.598   0.938   1.373 -0.6234  1.1508 -0.9135
 3645SOL    HW314347   4.463   0.995   1.411 -0.9766 -0.4783  0.3822
 3645SOL    MW414348   4.534   0.948   1.431 -0.1233  0.5020 -0.2287
 3646SOL     OW14349   0.715   3.222   3.856 -0.7333 -0.0983 -0.3115
 3646SOL    HW214350   0.698   3.211   3.763 -1.0364 -0.3424 -0.2331
 3646SOL    HW314351   0.738   3.314   3.867 -0.4364 -0.1286 -0.6642
 3646SOL    MW414352   0.716   3.232   3.845 -0.7341 -0.1345 -0.3477
 3647SOL     OW14353   2.440   5.497   0.852 -0.0512 -0.0460  0.3075
 3647SOL    HW214354   2.406   5.539   0.773 -0.5557  0.4505  0.7788
 3647SOL    HW314355   2.391   5.415   0.858 -0.6712  0.3324  0.5861
 3647SOL    MW414356   2.429   5.492   0.842 -0.1996  0.0694  0.4064
 3648SOL     OW14357   3.173   0.111   1.395  0.1312  0.0584 -0.4245
 3648SOL    HW214358   3.219   0.181   1.348  1.9960 -1.1492 -0.5155
 3648SOL    HW314359   3.124   0.064   1.328  1.4670 -0.6610 -0.9274
 3648SOL    MW414360   3.173   0.114   1.380  0.5534 -0.1958 -0.5028
 3649SOL     OW14361   3.330   2.637   5.529 -0.3702  0.3297  0.6810
 3649SOL    HW214362   3.295   2.694   5.597  1.2176  0.8352  1.1304
 3649SOL    HW314363   3.361   2.696   5.461 -0.8790 -0.1254  0.0330
 3649SOL    MW414364   3.330   2.652   5.529 -0.2279  0.3364  0.6548
 3650SOL     OW14365   2.573   3.227   5.223  0.2519 -0.2684  0.1372
 3650SOL    HW214366   2.545   3.149   5.271 -0.7488  0.4828  0.8130
 3650SOL    HW314367   2.621   3.279   5.287  2.1444 -0.9319 -0.6736
 3650SOL    MW414368   2.575   3.224   5.238  0.3696 -0.2568  0.1194
 3651SOL     OW14369   4.328   2.732   6.036 -0.1257 -0.2143 -0.5022
 3651SOL    HW214370   4.420   2.747   6.012 -0.4997 -0.4375 -2.2027
 3651SOL    HW314371   4.314   2.639   6.018 -0.6367 -0.2300 -0.0443
 3651SOL    MW414372   4.338   2.722   6.031 -0.2425 -0.2458 -0.6662
 3652SOL     OW14373   3.571   2.945   2.793 -0.6610  0.0960  0.4259
 3652SOL    HW214374   3.549   2.934   2.700 -1.6895 -0.0492  0.6697
 3652SOL    HW314375   3.512   2.885   2.839 -1.0407  1.0780  1.2540
 3652SOL    MW414376   3.560   2.936   2.787 -0.8468  0.2064  0.5674
 3653SOL     OW14377   6.006   1.424   0.115  0.0109  0.0097  0.2022
 3653SOL    HW214378   6.074   1.435   0.181 -0.8777 -0.8555  1.3101
 3653SOL    HW314379   6.036   1.351   0.061 -0.2663 -0.7372  1.0271
 3653SOL    MW414380   6.019   1.416   0.116 -0.1429 -0.2030  0.4572
 3654SOL     OW14381   2.401   1.046   4.371  0.1235 -0.4774  0.2442
 3654SOL    HW214382   2.421   1.123   4.318 -1.6236  0.9884  1.5871
 3654SOL    HW314383   2.356   0.987   4.311  0.5027  0.0055 -0.5325
 3654SOL    MW414384   2.398   1.048   4.356 -0.0570 -0.2203  0.3189
 3655SOL     OW14385   2.637   5.449   4.663 -0.3068 -0.1261 -0.0710
 3655SOL    HW214386   2.583   5.485   4.733 -0.7160 -1.7439  0.4870
 3655SOL    HW314387   2.671   5.526   4.617 -1.4096  0.9454  0.8372
 3655SOL    MW414388   2.635   5.464   4.666 -0.5063 -0.1981  0.1224
 3656SOL     OW14389   5.460   0.412   3.018 -0.0456  0.0508 -0.1259
 3656SOL    HW214390   5.456   0.469   3.095 -1.3026 -0.3035  0.0964
 3656SOL    HW314391   5.368   0.401   2.992  0.2095 -1.4411 -0.4761
 3656SOL    MW414392   5.447   0.418   3.025 -0.1778 -0.1928 -0.1428
 3657SOL     OW14393   0.425   0.724   4.086 -0.5608 -0.0447 -0.5065
 3657SOL    HW214394   0.337   0.746   4.117  0.8958  1.8338  2.8784
 3657SOL    HW314395   0.444   0.789   4.019 -0.8411  1.1728  0.5717
 3657SOL    MW414396   0.416   0.735   4.081 -0.4056  0.3638  0.0824
 3658SOL     OW14397   1.004   2.504   3.904  0.6649  0.3775  0.1186
 3658SOL    HW214398   0.943   2.432   3.920 -1.7028  2.5116  1.2763
 3658SOL    HW314399   1.004   2.515   3.809 -1.4664  0.8585  0.1352
 3658SOL    MW414400   0.996   2.496   3.894  0.0713  0.7225  0.2736
 3659SOL     OW14401   2.035   0.660   0.387  0.1360 -0.1799 -0.1798
 3659SOL    HW214402   2.102   0.601   0.351  0.8192  1.1100 -1.1101
 3659SOL    HW314403   1.972   0.670   0.316 -0.5064 -0.5565  0.3280
 3659SOL    MW414404   2.035   0.654   0.372  0.1414 -0.0594 -0.2356
 3660SOL     OW14405   3.043   6.352   0.617  0.0705  0.1132  0.2093
 3660SOL    HW214406   2.997   6.370   0.699  1.7903  0.8265  1.0593
 3660SOL    HW314407   3.135   6.366   0.638  0.7669 -1.7694 -1.2802
 3660SOL    MW414408   3.049   6.356   0.631  0.3892 -0.0411  0.1249
 3661SOL     OW14409   4.275   6.250   6.328 -0.4464 -0.3961 -0.4768
 3661SOL    HW214410   4.360   6.293   6.327 -0.9250  0.6574  0.9548
 3661SOL    HW314411   4.220   6.303   6.271  0.0283 -1.5742 -2.1192
 3661SOL    MW414412   4.279   6.263   6.320 -0.4469 -0.4125 -0.5046
 3662SOL     OW14413   4.387   3.570   4.902  0.5604  0.0313  0.1736
 3662SOL    HW214414   4.474   3.609   4.910  0.5747 -0.0265  0.3082
 3662SOL    HW314415   4.341   3.599   4.981 -0.2497  1.8254 -0.8854
 3662SOL    MW414416   4.393   3.579   4.914  0.4554  0.2604  0.0516
 3663SOL     OW14417   3.635   3.087   3.188 -0.5557 -0.2492 -0.4451
 3663SOL    HW214418   3.712   3.144   3.200 -0.4707 -0.1767 -1.3113
 3663SOL    HW314419   3.672   3.004   3.159 -0.6681 -0.8185  0.9868
 3663SOL    MW414420   3.650   3.084   3.186 -0.5593 -0.3147 -0.3705
 3664SOL     OW14421   4.428   1.353   5.528  0.0369  0.8626 -0.3883
 3664SOL    HW214422   4.422   1.390   5.616  0.3924  0.7637 -0.3212
 3664SOL    HW314423   4.339   1.357   5.494 -0.2149  0.3554  0.1990
 3664SOL    MW414424   4.415   1.359   5.535  0.0506  0.7826 -0.3020
 3665SOL     OW14425   2.748   3.331   1.684 -0.3268  0.5587 -0.6403
 3665SOL    HW214426   2.747   3.412   1.736 -0.6328 -0.3583  0.8484
 3665SOL    HW314427   2.840   3.309   1.676 -0.2287  1.1630 -1.2408
 3665SOL    MW414428   2.760   3.339   1.690 -0.3542  0.5174 -0.5231
 3666SOL     OW14429   2.961   4.666   5.846  0.2524 -0.2315 -0.2421
 3666SOL    HW214430   2.926   4.590   5.892  1.0891 -0.7425 -0.4176
 3666SOL    HW314431   3.021   4.706   5.909 -2.0915  1.8251  0.8146
 3666SOL    MW414432   2.964   4.661   5.860  0.0536 -0.0276 -0.1258
 3667SOL     OW14433   1.552   6.040   6.214 -0.6321 -0.5576  0.7292
 3667SOL    HW214434   1.608   6.008   6.143 -1.5131 -0.9154  0.1811
 3667SOL    HW314435   1.609   6.039   6.291 -0.1431 -1.8450  0.3804
 3667SOL    MW414436   1.567   6.035   6.215 -0.6838 -0.7747  0.6108
 3668SOL     OW14437   6.144   5.387   0.504  0.0264 -0.0276  1.3374
 3668SOL    HW214438   6.135   5.481   0.517 -2.6373  0.0551 -0.4017
 3668SOL    HW314439   6.198   5.378   0.426 -0.5934  0.1179  0.8852
 3668SOL    MW414440   6.150   5.398   0.495 -0.4068  0.0025  1.0483
 3669SOL     OW14441   5.320   2.225   4.830 -0.6371 -0.3366  0.2316
 3669SOL    HW214442   5.397   2.187   4.873 -0.6260 -0.0696  0.4509
 3669SOL    HW314443   5.295   2.298   4.887  0.1564  0.8341 -0.8901
 3669SOL    MW414444   5.327   2.230   4.844 -0.5309 -0.1469  0.1125
 3670SOL     OW14445   0.848   5.816   1.568  0.5400 -0.9077  0.3553
 3670SOL    HW214446   0.814   5.901   1.598  2.2811  0.2312 -0.6974
 3670SOL    HW314447   0.774   5.756   1.575 -1.0784  0.9700  0.0571
 3670SOL    MW414448   0.834   5.819   1.573  0.5562 -0.5097  0.1770
 3671SOL     OW14449   3.798   4.930   2.061 -0.0004 -0.3614  0.3703
 3671SOL    HW214450   3.877   4.882   2.084 -0.7824 -1.9272 -0.0584
 3671SOL    HW314451   3.727   4.866   2.071 -1.1354  0.8065  0.0924
 3671SOL    MW414452   3.799   4.915   2.065 -0.2533 -0.4139  0.2771
 3672SOL     OW14453   3.294   4.517   2.601  0.1230 -0.0569  0.7514
 3672SOL    HW214454   3.327   4.529   2.512 -0.6245 -0.8865  0.3499
 3672SOL    HW314455   3.356   4.565   2.657  1.5327 -0.9204 -0.0418
 3672SOL    MW414456   3.306   4.525   2.597  0.2104 -0.2802  0.5938
 3673SOL     OW14457   2.290   1.266   0.223 -0.7595 -0.3451  0.3252
 3673SOL    HW214458   2.309   1.309   0.140  3.5104 -0.3939  1.0131
 3673SOL    HW314459   2.316   1.175   0.209 -1.1896 -0.6422  1.3426
 3673SOL    MW414460   2.296   1.260   0.211 -0.2529 -0.3907  0.5502
 3674SOL     OW14461   2.354   5.884   3.777 -0.2111 -0.9898  0.1793
 3674SOL    HW214462   2.300   5.895   3.699 -1.1969  0.5016  1.0405
 3674SOL    HW314463   2.443   5.902   3.747 -0.4396 -1.4396 -0.8101
 3674SOL    MW414464   2.359   5.888   3.763 -0.3713 -0.8524  0.1623
 3675SOL     OW14465   0.551   5.320   5.574  0.4652 -0.4247  0.5239
 3675SOL    HW214466   0.601   5.401   5.562 -0.1941  0.1135  1.3020
 3675SOL    HW314467   0.460   5.349   5.576  0.2774 -1.0617  1.7728
 3675SOL    MW414468   0.545   5.335   5.573  0.3534 -0.4378  0.7913
 3676SOL     OW14469   4.427   4.461   2.315  0.4736  0.3842  0.1806
 3676SOL    HW214470   4.335   4.470   2.339 -0.3185 -0.2593 -2.3287
 3676SOL    HW314471   4.432   4.376   2.272  1.8939  1.0873 -1.1286
 3676SOL    MW414472   4.416   4.451   2.312  0.5565  0.3920 -0.3232
 3677SOL     OW14473   4.318   3.006   4.850  0.0824  1.0788  0.0771
 3677SOL    HW214474   4.357   3.001   4.762  0.9453  0.5169  0.4827
 3677SOL    HW314475   4.331   3.098   4.876  2.5648  0.5953  0.8100
 3677SOL    MW414476   4.325   3.018   4.841  0.5238  0.9409  0.2273
 3678SOL     OW14477   5.537   4.718   1.254 -0.3332  0.2438  0.4072
 3678SOL    HW214478   5.562   4.638   1.208  0.3975  0.9159 -0.4093
 3678SOL    HW314479   5.455   4.745   1.212  0.0117  0.5226 -0.1005
 3678SOL    MW414480   5.529   4.711   1.242 -0.1913  0.3693  0.2325
 3679SOL     OW14481   2.311   2.593   2.582 -0.3584 -0.5732 -0.5096
 3679SOL    HW214482   2.221   2.619   2.563  0.7870  2.4756 -2.5755
 3679SOL    HW314483   2.303   2.521   2.645 -4.1686  0.6258  0.6394
 3679SOL    MW414484   2.298   2.587   2.588 -0.7100 -0.0128 -0.6306
 3680SOL     OW14485   6.319   5.767   3.801  0.3525  0.0325  0.1308
 3680SOL    HW214486   6.297   5.838   3.862  0.6021 -0.5730  0.9463
 3680SOL    HW314487   6.278   5.690   3.838 -0.4166 -0.1628 -1.0701
 3680SOL    MW414488   6.311   5.766   3.814  0.2840 -0.0732  0.0800
 3681SOL     OW14489   4.159   3.140   2.053 -0.0965  0.1496 -0.1059
 3681SOL    HW214490   4.253   3.138   2.032 -0.3096  0.2434 -1.1225
 3681SOL    HW314491   4.131   3.049   2.043  0.2703 -0.2686  2.1600
 3681SOL    MW414492   4.168   3.127   2.049 -0.0762  0.1068  0.0589
 3682SOL     OW14493   6.192   5.623   2.227  0.2491 -0.5426  0.4592
 3682SOL    HW214494   6.186   5.628   2.322  1.2586 -1.1716  0.5692
 3682SOL    HW314495   6.265   5.564   2.210  0.8019  0.4135 -0.7084
 3682SOL    MW414496   6.201   5.616   2.237  0.4553 -0.4994  0.3197
 3683SOL     OW14497   3.828   3.105   2.622 -0.1869  0.0011  0.1256
 3683SOL    HW214498   3.791   3.188   2.654 -1.2447 -0.5204  0.3140
 3683SOL    HW314499   3.832   3.049   2.700 -0.4895 -0.4709 -0.1905
 3683SOL    MW414500   3.823   3.108   2.637 -0.3664 -0.1299  0.1087
 3684SOL     OW14501   3.222   5.924   4.650 -0.1592 -0.2727 -0.5564
 3684SOL    HW214502   3.275   5.990   4.606  1.1809 -1.2958 -0.5399
 3684SOL    HW314503   3.211   5.854   4.586  0.1030 -0.8942  0.0700
 3684SOL    MW414504   3.227   5.924   4.636  0.0522 -0.4897 -0.4715
 3685SOL     OW14505   4.140   1.983   4.152 -0.1087  0.1760  0.3831
 3685SOL    HW214506   4.126   1.934   4.071 -2.7852  3.2074 -1.1978
 3685SOL    HW314507   4.078   1.945   4.214 -0.2657 -0.1513  0.0314
 3685SOL    MW414508   4.130   1.971   4.149 -0.4825  0.5328  0.1281
 3686SOL     OW14509   3.704   6.169   1.511 -0.0059  0.3222 -0.1720
 3686SOL    HW214510   3.707   6.245   1.452 -1.0012 -1.4343 -2.6501
 3686SOL    HW314511   3.620   6.179   1.557 -0.2464  0.6156 -0.6572
 3686SOL    MW414512   3.693   6.181   1.509 -0.1690  0.1291 -0.5630
 3687SOL     OW14513   2.254   5.664   2.218  0.7051  0.4132 -0.1804
 3687SOL    HW214514   2.221   5.614   2.144  1.6809  0.5511 -0.7220
 3687SOL    HW314515   2.176   5.691   2.266  0.0967 -0.1749 -0.8297
 3687SOL    MW414516   2.240   5.661   2.215  0.7536  0.3538 -0.3375
 3688SOL     OW14517   2.355   3.655   0.432 -0.1878 -0.3442  0.3480
 3688SOL    HW214518   2.280   3.667   0.489 -1.8299  0.4733 -1.8371
 3688SOL    HW314519   2.370   3.741   0.393  0.8933 -0.8631 -0.4522
 3688SOL    MW414520   2.347   3.668   0.434 -0.2618 -0.3048 -0.0459
 3689SOL     OW14521   3.475   5.418   2.393 -0.1591 -0.2004  0.0779
 3689SOL    HW214522   3.515   5.427   2.479 -0.1326 -2.0298  0.2966
 3689SOL    HW314523   3.468   5.323   2.379 -0.6027  0.0506 -1.7249
 3689SOL    MW414524   3.480   5.406   2.402 -0.2142 -0.4087 -0.1311
 3690SOL     OW14525   0.530   4.960   2.625  0.1493 -0.1613  0.0389
 3690SOL    HW214526   0.524   4.975   2.720  0.2001 -2.3398  0.4295
 3690SOL    HW314527   0.476   4.883   2.609  2.4505 -1.6224 -1.2146
 3690SOL    MW414528   0.522   4.952   2.636  0.4596 -0.6415 -0.0749
 3691SOL     OW14529   4.903   1.527   1.369  0.1716 -0.2313  0.1049
 3691SOL    HW214530   4.846   1.450   1.358  0.2859 -0.1653 -1.0500
 3691SOL    HW314531   4.967   1.520   1.299 -1.1277  2.0591 -1.4521
 3691SOL    MW414532   4.904   1.516   1.358  0.0153  0.0796 -0.2529
 3692SOL     OW14533   3.075   4.620   4.873  0.3637  0.1040 -0.2665
 3692SOL    HW214534   3.012   4.644   4.806 -1.0905 -0.4340  0.8569
 3692SOL    HW314535   3.083   4.697   4.928  1.4603  0.5007 -0.9342
 3692SOL    MW414536   3.068   4.633   4.871  0.3165  0.0854 -0.2064
 3693SOL     OW14537   5.924   0.804   5.691  0.2896  0.0138 -0.2454
 3693SOL    HW214538   5.919   0.798   5.786  2.0829  1.4459 -0.0042
 3693SOL    HW314539   5.944   0.715   5.663 -1.4444 -0.6813  0.5658
 3693SOL    MW414540   5.926   0.791   5.700  0.2974  0.1111 -0.1066
 3694SOL     OW14541   2.837   2.032   5.302 -0.4587 -0.4659 -0.4045
 3694SOL    HW214542   2.750   2.043   5.342 -0.1262 -1.3999  0.6552
 3694SOL    HW314543   2.881   2.115   5.318 -1.6833  0.6446 -2.4242
 3694SOL    MW414544   2.831   2.044   5.310 -0.5764 -0.4426 -0.5312
 3695SOL     OW14545   0.676   0.239   0.763  0.0321  0.2884  0.1141
 3695SOL    HW214546   0.630   0.157   0.743  0.8712 -1.2154  3.6092
 3695SOL    HW314547   0.738   0.250   0.691 -0.1731 -2.1328 -0.5253
 3695SOL    MW414548   0.678   0.230   0.751  0.1158 -0.2294  0.4909
 3696SOL     OW14549   2.262   2.034   4.912 -0.3491 -0.4463  0.0478
 3696SOL    HW214550   2.178   2.033   4.957 -0.4731  1.7140 -0.0409
 3696SOL    HW314551   2.245   2.085   4.832  0.9655 -0.2597 -0.1273
 3696SOL    MW414552   2.248   2.041   4.907 -0.1920 -0.1366  0.0130
 3697SOL     OW14553   3.601   0.892   5.879 -0.3403 -0.1326 -0.5958
 3697SOL    HW214554   3.678   0.894   5.823  0.1418  0.0621  0.0548
 3697SOL    HW314555   3.530   0.929   5.826  0.5065  1.7734 -0.4777
 3697SOL    MW414556   3.601   0.897   5.865 -0.1650  0.1446 -0.4944
 3698SOL     OW14557   2.416   0.917   1.072 -0.2672  0.2016 -0.2449
 3698SOL    HW214558   2.400   0.822   1.078  0.1088  0.1665  0.2771
 3698SOL    HW314559   2.420   0.934   0.978 -1.6371 -0.0709 -0.3723
 3698SOL    MW414560   2.415   0.906   1.061 -0.3983  0.1610 -0.1928
 3699SOL     OW14561   2.320   1.888   3.073 -0.1307 -0.1958  0.3185
 3699SOL    HW214562   2.273   1.846   3.001  0.6282 -1.9096  0.7674
 3699SOL    HW314563   2.251   1.929   3.126 -0.7990  0.0648 -0.7278
 3699SOL    MW414564   2.305   1.888   3.071 -0.1187 -0.3875  0.2397
 3700SOL     OW14565   4.242   6.382   3.447  0.0390  0.0286 -0.1851
 3700SOL    HW214566   4.223   6.288   3.449  1.5625 -0.3086  1.8040
 3700SOL    HW314567   4.159   6.424   3.466 -0.1959 -1.0596  1.3491
 3700SOL    MW414568   4.229   6.375   3.450  0.2090 -0.1595  0.2798
 3701SOL     OW14569   1.849   5.570   6.219  0.4328 -0.0022  0.2750
 3701SOL    HW214570   1.846   5.499   6.154  0.0565 -0.6683  1.0092
 3701SOL    HW314571   1.896   5.640   6.174 -1.2057  0.1585 -1.3406
 3701SOL    MW414572   1.854   5.570   6.204  0.1669 -0.0689  0.1587
 3702SOL     OW14573   4.522   4.639   2.909  0.2283  0.3413  0.3822
 3702SOL    HW214574   4.575   4.669   2.836 -0.1000 -0.2430 -0.0986
 3702SOL    HW314575   4.464   4.573   2.872 -1.4821  1.5872  0.6853
 3702SOL    MW414576   4.521   4.634   2.895 -0.0407  0.4286  0.3588
 3703SOL     OW14577   4.155   2.520   5.065 -0.0884  0.1770 -0.0316
 3703SOL    HW214578   4.228   2.459   5.079 -1.2049 -1.6215 -1.6113
 3703SOL    HW314579   4.197   2.602   5.040  1.4538  0.0473  1.8271
 3703SOL    MW414580   4.170   2.523   5.064 -0.0322 -0.0774  0.0052
 3704SOL     OW14581   0.036   4.614   1.164 -0.6690 -0.2655 -0.1288
 3704SOL    HW214582  -0.016   4.668   1.104 -0.7427  1.2058  1.1909
 3704SOL    HW314583   0.001   4.634   1.250  1.5032  0.1060  0.7324
 3704SOL    MW414584   0.024   4.624   1.167 -0.3922 -0.0223  0.1589
 3705SOL     OW14585   6.193   0.239   4.907  0.0506  0.2224 -0.3310
 3705SOL    HW214586   6.233   0.152   4.908  0.0668  0.2307 -0.2434
 3705SOL    HW314587   6.107   0.226   4.946  0.2185  0.3260  0.0726
 3705SOL    MW414588   6.187   0.226   4.912  0.0749  0.2371 -0.2662
 3706SOL     OW14589   3.074   5.005   4.001 -0.3272  0.0205 -0.1100
 3706SOL    HW214590   3.041   5.048   4.080 -0.6750 -0.1005 -0.1877
 3706SOL    HW314591   3.158   4.967   4.027 -0.5011 -0.1281  0.2370
 3706SOL    MW414592   3.081   5.006   4.015 -0.3960 -0.0151 -0.0745
 3707SOL     OW14593   4.916   4.426   0.451  0.2410  0.3362  0.0578
 3707SOL    HW214594   4.998   4.449   0.496  0.3978  0.7031 -0.4062
 3707SOL    HW314595   4.853   4.412   0.522  0.5760  0.5588  0.4031
 3707SOL    MW414596   4.918   4.427   0.466  0.3059  0.4139  0.0421
 3708SOL     OW14597   3.073   3.936   2.791 -0.1148 -0.0178  0.0709
 3708SOL    HW214598   2.992   3.973   2.755 -0.9406 -0.7224  1.1083
 3708SOL    HW314599   3.095   3.865   2.731  0.9398  1.4836 -1.3877
 3708SOL    MW414600   3.065   3.931   2.778 -0.0846  0.0874  0.0154
 3709SOL     OW14601   3.199   3.530   5.555  0.4300 -0.1377 -0.1181
 3709SOL    HW214602   3.210   3.438   5.531 -1.9078 -0.9253  1.5003
 3709SOL    HW314603   3.111   3.553   5.527 -0.2198  0.6149  2.2990
 3709SOL    MW414604   3.189   3.521   5.549  0.0358 -0.1423  0.4143
 3710SOL     OW14605   5.903   3.204   6.232 -0.0412  0.3854 -0.1726
 3710SOL    HW214606   5.911   3.290   6.191 -3.4392  0.6463 -0.6081
 3710SOL    HW314607   5.889   3.223   6.325  0.0698  0.2545 -0.1288
 3710SOL    MW414608   5.902   3.218   6.239 -0.4749  0.4026 -0.2242
 3711SOL     OW14609   3.093   1.654   3.739 -0.4964 -0.5643 -0.2330
 3711SOL    HW214610   3.106   1.559   3.745  1.4336 -0.3016  0.6837
 3711SOL    HW314611   3.069   1.682   3.827  0.4437 -0.0381 -0.1282
 3711SOL    MW414612   3.092   1.645   3.751 -0.1177 -0.4602 -0.0982
 3712SOL     OW14613   0.145   1.724   0.572  0.2594 -0.4308  0.0011
 3712SOL    HW214614   0.205   1.717   0.498  0.8998  2.5546  0.0880
 3712SOL    HW314615   0.114   1.635   0.587  1.6648 -1.4523 -2.5406
 3712SOL    MW414616   0.149   1.711   0.564  0.5293 -0.1717 -0.3228
 3713SOL     OW14617   4.020   1.320   2.273  0.2342  0.1184  0.0384
 3713SOL    HW214618   4.075   1.351   2.345 -0.2419  2.0114 -0.3368
 3713SOL    HW314619   4.035   1.384   2.202 -0.1793 -1.0334 -1.1249
 3713SOL    MW414620   4.029   1.333   2.273  0.1168  0.2162 -0.1646
 3714SOL     OW14621   4.291   3.964   0.007  0.4402 -0.2099 -0.4934
 3714SOL    HW214622   4.300   4.004  -0.080  0.4164  1.1910  0.1272
 3714SOL    HW314623   4.196   3.963   0.022  0.4079 -0.9721 -0.7033
 3714SOL    MW414624   4.279   3.969  -0.003  0.4328 -0.1257 -0.4392
 3715SOL     OW14625   0.817   0.047   0.995  0.2100 -0.6148 -0.5849
 3715SOL    HW214626   0.872  -0.031   0.998  0.8483 -0.1590  0.9734
 3715SOL    HW314627   0.852   0.098   0.922  4.0551  1.0933  2.1138
 3715SOL    MW414628   0.829   0.043   0.986  0.8016 -0.3293 -0.0232
 3716SOL     OW14629   1.110   2.445   1.267  0.2441  0.2881 -0.0164
 3716SOL    HW214630   1.039   2.468   1.327  1.3561  0.7288  1.1435
 3716SOL    HW314631   1.159   2.377   1.312  0.2101 -0.4923 -1.0978
 3716SOL    MW414632   1.107   2.439   1.281  0.3863  0.2433 -0.0061
 3717SOL     OW14633   0.550   4.351   0.857 -0.1475 -0.2937 -0.1448
 3717SOL    HW214634   0.530   4.288   0.788  1.0127  0.0019 -0.7811
 3717SOL    HW314635   0.511   4.433   0.826  1.9214  0.2982 -1.4164
 3717SOL    MW414636   0.542   4.354   0.844  0.2785 -0.1766 -0.3965
 3718SOL     OW14637   2.095   6.206   1.015  0.3463  0.3980  0.1626
 3718SOL    HW214638   2.188   6.216   1.033  0.5295  1.6637 -1.2769
 3718SOL    HW314639   2.053   6.226   1.099  1.3616 -1.5050  1.1994
 3718SOL    MW414640   2.102   6.210   1.029  0.5044  0.3139  0.1095
 3719SOL     OW14641   2.537   3.789   1.441 -0.6778 -0.2087  0.0432
 3719SOL    HW214642   2.570   3.866   1.487  1.2522 -0.5836 -0.6289
 3719SOL    HW314643   2.513   3.728   1.511 -0.0564  0.1360  0.5618
 3719SOL    MW414644   2.538   3.791   1.456 -0.3411 -0.2127  0.0229
 3720SOL     OW14645   0.411   1.480   0.107  0.1457 -0.6336 -0.1236
 3720SOL    HW214646   0.354   1.551   0.137  1.4676  0.4833 -0.1641
 3720SOL    HW314647   0.431   1.503   0.016 -1.1077 -2.2142 -0.8479
 3720SOL    MW414648   0.406   1.493   0.099  0.1548 -0.6948 -0.2245
 3721SOL     OW14649   4.413   5.642   3.181 -0.3443  0.1138 -0.2902
 3721SOL    HW214650   4.476   5.673   3.115  0.6411  0.9223  0.9961
 3721SOL    HW314651   4.336   5.697   3.168 -0.2946  0.0370 -0.9759
 3721SOL    MW414652   4.411   5.653   3.170 -0.2077  0.2103 -0.2109
 3722SOL     OW14653   5.820   0.235   5.931  0.8873 -0.2708  0.1622
 3722SOL    HW214654   5.827   0.144   5.902  0.2249  0.1209 -1.3340
 3722SOL    HW314655   5.756   0.233   6.001 -0.6312 -0.7130 -1.1876
 3722SOL    MW414656   5.813   0.222   5.936  0.5995 -0.2775 -0.2133
 3723SOL     OW14657   1.006   2.545   6.141 -0.8196 -0.4672  0.3317
 3723SOL    HW214658   1.057   2.465   6.152  0.6707  0.6600  2.1270
 3723SOL    HW314659   0.931   2.534   6.199  0.7904  0.4593  2.7588
 3723SOL    MW414660   1.003   2.533   6.150 -0.4106 -0.1962  0.8888
 3724SOL     OW14661   3.276   5.457   1.262 -0.0724 -0.2279  0.3119
 3724SOL    HW214662   3.276   5.552   1.270 -1.9545 -0.0806 -0.7886
 3724SOL    HW314663   3.320   5.439   1.179  1.5792 -0.4594  1.1894
 3724SOL    MW414664   3.282   5.467   1.252 -0.1028 -0.2390  0.2825
 3725SOL     OW14665   2.705   4.624   2.977 -0.3176 -0.1959 -0.5607
 3725SOL    HW214666   2.746   4.538   2.971 -1.3240 -0.7051 -0.3299
 3725SOL    HW314667   2.652   4.621   3.056 -0.1357  0.7434 -0.3834
 3725SOL    MW414668   2.703   4.613   2.986 -0.4264 -0.1392 -0.5069
 3726SOL     OW14669   3.939   4.316   3.755 -0.2797 -0.0595 -0.1380
 3726SOL    HW214670   3.933   4.223   3.731 -0.2375  0.0344 -0.5235
 3726SOL    HW314671   4.024   4.344   3.723 -0.5535  0.2700 -0.5969
 3726SOL    MW414672   3.949   4.307   3.747 -0.3102 -0.0037 -0.2494
 3727SOL     OW14673   0.034   0.541   0.625  0.5307 -0.1256 -0.1222
 3727SOL    HW214674   0.004   0.628   0.651 -0.2716 -1.0064  2.2333
 3727SOL    HW314675   0.127   0.540   0.647  0.8932  0.5791 -1.5364
 3727SOL    MW414676   0.042   0.552   0.632  0.4727 -0.1488  0.0020
 3728SOL     OW14677   1.120   4.863   1.450  0.3020  0.2511  0.4327
 3728SOL    HW214678   1.088   4.893   1.364 -1.8313  2.3861  1.8569
 3728SOL    HW314679   1.106   4.768   1.448 -0.6373  0.3724 -1.2191
 3728SOL    MW414680   1.114   4.854   1.438 -0.1034  0.5488  0.4027
 3729SOL     OW14681   3.155   1.183   4.368 -0.2541  0.0369  0.2819
 3729SOL    HW214682   3.218   1.240   4.412 -0.5957 -0.7635  1.8938
 3729SOL    HW314683   3.070   1.210   4.403 -0.5474 -0.5878  0.0663
 3729SOL    MW414684   3.152   1.195   4.378 -0.3379 -0.1511  0.4662
 3730SOL     OW14685   3.662   2.289   3.749  0.2750  0.5376  0.2865
 3730SOL    HW214686   3.689   2.311   3.838  1.0068  2.3563 -0.3259
 3730SOL    HW314687   3.743   2.284   3.699  0.0005 -1.9789 -0.0413
 3730SOL    MW414688   3.676   2.292   3.754  0.3354  0.4455  0.1624
 3731SOL     OW14689   5.474   1.261   1.237 -0.5339  0.3121  0.3601
 3731SOL    HW214690   5.511   1.315   1.168 -1.8917 -1.7444 -2.2155
 3731SOL    HW314691   5.547   1.241   1.295  1.1707  0.5489 -1.6022
 3731SOL    MW414692   5.488   1.265   1.235 -0.4881  0.0720 -0.2386
 3732SOL     OW14693   5.172   5.460   2.274  0.6624 -0.1897 -0.3106
 3732SOL    HW214694   5.121   5.470   2.193 -0.5784 -0.2316  0.4291
 3732SOL    HW314695   5.142   5.377   2.311  0.9027  0.0330  0.3997
 3732SOL    MW414696   5.161   5.451   2.268  0.5304 -0.1659 -0.1193
 3733SOL     OW14697   3.425   0.673   3.172 -0.0068 -0.5814  0.4298
 3733SOL    HW214698   3.474   0.729   3.111  1.4241 -0.4259  1.6793
 3733SOL    HW314699   3.465   0.689   3.257 -2.5871 -0.0593  1.6408
 3733SOL    MW414700   3.437   0.683   3.175 -0.1584 -0.4920  0.7544
 3734SOL     OW14701   6.059   0.144   4.120 -0.6561 -0.0999 -0.3808
 3734SOL    HW214702   5.981   0.143   4.176 -0.6323 -1.2019 -0.3341
 3734SOL    HW314703   6.115   0.076   4.157  0.0230  0.2035 -0.8399
 3734SOL    MW414704   6.056   0.135   4.133 -0.5633 -0.2052 -0.4353
 3735SOL     OW14705   0.041   3.043   2.959  0.6892  0.7953 -0.7722
 3735SOL    HW214706   0.064   3.135   2.977  2.0470  0.1215  1.4048
 3735SOL    HW314707   0.124   2.996   2.968 -0.5695 -1.1503  2.4871
 3735SOL    MW414708   0.055   3.049   2.963  0.7023  0.4497 -0.0550
 3736SOL     OW14709   1.155   0.810   6.040 -0.3168 -0.1627  0.2816
 3736SOL    HW214710   1.138   0.719   6.017 -0.6659 -0.2061  0.7062
 3736SOL    HW314711   1.184   0.851   5.958 -1.0146 -0.4434 -0.1053
 3736SOL    MW414712   1.157   0.804   6.027 -0.4550 -0.2055  0.2866
 3737SOL     OW14713   0.963   2.561   5.212 -0.2991 -0.3595  0.3564
 3737SOL    HW214714   0.980   2.573   5.305  3.4273 -1.0376 -0.0724
 3737SOL    HW314715   0.945   2.467   5.203  0.0508 -0.4275  0.3391
 3737SOL    MW414716   0.963   2.550   5.223  0.2388 -0.4579  0.2975
 3738SOL     OW14717   3.524   2.866   2.514  0.2319  0.0481  0.4675
 3738SOL    HW214718   3.463   2.795   2.535  1.6614 -1.5916 -0.6776
 3738SOL    HW314719   3.587   2.827   2.453  1.8495  1.9491  0.8193
 3738SOL    MW414720   3.524   2.852   2.509  0.6339  0.0826  0.3628
 3739SOL     OW14721   1.187   3.924   0.035  0.2731  0.3643  0.8446
 3739SOL    HW214722   1.278   3.949   0.017  0.9570 -1.6860  1.1634
 3739SOL    HW314723   1.160   3.873  -0.041 -0.0591 -0.3325  1.4099
 3739SOL    MW414724   1.196   3.920   0.023  0.3195  0.0018  0.9612
 3740SOL     OW14725   0.283   3.185   2.427 -0.0961 -0.4997 -0.0501
 3740SOL    HW214726   0.223   3.196   2.353 -1.2452  0.1589  0.9370
 3740SOL    HW314727   0.370   3.189   2.388 -0.6539 -2.3209 -1.6525
 3740SOL    MW414728   0.287   3.187   2.412 -0.3213 -0.6531 -0.1313
 3741SOL     OW14729   1.625   0.019   0.673  0.1750 -0.5499  0.4048
 3741SOL    HW214730   1.713  -0.017   0.672  0.2703 -0.4978 -2.8375
 3741SOL    HW314731   1.608   0.045   0.583 -3.1272 -0.4692  0.9066
 3741SOL    MW414732   1.634   0.017   0.661 -0.2481 -0.5323  0.0432
 3742SOL     OW14733   2.334   4.505   2.805 -0.0070  0.2547  0.3686
 3742SOL    HW214734   2.330   4.528   2.898 -2.4212 -1.2837  0.7330
 3742SOL    HW314735   2.243   4.490   2.780  0.7066 -0.7339 -1.9038
 3742SOL    MW414736   2.322   4.506   2.814 -0.2314 -0.0787  0.1168
 3743SOL     OW14737   3.078   3.593   5.803 -0.2408  0.0980 -0.2394
 3743SOL    HW214738   3.059   3.686   5.814 -0.7790 -0.1047  0.7393
 3743SOL    HW314739   3.123   3.586   5.719 -1.2079  1.0938 -0.8604
 3743SOL    MW414740   3.081   3.604   5.794 -0.4394  0.2027 -0.1922
 3744SOL     OW14741   5.547   1.611   5.413 -0.0091 -0.1812 -0.4450
 3744SOL    HW214742   5.499   1.530   5.401 -0.9562  0.5136 -1.5115
 3744SOL    HW314743   5.485   1.680   5.388  1.1797  0.8048 -0.7657
 3744SOL    MW414744   5.532   1.610   5.408  0.0228  0.0405 -0.6281
 3745SOL     OW14745   1.141   6.000   4.332 -0.3600 -0.1177  0.4977
 3745SOL    HW214746   1.090   6.081   4.338  0.5682  0.4530  0.7902
 3745SOL    HW314747   1.221   6.017   4.382 -0.7794 -1.7219  1.8124
 3745SOL    MW414748   1.145   6.013   4.339 -0.2929 -0.2541  0.7097
 3746SOL     OW14749   4.452   5.641   1.356  0.3544 -0.0704 -0.0519
 3746SOL    HW214750   4.390   5.588   1.407  1.9762 -1.3895  0.6516
 3746SOL    HW314751   4.475   5.713   1.415 -0.0743  0.1082 -0.0994
 3746SOL    MW414752   4.447   5.643   1.371  0.5118 -0.2209  0.0346
 3747SOL     OW14753   5.685   0.985   3.065  0.4394  0.1763 -0.3573
 3747SOL    HW214754   5.689   1.080   3.074  0.2398  0.0558  1.3349
 3747SOL    HW314755   5.596   0.961   3.094  0.5013 -0.5312 -0.7124
 3747SOL    MW414756   5.674   0.994   3.070  0.4212  0.0670 -0.1809
 3748SOL     OW14757   1.870   2.557   0.537  0.1827  0.0463 -0.4376
 3748SOL    HW214758   1.823   2.614   0.598 -0.6498  2.2215 -2.8847
 3748SOL    HW314759   1.805   2.536   0.469  1.7296  0.0841 -2.0084
 3748SOL    MW414760   1.855   2.562   0.536  0.2770  0.3383 -0.9677
 3749SOL     OW14761   5.196   6.043   4.526 -0.6143  0.3776 -0.1233
 3749SOL    HW214762   5.122   6.078   4.477 -0.1379  1.8184  0.1522
 3749SOL    HW314763   5.186   5.948   4.519 -1.8255  0.5484 -1.0687
 3749SOL    MW414764   5.184   6.035   4.519 -0.7113  0.5902 -0.2117
 3750SOL     OW14765   0.583   3.283   2.796 -0.2279 -0.1437  0.4331
 3750SOL    HW214766   0.670   3.244   2.786 -0.4378 -0.5459  0.1862
 3750SOL    HW314767   0.585   3.322   2.884  0.6881  1.0887 -0.1018
 3750SOL    MW414768   0.595   3.283   2.807 -0.1348 -0.0341  0.3300
 3751SOL     OW14769   1.814   2.347   5.131 -0.1240  0.4772 -0.0815
 3751SOL    HW214770   1.780   2.277   5.076 -0.0396  0.2286  0.1838
 3751SOL    HW314771   1.756   2.348   5.207  0.2181  0.3201  0.1808
 3751SOL    MW414772   1.802   2.338   5.134 -0.0678  0.4236 -0.0118
 3752SOL     OW14773   5.070   0.007   2.069 -0.1154 -0.0238  0.2281
 3752SOL    HW214774   5.060   0.063   1.992 -0.4441 -1.4338 -0.7978
 3752SOL    HW314775   5.164  -0.014   2.071 -0.3084 -1.0387 -0.5873
 3752SOL    MW414776   5.081   0.012   2.059 -0.1843 -0.3438 -0.0148
 3753SOL     OW14777   2.338   1.298   4.736 -0.3479  0.1916  0.2353
 3753SOL    HW214778   2.383   1.362   4.681  0.1458 -0.1146  0.2780
 3753SOL    HW314779   2.367   1.318   4.825 -0.2801 -0.0151  0.2609
 3753SOL    MW414780   2.348   1.309   4.740 -0.2738  0.1240  0.2443
 3754SOL     OW14781   0.400   2.474   0.943 -0.1520  0.0289 -0.2311
 3754SOL    HW214782   0.439   2.523   1.015  1.6923 -0.3938 -0.8918
 3754SOL    HW314783   0.378   2.389   0.982  1.0859 -0.2960 -0.1850
 3754SOL    MW414784   0.402   2.469   0.958  0.2547 -0.0697 -0.3122
 3755SOL     OW14785   6.344   0.674   6.006  0.4203  0.5309  0.0841
 3755SOL    HW214786   6.250   0.677   6.025  0.8510  1.5329  2.4257
 3755SOL    HW314787   6.368   0.582   6.017  0.3258  0.7996  3.2406
 3755SOL    MW414788   6.334   0.662   6.010  0.4646  0.6985  0.8095
 3756SOL     OW14789   5.453   3.469   4.524  0.1647  0.2303  0.3024
 3756SOL    HW214790   5.375   3.523   4.534 -0.7678 -0.7483 -1.2748
 3756SOL    HW314791   5.508   3.518   4.463  0.1689  0.2933  0.3573
 3756SOL    MW414792   5.450   3.482   4.517  0.0422  0.1095  0.1015
 3757SOL     OW14793   3.400   2.036   0.449  0.4557 -0.1474 -0.5114
 3757SOL    HW214794   3.319   2.063   0.492  1.2599  1.0665  0.3023
 3757SOL    HW314795   3.382   1.947   0.419 -1.4208  0.3533 -1.0129
 3757SOL    MW414796   3.387   2.028   0.451  0.3142  0.0788 -0.4702
 3758SOL     OW14797   5.208   3.676   3.698  0.5419  0.1795 -0.5059
 3758SOL    HW214798   5.207   3.608   3.766 -0.7595 -1.3410 -1.9721
 3758SOL    HW314799   5.144   3.647   3.634  0.9962  2.0929 -1.9110
 3758SOL    MW414800   5.200   3.663   3.699  0.4301  0.2313 -0.8847
 3759SOL     OW14801   2.871   2.115   5.959 -0.3075  0.8753 -0.9206
 3759SOL    HW214802   2.914   2.191   5.996 -0.1153  0.2384  0.1922
 3759SOL    HW314803   2.942   2.061   5.924  0.0900 -0.9721  2.3656
 3759SOL    MW414804   2.886   2.118   5.959 -0.2297  0.5475 -0.3402
 3760SOL     OW14805   1.044   6.198   5.241  0.1243 -0.2400 -0.2828
 3760SOL    HW214806   1.037   6.284   5.282  0.1824  0.5639 -1.8858
 3760SOL    HW314807   1.063   6.216   5.149  0.2638 -1.9754 -0.6412
 3760SOL    MW414808   1.046   6.211   5.235  0.1503 -0.3629 -0.5416
 3761SOL     OW14809   6.055   4.358   0.733 -0.0943  0.4737  0.0840
 3761SOL    HW214810   6.058   4.290   0.800 -0.8796  1.5477  1.2440
 3761SOL    HW314811   6.147   4.379   0.717  0.1030  0.1311  0.7409
 3761SOL    MW414812   6.068   4.352   0.740 -0.1719  0.5702  0.3237
 3762SOL     OW14813   5.504   1.333   2.161 -0.4943  0.0022  0.1700
 3762SOL    HW214814   5.552   1.372   2.234  0.2194  1.5451 -1.0398
 3762SOL    HW314815   5.572   1.311   2.097 -1.2439  0.6677 -0.8884
 3762SOL    MW414816   5.519   1.335   2.162 -0.4991  0.2936 -0.1293
 3763SOL     OW14817   3.127   2.091   3.587 -0.2143 -0.2871 -0.1390
 3763SOL    HW214818   3.148   2.007   3.545  1.4897  1.5189 -3.3284
 3763SOL    HW314819   3.212   2.126   3.614 -0.7511  0.9281  0.0173
 3763SOL    MW414820   3.141   2.084   3.585 -0.0603  0.1115 -0.5392
 3764SOL     OW14821   0.309   3.624   2.093  0.4163 -0.2770 -0.6269
 3764SOL    HW214822   0.255   3.629   2.172 -0.1174 -0.8587 -0.9398
 3764SOL    HW314823   0.399   3.624   2.125  0.2098 -0.2120 -0.0378
 3764SOL    MW414824   0.313   3.624   2.107  0.3186 -0.3452 -0.5904
 3765SOL     OW14825   2.937   3.771   0.111  0.3112 -0.3645  0.0950
 3765SOL    HW214826   2.885   3.796   0.188  0.2108 -0.1611 -0.0361
 3765SOL    HW314827   2.993   3.700   0.142  0.4669 -0.1022  0.4308
 3765SOL    MW414828   2.937   3.765   0.125  0.3185 -0.3031  0.1220
 3766SOL     OW14829   0.913   4.291   5.753 -0.3951  0.0078 -0.1133
 3766SOL    HW214830   0.945   4.323   5.838  0.0712 -1.3037  0.2294
 3766SOL    HW314831   0.933   4.198   5.754 -2.1888 -0.4292 -0.8470
 3766SOL    MW414832   0.920   4.283   5.764 -0.5703 -0.2229 -0.1649
 3767SOL     OW14833   0.840   4.739   5.874 -0.4739 -0.1312 -0.4215
 3767SOL    HW214834   0.816   4.694   5.793 -1.4401  0.0212 -0.2302
 3767SOL    HW314835   0.791   4.694   5.943 -1.0024  0.8257 -0.1523
 3767SOL    MW414836   0.830   4.727   5.873 -0.6711  0.0152 -0.3608
 3768SOL     OW14837   0.991   1.434   5.252  0.2783 -0.8102 -0.0925
 3768SOL    HW214838   1.035   1.435   5.337 -1.9831 -1.1945  1.1556
 3768SOL    HW314839   0.898   1.431   5.273 -0.3571 -0.9271 -2.6045
 3768SOL    MW414840   0.985   1.434   5.266 -0.1039 -0.8763 -0.2592
 3769SOL     OW14841   3.601   1.412   1.890  0.4765  0.4459  0.5718
 3769SOL    HW214842   3.628   1.340   1.946  0.6638 -0.6560 -0.8596
 3769SOL    HW314843   3.508   1.398   1.875  0.8548 -0.6387 -1.1723
 3769SOL    MW414844   3.592   1.401   1.895  0.5511  0.1574  0.1528
 3770SOL     OW14845   1.591   4.387   1.967  0.0743 -0.0481  0.5971
 3770SOL    HW214846   1.593   4.452   2.036  0.6504  0.3636  0.2049
 3770SOL    HW314847   1.649   4.317   1.998  1.1415  0.5966  0.1017
 3770SOL    MW414848   1.599   4.386   1.980  0.2911  0.0913  0.4800
 3771SOL     OW14849   2.354   2.157   6.391  0.3112  0.2950 -0.0707
 3771SOL    HW214850   2.437   2.198   6.365  0.5130 -0.0877 -0.0375
 3771SOL    HW314851   2.306   2.226   6.435  0.9225  0.3248  0.5706
 3771SOL    MW414852   2.359   2.171   6.394  0.4185  0.2484  0.0183
 3772SOL     OW14853   0.562   6.310   4.305  0.1580 -0.4401  0.0283
 3772SOL    HW214854   0.540   6.403   4.310  0.3074 -0.4194  0.3292
 3772SOL    HW314855   0.511   6.270   4.376 -0.6690 -0.7391 -0.7229
 3772SOL    MW414856   0.553   6.317   4.315  0.0686 -0.4768 -0.0311
 3773SOL     OW14857   4.233   0.842   0.068  0.1896 -0.2090  0.2267
 3773SOL    HW214858   4.228   0.827   0.163  1.0995 -0.0199  0.3161
 3773SOL    HW314859   4.236   0.754   0.030 -0.3978 -0.2881  0.3536
 3773SOL    MW414860   4.233   0.828   0.076  0.2321 -0.1945  0.2552
 3774SOL     OW14861   4.032   4.762   2.724 -0.3522  0.3773  0.3024
 3774SOL    HW214862   4.077   4.801   2.799 -1.0206  0.8502  0.4739
 3774SOL    HW314863   4.031   4.831   2.658 -0.2453  0.1460  0.0575
 3774SOL    MW414864   4.038   4.776   2.725 -0.4263  0.4092  0.2927
 3775SOL     OW14865   4.767   3.721   4.454 -0.1966  0.2235  0.4014
 3775SOL    HW214866   4.808   3.775   4.522 -2.0235  1.4326  0.6147
 3775SOL    HW314867   4.749   3.638   4.497  0.9278  0.0812  0.6344
 3775SOL    MW414868   4.770   3.717   4.469 -0.2893  0.3642  0.4603
 3776SOL     OW14869   1.633   2.494   1.580  0.0695 -0.3040 -0.0510
 3776SOL    HW214870   1.614   2.424   1.643  0.4577  0.4990  0.9967
 3776SOL    HW314871   1.562   2.489   1.517 -1.6820  0.3234  1.7494
 3776SOL    MW414872   1.621   2.484   1.580 -0.1103 -0.1153  0.3247
 3777SOL     OW14873   0.110   3.960   3.413 -0.6215 -0.4527 -0.2690
 3777SOL    HW214874   0.039   3.898   3.393 -0.2888 -0.9606  0.0871
 3777SOL    HW314875   0.099   4.031   3.350 -1.2304 -0.7011 -0.4499
 3777SOL    MW414876   0.099   3.961   3.402 -0.6579 -0.5525 -0.2459
 3778SOL     OW14877   3.529   0.976   2.194 -0.0212 -0.0555 -0.0527
 3778SOL    HW214878   3.447   0.926   2.185 -1.2785  1.4356  2.1687
 3778SOL    HW314879   3.570   0.940   2.273  0.4522  0.5618 -0.0121
 3778SOL    MW414880   3.523   0.964   2.204 -0.1246  0.2226  0.2457
 3779SOL     OW14881   6.190   6.160   3.420  0.2572 -0.3761 -0.4684
 3779SOL    HW214882   6.170   6.156   3.514  0.0340 -0.4143 -0.5165
 3779SOL    HW314883   6.266   6.103   3.410 -0.0939 -0.8629 -0.4071
 3779SOL    MW414884   6.198   6.152   3.431  0.1814 -0.4454 -0.4667
 3780SOL     OW14885   4.576   3.610   0.200  0.3958 -0.2238 -0.2413
 3780SOL    HW214886   4.541   3.655   0.123 -0.8135  1.4530  1.2026
 3780SOL    HW314887   4.547   3.664   0.274 -1.9312 -3.7676  1.7207
 3780SOL    MW414888   4.567   3.623   0.199 -0.0708 -0.4702  0.2081
 3781SOL     OW14889   3.255   0.610   3.597  0.0147  0.2831 -0.1099
 3781SOL    HW214890   3.192   0.616   3.669  0.0853  0.0932 -0.0321
 3781SOL    HW314891   3.255   0.697   3.558 -0.8804  0.0681 -0.6021
 3781SOL    MW414892   3.247   0.622   3.602 -0.0941  0.2297 -0.1646
 3782SOL     OW14893   5.175   0.520   3.575  0.0417 -0.4107  0.0103
 3782SOL    HW214894   5.220   0.435   3.584 -0.8260 -0.8805  0.0273
 3782SOL    HW314895   5.124   0.511   3.495 -0.1298  0.0752  0.0634
 3782SOL    MW414896   5.175   0.507   3.566 -0.0954 -0.4086  0.0196
 3783SOL     OW14897   5.882   3.864   3.388  0.0125  0.5527  0.5085
 3783SOL    HW214898   5.790   3.836   3.382  0.2235  0.1613 -2.0915
 3783SOL    HW314899   5.884   3.949   3.344  0.6626  1.2719  1.8901
 3783SOL    MW414900   5.870   3.871   3.381  0.1261  0.5959  0.3477
 3784SOL     OW14901   0.656   1.508   4.907  0.0107  0.9845  0.3164
 3784SOL    HW214902   0.648   1.581   4.968 -0.7065  1.5052 -0.3662
 3784SOL    HW314903   0.695   1.437   4.958 -0.2758  1.5022  1.2770
 3784SOL    MW414904   0.660   1.508   4.921 -0.1217  1.1215  0.3530
 3785SOL     OW14905   4.512   1.103   2.285  0.3338  0.0790  0.1276
 3785SOL    HW214906   4.468   1.181   2.319  0.9276 -0.3429  1.9992
 3785SOL    HW314907   4.448   1.063   2.226 -1.1072  0.4395  1.3908
 3785SOL    MW414908   4.498   1.108   2.282  0.2220  0.0709  0.5412
 3786SOL     OW14909   0.156   2.052   5.067 -0.3045 -0.0193 -0.0918
 3786SOL    HW214910   0.219   2.123   5.055 -0.3560  0.2580  1.1015
 3786SOL    HW314911   0.102   2.080   5.141 -1.6484 -0.3857 -0.8980
 3786SOL    MW414912   0.157   2.065   5.075 -0.4886 -0.0311 -0.0407
 3787SOL     OW14913   3.488   6.231   6.200 -0.5015 -0.0403 -0.4179
 3787SOL    HW214914   3.575   6.233   6.159  0.8594 -0.4946  2.2780
 3787SOL    HW314915   3.505   6.218   6.293 -3.5248 -0.9749  0.1051
 3787SOL    MW414916   3.502   6.230   6.207 -0.7208 -0.2236  0.0068
 3788SOL     OW14917   0.804   5.269   5.123 -0.1814 -0.1543  0.0332
 3788SOL    HW214918   0.832   5.180   5.103  0.2641 -0.1385  0.5644
 3788SOL    HW314919   0.748   5.260   5.200 -0.3677 -0.0029 -0.0818
 3788SOL    MW414920   0.800   5.256   5.131 -0.1472 -0.1322  0.0881
 3789SOL     OW14921   2.493   5.993   0.096 -0.0031  0.1299 -0.5420
 3789SOL    HW214922   2.486   6.017   0.188  1.3267 -0.6032 -0.2411
 3789SOL    HW314923   2.558   6.054   0.060  2.0444 -1.7266 -0.1811
 3789SOL    MW414924   2.500   6.004   0.103  0.4425 -0.2118 -0.4547
 3790SOL     OW14925   2.987   2.667   5.240 -0.0475 -0.3071 -0.7449
 3790SOL    HW214926   3.067   2.620   5.214  0.0276 -0.7119  0.1731
 3790SOL    HW314927   2.974   2.643   5.331  0.0614  1.5744 -0.1864
 3790SOL    MW414928   2.996   2.658   5.248 -0.0232 -0.1122 -0.5501
 3791SOL     OW14929   5.016   1.060   2.146  0.9565  0.0954 -0.0488
 3791SOL    HW214930   4.992   1.068   2.053  0.7718 -0.4538 -0.0525
 3791SOL    HW314931   4.933   1.063   2.193  1.1069  1.2685  0.1779
 3791SOL    MW414932   5.002   1.061   2.140  0.9519  0.1777 -0.0194
 3792SOL     OW14933   4.402   3.227   4.462  0.0351  0.0931 -0.6213
 3792SOL    HW214934   4.375   3.312   4.495  2.2583  0.5266  0.2282
 3792SOL    HW314935   4.473   3.246   4.401 -1.9425 -0.9322 -3.4685
 3792SOL    MW414936   4.408   3.241   4.459  0.0675  0.0150 -0.8849
 3793SOL     OW14937   1.203   2.038   6.137 -0.2001  0.3116 -0.0103
 3793SOL    HW214938   1.190   1.980   6.212 -1.0793 -0.3697 -0.6688
 3793SOL    HW314939   1.132   2.102   6.143 -0.6456 -0.1194 -0.5936
 3793SOL    MW414940   1.192   2.039   6.148 -0.3749  0.1648 -0.1742
 3794SOL     OW14941   4.320   1.587   4.498 -0.1396 -0.1656 -0.4293
 3794SOL    HW214942   4.329   1.679   4.524 -1.7123  0.5509 -2.1564
 3794SOL    HW314943   4.361   1.582   4.411  0.8090 -1.3530  0.0548
 3794SOL    MW414944   4.327   1.598   4.490 -0.2220 -0.2277 -0.5933
 3795SOL     OW14945   4.259   4.865   0.997  0.0592 -0.0998  0.1440
 3795SOL    HW214946   4.271   4.778   0.960 -0.3957 -1.0861  2.1680
 3795SOL    HW314947   4.164   4.876   1.004  0.1265  0.0563  0.9439
 3795SOL    MW414948   4.248   4.855   0.993  0.0081 -0.2093  0.5166
 3796SOL     OW14949   4.327   0.981   2.715  0.7779  0.7446 -0.1851
 3796SOL    HW214950   4.279   0.915   2.765 -1.0882  1.8235 -0.4641
 3796SOL    HW314951   4.347   0.939   2.632  1.2950 -0.0647  0.3309
 3796SOL    MW414952   4.324   0.967   2.711  0.5999  0.7801 -0.1539
 3797SOL     OW14953   3.893   1.093   5.944 -0.3456  0.0633  0.1614
 3797SOL    HW214954   3.956   1.163   5.957 -0.2732  0.2381 -1.0220
 3797SOL    HW314955   3.809   1.130   5.970 -0.3851  0.7655 -0.9179
 3797SOL    MW414956   3.890   1.107   5.949 -0.3412  0.1790 -0.1371
 3798SOL     OW14957   6.234   3.018   3.863  0.4553  0.4512  0.5560
 3798SOL    HW214958   6.139   3.015   3.854  0.5380 -0.6210 -0.0903
 3798SOL    HW314959   6.251   2.997   3.955  0.0876  0.2441  0.5767
 3798SOL    MW414960   6.224   3.015   3.874  0.4177  0.2824  0.4735
 3799SOL     OW14961   1.927   4.661   6.320  0.9314 -0.8473 -0.4050
 3799SOL    HW214962   1.895   4.735   6.269 -2.0563  0.2077  2.6304
 3799SOL    HW314963   1.989   4.699   6.382  3.0695 -1.8111 -1.8048
 3799SOL    MW414964   1.931   4.676   6.321  0.8193 -0.8352 -0.1892
 3800SOL     OW14965   1.286   5.884   1.012  0.3612 -0.2207  0.0753
 3800SOL    HW214966   1.251   5.856   0.927  0.7817 -1.1580  0.1998
 3800SOL    HW314967   1.255   5.818   1.073 -0.5832  0.8634  0.8075
 3800SOL    MW414968   1.277   5.871   1.009  0.2921 -0.2013  0.1883
 3801SOL     OW14969   3.849   0.120   0.544  0.2379 -0.0019  0.2532
 3801SOL    HW214970   3.835   0.114   0.639 -0.3915  1.1567  0.2475
 3801SOL    HW314971   3.825   0.210   0.522 -0.3696 -0.4763 -1.1323
 3801SOL    MW414972   3.844   0.131   0.554  0.0747  0.0884  0.0696
 3802SOL     OW14973   1.112   0.984   5.152  0.4179 -0.4177 -0.0035
 3802SOL    HW214974   1.080   1.071   5.129 -1.7633 -1.2969 -0.5846
 3802SOL    HW314975   1.149   0.950   5.070  1.8149  0.1625  0.3729
 3802SOL    MW414976   1.112   0.991   5.138  0.3145 -0.4571 -0.0305
 3803SOL     OW14977   4.123   2.012   3.789  0.4576 -0.5414  0.6822
 3803SOL    HW214978   4.165   2.085   3.835  0.0595 -0.5633  1.0838
 3803SOL    HW314979   4.178   1.997   3.713 -1.6440  3.0132 -1.8595
 3803SOL    MW414980   4.136   2.020   3.785  0.1278 -0.0753  0.3999
 3804SOL     OW14981   3.386   0.052   1.141 -0.2008  0.2785  0.3659
 3804SOL    HW214982   3.456   0.001   1.099 -0.6930  0.1341 -0.2944
 3804SOL    HW314983   3.423   0.139   1.152  0.1089  0.1872  0.0809
 3804SOL    MW414984   3.400   0.056   1.137 -0.2249  0.2474  0.2412
 3805SOL     OW14985   5.655   5.517   4.792  0.3525 -0.4282  0.6528
 3805SOL    HW214986   5.698   5.464   4.725  1.1179  0.8557  0.0825
 3805SOL    HW314987   5.695   5.603   4.784 -2.8460  1.1215 -0.4701
 3805SOL    MW414988   5.666   5.521   4.782  0.0315 -0.0544  0.4294
 3806SOL     OW14989   1.573   2.568   4.147 -0.3903  0.1333  0.2351
 3806SOL    HW214990   1.663   2.550   4.172 -0.2477 -0.7574 -0.8586
 3806SOL    HW314991   1.551   2.650   4.193  0.9324  0.3143  0.5738
 3806SOL    MW414992   1.582   2.577   4.157 -0.1970  0.0396  0.1355
 3807SOL     OW14993   4.493   0.708   5.227 -0.2131  0.3522  0.6182
 3807SOL    HW214994   4.541   0.702   5.144 -0.2266 -2.2232  0.6937
 3807SOL    HW314995   4.402   0.725   5.200 -0.7221 -2.9067 -0.2347
 3807SOL    MW414996   4.487   0.709   5.212 -0.2820 -0.4176  0.5156
 3808SOL     OW14997   2.292   0.453   4.287 -0.3886 -0.3903 -0.3606
 3808SOL    HW214998   2.273   0.362   4.264 -0.6552 -0.2684 -0.6238
 3808SOL    HW314999   2.228   0.474   4.355  0.6434 -0.8728  0.8136
 3808SOL    MW415000   2.281   0.444   4.293 -0.2877 -0.4379 -0.2404
 3809SOL     OW15001   3.319   3.748   5.363  0.2501  0.1899 -0.0800
 3809SOL    HW215002   3.301   3.661   5.399 -0.9658  0.6907  0.5788
 3809SOL    HW315003   3.352   3.798   5.437 -0.8154  0.8023 -0.0109
 3809SOL    MW415004   3.321   3.743   5.377 -0.0509  0.3368  0.0160
 3810SOL     OW15005   1.488   0.793   5.641 -0.5674 -0.5763  0.1735
 3810SOL    HW215006   1.552   0.863   5.652 -1.4972  0.9337 -2.8442
 3810SOL    HW315007   1.513   0.727   5.705  3.2066  0.4571  0.0007
 3810SOL    MW415008   1.500   0.794   5.651 -0.1922 -0.2407 -0.2474
 3811SOL     OW15009   2.161   1.597   0.047  0.0019  0.2970  0.1104
 3811SOL    HW215010   2.093   1.576   0.111  0.8130 -1.8945  0.3272
 3811SOL    HW315011   2.195   1.683   0.075 -1.8604  0.9126  0.6509
 3811SOL    MW415012   2.156   1.606   0.059 -0.1368  0.0891  0.2103
 3812SOL     OW15013   4.597   3.621   2.817  0.1577 -0.3742 -0.3687
 3812SOL    HW215014   4.518   3.594   2.771  0.0768  0.6193 -0.8426
 3812SOL    HW315015   4.626   3.700   2.771 -1.1314  1.9786  2.5135
 3812SOL    MW415016   4.590   3.628   2.805 -0.0230  0.0673 -0.0509
 3813SOL     OW15017   5.585   3.753   1.356  0.2370 -0.5658  0.7359
 3813SOL    HW215018   5.672   3.788   1.374  0.7627 -1.7180  0.5129
 3813SOL    HW315019   5.600   3.662   1.332 -1.0429 -0.8031  0.7654
 3813SOL    MW415020   5.598   3.746   1.355  0.1375 -0.7491  0.7104
 3814SOL     OW15021   0.753   1.800   4.072  0.0051 -0.3323  0.6308
 3814SOL    HW215022   0.750   1.706   4.093  1.9937 -0.4809  0.3754
 3814SOL    HW315023   0.829   1.833   4.119  0.5929  0.7120 -0.9741
 3814SOL    MW415024   0.762   1.792   4.081  0.3450 -0.2141  0.3853
 3815SOL     OW15025   4.835   5.429   2.219  0.4376 -0.3028 -0.0024
 3815SOL    HW215026   4.756   5.450   2.170  0.8767 -0.8427 -0.9486
 3815SOL    HW315027   4.822   5.340   2.252  0.7807 -0.5178 -0.4352
 3815SOL    MW415028   4.823   5.420   2.217  0.5408 -0.4024 -0.1843
 3816SOL     OW15029   6.156   4.460   3.523  0.3174 -0.8172  0.0144
 3816SOL    HW215030   6.066   4.491   3.532  0.5156  0.0834 -0.8712
 3816SOL    HW315031   6.180   4.481   3.433  1.6794 -0.2928  0.4585
 3816SOL    MW415032   6.147   4.467   3.513  0.5232 -0.6292 -0.0439
 3817SOL     OW15033   6.301   1.086   3.317 -0.1687 -0.0745 -0.9789
 3817SOL    HW215034   6.267   1.163   3.362  1.4532  0.1624 -0.0686
 3817SOL    HW315035   6.328   1.118   3.231 -0.3801  0.1567 -0.9605
 3817SOL    MW415036   6.300   1.100   3.312  0.0174 -0.0127 -0.8564
 3818SOL     OW15037   1.853   2.630   5.946 -0.5213 -0.4069 -0.0713
 3818SOL    HW215038   1.883   2.710   5.902 -0.0172 -0.6994 -0.2784
 3818SOL    HW315039   1.903   2.560   5.904 -1.5586 -0.9315 -0.4630
 3818SOL    MW415040   1.864   2.632   5.934 -0.5916 -0.5147 -0.1503
 3819SOL     OW15041   1.798   2.825   0.291  0.1871  0.2131 -0.2206
 3819SOL    HW215042   1.763   2.740   0.264  0.2222  0.6842 -1.8518
 3819SOL    HW315043   1.722   2.883   0.292  0.4680  0.6335 -1.2336
 3819SOL    MW415044   1.783   2.821   0.287  0.2288  0.3307 -0.5695
 3820SOL     OW15045   2.149   5.581   3.707 -0.4188  0.0657  0.4049
 3820SOL    HW215046   2.089   5.595   3.635  2.6228  2.1015 -2.0103
 3820SOL    HW315047   2.211   5.516   3.674 -0.1054 -0.4920  2.0071
 3820SOL    MW415048   2.150   5.574   3.693  0.0239  0.2607  0.2976
 3821SOL     OW15049   6.191   5.650   2.496  0.1871 -0.2212 -0.1621
 3821SOL    HW215050   6.095   5.653   2.501  0.1513  0.8378 -1.2481
 3821SOL    HW315051   6.219   5.741   2.507  0.9821 -0.3210 -1.1740
 3821SOL    MW415052   6.182   5.662   2.498  0.2873 -0.0947 -0.4389
 3822SOL     OW15053   4.828   2.841   0.377 -0.2661 -0.8498 -0.1168
 3822SOL    HW215054   4.776   2.776   0.424  0.5984 -1.5000 -0.0234
 3822SOL    HW315055   4.869   2.893   0.446 -0.8042 -0.3314 -0.1894
 3822SOL    MW415056   4.827   2.839   0.393 -0.2230 -0.8672 -0.1141
 3823SOL     OW15057   0.043   0.221   5.352  0.1593 -0.6635  0.2623
 3823SOL    HW215058  -0.036   0.173   5.328  0.2591  0.0108 -1.5745
 3823SOL    HW315059   0.104   0.153   5.381 -0.6391 -1.3285  0.4328
 3823SOL    MW415060   0.040   0.205   5.352  0.0671 -0.6623  0.0424
 3824SOL     OW15061   3.355   2.818   0.055 -0.2031 -0.1211  0.5620
 3824SOL    HW215062   3.393   2.731   0.070 -0.6135 -0.0710  2.0235
 3824SOL    HW315063   3.418   2.862  -0.002  0.3156 -1.1615  0.3054
 3824SOL    MW415064   3.368   2.812   0.049 -0.1888 -0.2518  0.7210
 3825SOL     OW15065   2.204   4.212   2.196  0.3689 -0.3266  0.5055
 3825SOL    HW215066   2.259   4.290   2.197 -1.0211  0.7132  2.5597
 3825SOL    HW315067   2.123   4.240   2.152  0.7735 -1.3611 -0.9756
 3825SOL    MW415068   2.200   4.226   2.190  0.2389 -0.3259  0.5812
 3826SOL     OW15069   3.678   4.941   6.081  0.4737 -0.2154 -0.0071
 3826SOL    HW215070   3.728   4.895   6.149 -1.3338 -2.0879  0.1560
 3826SOL    HW315071   3.721   5.026   6.074  2.1482 -0.8114  1.8260
 3826SOL    MW415072   3.690   4.946   6.089  0.4561 -0.5411  0.2563
 3827SOL     OW15073   4.993   2.903   3.678 -0.5717 -0.2673 -0.0975
 3827SOL    HW215074   4.989   2.928   3.585  0.3948  0.7126  0.0984
 3827SOL    HW315075   4.998   2.808   3.677 -0.3745 -0.2600 -1.0626
 3827SOL    MW415076   4.993   2.894   3.666 -0.4182 -0.1371 -0.1989
 3828SOL     OW15077   0.939   4.407   6.041  0.1727  0.4166 -0.4126
 3828SOL    HW215078   0.845   4.423   6.048 -0.1181 -1.4528  0.6904
 3828SOL    HW315079   0.977   4.451   6.117  0.1784  1.0012 -0.7484
 3828SOL    MW415080   0.932   4.415   6.052  0.1351  0.2471 -0.3113
 3829SOL     OW15081   4.950   5.625   2.990  0.1655 -0.4809  0.0977
 3829SOL    HW215082   4.931   5.554   3.051  1.2496 -0.3140  0.6508
 3829SOL    HW315083   5.046   5.631   2.989  0.1260  0.2740 -0.7541
 3829SOL    MW415084   4.960   5.616   2.998  0.3033 -0.3593  0.0583
 3830SOL     OW15085   0.710   3.659   0.138 -0.3284  0.1222 -0.3109
 3830SOL    HW215086   0.764   3.627   0.065  0.4331  2.8078 -1.0237
 3830SOL    HW315087   0.627   3.683   0.097 -0.8900 -0.8517  0.2161
 3830SOL    MW415088   0.706   3.658   0.123 -0.3020  0.3481 -0.3354
 3831SOL     OW15089   1.835   5.352   4.303 -0.4949  0.2860 -0.3512
 3831SOL    HW215090   1.754   5.400   4.285 -0.5329  0.4168  0.1466
 3831SOL    HW315091   1.808   5.260   4.306 -0.5994  0.3161 -0.3518
 3831SOL    MW415092   1.821   5.346   4.301 -0.5137  0.3072 -0.2856
 3832SOL     OW15093   4.877   4.540   3.973  0.5819  0.0536 -0.5116
 3832SOL    HW215094   4.955   4.491   4.000  0.6700 -0.5229 -1.7463
 3832SOL    HW315095   4.908   4.595   3.901 -0.0419  0.2265 -0.6476
 3832SOL    MW415096   4.892   4.541   3.967  0.5112  0.0003 -0.6925
 3833SOL     OW15097   1.660   1.670   1.674  0.2234 -1.1645 -0.0691
 3833SOL    HW215098   1.701   1.584   1.665  1.9638 -0.6206  1.8514
 3833SOL    HW315099   1.726   1.723   1.718 -1.2389  0.8500 -0.1799
 3833SOL    MW415100   1.674   1.666   1.678  0.2601 -0.8270  0.1696
 3834SOL     OW15101   1.398   2.764   5.818  0.2194 -0.0245  0.6173
 3834SOL    HW215102   1.478   2.809   5.788 -0.8818  0.4370 -1.8395
 3834SOL    HW315103   1.327   2.808   5.771 -1.4738 -0.6723  2.4688
 3834SOL    MW415104   1.399   2.776   5.808 -0.1493 -0.0491  0.5374
 3835SOL     OW15105   2.567   2.101   5.358 -0.1418  0.2012  0.7381
 3835SOL    HW215106   2.533   2.187   5.384 -1.7203  0.1621 -0.9622
 3835SOL    HW315107   2.530   2.087   5.271  1.0565 -1.6988  0.4938
 3835SOL    MW415108   2.557   2.111   5.350 -0.1919 -0.0546  0.4816
 3836SOL     OW15109   4.038   3.163   4.753 -0.0533 -0.4457  0.5099
 3836SOL    HW215110   4.067   3.074   4.773  2.9871  0.3174 -0.0233
 3836SOL    HW315111   3.976   3.153   4.681 -1.9273 -2.2515  2.2020
 3836SOL    MW415112   4.034   3.150   4.746  0.1006 -0.5833  0.6628
 3837SOL     OW15113   4.905   5.761   0.657 -0.0967  0.0953 -0.5621
 3837SOL    HW215114   4.924   5.675   0.694 -0.6405 -0.0844 -0.6853
 3837SOL    HW315115   4.840   5.744   0.589 -1.2628  0.7473  0.3407
 3837SOL    MW415116   4.899   5.748   0.653 -0.3223  0.1576 -0.4593
 3838SOL     OW15117   6.322   3.383   6.284 -0.3163 -0.2379 -0.1383
 3838SOL    HW215118   6.259   3.391   6.356 -1.6790  0.1377 -1.3234
 3838SOL    HW315119   6.367   3.300   6.300 -0.6446 -0.1958  1.0920
 3838SOL    MW415120   6.320   3.373   6.296 -0.5394 -0.1828 -0.1323
 3839SOL     OW15121   4.960   3.122   0.246  0.5978  0.1974  0.1452
 3839SOL    HW215122   4.942   3.048   0.187 -0.6590  1.8693 -1.6739
 3839SOL    HW315123   4.983   3.080   0.329  2.8446 -2.2925 -1.5471
 3839SOL    MW415124   4.961   3.107   0.249  0.7284  0.0895 -0.3181
 3840SOL     OW15125   0.981   0.999   2.697 -0.3527 -0.4132  0.0228
 3840SOL    HW215126   0.942   0.919   2.732  0.9698 -1.1527 -0.1315
 3840SOL    HW315127   0.985   1.059   2.771 -0.9160 -0.6553  0.2523
 3840SOL    MW415128   0.976   0.996   2.711 -0.2525 -0.5427  0.0327
 3841SOL     OW15129   0.834   2.000   4.765  0.1798  0.3875  0.4642
 3841SOL    HW215130   0.831   1.945   4.687  1.3446  1.4849 -0.3916
 3841SOL    HW315131   0.919   1.981   4.805 -1.1142 -1.4850  2.5076
 3841SOL    MW415132   0.845   1.990   4.760  0.1627  0.2852  0.6209
 3842SOL     OW15133   3.291   1.567   6.256  0.2666 -0.4437  0.6676
 3842SOL    HW215134   3.242   1.494   6.294  0.5596 -0.0181  1.9171
 3842SOL    HW315135   3.286   1.636   6.322  0.5800  0.4251 -0.2016
 3842SOL    MW415136   3.284   1.566   6.270  0.3466 -0.2729  0.7177
 3843SOL     OW15137   0.823   5.058   1.566  1.0547 -0.0570 -0.3084
 3843SOL    HW215138   0.833   5.131   1.505  2.1371  1.4212  1.4952
 3843SOL    HW315139   0.733   5.067   1.599  0.1851 -1.3393 -2.1483
 3843SOL    MW415140   0.812   5.069   1.563  1.0828 -0.0312 -0.3132
 3844SOL     OW15141   2.479   4.381   5.677  0.2009 -0.3183 -0.4352
 3844SOL    HW215142   2.482   4.348   5.588 -1.2563 -0.5907 -0.4143
 3844SOL    HW315143   2.562   4.426   5.689 -0.6335  2.2356 -2.9409
 3844SOL    MW415144   2.490   4.383   5.667 -0.1014 -0.0173 -0.7631
 3845SOL     OW15145   2.444   0.111   2.019  0.3787  0.2851 -0.1057
 3845SOL    HW215146   2.446   0.199   2.057  1.2200 -0.1623  0.9406
 3845SOL    HW315147   2.423   0.053   2.092  1.9666 -0.5852 -0.2854
 3845SOL    MW415148   2.442   0.115   2.034  0.6992  0.1113  0.0087
 3846SOL     OW15149   1.409   5.568   5.245 -0.4276  0.2771 -0.2747
 3846SOL    HW215150   1.346   5.630   5.281 -0.3072 -0.6481  1.6654
 3846SOL    HW315151   1.416   5.499   5.311  0.3478 -1.1962 -1.8043
 3846SOL    MW415152   1.402   5.567   5.259 -0.3094 -0.0394 -0.2206
 3847SOL     OW15153   1.070   0.595   2.645 -0.0880  0.0463 -0.3287
 3847SOL    HW215154   1.068   0.515   2.593 -0.4106  0.1217 -0.4338
 3847SOL    HW315155   1.049   0.566   2.734  1.0141 -0.1680 -0.1168
 3847SOL    MW415156   1.067   0.580   2.650  0.0148  0.0280 -0.3146
 3848SOL     OW15157   3.106   1.709   5.849  0.1884  0.0381 -0.1890
 3848SOL    HW215158   3.093   1.699   5.943  0.0055 -2.0912 -0.3891
 3848SOL    HW315159   3.129   1.621   5.818 -1.1966  0.3385 -2.3379
 3848SOL    MW415160   3.107   1.696   5.857 -0.0185 -0.2032 -0.4989
 3849SOL     OW15161   6.319   2.594   1.493 -0.1428 -0.1426  0.2353
 3849SOL    HW215162   6.311   2.584   1.588  0.6025 -3.7551  0.0946
 3849SOL    HW315163   6.231   2.614   1.463 -0.3730  1.1387  1.6615
 3849SOL    MW415164   6.306   2.595   1.502 -0.0749 -0.4501  0.4049
 3850SOL     OW15165   1.119   2.473   0.527 -0.4435 -0.2137  0.1242
 3850SOL    HW215166   1.058   2.438   0.593 -0.8223 -0.0464 -0.1319
 3850SOL    HW315167   1.170   2.539   0.574 -0.1300 -0.6864  0.4603
 3850SOL    MW415168   1.118   2.477   0.542 -0.4522 -0.2540  0.1348
 3851SOL     OW15169   3.904   0.882   3.652  0.2191  0.1242 -0.2477
 3851SOL    HW215170   3.917   0.831   3.572 -1.3084 -2.5806  1.1026
 3851SOL    HW315171   3.831   0.941   3.631  0.4272  0.0968 -1.0873
 3851SOL    MW415172   3.896   0.883   3.638  0.0450 -0.2363 -0.1803
 3852SOL     OW15173   5.769   2.112   4.809  0.8479  0.3467 -0.1697
 3852SOL    HW215174   5.754   2.206   4.796  2.0507  0.3427 -2.0072
 3852SOL    HW315175   5.707   2.069   4.751  0.4670  0.0038  0.4848
 3852SOL    MW415176   5.759   2.119   4.799  0.9564  0.3009 -0.3258
 3853SOL     OW15177   4.684   3.860   3.780  0.3667 -0.3955 -0.3447
 3853SOL    HW215178   4.698   3.848   3.686  0.6319 -0.1430 -0.3380
 3853SOL    HW315179   4.665   3.772   3.812  0.9404 -0.5920 -0.5243
 3853SOL    MW415180   4.684   3.847   3.771  0.4774 -0.3881 -0.3675
 3854SOL     OW15181   4.294   0.165   4.988 -0.2628  0.8930 -0.2463
 3854SOL    HW215182   4.371   0.198   5.034 -0.3125 -0.0865  0.5949
 3854SOL    HW315183   4.227   0.156   5.057 -0.7604  0.6520 -0.7499
 3854SOL    MW415184   4.295   0.168   5.003 -0.3350  0.7319 -0.2018
 3855SOL     OW15185   4.469   1.890   0.833 -0.0471 -0.4068  0.0993
 3855SOL    HW215186   4.455   1.796   0.823  1.0303 -0.3705 -2.3437
 3855SOL    HW315187   4.420   1.930   0.762  0.3049  0.8072  0.5046
 3855SOL    MW415188   4.461   1.883   0.823  0.1415 -0.2419 -0.1695
 3856SOL     OW15189   0.110   3.910   2.370  0.6316  0.2859 -0.0547
 3856SOL    HW215190   0.060   3.991   2.380 -1.5554 -0.7767 -1.4853
 3856SOL    HW315191   0.162   3.902   2.450 -1.7798  1.3162  1.7049
 3856SOL    MW415192   0.111   3.919   2.382  0.0249  0.2816 -0.0113
 3857SOL     OW15193   6.186   4.222   5.258  0.0579 -0.1201  0.3514
 3857SOL    HW215194   6.095   4.245   5.277 -0.1171 -0.9695  0.5757
 3857SOL    HW315195   6.185   4.127   5.247  0.7530 -0.0374 -0.5622
 3857SOL    MW415196   6.174   4.213   5.259  0.1265 -0.2212  0.2605
 3858SOL     OW15197   2.934   3.536   1.328 -0.0507 -0.2729 -0.7371
 3858SOL    HW215198   3.022   3.562   1.301  0.6404  0.1791  1.7003
 3858SOL    HW315199   2.891   3.618   1.351 -0.5368 -0.6368 -0.3249
 3858SOL    MW415200   2.940   3.550   1.327 -0.0236 -0.2613 -0.3612
 3859SOL     OW15201   2.813   1.299   4.767  0.4734 -0.0110  0.2521
 3859SOL    HW215202   2.754   1.324   4.838 -0.6921  0.2840 -0.7818
 3859SOL    HW315203   2.762   1.313   4.688  2.3362  1.3494 -0.7777
 3859SOL    MW415204   2.798   1.304   4.766  0.5654  0.2074 -0.0201
 3860SOL     OW15205   6.339   5.022   3.075  0.3321  0.0360  0.0361
 3860SOL    HW215206   6.360   4.966   3.150  2.0515  1.1361  0.4233
 3860SOL    HW315207   6.332   5.110   3.113  0.2239  0.4673 -0.9547
 3860SOL    MW415208   6.341   5.026   3.090  0.5447  0.2380 -0.0436
 3861SOL     OW15209   3.598   4.469   0.182  0.4594  0.4017  0.5251
 3861SOL    HW215210   3.588   4.377   0.159 -0.6484  0.6171  0.0539
 3861SOL    HW315211   3.690   4.488   0.167  0.1277  0.1533 -2.5289
 3861SOL    MW415212   3.609   4.460   0.177  0.2695  0.3974  0.0600
 3862SOL     OW15213   4.385   5.884   4.596  0.4615 -0.5457  0.4127
 3862SOL    HW215214   4.447   5.811   4.603  0.9035 -0.1778  0.3632
 3862SOL    HW315215   4.306   5.844   4.559  1.4694 -0.5719 -1.9074
 3862SOL    MW415216   4.383   5.869   4.592  0.6528 -0.5006  0.1001
 3863SOL     OW15217   0.604   2.189   5.096  0.2426 -0.5390  0.1322
 3863SOL    HW215218   0.660   2.197   5.174  0.6490 -0.5298 -0.1578
 3863SOL    HW315219   0.626   2.103   5.059  0.1053 -0.5119 -0.0121
 3863SOL    MW415220   0.614   2.179   5.102  0.2781 -0.5342  0.0749
 3864SOL     OW15221   2.268   4.057   4.570 -0.1446  0.1814  0.2658
 3864SOL    HW215222   2.215   4.003   4.512  1.1189 -0.4924 -0.2943
 3864SOL    HW315223   2.301   3.997   4.637  0.5578  0.4161  0.1459
 3864SOL    MW415224   2.266   4.042   4.572  0.1148  0.1234  0.1761
 3865SOL     OW15225   4.555   4.719   5.549  0.0803 -0.1212  0.2806
 3865SOL    HW215226   4.463   4.694   5.547 -0.0930  0.4697  0.6736
 3865SOL    HW315227   4.590   4.678   5.628  0.0803 -0.0889  0.2972
 3865SOL    MW415228   4.547   4.711   5.559  0.0574 -0.0390  0.3346
 3866SOL     OW15229   3.586   0.800   1.483  0.5260 -0.7392  0.4921
 3866SOL    HW215230   3.501   0.838   1.463  0.3407 -1.5678 -0.3279
 3866SOL    HW315231   3.568   0.733   1.549  0.7621  0.0731  1.4188
 3866SOL    MW415232   3.573   0.796   1.489  0.5327 -0.7413  0.5062
 3867SOL     OW15233   5.696   4.097   1.391 -0.0796  0.2345 -0.4204
 3867SOL    HW215234   5.709   4.191   1.408  0.8287 -0.0415  0.4670
 3867SOL    HW315235   5.703   4.056   1.477  1.4426 -0.8496 -1.0324
 3867SOL    MW415236   5.698   4.104   1.404  0.2411  0.0550 -0.3840
 3868SOL     OW15237   2.742   3.387   0.559 -0.3645  0.3718  0.1034
 3868SOL    HW215238   2.812   3.321   0.556 -0.2835  0.4840 -2.0579
 3868SOL    HW315239   2.751   3.435   0.476 -0.7348  2.8014  1.3814
 3868SOL    MW415240   2.753   3.384   0.548 -0.4027  0.7071 -0.0131
 3869SOL     OW15241   1.286   5.115   1.262 -0.7715 -0.6492  0.6397
 3869SOL    HW215242   1.329   5.191   1.222  1.8454 -1.6548  1.3585
 3869SOL    HW315243   1.235   5.152   1.334 -0.2378  0.5106  0.4507
 3869SOL    MW415244   1.285   5.130   1.266 -0.3558 -0.6288  0.7096
 3870SOL     OW15245   0.482   4.531   3.036  0.0666  0.3146 -0.1107
 3870SOL    HW215246   0.400   4.553   3.080  0.3331  2.1333 -0.4604
 3870SOL    HW315247   0.464   4.543   2.942  0.8237  1.1237 -0.1682
 3870SOL    MW415248   0.469   4.536   3.029  0.2017  0.6613 -0.1644
 3871SOL     OW15249   6.386   0.394   5.040  0.2430  0.3426  0.4591
 3871SOL    HW215250   6.450   0.394   4.968  0.6494  1.2740  0.8005
 3871SOL    HW315251   6.318   0.333   5.012 -0.1734  1.5090 -1.2649
 3871SOL    MW415252   6.385   0.386   5.027  0.2417  0.6194  0.2767
 3872SOL     OW15253   4.438   5.400   2.281 -0.2262  0.0572 -0.0608
 3872SOL    HW215254   4.452   5.360   2.366 -1.9057  0.8438  0.6252
 3872SOL    HW315255   4.347   5.383   2.260  0.5410 -1.5702 -2.5253
 3872SOL    MW415256   4.428   5.393   2.289 -0.3465 -0.0537 -0.2954
 3873SOL     OW15257   5.204   4.528   5.962  0.1312 -0.1018 -0.0456
 3873SOL    HW215258   5.147   4.495   6.032 -0.3511 -1.6445 -1.1095
 3873SOL    HW315259   5.145   4.575   5.903 -0.0539 -1.4261 -0.9789
 3873SOL    MW415260   5.189   4.529   5.963  0.0431 -0.4801 -0.3091
 3874SOL     OW15261   0.952   3.663   0.490 -0.4517 -0.0703 -0.0445
 3874SOL    HW215262   1.023   3.604   0.517  0.4660  0.3613 -1.3662
 3874SOL    HW315263   0.977   3.748   0.525  1.1718  0.6743 -2.6736
 3874SOL    MW415264   0.965   3.667   0.498 -0.1164  0.0849 -0.5657
 3875SOL     OW15265   5.782   6.413   5.795 -0.3689 -0.9000 -0.1131
 3875SOL    HW215266   5.691   6.384   5.797 -2.0320  3.4154 -1.6076
 3875SOL    HW315267   5.806   6.412   5.702  0.8088 -1.0489  0.1670
 3875SOL    MW415268   5.773   6.409   5.783 -0.4330 -0.3503 -0.2733
 3876SOL     OW15269   3.454   4.584   1.614 -0.3283 -0.0329  0.5001
 3876SOL    HW215270   3.406   4.534   1.680  0.7601  0.5180  1.7612
 3876SOL    HW315271   3.519   4.634   1.665  1.2509 -0.3766 -1.0864
 3876SOL    MW415272   3.456   4.584   1.630  0.0236 -0.0055  0.4572
 3877SOL     OW15273   2.714   5.441   0.016 -0.0555  0.0766  0.2812
 3877SOL    HW215274   2.621   5.461   0.012 -0.2235 -0.5919  0.6886
 3877SOL    HW315275   2.724   5.361  -0.036  0.1774 -0.2193  0.7713
 3877SOL    MW415276   2.703   5.433   0.009 -0.0469 -0.0507  0.3996
 3878SOL     OW15277   4.502   6.076   4.421  0.3705  0.3642  0.1208
 3878SOL    HW215278   4.459   6.029   4.492 -3.3730  1.5088 -1.1507
 3878SOL    HW315279   4.441   6.068   4.347  1.5006  3.6800 -1.3405
 3878SOL    MW415280   4.488   6.069   4.420  0.0257  0.9527 -0.2398
 3879SOL     OW15281   4.071   4.529   6.312 -0.2123 -0.2187  0.0569
 3879SOL    HW215282   4.083   4.620   6.285 -0.1559  0.0549  0.9727
 3879SOL    HW315283   4.009   4.534   6.385  0.7342 -0.7822  0.9209
 3879SOL    MW415284   4.064   4.542   6.318 -0.0800 -0.2569  0.2918
 3880SOL     OW15285   2.419   5.225   4.974 -0.0967 -0.3488  0.0466
 3880SOL    HW215286   2.351   5.271   5.023 -1.6334 -1.4240 -0.9977
 3880SOL    HW315287   2.470   5.179   5.041 -1.0461 -0.3606  0.7712
 3880SOL    MW415288   2.417   5.225   4.989 -0.4247 -0.4922  0.0044
 3881SOL     OW15289   5.273   2.421   5.045 -0.3671 -0.7914  0.0672
 3881SOL    HW215290   5.356   2.463   5.068 -0.8917  0.5320 -0.3019
 3881SOL    HW315291   5.227   2.412   5.128 -0.3608 -0.3427  0.1249
 3881SOL    MW415292   5.278   2.426   5.059 -0.4355 -0.5576  0.0261
 3882SOL     OW15293   6.402   1.895   5.538  0.0447 -0.3343 -0.0316
 3882SOL    HW215294   6.308   1.878   5.529 -0.1122 -0.9434  2.2427
 3882SOL    HW315295   6.442   1.841   5.470 -0.9347 -4.7681  2.4649
 3882SOL    MW415296   6.395   1.886   5.528 -0.1052 -0.9997  0.5979
 3883SOL     OW15297   3.848   0.366   5.543  0.3793 -0.3196 -0.2713
 3883SOL    HW215298   3.933   0.351   5.583  0.2643 -1.9714 -0.5805
 3883SOL    HW315299   3.867   0.410   5.460  1.0297 -1.5753 -0.8069
 3883SOL    MW415300   3.862   0.370   5.537  0.4499 -0.7032 -0.3828
 3884SOL     OW15301   1.781   3.744   1.818  0.0721 -0.2599  0.1356
 3884SOL    HW215302   1.857   3.704   1.775 -0.1294  0.6179 -1.0792
 3884SOL    HW315303   1.750   3.810   1.756  0.3656  1.7764  2.0189
 3884SOL    MW415304   1.787   3.747   1.804  0.0842  0.1246  0.2238
 3885SOL     OW15305   3.297   2.903   1.300  0.3379  0.0394  0.4965
 3885SOL    HW215306   3.353   2.961   1.249 -0.6007 -1.3363 -2.2475
 3885SOL    HW315307   3.223   2.959   1.327  0.8706  0.7966  0.4252
 3885SOL    MW415308   3.295   2.918   1.297  0.2844 -0.0422  0.1250
 3886SOL     OW15309   2.301   0.609   2.765  0.1552  0.0756 -0.0318
 3886SOL    HW215310   2.395   0.614   2.747  0.4156  2.6119  1.5868
 3886SOL    HW315311   2.295   0.614   2.860 -1.6378  0.1898 -0.1302
 3886SOL    MW415312   2.313   0.610   2.775 -0.0470  0.4253  0.1688
 3887SOL     OW15313   3.955   2.218   5.165 -0.1634 -0.2213 -0.5129
 3887SOL    HW215314   3.883   2.159   5.185  0.0341 -0.3893 -0.3048
 3887SOL    HW315315   3.923   2.270   5.091 -1.1363  0.8182  0.5984
 3887SOL    MW415316   3.941   2.217   5.158 -0.2657 -0.1063 -0.3388
 3888SOL     OW15317   4.485   5.611   4.366  0.5438 -0.5457 -0.4679
 3888SOL    HW215318   4.548   5.677   4.395  2.0813 -1.3894 -1.7109
 3888SOL    HW315319   4.462   5.563   4.446  0.4492  0.6141  0.2192
 3888SOL    MW415320   4.491   5.613   4.380  0.7342 -0.5040 -0.5413
 3889SOL     OW15321   4.136   3.054   1.594 -0.9220 -0.1974 -0.4228
 3889SOL    HW215322   4.059   3.096   1.632 -0.9748 -0.6386 -0.0371
 3889SOL    HW315323   4.160   2.986   1.657 -0.3474 -0.2068 -0.6468
 3889SOL    MW415324   4.129   3.051   1.607 -0.8532 -0.2569 -0.4015
 3890SOL     OW15325   1.721   5.479   3.393 -0.6114 -0.4111 -0.3932
 3890SOL    HW215326   1.749   5.497   3.483 -0.1748 -1.5252 -0.2926
 3890SOL    HW315327   1.725   5.565   3.350 -0.4224  0.0665  0.5294
 3890SOL    MW415328   1.725   5.493   3.400 -0.5289 -0.4951 -0.2582
 3891SOL     OW15329   3.337   1.596   2.748 -0.4875  0.1417  0.0972
 3891SOL    HW215330   3.419   1.616   2.704 -0.2707 -0.2372  0.3222
 3891SOL    HW315331   3.343   1.641   2.832 -0.1931 -0.4743  0.4155
 3891SOL    MW415332   3.349   1.604   2.754 -0.4200  0.0104  0.1689
 3892SOL     OW15333   3.843   2.302   0.063 -0.4714  0.2030  0.1169
 3892SOL    HW215334   3.883   2.241   0.125  0.8435 -0.2201 -1.0814
 3892SOL    HW315335   3.873   2.271  -0.023 -1.7326  1.1334 -0.6867
 3892SOL    MW415336   3.852   2.290   0.060 -0.4643  0.2699 -0.1473
 3893SOL     OW15337   3.179   3.962   1.960 -0.2482  0.4582 -0.1728
 3893SOL    HW215338   3.243   3.906   2.006 -2.6307 -3.0343 -0.7058
 3893SOL    HW315339   3.098   3.951   2.009 -1.3460  1.8299 -1.5784
 3893SOL    MW415340   3.177   3.953   1.973 -0.7074  0.1783 -0.4286
 3894SOL     OW15341   6.062   3.885   3.073  0.1155  0.2145  0.1757
 3894SOL    HW215342   6.133   3.890   3.137  0.8642 -0.8928 -0.5407
 3894SOL    HW315343   5.991   3.936   3.112  1.0173  0.6607  1.2770
 3894SOL    MW415344   6.062   3.892   3.087  0.3333  0.1273  0.2265
 3895SOL     OW15345   3.200   5.991   1.139 -0.4112 -0.1772 -0.1319
 3895SOL    HW215346   3.175   6.001   1.047 -0.8030  1.7370  0.1479
 3895SOL    HW315347   3.119   6.005   1.188 -0.3753 -1.9859  0.5146
 3895SOL    MW415348   3.186   5.994   1.133 -0.4582 -0.1633 -0.0097
 3896SOL     OW15349   0.708   3.992   2.842 -0.9654 -0.3136  0.3927
 3896SOL    HW215350   0.684   4.007   2.750  1.4732  0.4959 -0.1828
 3896SOL    HW315351   0.789   4.042   2.854 -0.0088 -2.1904  2.3520
 3896SOL    MW415352   0.716   4.001   2.831 -0.5175 -0.4544  0.5753
 3897SOL     OW15353   1.626   3.406   0.986 -0.2649 -0.2076 -0.1001
 3897SOL    HW215354   1.547   3.449   1.020  0.0387  0.3302 -0.0659
 3897SOL    HW315355   1.610   3.396   0.893 -0.4239 -0.2200 -0.0727
 3897SOL    MW415356   1.613   3.410   0.978 -0.2458 -0.1383 -0.0920
 3898SOL     OW15357   2.977   1.780   0.984  0.7978  0.0921 -0.1475
 3898SOL    HW215358   2.942   1.834   1.055 -0.6480 -1.1753  0.1538
 3898SOL    HW315359   2.953   1.827   0.904 -0.7608 -0.2216  0.0982
 3898SOL    MW415360   2.969   1.794   0.983  0.4014 -0.1165 -0.0753
 3899SOL     OW15361   3.936   4.730   5.259 -0.3176 -0.4780 -0.4238
 3899SOL    HW215362   3.963   4.820   5.276 -2.0172 -0.3542  2.1606
 3899SOL    HW315363   3.971   4.680   5.333 -0.9116 -1.5958 -0.8709
 3899SOL    MW415364   3.944   4.735   5.271 -0.6202 -0.6092 -0.1418
 3900SOL     OW15365   1.691   3.502   5.471  0.3514  0.0316  0.2282
 3900SOL    HW215366   1.731   3.588   5.456 -1.5453  0.7649 -1.0329
 3900SOL    HW315367   1.604   3.510   5.432  0.2043 -2.5481 -0.0869
 3900SOL    MW415368   1.685   3.515   5.464  0.0818 -0.2120  0.0202
 3901SOL     OW15369   4.567   1.371   5.091 -0.0785  0.0734  0.4589
 3901SOL    HW215370   4.479   1.378   5.128 -0.4806 -3.4042  0.4774
 3901SOL    HW315371   4.561   1.413   5.006 -2.0706 -0.9377  0.0480
 3901SOL    MW415372   4.554   1.378   5.085 -0.3944 -0.5188  0.4071
 3902SOL     OW15373   3.407   0.083   0.135 -0.0054 -0.4065  0.3647
 3902SOL    HW215374   3.461   0.017   0.091 -1.5253  1.0031 -4.2846
 3902SOL    HW315375   3.323   0.040   0.147  0.0350 -0.4011  0.6543
 3902SOL    MW415376   3.403   0.068   0.130 -0.2006 -0.2198 -0.2105
 3903SOL     OW15377   4.244   5.811   4.869  0.1337 -0.3562 -0.4671
 3903SOL    HW215378   4.329   5.825   4.827  0.1446  1.1377 -0.0399
 3903SOL    HW315379   4.254   5.854   4.954 -0.9095 -0.5508 -0.2448
 3903SOL    MW415380   4.257   5.819   4.875 -0.0025 -0.1848 -0.3814
 3904SOL     OW15381   0.549   0.878   0.703 -0.3863  0.1266  0.0046
 3904SOL    HW215382   0.474   0.937   0.706  0.1056  1.0507 -2.8812
 3904SOL    HW315383   0.623   0.930   0.734 -0.2605  0.5514 -0.9587
 3904SOL    MW415384   0.549   0.892   0.707 -0.3048  0.3046 -0.5033
 3905SOL     OW15385   0.943   3.589   4.131 -0.2226 -0.3914 -0.9009
 3905SOL    HW215386   0.952   3.637   4.048  0.6594  0.3533 -0.3913
 3905SOL    HW315387   0.891   3.646   4.186  0.0831 -0.4165 -0.5859
 3905SOL    MW415388   0.937   3.603   4.127 -0.0659 -0.2965 -0.7921
 3906SOL     OW15389   0.918   5.093   2.847  0.2811 -0.3030  1.1069
 3906SOL    HW215390   0.950   5.075   2.759  0.0745 -0.0356  0.9766
 3906SOL    HW315391   0.920   5.008   2.891 -0.7544 -0.6706  0.4830
 3906SOL    MW415392   0.922   5.080   2.841  0.1172 -0.3162  1.0074
 3907SOL     OW15393   4.339   2.948   5.159 -0.2628 -0.0898 -0.0431
 3907SOL    HW215394   4.250   2.984   5.167  0.0998  0.9848 -0.6554
 3907SOL    HW315395   4.329   2.870   5.104 -0.5139  1.4293 -2.2915
 3907SOL    MW415396   4.326   2.942   5.153 -0.2481  0.2524 -0.4206
 3908SOL     OW15397   1.128   3.425   1.632 -0.3192  0.7188  0.6567
 3908SOL    HW215398   1.033   3.411   1.626 -0.0773 -0.4325 -1.1282
 3908SOL    HW315399   1.151   3.473   1.553  0.6853  0.3334  0.7004
 3908SOL    MW415400   1.118   3.429   1.621 -0.1548  0.5160  0.4270
 3909SOL     OW15401   0.811   0.958   4.096 -0.2367 -0.3226 -0.6881
 3909SOL    HW215402   0.749   1.022   4.061  0.4373 -0.0884 -1.4663
 3909SOL    HW315403   0.856   0.923   4.020  0.5213 -0.5718 -0.1444
 3909SOL    MW415404   0.808   0.962   4.082 -0.0478 -0.3246 -0.7190
 3910SOL     OW15405   5.673   4.671   1.784  0.7670  0.1461  0.0222
 3910SOL    HW215406   5.722   4.725   1.722  1.3631  0.1452  0.4890
 3910SOL    HW315407   5.713   4.689   1.869  2.4435 -2.6006 -0.0516
 3910SOL    MW415408   5.684   4.680   1.787  1.0668 -0.2165  0.0741
 3911SOL     OW15409   0.759   2.399   5.974 -0.4900  0.0314 -0.0395
 3911SOL    HW215410   0.758   2.365   6.064 -0.0900 -0.7421 -0.3180
 3911SOL    HW315411   0.667   2.416   5.954 -0.7352 -1.1287  0.0326
 3911SOL    MW415412   0.747   2.397   5.984 -0.4696 -0.2237 -0.0668
 3912SOL     OW15413   0.233   2.716   5.348  0.0872  0.1322  0.1914
 3912SOL    HW215414   0.208   2.624   5.360  0.7409  0.0018  0.5710
 3912SOL    HW315415   0.201   2.738   5.260 -0.5230 -0.3078  0.2971
 3912SOL    MW415416   0.225   2.707   5.338  0.0930  0.0569  0.2554
 3913SOL     OW15417   5.076   3.582   2.880  0.1129  0.0771 -0.7067
 3913SOL    HW215418   4.991   3.551   2.847 -0.2135 -0.6886  0.7657
 3913SOL    HW315419   5.130   3.503   2.881 -0.2943 -0.2470  1.7619
 3913SOL    MW415420   5.072   3.567   2.876  0.0161 -0.0667 -0.1867
 3914SOL     OW15421   5.566   6.008   0.421 -0.1798 -0.5521  0.0013
 3914SOL    HW215422   5.579   6.003   0.516  1.1182 -1.7327 -0.2121
 3914SOL    HW315423   5.533   6.097   0.406 -1.5597 -0.7316  1.6741
 3914SOL    MW415424   5.563   6.019   0.432 -0.1906 -0.7315  0.1939
 3915SOL     OW15425   6.332   4.787   0.989  0.0780 -0.7313  0.4150
 3915SOL    HW215426   6.240   4.764   1.003 -0.5677 -0.1840 -2.3487
 3915SOL    HW315427   6.337   4.880   1.012 -0.5298 -0.2953 -1.1197
 3915SOL    MW415428   6.320   4.796   0.994 -0.0874 -0.6016 -0.1521
 3916SOL     OW15429   6.116   4.012   0.973 -0.4255 -0.0088 -0.0082
 3916SOL    HW215430   6.119   3.965   1.056 -0.4049 -0.6853 -0.3846
 3916SOL    HW315431   6.063   4.090   0.991  2.0902  1.4917  1.4351
 3916SOL    MW415432   6.110   4.016   0.986 -0.0909  0.1000  0.1326
 3917SOL     OW15433   5.582   5.071   3.680  0.1062 -0.7486 -0.1295
 3917SOL    HW215434   5.595   5.096   3.589 -0.3883  1.6198  0.3829
 3917SOL    HW315435   5.498   5.025   3.680  0.6708 -1.8305 -1.0076
 3917SOL    MW415436   5.572   5.068   3.668  0.1155 -0.5789 -0.1777
 3918SOL     OW15437   2.256   3.095   5.774  0.1227  0.9288  0.1260
 3918SOL    HW215438   2.195   3.158   5.812 -0.6623  0.0783  0.3023
 3918SOL    HW315439   2.313   3.148   5.718 -0.7503  1.7479 -0.0163
 3918SOL    MW415440   2.256   3.111   5.772 -0.0961  0.9247  0.1305
 3919SOL     OW15441   3.077   4.281   1.704  0.1675 -0.4377 -0.0854
 3919SOL    HW215442   3.004   4.262   1.762  1.4845 -0.3132  1.6964
 3919SOL    HW315443   3.116   4.196   1.685 -0.1047 -0.4527 -0.5943
 3919SOL    MW415444   3.073   4.267   1.709  0.3053 -0.4233  0.0826
 3920SOL     OW15445   3.995   4.012   3.469 -0.3145 -0.7341 -0.3337
 3920SOL    HW215446   3.941   4.059   3.406 -1.3764  1.7249  2.2202
 3920SOL    HW315447   4.080   4.001   3.425 -1.3610 -0.2651 -2.5983
 3920SOL    MW415448   3.999   4.017   3.455 -0.5926 -0.3478 -0.2955
 3921SOL     OW15449   5.939   4.611   1.313 -0.5753 -0.3099  0.0135
 3921SOL    HW215450   5.892   4.528   1.321 -2.5875  0.8798  1.3920
 3921SOL    HW315451   5.993   4.615   1.392  1.9682 -1.6330 -1.5231
 3921SOL    MW415452   5.940   4.600   1.324 -0.5052 -0.3275 -0.0074
 3922SOL     OW15453   2.075   2.346   1.005 -0.5894 -0.1093 -0.2086
 3922SOL    HW215454   2.064   2.251   1.002  2.7975 -0.6129 -2.0779
 3922SOL    HW315455   2.163   2.359   1.042 -0.9481  2.3259 -0.0295
 3922SOL    MW415456   2.085   2.335   1.010 -0.1899  0.1455 -0.4316
 3923SOL     OW15457   1.908   2.582   2.858 -0.1762  0.2504 -0.5229
 3923SOL    HW215458   1.919   2.646   2.929 -0.1045 -1.8864  1.5437
 3923SOL    HW315459   1.969   2.511   2.881  2.3896  0.8020 -4.5579
 3923SOL    MW415460   1.918   2.581   2.871  0.1718  0.0413 -0.7826
 3924SOL     OW15461   4.190   0.634   3.844  0.5588  0.0589  0.7805
 3924SOL    HW215462   4.132   0.580   3.897 -1.3256 -2.1442 -3.0526
 3924SOL    HW315463   4.270   0.582   3.835  0.3734 -0.1841  0.4933
 3924SOL    MW415464   4.193   0.620   3.850  0.2857 -0.2638  0.2369
 3925SOL     OW15465   5.119   6.199   5.457 -0.1196  0.0090  0.1674
 3925SOL    HW215466   5.178   6.273   5.444 -0.3747 -0.0422 -1.5428
 3925SOL    HW315467   5.034   6.231   5.427 -0.4805 -0.6186  0.4993
 3925SOL    MW415468   5.115   6.213   5.451 -0.2008 -0.0805 -0.0144
 3926SOL     OW15469   2.272   1.415   5.723  0.1297 -0.3736 -0.0047
 3926SOL    HW215470   2.246   1.379   5.808  0.3322 -0.4779  0.0148
 3926SOL    HW315471   2.303   1.504   5.743 -1.2926  0.1884 -0.1849
 3926SOL    MW415472   2.273   1.422   5.737 -0.0312 -0.3132 -0.0259
 3927SOL     OW15473   2.288   2.882   2.588 -0.1343  0.3313  0.2200
 3927SOL    HW215474   2.285   2.857   2.681  3.8437 -1.1297  0.1531
 3927SOL    HW315475   2.293   2.799   2.541 -0.3729  1.0782 -1.1707
 3927SOL    MW415476   2.288   2.867   2.594  0.3590  0.2371  0.0277
 3928SOL     OW15477   2.704   4.730   3.341 -0.1915 -0.4101 -0.0341
 3928SOL    HW215478   2.791   4.710   3.307 -0.0351  0.5706 -0.2301
 3928SOL    HW315479   2.644   4.689   3.278  0.0992  0.9564 -1.2494
 3928SOL    MW415480   2.707   4.722   3.328 -0.1325 -0.1004 -0.2203
 3929SOL     OW15481   0.689   5.223   6.001  0.2617 -0.3546 -0.3900
 3929SOL    HW215482   0.636   5.183   5.932 -0.5272 -0.5520  0.3116
 3929SOL    HW315483   0.765   5.165   6.010  1.1021  0.4142 -2.0259
 3929SOL    MW415484   0.692   5.210   5.993  0.2685 -0.2792 -0.5133
 3930SOL     OW15485   1.044   3.487   3.042  0.0238 -0.1816  0.2131
 3930SOL    HW215486   1.062   3.504   2.950 -0.7914 -0.3019  0.0219
 3930SOL    HW315487   1.129   3.464   3.080  0.2137 -1.0031 -0.6886
 3930SOL    MW415488   1.058   3.486   3.035 -0.0587 -0.3058  0.0689
 3931SOL     OW15489   2.260   5.801   0.995  0.4147  0.2711  0.2696
 3931SOL    HW215490   2.204   5.786   0.919  3.4471 -2.8900 -1.6133
 3931SOL    HW315491   2.217   5.753   1.066  0.3929 -1.7109 -1.0017
 3931SOL    MW415492   2.247   5.793   0.994  0.8119 -0.4075 -0.1466
 3932SOL     OW15493   5.796   4.120   5.091  0.2374 -1.0382 -0.0035
 3932SOL    HW215494   5.799   4.166   5.006 -1.0701  0.9553  0.9409
 3932SOL    HW315495   5.857   4.048   5.081  2.3548  0.8250 -1.6991
 3932SOL    MW415496   5.804   4.117   5.078  0.3443 -0.5293 -0.1026
 3933SOL     OW15497   4.065   3.786   4.192  0.1598 -0.2993 -0.0197
 3933SOL    HW215498   4.124   3.742   4.253  0.1626 -0.9169 -0.4560
 3933SOL    HW315499   4.065   3.731   4.114  2.1296  1.7439 -1.5866
 3933SOL    MW415500   4.073   3.773   4.190  0.4201 -0.1112 -0.2840
 3934SOL     OW15501   4.883   2.533   4.518  0.0317 -0.3157  0.4277
 3934SOL    HW215502   4.877   2.590   4.441 -0.4742 -0.7178  0.1613
 3934SOL    HW315503   4.793   2.510   4.539  0.0668  0.7986  1.9336
 3934SOL    MW415504   4.870   2.537   4.510 -0.0304 -0.2217  0.5912
 3935SOL     OW15505   3.053   0.764   2.110  0.0025 -0.8206  0.2500
 3935SOL    HW215506   2.957   0.763   2.114 -0.0986 -1.3500 -1.4650
 3935SOL    HW315507   3.079   0.827   2.177 -1.6525  0.7586 -0.5051
 3935SOL    MW415508   3.044   0.772   2.120 -0.2292 -0.6821 -0.0759
 3936SOL     OW15509   1.778   0.397   3.516 -0.0209 -0.1926  0.4161
 3936SOL    HW215510   1.813   0.316   3.481 -2.2720 -1.1947  0.3300
 3936SOL    HW315511   1.688   0.400   3.485 -0.7488  1.1097  2.4242
 3936SOL    MW415512   1.771   0.387   3.507 -0.4140 -0.1530  0.6697
 3937SOL     OW15513   3.893   0.950   3.297  0.3858 -0.2495  0.1120
 3937SOL    HW215514   3.848   1.035   3.296  0.3729 -0.2330  1.0905
 3937SOL    HW315515   3.986   0.972   3.295  0.3720 -0.2652 -1.2413
 3937SOL    MW415516   3.899   0.964   3.297  0.3823 -0.2494  0.0626
 3938SOL     OW15517   2.215   4.511   0.056  0.1893 -0.2076 -0.1733
 3938SOL    HW215518   2.184   4.426   0.089 -0.6620  0.3812  0.5960
 3938SOL    HW315519   2.274   4.489  -0.016 -0.6388 -1.4333 -0.5061
 3938SOL    MW415520   2.219   4.497   0.051 -0.0323 -0.2916 -0.1157
 3939SOL     OW15521   3.745   4.445   1.595 -0.3190  0.7762  0.1986
 3939SOL    HW215522   3.669   4.409   1.550  0.2698 -0.7590  0.3762
 3939SOL    HW315523   3.806   4.372   1.602  0.7616  1.7109  0.9738
 3939SOL    MW415524   3.743   4.431   1.590 -0.0987  0.6969  0.3243
 3940SOL     OW15525   0.056   1.881   0.822  0.1305  0.0718 -0.0404
 3940SOL    HW215526   0.118   1.930   0.875  1.0496 -1.5052  0.3957
 3940SOL    HW315527   0.090   1.888   0.733  0.5800 -0.2199  0.1025
 3940SOL    MW415528   0.068   1.888   0.817  0.3111 -0.1748  0.0360
 3941SOL     OW15529   1.270   1.913   3.666 -0.0834  0.3696 -0.0427
 3941SOL    HW215530   1.335   1.912   3.596  0.9049 -1.6919  0.8128
 3941SOL    HW315531   1.187   1.931   3.622  0.8561  1.6064 -1.3650
 3941SOL    MW415532   1.267   1.915   3.651  0.1710  0.2608 -0.1043
 3942SOL     OW15533   1.458   2.704   3.381  0.8112  0.2616  0.3309
 3942SOL    HW215534   1.510   2.763   3.435  1.1331 -0.2036  0.5370
 3942SOL    HW315535   1.421   2.641   3.443 -1.8102  1.8529  0.4990
 3942SOL    MW415536   1.460   2.703   3.396  0.5078  0.4102  0.3803
 3943SOL     OW15537   2.572   0.129   3.504 -0.7542  0.0291 -0.2988
 3943SOL    HW215538   2.504   0.147   3.569  1.0815 -1.1787  2.1029
 3943SOL    HW315539   2.541   0.050   3.459 -1.0592 -0.3854  0.6121
 3943SOL    MW415540   2.559   0.121   3.506 -0.5522 -0.1850  0.1383
 3944SOL     OW15541   5.827   3.141   5.075  0.1614  0.2115 -0.5887
 3944SOL    HW215542   5.824   3.153   4.980 -0.3613 -0.1541 -0.6216
 3944SOL    HW315543   5.917   3.113   5.092  0.0965 -0.3079 -1.0552
 3944SOL    MW415544   5.839   3.139   5.065  0.0838  0.0947 -0.6546
 3945SOL     OW15545   1.992   2.175   0.423 -0.1054 -0.1242 -0.3175
 3945SOL    HW215546   1.974   2.083   0.446 -1.3808  0.4015  0.9017
 3945SOL    HW315547   1.948   2.187   0.339  1.0930 -0.9414 -1.0912
 3945SOL    MW415548   1.984   2.164   0.415 -0.1155 -0.1627 -0.2587
 3946SOL     OW15549   3.317   0.010   6.114  0.0530  0.5885  0.0039
 3946SOL    HW215550   3.334   0.022   6.020 -1.5105 -0.6585 -0.4687
 3946SOL    HW315551   3.372  -0.064   6.139  2.0094  2.1612  0.5870
 3946SOL    MW415552   3.327   0.002   6.105  0.1048  0.6315  0.0185
 3947SOL     OW15553   4.639   6.324   3.393 -0.1408 -0.3877  0.3117
 3947SOL    HW215554   4.612   6.233   3.403 -1.3201  0.1892  4.3816
 3947SOL    HW315555   4.558   6.372   3.378  0.2544  0.1640 -0.1128
 3947SOL    MW415556   4.625   6.318   3.392 -0.2443 -0.2388  0.7927
 3948SOL     OW15557   3.808   5.560   5.293 -0.0889  0.1922 -0.2936
 3948SOL    HW215558   3.777   5.631   5.349  0.0422 -0.0150  0.0401
 3948SOL    HW315559   3.821   5.602   5.207  2.0022  1.0928  0.3775
 3948SOL    MW415560   3.806   5.575   5.289  0.2043  0.2837 -0.1611
 3949SOL     OW15561   0.203   2.048   3.548 -0.2700 -0.4569  0.4567
 3949SOL    HW215562   0.240   2.117   3.603 -0.8153  0.0391  0.2182
 3949SOL    HW315563   0.193   2.089   3.462 -0.6191 -0.8295  0.3177
 3949SOL    MW415564   0.206   2.063   3.544 -0.3880 -0.4406  0.4069
 3950SOL     OW15565   0.862   3.068   2.421  0.1307  0.1389 -0.1145
 3950SOL    HW215566   0.893   3.010   2.491 -1.4039 -0.2853  0.2581
 3950SOL    HW315567   0.800   3.014   2.371 -0.0563  0.9502 -0.7877
 3950SOL    MW415568   0.858   3.053   2.424 -0.0964  0.1900 -0.1541
 3951SOL     OW15569   5.861   0.011   4.317 -0.0487  0.2455  0.1834
 3951SOL    HW215570   5.788  -0.050   4.323  0.3073 -0.2654 -0.4852
 3951SOL    HW315571   5.923  -0.018   4.383 -0.0524  0.1224  0.1326
 3951SOL    MW415572   5.859  -0.001   4.326 -0.0022  0.1619  0.0885
 3952SOL     OW15573   1.758   6.403   1.024  0.0502 -0.2077 -0.3590
 3952SOL    HW215574   1.820   6.344   0.981  1.2828  0.3593  0.5949
 3952SOL    HW315575   1.744   6.364   1.110  0.6429  0.7098  0.1702
 3952SOL    MW415576   1.764   6.390   1.030  0.2910 -0.0118 -0.1633
 3953SOL     OW15577   6.115   6.261   6.082 -0.6135  0.3049 -0.8889
 3953SOL    HW215578   6.030   6.305   6.085 -1.2211 -0.8647  0.2400
 3953SOL    HW315579   6.101   6.185   6.027 -0.3043  0.1028 -0.6918
 3953SOL    MW415580   6.102   6.257   6.075 -0.6528  0.1239 -0.7139
 3954SOL     OW15581   0.620   1.375   5.887 -0.2045  0.3108  0.3493
 3954SOL    HW215582   0.599   1.392   5.979  0.0244  0.1313  0.4338
 3954SOL    HW315583   0.691   1.311   5.889 -1.4612 -1.1319  0.0166
 3954SOL    MW415584   0.627   1.369   5.899 -0.3401  0.0968  0.3166
 3955SOL     OW15585   2.844   2.085   0.118 -0.7354  0.2306 -0.0460
 3955SOL    HW215586   2.837   2.009   0.060  1.0610  0.6553 -0.8816
 3955SOL    HW315587   2.932   2.078   0.155 -0.8461  1.4808  0.4718
 3955SOL    MW415588   2.855   2.074   0.115 -0.5130  0.4515 -0.0879
 3956SOL     OW15589   6.023   1.811   6.289  0.2188  0.4059 -0.0785
 3956SOL    HW215590   6.070   1.872   6.232  0.5463 -0.5271 -0.8412
 3956SOL    HW315591   6.067   1.727   6.276 -2.4890 -0.8693 -1.9281
 3956SOL    MW415592   6.035   1.808   6.280 -0.0953  0.1146 -0.4232
 3957SOL     OW15593   0.960   3.498   5.851 -0.3830  0.2984 -0.1764
 3957SOL    HW215594   0.897   3.476   5.920 -1.7870 -1.1743 -1.8184
 3957SOL    HW315595   1.033   3.437   5.866 -1.2792 -0.9576 -0.7342
 3957SOL    MW415596   0.962   3.487   5.862 -0.6865 -0.0616 -0.4666
 3958SOL     OW15597   3.303   1.593   4.864  0.4705  0.7769  0.7569
 3958SOL    HW215598   3.386   1.588   4.912  1.3891  1.4526 -0.6675
 3958SOL    HW315599   3.245   1.531   4.908  1.7505  0.2495  1.7565
 3958SOL    MW415600   3.306   1.584   4.876  0.7605  0.7964  0.7009
 3959SOL     OW15601   2.864   5.177   0.163  0.0141 -0.2112 -0.2227
 3959SOL    HW215602   2.851   5.248   0.226  0.7863  1.0434 -1.4463
 3959SOL    HW315603   2.936   5.206   0.108 -0.3354 -1.4914 -1.4123
 3959SOL    MW415604   2.872   5.190   0.164  0.0698 -0.2146 -0.5411
 3960SOL     OW15605   5.456   1.105   2.837  0.5013 -0.5209 -0.1727
 3960SOL    HW215606   5.482   1.044   2.906 -0.7612 -2.2474 -1.1407
 3960SOL    HW315607   5.532   1.163   2.827  1.0955 -0.8259  1.9519
 3960SOL    MW415608   5.470   1.104   2.845  0.4131 -0.7889 -0.0201
 3961SOL     OW15609   3.532   3.328   0.343 -0.5374  0.3791 -0.5599
 3961SOL    HW215610   3.614   3.326   0.295 -0.0176  0.1129  0.3188
 3961SOL    HW315611   3.480   3.258   0.304 -0.5662  0.8950 -1.4770
 3961SOL    MW415612   3.536   3.319   0.331 -0.4727  0.4121 -0.5649
 3962SOL     OW15613   3.111   5.221   5.141  0.8196 -0.4042 -0.6086
 3962SOL    HW215614   3.079   5.158   5.076 -0.1782 -0.4884 -0.0669
 3962SOL    HW315615   3.042   5.287   5.145 -0.0440 -1.3404  1.6537
 3962SOL    MW415616   3.097   5.221   5.133  0.5740 -0.5388 -0.2387
 3963SOL     OW15617   5.803   0.733   0.917  0.3703  0.3886 -0.0346
 3963SOL    HW215618   5.869   0.705   0.981 -0.8247 -1.4380  0.4787
 3963SOL    HW315619   5.771   0.651   0.879 -1.4177  1.2428 -0.4405
 3963SOL    MW415620   5.808   0.718   0.921 -0.0233  0.2603 -0.0205
 3964SOL     OW15621   2.187   1.749   1.111  0.0983 -0.0709  0.4238
 3964SOL    HW215622   2.122   1.726   1.045  0.6561 -3.1104  0.7641
 3964SOL    HW315623   2.136   1.772   1.189 -0.5797 -0.5463  0.1286
 3964SOL    MW415624   2.172   1.749   1.113  0.0824 -0.5346  0.4298
 3965SOL     OW15625   4.341   1.491   3.289  0.5308 -0.0733  0.4255
 3965SOL    HW215626   4.426   1.487   3.245 -0.3624 -0.7343 -1.3214
 3965SOL    HW315627   4.354   1.441   3.369  1.6595 -0.5550 -0.0315
 3965SOL    MW415628   4.354   1.484   3.294  0.5618 -0.2240  0.1347
 3966SOL     OW15629   1.243   4.090   4.597  0.6897 -0.1197 -0.4005
 3966SOL    HW215630   1.308   4.097   4.666 -0.7573 -0.4835  1.0469
 3966SOL    HW315631   1.186   4.019   4.624 -1.9763  1.9581 -0.1261
 3966SOL    MW415632   1.244   4.082   4.609  0.1471  0.1065 -0.1733
 3967SOL     OW15633   4.854   5.405   4.988  0.4617 -0.0268  0.1282
 3967SOL    HW215634   4.775   5.350   4.984 -0.4984  1.3968 -1.7925
 3967SOL    HW315635   4.825   5.486   5.028  0.3859  1.2743 -2.3817
 3967SOL    MW415636   4.840   5.408   4.993  0.3250  0.3327 -0.4564
 3968SOL     OW15637   2.012   6.222   5.343 -0.4382 -0.1933 -0.2384
 3968SOL    HW215638   2.098   6.224   5.386 -0.1868  1.4462 -0.7726
 3968SOL    HW315639   2.011   6.138   5.296  0.1567 -1.0152  1.1469
 3968SOL    MW415640   2.023   6.211   5.343 -0.3266 -0.0854 -0.1261
 3969SOL     OW15641   5.135   1.380   5.483 -0.1701  0.0933 -0.5492
 3969SOL    HW215642   5.081   1.446   5.440 -0.0698  0.7249  0.2728
 3969SOL    HW315643   5.130   1.303   5.426  0.2277  1.0091 -1.8544
 3969SOL    MW415644   5.127   1.379   5.470 -0.1044  0.2975 -0.6130
 3970SOL     OW15645   2.043   0.986   4.567 -0.3117  0.4976 -0.1538
 3970SOL    HW215646   2.131   1.010   4.596 -0.1978  0.4107 -0.4270
 3970SOL    HW315647   2.046   0.994   4.471 -0.9191  1.5914 -0.0993
 3970SOL    MW415648   2.055   0.990   4.558 -0.3768  0.6304 -0.1826
 3971SOL     OW15649   4.210   2.458   1.548  0.3085 -0.1183 -0.0342
 3971SOL    HW215650   4.138   2.413   1.592 -0.2592 -0.0135 -0.8238
 3971SOL    HW315651   4.259   2.388   1.504  0.6858 -0.1879  0.4906
 3971SOL    MW415652   4.207   2.443   1.548  0.2834 -0.1136 -0.0692
 3972SOL     OW15653   0.671   3.116   5.285  0.4713  0.3889  0.6744
 3972SOL    HW215654   0.606   3.135   5.352  2.0566  0.2594  2.3319
 3972SOL    HW315655   0.625   3.129   5.202 -1.0285  2.4388  1.7482
 3972SOL    MW415656   0.657   3.120   5.283  0.4826  0.6423  1.0348
 3973SOL     OW15657   5.581   0.269   0.817 -0.1293  0.2870  0.0855
 3973SOL    HW215658   5.654   0.238   0.872 -0.3979 -1.2476 -0.3770
 3973SOL    HW315659   5.608   0.247   0.728 -1.5625 -1.2525 -0.0234
 3973SOL    MW415660   5.595   0.262   0.813 -0.3538 -0.1186  0.0101
 3974SOL     OW15661   4.295   1.697   5.047  0.3403 -0.2351 -0.1225
 3974SOL    HW215662   4.212   1.742   5.037  0.8094  1.1661  1.8234
 3974SOL    HW315663   4.354   1.743   4.987 -0.2513 -1.2956 -1.5817
 3974SOL    MW415664   4.292   1.709   5.038  0.3241 -0.1901 -0.0583
 3975SOL     OW15665   1.668   0.343   1.415  0.9156  0.4120 -1.0227
 3975SOL    HW215666   1.715   0.324   1.334  0.6806 -1.9073 -0.6858
 3975SOL    HW315667   1.582   0.300   1.403  0.9207 -0.0628  0.4605
 3975SOL    MW415668   1.663   0.334   1.403  0.8853  0.0433 -0.7825
 3976SOL     OW15669   5.644   2.409   2.893 -0.1779  0.2821 -0.3707
 3976SOL    HW215670   5.662   2.319   2.919 -0.2063  0.2958 -0.3022
 3976SOL    HW315671   5.633   2.456   2.976 -0.1830  0.3445 -0.4064
 3976SOL    MW415672   5.645   2.404   2.907 -0.1823  0.2921 -0.3664
 3977SOL     OW15673   1.197   0.883   4.903 -0.2927  0.3835 -0.0533
 3977SOL    HW215674   1.286   0.865   4.935 -0.4753 -0.0634  0.2069
 3977SOL    HW315675   1.156   0.797   4.896 -1.4151  0.7239  1.8731
 3977SOL    MW415676   1.203   0.869   4.906 -0.4649  0.3695  0.2352
 3978SOL     OW15677   3.995   0.716   0.444 -0.2562 -0.3371  0.5405
 3978SOL    HW215678   4.056   0.772   0.397 -0.7113  0.8362  1.2854
 3978SOL    HW315679   4.030   0.627   0.434  0.6599  0.1159 -0.4039
 3978SOL    MW415680   4.008   0.711   0.437 -0.1953 -0.1226  0.5142
 3979SOL     OW15681   2.958   3.593   5.393  0.4495 -0.7414 -0.7614
 3979SOL    HW215682   2.898   3.668   5.386  1.1561 -0.2022 -1.2255
 3979SOL    HW315683   2.920   3.527   5.335  0.5454 -0.2291 -1.4325
 3979SOL    MW415684   2.945   3.594   5.384  0.5554 -0.6027 -0.9111
 3980SOL     OW15685   2.158   2.662   4.631 -0.3579 -0.3709  0.4339
 3980SOL    HW215686   2.088   2.602   4.655 -0.2926 -0.8330 -0.5218
 3980SOL    HW315687   2.238   2.613   4.647 -0.2750 -0.2195  0.4904
 3980SOL    MW415688   2.159   2.648   4.636 -0.3383 -0.4119  0.3152
 3981SOL     OW15689   5.128   6.102   4.225 -0.2748 -0.4585  0.2187
 3981SOL    HW215690   5.216   6.076   4.252 -0.0310  0.0973 -0.0283
 3981SOL    HW315691   5.129   6.096   4.130 -0.2416  0.3274  0.1578
 3981SOL    MW415692   5.140   6.098   4.216 -0.2382 -0.2815  0.1781
 3982SOL     OW15693   1.779   5.765   3.872  0.3829  0.1544  0.0600
 3982SOL    HW215694   1.756   5.712   3.795  0.6291 -0.1214  0.1740
 3982SOL    HW315695   1.833   5.707   3.926  0.0443  0.2811  0.5396
 3982SOL    MW415696   1.783   5.750   3.869  0.3707  0.1347  0.1383
 3983SOL     OW15697   3.131   2.644   6.148 -0.3491  0.3657  0.4340
 3983SOL    HW215698   3.129   2.714   6.214  1.0488  0.6727  0.1882
 3983SOL    HW315699   3.046   2.649   6.106 -1.6992 -0.4971  2.8557
 3983SOL    MW415700   3.120   2.654   6.151 -0.3428  0.2923  0.7211
 3984SOL     OW15701   1.939   2.498   4.717 -0.1328 -0.0271  0.2198
 3984SOL    HW215702   1.969   2.408   4.706 -0.2106  0.0179 -0.4486
 3984SOL    HW315703   1.866   2.492   4.778 -1.2154 -0.6639 -1.0801
 3984SOL    MW415704   1.933   2.485   4.724 -0.2859 -0.1052 -0.0399
 3985SOL     OW15705   5.311   2.717   0.113  0.2187  0.5358 -0.0117
 3985SOL    HW215706   5.268   2.759   0.039 -1.4030 -4.0690 -2.0639
 3985SOL    HW315707   5.243   2.710   0.180 -0.3021 -0.9227 -0.6660
 3985SOL    MW415708   5.296   2.722   0.112 -0.0640 -0.2642 -0.3688
 3986SOL     OW15709   3.436   1.152   3.702 -0.0404 -0.6760 -0.0765
 3986SOL    HW215710   3.348   1.115   3.703 -0.9537  1.2982 -1.0871
 3986SOL    HW315711   3.445   1.190   3.615  1.6711 -0.4724  0.1500
 3986SOL    MW415712   3.426   1.152   3.691  0.0649 -0.3887 -0.1799
 3987SOL     OW15713   4.917   5.378   0.223  0.0978  0.4122  0.2353
 3987SOL    HW215714   4.951   5.459   0.187 -1.2785  1.1866  0.5917
 3987SOL    HW315715   4.927   5.314   0.153  0.3812  1.1056 -0.3688
 3987SOL    MW415716   4.923   5.380   0.209 -0.0464  0.6059  0.2026
 3988SOL     OW15717   4.262   4.965   2.301  0.1801  0.1073  0.0018
 3988SOL    HW215718   4.277   5.033   2.235  0.2930  0.5788  0.4992
 3988SOL    HW315719   4.349   4.930   2.321  0.1591  0.0382 -0.0292
 3988SOL    MW415720   4.275   4.970   2.295  0.1922  0.1604  0.0633
 3989SOL     OW15721   4.663   2.213   4.365 -0.7026 -0.2049 -0.3563
 3989SOL    HW215722   4.638   2.252   4.281  0.2937  0.6325 -0.2715
 3989SOL    HW315723   4.647   2.282   4.430  2.4248  0.6690 -0.3674
 3989SOL    MW415724   4.657   2.227   4.363 -0.1585  0.0209 -0.3465
 3990SOL     OW15725   2.680   1.733   0.719  0.3634  0.1617  0.7312
 3990SOL    HW215726   2.724   1.654   0.749 -0.0655  0.4562  2.2230
 3990SOL    HW315727   2.603   1.741   0.776 -0.2436  1.0224 -0.1606
 3990SOL    MW415728   2.675   1.723   0.731  0.2268  0.3141  0.8103
 3991SOL     OW15729   3.809   3.629   3.239  0.9665  0.2554  0.3406
 3991SOL    HW215730   3.892   3.674   3.218 -0.3353  2.3779 -0.5706
 3991SOL    HW315731   3.754   3.644   3.162  0.2022 -2.4980  0.2405
 3991SOL    MW415732   3.813   3.637   3.226  0.6939  0.1721  0.2072
 3992SOL     OW15733   1.600   4.733   1.128 -0.1469 -0.1452  0.1752
 3992SOL    HW215734   1.627   4.767   1.043  0.5779  0.0451  0.4722
 3992SOL    HW315735   1.519   4.780   1.149  0.6365  1.1430  0.4098
 3992SOL    MW415736   1.593   4.743   1.120  0.0521  0.0498  0.2454
 3993SOL     OW15737   4.401   1.627   0.802  0.0316  0.1293 -0.0497
 3993SOL    HW215738   4.335   1.637   0.734  0.1258  1.9005  0.0741
 3993SOL    HW315739   4.351   1.617   0.883 -0.2446  3.4863  0.3475
 3993SOL    MW415740   4.386   1.627   0.804  0.0076  0.8059  0.0191
 3994SOL     OW15741   5.658   3.481   1.297 -0.2376  0.3615  0.5967
 3994SOL    HW215742   5.673   3.403   1.350 -0.3150 -0.6271 -0.7722
 3994SOL    HW315743   5.737   3.534   1.307  0.0888 -0.2057  1.0202
 3994SOL    MW415744   5.670   3.478   1.305 -0.2047  0.1562  0.4720
 3995SOL     OW15745   0.667   5.055   4.486 -0.8791 -0.0739 -0.2019
 3995SOL    HW215746   0.758   5.085   4.479 -1.3378  1.2061 -1.1307
 3995SOL    HW315747   0.632   5.067   4.398 -2.5424  1.4943  0.6203
 3995SOL    MW415748   0.675   5.061   4.473 -1.1591  0.3019 -0.2159
 3996SOL     OW15749   4.765   5.259   5.659  0.1495  0.1788  0.3892
 3996SOL    HW215750   4.832   5.192   5.662 -1.3329 -1.5359 -1.4626
 3996SOL    HW315751   4.794   5.319   5.590  1.6173  1.7242  2.2385
 3996SOL    MW415752   4.777   5.258   5.650  0.1476  0.1565  0.3889
 3997SOL     OW15753   6.412   4.883   5.527  0.0340 -0.2913  0.0230
 3997SOL    HW215754   6.362   4.818   5.576  1.1699 -0.0629  1.5802
 3997SOL    HW315755   6.349   4.952   5.508 -1.6623 -2.4413 -3.1559
 3997SOL    MW415756   6.397   4.883   5.531 -0.0400 -0.5448 -0.1910
 3998SOL     OW15757   5.529   2.313   6.133 -0.1695  0.6270 -0.3478
 3998SOL    HW215758   5.559   2.364   6.208 -1.7952  1.4321 -0.2188
 3998SOL    HW315759   5.458   2.259   6.166  0.6605 -0.7993 -0.7941
 3998SOL    MW415760   5.524   2.313   6.147 -0.2745  0.5450 -0.3897
 3999SOL     OW15761   2.603   1.929   3.285 -0.0885  0.0964  0.3943
 3999SOL    HW215762   2.618   1.863   3.217  0.5480  1.0957 -0.4799
 3999SOL    HW315763   2.671   1.913   3.350 -0.7696 -0.9406  0.8748
 3999SOL    MW415764   2.614   1.918   3.284 -0.0944  0.0914  0.3423
 4000SOL     OW15765   5.299   3.675   4.047 -0.1374 -0.3182 -0.2227
 4000SOL    HW215766   5.289   3.768   4.029  1.5743 -0.0410  0.1018
 4000SOL    HW315767   5.386   3.667   4.087 -0.4220 -1.9973  0.1536
 4000SOL    MW415768   5.309   3.686   4.050  0.0509 -0.5032 -0.1302
 4001SOL     OW15769   4.624   2.055   6.157 -0.1061  0.1949 -0.1721
 4001SOL    HW215770   4.601   2.134   6.206 -0.9854  0.6506 -1.2628
 4001SOL    HW315771   4.700   2.080   6.105 -0.6466  0.4793 -0.8434
 4001SOL    MW415772   4.631   2.068   6.157 -0.2935  0.2925 -0.4046
 4002SOL     OW15773   1.715   5.621   1.174 -0.2652  0.2837 -0.4761
 4002SOL    HW215774   1.641   5.667   1.214  0.6637  2.4552 -1.1239
 4002SOL    HW315775   1.738   5.553   1.238 -4.4579 -2.4257 -1.3814
 4002SOL    MW415776   1.708   5.618   1.188 -0.6958  0.2127 -0.6810
 4003SOL     OW15777   4.510   3.886   4.827 -0.2423 -0.5631  0.4904
 4003SOL    HW215778   4.465   3.967   4.849 -1.5651 -1.0774 -0.1856
 4003SOL    HW315779   4.549   3.902   4.741 -2.3332 -1.2578 -0.6892
 4003SOL    MW415780   4.509   3.899   4.818 -0.6927 -0.7226  0.2456
 4004SOL     OW15781   4.943   1.341   1.911  0.2959  0.3004  0.1516
 4004SOL    HW215782   4.973   1.361   1.822 -1.4514  1.4291 -0.2252
 4004SOL    HW315783   4.962   1.420   1.961  2.7326 -0.8750  1.2506
 4004SOL    MW415784   4.950   1.354   1.906  0.3868  0.2942  0.2469
 4005SOL     OW15785   4.880   0.996   5.060 -0.0114  0.6977 -0.1472
 4005SOL    HW215786   4.840   1.080   5.080 -2.0052  0.2493 -1.9475
 4005SOL    HW315787   4.868   0.985   4.966 -0.8217 -2.0691  0.1902
 4005SOL    MW415788   4.873   1.006   5.050 -0.3814  0.2735 -0.3402
 4006SOL     OW15789   6.331   3.603   1.253 -0.2797  0.3488 -0.0410
 4006SOL    HW215790   6.325   3.668   1.183  0.9743  0.0998 -0.4025
 4006SOL    HW315791   6.297   3.648   1.331 -1.1752  0.8050 -0.6776
 4006SOL    MW415792   6.326   3.617   1.254 -0.2324  0.3762 -0.1727
 4007SOL     OW15793   0.589   1.049   5.161 -0.3460  0.0008  0.1193
 4007SOL    HW215794   0.623   1.086   5.243 -1.0377  0.9612 -0.0125
 4007SOL    HW315795   0.503   1.014   5.185 -0.2165 -0.4115 -0.0273
 4007SOL    MW415796   0.582   1.050   5.175 -0.4202  0.0731  0.0826
 4008SOL     OW15797   4.867   4.874   2.597  0.5524 -0.7722 -0.0514
 4008SOL    HW215798   4.809   4.942   2.565  1.2457  0.1436  0.5880
 4008SOL    HW315799   4.925   4.855   2.523  0.3937 -0.6331 -0.2115
 4008SOL    MW415800   4.867   4.880   2.583  0.6230 -0.6330  0.0119
 4009SOL     OW15801   2.776   0.999   3.394  0.1432  0.4698 -0.3533
 4009SOL    HW215802   2.779   1.087   3.432  0.0776  0.5578 -0.5482
 4009SOL    HW315803   2.685   0.971   3.402  0.5962 -0.5379  1.8347
 4009SOL    MW415804   2.765   1.007   3.400  0.1943  0.3485 -0.0904
 4010SOL     OW15805   4.656   4.761   0.940  0.0341 -0.1940 -0.1803
 4010SOL    HW215806   4.592   4.776   1.009 -0.8719  0.1790 -1.0816
 4010SOL    HW315807   4.623   4.810   0.865 -0.8634 -3.3122 -1.9773
 4010SOL    MW415808   4.643   4.769   0.939 -0.2039 -0.5562 -0.5363
 4011SOL     OW15809   4.589   0.787   4.686  0.1696 -0.1607  0.6848
 4011SOL    HW215810   4.534   0.737   4.626  0.6914 -0.0141  0.0641
 4011SOL    HW315811   4.533   0.806   4.761 -0.8090  0.4839 -0.1728
 4011SOL    MW415812   4.575   0.783   4.688  0.1093 -0.0563  0.4898
 4012SOL     OW15813   4.630   3.371   5.691  0.0924 -0.4691 -0.2406
 4012SOL    HW215814   4.643   3.276   5.697  0.9785 -0.3007  0.6295
 4012SOL    HW315815   4.670   3.395   5.608 -1.1764 -1.0088 -1.0438
 4012SOL    MW415816   4.637   3.361   5.681  0.0419 -0.5181 -0.2318
 4013SOL     OW15817   5.942   2.207   1.225 -0.5206  0.7686 -0.0205
 4013SOL    HW215818   5.918   2.275   1.162  0.7997  2.2856  1.0284
 4013SOL    HW315819   5.929   2.248   1.310  1.6838  0.2352  0.6332
 4013SOL    MW415820   5.937   2.221   1.228 -0.0556  0.8984  0.2041
 4014SOL     OW15821   2.427   2.618   4.695  0.0336 -0.3702 -0.6610
 4014SOL    HW215822   2.510   2.666   4.695 -0.6378  0.9126 -2.4953
 4014SOL    HW315823   2.401   2.615   4.787  1.0521  1.1305 -0.2804
 4014SOL    MW415824   2.434   2.624   4.707  0.0794 -0.0029 -0.8528
 4015SOL     OW15825   2.941   4.790   5.474 -0.0565 -0.2822 -0.3450
 4015SOL    HW215826   2.976   4.705   5.500  1.3096  0.8721  1.9183
 4015SOL    HW315827   2.863   4.801   5.528  0.0559  0.1084 -0.2594
 4015SOL    MW415828   2.935   4.780   5.484  0.1386 -0.0784 -0.0351
 4016SOL     OW15829   4.281   4.661   5.525 -0.0392 -0.5635 -0.5992
 4016SOL    HW215830   4.252   4.751   5.542  0.6566 -0.3635 -0.4379
 4016SOL    HW315831   4.272   4.651   5.430  0.2247 -0.1969 -0.6665
 4016SOL    MW415832   4.276   4.671   5.515  0.0875 -0.4887 -0.5868
 4017SOL     OW15833   2.668   4.022   1.581  0.9008  0.4198  0.0500
 4017SOL    HW215834   2.732   4.053   1.516  0.9533 -0.0809 -0.1489
 4017SOL    HW315835   2.718   4.013   1.662  0.8154  1.1318  0.1895
 4017SOL    MW415836   2.683   4.025   1.583  0.8965  0.4477  0.0421
 4018SOL     OW15837   0.040   2.423   6.311  0.2277 -0.3177 -0.1580
 4018SOL    HW215838   0.021   2.440   6.218 -1.2314 -0.2779  0.1126
 4018SOL    HW315839   0.118   2.474   6.329 -0.5474  1.2015 -0.9079
 4018SOL    MW415840   0.048   2.432   6.301 -0.0671 -0.1120 -0.2212
 4019SOL     OW15841   5.802   1.749   1.591 -0.1831 -0.5110 -0.0044
 4019SOL    HW215842   5.810   1.730   1.497  0.0956 -0.7909  0.0751
 4019SOL    HW315843   5.891   1.742   1.624 -0.1272  0.5365  0.1058
 4019SOL    MW415844   5.815   1.746   1.583 -0.1389 -0.4097  0.0206
 4020SOL     OW15845   6.297   6.421   4.898  0.0417 -0.0822  0.1268
 4020SOL    HW215846   6.286   6.362   4.822 -1.1121 -1.1706  1.0805
 4020SOL    HW315847   6.339   6.366   4.964  0.2929  0.6203  0.5520
 4020SOL    MW415848   6.301   6.406   4.897 -0.0774 -0.1331  0.3087
 4021SOL     OW15849   5.191   2.516   3.431 -0.1323  0.0212  0.3066
 4021SOL    HW215850   5.197   2.581   3.361  1.2004 -0.4463 -0.0451
 4021SOL    HW315851   5.276   2.472   3.430 -0.5304 -0.8168  1.4260
 4021SOL    MW415852   5.203   2.519   3.422 -0.0090 -0.1511  0.4079
 4022SOL     OW15853   5.796   0.769   3.194 -0.5185 -0.1024 -0.0206
 4022SOL    HW215854   5.759   0.843   3.147 -0.5446 -0.1223 -0.0318
 4022SOL    HW315855   5.736   0.753   3.266  0.8282  1.5279  1.5435
 4022SOL    MW415856   5.783   0.776   3.197 -0.3443  0.1101  0.1843
 4023SOL     OW15857   4.173   3.470   3.326 -0.0113  0.5935  0.4860
 4023SOL    HW215858   4.251   3.427   3.361  0.9875  2.4943  0.7351
 4023SOL    HW315859   4.129   3.507   3.403 -2.8052 -2.7932  0.7403
 4023SOL    MW415860   4.178   3.470   3.341 -0.2482  0.3975  0.5524
 4024SOL     OW15861   1.516   5.309   5.637 -0.0986 -0.1812 -0.5345
 4024SOL    HW215862   1.558   5.395   5.632  0.9282 -0.6924 -0.9178
 4024SOL    HW315863   1.473   5.309   5.723 -0.2901  0.7905 -0.6155
 4024SOL    MW415864   1.516   5.320   5.648  0.0116 -0.1204 -0.5958
 4025SOL     OW15865   0.628   2.048   4.399  0.3412 -0.1083 -0.6491
 4025SOL    HW215866   0.576   2.032   4.320  0.6494  0.9644 -1.0841
 4025SOL    HW315867   0.689   1.974   4.403 -1.9855 -2.1074  0.5784
 4025SOL    MW415868   0.629   2.036   4.389  0.0749 -0.2305 -0.5445
 4026SOL     OW15869   0.142   5.232   5.001  0.7177  0.3883 -0.1850
 4026SOL    HW215870   0.209   5.178   5.045  0.6488  0.3260 -0.1559
 4026SOL    HW315871   0.083   5.168   4.961 -0.4206  0.4001  1.4036
 4026SOL    MW415872   0.143   5.216   5.002  0.5584  0.3817  0.0285
 4027SOL     OW15873   0.618   3.825   5.689  0.4342 -0.5833 -0.4309
 4027SOL    HW215874   0.558   3.814   5.615  0.7040  0.0599 -0.7492
 4027SOL    HW315875   0.648   3.915   5.682  0.5538 -0.5553  0.4017
 4027SOL    MW415876   0.614   3.835   5.678  0.4856 -0.4948 -0.3631
 4028SOL     OW15877   1.496   1.367   1.552  0.1736 -0.2159  0.1747
 4028SOL    HW215878   1.498   1.272   1.541 -0.2287 -0.3385  1.0641
 4028SOL    HW315879   1.422   1.383   1.611  0.1654  0.6579 -0.0612
 4028SOL    MW415880   1.487   1.356   1.558  0.1195 -0.1168  0.2609
 4029SOL     OW15881   2.256   4.579   0.639  0.2370  0.0990 -0.2503
 4029SOL    HW215882   2.199   4.592   0.715  0.5297 -0.5812  0.0907
 4029SOL    HW315883   2.282   4.487   0.643 -1.1883 -0.4704 -2.1611
 4029SOL    MW415884   2.252   4.569   0.649  0.0875 -0.0658 -0.4574
 4030SOL     OW15885   4.301   0.582   0.240  0.3789 -0.4782 -0.3794
 4030SOL    HW215886   4.296   0.567   0.146  1.2431 -1.3547 -0.3057
 4030SOL    HW315887   4.391   0.613   0.254  0.0905  0.1545  0.0900
 4030SOL    MW415888   4.312   0.584   0.229  0.4549 -0.5104 -0.3078
 4031SOL     OW15889   6.315   5.027   4.136  0.0798 -0.2497  0.2457
 4031SOL    HW215890   6.305   4.934   4.158  0.5436  0.0754  1.9696
 4031SOL    HW315891   6.255   5.040   4.063 -0.6896 -1.7046  0.5643
 4031SOL    MW415892   6.305   5.016   4.129  0.0395 -0.3988  0.5152
 4032SOL     OW15893   3.810   4.211   5.170 -0.0636  0.1081  0.1176
 4032SOL    HW215894   3.824   4.141   5.234  0.1163 -0.8541 -0.9655
 4032SOL    HW315895   3.720   4.197   5.139  0.2749 -0.1975 -0.7526
 4032SOL    MW415896   3.800   4.200   5.175  0.0048 -0.0592 -0.1401
 4033SOL     OW15897   5.549   0.117   5.226 -0.9053  0.0756  0.3526
 4033SOL    HW215898   5.460   0.147   5.205 -0.7500 -0.2978 -0.9351
 4033SOL    HW315899   5.584   0.185   5.283 -1.4598  1.0709 -0.4439
 4033SOL    MW415900   5.541   0.130   5.231 -0.9579  0.1577  0.0776
 4034SOL     OW15901   5.778   3.886   0.834  0.2253  0.6624 -0.2150
 4034SOL    HW215902   5.791   3.938   0.914 -1.4291  1.0308 -0.1461
 4034SOL    HW315903   5.859   3.899   0.784  1.6653 -0.2386  1.7282
 4034SOL    MW415904   5.791   3.895   0.838  0.1970  0.5921  0.0505
 4035SOL     OW15905   5.474   0.600   5.089 -0.1377 -0.4749  0.2511
 4035SOL    HW215906   5.461   0.569   5.179 -1.3574  2.7044  1.3199
 4035SOL    HW315907   5.567   0.622   5.084 -0.4360  1.3714  1.5867
 4035SOL    MW415908   5.485   0.599   5.100 -0.3380  0.1881  0.5683
 4036SOL     OW15909   1.355   3.374   1.981 -0.0646 -0.0493 -0.1229
 4036SOL    HW215910   1.395   3.393   2.066  1.2192  0.4364 -0.8109
 4036SOL    HW315911   1.429   3.356   1.923 -0.8590  0.6219 -1.3790
 4036SOL    MW415912   1.370   3.374   1.985 -0.0000  0.1033 -0.3794
 4037SOL     OW15913   4.569   4.213   1.613 -0.3082 -0.2441 -0.5563
 4037SOL    HW215914   4.660   4.192   1.630 -1.0765 -2.7247  1.0366
 4037SOL    HW315915   4.568   4.247   1.524  2.1853  0.2673 -0.4643
 4037SOL    MW415916   4.581   4.215   1.603 -0.0806 -0.5039 -0.3340
 4038SOL     OW15917   6.162   2.660   3.664 -0.2524  0.2853  0.1279
 4038SOL    HW215918   6.246   2.705   3.668  0.5822 -1.2043  0.0580
 4038SOL    HW315919   6.142   2.638   3.755  1.2675 -2.5138 -0.1060
 4038SOL    MW415920   6.170   2.663   3.677  0.0582 -0.2805  0.0878
 4039SOL     OW15921   2.693   2.469   6.033 -0.1980 -0.1066  0.0993
 4039SOL    HW215922   2.688   2.542   6.093  0.7282 -0.0437  0.1241
 4039SOL    HW315923   2.782   2.434   6.046  0.5118  0.7023 -2.1148
 4039SOL    MW415924   2.704   2.474   6.042  0.0178  0.0084 -0.1896
 4040SOL     OW15925   0.200   4.375   1.135  0.2065 -0.4137  0.8560
 4040SOL    HW215926   0.189   4.469   1.128 -0.4993 -0.5688 -0.5846
 4040SOL    HW315927   0.293   4.362   1.154  0.6028  0.5337 -0.3215
 4040SOL    MW415928   0.210   4.385   1.137  0.1657 -0.3092  0.5106
 4041SOL     OW15929   2.913   1.527   0.740 -0.1681  0.0428 -0.2138
 4041SOL    HW215930   2.839   1.473   0.768  0.7262 -0.5120  1.1854
 4041SOL    HW315931   2.922   1.508   0.646 -2.2837  0.7520 -0.6139
 4041SOL    MW415932   2.904   1.517   0.731 -0.3292  0.0632 -0.0820
 4042SOL     OW15933   0.779   1.539   4.147  0.0749  0.3246  0.3541
 4042SOL    HW215934   0.859   1.504   4.186 -0.0113  0.9443  1.1209
 4042SOL    HW315935   0.749   1.470   4.088  1.2056  0.1147 -0.0020
 4042SOL    MW415936   0.786   1.525   4.144  0.2127  0.3787  0.4083
 4043SOL     OW15937   3.720   3.358   5.908 -0.2045  0.5066  0.1795
 4043SOL    HW215938   3.664   3.346   5.985  0.2998  1.1561  0.6601
 4043SOL    HW315939   3.682   3.432   5.862 -0.2986  0.3407 -0.0123
 4043SOL    MW415940   3.708   3.366   5.912 -0.1504  0.5704  0.2176
 4044SOL     OW15941   6.318   3.132   2.591  0.1753 -0.2690  0.0549
 4044SOL    HW215942   6.311   3.087   2.506  0.3239  0.6626 -0.4549
 4044SOL    HW315943   6.275   3.072   2.652  1.6525 -1.8006 -0.3412
 4044SOL    MW415944   6.311   3.118   2.587  0.3898 -0.3482 -0.0646
 4045SOL     OW15945   2.230   3.061   6.332  0.1321 -0.1369  0.2888
 4045SOL    HW215946   2.141   3.084   6.306  1.2146  2.0248 -2.0193
 4045SOL    HW315947   2.274   3.146   6.342  1.7574 -1.1242  2.1767
 4045SOL    MW415948   2.224   3.076   6.330  0.4893  0.0181  0.2333
 4046SOL     OW15949   6.010   5.893   1.722  0.0599  0.0942  0.3643
 4046SOL    HW215950   5.998   5.848   1.639 -1.0742  1.2001 -0.0842
 4046SOL    HW315951   5.942   5.857   1.779  1.1133 -0.9947  1.0006
 4046SOL    MW415952   6.000   5.882   1.719  0.0492  0.0965  0.3891
 4047SOL     OW15953   4.947   0.408   4.899  0.3802 -0.0531 -0.2604
 4047SOL    HW215954   4.958   0.389   4.993  0.1595  2.7304  0.4190
 4047SOL    HW315955   4.866   0.364   4.874  0.2717 -0.5691  0.9396
 4047SOL    MW415956   4.938   0.400   4.908  0.3368  0.2461 -0.0124
 4048SOL     OW15957   5.689   2.124   2.901 -0.3925  0.0041  0.4283
 4048SOL    HW215958   5.725   2.125   2.990  0.3724  1.0703  0.1137
 4048SOL    HW315959   5.636   2.044   2.899  1.3756 -1.2608  1.1257
 4048SOL    MW415960   5.687   2.113   2.913 -0.0583 -0.0221  0.4788
 4049SOL     OW15961   1.215   2.697   2.236  0.3083 -0.3155 -0.2703
 4049SOL    HW215962   1.152   2.666   2.300  3.3575 -1.8828  2.2449
 4049SOL    HW315963   1.235   2.786   2.263  0.2966 -0.3575 -0.1238
 4049SOL    MW415964   1.209   2.705   2.248  0.7091 -0.5278  0.0809
 4050SOL     OW15965   1.786   4.859   4.160 -0.1520  0.3634 -0.4771
 4050SOL    HW215966   1.819   4.795   4.097 -1.3468 -0.4553 -0.2925
 4050SOL    HW315967   1.811   4.944   4.122 -0.2961 -0.1346 -1.7327
 4050SOL    MW415968   1.794   4.862   4.147 -0.3287  0.1897 -0.6184
 4051SOL     OW15969   0.597   3.351   3.045  0.3058 -0.3861 -0.5848
 4051SOL    HW215970   0.516   3.398   3.066  0.2847 -0.5215 -0.3525
 4051SOL    HW315971   0.665   3.401   3.091  0.2781 -0.6040 -0.3044
 4051SOL    MW415972   0.595   3.364   3.054  0.2993 -0.4327 -0.5172
 4052SOL     OW15973   1.924   3.507   6.093 -0.4349  0.1966 -0.1192
 4052SOL    HW215974   1.929   3.543   6.182  1.6926 -2.0539  0.7675
 4052SOL    HW315975   1.870   3.428   6.103 -1.4524  0.7316 -1.1766
 4052SOL    MW415976   1.917   3.501   6.106 -0.2884 -0.0298 -0.1417
 4053SOL     OW15977   6.387   3.576   0.392  0.2253 -0.3231  0.2153
 4053SOL    HW215978   6.385   3.654   0.448  2.3358 -0.1686  0.1607
 4053SOL    HW315979   6.480   3.558   0.380 -0.2203 -2.4380 -0.3873
 4053SOL    MW415980   6.399   3.584   0.398  0.4450 -0.5818  0.1286
 4054SOL     OW15981   2.403   4.593   6.051  0.4982  0.0640 -1.2051
 4054SOL    HW215982   2.490   4.613   6.017  0.8888  0.4039 -0.0251
 4054SOL    HW315983   2.390   4.500   6.030  1.2999 -0.0899 -1.0490
 4054SOL    MW415984   2.413   4.583   6.044  0.6555  0.0885 -1.0288
 4055SOL     OW15985   1.742   4.565   5.272 -0.3357  0.1189  0.7087
 4055SOL    HW215986   1.706   4.639   5.222 -2.6747 -0.5430  1.2731
 4055SOL    HW315987   1.715   4.582   5.362  1.0464 -0.3364  1.2410
 4055SOL    MW415988   1.734   4.577   5.278 -0.4620 -0.0285  0.8534
 4056SOL     OW15989   4.969   3.819   4.023  0.0718  0.6161 -0.3714
 4056SOL    HW215990   4.921   3.896   3.993  1.0279  0.4797 -2.4720
 4056SOL    HW315991   5.061   3.844   4.015  0.3969  0.1489  1.5023
 4056SOL    MW415992   4.975   3.832   4.018  0.2409  0.5365 -0.4013
 4057SOL     OW15993   6.128   2.471   2.247 -0.4258  0.0078  0.2387
 4057SOL    HW215994   6.034   2.463   2.227 -0.5228  1.8345 -0.2409
 4057SOL    HW315995   6.150   2.561   2.222  1.7205 -0.7187 -0.7028
 4057SOL    MW415996   6.118   2.482   2.241 -0.1554  0.1529  0.0512
 4058SOL     OW15997   5.052   6.224   0.453 -0.1580  0.1695  0.5683
 4058SOL    HW215998   5.095   6.224   0.539  1.0103 -0.1876 -0.0045
 4058SOL    HW315999   5.118   6.192   0.393 -1.3657 -0.8202 -0.2878
 4058SOL    MW416000   5.066   6.220   0.457 -0.1632 -0.0082  0.3798
 4059SOL     OW16001   4.537   0.436   5.330  0.1387 -0.0998 -0.2000
 4059SOL    HW216002   4.512   0.521   5.293  1.4662  0.1072 -0.6501
 4059SOL    HW316003   4.521   0.374   5.259 -1.8103 -0.4335  0.4453
 4059SOL    MW416004   4.531   0.439   5.316  0.0567 -0.1165 -0.1743
 4060SOL     OW16005   4.785   4.216   6.338  0.1314  0.4259  0.5166
 4060SOL    HW216006   4.804   4.229   6.430 -0.7077 -0.2010  0.7914
 4060SOL    HW316007   4.818   4.129   6.318 -0.9190  0.0022  0.5832
 4060SOL    MW416008   4.792   4.206   6.347 -0.1179  0.2873  0.5616
 4061SOL     OW16009   4.674   0.919   3.518 -0.1766 -0.2419 -0.0487
 4061SOL    HW216010   4.691   0.828   3.542  0.6789  0.7073  3.6991
 4061SOL    HW316011   4.579   0.928   3.524 -0.1121 -0.4396  1.9189
 4061SOL    MW416012   4.664   0.908   3.522 -0.0552 -0.1428  0.7053
 4062SOL     OW16013   5.727   1.501   3.821  0.1075 -0.4463  0.1793
 4062SOL    HW216014   5.726   1.509   3.917 -1.7634 -1.1576  0.2645
 4062SOL    HW316015   5.637   1.476   3.798  1.4184 -4.5403 -1.3827
 4062SOL    MW416016   5.715   1.499   3.831  0.0336 -1.0803 -0.0156
 4063SOL     OW16017   0.790   1.574   0.972  0.3468 -0.0041  0.1502
 4063SOL    HW216018   0.791   1.607   0.882 -0.0406  1.1159  0.5391
 4063SOL    HW316019   0.750   1.487   0.966  0.3145  0.0689 -0.7532
 4063SOL    MW416020   0.785   1.567   0.959  0.2914  0.1533  0.0823
 4064SOL     OW16021   4.867   2.751   5.928 -0.4666  0.3373 -0.1086
 4064SOL    HW216022   4.952   2.707   5.928  0.6590  2.3716  0.7216
 4064SOL    HW316023   4.874   2.818   5.861 -0.6346  1.8561  1.3343
 4064SOL    MW416024   4.879   2.754   5.919 -0.3402  0.8061  0.1913
 4065SOL     OW16025   3.520   4.116   5.499  0.3975 -0.2599  0.2199
 4065SOL    HW216026   3.520   4.170   5.578 -1.8469 -0.0127  0.1219
 4065SOL    HW316027   3.498   4.028   5.531 -0.3683 -0.1897 -0.0899
 4065SOL    MW416028   3.517   4.111   5.514  0.0003 -0.2181  0.1661
 4066SOL     OW16029   3.287   0.582   0.847  0.1672 -0.3638  0.1066
 4066SOL    HW216030   3.274   0.677   0.847  1.1158 -0.2088 -1.6706
 4066SOL    HW316031   3.221   0.549   0.787  0.9372 -0.6534 -0.5889
 4066SOL    MW416032   3.276   0.590   0.839  0.3939 -0.3816 -0.2197
 4067SOL     OW16033   5.730   0.055   1.535  0.1926  0.7906 -0.0622
 4067SOL    HW216034   5.717   0.097   1.450  1.5215 -1.0149 -1.2386
 4067SOL    HW316035   5.648   0.009   1.551 -1.0612  3.1973  0.9695
 4067SOL    MW416036   5.718   0.054   1.526  0.2025  0.8699 -0.0813
 4068SOL     OW16037   3.854   0.798   0.199  0.5208 -0.2773 -0.2099
 4068SOL    HW216038   3.888   0.770   0.284  0.2851 -1.4933 -0.4896
 4068SOL    HW316039   3.867   0.722   0.142 -2.8554 -0.9689 -0.2586
 4068SOL    MW416040   3.860   0.784   0.203  0.0443 -0.5290 -0.2532
 4069SOL     OW16041   3.507   3.360   6.367  0.4415  0.3282 -0.4183
 4069SOL    HW216042   3.427   3.331   6.410 -0.4254  1.1481 -1.4233
 4069SOL    HW316043   3.516   3.452   6.393 -0.1257  0.8510 -1.9630
 4069SOL    MW416044   3.497   3.368   6.376  0.2523  0.5054 -0.7547
 4070SOL     OW16045   3.109   3.439   4.402  0.2350 -0.1783 -0.1072
 4070SOL    HW216046   3.030   3.477   4.362  0.2350 -1.7191 -1.6603
 4070SOL    HW316047   3.179   3.460   4.341  0.6596 -0.6170  0.2274
 4070SOL    MW416048   3.108   3.447   4.389  0.2910 -0.4395 -0.2680
 4071SOL     OW16049   1.005   6.398   1.956 -0.0054 -0.0479  0.1043
 4071SOL    HW216050   1.072   6.432   2.015  0.4180 -1.4554  0.4568
 4071SOL    HW316051   1.047   6.396   1.871  1.0486 -2.5202  0.5974
 4071SOL    MW416052   1.019   6.403   1.953  0.1895 -0.5598  0.2159
 4072SOL     OW16053   0.520   4.225   2.825 -0.2369 -0.2134 -0.0982
 4072SOL    HW216054   0.469   4.262   2.897 -1.1333  0.9277 -1.2640
 4072SOL    HW316055   0.591   4.288   2.811  0.7806 -1.1627  0.7013
 4072SOL    MW416056   0.523   4.238   2.832 -0.2209 -0.1881 -0.1466
 4073SOL     OW16057   3.233   2.421   1.100  0.2551  0.1925 -0.2559
 4073SOL    HW216058   3.177   2.355   1.060 -1.2049  0.3623  1.3783
 4073SOL    HW316059   3.305   2.371   1.139  0.4520 -0.1804 -1.0850
 4073SOL    MW416060   3.235   2.406   1.100  0.0884  0.1657 -0.1497
 4074SOL     OW16061   5.346   0.499   0.522 -0.1533  0.1293 -0.1100
 4074SOL    HW216062   5.366   0.442   0.448 -2.7087  0.4568 -1.1359
 4074SOL    HW316063   5.302   0.442   0.585 -1.6468  0.6636 -0.6305
 4074SOL    MW416064   5.343   0.484   0.521 -0.6875  0.2430 -0.3140
 4075SOL     OW16065   5.674   2.204   5.909 -0.3334 -0.2830  0.3985
 4075SOL    HW216066   5.638   2.234   5.993  1.5080  1.2739  0.6933
 4075SOL    HW316067   5.743   2.143   5.934 -1.0218 -1.2955 -0.0876
 4075SOL    MW416068   5.678   2.200   5.924 -0.1813 -0.2112  0.3733
 4076SOL     OW16069   3.180   5.801   0.199 -0.1426  0.2160  0.1497
 4076SOL    HW216070   3.189   5.811   0.105 -2.4265 -0.2727 -0.1757
 4076SOL    HW316071   3.149   5.886   0.230  1.4724  0.6613  0.6340
 4076SOL    MW416072   3.177   5.813   0.191 -0.2308  0.2103  0.1707
 4077SOL     OW16073   5.690   5.731   2.571  0.4620  0.3222 -0.6276
 4077SOL    HW216074   5.767   5.774   2.608  0.5855 -0.3233 -0.1259
 4077SOL    HW316075   5.688   5.645   2.612 -0.0561  0.0197 -1.2660
 4077SOL    MW416076   5.700   5.726   2.581  0.4099  0.1971 -0.6456
 4078SOL     OW16077   1.203   2.674   0.728  0.3617 -0.0900 -0.2797
 4078SOL    HW216078   1.160   2.682   0.813 -0.1990 -0.4216 -0.5247
 4078SOL    HW316079   1.296   2.666   0.749  0.4259  1.5841  0.2131
 4078SOL    MW416080   1.209   2.674   0.742  0.2962  0.0871 -0.2470
 4079SOL     OW16081   0.522   5.059   1.088 -0.1953  0.7597 -0.3400
 4079SOL    HW216082   0.535   4.991   1.021 -0.2750 -0.6538  1.0162
 4079SOL    HW316083   0.562   5.137   1.051 -1.1566  0.3015 -2.4682
 4079SOL    MW416084   0.529   5.060   1.074 -0.3327  0.5127 -0.4419
 4080SOL     OW16085   4.662   5.361   4.683 -0.5116 -0.0770  0.7819
 4080SOL    HW216086   4.749   5.352   4.645 -0.1682  2.9204  0.6320
 4080SOL    HW316087   4.643   5.455   4.679 -4.2316 -0.7023 -0.2224
 4080SOL    MW416088   4.671   5.372   4.677 -0.9571  0.2359  0.6296
 4081SOL     OW16089   1.384   4.371   2.414  0.2835 -0.0587  0.0028
 4081SOL    HW216090   1.299   4.415   2.421 -0.6755 -1.6955 -1.0091
 4081SOL    HW316091   1.447   4.443   2.410 -1.0863  1.2025  0.1274
 4081SOL    MW416092   1.381   4.386   2.415 -0.0238 -0.1082 -0.1143
 4082SOL     OW16093   3.880   4.400   4.766 -0.3634 -0.0308 -0.4635
 4082SOL    HW216094   3.917   4.486   4.787 -1.7335  0.1378  1.4965
 4082SOL    HW316095   3.820   4.416   4.693  0.3571  0.4060 -0.9739
 4082SOL    MW416096   3.877   4.413   4.759 -0.4491  0.0491 -0.2722
 4083SOL     OW16097   4.851   1.529   0.310 -0.1600  0.2484  0.5383
 4083SOL    HW216098   4.758   1.545   0.291  0.2328  1.3419 -0.5700
 4083SOL    HW316099   4.895   1.541   0.226  1.0713  0.4354  1.1948
 4083SOL    MW416100   4.844   1.533   0.297  0.0543  0.4173  0.4787
 4084SOL     OW16101   0.884   6.162   4.955 -0.4862  0.0141 -0.1558
 4084SOL    HW216102   0.863   6.252   4.929  0.3408 -0.5549 -3.0834
 4084SOL    HW316103   0.977   6.164   4.975 -0.6776 -0.0254  0.8153
 4084SOL    MW416104   0.893   6.174   4.954 -0.4023 -0.0662 -0.4139
 4085SOL     OW16105   3.821   4.826   0.800  0.1703  0.0695 -0.2218
 4085SOL    HW216106   3.731   4.858   0.800 -0.3677 -1.2759  1.0624
 4085SOL    HW316107   3.814   4.735   0.770  0.7024 -0.8440  2.1508
 4085SOL    MW416108   3.809   4.818   0.796  0.1695 -0.2286  0.2607
 4086SOL     OW16109   2.932   6.228   1.030 -0.1792  0.2345  0.5481
 4086SOL    HW216110   2.981   6.171   0.970  1.5379 -0.0667  2.1540
 4086SOL    HW316111   2.853   6.178   1.050  0.8748 -1.2521  1.2356
 4086SOL    MW416112   2.928   6.214   1.024  0.1864 -0.0014  0.8507
 4087SOL     OW16113   5.130   2.460   5.555 -0.8166  0.1215  0.1613
 4087SOL    HW216114   5.133   2.364   5.553  1.2286  0.1495 -1.3790
 4087SOL    HW316115   5.097   2.485   5.468 -0.1702  0.8279  0.1127
 4087SOL    MW416116   5.126   2.450   5.543 -0.4615  0.2184 -0.0483
 4088SOL     OW16117   0.623   6.256   5.173 -0.1226  0.2900 -0.0974
 4088SOL    HW216118   0.549   6.268   5.231  0.0408 -0.8107  0.3615
 4088SOL    HW316119   0.587   6.268   5.085 -1.4031 -2.4629 -0.0499
 4088SOL    MW416120   0.609   6.259   5.169 -0.2700 -0.2185 -0.0306
 4089SOL     OW16121   2.863   0.006   6.087 -0.0977  0.1641 -0.3285
 4089SOL    HW216122   2.849  -0.007   6.180 -1.5997  3.6116  0.0839
 4089SOL    HW316123   2.818  -0.067   6.045  1.2271 -1.8513  1.5864
 4089SOL    MW416124   2.855  -0.005   6.094 -0.1211  0.3530 -0.0214
 4090SOL     OW16125   2.737   6.195   1.242  0.4632 -0.0688 -0.3107
 4090SOL    HW216126   2.642   6.186   1.235  0.4331  0.6356 -0.9642
 4090SOL    HW316127   2.756   6.278   1.199  1.3582 -0.1122 -0.0130
 4090SOL    MW416128   2.727   6.204   1.236  0.5773  0.0184 -0.3576
 4091SOL     OW16129   4.886   1.474   4.065 -0.0372  0.4130 -0.3104
 4091SOL    HW216130   4.869   1.510   3.978  0.1672  0.3674 -0.3684
 4091SOL    HW316131   4.972   1.509   4.089  0.2722 -0.2262 -0.4624
 4091SOL    MW416132   4.895   1.484   4.057  0.0306  0.3226 -0.3381
 4092SOL     OW16133   5.950   3.628   3.166 -0.5765 -0.0015 -0.0669
 4092SOL    HW216134   6.026   3.590   3.210 -1.1320 -1.2240 -0.1456
 4092SOL    HW316135   5.982   3.711   3.131  0.6418 -0.3753  0.1359
 4092SOL    MW416136   5.964   3.634   3.168 -0.4891 -0.2121 -0.0505
 4093SOL     OW16137   5.358   6.373   2.022  0.1197  0.1387  0.0753
 4093SOL    HW216138   5.382   6.287   2.058  1.5170  0.1017 -0.8638
 4093SOL    HW316139   5.407   6.436   2.075  0.5455  0.2227 -0.4121
 4093SOL    MW416140   5.368   6.370   2.034  0.3603  0.1449 -0.1129
 4094SOL     OW16141   0.992   1.300   1.963  0.3709  0.3530 -0.0852
 4094SOL    HW216142   0.918   1.317   2.021 -0.8460 -0.2299 -1.4065
 4094SOL    HW316143   1.047   1.378   1.970 -0.0585  0.5524  1.3467
 4094SOL    MW416144   0.990   1.313   1.971  0.1537  0.3024 -0.0706
 4095SOL     OW16145   3.953   5.347   4.591  0.6115  0.0133 -0.7029
 4095SOL    HW216146   4.028   5.370   4.646  0.0680 -0.5495  0.3055
 4095SOL    HW316147   3.877   5.376   4.641  0.1384  0.3371 -1.5967
 4095SOL    MW416148   3.953   5.354   4.605  0.4774 -0.0182 -0.6878
 4096SOL     OW16149   1.822   1.205   5.567  0.6633  0.1139 -0.5704
 4096SOL    HW216150   1.902   1.189   5.616  0.8416 -0.7122 -1.1082
 4096SOL    HW316151   1.852   1.225   5.478  0.3005  0.4692 -0.6141
 4096SOL    MW416152   1.836   1.205   5.562  0.6390  0.0518 -0.6471
 4097SOL     OW16153   3.597   0.869   4.055 -0.2185  0.0817 -0.4125
 4097SOL    HW216154   3.587   0.958   4.020 -0.9062  0.3937  0.5332
 4097SOL    HW316155   3.659   0.827   3.996  1.1168  1.5989 -0.1597
 4097SOL    MW416156   3.604   0.875   4.043 -0.1331  0.3231 -0.2544
 4098SOL     OW16157   1.537   6.284   0.901 -0.2092 -0.4299  0.2545
 4098SOL    HW216158   1.605   6.325   0.955 -1.4032  0.6611  0.9859
 4098SOL    HW316159   1.552   6.317   0.813  0.6173 -0.7458  0.2713
 4098SOL    MW416160   1.548   6.294   0.897 -0.2577 -0.3276  0.3532
 4099SOL     OW16161   1.594   5.293   1.559 -0.4454  0.1934  0.2557
 4099SOL    HW216162   1.522   5.349   1.530  0.4214  1.6535  0.8313
 4099SOL    HW316163   1.553   5.232   1.621 -0.7528  3.1144  3.1981
 4099SOL    MW416164   1.579   5.292   1.563 -0.3716  0.7714  0.7199
 4100SOL     OW16165   5.853   1.724   2.963 -0.4841  0.0596 -0.2892
 4100SOL    HW216166   5.903   1.804   2.981 -1.4699  0.4381  0.9423
 4100SOL    HW316167   5.897   1.684   2.889  0.9455  0.9676  0.0393
 4100SOL    MW416168   5.865   1.730   2.956 -0.4255  0.2293 -0.0834
 4101SOL     OW16169   1.153   1.510   2.042 -0.5626 -0.5088 -0.5198
 4101SOL    HW216170   1.122   1.473   2.125 -1.1093  1.5341  0.2255
 4101SOL    HW316171   1.247   1.522   2.055 -0.7570  0.4304  0.0684
 4101SOL    MW416172   1.161   1.507   2.055 -0.6604 -0.1154 -0.3439
 4102SOL     OW16173   5.593   0.347   3.781  0.0164 -0.2734  0.1889
 4102SOL    HW216174   5.541   0.366   3.702  1.2749 -0.6314 -0.7522
 4102SOL    HW316175   5.575   0.421   3.839 -1.8899 -0.6054  0.1073
 4102SOL    MW416176   5.584   0.359   3.778 -0.0690 -0.3644  0.0539
 4103SOL     OW16177   3.133   3.253   5.753 -0.0360 -0.3292  0.0743
 4103SOL    HW216178   3.185   3.308   5.811 -0.4828  0.0717  0.1018
 4103SOL    HW316179   3.181   3.253   5.670  1.4477 -2.1856  0.8570
 4103SOL    MW416180   3.146   3.260   5.749  0.1008 -0.5213  0.1812
 4104SOL     OW16181   1.781   5.359   0.660 -0.0835  0.2181  0.1165
 4104SOL    HW216182   1.784   5.360   0.564  0.2715  1.0124  0.1233
 4104SOL    HW316183   1.766   5.268   0.683 -2.8415  0.3823 -0.7535
 4104SOL    MW416184   1.780   5.347   0.650 -0.4005  0.3446  0.0026
 4105SOL     OW16185   2.982   5.989   5.415  0.3921  0.1520 -0.3622
 4105SOL    HW216186   3.065   6.024   5.382 -0.6839  2.1720 -1.1000
 4105SOL    HW316187   3.007   5.933   5.488  2.4362  0.3140 -0.8775
 4105SOL    MW416188   2.996   5.986   5.421  0.5198  0.4399 -0.5276
 4106SOL     OW16189   2.435   0.172   1.120  0.6303  0.2702 -0.1494
 4106SOL    HW216190   2.498   0.153   1.189 -0.1740 -0.8442  0.3079
 4106SOL    HW316191   2.382   0.093   1.112  0.1920  0.6527 -1.5079
 4106SOL    MW416192   2.436   0.159   1.128  0.4663  0.1737 -0.2683
 4107SOL     OW16193   5.420   4.403   6.338 -0.3275 -0.2454  0.3601
 4107SOL    HW216194   5.376   4.441   6.261 -1.8609 -0.5262  1.0498
 4107SOL    HW316195   5.468   4.476   6.377  1.8716 -0.4551 -1.7598
 4107SOL    MW416196   5.420   4.418   6.333 -0.2397 -0.3101  0.1714
 4108SOL     OW16197   5.880   2.311   6.121  0.3303  0.2618  0.2531
 4108SOL    HW216198   5.844   2.382   6.174  1.7974  0.4318  1.0642
 4108SOL    HW316199   5.853   2.231   6.166  0.6141  0.3726  0.6193
 4108SOL    MW416200   5.872   2.310   6.134  0.5613  0.2988  0.4084
 4109SOL     OW16201   1.612   5.245   2.426  0.2636  0.0623  0.2169
 4109SOL    HW216202   1.680   5.294   2.473  0.2361  0.2507  0.0624
 4109SOL    HW316203   1.595   5.169   2.481  0.4650  0.1130  0.3505
 4109SOL    MW416204   1.619   5.242   2.440  0.2866  0.0939  0.2141
 4110SOL     OW16205   1.682   3.748   1.416 -0.5505 -0.1300  0.6566
 4110SOL    HW216206   1.659   3.669   1.464 -1.0810 -0.1009  0.4569
 4110SOL    HW316207   1.754   3.722   1.358 -0.2000 -0.2682  1.1506
 4110SOL    MW416208   1.689   3.734   1.415 -0.5742 -0.1444  0.6954
 4111SOL     OW16209   0.335   0.888   2.741  0.1191  0.0682  0.9308
 4111SOL    HW216210   0.386   0.809   2.725  0.8470  0.4925  1.1201
 4111SOL    HW316211   0.300   0.877   2.830 -1.0745 -0.7321  0.3850
 4111SOL    MW416212   0.337   0.876   2.751  0.0576  0.0186  0.8837
 4112SOL     OW16213   3.922   4.127   4.870 -0.4053 -0.0169 -0.8291
 4112SOL    HW216214   3.920   4.101   4.778  0.5945  0.3978 -0.9756
 4112SOL    HW316215   3.901   4.220   4.869 -1.1600 -0.1740 -0.5571
 4112SOL    MW416216   3.919   4.136   4.857 -0.3730  0.0171 -0.8126
 4113SOL     OW16217   0.319   1.507   1.034  0.6422 -0.1558 -0.3837
 4113SOL    HW216218   0.331   1.415   1.011  1.7119  0.3749 -2.0753
 4113SOL    HW316219   0.365   1.556   0.966 -1.3491  1.7057 -0.5309
 4113SOL    MW416220   0.326   1.502   1.022  0.5206  0.1598 -0.6263
 4114SOL     OW16221   2.877   3.183   3.917 -0.1448 -0.3440 -0.1756
 4114SOL    HW216222   2.946   3.213   3.859  0.8888 -0.6972  0.8335
 4114SOL    HW316223   2.827   3.262   3.938 -0.3626 -0.1678 -1.2919
 4114SOL    MW416224   2.879   3.197   3.913 -0.0372 -0.3673 -0.1898
 4115SOL     OW16225   6.132   3.146   2.138  0.4427  0.0045  0.1214
 4115SOL    HW216226   6.132   3.235   2.173  0.2156 -0.0974  0.3802
 4115SOL    HW316227   6.178   3.094   2.205 -0.8205 -0.3683  0.7166
 4115SOL    MW416228   6.138   3.151   2.151  0.2461 -0.0581  0.2340
 4116SOL     OW16229   5.370   1.005   2.186 -0.0155 -0.0780 -0.3370
 4116SOL    HW216230   5.345   0.945   2.116 -0.7064  1.0049 -1.0364
 4116SOL    HW316231   5.304   0.990   2.254 -1.5501  1.4369 -1.4181
 4116SOL    MW416232   5.358   0.995   2.186 -0.3092  0.2648 -0.5719
 4117SOL     OW16233   0.939   1.096   6.292 -0.6360  0.1796  0.2130
 4117SOL    HW216234   0.985   1.076   6.211 -0.3135 -0.3627  0.5218
 4117SOL    HW316235   0.980   1.040   6.358 -0.3268  1.1989  0.9307
 4117SOL    MW416236   0.950   1.086   6.290 -0.5526  0.2425  0.3484
 4118SOL     OW16237   5.667   0.667   6.049  0.1435  0.0471 -0.5745
 4118SOL    HW216238   5.644   0.587   6.096  0.4952  1.3942  2.0541
 4118SOL    HW316239   5.583   0.706   6.026 -0.1031  0.2457  0.5875
 4118SOL    MW416240   5.653   0.661   6.052  0.1574  0.2511 -0.0744
 4119SOL     OW16241   2.101   2.751   0.063 -0.0664  0.5895 -0.4151
 4119SOL    HW216242   2.063   2.705   0.139  1.3621  0.2646  0.1286
 4119SOL    HW316243   2.171   2.804   0.100 -1.2677  2.7705 -1.1359
 4119SOL    MW416244   2.105   2.752   0.078 -0.0364  0.8344 -0.4385
 4120SOL     OW16245   5.300   6.413   5.470  0.0585  0.2204 -0.5295
 4120SOL    HW216246   5.242   6.436   5.543  0.7696  0.0869  0.0833
 4120SOL    HW316247   5.260   6.456   5.394 -0.2826  0.9842  0.0682
 4120SOL    MW416248   5.287   6.422   5.469  0.1073  0.3036 -0.3698
 4121SOL     OW16249   5.437   5.790   2.413 -0.1014 -0.0128 -0.1383
 4121SOL    HW216250   5.526   5.809   2.443 -0.0022  1.3453 -1.1957
 4121SOL    HW316251   5.383   5.797   2.491  0.7382 -1.2643  0.6044
 4121SOL    MW416252   5.442   5.793   2.427  0.0225  0.0012 -0.1798
 4122SOL     OW16253   3.476   5.002   4.321  0.5308 -0.1551  0.2751
 4122SOL    HW216254   3.444   4.940   4.387 -0.4958  1.3251  1.2321
 4122SOL    HW316255   3.405   5.066   4.313  1.2310  0.4644 -1.2665
 4122SOL    MW416256   3.462   5.002   4.329  0.4877  0.1219  0.1979
 4123SOL     OW16257   5.976   0.251   0.641 -0.0928 -0.7896  0.2229
 4123SOL    HW216258   5.916   0.316   0.677 -0.3283 -0.6381 -0.4319
 4123SOL    HW316259   6.021   0.216   0.717 -2.1051 -2.0216  0.9160
 4123SOL    MW416260   5.974   0.255   0.656 -0.3894 -0.9322  0.2279
 4124SOL     OW16261   6.096   0.538   3.885 -0.0260 -0.1988  0.5960
 4124SOL    HW216262   6.177   0.519   3.838  0.2531  1.7901  0.1896
 4124SOL    HW316263   6.044   0.458   3.877  1.7116 -1.3590  0.5064
 4124SOL    MW416264   6.099   0.525   3.877  0.2401 -0.0895  0.5305
 4125SOL     OW16265   3.174   2.787   5.738  0.3373 -0.0477  0.3214
 4125SOL    HW216266   3.121   2.866   5.735  0.6093  0.1087 -0.6582
 4125SOL    HW316267   3.120   2.724   5.788 -0.7061  0.1518 -0.5162
 4125SOL    MW416268   3.160   2.789   5.744  0.2355 -0.0008  0.0816
 4126SOL     OW16269   5.573   0.032   3.038  0.1348  0.6051 -0.3844
 4126SOL    HW216270   5.600   0.020   2.946 -1.9702 -0.1898 -0.9611
 4126SOL    HW316271   5.562  -0.058   3.071  0.5873  0.8910  0.5749
 4126SOL    MW416272   5.575   0.018   3.030 -0.0832  0.5379 -0.3339
 4127SOL     OW16273   5.242   1.520   2.835 -0.0946  0.4991 -0.0881
 4127SOL    HW216274   5.174   1.534   2.901  1.1801  2.0761  0.9697
 4127SOL    HW316275   5.226   1.431   2.803 -1.5716  0.1820  1.3871
 4127SOL    MW416276   5.231   1.510   2.839 -0.1213  0.6653  0.2461
 4128SOL     OW16277   2.535   0.028   0.007  0.5135  0.4003 -0.0738
 4128SOL    HW216278   2.472   0.029   0.079  0.4669 -1.0402 -0.0597
 4128SOL    HW316279   2.487   0.063  -0.068  0.0649  0.4336  0.2274
 4128SOL    MW416280   2.520   0.033   0.007  0.4481  0.2146 -0.0322
 4129SOL     OW16281   3.190   1.128   5.074 -0.4517 -0.5130 -0.4713
 4129SOL    HW216282   3.131   1.180   5.128 -1.3918 -1.6177 -0.3844
 4129SOL    HW316283   3.150   1.129   4.986 -0.4318 -0.9774 -0.4910
 4129SOL    MW416284   3.177   1.135   5.069 -0.5731 -0.7200 -0.4624
 4130SOL     OW16285   0.099   0.886   1.419  0.5956 -1.2723 -0.2494
 4130SOL    HW216286   0.142   0.971   1.408  1.7491 -1.7996  0.0343
 4130SOL    HW316287   0.147   0.827   1.362  0.0288 -1.8223 -0.1692
 4130SOL    MW416288   0.111   0.890   1.410  0.6730 -1.4144 -0.2014
 4131SOL     OW16289   0.869   4.820   2.929  0.0478 -0.1929 -0.3580
 4131SOL    HW216290   0.877   4.764   2.852 -0.8760 -0.6011 -0.1755
 4131SOL    HW316291   0.775   4.824   2.946  0.2717 -0.6269  1.1167
 4131SOL    MW416292   0.858   4.813   2.921 -0.0446 -0.3040 -0.1394
 4132SOL     OW16293   5.067   3.561   6.117  0.4819 -0.0698  0.0270
 4132SOL    HW216294   5.004   3.544   6.047  0.5523  2.1958 -0.6485
 4132SOL    HW316295   5.146   3.592   6.072  1.2857 -0.6436  0.9960
 4132SOL    MW416296   5.069   3.563   6.101  0.5972  0.1534  0.0658
 4133SOL     OW16297   2.892   6.373   6.370 -0.1622  0.5451 -0.0421
 4133SOL    HW216298   2.824   6.364   6.437 -0.1983  0.9572 -0.0174
 4133SOL    HW316299   2.925   6.284   6.356 -0.9727  0.2763 -0.3317
 4133SOL    MW416300   2.887   6.360   6.377 -0.2739  0.5640 -0.0770
 4134SOL     OW16301   4.257   4.068   3.380 -0.6320 -0.5580  0.0761
 4134SOL    HW216302   4.318   4.006   3.420 -0.0140  0.0900  0.1811
 4134SOL    HW316303   4.300   4.096   3.299 -1.4459 -1.1489 -0.5760
 4134SOL    MW416304   4.271   4.064   3.375 -0.6579 -0.5504  0.0039
 4135SOL     OW16305   2.438   4.657   4.980 -0.1041 -0.1144 -0.3085
 4135SOL    HW216306   2.402   4.677   4.894  3.8725 -0.4165 -2.2609
 4135SOL    HW316307   2.463   4.564   4.974  1.0890  0.1055  0.7574
 4135SOL    MW416308   2.437   4.647   4.968  0.5780 -0.1253 -0.4254
 4136SOL     OW16309   2.467   0.781   1.719 -0.0705 -0.0858 -0.6972
 4136SOL    HW216310   2.487   0.874   1.731 -1.2734  0.6444 -3.5697
 4136SOL    HW316311   2.372   0.775   1.730  0.0507 -1.0733 -0.1092
 4136SOL    MW416312   2.457   0.792   1.722 -0.2132 -0.1198 -0.9986
 4137SOL     OW16313   4.022   0.969   2.875  0.7838 -0.2597 -0.0282
 4137SOL    HW216314   3.994   1.055   2.909 -0.7228 -1.6017  2.4673
 4137SOL    HW316315   4.101   0.948   2.924  2.2589  0.4415 -1.9935
 4137SOL    MW416316   4.029   0.978   2.886  0.7796 -0.3443  0.0417
 4138SOL     OW16317   5.805   6.059   0.229 -0.0994 -0.1338 -0.1200
 4138SOL    HW216318   5.877   6.014   0.273 -1.3286 -0.6973  1.4380
 4138SOL    HW316319   5.732   6.052   0.291 -1.8473 -0.6631 -2.1357
 4138SOL    MW416320   5.805   6.052   0.243 -0.4922 -0.2780 -0.1804
 4139SOL     OW16321   2.419   4.240   5.453  0.3015 -0.0562 -0.3140
 4139SOL    HW216322   2.480   4.243   5.380  1.3861 -1.7359  0.4580
 4139SOL    HW316323   2.342   4.195   5.419  0.8303 -0.8905 -0.4438
 4139SOL    MW416324   2.417   4.234   5.439  0.5144 -0.3879 -0.2293
 4140SOL     OW16325   0.248   4.334   2.623 -0.6479 -0.0409 -0.5559
 4140SOL    HW216326   0.256   4.248   2.663 -1.6799 -0.2799 -0.8340
 4140SOL    HW316327   0.263   4.319   2.530  2.9387  0.6954 -0.2365
 4140SOL    MW416328   0.251   4.321   2.616 -0.3108  0.0247 -0.5505
 4141SOL     OW16329   1.848   0.758   0.201  0.7356  0.1135 -0.2435
 4141SOL    HW216330   1.883   0.846   0.213  1.7077 -0.3014  0.1371
 4141SOL    HW316331   1.781   0.767   0.133  0.2907  1.2612  0.3226
 4141SOL    MW416332   1.844   0.771   0.194  0.8051  0.2102 -0.1186
 4142SOL     OW16333   6.438   3.588   4.215  0.3322 -0.7983 -0.3558
 4142SOL    HW216334   6.377   3.549   4.278 -0.6012 -0.4967 -1.0509
 4142SOL    HW316335   6.383   3.643   4.159  0.9081 -2.1183 -2.3154
 4142SOL    MW416336   6.423   3.590   4.216  0.2851 -0.9327 -0.7061
 4143SOL     OW16337   4.141   6.086   2.499  0.4278 -0.3939  0.2594
 4143SOL    HW216338   4.048   6.090   2.518  0.8472 -0.2358  2.5742
 4143SOL    HW316339   4.162   5.992   2.500  0.7009 -0.3489  2.2457
 4143SOL    MW416340   4.132   6.074   2.502  0.5192 -0.3671  0.8269
 4144SOL     OW16341   3.130   5.498   6.403  0.1812 -0.6202 -0.0749
 4144SOL    HW216342   3.176   5.478   6.484  1.5216  1.2397 -0.3083
 4144SOL    HW316343   3.192   5.474   6.334  0.4891  1.0374 -0.4188
 4144SOL    MW416344   3.144   5.492   6.404  0.3986 -0.1561 -0.1510
 4145SOL     OW16345   4.159   6.410   0.361  0.0168 -0.5489 -0.3104
 4145SOL    HW216346   4.161   6.501   0.392 -1.3247 -0.4074 -0.5897
 4145SOL    HW316347   4.066   6.389   0.355  0.2803 -2.7475  1.9708
 4145SOL    MW416348   4.147   6.419   0.364 -0.1255 -0.8203 -0.0463
 4146SOL     OW16349   2.609   4.564   4.489 -0.1110  0.3111  0.3928
 4146SOL    HW216350   2.613   4.468   4.491 -2.6706  0.1473  1.8300
 4146SOL    HW316351   2.570   4.584   4.404 -1.0480 -0.0485  0.7228
 4146SOL    MW416352   2.604   4.554   4.478 -0.5724  0.2420  0.6259
 4147SOL     OW16353   2.547   1.882   1.236 -0.4049  0.1356  0.5596
 4147SOL    HW216354   2.493   1.924   1.169 -2.0336 -0.1958  1.5983
 4147SOL    HW316355   2.512   1.793   1.242 -0.1398  0.0949  1.6759
 4147SOL    MW416356   2.535   1.876   1.228 -0.5848  0.0865  0.8439
 4148SOL     OW16357   2.694   6.127   2.960  0.0111 -0.4786  1.1188
 4148SOL    HW216358   2.749   6.052   2.938 -2.0208 -2.0671  1.2135
 4148SOL    HW316359   2.617   6.118   2.905 -0.1144  1.8469  0.8001
 4148SOL    MW416360   2.691   6.116   2.950 -0.2735 -0.3814  1.0892
 4149SOL     OW16361   1.739   3.297   3.041 -0.4868  0.7146 -0.6127
 4149SOL    HW216362   1.791   3.259   2.970 -0.4112  0.7101 -0.5554
 4149SOL    HW316363   1.773   3.255   3.120 -1.7993 -0.6408 -0.7416
 4149SOL    MW416364   1.751   3.286   3.042 -0.6500  0.5352 -0.6221
 4150SOL     OW16365   4.884   1.352   5.988 -0.1876 -0.0470  0.7290
 4150SOL    HW216366   4.926   1.311   6.064 -0.6155 -1.1776  0.3756
 4150SOL    HW316367   4.942   1.332   5.915  1.1514  2.5475  0.9932
 4150SOL    MW416368   4.897   1.344   5.988 -0.0674  0.1462  0.7172
 4151SOL     OW16369   1.091   3.425   5.015  0.7302  0.1736 -0.2941
 4151SOL    HW216370   1.126   3.369   4.945  0.8569 -2.9704  2.0547
 4151SOL    HW316371   0.998   3.403   5.019  0.6869  0.4595  0.3635
 4151SOL    MW416372   1.084   3.414   5.006  0.7412 -0.2035  0.1025
 4152SOL     OW16373   0.968   1.674   3.742 -0.3613 -0.0832 -0.1459
 4152SOL    HW216374   0.911   1.615   3.693 -0.5285 -0.7080  0.7945
 4152SOL    HW316375   0.923   1.759   3.738 -1.1046 -0.4543  0.1419
 4152SOL    MW416376   0.954   1.678   3.735 -0.4814 -0.2146  0.0162
 4153SOL     OW16377   2.314   1.947   6.012  0.6612 -0.1547 -0.0308
 4153SOL    HW216378   2.242   1.890   5.984 -1.1454  2.0345 -0.0791
 4153SOL    HW316379   2.333   2.002   5.936  1.3279  0.3556  0.4826
 4153SOL    MW416380   2.307   1.947   5.998  0.5108  0.2015  0.0306
 4154SOL     OW16381   0.478   4.430   5.227 -0.5298 -0.0249  0.0099
 4154SOL    HW216382   0.433   4.442   5.143 -0.6311  1.4238  0.2437
 4154SOL    HW316383   0.411   4.393   5.285 -0.3233 -1.4959 -0.6522
 4154SOL    MW416384   0.463   4.426   5.224 -0.5160 -0.0278 -0.0466
 4155SOL     OW16385   1.359   4.805   1.968  0.0685 -0.1245  0.0821
 4155SOL    HW216386   1.284   4.792   1.910 -0.1138 -0.2331  0.3399
 4155SOL    HW316387   1.331   4.873   2.029 -0.3322 -1.1033  1.0310
 4155SOL    MW416388   1.346   4.812   1.969 -0.0084 -0.2680  0.2413
 4156SOL     OW16389   4.827   0.068   4.667 -0.1461 -0.0048  0.2432
 4156SOL    HW216390   4.910   0.077   4.714  2.1264 -1.4589 -3.0864
 4156SOL    HW316391   4.838   0.123   4.589 -2.2191 -0.4995 -0.4638
 4156SOL    MW416392   4.840   0.077   4.663 -0.1198 -0.2619 -0.2894
 4157SOL     OW16393   0.366   2.231   1.062 -0.7779 -0.0532  0.5053
 4157SOL    HW216394   0.398   2.219   1.151 -0.6959  0.2124  0.5148
 4157SOL    HW316395   0.301   2.162   1.049 -1.0960  0.1646  0.9159
 4157SOL    MW416396   0.362   2.221   1.072 -0.8090  0.0106  0.5607
 4158SOL     OW16397   2.001   1.372   6.092 -0.1485 -0.1603  0.3155
 4158SOL    HW216398   1.948   1.299   6.126  2.0476 -1.6463  0.7573
 4158SOL    HW316399   1.937   1.440   6.072 -2.2658 -1.9777  0.4354
 4158SOL    MW416400   1.985   1.371   6.093 -0.1381 -0.5962  0.3896
 4159SOL     OW16401   0.973   2.125   1.113 -0.0388 -0.3913 -0.3692
 4159SOL    HW216402   1.004   2.208   1.078 -0.0271  0.6187  1.8712
 4159SOL    HW316403   1.047   2.065   1.103  0.9543  0.6510  0.5038
 4159SOL    MW416404   0.987   2.128   1.107  0.0938 -0.1205  0.0416
 4160SOL     OW16405   4.609   6.333   5.537 -0.4074 -0.4705 -0.0776
 4160SOL    HW216406   4.531   6.282   5.559  0.8991 -1.7785  1.8941
 4160SOL    HW316407   4.627   6.385   5.616  0.3218  0.3495 -0.7591
 4160SOL    MW416408   4.601   6.333   5.550 -0.1388 -0.5349  0.0926
 4161SOL     OW16409   2.369   1.858   3.637  0.4011  0.1266  0.0704
 4161SOL    HW216410   2.376   1.950   3.610  1.1635  0.1109  0.2064
 4161SOL    HW316411   2.302   1.858   3.705 -0.3059  0.4330 -0.6091
 4161SOL    MW416412   2.361   1.870   3.642  0.4084  0.1649 -0.0013
 4162SOL     OW16413   6.438   5.766   3.212 -0.1717 -0.1412 -0.6960
 4162SOL    HW216414   6.485   5.847   3.190 -0.1466 -0.2939 -1.2348
 4162SOL    HW316415   6.347   5.784   3.189 -0.1964 -0.2076 -0.6502
 4162SOL    MW416416   6.432   5.779   3.206 -0.1716 -0.1701 -0.7610
 4163SOL     OW16417   4.691   1.382   6.307  0.4143 -0.4641 -0.2347
 4163SOL    HW216418   4.603   1.403   6.275  0.1276  0.4416  1.0986
 4163SOL    HW316419   4.739   1.464   6.302  0.1429 -0.0784  2.2858
 4163SOL    MW416420   4.686   1.395   6.302  0.3407 -0.2937  0.2738
 4164SOL     OW16421   1.182   4.512   2.759 -0.3748 -0.2527  0.9623
 4164SOL    HW216422   1.209   4.572   2.829  0.8164  0.0094  0.2870
 4164SOL    HW316423   1.105   4.554   2.721  0.3734  0.8082  0.5747
 4164SOL    MW416424   1.175   4.526   2.763 -0.1189 -0.0781  0.8220
 4165SOL     OW16425   5.678   1.357   5.756 -0.0294 -0.2701  0.0734
 4165SOL    HW216426   5.697   1.277   5.805 -0.1735  0.2024  0.9283
 4165SOL    HW316427   5.611   1.331   5.693  2.0573 -1.5255 -1.7717
 4165SOL    MW416428   5.671   1.343   5.754  0.2269 -0.3734 -0.0573
 4166SOL     OW16429   1.560   0.517   3.753 -0.1000  0.1376 -0.5375
 4166SOL    HW216430   1.628   0.560   3.701  0.9376 -0.9036 -0.0909
 4166SOL    HW316431   1.587   0.425   3.755 -0.0446  0.1494  1.9170
 4166SOL    MW416432   1.573   0.510   3.746  0.0442  0.0018 -0.1547
 4167SOL     OW16433   1.850   0.177   2.504  0.3141 -0.1845  0.3281
 4167SOL    HW216434   1.905   0.159   2.580  0.3757 -1.1326  0.0694
 4167SOL    HW316435   1.761   0.178   2.540  0.4341  0.6104  0.6185
 4167SOL    MW416436   1.845   0.175   2.519  0.3381 -0.2047  0.3323
 4168SOL     OW16437   3.183   4.005   3.872  0.4267 -0.0049 -0.2122
 4168SOL    HW216438   3.220   4.074   3.816  1.3110 -1.9303 -2.1556
 4168SOL    HW316439   3.242   4.001   3.947  0.5999  1.0522 -0.2786
 4168SOL    MW416440   3.196   4.014   3.875  0.5662 -0.1195 -0.4774
 4169SOL     OW16441   4.634   0.531   4.998  0.7220 -0.0757  0.1422
 4169SOL    HW216442   4.695   0.523   5.071  0.6149 -1.4194  0.1124
 4169SOL    HW316443   4.616   0.440   4.972 -0.0911  0.3494 -0.8390
 4169SOL    MW416444   4.640   0.518   5.004  0.6006 -0.1969  0.0088
 4170SOL     OW16445   1.462   3.087   5.650  0.1848  0.3136  0.5956
 4170SOL    HW216446   1.519   3.011   5.666  0.3200  0.2223 -0.2793
 4170SOL    HW316447   1.475   3.143   5.726 -0.1893 -0.7038  1.4417
 4170SOL    MW416448   1.471   3.084   5.662  0.1533  0.1673  0.5918
 4171SOL     OW16449   4.079   0.257   2.313  0.3007 -0.1055  0.1183
 4171SOL    HW216450   4.049   0.326   2.372  2.1549  0.1463  0.8109
 4171SOL    HW316451   4.059   0.175   2.359 -1.2212 -0.0567 -0.3821
 4171SOL    MW416452   4.072   0.255   2.327  0.3446 -0.0659  0.1436
 4172SOL     OW16453   0.047   2.872   1.557 -0.2513  0.1715 -0.4166
 4172SOL    HW216454   0.017   2.781   1.549 -0.0805  0.1804 -1.2642
 4172SOL    HW316455   0.139   2.870   1.530 -0.6135  0.8137 -1.7696
 4172SOL    MW416456   0.055   2.860   1.552 -0.2765  0.2574 -0.7070
 4173SOL     OW16457   4.644   0.961   4.474 -0.7683  0.0839 -0.5808
 4173SOL    HW216458   4.609   0.911   4.548  0.3087  0.2479  0.0582
 4173SOL    HW316459   4.681   1.040   4.514 -0.1238  0.1464 -1.2832
 4173SOL    MW416460   4.644   0.965   4.489 -0.5412  0.1138 -0.5892
 4174SOL     OW16461   5.104   4.801   0.604  0.4414 -0.3952 -0.1765
 4174SOL    HW216462   5.125   4.707   0.601 -1.3744 -0.8331 -0.4073
 4174SOL    HW316463   5.013   4.806   0.575  0.1570  1.3394  0.8748
 4174SOL    MW416464   5.095   4.789   0.600  0.1643 -0.2241 -0.0682
 4175SOL     OW16465   2.660   3.412   1.418 -0.0622 -0.0884 -0.2390
 4175SOL    HW216466   2.700   3.375   1.497  0.3120  0.7958  0.0010
 4175SOL    HW316467   2.729   3.465   1.379 -0.5510  0.2799 -0.6188
 4175SOL    MW416468   2.674   3.414   1.424 -0.0773  0.0769 -0.2575
 4176SOL     OW16469   3.140   2.388   2.568 -0.1252  0.0645  0.0483
 4176SOL    HW216470   3.084   2.313   2.591 -0.3425  0.1923 -0.0581
 4176SOL    HW316471   3.167   2.424   2.652 -1.5639  1.0181  0.1444
 4176SOL    MW416472   3.136   2.383   2.582 -0.3437  0.2072  0.0470
 4177SOL     OW16473   2.562   2.364   4.206  0.2175 -0.2045 -0.5266
 4177SOL    HW216474   2.627   2.361   4.137 -1.3607  1.1601 -2.1648
 4177SOL    HW316475   2.539   2.457   4.214 -0.5672 -0.4876  0.9273
 4177SOL    MW416476   2.567   2.376   4.198 -0.0942 -0.0618 -0.5509
 4178SOL     OW16477   3.290   0.047   5.817  0.0790  0.0304 -0.2315
 4178SOL    HW216478   3.261   0.138   5.819  0.6593  0.2205  1.1260
 4178SOL    HW316479   3.213  -0.003   5.792 -0.5375  0.8023  0.0912
 4178SOL    MW416480   3.276   0.052   5.814  0.0742  0.1573 -0.0098
 4179SOL     OW16481   3.966   5.521   2.442 -0.3739  0.0810 -0.2717
 4179SOL    HW216482   3.976   5.593   2.504 -0.7623  1.1784 -1.4433
 4179SOL    HW316483   3.894   5.548   2.385  0.0576 -0.8284 -1.2855
 4179SOL    MW416484   3.958   5.534   2.443 -0.3682  0.1058 -0.5600
 4180SOL     OW16485   0.304   5.438   3.103  0.0493 -0.2746  0.1668
 4180SOL    HW216486   0.388   5.465   3.066  0.7641  0.0061  1.9169
 4180SOL    HW316487   0.310   5.343   3.111  0.6445 -0.1547  1.2805
 4180SOL    MW416488   0.316   5.429   3.099  0.2221 -0.2218  0.5446
 4181SOL     OW16489   1.782   0.304   6.157  0.0417 -0.3001  0.2554
 4181SOL    HW216490   1.762   0.249   6.232 -0.3849  0.4341  0.6914
 4181SOL    HW316491   1.772   0.246   6.081  0.3604 -1.0148  0.7470
 4181SOL    MW416492   1.778   0.289   6.157  0.0275 -0.2975  0.3778
 4182SOL     OW16493   5.399   5.355   0.692 -0.3740 -0.2210 -0.3623
 4182SOL    HW216494   5.375   5.442   0.660  0.9834  0.6507  0.8955
 4182SOL    HW316495   5.494   5.351   0.683 -0.4146 -1.6055 -0.4387
 4182SOL    MW416496   5.408   5.366   0.686 -0.2002 -0.2887 -0.2064
 4183SOL     OW16497   2.678   1.594   4.398 -0.0428  0.1477 -0.5215
 4183SOL    HW216498   2.763   1.629   4.427 -0.6806  0.3379  1.2413
 4183SOL    HW316499   2.668   1.628   4.309 -0.1016  3.6222  0.6366
 4183SOL    MW416500   2.688   1.603   4.390 -0.1347  0.6312 -0.1361
 4184SOL     OW16501   3.161   6.194   1.506  0.1453  0.0815  0.2335
 4184SOL    HW216502   3.236   6.248   1.481  0.3947  0.3891  1.5568
 4184SOL    HW316503   3.144   6.218   1.597 -0.3261 -1.4090  0.5646
 4184SOL    MW416504   3.169   6.205   1.514  0.1160 -0.0746  0.4518
 4185SOL     OW16505   5.416   2.343   0.148 -0.0994  0.2846 -0.1962
 4185SOL    HW216506   5.331   2.346   0.105 -0.2708  1.0733  0.1707
 4185SOL    HW316507   5.418   2.422   0.203  0.0956 -0.6693  1.2400
 4185SOL    MW416508   5.405   2.353   0.150 -0.0963  0.2628  0.0417
 4186SOL     OW16509   1.214   0.587   4.574 -0.1602  0.7414 -0.1141
 4186SOL    HW216510   1.291   0.596   4.518 -0.8789  3.5962 -0.8101
 4186SOL    HW316511   1.155   0.531   4.524  0.5410  0.4525 -0.6325
 4186SOL    MW416512   1.216   0.581   4.560 -0.1625  1.0799 -0.2743
 4187SOL     OW16513   4.078   4.511   0.707 -0.0923  0.4941  0.1082
 4187SOL    HW216514   4.097   4.432   0.656 -0.3672  1.3120 -1.3097
 4187SOL    HW316515   4.076   4.582   0.643 -0.6564  1.5443  1.2314
 4187SOL    MW416516   4.080   4.510   0.692 -0.2030  0.7405  0.0693
 4188SOL     OW16517   5.068   2.540   5.860  0.4603  0.5098 -0.5846
 4188SOL    HW216518   5.112   2.474   5.914 -1.0932 -0.9844 -1.0476
 4188SOL    HW316519   5.121   2.543   5.780  1.3533  0.8925  0.0083
 4188SOL    MW416520   5.081   2.531   5.856  0.3732  0.3632 -0.5674
 4189SOL     OW16521   1.505   3.621   2.263  0.1838 -0.9766  0.1631
 4189SOL    HW216522   1.456   3.656   2.188  1.0705 -1.7101 -0.7834
 4189SOL    HW316523   1.480   3.529   2.268 -0.4768 -0.7548  1.2885
 4189SOL    MW416524   1.495   3.614   2.254  0.2136 -1.0441  0.1867
 4190SOL     OW16525   1.212   3.468   4.521  0.1003  0.2192  0.1054
 4190SOL    HW216526   1.213   3.430   4.609  0.4119  1.2007  0.5483
 4190SOL    HW316527   1.215   3.563   4.536  1.1653  0.3850 -0.9698
 4190SOL    MW416528   1.213   3.476   4.534  0.2819  0.3706  0.0219
 4191SOL     OW16529   3.310   3.121   2.224 -0.0517 -0.2897 -0.3509
 4191SOL    HW216530   3.243   3.058   2.250 -0.0353  0.0409  0.5166
 4191SOL    HW316531   3.358   3.077   2.154  0.0933 -1.3389  0.3890
 4191SOL    MW416532   3.308   3.107   2.218 -0.0304 -0.3845 -0.1388
 4192SOL     OW16533   0.418   1.263   5.084  0.3291 -0.1512  0.1661
 4192SOL    HW216534   0.407   1.333   5.148 -0.6157 -1.3596  1.3754
 4192SOL    HW316535   0.455   1.191   5.134  2.3937 -0.1929 -1.3005
 4192SOL    MW416536   0.422   1.263   5.099  0.4769 -0.3161  0.1321
 4193SOL     OW16537   0.989   4.340   0.219  0.5808  0.1718 -0.1419
 4193SOL    HW216538   1.045   4.290   0.159 -0.1336  0.1622 -0.8317
 4193SOL    HW316539   0.900   4.326   0.185  0.1958  0.4863  0.7047
 4193SOL    MW416540   0.984   4.332   0.206  0.4358  0.2120 -0.1212
 4194SOL     OW16541   4.044   0.071   2.098  0.0698  0.3892  0.4077
 4194SOL    HW216542   4.070   0.145   2.152  0.8280  1.1777 -0.9585
 4194SOL    HW316543   3.950   0.083   2.084  0.4429  2.1024 -1.1438
 4194SOL    MW416544   4.035   0.082   2.103  0.2191  0.7192  0.0228
 4195SOL     OW16545   2.699   1.734   5.276  0.0187  0.2522 -0.2839
 4195SOL    HW216546   2.605   1.751   5.267 -0.1349 -0.9232 -1.1479
 4195SOL    HW316547   2.739   1.821   5.281 -1.1170  0.7611  0.1595
 4195SOL    MW416548   2.692   1.747   5.275 -0.1514  0.1643 -0.3394
 4196SOL     OW16549   2.633   5.730   1.468  0.8669  0.3004 -0.2773
 4196SOL    HW216550   2.644   5.812   1.516  0.6619 -0.8300  1.7784
 4196SOL    HW316551   2.573   5.753   1.397 -0.4319  1.6098  1.1634
 4196SOL    MW416552   2.627   5.744   1.465  0.6685  0.3240  0.1840
 4197SOL     OW16553   0.218   1.775   4.687 -0.3101  0.0067 -0.3698
 4197SOL    HW216554   0.310   1.777   4.711 -0.3884  0.9017 -0.1333
 4197SOL    HW316555   0.217   1.767   4.592  0.0041  0.2996 -0.3939
 4197SOL    MW416556   0.230   1.774   4.678 -0.2790  0.1635 -0.3418
 4198SOL     OW16557   4.280   0.675   6.123 -0.4482  0.0250  0.0561
 4198SOL    HW216558   4.270   0.768   6.101 -4.0801 -0.2300  0.0717
 4198SOL    HW316559   4.246   0.629   6.046  3.2867 -1.5193 -0.8996
 4198SOL    MW416560   4.274   0.682   6.110 -0.4346 -0.2124 -0.0680
 4199SOL     OW16561   0.480   0.461   4.086  0.2631  0.2229  0.0603
 4199SOL    HW216562   0.446   0.551   4.077  0.6237  0.3185 -0.4022
 4199SOL    HW316563   0.562   0.472   4.134  1.2481  0.3723 -1.5615
 4199SOL    MW416564   0.487   0.475   4.091  0.4406  0.2552 -0.2147
 4200SOL     OW16565   0.460   4.516   2.748 -0.6768  0.5142 -0.1067
 4200SOL    HW216566   0.493   4.548   2.664  1.3652  0.1917  0.5118
 4200SOL    HW316567   0.393   4.452   2.725  0.5866 -0.3478 -1.5487
 4200SOL    MW416568   0.456   4.511   2.734 -0.2407  0.3579 -0.2154
 4201SOL     OW16569   1.439   1.098   3.124  0.7471  0.2381  0.1737
 4201SOL    HW216570   1.396   1.183   3.124  1.7885  0.7746 -0.1229
 4201SOL    HW316571   1.438   1.070   3.032  1.3851  0.4388  0.1030
 4201SOL    MW416572   1.433   1.105   3.112  0.9687  0.3354  0.1252
 4202SOL     OW16573   1.686   6.045   5.914 -0.0577 -0.0164 -0.1647
 4202SOL    HW216574   1.774   6.070   5.943  0.4757 -3.1313  1.3280
 4202SOL    HW316575   1.674   6.091   5.831  3.0369  0.4212 -0.4832
 4202SOL    MW416576   1.696   6.055   5.907  0.4210 -0.3697 -0.0098
 4203SOL     OW16577   4.522   6.382   6.299  0.0393  0.4217  0.0221
 4203SOL    HW216578   4.517   6.475   6.321 -0.4771 -0.1629  2.8285
 4203SOL    HW316579   4.608   6.354   6.332 -0.2091 -0.2965  0.0786
 4203SOL    MW416580   4.533   6.391   6.306 -0.0616  0.2498  0.3999
 4204SOL     OW16581   0.821   1.316   3.919 -0.2220  0.1945 -0.8958
 4204SOL    HW216582   0.837   1.304   3.825 -0.5747  0.2238 -0.9611
 4204SOL    HW316583   0.907   1.309   3.959 -0.2403 -1.3190 -1.0601
 4204SOL    MW416584   0.834   1.313   3.912 -0.2709 -0.0014 -0.9261
 4205SOL     OW16585   5.843   1.286   0.623  0.1273 -0.5995  0.3397
 4205SOL    HW216586   5.792   1.242   0.692  2.5599 -2.1809  1.3069
 4205SOL    HW316587   5.830   1.231   0.546 -1.2359  0.1931 -0.0174
 4205SOL    MW416588   5.835   1.273   0.622  0.2684 -0.7035  0.4202
 4206SOL     OW16589   2.420   0.244   0.419  0.5831  0.1099  0.3329
 4206SOL    HW216590   2.457   0.183   0.484 -0.7075 -1.2255 -0.1144
 4206SOL    HW316591   2.408   0.190   0.341  3.0003  1.9035 -1.4199
 4206SOL    MW416592   2.423   0.229   0.418  0.7317  0.1704  0.0426
 4207SOL     OW16593   5.773   3.316   0.732  0.0087 -0.1742  0.3166
 4207SOL    HW216594   5.751   3.398   0.776  0.4319 -0.0121  0.2329
 4207SOL    HW316595   5.765   3.249   0.800 -1.4867 -0.2415  0.1115
 4207SOL    MW416596   5.769   3.318   0.746 -0.1328 -0.1617  0.2785
 4208SOL     OW16597   4.986   2.300   3.079  0.1944  0.0932  0.0719
 4208SOL    HW216598   4.964   2.351   3.000 -2.6886  1.6412  1.6956
 4208SOL    HW316599   4.920   2.231   3.082  1.0010 -0.6762  0.5544
 4208SOL    MW416600   4.974   2.298   3.069 -0.0795  0.1959  0.3498
 4209SOL     OW16601   2.015   2.039   1.020 -0.0936  0.2831 -0.2793
 4209SOL    HW216602   2.012   2.009   0.929  1.2926 -1.6926  0.2630
 4209SOL    HW316603   1.924   2.029   1.051 -0.5633  0.9185 -1.3892
 4209SOL    MW416604   2.002   2.033   1.012  0.0273  0.1062 -0.3542
 4210SOL     OW16605   1.364   4.795   1.279 -0.1317  0.2098  0.3360
 4210SOL    HW216606   1.355   4.889   1.292  0.4834  0.3313 -0.0860
 4210SOL    HW316607   1.274   4.762   1.277 -0.4673  1.1078 -1.8504
 4210SOL    MW416608   1.351   4.803   1.281 -0.0948  0.3443 -0.0081
 4211SOL     OW16609   2.385   2.748   1.761  0.4990 -0.1262  0.3137
 4211SOL    HW216610   2.302   2.794   1.777 -0.6606 -2.6524  2.3447
 4211SOL    HW316611   2.395   2.751   1.665 -1.8440  0.4491  0.0019
 4211SOL    MW416612   2.375   2.755   1.750  0.0369 -0.3836  0.5405
 4212SOL     OW16613   0.208   3.844   5.523 -0.2860 -0.5345 -0.1670
 4212SOL    HW216614   0.113   3.857   5.534 -0.0702  0.4660  0.6952
 4212SOL    HW316615   0.241   3.932   5.505  0.7036 -0.5883  1.2894
 4212SOL    MW416616   0.200   3.858   5.522 -0.1270 -0.4096  0.1389
 4213SOL     OW16617   2.687   3.256   0.823  0.0467  0.3129 -0.3674
 4213SOL    HW216618   2.648   3.310   0.754  0.9411  0.6490 -0.6259
 4213SOL    HW316619   2.656   3.294   0.904 -0.1812  0.5623 -0.5708
 4213SOL    MW416620   2.678   3.268   0.824  0.1346  0.3902 -0.4284
 4214SOL     OW16621   2.010   2.607   1.221 -0.0506 -0.4542  0.1924
 4214SOL    HW216622   1.915   2.608   1.208 -0.1739 -0.3385  1.0495
 4214SOL    HW316623   2.046   2.625   1.134 -0.7766 -1.9085 -0.4589
 4214SOL    MW416624   2.002   2.609   1.208 -0.1627 -0.6308  0.2195
 4215SOL     OW16625   3.860   2.128   1.398  0.2268 -0.2118 -0.2328
 4215SOL    HW216626   3.901   2.071   1.464 -0.4141 -2.5722 -1.7683
 4215SOL    HW316627   3.931   2.147   1.337  0.2701  0.0508 -0.1010
 4215SOL    MW416628   3.875   2.123   1.399  0.1480 -0.4886 -0.4180
 4216SOL     OW16629   5.126   4.562   2.301 -0.1888  0.1384  0.5462
 4216SOL    HW216630   5.076   4.642   2.318  1.9702  1.9734 -1.0360
 4216SOL    HW316631   5.213   4.581   2.336  0.7916 -0.8778 -1.2110
 4216SOL    MW416632   5.131   4.575   2.307  0.2254  0.2464  0.1056
 4217SOL     OW16633   3.154   3.039   5.111 -0.3651  0.2666 -0.2042
 4217SOL    HW216634   3.062   3.031   5.136 -0.5934  2.3859 -0.2281
 4217SOL    HW316635   3.154   3.100   5.038  0.9131 -1.1124 -1.4366
 4217SOL    MW416636   3.142   3.046   5.105 -0.2266  0.3643 -0.3699
 4218SOL     OW16637   4.729   5.194   0.956 -0.9441 -0.6031 -0.1921
 4218SOL    HW216638   4.674   5.270   0.936  2.7434  2.6516  0.8320
 4218SOL    HW316639   4.779   5.177   0.876  0.0489 -0.2596  0.3411
 4218SOL    MW416640   4.728   5.202   0.943 -0.3265 -0.1284  0.0133
 4219SOL     OW16641   2.529   5.804   4.699  0.2456 -0.1583 -0.1629
 4219SOL    HW216642   2.575   5.734   4.653  0.4296 -0.4128  0.4088
 4219SOL    HW316643   2.598   5.863   4.730  0.0546  0.7467 -1.3688
 4219SOL    MW416644   2.544   5.803   4.697  0.2446 -0.0725 -0.2465
 4220SOL     OW16645   4.363   5.316   4.966 -0.0861 -0.2065  0.5915
 4220SOL    HW216646   4.345   5.254   5.037 -1.1822 -0.1285  0.3997
 4220SOL    HW316647   4.378   5.399   5.011 -0.2254 -0.2742  0.7666
 4220SOL    MW416648   4.362   5.319   4.982 -0.2491 -0.2051  0.5893
 4221SOL     OW16649   3.707   0.109   2.952 -0.5259  0.4718  0.1686
 4221SOL    HW216650   3.763   0.169   2.902 -2.1043  0.3077 -1.9418
 4221SOL    HW316651   3.620   0.150   2.950 -1.4319 -1.3716 -0.4776
 4221SOL    MW416652   3.703   0.123   2.945 -0.8537  0.2069 -0.1951
 4222SOL     OW16653   4.048   0.457   4.611 -0.0970  0.1330  0.0283
 4222SOL    HW216654   4.126   0.404   4.630  0.4314  1.0176  0.3816
 4222SOL    HW316655   3.990   0.397   4.563 -0.3988 -1.4160  2.1801
 4222SOL    MW416656   4.051   0.442   4.607 -0.0671  0.0453  0.3589
 4223SOL     OW16657   5.074   1.952   2.292 -0.0893  0.1604  0.0512
 4223SOL    HW216658   5.029   1.993   2.366 -0.6574  0.4334 -0.4420
 4223SOL    HW316659   5.004   1.908   2.242  0.2678  0.1043 -0.4091
 4223SOL    MW416660   5.058   1.951   2.295 -0.1171  0.1890 -0.0746
 4224SOL     OW16661   5.401   0.927   4.883 -0.1520 -0.2671  0.4800
 4224SOL    HW216662   5.473   0.990   4.877  0.4102 -0.8933  0.4831
 4224SOL    HW316663   5.401   0.898   4.974 -0.2134 -0.4824  0.4144
 4224SOL    MW416664   5.411   0.931   4.894 -0.0859 -0.3781  0.4717
 4225SOL     OW16665   1.533   3.128   5.383  0.1513  0.5994 -0.3287
 4225SOL    HW216666   1.512   3.040   5.352  1.5156 -0.2421  0.9755
 4225SOL    HW316667   1.514   3.126   5.476 -0.4801  1.9389 -0.4038
 4225SOL    MW416668   1.528   3.117   5.391  0.2480  0.6651 -0.1665
 4226SOL     OW16669   1.419   1.245   5.062 -0.3583 -0.4486  0.3336
 4226SOL    HW216670   1.479   1.213   4.995  0.5382  0.1339  0.8355
 4226SOL    HW316671   1.397   1.167   5.113 -1.2442 -0.9450 -0.7531
 4226SOL    MW416672   1.424   1.230   5.060 -0.3569 -0.4372  0.2564
 4227SOL     OW16673   4.995   2.579   0.737 -0.0421  0.0725 -0.0684
 4227SOL    HW216674   4.999   2.644   0.667 -1.4828  0.4391  0.1464
 4227SOL    HW316675   4.902   2.576   0.762  0.4120 -0.1111  1.7653
 4227SOL    MW416676   4.983   2.587   0.731 -0.1723  0.0966  0.2019
 4228SOL     OW16677   5.084   1.647   1.930  0.0566  0.4003  0.2724
 4228SOL    HW216678   5.056   1.637   2.021 -1.3544 -0.3695 -0.2111
 4228SOL    HW316679   5.172   1.609   1.928 -0.0226  0.1263  1.2513
 4228SOL    MW416680   5.092   1.641   1.942 -0.1400  0.2626  0.3378
 4229SOL     OW16681   3.646   3.612   3.749  0.8631 -0.8475  0.4181
 4229SOL    HW216682   3.668   3.531   3.796  0.3058 -1.1597  0.1614
 4229SOL    HW316683   3.717   3.624   3.686 -0.5456 -2.8755 -1.7341
 4229SOL    MW416684   3.658   3.603   3.747  0.6037 -1.1563  0.1003
 4230SOL     OW16685   2.700   2.159   3.166 -0.1828 -0.3684 -0.0439
 4230SOL    HW216686   2.628   2.192   3.113 -0.1789  0.9457  0.7411
 4230SOL    HW316687   2.666   2.079   3.207 -1.4260  0.5857  0.8346
 4230SOL    MW416688   2.686   2.153   3.164 -0.3463 -0.0691  0.1755
 4231SOL     OW16689   1.069   6.083   1.848  0.1396 -0.1128  0.1753
 4231SOL    HW216690   1.138   6.143   1.876 -0.4906  0.9242 -0.4377
 4231SOL    HW316691   1.006   6.083   1.920 -0.6239  1.2073 -0.4475
 4231SOL    MW416692   1.070   6.091   1.861 -0.0443  0.1982  0.0123
 4232SOL     OW16693   0.311   4.994   5.502  0.1547  0.2135  0.7948
 4232SOL    HW216694   0.323   4.995   5.597  0.1888 -1.8180  0.8493
 4232SOL    HW316695   0.243   4.928   5.487 -0.7326  1.3541 -0.5356
 4232SOL    MW416696   0.303   4.986   5.513  0.0421  0.0960  0.6264
 4233SOL     OW16697   2.083   5.635   1.474 -0.2377  0.1474  0.3341
 4233SOL    HW216698   2.051   5.722   1.498 -0.3807  0.8511 -2.0954
 4233SOL    HW316699   2.064   5.580   1.550 -2.7984  1.5968  0.8521
 4233SOL    MW416700   2.076   5.639   1.487 -0.5944  0.4315  0.0819
 4234SOL     OW16701   5.711   3.212   4.042  0.2680  0.8714  0.3671
 4234SOL    HW216702   5.628   3.239   4.082  0.4817  1.2510  0.5518
 4234SOL    HW316703   5.736   3.286   3.987 -0.2135  0.2120 -0.7854
 4234SOL    MW416704   5.703   3.225   4.040  0.2327  0.8345  0.2394
 4235SOL     OW16705   3.036   2.341   1.958 -0.1686  0.6536  0.7122
 4235SOL    HW216706   2.963   2.357   1.899 -1.7383 -0.1289  2.3649
 4235SOL    HW316707   3.048   2.424   2.005  0.5577  1.0257 -0.0984
 4235SOL    MW416708   3.028   2.354   1.957 -0.2799  0.5995  0.8233
 4236SOL     OW16709   5.873   1.164   5.328 -0.1532 -0.5372 -0.1676
 4236SOL    HW216710   5.803   1.146   5.390 -1.4846 -2.4488 -2.0805
 4236SOL    HW316711   5.832   1.215   5.259  0.3387 -1.5370 -1.2400
 4236SOL    MW416712   5.859   1.168   5.327 -0.2640 -0.9213 -0.5615
 4237SOL     OW16713   4.156   0.141   4.668  0.1409 -0.4099  0.0574
 4237SOL    HW216714   4.148   0.048   4.648 -1.2225  0.1974 -2.7372
 4237SOL    HW316715   4.096   0.155   4.742  1.2990 -1.8911  1.3436
 4237SOL    MW416716   4.147   0.131   4.675  0.1138 -0.5252 -0.1416
 4238SOL     OW16717   6.284   3.620   1.937  0.2051  0.1515 -0.4109
 4238SOL    HW216718   6.295   3.536   1.981  0.3588 -0.8129 -2.1763
 4238SOL    HW316719   6.190   3.625   1.918  0.4255 -0.4585 -1.7928
 4238SOL    MW416720   6.273   3.609   1.940  0.2544 -0.0563 -0.8261
 4239SOL     OW16721   0.633   5.924   1.333 -0.2806 -0.4683 -0.1384
 4239SOL    HW216722   0.566   5.961   1.390 -0.5520  0.4738 -1.0169
 4239SOL    HW316723   0.716   5.942   1.378 -0.6182 -2.7717  1.5787
 4239SOL    MW416724   0.635   5.932   1.346 -0.3610 -0.6479 -0.0278
 4240SOL     OW16725   3.660   2.258   0.499 -0.4037 -0.1888 -0.0784
 4240SOL    HW216726   3.638   2.184   0.555 -0.1659  0.9157  1.5582
 4240SOL    HW316727   3.597   2.254   0.427 -1.6072 -0.8861  0.9902
 4240SOL    MW416728   3.649   2.248   0.497 -0.5311 -0.1351  0.2786
 4241SOL     OW16729   2.373   6.272   5.868 -0.1361 -0.0017  0.1124
 4241SOL    HW216730   2.289   6.243   5.904  0.8565  0.0137  2.6521
 4241SOL    HW316731   2.367   6.367   5.865 -1.5608 -0.0549 -3.4991
 4241SOL    MW416732   2.361   6.281   5.873 -0.1931 -0.0067 -0.0290
 4242SOL     OW16733   3.598   4.888   5.818  0.1193 -0.0882  0.1150
 4242SOL    HW216734   3.669   4.891   5.882  0.5121 -1.5143 -0.2157
 4242SOL    HW316735   3.556   4.974   5.824 -0.4597 -0.4894  2.9695
 4242SOL    MW416736   3.601   4.900   5.827  0.0947 -0.3293  0.4480
 4243SOL     OW16737   5.102   0.107   5.302  0.2381  0.0032  0.1116
 4243SOL    HW216738   5.095   0.034   5.241 -0.0431  0.7910 -0.8244
 4243SOL    HW316739   5.170   0.163   5.265 -0.1029  0.6102  0.3861
 4243SOL    MW416740   5.110   0.105   5.289  0.1560  0.1872  0.0243
 4244SOL     OW16741   2.252   1.047   1.479  0.1990 -0.1167  0.6026
 4244SOL    HW216742   2.266   1.138   1.504 -2.5158  0.3511  0.7300
 4244SOL    HW316743   2.177   1.019   1.531  0.9131 -2.4256  0.4972
 4244SOL    MW416744   2.244   1.055   1.489 -0.0650 -0.3596  0.6055
 4245SOL     OW16745   0.367   4.560   1.415  0.2065 -0.1510  1.2530
 4245SOL    HW216746   0.396   4.579   1.327  0.7154 -1.7600  1.0381
 4245SOL    HW316747   0.276   4.591   1.418  0.0673 -0.4017  0.0445
 4245SOL    MW416748   0.359   4.567   1.404  0.2553 -0.3964  1.0652
 4246SOL     OW16749   5.028   5.341   3.525  0.1290 -0.3833  0.6667
 4246SOL    HW216750   5.050   5.323   3.617 -0.5820  0.3043  0.9805
 4246SOL    HW316751   4.932   5.341   3.523  0.0956  1.5380  0.3375
 4246SOL    MW416752   5.018   5.339   3.537  0.0308 -0.0391  0.6647
 4247SOL     OW16753   0.662   0.976   5.764 -0.1327 -0.0316  0.1889
 4247SOL    HW216754   0.594   0.999   5.827 -1.4294 -2.2076 -0.3222
 4247SOL    HW316755   0.713   1.057   5.754 -3.1810  2.0387 -0.1071
 4247SOL    MW416756   0.660   0.990   5.771 -0.7060 -0.0456  0.0824
 4248SOL     OW16757   0.159   5.115   0.131 -0.4300  0.2159 -0.6213
 4248SOL    HW216758   0.198   5.202   0.130  0.3498 -0.0467  1.5909
 4248SOL    HW316759   0.077   5.125   0.084  0.0462  1.9354 -1.1603
 4248SOL    MW416760   0.154   5.127   0.125 -0.2643  0.4081 -0.4006
 4249SOL     OW16761   0.292   5.065   3.872 -0.0930  0.0660  0.3722
 4249SOL    HW216762   0.255   5.135   3.924  2.0510  1.2025  0.4590
 4249SOL    HW316763   0.359   5.107   3.818  0.8063 -1.8029 -0.0614
 4249SOL    MW416764   0.296   5.080   3.872  0.3085 -0.0306  0.3265
 4250SOL     OW16765   4.906   0.590   1.483 -0.2851 -0.2532 -0.4805
 4250SOL    HW216766   4.948   0.584   1.397 -1.1529 -0.4164 -0.9122
 4250SOL    HW316767   4.905   0.684   1.502  0.9213 -0.3029 -0.1185
 4250SOL    MW416768   4.911   0.601   1.474 -0.2404 -0.2813 -0.4897
 4251SOL     OW16769   3.035   2.460   4.502  0.1011 -0.1082 -0.3022
 4251SOL    HW216770   2.966   2.488   4.562  1.0257 -0.3811  0.9362
 4251SOL    HW316771   3.095   2.534   4.498 -0.6318  0.4435 -2.0146
 4251SOL    MW416772   3.034   2.474   4.509  0.1264 -0.0714 -0.3648
 4252SOL     OW16773   3.187   3.197   1.026 -0.2723  0.2958 -0.6916
 4252SOL    HW216774   3.268   3.169   0.983 -1.0182 -2.5386 -0.4295
 4252SOL    HW316775   3.215   3.223   1.114  0.3224 -1.0815 -0.4584
 4252SOL    MW416776   3.202   3.197   1.032 -0.2923 -0.2599 -0.6263
 4253SOL     OW16777   3.364   5.211   0.580  0.0578 -0.0168 -0.5430
 4253SOL    HW216778   3.322   5.143   0.633  0.3767  0.5372  0.4359
 4253SOL    HW316779   3.292   5.269   0.555  0.3643  1.7914  2.4105
 4253SOL    MW416780   3.349   5.209   0.583  0.1403  0.2948 -0.0242
 4254SOL     OW16781   2.280   4.831   1.648  0.4879 -0.1261 -0.0362
 4254SOL    HW216782   2.188   4.857   1.654  1.2026  2.4473  1.0824
 4254SOL    HW316783   2.321   4.899   1.593  1.9421 -0.5397  0.4745
 4254SOL    MW416784   2.274   4.843   1.641  0.7741  0.1588  0.1788
 4255SOL     OW16785   1.830   5.424   2.537 -0.5576 -0.0179 -0.0505
 4255SOL    HW216786   1.833   5.374   2.618  0.7863  0.7792  0.4112
 4255SOL    HW316787   1.877   5.370   2.473  0.2823  0.3222  0.2692
 4255SOL    MW416788   1.836   5.410   2.539 -0.2695  0.1321  0.0526
 4256SOL     OW16789   2.035   1.955   0.735 -0.4193  0.1949 -0.0327
 4256SOL    HW216790   1.993   1.935   0.651  0.2651  0.3090 -0.4113
 4256SOL    HW316791   2.084   2.036   0.719 -0.4348  0.3221  0.5326
 4256SOL    MW416792   2.036   1.963   0.722 -0.3311  0.2267 -0.0081
 4257SOL     OW16793   5.720   0.049   2.103  0.0672 -0.4165 -0.0894
 4257SOL    HW216794   5.781   0.105   2.150  0.1549  0.4345 -1.1698
 4257SOL    HW316795   5.714   0.088   2.016 -1.7584 -0.6618 -0.1131
 4257SOL    MW416796   5.727   0.061   2.098 -0.1621 -0.3366 -0.2351
 4258SOL     OW16797   1.782   0.941   2.093 -0.6064 -0.0310 -0.3477
 4258SOL    HW216798   1.842   0.974   2.026 -1.2482 -0.9292 -1.3983
 4258SOL    HW316799   1.697   0.978   2.070 -0.6336  0.5935  0.6723
 4258SOL    MW416800   1.779   0.951   2.081 -0.6946 -0.0671 -0.3517
 4259SOL     OW16801   5.570   5.010   0.745  0.1879 -0.1796  0.6053
 4259SOL    HW216802   5.491   4.974   0.704  0.3909 -1.2829  1.1425
 4259SOL    HW316803   5.641   4.957   0.709  0.5892  0.2152  0.8143
 4259SOL    MW416804   5.569   4.998   0.735  0.2676 -0.2731  0.7038
 4260SOL     OW16805   5.313   3.692   5.952  0.1085 -0.5870  0.3296
 4260SOL    HW216806   5.317   3.785   5.928 -0.7684 -0.5425  0.3269
 4260SOL    HW316807   5.344   3.646   5.874  1.4054 -0.2759  0.6361
 4260SOL    MW416808   5.318   3.698   5.938  0.1639 -0.5401  0.3697
 4261SOL     OW16809   4.385   2.776   0.614  0.8686  0.0441 -0.8731
 4261SOL    HW216810   4.307   2.809   0.569  0.7172  0.3094 -0.4237
 4261SOL    HW316811   4.435   2.855   0.637 -0.9518  0.3617  2.9310
 4261SOL    MW416812   4.381   2.791   0.611  0.6085  0.1210 -0.3119
 4262SOL     OW16813   1.547   1.083   1.513  0.4326 -0.1890 -0.2323
 4262SOL    HW216814   1.550   1.023   1.589 -0.3972  0.5528  0.4113
 4262SOL    HW316815   1.476   1.048   1.459 -0.6901  0.7160  0.6092
 4262SOL    MW416816   1.538   1.070   1.516  0.1750  0.0283 -0.0364
 4263SOL     OW16817   2.189   1.788   4.826  0.4530  0.0247 -0.4114
 4263SOL    HW216818   2.224   1.874   4.848  1.4518 -0.3892 -0.2982
 4263SOL    HW316819   2.105   1.784   4.870  0.4747  0.8732 -0.2690
 4263SOL    MW416820   2.183   1.799   4.834  0.5876  0.0821 -0.3777
 4264SOL     OW16821   3.433   6.019   3.999 -0.0943  0.2318 -0.2012
 4264SOL    HW216822   3.495   6.043   3.931 -0.4490  2.5092  0.1989
 4264SOL    HW316823   3.454   6.077   4.072  0.7940 -2.6722  2.0190
 4264SOL    MW416824   3.444   6.030   4.000 -0.0239  0.1491  0.1445
 4265SOL     OW16825   4.369   5.139   1.515 -0.1472  0.7888  0.1990
 4265SOL    HW216826   4.350   5.048   1.540 -1.5837  1.1315  0.4481
 4265SOL    HW316827   4.283   5.178   1.500  0.4419  2.1662  0.2592
 4265SOL    MW416828   4.355   5.132   1.516 -0.2590  1.0157  0.2398
 4266SOL     OW16829   4.573   6.297   4.982  0.1303  0.5590 -0.0261
 4266SOL    HW216830   4.479   6.288   4.965  0.0463  0.8844  0.2552
 4266SOL    HW316831   4.614   6.286   4.896  0.0705 -2.5985  0.2316
 4266SOL    MW416832   4.566   6.294   4.968  0.1114  0.1854  0.0450
 4267SOL     OW16833   2.991   1.503   2.973  0.2543 -0.9287 -0.6169
 4267SOL    HW216834   3.073   1.469   2.939  0.7312  1.0902 -1.6362
 4267SOL    HW316835   3.013   1.534   3.061  0.2219 -1.6713 -0.3413
 4267SOL    MW416836   3.005   1.502   2.980  0.3129 -0.7603 -0.7150
 4268SOL     OW16837   0.563   1.714   4.492  0.0303 -0.3622 -0.3563
 4268SOL    HW216838   0.487   1.756   4.452  0.8811 -0.1823 -1.8446
 4268SOL    HW316839   0.558   1.738   4.585 -0.1694  2.0405 -0.9268
 4268SOL    MW416840   0.552   1.723   4.499  0.1162 -0.0214 -0.6279
 4269SOL     OW16841   4.697   3.628   6.276 -0.5626 -0.4132 -0.7504
 4269SOL    HW216842   4.614   3.657   6.312  0.9710  1.4181  1.6042
 4269SOL    HW316843   4.717   3.690   6.206 -0.4740  0.0556 -0.3074
 4269SOL    MW416844   4.689   3.640   6.272 -0.3485 -0.1097 -0.3813
 4270SOL     OW16845   2.832   6.403   0.799  0.1401  0.1926  0.5920
 4270SOL    HW216846   2.806   6.404   0.891 -2.4697  1.3747 -0.0737
 4270SOL    HW316847   2.796   6.321   0.765 -0.7986  0.7621  0.1740
 4270SOL    MW416848   2.824   6.392   0.807 -0.3281  0.4237  0.4490
 4271SOL     OW16849   1.808   1.060   1.355  0.2978 -0.2081  0.0641
 4271SOL    HW216850   1.751   1.117   1.304 -0.3237 -0.6703  0.2143
 4271SOL    HW316851   1.760   1.047   1.437 -0.4805 -2.3924 -0.6600
 4271SOL    MW416852   1.794   1.065   1.359  0.1131 -0.5573 -0.0116
 4272SOL     OW16853   4.110   0.409   0.734  0.0858  0.0626 -0.1797
 4272SOL    HW216854   4.107   0.351   0.810 -0.2985 -0.8816 -0.9009
 4272SOL    HW316855   4.184   0.468   0.752  0.7860 -0.9397  0.3586
 4272SOL    MW416856   4.120   0.410   0.747  0.1275 -0.1943 -0.2038
 4273SOL     OW16857   3.814   0.458   6.157  0.1487 -0.0460 -0.4416
 4273SOL    HW216858   3.737   0.412   6.192 -0.2858 -0.1620 -1.5342
 4273SOL    HW316859   3.792   0.550   6.165  0.3611 -0.0498  0.2670
 4273SOL    MW416860   3.801   0.464   6.163  0.1194 -0.0618 -0.4922
 4274SOL     OW16861   5.762   0.301   5.649 -0.7240 -0.4170  0.1859
 4274SOL    HW216862   5.723   0.237   5.708 -0.2596  0.4059  1.4250
 4274SOL    HW316863   5.771   0.381   5.702  0.3935  0.1239 -0.7701
 4274SOL    MW416864   5.758   0.303   5.664 -0.5153 -0.2371  0.2233
 4275SOL     OW16865   6.425   6.374   1.040  0.4005  0.1740  0.6312
 4275SOL    HW216866   6.433   6.469   1.045  0.2059  0.3004 -0.8476
 4275SOL    HW316867   6.471   6.351   0.959  1.6140 -1.1544  1.6511
 4275SOL    MW416868   6.432   6.383   1.030  0.5350  0.0154  0.5706
 4276SOL     OW16869   6.443   2.498   5.739  0.3559  0.3664  0.7172
 4276SOL    HW216870   6.356   2.528   5.710  1.1656  3.3740  1.0353
 4276SOL    HW316871   6.476   2.446   5.666 -1.1650  0.3444  0.0060
 4276SOL    MW416872   6.436   2.495   5.726  0.2621  0.7603  0.6653
 4277SOL     OW16873   5.097   6.338   3.808 -0.3059 -0.3161 -0.0352
 4277SOL    HW216874   5.160   6.301   3.746 -0.2699  0.7011 -0.6175
 4277SOL    HW316875   5.129   6.426   3.826 -1.2504  0.0089  0.0998
 4277SOL    MW416876   5.110   6.345   3.803 -0.4257 -0.1390 -0.0942
 4278SOL     OW16877   5.939   5.207   5.125 -0.3990  0.3672  0.1615
 4278SOL    HW216878   6.031   5.184   5.137 -0.0921  0.6062 -1.5959
 4278SOL    HW316879   5.924   5.278   5.187  0.8500  0.9494 -0.1881
 4278SOL    MW416880   5.949   5.213   5.135 -0.1937  0.4755 -0.1165
 4279SOL     OW16881   5.533   0.279   4.624 -0.1409  0.6577 -0.3772
 4279SOL    HW216882   5.568   0.322   4.546  1.4696 -2.7196 -1.6704
 4279SOL    HW316883   5.477   0.209   4.590  0.0652 -0.4821  1.4882
 4279SOL    MW416884   5.530   0.276   4.610  0.0988  0.0617 -0.3017
 4280SOL     OW16885   3.230   6.081   2.328  0.4630  0.2857  0.0965
 4280SOL    HW216886   3.143   6.098   2.365  0.6618  1.8619 -0.1098
 4280SOL    HW316887   3.252   5.993   2.359 -0.1145  0.8608  2.2854
 4280SOL    MW416888   3.221   6.071   2.337  0.4130  0.5695  0.3581
 4281SOL     OW16889   1.232   4.059   1.934 -0.7629  0.2399  0.5992
 4281SOL    HW216890   1.215   4.153   1.927 -0.3905  0.7912  4.8036
 4281SOL    HW316891   1.325   4.052   1.954 -0.7537 -1.0835  0.2241
 4281SOL    MW416892   1.242   4.070   1.936 -0.7126  0.1380  1.1044
 4282SOL     OW16893   5.746   5.282   1.565 -0.2674  0.3260 -0.1041
 4282SOL    HW216894   5.677   5.216   1.572  0.5680 -0.3886  2.6770
 4282SOL    HW316895   5.744   5.308   1.473 -1.1185 -3.0480 -1.2017
 4282SOL    MW416896   5.736   5.276   1.554 -0.2694 -0.2134  0.1180
 4283SOL     OW16897   5.237   3.365   4.759 -0.2083 -0.2337 -0.3867
 4283SOL    HW216898   5.259   3.301   4.827  0.5003 -0.7995 -1.1274
 4283SOL    HW316899   5.160   3.328   4.716  0.5455 -0.9073 -1.1936
 4283SOL    MW416900   5.230   3.352   4.762 -0.0154 -0.3972 -0.5909
 4284SOL     OW16901   1.846   0.452   0.328  0.1848 -0.0348  0.6801
 4284SOL    HW216902   1.879   0.365   0.309  0.3576 -0.2041  1.6924
 4284SOL    HW316903   1.908   0.488   0.392  0.1603  0.8585  0.2287
 4284SOL    MW416904   1.859   0.446   0.334  0.2044  0.0607  0.7541
 4285SOL     OW16905   0.317   5.085   5.804  0.3492 -0.4628 -0.4545
 4285SOL    HW216906   0.410   5.068   5.790  0.1711 -0.8484 -1.2700
 4285SOL    HW316907   0.311   5.178   5.826  0.9386 -0.4698 -0.2696
 4285SOL    MW416908   0.328   5.095   5.805  0.4034 -0.5146 -0.5377
 4286SOL     OW16909   0.064   4.323   5.206 -0.0435  0.4709 -0.4686
 4286SOL    HW216910   0.028   4.275   5.131  1.8696  0.2902 -1.3218
 4286SOL    HW316911   0.120   4.259   5.251 -2.5646 -0.0343  2.3242
 4286SOL    MW416912   0.067   4.308   5.202 -0.1237  0.3804 -0.2127
 4287SOL     OW16913   0.867   0.589   0.392 -0.2184 -0.3132  0.0961
 4287SOL    HW216914   0.801   0.644   0.433 -0.2331 -0.0375 -0.2870
 4287SOL    HW316915   0.945   0.644   0.386 -0.2646 -0.2900 -0.3831
 4287SOL    MW416916   0.869   0.603   0.396 -0.2264 -0.2738 -0.0177
 4288SOL     OW16917   1.821   4.237   3.867  0.2905  0.1308  0.0401
 4288SOL    HW216918   1.827   4.302   3.798  0.9627  1.3332  1.1797
 4288SOL    HW316919   1.869   4.275   3.941 -2.0309 -0.2013  1.8587
 4288SOL    MW416920   1.828   4.250   3.868  0.0729  0.2456  0.4304
 4289SOL     OW16921   6.078   1.161   0.685 -0.0268 -0.0484  0.1173
 4289SOL    HW216922   5.993   1.197   0.658 -0.0216  1.8924  2.3260
 4289SOL    HW316923   6.143   1.212   0.637 -0.0498  2.6011  2.6058
 4289SOL    MW416924   6.075   1.172   0.675 -0.0291  0.5572  0.7370
 4290SOL     OW16925   2.349   5.650   3.930  0.7670 -0.7930 -0.8411
 4290SOL    HW216926   2.339   5.587   3.858 -0.4782 -0.6907 -0.7739
 4290SOL    HW316927   2.325   5.734   3.892  1.5028 -0.4971 -0.6724
 4290SOL    MW416928   2.345   5.652   3.915  0.6998 -0.7405 -0.8100
 4291SOL     OW16929   3.331   2.689   2.581  0.5891  0.3775 -0.5417
 4291SOL    HW216930   3.304   2.666   2.670  0.1363 -1.1884 -1.0621
 4291SOL    HW316931   3.381   2.613   2.551 -0.0672  0.4820 -1.9564
 4291SOL    MW416932   3.334   2.676   2.589  0.4428  0.1847 -0.7970
 4292SOL     OW16933   3.583   5.770   2.514 -0.6920 -0.5880  0.1499
 4292SOL    HW216934   3.631   5.725   2.444  0.1234 -0.3090  0.5251
 4292SOL    HW316935   3.563   5.701   2.578 -0.9835 -0.7419 -0.1018
 4292SOL    MW416936   3.586   5.755   2.513 -0.6229 -0.5715  0.1662
 4293SOL     OW16937   0.977   4.946   1.865  0.3696  0.1922  0.3560
 4293SOL    HW216938   1.015   4.871   1.819  1.7984  0.7937  0.4729
 4293SOL    HW316939   0.897   4.966   1.817 -0.8760 -2.2965  1.2075
 4293SOL    MW416940   0.972   4.939   1.853  0.3938 -0.0568  0.4838
 4294SOL     OW16941   2.806   3.037   1.079 -0.0263 -0.2095 -0.5652
 4294SOL    HW216942   2.889   2.997   1.053  0.0288 -0.2292 -0.3587
 4294SOL    HW316943   2.830   3.127   1.103 -0.0214 -0.3043 -0.2243
 4294SOL    MW416944   2.820   3.044   1.079 -0.0184 -0.2246 -0.4930
 4295SOL     OW16945   6.051   0.840   3.007  0.2371  0.0114 -0.1273
 4295SOL    HW216946   5.976   0.804   3.055  1.1253  0.1929  1.4905
 4295SOL    HW316947   6.081   0.768   2.952 -0.6752 -0.2919 -0.2545
 4295SOL    MW416948   6.045   0.826   3.006  0.2339 -0.0047  0.0694
 4296SOL     OW16949   2.242   2.391   3.684  0.3071 -1.3094  0.1377
 4296SOL    HW216950   2.253   2.409   3.591 -0.1331 -0.6360  0.2118
 4296SOL    HW316951   2.148   2.379   3.696  0.2891 -0.7631  0.6011
 4296SOL    MW416952   2.231   2.392   3.674  0.2467 -1.1485  0.2086
 4297SOL     OW16953   5.364   2.870   4.011  0.4052  0.5058  0.4140
 4297SOL    HW216954   5.318   2.801   3.962 -1.2583  2.6986 -1.3053
 4297SOL    HW316955   5.449   2.876   3.968  0.9009 -0.9672  1.1135
 4297SOL    MW416956   5.369   2.861   3.999  0.2512  0.6008  0.2794
 4298SOL     OW16957   1.916   2.930   3.967 -0.0617  0.1758  0.4772
 4298SOL    HW216958   1.992   2.960   4.016  1.0997 -1.2798 -0.3445
 4298SOL    HW316959   1.926   2.969   3.880 -0.7213  0.6529  0.6057
 4298SOL    MW416960   1.927   2.939   3.962  0.0045  0.0467  0.3857
 4299SOL     OW16961   3.698   2.816   3.154 -0.2210  0.1816  0.2030
 4299SOL    HW216962   3.623   2.762   3.181 -0.5979  0.8557  0.5379
 4299SOL    HW316963   3.732   2.773   3.077  0.8295 -1.7662  1.6723
 4299SOL    MW416964   3.693   2.803   3.148 -0.1321  0.0136  0.4411
 4300SOL     OW16965   1.923   4.876   2.701 -0.1758 -0.8049 -0.6627
 4300SOL    HW216966   1.945   4.924   2.621  1.3927 -1.5543 -0.7203
 4300SOL    HW316967   1.855   4.929   2.743  0.9398  1.0785 -1.1082
 4300SOL    MW416968   1.917   4.890   2.696  0.1784 -0.6553 -0.7291
 4301SOL     OW16969   5.067   3.846   3.413 -0.2324  0.5748 -0.7225
 4301SOL    HW216970   5.069   3.923   3.471 -1.7785 -1.2196  1.9382
 4301SOL    HW316971   5.156   3.841   3.377  0.4477  2.5049  0.5149
 4301SOL    MW416972   5.079   3.856   3.416 -0.3467  0.5927 -0.2082
 4302SOL     OW16973   0.100   2.700   5.095 -0.0779  0.5930  0.0140
 4302SOL    HW216974   0.041   2.645   5.145  1.5442  0.2610  1.6740
 4302SOL    HW316975   0.063   2.788   5.102 -0.9919  0.2191  0.0079
 4302SOL    MW416976   0.088   2.704   5.102  0.0155  0.4998  0.2322
 4303SOL     OW16977   4.624   6.014   5.851  0.3460 -1.3343 -0.0989
 4303SOL    HW216978   4.590   5.932   5.815  0.3382 -1.2194 -0.3625
 4303SOL    HW316979   4.673   6.053   5.778 -0.0878 -0.8559 -0.1395
 4303SOL    MW416980   4.626   6.008   5.836  0.2877 -1.2560 -0.1390
 4304SOL     OW16981   3.552   1.526   5.048  0.1316 -0.4732  0.0761
 4304SOL    HW216982   3.553   1.592   5.118  2.9359  0.6235 -0.8770
 4304SOL    HW316983   3.531   1.444   5.092  0.7066  0.3732  1.9999
 4304SOL    MW416984   3.549   1.524   5.063  0.5775 -0.2168  0.2041
 4305SOL     OW16985   0.268   1.297   6.385 -0.0827 -0.2240  0.5716
 4305SOL    HW216986   0.313   1.354   6.448  1.2899  1.6356 -1.9031
 4305SOL    HW316987   0.241   1.356   6.315  1.1814 -2.5234 -2.0393
 4305SOL    MW416988   0.270   1.312   6.384  0.2652 -0.2820 -0.0994
 4306SOL     OW16989   1.315   2.131   4.361 -0.2072 -0.4109  0.0491
 4306SOL    HW216990   1.259   2.178   4.422 -0.0047  2.7048 -1.9543
 4306SOL    HW316991   1.276   2.146   4.275  1.1277 -2.1353 -0.9466
 4306SOL    MW416992   1.303   2.139   4.357 -0.0044 -0.2274 -0.3466
 4307SOL     OW16993   1.483   1.900   5.611 -0.5189 -0.6227  0.1295
 4307SOL    HW216994   1.431   1.847   5.551 -0.2405  0.6211 -1.2991
 4307SOL    HW316995   1.419   1.943   5.667 -0.8361 -1.2996  0.2926
 4307SOL    MW416996   1.468   1.899   5.610 -0.5240 -0.5479 -0.0375
 4308SOL     OW16997   0.082   4.515   1.916  0.9225  0.0496  0.2590
 4308SOL    HW216998   0.094   4.446   1.981  0.6209  0.5966  0.9163
 4308SOL    HW316999   0.029   4.475   1.847 -1.1556  0.2173  1.6663
 4308SOL    MW417000   0.077   4.501   1.916  0.6086  0.1439  0.5314
 4309SOL     OW17001   4.488   1.152   3.746  0.5597 -0.1027  0.3208
 4309SOL    HW217002   4.499   1.072   3.694 -1.3186  0.3570 -0.8389
 4309SOL    HW317003   4.477   1.120   3.836  0.4488 -1.1191 -0.0405
 4309SOL    MW417004   4.488   1.137   3.751  0.2973 -0.1761  0.1201
 4310SOL     OW17005   1.024   1.159   4.403  0.7317  0.0832 -0.1386
 4310SOL    HW217006   1.061   1.112   4.478  3.7878 -0.8018 -2.0115
 4310SOL    HW317007   0.930   1.159   4.419  0.6905 -4.6838  1.2360
 4310SOL    MW417008   1.016   1.152   4.415  1.1294 -0.6625 -0.2043
 4311SOL     OW17009   1.959   3.372   3.941  0.1295 -0.3108 -0.1866
 4311SOL    HW217010   2.026   3.431   3.906  0.1444 -0.3504 -0.2241
 4311SOL    HW317011   1.891   3.431   3.976 -0.5980 -0.2753 -1.6156
 4311SOL    MW417012   1.959   3.388   3.941  0.0355 -0.3114 -0.3801
 4312SOL     OW17013   3.751   3.020   2.351  0.2331  0.0161  0.0175
 4312SOL    HW217014   3.745   3.096   2.294  0.4444 -1.1486 -1.6314
 4312SOL    HW317015   3.782   3.055   2.435  1.5257  1.5848 -1.0576
 4312SOL    MW417016   3.754   3.034   2.355  0.4315  0.0694 -0.3419
 4313SOL     OW17017   2.295   5.243   3.656  0.6972 -0.6643  0.0272
 4313SOL    HW217018   2.327   5.299   3.727 -1.0343 -0.1810  0.4603
 4313SOL    HW317019   2.309   5.295   3.577  0.4443 -0.2152  0.2726
 4313SOL    MW417020   2.301   5.257   3.655  0.4354 -0.5413  0.1167
 4314SOL     OW17021   1.851   3.903   2.267  0.3550  0.2470  0.7048
 4314SOL    HW217022   1.844   3.819   2.313  1.0446 -0.7289 -0.8773
 4314SOL    HW317023   1.927   3.945   2.306 -0.1244  0.2605  1.6652
 4314SOL    MW417024   1.860   3.897   2.278  0.3827  0.1200  0.6228
 4315SOL     OW17025   2.012   5.832   0.813 -0.3246  0.2499 -0.8005
 4315SOL    HW217026   2.074   5.845   0.740  0.7417 -1.2768 -0.2259
 4315SOL    HW317027   2.019   5.739   0.833  1.7543  1.0577  3.2196
 4315SOL    MW417028   2.021   5.821   0.806  0.0904  0.1550 -0.1942
 4316SOL     OW17029   2.279   2.389   0.098  0.3335 -0.1919  0.9331
 4316SOL    HW217030   2.318   2.474   0.077  0.3854 -0.6285 -0.8339
 4316SOL    HW317031   2.285   2.383   0.194  0.8618  1.5245  1.0349
 4316SOL    MW417032   2.285   2.399   0.108  0.4100 -0.0230  0.7134
 4317SOL     OW17033   5.081   1.829   1.278  0.0847  0.0879 -0.0632
 4317SOL    HW217034   5.076   1.741   1.241 -0.2504  0.6872 -1.5228
 4317SOL    HW317035   4.993   1.865   1.265  0.4990  0.9871 -0.4221
 4317SOL    MW417036   5.069   1.822   1.271  0.0952  0.2856 -0.3031
 4318SOL     OW17037   2.097   2.013   3.223  0.4297  0.2407 -0.1799
 4318SOL    HW217038   2.174   2.035   3.275  0.5377 -0.3246 -0.0887
 4318SOL    HW317039   2.034   1.977   3.286 -0.6372  2.3687  0.0499
 4318SOL    MW417040   2.099   2.011   3.238  0.3032  0.4469 -0.1376
 4319SOL     OW17041   1.188   1.881   4.022 -0.0795  1.4334 -0.3215
 4319SOL    HW217042   1.153   1.951   3.966  1.9530  1.1913 -2.0372
 4319SOL    HW317043   1.196   1.806   3.963  0.2934  0.5523  0.8297
 4319SOL    MW417044   1.184   1.880   4.007  0.2379  1.2852 -0.3959
 4320SOL     OW17045   1.815   0.974   5.044  0.3923 -0.2738  0.3938
 4320SOL    HW217046   1.846   0.930   4.964 -0.5664 -0.7751  0.2804
 4320SOL    HW317047   1.757   1.043   5.013  1.3696  0.6829  0.6054
 4320SOL    MW417048   1.812   0.977   5.029  0.3948 -0.2137  0.4067
 4321SOL     OW17049   0.156   5.236   5.495 -0.1019  0.2110 -0.1765
 4321SOL    HW217050   0.187   5.145   5.500 -0.1594  0.2254  0.4491
 4321SOL    HW317051   0.111   5.241   5.410  1.5332  0.1737 -1.0895
 4321SOL    MW417052   0.154   5.225   5.484  0.1062  0.2080 -0.2144
 4322SOL     OW17053   2.853   5.168   0.740 -0.1806 -0.1953 -0.0593
 4322SOL    HW217054   2.870   5.208   0.655  0.5516  1.4376  0.8060
 4322SOL    HW317055   2.938   5.137   0.770 -0.8397 -3.3669 -1.0812
 4322SOL    MW417056   2.866   5.169   0.733 -0.1710 -0.3983 -0.0799
 4323SOL     OW17057   0.821   4.012   4.444  0.2153  0.0444  0.3663
 4323SOL    HW217058   0.807   4.057   4.360  1.3025  0.6241  0.4849
 4323SOL    HW317059   0.751   4.046   4.500 -0.2127  0.0353 -0.1441
 4323SOL    MW417060   0.810   4.022   4.440  0.3023  0.1197  0.3146
 4324SOL     OW17061   5.924   4.040   4.709  0.5963  0.5420  0.0163
 4324SOL    HW217062   5.905   4.124   4.750  1.1323  0.9550 -0.5571
 4324SOL    HW317063   5.944   4.062   4.618  0.4275 -0.2424 -0.2141
 4324SOL    MW417064   5.924   4.054   4.702  0.6447  0.4930 -0.0897
 4325SOL     OW17065   2.982   2.650   5.880  0.4234 -0.1074  0.0118
 4325SOL    HW217066   2.998   2.561   5.848  0.8758  0.3015 -0.9300
 4325SOL    HW317067   2.888   2.664   5.864  0.6038  0.0252 -1.0104
 4325SOL    MW417068   2.972   2.640   5.873  0.5069 -0.0359 -0.2473
 4326SOL     OW17069   5.634   0.891   5.277  0.1122 -0.3780  0.5030
 4326SOL    HW217070   5.692   0.828   5.319  0.9656 -0.5183 -0.8252
 4326SOL    HW317071   5.636   0.968   5.333  0.3657 -0.9349  1.2659
 4326SOL    MW417072   5.642   0.893   5.290  0.2582 -0.4700  0.4284
 4327SOL     OW17073   2.099   4.559   0.873  0.7119  0.1053  0.6577
 4327SOL    HW217074   2.009   4.579   0.847  0.8538  0.8830  0.7508
 4327SOL    HW317075   2.096   4.554   0.969  0.8242  0.4349  0.6801
 4327SOL    MW417076   2.087   4.561   0.882  0.7454  0.2514  0.6730
 4328SOL     OW17077   4.501   1.109   5.286  0.0895  0.2965  0.4872
 4328SOL    HW217078   4.497   1.072   5.198  0.6154 -1.1843  1.0427
 4328SOL    HW317079   4.415   1.147   5.300  0.1790  1.0625 -0.8576
 4328SOL    MW417080   4.489   1.109   5.276  0.1707  0.2022  0.3831
 4329SOL     OW17081   0.261   5.621   2.327  0.7285 -0.1571  0.8098
 4329SOL    HW217082   0.232   5.537   2.292  1.9609 -0.2240 -0.1327
 4329SOL    HW317083   0.320   5.655   2.260  0.5064  1.3170  1.3255
 4329SOL    MW417084   0.265   5.614   2.313  0.8618  0.0286  0.7535
 4330SOL     OW17085   0.155   2.447   3.409  0.9758  0.0488  0.3547
 4330SOL    HW217086   0.173   2.461   3.502  2.2358 -0.5756  0.2252
 4330SOL    HW317087   0.084   2.383   3.408  0.0362  1.0456  0.8761
 4330SOL    MW417088   0.148   2.440   3.422  1.0180  0.0979  0.4064
 4331SOL     OW17089   0.397   4.360   0.453  0.2428 -0.3103  0.0869
 4331SOL    HW217090   0.338   4.420   0.498  1.4858  0.8483  0.2397
 4331SOL    HW317091   0.418   4.293   0.519 -1.7755 -1.4471 -0.3269
 4331SOL    MW417092   0.392   4.359   0.468  0.1405 -0.3074  0.0525
 4332SOL     OW17093   2.106   3.204   3.426  0.4433  0.6025  0.0223
 4332SOL    HW217094   2.172   3.265   3.394  0.0557  0.7530 -0.5123
 4332SOL    HW317095   2.083   3.151   3.350 -0.4027  0.8839  0.0627
 4332SOL    MW417096   2.111   3.205   3.412  0.2805  0.6595 -0.0429
 4333SOL     OW17097   2.225   4.893   2.475 -0.8064  0.2326 -0.5890
 4333SOL    HW217098   2.291   4.959   2.452  0.3216 -0.8064 -0.4501
 4333SOL    HW317099   2.259   4.853   2.555 -1.2761 -0.7680 -0.8780
 4333SOL    MW417100   2.239   4.896   2.483 -0.7195 -0.0365 -0.6088
 4334SOL     OW17101   2.363   4.866   4.754  0.4790  0.3098  0.0898
 4334SOL    HW217102   2.289   4.914   4.790  0.3203 -0.4525  0.7903
 4334SOL    HW317103   2.356   4.880   4.659 -1.3079 -0.7806  0.0098
 4334SOL    MW417104   2.352   4.874   4.746  0.2223  0.0653  0.1717
 4335SOL     OW17105   3.799   2.323   3.390  0.3512 -0.5838  0.1742
 4335SOL    HW217106   3.800   2.388   3.460  0.8219 -0.3798 -0.0125
 4335SOL    HW317107   3.714   2.281   3.397 -0.8617  1.4934 -1.0262
 4335SOL    MW417108   3.788   2.326   3.400  0.2533 -0.2828 -0.0088
 4336SOL     OW17109   4.744   0.142   2.492 -0.2611 -0.8055  0.0212
 4336SOL    HW217110   4.834   0.110   2.488  0.5130  1.2595 -0.2007
 4336SOL    HW317111   4.722   0.165   2.402 -0.4242  0.1192  0.2786
 4336SOL    MW417112   4.753   0.141   2.480 -0.1805 -0.4110  0.0259
 4337SOL     OW17113   3.587   0.641   5.410 -0.2843  0.3036  0.3028
 4337SOL    HW217114   3.559   0.732   5.410  0.0811  0.4190  0.0478
 4337SOL    HW317115   3.627   0.628   5.324  1.0402  0.3370  0.8802
 4337SOL    MW417116   3.589   0.651   5.399 -0.0614  0.3233  0.3453
 4338SOL     OW17117   6.167   6.111   4.393  0.0060 -0.0319  1.0415
 4338SOL    HW217118   6.152   6.027   4.437 -0.1533 -1.8151 -2.1248
 4338SOL    HW317119   6.261   6.111   4.374 -0.1084  0.2084  0.4684
 4338SOL    MW417120   6.178   6.100   4.396 -0.0301 -0.2355  0.5482
 4339SOL     OW17121   1.857   4.630   0.759 -0.1355  0.1341  0.2146
 4339SOL    HW217122   1.800   4.558   0.733  0.1630  0.3287 -1.0721
 4339SOL    HW317123   1.892   4.664   0.676  1.0459  0.6676  0.8976
 4339SOL    MW417124   1.854   4.625   0.744  0.0598  0.2301  0.1349
 4340SOL     OW17125   5.646   6.032   0.698 -0.7406 -0.3984  0.5564
 4340SOL    HW217126   5.719   6.093   0.705 -0.7421 -0.3286 -0.0342
 4340SOL    HW317127   5.603   6.036   0.784  0.1673 -0.7328  1.0440
 4340SOL    MW417128   5.650   6.040   0.710 -0.6210 -0.4333  0.5428
 4341SOL     OW17129   2.777   2.324   1.846  0.0470 -0.4450  0.2003
 4341SOL    HW217130   2.784   2.267   1.769 -1.7792 -1.5536  0.7713
 4341SOL    HW317131   2.741   2.406   1.812 -1.8357 -1.3189 -0.0264
 4341SOL    MW417132   2.773   2.327   1.832 -0.4424 -0.7066  0.2457
 4342SOL     OW17133   1.401   3.770   2.045 -0.2489 -0.0359  0.7445
 4342SOL    HW217134   1.319   3.799   2.083 -0.8828 -0.9944  0.1483
 4342SOL    HW317135   1.452   3.850   2.033 -0.9496  0.5248  1.4447
 4342SOL    MW417136   1.397   3.784   2.048 -0.4250 -0.0884  0.7582
 4343SOL     OW17137   0.459   0.642   2.799 -0.3131 -0.1225  0.0115
 4343SOL    HW217138   0.442   0.578   2.730 -0.0234 -0.8303  0.5833
 4343SOL    HW317139   0.404   0.614   2.872  1.0703 -0.7343  0.8593
 4343SOL    MW417140   0.449   0.630   2.799 -0.0923 -0.2966  0.1988
 4344SOL     OW17141   4.611   2.642   3.843  0.0648  0.5850 -0.1820
 4344SOL    HW217142   4.676   2.584   3.803 -0.5821  0.0108 -0.4148
 4344SOL    HW317143   4.646   2.730   3.828  1.7619  0.2532  1.3730
 4344SOL    MW417144   4.624   2.646   3.836  0.2033  0.4655 -0.0075
 4345SOL     OW17145   2.178   6.403   2.441 -0.1664 -0.0024  0.2672
 4345SOL    HW217146   2.103   6.344   2.434  0.3836 -0.9955  2.1552
 4345SOL    HW317147   2.173   6.439   2.529  0.9019  0.8867 -0.0109
 4345SOL    MW417148   2.167   6.400   2.452  0.0471 -0.0161  0.4796
 4346SOL     OW17149   3.780   0.896   1.138 -0.8427  0.0326 -1.2468
 4346SOL    HW217150   3.869   0.868   1.160 -1.3197  0.6792  2.0634
 4346SOL    HW317151   3.787   0.991   1.127 -1.5159  0.7556  2.8097
 4346SOL    MW417152   3.793   0.905   1.139 -0.9944  0.2133 -0.2749
 4347SOL     OW17153   4.972   1.580   4.720 -0.1906  0.1084 -0.2761
 4347SOL    HW217154   4.959   1.673   4.738  2.8414  0.6873 -0.4502
 4347SOL    HW317155   4.952   1.571   4.627 -1.4585  0.3258 -0.0473
 4347SOL    MW417156   4.968   1.591   4.710  0.0421  0.2135 -0.2689
 4348SOL     OW17157   2.134   5.954   3.562 -0.7965 -0.0481 -0.5609
 4348SOL    HW217158   2.090   5.961   3.477 -1.7978 -0.8051 -0.1331
 4348SOL    HW317159   2.113   6.036   3.607 -0.0305  0.4729 -1.1424
 4348SOL    MW417160   2.125   5.966   3.557 -0.8276 -0.0792 -0.5812
 4349SOL     OW17161   3.181   5.547   5.009  0.3182 -0.7013 -0.1772
 4349SOL    HW217162   3.136   5.503   4.938  1.8569 -0.5734 -1.2934
 4349SOL    HW317163   3.112   5.594   5.056 -0.8202 -1.3047 -1.1927
 4349SOL    MW417164   3.166   5.548   5.006  0.3710 -0.7640 -0.4584
 4350SOL     OW17165   3.109   2.096   5.408 -0.4496  0.3871 -0.0473
 4350SOL    HW217166   3.089   2.150   5.331  0.2987  0.1575 -0.4112
 4350SOL    HW317167   3.156   2.155   5.467 -0.1878  0.3059 -0.1741
 4350SOL    MW417168   3.113   2.111   5.406 -0.3163  0.3461 -0.1121
 4351SOL     OW17169   1.006   0.357   1.933 -0.3196  0.3867  0.6382
 4351SOL    HW217170   0.947   0.336   2.005 -0.3009  0.5027  0.6870
 4351SOL    HW317171   0.994   0.451   1.919 -1.1305  0.1815 -0.2170
 4351SOL    MW417172   0.996   0.367   1.941 -0.4241  0.3749  0.5318
 4352SOL     OW17173   1.131   2.992   5.068 -0.5077 -0.1105 -0.7655
 4352SOL    HW217174   1.038   3.014   5.071 -0.7195 -1.0132 -0.2952
 4352SOL    HW317175   1.163   3.012   5.156 -0.2571  0.1766 -0.9193
 4352SOL    MW417176   1.123   2.998   5.080 -0.5026 -0.1917 -0.7238
 4353SOL     OW17177   0.124   1.595   5.746  0.3550  0.0676 -0.2091
 4353SOL    HW217178   0.117   1.586   5.841 -0.9839 -2.6103 -0.4690
 4353SOL    HW317179   0.036   1.616   5.717 -0.1988 -2.8634 -1.0495
 4353SOL    MW417180   0.112   1.596   5.755  0.1053 -0.6724 -0.3543
 4354SOL     OW17181   6.296   3.056   1.476  0.1403 -0.0163 -0.0004
 4354SOL    HW217182   6.325   3.082   1.389  0.8375  0.0462  0.2474
 4354SOL    HW317183   6.363   2.994   1.506 -0.0213  0.0691  0.5479
 4354SOL    MW417184   6.309   3.051   1.468  0.2110  0.0032  0.1046
 4355SOL     OW17185   4.535   3.521   1.688  0.5449  0.1921 -0.3618
 4355SOL    HW217186   4.614   3.571   1.711  0.0575  0.0495  1.8364
 4355SOL    HW317187   4.560   3.430   1.703 -0.1885  0.1855  0.8969
 4355SOL    MW417188   4.549   3.516   1.693  0.3838  0.1724  0.0943
 4356SOL     OW17189   1.155   4.770   1.765 -1.1274 -0.4222  0.4839
 4356SOL    HW217190   1.156   4.675   1.752 -1.6568 -0.2532 -1.0113
 4356SOL    HW317191   1.142   4.805   1.678 -0.6425  1.0542  0.9823
 4356SOL    MW417192   1.154   4.762   1.752 -1.1333 -0.2051  0.3523
 4357SOL     OW17193   3.834   5.237   2.913 -0.4105  0.1262  0.4482
 4357SOL    HW217194   3.905   5.181   2.947 -0.7095 -0.5630 -0.0450
 4357SOL    HW317195   3.872   5.325   2.911  0.3760 -0.2082  0.3564
 4357SOL    MW417196   3.849   5.241   2.918 -0.3461 -0.0088  0.3710
 4358SOL     OW17197   2.306   3.303   0.129 -0.2514  0.5459  0.4946
 4358SOL    HW217198   2.336   3.359   0.201 -0.3393  1.3734 -0.1036
 4358SOL    HW317199   2.254   3.361   0.073  0.2463  0.0439 -0.5159
 4358SOL    MW417200   2.303   3.318   0.131 -0.1973  0.5888  0.2824
 4359SOL     OW17201   5.920   1.190   3.993  0.0371 -0.1213 -0.1347
 4359SOL    HW217202   5.993   1.141   4.032 -0.5163 -2.2339 -1.5712
 4359SOL    HW317203   5.944   1.202   3.902 -1.0710 -0.1623 -0.4479
 4359SOL    MW417204   5.933   1.185   3.986 -0.1821 -0.4054 -0.3656
 4360SOL     OW17205   2.838   3.339   4.875  0.1367  0.2030 -0.0432
 4360SOL    HW217206   2.769   3.294   4.923  1.5858  0.0499  2.0453
 4360SOL    HW317207   2.848   3.289   4.794 -0.2214 -1.5362  0.9424
 4360SOL    MW417208   2.830   3.326   4.871  0.2806 -0.0466  0.3624
 4361SOL     OW17209   3.039   2.623   2.094 -0.1881 -0.0410  0.1841
 4361SOL    HW217210   3.116   2.604   2.146 -0.6447 -0.2922  0.7850
 4361SOL    HW317211   3.069   2.683   2.026  0.4203  0.2703  0.7286
 4361SOL    MW417212   3.053   2.628   2.092 -0.1681 -0.0331  0.3352
 4362SOL     OW17213   3.159   5.247   5.611  0.6108  0.4283  0.1713
 4362SOL    HW217214   3.067   5.252   5.636  0.4884  0.0354 -0.1966
 4362SOL    HW317215   3.178   5.154   5.610  0.6234  0.4310 -1.1632
 4362SOL    MW417216   3.149   5.236   5.615  0.5964  0.3768 -0.0533
 4363SOL     OW17217   0.585   4.610   3.753  0.0264  0.2377 -0.0247
 4363SOL    HW217218   0.576   4.614   3.848  0.2991 -0.0783  0.0168
 4363SOL    HW317219   0.539   4.530   3.727 -0.8614  0.8116 -0.2660
 4363SOL    MW417220   0.578   4.600   3.762 -0.0548  0.2717 -0.0511
 4364SOL     OW17221   5.380   2.553   0.338 -0.2142 -0.5322  0.5983
 4364SOL    HW217222   5.297   2.511   0.362 -0.2950 -0.4750  0.4234
 4364SOL    HW317223   5.361   2.597   0.255 -0.3346  0.4745  1.1475
 4364SOL    MW417224   5.366   2.553   0.330 -0.2408 -0.3918  0.6477
 4365SOL     OW17225   3.383   0.916   0.555 -0.0499  0.1827 -0.0206
 4365SOL    HW217226   3.404   1.008   0.539 -0.4984 -0.0606 -2.4319
 4365SOL    HW317227   3.457   0.868   0.517 -0.8240 -0.4726 -0.7423
 4365SOL    MW417228   3.395   0.922   0.548 -0.2112  0.0641 -0.4339
 4366SOL     OW17229   4.472   1.723   0.011 -0.2221 -0.7437  0.0450
 4366SOL    HW217230   4.522   1.792   0.055  1.7456 -2.0798  0.0490
 4366SOL    HW317231   4.512   1.717  -0.076 -0.9353 -1.2985 -0.2509
 4366SOL    MW417232   4.484   1.731   0.006 -0.0566 -0.9932  0.0065
 4367SOL     OW17233   2.321   4.301   0.617  0.2657 -0.2178 -0.9234
 4367SOL    HW217234   2.274   4.223   0.585 -0.7550  0.6232 -1.5283
 4367SOL    HW317235   2.326   4.289   0.712 -0.2402 -0.8208 -0.9686
 4367SOL    MW417236   2.316   4.289   0.625  0.0643 -0.1864 -1.0092
 4368SOL     OW17237   0.826   5.706   3.376  0.4989  0.3617  0.3506
 4368SOL    HW217238   0.778   5.740   3.451  0.2448  0.9979 -0.0906
 4368SOL    HW317239   0.769   5.638   3.340  0.6513  0.0090  0.7667
 4368SOL    MW417240   0.812   5.702   3.381  0.4855  0.3991  0.3473
 4369SOL     OW17241   5.746   0.502   0.779 -0.6588  0.5993 -0.2055
 4369SOL    HW217242   5.686   0.437   0.814 -1.5837 -0.1011 -2.8859
 4369SOL    HW317243   5.723   0.509   0.687  1.4475  2.5029 -0.6698
 4369SOL    MW417244   5.735   0.494   0.771 -0.5029  0.7581 -0.6204
 4370SOL     OW17245   4.347   6.217   5.613 -0.4637  0.1770 -0.4841
 4370SOL    HW217246   4.358   6.123   5.601 -0.4270  0.2484 -1.0521
 4370SOL    HW317247   4.272   6.240   5.559 -1.3195  0.2637  0.7033
 4370SOL    MW417248   4.339   6.208   5.604 -0.5717  0.1979 -0.4024
 4371SOL     OW17249   3.527   2.002   3.168 -0.7170 -0.2663 -0.3288
 4371SOL    HW217250   3.597   1.938   3.182 -1.5744 -1.5135 -1.5138
 4371SOL    HW317251   3.526   2.054   3.249  2.8718  1.1635 -1.0085
 4371SOL    MW417252   3.536   2.001   3.181 -0.3566 -0.2422 -0.5748
 4372SOL     OW17253   3.463   4.272   5.773  0.4293 -1.2025  0.0415
 4372SOL    HW217254   3.393   4.207   5.781 -2.3552  1.6792  1.3420
 4372SOL    HW317255   3.428   4.337   5.712  1.0945  1.2504  2.1087
 4372SOL    MW417256   3.449   4.272   5.766  0.1497 -0.4986  0.4858
 4373SOL     OW17257   2.424   6.302   2.406  0.3869  0.1490 -0.5369
 4373SOL    HW217258   2.343   6.346   2.433  0.0618 -0.2780 -0.7995
 4373SOL    HW317259   2.465   6.275   2.488 -0.3989 -0.7866 -0.4368
 4373SOL    MW417260   2.419   6.304   2.420  0.2404 -0.0308 -0.5583
 4374SOL     OW17261   3.810   4.599   4.087  0.4454  0.3749  0.2398
 4374SOL    HW217262   3.856   4.653   4.151 -0.5187  1.2479  0.2253
 4374SOL    HW317263   3.754   4.660   4.039  1.0094 -0.2798 -1.3365
 4374SOL    MW417264   3.808   4.614   4.089  0.3926  0.4037  0.0299
 4375SOL     OW17265   2.128   2.983   2.363  0.2544  0.1407 -0.3362
 4375SOL    HW217266   2.173   2.948   2.440  1.7015  0.6509 -0.9122
 4375SOL    HW317267   2.040   3.006   2.395  0.8156  0.3179  1.1556
 4375SOL    MW417268   2.122   2.982   2.378  0.5194  0.2314 -0.2154
 4376SOL     OW17269   6.310   2.208   3.716 -0.1677 -0.4159  0.0748
 4376SOL    HW217270   6.328   2.114   3.720 -0.6057 -0.5661 -1.1692
 4376SOL    HW317271   6.374   2.247   3.775  1.4196 -1.3150 -0.9815
 4376SOL    MW417272   6.321   2.201   3.724 -0.0161 -0.5543 -0.2287
 4377SOL     OW17273   0.455   0.931   1.256 -0.4727 -0.6945 -0.2840
 4377SOL    HW217274   0.438   0.951   1.348 -0.1481 -2.0096  0.0787
 4377SOL    HW317275   0.514   0.856   1.258 -0.3688 -0.6694 -1.5685
 4377SOL    MW417276   0.460   0.924   1.269 -0.4162 -0.8647 -0.4056
 4378SOL     OW17277   5.738   0.696   1.646 -0.0564 -0.2064 -0.1492
 4378SOL    HW217278   5.665   0.758   1.636  0.7711  0.7432 -0.4458
 4378SOL    HW317279   5.726   0.658   1.733  0.0706  1.2350  0.5177
 4378SOL    MW417280   5.727   0.699   1.656  0.0695  0.1091 -0.1003
 4379SOL     OW17281   0.721   0.826   5.065 -0.1756 -0.5557  0.5775
 4379SOL    HW217282   0.654   0.890   5.086 -0.2744 -0.5634  0.2928
 4379SOL    HW317283   0.774   0.867   4.997 -2.0405 -1.8902 -1.8325
 4379SOL    MW417284   0.719   0.840   5.059 -0.4347 -0.7328  0.2219
 4380SOL     OW17285   5.166   1.945   5.713 -0.2838  0.1267 -0.1788
 4380SOL    HW217286   5.085   1.908   5.679  0.8177 -1.2688 -1.4508
 4380SOL    HW317287   5.187   2.017   5.653  0.3834 -0.7558 -1.0390
 4380SOL    MW417288   5.158   1.950   5.701 -0.0505 -0.1739 -0.4601
 4381SOL     OW17289   4.624   3.321   0.261 -0.3397 -0.0231 -0.2367
 4381SOL    HW217290   4.626   3.415   0.245  1.9333  0.3199  1.5219
 4381SOL    HW317291   4.640   3.281   0.176 -0.8047  1.1910 -0.9067
 4381SOL    MW417292   4.627   3.328   0.248 -0.1012  0.1823 -0.0931
 4382SOL     OW17293   1.417   2.219   5.929 -0.4874  0.1259 -0.0175
 4382SOL    HW217294   1.472   2.297   5.939 -0.3504  0.0947 -0.5465
 4382SOL    HW317295   1.478   2.147   5.921 -0.6150 -0.0882  0.8063
 4382SOL    MW417296   1.432   2.220   5.929 -0.4861  0.0936  0.0214
 4383SOL     OW17297   2.768   6.130   6.172 -0.3208  0.1032 -0.0424
 4383SOL    HW217298   2.689   6.167   6.134 -0.1183  0.3400 -0.2331
 4383SOL    HW317299   2.791   6.057   6.115 -0.1196  0.3454 -0.2722
 4383SOL    MW417300   2.761   6.125   6.160 -0.2676  0.1664 -0.0979
 4384SOL     OW17301   1.648   6.031   2.235 -0.5563  0.2938 -0.2180
 4384SOL    HW217302   1.573   5.983   2.270 -0.5443  0.7923  0.5083
 4384SOL    HW317303   1.623   6.123   2.243 -0.9627  0.4439 -2.4263
 4384SOL    MW417304   1.634   6.036   2.241 -0.6083  0.3794 -0.4135
 4385SOL     OW17305   0.224   6.242   4.854  0.0880 -0.1556 -0.6693
 4385SOL    HW217306   0.214   6.328   4.812  0.7765  0.8592  1.1177
 4385SOL    HW317307   0.155   6.240   4.921  1.6386  0.1355  1.0086
 4385SOL    MW417308   0.213   6.253   4.857  0.3834  0.0167 -0.2121
 4386SOL     OW17309   0.944   0.611   2.185 -0.1414  0.0598 -0.2275
 4386SOL    HW217310   0.932   0.635   2.277 -0.5042  0.3056 -0.3366
 4386SOL    HW317311   0.904   0.683   2.136 -2.1034 -1.1800 -0.5521
 4386SOL    MW417312   0.937   0.624   2.190 -0.4481 -0.0714 -0.2847
 4387SOL     OW17313   1.575   0.417   0.355 -0.0633  0.1594 -0.5775
 4387SOL    HW217314   1.552   0.500   0.398  0.5130 -0.7627  1.6871
 4387SOL    HW317315   1.669   0.423   0.339 -0.2550  0.4455 -1.6200
 4387SOL    MW417316   1.584   0.429   0.359 -0.0126  0.0755 -0.4162
 4388SOL     OW17317   1.995   6.034   5.680  0.1600 -0.7749 -0.1405
 4388SOL    HW217318   1.976   6.126   5.699  0.7242 -0.8793  1.0221
 4388SOL    HW317319   1.924   6.005   5.623 -0.0426  0.3667 -0.4795
 4388SOL    MW417320   1.983   6.042   5.675  0.2077 -0.6381 -0.0318
 4389SOL     OW17321   5.211   2.250   3.208  0.2704  0.3765 -0.3345
 4389SOL    HW217322   5.134   2.280   3.160 -1.8901 -2.2846  1.1735
 4389SOL    HW317323   5.280   2.245   3.142 -1.5501  0.3419 -2.3330
 4389SOL    MW417324   5.210   2.253   3.193 -0.2548  0.0208 -0.3992
 4390SOL     OW17325   6.170   4.336   1.917 -0.0336 -0.4089 -0.4983
 4390SOL    HW217326   6.226   4.260   1.931  0.6613  0.1718 -0.0670
 4390SOL    HW317327   6.115   4.340   1.995  1.6289  0.9459  0.6714
 4390SOL    MW417328   6.170   4.326   1.929  0.2774 -0.1535 -0.2870
 4391SOL     OW17329   5.677   4.295   0.898  0.5427  0.1634 -0.1291
 4391SOL    HW217330   5.607   4.244   0.937  0.8116  0.5986  0.9529
 4391SOL    HW317331   5.656   4.297   0.805  0.5255 -1.9189 -0.2184
 4391SOL    MW417332   5.665   4.289   0.891  0.5759 -0.0539  0.0019
 4392SOL     OW17333   5.507   0.737   4.715  0.3837 -0.3141 -0.3191
 4392SOL    HW217334   5.460   0.768   4.793  2.6708  0.5247  0.8022
 4392SOL    HW317335   5.570   0.674   4.749  1.5924  0.2469 -1.4516
 4392SOL    MW417336   5.509   0.733   4.730  0.8449 -0.1294 -0.3206
 4393SOL     OW17337   3.957   0.698   5.663  0.4971  0.0968  0.4724
 4393SOL    HW217338   3.869   0.661   5.674  0.3822 -0.0030 -0.6408
 4393SOL    HW317339   3.946   0.791   5.684 -0.8277  0.9957 -3.3097
 4393SOL    MW417340   3.944   0.706   5.667  0.3072  0.2022 -0.1735
 4394SOL     OW17341   5.467   4.273   2.055 -0.5218  0.4022 -0.0800
 4394SOL    HW217342   5.513   4.301   2.134 -0.6360  0.8892 -0.1793
 4394SOL    HW317343   5.406   4.345   2.036  1.4386  1.6667 -2.1949
 4394SOL    MW417344   5.465   4.286   2.063 -0.2782  0.6333 -0.3722
 4395SOL     OW17345   3.243   0.968   2.654  0.0333 -0.4887 -0.0399
 4395SOL    HW217346   3.252   0.952   2.748  0.5079  1.5614  0.3178
 4395SOL    HW317347   3.327   1.006   2.628 -1.4945  3.1775 -0.2587
 4395SOL    MW417348   3.255   0.971   2.663 -0.1057  0.2655 -0.0216
 4396SOL     OW17349   0.073   3.202   4.473  0.3593  0.3710 -0.0788
 4396SOL    HW217350   0.076   3.107   4.463 -2.7393 -0.0175  1.3902
 4396SOL    HW317351   0.065   3.216   4.568 -3.3437  1.6960 -0.3960
 4396SOL    MW417352   0.072   3.192   4.484 -0.5381  0.4946  0.0732
 4397SOL     OW17353   5.719   0.807   2.819  0.1595 -0.0982  0.4502
 4397SOL    HW217354   5.712   0.860   2.898  0.9224  0.2113  0.3172
 4397SOL    HW317355   5.631   0.773   2.805 -0.8692  2.6656 -0.5348
 4397SOL    MW417356   5.707   0.809   2.828  0.1245  0.3073  0.3027
 4398SOL     OW17357   3.828   3.263   2.220  0.0491 -0.2714  0.1768
 4398SOL    HW217358   3.893   3.276   2.290 -0.8426 -1.5932  1.3070
 4398SOL    HW317359   3.776   3.343   2.220 -0.7227 -0.7325  1.9136
 4398SOL    MW417360   3.830   3.275   2.229 -0.1704 -0.5067  0.5551
 4399SOL     OW17361   3.151   3.268   3.318  0.0381 -0.2890 -0.4696
 4399SOL    HW217362   3.226   3.319   3.288  1.5004 -0.3030  2.6801
 4399SOL    HW317363   3.111   3.322   3.386 -1.1277 -1.4524 -0.1970
 4399SOL    MW417364   3.155   3.282   3.323  0.0772 -0.4444 -0.0181
 4400SOL     OW17365   2.750   5.725   3.538  0.0793 -0.3786  0.4216
 4400SOL    HW217366   2.750   5.754   3.447 -0.4795 -2.4152 -0.2960
 4400SOL    HW317367   2.715   5.636   3.534  0.8457 -0.8253  2.5450
 4400SOL    MW417368   2.745   5.717   3.525  0.1067 -0.7062  0.6071
 4401SOL     OW17369   4.634   0.141   2.911 -0.0821 -0.1866 -0.4262
 4401SOL    HW217370   4.727   0.137   2.889 -0.2249  0.6783 -1.2760
 4401SOL    HW317371   4.632   0.170   3.002  0.4810 -0.7056 -0.2403
 4401SOL    MW417372   4.646   0.145   2.920 -0.0266 -0.1410 -0.5138
 4402SOL     OW17373   1.103   4.479   4.840  0.7814 -0.1707 -0.1707
 4402SOL    HW217374   1.028   4.487   4.898  0.9265  0.8532 -0.0959
 4402SOL    HW317375   1.067   4.449   4.757  0.4399 -0.7006  0.1682
 4402SOL    MW417376   1.089   4.476   4.837  0.7555 -0.1055 -0.1161
 4403SOL     OW17377   4.617   1.094   4.800 -0.0618  0.5460 -0.0983
 4403SOL    HW217378   4.669   1.018   4.775  0.6377  1.0534 -0.1985
 4403SOL    HW317379   4.587   1.075   4.889 -0.5583 -0.1997 -0.4177
 4403SOL    MW417380   4.620   1.082   4.808 -0.0350  0.5146 -0.1537
 4404SOL     OW17381   4.487   3.168   5.189 -0.0912 -0.3756  0.1338
 4404SOL    HW217382   4.462   3.207   5.105  0.3989  0.6598  0.4531
 4404SOL    HW317383   4.426   3.095   5.201 -1.5267  0.7363 -0.1285
 4404SOL    MW417384   4.476   3.163   5.179 -0.2160 -0.0923  0.1413
 4405SOL     OW17385   0.316   3.245   0.981  0.1362  0.0820  0.1851
 4405SOL    HW217386   0.276   3.228   0.895  0.4664 -0.4126  0.1252
 4405SOL    HW317387   0.242   3.247   1.042 -0.0781  0.1990 -0.0783
 4405SOL    MW417388   0.301   3.243   0.978  0.1515  0.0321  0.1425
 4406SOL     OW17389   3.086   1.252   0.677  0.0812 -0.6081 -0.2329
 4406SOL    HW217390   3.047   1.270   0.763  2.4234 -0.5605  0.9026
 4406SOL    HW317391   3.120   1.162   0.685 -0.5676 -0.9856 -1.4984
 4406SOL    MW417392   3.086   1.242   0.689  0.3047 -0.6517 -0.2501
 4407SOL     OW17393   1.578   3.587   6.090  0.7288 -0.1947  0.6162
 4407SOL    HW217394   1.488   3.599   6.060  0.9751 -1.5026 -0.7656
 4407SOL    HW317395   1.629   3.649   6.038  0.5769  1.1017  1.9420
 4407SOL    MW417396   1.573   3.597   6.079  0.7413 -0.1962  0.6088
 4408SOL     OW17397   5.178   0.198   4.261  0.2005 -0.5349 -0.3848
 4408SOL    HW217398   5.195   0.234   4.173  2.2056 -3.1523 -1.1922
 4408SOL    HW317399   5.248   0.234   4.315 -1.3937  1.5889  0.4334
 4408SOL    MW417400   5.189   0.208   4.256  0.2547 -0.6001 -0.3834
 4409SOL     OW17401   2.448   5.780   1.248  0.0281  0.0390 -0.1621
 4409SOL    HW217402   2.361   5.816   1.232 -0.6142 -1.3652  0.0009
 4409SOL    HW317403   2.453   5.702   1.193  1.4852  0.5067 -0.7451
 4409SOL    MW417404   2.437   5.774   1.239  0.1356 -0.0846 -0.2175
 4410SOL     OW17405   4.935   2.945   4.051  0.3191 -0.6662 -0.5844
 4410SOL    HW217406   4.996   2.871   4.059 -2.3275 -2.8724  1.4795
 4410SOL    HW317407   4.870   2.916   3.987 -1.6756 -1.0182  1.4381
 4410SOL    MW417408   4.934   2.931   4.044 -0.2933 -1.0037 -0.0452
 4411SOL     OW17409   3.308   3.672   2.373  0.6490  0.1743  0.2607
 4411SOL    HW217410   3.296   3.588   2.328  1.9659  1.1673 -2.1227
 4411SOL    HW317411   3.397   3.666   2.410 -0.2764 -0.4805  2.5943
 4411SOL    MW417412   3.318   3.660   2.372  0.7006  0.2189  0.2541
 4412SOL     OW17413   3.294   4.597   0.536  0.0622 -0.0242  0.1042
 4412SOL    HW217414   3.267   4.652   0.610 -0.6444 -1.1462  0.6971
 4412SOL    HW317415   3.389   4.603   0.535  0.0865 -0.0896  1.1789
 4412SOL    MW417416   3.303   4.605   0.546 -0.0278 -0.1808  0.3242
 4413SOL     OW17417   0.287   3.952   1.948 -0.7955  0.1315 -0.0243
 4413SOL    HW217418   0.210   3.904   1.981 -0.6945  0.0790  0.1371
 4413SOL    HW317419   0.253   4.038   1.924 -0.9316  0.0616 -0.0829
 4413SOL    MW417420   0.272   3.957   1.949 -0.8001  0.1153 -0.0107
 4414SOL     OW17421   0.202   0.655   4.998  0.1316  0.2282  0.2841
 4414SOL    HW217422   0.233   0.737   4.960 -1.3472  0.1247 -1.2715
 4414SOL    HW317423   0.164   0.608   4.925  0.2355 -1.5202  1.3046
 4414SOL    MW417424   0.201   0.660   4.984 -0.0498 -0.0161  0.2135
 4415SOL     OW17425   5.011   0.975   3.567 -0.0849 -0.8756  0.4624
 4415SOL    HW217426   5.033   0.901   3.510 -3.1108 -0.3074 -1.6599
 4415SOL    HW317427   4.964   0.935   3.640 -0.3586 -1.1964  0.1144
 4415SOL    MW417428   5.007   0.960   3.569 -0.5203 -0.8429  0.1365
 4416SOL     OW17429   4.091   2.433   2.149 -0.2158  0.3755 -0.4939
 4416SOL    HW217430   4.049   2.496   2.207  1.4551  0.9758  0.1439
 4416SOL    HW317431   4.184   2.439   2.171  0.1414 -1.3725 -1.3556
 4416SOL    MW417432   4.098   2.442   2.159  0.0518  0.2241 -0.5235
 4417SOL     OW17433   0.812   3.416   6.170 -0.4066 -0.7489  0.1116
 4417SOL    HW217434   0.748   3.393   6.237 -0.6725  0.9633  0.4977
 4417SOL    HW317435   0.764   3.412   6.088 -0.7232 -0.5370  0.2839
 4417SOL    MW417436   0.798   3.413   6.168 -0.4835 -0.4951  0.1852
 4418SOL     OW17437   1.711   5.437   1.834 -1.0392  0.4904  0.4879
 4418SOL    HW217438   1.705   5.341   1.840 -0.8914  0.5414  1.7259
 4418SOL    HW317439   1.647   5.469   1.898 -3.0627  1.2859 -1.7969
 4418SOL    MW417440   1.702   5.428   1.843 -1.2867  0.6021  0.3498
 4419SOL     OW17441   0.895   1.814   2.129 -0.0760  0.1725  0.1950
 4419SOL    HW217442   0.815   1.826   2.078  0.4941  0.5093 -0.6581
 4419SOL    HW317443   0.957   1.775   2.067  0.0957 -1.1603  1.1479
 4419SOL    MW417444   0.893   1.810   2.114  0.0219  0.0411  0.2082
 4420SOL     OW17445   5.381   1.113   5.737 -0.3310 -0.2303  0.5761
 4420SOL    HW217446   5.368   1.126   5.831  0.1628 -0.5599  0.6943
 4420SOL    HW317447   5.300   1.072   5.707 -0.5950  0.1139  0.8078
 4420SOL    MW417448   5.369   1.109   5.745 -0.3006 -0.2284  0.6222
 4421SOL     OW17449   3.850   5.323   3.617 -0.1085 -0.1056 -0.2095
 4421SOL    HW217450   3.787   5.333   3.689  1.2294  0.5738  0.9211
 4421SOL    HW317451   3.857   5.228   3.604 -0.6281 -0.2201  0.3304
 4421SOL    MW417452   3.843   5.312   3.625 -0.0005 -0.0311  0.0109
 4422SOL     OW17453   6.133   5.115   1.403  0.0893  0.2362  0.2728
 4422SOL    HW217454   6.077   5.060   1.458  0.5640 -0.9663 -0.4100
 4422SOL    HW317455   6.136   5.199   1.449 -0.9082 -0.1937  1.1807
 4422SOL    MW417456   6.126   5.119   1.417  0.0203  0.0208  0.3025
 4423SOL     OW17457   6.414   3.928   4.757  0.1340 -0.3156  0.3000
 4423SOL    HW217458   6.327   3.913   4.720  0.3750  0.3498 -0.5711
 4423SOL    HW317459   6.424   4.023   4.759  0.8454 -0.3842  0.3722
 4423SOL    MW417460   6.404   3.938   4.752  0.2597 -0.2369  0.1946
 4424SOL     OW17461   5.888   3.621   5.539 -0.1550 -0.8316 -0.0674
 4424SOL    HW217462   5.908   3.528   5.532 -1.0903 -1.0226 -0.4167
 4424SOL    HW317463   5.813   3.634   5.480  0.3334  0.2638 -0.4810
 4424SOL    MW417464   5.881   3.610   5.530 -0.2139 -0.7122 -0.1681
 4425SOL     OW17465   3.273   3.408   2.635  0.0358  0.6427  0.0210
 4425SOL    HW217466   3.294   3.394   2.727  1.5790 -0.2972 -0.4501
 4425SOL    HW317467   3.183   3.376   2.626 -0.3129  1.1937  1.2834
 4425SOL    MW417468   3.264   3.402   2.646  0.1934  0.5914  0.1254
 4426SOL     OW17469   2.747   2.305   3.993  0.2051  0.2043  0.4140
 4426SOL    HW217470   2.812   2.311   4.063  0.2131  0.5120  0.3814
 4426SOL    HW317471   2.767   2.378   3.934 -1.0586  1.2175  1.1719
 4426SOL    MW417472   2.758   2.315   3.994  0.0394  0.3786  0.5097
 4427SOL     OW17473   6.442   6.194   3.931  0.3295 -0.0176  0.0305
 4427SOL    HW217474   6.480   6.280   3.912 -1.1869  0.7201  0.2456
 4427SOL    HW317475   6.502   6.132   3.889  1.1441  1.1609 -0.6139
 4427SOL    MW417476   6.455   6.197   3.923  0.2369  0.2352 -0.0261
 4428SOL     OW17477   6.040   1.225   6.336 -0.1376  0.5514 -0.2345
 4428SOL    HW217478   6.118   1.177   6.366  0.0348  1.6302  1.1131
 4428SOL    HW317479   6.060   1.248   6.245  0.1767 -1.0469 -0.6114
 4428SOL    MW417480   6.053   1.222   6.328 -0.0734  0.4828 -0.1064
 4429SOL     OW17481   0.425   0.654   0.479 -0.4619  0.6607 -0.5492
 4429SOL    HW217482   0.458   0.592   0.544 -0.6401 -0.0148 -1.0878
 4429SOL    HW317483   0.342   0.685   0.515 -0.8952 -0.2215 -0.7418
 4429SOL    MW417484   0.419   0.650   0.492 -0.5426  0.4552 -0.6457
 4430SOL     OW17485   1.792   5.280   5.089 -0.1986 -0.0400 -0.4717
 4430SOL    HW217486   1.856   5.343   5.058 -1.4731  2.2486  1.2692
 4430SOL    HW317487   1.822   5.257   5.177 -0.9242 -0.1531 -0.2450
 4430SOL    MW417488   1.804   5.285   5.097 -0.4625  0.2470 -0.2121
 4431SOL     OW17489   4.343   4.407   4.810  0.1154 -0.3382 -0.4462
 4431SOL    HW217490   4.273   4.408   4.745  0.8639 -1.5182 -1.3018
 4431SOL    HW317491   4.364   4.314   4.822  0.3038 -0.1216  1.1588
 4431SOL    MW417492   4.337   4.395   4.803  0.2390 -0.4653 -0.3474
 4432SOL     OW17493   1.003   5.710   0.397 -0.2799 -0.5496  0.0546
 4432SOL    HW217494   1.069   5.703   0.328  0.2610  0.0832  0.4901
 4432SOL    HW317495   0.931   5.759   0.357 -0.5912 -1.4120 -0.4842
 4432SOL    MW417496   1.002   5.715   0.383 -0.2496 -0.5799  0.0410
 4433SOL     OW17497   5.018   5.069   5.703 -0.0500  0.1452  0.4991
 4433SOL    HW217498   4.949   5.004   5.695  0.7040 -0.6319  0.2383
 4433SOL    HW317499   5.058   5.053   5.788  0.6614 -0.2632  0.0953
 4433SOL    MW417500   5.014   5.059   5.713  0.1433 -0.0112  0.4114
 4434SOL     OW17501   4.943   1.832   4.769  0.0558  0.4582 -0.2556
 4434SOL    HW217502   5.019   1.880   4.738 -0.3147  1.1928 -0.0613
 4434SOL    HW317503   4.923   1.872   4.854 -0.9854  0.7798 -0.6382
 4434SOL    MW417504   4.950   1.844   4.776 -0.1305  0.5976 -0.2804
 4435SOL     OW17505   6.421   4.071   0.897  0.1351 -0.7003  0.5592
 4435SOL    HW217506   6.359   4.037   0.833  0.2213 -0.4062  0.3157
 4435SOL    HW317507   6.382   4.153   0.927 -0.2360 -1.1759  1.3970
 4435SOL    MW417508   6.408   4.077   0.892  0.0975 -0.7242  0.6376
 4436SOL     OW17509   1.080   2.290   6.257  0.6410  0.7300  0.1698
 4436SOL    HW217510   1.107   2.258   6.344  2.0108  1.1322 -0.0802
 4436SOL    HW317511   0.992   2.256   6.246  0.6877  0.1045  1.4468
 4436SOL    MW417512   1.072   2.281   6.267  0.8279  0.7005  0.3053
 4437SOL     OW17513   5.134   4.127   6.073  0.3418  0.2070  0.1949
 4437SOL    HW217514   5.218   4.123   6.120  0.3857 -0.7371  0.0552
 4437SOL    HW317515   5.082   4.056   6.111 -0.5703  1.0660  0.5928
 4437SOL    MW417516   5.139   4.117   6.085  0.2273  0.1958  0.2290
 4438SOL     OW17517   3.855   4.981   1.244  0.4354 -0.0830  0.1379
 4438SOL    HW217518   3.927   5.044   1.248  2.4865 -2.2981  0.1130
 4438SOL    HW317519   3.810   4.989   1.328  2.5267 -0.6504  1.3612
 4438SOL    MW417520   3.858   4.990   1.255  0.9819 -0.4501  0.2960
 4439SOL     OW17521   1.206   3.643   3.669 -0.2676  0.3080  0.1377
 4439SOL    HW217522   1.280   3.704   3.680 -0.3614  0.5117 -0.3664
 4439SOL    HW317523   1.241   3.559   3.698  0.0825  0.4537  0.1507
 4439SOL    MW417524   1.221   3.640   3.674 -0.2338  0.3541  0.0729
 4440SOL     OW17525   2.284   3.823   4.007 -0.1599 -0.6762 -0.3794
 4440SOL    HW217526   2.264   3.775   3.926 -0.8262 -0.0058 -0.6140
 4440SOL    HW317527   2.235   3.777   4.075 -0.0738 -0.8764 -0.4516
 4440SOL    MW417528   2.275   3.810   4.005 -0.2365 -0.6141 -0.4199
 4441SOL     OW17529   5.905   0.624   2.412 -0.0268  0.0478  0.3000
 4441SOL    HW217530   5.973   0.559   2.428 -0.5013  0.1395  3.1824
 4441SOL    HW317531   5.953   0.703   2.386  0.8497 -0.4039  0.5128
 4441SOL    MW417532   5.921   0.626   2.411  0.0262  0.0003  0.7084
 4442SOL     OW17533   2.048   0.118   4.371 -0.0616 -0.0196 -0.0439
 4442SOL    HW217534   1.960   0.153   4.380 -0.3359 -0.6429 -0.2560
 4442SOL    HW317535   2.090   0.175   4.306 -0.3083  0.2654  0.0453
 4442SOL    MW417536   2.042   0.130   4.363 -0.1303 -0.0643 -0.0601
 4443SOL     OW17537   2.086   1.903   4.146  0.9156 -0.2047  0.1698
 4443SOL    HW217538   2.088   1.896   4.051  1.2811  0.5829  0.1120
 4443SOL    HW317539   2.049   1.819   4.176 -0.4471  0.0546 -0.7238
 4443SOL    MW417540   2.082   1.891   4.137  0.7840 -0.0666  0.0442
 4444SOL     OW17541   1.997   5.796   5.843  0.0121  0.2744  0.4045
 4444SOL    HW217542   2.024   5.869   5.788  0.0964  0.3037  0.4836
 4444SOL    HW317543   2.064   5.729   5.829  0.2128  0.4044  0.7161
 4444SOL    MW417544   2.010   5.797   5.834  0.0497  0.2954  0.4561
 4445SOL     OW17545   5.496   2.961   5.181 -0.3629 -0.4431  0.2467
 4445SOL    HW217546   5.551   2.951   5.103  0.6075 -1.3039  1.0051
 4445SOL    HW317547   5.478   3.055   5.186 -0.0556 -0.3251 -0.7537
 4445SOL    MW417548   5.501   2.972   5.171 -0.1944 -0.5411  0.2148
 4446SOL     OW17549   2.169   2.176   0.767  0.3513  0.2864 -0.8718
 4446SOL    HW217550   2.209   2.229   0.837  0.1897  1.1119 -1.3947
 4446SOL    HW317551   2.132   2.240   0.707  0.8656 -0.3963 -1.9469
 4446SOL    MW417552   2.170   2.191   0.769  0.3978  0.3052 -1.0826
 4447SOL     OW17553   0.713   4.287   5.113  0.4361  0.2061 -0.3583
 4447SOL    HW217554   0.641   4.348   5.132  0.6382  0.6502 -0.9957
 4447SOL    HW317555   0.752   4.320   5.032 -0.6467 -1.8448 -1.8225
 4447SOL    MW417556   0.709   4.300   5.105  0.3199 -0.0059 -0.6356
 4448SOL     OW17557   6.146   2.694   2.906  0.0001 -0.7375 -0.1475
 4448SOL    HW217558   6.167   2.785   2.888 -0.1652 -0.5149  0.7319
 4448SOL    HW317559   6.207   2.644   2.852  0.4278 -0.1048 -0.2588
 4448SOL    MW417560   6.157   2.699   2.897  0.0347 -0.6246 -0.0461
 4449SOL     OW17561   4.673   1.719   4.635  0.0214  0.3269  0.2646
 4449SOL    HW217562   4.656   1.777   4.561 -1.0972  1.0455  1.0496
 4449SOL    HW317563   4.764   1.733   4.657  0.2297  0.4770 -0.6455
 4449SOL    MW417564   4.683   1.728   4.628 -0.0987  0.4415  0.2481
 4450SOL     OW17565   4.149   2.355   0.247  0.1983  0.1412  0.0380
 4450SOL    HW217566   4.091   2.427   0.222  0.0381  0.0441  0.1243
 4450SOL    HW317567   4.203   2.391   0.317  0.6149  0.3970 -0.4116
 4450SOL    MW417568   4.148   2.369   0.253  0.2321  0.1621 -0.0099
 4451SOL     OW17569   3.324   6.194   0.743 -0.9783  0.4416 -0.5815
 4451SOL    HW217570   3.322   6.098   0.743  2.3510  0.2292  0.2628
 4451SOL    HW317571   3.318   6.217   0.836 -0.3434  0.9292 -0.6545
 4451SOL    MW417572   3.323   6.184   0.755 -0.4553  0.4779 -0.4797
 4452SOL     OW17573   0.402   2.414   1.497 -0.0016  0.1778  0.5346
 4452SOL    HW217574   0.424   2.333   1.450 -0.7517  0.9031 -1.1517
 4452SOL    HW317575   0.481   2.468   1.489  0.0256  0.1326  0.4949
 4452SOL    MW417576   0.415   2.411   1.490 -0.0970  0.2675  0.3068
 4453SOL     OW17577   1.616   3.409   3.656  0.6767 -0.0808  0.0446
 4453SOL    HW217578   1.561   3.342   3.616  1.7869 -0.5017 -0.8295
 4453SOL    HW317579   1.557   3.455   3.716 -0.1945 -1.5990  0.4070
 4453SOL    MW417580   1.601   3.406   3.658  0.7082 -0.3367 -0.0229
 4454SOL     OW17581   1.387   1.459   4.417 -0.8165 -0.2752  0.0007
 4454SOL    HW217582   1.482   1.467   4.423 -0.9957  1.5646  1.2236
 4454SOL    HW317583   1.370   1.365   4.419  0.8964 -0.5923  1.2198
 4454SOL    MW417584   1.397   1.448   4.418 -0.6142 -0.0743  0.3229
 4455SOL     OW17585   2.278   1.976   1.741 -0.0347  0.4036 -0.2921
 4455SOL    HW217586   2.360   2.026   1.736 -0.6828  1.4577 -0.7427
 4455SOL    HW317587   2.278   1.939   1.830  1.9261 -1.4278 -0.9674
 4455SOL    MW417588   2.289   1.978   1.752  0.1385  0.3011 -0.4406
 4456SOL     OW17589   4.097   1.057   3.904  0.0799  0.0866  0.2869
 4456SOL    HW217590   4.111   1.063   3.810 -0.2214 -0.9399  0.1627
 4456SOL    HW317591   4.156   0.987   3.933  1.0735  1.2113  1.0734
 4456SOL    MW417592   4.107   1.049   3.896  0.1713  0.0995  0.3742
 4457SOL     OW17593   4.032   4.151   1.380 -0.1289 -0.1725 -0.1042
 4457SOL    HW217594   3.957   4.187   1.428 -0.0816 -0.6825  0.3598
 4457SOL    HW317595   4.041   4.208   1.304  0.4113  1.2420  0.9877
 4457SOL    MW417596   4.023   4.163   1.376 -0.0514 -0.0532  0.1011
 4458SOL     OW17597   3.852   1.872   0.540  0.0237 -0.0919 -0.0815
 4458SOL    HW217598   3.933   1.879   0.489  0.5076  2.4689  0.8614
 4458SOL    HW317599   3.782   1.897   0.480  0.1788 -0.3759 -0.3784
 4458SOL    MW417600   3.854   1.876   0.526  0.1080  0.2085  0.0038
 4459SOL     OW17601   5.324   6.011   5.499  0.2805 -1.0663  0.2561
 4459SOL    HW217602   5.259   6.079   5.484 -0.0434 -1.3903  0.1803
 4459SOL    HW317603   5.390   6.053   5.554  0.4375 -0.4880 -0.3645
 4459SOL    MW417604   5.324   6.025   5.504  0.2584 -1.0327  0.1642
 4460SOL     OW17605   2.109   3.053   3.207  0.0470 -0.4161  0.2645
 4460SOL    HW217606   2.034   3.001   3.178 -0.5649  0.3989  0.3479
 4460SOL    HW317607   2.119   3.120   3.140  2.3291 -1.9921 -1.1205
 4460SOL    MW417608   2.100   3.055   3.195  0.2674 -0.5165  0.0928
 4461SOL     OW17609   6.272   1.730   5.826  0.2567 -0.7107 -0.1264
 4461SOL    HW217610   6.238   1.713   5.739 -0.5253  0.8619 -0.1741
 4461SOL    HW317611   6.195   1.746   5.880  0.7190  2.9450 -0.2398
 4461SOL    MW417612   6.257   1.730   5.822  0.2145 -0.0208 -0.1477
 4462SOL     OW17613   5.296   5.004   3.659 -0.0108  0.2191 -0.3664
 4462SOL    HW217614   5.225   5.045   3.610 -1.4220 -2.1570 -0.4524
 4462SOL    HW317615   5.253   4.940   3.716  2.0067 -1.0618 -0.1652
 4462SOL    MW417616   5.281   5.001   3.660  0.0692 -0.2634 -0.3512
 4463SOL     OW17617   1.867   6.007   2.067 -0.3327 -0.7972  0.0524
 4463SOL    HW217618   1.901   6.097   2.073 -1.3870 -0.4591  1.4985
 4463SOL    HW317619   1.778   6.013   2.102  0.5599 -2.9293  3.1492
 4463SOL    MW417620   1.860   6.020   2.073 -0.3540 -1.0339  0.6518
 4464SOL     OW17621   0.969   4.624   0.185 -0.7188 -0.3112 -0.5017
 4464SOL    HW217622   1.062   4.640   0.168 -0.4398  0.9873  1.8543
 4464SOL    HW317623   0.958   4.530   0.168  1.0841 -0.5463 -0.5914
 4464SOL    MW417624   0.980   4.614   0.181 -0.4441 -0.1709 -0.2027
 4465SOL     OW17625   1.597   1.860   1.956  0.4210  0.4908 -0.4593
 4465SOL    HW217626   1.619   1.767   1.967  0.1276  0.1706 -2.3077
 4465SOL    HW317627   1.653   1.905   2.020  1.1373 -0.8935 -0.0613
 4465SOL    MW417628   1.608   1.854   1.966  0.4768  0.2659 -0.6506
 4466SOL     OW17629   3.605   2.092   1.323 -0.2009  0.3384 -0.0289
 4466SOL    HW217630   3.692   2.112   1.356 -0.6334  2.2313  0.0621
 4466SOL    HW317631   3.606   2.122   1.231  0.2058 -2.5604 -1.0654
 4466SOL    MW417632   3.616   2.099   1.315 -0.2043  0.2057 -0.1536
 4467SOL     OW17633   0.063   4.013   6.146  0.3795 -0.3269 -0.2966
 4467SOL    HW217634   0.081   4.076   6.075  2.0264  0.7257  0.9886
 4467SOL    HW317635   0.120   3.939   6.127  1.0244  0.0709  0.0490
 4467SOL    MW417636   0.073   4.012   6.134  0.6819 -0.1355 -0.0814
 4468SOL     OW17637   1.878   3.886   3.997 -0.4555 -0.5890 -0.1270
 4468SOL    HW217638   1.890   3.837   4.078  1.0987 -1.4190 -0.8025
 4468SOL    HW317639   1.965   3.923   3.979 -1.2578  1.2368 -0.3838
 4468SOL    MW417640   1.891   3.884   4.005 -0.3563 -0.4576 -0.2500
 4469SOL     OW17641   2.003   4.507   6.107  0.3264  0.0828 -0.1395
 4469SOL    HW217642   2.081   4.475   6.154  0.0108 -1.3280 -0.5138
 4469SOL    HW317643   1.957   4.560   6.172  0.5627 -0.7511  0.7450
 4469SOL    MW417644   2.008   4.509   6.122  0.3159 -0.2133 -0.0722
 4470SOL     OW17645   5.359   0.200   0.966  0.1774 -0.2523 -0.1044
 4470SOL    HW217646   5.444   0.195   0.923  1.0706  0.4470  1.5032
 4470SOL    HW317647   5.324   0.111   0.959  0.7861 -0.4302 -1.2194
 4470SOL    MW417648   5.365   0.188   0.959  0.3756 -0.1835 -0.0394
 4471SOL     OW17649   3.079   3.824   6.304  0.0305  0.3147  0.7613
 4471SOL    HW217650   3.016   3.836   6.375  1.3121 -0.7925  2.1515
 4471SOL    HW317651   3.094   3.730   6.301 -0.1338  0.3118 -1.1520
 4471SOL    MW417652   3.073   3.814   6.313  0.1779  0.1682  0.6923
 4472SOL     OW17653   2.892   3.851   5.086 -0.5003 -0.0144 -0.0962
 4472SOL    HW217654   2.942   3.835   5.006 -0.2881 -4.0587  0.6730
 4472SOL    HW317655   2.807   3.883   5.054  0.0220 -0.2519 -1.8410
 4472SOL    MW417656   2.887   3.853   5.071 -0.4034 -0.5794 -0.2249
 4473SOL     OW17657   1.952   3.966   4.967  0.4060  0.2420 -0.1367
 4473SOL    HW217658   2.030   3.992   5.016 -0.5065  1.7519  0.5762
 4473SOL    HW317659   1.940   4.036   4.903 -0.1556 -0.1780 -0.5009
 4473SOL    MW417660   1.961   3.978   4.965  0.2115  0.3858 -0.0907
 4474SOL     OW17661   0.378   4.552   2.313 -0.0931  0.4287  0.2956
 4474SOL    HW217662   0.353   4.644   2.303  0.9483  0.8403  1.2258
 4474SOL    HW317663   0.451   4.540   2.253 -1.8634 -0.5426 -1.7909
 4474SOL    MW417664   0.384   4.562   2.304 -0.1893  0.3549  0.1430
 4475SOL     OW17665   3.939   0.626   0.801  0.1454  0.2423  0.3859
 4475SOL    HW217666   3.949   0.688   0.729  1.4432  0.4389  0.7180
 4475SOL    HW317667   3.955   0.541   0.762 -0.7267  0.1888  0.1234
 4475SOL    MW417668   3.942   0.623   0.787  0.2016  0.2612  0.3951
 4476SOL     OW17669   5.260   2.224   3.946 -0.3094  0.0875 -0.0984
 4476SOL    HW217670   5.347   2.260   3.957 -0.1984  0.1076 -0.9448
 4476SOL    HW317671   5.214   2.288   3.892 -1.3343  0.8050  1.5446
 4476SOL    MW417672   5.265   2.237   3.940 -0.4300  0.1848  0.0067
 4477SOL     OW17673   1.479   2.747   1.276  0.1575 -0.4830  0.2822
 4477SOL    HW217674   1.454   2.690   1.349  0.4409  0.0327  0.7880
 4477SOL    HW317675   1.563   2.712   1.247  0.3775 -0.2770  0.6542
 4477SOL    MW417676   1.486   2.735   1.282  0.2239 -0.3877  0.3980
 4478SOL     OW17677   0.822   4.652   2.443 -0.1387 -0.1866  0.1611
 4478SOL    HW217678   0.851   4.569   2.404  1.5247 -1.0468  2.9753
 4478SOL    HW317679   0.886   4.717   2.413  0.4178 -0.5838  0.4752
 4478SOL    MW417680   0.834   4.650   2.434  0.1542 -0.3525  0.5738
 4479SOL     OW17681   4.706   4.187   2.643 -0.2306 -0.5166  0.4031
 4479SOL    HW217682   4.690   4.273   2.602 -1.6171 -0.0820  1.7594
 4479SOL    HW317683   4.744   4.207   2.728  1.1387 -1.3492  0.0126
 4479SOL    MW417684   4.709   4.201   2.648 -0.2329 -0.5691  0.5305
 4480SOL     OW17685   5.729   0.640   1.933 -0.0990 -0.0583 -0.3082
 4480SOL    HW217686   5.661   0.581   1.964 -0.6194  0.0912 -1.1242
 4480SOL    HW317687   5.807   0.585   1.928  0.4229  0.2613  2.6716
 4480SOL    MW417688   5.730   0.625   1.936 -0.0988  0.0036 -0.0227
 4481SOL     OW17689   0.562   0.262   2.758 -0.0938 -0.4104 -0.1484
 4481SOL    HW217690   0.548   0.197   2.689 -2.4204  0.9086 -1.0048
 4481SOL    HW317691   0.504   0.334   2.735  0.6493  0.9731  2.0764
 4481SOL    MW417692   0.553   0.263   2.746 -0.3027 -0.0538  0.0321
 4482SOL     OW17693   0.649   5.579   5.630  0.4855  0.3914 -0.7704
 4482SOL    HW217694   0.651   5.626   5.546 -1.4214 -0.5617 -1.4179
 4482SOL    HW317695   0.560   5.592   5.663  0.6255 -0.8123  0.1659
 4482SOL    MW417696   0.637   5.587   5.623  0.2524  0.1068 -0.7323
 4483SOL     OW17697   3.545   5.678   1.178 -0.6147 -0.0575 -0.3090
 4483SOL    HW217698   3.523   5.600   1.127 -0.1811  0.0774 -0.7091
 4483SOL    HW317699   3.467   5.696   1.230 -0.4154 -1.2852  0.4566
 4483SOL    MW417700   3.532   5.670   1.178 -0.5312 -0.2017 -0.2608
 4484SOL     OW17701   2.362   4.131   4.119 -0.3181  0.4305  0.1492
 4484SOL    HW217702   2.402   4.100   4.038 -0.2239  1.3637 -0.1725
 4484SOL    HW317703   2.269   4.110   4.109 -0.1531 -0.3970  0.2585
 4484SOL    MW417704   2.355   4.124   4.107 -0.2839  0.4445  0.1212
 4485SOL     OW17705   3.052   4.309   5.227  0.0802  0.3281  0.3685
 4485SOL    HW217706   3.146   4.295   5.240  0.1713  0.9424  0.3864
 4485SOL    HW317707   3.035   4.394   5.267 -0.4080  0.4075 -0.0047
 4485SOL    MW417708   3.063   4.318   5.234  0.0278  0.4196  0.3216
 4486SOL     OW17709   0.629   2.124   3.836 -0.4113 -0.2153  0.6449
 4486SOL    HW217710   0.706   2.180   3.845  0.3051 -1.2884  1.5050
 4486SOL    HW317711   0.564   2.163   3.894 -0.5918  0.8009 -0.2241
 4486SOL    MW417712   0.631   2.136   3.845 -0.3406 -0.2228  0.6437
 4487SOL     OW17713   1.310   4.248   0.331  0.3869 -0.1986  0.0183
 4487SOL    HW217714   1.346   4.301   0.260  1.5269  0.8630  1.3271
 4487SOL    HW317715   1.382   4.191   0.358  0.1507 -0.1876  0.6947
 4487SOL    MW417716   1.324   4.247   0.325  0.5061 -0.0571  0.2802
 4488SOL     OW17717   0.625   2.765   3.960 -1.1156  0.0165 -0.1569
 4488SOL    HW217718   0.577   2.775   3.878  0.4306 -0.8588 -1.2063
 4488SOL    HW317719   0.677   2.844   3.968 -1.2016  0.0636 -0.0624
 4488SOL    MW417720   0.625   2.777   3.950 -0.9229 -0.0927 -0.2829
 4489SOL     OW17721   4.004   2.884   2.278  0.0530 -0.2269  0.7043
 4489SOL    HW217722   3.919   2.923   2.297 -1.2008 -1.6826 -1.4812
 4489SOL    HW317723   4.019   2.903   2.185  1.7497 -0.6862  0.8475
 4489SOL    MW417724   3.995   2.892   2.268  0.1115 -0.4796  0.4349
 4490SOL     OW17725   2.017   3.709   4.897  0.0232  0.5318  1.1001
 4490SOL    HW217726   2.003   3.651   4.972 -1.5740  0.8956  1.1274
 4490SOL    HW317727   1.986   3.795   4.927  2.0987  1.3758  0.9708
 4490SOL    MW417728   2.011   3.713   4.910  0.0863  0.6911  1.0866
 4491SOL     OW17729   2.272   0.687   5.736 -0.1837 -0.2518 -0.1758
 4491SOL    HW217730   2.333   0.622   5.771 -0.0412 -0.5115 -0.8947
 4491SOL    HW317731   2.328   0.753   5.694 -0.3918 -0.5555 -0.9462
 4491SOL    MW417732   2.288   0.687   5.735 -0.1924 -0.3261 -0.3723
 4492SOL     OW17733   2.787   2.866   1.463  0.3303  0.1295 -0.5390
 4492SOL    HW217734   2.736   2.873   1.383  0.4255 -0.1395 -0.6276
 4492SOL    HW317735   2.859   2.806   1.440  0.3163 -0.0085 -0.2336
 4492SOL    MW417736   2.790   2.859   1.450  0.3410  0.0758 -0.5104
 4493SOL     OW17737   3.613   4.593   2.470  0.0029  0.1498 -0.1408
 4493SOL    HW217738   3.576   4.512   2.435  0.5799 -0.3272  0.3259
 4493SOL    HW317739   3.582   4.595   2.561  2.0920 -0.9083  0.6514
 4493SOL    MW417740   3.604   4.582   2.478  0.3547 -0.0527  0.0253
 4494SOL     OW17741   6.414   0.008   6.395 -0.4352  0.2213 -0.3698
 4494SOL    HW217742   6.337   0.049   6.435  0.7220  1.1641  0.9896
 4494SOL    HW317743   6.400   0.019   6.301 -1.4792  1.2920 -0.1217
 4494SOL    MW417744   6.402   0.015   6.388 -0.4203  0.4869 -0.1577
 4495SOL     OW17745   0.589   4.806   3.343 -0.0640 -0.0820  0.4431
 4495SOL    HW217746   0.657   4.793   3.409 -1.6222  3.5170  3.1263
 4495SOL    HW317747   0.507   4.785   3.389 -1.0821  0.3645 -1.0904
 4495SOL    MW417748   0.587   4.802   3.358 -0.4039  0.4517  0.5948
 4496SOL     OW17749   1.618   2.164   4.679  0.0398  0.1350  0.0847
 4496SOL    HW217750   1.672   2.158   4.758 -1.1807 -0.5160  0.8927
 4496SOL    HW317751   1.583   2.253   4.681 -0.0894  0.0783  0.3369
 4496SOL    MW417752   1.621   2.175   4.689 -0.1382  0.0416  0.2246
 4497SOL     OW17753   5.566   3.190   3.692  0.0533  0.2830 -0.1183
 4497SOL    HW217754   5.564   3.285   3.709  0.5769  0.2135  0.3442
 4497SOL    HW317755   5.539   3.150   3.775 -1.1334  0.0414 -0.5925
 4497SOL    MW417756   5.562   3.198   3.706 -0.0342  0.2420 -0.1198
 4498SOL     OW17757   1.728   3.491   0.448 -0.5376 -0.1729 -0.2523
 4498SOL    HW217758   1.699   3.559   0.508  0.8601 -1.4697  2.0066
 4498SOL    HW317759   1.820   3.511   0.431 -0.7991 -0.0658 -1.6789
 4498SOL    MW417760   1.736   3.502   0.453 -0.3877 -0.3299 -0.1425
 4499SOL     OW17761   2.471   0.314   5.106 -0.6119 -0.3581  0.1130
 4499SOL    HW217762   2.408   0.384   5.089  0.8294  0.9843  0.1444
 4499SOL    HW317763   2.514   0.340   5.188 -0.1287 -1.3411  0.1861
 4499SOL    MW417764   2.468   0.327   5.115 -0.3580 -0.3107  0.1268
 4500SOL     OW17765   3.639   5.366   5.819  0.1754 -0.3356  0.7551
 4500SOL    HW217766   3.598   5.422   5.886  0.1399  2.0326 -1.1252
 4500SOL    HW317767   3.713   5.418   5.787 -0.0392 -1.2389 -1.3113
 4500SOL    MW417768   3.644   5.380   5.824  0.1424 -0.1423  0.2344
 4501SOL     OW17769   3.969   0.593   1.353 -0.2553 -0.1058  0.5278
 4501SOL    HW217770   3.877   0.616   1.346 -0.2158  0.0512  0.5222
 4501SOL    HW317771   3.979   0.517   1.296 -0.4850 -0.4255  0.9091
 4501SOL    MW417772   3.959   0.586   1.345 -0.2804 -0.1273  0.5773
 4502SOL     OW17773   4.533   3.720   4.086 -0.2814 -0.0716  0.1181
 4502SOL    HW217774   4.598   3.765   4.140 -1.2854 -0.8752  2.1106
 4502SOL    HW317775   4.449   3.761   4.110 -0.9338 -1.4379  0.2808
 4502SOL    MW417776   4.530   3.732   4.096 -0.5000 -0.3579  0.4025
 4503SOL     OW17777   2.704   6.097   4.076 -0.0590  0.1376  0.0111
 4503SOL    HW217778   2.792   6.119   4.107 -0.3663  0.9456  0.3362
 4503SOL    HW317779   2.718   6.046   3.997  0.7594 -1.8985  1.3789
 4503SOL    MW417780   2.717   6.093   4.070  0.0084 -0.0244  0.2344
 4504SOL     OW17781   5.755   2.218   0.397  0.5333  0.3857 -0.4205
 4504SOL    HW217782   5.733   2.126   0.379 -0.9685  0.7194 -0.4508
 4504SOL    HW317783   5.850   2.218   0.408  0.4707 -1.3387  0.5587
 4504SOL    MW417784   5.765   2.206   0.396  0.3269  0.2022 -0.2953
 4505SOL     OW17785   2.552   3.265   3.479 -0.1442  0.3912 -0.0421
 4505SOL    HW217786   2.639   3.303   3.491  0.0178  0.9727 -2.5010
 4505SOL    HW317787   2.510   3.273   3.565  1.9623  0.7346  1.0141
 4505SOL    MW417788   2.558   3.271   3.492  0.1551  0.5132 -0.2272
 4506SOL     OW17789   0.241   3.791   4.629  0.3653 -0.1667  0.5762
 4506SOL    HW217790   0.275   3.856   4.690  1.1887 -0.5515  0.5424
 4506SOL    HW317791   0.161   3.759   4.670 -0.9619  2.0050 -0.1607
 4506SOL    MW417792   0.235   3.795   4.643  0.2988  0.0691  0.4745
 4507SOL     OW17793   0.718   3.654   5.415 -0.2329 -0.0191  0.3092
 4507SOL    HW217794   0.785   3.630   5.351 -1.4449 -1.4371 -0.4831
 4507SOL    HW317795   0.752   3.734   5.456  1.6635 -0.3791 -0.4412
 4507SOL    MW417796   0.731   3.662   5.412 -0.1426 -0.2537  0.1056
 4508SOL     OW17797   2.083   3.812   0.090  0.2702 -0.2330 -0.3913
 4508SOL    HW217798   2.149   3.745   0.109  0.4119 -0.3517 -1.2348
 4508SOL    HW317799   2.129   3.876   0.035  0.7054  1.6406  2.0062
 4508SOL    MW417800   2.098   3.812   0.085  0.3463 -0.0014 -0.1863
 4509SOL     OW17801   4.785   6.091   0.110  0.1256  0.0344 -0.4998
 4509SOL    HW217802   4.804   6.014   0.163 -2.3158 -0.6911 -0.5417
 4509SOL    HW317803   4.748   6.055   0.029 -2.2174  1.2044 -0.0257
 4509SOL    MW417804   4.783   6.076   0.106 -0.5056  0.0930 -0.4428
 4510SOL     OW17805   4.770   5.107   1.844  0.6104  0.6965 -0.6337
 4510SOL    HW217806   4.716   5.176   1.882  0.7298  1.1736 -1.3042
 4510SOL    HW317807   4.726   5.025   1.869 -0.5423  1.0747 -1.3168
 4510SOL    MW417808   4.757   5.105   1.852  0.4741  0.8093 -0.8123
 4511SOL     OW17809   5.912   5.238   2.081  0.0579 -0.4254 -0.0009
 4511SOL    HW217810   5.940   5.266   2.168 -0.6490  0.1925  0.0412
 4511SOL    HW317811   5.973   5.281   2.021 -1.0820  1.3830  0.0558
 4511SOL    MW417812   5.923   5.247   2.085 -0.1858 -0.1053  0.0121
 4512SOL     OW17813   0.538   1.981   5.610 -0.9499  0.5309  0.1323
 4512SOL    HW217814   0.478   1.914   5.642 -1.2619  0.3128 -0.8748
 4512SOL    HW317815   0.485   2.061   5.606 -0.9617  0.5164 -0.0057
 4512SOL    MW417816   0.523   1.983   5.614 -0.9926  0.5002 -0.0188
 4513SOL     OW17817   6.314   1.578   2.437 -0.3916 -0.3310  0.1710
 4513SOL    HW217818   6.270   1.643   2.382  2.6910  1.4753 -0.4344
 4513SOL    HW317819   6.316   1.617   2.524 -3.3004 -2.2098  1.2371
 4513SOL    MW417820   6.309   1.592   2.441 -0.3687 -0.3405  0.2317
 4514SOL     OW17821   5.646   4.347   2.286 -0.4521  0.1010 -0.4409
 4514SOL    HW217822   5.698   4.377   2.360 -0.6090  0.6676 -0.5585
 4514SOL    HW317823   5.685   4.391   2.210  0.2429 -1.1105 -0.8242
 4514SOL    MW417824   5.658   4.356   2.285 -0.3811  0.0159 -0.5070
 4515SOL     OW17825   1.922   4.228   2.858  0.0708 -0.1528  0.1209
 4515SOL    HW217826   1.856   4.260   2.919 -0.3186  0.0675 -0.4076
 4515SOL    HW317827   1.964   4.156   2.904  0.5998  0.7663  1.1115
 4515SOL    MW417828   1.919   4.223   2.872  0.0892 -0.0025  0.1818
 4516SOL     OW17829   3.907   1.977   3.372  0.4757  0.8936  0.2151
 4516SOL    HW217830   4.002   1.979   3.370  0.4655  1.1493 -1.1876
 4516SOL    HW317831   3.880   2.039   3.304 -0.5958 -2.0548 -2.3136
 4516SOL    MW417832   3.916   1.985   3.363  0.3330  0.5383 -0.3036
 4517SOL     OW17833   1.591   0.614   5.875  0.5678 -0.5874  0.1094
 4517SOL    HW217834   1.644   0.691   5.855 -2.1569  0.9061 -2.0664
 4517SOL    HW317835   1.610   0.595   5.967  0.2692  3.7070  1.2722
 4517SOL    MW417836   1.600   0.622   5.885  0.1689  0.1763 -0.0242
 4518SOL     OW17837   5.069   1.416   1.670 -0.0310 -0.0954  0.2617
 4518SOL    HW217838   5.162   1.401   1.685  0.2038  0.4303 -0.6009
 4518SOL    HW317839   5.051   1.374   1.585 -0.1298  1.4612 -0.5141
 4518SOL    MW417840   5.079   1.408   1.660 -0.0130  0.1793  0.0455
 4519SOL     OW17841   2.832   0.069   2.556  0.5072  0.2096 -0.0579
 4519SOL    HW217842   2.846  -0.017   2.517 -3.3109  0.3843 -2.2547
 4519SOL    HW317843   2.784   0.051   2.636 -1.5535  0.2270 -1.2216
 4519SOL    MW417844   2.828   0.055   2.561 -0.2684  0.2349 -0.5013
 4520SOL     OW17845   2.819   4.394   1.517 -0.1960  0.2362  0.2618
 4520SOL    HW217846   2.881   4.393   1.590 -1.8766  1.7680  1.8211
 4520SOL    HW317847   2.738   4.428   1.555 -1.5640 -0.2217 -2.0379
 4520SOL    MW417848   2.816   4.398   1.532 -0.5982  0.3779  0.1641
 4521SOL     OW17849   3.608   4.471   5.284 -0.3182  0.0108 -0.3975
 4521SOL    HW217850   3.687   4.455   5.336 -0.5813  0.3348  0.1078
 4521SOL    HW317851   3.610   4.404   5.216  1.1108  0.8330 -1.2340
 4521SOL    MW417852   3.619   4.460   5.282 -0.1644  0.1620 -0.4412
 4522SOL     OW17853   2.039   1.644   5.387 -0.3669  0.6767 -0.4061
 4522SOL    HW217854   2.105   1.575   5.383 -2.0153 -0.9121 -1.9826
 4522SOL    HW317855   2.089   1.723   5.408  1.6469 -0.8810  1.1446
 4522SOL    MW417856   2.055   1.645   5.390 -0.3187  0.2615 -0.4095
 4523SOL     OW17857   2.353   4.537   0.292 -0.1177  0.3266  0.4904
 4523SOL    HW217858   2.300   4.541   0.212 -0.8930 -0.8386  0.9330
 4523SOL    HW317859   2.435   4.496   0.264 -0.2650  0.2100  0.2262
 4523SOL    MW417860   2.357   4.532   0.277 -0.2394  0.1575  0.5140
 4524SOL     OW17861   0.267   6.386   1.073 -0.1562 -0.7109  0.0118
 4524SOL    HW217862   0.176   6.357   1.074 -0.3996 -0.0875 -1.5400
 4524SOL    HW317863   0.314   6.319   1.123 -1.1118 -2.3626 -1.1911
 4524SOL    MW417864   0.262   6.373   1.080 -0.3144 -0.8466 -0.3516
 4525SOL     OW17865   6.261   5.347   4.608  0.2148 -0.4225  0.7677
 4525SOL    HW217866   6.277   5.431   4.567 -0.6944  0.7043  2.6037
 4525SOL    HW317867   6.192   5.307   4.554 -1.5630  1.3837  1.5710
 4525SOL    MW417868   6.254   5.352   4.596 -0.1397 -0.0355  1.1159
 4526SOL     OW17869   4.956   1.534   5.335  0.0928  0.7467  0.1809
 4526SOL    HW217870   4.862   1.517   5.342 -0.0167  0.7350 -0.9752
 4526SOL    HW317871   4.963   1.629   5.329  0.3612  0.9143  2.5073
 4526SOL    MW417872   4.945   1.544   5.335  0.1138  0.7672  0.3353
 4527SOL     OW17873   1.887   4.483   3.675  0.6305  0.3608 -0.9164
 4527SOL    HW217874   1.982   4.483   3.677  0.6730 -0.6645 -1.7937
 4527SOL    HW317875   1.863   4.573   3.651  1.3025  0.9559  0.5435
 4527SOL    MW417876   1.896   4.495   3.672  0.7248  0.3040 -0.8395
 4528SOL     OW17877   4.583   1.585   2.446 -0.0428 -0.2319 -0.4864
 4528SOL    HW217878   4.539   1.504   2.470 -0.5035  0.0929 -0.2245
 4528SOL    HW317879   4.536   1.653   2.494  1.1803  0.0544  0.3738
 4528SOL    MW417880   4.571   1.583   2.456  0.0578 -0.1513 -0.3384
 4529SOL     OW17881   2.813   1.960   3.467  0.0493  0.0750 -0.5660
 4529SOL    HW217882   2.793   2.030   3.529  0.0611 -0.3756 -0.0441
 4529SOL    HW317883   2.830   1.883   3.522  1.7868  0.0753 -1.0349
 4529SOL    MW417884   2.813   1.959   3.482  0.2801  0.0156 -0.5590
 4530SOL     OW17885   3.086   3.896   5.324  0.3803 -0.1550 -0.3257
 4530SOL    HW217886   3.010   3.869   5.272  0.9549 -0.8492 -0.8200
 4530SOL    HW317887   3.138   3.817   5.333  0.6703  0.1407  0.6779
 4530SOL    MW417888   3.083   3.882   5.318  0.4944 -0.2076 -0.2585
 4531SOL     OW17889   3.337   3.273   4.095 -0.2701  0.0061  0.3407
 4531SOL    HW217890   3.313   3.210   4.163  1.3579  0.2473  1.1852
 4531SOL    HW317891   3.302   3.356   4.126  2.4494  0.5937  2.1706
 4531SOL    MW417892   3.330   3.275   4.108  0.3035  0.1155  0.6935
 4532SOL     OW17893   3.950   5.115   5.789  0.7507  0.4099 -0.2798
 4532SOL    HW217894   3.886   5.138   5.857  0.4661 -0.3321 -0.2929
 4532SOL    HW317895   3.906   5.135   5.707 -0.2795 -1.9632 -0.3876
 4532SOL    MW417896   3.936   5.121   5.787  0.5772 -0.0011 -0.2958
 4533SOL     OW17897   3.411   2.196   5.446 -0.0447  0.6626 -0.6599
 4533SOL    HW217898   3.452   2.233   5.368  1.9841 -0.3083 -0.1166
 4533SOL    HW317899   3.444   2.250   5.518 -0.9192  0.7856 -0.3428
 4533SOL    MW417900   3.421   2.208   5.445  0.1076  0.5508 -0.5464
 4534SOL     OW17901   4.091   5.531   5.136 -0.0575 -0.4104 -0.2907
 4534SOL    HW217902   4.024   5.489   5.082  0.4045  1.2221 -2.2462
 4534SOL    HW317903   4.059   5.620   5.148  0.6198 -0.3007  0.8528
 4534SOL    MW417904   4.078   5.537   5.130  0.0928 -0.1805 -0.3978
 4535SOL     OW17905   2.624   2.938   2.671  0.0494  0.1916 -0.2671
 4535SOL    HW217906   2.548   2.995   2.656  0.9521  1.3618 -0.5592
 4535SOL    HW317907   2.665   2.930   2.585 -0.8523 -2.1499 -0.5582
 4535SOL    MW417908   2.619   2.944   2.658  0.0496  0.0370 -0.3441
 4536SOL     OW17909   5.727   2.367   2.091  0.6404  0.3466  0.4000
 4536SOL    HW217910   5.767   2.405   2.169  0.2859  1.3110  0.1362
 4536SOL    HW317911   5.798   2.364   2.027  0.5720  1.0266  0.2788
 4536SOL    MW417912   5.741   2.372   2.092  0.5846  0.5636  0.3492
 4537SOL     OW17913   5.243   5.674   2.988 -0.2803  0.1020 -0.0854
 4537SOL    HW217914   5.307   5.730   2.944  0.5188 -0.8077 -0.0924
 4537SOL    HW317915   5.294   5.601   3.023 -1.0996  0.0864  1.1475
 4537SOL    MW417916   5.258   5.672   2.987 -0.2830 -0.0201  0.0764
 4538SOL     OW17917   0.867   3.875   0.007  0.1558 -0.0802  0.4024
 4538SOL    HW217918   0.954   3.846  -0.020 -0.1232  0.0459 -0.7059
 4538SOL    HW317919   0.845   3.821   0.083  0.4095 -1.4726 -0.4755
 4538SOL    MW417920   0.875   3.864   0.013  0.1525 -0.2473  0.1403
 4539SOL     OW17921   2.690   1.380   0.787  0.1828 -0.0758  0.0104
 4539SOL    HW217922   2.594   1.376   0.788  0.2160 -1.7592  1.9185
 4539SOL    HW317923   2.717   1.299   0.742  0.7443  0.4300 -0.5991
 4539SOL    MW417924   2.681   1.369   0.781  0.2612 -0.2312  0.1817
 4540SOL     OW17925   3.288   5.570   3.922 -0.6605  0.0286 -0.0975
 4540SOL    HW217926   3.348   5.550   3.850  0.6157 -0.2391  0.9923
 4540SOL    HW317927   3.343   5.615   3.986 -1.2841 -1.4474  1.5321
 4540SOL    MW417928   3.303   5.573   3.921 -0.5744 -0.2015  0.2613
 4541SOL     OW17929   1.322   0.623   4.136  0.0143  0.5615  0.1394
 4541SOL    HW217930   1.381   0.549   4.150 -0.6692  0.0456  0.3098
 4541SOL    HW317931   1.378   0.691   4.097  0.8010  0.2180  0.6472
 4541SOL    MW417932   1.337   0.623   4.133  0.0279  0.4481  0.2289
 4542SOL     OW17933   4.422   1.711   3.534  0.0197  0.3511  0.5062
 4542SOL    HW217934   4.368   1.660   3.474 -1.6650  1.1267  1.3081
 4542SOL    HW317935   4.435   1.795   3.491  0.6316  0.1596  0.3053
 4542SOL    MW417936   4.417   1.715   3.521 -0.1219  0.4282  0.5855
 4543SOL     OW17937   4.986   3.143   2.403 -0.2796  0.1074 -0.0508
 4543SOL    HW217938   5.024   3.061   2.435 -0.4818 -0.4765 -1.2607
 4543SOL    HW317939   5.047   3.172   2.334 -0.8283  0.3516 -0.4372
 4543SOL    MW417940   4.999   3.136   2.398 -0.3786  0.0626 -0.2614
 4544SOL     OW17941   2.397   3.550   3.849  0.4768  0.3004  0.4284
 4544SOL    HW217942   2.302   3.544   3.835  0.2519  1.0066  1.5123
 4544SOL    HW317943   2.414   3.491   3.922  0.9638 -0.2198 -0.0989
 4544SOL    MW417944   2.387   3.542   3.857  0.5114  0.3250  0.5019
 4545SOL     OW17945   2.275   0.991   0.174  0.6682 -0.5485  0.3966
 4545SOL    HW217946   2.231   0.936   0.109  1.1656 -1.9674  1.2015
 4545SOL    HW317947   2.230   0.970   0.257  1.3869 -0.3421  0.8458
 4545SOL    MW417948   2.263   0.981   0.177  0.8287 -0.7085  0.5620
 4546SOL     OW17949   1.583   1.610   2.647 -0.3277 -0.1437 -0.2553
 4546SOL    HW217950   1.506   1.572   2.690  0.0465  1.1961  1.7358
 4546SOL    HW317951   1.648   1.540   2.647 -0.8002 -0.5902  0.1003
 4546SOL    MW417952   1.581   1.596   2.652 -0.3407 -0.0258  0.0543
 4547SOL     OW17953   3.476   6.064   1.220 -0.3120 -0.2113 -0.4595
 4547SOL    HW217954   3.384   6.044   1.201 -1.0065  1.0353  1.3481
 4547SOL    HW317955   3.499   6.003   1.290  0.9451 -1.9722 -2.3199
 4547SOL    MW417956   3.467   6.053   1.227 -0.2378 -0.2792 -0.4664
 4548SOL     OW17957   3.647   3.970   0.620 -0.0276  0.0208 -0.3773
 4548SOL    HW217958   3.581   3.924   0.671 -1.0386  0.8023 -0.9567
 4548SOL    HW317959   3.725   3.970   0.676 -1.4664  2.0374  1.7790
 4548SOL    MW417960   3.649   3.964   0.634 -0.3508  0.3900 -0.1693
 4549SOL     OW17961   6.123   0.428   2.896 -0.1045  0.6967  0.2321
 4549SOL    HW217962   6.136   0.449   2.988  2.5870  0.4958 -0.0144
 4549SOL    HW317963   6.208   0.394   2.867 -1.0029  0.3248 -2.2145
 4549SOL    MW417964   6.136   0.426   2.904  0.1321  0.6211 -0.1232
 4550SOL     OW17965   1.588   4.221   1.341 -0.5091  0.0506  0.2072
 4550SOL    HW217966   1.566   4.130   1.357  2.5036 -0.4203  2.5703
 4550SOL    HW317967   1.659   4.217   1.276 -1.9496  0.9627 -1.5187
 4550SOL    MW417968   1.594   4.209   1.334 -0.3016  0.1088  0.2913
 4551SOL     OW17969   6.121   4.711   3.806  0.5480  0.1368 -0.5588
 4551SOL    HW217970   6.057   4.779   3.826  0.2669 -0.5547  1.0814
 4551SOL    HW317971   6.122   4.706   3.711 -0.1397  1.7466 -0.6847
 4551SOL    MW417972   6.113   4.720   3.796  0.4202  0.2579 -0.3590
 4552SOL     OW17973   6.332   4.789   6.407 -0.1980  0.2752 -0.1783
 4552SOL    HW217974   6.334   4.773   6.501  0.5457 -0.6536 -0.3371
 4552SOL    HW317975   6.350   4.883   6.398 -0.2212  0.3589  0.5998
 4552SOL    MW417976   6.335   4.800   6.418 -0.1029  0.1637 -0.0966
 4553SOL     OW17977   3.146   4.962   5.578  0.5549  0.1399 -0.4644
 4553SOL    HW217978   3.139   4.947   5.672 -0.0701  0.1088 -0.5107
 4553SOL    HW317979   3.077   4.907   5.540  1.7977 -1.0592 -1.0753
 4553SOL    MW417980   3.136   4.953   5.585  0.6364 -0.0224 -0.5511
 4554SOL     OW17981   4.241   5.183   1.807 -0.0976  0.1488 -0.0571
 4554SOL    HW217982   4.183   5.256   1.829 -1.4312 -1.0105  0.4330
 4554SOL    HW317983   4.310   5.223   1.753 -0.7975  1.7451  0.1563
 4554SOL    MW417984   4.242   5.198   1.803 -0.3659  0.2064  0.0357
 4555SOL     OW17985   1.680   1.398   3.504 -0.1567 -0.0882 -0.6406
 4555SOL    HW217986   1.711   1.354   3.426 -0.7001 -1.3666 -0.1618
 4555SOL    HW317987   1.755   1.397   3.564 -0.0863 -0.1149 -0.7296
 4555SOL    MW417988   1.694   1.392   3.502 -0.2191 -0.2604 -0.5892
 4556SOL     OW17989   1.734   1.962   1.113  0.5922 -0.2082 -0.0846
 4556SOL    HW217990   1.726   1.971   1.208  0.5927  0.2247 -0.1229
 4556SOL    HW317991   1.657   2.008   1.078  0.8300  0.0242 -0.3070
 4556SOL    MW417992   1.723   1.969   1.121  0.6237 -0.1204 -0.1190
 4557SOL     OW17993   5.049   1.554   2.555  0.0027 -0.8185 -0.4362
 4557SOL    HW217994   4.974   1.594   2.511  0.2492  0.3771  0.2078
 4557SOL    HW317995   5.075   1.617   2.621  2.8392 -0.2598 -1.9252
 4557SOL    MW417996   5.042   1.567   2.558  0.4094 -0.5871 -0.5477
 4558SOL     OW17997   1.283   3.784   1.533 -0.1112  0.2962 -0.1432
 4558SOL    HW217998   1.191   3.805   1.552 -0.2477 -0.7581  0.4389
 4558SOL    HW317999   1.322   3.770   1.619  0.7357  1.2242 -0.3608
 4558SOL    MW418000   1.276   3.785   1.547 -0.0175  0.2795 -0.0951
 4559SOL     OW18001   0.725   4.822   1.443 -0.5518 -0.1634 -0.3098
 4559SOL    HW218002   0.648   4.862   1.403 -0.2655 -0.3249 -1.0280
 4559SOL    HW318003   0.790   4.892   1.448 -0.1753 -0.4359 -1.2362
 4559SOL    MW418004   0.723   4.836   1.439 -0.4644 -0.2207 -0.5268
 4560SOL     OW18005   2.719   0.519   4.904  0.0523 -0.8024  0.2700
 4560SOL    HW218006   2.764   0.512   4.820 -2.3935  0.0160 -1.2377
 4560SOL    HW318007   2.771   0.581   4.955  1.7862 -1.5889 -0.4842
 4560SOL    MW418008   2.732   0.526   4.899 -0.0416 -0.7982 -0.0285
 4561SOL     OW18009   1.024   1.860   0.799  0.1534  0.2912  0.9733
 4561SOL    HW218010   1.059   1.851   0.888  0.3687 -2.1325  0.6970
 4561SOL    HW318011   1.100   1.846   0.742 -0.4504 -0.7042  0.3967
 4561SOL    MW418012   1.039   1.857   0.803  0.1021 -0.1599  0.8608
 4562SOL     OW18013   1.287   5.720   4.917 -0.4276  0.3037  0.1552
 4562SOL    HW218014   1.305   5.635   4.956 -0.5348 -1.3970 -3.1729
 4562SOL    HW318015   1.373   5.756   4.897 -0.4065  0.2506  0.1501
 4562SOL    MW418016   1.300   5.714   4.920 -0.4390  0.0723 -0.2846
 4563SOL     OW18017   4.875   3.656   5.461 -0.0732  0.4145  0.0306
 4563SOL    HW218018   4.838   3.681   5.546 -0.3283 -0.2104  0.1094
 4563SOL    HW318019   4.830   3.575   5.439  0.1179  0.4862 -0.6242
 4563SOL    MW418020   4.864   3.648   5.470 -0.0816  0.3415 -0.0454
 4564SOL     OW18021   1.841   1.914   5.853  0.0985 -0.2888  0.3236
 4564SOL    HW218022   1.850   1.868   5.770 -1.6009 -0.2890  0.1074
 4564SOL    HW318023   1.926   1.956   5.866  0.4062 -0.3008 -1.4073
 4564SOL    MW418024   1.853   1.914   5.843 -0.0851 -0.2904  0.0667
 4565SOL     OW18025   4.813   1.480   3.429 -0.1684  0.4216  0.3338
 4565SOL    HW218026   4.756   1.470   3.505 -0.8841 -0.4557 -0.2948
 4565SOL    HW318027   4.848   1.569   3.437 -1.0283  0.7034  1.1386
 4565SOL    MW418028   4.810   1.490   3.440 -0.3763  0.3430  0.3570
 4566SOL     OW18029   2.147   3.247   3.685  0.5411 -0.2298  0.5264
 4566SOL    HW218030   2.126   3.224   3.595 -0.0925 -2.9338  1.2801
 4566SOL    HW318031   2.242   3.237   3.691  0.4945 -0.8149  0.3434
 4566SOL    MW418032   2.156   3.243   3.674  0.4513 -0.6637  0.6017
 4567SOL     OW18033   5.587   3.063   4.725 -0.1502  0.2315  0.2533
 4567SOL    HW218034   5.605   2.970   4.718 -1.7751 -0.0138 -1.5084
 4567SOL    HW318035   5.673   3.103   4.739  0.8663 -1.3581 -1.0600
 4567SOL    MW418036   5.601   3.056   4.726 -0.2305 -0.0106 -0.1524
 4568SOL     OW18037   2.036   0.692   3.547  0.3781 -0.0642  0.1378
 4568SOL    HW218038   2.070   0.603   3.548  3.1449  0.9175  0.5434
 4568SOL    HW318039   2.055   0.724   3.459  1.0152  0.6900  0.5426
 4568SOL    MW418040   2.043   0.685   3.535  0.8272  0.1648  0.2447
 4569SOL     OW18041   4.887   5.180   0.699  0.3294 -0.2608  0.1914
 4569SOL    HW218042   4.833   5.119   0.648 -0.8396  1.0159 -0.1680
 4569SOL    HW318043   4.939   5.226   0.633 -0.5025  0.7363  0.2063
 4569SOL    MW418044   4.887   5.178   0.683  0.0654  0.0392  0.1459
 4570SOL     OW18045   3.935   3.346   5.749 -0.0842  0.2767 -0.2829
 4570SOL    HW218046   3.865   3.352   5.814  1.4882 -2.2488  1.8623
 4570SOL    HW318047   4.000   3.410   5.779 -0.1240  0.3825 -0.4232
 4570SOL    MW418048   3.934   3.355   5.762  0.1180 -0.0426 -0.0184
 4571SOL     OW18049   5.731   3.610   0.748 -0.1742  0.3119 -0.9412
 4571SOL    HW218050   5.736   3.627   0.654 -1.9353 -1.2405 -1.3817
 4571SOL    HW318051   5.772   3.686   0.789 -1.0416  1.9273 -2.9201
 4571SOL    MW418052   5.737   3.622   0.741 -0.5210  0.3202 -1.2604
 4572SOL     OW18053   1.300   5.448   4.230 -0.0122 -0.5602  0.5608
 4572SOL    HW218054   1.382   5.486   4.262 -0.5179  0.2549  0.9375
 4572SOL    HW318055   1.301   5.465   4.136 -1.4173  2.9218  1.0161
 4572SOL    MW418056   1.311   5.455   4.222 -0.2643  0.0068  0.6706
 4573SOL     OW18057   0.243   4.535   0.590 -0.2270  0.4467  0.7230
 4573SOL    HW218058   0.296   4.576   0.658 -1.5947  2.7757  0.5059
 4573SOL    HW318059   0.179   4.602   0.566 -0.5635 -0.7132 -2.0242
 4573SOL    MW418060   0.241   4.549   0.596 -0.4518  0.6009  0.3319
 4574SOL     OW18061   2.322   1.017   4.625  0.1536 -0.1096  0.5433
 4574SOL    HW218062   2.334   1.097   4.676  2.3032  0.2125 -0.4038
 4574SOL    HW318063   2.352   1.038   4.537  0.7427 -1.9282  0.2551
 4574SOL    MW418064   2.327   1.030   4.620  0.5149 -0.3070  0.3803
 4575SOL     OW18065   6.244   2.642   0.902 -0.9490 -0.0861 -0.4486
 4575SOL    HW218066   6.206   2.568   0.855  0.2189  0.5572 -2.5140
 4575SOL    HW318067   6.177   2.710   0.899 -0.6656  0.1573 -1.7813
 4575SOL    MW418068   6.230   2.641   0.896 -0.7575  0.0309 -0.8970
 4576SOL     OW18069   3.224   2.447   3.775  0.4116  0.0947  0.3777
 4576SOL    HW218070   3.262   2.367   3.738  1.3726  0.7220 -0.0260
 4576SOL    HW318071   3.161   2.476   3.709 -0.2019 -0.5161  0.6863
 4576SOL    MW418072   3.221   2.440   3.761  0.4574  0.0969  0.3652
 4577SOL     OW18073   1.718   3.684   4.994 -0.7428 -0.1757 -0.4240
 4577SOL    HW218074   1.768   3.605   5.012 -2.6453 -1.1009  1.2169
 4577SOL    HW318075   1.737   3.743   5.067 -0.9029  0.0512 -0.5626
 4577SOL    MW418076   1.727   3.681   5.006 -1.0149 -0.2678 -0.2258
 4578SOL     OW18077   3.766   0.438   2.224 -0.2316  0.0605 -0.6757
 4578SOL    HW218078   3.832   0.446   2.155  0.4922 -0.5275 -0.0777
 4578SOL    HW318079   3.748   0.344   2.229 -1.6361  0.2699 -1.2829
 4578SOL    MW418080   3.772   0.427   2.216 -0.3214  0.0106 -0.6769
 4579SOL     OW18081   4.237   3.514   2.217 -0.3201  0.2586  0.6538
 4579SOL    HW218082   4.165   3.463   2.254 -2.0053  1.7474 -0.4103
 4579SOL    HW318083   4.262   3.575   2.287 -0.6068  0.2481  0.7657
 4579SOL    MW418084   4.231   3.515   2.231 -0.5802  0.4536  0.5282
 4580SOL     OW18085   3.889   3.981   0.774 -0.0102  0.3947  0.0472
 4580SOL    HW218086   3.934   3.906   0.813 -0.1997 -0.0567 -0.5797
 4580SOL    HW318087   3.959   4.031   0.732  0.3664  1.5214  1.9219
 4580SOL    MW418088   3.904   3.978   0.774  0.0145  0.4838  0.2119
 4581SOL     OW18089   4.446   0.688   1.537 -0.5060 -0.2389 -0.1270
 4581SOL    HW218090   4.477   0.777   1.526 -2.1065  0.4868  0.7865
 4581SOL    HW318091   4.497   0.653   1.611  0.0195 -0.0326 -0.3916
 4581SOL    MW418092   4.457   0.695   1.546 -0.6479 -0.1159 -0.0414
 4582SOL     OW18093   4.502   3.585   5.392 -0.6168 -0.3619  0.1820
 4582SOL    HW218094   4.473   3.610   5.304 -0.2736 -1.0170 -0.1162
 4582SOL    HW318095   4.494   3.490   5.395  1.4395 -0.5754  0.1115
 4582SOL    MW418096   4.497   3.576   5.381 -0.3002 -0.4765  0.1333
 4583SOL     OW18097   0.261   3.264   3.498 -0.0473  0.0471 -0.2455
 4583SOL    HW218098   0.340   3.315   3.481 -0.2858  0.2496 -0.7946
 4583SOL    HW318099   0.293   3.179   3.529  0.3578  0.4545  0.4622
 4583SOL    MW418100   0.276   3.259   3.500 -0.0253  0.1275 -0.2246
 4584SOL     OW18101   0.659   3.554   4.510 -0.3118 -0.0877 -0.4368
 4584SOL    HW218102   0.616   3.632   4.544  1.0079 -0.3356  2.0471
 4584SOL    HW318103   0.745   3.585   4.480 -0.2532 -0.3926 -0.5918
 4584SOL    MW418104   0.665   3.568   4.510 -0.1300 -0.1606 -0.1295
 4585SOL     OW18105   5.411   3.692   6.240 -0.4263  0.0811  0.0599
 4585SOL    HW218106   5.378   3.700   6.150  1.3347  1.2442 -0.5227
 4585SOL    HW318107   5.335   3.713   6.295 -1.7768 -1.5536 -1.0841
 4585SOL    MW418108   5.396   3.696   6.236 -0.3721  0.0189 -0.1679
 4586SOL     OW18109   4.128   3.775   5.816  0.2732 -0.3017 -0.7069
 4586SOL    HW218110   4.223   3.778   5.807  0.2438  0.4294 -0.7794
 4586SOL    HW318111   4.101   3.866   5.823 -0.5596 -0.4110 -2.0590
 4586SOL    MW418112   4.137   3.787   5.816  0.1595 -0.2197 -0.8948
 4587SOL     OW18113   6.365   0.206   2.985 -0.0803 -0.2818  0.5511
 4587SOL    HW218114   6.449   0.189   3.026  1.0162 -2.3928 -2.2656
 4587SOL    HW318115   6.378   0.184   2.893 -3.5655 -0.1514 -0.1104
 4587SOL    MW418116   6.378   0.201   2.978 -0.3955 -0.5431  0.0922
 4588SOL     OW18117   5.939   5.282   5.576  0.0327  0.2162  0.2754
 4588SOL    HW218118   6.008   5.252   5.635  1.4644 -0.9492 -1.8545
 4588SOL    HW318119   5.858   5.251   5.616  0.9882 -1.0614  1.3179
 4588SOL    MW418120   5.938   5.274   5.589  0.3476 -0.1061  0.1319
 4589SOL     OW18121   2.357   2.468   5.638  0.6134  0.8275 -0.0003
 4589SOL    HW218122   2.303   2.391   5.660  0.7706  0.0082 -2.2472
 4589SOL    HW318123   2.307   2.514   5.571  1.3693  1.7002  0.0194
 4589SOL    MW418124   2.343   2.464   5.632  0.7339  0.8345 -0.2942
 4590SOL     OW18125   0.792   2.949   4.635 -0.4217 -0.2630  0.1331
 4590SOL    HW218126   0.703   2.915   4.650  0.0612 -1.5626  0.1294
 4590SOL    HW318127   0.849   2.887   4.681  0.3611  2.1189  2.6416
 4590SOL    MW418128   0.788   2.936   4.643 -0.2547 -0.1202  0.4636
 4591SOL     OW18129   6.391   5.387   3.900 -0.6969  0.1682  0.1399
 4591SOL    HW218130   6.430   5.454   3.844 -3.1037  1.5513 -0.0113
 4591SOL    HW318131   6.365   5.318   3.839 -0.9544  0.4723 -0.0952
 4591SOL    MW418132   6.393   5.387   3.885 -1.0484  0.3908  0.0889
 4592SOL     OW18133   3.467   5.088   5.434 -0.1688  0.1207 -0.2192
 4592SOL    HW218134   3.402   5.087   5.504 -0.9217 -0.5052 -0.9052
 4592SOL    HW318135   3.418   5.110   5.355  0.8145  1.6722 -0.4397
 4592SOL    MW418136   3.452   5.091   5.433 -0.1384  0.2428 -0.3388
 4593SOL     OW18137   4.780   1.653   3.183  0.3435 -0.3033  0.1117
 4593SOL    HW218138   4.876   1.652   3.194  0.3364 -0.4148  0.1748
 4593SOL    HW318139   4.747   1.680   3.269  0.3363  0.2402 -0.0611
 4593SOL    MW418140   4.789   1.656   3.196  0.3416 -0.2463  0.0972
 4594SOL     OW18141   0.248   2.319   0.574 -0.2233 -0.2320  0.3900
 4594SOL    HW218142   0.267   2.364   0.492  1.8308 -0.9894  0.3823
 4594SOL    HW318143   0.327   2.269   0.593 -1.2198 -1.2921  2.0543
 4594SOL    MW418144   0.261   2.319   0.566 -0.0837 -0.4718  0.6086
 4595SOL     OW18145   1.400   1.244   2.003 -0.4188  0.2927  0.0063
 4595SOL    HW218146   1.354   1.267   1.922  0.2148  2.2256  0.1380
 4595SOL    HW318147   1.335   1.260   2.072 -0.0957  1.4743  0.0671
 4595SOL    MW418148   1.385   1.249   2.001 -0.2926  0.7036  0.0317
 4596SOL     OW18149   1.438   2.143   3.009  0.1879  0.6564 -0.2869
 4596SOL    HW218150   1.348   2.139   2.978  0.0900 -0.2894  0.1038
 4596SOL    HW318151   1.431   2.164   3.102  0.2188 -2.1635  0.4211
 4596SOL    MW418152   1.425   2.145   3.017  0.1791  0.1596 -0.1419
 4597SOL     OW18153   3.280   1.960   4.151  0.1528  0.0507 -0.1301
 4597SOL    HW218154   3.195   1.995   4.124  0.5113  1.0134 -0.0401
 4597SOL    HW318155   3.337   1.973   4.075  0.6464  0.9316  0.3885
 4597SOL    MW418156   3.276   1.966   4.137  0.2652  0.2939 -0.0498
 4598SOL     OW18157   5.867   1.082   0.119  0.4608  0.2492 -0.1915
 4598SOL    HW218158   5.892   1.000   0.076 -0.9488  0.2260 -1.0036
 4598SOL    HW318159   5.890   1.150   0.056  2.3263  0.5877  0.7796
 4598SOL    MW418160   5.874   1.080   0.105  0.5210  0.2908 -0.1705
 4599SOL     OW18161   0.284   5.003   5.106 -0.8155 -0.2037 -0.0932
 4599SOL    HW218162   0.236   4.949   5.169  1.3385  0.2534  2.1181
 4599SOL    HW318163   0.363   4.952   5.087  0.7648  1.6045  1.2483
 4599SOL    MW418164   0.288   4.989   5.112 -0.3228  0.0951  0.3755
 4600SOL     OW18165   3.847   5.820   1.930  0.3928  0.1240 -0.0137
 4600SOL    HW218166   3.881   5.861   2.010  0.7307  0.6767 -0.4332
 4600SOL    HW318167   3.787   5.753   1.962  3.2897 -2.2956  0.8717
 4600SOL    MW418168   3.844   5.816   1.945  0.8196 -0.1223  0.0478
 4601SOL     OW18169   1.457   3.725   1.252  0.2042  0.1374  0.7465
 4601SOL    HW218170   1.537   3.724   1.305  0.4187 -1.1633  0.4337
 4601SOL    HW318171   1.488   3.746   1.163  0.1583 -0.0698  0.6817
 4601SOL    MW418172   1.472   3.728   1.247  0.2265 -0.0616  0.6967
 4602SOL     OW18173   4.343   3.025   0.183 -0.2032 -0.1377 -0.1394
 4602SOL    HW218174   4.300   3.104   0.215 -0.3181 -0.3743  0.2965
 4602SOL    HW318175   4.430   3.026   0.225 -0.8669 -1.1895  1.3724
 4602SOL    MW418176   4.349   3.035   0.193 -0.3059 -0.3077  0.1176
 4603SOL     OW18177   4.329   2.150   4.272 -0.0584 -0.4289 -0.5421
 4603SOL    HW218178   4.257   2.117   4.218  0.8374 -2.3994 -0.5915
 4603SOL    HW318179   4.289   2.217   4.327 -1.9685 -1.6005 -0.4414
 4603SOL    MW418180   4.314   2.155   4.272 -0.1922 -0.8435 -0.5353
 4604SOL     OW18181   0.152   2.092   4.048  0.1806 -0.0425 -0.1912
 4604SOL    HW218182   0.136   2.159   3.982 -1.5121  0.4575  0.6858
 4604SOL    HW318183   0.179   2.015   3.998  1.7488  1.1298 -1.2473
 4604SOL    MW418184   0.154   2.090   4.033  0.1642  0.1781 -0.2149
 4605SOL     OW18185   0.872   0.457   1.050  0.2914  0.4213 -0.0403
 4605SOL    HW218186   0.898   0.524   1.114 -1.0909 -0.2271  1.2624
 4605SOL    HW318187   0.955   0.419   1.021  0.9966  1.3020  0.7303
 4605SOL    MW418188   0.887   0.461   1.055  0.2021  0.4519  0.2333
 4606SOL     OW18189   5.853   0.791   0.299  0.0564  0.6071  0.2648
 4606SOL    HW218190   5.858   0.820   0.208  0.2845  1.0624  0.4163
 4606SOL    HW318191   5.779   0.730   0.301  1.5594 -1.3318 -0.7202
 4606SOL    MW418192   5.844   0.787   0.287  0.2848  0.4114  0.1548
 4607SOL     OW18193   1.753   5.523   3.669 -0.2777 -0.2502  0.3262
 4607SOL    HW218194   1.842   5.492   3.683 -0.6631 -1.2482  0.7301
 4607SOL    HW318195   1.701   5.473   3.733 -0.8313  1.9310  1.6715
 4607SOL    MW418196   1.758   5.512   3.679 -0.4016 -0.0941  0.5570
 4608SOL     OW18197   1.059   0.276   5.562  0.2536  0.0859 -0.1280
 4608SOL    HW218198   1.074   0.235   5.647  0.2298  1.6944  0.7097
 4608SOL    HW318199   1.144   0.313   5.538 -0.1056  1.0427  0.0179
 4608SOL    MW418200   1.072   0.276   5.570  0.2031  0.4243  0.0017
 4609SOL     OW18201   1.161   4.261   5.318 -0.3300  0.0203  0.1525
 4609SOL    HW218202   1.207   4.341   5.292  1.2265 -0.8674  0.0559
 4609SOL    HW318203   1.068   4.285   5.317  0.1525  2.1572  1.3424
 4609SOL    MW418204   1.155   4.274   5.314 -0.0610  0.1851  0.2967
 4610SOL     OW18205   4.157   1.882   5.692 -0.3538  0.0388 -0.7843
 4610SOL    HW218206   4.227   1.944   5.670 -0.3067  0.4993  0.5739
 4610SOL    HW318207   4.160   1.817   5.621  1.4055  0.0874 -0.8068
 4610SOL    MW418208   4.167   1.882   5.680 -0.1155  0.1060 -0.6080
 4611SOL     OW18209   3.255   4.082   0.483 -0.2869  0.0629  0.7354
 4611SOL    HW218210   3.198   4.089   0.560 -1.2712 -0.3300  0.0554
 4611SOL    HW318211   3.235   3.996   0.446 -1.2110  0.9777 -1.0183
 4611SOL    MW418212   3.245   4.071   0.489 -0.5387  0.1317  0.4143
 4612SOL     OW18213   1.574   2.630   2.657 -0.0300 -0.8968 -0.4424
 4612SOL    HW218214   1.604   2.574   2.585 -1.1147 -0.3515 -1.3537
 4612SOL    HW318215   1.525   2.571   2.714 -0.5662 -1.0313 -1.0265
 4612SOL    MW418216   1.571   2.615   2.655 -0.2438 -0.8426 -0.6397
 4613SOL     OW18217   0.231   3.719   3.051  1.1220 -0.4156  0.2194
 4613SOL    HW218218   0.186   3.679   2.977  2.9902  1.6247 -2.2060
 4613SOL    HW318219   0.227   3.813   3.033  2.8823  0.0600  1.9462
 4613SOL    MW418220   0.225   3.726   3.039  1.6008 -0.0837  0.1273
 4614SOL     OW18221   5.085   5.787   3.339  0.3604  0.0952 -0.1692
 4614SOL    HW218222   5.050   5.824   3.258  1.3920  0.4091 -0.4986
 4614SOL    HW318223   5.100   5.694   3.319 -1.2802 -0.3062  0.3321
 4614SOL    MW418224   5.083   5.780   3.325  0.2801  0.0837 -0.1465
 4615SOL     OW18225   0.503   2.645   2.276 -0.1247  0.2012  0.5216
 4615SOL    HW218226   0.506   2.659   2.370 -0.1321  0.3140  0.5052
 4615SOL    HW318227   0.505   2.733   2.238  0.9523  0.1353  0.3953
 4615SOL    MW418228   0.504   2.658   2.283  0.0164  0.2074  0.5027
 4616SOL     OW18229   2.951   1.800   1.633  0.6004  0.1736 -0.1241
 4616SOL    HW218230   2.906   1.722   1.665  1.5050 -1.8861 -3.2915
 4616SOL    HW318231   3.033   1.803   1.683  0.5956 -1.0189 -0.0192
 4616SOL    MW418232   2.956   1.790   1.644  0.7191 -0.2555 -0.5282
 4617SOL     OW18233   1.257   4.410   1.502  0.5009  0.3734  0.1402
 4617SOL    HW218234   1.339   4.457   1.485  1.5056 -0.8107  1.4715
 4617SOL    HW318235   1.235   4.431   1.593 -0.8551  0.9071 -0.2884
 4617SOL    MW418236   1.265   4.419   1.512  0.4546  0.2876  0.2593
 4618SOL     OW18237   6.194   0.602   5.188  0.6870 -0.1442 -0.0311
 4618SOL    HW218238   6.177   0.558   5.271  0.3608  0.3954  0.1960
 4618SOL    HW318239   6.238   0.536   5.134  0.5948 -0.6049  0.4489
 4618SOL    MW418240   6.197   0.588   5.192  0.6318 -0.1338  0.0622
 4619SOL     OW18241   1.789   1.100   3.624 -0.7892 -0.6630  0.3852
 4619SOL    HW218242   1.844   1.175   3.645 -3.0672  1.0137  0.6987
 4619SOL    HW318243   1.805   1.084   3.531 -1.1656  1.0536 -0.0041
 4619SOL    MW418244   1.798   1.107   3.614 -1.1394 -0.2153  0.3752
 4620SOL     OW18245   2.622   6.270   2.614 -0.0333 -0.1342 -0.2770
 4620SOL    HW218246   2.665   6.203   2.562 -1.7639 -0.5782 -1.2000
 4620SOL    HW318247   2.571   6.221   2.679 -0.4755  0.3277 -0.2717
 4620SOL    MW418248   2.621   6.255   2.616 -0.3199 -0.1319 -0.3981
 4621SOL     OW18249   2.479   0.820   1.430  0.2289  0.7916  0.4623
 4621SOL    HW218250   2.507   0.798   1.519 -1.7484 -0.8940  0.7650
 4621SOL    HW318251   2.439   0.907   1.439  1.5306  1.3703  0.8458
 4621SOL    MW418252   2.477   0.829   1.443  0.1397  0.6456  0.5528
 4622SOL     OW18253   3.793   4.512   2.064  0.2816  0.4047  0.3605
 4622SOL    HW218254   3.727   4.581   2.069  1.2824  1.5072 -0.9594
 4622SOL    HW318255   3.822   4.500   2.155 -0.3825  1.2315  0.6967
 4622SOL    MW418256   3.788   4.519   2.077  0.3261  0.6592  0.2308
 4623SOL     OW18257   5.591   6.296   4.689  0.4410 -0.0865 -0.2468
 4623SOL    HW218258   5.680   6.330   4.703  0.3947 -0.1906  0.3299
 4623SOL    HW318259   5.570   6.250   4.771 -0.1322 -0.0883 -0.3923
 4623SOL    MW418260   5.600   6.295   4.702  0.3593 -0.1005 -0.1899
 4624SOL     OW18261   1.704   3.567   2.071 -0.4927 -0.0759 -0.0266
 4624SOL    HW218262   1.642   3.612   2.129 -0.4628  0.3393 -0.3065
 4624SOL    HW318263   1.702   3.619   1.990  0.3725  0.0704  0.0316
 4624SOL    MW418264   1.696   3.580   2.068 -0.3746 -0.0018 -0.0559
 4625SOL     OW18265   3.546   3.869   3.089  0.4333  0.6824  0.2505
 4625SOL    HW218266   3.581   3.958   3.093  0.7475  0.5369  1.2169
 4625SOL    HW318267   3.464   3.877   3.041  0.5087  1.4752  0.2350
 4625SOL    MW418268   3.540   3.882   3.084  0.4847  0.7678  0.3760
 4626SOL     OW18269   3.994   3.896   1.911 -0.2614 -0.4205  1.0410
 4626SOL    HW218270   4.031   3.811   1.887  0.9481  0.3556  0.0692
 4626SOL    HW318271   3.900   3.886   1.898 -0.0017 -1.2123 -0.3799
 4626SOL    MW418272   3.986   3.884   1.906 -0.0676 -0.4226  0.7253
 4627SOL     OW18273   6.366   4.261   0.445 -0.0253  0.0805 -0.1663
 4627SOL    HW218274   6.423   4.302   0.380 -1.3926  0.7219 -1.0003
 4627SOL    HW318275   6.328   4.335   0.493  0.6622 -0.3783  1.1162
 4627SOL    MW418276   6.369   4.276   0.443 -0.1150  0.1046 -0.1071
 4628SOL     OW18277   3.511   4.867   0.916 -0.0985 -0.1981 -0.4613
 4628SOL    HW218278   3.549   4.944   0.875 -1.1768  0.4488 -0.2858
 4628SOL    HW318279   3.497   4.806   0.844 -0.4142  0.2711 -0.8031
 4628SOL    MW418280   3.514   4.869   0.901 -0.2824 -0.0509 -0.4832
 4629SOL     OW18281   5.230   1.254   2.770  0.4549  0.4381  0.0806
 4629SOL    HW218282   5.305   1.210   2.810 -1.4035 -1.2809  1.8710
 4629SOL    HW318283   5.258   1.271   2.680  2.7561 -0.6716  0.5052
 4629SOL    MW418284   5.244   1.251   2.763  0.5133  0.0649  0.3728
 4630SOL     OW18285   5.641   1.796   3.161 -0.0439  0.1148 -0.4581
 4630SOL    HW218286   5.627   1.710   3.201 -2.8967  0.1896 -1.1280
 4630SOL    HW318287   5.714   1.782   3.100 -1.8193 -2.4504 -2.1776
 4630SOL    MW418288   5.649   1.783   3.158 -0.6545 -0.2138 -0.7734
 4631SOL     OW18289   6.439   2.902   1.192 -0.3341 -0.0974 -0.7607
 4631SOL    HW218290   6.450   2.815   1.230  0.6489 -0.1572 -1.1483
 4631SOL    HW318291   6.469   2.893   1.101 -0.3429  0.6114 -0.8449
 4631SOL    MW418292   6.445   2.890   1.185 -0.2056 -0.0117 -0.8229
 4632SOL     OW18293   1.598   2.350   0.921  0.3053 -0.5881  0.0728
 4632SOL    HW218294   1.687   2.347   0.885  0.2084  2.3918 -0.7024
 4632SOL    HW318295   1.610   2.362   1.015  0.9939  3.5542 -0.3557
 4632SOL    MW418296   1.611   2.351   0.928  0.3834  0.3516 -0.0860
 4633SOL     OW18297   1.474   6.207   4.270 -0.0229  0.0988  0.0114
 4633SOL    HW218298   1.567   6.218   4.252  0.0333  1.6399  1.0715
 4633SOL    HW318299   1.466   6.115   4.297  1.0999 -0.1667 -0.5075
 4633SOL    MW418300   1.485   6.196   4.272  0.1327  0.2671  0.0828
 4634SOL     OW18301   3.171   4.130   5.038  0.1515  0.5350 -0.2610
 4634SOL    HW218302   3.130   4.163   5.118  0.1360  0.4932 -0.2522
 4634SOL    HW318303   3.216   4.207   5.002 -1.1055  0.9526 -1.0232
 4634SOL    MW418304   3.171   4.145   5.044 -0.0164  0.5846 -0.3604
 4635SOL     OW18305   2.820   5.160   5.251 -0.0603 -0.3791 -0.6136
 4635SOL    HW218306   2.868   5.243   5.260 -0.0555 -0.4634  0.2348
 4635SOL    HW318307   2.888   5.095   5.233 -0.0066 -0.2916 -0.7324
 4635SOL    MW418308   2.836   5.162   5.250 -0.0526 -0.3787 -0.5174
 4636SOL     OW18309   6.154   4.762   5.275  0.1741  0.1645 -0.0774
 4636SOL    HW218310   6.127   4.721   5.193  2.9179  0.2760 -1.1265
 4636SOL    HW318311   6.201   4.693   5.322 -0.1665  0.5104  0.7932
 4636SOL    MW418312   6.156   4.747   5.270  0.4912  0.2249 -0.1009
 4637SOL     OW18313   2.709   2.629   5.437 -0.1103 -0.1456  0.6199
 4637SOL    HW218314   2.735   2.572   5.365 -1.8212  0.7725 -0.7912
 4637SOL    HW318315   2.699   2.570   5.512 -3.1039 -2.0454 -1.0778
 4637SOL    MW418316   2.711   2.613   5.437 -0.7310 -0.2751  0.2097
 4638SOL     OW18317   1.986   4.099   0.278 -0.2565 -0.0947 -0.0485
 4638SOL    HW218318   1.926   4.083   0.205 -1.0922 -1.5044  0.8913
 4638SOL    HW318319   1.942   4.166   0.330  0.5154  1.1863 -0.9879
 4638SOL    MW418320   1.972   4.106   0.275 -0.2649 -0.1117 -0.0484
 4639SOL     OW18321   5.829   3.301   2.315 -0.0105 -0.2463  0.2831
 4639SOL    HW218322   5.916   3.325   2.282  0.3259 -0.4780  0.9754
 4639SOL    HW318323   5.835   3.208   2.333 -1.1011 -0.7658 -1.7361
 4639SOL    MW418324   5.841   3.292   2.313 -0.1100 -0.3454  0.1080
 4640SOL     OW18325   0.641   1.787   1.087  0.0994 -0.5420  0.1053
 4640SOL    HW218326   0.681   1.852   1.030 -1.2089  0.1421 -0.0754
 4640SOL    HW318327   0.669   1.703   1.051  0.4141 -0.0977 -0.7053
 4640SOL    MW418328   0.650   1.784   1.074 -0.0317 -0.3931 -0.0255
 4641SOL     OW18329   1.540   2.157   5.504 -0.1070  0.6496 -0.2309
 4641SOL    HW218330   1.529   2.068   5.538 -0.5770  1.5307  2.1436
 4641SOL    HW318331   1.466   2.206   5.541  1.3659  2.5162  0.4428
 4641SOL    MW418332   1.529   2.152   5.514  0.0253  1.0121  0.1712
 4642SOL     OW18333   0.248   2.286   5.805 -0.3022  0.0505 -0.2521
 4642SOL    HW218334   0.319   2.308   5.746 -0.9627 -0.4123 -1.2397
 4642SOL    HW318335   0.277   2.206   5.849  0.0080  0.1610 -0.2508
 4642SOL    MW418336   0.261   2.278   5.803 -0.3484  0.0040 -0.3822
 4643SOL     OW18337   5.779   5.817   1.912 -0.6425 -0.1086 -0.3301
 4643SOL    HW218338   5.763   5.725   1.929  0.2530 -0.3433 -0.6937
 4643SOL    HW318339   5.747   5.862   1.990 -0.3588 -0.7994  0.1971
 4643SOL    MW418340   5.773   5.811   1.924 -0.4869 -0.2307 -0.3085
 4644SOL     OW18341   6.146   0.686   2.803 -0.0926  0.3672  0.3989
 4644SOL    HW218342   6.107   0.704   2.717  0.2829  1.1949  0.3898
 4644SOL    HW318343   6.141   0.591   2.812  0.9953  0.1312 -1.0930
 4644SOL    MW418344   6.140   0.676   2.793  0.1004  0.4453  0.2009
 4645SOL     OW18345   6.006   5.338   5.978  0.0396 -0.2681  0.1069
 4645SOL    HW218346   6.083   5.394   5.987 -0.0214 -0.1146 -0.2976
 4645SOL    HW318347   5.940   5.393   5.935  0.2633 -0.8927 -1.0943
 4645SOL    MW418348   6.007   5.353   5.974  0.0610 -0.3303 -0.1050
 4646SOL     OW18349   1.543   4.282   3.845  0.2733 -0.0013  0.2654
 4646SOL    HW218350   1.629   4.244   3.860  0.0678 -0.2968  0.7029
 4646SOL    HW318351   1.482   4.210   3.858  0.0116 -0.0210 -0.9664
 4646SOL    MW418352   1.546   4.268   3.849  0.2117 -0.0428  0.1606
 4647SOL     OW18353   2.985   5.199   6.054 -0.2741 -0.2046 -0.6152
 4647SOL    HW218354   2.897   5.230   6.032 -1.0288 -1.2191  0.8190
 4647SOL    HW318355   2.994   5.215   6.147 -0.0208 -2.5181 -0.1680
 4647SOL    MW418356   2.975   5.205   6.063 -0.3402 -0.6437 -0.3670
 4648SOL     OW18357   3.987   0.049   1.573 -0.1975  0.0132 -0.1582
 4648SOL    HW218358   4.024   0.122   1.624  0.7982 -1.0655  0.7193
 4648SOL    HW318359   4.028   0.058   1.487  0.5738  0.0047  0.1996
 4648SOL    MW418360   3.997   0.060   1.568  0.0357 -0.1303  0.0048
 4649SOL     OW18361   6.412   3.676   0.788 -0.7781 -0.0285 -0.2796
 4649SOL    HW218362   6.415   3.727   0.707 -0.1161 -0.6465 -0.6486
 4649SOL    HW318363   6.323   3.689   0.821 -0.7057  1.1448 -0.5025
 4649SOL    MW418364   6.401   3.684   0.782 -0.6812  0.0448 -0.3577
 4650SOL     OW18365   6.195   3.956   5.247  0.0314  0.1454  0.1219
 4650SOL    HW218366   6.290   3.943   5.241  0.2438  1.5260  0.1388
 4650SOL    HW318367   6.165   3.959   5.156 -0.0667 -0.7270  0.1225
 4650SOL    MW418368   6.204   3.955   5.234  0.0465  0.2125  0.1242
 4651SOL     OW18369   3.251   2.425   6.267 -0.2472  0.3152  0.5585
 4651SOL    HW218370   3.205   2.494   6.219 -0.6968  0.4279  1.1443
 4651SOL    HW318371   3.344   2.450   6.261 -0.2392  0.0728 -0.6491
 4651SOL    MW418372   3.258   2.437   6.260 -0.3055  0.2981  0.4764
 4652SOL     OW18373   3.160   6.199   2.920 -0.6135 -0.1090  0.3198
 4652SOL    HW218374   3.120   6.129   2.972  0.5216 -1.3373 -0.3875
 4652SOL    HW318375   3.254   6.186   2.932 -0.2730 -0.8518 -2.4707
 4652SOL    MW418376   3.167   6.188   2.929 -0.4188 -0.3691 -0.1417
 4653SOL     OW18377   6.268   2.218   2.349 -0.0699 -0.0222 -0.3867
 4653SOL    HW218378   6.290   2.193   2.439 -0.8157 -1.9739 -0.7091
 4653SOL    HW318379   6.273   2.314   2.349 -0.2393  0.0278  1.7740
 4653SOL    MW418380   6.271   2.227   2.361 -0.1906 -0.2731 -0.1442
 4654SOL     OW18381   1.842   5.824   0.584 -0.3839 -0.5185 -0.1960
 4654SOL    HW218382   1.888   5.846   0.665 -0.3895 -1.5403  0.0979
 4654SOL    HW318383   1.757   5.791   0.613  0.0358 -1.9686 -0.5268
 4654SOL    MW418384   1.837   5.823   0.599 -0.3293 -0.8447 -0.2009
 4655SOL     OW18385   0.434   1.387   4.800 -0.0851  0.3414  0.1798
 4655SOL    HW218386   0.418   1.315   4.862 -1.6430 -1.4107 -2.0960
 4655SOL    HW318387   0.515   1.428   4.832 -0.6441 -0.6192  3.1595
 4655SOL    MW418388   0.443   1.383   4.813 -0.3644 -0.0165  0.2727
 4656SOL     OW18389   6.364   4.402   1.695  0.6017  0.0815 -0.2106
 4656SOL    HW218390   6.286   4.377   1.745  0.1539  0.5604 -0.6572
 4656SOL    HW318391   6.400   4.319   1.664 -1.2473 -0.0482 -2.2459
 4656SOL    MW418392   6.359   4.387   1.698  0.2987  0.1276 -0.5381
 4657SOL     OW18393   0.758   1.199   4.472  0.1132  0.1520 -0.5374
 4657SOL    HW218394   0.687   1.254   4.440 -1.5049 -2.0732 -1.0136
 4657SOL    HW318395   0.732   1.175   4.560  1.0393  0.5239 -0.1530
 4657SOL    MW418396   0.745   1.203   4.479  0.0219 -0.0925 -0.5495
 4658SOL     OW18397   0.905   1.216   0.235  0.9694  0.4646  0.5215
 4658SOL    HW218398   0.920   1.269   0.156 -0.1986  0.0208 -0.0166
 4658SOL    HW318399   0.855   1.141   0.204  2.1198 -0.6964  1.3728
 4658SOL    MW418400   0.901   1.213   0.220  0.9671  0.2529  0.5628
 4659SOL     OW18401   3.671   0.482   3.263 -0.0385 -0.1567 -0.1462
 4659SOL    HW218402   3.761   0.458   3.240 -0.0967  0.2312 -0.8227
 4659SOL    HW318403   3.680   0.543   3.336  0.3033  0.5321 -0.7542
 4659SOL    MW418404   3.684   0.487   3.269 -0.0011 -0.0147 -0.3156
 4660SOL     OW18405   3.558   6.390   5.781  0.8241  0.4157 -0.2934
 4660SOL    HW218406   3.602   6.470   5.751  0.6522 -0.0328 -1.8661
 4660SOL    HW318407   3.465   6.412   5.780  0.8330  0.4831  0.2128
 4660SOL    MW418408   3.551   6.404   5.777  0.8026  0.3654 -0.4341
 4661SOL     OW18409   4.936   2.245   4.033 -0.3163  0.3708  0.9992
 4661SOL    HW218410   5.002   2.197   4.083  0.6825  1.1497  0.4786
 4661SOL    HW318411   4.983   2.278   3.956 -1.8792 -1.0652 -0.6615
 4661SOL    MW418412   4.951   2.243   4.029 -0.3907  0.2841  0.7114
 4662SOL     OW18413   1.615   2.900   2.530  0.0073 -0.1009 -0.0600
 4662SOL    HW218414   1.581   2.970   2.585  0.3055 -1.1168  1.4787
 4662SOL    HW318415   1.578   2.820   2.568  1.5149 -0.9655 -0.3285
 4662SOL    MW418416   1.605   2.899   2.542  0.2455 -0.3490  0.1076
 4663SOL     OW18417   3.043   2.605   1.190 -0.5426 -0.0733 -0.2022
 4663SOL    HW218418   2.959   2.562   1.206  0.6599 -1.9543  1.6189
 4663SOL    HW318419   3.100   2.534   1.159  0.3465  1.2064 -1.6612
 4663SOL    MW418420   3.040   2.590   1.188 -0.2666 -0.1526 -0.1544
 4664SOL     OW18421   1.693   5.670   2.243  0.0156 -0.0402 -0.1863
 4664SOL    HW218422   1.761   5.736   2.262 -0.3028  0.2824 -0.1532
 4664SOL    HW318423   1.651   5.702   2.163 -0.0001 -0.3156 -0.2872
 4664SOL    MW418424   1.697   5.683   2.235 -0.0285 -0.0340 -0.1952
 4665SOL     OW18425   5.706   0.559   4.809 -0.0286  0.0801 -0.6707
 4665SOL    HW218426   5.700   0.479   4.863 -1.4081  0.7360  0.1937
 4665SOL    HW318427   5.772   0.537   4.743  0.6940 -1.2639  0.4162
 4665SOL    MW418428   5.714   0.545   4.807 -0.1153 -0.0107 -0.4132
 4666SOL     OW18429   1.089   5.630   2.918 -0.4198 -0.3187  0.0894
 4666SOL    HW218430   1.100   5.576   2.996 -0.0900 -0.5804 -0.1362
 4666SOL    HW318431   1.146   5.705   2.932 -0.0215 -0.5841 -0.0932
 4666SOL    MW418432   1.098   5.633   2.930 -0.3237 -0.3883  0.0356
 4667SOL     OW18433   0.122   6.177   3.560 -0.0095  0.1966 -0.2584
 4667SOL    HW218434   0.117   6.125   3.640 -1.6067  1.2067  0.3632
 4667SOL    HW318435   0.082   6.121   3.493  0.3644 -0.2426 -0.1193
 4667SOL    MW418436   0.116   6.163   3.561 -0.1709  0.2719 -0.1581
 4668SOL     OW18437   2.945   0.791   4.533  0.1039 -0.0735  0.0602
 4668SOL    HW218438   2.851   0.805   4.545  0.4002  1.0978  1.2277
 4668SOL    HW318439   2.986   0.831   4.610  1.5866 -0.1935 -0.6207
 4668SOL    MW418440   2.938   0.798   4.544  0.3386  0.0652  0.1244
 4669SOL     OW18441   5.558   1.547   3.241 -0.1931 -0.3929  0.3140
 4669SOL    HW218442   5.623   1.480   3.264  0.8468 -0.4053 -2.3165
 4669SOL    HW318443   5.553   1.544   3.145 -0.6570  2.7910  0.1306
 4669SOL    MW418444   5.566   1.538   3.231 -0.1171  0.0256 -0.0573
 4670SOL     OW18445   3.494   6.084   5.099  0.1718 -0.4808 -0.4083
 4670SOL    HW218446   3.566   6.132   5.059 -0.2826  0.5675  0.0010
 4670SOL    HW318447   3.427   6.081   5.031  0.1415 -0.3928 -0.3830
 4670SOL    MW418448   3.495   6.090   5.085  0.1078 -0.3309 -0.3510
 4671SOL     OW18449   1.591   1.486   2.330 -0.2727  0.3009  0.5262
 4671SOL    HW218450   1.669   1.540   2.314 -0.2001 -0.2905 -1.3633
 4671SOL    HW318451   1.518   1.539   2.299 -0.3005 -0.2479 -0.3963
 4671SOL    MW418452   1.592   1.500   2.324 -0.2668  0.1504  0.1552
 4672SOL     OW18453   4.924   2.868   2.034 -0.3084  0.4724  0.1719
 4672SOL    HW218454   4.914   2.834   2.123 -0.9164 -1.2796 -0.5186
 4672SOL    HW318455   5.019   2.867   2.018 -0.1740  1.0466  0.8618
 4672SOL    MW418456   4.935   2.863   2.044 -0.3709  0.3170  0.1718
 4673SOL     OW18457   3.678   1.446   5.992 -0.7281 -0.2515  0.3742
 4673SOL    HW218458   3.652   1.357   6.015 -1.3071 -0.0014  0.7135
 4673SOL    HW318459   3.597   1.497   5.999 -0.4398  0.2647 -0.0045
 4673SOL    MW418460   3.664   1.441   5.996 -0.7665 -0.1504  0.3690
 4674SOL     OW18461   5.070   5.874   5.799  0.0770  0.7816 -0.2455
 4674SOL    HW218462   5.002   5.880   5.733 -1.2902 -0.3315  0.9814
 4674SOL    HW318463   5.103   5.784   5.791 -0.6606  0.3623  1.0394
 4674SOL    MW418464   5.065   5.863   5.789 -0.2007  0.5794  0.0859
 4675SOL     OW18465   4.016   3.628   2.092 -0.3492  0.2907  0.2853
 4675SOL    HW218466   4.102   3.595   2.117 -0.4861 -0.7706 -0.5770
 4675SOL    HW318467   3.969   3.636   2.175  0.1459 -0.4006  0.6460
 4675SOL    MW418468   4.021   3.625   2.106 -0.3019  0.0595  0.2191
 4676SOL     OW18469   0.345   0.558   3.670  0.0456  0.6016  0.3406
 4676SOL    HW218470   0.396   0.523   3.597  0.1205  2.9989 -0.8672
 4676SOL    HW318471   0.406   0.561   3.743  0.1252 -1.3502  0.3955
 4676SOL    MW418472   0.360   0.554   3.670  0.0660  0.6604  0.1885
 4677SOL     OW18473   0.700   6.362   0.372 -0.0069  0.6915 -0.1144
 4677SOL    HW218474   0.669   6.300   0.306  0.1238 -0.2423  0.6704
 4677SOL    HW318475   0.626   6.421   0.386 -0.0033  0.9680 -1.1467
 4677SOL    MW418476   0.686   6.361   0.365  0.0108  0.6048 -0.1471
 4678SOL     OW18477   2.114   4.056   4.020 -0.0079  0.1333 -0.9456
 4678SOL    HW218478   2.121   4.114   3.944 -0.3806 -0.5839 -1.5430
 4678SOL    HW318479   2.170   3.981   3.997 -0.9264 -0.5601 -0.9728
 4678SOL    MW418480   2.122   4.054   4.007 -0.1782 -0.0528 -1.0280
 4679SOL     OW18481   6.240   1.786   2.256  0.1860 -0.1767  0.3642
 4679SOL    HW218482   6.235   1.740   2.172 -2.4115  1.0155 -0.2208
 4679SOL    HW318483   6.290   1.866   2.236 -0.7986  0.3191 -0.2004
 4679SOL    MW418484   6.246   1.791   2.242 -0.2866  0.0460  0.2126
 4680SOL     OW18485   0.378   1.821   3.708  0.0165  0.2676 -0.2700
 4680SOL    HW218486   0.363   1.729   3.686 -0.1680  0.0314  0.7794
 4680SOL    HW318487   0.394   1.864   3.624  1.5225 -0.9755 -0.6627
 4680SOL    MW418488   0.378   1.815   3.694  0.1908  0.0724 -0.1834
 4681SOL     OW18489   3.978   6.403   0.970 -0.1642 -0.0017 -0.0024
 4681SOL    HW218490   4.067   6.378   0.944  1.0792  1.6327  2.2533
 4681SOL    HW318491   3.953   6.337   1.035 -1.3164 -1.3651 -1.7513
 4681SOL    MW418492   3.987   6.391   0.975 -0.1521  0.0340  0.0645
 4682SOL     OW18493   0.361   6.018   3.317 -0.1106 -0.7201  0.4755
 4682SOL    HW218494   0.442   6.006   3.269 -0.4697 -0.9573 -0.0862
 4682SOL    HW318495   0.357   6.112   3.335  0.0136 -0.6292  0.0208
 4682SOL    MW418496   0.371   6.029   3.313 -0.1416 -0.7394  0.3414
 4683SOL     OW18497   0.575   0.696   1.226 -0.2835 -0.5866 -0.3111
 4683SOL    HW218498   0.610   0.610   1.251  0.4801 -0.2047 -0.0089
 4683SOL    HW318499   0.537   0.683   1.139 -1.0319 -1.4447  0.1302
 4683SOL    MW418500   0.575   0.683   1.218 -0.2815 -0.6494 -0.2130
 4684SOL     OW18501   0.899   2.070   0.652  0.3362 -0.2238  0.1173
 4684SOL    HW218502   0.911   2.006   0.722  0.4158  0.8096  1.0846
 4684SOL    HW318503   0.977   2.060   0.598 -0.0547 -1.5090 -0.2347
 4684SOL    MW418504   0.911   2.060   0.654  0.2952 -0.2570  0.1984
 4685SOL     OW18505   4.617   6.024   5.028 -0.1152 -0.2198 -0.3945
 4685SOL    HW218506   4.582   6.113   5.029 -1.2000 -0.6120 -1.4662
 4685SOL    HW318507   4.661   6.016   4.944 -2.8333 -1.6944 -1.7915
 4685SOL    MW418508   4.618   6.035   5.017 -0.6170 -0.4661 -0.7202
 4686SOL     OW18509   2.813   4.029   2.739  0.0146 -0.2668 -0.5178
 4686SOL    HW218510   2.743   4.006   2.800 -0.1520 -0.8387 -0.9158
 4686SOL    HW318511   2.790   3.983   2.658  0.1460  0.6083 -1.0665
 4686SOL    MW418512   2.800   4.020   2.736  0.0099 -0.2268 -0.6427
 4687SOL     OW18513   1.869   1.468   5.029 -0.1912 -0.6490  0.0298
 4687SOL    HW218514   1.790   1.454   4.975  0.2172 -0.2758 -0.6841
 4687SOL    HW318515   1.939   1.427   4.979  0.0969 -0.8319  0.5847
 4687SOL    MW418516   1.868   1.461   5.015 -0.0993 -0.6239  0.0088
 4688SOL     OW18517   4.832   5.653   1.685 -0.2849 -0.0348  0.1473
 4688SOL    HW218518   4.747   5.629   1.722  0.0032 -0.3261  0.6194
 4688SOL    HW318519   4.817   5.653   1.590 -0.2973 -2.1414  0.0951
 4688SOL    MW418520   4.819   5.650   1.677 -0.2485 -0.3512  0.2027
 4689SOL     OW18521   0.034   5.014   5.771  0.3076 -0.1127 -0.1641
 4689SOL    HW218522   0.126   5.026   5.792 -0.0840  0.6242  1.1944
 4689SOL    HW318523   0.035   4.964   5.689  1.8925 -1.8000  0.8100
 4689SOL    MW418524   0.046   5.009   5.763  0.4650 -0.2381  0.1436
 4690SOL     OW18525   4.038   0.384   2.611  0.4084 -0.4927 -0.6302
 4690SOL    HW218526   4.027   0.477   2.631  0.4628 -1.0588  2.5292
 4690SOL    HW318527   4.133   0.370   2.617  0.2376 -1.0990  0.8444
 4690SOL    MW418528   4.049   0.395   2.614  0.3930 -0.6474 -0.0188
 4691SOL     OW18529   2.744   5.656   5.306 -0.2536  0.3249  0.3877
 4691SOL    HW218530   2.741   5.735   5.251 -1.1199  0.1296  0.1411
 4691SOL    HW318531   2.796   5.682   5.382  1.6364  0.3719 -0.8524
 4691SOL    MW418532   2.750   5.670   5.308 -0.1185  0.3054  0.1915
 4692SOL     OW18533   3.575   2.123   1.718 -0.1837  0.2523 -0.8016
 4692SOL    HW218534   3.485   2.156   1.715 -1.0315 -1.6633  1.0579
 4692SOL    HW318535   3.629   2.199   1.693 -2.0650  2.6768  1.8169
 4692SOL    MW418536   3.571   2.138   1.714 -0.5438  0.3195 -0.2108
 4693SOL     OW18537   3.132   1.031   1.417  0.2451 -0.2095  0.2804
 4693SOL    HW218538   3.113   1.035   1.511 -1.2163  1.4666 -0.0470
 4693SOL    HW318539   3.056   0.988   1.379 -0.0922  0.9335 -0.3556
 4693SOL    MW418540   3.120   1.026   1.424  0.0078  0.1624  0.1533
 4694SOL     OW18541   2.136   5.439   5.967 -0.2612  0.0849  0.1257
 4694SOL    HW218542   2.201   5.452   6.035  0.0516  1.2425 -0.3711
 4694SOL    HW318543   2.165   5.360   5.921 -1.2456 -1.5530  2.1520
 4694SOL    MW418544   2.148   5.430   5.970 -0.3498  0.0215  0.3275
 4695SOL     OW18545   2.726   3.983   3.764  0.9215  0.0474 -0.9149
 4695SOL    HW218546   2.797   3.921   3.752  1.8293  1.0733 -0.9440
 4695SOL    HW318547   2.769   4.067   3.778 -0.2785  0.6402 -0.6479
 4695SOL    MW418548   2.741   3.986   3.764  0.8830  0.2610 -0.8835
 4696SOL     OW18549   6.338   1.344   5.878  0.2452  1.0449  0.3147
 4696SOL    HW218550   6.405   1.299   5.826  0.1756 -0.0457  1.1466
 4696SOL    HW318551   6.264   1.352   5.818  0.0709 -0.4318  0.2879
 4696SOL    MW418552   6.337   1.339   5.863  0.2130  0.7061  0.4209
 4697SOL     OW18553   3.749   0.062   0.831  0.3211  0.0524 -0.1417
 4697SOL    HW218554   3.825   0.059   0.890 -0.6930  1.0332  1.2974
 4697SOL    HW318555   3.715   0.150   0.841 -0.3876 -0.0242 -1.6148
 4697SOL    MW418556   3.755   0.073   0.840  0.0938  0.1717 -0.1462
 4698SOL     OW18557   1.808   3.689   4.206  0.4577  0.6087  0.4885
 4698SOL    HW218558   1.736   3.717   4.264 -1.6768 -1.0515 -1.1650
 4698SOL    HW318559   1.876   3.657   4.265 -1.3020 -0.3064  2.1293
 4698SOL    MW418560   1.807   3.688   4.221 -0.0561  0.2689  0.4868
 4699SOL     OW18561   0.271   1.054   3.181 -0.9628 -0.2315 -0.3182
 4699SOL    HW218562   0.251   0.973   3.135 -1.8923 -0.9189  1.2252
 4699SOL    HW318563   0.331   1.101   3.123 -1.1688 -1.5831 -1.6619
 4699SOL    MW418564   0.276   1.050   3.167 -1.1126 -0.5006 -0.2918
 4700SOL     OW18565   6.141   3.870   4.720 -0.2005 -0.1790 -0.0161
 4700SOL    HW218566   6.136   3.813   4.644 -0.8319  0.0544 -0.1508
 4700SOL    HW318567   6.062   3.924   4.716  0.6377  1.0808 -0.1831
 4700SOL    MW418568   6.130   3.870   4.710 -0.1732  0.0180 -0.0559
 4701SOL     OW18569   1.257   5.719   2.300  0.6364 -0.6683 -0.0530
 4701SOL    HW218570   1.189   5.681   2.355 -1.2010  0.5070 -1.4071
 4701SOL    HW318571   1.257   5.664   2.221  1.0268 -0.4560 -0.2040
 4701SOL    MW418572   1.248   5.707   2.297  0.4455 -0.4852 -0.2516
 4702SOL     OW18573   0.527   2.330   1.805 -0.3146  0.2381  0.2452
 4702SOL    HW218574   0.490   2.354   1.720 -1.1458  0.0558  0.5493
 4702SOL    HW318575   0.547   2.415   1.847  1.0443  0.3183 -0.5247
 4702SOL    MW418576   0.525   2.345   1.800 -0.2450  0.2246  0.1837
 4703SOL     OW18577   3.277   1.286   6.408  0.2729 -0.3506  0.2465
 4703SOL    HW218578   3.228   1.335   6.473 -0.0187 -1.5166  0.9298
 4703SOL    HW318579   3.277   1.196   6.440 -1.9061 -1.4875 -2.4905
 4703SOL    MW418580   3.271   1.280   6.421 -0.0531 -0.6544 -0.0245
 4704SOL     OW18581   1.690   2.669   4.489 -0.1247 -0.0017 -0.0030
 4704SOL    HW218582   1.782   2.648   4.479 -0.3018 -1.1784  0.7131
 4704SOL    HW318583   1.684   2.714   4.573  0.0669  1.9339 -0.9666
 4704SOL    MW418584   1.701   2.672   4.499 -0.1228  0.0984 -0.0356
 4705SOL     OW18585   6.252   6.298   0.604 -0.2767  0.1736  0.4259
 4705SOL    HW218586   6.319   6.241   0.565 -1.1444  0.4092 -1.5147
 4705SOL    HW318587   6.200   6.239   0.658  0.1598 -0.4424  0.1935
 4705SOL    MW418588   6.254   6.282   0.606 -0.3336  0.1234  0.1392
 4706SOL     OW18589   1.182   2.095   5.224  0.4421 -0.3564  0.2545
 4706SOL    HW218590   1.257   2.046   5.259  1.1751  0.3591 -0.2690
 4706SOL    HW318591   1.213   2.130   5.141 -0.4397  0.0596  0.0909
 4706SOL    MW418592   1.196   2.093   5.218  0.4225 -0.2072  0.1639
 4707SOL     OW18593   2.263   3.494   4.729  0.2556  0.2178 -0.2650
 4707SOL    HW218594   2.273   3.532   4.817  0.4457  0.2616 -0.3050
 4707SOL    HW318595   2.223   3.409   4.744  0.6750  0.0447 -0.1000
 4707SOL    MW418596   2.259   3.488   4.743  0.3360  0.2007 -0.2485
 4708SOL     OW18597   4.503   2.536   0.918 -0.1227 -0.4398 -0.0340
 4708SOL    HW218598   4.409   2.550   0.923  0.0059  0.1958  0.9373
 4708SOL    HW318599   4.540   2.623   0.905  0.3807 -0.5491  0.6058
 4708SOL    MW418600   4.496   2.549   0.917 -0.0393 -0.3703  0.1786
 4709SOL     OW18601   3.979   0.024   2.427 -0.1728  0.1140  0.1807
 4709SOL    HW218602   3.950  -0.005   2.514  0.6227 -0.2877  0.3179
 4709SOL    HW318603   4.002  -0.057   2.382 -2.5599  0.0832 -1.1772
 4709SOL    MW418604   3.978   0.009   2.433 -0.3828  0.0569  0.0196
 4710SOL     OW18605   2.885   5.566   5.757 -0.1863 -0.7766 -0.2078
 4710SOL    HW218606   2.880   5.472   5.742  0.4034 -0.7098 -0.8138
 4710SOL    HW318607   2.969   5.580   5.799 -0.8955 -0.6917  1.2640
 4710SOL    MW418608   2.895   5.556   5.761 -0.2021 -0.7566 -0.0936
 4711SOL     OW18609   1.223   3.552   1.393 -0.7729  0.2353  0.8583
 4711SOL    HW218610   1.165   3.577   1.322 -0.0065  1.4967  0.6359
 4711SOL    HW318611   1.266   3.634   1.419  1.1976 -0.6965  0.7391
 4711SOL    MW418612   1.221   3.566   1.387 -0.4118  0.2788  0.8132
 4712SOL     OW18613   3.635   6.077   3.342 -0.4316 -0.1150  0.1515
 4712SOL    HW218614   3.547   6.040   3.329 -0.1774 -0.2664 -1.3398
 4712SOL    HW318615   3.634   6.157   3.290  0.2210  0.0336  0.3679
 4712SOL    MW418616   3.623   6.083   3.334 -0.3120 -0.1154 -0.0167
 4713SOL     OW18617   1.148   4.940   2.596  1.0255  0.0036  0.2001
 4713SOL    HW218618   1.107   5.007   2.540  0.1236 -0.5490  0.1831
 4713SOL    HW318619   1.208   4.990   2.651 -1.4241  1.2569  1.9488
 4713SOL    MW418620   1.150   4.956   2.596  0.5833  0.0961  0.4286
 4714SOL     OW18621   2.089   2.471   6.129 -1.3108  0.1214 -0.2852
 4714SOL    HW218622   2.184   2.481   6.136 -1.4722  1.0892  0.9835
 4714SOL    HW318623   2.068   2.403   6.194 -1.3952 -0.8751 -1.3175
 4714SOL    MW418624   2.099   2.463   6.139 -1.3432  0.1176 -0.2540
 4715SOL     OW18625   5.236   6.044   2.960 -0.9585 -0.4929 -0.5774
 4715SOL    HW218626   5.316   6.017   3.005 -0.5871 -0.7892 -1.4062
 4715SOL    HW318627   5.240   6.140   2.959  0.0584 -0.5211 -1.7723
 4715SOL    MW418628   5.247   6.053   2.966 -0.7753 -0.5357 -0.8444
 4716SOL     OW18629   2.785   0.672   2.170 -0.0134 -0.0341 -0.0166
 4716SOL    HW218630   2.735   0.706   2.244 -0.4153  0.5640 -0.5483
 4716SOL    HW318631   2.786   0.577   2.183  2.2409  0.1773  2.2169
 4716SOL    MW418632   2.779   0.664   2.182  0.2310  0.0727  0.2079
 4717SOL     OW18633   3.582   2.153   2.529  0.1073  0.5057  0.1675
 4717SOL    HW218634   3.591   2.113   2.616 -1.1397  0.4706  0.2902
 4717SOL    HW318635   3.619   2.241   2.540  1.1163  0.0774  0.3888
 4717SOL    MW418636   3.588   2.160   2.542  0.0759  0.4445  0.2129
 4718SOL     OW18637   1.072   0.297   4.223  0.0951 -0.1746 -0.8869
 4718SOL    HW218638   1.117   0.328   4.145  1.0095  0.6214 -0.0709
 4718SOL    HW318639   1.093   0.203   4.227  0.7402 -0.0447 -1.1439
 4718SOL    MW418640   1.081   0.288   4.213  0.3008 -0.0524 -0.8131
 4719SOL     OW18641   2.976   3.124   1.363 -0.1196  0.3392  0.0451
 4719SOL    HW218642   2.938   3.131   1.450  0.5622  0.1144  0.3723
 4719SOL    HW318643   2.957   3.035   1.335 -1.7612  0.8984 -0.7354
 4719SOL    MW418644   2.969   3.113   1.371 -0.2463  0.3833 -0.0147
 4720SOL     OW18645   0.676   1.950   1.732 -0.1275  0.4323  0.1321
 4720SOL    HW218646   0.652   1.983   1.645  2.2418  0.6027 -0.5131
 4720SOL    HW318647   0.728   2.020   1.772 -1.5923  0.5669  1.9532
 4720SOL    MW418648   0.680   1.963   1.726 -0.0082  0.4725  0.2873
 4721SOL     OW18649   1.262   1.694   3.835 -0.4495 -0.1019  0.8090
 4721SOL    HW218650   1.179   1.653   3.811 -1.2736  2.3570 -0.9300
 4721SOL    HW318651   1.273   1.765   3.772  1.7202  1.2730  2.5804
 4721SOL    MW418652   1.253   1.698   3.824 -0.2719  0.4039  0.8133
 4722SOL     OW18653   4.622   1.911   3.071 -0.3260  0.6906 -0.0369
 4722SOL    HW218654   4.581   1.902   3.157 -1.6247  0.4065 -0.6644
 4722SOL    HW318655   4.687   1.980   3.082 -0.3038  0.4901  1.2298
 4722SOL    MW418656   4.626   1.919   3.084 -0.4944  0.6266  0.0475
 4723SOL     OW18657   3.593   5.914   1.427 -0.3530 -0.0320 -0.0035
 4723SOL    HW218658   3.648   5.841   1.399 -1.8709 -1.3634  0.3372
 4723SOL    HW318659   3.653   5.987   1.435  1.1029 -1.0541 -1.0682
 4723SOL    MW418660   3.608   5.914   1.424 -0.3612 -0.3425 -0.0990
 4724SOL     OW18661   3.712   5.633   0.010  0.0612  0.1299 -0.5883
 4724SOL    HW218662   3.713   5.592   0.096  0.3097  1.0704 -0.1372
 4724SOL    HW318663   3.800   5.671   0.000 -0.6552  1.9475 -0.3062
 4724SOL    MW418664   3.724   5.632   0.020 -0.0005  0.4938 -0.4916
 4725SOL     OW18665   5.709   6.122   5.993 -0.4859 -0.2641 -0.1554
 4725SOL    HW218666   5.660   6.078   6.062  0.2766  0.3030  0.7800
 4725SOL    HW318667   5.765   6.184   6.040  0.1890 -0.0030 -1.2753
 4725SOL    MW418668   5.710   6.124   6.008 -0.2962 -0.1548 -0.1797
 4726SOL     OW18669   4.059   2.043   6.405  0.0154 -0.1105 -0.3402
 4726SOL    HW218670   4.109   1.961   6.407  0.9644  0.3723 -1.8108
 4726SOL    HW318671   4.028   2.050   6.314  1.3521  1.9040 -0.7270
 4726SOL    MW418672   4.062   2.033   6.393  0.3170  0.2190 -0.5852
 4727SOL     OW18673   0.730   1.772   2.392 -0.3373 -0.1478  0.7518
 4727SOL    HW218674   0.780   1.796   2.314  0.4899  2.5823  1.9981
 4727SOL    HW318675   0.673   1.848   2.408 -2.6056 -1.8584  1.2045
 4727SOL    MW418676   0.729   1.786   2.384 -0.5275 -0.0133  0.9760
 4728SOL     OW18677   5.019   1.525   0.075 -0.0149  0.1094  0.3713
 4728SOL    HW218678   5.085   1.588   0.106  1.2229 -0.5981 -0.7278
 4728SOL    HW318679   5.056   1.440   0.098 -0.5079 -0.2977 -0.3244
 4728SOL    MW418680   5.033   1.522   0.082  0.0834 -0.0376  0.1345
 4729SOL     OW18681   3.529   3.719   2.556 -0.0364 -0.6269 -0.1674
 4729SOL    HW218682   3.497   3.668   2.630  0.0343 -1.5518 -0.7587
 4729SOL    HW318683   3.517   3.810   2.583 -0.6601 -0.9488  0.6934
 4729SOL    MW418684   3.523   3.724   2.569 -0.1093 -0.7914 -0.1319
 4730SOL     OW18685   4.405   0.271   0.659 -0.0083 -0.4191 -0.0430
 4730SOL    HW218686   4.445   0.263   0.572 -1.0741  0.6554 -0.6671
 4730SOL    HW318687   4.312   0.288   0.641 -0.1806  0.1771  1.3057
 4730SOL    MW418688   4.398   0.272   0.645 -0.1717 -0.1987  0.0526
 4731SOL     OW18689   5.797   4.314   5.556  0.0733 -0.3812  0.3585
 4731SOL    HW218690   5.827   4.383   5.616 -1.1103  2.3408 -1.9423
 4731SOL    HW318691   5.707   4.297   5.584 -0.0077 -0.1448  0.2500
 4731SOL    MW418692   5.789   4.321   5.568 -0.0936  0.0091  0.0406
 4732SOL     OW18693   3.315   5.315   4.833 -0.0826  0.2086 -0.0263
 4732SOL    HW218694   3.332   5.350   4.921 -0.2209  0.9420 -0.2800
 4732SOL    HW318695   3.333   5.389   4.775  0.6662 -0.4664 -0.6700
 4732SOL    MW418696   3.320   5.330   4.837 -0.0020  0.2163 -0.1447
 4733SOL     OW18697   4.784   0.036   5.066  0.1358  0.3209 -0.0350
 4733SOL    HW218698   4.705  -0.011   5.040  1.0924 -1.2664 -0.1952
 4733SOL    HW318699   4.774   0.051   5.160 -0.0296 -0.5617  0.0969
 4733SOL    MW418700   4.773   0.032   5.075  0.2402 -0.0050 -0.0387
 4734SOL     OW18701   3.275   4.948   1.845 -0.2294  0.0749 -0.3996
 4734SOL    HW218702   3.219   5.018   1.810 -0.7813 -0.0320  0.2399
 4734SOL    HW318703   3.215   4.894   1.898  0.5532  0.1843  0.6262
 4734SOL    MW418704   3.260   4.950   1.847 -0.1990  0.0752 -0.1799
 4735SOL     OW18705   2.893   1.686   2.787  0.5203  0.4576 -0.0990
 4735SOL    HW218706   2.888   1.768   2.837  1.7042 -0.1769  1.1345
 4735SOL    HW318707   2.935   1.624   2.847 -0.8018 -1.2121 -0.8244
 4735SOL    MW418708   2.898   1.689   2.802  0.5021  0.1536 -0.0319
 4736SOL     OW18709   3.728   6.319   5.432 -0.3299 -0.4252 -0.4664
 4736SOL    HW218710   3.711   6.413   5.428  0.4241 -0.2907 -0.8303
 4736SOL    HW318711   3.643   6.278   5.418 -0.4764  0.1993 -1.4900
 4736SOL    MW418712   3.715   6.326   5.430 -0.2497 -0.3251 -0.6495
 4737SOL     OW18713   4.872   5.723   1.066  0.4345 -0.0451 -0.7182
 4737SOL    HW218714   4.799   5.670   1.100  0.7097 -1.3983 -2.1108
 4737SOL    HW318715   4.939   5.658   1.043  1.6916  1.1009 -0.4099
 4737SOL    MW418716   4.871   5.707   1.068  0.6367 -0.0725 -0.8613
 4738SOL     OW18717   4.545   0.823   1.092  0.4023  0.1639  0.1905
 4738SOL    HW218718   4.600   0.745   1.102  0.3473  0.1736  0.5790
 4738SOL    HW318719   4.457   0.794   1.117 -0.3174 -0.5110 -2.7564
 4738SOL    MW418720   4.541   0.808   1.097  0.3001  0.0761 -0.1470
 4739SOL     OW18721   0.568   3.656   0.916  0.6034 -0.3823 -0.4298
 4739SOL    HW218722   0.496   3.631   0.859 -0.7509  0.0907  0.9873
 4739SOL    HW318723   0.544   3.623   1.003  1.1931  1.3188  0.4525
 4739SOL    MW418724   0.556   3.649   0.920  0.5025 -0.0955 -0.1264
 4740SOL     OW18725   4.803   2.271   0.071  0.6555 -0.0895  0.1664
 4740SOL    HW218726   4.813   2.215   0.148 -0.1332 -0.3630  0.0808
 4740SOL    HW318727   4.853   2.227   0.002  0.7049 -0.2661  0.3140
 4740SOL    MW418728   4.811   2.258   0.072  0.5579 -0.1489  0.1745
 4741SOL     OW18729   3.695   1.334   2.736  0.0082 -0.9696 -0.1565
 4741SOL    HW218730   3.767   1.389   2.703 -0.2947  0.7470  1.8272
 4741SOL    HW318731   3.627   1.342   2.669  0.6074 -0.3022 -0.7087
 4741SOL    MW418732   3.696   1.343   2.723  0.0473 -0.6550  0.0323
 4742SOL     OW18733   5.350   0.488   4.678 -0.0928  0.2816 -0.5397
 4742SOL    HW218734   5.400   0.568   4.661  0.7892 -0.2175 -0.3308
 4742SOL    HW318735   5.410   0.417   4.655 -0.6032 -0.3340  0.0029
 4742SOL    MW418736   5.365   0.489   4.673 -0.0438  0.1345 -0.4405
 4743SOL     OW18737   3.378   5.926   3.666  0.1734 -0.1297  0.4288
 4743SOL    HW218738   3.309   5.989   3.647  0.1267  0.2489  1.7736
 4743SOL    HW318739   3.446   5.977   3.710 -0.3366 -1.1881  2.5673
 4743SOL    MW418740   3.378   5.941   3.669  0.1000 -0.2194  0.8884
 4744SOL     OW18741   3.231   3.067   2.941 -0.0950  0.2921 -0.0391
 4744SOL    HW218742   3.286   3.145   2.934  0.7953 -0.2103  0.9019
 4744SOL    HW318743   3.247   3.019   2.859  0.8981  0.1574  0.2130
 4744SOL    MW418744   3.241   3.071   2.929  0.1535  0.2081  0.1183
 4745SOL     OW18745   2.055   3.095   2.050  0.6966  0.3800 -0.2342
 4745SOL    HW218746   2.067   3.158   2.121 -0.1916  1.3834 -0.9548
 4745SOL    HW318747   2.027   3.147   1.975  0.3517 -0.8201 -0.9738
 4745SOL    MW418748   2.053   3.110   2.049  0.5339  0.3540 -0.4268
 4746SOL     OW18749   4.389   0.953   4.203 -0.0746 -0.1512  0.3206
 4746SOL    HW218750   4.352   0.905   4.130 -0.7998 -0.3788  0.8272
 4746SOL    HW318751   4.440   0.889   4.251  5.4886  1.0534 -3.1034
 4746SOL    MW418752   4.391   0.938   4.200  0.5637 -0.0223 -0.0644
 4747SOL     OW18753   1.866   2.487   3.170  0.2192 -0.1420 -0.3695
 4747SOL    HW218754   1.865   2.558   3.235  2.1538  0.2832 -0.7563
 4747SOL    HW318755   1.773   2.472   3.150 -0.3183  1.0516  1.0324
 4747SOL    MW418756   1.853   2.495   3.176  0.4035  0.0716 -0.2356
 4748SOL     OW18757   1.794   5.065   0.677  0.4118  0.2431  0.2861
 4748SOL    HW218758   1.881   5.028   0.690 -0.5472 -2.9777 -1.3243
 4748SOL    HW318759   1.738   5.016   0.737 -0.2892  2.7161  1.7861
 4748SOL    MW418760   1.798   5.054   0.686  0.1928  0.1444  0.2715
 4749SOL     OW18761   2.239   3.667   5.727 -0.3369 -0.5883 -0.0737
 4749SOL    HW218762   2.302   3.658   5.799  0.3228  0.3906 -0.5056
 4749SOL    HW318763   2.285   3.719   5.662 -2.3359  2.1096  0.4897
 4749SOL    MW418764   2.253   3.673   5.728 -0.5136 -0.1032 -0.0564
 4750SOL     OW18765   3.285   2.029   2.058 -0.1268  0.0088  0.2253
 4750SOL    HW218766   3.311   2.101   2.115 -0.0395 -1.1103  1.6352
 4750SOL    HW318767   3.346   1.959   2.078 -1.3719 -1.0993  0.2488
 4750SOL    MW418768   3.296   2.030   2.068 -0.2796 -0.2850  0.4144
 4751SOL     OW18769   6.082   0.478   4.819  1.0259 -0.0176  0.1954
 4751SOL    HW218770   6.139   0.402   4.831  0.6758 -0.5003 -1.0249
 4751SOL    HW318771   6.142   0.551   4.801  1.3396 -0.1070  0.8714
 4751SOL    MW418772   6.098   0.478   4.818  1.0211 -0.0931  0.1236
 4752SOL     OW18773   0.839   5.859   5.597  0.3381 -0.0165 -0.2000
 4752SOL    HW218774   0.774   5.807   5.644  0.7958 -1.6758 -1.2740
 4752SOL    HW318775   0.875   5.798   5.532  1.2663  1.5397 -1.2165
 4752SOL    MW418776   0.835   5.844   5.595  0.5210 -0.0301 -0.4759
 4753SOL     OW18777   1.322   4.070   3.049 -0.1780  0.5220 -0.2098
 4753SOL    HW218778   1.274   4.001   3.004  0.8387 -0.8685  0.7270
 4753SOL    HW318779   1.282   4.075   3.136  1.3571 -0.7813  0.6495
 4753SOL    MW418780   1.311   4.061   3.055  0.1587  0.1665  0.0272
 4754SOL     OW18781   5.450   0.641   3.616  0.2754 -0.2144  0.4516
 4754SOL    HW218782   5.472   0.680   3.701  0.0641  0.2461  0.3028
 4754SOL    HW318783   5.354   0.643   3.613  0.2947  1.3749 -0.4982
 4754SOL    MW418784   5.440   0.647   3.627  0.2500  0.0560  0.3066
 4755SOL     OW18785   3.254   3.516   4.194 -0.0596  0.2097  0.0455
 4755SOL    HW218786   3.318   3.568   4.244  0.5196 -1.4765  1.1699
 4755SOL    HW318787   3.194   3.580   4.158  1.9235  1.8375 -0.5738
 4755SOL    MW418788   3.255   3.531   4.196  0.2785  0.2020  0.1122
 4756SOL     OW18789   1.879   6.403   6.213 -0.0542  0.1180  0.0047
 4756SOL    HW218790   1.888   6.435   6.303  0.3202 -1.3160  0.4997
 4756SOL    HW318791   1.787   6.380   6.204 -0.5665  2.1814 -0.6901
 4756SOL    MW418792   1.868   6.404   6.224 -0.0724  0.2011 -0.0217
 4757SOL     OW18793   1.368   0.235   5.082 -0.1783  0.1296  0.5279
 4757SOL    HW218794   1.323   0.193   5.008 -1.2639  1.6198  0.2874
 4757SOL    HW318795   1.350   0.177   5.156 -0.2386 -0.6808 -0.1003
 4757SOL    MW418796   1.360   0.221   5.082 -0.3295  0.2193  0.4133
 4758SOL     OW18797   5.619   1.806   5.943  0.5433  0.5534 -0.4610
 4758SOL    HW218798   5.651   1.750   6.014  2.5354  0.8986 -1.0348
 4758SOL    HW318799   5.614   1.748   5.867  0.2931  0.6247 -0.5003
 4758SOL    MW418800   5.622   1.791   5.942  0.7731  0.6084 -0.5419
 4759SOL     OW18801   3.242   5.990   4.302  0.4341 -0.5123 -0.1365
 4759SOL    HW218802   3.227   5.914   4.357 -1.5838  1.0633  1.6969
 4759SOL    HW318803   3.318   6.033   4.340  1.2586 -1.3079 -0.8574
 4759SOL    MW418804   3.250   5.986   4.314  0.2766 -0.4094  0.0103
 4760SOL     OW18805   2.747   4.591   4.917  0.2640  0.2746 -0.0327
 4760SOL    HW218806   2.735   4.674   4.962 -0.6045 -0.7006  1.6471
 4760SOL    HW318807   2.666   4.578   4.869 -0.0470 -0.0867  0.5773
 4760SOL    MW418808   2.735   4.600   4.917  0.1084  0.0983  0.2694
 4761SOL     OW18809   0.349   3.177   1.498  0.2567  0.0403  0.1666
 4761SOL    HW218810   0.266   3.190   1.544 -0.0258 -1.4299  0.1105
 4761SOL    HW318811   0.362   3.258   1.449 -0.9396  0.4485  0.4832
 4761SOL    MW418812   0.340   3.190   1.498  0.0616 -0.0998  0.2009
 4762SOL     OW18813   2.826   1.463   6.338 -0.7428 -0.5118  0.6711
 4762SOL    HW218814   2.851   1.371   6.350  0.2677 -0.2455  0.7048
 4762SOL    HW318815   2.891   1.498   6.277 -0.3842  0.4973  1.6129
 4762SOL    MW418816   2.838   1.455   6.331 -0.5622 -0.3435  0.7998
 4763SOL     OW18817   4.674   4.802   1.519 -0.3056 -0.5030  0.2101
 4763SOL    HW218818   4.588   4.783   1.480  0.0226 -0.0493 -0.7590
 4763SOL    HW318819   4.711   4.716   1.538  0.2857 -0.8653 -2.1950
 4763SOL    MW418820   4.667   4.788   1.516 -0.1843 -0.4909 -0.2351
 4764SOL     OW18821   4.212   2.447   1.183  0.4489 -0.1749 -0.1944
 4764SOL    HW218822   4.129   2.443   1.231  0.4994  1.3969  0.0902
 4764SOL    HW318823   4.275   2.403   1.240  0.0332 -0.4431  0.0689
 4764SOL    MW418824   4.210   2.441   1.196  0.4007 -0.0029 -0.1221
 4765SOL     OW18825   5.766   6.101   3.347 -0.0594  0.3154 -0.6717
 4765SOL    HW218826   5.844   6.045   3.341  0.3799  0.7459  0.6774
 4765SOL    HW318827   5.705   6.051   3.402  0.1618  0.9516  0.1688
 4765SOL    MW418828   5.768   6.087   3.354  0.0277  0.4561 -0.3828
 4766SOL     OW18829   2.712   2.501   2.997 -0.2584 -0.5400 -0.2199
 4766SOL    HW218830   2.697   2.592   2.972  2.5254 -0.5847 -2.4548
 4766SOL    HW318831   2.626   2.460   2.988 -2.1028  2.1508  2.8683
 4766SOL    MW418832   2.699   2.507   2.992 -0.1345 -0.1908 -0.1073
 4767SOL     OW18833   0.440   0.606   1.602  0.7159  0.1129  0.3204
 4767SOL    HW218834   0.535   0.602   1.592  0.9116 -0.5816  2.1857
 4767SOL    HW318835   0.422   0.698   1.617  0.8915  0.4793 -1.4181
 4767SOL    MW418836   0.450   0.618   1.602  0.7649  0.0696  0.3371
 4768SOL     OW18837   6.350   5.753   0.031  0.3658  0.0581  0.3773
 4768SOL    HW218838   6.330   5.821   0.094 -2.5308 -1.2524  1.0491
 4768SOL    HW318839   6.296   5.775  -0.046  0.2831 -0.8345  0.1700
 4768SOL    MW418840   6.340   5.765   0.029 -0.0273 -0.2326  0.4385
 4769SOL     OW18841   2.606   6.147   3.427  0.2878  0.0826  0.7396
 4769SOL    HW218842   2.646   6.171   3.343 -0.3398 -1.6957 -0.1129
 4769SOL    HW318843   2.636   6.215   3.488 -0.0494  1.9959 -1.1109
 4769SOL    MW418844   2.616   6.159   3.424  0.1605  0.1004  0.3829
 4770SOL     OW18845   4.566   3.115   5.602  0.3849 -0.2759  0.1925
 4770SOL    HW218846   4.476   3.100   5.631  0.6390 -1.5275  0.3999
 4770SOL    HW318847   4.558   3.176   5.529 -0.4742  1.0696  1.3376
 4770SOL    MW418848   4.553   3.121   5.596  0.3051 -0.2635  0.3709
 4771SOL     OW18849   5.391   4.805   1.498  0.3489 -0.1533 -0.1271
 4771SOL    HW218850   5.317   4.852   1.461  0.2188  0.7631  1.2310
 4771SOL    HW318851   5.453   4.795   1.425 -0.2161  0.8902 -0.7658
 4771SOL    MW418852   5.389   4.810   1.483  0.2572  0.1053 -0.0322
 4772SOL     OW18853   1.467   3.009   1.399 -0.5354 -0.2171  0.4219
 4772SOL    HW218854   1.372   3.025   1.394 -0.2097  1.7694 -0.4683
 4772SOL    HW318855   1.478   2.920   1.368 -1.9972  0.0405 -0.9693
 4772SOL    MW418856   1.456   3.000   1.394 -0.6853  0.0790  0.1209
 4773SOL     OW18857   2.615   2.884   1.210  0.0999  0.6429 -0.7492
 4773SOL    HW218858   2.541   2.932   1.173 -0.1975  0.7495 -0.0230
 4773SOL    HW318859   2.692   2.926   1.171 -0.1436  1.9185  0.0758
 4773SOL    MW418860   2.616   2.896   1.200  0.0286  0.8253 -0.5446
 4774SOL     OW18861   2.098   2.933   4.631  0.1220  0.5010 -0.2427
 4774SOL    HW218862   2.107   2.838   4.623 -1.0311  0.4788 -1.6529
 4774SOL    HW318863   2.124   2.952   4.722 -0.6932 -1.2867  0.4083
 4774SOL    MW418864   2.103   2.923   4.642 -0.1377  0.2622 -0.3429
 4775SOL     OW18865   0.599   0.850   2.058  0.2849  0.2559 -0.0641
 4775SOL    HW218866   0.527   0.842   1.995  1.2928  0.0807 -1.2326
 4775SOL    HW318867   0.578   0.787   2.126  0.2457 -1.1490 -1.3199
 4775SOL    MW418868   0.587   0.841   2.058  0.4127  0.0474 -0.3839
 4776SOL     OW18869   5.191   3.160   5.443 -0.1354  0.6111  0.3502
 4776SOL    HW218870   5.206   3.201   5.357  1.2131 -1.0524 -0.2664
 4776SOL    HW318871   5.272   3.175   5.491  0.2864 -1.0066  0.2084
 4776SOL    MW418872   5.203   3.167   5.438  0.0982  0.1782  0.2501
 4777SOL     OW18873   4.218   2.475   3.284 -0.6721  0.3036  0.1079
 4777SOL    HW218874   4.237   2.568   3.296  1.9266 -0.1938  0.4270
 4777SOL    HW318875   4.260   2.452   3.201  0.6208 -0.9821  1.0583
 4777SOL    MW418876   4.226   2.484   3.275 -0.1586  0.0684  0.2754
 4778SOL     OW18877   5.734   4.884   4.372  0.2979 -0.3517  0.1005
 4778SOL    HW218878   5.663   4.944   4.347  1.1173  2.4422  3.6988
 4778SOL    HW318879   5.814   4.932   4.353  0.9848 -0.0061  3.3144
 4778SOL    MW418880   5.735   4.898   4.366  0.4966  0.0626  0.9993
 4779SOL     OW18881   6.234   0.066   3.605 -0.0461  0.0664 -0.1969
 4779SOL    HW218882   6.272   0.090   3.520  1.7224  0.4846  0.6623
 4779SOL    HW318883   6.307   0.073   3.667 -1.7322  1.9150  1.7614
 4779SOL    MW418884   6.249   0.070   3.602 -0.0353  0.3655  0.1749
 4780SOL     OW18885   0.131   3.046   5.497 -0.0193 -0.9437 -0.0037
 4780SOL    HW218886   0.065   2.986   5.461 -0.5556 -0.1160 -0.4406
 4780SOL    HW318887   0.081   3.109   5.549  0.4760 -0.5852  0.0528
 4780SOL    MW418888   0.116   3.047   5.499 -0.0247 -0.7872 -0.0539
 4781SOL     OW18889   2.865   2.863   2.776  0.1082 -1.0805  0.8212
 4781SOL    HW218890   2.772   2.847   2.763  0.0167 -0.7207  1.0416
 4781SOL    HW318891   2.893   2.792   2.835  0.0766 -1.4596  0.3913
 4781SOL    MW418892   2.856   2.851   2.782  0.0920 -1.0831  0.7936
 4782SOL     OW18893   3.438   4.453   0.883 -0.1281 -0.3639  0.1935
 4782SOL    HW218894   3.421   4.362   0.859 -1.5042 -0.8688  2.7215
 4782SOL    HW318895   3.392   4.465   0.966 -0.0589  2.6867 -0.1023
 4782SOL    MW418896   3.430   4.443   0.891 -0.3005 -0.0280  0.4880
 4783SOL     OW18897   0.580   5.851   4.025  0.7262 -0.6503 -0.8609
 4783SOL    HW218898   0.580   5.891   4.112 -3.6774 -0.5278 -0.6942
 4783SOL    HW318899   0.630   5.911   3.970 -1.4848  2.6612  0.4320
 4783SOL    MW418900   0.586   5.864   4.029 -0.1465 -0.1972 -0.6683
 4784SOL     OW18901   3.327   1.767   0.009  0.3458  0.4798 -0.3594
 4784SOL    HW218902   3.285   1.851  -0.008 -0.9725 -0.3831 -1.6535
 4784SOL    HW318903   3.405   1.788   0.061 -0.3906  2.3897  0.0327
 4784SOL    MW418904   3.332   1.781   0.014  0.0747  0.6179 -0.4784
 4785SOL     OW18905   1.366   3.926   5.367  0.0679  0.5831 -0.2084
 4785SOL    HW218906   1.332   3.985   5.435 -2.2712 -0.4006 -0.4261
 4785SOL    HW318907   1.343   3.838   5.398  0.6172 -0.0124 -1.4075
 4785SOL    MW418908   1.359   3.922   5.380 -0.1682  0.3747 -0.3953
 4786SOL     OW18909   4.595   2.948   4.949 -0.1487  0.3502  0.0601
 4786SOL    HW218910   4.502   2.972   4.944  0.0415  0.9718 -0.7748
 4786SOL    HW318911   4.609   2.925   5.040 -1.0010  0.8118  0.3203
 4786SOL    MW418912   4.585   2.948   4.960 -0.2361  0.4931 -0.0157
 4787SOL     OW18913   0.225   1.459   6.147 -0.5729 -0.1022 -0.0321
 4787SOL    HW218914   0.258   1.398   6.082  0.4662 -1.1383  1.4003
 4787SOL    HW318915   0.152   1.504   6.104 -0.1434 -0.9875 -1.7565
 4787SOL    MW418916   0.220   1.457   6.133 -0.3792 -0.3557 -0.0706
 4788SOL     OW18917   0.396   0.052   5.160  0.0355 -0.4509 -0.0672
 4788SOL    HW218918   0.364  -0.034   5.134 -0.9801  0.0953 -0.7225
 4788SOL    HW318919   0.352   0.071   5.243  0.2033 -0.5352  0.0408
 4788SOL    MW418920   0.386   0.043   5.167 -0.0764 -0.3899 -0.1394
 4789SOL     OW18921   2.960   1.327   2.708 -0.4232  0.0865 -0.2298
 4789SOL    HW218922   3.024   1.348   2.776 -1.7836  0.2936  1.0405
 4789SOL    HW318923   2.976   1.236   2.687  1.0034  0.4358 -0.7528
 4789SOL    MW418924   2.971   1.318   2.714 -0.4145  0.1599 -0.1312
 4790SOL     OW18925   0.775   1.389   2.120  0.1789  0.2416 -0.4499
 4790SOL    HW218926   0.707   1.323   2.105  1.4138 -1.0321 -0.6055
 4790SOL    HW318927   0.739   1.469   2.080 -1.6025 -0.1446  0.2850
 4790SOL    MW418928   0.761   1.391   2.113  0.1068  0.0226 -0.3735
 4791SOL     OW18929   0.044   4.217   3.296 -0.7640 -0.3757 -0.1395
 4791SOL    HW218930  -0.021   4.196   3.229 -0.4500  0.8951 -0.8845
 4791SOL    HW318931   0.076   4.304   3.272 -0.1890 -0.1504  1.3180
 4791SOL    MW418932   0.040   4.226   3.284 -0.6467 -0.1783 -0.0455
 4792SOL     OW18933   4.087   1.165   1.300  0.2730 -0.3332  0.5203
 4792SOL    HW218934   4.068   1.109   1.375 -0.5515 -0.9659 -0.1468
 4792SOL    HW318935   4.023   1.236   1.307  1.6923  0.9128  1.6996
 4792SOL    MW418936   4.076   1.167   1.311  0.3515 -0.2523  0.5879
 4793SOL     OW18937   2.333   3.952   1.343 -0.1817  0.2653 -0.0787
 4793SOL    HW218938   2.401   3.885   1.352 -1.3079 -0.7707  1.1129
 4793SOL    HW318939   2.295   3.936   1.257 -1.3126 -1.5224  0.7121
 4793SOL    MW418940   2.337   3.941   1.333 -0.4795 -0.1073  0.1828
 4794SOL     OW18941   0.645   0.032   1.644  0.2937 -0.5427 -0.1536
 4794SOL    HW218942   0.694   0.075   1.574 -1.4236  1.0077 -0.4829
 4794SOL    HW318943   0.572   0.092   1.662 -2.3297 -3.3310 -0.6728
 4794SOL    MW418944   0.642   0.045   1.637 -0.2790 -0.7061 -0.2656
 4795SOL     OW18945   2.186   3.296   5.444 -0.2331 -0.1028  0.1450
 4795SOL    HW218946   2.229   3.337   5.370 -0.4018  0.3964  0.3229
 4795SOL    HW318947   2.257   3.260   5.497  0.0471  1.4667  0.8907
 4795SOL    MW418948   2.201   3.296   5.441 -0.2184  0.1702  0.2668
 4796SOL     OW18949   1.750   1.395   1.668 -0.0638  0.2224 -0.6114
 4796SOL    HW218950   1.761   1.341   1.746  0.4008 -0.5500 -1.1872
 4796SOL    HW318951   1.663   1.373   1.636 -0.0004  0.0455 -0.6661
 4796SOL    MW418952   1.740   1.385   1.674  0.0059  0.0971 -0.6946
 4797SOL     OW18953   0.883   5.654   4.188 -0.0042  0.3140  0.0066
 4797SOL    HW218954   0.920   5.596   4.121 -0.0165 -0.7448  0.8870
 4797SOL    HW318955   0.893   5.742   4.152  0.5061 -0.1902 -1.1319
 4797SOL    MW418956   0.889   5.658   4.174  0.0615  0.1078 -0.0274
 4798SOL     OW18957   0.663   4.288   3.540  0.7563 -0.3558 -0.3032
 4798SOL    HW218958   0.575   4.304   3.573  2.0407  0.9600  2.9079
 4798SOL    HW318959   0.673   4.349   3.466 -0.8242 -0.1347 -0.3599
 4798SOL    MW418960   0.653   4.298   3.535  0.7172 -0.1530  0.1130
 4799SOL     OW18961   1.787   3.952   3.716 -0.7316  0.0224 -0.2274
 4799SOL    HW218962   1.804   3.953   3.810 -1.4422 -2.5437  0.0259
 4799SOL    HW318963   1.853   4.010   3.678  1.5752 -1.2590  1.5924
 4799SOL    MW418964   1.798   3.960   3.723 -0.5210 -0.4852  0.0461
 4800SOL     OW18965   1.955   1.412   4.158 -0.2989  0.4345  0.0904
 4800SOL    HW218966   1.924   1.322   4.165  0.8750 -0.1514 -1.6799
 4800SOL    HW318967   2.044   1.410   4.194 -0.1620  0.8159 -0.2090
 4800SOL    MW418968   1.963   1.400   4.164 -0.1259  0.4075 -0.1826
 4801SOL     OW18969   0.823   4.779   4.203 -0.2091 -0.6160  0.0721
 4801SOL    HW218970   0.909   4.749   4.174 -0.8236 -1.5593 -0.7841
 4801SOL    HW318971   0.801   4.850   4.143  0.3998  0.3349  0.9276
 4801SOL    MW418972   0.831   4.785   4.191 -0.2099 -0.6150  0.0720
 4802SOL     OW18973   1.875   3.965   4.561  0.2250  0.8450 -0.5047
 4802SOL    HW218974   1.830   3.899   4.614  1.3452 -0.2378 -0.8578
 4802SOL    HW318975   1.804   4.010   4.515 -0.6619  0.8116  0.7519
 4802SOL    MW418976   1.859   3.962   4.562  0.2558  0.6977 -0.3855
 4803SOL     OW18977   6.145   3.469   4.119  0.1780  0.2842  0.4205
 4803SOL    HW218978   6.150   3.432   4.031  1.2197  0.8207  0.2376
 4803SOL    HW318979   6.161   3.562   4.106  0.5150  0.3387  1.1964
 4803SOL    MW418980   6.148   3.476   4.106  0.3599  0.3622  0.4987
 4804SOL     OW18981   1.937   2.506   5.523 -0.0350 -0.4012  0.2562
 4804SOL    HW218982   2.016   2.561   5.517  2.1388 -2.9056  3.1794
 4804SOL    HW318983   1.951   2.438   5.457 -0.1625 -0.3961  0.2241
 4804SOL    MW418984   1.950   2.505   5.513  0.2350 -0.7309  0.6377
 4805SOL     OW18985   1.812   1.252   1.010 -0.0138 -0.1946 -0.1507
 4805SOL    HW218986   1.850   1.299   1.084  2.7003 -0.0350 -1.5131
 4805SOL    HW318987   1.739   1.308   0.982  2.7235  3.1222 -1.3642
 4805SOL    MW418988   1.807   1.266   1.016  0.7054  0.2641 -0.4905
 4806SOL     OW18989   1.493   1.536   1.355  0.5272 -0.0092  0.3036
 4806SOL    HW218990   1.488   1.478   1.431 -0.8600  0.7150  0.8209
 4806SOL    HW318991   1.583   1.528   1.324  0.2822 -2.7132  0.0967
 4806SOL    MW418992   1.504   1.527   1.361  0.3119 -0.2704  0.3446
 4807SOL     OW18993   2.538   4.608   3.903 -0.6370 -0.4667 -0.5704
 4807SOL    HW218994   2.627   4.639   3.883 -0.4141  1.1103  2.3025
 4807SOL    HW318995   2.545   4.513   3.899  0.8558 -0.3544 -1.6065
 4807SOL    MW418996   2.551   4.600   3.900 -0.4106 -0.2438 -0.3280
 4808SOL     OW18997   0.394   2.978   1.065 -0.2159  0.0484 -0.1522
 4808SOL    HW218998   0.360   3.067   1.071  1.9078  0.9200  0.1036
 4808SOL    HW318999   0.438   2.975   0.980 -1.7836 -1.3826 -0.9668
 4808SOL    MW419000   0.396   2.989   1.054 -0.1426 -0.0254 -0.2259
 4809SOL     OW19001   1.009   0.890   4.598 -0.2321 -0.1986 -0.5615
 4809SOL    HW219002   0.954   0.816   4.572 -0.5876 -0.8482  1.8260
 4809SOL    HW319003   1.094   0.851   4.614 -0.0712  0.1575 -0.5564
 4809SOL    MW419004   1.013   0.875   4.596 -0.2578 -0.2373 -0.2459
 4810SOL     OW19005   2.652   1.673   4.833 -0.1830 -0.7224 -0.2143
 4810SOL    HW219006   2.715   1.666   4.905 -1.4982  0.2190  1.0654
 4810SOL    HW319007   2.639   1.767   4.821 -1.0476 -0.8947 -0.7345
 4810SOL    MW419008   2.659   1.685   4.841 -0.4706 -0.6210 -0.1141
 4811SOL     OW19009   0.040   3.808   0.548  0.2254 -0.5141 -0.1037
 4811SOL    HW219010  -0.017   3.882   0.570 -0.3612 -0.8348 -0.5109
 4811SOL    HW319011   0.127   3.846   0.544 -0.1788  0.3568 -1.2076
 4811SOL    MW419012   0.044   3.823   0.550  0.0947 -0.4415 -0.3031
 4812SOL     OW19013   0.861   5.730   0.070 -0.1328  0.6543  0.1692
 4812SOL    HW219014   0.849   5.743  -0.024 -1.1109  0.8704  0.3181
 4812SOL    HW319015   0.944   5.682   0.077 -1.1631 -1.4554 -0.9573
 4812SOL    MW419016   0.870   5.725   0.059 -0.3978  0.4045  0.0402
 4813SOL     OW19017   1.857   4.513   1.765  0.0241  0.0110 -0.1447
 4813SOL    HW219018   1.910   4.437   1.745 -0.1341 -0.5485  1.4265
 4813SOL    HW319019   1.793   4.518   1.694  0.4480 -0.9181 -0.5986
 4813SOL    MW419020   1.856   4.504   1.753  0.0592 -0.1854  0.0027
 4814SOL     OW19021   1.251   0.965   0.829  0.3852  0.3555 -0.2176
 4814SOL    HW219022   1.180   1.028   0.843  1.2856  1.0863  1.3353
 4814SOL    HW319023   1.331   1.013   0.853  1.1888 -1.0622  0.0377
 4814SOL    MW419024   1.252   0.980   0.834  0.6101  0.2649  0.0210
 4815SOL     OW19025   4.138   0.231   0.956  0.1675  0.4196  0.1125
 4815SOL    HW219026   4.227   0.220   0.992  0.1946 -0.0032 -0.0883
 4815SOL    HW319027   4.098   0.145   0.963  0.2373  0.2835 -1.0597
 4815SOL    MW419028   4.145   0.218   0.962  0.1803  0.3459 -0.0687
 4816SOL     OW19029   0.047   5.840   4.218 -0.6332 -0.3310  0.2873
 4816SOL    HW219030   0.006   5.754   4.213  0.4437 -0.8794  0.6530
 4816SOL    HW319031   0.141   5.822   4.226 -0.3488  0.8821 -0.1036
 4816SOL    MW419032   0.054   5.827   4.219 -0.4536 -0.2433  0.2840
 4817SOL     OW19033   0.327   1.074   0.336  0.2895  0.4036 -0.3712
 4817SOL    HW219034   0.411   1.068   0.290  1.5900 -0.5312  1.9342
 4817SOL    HW319035   0.338   1.149   0.395  0.1511 -0.7075  1.1079
 4817SOL    MW419036   0.340   1.083   0.338  0.4428  0.1336  0.1281
 4818SOL     OW19037   4.370   1.117   1.625  0.4003  0.1261  0.2893
 4818SOL    HW219038   4.371   1.212   1.610 -0.1625  0.0114 -0.4952
 4818SOL    HW319039   4.431   1.082   1.560 -0.1122 -0.1347 -0.0543
 4818SOL    MW419040   4.378   1.125   1.615  0.2585  0.0765  0.1405
 4819SOL     OW19041   0.189   2.929   4.744 -0.1447 -0.3098  0.0258
 4819SOL    HW219042   0.133   2.974   4.808  0.4764 -0.4563  0.6896
 4819SOL    HW319043   0.252   2.996   4.717 -0.6226 -0.1503 -0.7029
 4819SOL    MW419044   0.190   2.944   4.749 -0.1258 -0.3081  0.0172
 4820SOL     OW19045   2.254   1.216   5.514  0.2038 -0.0231 -0.4115
 4820SOL    HW219046   2.243   1.272   5.591  0.7818  2.2383 -1.8736
 4820SOL    HW319047   2.202   1.138   5.534 -0.3571  0.8529  1.8979
 4820SOL    MW419048   2.245   1.213   5.527  0.2060  0.3908 -0.2997
 4821SOL     OW19049   5.183   1.686   0.692  0.2963  0.0017  0.0283
 4821SOL    HW219050   5.223   1.725   0.614 -0.5732  1.5135  0.2934
 4821SOL    HW319051   5.138   1.608   0.660 -0.3652  0.8056 -1.0774
 4821SOL    MW419052   5.182   1.681   0.677  0.0943  0.3072 -0.0826
 4822SOL     OW19053   0.709   0.833   1.704 -0.0986  0.1699 -0.6729
 4822SOL    HW219054   0.765   0.805   1.632  1.5259  1.9973 -0.1993
 4822SOL    HW319055   0.763   0.821   1.782 -0.5415  1.5139 -0.1430
 4822SOL    MW419056   0.723   0.828   1.705  0.0573  0.5883 -0.5405
 4823SOL     OW19057   4.290   4.780   0.019  0.2520 -0.4264  0.1305
 4823SOL    HW219058   4.374   4.824   0.029  0.1985 -0.1276 -0.6676
 4823SOL    HW319059   4.232   4.823   0.081  0.0945  0.9120 -0.9130
 4823SOL    MW419060   4.294   4.791   0.028  0.2242 -0.2104 -0.1125
 4824SOL     OW19061   0.187   4.091   0.182  0.0890  0.6421 -0.7104
 4824SOL    HW219062   0.185   4.120   0.091  0.4648 -1.9481 -1.6410
 4824SOL    HW319063   0.278   4.103   0.210  0.0193  1.2402 -0.7373
 4824SOL    MW419064   0.199   4.096   0.174  0.1294  0.3793 -0.8367
 4825SOL     OW19065   4.526   2.603   1.406  0.3891  0.3748  0.2686
 4825SOL    HW219066   4.596   2.562   1.455  0.5417 -0.8470 -0.9152
 4825SOL    HW319067   4.458   2.622   1.471  0.6080 -1.1431  0.9704
 4825SOL    MW419068   4.526   2.600   1.421  0.4381  0.0133  0.2051
 4826SOL     OW19069   2.274   5.728   1.879  0.0901 -0.3412 -0.0649
 4826SOL    HW219070   2.350   5.681   1.912  0.8278  1.4230  0.8615
 4826SOL    HW319071   2.310   5.793   1.818 -0.6421  0.5642  0.4378
 4826SOL    MW419072   2.289   5.730   1.875  0.0908  0.0110  0.1237
 4827SOL     OW19073   2.278   0.400   0.700 -0.0702 -0.0483  0.8711
 4827SOL    HW219074   2.242   0.327   0.650  0.8885 -0.1484  0.3040
 4827SOL    HW319075   2.236   0.393   0.786 -1.6017  0.0127  0.1772
 4827SOL    MW419076   2.267   0.390   0.705 -0.1458 -0.0534  0.7047
 4828SOL     OW19077   6.341   4.098   2.505  0.3550  0.2321 -0.2002
 4828SOL    HW219078   6.264   4.047   2.533  0.5737 -0.6179 -1.0990
 4828SOL    HW319079   6.316   4.134   2.420  1.2920 -0.8898 -0.9867
 4828SOL    MW419080   6.327   4.096   2.497  0.5075 -0.0281 -0.4226
 4829SOL     OW19081   2.668   0.029   4.867 -0.1693  0.4305  0.0709
 4829SOL    HW219082   2.716   0.099   4.910  0.3337  1.0881 -1.5097
 4829SOL    HW319083   2.597   0.073   4.820  0.1897 -0.0903 -0.9922
 4829SOL    MW419084   2.665   0.044   4.866 -0.0556  0.4485 -0.2779
 4830SOL     OW19085   1.074   0.105   2.740  0.0341  0.1870  0.2027
 4830SOL    HW219086   1.091   0.051   2.663 -0.7440  0.3618 -0.1005
 4830SOL    HW319087   1.119   0.060   2.811  1.6515  0.5908 -0.5350
 4830SOL    MW419088   1.082   0.092   2.739  0.1449  0.2633  0.0654
 4831SOL     OW19089   3.578   5.146   6.395  0.4475 -0.4430 -0.1701
 4831SOL    HW219090   3.645   5.201   6.355  0.5823 -0.8707 -0.5476
 4831SOL    HW319091   3.625   5.067   6.421  0.5782  0.2347  1.7937
 4831SOL    MW419092   3.593   5.143   6.393  0.4826 -0.4100  0.0392
 4832SOL     OW19093   5.860   0.237   2.218  0.3432 -0.1048 -0.3013
 4832SOL    HW219094   5.799   0.283   2.276  1.1010 -1.1049  1.3814
 4832SOL    HW319095   5.932   0.299   2.205  0.3187  0.0088  0.0972
 4832SOL    MW419096   5.861   0.251   2.224  0.4400 -0.2217 -0.0267
 4833SOL     OW19097   6.011   2.742   1.685 -0.2820 -0.2339  0.5190
 4833SOL    HW219098   6.029   2.820   1.633  1.2350  0.1109  1.5080
 4833SOL    HW319099   5.918   2.725   1.671 -0.3644  1.0469 -0.6599
 4833SOL    MW419100   6.001   2.750   1.677 -0.0927 -0.0194  0.4940
 4834SOL     OW19101   5.915   5.726   5.679  0.6016 -0.4671 -0.1146
 4834SOL    HW219102   5.909   5.722   5.775  0.1419  3.3144  0.1483
 4834SOL    HW319103   6.001   5.691   5.659  0.6618 -1.4559  1.6354
 4834SOL    MW419104   5.925   5.721   5.689  0.5489 -0.0986  0.1510
 4835SOL     OW19105   0.221   3.793   6.087 -0.9993  0.3726 -0.0502
 4835SOL    HW219106   0.164   3.716   6.085 -0.5487  0.0024 -2.3301
 4835SOL    HW319107   0.250   3.803   5.996 -1.4879  3.6126  0.0352
 4835SOL    MW419108   0.218   3.784   6.075 -1.0043  0.7513 -0.3398
 4836SOL     OW19109   1.614   1.208   0.338 -0.0384 -0.4425  0.0489
 4836SOL    HW219110   1.684   1.219   0.402 -0.5342 -0.1975  0.5562
 4836SOL    HW319111   1.598   1.114   0.336  0.2082 -0.4846  0.0348
 4836SOL    MW419112   1.621   1.197   0.346 -0.0713 -0.4158  0.1140
 4837SOL     OW19113   0.333   6.419   0.043 -0.0068  0.0429 -0.2508
 4837SOL    HW219114   0.256   6.396  -0.009  0.0116  0.0521 -0.2824
 4837SOL    HW319115   0.397   6.449  -0.022 -0.8925  2.6723 -0.0208
 4837SOL    MW419116   0.331   6.419   0.027 -0.1213  0.3910 -0.2246
 4838SOL     OW19117   3.293   6.230   5.612 -0.3220 -0.2181 -0.0846
 4838SOL    HW219118   3.349   6.304   5.588  0.2699 -0.5797  0.1820
 4838SOL    HW319119   3.219   6.236   5.550  1.0839 -1.0431 -1.9467
 4838SOL    MW419120   3.290   6.241   5.600 -0.0584 -0.3747 -0.2951
 4839SOL     OW19121   2.130   5.253   6.266 -0.4595 -0.1070 -0.0422
 4839SOL    HW219122   2.104   5.200   6.191 -0.7843  0.2099 -0.1555
 4839SOL    HW319123   2.056   5.248   6.326  0.7695 -2.4117  1.3954
 4839SOL    MW419124   2.117   5.246   6.264 -0.3402 -0.3692  0.1325
 4840SOL     OW19125   2.820   1.032   3.880 -0.3057  0.1473 -0.1301
 4840SOL    HW219126   2.876   0.982   3.938 -0.3488 -1.2292 -1.2296
 4840SOL    HW319127   2.751   1.067   3.936  1.6069  1.9210  1.2608
 4840SOL    MW419128   2.818   1.030   3.895 -0.0590  0.1997 -0.0917
 4841SOL     OW19129   2.632   1.416   1.587 -0.7892  0.0274  0.1191
 4841SOL    HW219130   2.650   1.484   1.522  0.2535  0.2141  0.5859
 4841SOL    HW319131   2.662   1.335   1.545 -2.2893 -0.2284 -0.5509
 4841SOL    MW419132   2.638   1.414   1.573 -0.8496  0.0183  0.0923
 4842SOL     OW19133   5.999   2.970   4.750 -0.0930 -0.5511 -0.0566
 4842SOL    HW219134   5.964   2.964   4.661 -0.0129  0.7853 -0.1929
 4842SOL    HW319135   6.081   3.018   4.740 -0.1001 -0.3697  0.7413
 4842SOL    MW419136   6.005   2.976   4.737 -0.0834 -0.3509  0.0307
 4843SOL     OW19137   3.848   4.638   3.218  0.2467 -0.0878  0.4786
 4843SOL    HW219138   3.943   4.643   3.221  0.4725 -2.0888 -1.1397
 4843SOL    HW319139   3.819   4.682   3.298  2.5436  0.0991  1.2803
 4843SOL    MW419140   3.857   4.644   3.229  0.5795 -0.3271  0.3709
 4844SOL     OW19141   5.274   4.441   5.264  0.1091 -0.4101  0.3687
 4844SOL    HW219142   5.351   4.422   5.318  0.2884 -0.5822  0.0621
 4844SOL    HW319143   5.240   4.354   5.240  0.4464 -0.3521 -0.3631
 4844SOL    MW419144   5.280   4.427   5.268  0.1773 -0.4252  0.2317
 4845SOL     OW19145   2.205   5.424   4.590  0.0619  0.2726 -0.0305
 4845SOL    HW219146   2.173   5.417   4.500 -1.4843 -0.2986  0.5258
 4845SOL    HW319147   2.185   5.514   4.616 -0.7421  0.0441  0.1710
 4845SOL    MW419148   2.198   5.435   4.582 -0.2482  0.1671  0.0695
 4846SOL     OW19149   1.782   2.161   3.076 -0.1599  0.0575  0.1947
 4846SOL    HW219150   1.733   2.082   3.054 -1.3635  0.5175  1.0435
 4846SOL    HW319151   1.732   2.232   3.035 -0.3831  0.5579  1.2747
 4846SOL    MW419152   1.769   2.160   3.068 -0.3482  0.1842  0.4492
 4847SOL     OW19153   2.992   2.396   0.469  0.3159 -0.2122  0.4014
 4847SOL    HW219154   3.027   2.481   0.442  1.4228 -0.4400  1.0685
 4847SOL    HW319155   2.944   2.414   0.550 -2.5120  0.3671 -1.2551
 4847SOL    MW419156   2.990   2.410   0.476  0.0888 -0.1658  0.2709
 4848SOL     OW19157   3.237   2.807   4.228  0.1650  0.3827  0.1760
 4848SOL    HW219158   3.159   2.803   4.172 -1.0582  0.4276  1.7904
 4848SOL    HW319159   3.202   2.806   4.318  1.9973  1.2315  0.9534
 4848SOL    MW419160   3.222   2.806   4.233  0.2454  0.5006  0.4915
 4849SOL     OW19161   5.535   3.948   6.300  0.0353 -0.1506 -0.2894
 4849SOL    HW219162   5.485   3.870   6.275  0.6524 -0.0290 -2.0155
 4849SOL    HW319163   5.479   3.992   6.364 -0.5530 -1.7276  0.3321
 4849SOL    MW419164   5.521   3.944   6.305  0.0391 -0.3426 -0.4351
 4850SOL     OW19165   1.192   5.072   5.431 -0.0920 -0.1371  0.2349
 4850SOL    HW219166   1.186   5.071   5.335 -0.2030  0.4875  0.2266
 4850SOL    HW319167   1.126   5.009   5.460 -1.8796  1.4861 -0.0499
 4850SOL    MW419168   1.182   5.064   5.422 -0.3425  0.1595  0.1962
 4851SOL     OW19169   5.479   3.613   2.811 -0.0831  0.0272  0.2502
 4851SOL    HW219170   5.515   3.663   2.738  0.2425  0.0561  0.4281
 4851SOL    HW319171   5.556   3.576   2.855 -0.3085 -0.4065  0.2782
 4851SOL    MW419172   5.494   3.615   2.807 -0.0699 -0.0262  0.2774
 4852SOL     OW19173   4.989   0.586   3.803  0.3586 -0.2143  0.3945
 4852SOL    HW219174   5.046   0.558   3.732 -0.3241 -0.5167 -0.0496
 4852SOL    HW319175   4.974   0.679   3.787  0.0899 -0.3146  0.0562
 4852SOL    MW419176   4.995   0.595   3.792  0.2330 -0.2675  0.2913
 4853SOL     OW19177   5.422   2.948   5.654  0.1702  0.1395 -0.0839
 4853SOL    HW219178   5.335   2.979   5.627 -0.2283 -1.2898 -0.5592
 4853SOL    HW319179   5.474   2.950   5.574  0.1240 -0.4274 -0.1340
 4853SOL    MW419180   5.417   2.952   5.640  0.1115 -0.1239 -0.1532
 4854SOL     OW19181   0.776   4.124   2.145  0.2706 -0.3234 -0.4197
 4854SOL    HW219182   0.810   4.212   2.160  2.7510 -0.8757 -2.2143
 4854SOL    HW319183   0.842   4.065   2.184  1.0277 -1.4184 -3.1374
 4854SOL    MW419184   0.789   4.127   2.152  0.6978 -0.5408 -1.0151
 4855SOL     OW19185   5.409   0.631   4.241  0.0876 -0.0015 -0.3429
 4855SOL    HW219186   5.322   0.670   4.240 -0.8087 -1.6916  2.0884
 4855SOL    HW319187   5.464   0.696   4.285 -0.7496 -0.2562  1.1380
 4855SOL    MW419188   5.405   0.645   4.247 -0.1411 -0.2581  0.1733
 4856SOL     OW19189   1.673   3.696   0.628  0.3877  0.5229  0.0708
 4856SOL    HW219190   1.704   3.785   0.643  1.2223 -0.1670  2.9137
 4856SOL    HW319191   1.595   3.688   0.683  0.3377 -0.5126 -0.1237
 4856SOL    MW419192   1.667   3.707   0.637  0.4912  0.2953  0.4202
 4857SOL     OW19193   5.144   2.928   4.656 -0.2938  0.0434  0.6512
 4857SOL    HW219194   5.166   2.924   4.563 -0.3640  1.3159  0.5654
 4857SOL    HW319195   5.056   2.891   4.661 -0.1365 -0.3954  0.2763
 4857SOL    MW419196   5.135   2.922   4.644 -0.2823  0.1534  0.5904
 4858SOL     OW19197   6.130   5.804   6.233 -0.0727  0.4315  0.2139
 4858SOL    HW219198   6.054   5.757   6.266  0.0139  0.4937  0.5038
 4858SOL    HW319199   6.118   5.894   6.264 -0.4713  0.7181 -0.7214
 4858SOL    MW419200   6.119   5.810   6.241 -0.1138  0.4775  0.1287
 4859SOL     OW19201   2.794   4.317   4.095  0.2863 -0.1650  0.0185
 4859SOL    HW219202   2.792   4.402   4.140  0.2775  0.1750 -0.6035
 4859SOL    HW319203   2.881   4.314   4.054  0.0874 -0.2067 -0.4124
 4859SOL    MW419204   2.805   4.328   4.095  0.2589 -0.1256 -0.1204
 4860SOL     OW19205   2.958   2.370   6.065 -0.0966  0.7356 -0.2862
 4860SOL    HW219206   3.039   2.335   6.028 -0.9696 -0.5368 -1.0860
 4860SOL    HW319207   2.972   2.368   6.159 -0.6633 -3.6731 -0.0525
 4860SOL    MW419208   2.970   2.365   6.072 -0.2865 -0.0139 -0.3609
 4861SOL     OW19209   0.275   5.959   6.049  0.7006 -0.0206 -0.0518
 4861SOL    HW219210   0.300   5.869   6.068  0.5508  0.1401  0.9482
 4861SOL    HW319211   0.351   6.011   6.074  0.7512  0.1387 -0.5336
 4861SOL    MW419212   0.288   5.954   6.055  0.6875  0.0216  0.0166
 4862SOL     OW19213   3.203   1.349   2.541  0.0852 -0.2959  0.2940
 4862SOL    HW219214   3.117   1.346   2.583 -0.7183 -0.9784 -1.3093
 4862SOL    HW319215   3.198   1.424   2.481  0.0291 -1.2625 -0.9390
 4862SOL    MW419216   3.191   1.359   2.539 -0.0282 -0.5135 -0.0802
 4863SOL     OW19217   4.049   1.624   4.483  0.4192  0.3972  0.9056
 4863SOL    HW219218   4.142   1.607   4.494  0.5661 -0.3546 -1.1233
 4863SOL    HW319219   4.017   1.641   4.572  1.9821 -1.8979  2.0056
 4863SOL    MW419220   4.057   1.624   4.496  0.6448 -0.0048  0.7830
 4864SOL     OW19221   3.770   1.333   2.391  0.0447  0.4205 -0.2470
 4864SOL    HW219222   3.781   1.254   2.444  1.9903  2.2239  2.2672
 4864SOL    HW319223   3.855   1.346   2.349  0.2834  1.9702  0.6463
 4864SOL    MW419224   3.783   1.324   2.392  0.3329  0.8629  0.2026
 4865SOL     OW19225   1.947   3.010   1.701  0.4785  0.0380  0.3669
 4865SOL    HW219226   1.870   3.004   1.758 -0.7293 -1.4771 -1.3096
 4865SOL    HW319227   1.911   3.015   1.613  2.3126  0.1141 -0.4212
 4865SOL    MW419228   1.932   3.010   1.697  0.5611 -0.1518  0.0417
 4866SOL     OW19229   2.405   1.531   4.179  0.0825  0.0292 -0.3617
 4866SOL    HW219230   2.381   1.567   4.265 -1.0422 -0.6846 -0.3607
 4866SOL    HW319231   2.453   1.602   4.137  1.4828  0.0778  1.2018
 4866SOL    MW419232   2.408   1.545   4.185  0.1189 -0.0585 -0.1553
 4867SOL     OW19233   1.142   0.693   0.398 -0.3634 -0.0466 -0.6523
 4867SOL    HW219234   1.212   0.739   0.444 -0.8039 -1.3183  1.4064
 4867SOL    HW319235   1.187   0.641   0.331  0.8525 -1.5237  1.1950
 4867SOL    MW419236   1.157   0.692   0.395 -0.2611 -0.4092 -0.1369
 4868SOL     OW19237   4.141   1.050   1.773  0.3462  0.0345  0.1754
 4868SOL    HW219238   4.091   1.130   1.784  0.4237  0.1472 -0.2743
 4868SOL    HW319239   4.208   1.072   1.708  0.9831 -0.1137  0.7579
 4868SOL    MW419240   4.143   1.063   1.766  0.4405  0.0298  0.1929
 4869SOL     OW19241   1.733   4.074   4.177  0.2180  0.0859 -0.0603
 4869SOL    HW219242   1.707   4.166   4.184 -0.0180 -0.0175  0.4657
 4869SOL    HW319243   1.761   4.064   4.086 -0.3239  0.5298 -0.2793
 4869SOL    MW419244   1.734   4.085   4.166  0.1154  0.1308 -0.0198
 4870SOL     OW19245   5.305   4.559   3.908  0.1427  0.7618  0.1886
 4870SOL    HW219246   5.359   4.484   3.880  0.2197  1.0456 -0.4455
 4870SOL    HW319247   5.365   4.614   3.959  0.4684  1.0709 -0.5054
 4870SOL    MW419248   5.320   4.556   3.911  0.1958  0.8400  0.0134
 4871SOL     OW19249   5.695   3.292   3.136 -0.2335 -0.2989  0.6192
 4871SOL    HW219250   5.658   3.332   3.215 -1.1480 -2.4472  1.3459
 4871SOL    HW319251   5.640   3.216   3.119  0.0122  0.0301 -2.0666
 4871SOL    MW419252   5.683   3.287   3.144 -0.3217 -0.5389  0.3607
 4872SOL     OW19253   1.878   6.289   4.951  0.1643  0.3253 -0.1157
 4872SOL    HW219254   1.930   6.208   4.948 -0.9237 -0.3737 -1.2704
 4872SOL    HW319255   1.821   6.283   4.875  0.2593  2.3479 -0.3989
 4872SOL    MW419256   1.878   6.277   4.940  0.0333  0.4999 -0.3054
 4873SOL     OW19257   3.039   2.488   3.195  0.4393  0.0925  0.2957
 4873SOL    HW219258   3.032   2.456   3.105 -0.5351  2.6148 -0.6166
 4873SOL    HW319259   2.961   2.454   3.238 -0.0769  0.4082 -0.3624
 4873SOL    MW419260   3.028   2.479   3.189  0.2427  0.4670  0.0885
 4874SOL     OW19261   4.516   4.303   2.931 -0.5305 -0.4794  0.1370
 4874SOL    HW219262   4.487   4.271   3.016 -0.3124 -1.2611 -0.0712
 4874SOL    HW319263   4.520   4.225   2.876  1.2180 -0.3070 -0.0521
 4874SOL    MW419264   4.513   4.289   2.935 -0.2710 -0.5598  0.0846
 4875SOL     OW19265   4.777   3.189   3.667  0.1630  0.3148  0.1493
 4875SOL    HW219266   4.811   3.249   3.602  0.9263  0.2053  0.4385
 4875SOL    HW319267   4.833   3.202   3.744 -0.0055 -0.3727  0.3972
 4875SOL    MW419268   4.789   3.199   3.669  0.2414  0.2097  0.2202
 4876SOL     OW19269   1.489   6.019   4.727  0.2471 -0.3680  0.4598
 4876SOL    HW219270   1.519   6.096   4.776  0.3449  0.4204 -0.8009
 4876SOL    HW319271   1.562   5.996   4.670 -0.4261 -0.2810 -0.4650
 4876SOL    MW419272   1.503   6.026   4.726  0.1712 -0.2525  0.1715
 4877SOL     OW19273   4.412   6.233   3.128 -0.1245 -0.6212  0.0143
 4877SOL    HW219274   4.458   6.169   3.182  0.0962 -1.1225 -0.7470
 4877SOL    HW319275   4.477   6.260   3.063  0.2907  1.5611  1.2438
 4877SOL    MW419276   4.427   6.228   3.126 -0.0406 -0.3994  0.0761
 4878SOL     OW19277   5.573   5.962   3.503  0.3916  0.0816  0.6473
 4878SOL    HW219278   5.565   5.938   3.595 -0.1273 -0.8117  0.3740
 4878SOL    HW319279   5.513   5.904   3.457  2.7246 -1.4753 -0.6144
 4878SOL    MW419280   5.564   5.951   3.509  0.6309 -0.2417  0.4448
 4879SOL     OW19281   4.952   4.998   3.849  0.2333  0.0607  0.2007
 4879SOL    HW219282   4.897   5.000   3.771 -0.1078  0.2438  0.4429
 4879SOL    HW319283   5.031   4.950   3.823  0.3937  0.6534 -0.4286
 4879SOL    MW419284   4.955   4.992   3.836  0.2094  0.1631  0.1496
 4880SOL     OW19285   4.954   3.384   0.371  0.5749  0.3526 -0.5588
 4880SOL    HW219286   4.977   3.315   0.309  1.1753 -1.9023  1.9735
 4880SOL    HW319287   4.884   3.346   0.424 -0.2684  2.3803 -0.1170
 4880SOL    MW419288   4.948   3.370   0.370  0.5428  0.3226 -0.1664
 4881SOL     OW19289   0.139   2.812   4.321  0.3728 -0.0832  0.9237
 4881SOL    HW219290   0.129   2.865   4.242  0.8752  0.6091  1.3156
 4881SOL    HW319291   0.211   2.853   4.369 -0.0432 -0.3821  1.8318
 4881SOL    MW419292   0.147   2.824   4.317  0.3842 -0.0313  1.0952
 4882SOL     OW19293   5.600   4.076   4.555 -0.3393 -0.3263 -0.1627
 4882SOL    HW219294   5.585   4.107   4.644 -0.8259 -1.7073  0.2583
 4882SOL    HW319295   5.624   3.984   4.565 -0.3159 -0.4874 -1.4572
 4882SOL    MW419296   5.601   4.068   4.568 -0.4004 -0.5297 -0.2779
 4883SOL     OW19297   4.934   6.178   5.093 -0.1969 -0.0446  0.5560
 4883SOL    HW219298   4.880   6.193   5.170  0.8551 -1.2102  1.5696
 4883SOL    HW319299   4.871   6.171   5.020 -1.0650  3.8496  0.7275
 4883SOL    MW419300   4.918   6.179   5.093 -0.1727  0.3154  0.7124
 4884SOL     OW19301   0.656   5.802   3.587 -0.0673 -0.2718 -0.7742
 4884SOL    HW219302   0.568   5.839   3.588  0.7220  1.7483  0.4487
 4884SOL    HW319303   0.654   5.735   3.656 -0.4127  0.3909 -0.1252
 4884SOL    MW419304   0.644   5.798   3.596 -0.0088  0.0822 -0.5272
 4885SOL     OW19305   3.478   2.347   1.194  0.5053 -0.3709 -0.0759
 4885SOL    HW219306   3.528   2.290   1.136  1.6328 -1.7838  2.1406
 4885SOL    HW319307   3.534   2.357   1.271 -1.3845  0.4624  1.2536
 4885SOL    MW419308   3.492   2.341   1.197  0.4047 -0.4474  0.3920
 4886SOL     OW19309   2.379   4.884   4.271  0.3571  0.5609 -0.3970
 4886SOL    HW219310   2.405   4.792   4.266  1.6714  0.9358 -0.8040
 4886SOL    HW319311   2.322   4.889   4.348  0.6979 -0.4806 -0.0632
 4886SOL    MW419312   2.375   4.872   4.281  0.5755  0.4730 -0.4067
 4887SOL     OW19313   4.110   1.691   2.229 -0.1719 -0.5865  0.8843
 4887SOL    HW219314   4.074   1.690   2.318  1.1549  0.0950  1.4607
 4887SOL    HW319315   4.200   1.723   2.240  0.1193 -0.7963 -0.6707
 4887SOL    MW419316   4.117   1.695   2.243  0.0416 -0.5242  0.7552
 4888SOL     OW19317   1.081   0.597   5.178  0.1010  0.3425  0.3586
 4888SOL    HW219318   1.167   0.571   5.144 -0.2733  0.9809 -1.1611
 4888SOL    HW319319   1.098   0.673   5.233  0.5563  0.1931  0.4275
 4888SOL    MW419320   1.095   0.603   5.181  0.1117  0.4070  0.1672
 4889SOL     OW19321   5.444   1.256   5.195 -0.1598  0.3626 -0.5690
 4889SOL    HW219322   5.383   1.219   5.259  0.1175  1.0782  0.1215
 4889SOL    HW319323   5.417   1.348   5.187 -0.2003  0.2817 -1.5001
 4889SOL    MW419324   5.432   1.263   5.202 -0.1286  0.4464 -0.6008
 4890SOL     OW19325   1.671   6.193   5.685  0.4126 -0.6942 -0.2361
 4890SOL    HW219326   1.762   6.223   5.686 -0.0058  0.6204  0.0763
 4890SOL    HW319327   1.637   6.223   5.601 -0.0371 -0.2181  0.1133
 4890SOL    MW419328   1.679   6.201   5.674  0.2980 -0.4579 -0.1488
 4891SOL     OW19329   5.725   3.384   5.185  0.5666  0.0592  0.3687
 4891SOL    HW219330   5.726   3.293   5.155  0.5692  0.7031 -1.7863
 4891SOL    HW319331   5.633   3.409   5.183  0.4036 -0.2836  2.3443
 4891SOL    MW419332   5.713   3.375   5.181  0.5455  0.0989  0.3450
 4892SOL     OW19333   4.692   2.968   2.542 -0.0076  0.3087  0.0500
 4892SOL    HW219334   4.696   3.010   2.628  1.3307 -0.0200  0.1780
 4892SOL    HW319335   4.670   2.877   2.562  1.9209 -0.1613  0.2292
 4892SOL    MW419336   4.690   2.961   2.556  0.4234  0.2033  0.0905
 4893SOL     OW19337   3.066   6.046   0.870  0.1144 -0.6564 -0.3111
 4893SOL    HW219338   3.067   6.060   0.775 -0.2042  1.4544 -0.0417
 4893SOL    HW319339   3.049   5.952   0.880 -0.2768 -0.8430 -2.3324
 4893SOL    MW419340   3.064   6.035   0.859  0.0208 -0.4025 -0.5423
 4894SOL     OW19341   1.018   2.758   4.719  0.0382  0.0868  0.1478
 4894SOL    HW219342   1.011   2.702   4.641  0.0491  0.0959  0.1404
 4894SOL    HW319343   1.078   2.709   4.777  1.4953  0.9239 -0.5905
 4894SOL    MW419344   1.025   2.744   4.716  0.2319  0.1984  0.0494
 4895SOL     OW19345   4.080   1.697   5.471 -0.4362 -0.3467 -0.0716
 4895SOL    HW219346   3.991   1.666   5.490 -1.1456  1.2327 -0.6148
 4895SOL    HW319347   4.069   1.756   5.397  0.8486  1.0170  0.7708
 4895SOL    MW419348   4.067   1.700   5.464 -0.3602  0.0416 -0.0321
 4896SOL     OW19349   2.183   1.347   4.337 -0.5462 -0.0008 -0.4059
 4896SOL    HW219350   2.244   1.273   4.326 -0.0876  0.5403 -1.6324
 4896SOL    HW319351   2.234   1.424   4.311 -0.9049  0.8269  1.1934
 4896SOL    MW419352   2.198   1.347   4.332 -0.5330  0.1798 -0.3567
 4897SOL     OW19353   4.064   2.131   0.657  0.2029 -0.1831  0.5033
 4897SOL    HW219354   4.157   2.155   0.659  0.7881 -1.4893 -3.0313
 4897SOL    HW319355   4.029   2.178   0.582 -1.3681 -1.5692  0.3156
 4897SOL    MW419356   4.072   2.140   0.647  0.0728 -0.5383  0.0121
 4898SOL     OW19357   4.952   0.466   5.881  0.6039 -0.3234  0.3316
 4898SOL    HW219358   4.933   0.537   5.943  0.2433  0.0986 -0.2526
 4898SOL    HW319359   4.922   0.387   5.925 -3.2629  0.3356 -0.7821
 4898SOL    MW419360   4.946   0.465   5.895  0.0462 -0.1808  0.1076
 4899SOL     OW19361   2.779   0.922   0.183 -0.1972 -0.3661 -0.2682
 4899SOL    HW219362   2.691   0.884   0.186  0.1928 -1.2667  0.2970
 4899SOL    HW319363   2.805   0.916   0.092 -1.4012  1.5658 -0.8009
 4899SOL    MW419364   2.771   0.917   0.172 -0.3046 -0.2300 -0.2639
 4900SOL     OW19365   6.280   3.696   2.914  0.4042 -0.2979  0.3306
 4900SOL    HW219366   6.350   3.723   2.855  0.3997 -1.7093 -0.3620
 4900SOL    HW319367   6.323   3.640   2.979  0.3000  0.7226  1.3003
 4900SOL    MW419368   6.295   3.692   2.915  0.3898 -0.3495  0.3672
 4901SOL     OW19369   4.287   2.191   3.925 -0.5792  0.2244 -0.1627
 4901SOL    HW219370   4.351   2.150   3.983 -1.2258 -1.3778 -0.5346
 4901SOL    HW319371   4.223   2.230   3.985 -0.4836 -0.1633  0.1978
 4901SOL    MW419372   4.287   2.191   3.941 -0.6519 -0.0381 -0.1642
 4902SOL     OW19373   2.066   5.557   0.872 -0.1627 -1.0078  0.1168
 4902SOL    HW219374   1.984   5.519   0.903 -0.1745 -1.7265 -0.7578
 4902SOL    HW319375   2.130   5.535   0.939 -0.4759 -1.3206  0.3137
 4902SOL    MW419376   2.064   5.549   0.885 -0.2056 -1.1439  0.0274
 4903SOL     OW19377   4.675   4.182   0.562 -0.9576 -0.1368 -0.1520
 4903SOL    HW219378   4.749   4.152   0.510  0.7847  1.0211  1.5164
 4903SOL    HW319379   4.624   4.236   0.502  1.1618  1.4485 -0.6227
 4903SOL    MW419380   4.678   4.185   0.547 -0.4481  0.2251  0.0060
 4904SOL     OW19381   0.105   5.147   2.500 -0.1908  0.4291 -0.3112
 4904SOL    HW219382   0.072   5.071   2.548 -0.5264  0.5370 -0.3625
 4904SOL    HW319383   0.087   5.221   2.557 -0.1292  0.5014 -0.3861
 4904SOL    MW419384   0.098   5.147   2.514 -0.2269  0.4529 -0.3279
 4905SOL     OW19385   5.588   1.648   4.013  0.4607  0.1015 -0.2382
 4905SOL    HW219386   5.536   1.617   4.088 -0.7108  2.4245 -0.0150
 4905SOL    HW319387   5.574   1.581   3.946 -2.9278  0.5774 -0.1928
 4905SOL    MW419388   5.580   1.635   4.014 -0.1409  0.4708 -0.2027
 4906SOL     OW19389   3.599   6.417   2.223  0.3941  0.8035  0.1799
 4906SOL    HW219390   3.528   6.430   2.160  0.6819  1.1616 -0.0730
 4906SOL    HW319391   3.571   6.343   2.276  0.0917  0.5798 -0.2912
 4906SOL    MW419392   3.586   6.409   2.222  0.3922  0.8212  0.0844
 4907SOL     OW19393   3.424   1.222   1.626 -0.3588  0.1259  0.1968
 4907SOL    HW219394   3.489   1.165   1.586 -0.6728 -0.1900  0.1247
 4907SOL    HW319395   3.370   1.253   1.553 -0.9847 -0.5189  0.3716
 4907SOL    MW419396   3.425   1.218   1.611 -0.4828 -0.0009  0.2103
 4908SOL     OW19397   3.713   3.145   4.170 -0.0608  0.1717 -0.0042
 4908SOL    HW219398   3.775   3.180   4.106 -2.9503  2.8218 -1.5614
 4908SOL    HW319399   3.684   3.062   4.132  1.5739 -0.5479  0.2110
 4908SOL    MW419400   3.718   3.138   4.157 -0.2264  0.4264 -0.1813
 4909SOL     OW19401   1.191   4.213   3.689 -0.0897  0.2780  0.0294
 4909SOL    HW219402   1.175   4.279   3.756 -1.5020 -0.6219  0.6490
 4909SOL    HW319403   1.112   4.158   3.691  0.5899 -0.8000 -1.1688
 4909SOL    MW419404   1.178   4.214   3.698 -0.1863  0.0170 -0.0469
 4910SOL     OW19405   2.322   5.058   4.030 -0.1039  0.2948  0.2288
 4910SOL    HW219406   2.333   5.014   4.114 -0.0380  0.2667  0.2063
 4910SOL    HW319407   2.247   5.015   3.989  1.0678 -1.0699 -0.5802
 4910SOL    MW419408   2.314   5.047   4.035  0.0594  0.1110  0.1191
 4911SOL     OW19409   0.319   0.184   4.938 -0.1017  0.2030  0.6965
 4911SOL    HW219410   0.335   0.145   5.024  1.5789  0.8908  0.7529
 4911SOL    HW319411   0.324   0.278   4.954  0.4514  0.3294 -0.1794
 4911SOL    MW419412   0.322   0.191   4.952  0.1930  0.3104  0.5884
 4912SOL     OW19413   2.074   4.965   2.177  0.1956 -0.9081 -0.0790
 4912SOL    HW219414   2.034   4.981   2.263 -0.7935 -0.3175 -0.6262
 4912SOL    HW319415   2.152   4.914   2.196  0.7270  0.3445  1.3113
 4912SOL    MW419416   2.079   4.960   2.191  0.1352 -0.6649  0.0322
 4913SOL     OW19417   5.037   0.173   3.508  0.2483  0.6151  0.3941
 4913SOL    HW219418   5.081   0.203   3.588 -0.9552  2.1395  0.5383
 4913SOL    HW319419   5.033   0.252   3.453  0.7348 -0.3181 -1.0491
 4913SOL    MW419420   5.042   0.188   3.511  0.1537  0.6931  0.2227
 4914SOL     OW19421   0.709   4.591   6.064  0.5764 -0.5131 -0.0179
 4914SOL    HW219422   0.615   4.577   6.073  0.7074 -1.2557  0.3390
 4914SOL    HW319423   0.733   4.643   6.141  0.6400 -1.3375  0.5371
 4914SOL    MW419424   0.700   4.596   6.075  0.6021 -0.7199  0.1024
 4915SOL     OW19425   4.489   6.331   4.516  0.4650  0.3243  0.0719
 4915SOL    HW219426   4.495   6.241   4.482  1.8340  0.7328 -0.8176
 4915SOL    HW319427   4.530   6.326   4.603 -2.7205 -0.6392  1.6980
 4915SOL    MW419428   4.495   6.318   4.523  0.2253  0.2511  0.1691
 4916SOL     OW19429   2.495   1.613   3.883 -0.3709 -0.0457  0.1876
 4916SOL    HW219430   2.539   1.687   3.843 -1.4539  0.8814  0.6423
 4916SOL    HW319431   2.566   1.558   3.917  0.4980 -0.0910 -1.6123
 4916SOL    MW419432   2.510   1.615   3.882 -0.3992  0.0706  0.0102
 4917SOL     OW19433   3.822   0.947   5.728 -0.1058 -0.3163 -0.2350
 4917SOL    HW219434   3.787   1.011   5.666 -1.5413 -0.0813  0.7895
 4917SOL    HW319435   3.858   0.999   5.800  1.0963 -0.6073 -0.5978
 4917SOL    MW419436   3.822   0.962   5.729 -0.1366 -0.3237 -0.1477
 4918SOL     OW19437   5.169   5.190   5.496  0.2090 -0.1146 -0.0930
 4918SOL    HW219438   5.173   5.140   5.415  0.5675  0.4940 -0.4565
 4918SOL    HW319439   5.142   5.126   5.562 -0.3648 -0.5506 -0.7388
 4918SOL    MW419440   5.166   5.175   5.494  0.1806 -0.0919 -0.2262
 4919SOL     OW19441   2.973   0.833   3.051  0.4141 -0.4320 -0.3507
 4919SOL    HW219442   2.988   0.805   3.141  0.4329 -0.7915 -0.4633
 4919SOL    HW319443   2.909   0.905   3.058  2.5964  1.5710  0.1936
 4919SOL    MW419444   2.966   0.839   3.064  0.7045 -0.2151 -0.2938
 4920SOL     OW19445   0.238   2.890   6.327  0.1813  0.3792 -0.3101
 4920SOL    HW219446   0.323   2.934   6.340  0.5065  0.0556 -1.2431
 4920SOL    HW319447   0.210   2.919   6.240 -0.2353 -0.2329 -0.3824
 4920SOL    MW419448   0.246   2.900   6.317  0.1692  0.2557 -0.4427
 4921SOL     OW19449   4.181   1.397   2.498 -0.0025  0.1793  0.1971
 4921SOL    HW219450   4.163   1.347   2.578  0.5238 -0.8690 -0.3066
 4921SOL    HW319451   4.131   1.478   2.508 -0.7539 -0.3758  1.1265
 4921SOL    MW419452   4.172   1.401   2.510 -0.0322 -0.0323  0.2533
 4922SOL     OW19453   1.674   4.612   6.092  0.2103  0.2810 -0.4354
 4922SOL    HW219454   1.602   4.673   6.075  1.0633  2.2819  2.4109
 4922SOL    HW319455   1.745   4.643   6.036  0.0430  0.7105 -0.4165
 4922SOL    MW419456   1.674   4.624   6.083  0.3008  0.6016 -0.0574
 4923SOL     OW19457   0.514   0.391   2.348  0.1287  0.4523 -0.6298
 4923SOL    HW219458   0.435   0.345   2.319  0.2561 -0.2687  0.1314
 4923SOL    HW319459   0.580   0.322   2.358  0.3395  0.7938  0.4696
 4923SOL    MW419460   0.512   0.376   2.346  0.1733  0.4023 -0.3843
 4924SOL     OW19461   1.907   2.922   2.579  0.1997  0.0549 -0.5111
 4924SOL    HW219462   1.949   2.838   2.564  0.2088 -0.0973  0.3625
 4924SOL    HW319463   1.814   2.906   2.559  0.0674 -0.3704  0.4288
 4924SOL    MW419464   1.900   2.909   2.574  0.1834 -0.0213 -0.2718
 4925SOL     OW19465   2.079   5.796   4.104  0.0979  0.5363 -0.4659
 4925SOL    HW219466   2.034   5.737   4.044 -1.8077  1.6560 -0.2296
 4925SOL    HW319467   2.157   5.748   4.131 -2.0664 -2.5105  0.8924
 4925SOL    MW419468   2.084   5.782   4.099 -0.4391  0.2821 -0.2555
 4926SOL     OW19469   5.518   0.796   5.836 -0.2797  0.4221 -0.0799
 4926SOL    HW219470   5.496   0.723   5.779  0.6488  0.0096  0.0703
 4926SOL    HW319471   5.581   0.848   5.786 -0.9561  1.1423 -0.1980
 4926SOL    MW419472   5.524   0.793   5.822 -0.2464  0.4627 -0.0757
 4927SOL     OW19473   4.136   1.221   2.702  0.1515 -0.4443 -0.8007
 4927SOL    HW219474   4.075   1.217   2.776 -0.2839 -1.0929 -1.1818
 4927SOL    HW319475   4.195   1.148   2.716  0.2113 -0.4281 -0.9726
 4927SOL    MW419476   4.136   1.211   2.714  0.1019 -0.5277 -0.8737
 4928SOL     OW19477   0.652   2.595   1.547  0.0600  0.5033 -0.2023
 4928SOL    HW219478   0.668   2.660   1.479 -1.7052  1.1357 -0.0627
 4928SOL    HW319479   0.717   2.615   1.615  0.2879  1.3813 -0.6658
 4928SOL    MW419480   0.663   2.606   1.547 -0.1428  0.7026 -0.2450
 4929SOL     OW19481   4.041   2.875   3.518 -0.4547 -0.2169  0.4166
 4929SOL    HW219482   4.089   2.948   3.481 -0.1913 -1.4626 -1.9234
 4929SOL    HW319483   4.004   2.830   3.442 -0.6327 -2.4820  1.7511
 4929SOL    MW419484   4.042   2.878   3.503 -0.4435 -0.6801  0.2839
 4930SOL     OW19485   6.226   6.173   1.049  0.2095 -0.8106  0.4169
 4930SOL    HW219486   6.266   6.117   1.115  1.6095 -1.2851 -0.7796
 4930SOL    HW319487   6.286   6.247   1.040  0.1607 -0.8632 -0.4647
 4930SOL    MW419488   6.239   6.176   1.057  0.3878 -0.8802  0.1427
 4931SOL     OW19489   3.537   3.182   2.939  0.8386  0.3200  0.2446
 4931SOL    HW219490   3.546   3.105   2.883  1.2511  0.3987  0.2000
 4931SOL    HW319491   3.583   3.159   3.019 -0.2255 -0.0052  0.7787
 4931SOL    MW419492   3.544   3.169   2.942  0.7527  0.2875  0.3092
 4932SOL     OW19493   5.514   4.435   2.864  0.2579 -0.0538  0.1409
 4932SOL    HW219494   5.498   4.367   2.799 -0.6255  0.6299 -0.3660
 4932SOL    HW319495   5.478   4.399   2.945 -0.5628 -0.0427 -0.2072
 4932SOL    MW419496   5.507   4.421   2.866  0.0330  0.0379  0.0281
 4933SOL     OW19497   4.760   0.240   5.914 -0.3121  0.0881  0.5494
 4933SOL    HW219498   4.693   0.258   5.979 -1.9049 -0.4449 -0.8550
 4933SOL    HW319499   4.717   0.181   5.851  1.3940 -0.0531 -0.5518
 4933SOL    MW419500   4.745   0.234   5.914 -0.2972 -0.0009  0.2188
 4934SOL     OW19501   6.143   1.901   5.067  0.1044 -0.6479  0.2556
 4934SOL    HW219502   6.058   1.874   5.101  0.2200 -0.4028  0.7468
 4934SOL    HW319503   6.136   1.890   4.972 -0.5459 -0.4288  0.2767
 4934SOL    MW419504   6.131   1.896   5.059  0.0338 -0.5867  0.3232
 4935SOL     OW19505   3.006   3.359   0.923 -0.4413  0.3500  0.5815
 4935SOL    HW219506   3.077   3.298   0.940 -0.1122  0.1976 -1.1434
 4935SOL    HW319507   2.962   3.324   0.845 -0.5553  2.0156 -0.1488
 4935SOL    MW419508   3.010   3.347   0.915 -0.4129  0.5496  0.2576
 4936SOL     OW19509   3.116   3.123   6.279  0.0182 -0.3973  0.1391
 4936SOL    HW219510   3.068   3.041   6.274 -0.6086 -0.0022 -0.5409
 4936SOL    HW319511   3.152   3.125   6.368 -4.3797  0.9948  2.1684
 4936SOL    MW419512   3.115   3.113   6.290 -0.6447 -0.1615  0.3171
 4937SOL     OW19513   0.058   1.156   2.401 -0.4171  0.1714 -0.3953
 4937SOL    HW219514   0.030   1.121   2.317  0.0493  0.9638 -0.8883
 4937SOL    HW319515   0.097   1.081   2.446 -1.6806 -0.5271 -0.4035
 4937SOL    MW419516   0.059   1.141   2.396 -0.5223  0.1838 -0.4614
 4938SOL     OW19517   4.971   0.381   1.282  0.5640 -0.3980  0.8783
 4938SOL    HW219518   4.958   0.322   1.207 -0.3629 -0.1255  0.8024
 4938SOL    HW319519   4.938   0.332   1.357  1.2615 -0.5748  1.0705
 4938SOL    MW419520   4.965   0.367   1.282  0.5337 -0.3853  0.8936
 4939SOL     OW19521   6.246   3.385   2.477 -0.1630 -0.0736 -0.7048
 4939SOL    HW219522   6.194   3.428   2.545 -0.8471 -0.8791 -0.7087
 4939SOL    HW319523   6.261   3.297   2.509  0.8761  0.0244 -0.8911
 4939SOL    MW419524   6.241   3.379   2.490 -0.1162 -0.1669 -0.7299
 4940SOL     OW19525   5.658   0.111   3.295 -0.4948  0.0773  0.0722
 4940SOL    HW219526   5.728   0.176   3.290  0.7301 -1.1870  0.0736
 4940SOL    HW319527   5.633   0.095   3.204  1.6910 -1.9488 -0.2967
 4940SOL    MW419528   5.664   0.117   3.282 -0.0448 -0.3568  0.0237
 4941SOL     OW19529   3.188   1.001   3.354 -0.2360  0.1397  0.0973
 4941SOL    HW219530   3.129   0.926   3.352 -0.2826  0.1688  0.4027
 4941SOL    HW319531   3.254   0.979   3.419  0.5941 -0.2652 -0.8567
 4941SOL    MW419532   3.189   0.988   3.362 -0.1326  0.0901  0.0117
 4942SOL     OW19533   0.709   3.081   2.986 -0.2265  0.0959 -0.4320
 4942SOL    HW219534   0.765   3.103   2.912 -1.5436  2.4575 -0.8378
 4942SOL    HW319535   0.701   3.163   3.035 -0.8075 -0.9688  1.3429
 4942SOL    MW419536   0.715   3.095   2.983 -0.4769  0.2670 -0.2513
 4943SOL     OW19537   3.282   3.070   0.757 -0.1528  0.5555 -0.0774
 4943SOL    HW219538   3.196   3.077   0.717 -0.9488 -0.2229  1.4114
 4943SOL    HW319539   3.271   3.006   0.828  1.6998  0.2659  0.0089
 4943SOL    MW419540   3.269   3.063   0.761 -0.0134  0.4146  0.1304
 4944SOL     OW19541   4.399   5.109   3.649  0.3265  0.4180 -0.5697
 4944SOL    HW219542   4.445   5.106   3.733 -1.8344 -0.3125  0.6775
 4944SOL    HW319543   4.346   5.188   3.654  1.1582  1.0912 -1.8493
 4944SOL    MW419544   4.398   5.119   3.661  0.1512  0.4105 -0.5739
 4945SOL     OW19545   2.073   4.725   0.161 -0.2377  0.1634  0.0235
 4945SOL    HW219546   2.126   4.656   0.121  1.2563  1.2523  0.0396
 4945SOL    HW319547   2.114   4.807   0.133  0.7191  1.0131  3.4095
 4945SOL    MW419548   2.085   4.727   0.152  0.0856  0.4192  0.4724
 4946SOL     OW19549   2.009   1.059   1.961  0.2969  0.5085 -0.3215
 4946SOL    HW219550   2.061   1.048   1.881 -0.5584 -0.6714 -0.7487
 4946SOL    HW319551   2.065   1.110   2.019  3.4922 -3.5246  0.6335
 4946SOL    MW419552   2.023   1.064   1.958  0.6057 -0.1793 -0.2519
 4947SOL     OW19553   5.007   1.489   3.013  0.5717 -0.1967  0.3425
 4947SOL    HW219554   4.951   1.412   3.003  1.1389 -0.6218  0.3892
 4947SOL    HW319555   5.053   1.474   3.096  1.0540 -0.0487  0.1039
 4947SOL    MW419556   5.005   1.477   3.023  0.7101 -0.2332  0.3172
 4948SOL     OW19557   5.081   2.396   6.194  0.1949 -0.1961 -0.2997
 4948SOL    HW219558   5.151   2.395   6.129  0.4667 -0.3046 -0.0103
 4948SOL    HW319559   5.005   2.431   6.148  0.9479  1.8325 -0.1137
 4948SOL    MW419560   5.080   2.401   6.179  0.3301  0.0573 -0.2370
 4949SOL     OW19561   0.108   2.445   1.423 -0.0067  0.2025 -0.0373
 4949SOL    HW219562   0.031   2.493   1.451  0.2874 -0.6098  2.3947
 4949SOL    HW319563   0.175   2.468   1.488  1.2676 -0.4924 -1.0615
 4949SOL    MW419564   0.107   2.454   1.435  0.2002  0.0036  0.1484
 4950SOL     OW19565   3.441   2.479   2.016  0.4508 -0.5315  0.1459
 4950SOL    HW219566   3.436   2.568   2.049 -0.2887  0.6822 -2.8855
 4950SOL    HW319567   3.534   2.465   1.998  0.6079 -0.5384  0.9124
 4950SOL    MW419568   3.453   2.489   2.018  0.3740 -0.3723 -0.1530
 4951SOL     OW19569   2.878   5.631   6.352 -0.0228  0.0082 -0.7477
 4951SOL    HW219570   2.959   5.581   6.354  1.0990  1.7310  1.7805
 4951SOL    HW319571   2.814   5.574   6.395  0.9976  0.3221  1.2588
 4951SOL    MW419572   2.880   5.617   6.358  0.2599  0.2769 -0.1494
 4952SOL     OW19573   1.067   5.442   5.730 -0.3857 -0.0099 -0.0278
 4952SOL    HW219574   1.090   5.352   5.708  0.9685 -0.0377  1.3127
 4952SOL    HW319575   0.973   5.448   5.713  0.0413 -0.6504 -3.4023
 4952SOL    MW419576   1.058   5.431   5.725 -0.1507 -0.0980 -0.2962
 4953SOL     OW19577   2.740   4.168   0.499 -0.3446 -0.1663 -0.5653
 4953SOL    HW219578   2.714   4.257   0.524 -0.2180 -0.2881  0.0110
 4953SOL    HW319579   2.757   4.174   0.405  0.1417  0.5330 -0.4437
 4953SOL    MW419580   2.739   4.180   0.490 -0.2637 -0.0901 -0.4732
 4954SOL     OW19581   0.313   2.708   2.634  0.5682 -0.1831  0.1169
 4954SOL    HW219582   0.340   2.766   2.562  1.3015 -0.2796  0.3060
 4954SOL    HW319583   0.312   2.765   2.711  0.7686 -0.3006  0.2071
 4954SOL    MW419584   0.317   2.723   2.635  0.6914 -0.2114  0.1538
 4955SOL     OW19585   1.704   0.800   6.382 -0.8560  0.1910 -0.1220
 4955SOL    HW219586   1.781   0.757   6.343  0.8136  0.1270  2.9159
 4955SOL    HW319587   1.642   0.729   6.397 -0.5439 -0.1649 -0.5055
 4955SOL    MW419588   1.706   0.785   6.379 -0.5945  0.1356  0.2282
 4956SOL     OW19589   0.263   5.738   5.152 -0.1565  0.2433 -0.7091
 4956SOL    HW219590   0.256   5.653   5.196  0.8252 -0.1722 -1.3316
 4956SOL    HW319591   0.352   5.739   5.116  0.3559  2.1133  0.4824
 4956SOL    MW419592   0.274   5.727   5.153  0.0406  0.4352 -0.6340
 4957SOL     OW19593   5.970   4.898   0.168  0.1634 -0.2636  0.3768
 4957SOL    HW219594   5.885   4.860   0.190  0.3366 -0.1716  1.2440
 4957SOL    HW319595   6.005   4.841   0.100 -0.1370 -0.9264  0.7661
 4957SOL    MW419596   5.963   4.885   0.162  0.1466 -0.3389  0.5426
 4958SOL     OW19597   4.182   5.491   5.396 -0.2019  0.0435 -0.6008
 4958SOL    HW219598   4.142   5.493   5.309  1.8554  0.9655 -1.5885
 4958SOL    HW319599   4.276   5.496   5.380  0.2443  0.3588  1.6985
 4958SOL    MW419600   4.189   5.492   5.382  0.1284  0.2068 -0.4277
 4959SOL     OW19601   2.160   5.979   5.175 -0.1942  0.5069  0.4652
 4959SOL    HW219602   2.082   5.930   5.200  1.2537 -1.8263  0.7106
 4959SOL    HW319603   2.132   6.033   5.101 -2.0832 -0.0354  0.7314
 4959SOL    MW419604   2.146   5.980   5.169 -0.2524  0.1275  0.5327
 4960SOL     OW19605   0.598   0.223   3.776  0.5343  0.1920  0.1126
 4960SOL    HW219606   0.519   0.176   3.750  0.6820  0.9018 -1.7898
 4960SOL    HW319607   0.599   0.219   3.872 -1.1208 -0.9122  0.1068
 4960SOL    MW419608   0.588   0.217   3.785  0.3354  0.1399 -0.1392
 4961SOL     OW19609   4.646   5.595   1.161  0.0724 -0.0794  0.0471
 4961SOL    HW219610   4.597   5.639   1.231 -1.2576  1.5529 -1.8302
 4961SOL    HW319611   4.654   5.505   1.192  0.9255  0.8773  3.0213
 4961SOL    MW419612   4.641   5.589   1.175  0.0095  0.2622  0.1918
 4962SOL     OW19613   3.768   1.794   2.901 -0.6787  0.3380  0.2647
 4962SOL    HW219614   3.790   1.802   2.994  0.9951 -0.4610 -0.0221
 4962SOL    HW319615   3.852   1.796   2.856 -1.4338  0.2964 -1.2102
 4962SOL    MW419616   3.782   1.795   2.907 -0.5575  0.2271  0.0323
 4963SOL     OW19617   1.854   3.655   3.804  0.7346  0.0093 -0.0468
 4963SOL    HW219618   1.796   3.606   3.863  0.9615  0.8176  0.8736
 4963SOL    HW319619   1.877   3.734   3.854  0.1742  1.1926 -1.5906
 4963SOL    MW419620   1.849   3.659   3.819  0.6906  0.2721 -0.1290
 4964SOL     OW19621   1.240   1.820   0.631  0.3000 -0.3366 -0.1044
 4964SOL    HW219622   1.294   1.744   0.607  0.0687 -1.1128  1.7077
 4964SOL    HW319623   1.303   1.888   0.655  0.4925 -0.6024  0.1470
 4964SOL    MW419624   1.256   1.819   0.631  0.2949 -0.4741  0.1678
 4965SOL     OW19625   6.416   6.006   3.376 -0.0226  0.6323 -0.3340
 4965SOL    HW219626   6.447   6.011   3.285  1.2436  0.8384  0.0972
 4965SOL    HW319627   6.402   5.913   3.392  0.2027  0.5551 -0.5897
 4965SOL    MW419628   6.418   5.995   3.366  0.1742  0.6493 -0.3108
 4966SOL     OW19629   3.194   6.379   0.951  0.6270 -0.3820 -0.2917
 4966SOL    HW219630   3.253   6.421   1.015 -0.0474  2.2847 -1.2685
 4966SOL    HW319631   3.115   6.360   1.001  0.7849 -0.0466  0.0977
 4966SOL    MW419632   3.191   6.382   0.966  0.5588  0.0141 -0.3692
 4967SOL     OW19633   4.286   3.137   5.677 -0.6520 -0.2770  0.5373
 4967SOL    HW219634   4.275   3.067   5.741  1.1061 -0.2963  0.8794
 4967SOL    HW319635   4.291   3.217   5.730  0.5701 -0.2686  0.4345
 4967SOL    MW419636   4.285   3.139   5.693 -0.2588 -0.2785  0.5689
 4968SOL     OW19637   5.121   2.791   0.534  0.1051  0.1090  1.0955
 4968SOL    HW219638   5.073   2.871   0.553 -1.8843 -0.7152 -0.1176
 4968SOL    HW319639   5.105   2.774   0.441 -1.0838 -2.6272  1.6821
 4968SOL    MW419640   5.113   2.799   0.524 -0.3143 -0.3607  1.0129
 4969SOL     OW19641   3.579   3.007   3.925  0.1101  0.1760  0.5439
 4969SOL    HW219642   3.671   2.996   3.903 -0.4718  0.9597 -2.8860
 4969SOL    HW319643   3.549   2.919   3.949  1.1733 -0.6352 -0.9708
 4969SOL    MW419644   3.587   2.993   3.926  0.1736  0.1723 -0.1085
 4970SOL     OW19645   2.029   0.239   5.733  0.3195  0.5752  0.2280
 4970SOL    HW219646   2.086   0.174   5.692 -1.9545 -1.5017  0.1099
 4970SOL    HW319647   2.004   0.298   5.661 -0.8949 -0.9701 -0.6686
 4970SOL    MW419648   2.033   0.238   5.718 -0.1407  0.0973  0.0942
 4971SOL     OW19649   1.951   3.547   4.432 -0.5285 -0.1186  0.1474
 4971SOL    HW219650   2.003   3.595   4.497  0.1802 -0.6712 -0.0026
 4971SOL    HW319651   2.015   3.495   4.383 -0.7846  1.6821 -2.2824
 4971SOL    MW419652   1.966   3.546   4.434 -0.4688  0.0461 -0.1930
 4972SOL     OW19653   5.415   1.691   6.260  0.1548 -0.2928 -0.1122
 4972SOL    HW219654   5.337   1.745   6.247  0.7878  0.2632 -1.8550
 4972SOL    HW319655   5.387   1.625   6.324 -0.8525  1.5844  1.5034
 4972SOL    MW419656   5.401   1.689   6.267  0.1054  0.0282 -0.1289
 4973SOL     OW19657   3.488   1.854   1.754 -0.5023  0.4157  0.2046
 4973SOL    HW219658   3.507   1.940   1.716 -1.6098  0.6107  0.0601
 4973SOL    HW319659   3.528   1.792   1.694 -1.5252  0.7565 -0.8534
 4973SOL    MW419660   3.496   1.858   1.741 -0.7834  0.4864  0.0459
 4974SOL     OW19661   3.932   1.187   1.873 -0.0151 -0.0224 -0.1415
 4974SOL    HW219662   3.896   1.213   1.788 -0.1427 -1.4873 -0.5529
 4974SOL    HW319663   3.857   1.187   1.932 -0.1865 -0.3980 -0.3605
 4974SOL    MW419664   3.917   1.190   1.869 -0.0545 -0.2652 -0.2247
 4975SOL     OW19665   0.534   3.899   2.340 -0.4470 -0.9478  0.2138
 4975SOL    HW219666   0.457   3.886   2.394 -0.1340  0.3458  1.0161
 4975SOL    HW319667   0.509   3.969   2.279 -0.9480 -2.6792 -1.6759
 4975SOL    MW419668   0.521   3.907   2.339 -0.4718 -1.0056  0.0703
 4976SOL     OW19669   2.259   0.461   6.089 -0.4196  0.1655 -0.0266
 4976SOL    HW219670   2.187   0.423   6.140  0.5142 -0.9003  0.5641
 4976SOL    HW319671   2.316   0.501   6.155  0.2476 -0.2569 -0.3402
 4976SOL    MW419672   2.257   0.461   6.105 -0.2083 -0.0309  0.0100
 4977SOL     OW19673   1.638   3.892   0.277  0.4858 -0.8435  0.5756
 4977SOL    HW219674   1.707   3.843   0.322 -0.1214 -1.6474  0.6460
 4977SOL    HW319675   1.685   3.952   0.219  1.2580 -0.4634  1.5812
 4977SOL    MW419676   1.653   3.894   0.275  0.5076 -0.8994  0.7176
 4978SOL     OW19677   5.656   3.791   2.636  0.0813 -0.2388 -0.3888
 4978SOL    HW219678   5.605   3.800   2.556  0.2002  0.9029 -0.3520
 4978SOL    HW319679   5.747   3.805   2.608  0.4504 -2.4444 -0.4928
 4978SOL    MW419680   5.662   3.794   2.622  0.1457 -0.3791 -0.3977
 4979SOL     OW19681   4.309   4.615   0.879 -0.4066  0.1173 -0.2195
 4979SOL    HW219682   4.324   4.564   0.959  1.1965  0.3916 -0.3079
 4979SOL    HW319683   4.244   4.565   0.830  0.0445 -1.0755  0.3729
 4979SOL    MW419684   4.302   4.602   0.883 -0.1356 -0.0039 -0.1530
 4980SOL     OW19685   6.032   2.467   4.763  0.0829  0.0662 -0.0325
 4980SOL    HW219686   6.095   2.412   4.811 -1.4620 -2.6904 -0.9148
 4980SOL    HW319687   5.952   2.414   4.761 -1.3318  2.1265 -1.5961
 4980SOL    MW419688   6.030   2.452   4.769 -0.3076 -0.0257 -0.3552
 4981SOL     OW19689   1.998   2.344   1.694  0.1675 -0.0254  0.5002
 4981SOL    HW219690   2.070   2.401   1.720 -0.8843  1.2290  0.7618
 4981SOL    HW319691   1.962   2.385   1.615 -1.6521  0.6722  1.6177
 4981SOL    MW419692   2.003   2.357   1.687 -0.2114  0.2322  0.6822
 4982SOL     OW19693   4.576   2.727   2.613 -0.7517  0.0665  0.5070
 4982SOL    HW219694   4.563   2.749   2.705  1.4454 -0.4722  1.0111
 4982SOL    HW319695   4.594   2.633   2.613  1.0462  0.3604 -0.1878
 4982SOL    MW419696   4.577   2.717   2.625 -0.2246  0.0342  0.4819
 4983SOL     OW19697   5.203   3.120   0.891  0.2481  0.4649  0.4829
 4983SOL    HW219698   5.193   3.081   0.978  1.6766  0.8080  0.8171
 4983SOL    HW319699   5.171   3.210   0.902  2.4194  1.2049  1.2578
 4983SOL    MW419700   5.197   3.127   0.904  0.7231  0.6078  0.6292
 4984SOL     OW19701   5.290   0.421   2.430 -0.2586 -0.5238  0.0916
 4984SOL    HW219702   5.349   0.346   2.442  0.2952 -0.3331 -1.2825
 4984SOL    HW319703   5.349   0.495   2.419 -0.8057  0.1588  1.4678
 4984SOL    MW419704   5.306   0.421   2.430 -0.2577 -0.4086  0.0919
 4985SOL     OW19705   0.605   5.234   3.887  0.2866 -0.2488  0.2575
 4985SOL    HW219706   0.586   5.253   3.978 -0.1955  2.1430 -0.2791
 4985SOL    HW319707   0.521   5.246   3.842  0.3353 -2.1687 -0.4258
 4985SOL    MW419708   0.591   5.238   3.893  0.2295 -0.1865  0.0966
 4986SOL     OW19709   5.718   4.395   1.765  0.2944 -0.2113  0.0459
 4986SOL    HW219710   5.703   4.489   1.775  0.4840 -0.3226  1.7490
 4986SOL    HW319711   5.809   4.389   1.736  0.6610  0.1160  1.0831
 4986SOL    MW419712   5.728   4.406   1.762  0.3678 -0.1828  0.4074
 4987SOL     OW19713   2.281   4.896   6.146  0.1864  0.0641  0.3643
 4987SOL    HW219714   2.333   4.954   6.090  0.3790  1.2081  1.6549
 4987SOL    HW319715   2.256   4.824   6.090  0.7327  0.9505 -1.0680
 4987SOL    MW419716   2.285   4.895   6.132  0.2839  0.3320  0.3456
 4988SOL     OW19717   4.126   2.880   1.968  0.1657 -0.3027  0.1732
 4988SOL    HW219718   4.208   2.830   1.975  1.7416  2.0264 -0.6829
 4988SOL    HW319719   4.084   2.846   1.889  0.9962 -0.5779 -0.1667
 4988SOL    MW419720   4.131   2.869   1.959  0.4832 -0.0317  0.0154
 4989SOL     OW19721   4.623   3.065   3.446 -0.1295  0.8319 -0.3677
 4989SOL    HW219722   4.651   3.100   3.530 -1.3568  1.1637 -0.0765
 4989SOL    HW319723   4.579   2.983   3.468  1.2180 -0.0616 -0.8830
 4989SOL    MW419724   4.621   3.059   3.460 -0.1137  0.7578 -0.3973
 4990SOL     OW19725   0.569   1.733   5.995  0.3328  0.7185 -0.3266
 4990SOL    HW219726   0.583   1.817   5.952 -0.5208  1.1837  0.2566
 4990SOL    HW319727   0.506   1.688   5.939 -1.1087  1.4975  0.5883
 4990SOL    MW419728   0.562   1.738   5.982  0.0300  0.8827 -0.1289
 4991SOL     OW19729   0.486   1.106   5.549 -0.2063 -0.1299  0.8703
 4991SOL    HW219730   0.503   1.192   5.587  0.8367 -1.0930  2.7310
 4991SOL    HW319731   0.531   1.045   5.607  0.7346 -1.8173 -1.4586
 4991SOL    MW419732   0.494   1.109   5.561  0.0555 -0.4796  0.8085
 4992SOL     OW19733   5.501   2.509   2.008 -0.2323  0.2697 -0.6906
 4992SOL    HW219734   5.584   2.476   2.041 -0.5467 -0.3237 -0.4836
 4992SOL    HW319735   5.460   2.550   2.084 -1.4779 -2.1181  0.0164
 4992SOL    MW419736   5.506   2.510   2.023 -0.4381 -0.1236 -0.5700
 4993SOL     OW19737   2.712   5.298   5.487  0.3277  0.5264 -0.1817
 4993SOL    HW219738   2.729   5.256   5.403  1.6796 -0.7361  0.6738
 4993SOL    HW319739   2.653   5.238   5.532  0.2514  0.7958  0.0824
 4993SOL    MW419740   2.707   5.285   5.482  0.4960  0.3954 -0.0340
 4994SOL     OW19741   2.559   2.983   3.439  0.1722  0.5726  0.3328
 4994SOL    HW219742   2.568   2.950   3.350 -0.5959 -0.4209  0.6118
 4994SOL    HW319743   2.574   3.077   3.431 -0.4828  0.5918 -0.9387
 4994SOL    MW419744   2.563   2.991   3.426 -0.0156  0.4440  0.2018
 4995SOL     OW19745   4.550   3.003   0.599 -0.1450  0.2924 -0.4245
 4995SOL    HW219746   4.634   3.008   0.646 -0.7892  1.4486  0.6605
 4995SOL    HW319747   4.574   3.012   0.507  0.8324  2.4303 -0.0349
 4995SOL    MW419748   4.564   3.005   0.593 -0.1010  0.7270 -0.2300
 4996SOL     OW19749   0.129   0.608   3.422  0.5336  0.6297  0.1804
 4996SOL    HW219750   0.055   0.658   3.455 -0.4551 -1.1572  0.7933
 4996SOL    HW319751   0.120   0.522   3.463  1.9848 -0.1628 -1.0727
 4996SOL    MW419752   0.118   0.604   3.432  0.5946  0.2893  0.0959
 4997SOL     OW19753   1.335   1.076   0.137  0.6971  0.1198 -0.3229
 4997SOL    HW219754   1.429   1.066   0.123  0.2686 -0.9573 -3.0107
 4997SOL    HW319755   1.316   1.165   0.107  0.3600 -0.9560 -3.6579
 4997SOL    MW419756   1.345   1.087   0.131  0.5961 -0.1642 -1.1176
 4998SOL     OW19757   3.046   3.549   0.227 -0.2058 -0.2793  0.0751
 4998SOL    HW219758   3.113   3.597   0.275 -1.2520  1.3153  0.0431
 4998SOL    HW319759   2.967   3.557   0.281 -0.2758 -2.7065  0.4659
 4998SOL    MW419760   3.044   3.556   0.240 -0.3530 -0.3891  0.1225
 4999SOL     OW19761   2.776   0.353   5.630  0.4398 -0.0577  0.2540
 4999SOL    HW219762   2.850   0.305   5.594  0.6476  0.5853 -0.2036
 4999SOL    HW319763   2.761   0.314   5.716  1.0545 -0.4603  0.1833
 4999SOL    MW419764   2.784   0.342   5.636  0.5483 -0.0260  0.1843
 5000SOL     OW19765   4.331   2.584   4.717 -0.4909  0.0837 -0.3051
 5000SOL    HW219766   4.316   2.634   4.637 -0.5010 -0.2675 -0.5263
 5000SOL    HW319767   4.425   2.591   4.733 -0.2867 -0.7873 -0.9921
 5000SOL    MW419768   4.341   2.591   4.709 -0.4653 -0.0775 -0.4250
 5001SOL     OW19769   4.528   1.899   3.364  0.4872 -0.2189  0.0974
 5001SOL    HW219770   4.621   1.900   3.388  0.4335 -0.2545  0.3031
 5001SOL    HW319771   4.502   1.991   3.366  0.6917 -0.1314 -0.6370
 5001SOL    MW419772   4.537   1.912   3.367  0.5071 -0.2120  0.0276
 5002SOL     OW19773   1.627   5.604   0.254  0.2799  0.2106 -0.2945
 5002SOL    HW219774   1.669   5.643   0.177  1.4981 -0.7365 -0.1341
 5002SOL    HW319775   1.576   5.676   0.292  1.9095  1.4667 -0.3810
 5002SOL    MW419776   1.626   5.619   0.249  0.6556  0.2513 -0.2847
 5003SOL     OW19777   3.253   3.879   0.104 -0.7258 -0.1637 -0.5571
 5003SOL    HW219778   3.194   3.853   0.033 -1.2174 -0.9711  0.1272
 5003SOL    HW319779   3.212   3.844   0.183  1.0551 -1.4530 -0.1471
 5003SOL    MW419780   3.240   3.871   0.105 -0.5557 -0.4404 -0.4127
 5004SOL     OW19781   4.375   2.254   2.804 -0.0856  0.2785 -0.5088
 5004SOL    HW219782   4.330   2.283   2.724  0.4557  0.4627 -0.7467
 5004SOL    HW319783   4.325   2.177   2.832 -0.7887  0.7042 -0.5565
 5004SOL    MW419784   4.362   2.247   2.797 -0.1070  0.3590 -0.5465
 5005SOL     OW19785   3.239   2.234   6.048 -0.6603  0.0355  0.0828
 5005SOL    HW219786   3.291   2.282   5.984 -2.0342  1.0591 -0.3067
 5005SOL    HW319787   3.256   2.278   6.131  0.0645 -0.4443  0.2021
 5005SOL    MW419788   3.248   2.246   6.051 -0.7460  0.1073  0.0472
 5006SOL     OW19789   3.969   1.107   4.515  0.0706  0.2790  0.0012
 5006SOL    HW219790   4.039   1.090   4.453  0.1675 -1.0659  0.4468
 5006SOL    HW319791   3.973   1.202   4.530  1.9154  0.2177  0.1553
 5006SOL    MW419792   3.979   1.118   4.509  0.3268  0.0934  0.0803
 5007SOL     OW19793   2.100   3.682   4.618  0.4500 -0.5654 -1.0746
 5007SOL    HW219794   2.160   3.611   4.642  0.3208 -0.7552 -1.3109
 5007SOL    HW319795   2.058   3.706   4.700 -0.2061 -1.4147 -1.1508
 5007SOL    MW419796   2.102   3.676   4.632  0.3464 -0.7025 -1.1158
 5008SOL     OW19797   2.841   3.130   0.473  0.0281 -0.7076 -0.0649
 5008SOL    HW219798   2.748   3.123   0.451 -0.1836  0.0833  0.5101
 5008SOL    HW319799   2.885   3.075   0.408 -0.7572 -0.3219 -0.9640
 5008SOL    MW419800   2.834   3.122   0.461 -0.1034 -0.5523 -0.1077
 5009SOL     OW19801   0.637   2.725   2.532  0.7642 -0.5645  0.5300
 5009SOL    HW219802   0.676   2.752   2.448  0.6055 -0.5156  0.4712
 5009SOL    HW319803   0.652   2.630   2.535 -1.1876 -0.9599 -0.6076
 5009SOL    MW419804   0.644   2.716   2.521  0.4858 -0.6102  0.3721
 5010SOL     OW19805   5.647   3.967   1.664 -0.8526 -0.4875  0.4949
 5010SOL    HW219806   5.626   3.874   1.671 -0.1420 -0.6024  1.1131
 5010SOL    HW319807   5.572   4.011   1.703 -1.0195 -0.8127  0.5449
 5010SOL    MW419808   5.634   3.960   1.670 -0.7809 -0.5455  0.5831
 5011SOL     OW19809   5.270   0.427   6.060 -0.4047 -0.4601  0.2985
 5011SOL    HW219810   5.265   0.337   6.026 -0.2913 -0.4466  0.2453
 5011SOL    HW319811   5.244   0.482   5.985  0.7200 -0.3755 -0.0466
 5011SOL    MW419812   5.266   0.422   6.045 -0.2414 -0.4472  0.2459
 5012SOL     OW19813   0.839   4.653   4.472 -0.3162 -0.1203 -0.4584
 5012SOL    HW219814   0.831   4.560   4.451 -0.0856 -0.1581 -0.3868
 5012SOL    HW319815   0.825   4.698   4.389 -0.6738 -0.2054 -0.4463
 5012SOL    MW419816   0.836   4.647   4.459 -0.3330 -0.1365 -0.4474
 5013SOL     OW19817   5.337   4.374   1.416  0.5672  0.5743  0.2268
 5013SOL    HW219818   5.325   4.436   1.488 -0.0772  0.0174  0.6112
 5013SOL    HW319819   5.250   4.337   1.401  0.1279  2.3623 -2.4036
 5013SOL    MW419820   5.324   4.377   1.423  0.4242  0.7367 -0.0695
 5014SOL     OW19821   5.411   5.634   4.674 -0.2934 -0.2930  0.4629
 5014SOL    HW219822   5.482   5.592   4.722  1.3187  1.9480  0.2422
 5014SOL    HW319823   5.359   5.677   4.742  0.6393  0.9317  0.4576
 5014SOL    MW419824   5.414   5.634   4.689  0.0424  0.1642  0.4331
 5015SOL     OW19825   5.167   1.346   4.590  0.0743  0.3060  0.4849
 5015SOL    HW219826   5.116   1.339   4.509  1.3070  1.0719 -0.3898
 5015SOL    HW319827   5.252   1.308   4.569 -0.3742 -1.9143  2.2313
 5015SOL    MW419828   5.171   1.340   4.577  0.1778  0.1141  0.5999
 5016SOL     OW19829   0.212   2.263   2.441 -0.4164 -0.0486  0.1179
 5016SOL    HW219830   0.261   2.185   2.467  1.1663  0.2636 -1.6849
 5016SOL    HW319831   0.120   2.238   2.448  0.0353 -2.5117 -1.6071
 5016SOL    MW419832   0.207   2.250   2.445 -0.1480 -0.3323 -0.3476
 5017SOL     OW19833   0.293   5.750   4.281  0.0361 -0.0896  0.1533
 5017SOL    HW219834   0.280   5.672   4.226  2.0522 -0.1328 -0.3402
 5017SOL    HW319835   0.290   5.717   4.370 -0.1235 -0.5674 -0.0229
 5017SOL    MW419836   0.291   5.735   4.285  0.2810 -0.1583  0.0650
 5018SOL     OW19837   3.616   0.879   0.408  0.4089  0.0299  0.7190
 5018SOL    HW219838   3.659   0.896   0.491 -2.6434  0.1218  2.4047
 5018SOL    HW319839   3.624   0.784   0.397  1.1673  0.0650  0.8664
 5018SOL    MW419840   3.623   0.868   0.417  0.1062  0.0467  0.9608
 5019SOL     OW19841   1.622   6.239   5.411  0.1907 -0.0977  0.1617
 5019SOL    HW219842   1.605   6.149   5.386 -0.2487  0.2411 -0.8271
 5019SOL    HW319843   1.658   6.280   5.332 -1.1456  0.9972  0.0801
 5019SOL    MW419844   1.625   6.233   5.397 -0.0436  0.0915  0.0205
 5020SOL     OW19845   2.887   3.165   2.357  0.7167 -0.1584 -0.3177
 5020SOL    HW219846   2.931   3.107   2.294 -0.6345 -1.4409 -0.1315
 5020SOL    HW319847   2.836   3.224   2.303  1.0908  0.0271 -0.4733
 5020SOL    MW419848   2.886   3.165   2.341  0.5878 -0.3031 -0.3137
 5021SOL     OW19849   4.495   1.108   6.175 -0.3171  0.1210 -0.8020
 5021SOL    HW219850   4.512   1.104   6.269 -1.9182  3.1694 -0.2558
 5021SOL    HW319851   4.581   1.096   6.135  0.6833  0.3604  1.1208
 5021SOL    MW419852   4.509   1.106   6.182 -0.3963  0.5548 -0.4763
 5022SOL     OW19853   1.759   4.835   2.350  0.0112  0.3594  0.0081
 5022SOL    HW219854   1.823   4.880   2.405  1.7829 -1.9961  0.0348
 5022SOL    HW319855   1.775   4.869   2.262  3.4308 -2.0815 -0.5336
 5022SOL    MW419856   1.770   4.845   2.345  0.6961 -0.2734 -0.0598
 5023SOL     OW19857   2.846   1.892   1.207 -0.5041 -0.4144 -0.2925
 5023SOL    HW219858   2.753   1.909   1.192 -0.7963 -1.1817  0.5864
 5023SOL    HW319859   2.849   1.804   1.243  0.4185  0.2316  1.3197
 5023SOL    MW419860   2.834   1.883   1.209 -0.4210 -0.4304  0.0362
 5024SOL     OW19861   0.287   1.363   4.573 -0.1846  0.2438 -0.2321
 5024SOL    HW219862   0.320   1.367   4.662  0.5978  0.1915 -0.5099
 5024SOL    HW319863   0.366   1.362   4.518 -0.6482 -0.0069 -0.9098
 5024SOL    MW419864   0.302   1.363   4.577 -0.1425  0.2038 -0.3582
 5025SOL     OW19865   1.550   0.726   3.447  0.0982  0.3841  0.3986
 5025SOL    HW219866   1.519   0.635   3.442 -2.4877  1.1170  1.3435
 5025SOL    HW319867   1.631   0.720   3.497  0.0317 -1.4163  0.3751
 5025SOL    MW419868   1.556   0.713   3.453 -0.2517  0.2433  0.5202
 5026SOL     OW19869   3.173   5.063   2.861  0.4176  0.6971  0.1274
 5026SOL    HW219870   3.190   5.150   2.899  1.3748  1.7393 -2.4861
 5026SOL    HW319871   3.082   5.066   2.834  0.9659  1.7333 -1.7988
 5026SOL    MW419872   3.164   5.075   2.863  0.6162  0.9713 -0.4716
 5027SOL     OW19873   0.835   1.607   5.838  0.1464  0.0690 -0.1991
 5027SOL    HW219874   0.755   1.605   5.891 -0.9332  0.8189 -1.7022
 5027SOL    HW319875   0.855   1.700   5.829  0.5876 -0.0711 -0.6979
 5027SOL    MW419876   0.827   1.619   5.844  0.0622  0.1495 -0.4632
 5028SOL     OW19877   1.579   0.385   0.068 -0.4434 -0.3051  0.2399
 5028SOL    HW219878   1.657   0.434   0.041 -2.3857  2.4460 -0.8255
 5028SOL    HW319879   1.569   0.406   0.161 -0.0556 -0.4583  0.3177
 5028SOL    MW419880   1.588   0.394   0.076 -0.6485  0.0377  0.1096
 5029SOL     OW19881   0.805   3.348   5.013 -0.1818  0.1756  0.0411
 5029SOL    HW219882   0.815   3.252   5.016 -1.2585  0.0387 -0.3107
 5029SOL    HW319883   0.735   3.366   5.077 -0.0256  0.7227  0.0569
 5029SOL    MW419884   0.797   3.337   5.022 -0.3032  0.2297 -0.0032
 5030SOL     OW19885   2.704   4.705   6.364 -0.0116  0.3185 -0.0777
 5030SOL    HW219886   2.711   4.767   6.436 -0.0661  0.0447  0.1658
 5030SOL    HW319887   2.792   4.669   6.354  0.7342  2.4819 -2.0843
 5030SOL    MW419888   2.716   4.708   6.372  0.0796  0.5678 -0.3103
 5031SOL     OW19889   0.908   3.720   5.041  0.0614  0.4994 -0.0990
 5031SOL    HW219890   0.985   3.776   5.044 -0.0220  0.6061  0.0303
 5031SOL    HW319891   0.837   3.777   5.013 -0.0883  0.5318  0.3374
 5031SOL    MW419892   0.909   3.735   5.038  0.0306  0.5177 -0.0244
 5032SOL     OW19893   1.823   3.645   2.383 -0.6196  0.1499 -0.0863
 5032SOL    HW219894   1.763   3.614   2.452 -0.9347 -1.1219 -0.8885
 5032SOL    HW319895   1.828   3.571   2.322  1.4537  0.3922 -0.2574
 5032SOL    MW419896   1.815   3.631   2.384 -0.3876  0.0141 -0.2147
 5033SOL     OW19897   2.525   1.003   5.233 -0.2532  0.3831  0.5822
 5033SOL    HW219898   2.508   1.054   5.154  0.2588 -1.1470 -0.5452
 5033SOL    HW319899   2.540   0.914   5.202  0.1795 -0.2120  2.3855
 5033SOL    MW419900   2.525   0.998   5.219 -0.1286  0.1027  0.6714
 5034SOL     OW19901   5.556   2.197   4.469  0.5745  0.4803  0.5541
 5034SOL    HW219902   5.553   2.125   4.531  0.1715 -0.5448 -0.6176
 5034SOL    HW319903   5.484   2.254   4.495  1.0531  0.6219  1.6400
 5034SOL    MW419904   5.546   2.195   4.480  0.5845  0.3637  0.5428
 5035SOL     OW19905   4.698   1.213   0.627 -0.1630 -0.0224 -0.1263
 5035SOL    HW219906   4.615   1.244   0.590 -0.2737  0.4304  0.4947
 5035SOL    HW319907   4.737   1.290   0.668  1.0439  0.0101 -1.2462
 5035SOL    MW419908   4.692   1.227   0.628 -0.0183  0.0416 -0.1921
 5036SOL     OW19909   5.810   1.776   4.155  0.1136  0.2967  0.3122
 5036SOL    HW219910   5.758   1.731   4.088 -1.1589  1.3391  0.5581
 5036SOL    HW319911   5.789   1.869   4.143  0.9127  0.6216  1.2862
 5036SOL    MW419912   5.800   1.783   4.144  0.0511  0.4771  0.4732
 5037SOL     OW19913   3.871   1.282   1.615 -0.4086  0.1688 -0.0072
 5037SOL    HW219914   3.814   1.353   1.644  1.5773  1.7695  0.2588
 5037SOL    HW319915   3.899   1.308   1.527 -0.3412 -0.7386 -0.2638
 5037SOL    MW419916   3.867   1.295   1.607 -0.1377  0.2603 -0.0060
 5038SOL     OW19917   5.711   5.757   0.766 -0.0790  0.3413 -0.1017
 5038SOL    HW219918   5.672   5.827   0.714 -0.3947  0.6483  0.5420
 5038SOL    HW319919   5.636   5.709   0.801  0.1316  0.2082  0.1652
 5038SOL    MW419920   5.696   5.760   0.764 -0.0929  0.3643  0.0184
 5039SOL     OW19921   5.779   4.417   2.043  0.0194 -0.1624 -0.1986
 5039SOL    HW219922   5.792   4.511   2.030  1.1820 -0.4155 -1.0722
 5039SOL    HW319923   5.753   4.384   1.957  0.2623 -0.7346 -0.0569
 5039SOL    MW419924   5.778   4.425   2.030  0.2048 -0.2713 -0.2952
 5040SOL     OW19925   2.577   6.110   5.756  0.3576 -0.0823  0.0970
 5040SOL    HW219926   2.494   6.153   5.776  0.3369  0.0089 -0.1852
 5040SOL    HW319927   2.573   6.092   5.662  1.0249  0.7261 -0.1032
 5040SOL    MW419928   2.566   6.113   5.746  0.4430  0.0364  0.0333
 5041SOL     OW19929   0.869   2.966   5.548  0.0605  0.2787 -0.4505
 5041SOL    HW219930   0.862   2.944   5.455 -0.0354  2.5860 -1.0454
 5041SOL    HW319931   0.800   3.031   5.562 -0.0807 -0.2039  1.3221
 5041SOL    MW419932   0.859   2.972   5.538  0.0292  0.5194 -0.2951
 5042SOL     OW19933   5.860   1.127   4.464  0.0185 -0.4575  0.2726
 5042SOL    HW219934   5.908   1.070   4.404  2.7174 -0.2658  2.0621
 5042SOL    HW319935   5.833   1.070   4.536 -0.7799 -0.1705  0.2177
 5042SOL    MW419936   5.863   1.112   4.465  0.2692 -0.3943  0.5015
 5043SOL     OW19937   1.248   5.126   3.039 -0.3811 -0.3306  0.0633
 5043SOL    HW219938   1.326   5.155   3.086  0.2139  0.2147 -1.2208
 5043SOL    HW319939   1.187   5.199   3.047  0.0451  0.1292 -0.7141
 5043SOL    MW419940   1.250   5.140   3.046 -0.2464 -0.1980 -0.2087
 5044SOL     OW19941   3.399   5.403   4.354  0.2235  0.3158  1.2848
 5044SOL    HW219942   3.452   5.483   4.351 -0.9696  1.1247  1.0295
 5044SOL    HW319943   3.401   5.369   4.265  0.0023  0.5642  1.1831
 5044SOL    MW419944   3.407   5.409   4.342  0.0369  0.4553  1.2377
 5045SOL     OW19945   2.923   0.348   2.785  0.3194 -0.3044  0.4376
 5045SOL    HW219946   3.011   0.331   2.750  0.3014  0.1741  0.1560
 5045SOL    HW319947   2.919   0.444   2.794 -0.6801 -0.2130 -0.8812
 5045SOL    MW419948   2.934   0.359   2.782  0.1851 -0.2292  0.2264
 5046SOL     OW19949   4.956   5.619   3.574 -0.7880  0.3480 -0.2322
 5046SOL    HW219950   5.037   5.668   3.558 -0.5177 -0.4687 -1.5163
 5046SOL    HW319951   4.979   5.528   3.557 -2.3800  0.2680 -2.3695
 5046SOL    MW419952   4.970   5.613   3.570 -0.9624  0.2297 -0.6836
 5047SOL     OW19953   0.358   3.028   3.591  0.4277  0.1709 -0.0683
 5047SOL    HW219954   0.331   2.985   3.673 -0.2869 -2.7805 -1.7109
 5047SOL    HW319955   0.449   3.053   3.607  0.0957  0.3826  1.8496
 5047SOL    MW419956   0.367   3.026   3.604  0.2896 -0.1906 -0.0320
 5048SOL     OW19957   2.954   3.514   2.571  0.1920  0.2582 -0.3687
 5048SOL    HW219958   2.968   3.419   2.576  3.7404  0.6645  0.3611
 5048SOL    HW319959   2.907   3.535   2.652 -0.6815 -0.8460 -0.5644
 5048SOL    MW419960   2.950   3.504   2.583  0.5449  0.1661 -0.2982
 5049SOL     OW19961   2.644   2.867   2.335  0.0638 -0.7287 -0.1558
 5049SOL    HW219962   2.586   2.798   2.304  0.5438 -1.0638 -0.3109
 5049SOL    HW319963   2.594   2.948   2.322 -0.7677 -1.0916  0.6487
 5049SOL    MW419964   2.629   2.869   2.329  0.0174 -0.8208 -0.0701
 5050SOL     OW19965   2.802   0.286   3.056 -0.0421  0.0397  0.2881
 5050SOL    HW219966   2.845   0.304   2.972  0.6518 -1.4138  0.3137
 5050SOL    HW319967   2.708   0.292   3.036 -0.0464 -3.3959 -1.4077
 5050SOL    MW419968   2.795   0.289   3.042  0.0489 -0.6053  0.0678
 5051SOL     OW19969   2.696   3.145   2.841 -0.2737  0.1361 -0.2352
 5051SOL    HW219970   2.786   3.140   2.874 -0.5340  2.0810  0.8868
 5051SOL    HW319971   2.691   3.075   2.775  1.1747 -1.8999  1.6650
 5051SOL    MW419972   2.707   3.135   2.837 -0.1170  0.1240  0.1635
 5052SOL     OW19973   5.016   1.143   5.326 -0.0417  0.1739 -0.1073
 5052SOL    HW219974   4.947   1.146   5.393  0.4379  1.4233  0.3622
 5052SOL    HW319975   4.977   1.184   5.249  0.3320  1.4472  0.3468
 5052SOL    MW419976   5.002   1.149   5.325  0.0709  0.5067  0.0146
 5053SOL     OW19977   1.283   1.054   3.347  0.2471 -0.2841 -0.3981
 5053SOL    HW219978   1.317   1.125   3.401 -1.9019  1.5371 -1.3150
 5053SOL    HW319979   1.338   1.055   3.269 -0.2765  0.9872 -0.7780
 5053SOL    MW419980   1.295   1.063   3.344 -0.1055  0.1239 -0.5692
 5054SOL     OW19981   6.318   0.041   6.146  0.8988  0.3536  0.0468
 5054SOL    HW219982   6.300   0.087   6.063  1.3152 -0.5010 -0.5267
 5054SOL    HW319983   6.267  -0.040   6.140  1.1816  0.1378  0.4950
 5054SOL    MW419984   6.309   0.037   6.134  0.9911  0.2124  0.0302
 5055SOL     OW19985   1.452   3.358   2.286  0.3765  0.0081  0.5199
 5055SOL    HW219986   1.387   3.338   2.353  0.9244 -2.4187  0.4234
 5055SOL    HW319987   1.534   3.323   2.320  1.0213  0.3389 -0.6298
 5055SOL    MW419988   1.454   3.351   2.299  0.5339 -0.2684  0.3555
 5056SOL     OW19989   1.504   3.288   5.853  0.5722  0.3508  0.2307
 5056SOL    HW219990   1.519   3.268   5.946  0.8538  2.4296  0.6909
 5056SOL    HW319991   1.592   3.293   5.816  0.5218  0.7781  0.1621
 5056SOL    MW419992   1.518   3.286   5.860  0.6027  0.6814  0.2824
 5057SOL     OW19993   4.718   4.975   0.588  0.2853 -0.4599 -0.0539
 5057SOL    HW219994   4.662   4.968   0.665 -1.3213 -1.2651 -1.2393
 5057SOL    HW319995   4.732   4.885   0.560  0.0913 -0.1584 -1.1981
 5057SOL    MW419996   4.712   4.962   0.594  0.0477 -0.5263 -0.3613
 5058SOL     OW19997   4.701   0.595   1.207  0.0179 -0.1198  0.6857
 5058SOL    HW219998   4.765   0.569   1.141 -1.2640 -1.1824 -0.1695
 5058SOL    HW319999   4.728   0.549   1.286 -0.6363 -1.9338 -0.1087
 5058SOL    MW420000   4.713   0.586   1.209 -0.2375 -0.4993  0.4680
 5059SOL     OW20001   2.035   1.433   3.889 -0.1272  0.1370 -0.2028
 5059SOL    HW220002   2.077   1.518   3.877 -0.0712  0.2029  0.4320
 5059SOL    HW320003   2.014   1.429   3.982  0.6660 -0.9105 -0.0527
 5059SOL    MW420004   2.037   1.444   3.899 -0.0151  0.0075 -0.0993
 5060SOL     OW20005   4.875   3.401   5.957  0.0983  0.1814  0.0338
 5060SOL    HW220006   4.950   3.361   5.913  1.2268  0.3862  1.6503
 5060SOL    HW320007   4.827   3.445   5.888  0.4381 -1.4984 -1.3475
 5060SOL    MW420008   4.879   3.401   5.942  0.2920 -0.0132  0.0648
 5061SOL     OW20009   4.036   5.336   6.394  0.6462 -0.1172  1.1119
 5061SOL    HW220010   4.043   5.375   6.482 -2.7491  0.8773  1.0805
 5061SOL    HW320011   4.040   5.242   6.410  1.3112  0.0757  2.1919
 5061SOL    MW420012   4.037   5.329   6.408  0.2860  0.0395  1.2502
 5062SOL     OW20013   4.981   5.416   0.951 -0.0268 -0.0811  0.2211
 5062SOL    HW220014   5.067   5.449   0.978 -1.3446  1.0722  3.5055
 5062SOL    HW320015   4.955   5.356   1.021 -2.3350  0.4369 -0.1005
 5062SOL    MW420016   4.989   5.412   0.964 -0.5052  0.1394  0.6120
 5063SOL     OW20017   0.997   3.877   3.562 -0.5223 -0.2409 -0.1825
 5063SOL    HW220018   0.960   3.789   3.569  0.0396 -0.5815 -1.1805
 5063SOL    HW320019   1.087   3.862   3.533 -0.6784  0.6953 -1.2031
 5063SOL    MW420020   1.004   3.863   3.559 -0.4687 -0.1623 -0.4489
 5064SOL     OW20021   2.490   5.985   4.491 -0.3824  0.2510 -0.3938
 5064SOL    HW220022   2.505   6.067   4.537 -2.5022  0.8838 -0.7674
 5064SOL    HW320023   2.474   5.921   4.560 -1.9170  0.8493 -0.1711
 5064SOL    MW420024   2.490   5.987   4.506 -0.8645  0.4134 -0.4137
 5065SOL     OW20025   6.022   5.061   5.993  0.2367 -0.0325  0.2873
 5065SOL    HW220026   5.951   5.019   5.945  0.9161  0.0458 -0.8406
 5065SOL    HW320027   6.009   5.154   5.977  0.4477 -0.0029  0.2875
 5065SOL    MW420028   6.011   5.068   5.984  0.3542 -0.0182  0.1385
 5066SOL     OW20029   4.266   5.535   0.624  0.3920  0.6839 -0.0967
 5066SOL    HW220030   4.286   5.555   0.715  1.8608  0.8670 -0.4420
 5066SOL    HW320031   4.237   5.444   0.625  1.3848  0.3575  0.4412
 5066SOL    MW420032   4.265   5.526   0.636  0.7168  0.6650 -0.0713
 5067SOL     OW20033   1.032   3.875   1.842  0.5103  0.2596  0.5081
 5067SOL    HW220034   1.089   3.947   1.868 -0.0825  0.8809  0.0916
 5067SOL    HW320035   1.063   3.800   1.894  1.5031  0.6619  0.5073
 5067SOL    MW420036   1.044   3.874   1.852  0.5631  0.3947  0.4530
 5068SOL     OW20037   1.364   5.019   0.147  0.0298 -0.4813 -0.0192
 5068SOL    HW220038   1.273   5.044   0.129  0.0412 -0.2402  0.2600
 5068SOL    HW320039   1.365   4.999   0.241 -0.6017 -4.0202 -0.6037
 5068SOL    MW420040   1.352   5.019   0.157 -0.0520 -0.9164 -0.0595
 5069SOL     OW20041   5.381   0.797   3.890  0.6562  0.1793 -0.3739
 5069SOL    HW220042   5.420   0.854   3.956 -0.5499  0.7944 -0.1782
 5069SOL    HW320043   5.327   0.855   3.837  0.8063 -0.4902 -1.2785
 5069SOL    MW420044   5.379   0.812   3.892  0.5169  0.1721 -0.4674
 5070SOL     OW20045   5.848   3.075   1.360 -0.3121  0.1018  0.5520
 5070SOL    HW220046   5.837   2.982   1.342  2.4551 -0.2980  0.3785
 5070SOL    HW320047   5.874   3.113   1.276 -0.8066  0.9080  0.7568
 5070SOL    MW420048   5.850   3.068   1.347 -0.0123  0.1554  0.5561
 5071SOL     OW20049   0.245   2.282   1.687  0.1743  0.6993 -0.1245
 5071SOL    HW220050   0.306   2.318   1.622  1.5230 -0.4452  0.4492
 5071SOL    HW320051   0.261   2.187   1.684 -0.5011  0.5297  1.1278
 5071SOL    MW420052   0.255   2.274   1.678  0.2631  0.5259  0.1164
 5072SOL     OW20053   4.952   2.917   4.937 -0.0424 -0.5044 -0.3034
 5072SOL    HW220054   5.044   2.905   4.962  0.0293  0.1283 -0.2432
 5072SOL    HW320055   4.905   2.919   5.020  0.1481  1.2078 -0.2090
 5072SOL    MW420056   4.958   2.915   4.951 -0.0078 -0.1950 -0.2830
 5073SOL     OW20057   0.375   0.268   0.451  0.0718 -0.2334 -1.1858
 5073SOL    HW220058   0.299   0.212   0.463  0.4083 -0.4492  0.0749
 5073SOL    HW320059   0.416   0.236   0.370  1.3431 -3.1385  0.4558
 5073SOL    MW420060   0.371   0.256   0.442  0.2839 -0.6451 -0.8029
 5074SOL     OW20061   0.940   2.138   4.165  0.4036  0.2652 -0.0209
 5074SOL    HW220062   0.929   2.043   4.164 -3.6209  0.5515 -1.7823
 5074SOL    HW320063   0.931   2.162   4.257  0.7217 -0.9866  0.3554
 5074SOL    MW420064   0.937   2.128   4.177 -0.0854  0.1378 -0.2037
 5075SOL     OW20065   5.587   6.168   1.339  0.3171  0.0293 -0.2528
 5075SOL    HW220066   5.532   6.089   1.340  1.3575 -0.7235  0.1893
 5075SOL    HW320067   5.630   6.168   1.425  1.1597  0.4670 -0.6570
 5075SOL    MW420068   5.586   6.157   1.351  0.5656 -0.0123 -0.2478
 5076SOL     OW20069   2.823   1.507   0.206  0.8215  0.0308 -0.0883
 5076SOL    HW220070   2.759   1.437   0.193 -0.8849  1.4319  0.4232
 5076SOL    HW320071   2.857   1.526   0.119  1.2295 -1.3392 -0.2432
 5076SOL    MW420072   2.819   1.500   0.193  0.6502  0.0349 -0.0412
 5077SOL     OW20073   0.082   4.228   1.316 -0.0086 -0.2746 -0.5484
 5077SOL    HW220074   0.104   4.283   1.241 -0.3729  0.9507  0.2146
 5077SOL    HW320075   0.131   4.266   1.389 -1.2808 -0.1350  0.2689
 5077SOL    MW420076   0.091   4.240   1.316 -0.2245 -0.0945 -0.3399
 5078SOL     OW20077   2.363   6.308   3.479 -0.2067 -0.6067  0.0021
 5078SOL    HW220078   2.425   6.244   3.443  0.3622 -0.7147  1.1482
 5078SOL    HW320079   2.395   6.326   3.567 -1.1067  0.2842  0.1634
 5078SOL    MW420080   2.375   6.302   3.486 -0.2504 -0.5034  0.1746
 5079SOL     OW20081   1.269   5.133   4.762  0.0521  0.0805  0.6009
 5079SOL    HW220082   1.209   5.081   4.709  0.4968 -0.2089  0.3756
 5079SOL    HW320083   1.241   5.223   4.748  1.6435  0.2649 -2.0828
 5079SOL    MW420084   1.257   5.138   4.753  0.3207  0.0666  0.2171
 5080SOL     OW20085   2.057   0.992   5.856  0.0319  0.0374 -0.3385
 5080SOL    HW220086   1.972   0.948   5.864  0.5254 -0.7443  1.2565
 5080SOL    HW320087   2.036   1.085   5.850 -0.9762 -0.2437 -1.7146
 5080SOL    MW420088   2.043   0.998   5.856 -0.0360 -0.1028 -0.3096
 5081SOL     OW20089   5.066   4.776   2.969 -0.4877 -0.0758 -0.2937
 5081SOL    HW220090   5.027   4.694   2.941 -0.8794  0.6141 -1.8987
 5081SOL    HW320091   5.005   4.810   3.035 -0.6256 -0.7805 -0.0502
 5081SOL    MW420092   5.053   4.770   2.974 -0.5576 -0.0778 -0.4733
 5082SOL     OW20093   4.642   5.212   4.947 -0.2658  0.0549  0.2592
 5082SOL    HW220094   4.633   5.240   4.856 -0.4638  0.1588  0.3102
 5082SOL    HW320095   4.556   5.228   4.986 -0.2526 -0.2112  0.4037
 5082SOL    MW420096   4.629   5.217   4.940 -0.2902  0.0335  0.2850
 5083SOL     OW20097   2.757   2.218   2.424 -0.7800 -0.1830  0.0527
 5083SOL    HW220098   2.805   2.292   2.388 -2.2573  1.1773  0.7555
 5083SOL    HW320099   2.813   2.184   2.494 -0.1277  0.2982 -0.2275
 5083SOL    MW420100   2.771   2.223   2.428 -0.8888  0.0599  0.1085
 5084SOL     OW20101   3.167   2.080   2.346 -0.0054  0.1965  0.4918
 5084SOL    HW220102   3.236   2.015   2.328 -0.8313 -0.7602  0.6806
 5084SOL    HW320103   3.183   2.149   2.282 -0.4256 -1.2281 -1.2404
 5084SOL    MW420104   3.178   2.080   2.335 -0.1698 -0.1177  0.2882
 5085SOL     OW20105   4.442   1.534   2.900 -0.1342 -0.2379 -0.1140
 5085SOL    HW220106   4.492   1.500   2.974 -1.2354 -0.9779  0.3064
 5085SOL    HW320107   4.476   1.486   2.824 -0.9754 -1.6120  0.3338
 5085SOL    MW420108   4.453   1.523   2.899 -0.3905 -0.5168  0.0006
 5086SOL     OW20109   5.997   5.407   2.310  0.5407 -0.7185  0.6449
 5086SOL    HW220110   5.945   5.476   2.351 -0.0715 -0.1909 -0.9333
 5086SOL    HW320111   6.063   5.454   2.258  0.6911 -1.3383  0.2558
 5086SOL    MW420112   5.999   5.422   2.308  0.4798 -0.7306  0.3853
 5087SOL     OW20113   1.865   5.849   1.121  1.1230  0.7783  0.1285
 5087SOL    HW220114   1.868   5.868   1.028  0.7073  0.5374  0.0602
 5087SOL    HW320115   1.787   5.793   1.131  1.1300  0.8529  0.6233
 5087SOL    MW420116   1.855   5.844   1.110  1.0690  0.7563  0.1848
 5088SOL     OW20117   2.180   1.992   6.289 -0.3134  0.2490  0.0679
 5088SOL    HW220118   2.249   2.051   6.319  2.3727 -2.3120 -0.5177
 5088SOL    HW320119   2.204   1.970   6.199 -2.8156  0.4198 -0.7108
 5088SOL    MW420120   2.192   1.997   6.281 -0.2891 -0.0664 -0.1121
 5089SOL     OW20121   3.165   2.962   3.199 -0.0900 -0.3228  0.1594
 5089SOL    HW220122   3.188   3.006   3.117 -0.4728  0.0881  0.2637
 5089SOL    HW320123   3.182   2.870   3.183 -0.5740 -0.3011 -0.5413
 5089SOL    MW420124   3.170   2.956   3.186 -0.2044 -0.2657  0.0807
 5090SOL     OW20125   0.035   2.243   1.888  0.3281 -0.0234  0.2518
 5090SOL    HW220126  -0.017   2.208   1.815 -0.0782 -0.8033  0.9021
 5090SOL    HW320127   0.125   2.241   1.857  0.1033  0.1414 -0.4242
 5090SOL    MW420128   0.040   2.238   1.874  0.2448 -0.1045  0.2484
 5091SOL     OW20129   0.811   5.496   1.363 -0.0077 -0.5285  0.1761
 5091SOL    HW220130   0.876   5.535   1.304 -0.2957  0.7199  0.6418
 5091SOL    HW320131   0.728   5.539   1.339 -0.2210 -0.3777  1.1331
 5091SOL    MW420132   0.808   5.507   1.352 -0.0738 -0.3439  0.3638
 5092SOL     OW20133   3.466   5.628   6.297 -0.1508  0.3322 -0.2614
 5092SOL    HW220134   3.465   5.710   6.248 -1.1098 -0.7038 -2.0810
 5092SOL    HW320135   3.544   5.633   6.351 -0.4070  2.6123  0.0001
 5092SOL    MW420136   3.476   5.640   6.298 -0.3112  0.4963 -0.4669
 5093SOL     OW20137   4.772   5.335   3.752  0.1046 -0.2644  0.4300
 5093SOL    HW220138   4.773   5.428   3.777  0.1780 -0.1993  0.1865
 5093SOL    HW320139   4.744   5.335   3.661 -0.7514 -0.5454  0.6862
 5093SOL    MW420140   4.768   5.347   3.744  0.0014 -0.2929  0.4317
 5094SOL     OW20141   0.992   5.129   2.482  0.4967  0.1916  0.4015
 5094SOL    HW220142   0.976   5.155   2.391  2.0953  0.5305  0.1883
 5094SOL    HW320143   1.018   5.209   2.526  1.2236 -0.2386  0.7809
 5094SOL    MW420144   0.994   5.143   2.476  0.8035  0.1795  0.4235
 5095SOL     OW20145   4.867   2.745   4.317 -0.7237  0.2029 -0.8437
 5095SOL    HW220146   4.807   2.708   4.251 -0.0306 -1.3292 -0.6684
 5095SOL    HW320147   4.812   2.803   4.369 -1.6683  0.1375 -1.7296
 5095SOL    MW420148   4.851   2.748   4.315 -0.7569 -0.0078 -0.9374
 5096SOL     OW20149   2.265   3.302   0.650  0.2697 -0.1631  0.5088
 5096SOL    HW220150   2.329   3.372   0.652  0.7356 -0.5951  0.8828
 5096SOL    HW320151   2.306   3.233   0.597 -0.1641 -0.1740  0.1811
 5096SOL    MW420152   2.279   3.302   0.643  0.2739 -0.2216  0.5149
 5097SOL     OW20153   0.674   5.653   0.279 -0.1838  0.3157  0.0344
 5097SOL    HW220154   0.729   5.610   0.345 -0.0258  1.1376  0.4429
 5097SOL    HW320155   0.735   5.688   0.215 -0.0567  2.8933  1.4685
 5097SOL    MW420156   0.689   5.652   0.279 -0.1462  0.7642  0.2775
 5098SOL     OW20157   5.644   2.050   3.436 -0.1700  0.3729  0.1869
 5098SOL    HW220158   5.679   1.989   3.501  0.6548  0.4576 -0.1624
 5098SOL    HW320159   5.720   2.104   3.411 -0.6263  0.7701 -0.3617
 5098SOL    MW420160   5.659   2.049   3.441 -0.1214  0.4365  0.0685
 5099SOL     OW20161   5.398   4.152   0.025 -0.1029  0.1205  0.0479
 5099SOL    HW220162   5.447   4.152   0.107 -2.1624  0.9407  1.3661
 5099SOL    HW320163   5.405   4.241  -0.008 -2.1055  0.7763  1.2162
 5099SOL    MW420164   5.405   4.164   0.031 -0.6389  0.3153  0.3760
 5100SOL     OW20165   5.485   6.020   4.589  0.2772  0.4332 -0.7640
 5100SOL    HW220166   5.517   6.109   4.602 -0.4086  0.5127  0.5733
 5100SOL    HW320167   5.392   6.032   4.567  0.5526  0.1094 -2.1419
 5100SOL    MW420168   5.477   6.033   4.588  0.2231  0.4010 -0.7693
 5101SOL     OW20169   0.799   4.822   5.153 -0.0889  0.4244  0.4324
 5101SOL    HW220170   0.708   4.825   5.123 -0.2256 -1.8630  0.4319
 5101SOL    HW320171   0.795   4.780   5.239  0.9382  0.5287  0.5421
 5101SOL    MW420172   0.786   4.817   5.160  0.0286  0.1363  0.4468
 5102SOL     OW20173   2.985   1.210   0.280  0.3698 -0.6606 -0.1413
 5102SOL    HW220174   3.047   1.166   0.337 -0.1418 -0.6920  0.4047
 5102SOL    HW320175   2.905   1.218   0.333  0.1232 -0.0227 -0.5957
 5102SOL    MW420176   2.982   1.206   0.294  0.2698 -0.5805 -0.1292
 5103SOL     OW20177   2.288   3.464   2.511 -0.0162 -0.0220  0.0075
 5103SOL    HW220178   2.285   3.380   2.464 -0.3849  0.5461 -1.0099
 5103SOL    HW320179   2.274   3.530   2.443  1.2126  0.9265  0.6469
 5103SOL    MW420180   2.286   3.462   2.495  0.0973  0.1781 -0.0424
 5104SOL     OW20181   2.844   1.685   3.615  1.2148  0.0863  0.1007
 5104SOL    HW220182   2.912   1.676   3.682  0.5875  0.5559  0.8254
 5104SOL    HW320183   2.764   1.699   3.665  0.7825  0.7718 -0.7660
 5104SOL    MW420184   2.843   1.685   3.631  1.0750  0.2387  0.0819
 5105SOL     OW20185   1.069   1.416   3.463  0.0717 -0.1559 -0.0990
 5105SOL    HW220186   1.143   1.362   3.491  0.1924  0.1125  0.1029
 5105SOL    HW320187   1.042   1.378   3.379  1.1633  0.4471 -0.7423
 5105SOL    MW420188   1.075   1.404   3.455  0.2317 -0.0409 -0.1573
 5106SOL     OW20189   0.616   0.194   5.876 -0.2507  0.1045 -0.1753
 5106SOL    HW220190   0.677   0.180   5.803 -2.4548 -2.1909 -1.7886
 5106SOL    HW320191   0.623   0.113   5.927 -1.6325 -0.0413 -0.1975
 5106SOL    MW420192   0.625   0.181   5.873 -0.7238 -0.2176 -0.3911
 5107SOL     OW20193   3.718   2.890   1.404  0.0457  0.2897  0.6287
 5107SOL    HW220194   3.689   2.873   1.315 -0.7668 -1.8977  1.2400
 5107SOL    HW320195   3.813   2.895   1.398  0.1522 -1.6415 -0.1525
 5107SOL    MW420196   3.726   2.888   1.392 -0.0474 -0.2537  0.6062
 5108SOL     OW20197   4.494   3.355   0.929  0.0148  0.4530 -0.1369
 5108SOL    HW220198   4.552   3.296   0.978 -0.4438  0.7772  0.8351
 5108SOL    HW320199   4.410   3.309   0.928  0.2171  0.0646 -1.3849
 5108SOL    MW420200   4.491   3.341   0.936 -0.0190  0.4445 -0.1733
 5109SOL     OW20201   1.750   3.303   5.695 -0.4792  0.1359 -0.2350
 5109SOL    HW220202   1.727   3.355   5.618  1.7311  0.4726 -0.7104
 5109SOL    HW320203   1.778   3.368   5.760 -1.9066 -0.1765  0.7523
 5109SOL    MW420204   1.750   3.319   5.694 -0.3759  0.1391 -0.1675
 5110SOL     OW20205   6.371   2.714   3.907  0.5232  0.5135 -0.3511
 5110SOL    HW220206   6.328   2.798   3.924  0.3362 -0.0368  2.3871
 5110SOL    HW320207   6.463   2.736   3.895  0.2517  1.2282 -1.2750
 5110SOL    MW420208   6.377   2.728   3.907  0.4627  0.5352 -0.1117
 5111SOL     OW20209   1.580   4.785   5.223 -0.5466  0.0198 -0.2232
 5111SOL    HW220210   1.528   4.830   5.290 -0.4560 -2.6648  1.8149
 5111SOL    HW320211   1.523   4.786   5.145 -2.2153  0.1564  0.9355
 5111SOL    MW420212   1.565   4.791   5.221 -0.7548 -0.3164  0.1986
 5112SOL     OW20213   5.294   1.859   3.367 -0.1273 -0.9564 -0.1166
 5112SOL    HW220214   5.356   1.915   3.320 -0.3348  0.5534  1.3226
 5112SOL    HW320215   5.241   1.920   3.418 -0.8975 -2.4264  0.8915
 5112SOL    MW420216   5.295   1.874   3.367 -0.2563 -0.9511  0.2063
 5113SOL     OW20217   5.529   6.069   5.682 -0.8336  0.0756  0.4378
 5113SOL    HW220218   5.511   6.127   5.756  1.2976  0.0793  1.0374
 5113SOL    HW320219   5.551   5.985   5.723  0.6389  0.1542 -0.1197
 5113SOL    MW420220   5.530   6.066   5.697 -0.3581  0.0864  0.4433
 5114SOL     OW20221   3.937   5.966   2.153 -0.4584  0.1488  0.9394
 5114SOL    HW220222   3.918   5.916   2.232 -0.1261 -1.5456  0.0031
 5114SOL    HW320223   3.992   6.038   2.183  0.2236 -0.8436  2.1601
 5114SOL    MW420224   3.942   5.969   2.167 -0.3246 -0.2057  0.9769
 5115SOL     OW20225   0.831   1.883   6.143 -0.1189  0.1542 -0.2687
 5115SOL    HW220226   0.879   1.923   6.216  0.3065  0.6814 -0.8305
 5115SOL    HW320227   0.857   1.791   6.147  0.9396  0.4223 -0.5444
 5115SOL    MW420228   0.841   1.876   6.153  0.0769  0.2591 -0.3792
 5116SOL     OW20229   2.573   1.295   4.981 -0.0571 -0.0682  0.5891
 5116SOL    HW220230   2.539   1.207   4.967  0.9387 -0.6643  1.7585
 5116SOL    HW320231   2.496   1.346   5.007 -1.0496 -0.0233 -2.1803
 5116SOL    MW420232   2.558   1.290   4.983 -0.0566 -0.1409  0.3780
 5117SOL     OW20233   0.979   3.086   5.767  0.5341 -1.2680 -0.5461
 5117SOL    HW220234   1.044   3.150   5.739 -0.7097  0.1593 -0.2903
 5117SOL    HW320235   0.965   3.031   5.689  0.8528 -0.5719 -1.1056
 5117SOL    MW420236   0.986   3.087   5.753  0.4120 -0.9878 -0.5862
 5118SOL     OW20237   5.058   6.412   2.515  0.1641  0.0388  0.8156
 5118SOL    HW220238   5.108   6.330   2.510  0.4285  0.2426 -0.0118
 5118SOL    HW320239   5.112   6.469   2.568  1.8272  0.9205 -1.6551
 5118SOL    MW420240   5.072   6.409   2.521  0.4184  0.1820  0.3804
 5119SOL     OW20241   5.527   4.412   5.378  0.1237  0.5596 -0.2624
 5119SOL    HW220242   5.596   4.471   5.349  1.2081  0.6137  2.2060
 5119SOL    HW320243   5.543   4.331   5.330  3.0402 -0.0047  1.4688
 5119SOL    MW420244   5.538   4.409   5.367  0.6516  0.4923  0.2917
 5120SOL     OW20245   5.480   3.166   1.017 -0.1478 -0.4347 -0.9673
 5120SOL    HW220246   5.412   3.142   0.954  0.1201 -1.8347 -0.7565
 5120SOL    HW320247   5.562   3.144   0.973  0.1893  1.1595 -1.1862
 5120SOL    MW420248   5.482   3.160   1.003 -0.0680 -0.4091 -0.9683
 5121SOL     OW20249   2.968   4.261   2.773 -0.4372 -0.4396  0.1191
 5121SOL    HW220250   2.923   4.180   2.753 -1.2054 -0.2784  1.1026
 5121SOL    HW320251   3.059   4.235   2.788 -0.1558 -0.7566 -1.9023
 5121SOL    MW420252   2.974   4.247   2.773 -0.5014 -0.4601 -0.0179
 5122SOL     OW20253   4.957   1.281   0.408  0.2211  0.4603  0.1839
 5122SOL    HW220254   4.907   1.359   0.382 -1.0725 -0.2041  0.5910
 5122SOL    HW320255   4.904   1.240   0.476  1.9822  0.4279  1.6153
 5122SOL    MW420256   4.943   1.286   0.414  0.2828  0.3684  0.4264
 5123SOL     OW20257   1.661   5.027   0.433 -0.1476 -0.3516  0.3923
 5123SOL    HW220258   1.716   5.059   0.504  0.7362 -1.3324  0.1774
 5123SOL    HW320259   1.688   5.078   0.357 -0.6022  0.2080  0.5968
 5123SOL    MW420260   1.672   5.038   0.432 -0.0910 -0.4072  0.3909
 5124SOL     OW20261   0.118   5.635   5.762  0.1600  0.2164 -0.0553
 5124SOL    HW220262   0.051   5.677   5.708  1.0657 -0.2881 -1.6246
 5124SOL    HW320263   0.192   5.695   5.758  0.1106  0.3636  0.9871
 5124SOL    MW420264   0.119   5.648   5.754  0.2729  0.1693 -0.1248
 5125SOL     OW20265   5.762   5.971   4.645 -0.0870 -0.0725  0.0294
 5125SOL    HW220266   5.676   5.950   4.610  0.8060 -2.9773 -0.6488
 5125SOL    HW320267   5.789   5.892   4.692  2.4930  0.4645 -0.4020
 5125SOL    MW420268   5.754   5.958   4.647  0.3712 -0.3849 -0.1170
 5126SOL     OW20269   5.643   2.689   0.054  0.1878 -0.7599 -0.5215
 5126SOL    HW220270   5.634   2.767  -0.001  0.5212  1.3509  2.1862
 5126SOL    HW320271   5.552   2.661   0.070  0.1021 -1.6713 -2.4027
 5126SOL    MW420272   5.630   2.696   0.049  0.2205 -0.6017 -0.4125
 5127SOL     OW20273   0.683   5.497   3.246  0.3359  0.1698 -0.2777
 5127SOL    HW220274   0.649   5.549   3.174 -1.0497 -0.6634 -0.2601
 5127SOL    HW320275   0.747   5.438   3.205  0.0367  0.1499 -0.7272
 5127SOL    MW420276   0.687   5.496   3.231  0.1136  0.0572 -0.3347
 5128SOL     OW20277   4.171   3.406   0.553 -0.0233  0.0869 -0.1289
 5128SOL    HW220278   4.234   3.335   0.567 -1.0237 -0.7692  0.1577
 5128SOL    HW320279   4.222   3.486   0.568  0.6467 -0.6186  1.6652
 5128SOL    MW420280   4.186   3.408   0.557 -0.0669 -0.1191  0.1456
 5129SOL     OW20281   3.581   6.091   3.784  0.2244 -0.1236  0.3284
 5129SOL    HW220282   3.661   6.070   3.736 -0.7797  0.2610 -1.6056
 5129SOL    HW320283   3.574   6.186   3.778  1.0810  0.2066  3.0096
 5129SOL    MW420284   3.590   6.101   3.777  0.2049 -0.0293  0.4270
 5130SOL     OW20285   4.496   5.897   5.338  0.5042  0.0453 -0.0412
 5130SOL    HW220286   4.467   5.931   5.422 -0.0468  0.7484 -0.4985
 5130SOL    HW320287   4.580   5.941   5.323 -0.2663  1.3671 -0.6897
 5130SOL    MW420288   4.504   5.908   5.347  0.3299  0.3125 -0.1871
 5131SOL     OW20289   1.475   5.725   4.089  0.2783  0.6287  0.0635
 5131SOL    HW220290   1.540   5.782   4.046  0.7655  0.7808  0.9684
 5131SOL    HW320291   1.403   5.784   4.110  0.4187  0.7430  0.2357
 5131SOL    MW420292   1.474   5.741   4.086  0.3611  0.6638  0.2056
 5132SOL     OW20293   0.186   3.351   4.241 -0.4231 -0.0324 -0.5280
 5132SOL    HW220294   0.168   3.440   4.271  2.1127 -0.2982  2.3174
 5132SOL    HW320295   0.193   3.299   4.321  0.3342 -2.3208 -1.9617
 5132SOL    MW420296   0.185   3.356   4.256  0.0114 -0.3694 -0.3417
 5133SOL     OW20297   0.676   0.765   0.471 -0.6606  0.3549  0.4657
 5133SOL    HW220298   0.589   0.743   0.437 -1.4582  2.2105  1.1587
 5133SOL    HW320299   0.659   0.799   0.559  0.5448  2.3604 -0.0126
 5133SOL    MW420300   0.662   0.767   0.478 -0.6068  0.8643  0.4940
 5134SOL     OW20301   0.402   4.087   6.034  0.3614 -0.0031  0.3747
 5134SOL    HW220302   0.448   4.023   5.979  1.5651  1.3263 -0.2287
 5134SOL    HW320303   0.470   4.123   6.091  0.3708  2.6604 -1.1436
 5134SOL    MW420304   0.417   4.083   6.034  0.5214  0.5237  0.0948
 5135SOL     OW20305   3.735   4.270   5.820 -0.2700 -0.0075 -0.1951
 5135SOL    HW220306   3.642   4.275   5.798 -0.7741  0.8018  1.8986
 5135SOL    HW320307   3.770   4.355   5.793  0.0493 -0.5697 -1.6282
 5135SOL    MW420308   3.727   4.282   5.814 -0.2944  0.0251 -0.1079
 5136SOL     OW20309   2.324   0.778   2.250  0.0530  0.0464  0.0553
 5136SOL    HW220310   2.372   0.724   2.188 -0.0862 -0.3442  0.2776
 5136SOL    HW320311   2.273   0.715   2.301 -2.9534  0.5536 -2.0345
 5136SOL    MW420312   2.323   0.763   2.249 -0.3620  0.0618 -0.1911
 5137SOL     OW20313   4.075   4.814   1.347  0.3888  0.0181 -0.4206
 5137SOL    HW220314   4.095   4.721   1.354  0.4602  0.1548  2.6200
 5137SOL    HW320315   3.980   4.818   1.338  0.3452 -0.3492 -0.1484
 5137SOL    MW420316   4.065   4.803   1.347  0.3925 -0.0123  0.0165
 5138SOL     OW20317   2.813   3.217   4.633 -0.5451 -0.7784 -0.1685
 5138SOL    HW220318   2.882   3.193   4.571  0.6939  0.3784  0.6912
 5138SOL    HW320319   2.745   3.258   4.580 -0.6691 -2.0708 -1.0589
 5138SOL    MW420320   2.813   3.219   4.618 -0.3980 -0.7963 -0.1725
 5139SOL     OW20321   0.359   4.787   3.688 -0.0265  0.6718  0.3367
 5139SOL    HW220322   0.385   4.878   3.674  1.9331  0.1242  0.1966
 5139SOL    HW320323   0.438   4.744   3.720  0.1644 -1.7329 -2.8557
 5139SOL    MW420324   0.373   4.794   3.690  0.2573  0.2823 -0.1030
 5140SOL     OW20325   3.217   2.939   0.265  0.7909 -0.7174 -0.3178
 5140SOL    HW220326   3.274   2.933   0.188  1.5872 -0.1007  0.2111
 5140SOL    HW320327   3.273   2.913   0.338  0.2732 -0.4934  0.1635
 5140SOL    MW420328   3.232   2.934   0.264  0.8276 -0.6065 -0.1845
 5141SOL     OW20329   1.598   0.633   0.916 -0.1619  0.0185  0.8170
 5141SOL    HW220330   1.644   0.710   0.884 -1.6182  1.1175  1.2636
 5141SOL    HW320331   1.524   0.623   0.855  0.4625 -1.5524  0.2612
 5141SOL    MW420332   1.594   0.642   0.903 -0.2716 -0.0437  0.8026
 5142SOL     OW20333   4.054   0.999   6.315  0.3788 -0.3368 -0.4258
 5142SOL    HW220334   4.127   0.964   6.366 -0.3171 -0.8600  0.2234
 5142SOL    HW320335   3.996   0.924   6.301 -0.2484  0.1694 -0.5638
 5142SOL    MW420336   4.056   0.985   6.319  0.2042 -0.3391 -0.3584
 5143SOL     OW20337   3.426   3.319   0.649  0.1126  0.3749 -0.3073
 5143SOL    HW220338   3.385   3.234   0.667 -0.3320  0.9286  1.5449
 5143SOL    HW320339   3.505   3.298   0.600  0.9608 -1.2948  1.6464
 5143SOL    MW420340   3.431   3.305   0.645  0.1658  0.2276  0.1948
 5144SOL     OW20341   2.557   0.868   0.598  0.0770  0.0439 -0.0447
 5144SOL    HW220342   2.473   0.847   0.558  0.6008 -0.1221 -1.0904
 5144SOL    HW320343   2.613   0.893   0.524  0.8533  0.4488  0.6682
 5144SOL    MW420344   2.553   0.868   0.583  0.2485  0.0754 -0.0886
 5145SOL     OW20345   4.127   1.536   5.952  0.1776  0.3861 -0.1513
 5145SOL    HW220346   4.200   1.570   6.005 -1.1510  0.7076  1.5519
 5145SOL    HW320347   4.100   1.456   5.997 -1.0736  0.7317 -0.2607
 5145SOL    MW420348   4.133   1.530   5.965 -0.1628  0.4741  0.0590
 5146SOL     OW20349   5.174   2.001   1.069  0.1782 -0.1933 -0.9671
 5146SOL    HW220350   5.092   2.029   1.028 -0.2654  1.2760  0.7898
 5146SOL    HW320351   5.147   1.947   1.144  0.9268 -1.8246 -1.8215
 5146SOL    MW420352   5.160   1.998   1.074  0.2184 -0.2147 -0.8480
 5147SOL     OW20353   0.174   0.257   6.364 -0.1194  0.3015  0.3776
 5147SOL    HW220354   0.108   0.192   6.389 -1.7289  1.6939 -0.0873
 5147SOL    HW320355   0.210   0.288   6.446  1.1279 -1.5561  0.6064
 5147SOL    MW420356   0.170   0.252   6.378 -0.1672  0.2401  0.3465
 5148SOL     OW20357   3.829   5.292   1.316 -0.1404 -0.0593 -0.0521
 5148SOL    HW220358   3.744   5.332   1.331 -1.0609 -1.4064 -1.4523
 5148SOL    HW320359   3.831   5.274   1.222  0.8174 -1.9580  0.2961
 5148SOL    MW420360   3.818   5.295   1.306 -0.1355 -0.4875 -0.1909
 5149SOL     OW20361   4.682   4.018   4.638 -0.2733  0.1337 -0.3158
 5149SOL    HW220362   4.710   4.075   4.709 -0.3908  1.2047 -1.1100
 5149SOL    HW320363   4.640   4.076   4.575 -0.4274 -0.8328 -1.1371
 5149SOL    MW420364   4.680   4.033   4.639 -0.3091  0.1475 -0.5290
 5150SOL     OW20365   5.261   2.577   4.437 -0.1555  0.2766  0.5691
 5150SOL    HW220366   5.293   2.569   4.526 -2.0824 -0.2555  1.2679
 5150SOL    HW320367   5.230   2.489   4.414 -1.0377  0.7228 -0.0471
 5150SOL    MW420368   5.261   2.564   4.445 -0.5261  0.2653  0.5800
 5151SOL     OW20369   4.875   4.731   3.525  0.2423  0.1489  0.6673
 5151SOL    HW220370   4.908   4.750   3.437 -2.3549  0.0278 -0.4174
 5151SOL    HW320371   4.942   4.675   3.564  3.3121  3.1533  0.2605
 5151SOL    MW420372   4.888   4.726   3.518  0.3046  0.5293  0.4705
 5152SOL     OW20373   1.219   0.592   2.342  0.0456  1.0220  0.5058
 5152SOL    HW220374   1.136   0.548   2.324 -0.1867  1.9516 -0.7436
 5152SOL    HW320375   1.273   0.573   2.266  0.9050  0.6541  1.1887
 5152SOL    MW420376   1.215   0.583   2.330  0.1284  1.0961  0.4311
 5153SOL     OW20377   3.476   1.835   2.045  0.2900 -0.1587 -0.0204
 5153SOL    HW220378   3.475   1.820   1.950 -2.0331  1.6068 -0.3634
 5153SOL    HW320379   3.490   1.748   2.082 -0.2853 -1.1555 -1.9619
 5153SOL    MW420380   3.478   1.821   2.037 -0.0924 -0.0573 -0.3218
 5154SOL     OW20381   0.271   5.669   6.064 -0.1730  0.7620  0.0343
 5154SOL    HW220382   0.277   5.598   6.128  0.7020 -0.1125 -0.9820
 5154SOL    HW320383   0.178   5.672   6.041 -0.2910  0.2381  0.4120
 5154SOL    MW420384   0.260   5.660   6.069 -0.0732  0.5775 -0.0500
 5155SOL     OW20385   4.423   0.873   0.381 -0.4121  0.0081 -0.2160
 5155SOL    HW220386   4.438   0.957   0.337  0.3167 -0.0375 -0.0623
 5155SOL    HW320387   4.501   0.822   0.362 -1.5209 -1.2545 -1.6774
 5155SOL    MW420388   4.435   0.877   0.373 -0.4623 -0.1645 -0.3885
 5156SOL     OW20389   0.069   3.878   5.237 -0.3877 -0.2056  0.6323
 5156SOL    HW220390   0.062   3.784   5.253 -0.0260 -0.3671 -0.1218
 5156SOL    HW320391   0.087   3.886   5.144  0.6943  0.5643  0.8874
 5156SOL    MW420392   0.070   3.867   5.227 -0.1972 -0.1253  0.5665
 5157SOL     OW20393   3.851   6.346   0.329 -0.2474 -0.0579 -0.1237
 5157SOL    HW220394   3.868   6.399   0.250  1.1325 -1.9500 -1.1722
 5157SOL    HW320395   3.842   6.410   0.399 -0.5859  1.6584 -1.6612
 5157SOL    MW420396   3.852   6.362   0.328 -0.1100 -0.0811 -0.4649
 5158SOL     OW20397   3.767   3.583   4.765 -0.6814  0.6704  0.6810
 5158SOL    HW220398   3.853   3.543   4.755 -1.0309  0.0906 -0.2208
 5158SOL    HW320399   3.782   3.664   4.814  0.2496  0.1666  1.2349
 5158SOL    MW420400   3.780   3.588   4.770 -0.6047  0.5274  0.6351
 5159SOL     OW20401   2.565   4.477   1.628 -0.0349  0.5646 -0.2735
 5159SOL    HW220402   2.513   4.543   1.583 -0.1557  1.5774  1.2641
 5159SOL    HW320403   2.601   4.523   1.704  4.0024  0.2254 -1.7725
 5159SOL    MW420404   2.563   4.491   1.632  0.4819  0.6535 -0.2684
 5160SOL     OW20405   6.051   2.125   4.705 -0.7141 -0.2699  0.0215
 5160SOL    HW220406   6.046   2.110   4.611 -0.7964 -0.2797  0.0277
 5160SOL    HW320407   5.961   2.121   4.735 -0.7512  0.3911  0.0026
 5160SOL    MW420408   6.039   2.122   4.697 -0.7298 -0.1840  0.0198
 5161SOL     OW20409   2.897   4.402   5.955 -0.2594 -0.5445 -0.2592
 5161SOL    HW220410   2.968   4.359   5.907  1.7774  1.0114  1.1789
 5161SOL    HW320411   2.860   4.333   6.010  0.9782 -1.1279 -0.1343
 5161SOL    MW420412   2.902   4.387   5.956  0.1726 -0.4162 -0.0530
 5162SOL     OW20413   3.398   5.944   0.912  0.2066 -0.0064  0.3130
 5162SOL    HW220414   3.488   5.969   0.891  0.0955 -0.8248 -1.3277
 5162SOL    HW320415   3.399   5.922   1.005  1.8714 -0.7107  0.1517
 5162SOL    MW420416   3.410   5.945   0.921  0.4116 -0.2073  0.0753
 5163SOL     OW20417   0.940   2.654   5.504 -1.1541  0.3620  0.1966
 5163SOL    HW220418   0.994   2.724   5.467 -1.5145  0.0917 -0.8796
 5163SOL    HW320419   0.856   2.697   5.523 -1.4614  0.1693 -0.7081
 5163SOL    MW420420   0.936   2.669   5.502 -1.2422  0.3009 -0.0647
 5164SOL     OW20421   2.615   1.884   5.871  0.0112  0.1696  0.6698
 5164SOL    HW220422   2.653   1.833   5.800  0.6387  3.0322 -1.2333
 5164SOL    HW320423   2.682   1.883   5.939  0.8926  0.1688 -0.1777
 5164SOL    MW420424   2.629   1.877   5.871  0.2103  0.5472  0.3069
 5165SOL     OW20425   1.295   1.595   1.150  0.2356  0.1403  0.0635
 5165SOL    HW220426   1.216   1.631   1.189  0.3659  0.8730 -0.3123
 5165SOL    HW320427   1.347   1.563   1.224 -1.1241 -1.9178  0.2046
 5165SOL    MW420428   1.292   1.596   1.165  0.0734 -0.0346  0.0325
 5166SOL     OW20429   6.331   2.891   6.229  0.2314  0.3472 -0.4314
 5166SOL    HW220430   6.237   2.897   6.246  0.6159 -0.4117  2.3995
 5166SOL    HW320431   6.357   2.807   6.267  2.0960  0.5908 -1.0628
 5166SOL    MW420432   6.322   2.880   6.236  0.5281  0.2792 -0.1412
 5167SOL     OW20433   6.046   1.144   5.855 -0.2365  0.1293 -0.2992
 5167SOL    HW220434   6.085   1.200   5.923  0.1836 -1.1296  0.5258
 5167SOL    HW320435   6.100   1.160   5.778  1.3611 -0.8199  0.5551
 5167SOL    MW420436   6.058   1.154   5.854  0.0297 -0.1620 -0.0776
 5168SOL     OW20437   0.072   4.742   0.226 -0.5410 -0.0866  0.3921
 5168SOL    HW220438   0.056   4.716   0.316 -0.8580 -0.8820  0.1194
 5168SOL    HW320439   0.161   4.777   0.226 -1.1671  1.5920  1.3443
 5168SOL    MW420440   0.081   4.743   0.238 -0.6654  0.0299  0.4818
 5169SOL     OW20441   1.050   6.354   3.613 -0.0072  0.3035 -0.8386
 5169SOL    HW220442   1.029   6.275   3.663  1.2647  0.4599 -0.0376
 5169SOL    HW320443   0.977   6.362   3.551  0.5759 -2.3707 -2.0260
 5169SOL    MW420444   1.037   6.344   3.611  0.2375 -0.0287 -0.8896
 5170SOL     OW20445   0.455   0.977   4.527  0.2530  0.0982 -0.2742
 5170SOL    HW220446   0.464   0.904   4.465 -0.1095  0.4480 -0.7399
 5170SOL    HW320447   0.505   1.048   4.487  0.2206  0.2523 -0.0416
 5170SOL    MW420448   0.463   0.977   4.514  0.2009  0.1647 -0.3050
 5171SOL     OW20449   3.025   4.708   3.492 -0.0451  0.2034  0.7347
 5171SOL    HW220450   3.031   4.787   3.439  0.8958 -0.2869  0.0712
 5171SOL    HW320451   3.035   4.739   3.582 -1.5074  1.0250  0.6426
 5171SOL    MW420452   3.027   4.722   3.497 -0.1139  0.2471  0.6350
 5172SOL     OW20453   4.864   1.893   0.004  0.3663  0.8200  0.3252
 5172SOL    HW220454   4.819   1.818  -0.034  0.3372  0.4089  1.1502
 5172SOL    HW320455   4.805   1.924   0.073 -0.3558  2.5796 -1.0170
 5172SOL    MW420456   4.850   1.887   0.008  0.2672  0.9979  0.2569
 5173SOL     OW20457   6.085   1.937   0.528 -0.3121  0.5275  0.9507
 5173SOL    HW220458   6.032   1.878   0.582 -0.9007 -0.1873 -0.3577
 5173SOL    HW320459   6.175   1.909   0.542 -0.5343 -0.2214  0.8951
 5173SOL    MW420460   6.090   1.926   0.537 -0.4190  0.3344  0.7707
 5174SOL     OW20461   5.303   5.743   4.222 -0.3654  0.1834  0.2458
 5174SOL    HW220462   5.358   5.819   4.201 -1.6447  0.7281 -1.3152
 5174SOL    HW320463   5.216   5.767   4.191 -1.3858 -0.9159  2.0805
 5174SOL    MW420464   5.299   5.756   4.215 -0.6688  0.1103  0.2819
 5175SOL     OW20465   0.728   6.108   5.931  0.1559 -0.4809 -0.0134
 5175SOL    HW220466   0.790   6.084   6.000  0.3407  1.6774  0.6704
 5175SOL    HW320467   0.783   6.119   5.853  0.6041  0.8700  0.4569
 5175SOL    MW420468   0.744   6.106   5.930  0.2394 -0.0179  0.1388
 5176SOL     OW20469   0.727   3.181   1.061  0.0930  0.1080  0.1155
 5176SOL    HW220470   0.652   3.240   1.063  1.1561  1.5295  2.2169
 5176SOL    HW320471   0.775   3.201   1.142  1.5250 -2.3378 -0.0366
 5176SOL    MW420472   0.723   3.192   1.072  0.4222 -0.0272  0.3727
 5177SOL     OW20473   1.304   0.823   2.025  0.1077  0.8621 -0.3732
 5177SOL    HW220474   1.388   0.867   2.037  0.6593 -0.0085 -0.9519
 5177SOL    HW320475   1.264   0.824   2.112  1.5990 -0.4296  0.3896
 5177SOL    MW420476   1.310   0.829   2.038  0.3773  0.5768 -0.3489
 5178SOL     OW20477   3.193   0.453   1.085  0.4667 -0.0231  0.4098
 5178SOL    HW220478   3.219   0.490   1.001 -0.3028  0.5362  0.4046
 5178SOL    HW320479   3.122   0.510   1.116  0.4670 -0.4525  1.2490
 5178SOL    MW420480   3.187   0.465   1.078  0.3652 -0.0059  0.5198
 5179SOL     OW20481   5.901   3.075   5.535 -0.2214 -0.1258 -0.2444
 5179SOL    HW220482   5.988   3.042   5.561 -0.1913  0.4928  0.4694
 5179SOL    HW320483   5.896   3.162   5.574 -2.0368 -0.9697  1.6509
 5179SOL    MW420484   5.912   3.082   5.544 -0.4570 -0.1555  0.0999
 5180SOL     OW20485   1.007   3.913   2.543  0.0571 -0.2511  0.2941
 5180SOL    HW220486   0.986   3.826   2.508 -2.0015  0.9476 -1.6618
 5180SOL    HW320487   1.103   3.914   2.546  0.1359 -2.6372  0.5578
 5180SOL    MW420488   1.017   3.902   2.539 -0.2041 -0.4078  0.0708
 5181SOL     OW20489   1.727   0.937   3.820  0.3030  0.0451 -0.2661
 5181SOL    HW220490   1.740   0.992   3.743 -0.7592  1.0919  0.2680
 5181SOL    HW320491   1.643   0.965   3.856 -0.7637 -2.5988 -0.5032
 5181SOL    MW420492   1.718   0.948   3.815  0.0221 -0.1656 -0.2269
 5182SOL     OW20493   0.050   4.686   3.913  0.3796  0.1028  0.0208
 5182SOL    HW220494   0.047   4.757   3.849  0.1293 -1.7586 -2.1821
 5182SOL    HW320495  -0.013   4.711   3.981 -1.5548  0.8924 -1.9429
 5182SOL    MW420496   0.041   4.699   3.914  0.0914 -0.0386 -0.5289
 5183SOL     OW20497   0.943   2.188   1.377 -0.4071  0.1582  0.0845
 5183SOL    HW220498   0.952   2.283   1.390 -0.4558  0.0543  0.9385
 5183SOL    HW320499   0.959   2.175   1.283  0.6813  0.8789  0.1527
 5183SOL    MW420500   0.946   2.199   1.366 -0.2699  0.2396  0.2062
 5184SOL     OW20501   4.475   3.605   0.800 -0.2133 -0.1693  0.5839
 5184SOL    HW220502   4.535   3.593   0.727 -0.2529  0.3037  0.4721
 5184SOL    HW320503   4.468   3.518   0.840  1.8206  0.0668  1.5887
 5184SOL    MW420504   4.482   3.592   0.796  0.0498 -0.0757  0.7017
 5185SOL     OW20505   0.362   2.906   5.110  0.6066  0.1233  0.0413
 5185SOL    HW220506   0.437   2.876   5.162  0.2831  0.3763  0.6738
 5185SOL    HW320507   0.353   2.841   5.040  2.2464  0.8156 -0.8597
 5185SOL    MW420508   0.371   2.894   5.108  0.7803  0.2480  0.0059
 5186SOL     OW20509   5.108   3.322   5.806  0.1718 -0.5262  0.1864
 5186SOL    HW220510   5.067   3.273   5.735 -0.6399 -1.3110  1.1499
 5186SOL    HW320511   5.110   3.412   5.776 -1.3245 -0.6404 -0.3354
 5186SOL    MW420512   5.103   3.327   5.793 -0.1327 -0.6448  0.2447
 5187SOL     OW20513   5.870   0.727   5.383  0.2514 -0.4768  0.0816
 5187SOL    HW220514   5.956   0.767   5.392  0.2924 -0.4874 -0.2650
 5187SOL    HW320515   5.886   0.640   5.347  0.0548 -0.2366 -0.6091
 5187SOL    MW420516   5.883   0.721   5.380  0.2308 -0.4465 -0.0552
 5188SOL     OW20517   4.632   0.040   1.971  0.1720  0.1074  0.0335
 5188SOL    HW220518   4.662   0.056   1.882  1.6477  2.2314  0.8380
 5188SOL    HW320519   4.656  -0.051   1.989  1.6063  0.2318 -1.0954
 5188SOL    MW420520   4.639   0.030   1.962  0.5560  0.4041 -0.0093
 5189SOL     OW20521   0.786   2.243   2.738 -0.0474  0.6147  0.4485
 5189SOL    HW220522   0.825   2.197   2.664  0.2985  0.9740  0.4036
 5189SOL    HW320523   0.731   2.310   2.696 -2.2701 -1.0977  0.4630
 5189SOL    MW420524   0.784   2.246   2.722 -0.2950  0.4362  0.4445
 5190SOL     OW20525   1.807   4.186   1.160 -0.0157 -0.4348 -0.4559
 5190SOL    HW220526   1.827   4.256   1.097  0.2889  1.9101  2.0923
 5190SOL    HW320527   1.892   4.145   1.177  0.4589  0.9227  0.6157
 5190SOL    MW420528   1.821   4.190   1.154  0.0871  0.0537  0.0217
 5191SOL     OW20529   5.874   2.417   1.051  0.0957 -0.4837 -0.2148
 5191SOL    HW220530   5.869   2.415   0.955 -0.2478 -0.2092 -0.2047
 5191SOL    HW320531   5.887   2.509   1.072 -1.6486 -0.2572  0.0756
 5191SOL    MW420532   5.875   2.429   1.041 -0.1798 -0.4176 -0.1752
 5192SOL     OW20533   5.762   1.578   6.088  0.3480  0.3585 -0.5022
 5192SOL    HW220534   5.846   1.550   6.050  0.8325  0.4412  0.4900
 5192SOL    HW320535   5.781   1.592   6.180 -0.5926  1.1189 -0.4155
 5192SOL    MW420536   5.776   1.576   6.095  0.2878  0.4697 -0.3599
 5193SOL     OW20537   2.948   1.120   1.814 -0.6871 -0.0374 -0.0353
 5193SOL    HW220538   2.960   1.118   1.909 -0.1059 -2.4144 -0.0828
 5193SOL    HW320539   3.029   1.080   1.779 -1.4596 -0.4601 -1.4315
 5193SOL    MW420540   2.961   1.114   1.822 -0.7124 -0.4068 -0.2258
 5194SOL     OW20541   4.212   3.403   3.881 -0.2261  0.1927  0.0845
 5194SOL    HW220542   4.270   3.410   3.806  1.1955  3.0134  1.2653
 5194SOL    HW320543   4.258   3.347   3.943 -0.4631 -0.4950 -0.3570
 5194SOL    MW420544   4.225   3.397   3.880 -0.0698  0.4742  0.1821
 5195SOL     OW20545   4.665   4.249   5.853  0.2399 -0.1712 -0.5236
 5195SOL    HW220546   4.705   4.329   5.887  1.4135 -0.5583 -0.9130
 5195SOL    HW320547   4.614   4.278   5.777  0.1564  0.2882 -0.2921
 5195SOL    MW420548   4.664   4.263   5.847  0.3837 -0.1616 -0.5444
 5196SOL     OW20549   3.976   4.973   6.210  0.4644 -0.4579  0.8815
 5196SOL    HW220550   4.015   5.048   6.164 -0.3659 -0.3009  0.4139
 5196SOL    HW320551   4.048   4.911   6.220  0.4649 -0.9389 -1.5527
 5196SOL    MW420552   3.991   4.975   6.205  0.3549 -0.5007  0.4986
 5197SOL     OW20553   2.103   5.162   1.787 -0.7237 -1.0525 -0.1662
 5197SOL    HW220554   2.027   5.196   1.741 -0.0991 -0.3844 -0.7214
 5197SOL    HW320555   2.092   5.067   1.786 -1.5490 -0.9626 -0.2210
 5197SOL    MW420556   2.092   5.154   1.781 -0.7502 -0.9525 -0.2467
 5198SOL     OW20557   3.459   6.179   1.652 -0.7289  0.2180  0.2286
 5198SOL    HW220558   3.450   6.259   1.704 -0.1968 -0.2189  0.9981
 5198SOL    HW320559   3.369   6.155   1.629 -0.8975  1.0064  0.0275
 5198SOL    MW420560   3.446   6.187   1.656 -0.6809  0.2643  0.3036
 5199SOL     OW20561   4.526   3.806   0.391  0.2966 -0.2010 -0.5828
 5199SOL    HW220562   4.431   3.814   0.378 -0.0096 -2.4870 -0.2205
 5199SOL    HW320563   4.541   3.841   0.479 -0.6971 -2.2245  0.4667
 5199SOL    MW420564   4.515   3.812   0.401  0.1251 -0.7696 -0.3965
 5200SOL     OW20565   3.697   0.327   0.816  0.2034 -0.5493 -0.3078
 5200SOL    HW220566   3.603   0.308   0.813  0.2638 -1.2207  1.1260
 5200SOL    HW320567   3.702   0.412   0.862  0.3802 -1.8581  2.2732
 5200SOL    MW420568   3.685   0.336   0.822  0.2347 -0.8106  0.2219
 5201SOL     OW20569   3.732   3.177   5.233 -0.1168  0.1865 -0.3281
 5201SOL    HW220570   3.816   3.176   5.187  0.2379  2.1210  0.1944
 5201SOL    HW320571   3.755   3.167   5.325 -0.5951 -0.6179 -0.2856
 5201SOL    MW420572   3.746   3.175   5.239 -0.1331  0.3356 -0.2536
 5202SOL     OW20573   3.837   0.816   2.114 -0.1876  0.1087 -0.3666
 5202SOL    HW220574   3.879   0.731   2.106 -0.5896 -0.0410 -1.0210
 5202SOL    HW320575   3.908   0.880   2.103  0.2261 -0.1308  0.8153
 5202SOL    MW420576   3.852   0.813   2.111 -0.1860  0.0574 -0.2970
 5203SOL     OW20577   3.189   3.009   2.634 -0.4759 -0.1667 -0.1534
 5203SOL    HW220578   3.152   2.952   2.567  1.0237 -1.0285 -0.2996
 5203SOL    HW320579   3.263   3.052   2.592 -1.0067  1.2073  0.2438
 5203SOL    MW420580   3.194   3.007   2.620 -0.3481 -0.0991 -0.1203
 5204SOL     OW20581   1.601   3.058   5.012 -0.0580  0.0179  0.2370
 5204SOL    HW220582   1.550   3.133   4.981  1.6362  0.5688 -1.3704
 5204SOL    HW320583   1.602   2.998   4.937  1.6178  0.0393  0.2032
 5204SOL    MW420584   1.594   3.060   4.998  0.3866  0.0934  0.0204
 5205SOL     OW20585   1.448   1.428   5.308 -0.1600  0.4569 -0.1876
 5205SOL    HW220586   1.509   1.406   5.378 -0.0371  1.3961  0.0174
 5205SOL    HW320587   1.468   1.367   5.238  0.8497  0.5887 -0.0291
 5205SOL    MW420588   1.458   1.417   5.308 -0.0105  0.5982 -0.1396
 5206SOL     OW20589   2.681   1.204   0.178  0.0342 -0.3763  0.3793
 5206SOL    HW220590   2.702   1.114   0.204 -2.0491 -0.4239  2.2917
 5206SOL    HW320591   2.599   1.195   0.129 -0.8419  0.5203  1.6119
 5206SOL    MW420592   2.673   1.191   0.175 -0.3563 -0.2643  0.7943
 5207SOL     OW20593   3.928   4.045   4.619  0.5233 -0.9078  0.3937
 5207SOL    HW220594   3.987   4.080   4.552 -0.7475  0.2486 -0.1601
 5207SOL    HW320595   3.900   3.960   4.585  0.3290 -0.5805 -0.2669
 5207SOL    MW420596   3.932   4.039   4.606  0.3300 -0.7120  0.2335
 5208SOL     OW20597   5.584   0.381   1.695 -0.2548  0.2344 -0.2879
 5208SOL    HW220598   5.625   0.433   1.625 -1.2241 -0.5742 -1.4922
 5208SOL    HW320599   5.492   0.407   1.693 -0.6023 -0.9478 -0.3898
 5208SOL    MW420600   5.577   0.392   1.685 -0.4285 -0.0283 -0.4602
 5209SOL     OW20601   3.493   1.304   4.153  0.3001  0.3078 -0.4099
 5209SOL    HW220602   3.547   1.343   4.222 -1.7156  0.5164  1.1272
 5209SOL    HW320603   3.463   1.378   4.101 -1.2829  0.6077  0.8531
 5209SOL    MW420604   3.496   1.319   4.155 -0.1747  0.3749 -0.0405
 5210SOL     OW20605   2.816   4.139   1.364 -0.1902  0.4173  0.0605
 5210SOL    HW220606   2.837   4.229   1.390 -1.6745  0.9822 -0.5842
 5210SOL    HW320607   2.882   4.117   1.298  1.0880  0.4700  1.2919
 5210SOL    MW420608   2.828   4.148   1.358 -0.2174  0.4988  0.1379
 5211SOL     OW20609   6.315   2.586   2.697  0.4046  0.2793 -0.2214
 5211SOL    HW220610   6.240   2.564   2.642  1.4953 -0.4110 -1.4894
 5211SOL    HW320611   6.359   2.503   2.712  0.9670  0.6889  0.4255
 5211SOL    MW420612   6.311   2.572   2.691  0.6227  0.2423 -0.3034
 5212SOL     OW20613   1.420   5.904   1.918 -0.1645  0.4065 -0.4753
 5212SOL    HW220614   1.457   5.933   1.834 -2.8266  0.4907 -1.7141
 5212SOL    HW320615   1.369   5.826   1.896 -0.0678 -0.2101  1.3007
 5212SOL    MW420616   1.418   5.898   1.904 -0.5030  0.3362 -0.4044
 5213SOL     OW20617   5.290   2.488   4.131 -0.2320 -0.1105 -0.1531
 5213SOL    HW220618   5.334   2.446   4.205  0.3154 -1.2360 -1.0960
 5213SOL    HW320619   5.203   2.510   4.165  0.5077  0.7876  1.2782
 5213SOL    MW420620   5.284   2.486   4.145 -0.0622 -0.1405 -0.0887
 5214SOL     OW20621   1.052   1.443   2.322  0.0271  0.4314  0.2398
 5214SOL    HW220622   1.096   1.359   2.311  0.7865  0.7095  1.0321
 5214SOL    HW320623   0.960   1.420   2.335 -0.0323 -0.1810 -1.0511
 5214SOL    MW420624   1.045   1.429   2.322  0.1194  0.3873  0.1740
 5215SOL     OW20625   6.305   0.784   2.522 -0.2193  0.3581 -0.4141
 5215SOL    HW220626   6.343   0.703   2.486  0.0693  0.8544 -1.2659
 5215SOL    HW320627   6.380   0.842   2.534  0.0004 -0.4173  2.8826
 5215SOL    MW420628   6.320   0.781   2.519 -0.1523  0.3213 -0.0915
 5216SOL     OW20629   2.701   2.704   5.834 -0.0138 -0.1066 -0.4308
 5216SOL    HW220630   2.679   2.638   5.899  0.1428 -0.8761 -1.1510
 5216SOL    HW320631   2.617   2.743   5.810  0.0823  1.4667  1.5397
 5216SOL    MW420632   2.687   2.701   5.839  0.0196 -0.0005 -0.2658
 5217SOL     OW20633   5.346   3.151   6.346  0.1842 -0.7679 -0.3113
 5217SOL    HW220634   5.294   3.215   6.297  2.5729  1.4674 -0.1803
 5217SOL    HW320635   5.310   3.154   6.435  0.1481  0.3026 -0.3463
 5217SOL    MW420636   5.334   3.160   6.351  0.4946 -0.3318 -0.2987
 5218SOL     OW20637   4.039   3.499   4.971  0.0963 -0.1236 -0.5518
 5218SOL    HW220638   4.074   3.461   4.890  0.0643 -0.1359 -0.5599
 5218SOL    HW320639   4.100   3.470   5.039 -2.4227 -4.2378  0.2814
 5218SOL    MW420640   4.052   3.491   4.969 -0.2403 -0.6681 -0.4430
 5219SOL     OW20641   2.444   5.235   6.029 -0.2689  0.3629 -0.2531
 5219SOL    HW220642   2.425   5.323   6.060 -0.0723  0.8852 -1.5450
 5219SOL    HW320643   2.440   5.180   6.108  1.2552  1.7667  0.8705
 5219SOL    MW420644   2.441   5.239   6.044 -0.0418  0.6171 -0.2753
 5220SOL     OW20645   0.688   2.797   3.552  0.0782 -0.4073  0.2785
 5220SOL    HW220646   0.666   2.776   3.461 -1.8439  0.9300  0.3690
 5220SOL    HW320647   0.631   2.741   3.604 -0.2543  0.2378  0.6186
 5220SOL    MW420648   0.678   2.787   3.547 -0.2193 -0.1457  0.3353
 5221SOL     OW20649   4.623   2.910   1.731 -0.1442 -0.7204 -0.3932
 5221SOL    HW220650   4.697   2.962   1.762 -0.7379 -0.1384  0.0497
 5221SOL    HW320651   4.645   2.820   1.758  0.4431 -0.5692 -0.3498
 5221SOL    MW420652   4.636   2.905   1.739 -0.1451 -0.6237 -0.3290
 5222SOL     OW20653   1.497   3.575   4.826 -0.0551 -0.0806  0.2324
 5222SOL    HW220654   1.568   3.622   4.869  0.3887 -0.2924 -0.2583
 5222SOL    HW320655   1.417   3.615   4.861  0.3082  0.8053  0.0637
 5222SOL    MW420656   1.496   3.586   4.837  0.0514  0.0083  0.1454
 5223SOL     OW20657   4.478   0.563   5.981 -1.1908  0.2226 -0.1986
 5223SOL    HW220658   4.426   0.616   6.042 -1.7103  1.5574 -1.7467
 5223SOL    HW320659   4.530   0.506   6.038 -2.4649  0.6305  1.4606
 5223SOL    MW420660   4.478   0.562   5.997 -1.4274  0.4526 -0.1839
 5224SOL     OW20661   3.409   6.185   2.686  0.0738  0.2449  0.3116
 5224SOL    HW220662   3.482   6.245   2.705  0.0964  0.5482 -0.6410
 5224SOL    HW320663   3.331   6.235   2.710 -0.0027  1.2999 -1.8732
 5224SOL    MW420664   3.408   6.200   2.692  0.0667  0.4241 -0.1024
 5225SOL     OW20665   1.719   4.939   5.873  0.3018 -0.4636 -0.1403
 5225SOL    HW220666   1.628   4.924   5.898  0.0510 -0.6885 -1.1443
 5225SOL    HW320667   1.716   4.954   5.778  1.2702 -0.1412 -0.1325
 5225SOL    MW420668   1.706   4.939   5.863  0.3965 -0.4507 -0.2718
 5226SOL     OW20669   6.116   0.237   3.148 -0.3071 -0.0711 -0.3478
 5226SOL    HW220670   6.084   0.159   3.193 -0.5627  0.2205 -0.0155
 5226SOL    HW320671   6.196   0.208   3.104 -1.2648 -0.9306 -1.5936
 5226SOL    MW420672   6.122   0.223   3.148 -0.4672 -0.1460 -0.4683
 5227SOL     OW20673   5.968   1.136   4.807 -0.4647  0.0763 -0.6783
 5227SOL    HW220674   5.953   1.228   4.787 -1.3509  0.2828  0.8486
 5227SOL    HW320675   5.903   1.114   4.873  0.8626 -1.1739  0.2928
 5227SOL    MW420676   5.958   1.145   4.813 -0.4065 -0.0614 -0.3487
 5228SOL     OW20677   5.804   3.749   0.103 -0.5368 -0.0328 -0.1919
 5228SOL    HW220678   5.851   3.743   0.186  0.4075  1.1796 -0.6174
 5228SOL    HW320679   5.867   3.717   0.037 -1.3386 -1.1630 -0.4505
 5228SOL    MW420680   5.818   3.744   0.105 -0.5180 -0.0220 -0.2821
 5229SOL     OW20681   2.809   3.022   0.058  0.1886  0.6182 -0.5712
 5229SOL    HW220682   2.837   3.112   0.075  0.1970  0.0273  3.4763
 5229SOL    HW320683   2.714   3.028   0.048  0.3312  1.1911 -1.7543
 5229SOL    MW420684   2.800   3.035   0.059  0.2085  0.6158 -0.1933
 5230SOL     OW20685   6.265   2.888   1.906  0.1062 -0.0630 -0.2289
 5230SOL    HW220686   6.260   2.849   1.994  0.5367 -0.0722 -0.2105
 5230SOL    HW320687   6.185   2.941   1.900 -0.1697 -0.4446 -0.0161
 5230SOL    MW420688   6.254   2.890   1.917  0.1266 -0.1146 -0.1984
 5231SOL     OW20689   4.633   5.767   4.103  0.0250  0.4251 -0.4123
 5231SOL    HW220690   4.682   5.830   4.049 -0.3505  1.7272  0.7107
 5231SOL    HW320691   4.627   5.809   4.189 -0.1387 -1.2156  0.4167
 5231SOL    MW420692   4.639   5.781   4.107 -0.0461  0.3804 -0.1548
 5232SOL     OW20693   5.464   1.424   3.817 -0.1702 -0.3953  0.4505
 5232SOL    HW220694   5.482   1.330   3.815  0.9414 -0.1988  0.3713
 5232SOL    HW320695   5.453   1.448   3.725 -1.6578 -0.6421  0.5391
 5232SOL    MW420696   5.465   1.415   3.804 -0.2198 -0.4019  0.4518
 5233SOL     OW20697   1.246   2.992   1.993  0.1200 -0.0855  0.2044
 5233SOL    HW220698   1.242   2.937   1.914 -1.9382 -1.1006  0.9327
 5233SOL    HW320699   1.339   3.003   2.010  0.6117 -1.9322 -0.9719
 5233SOL    MW420700   1.258   2.986   1.985 -0.0867 -0.4631  0.1453
 5234SOL     OW20701   2.180   0.055   6.149  0.2842  0.1843  0.2591
 5234SOL    HW220702   2.111   0.040   6.085  0.0658 -0.3796  0.6285
 5234SOL    HW320703   2.164  -0.009   6.218 -0.9529  2.3257  2.1020
 5234SOL    MW420704   2.169   0.045   6.150  0.0922  0.3924  0.5510
 5235SOL     OW20705   4.066   4.824   4.404 -0.2325 -0.5865  0.6432
 5235SOL    HW220706   4.126   4.795   4.473  1.6437  2.9237  0.7254
 5235SOL    HW320707   4.033   4.908   4.434  1.0448  1.3582 -2.8274
 5235SOL    MW420708   4.070   4.831   4.417  0.1835  0.1332  0.1961
 5236SOL     OW20709   4.695   1.593   1.712 -0.2915 -0.3141  0.0386
 5236SOL    HW220710   4.778   1.627   1.678 -0.8105  0.6618 -0.2781
 5236SOL    HW320711   4.690   1.504   1.678 -0.5274  0.4397 -2.0159
 5236SOL    MW420712   4.706   1.586   1.703 -0.3911 -0.0859 -0.2742
 5237SOL     OW20713   1.360   5.425   2.405  0.2851 -0.7614  0.4383
 5237SOL    HW220714   1.438   5.428   2.461  0.5425 -0.3085  0.0688
 5237SOL    HW320715   1.388   5.372   2.330  0.4451 -0.0850  0.0098
 5237SOL    MW420716   1.374   5.418   2.402  0.3402 -0.6124  0.3330
 5238SOL     OW20717   0.821   3.644   3.623 -0.4013 -0.4496  0.2570
 5238SOL    HW220718   0.853   3.580   3.559  2.8073  0.3463  0.8954
 5238SOL    HW320719   0.733   3.666   3.593  0.3510 -1.2899 -2.9471
 5238SOL    MW420720   0.814   3.638   3.611  0.1213 -0.4554 -0.0815
 5239SOL     OW20721   1.872   4.779   5.505 -0.5184  0.0359  0.5889
 5239SOL    HW220722   1.934   4.755   5.573 -0.2946 -3.6070 -0.6796
 5239SOL    HW320723   1.922   4.772   5.423 -0.9892  3.4869 -0.1546
 5239SOL    MW420724   1.887   4.775   5.503 -0.5510  0.0106  0.3235
 5240SOL     OW20725   1.386   0.771   6.208  0.1433  0.0443  0.0613
 5240SOL    HW220726   1.338   0.803   6.284  1.0432  1.3823  0.0916
 5240SOL    HW320727   1.321   0.771   6.137 -0.5776 -0.7737  0.6973
 5240SOL    MW420728   1.371   0.775   6.208  0.1669  0.1129  0.1492
 5241SOL     OW20729   2.904   1.948   3.901 -0.6932  0.3743  0.1383
 5241SOL    HW220730   2.931   1.990   3.820  0.6962 -0.8506 -0.0799
 5241SOL    HW320731   2.955   1.992   3.969 -0.2356 -0.0574  0.0753
 5241SOL    MW420732   2.914   1.959   3.899 -0.4495  0.1557  0.1012
 5242SOL     OW20733   4.679   0.768   5.914 -0.3326  0.1765  0.0389
 5242SOL    HW220734   4.730   0.731   5.842 -0.1561 -1.8818  1.1352
 5242SOL    HW320735   4.607   0.706   5.927 -1.3646  1.4211  0.5225
 5242SOL    MW420736   4.676   0.755   5.906 -0.4454  0.0691  0.2474
 5243SOL     OW20737   6.112   2.517   0.638  0.0320 -0.4561  0.4086
 5243SOL    HW220738   6.114   2.590   0.575 -0.5183 -2.9142 -2.7209
 5243SOL    HW320739   6.179   2.457   0.606 -1.0447 -2.3244  1.5114
 5243SOL    MW420740   6.121   2.519   0.625 -0.1827 -1.0270  0.1412
 5244SOL     OW20741   2.039   1.269   5.816  0.1736 -0.0485 -0.0074
 5244SOL    HW220742   2.007   1.295   5.902 -2.0977 -0.2875 -0.7090
 5244SOL    HW320743   2.026   1.346   5.761 -0.8848 -0.6659 -0.6893
 5244SOL    MW420744   2.033   1.282   5.820 -0.2657 -0.1615 -0.1899
 5245SOL     OW20745   1.571   1.744   4.463  0.1650  0.5060 -0.2508
 5245SOL    HW220746   1.608   1.772   4.379 -1.2611  0.8885 -0.7753
 5245SOL    HW320747   1.523   1.820   4.495 -1.3825 -0.4008 -0.3181
 5245SOL    MW420748   1.570   1.757   4.456 -0.2273  0.4368 -0.3289
 5246SOL     OW20749   4.687   5.260   3.017 -0.0676  0.0625 -0.4518
 5246SOL    HW220750   4.601   5.229   2.989 -0.0889 -0.8675  0.6019
 5246SOL    HW320751   4.749   5.207   2.968 -0.0224  1.5850 -2.1847
 5246SOL    MW420752   4.684   5.249   3.007 -0.0644  0.1406 -0.5414
 5247SOL     OW20753   6.415   2.108   4.430 -0.1059 -0.4025  0.7638
 5247SOL    HW220754   6.376   2.032   4.386  0.0379 -0.7181  1.1701
 5247SOL    HW320755   6.405   2.088   4.523  1.0927 -0.5246  0.8798
 5247SOL    MW420756   6.408   2.095   4.436  0.0712 -0.4603  0.8327
 5248SOL     OW20757   0.205   1.017   1.716  0.3185 -0.3152 -0.3922
 5248SOL    HW220758   0.122   1.053   1.686  0.4666 -0.3322 -0.8286
 5248SOL    HW320759   0.186   0.981   1.803  0.1009  0.5623 -0.0633
 5248SOL    MW420760   0.192   1.017   1.724  0.3094 -0.2017 -0.4064
 5249SOL     OW20761   3.523   1.528   3.663 -0.5072 -0.3712  0.5233
 5249SOL    HW220762   3.611   1.503   3.691 -0.4543 -1.2353 -0.3641
 5249SOL    HW320763   3.537   1.584   3.587 -0.7362 -0.6746  0.2604
 5249SOL    MW420764   3.536   1.532   3.657 -0.5304 -0.5253  0.3715
 5250SOL     OW20765   4.859   4.268   3.755 -0.3011 -0.0143 -0.4848
 5250SOL    HW220766   4.858   4.189   3.809  1.5780  0.0530 -0.2786
 5250SOL    HW320767   4.778   4.265   3.706 -2.3637  0.1410  2.6244
 5250SOL    MW420768   4.848   4.257   3.756 -0.3254  0.0151 -0.0474
 5251SOL     OW20769   0.692   3.967   5.105  0.9301 -0.2873  0.0001
 5251SOL    HW220770   0.657   4.053   5.081  1.8216  0.1338  0.1461
 5251SOL    HW320771   0.718   3.978   5.197  1.8648 -0.4246 -0.2340
 5251SOL    MW420772   0.691   3.980   5.114  1.1710 -0.2499 -0.0115
 5252SOL     OW20773   3.966   2.828   4.981 -0.1711  0.1339 -0.2300
 5252SOL    HW220774   4.005   2.800   4.899 -1.8801  1.3080 -1.5223
 5252SOL    HW320775   3.891   2.882   4.955 -0.6081  0.7785  2.1011
 5252SOL    MW420776   3.961   2.831   4.967 -0.4542  0.3739 -0.0930
 5253SOL     OW20777   5.259   1.670   2.194  0.2534 -0.2375 -0.2686
 5253SOL    HW220778   5.296   1.625   2.119  0.9586 -0.2396  0.0687
 5253SOL    HW320779   5.258   1.763   2.169 -0.5311 -0.3594 -0.6912
 5253SOL    MW420780   5.264   1.677   2.181  0.2429 -0.2539 -0.2799
 5254SOL     OW20781   2.485   5.193   1.958 -0.3064 -0.2183  0.2496
 5254SOL    HW220782   2.403   5.178   2.006 -0.4069 -0.8094 -0.1037
 5254SOL    HW320783   2.457   5.207   1.868 -0.0744  0.3679  0.2645
 5254SOL    MW420784   2.471   5.193   1.952 -0.2891 -0.2189  0.2050
 5255SOL     OW20785   3.368   5.756   4.146  0.0915  0.1871 -0.9032
 5255SOL    HW220786   3.284   5.715   4.167  1.1537 -1.4762  0.3384
 5255SOL    HW320787   3.360   5.844   4.182 -0.5327 -0.5091  0.7732
 5255SOL    MW420788   3.356   5.762   4.154  0.1493 -0.1242 -0.5182
 5256SOL     OW20789   5.154   1.016   0.556 -0.4057 -0.5050 -0.0918
 5256SOL    HW220790   5.116   0.930   0.535 -0.9237 -0.5516  1.0016
 5256SOL    HW320791   5.248   0.999   0.567 -0.2279 -0.6130 -1.5557
 5256SOL    MW420792   5.162   1.002   0.554 -0.4505 -0.5254 -0.1407
 5257SOL     OW20793   2.990   5.975   1.825  0.2536 -0.4105  0.3626
 5257SOL    HW220794   3.036   5.915   1.883 -0.8128 -1.3235  0.2850
 5257SOL    HW320795   2.970   5.923   1.747  0.5149  0.4403 -0.2976
 5257SOL    MW420796   2.994   5.960   1.822  0.1474 -0.4187  0.2653
 5258SOL     OW20797   0.337   1.841   5.768 -0.5859 -0.2570 -0.3132
 5258SOL    HW220798   0.330   1.915   5.829  0.6638 -0.2287 -0.1911
 5258SOL    HW320799   0.256   1.792   5.782 -0.6276  0.1111  0.8959
 5258SOL    MW420800   0.325   1.845   5.778 -0.4265 -0.2047 -0.1376
 5259SOL     OW20801   5.844   5.646   5.130 -0.2042  0.2741 -0.0336
 5259SOL    HW220802   5.840   5.634   5.225  0.2521 -2.3036 -0.2476
 5259SOL    HW320803   5.890   5.729   5.117 -1.3701  1.3052  1.9757
 5259SOL    MW420804   5.849   5.655   5.141 -0.2978  0.0700  0.2032
 5260SOL     OW20805   4.323   3.887   4.112 -0.3290 -0.1106  0.2749
 5260SOL    HW220806   4.372   3.968   4.098 -1.1946  0.2560 -0.7959
 5260SOL    HW320807   4.233   3.916   4.125 -0.8530 -0.9423 -1.3204
 5260SOL    MW420808   4.318   3.902   4.112 -0.5123 -0.1719 -0.0769
 5261SOL     OW20809   5.896   2.640   3.000  0.1592  0.6437  0.3643
 5261SOL    HW220810   5.985   2.666   2.981  0.6865  0.2339  2.0570
 5261SOL    HW320811   5.905   2.570   3.065 -1.3794  0.3138  0.2632
 5261SOL    MW420812   5.909   2.634   3.006  0.0258  0.5461  0.5743
 5262SOL     OW20813   1.927   6.366   0.632 -0.7394 -0.0415 -0.3598
 5262SOL    HW220814   1.910   6.301   0.701 -0.4085  0.0127 -0.2280
 5262SOL    HW320815   1.936   6.314   0.552  0.4504 -0.2502 -0.1103
 5262SOL    MW420816   1.926   6.351   0.631 -0.5388 -0.0619 -0.3095
 5263SOL     OW20817   3.998   2.306   1.675  0.0111  0.2198  0.3315
 5263SOL    HW220818   3.903   2.312   1.669 -0.0770 -0.9158  0.4115
 5263SOL    HW320819   4.020   2.223   1.633  1.0533  0.8626 -0.4556
 5263SOL    MW420820   3.989   2.296   1.669  0.1370  0.1548  0.2382
 5264SOL     OW20821   3.058   3.163   4.381  0.0373  0.3240 -0.7080
 5264SOL    HW220822   3.127   3.140   4.319  2.0150  1.3248  0.9924
 5264SOL    HW320823   3.069   3.257   4.396  0.1897 -0.0098  1.6987
 5264SOL    MW420824   3.069   3.172   4.375  0.3183  0.4120 -0.1661
 5265SOL     OW20825   6.156   1.227   1.794 -0.0970 -0.8130 -0.4051
 5265SOL    HW220826   6.116   1.228   1.707 -0.2599 -1.9056 -0.3638
 5265SOL    HW320827   6.107   1.160   1.841 -0.2147 -0.0055  0.6413
 5265SOL    MW420828   6.144   1.218   1.788 -0.1340 -0.8506 -0.2616
 5266SOL     OW20829   6.192   2.173   5.088  0.4969 -0.6968  0.4069
 5266SOL    HW220830   6.163   2.083   5.077 -2.1420  0.2248 -0.9627
 5266SOL    HW320831   6.134   2.210   5.155  1.1228  0.1733  0.4960
 5266SOL    MW420832   6.181   2.166   5.095  0.2313 -0.4604  0.2379
 5267SOL     OW20833   0.207   4.144   3.596 -0.4782 -0.0709  0.5309
 5267SOL    HW220834   0.217   4.070   3.656  2.7277 -1.6856 -1.6614
 5267SOL    HW320835   0.185   4.104   3.512 -0.5243  1.6718 -0.3386
 5267SOL    MW420836   0.206   4.129   3.593 -0.0613 -0.0540  0.1269
 5268SOL     OW20837   4.717   5.170   1.582  0.0591 -0.2157  0.1464
 5268SOL    HW220838   4.746   5.093   1.533  1.4895  1.0935 -1.1842
 5268SOL    HW320839   4.735   5.148   1.673 -1.9365 -2.4088  0.0998
 5268SOL    MW420840   4.723   5.157   1.588 -0.0154 -0.3323 -0.0353
 5269SOL     OW20841   4.416   1.060   5.013 -0.3751  0.1156  0.0545
 5269SOL    HW220842   4.331   1.104   5.017 -0.1404  0.7766 -1.2764
 5269SOL    HW320843   4.399   0.979   4.965 -0.6865 -0.9759  1.9424
 5269SOL    MW420844   4.403   1.055   5.007 -0.3852  0.0588  0.1280
 5270SOL     OW20845   3.762   5.575   4.108  0.1152 -0.7239  0.2747
 5270SOL    HW220846   3.717   5.586   4.024 -1.4206  1.3375  1.2689
 5270SOL    HW320847   3.758   5.481   4.125  0.9956 -1.2723 -2.1967
 5270SOL    MW420848   3.755   5.564   4.099  0.0287 -0.5243  0.0798
 5271SOL     OW20849   3.030   0.244   1.023  0.2109  0.2123 -0.5786
 5271SOL    HW220850   3.093   0.316   1.031 -0.7686  1.1197 -0.8007
 5271SOL    HW320851   3.005   0.244   0.930  0.4784 -0.6766 -0.6644
 5271SOL    MW420852   3.035   0.254   1.012  0.1170  0.2147 -0.6193
 5272SOL     OW20853   4.842   5.857   2.305  0.0811 -0.3758 -0.5234
 5272SOL    HW220854   4.793   5.890   2.380  0.8636 -0.8614  0.2147
 5272SOL    HW320855   4.907   5.799   2.342  0.6975 -0.3762 -1.5572
 5272SOL    MW420856   4.844   5.854   2.319  0.2657 -0.4399 -0.5624
 5273SOL     OW20857   3.421   1.142   1.887  1.0294 -0.3849  0.4371
 5273SOL    HW220858   3.332   1.136   1.922  1.5380 -0.9110  1.7104
 5273SOL    HW320859   3.411   1.191   1.805 -0.1933  1.2392  1.4739
 5273SOL    MW420860   3.408   1.148   1.881  0.9352 -0.2400  0.7419
 5274SOL     OW20861   3.014   1.893   3.226 -0.6387 -0.0504  0.5482
 5274SOL    HW220862   3.109   1.890   3.232 -0.4416 -0.3892 -1.8355
 5274SOL    HW320863   2.986   1.932   3.309  1.7383  2.4100  0.3390
 5274SOL    MW420864   3.023   1.898   3.238 -0.2990  0.2295  0.2061
 5275SOL     OW20865   4.037   4.157   2.076 -0.6972  0.8673 -0.2064
 5275SOL    HW220866   4.061   4.066   2.059 -1.6495  0.3974  0.8533
 5275SOL    HW320867   3.989   4.184   1.999 -0.7204  0.3582 -0.3741
 5275SOL    MW420868   4.034   4.148   2.064 -0.8259  0.7381 -0.0887
 5276SOL     OW20869   4.395   6.265   0.391  0.7759  0.3635  0.0611
 5276SOL    HW220870   4.351   6.192   0.435 -0.0856  1.0637  0.3749
 5276SOL    HW320871   4.337   6.340   0.403  1.3048  0.9493 -0.8813
 5276SOL    MW420872   4.382   6.265   0.398  0.7320  0.5332 -0.0218
 5277SOL     OW20873   1.700   6.386   4.128  0.2814  0.0484 -0.1931
 5277SOL    HW220874   1.789   6.353   4.136  0.2986  0.4445  1.6122
 5277SOL    HW320875   1.696   6.423   4.040  1.6933 -0.5756 -0.5391
 5277SOL    MW420876   1.711   6.387   4.118  0.4699  0.0184 -0.0006
 5278SOL     OW20877   1.023   5.721   2.055  0.1057 -0.0412  0.7997
 5278SOL    HW220878   1.052   5.796   2.108  1.4306 -1.4769  2.1874
 5278SOL    HW320879   1.031   5.752   1.965  2.4353  0.8937  1.2632
 5278SOL    MW420880   1.028   5.735   2.050  0.5878 -0.1073  1.0440
 5279SOL     OW20881   0.916   6.199   0.251  0.1994 -1.1562  0.8411
 5279SOL    HW220882   0.903   6.245   0.333 -0.2120  0.2324  0.0265
 5279SOL    HW320883   0.857   6.124   0.256  0.3130 -1.1839  1.8721
 5279SOL    MW420884   0.906   6.195   0.262  0.1601 -0.9766  0.8697
 5280SOL     OW20885   4.323   0.374   2.611  0.4444 -0.5240  0.2460
 5280SOL    HW220886   4.322   0.466   2.637  0.3342 -0.1395 -1.0722
 5280SOL    HW320887   4.415   0.350   2.607  0.5219 -0.1276 -0.5348
 5280SOL    MW420888   4.335   0.383   2.614  0.4401 -0.4210 -0.0309
 5281SOL     OW20889   5.045   1.031   0.831 -0.0861 -0.4567  0.3545
 5281SOL    HW220890   5.052   1.046   0.737  0.0480 -0.5772  0.3435
 5281SOL    HW320891   5.133   1.003   0.857 -0.2613 -0.9689  0.4153
 5281SOL    MW420892   5.058   1.029   0.822 -0.0915 -0.5402  0.3611
 5282SOL     OW20893   6.191   5.914   2.582  0.2777  0.5028 -0.0776
 5282SOL    HW220894   6.194   5.909   2.678 -1.0021  1.7229  0.0670
 5282SOL    HW320895   6.231   5.999   2.562 -0.6334  0.8363 -0.5163
 5282SOL    MW420896   6.197   5.925   2.592 -0.0114  0.7078 -0.1164
 5283SOL     OW20897   2.873   4.677   1.088  0.4637  0.0553 -0.1723
 5283SOL    HW220898   2.864   4.663   1.182  0.7260  0.0645 -0.1454
 5283SOL    HW320899   2.783   4.678   1.055  0.3266  0.8536  0.1923
 5283SOL    MW420900   2.860   4.675   1.096  0.4802  0.1618 -0.1207
 5284SOL     OW20901   3.489   1.590   0.344 -0.3693  0.0195 -0.0326
 5284SOL    HW220902   3.456   1.660   0.288 -0.9665 -0.3356 -0.1300
 5284SOL    HW320903   3.499   1.630   0.430 -0.7012  0.2314 -0.0913
 5284SOL    MW420904   3.486   1.604   0.348 -0.4919  0.0006 -0.0532
 5285SOL     OW20905   4.401   0.080   2.308 -0.2941 -0.4144 -0.2037
 5285SOL    HW220906   4.364   0.113   2.226  0.4584 -1.1255 -0.8415
 5285SOL    HW320907   4.362  -0.007   2.319 -0.0259 -0.5160 -0.0554
 5285SOL    MW420908   4.391   0.073   2.298 -0.1595 -0.5216 -0.2683
 5286SOL     OW20909   2.369   1.326   1.599  0.5197  0.1070 -0.5457
 5286SOL    HW220910   2.357   1.391   1.530 -1.2855  1.6526  1.0928
 5286SOL    HW320911   2.452   1.350   1.640  1.0307 -0.1237 -1.4051
 5286SOL    MW420912   2.378   1.338   1.595  0.3489  0.2805 -0.4429
 5287SOL     OW20913   4.208   4.555   1.371 -0.0945 -0.1050  0.2363
 5287SOL    HW220914   4.243   4.528   1.286  0.1576 -0.4610  0.4528
 5287SOL    HW320915   4.218   4.478   1.427 -1.3144 -0.2512  0.2795
 5287SOL    MW420916   4.214   4.541   1.367 -0.2222 -0.1712  0.2706
 5288SOL     OW20917   4.200   5.184   5.404  0.2877  0.4220 -0.1534
 5288SOL    HW220918   4.255   5.174   5.326  0.0229  0.3687 -0.3361
 5288SOL    HW320919   4.148   5.263   5.387  0.3406  0.4956  0.0347
 5288SOL    MW420920   4.200   5.193   5.391  0.2598  0.4247 -0.1527
 5289SOL     OW20921   1.976   0.541   4.818 -0.2932  0.1624  0.1202
 5289SOL    HW220922   2.005   0.608   4.881  0.0971  0.8895 -0.7975
 5289SOL    HW320923   1.993   0.458   4.862  0.6280  0.6376  0.7062
 5289SOL    MW420924   1.982   0.539   4.832 -0.1201  0.3210  0.0765
 5290SOL     OW20925   1.697   6.339   1.631  0.4259 -0.4190 -0.0616
 5290SOL    HW220926   1.602   6.340   1.616  0.4212  0.0389  0.0060
 5290SOL    HW320927   1.734   6.333   1.543  0.3447 -0.0911 -0.1200
 5290SOL    MW420928   1.689   6.338   1.617  0.4146 -0.3153 -0.0604
 5291SOL     OW20929   3.741   0.298   4.233 -0.3932  0.1195  0.2029
 5291SOL    HW220930   3.761   0.250   4.313  2.2445  1.5649  0.5315
 5291SOL    HW320931   3.692   0.375   4.262 -1.2618 -0.3942  0.1359
 5291SOL    MW420932   3.737   0.302   4.247 -0.1598  0.2424  0.2374
 5292SOL     OW20933   1.765   0.846   5.851  0.6299 -0.0407  0.1724
 5292SOL    HW220934   1.727   0.923   5.807  1.3297  0.5607  0.5898
 5292SOL    HW320935   1.743   0.859   5.943  1.2731 -0.0195  0.3266
 5292SOL    MW420936   1.757   0.858   5.857  0.8071  0.0414  0.2478
 5293SOL     OW20937   0.211   0.856   0.488 -0.1261  0.3263  0.3024
 5293SOL    HW220938   0.273   0.919   0.452 -0.1691  0.1297 -0.1134
 5293SOL    HW320939   0.137   0.857   0.428 -0.3954  0.3330  0.6294
 5293SOL    MW420940   0.209   0.864   0.475 -0.1673  0.3012  0.2907
 5294SOL     OW20941   5.183   3.019   1.631 -0.8958 -0.0586 -0.5507
 5294SOL    HW220942   5.263   2.974   1.601  1.6803  2.0556  2.4600
 5294SOL    HW320943   5.194   3.109   1.601 -1.8580  0.4060  0.4149
 5294SOL    MW420944   5.195   3.025   1.623 -0.6828  0.2817 -0.0261
 5295SOL     OW20945   3.569   0.520   4.590  0.0835 -0.3060 -0.4245
 5295SOL    HW220946   3.493   0.465   4.570  0.1132 -0.0839 -1.1846
 5295SOL    HW320947   3.533   0.596   4.634 -0.2282  0.0934 -1.3348
 5295SOL    MW420948   3.554   0.523   4.593  0.0463 -0.2240 -0.6449
 5296SOL     OW20949   3.232   4.173   2.134  0.0360  0.5584 -0.1495
 5296SOL    HW220950   3.313   4.133   2.167  1.5256  2.5421 -1.2030
 5296SOL    HW320951   3.207   4.120   2.059 -0.1467 -0.5728  0.6916
 5296SOL    MW420952   3.240   4.161   2.129  0.2084  0.6709 -0.1776
 5297SOL     OW20953   5.312   2.103   6.134  0.4151 -0.0138 -0.2149
 5297SOL    HW220954   5.356   2.081   6.216  0.6130 -0.2116 -0.3708
 5297SOL    HW320955   5.341   2.035   6.073 -1.4101 -1.1666  0.1005
 5297SOL    MW420956   5.322   2.091   6.137  0.2004 -0.1920 -0.1939
 5298SOL     OW20957   6.110   6.092   6.295 -0.5393 -0.4513 -0.0380
 5298SOL    HW220958   6.114   6.156   6.224  0.9123  0.3368  0.7131
 5298SOL    HW320959   6.019   6.098   6.327 -0.1524  2.2341  0.8532
 5298SOL    MW420960   6.098   6.101   6.290 -0.2967  0.0070  0.1787
 5299SOL     OW20961   4.215   4.163   5.102 -0.3203  0.2354  0.2367
 5299SOL    HW220962   4.229   4.205   5.187 -1.1853 -0.1916  0.6039
 5299SOL    HW320963   4.121   4.144   5.100 -0.0968 -0.8686 -0.2943
 5299SOL    MW420964   4.204   4.166   5.113 -0.4050  0.0334  0.2151
 5300SOL     OW20965   5.766   5.313   1.034 -0.0615 -0.2506 -0.1712
 5300SOL    HW220966   5.674   5.331   1.015 -0.5359 -0.0722  2.0340
 5300SOL    HW320967   5.767   5.225   1.072  0.8233 -0.6196 -0.9980
 5300SOL    MW420968   5.754   5.304   1.037 -0.0073 -0.2758  0.0107
 5301SOL     OW20969   6.026   4.163   1.309 -0.1367 -0.0159 -0.0254
 5301SOL    HW220970   6.020   4.141   1.402  0.3436 -1.5506 -0.3380
 5301SOL    HW320971   5.941   4.203   1.288  0.1975  1.5120  1.3282
 5301SOL    MW420972   6.014   4.166   1.318 -0.0292 -0.0168  0.1119
 5302SOL     OW20973   3.466   3.202   5.639  0.0684 -0.0576  0.2664
 5302SOL    HW220974   3.530   3.142   5.676 -0.2891 -0.7330 -0.1816
 5302SOL    HW320975   3.442   3.261   5.711  1.8662  0.8051  0.2086
 5302SOL    MW420976   3.471   3.202   5.653  0.2584 -0.0329  0.1997
 5303SOL     OW20977   1.486   5.507   0.877 -0.0505  1.0269 -0.0343
 5303SOL    HW220978   1.581   5.520   0.878  0.1539 -0.2462 -0.3970
 5303SOL    HW320979   1.466   5.482   0.786 -0.5543  0.2388  0.2779
 5303SOL    MW420980   1.496   5.505   0.865 -0.0900  0.7549 -0.0410
 5304SOL     OW20981   1.480   4.053   3.359  0.2017  0.4869 -0.2559
 5304SOL    HW220982   1.472   4.114   3.432 -0.6898  0.0561  0.0266
 5304SOL    HW320983   1.398   4.063   3.310  1.4493  1.9928 -2.1995
 5304SOL    MW420984   1.468   4.062   3.362  0.2487  0.6287 -0.4751
 5305SOL     OW20985   2.101   4.766   2.861 -0.1170  0.4352  1.0038
 5305SOL    HW220986   2.170   4.832   2.869  0.8200 -0.3155 -0.3335
 5305SOL    HW320987   2.039   4.803   2.799  0.1376  0.2973  0.6602
 5305SOL    MW420988   2.102   4.779   2.854  0.0402  0.3180  0.7820
 5306SOL     OW20989   4.340   2.941   1.336 -0.1712  0.3891  0.2820
 5306SOL    HW220990   4.367   2.953   1.245 -2.0015  0.2427 -0.3033
 5306SOL    HW320991   4.309   3.027   1.364  0.6294  0.5008  0.8875
 5306SOL    MW420992   4.340   2.954   1.327 -0.3071  0.3846  0.2847
 5307SOL     OW20993   2.345   2.424   2.054 -0.0919  0.6898  0.0340
 5307SOL    HW220994   2.415   2.362   2.073 -1.3453 -0.7581  0.0884
 5307SOL    HW320995   2.292   2.381   1.986 -1.8442  0.9985  1.1465
 5307SOL    MW420996   2.347   2.410   2.047 -0.4884  0.5395  0.1880
 5308SOL     OW20997   2.607   3.210   4.937 -0.1570  0.3711  0.5235
 5308SOL    HW220998   2.566   3.230   5.021 -1.9240 -0.2315 -0.1330
 5308SOL    HW320999   2.553   3.257   4.873 -2.0573 -3.0839 -0.7007
 5308SOL    MW421000   2.594   3.219   4.939 -0.6409 -0.1643  0.2754
 5309SOL     OW21001   2.429   0.568   3.451 -0.0127 -0.6534  0.0529
 5309SOL    HW221002   2.353   0.539   3.502 -0.4526 -0.4688 -0.4896
 5309SOL    HW321003   2.482   0.489   3.438  0.4681 -0.5795  1.3917
 5309SOL    MW421004   2.426   0.554   3.456 -0.0073 -0.6193  0.1580
 5310SOL     OW21005   4.269   0.668   3.572  0.8689 -0.7451 -0.1032
 5310SOL    HW221006   4.232   0.641   3.656  0.5748 -0.4635 -0.1365
 5310SOL    HW321007   4.194   0.703   3.524  0.5932 -2.7725 -1.2892
 5310SOL    MW421008   4.254   0.669   3.577  0.7938 -0.9754 -0.2641
 5311SOL     OW21009   3.584   5.297   4.545 -0.3062 -0.4409 -0.2562
 5311SOL    HW221010   3.645   5.257   4.482 -0.4428 -0.1134 -0.6020
 5311SOL    HW321011   3.524   5.348   4.491  0.1911  0.6768  0.2119
 5311SOL    MW421012   3.584   5.298   4.529 -0.2586 -0.2502 -0.2400
 5312SOL     OW21013   1.097   4.809   0.505  0.0446  0.5055  0.2823
 5312SOL    HW221014   1.049   4.728   0.518 -0.1360  0.7393  1.1055
 5312SOL    HW321015   1.114   4.842   0.593 -0.0163  1.4334 -0.0358
 5312SOL    MW421016   1.093   4.803   0.518  0.0127  0.6588  0.3490
 5313SOL     OW21017   4.701   0.850   0.791 -0.5244 -0.1539  0.2227
 5313SOL    HW221018   4.697   0.944   0.805  1.5411  0.0075 -0.0521
 5313SOL    HW321019   4.687   0.812   0.878 -1.1202  0.3850  0.3715
 5313SOL    MW421020   4.699   0.857   0.805 -0.3305 -0.0615  0.2061
 5314SOL     OW21021   3.350   2.314   0.680  0.2431 -0.0640 -0.1774
 5314SOL    HW221022   3.427   2.325   0.736  0.8537 -3.6024 -0.0943
 5314SOL    HW321023   3.287   2.268   0.735 -0.0008 -1.6292 -1.6940
 5314SOL    MW421024   3.352   2.310   0.695  0.2915 -0.7374 -0.3665
 5315SOL     OW21025   4.047   2.379   0.804  0.3129  0.2261  0.2888
 5315SOL    HW221026   4.032   2.295   0.762  0.5138  1.5171 -2.5778
 5315SOL    HW321027   3.964   2.427   0.792 -0.3145  0.0565  3.1187
 5315SOL    MW421028   4.034   2.374   0.797  0.2566  0.3740  0.2840
 5316SOL     OW21029   1.639   1.461   6.173  0.2629 -0.4592  0.3406
 5316SOL    HW221030   1.676   1.536   6.127 -0.1961  0.6083  1.6598
 5316SOL    HW321031   1.703   1.439   6.240 -1.3526  1.4064  2.6447
 5316SOL    MW421032   1.652   1.468   6.176 -0.0108 -0.0722  0.8187
 5317SOL     OW21033   3.606   1.421   3.348 -0.3503 -0.5822 -0.0934
 5317SOL    HW221034   3.657   1.382   3.418 -0.0630  0.9520  0.6009
 5317SOL    HW321035   3.568   1.500   3.387 -2.4492 -1.1264 -0.8819
 5317SOL    MW421036   3.607   1.426   3.362 -0.5893 -0.4516 -0.1058
 5318SOL     OW21037   4.958   2.370   3.377 -0.0562  0.5937  0.4061
 5318SOL    HW221038   4.955   2.352   3.283 -1.0503  0.2727  0.4961
 5318SOL    HW321039   5.043   2.413   3.389  0.1986  0.4124 -0.5928
 5318SOL    MW421040   4.969   2.374   3.366 -0.1538  0.5274  0.2862
 5319SOL     OW21041   1.800   5.120   3.998 -0.3998 -0.4174  0.2470
 5319SOL    HW221042   1.815   5.081   3.912  2.2819  2.0470 -0.5544
 5319SOL    HW321043   1.706   5.140   3.999 -0.1050  1.8051 -3.2321
 5319SOL    MW421044   1.789   5.117   3.987 -0.0071  0.2010 -0.3178
 5320SOL     OW21045   3.024   4.045   1.197  0.3675 -0.1317  0.1863
 5320SOL    HW221046   2.992   3.977   1.138 -0.1936 -0.7952  1.2228
 5320SOL    HW321047   3.074   4.105   1.140  1.0362 -1.4964 -0.7171
 5320SOL    MW421048   3.027   4.044   1.182  0.3817 -0.3993  0.2039
 5321SOL     OW21049   1.626   6.030   0.541 -0.8834  0.0789 -0.9497
 5321SOL    HW221050   1.585   6.115   0.523 -0.0205  0.8532  0.5356
 5321SOL    HW321051   1.642   5.993   0.454 -2.6151  0.7548 -1.6072
 5321SOL    MW421052   1.623   6.036   0.527 -0.9981  0.2703 -0.8405
 5322SOL     OW21053   5.384   4.423   1.723 -0.1352 -0.5769  0.2175
 5322SOL    HW221054   5.407   4.465   1.806  0.2946 -0.9929  0.3132
 5322SOL    HW321055   5.289   4.413   1.727 -0.1350 -0.4450  0.5865
 5322SOL    MW421056   5.374   4.428   1.734 -0.0785 -0.6144  0.2788
 5323SOL     OW21057   4.495   4.260   1.352 -0.2391 -0.4483 -0.2981
 5323SOL    HW221058   4.508   4.194   1.284  0.8185 -1.8335  1.1923
 5323SOL    HW321059   4.525   4.342   1.312 -0.0325 -1.1502 -1.6249
 5323SOL    MW421060   4.501   4.262   1.338 -0.0723 -0.7236 -0.2765
 5324SOL     OW21061   3.452   1.088   2.526 -0.1125 -0.2426 -0.0076
 5324SOL    HW221062   3.540   1.051   2.515 -0.1646 -1.0148  1.8505
 5324SOL    HW321063   3.467   1.181   2.543  0.4669 -0.5962  1.5811
 5324SOL    MW421064   3.466   1.095   2.527 -0.0429 -0.3911  0.4472
 5325SOL     OW21065   0.272   2.257   0.157  0.3151 -0.0239  0.2908
 5325SOL    HW221066   0.285   2.342   0.199  3.3842  0.0666 -0.6144
 5325SOL    HW321067   0.179   2.237   0.172 -0.4748  3.3396  0.7132
 5325SOL    MW421068   0.261   2.266   0.165  0.6158  0.4318  0.2271
 5326SOL     OW21069   4.266   2.443   5.987  0.1476 -0.4500 -0.6332
 5326SOL    HW221070   4.249   2.384   6.061 -1.2014 -0.5587 -0.9918
 5326SOL    HW321071   4.345   2.409   5.946  0.5438 -0.7771  0.3656
 5326SOL    MW421072   4.274   2.431   5.992  0.0219 -0.5075 -0.5487
 5327SOL     OW21073   3.659   4.578   5.830 -0.3723 -0.0294  0.6475
 5327SOL    HW221074   3.614   4.661   5.817  1.3588  0.9761  0.8267
 5327SOL    HW321075   3.709   4.590   5.910  0.7276 -0.8561  0.1106
 5327SOL    MW421076   3.660   4.590   5.839  0.0012 -0.0058  0.6003
 5328SOL     OW21077   2.442   3.145   2.643 -0.2618  0.4560  0.1185
 5328SOL    HW221078   2.378   3.196   2.693 -0.8503 -0.8462  0.7440
 5328SOL    HW321079   2.405   3.142   2.554 -0.7639  0.2578  0.3255
 5328SOL    MW421080   2.428   3.151   2.638 -0.4057  0.2581  0.2283
 5329SOL     OW21081   3.539   2.781   1.719 -0.4634  0.3750  0.3417
 5329SOL    HW221082   3.515   2.701   1.767 -1.0283 -0.6425 -1.5259
 5329SOL    HW321083   3.631   2.793   1.738  0.1229 -1.8156 -0.7324
 5329SOL    MW421084   3.548   2.772   1.728 -0.4606 -0.0482 -0.0464
 5330SOL     OW21085   5.127   0.393   2.212  0.3928  0.3722 -0.0570
 5330SOL    HW221086   5.090   0.309   2.240  1.2676 -0.2992 -0.8813
 5330SOL    HW321087   5.196   0.411   2.276 -0.0300  0.6460  0.3266
 5330SOL    MW421088   5.131   0.384   2.224  0.4525  0.3197 -0.1152
 5331SOL     OW21089   1.578   4.619   0.510  0.0198  0.0601 -0.0443
 5331SOL    HW221090   1.655   4.671   0.488 -0.6524  0.7125 -0.8820
 5331SOL    HW321091   1.509   4.652   0.454 -0.6736 -1.0947  0.0878
 5331SOL    MW421092   1.579   4.630   0.500 -0.1604 -0.0062 -0.1374
 5332SOL     OW21093   0.710   2.638   5.136 -0.1604  0.1032  0.0709
 5332SOL    HW221094   0.789   2.588   5.155 -0.4935 -0.1443  0.8177
 5332SOL    HW321095   0.655   2.578   5.086  0.3651  0.4781 -0.9947
 5332SOL    MW421096   0.713   2.624   5.132 -0.1350  0.1200  0.0288
 5333SOL     OW21097   3.192   3.186   4.848  0.7412  0.1818  0.7866
 5333SOL    HW221098   3.218   3.277   4.860  0.5557  0.5909 -1.3778
 5333SOL    HW321099   3.274   3.140   4.827  0.5163  0.3925 -0.6523
 5333SOL    MW421100   3.206   3.192   4.847  0.6871  0.2636  0.3112
 5334SOL     OW21101   5.745   5.271   4.682  0.1510  0.3704 -0.0156
 5334SOL    HW221102   5.753   5.192   4.736  2.2257 -0.1578 -0.9858
 5334SOL    HW321103   5.663   5.258   4.634  1.2860 -2.2010 -1.5187
 5334SOL    MW421104   5.735   5.259   4.683  0.5745 -0.0385 -0.3419
 5335SOL     OW21105   1.701   5.016   2.818  0.4746 -0.3060 -0.0450
 5335SOL    HW221106   1.633   5.013   2.750 -0.1018  1.1391  0.4444
 5335SOL    HW321107   1.657   4.987   2.898  0.0261  1.9264  0.5651
 5335SOL    MW421108   1.686   5.011   2.819  0.3394  0.1792  0.1001
 5336SOL     OW21109   3.623   4.700   3.673  0.1746  0.0409  0.4199
 5336SOL    HW221110   3.662   4.612   3.671 -0.5902 -0.3012  0.1875
 5336SOL    HW321111   3.654   4.737   3.756  1.4909  0.0252 -0.0336
 5336SOL    MW421112   3.632   4.693   3.684  0.2474 -0.0063  0.3294
 5337SOL     OW21113   3.039   0.726   4.277 -0.3539 -0.6437 -0.1036
 5337SOL    HW221114   2.981   0.743   4.351 -1.6864  1.1037 -1.4554
 5337SOL    HW321115   3.030   0.632   4.260 -2.5784 -0.4752 -0.0768
 5337SOL    MW421116   3.030   0.716   4.284 -0.8232 -0.3909 -0.2784
 5338SOL     OW21117   4.612   2.429   4.531  0.5838  0.1556 -0.6839
 5338SOL    HW221118   4.532   2.471   4.499  1.0710  2.0784  0.4773
 5338SOL    HW321119   4.581   2.364   4.594 -0.1133 -0.2749 -1.4469
 5338SOL    MW421120   4.597   2.426   4.535  0.5561  0.3525 -0.6314
 5339SOL     OW21121   5.780   3.789   5.153 -0.0821  0.4570 -0.1288
 5339SOL    HW221122   5.726   3.796   5.074 -0.2425 -1.5916 -0.2504
 5339SOL    HW321123   5.841   3.718   5.135 -2.3224 -2.5068  2.7288
 5339SOL    MW421124   5.781   3.781   5.141 -0.3989 -0.2044  0.2322
 5340SOL     OW21125   3.891   6.321   6.306  0.6150 -0.7784 -0.4666
 5340SOL    HW221126   3.857   6.400   6.349  2.0683  0.0239 -0.7375
 5340SOL    HW321127   3.829   6.304   6.235 -2.2117 -2.4806  2.1468
 5340SOL    MW421128   3.878   6.329   6.302  0.4338 -0.8971 -0.1576
 5341SOL     OW21129   1.857   2.648   4.029 -0.4265 -0.0155 -0.1308
 5341SOL    HW221130   1.929   2.663   3.968  0.0300 -0.3761  0.3076
 5341SOL    HW321131   1.822   2.735   4.048  0.1042  0.1889 -0.0943
 5341SOL    MW421132   1.862   2.661   4.024 -0.2963 -0.0361 -0.0682
 5342SOL     OW21133   2.189   0.414   3.939  0.0043 -0.0375  0.3717
 5342SOL    HW221134   2.182   0.480   4.008 -0.6507 -0.6840  0.9385
 5342SOL    HW321135   2.183   0.330   3.985  1.2969 -0.5072 -0.2939
 5342SOL    MW421136   2.187   0.412   3.954  0.0885 -0.1847  0.3587
 5343SOL     OW21137   2.574   3.434   2.537 -0.0641 -0.2757 -0.0022
 5343SOL    HW221138   2.580   3.400   2.627  0.9281  1.1792  0.5180
 5343SOL    HW321139   2.482   3.454   2.525  0.0401  1.3852  1.4647
 5343SOL    MW421140   2.563   3.432   2.548  0.0805  0.1354  0.2600
 5344SOL     OW21141   1.123   5.368   0.964  0.4172 -0.6602  0.1885
 5344SOL    HW221142   1.084   5.281   0.953  1.3597 -1.2111  1.0797
 5344SOL    HW321143   1.127   5.403   0.875 -1.9349 -0.6360  0.0344
 5344SOL    MW421144   1.118   5.361   0.951  0.2312 -0.7297  0.2858
 5345SOL     OW21145   2.024   0.302   1.227 -0.6626 -0.1552  0.8566
 5345SOL    HW221146   2.074   0.312   1.146  0.3629  1.0679  1.6020
 5345SOL    HW321147   1.937   0.274   1.198  0.5990 -3.2318 -0.4533
 5345SOL    MW421148   2.019   0.299   1.212 -0.3608 -0.3997  0.7821
 5346SOL     OW21149   4.988   0.189   6.091  0.0518  0.3023 -0.1008
 5346SOL    HW221150   4.982   0.244   6.169  0.8193  0.5730 -0.2324
 5346SOL    HW321151   4.898   0.183   6.059  0.0131  1.8338 -0.3292
 5346SOL    MW421152   4.975   0.196   6.097  0.1479  0.5401 -0.1483
 5347SOL     OW21153   5.823   0.029   0.560  0.0303  0.2748  0.2136
 5347SOL    HW221154   5.877  -0.017   0.496  0.0412 -0.4213  0.7152
 5347SOL    HW321155   5.881   0.096   0.597 -0.5634  2.1529 -1.9986
 5347SOL    MW421156   5.837   0.032   0.557 -0.0466  0.4308 -0.0121
 5348SOL     OW21157   4.307   3.167   0.615  0.4658 -0.0256  0.2767
 5348SOL    HW221158   4.398   3.137   0.613  0.7709  0.4860  2.9253
 5348SOL    HW321159   4.256   3.087   0.608  1.2093 -0.6737  1.7122
 5348SOL    MW421160   4.313   3.152   0.614  0.6041 -0.0436  0.8155
 5349SOL     OW21161   3.785   2.651   1.556 -0.4060  0.2131 -0.2417
 5349SOL    HW221162   3.710   2.595   1.540 -0.3405  0.1111 -0.1899
 5349SOL    HW321163   3.759   2.736   1.521 -0.4987  0.1468 -0.3358
 5349SOL    MW421164   3.772   2.655   1.549 -0.4096  0.1909 -0.2473
 5350SOL     OW21165   2.932   0.526   6.368  0.4085 -0.2986 -0.0026
 5350SOL    HW221166   2.837   0.521   6.362  0.3602 -0.5129  0.8512
 5350SOL    HW321167   2.958   0.448   6.417  0.9334  0.2558  0.6270
 5350SOL    MW421168   2.923   0.515   6.374  0.4714 -0.2538  0.1931
 5351SOL     OW21169   4.080   5.119   3.004 -0.1142 -0.3870  0.1799
 5351SOL    HW221170   4.149   5.124   2.937 -1.4809 -0.6535 -1.3170
 5351SOL    HW321171   4.060   5.026   3.011 -0.0474 -0.3521  0.9303
 5351SOL    MW421172   4.087   5.108   2.996 -0.2857 -0.4176  0.0814
 5352SOL     OW21173   4.284   5.508   1.517  0.0026 -0.1045  0.3729
 5352SOL    HW221174   4.221   5.444   1.483 -0.8930  0.2822  1.2616
 5352SOL    HW321175   4.231   5.572   1.564  1.0815  0.0758  1.3916
 5352SOL    MW421176   4.269   5.508   1.519  0.0268 -0.0297  0.6246
 5353SOL     OW21177   1.527   0.669   0.465  0.1607  0.7417 -0.5554
 5353SOL    HW221178   1.622   0.669   0.481 -0.2063  0.1194  2.0545
 5353SOL    HW321179   1.500   0.760   0.479  0.2781  0.8006 -0.7059
 5353SOL    MW421180   1.536   0.681   0.469  0.1278  0.6674 -0.2309
 5354SOL     OW21181   2.764   5.954   3.841 -0.5362  0.1514  0.4157
 5354SOL    HW221182   2.722   5.957   3.755 -0.6140  0.3722  0.4596
 5354SOL    HW321183   2.775   5.861   3.860  2.7274 -0.0030 -1.4321
 5354SOL    MW421184   2.760   5.942   3.832 -0.1159  0.1602  0.1777
 5355SOL     OW21185   5.726   3.357   0.436  0.3097  0.6826 -0.4245
 5355SOL    HW221186   5.767   3.339   0.521 -1.7158 -2.4453  0.0518
 5355SOL    HW321187   5.800   3.360   0.374  1.6124 -3.5270  0.5626
 5355SOL    MW421188   5.741   3.355   0.439  0.2143 -0.2855 -0.2314
 5356SOL     OW21189   3.932   5.483   2.964 -0.4773 -0.3660 -0.1716
 5356SOL    HW221190   4.018   5.483   2.923  0.5581 -1.3936  1.8215
 5356SOL    HW321191   3.934   5.558   3.024  0.3784 -2.1826  2.2686
 5356SOL    MW421192   3.943   5.493   2.967 -0.2278 -0.7413  0.4133
 5357SOL     OW21193   0.567   6.066   5.593 -0.3453 -0.1643 -0.3880
 5357SOL    HW221194   0.654   6.055   5.555 -1.2200 -1.1228 -2.2340
 5357SOL    HW321195   0.530   6.142   5.547 -1.3316 -1.2008 -1.3819
 5357SOL    MW421196   0.574   6.075   5.582 -0.5908 -0.4275 -0.7627
 5358SOL     OW21197   4.844   3.955   3.234  0.5157 -0.2765  0.4795
 5358SOL    HW221198   4.770   3.894   3.228 -0.7254  1.0616  1.2979
 5358SOL    HW321199   4.921   3.900   3.239 -0.4639 -1.7426  0.0492
 5358SOL    MW421200   4.844   3.940   3.234  0.2227 -0.2934  0.5307
 5359SOL     OW21201   3.573   1.651   1.566  0.2794  0.1602  0.2691
 5359SOL    HW221202   3.591   1.653   1.472 -0.6792  0.2720  0.0773
 5359SOL    HW321203   3.484   1.616   1.573 -0.6153  2.3514  0.9651
 5359SOL    MW421204   3.563   1.647   1.555  0.0349  0.4641  0.3356
 5360SOL     OW21205   5.609   3.215   1.416 -0.0561  0.2013 -0.9593
 5360SOL    HW221206   5.690   3.164   1.412 -0.2085  0.0242 -1.9006
 5360SOL    HW321207   5.571   3.192   1.501  0.8518  0.2579 -0.5170
 5360SOL    MW421208   5.615   3.205   1.427  0.0436  0.1854 -1.0251
 5361SOL     OW21209   4.449   1.370   1.522  0.1347 -0.3210 -0.7599
 5361SOL    HW221210   4.373   1.410   1.565 -0.1595 -0.7119 -0.9120
 5361SOL    HW321211   4.428   1.373   1.429 -0.5054 -2.0673 -0.6940
 5361SOL    MW421212   4.436   1.376   1.516  0.0114 -0.6029 -0.7713
 5362SOL     OW21213   5.021   4.498   3.302  0.0492  0.1290  0.4254
 5362SOL    HW221214   5.002   4.579   3.255 -0.0583  0.2827  0.7305
 5362SOL    HW321215   4.937   4.473   3.341  0.2648  0.3191  1.0183
 5362SOL    MW421216   5.007   4.505   3.301  0.0635  0.1743  0.5438
 5363SOL     OW21217   2.907   3.805   2.988  0.3336 -0.2271  0.0051
 5363SOL    HW221218   2.972   3.849   2.933 -0.7097 -0.0070 -1.1048
 5363SOL    HW321219   2.825   3.852   2.970 -0.4433 -1.4674  0.1862
 5363SOL    MW421220   2.905   3.817   2.978  0.0935 -0.3617 -0.1175
 5364SOL     OW21221   5.038   0.584   4.658  0.3890 -0.2637  0.2161
 5364SOL    HW221222   5.029   0.533   4.577 -0.7075 -1.3453  0.9841
 5364SOL    HW321223   4.950   0.583   4.697  1.1119 -0.6599  1.9232
 5364SOL    MW421224   5.025   0.577   4.652  0.3397 -0.4586  0.5426
 5365SOL     OW21225   1.196   1.945   1.826  0.1123  0.2697  0.4102
 5365SOL    HW221226   1.255   1.946   1.902 -1.2182 -1.3253  1.5415
 5365SOL    HW321227   1.135   1.874   1.844 -1.0128  0.6400 -1.6132
 5365SOL    MW421228   1.196   1.936   1.838 -0.2116  0.1081  0.2925
 5366SOL     OW21229   5.764   4.509   5.251 -0.1846  0.2037  0.0637
 5366SOL    HW221230   5.759   4.510   5.155  0.7522  0.6327  0.0128
 5366SOL    HW321231   5.806   4.425   5.272 -0.9994 -0.1971  0.1443
 5366SOL    MW421232   5.769   4.498   5.241 -0.1685  0.2074  0.0676
 5367SOL     OW21233   2.468   4.125   4.907 -0.5246 -0.2840 -0.1259
 5367SOL    HW221234   2.528   4.149   4.837 -0.3553 -0.1763  0.0584
 5367SOL    HW321235   2.409   4.061   4.866 -1.1211  0.5872 -0.6819
 5367SOL    MW421236   2.468   4.119   4.892 -0.5810 -0.1549 -0.1750
 5368SOL     OW21237   3.006   2.923   4.502 -0.8983  0.5108  0.1300
 5368SOL    HW221238   2.920   2.896   4.470 -1.6140  0.5483  1.8948
 5368SOL    HW321239   3.026   3.003   4.453 -2.6455  1.4235  0.8279
 5368SOL    MW421240   2.997   2.930   4.492 -1.2232  0.6362  0.4549
 5369SOL     OW21241   4.508   1.809   0.420  0.1489  0.2731 -0.1498
 5369SOL    HW221242   4.538   1.745   0.485  0.5443  0.5306 -0.0751
 5369SOL    HW321243   4.517   1.894   0.464  0.2374  0.4327 -0.4728
 5369SOL    MW421244   4.513   1.812   0.435  0.2127  0.3281 -0.1826
 5370SOL     OW21245   3.013   4.574   5.269 -0.1706 -0.2372  0.2494
 5370SOL    HW221246   3.018   4.621   5.352  1.0511 -0.5015  0.3348
 5370SOL    HW321247   3.098   4.587   5.228 -0.4446 -0.8727 -0.5546
 5370SOL    MW421248   3.025   4.582   5.274 -0.0455 -0.3559  0.1546
 5371SOL     OW21249   2.207   6.089   4.739  0.1361 -0.7377  0.5622
 5371SOL    HW221250   2.176   6.041   4.662 -1.5401 -0.3644  0.9621
 5371SOL    HW321251   2.178   6.179   4.724 -0.8756 -0.8079  1.9618
 5371SOL    MW421252   2.199   6.095   4.727 -0.2185 -0.6977  0.7997
 5372SOL     OW21253   1.171   6.257   4.997 -0.4966 -0.2688  0.2261
 5372SOL    HW221254   1.168   6.200   4.921 -1.9004  0.9772 -0.7022
 5372SOL    HW321255   1.205   6.340   4.964 -1.7822  0.5056  0.7557
 5372SOL    MW421256   1.175   6.260   4.983 -0.8515 -0.0022  0.1735
 5373SOL     OW21257   1.865   3.943   5.673 -0.5801 -0.0672 -0.0067
 5373SOL    HW221258   1.956   3.955   5.701 -0.5070 -1.3814  0.3708
 5373SOL    HW321259   1.829   3.880   5.735 -2.4820  2.1749  1.3278
 5373SOL    MW421260   1.872   3.936   5.684 -0.8214  0.0552  0.2192
 5374SOL     OW21261   6.154   0.471   5.418 -0.2991 -0.0939 -0.1146
 5374SOL    HW221262   6.248   0.467   5.434 -0.1837  0.2713 -0.6848
 5374SOL    HW321263   6.127   0.379   5.410  0.0299 -0.1955 -0.0736
 5374SOL    MW421264   6.163   0.458   5.419 -0.2405 -0.0591 -0.1844
 5375SOL     OW21265   4.653   4.653   5.795  0.0172  0.6744  0.0699
 5375SOL    HW221266   4.688   4.611   5.873 -1.1815 -0.7063 -0.1027
 5375SOL    HW321267   4.597   4.723   5.829 -0.5269  0.0577  0.4708
 5375SOL    MW421268   4.650   4.657   5.810 -0.2127  0.4109  0.1000
 5376SOL     OW21269   4.863   0.364   0.149 -0.7597 -0.5658  0.1884
 5376SOL    HW221270   4.876   0.458   0.159 -1.4078 -0.5697  1.2591
 5376SOL    HW321271   4.945   0.325   0.182  0.1821 -0.3691 -1.7664
 5376SOL    MW421272   4.876   0.371   0.155 -0.7210 -0.5404  0.0718
 5377SOL     OW21273   4.956   2.673   1.756 -0.2954 -0.6170 -0.1639
 5377SOL    HW221274   4.956   2.611   1.683 -0.7529 -0.9280  0.0904
 5377SOL    HW321275   5.028   2.645   1.812  0.5003  0.0448 -0.8379
 5377SOL    MW421276   4.965   2.661   1.754 -0.2508 -0.5707 -0.2193
 5378SOL     OW21277   4.512   2.414   4.140  1.0548 -0.3583  0.4751
 5378SOL    HW221278   4.450   2.458   4.081  1.5634  0.1496  0.3085
 5378SOL    HW321279   4.469   2.417   4.225  0.3337 -1.0566  0.1532
 5378SOL    MW421280   4.498   2.421   4.143  1.0268 -0.3834  0.4106
 5379SOL     OW21281   1.315   0.020   0.273 -0.1318  0.1630  0.0282
 5379SOL    HW221282   1.239   0.078   0.280 -0.2411  0.5634 -2.9722
 5379SOL    HW321283   1.356   0.045   0.191  2.4236 -1.0616  0.8406
 5379SOL    MW421284   1.310   0.031   0.263  0.1909  0.0543 -0.2605
 5380SOL     OW21285   3.026   2.387   5.774  0.2111  0.3794 -0.1052
 5380SOL    HW221286   2.951   2.328   5.764 -0.5947  1.6859 -2.9146
 5380SOL    HW321287   3.102   2.334   5.750  0.1325 -0.6856  1.8066
 5380SOL    MW421288   3.026   2.372   5.769  0.0944  0.4112 -0.2236
 5381SOL     OW21289   0.619   0.439   1.312  0.0610 -0.7430  0.4293
 5381SOL    HW221290   0.668   0.469   1.389  0.0267 -1.7319  0.8490
 5381SOL    HW321291   0.528   0.458   1.333  0.2717  2.4564 -0.9538
 5381SOL    MW421292   0.613   0.445   1.325  0.0843 -0.4513  0.3022
 5382SOL     OW21293   4.327   5.942   4.274  0.2568 -0.5320  0.0420
 5382SOL    HW221294   4.296   5.851   4.266  1.3886 -0.8843 -0.5159
 5382SOL    HW321295   4.262   5.993   4.226 -0.6645 -0.9774  0.7829
 5382SOL    MW421296   4.314   5.937   4.266  0.2846 -0.6373  0.0662
 5383SOL     OW21297   1.794   0.810   1.661  0.5095 -0.3389  0.1790
 5383SOL    HW221298   1.763   0.769   1.580 -1.0965  1.2108 -0.0777
 5383SOL    HW321299   1.834   0.739   1.710 -1.3874 -2.0510 -0.5777
 5383SOL    MW421300   1.795   0.796   1.656  0.0474 -0.3603  0.0453
 5384SOL     OW21301   3.344   1.100   5.499 -0.5085 -0.0966  0.8988
 5384SOL    HW221302   3.413   1.146   5.546 -0.5721  2.3246 -1.1810
 5384SOL    HW321303   3.389   1.047   5.434 -0.5034  1.6467 -0.6009
 5384SOL    MW421304   3.359   1.099   5.496 -0.5162  0.4529  0.4265
 5385SOL     OW21305   3.800   0.392   0.558 -0.3093 -0.3235 -0.0356
 5385SOL    HW221306   3.758   0.356   0.637 -0.9164  1.1482  0.3440
 5385SOL    HW321307   3.738   0.458   0.526  1.4319  1.5242  0.2156
 5385SOL    MW421308   3.786   0.396   0.564 -0.1597  0.1144  0.0477
 5386SOL     OW21309   3.433   5.160   1.913  0.0049 -0.1810  0.2989
 5386SOL    HW221310   3.455   5.180   1.822  2.0040 -0.0399  0.7476
 5386SOL    HW321311   3.389   5.076   1.909  0.0994 -0.1962 -0.7963
 5386SOL    MW421312   3.430   5.152   1.901  0.2811 -0.1644  0.2136
 5387SOL     OW21313   2.501   4.621   4.238  0.8710  0.3955 -0.7005
 5387SOL    HW221314   2.451   4.546   4.208  0.9707  0.1841 -0.3413
 5387SOL    HW321315   2.588   4.609   4.200  0.6463  0.7951 -1.3769
 5387SOL    MW421316   2.506   4.610   4.229  0.8545  0.4203 -0.7423
 5388SOL     OW21317   0.703   1.980   2.744  0.1977 -0.4994  0.0955
 5388SOL    HW221318   0.787   1.949   2.778  0.5093  0.0109 -0.2033
 5388SOL    HW321319   0.714   2.074   2.733 -0.4761 -0.3975  0.2299
 5388SOL    MW421320   0.715   1.988   2.747  0.1499 -0.4186  0.0738
 5389SOL     OW21321   3.304   5.476   0.210 -0.0385  0.4306 -0.4317
 5389SOL    HW221322   3.360   5.553   0.219  0.0883  0.2367  0.6262
 5389SOL    HW321323   3.366   5.403   0.203 -0.1101  0.1602  1.2406
 5389SOL    MW421324   3.320   5.476   0.210 -0.0312  0.3693 -0.0715
 5390SOL     OW21325   5.756   4.550   0.418  0.0477  0.5968 -0.2999
 5390SOL    HW221326   5.704   4.573   0.495 -0.2935  1.4396 -0.7631
 5390SOL    HW321327   5.775   4.457   0.428 -1.4405  0.2949 -0.0511
 5390SOL    MW421328   5.752   4.541   0.430 -0.1937  0.6682 -0.3282
 5391SOL     OW21329   1.026   1.190   2.937  0.6020  0.1157 -0.1329
 5391SOL    HW221330   0.987   1.258   2.882  0.5698  0.5747  0.4551
 5391SOL    HW321331   1.042   1.232   3.021 -1.2697 -1.1038  0.9029
 5391SOL    MW421332   1.023   1.205   2.941  0.3508  0.0153  0.0813
 5392SOL     OW21333   1.301   2.601   3.582  0.1226  0.4135  0.4138
 5392SOL    HW221334   1.322   2.511   3.554 -0.1053  0.8892 -1.4694
 5392SOL    HW321335   1.228   2.627   3.526 -0.4641  1.4445  1.6168
 5392SOL    MW421336   1.294   2.592   3.571  0.0152  0.6123  0.3241
 5393SOL     OW21337   5.965   2.830   3.616  0.4800  0.4351  0.9179
 5393SOL    HW221338   5.931   2.779   3.543 -0.2949 -0.0851  1.6232
 5393SOL    HW321339   6.049   2.789   3.638  0.4402  0.2383  0.6999
 5393SOL    MW421340   5.972   2.818   3.609  0.3725  0.3405  0.9822
 5394SOL     OW21341   4.513   2.080   4.065  0.1875  0.1840 -0.5619
 5394SOL    HW221342   4.552   2.158   4.024  1.2806 -0.8805 -1.6025
 5394SOL    HW321343   4.486   2.111   4.152  1.4133  1.5114 -0.6069
 5394SOL    MW421344   4.515   2.095   4.071  0.4934  0.2187 -0.7051
 5395SOL     OW21345   0.060   3.370   2.870 -0.0817 -0.0042  0.4205
 5395SOL    HW221346  -0.035   3.360   2.878 -0.0863 -0.6259 -0.3415
 5395SOL    HW321347   0.082   3.328   2.787  0.9169 -0.2423  0.7896
 5395SOL    MW421348   0.050   3.363   2.860  0.0494 -0.1177  0.3687
 5396SOL     OW21349   3.291   4.463   1.807 -0.4553 -0.3396  0.4172
 5396SOL    HW221350   3.271   4.476   1.900 -2.1390  0.2138  0.0124
 5396SOL    HW321351   3.235   4.389   1.781 -0.9225  0.3019 -0.4318
 5396SOL    MW421352   3.281   4.455   1.816 -0.7391 -0.1819  0.2518
 5397SOL     OW21353   6.364   1.825   1.915  0.1059  0.2967 -0.2733
 5397SOL    HW221354   6.296   1.892   1.913  0.3960  0.6160  0.4187
 5397SOL    HW321355   6.316   1.744   1.938 -0.1783  0.3372 -0.7055
 5397SOL    MW421356   6.348   1.823   1.918  0.1066  0.3441 -0.2390
 5398SOL     OW21357   5.429   2.851   2.809  0.0989 -0.2653  0.3700
 5398SOL    HW221358   5.463   2.851   2.720 -0.0661 -0.3065  0.3058
 5398SOL    HW321359   5.418   2.943   2.831 -1.8063 -0.2579 -0.4119
 5398SOL    MW421360   5.432   2.863   2.800 -0.1742 -0.2698  0.2584
 5399SOL     OW21361   3.232   1.482   3.332 -0.3080  0.4317  0.3226
 5399SOL    HW221362   3.187   1.412   3.379 -1.1068 -0.5308 -1.7456
 5399SOL    HW321363   3.161   1.533   3.292  0.3480  1.0953 -0.0242
 5399SOL    MW421364   3.216   1.480   3.333 -0.3268  0.3923  0.0039
 5400SOL     OW21365   1.304   3.998   0.726  0.3241 -0.3984 -0.5680
 5400SOL    HW221366   1.214   3.968   0.734  0.6609 -1.4186 -0.4695
 5400SOL    HW321367   1.355   3.918   0.713  1.1449  0.2161 -1.2368
 5400SOL    MW421368   1.299   3.984   0.725  0.4768 -0.4519 -0.6433
 5401SOL     OW21369   3.014   0.568   1.889  0.3883  0.2763 -0.1447
 5401SOL    HW221370   3.004   0.472   1.888  0.7164  0.1982  1.2602
 5401SOL    HW321371   3.049   0.587   1.976 -0.3471  1.7535 -0.1461
 5401SOL    MW421372   3.018   0.558   1.900  0.3346  0.4609  0.0404
 5402SOL     OW21373   4.619   2.045   2.243 -0.4916 -0.3185  0.6754
 5402SOL    HW221374   4.533   2.007   2.223 -0.0478 -3.2857  3.5206
 5402SOL    HW321375   4.681   1.977   2.218  0.9617  1.1084  0.2337
 5402SOL    MW421376   4.616   2.031   2.237 -0.2413 -0.5218  0.9925
 5403SOL     OW21377   2.436   3.816   2.808 -0.3138 -0.2509  0.3031
 5403SOL    HW221378   2.475   3.770   2.734  0.7273  0.8296  0.1529
 5403SOL    HW321379   2.429   3.907   2.779 -0.6585  0.0300  1.2321
 5403SOL    MW421380   2.440   3.822   2.794 -0.2219 -0.0713  0.4059
 5404SOL     OW21381   0.056   3.439   2.368 -0.0995 -0.3556 -0.1829
 5404SOL    HW221382  -0.027   3.422   2.412  0.3151 -0.0878  0.7333
 5404SOL    HW321383   0.043   3.525   2.326 -0.0724 -0.0103  0.5032
 5404SOL    MW421384   0.043   3.448   2.368 -0.0412 -0.2747  0.0285
 5405SOL     OW21385   5.165   2.316   4.425 -0.3293  0.7047 -0.2163
 5405SOL    HW221386   5.070   2.317   4.440 -0.5479  1.9922 -1.4451
 5405SOL    HW321387   5.175   2.265   4.344 -0.0372  0.9977 -0.3667
 5405SOL    MW421388   5.154   2.309   4.416 -0.3196  0.9132 -0.3983
 5406SOL     OW21389   1.902   5.192   5.696  0.3311  0.1225  0.6650
 5406SOL    HW221390   1.834   5.236   5.748  0.3023  1.2746 -0.3102
 5406SOL    HW321391   1.865   5.188   5.608 -0.3756 -3.3846  0.9716
 5406SOL    MW421392   1.888   5.198   5.691  0.2341 -0.1882  0.5768
 5407SOL     OW21393   2.948   0.224   0.722 -0.5665  0.0301  0.1995
 5407SOL    HW221394   3.035   0.186   0.724  0.0943  1.4657  0.2966
 5407SOL    HW321395   2.889   0.151   0.742  0.5586 -1.0688 -0.3844
 5407SOL    MW421396   2.952   0.209   0.725 -0.3309  0.0745  0.1353
 5408SOL     OW21397   2.715   5.738   0.865 -0.1187  0.2119 -0.6895
 5408SOL    HW221398   2.773   5.784   0.926  0.3503  0.2060 -1.1150
 5408SOL    HW321399   2.715   5.647   0.895 -2.6733  0.7959  1.3911
 5408SOL    MW421400   2.723   5.732   0.877 -0.3939  0.2882 -0.4711
 5409SOL     OW21401   1.076   0.093  -0.003  0.1437 -0.3794  0.1112
 5409SOL    HW221402   1.156   0.042   0.013 -0.8065 -1.4446  1.7871
 5409SOL    HW321403   1.102   0.161  -0.065  1.9338 -1.7319 -0.6820
 5409SOL    MW421404   1.090   0.095  -0.009  0.2545 -0.6984  0.2277
 5410SOL     OW21405   0.628   3.315   1.535 -0.3055  0.0028  0.2689
 5410SOL    HW221406   0.553   3.320   1.594 -0.9825  0.7527 -0.6368
 5410SOL    HW321407   0.596   3.350   1.452  0.8982 -0.1630 -0.2852
 5410SOL    MW421408   0.614   3.320   1.532 -0.2360  0.0799  0.0763
 5411SOL     OW21409   5.930   3.061   2.823 -0.7496 -0.3424 -0.0084
 5411SOL    HW221410   5.927   3.091   2.913  1.2652 -0.1130  0.0274
 5411SOL    HW321411   6.022   3.041   2.807 -1.0900 -0.6145 -1.9446
 5411SOL    MW421412   5.941   3.062   2.832 -0.5287 -0.3481 -0.2592
 5412SOL     OW21413   1.862   3.129   5.960  0.4306  0.0827  0.5269
 5412SOL    HW221414   1.943   3.088   5.991  0.2734  1.3373  2.8743
 5412SOL    HW321415   1.801   3.056   5.949  1.9397 -0.9373 -1.7223
 5412SOL    MW421416   1.864   3.114   5.963  0.6090  0.1136  0.5398
 5413SOL     OW21417   1.381   1.180   4.356  0.1496  0.0628 -0.0483
 5413SOL    HW221418   1.472   1.148   4.363 -0.5682 -2.1859 -0.1622
 5413SOL    HW321419   1.373   1.211   4.266  0.6950 -0.1493 -0.1748
 5413SOL    MW421420   1.392   1.180   4.345  0.1268 -0.2618 -0.0800
 5414SOL     OW21421   2.115   3.271   0.887  0.5168  0.0443 -0.2090
 5414SOL    HW221422   2.173   3.263   0.812  0.3793 -2.5311 -0.1387
 5414SOL    HW321423   2.154   3.214   0.954  0.6091  2.1873  1.7197
 5414SOL    MW421424   2.128   3.262   0.886  0.5109 -0.0128  0.0547
 5415SOL     OW21425   2.718   4.912   0.807 -0.6570  0.3174  0.5057
 5415SOL    HW221426   2.634   4.891   0.766 -0.4128  0.8616 -0.3189
 5415SOL    HW321427   2.745   4.994   0.764  1.6942 -1.3129 -1.4263
 5415SOL    MW421428   2.711   4.920   0.796 -0.3146  0.1741  0.1420
 5416SOL     OW21429   4.432   4.206   2.215 -0.3590 -0.1451  0.4932
 5416SOL    HW221430   4.396   4.215   2.126  2.4247  0.2124 -0.6970
 5416SOL    HW321431   4.355   4.206   2.272 -2.1519  1.8041 -1.7234
 5416SOL    MW421432   4.417   4.207   2.211 -0.2282  0.1593  0.0437
 5417SOL     OW21433   6.323   4.205   3.539 -0.3585 -0.0352  0.3909
 5417SOL    HW221434   6.385   4.217   3.467  0.1299 -0.0943  0.8014
 5417SOL    HW321435   6.276   4.288   3.545 -0.9776 -0.3018 -0.5292
 5417SOL    MW421436   6.325   4.217   3.530 -0.3758 -0.0782  0.3236
 5418SOL     OW21437   4.534   1.499   4.859 -0.4413 -0.7425  0.1020
 5418SOL    HW221438   4.476   1.574   4.868  1.3808  0.7884 -0.3192
 5418SOL    HW321439   4.489   1.441   4.797 -1.1984  0.7277 -0.7774
 5418SOL    MW421440   4.520   1.501   4.852 -0.3008 -0.3465 -0.0696
 5419SOL     OW21441   2.278   4.575   5.684  0.8248  0.4084  0.2425
 5419SOL    HW221442   2.356   4.523   5.701  1.4856  1.2867 -0.0079
 5419SOL    HW321443   2.205   4.513   5.691  1.6696 -0.8454 -1.4028
 5419SOL    MW421444   2.278   4.560   5.687  1.0234  0.3589 -0.0076
 5420SOL     OW21445   1.990   2.292   4.130  0.1925  0.4099 -0.3281
 5420SOL    HW221446   1.911   2.248   4.160  0.6527 -0.4569 -0.3567
 5420SOL    HW321447   2.046   2.222   4.096  0.9570  1.0061 -0.3460
 5420SOL    MW421448   1.987   2.277   4.130  0.3541  0.3742 -0.3342
 5421SOL     OW21449   4.457   4.383   4.025 -0.2180  0.0151 -0.3401
 5421SOL    HW221450   4.369   4.396   3.989  0.2317  0.8298 -1.1737
 5421SOL    HW321451   4.456   4.431   4.107 -0.8135 -0.7084  0.0970
 5421SOL    MW421452   4.445   4.391   4.031 -0.2372  0.0271 -0.3924
 5422SOL     OW21453   2.546   1.070   1.809  0.4660 -0.5370 -0.0360
 5422SOL    HW221454   2.535   1.044   1.901 -0.3037  1.1122  0.3863
 5422SOL    HW321455   2.628   1.028   1.782  1.2336 -0.2772  1.7144
 5422SOL    MW421456   2.555   1.061   1.818  0.4657 -0.2851  0.2507
 5423SOL     OW21457   2.699   1.543   6.008  0.1109  0.3206  0.0751
 5423SOL    HW221458   2.740   1.462   6.036 -0.7923 -0.8508 -1.7998
 5423SOL    HW321459   2.620   1.550   6.062  0.4467  0.2266  0.5799
 5423SOL    MW421460   2.694   1.533   6.019  0.0360  0.1536 -0.1057
 5424SOL     OW21461   3.792   4.043   1.058  0.2808 -0.2375  0.3479
 5424SOL    HW221462   3.768   3.954   1.032 -1.3769  0.4666 -0.6998
 5424SOL    HW321463   3.845   4.076   0.985  0.7334 -0.2843  0.6497
 5424SOL    MW421464   3.796   4.035   1.045  0.1218 -0.1508  0.2495
 5425SOL     OW21465   6.364   2.630   1.797  0.6437  0.1356 -0.0454
 5425SOL    HW221466   6.348   2.574   1.873 -0.8933 -0.7750 -0.9993
 5425SOL    HW321467   6.343   2.718   1.827  0.1956 -0.1899  0.6220
 5425SOL    MW421468   6.359   2.634   1.811  0.3818 -0.0275 -0.0832
 5426SOL     OW21469   1.566   0.994   4.632 -0.4872 -0.0070  0.3779
 5426SOL    HW221470   1.483   0.968   4.592 -0.0216  1.0818 -1.3779
 5426SOL    HW321471   1.608   1.051   4.568  0.4070  1.7002  2.3654
 5426SOL    MW421472   1.561   0.998   4.618 -0.3078  0.3619  0.4085
 5427SOL     OW21473   4.653   5.938   3.833  0.2535  0.2071 -0.5380
 5427SOL    HW221474   4.579   5.893   3.794 -0.0309  0.1952  0.0054
 5427SOL    HW321475   4.699   5.978   3.759  0.8624 -1.4637 -1.1144
 5427SOL    MW421476   4.649   5.937   3.818  0.2963 -0.0149 -0.5424
 5428SOL     OW21477   5.764   2.698   2.003 -0.0607 -0.3953 -0.3104
 5428SOL    HW221478   5.730   2.766   1.945 -0.6029 -0.5727 -0.2040
 5428SOL    HW321479   5.687   2.665   2.049  0.3185 -0.5057  0.2463
 5428SOL    MW421480   5.749   2.703   2.001 -0.0822 -0.4333 -0.2229
 5429SOL     OW21481   0.253   1.993   0.996  0.1341 -0.0642  0.0920
 5429SOL    HW221482   0.274   1.945   1.077  0.3871 -0.6411 -0.3058
 5429SOL    HW321483   0.324   1.972   0.937  0.6539  1.4425  0.1492
 5429SOL    MW421484   0.265   1.984   0.999  0.2361  0.0584  0.0470
 5430SOL     OW21485   0.806   1.437   1.534 -0.1186 -0.6604 -0.2025
 5430SOL    HW221486   0.807   1.456   1.440 -1.3057  1.2465  0.0985
 5430SOL    HW321487   0.755   1.356   1.542  0.0242 -0.8587 -1.1953
 5430SOL    MW421488   0.799   1.429   1.523 -0.2564 -0.4350 -0.2937
 5431SOL     OW21489   3.010   3.215   0.686 -0.8935  0.0036 -0.1057
 5431SOL    HW221490   2.949   3.170   0.626 -2.3957  0.6808  0.8425
 5431SOL    HW321491   3.076   3.253   0.629 -0.5479 -1.9199 -1.0752
 5431SOL    MW421492   3.010   3.214   0.670 -1.0461 -0.1609 -0.1085
 5432SOL     OW21493   4.757   2.885   3.844 -0.1713  0.0624 -0.2214
 5432SOL    HW221494   4.700   2.961   3.840  1.0468  1.3519  3.4887
 5432SOL    HW321495   4.837   2.912   3.799 -0.1550  0.5764  0.1140
 5432SOL    MW421496   4.760   2.898   3.837 -0.0084  0.3004  0.3124
 5433SOL     OW21497   3.213   2.878   0.943  0.2999  0.2562  0.6107
 5433SOL    HW221498   3.121   2.850   0.946  0.0990  0.8754  0.4686
 5433SOL    HW321499   3.239   2.884   1.035 -0.6535  2.7329  0.8074
 5433SOL    MW421500   3.204   2.875   0.956  0.1476  0.6646  0.6179
 5434SOL     OW21501   4.639   4.503   3.834  0.3226  0.4630  0.1165
 5434SOL    HW221502   4.724   4.474   3.867 -0.2540 -1.1516  0.2841
 5434SOL    HW321503   4.576   4.466   3.896 -0.7458 -1.9261 -2.1810
 5434SOL    MW421504   4.642   4.494   3.847  0.1056 -0.0652 -0.1645
 5435SOL     OW21505   0.741   3.791   4.261 -0.4631  0.1205 -0.0478
 5435SOL    HW221506   0.656   3.803   4.303 -1.8055  0.7913 -2.7495
 5435SOL    HW321507   0.799   3.852   4.306 -1.0407 -1.1662  2.6149
 5435SOL    MW421508   0.738   3.801   4.272 -0.7164  0.0393 -0.0529
 5436SOL     OW21509   3.027   2.841   0.601 -0.0170  0.4818 -0.1639
 5436SOL    HW221510   3.041   2.776   0.669 -1.4056 -1.2274 -1.4320
 5436SOL    HW321511   2.940   2.877   0.618  0.5220  1.6686  0.2150
 5436SOL    MW421512   3.018   2.837   0.612 -0.1291  0.4129 -0.2812
 5437SOL     OW21513   0.638   4.928   1.829 -0.6843  0.3170  0.2000
 5437SOL    HW221514   0.688   4.859   1.784 -1.3756 -0.4511  0.5818
 5437SOL    HW321515   0.611   4.887   1.911 -0.4510  1.3163  0.7817
 5437SOL    MW421516   0.641   4.913   1.834 -0.7447  0.3475  0.3271
 5438SOL     OW21517   4.373   2.471   1.905 -0.1162  0.5824 -0.1407
 5438SOL    HW221518   4.400   2.562   1.898 -0.7606  0.9452  1.5898
 5438SOL    HW321519   4.281   2.471   1.880  0.5486 -0.1128 -2.8772
 5438SOL    MW421520   4.364   2.483   1.901 -0.1135  0.5385 -0.2734
 5439SOL     OW21521   1.468   0.526   4.447  0.3742 -0.0510 -0.2501
 5439SOL    HW221522   1.545   0.582   4.463  0.8249 -1.1136  1.5852
 5439SOL    HW321523   1.473   0.459   4.516 -3.2349  0.9137  1.1365
 5439SOL    MW421524   1.479   0.525   4.458 -0.0425 -0.0639  0.1750
 5440SOL     OW21525   0.610   5.484   6.008 -0.7445  0.1386 -0.3119
 5440SOL    HW221526   0.577   5.512   6.094 -0.1894 -0.4631  0.1070
 5440SOL    HW321527   0.641   5.395   6.022 -1.4896 -0.3080 -1.3680
 5440SOL    MW421528   0.609   5.476   6.021 -0.7696  0.0003 -0.3960
 5441SOL     OW21529   1.523   5.038   2.584 -0.0155  0.0315 -0.0651
 5441SOL    HW221530   1.445   5.056   2.638  0.2176 -0.9584  0.6428
 5441SOL    HW321531   1.487   5.007   2.501 -0.3908 -0.1517  0.1578
 5441SOL    MW421532   1.508   5.036   2.580 -0.0343 -0.1233  0.0577
 5442SOL     OW21533   2.634   5.300   3.097  0.1306  0.1624 -0.4795
 5442SOL    HW221534   2.563   5.310   3.034  0.4228 -0.7759 -0.9765
 5442SOL    HW321535   2.706   5.351   3.059  0.2291 -0.2040 -0.7943
 5442SOL    MW421536   2.634   5.308   3.084  0.1821 -0.0097 -0.5866
 5443SOL     OW21537   1.012   2.512   2.765 -0.1349 -0.1298 -0.8202
 5443SOL    HW221538   1.050   2.471   2.842  0.2839  3.2805  0.9988
 5443SOL    HW321539   0.917   2.506   2.778 -0.0771  1.1181  0.4875
 5443SOL    MW421540   1.005   2.506   2.777 -0.0720  0.4848 -0.4077
 5444SOL     OW21541   3.528   2.464   6.180 -0.0167  0.4566  0.0892
 5444SOL    HW221542   3.503   2.526   6.111 -1.0497  0.5805  0.5651
 5444SOL    HW321543   3.522   2.378   6.138  3.0579  0.6844 -1.0900
 5444SOL    MW421544   3.524   2.461   6.165  0.2527  0.5030 -0.0036
 5445SOL     OW21545   2.091   2.296   4.548  0.3651 -0.6525 -0.4120
 5445SOL    HW221546   2.157   2.242   4.591  1.8591 -0.3667 -2.2196
 5445SOL    HW321547   2.015   2.239   4.539  1.1373 -1.7286 -0.2803
 5445SOL    MW421548   2.090   2.282   4.553  0.6641 -0.7568 -0.6331
 5446SOL     OW21549   4.717   6.208   2.016  0.2956  0.5872 -0.1710
 5446SOL    HW221550   4.756   6.187   1.931  0.4072 -0.2517  0.0787
 5446SOL    HW321551   4.667   6.130   2.040 -1.6739  1.6509 -0.5323
 5446SOL    MW421552   4.715   6.195   2.008  0.0505  0.6169 -0.1858
 5447SOL     OW21553   4.009   4.322   6.106  0.3123 -0.0567  0.0714
 5447SOL    HW221554   4.040   4.365   6.186 -0.5954  0.1628  0.3107
 5447SOL    HW321555   4.074   4.347   6.040  0.4675  0.6866  0.4862
 5447SOL    MW421556   4.022   4.331   6.108  0.2130  0.0703  0.1577
 5448SOL     OW21557   4.820   5.602   3.819  0.8222 -0.1887 -0.1436
 5448SOL    HW221558   4.881   5.611   3.746  1.0640 -1.3251 -0.1072
 5448SOL    HW321559   4.852   5.664   3.885  0.8830  0.4939 -0.8125
 5448SOL    MW421560   4.833   5.611   3.818  0.8621 -0.2486 -0.2270
 5449SOL     OW21561   5.922   5.910   2.260  0.1838  0.0316  0.1488
 5449SOL    HW221562   5.989   5.974   2.236 -0.1135  0.5213  0.6167
 5449SOL    HW321563   5.855   5.919   2.192 -0.0924  0.5716  0.4887
 5449SOL    MW421564   5.922   5.920   2.248  0.1081  0.1674  0.2554
 5450SOL     OW21565   1.847   5.376   6.010 -0.0915  0.0854  0.0596
 5450SOL    HW221566   1.943   5.381   6.014 -0.1640  1.8194  0.0072
 5450SOL    HW321567   1.819   5.464   5.987 -1.7790 -0.0937  1.2410
 5450SOL    MW421568   1.856   5.388   6.008 -0.3237  0.2906  0.2085
 5451SOL     OW21569   5.032   4.294   4.500  0.0079 -0.1890 -0.1521
 5451SOL    HW221570   5.064   4.213   4.460 -1.2486 -0.5644 -0.4413
 5451SOL    HW321571   5.062   4.289   4.591  0.3243 -0.7634 -0.2834
 5451SOL    MW421572   5.041   4.283   4.507 -0.1162 -0.3143 -0.2076
 5452SOL     OW21573   3.017   2.270   5.211 -0.2254 -0.3597  0.6795
 5452SOL    HW221574   3.060   2.264   5.125 -0.8428  1.1253  0.2403
 5452SOL    HW321575   3.068   2.335   5.259 -1.3132  0.6299  0.5325
 5452SOL    MW421576   3.030   2.278   5.206 -0.4504 -0.0332  0.6022
 5453SOL     OW21577   0.640   4.086   5.815 -0.3179  0.3524  0.0737
 5453SOL    HW221578   0.554   4.127   5.811  0.4741  2.1643  0.4276
 5453SOL    HW321579   0.693   4.145   5.868  0.5884 -1.8366  1.7797
 5453SOL    MW421580   0.636   4.099   5.821 -0.0938  0.3027  0.3455
 5454SOL     OW21581   2.886   5.040   1.680  0.5312 -0.4930 -0.3570
 5454SOL    HW221582   2.877   5.011   1.771 -0.3712 -0.3581 -0.3971
 5454SOL    HW321583   2.972   5.083   1.678  0.2104  0.2569  0.6434
 5454SOL    MW421584   2.896   5.042   1.692  0.3698 -0.3762 -0.2303
 5455SOL     OW21585   2.578   4.254   6.226 -0.4620 -0.5344  0.0866
 5455SOL    HW221586   2.548   4.344   6.219  0.8447 -0.0016  1.0168
 5455SOL    HW321587   2.610   4.233   6.138  0.5748  0.4251  0.2128
 5455SOL    MW421588   2.578   4.263   6.214 -0.1528 -0.3375  0.2260
 5456SOL     OW21589   3.874   3.918   1.523  0.3965 -0.2026 -0.1447
 5456SOL    HW221590   3.944   3.983   1.526 -0.3650  0.6221  1.1683
 5456SOL    HW321591   3.919   3.834   1.512  1.6840  0.1873  1.7085
 5456SOL    MW421592   3.889   3.916   1.522  0.4659 -0.0423  0.2731
 5457SOL     OW21593   4.963   3.880   0.312 -0.0912 -0.3475  0.4031
 5457SOL    HW221594   4.919   3.795   0.326 -0.7722 -0.0635  0.0480
 5457SOL    HW321595   5.049   3.857   0.277  0.2762 -0.9414  1.6097
 5457SOL    MW421596   4.968   3.866   0.309 -0.1326 -0.3884  0.5155
 5458SOL     OW21597   4.974   4.454   0.854  0.1535 -0.7057  0.0084
 5458SOL    HW221598   4.951   4.545   0.874 -1.4189 -1.3856  1.6282
 5458SOL    HW321599   4.895   4.418   0.814  0.6870 -1.4278 -0.4211
 5458SOL    MW421600   4.960   4.462   0.851  0.0164 -0.8907  0.1654
 5459SOL     OW21601   1.497   1.847   0.088 -0.2115 -0.1391 -0.1559
 5459SOL    HW221602   1.490   1.816   0.178 -0.1377  0.3216  0.0109
 5459SOL    HW321603   1.508   1.767   0.036 -0.4416 -0.4220  0.2215
 5459SOL    MW421604   1.497   1.832   0.093 -0.2322 -0.1156 -0.0841
 5460SOL     OW21605   4.484   1.079   5.622 -0.2556  0.4757  0.2702
 5460SOL    HW221606   4.446   1.163   5.596 -2.3893  0.3955  2.7819
 5460SOL    HW321607   4.410   1.019   5.626  1.1201 -1.3724 -0.7034
 5460SOL    MW421608   4.469   1.082   5.619 -0.3556  0.2213  0.4732
 5461SOL     OW21609   2.128   1.420   2.173  0.7193 -0.1072  0.5563
 5461SOL    HW221610   2.051   1.425   2.116  0.4245 -2.1536  0.6885
 5461SOL    HW321611   2.094   1.442   2.260  0.0464 -1.7723  0.7582
 5461SOL    MW421612   2.113   1.424   2.177  0.5916 -0.5969  0.6003
 5462SOL     OW21613   4.705   2.923   4.521 -0.2497 -0.3389  0.1584
 5462SOL    HW221614   4.728   3.016   4.513  1.9937 -0.9650 -1.9024
 5462SOL    HW321615   4.764   2.890   4.589  1.6045 -0.9109 -1.6256
 5462SOL    MW421616   4.716   2.931   4.529  0.2909 -0.4969 -0.3489
 5463SOL     OW21617   1.895   3.610   6.371  0.3623  0.2329  0.5017
 5463SOL    HW221618   1.851   3.542   6.423 -0.6451  0.5586  0.0988
 5463SOL    HW321619   1.926   3.672   6.436 -0.3356  0.3139  0.7725
 5463SOL    MW421620   1.893   3.609   6.387  0.1373  0.2865  0.4843
 5464SOL     OW21621   6.117   4.040   4.959  0.6000  0.3305 -0.1686
 5464SOL    HW221622   6.124   3.975   4.889 -3.5919 -0.8888  0.2845
 5464SOL    HW321623   6.133   4.123   4.916  2.6718 -0.6814 -1.5180
 5464SOL    MW421624   6.120   4.042   4.944  0.3203  0.0361 -0.2868
 5465SOL     OW21625   2.373   0.788   0.418  0.0019  0.2120  0.9662
 5465SOL    HW221626   2.416   0.813   0.337  0.1132  0.0893  0.9874
 5465SOL    HW321627   2.299   0.848   0.426  0.6860  1.0129  1.3889
 5465SOL    MW421628   2.369   0.799   0.408  0.1068  0.3015  1.0248
 5466SOL     OW21629   4.362   4.087   6.184 -0.3801  0.3521 -0.1341
 5466SOL    HW221630   4.452   4.108   6.161 -0.1534 -1.2359 -0.8201
 5466SOL    HW321631   4.312   4.099   6.103 -0.4788 -0.3703 -0.1892
 5466SOL    MW421632   4.367   4.091   6.170 -0.3632  0.0473 -0.2319
 5467SOL     OW21633   0.347   5.526   2.567 -0.5065 -0.2111 -0.0510
 5467SOL    HW221634   0.344   5.567   2.481  0.8769 -2.3962 -1.2403
 5467SOL    HW321635   0.439   5.534   2.594 -0.5784 -0.9749  0.4670
 5467SOL    MW421636   0.359   5.532   2.559 -0.3335 -0.6001 -0.1395
 5468SOL     OW21637   4.173   2.185   3.154 -0.3314  0.4659  0.1497
 5468SOL    HW221638   4.078   2.189   3.144 -0.1341  1.4827 -1.7116
 5468SOL    HW321639   4.205   2.164   3.067  1.2113  1.0299  0.5514
 5468SOL    MW421640   4.165   2.183   3.141 -0.1018  0.6745 -0.0428
 5469SOL     OW21641   2.178   4.207   3.788  0.2979  0.3529  0.1067
 5469SOL    HW221642   2.139   4.168   3.710  0.1047 -1.1499  0.9306
 5469SOL    HW321643   2.269   4.177   3.788  0.5779  1.1690 -0.0551
 5469SOL    MW421644   2.185   4.198   3.778  0.3093  0.2623  0.1941
 5470SOL     OW21645   1.267   2.562   1.984 -0.4407 -0.2933  0.9738
 5470SOL    HW221646   1.287   2.609   2.065 -0.0595 -0.1672  0.8130
 5470SOL    HW321647   1.172   2.560   1.980 -0.5190  1.8613  0.2240
 5470SOL    MW421648   1.257   2.568   1.994 -0.4007  0.0076  0.8536
 5471SOL     OW21649   3.718   0.575   5.677  0.4497 -0.7255  0.3592
 5471SOL    HW221650   3.679   0.626   5.606  2.2234  1.9812  1.1755
 5471SOL    HW321651   3.762   0.502   5.632  1.6187  0.9527 -1.3910
 5471SOL    MW421652   3.718   0.572   5.661  0.8379 -0.1470  0.2360
 5472SOL     OW21653   5.718   0.920   4.006  0.1427 -0.2885 -0.5079
 5472SOL    HW221654   5.795   0.976   4.007  0.5762 -0.8676 -0.8638
 5472SOL    HW321655   5.713   0.887   3.916 -0.0764 -0.8639 -0.2873
 5472SOL    MW421656   5.727   0.923   3.994  0.1710 -0.4408 -0.5258
 5473SOL     OW21657   1.507   0.129   0.440  0.1501  0.3634  0.0575
 5473SOL    HW221658   1.502   0.224   0.428 -0.6755  0.3064 -0.1326
 5473SOL    HW321659   1.435   0.094   0.386  0.5218 -0.3781  0.0250
 5473SOL    MW421660   1.497   0.137   0.431  0.0902  0.2581  0.0281
 5474SOL     OW21661   1.583   0.501   6.152  0.2394 -0.1875 -0.1433
 5474SOL    HW221662   1.569   0.525   6.243  0.4131  0.3362 -0.2526
 5474SOL    HW321663   1.658   0.441   6.154  0.5429  0.1922  0.0105
 5474SOL    MW421664   1.591   0.496   6.164  0.3023 -0.0683 -0.1374
 5475SOL     OW21665   0.992   0.864   0.056 -0.1643 -0.0289  0.1214
 5475SOL    HW221666   0.958   0.803  -0.009 -1.3417  0.5881  0.1169
 5475SOL    HW321667   0.936   0.850   0.133 -1.2929  1.8763 -0.2955
 5475SOL    MW421668   0.980   0.854   0.058 -0.4685  0.3039  0.0658
 5476SOL     OW21669   3.228   0.242   5.035  0.3221  0.4897  0.4480
 5476SOL    HW221670   3.181   0.300   4.975  1.0029  1.1437  0.5388
 5476SOL    HW321671   3.312   0.225   4.992 -0.4300 -1.6944 -0.3168
 5476SOL    MW421672   3.233   0.248   5.021  0.3127  0.2878  0.3591
 5477SOL     OW21673   6.263   5.186   2.355 -0.3992 -0.7314  0.3180
 5477SOL    HW221674   6.244   5.224   2.441 -0.1794 -0.8420  0.4178
 5477SOL    HW321675   6.349   5.146   2.366  1.4010  2.3767 -0.9507
 5477SOL    MW421676   6.272   5.186   2.368 -0.1327 -0.3359  0.1638
 5478SOL     OW21677   3.013   5.735   5.128  0.5001 -0.6624  1.0157
 5478SOL    HW221678   3.070   5.796   5.176  0.2086  0.5139 -0.0736
 5478SOL    HW321679   2.925   5.771   5.140  0.2958 -1.0182  0.5842
 5478SOL    MW421680   3.009   5.748   5.136  0.4347 -0.5542  0.8151
 5479SOL     OW21681   1.210   2.921   5.685 -0.0998 -0.0081 -0.5634
 5479SOL    HW221682   1.271   2.987   5.650  0.0792  0.2778  0.2630
 5479SOL    HW321683   1.199   2.946   5.777 -2.2239  0.5301 -0.9202
 5479SOL    MW421684   1.217   2.933   5.693 -0.3564  0.1006 -0.5015
 5480SOL     OW21685   2.630   3.545   3.064 -0.2955 -1.0303 -0.2117
 5480SOL    HW221686   2.598   3.632   3.088 -1.1770 -1.3151 -0.3194
 5480SOL    HW321687   2.711   3.535   3.113 -0.5308 -0.4106  0.3228
 5480SOL    MW421688   2.636   3.555   3.074 -0.4428 -0.9861 -0.1554
 5481SOL     OW21689   4.385   2.422   2.190  0.1700 -0.8324  0.4053
 5481SOL    HW221690   4.436   2.501   2.206 -0.2233 -0.4932 -0.0127
 5481SOL    HW321691   4.382   2.415   2.095  0.9925 -1.8646  0.4313
 5481SOL    MW421692   4.392   2.431   2.179  0.2266 -0.9238  0.3536
 5482SOL     OW21693   4.382   6.078   0.129  0.3415 -0.2215 -0.5284
 5482SOL    HW221694   4.384   6.156   0.184  1.4743  0.8277 -1.9741
 5482SOL    HW321695   4.429   6.103   0.049  1.2456 -2.5577 -0.8156
 5482SOL    MW421696   4.388   6.091   0.125  0.6103 -0.3913 -0.7570
 5483SOL     OW21697   4.627   5.264   5.347  0.0658  0.4249  0.9032
 5483SOL    HW221698   4.709   5.218   5.327  1.5523  3.4851 -0.8737
 5483SOL    HW321699   4.628   5.275   5.442  2.8014  1.9814  0.8130
 5483SOL    MW421700   4.638   5.260   5.357  0.6229  1.0340  0.6569
 5484SOL     OW21701   3.817   1.544   4.159  0.4519 -0.2286  0.2040
 5484SOL    HW221702   3.862   1.619   4.197 -2.4663  2.4969 -1.2145
 5484SOL    HW321703   3.887   1.485   4.129  2.9075  2.1139  0.9815
 5484SOL    MW421704   3.832   1.546   4.160  0.3909  0.4401  0.1194
 5485SOL     OW21705   1.933   6.029   3.844 -0.2780  0.6263  0.1827
 5485SOL    HW221706   1.902   5.939   3.842 -1.9237  1.1171  1.1883
 5485SOL    HW321707   1.885   6.073   3.774 -1.2432  1.1908  1.1560
 5485SOL    MW421708   1.923   6.023   3.835 -0.6225  0.7655  0.4438
 5486SOL     OW21709   0.528   1.427   4.398  0.1742  0.6175 -0.2471
 5486SOL    HW221710   0.549   1.520   4.391  1.5449  0.2140 -2.1598
 5486SOL    HW321711   0.483   1.406   4.316  1.2828 -0.7166 -0.5551
 5486SOL    MW421712   0.525   1.436   4.387  0.5013  0.3882 -0.5401
 5487SOL     OW21713   3.957   2.920   5.431  0.4631 -0.4241 -0.0099
 5487SOL    HW221714   3.882   2.862   5.417  0.2484 -1.6724  4.6522
 5487SOL    HW321715   3.921   2.995   5.479  1.9026 -0.1159  0.6537
 5487SOL    MW421716   3.942   2.922   5.435  0.6247 -0.5482  0.6928
 5488SOL     OW21717   0.961   5.676   5.422  0.1575 -0.3678 -0.6955
 5488SOL    HW221718   0.963   5.581   5.417  1.1918 -0.3825 -0.0607
 5488SOL    HW321719   0.952   5.704   5.331 -0.1094 -1.0564 -0.8893
 5488SOL    MW421720   0.960   5.667   5.409  0.2587 -0.4606 -0.6373
 5489SOL     OW21721   2.918   3.646   1.944 -0.3730  0.0623 -0.0568
 5489SOL    HW221722   2.991   3.587   1.964 -0.6160 -0.1851  0.1128
 5489SOL    HW321723   2.886   3.674   2.030 -0.0877  0.6515 -0.1442
 5489SOL    MW421724   2.923   3.642   1.958 -0.3674  0.1074 -0.0460
 5490SOL     OW21725   6.009   5.065   2.961 -0.2308  0.0510  0.0211
 5490SOL    HW221726   6.076   5.112   3.011 -0.1938 -0.0279  0.0449
 5490SOL    HW321727   5.981   5.128   2.893 -0.9549  0.5004  0.7146
 5490SOL    MW421728   6.014   5.080   2.958 -0.3215  0.0999  0.1158
 5491SOL     OW21729   4.529   3.857   1.246 -0.1727 -0.5076  0.5664
 5491SOL    HW221730   4.485   3.805   1.180 -1.9437 -0.5738  1.7244
 5491SOL    HW321731   4.598   3.800   1.280 -0.8767 -1.4057  0.5149
 5491SOL    MW421732   4.532   3.842   1.242 -0.4993 -0.6348  0.7124
 5492SOL     OW21733   2.510   1.851   6.180 -0.3147  0.6102 -0.1330
 5492SOL    HW221734   2.449   1.892   6.117  0.7647  0.1430 -1.5332
 5492SOL    HW321735   2.594   1.893   6.162  0.1557 -0.0224  0.5528
 5492SOL    MW421736   2.513   1.862   6.169 -0.1102  0.4651 -0.2272
 5493SOL     OW21737   5.839   0.244   3.028  0.6944  0.0615 -0.5411
 5493SOL    HW221738   5.878   0.262   3.113  0.3576 -0.8738 -0.1772
 5493SOL    HW321739   5.760   0.193   3.048  0.0501  0.7095 -1.3457
 5493SOL    MW421740   5.833   0.240   3.041  0.5649  0.0236 -0.5993
 5494SOL     OW21741   0.037   0.647   4.401  0.3096 -0.0902 -0.0290
 5494SOL    HW221742   0.066   0.690   4.320  0.4746  0.4545  0.3094
 5494SOL    HW321743   0.113   0.598   4.431  0.2006 -0.4196 -0.2809
 5494SOL    MW421744   0.051   0.646   4.394  0.3170 -0.0618 -0.0176
 5495SOL     OW21745   6.121   1.400   2.568  0.0088 -0.2506 -0.9383
 5495SOL    HW221746   6.135   1.326   2.509  1.8794  0.0853 -0.9751
 5495SOL    HW321747   6.182   1.467   2.536  0.0483  0.4364  0.5377
 5495SOL    MW421748   6.131   1.399   2.556  0.2608 -0.1156 -0.7485
 5496SOL     OW21749   5.759   2.691   2.507  0.0824  0.1033 -0.4850
 5496SOL    HW221750   5.802   2.643   2.578 -0.7256 -0.1786 -0.1687
 5496SOL    HW321751   5.755   2.781   2.538 -0.8004 -0.1224  0.1121
 5496SOL    MW421752   5.764   2.696   2.520 -0.1407  0.0363 -0.3645
 5497SOL     OW21753   5.096   1.976   3.180 -0.0460 -0.2777 -0.0969
 5497SOL    HW221754   5.146   1.934   3.110 -0.6970 -0.8021 -0.2532
 5497SOL    HW321755   5.148   2.054   3.202  0.1984 -0.1296 -1.1147
 5497SOL    MW421756   5.110   1.981   3.174 -0.0996 -0.3273 -0.2518
 5498SOL     OW21757   5.039   1.048   2.775 -0.2907  0.3031 -0.0470
 5498SOL    HW221758   5.090   1.127   2.791 -0.7094  0.3650  1.0946
 5498SOL    HW321759   4.970   1.076   2.715 -1.3389  1.2124  1.5131
 5498SOL    MW421760   5.036   1.062   2.769 -0.4842  0.4312  0.3095
 5499SOL     OW21761   4.749   6.352   0.229  0.7540  0.1234  0.2428
 5499SOL    HW221762   4.690   6.334   0.303 -0.0190  0.0758 -0.3732
 5499SOL    HW321763   4.765   6.265   0.190  1.4496  0.1017  0.5586
 5499SOL    MW421764   4.743   6.338   0.234  0.7438  0.1142  0.2032
 5500SOL     OW21765   5.506   5.612   3.443  0.3229 -0.1187  0.6881
 5500SOL    HW221766   5.496   5.519   3.423 -0.2398 -0.1199  0.9486
 5500SOL    HW321767   5.478   5.620   3.534  0.0414  0.3565  0.5625
 5500SOL    MW421768   5.501   5.601   3.452  0.2116 -0.0561  0.7059
 5501SOL     OW21769   1.033   5.946   2.227 -0.1226  0.4728 -0.2386
 5501SOL    HW221770   0.964   6.011   2.244 -2.1096 -1.1321 -1.6945
 5501SOL    HW321771   1.111   5.998   2.208 -0.5961  2.3670  2.4438
 5501SOL    MW421772   1.034   5.962   2.227 -0.4472  0.5110 -0.0767
 5502SOL     OW21773   3.408   1.238   1.024  0.2350  0.1221 -0.4527
 5502SOL    HW221774   3.425   1.156   0.979 -0.2444 -0.1629 -0.1272
 5502SOL    HW321775   3.485   1.251   1.080  1.0973  0.7638 -1.7276
 5502SOL    MW421776   3.421   1.229   1.026  0.2855  0.1692 -0.5780
 5503SOL     OW21777   5.427   1.867   1.085 -0.6229  0.1747  0.1280
 5503SOL    HW221778   5.349   1.921   1.100 -1.0591 -0.2270 -0.6116
 5503SOL    HW321779   5.476   1.915   1.018 -0.1508  0.4998  0.6964
 5503SOL    MW421780   5.423   1.881   1.078 -0.6182  0.1646  0.1054
 5504SOL     OW21781   4.116   5.466   3.286 -0.0126 -0.0984 -0.3021
 5504SOL    HW221782   4.194   5.421   3.318  0.9321 -0.7696 -3.1989
 5504SOL    HW321783   4.052   5.397   3.273 -0.7539  0.3056  1.0009
 5504SOL    MW421784   4.118   5.451   3.288  0.0142 -0.1337 -0.5124
 5505SOL     OW21785   4.744   2.247   5.010  0.1992  0.6824 -0.1740
 5505SOL    HW221786   4.770   2.233   4.919  2.4175  1.0101  0.3453
 5505SOL    HW321787   4.827   2.255   5.057 -0.8881  0.0037  1.9720
 5505SOL    MW421788   4.759   2.246   5.004  0.3484  0.6361  0.1777
 5506SOL     OW21789   0.413   5.795   1.729  0.2901 -0.0043  0.1744
 5506SOL    HW221790   0.445   5.820   1.816  2.5973 -0.1275 -0.5923
 5506SOL    HW321791   0.437   5.703   1.720 -2.6410 -0.9179  0.5196
 5506SOL    MW421792   0.420   5.786   1.740  0.2078 -0.1411  0.1188
 5507SOL     OW21793   4.041   2.482   2.899 -0.0209  0.3703  0.5796
 5507SOL    HW221794   4.103   2.548   2.868 -0.7262  0.1907 -1.3556
 5507SOL    HW321795   3.982   2.467   2.825 -0.1189 -2.1766  1.0724
 5507SOL    MW421796   4.041   2.489   2.885 -0.1269  0.0106  0.3893
 5508SOL     OW21797   1.500   5.687   1.508 -0.1478 -0.2167  0.0293
 5508SOL    HW221798   1.431   5.711   1.570  0.5784 -0.1073  0.8068
 5508SOL    HW321799   1.456   5.628   1.447 -0.6075 -1.3413  1.3708
 5508SOL    MW421800   1.485   5.682   1.508 -0.1127 -0.3506  0.3089
 5509SOL     OW21801   6.347   2.103   4.693  0.1262  0.4338 -0.0924
 5509SOL    HW221802   6.349   2.026   4.751  0.3614 -0.3257 -1.0751
 5509SOL    HW321803   6.258   2.138   4.703 -0.1158 -0.2036  0.0608
 5509SOL    MW421804   6.336   2.097   4.702  0.1253  0.2495 -0.2018
 5510SOL     OW21805   2.684   5.011   3.429 -0.4306 -0.9674  0.1730
 5510SOL    HW221806   2.684   4.926   3.385  2.2734 -0.9155 -0.1044
 5510SOL    HW321807   2.624   5.000   3.502 -0.5527 -2.9553 -0.1574
 5510SOL    MW421808   2.676   4.998   3.433 -0.0900 -1.2228  0.0928
 5511SOL     OW21809   5.535   1.175   3.351 -0.0991 -0.0554  0.4768
 5511SOL    HW221810   5.624   1.202   3.329 -0.0702 -0.0435  0.6049
 5511SOL    HW321811   5.547   1.097   3.405  0.0018  1.7388  3.2885
 5511SOL    MW421812   5.549   1.168   3.355 -0.0820  0.1829  0.8647
 5512SOL     OW21813   1.574   5.086   6.239  0.2780  0.5934 -0.2234
 5512SOL    HW221814   1.601   5.099   6.148  1.6913  0.1413  0.1089
 5512SOL    HW321815   1.590   5.171   6.281  1.1222  0.3537 -0.0489
 5512SOL    MW421816   1.579   5.099   6.232  0.5758  0.5021 -0.1566
 5513SOL     OW21817   4.712   2.499   1.605  0.1791 -0.0971 -0.0394
 5513SOL    HW221818   4.798   2.490   1.565 -0.4131 -0.6959 -1.2354
 5513SOL    HW321819   4.729   2.535   1.692  1.4940  1.5345 -0.9243
 5513SOL    MW421820   4.725   2.503   1.611  0.2744  0.0392 -0.3139
 5514SOL     OW21821   3.700   4.450   2.911  0.4329 -0.2541 -0.1723
 5514SOL    HW221822   3.668   4.369   2.872 -1.4726  0.7321 -0.8106
 5514SOL    HW321823   3.700   4.433   3.005 -2.1089 -0.3662 -0.1146
 5514SOL    MW421824   3.696   4.437   2.919 -0.1539 -0.1387 -0.2489
 5515SOL     OW21825   1.456   2.226   2.200 -0.1331  0.4247  0.5901
 5515SOL    HW221826   1.416   2.224   2.113  0.3221 -0.9831  0.3908
 5515SOL    HW321827   1.421   2.150   2.245  0.6227  0.4168  1.1849
 5515SOL    MW421828   1.446   2.216   2.195  0.0267  0.2379  0.6423
 5516SOL     OW21829   4.073   3.411   1.853  0.1795  0.1650  0.4371
 5516SOL    HW221830   4.037   3.340   1.799  0.1226  0.2153  0.4087
 5516SOL    HW321831   4.027   3.402   1.936 -0.5869  0.8065  0.0962
 5516SOL    MW421832   4.062   3.400   1.857  0.0709  0.2563  0.3884
 5517SOL     OW21833   5.207   0.003   0.030 -0.3302 -0.9012  0.2122
 5517SOL    HW221834   5.146  -0.057   0.072  1.2864 -2.2533  0.7527
 5517SOL    HW321835   5.192   0.087   0.072 -1.2619 -1.3893  0.8859
 5517SOL    MW421836   5.197   0.006   0.041 -0.2398 -1.1440  0.3724
 5518SOL     OW21837   2.926   1.312   4.459 -0.2038  0.2106  0.0870
 5518SOL    HW221838   2.971   1.358   4.530 -2.3302  2.1661  0.2624
 5518SOL    HW321839   2.854   1.266   4.502  0.4345 -1.3675 -0.4346
 5518SOL    MW421840   2.922   1.312   4.474 -0.4001  0.2604  0.0413
 5519SOL     OW21841   3.144   2.598   1.681  0.0696  0.9835 -1.0696
 5519SOL    HW221842   3.125   2.637   1.767 -0.6720 -2.4618  0.5140
 5519SOL    HW321843   3.072   2.536   1.667  2.2824 -1.5108 -2.1655
 5519SOL    MW421844   3.132   2.595   1.691  0.2637  0.1998 -1.0052
 5520SOL     OW21845   3.746   1.005   5.363 -0.1670 -0.2613  0.2258
 5520SOL    HW221846   3.759   1.051   5.446 -0.6670 -1.4544  0.9924
 5520SOL    HW321847   3.792   1.058   5.298  1.2070  0.0893  1.4538
 5520SOL    MW421848   3.754   1.018   5.365 -0.0517 -0.3725  0.4890
 5521SOL     OW21849   1.400   1.108   5.483  0.4907 -0.2175 -0.5097
 5521SOL    HW221850   1.416   1.017   5.508 -0.8005 -0.1105  0.8148
 5521SOL    HW321851   1.402   1.107   5.387  3.8222 -0.9823 -0.5745
 5521SOL    MW421852   1.403   1.096   5.473  0.7599 -0.3043 -0.3435
 5522SOL     OW21853   4.597   1.596   0.594  0.0087  0.0183  0.0063
 5522SOL    HW221854   4.528   1.579   0.658 -0.4459 -1.2119 -0.7742
 5522SOL    HW321855   4.586   1.528   0.528  1.2274  0.5262 -0.7606
 5522SOL    MW421856   4.586   1.585   0.594  0.1095 -0.0770 -0.1979
 5523SOL     OW21857   1.178   1.654   2.479 -0.0949 -0.1031 -0.5449
 5523SOL    HW221858   1.141   1.588   2.420  0.9836 -1.1926 -0.0357
 5523SOL    HW321859   1.259   1.681   2.436  0.3042 -0.3383  0.0580
 5523SOL    MW421860   1.184   1.648   2.465  0.1001 -0.2779 -0.3982
 5524SOL     OW21861   1.002   1.956   3.566 -0.4737 -0.2251  0.5362
 5524SOL    HW221862   0.918   1.992   3.538  0.1051 -0.7686 -2.1333
 5524SOL    HW321863   1.013   1.876   3.515  0.4344 -1.7144  2.8814
 5524SOL    MW421864   0.993   1.950   3.556 -0.2775 -0.4933  0.4934
 5525SOL     OW21865   0.778   5.633   3.819 -0.9037  0.3135  0.5792
 5525SOL    HW221866   0.763   5.562   3.757 -0.0472  0.7684 -0.1673
 5525SOL    HW321867   0.702   5.630   3.877 -0.0519 -2.3088  1.6611
 5525SOL    MW421868   0.766   5.623   3.818 -0.6783  0.0275  0.6235
 5526SOL     OW21869   0.981   1.875   1.572 -0.9845 -0.1133  0.1229
 5526SOL    HW221870   1.055   1.816   1.580  0.5932  1.7037 -0.2704
 5526SOL    HW321871   0.946   1.857   1.485  0.3350  0.4271 -0.5476
 5526SOL    MW421872   0.986   1.865   1.561 -0.6023  0.1977 -0.0175
 5527SOL     OW21873   0.961   5.146   0.926 -0.1432  0.1503 -0.7628
 5527SOL    HW221874   1.029   5.080   0.910  0.0690  0.3197 -0.5645
 5527SOL    HW321875   0.885   5.113   0.880 -0.0079 -0.1865 -0.7486
 5527SOL    MW421876   0.960   5.133   0.918 -0.0973  0.1282 -0.7347
 5528SOL     OW21877   0.906   5.928   4.119 -0.3389  0.5666  0.1721
 5528SOL    HW221878   0.850   5.999   4.149  0.8213  1.5874 -0.0265
 5528SOL    HW321879   0.990   5.943   4.162  0.7171  0.8491 -1.8786
 5528SOL    MW421880   0.909   5.939   4.129 -0.0465  0.7385 -0.1247
 5529SOL     OW21881   4.933   4.725   0.224  0.1181  0.4934 -0.0560
 5529SOL    HW221882   4.965   4.808   0.260  0.1098  0.5868 -0.2635
 5529SOL    HW321883   5.003   4.662   0.241 -0.9091 -0.0834  2.4469
 5529SOL    MW421884   4.946   4.728   0.231 -0.0186  0.4297  0.2468
 5530SOL     OW21885   1.335   1.809   4.260  0.5111  0.3066 -0.3129
 5530SOL    HW221886   1.345   1.880   4.324  0.7507 -0.5479  0.6324
 5530SOL    HW321887   1.298   1.851   4.183  0.5625  1.4404  0.2576
 5530SOL    MW421888   1.332   1.824   4.259  0.5495  0.3434 -0.1129
 5531SOL     OW21889   5.455   3.476   1.565 -0.6853 -0.0684  0.1560
 5531SOL    HW221890   5.548   3.455   1.563 -0.7936 -0.4797 -1.4561
 5531SOL    HW321891   5.420   3.420   1.634  0.5596  1.5915  2.2646
 5531SOL    MW421892   5.462   3.466   1.574 -0.5353  0.0964  0.2215
 5532SOL     OW21893   4.155   5.324   3.953  0.1220 -0.1991  0.4319
 5532SOL    HW221894   4.110   5.406   3.973 -1.4774 -1.1971  1.1457
 5532SOL    HW321895   4.237   5.329   4.001  1.0342  1.8422 -1.2194
 5532SOL    MW421896   4.160   5.335   3.962  0.0313 -0.0614  0.3082
 5533SOL     OW21897   4.557   0.253   3.868 -0.6112 -0.0112 -0.4488
 5533SOL    HW221898   4.487   0.318   3.860 -0.3116  0.4307  0.3790
 5533SOL    HW321899   4.538   0.207   3.950  0.8304  1.0906  0.5745
 5533SOL    MW421900   4.545   0.256   3.878 -0.3814  0.1925 -0.2045
 5534SOL     OW21901   1.373   1.590   0.528  0.5635  0.4355  0.0002
 5534SOL    HW221902   1.457   1.580   0.573  0.1851  0.2835  0.6996
 5534SOL    HW321903   1.361   1.507   0.481  1.8187  1.2988 -1.9083
 5534SOL    MW421904   1.382   1.577   0.528  0.6792  0.5294 -0.1594
 5535SOL     OW21905   5.187   5.009   5.269  0.4095  0.1437 -0.0059
 5535SOL    HW221906   5.144   4.961   5.198 -2.4236 -2.1285  2.9043
 5535SOL    HW321907   5.205   4.943   5.335 -0.8805  2.5793  3.0467
 5535SOL    MW421908   5.183   4.994   5.268 -0.1345  0.1653  0.7808
 5536SOL     OW21909   3.584   5.817   2.918 -0.4807  0.1064 -0.6298
 5536SOL    HW221910   3.640   5.769   2.857 -0.7132 -0.5565 -0.3414
 5536SOL    HW321911   3.546   5.748   2.973 -0.3359  0.6891  0.2060
 5536SOL    MW421912   3.586   5.801   2.917 -0.4922  0.0958 -0.4815
 5537SOL     OW21913   3.504   0.753   5.006  0.3041 -0.1597 -0.6787
 5537SOL    HW221914   3.457   0.778   5.085  2.1184  1.6336 -0.0673
 5537SOL    HW321915   3.566   0.686   5.035  0.8360  0.3600 -0.5799
 5537SOL    MW421916   3.506   0.747   5.020  0.6136  0.1455 -0.5850
 5538SOL     OW21917   6.444   3.747   5.823  0.2171 -0.5726 -0.0959
 5538SOL    HW221918   6.414   3.672   5.772  0.4108 -0.5715 -0.2136
 5538SOL    HW321919   6.384   3.818   5.799 -0.3466 -0.8446  0.4779
 5538SOL    MW421920   6.432   3.747   5.813  0.1683 -0.6084 -0.0358
 5539SOL     OW21921   3.718   5.159   2.678 -0.1457  0.6915  0.8384
 5539SOL    HW221922   3.756   5.183   2.763 -0.7502 -0.8253  1.5637
 5539SOL    HW321923   3.625   5.148   2.695  0.1110 -2.5067  0.6995
 5539SOL    MW421924   3.711   5.161   2.691 -0.1915  0.0694  0.9158
 5540SOL     OW21925   1.046   3.143   4.703  0.2918  0.3316 -0.1763
 5540SOL    HW221926   1.087   3.114   4.621  1.8653  0.6023  0.4787
 5540SOL    HW321927   0.990   3.070   4.728  2.3451 -1.2195  0.1901
 5540SOL    MW421928   1.044   3.129   4.695  0.7703  0.1627 -0.0415
 5541SOL     OW21929   0.503   6.078   6.121 -0.4772 -0.3130 -0.3594
 5541SOL    HW221930   0.565   6.088   6.049 -0.8811 -0.3653 -0.7238
 5541SOL    HW321931   0.512   6.158   6.172  0.2001 -0.5154 -0.1629
 5541SOL    MW421932   0.512   6.090   6.118 -0.4411 -0.3466 -0.3815
 5542SOL     OW21933   0.302   6.134   5.804 -0.0324 -0.6834  0.4566
 5542SOL    HW221934   0.391   6.168   5.815  0.6222 -1.6946 -1.3212
 5542SOL    HW321935   0.305   6.048   5.846  0.2512 -1.2912 -0.7654
 5542SOL    MW421936   0.314   6.127   5.811  0.0914 -0.8970  0.0608
 5543SOL     OW21937   2.294   2.459   4.911 -0.1127  0.0844 -0.0906
 5543SOL    HW221938   2.216   2.413   4.944  0.0388  0.3763  0.6890
 5543SOL    HW321939   2.366   2.419   4.959  0.2727 -0.4371 -1.0720
 5543SOL    MW421940   2.293   2.447   4.921 -0.0418  0.0541 -0.1172
 5544SOL     OW21941   1.909   1.318   5.303 -0.0008 -0.1424  0.0021
 5544SOL    HW221942   1.880   1.370   5.229 -2.2969 -1.1170  0.1599
 5544SOL    HW321943   1.937   1.235   5.265  0.0120 -0.1866  0.1065
 5544SOL    MW421944   1.909   1.314   5.288 -0.3021 -0.2768  0.0367
 5545SOL     OW21945   1.550   5.870   1.281  0.3763 -0.2992  0.1927
 5545SOL    HW221946   1.543   5.825   1.366 -0.9619 -1.4303 -0.4799
 5545SOL    HW321947   1.462   5.901   1.263  0.4458 -0.8205 -1.1698
 5545SOL    MW421948   1.537   5.868   1.290  0.2089 -0.5172 -0.0758
 5546SOL     OW21949   1.653   3.605   3.414 -0.0789  0.3465  0.4086
 5546SOL    HW221950   1.612   3.676   3.464 -0.0682 -0.4597  1.6238
 5546SOL    HW321951   1.650   3.530   3.474 -1.3375 -1.0567 -1.3181
 5546SOL    MW421952   1.647   3.604   3.429 -0.2435  0.0550  0.3411
 5547SOL     OW21953   3.981   3.680   1.102 -0.0724 -0.4462 -0.3585
 5547SOL    HW221954   4.015   3.760   1.140 -1.2279 -0.8054  1.5611
 5547SOL    HW321955   4.052   3.617   1.110 -0.3730 -0.5913  1.5660
 5547SOL    MW421956   3.995   3.682   1.108 -0.2645 -0.5128  0.1487
 5548SOL     OW21957   6.418   0.804   2.798  0.4837 -1.0168  0.4545
 5548SOL    HW221958   6.334   0.763   2.778 -0.7333  0.0025  2.9901
 5548SOL    HW321959   6.402   0.898   2.793  2.1155 -0.7709 -1.1994
 5548SOL    MW421960   6.405   0.811   2.795  0.5385 -0.8499  0.5708
 5549SOL     OW21961   2.363   1.712   1.636  0.1646 -0.3071 -0.1211
 5549SOL    HW221962   2.374   1.805   1.655  2.5800 -0.5141 -0.1671
 5549SOL    HW321963   2.400   1.667   1.711 -0.0993 -1.2376 -0.5322
 5549SOL    MW421964   2.369   1.718   1.648  0.4485 -0.4572 -0.1814
 5550SOL     OW21965   5.643   3.547   6.405  0.4382 -0.7255 -0.5309
 5550SOL    HW221966   5.638   3.585   6.318  2.6907 -0.3277 -0.5374
 5550SOL    HW321967   5.694   3.611   6.456 -1.6530 -0.4531  1.3932
 5550SOL    MW421968   5.649   3.561   6.401  0.4595 -0.6371 -0.2779
 5551SOL     OW21969   5.412   0.038   4.524  0.0385  0.0766  0.4421
 5551SOL    HW221970   5.456   0.030   4.439  1.0952  0.0622  0.9793
 5551SOL    HW321971   5.461  -0.019   4.582 -0.6339  0.1434  1.0891
 5551SOL    MW421972   5.424   0.030   4.520  0.0892  0.0835  0.5983
 5552SOL     OW21973   1.607   5.043   5.597  0.3985 -0.1010  0.5194
 5552SOL    HW221974   1.679   5.069   5.539 -1.6511  1.0754 -1.7161
 5552SOL    HW321975   1.562   5.125   5.617 -0.6615 -0.8601  1.3657
 5552SOL    MW421976   1.610   5.057   5.592 -0.0118 -0.0459  0.3361
 5553SOL     OW21977   1.628   5.567   5.632  0.1950 -0.5783 -0.3902
 5553SOL    HW221978   1.565   5.638   5.620  1.3727  1.0533  2.0733
 5553SOL    HW321979   1.697   5.586   5.569  0.1409  0.0551 -0.2687
 5553SOL    MW421980   1.629   5.579   5.622  0.3432 -0.2794 -0.0491
 5554SOL     OW21981   1.819   4.808   0.495 -0.4312  0.1808 -0.5595
 5554SOL    HW221982   1.812   4.758   0.414 -3.1882 -2.4750  1.1067
 5554SOL    HW321983   1.763   4.885   0.481  0.0592  0.3751 -1.5314
 5554SOL    MW421984   1.810   4.812   0.483 -0.7303 -0.1440 -0.4679
 5555SOL     OW21985   5.968   4.523   5.659 -0.0553  0.0003  0.0486
 5555SOL    HW221986   5.956   4.565   5.574 -2.0470  0.5061  0.5226
 5555SOL    HW321987   6.049   4.473   5.650 -0.9827 -1.2045 -2.6668
 5555SOL    MW421988   5.977   4.522   5.647 -0.4405 -0.0919 -0.2471
 5556SOL     OW21989   4.436   3.043   2.456  0.4335  0.9070 -0.5544
 5556SOL    HW221990   4.527   3.014   2.452 -0.3987 -1.8013 -3.6966
 5556SOL    HW321991   4.430   3.115   2.393  0.5501  1.8292  0.4488
 5556SOL    MW421992   4.447   3.049   2.447  0.3391  0.6714 -0.8366
 5557SOL     OW21993   2.154   0.404   2.144 -0.3859  0.1623 -0.5594
 5557SOL    HW221994   2.107   0.464   2.085 -0.6834 -0.8860 -1.4197
 5557SOL    HW321995   2.122   0.427   2.231  0.6975  2.3117 -0.6775
 5557SOL    MW421996   2.143   0.415   2.147 -0.2822  0.3076 -0.6885
 5558SOL     OW21997   4.931   0.234   1.511  0.3888 -0.1905 -0.2049
 5558SOL    HW221998   4.911   0.147   1.477  0.9440 -0.5729  0.4223
 5558SOL    HW321999   4.846   0.269   1.540  0.2702 -0.8281  0.2310
 5558SOL    MW422000   4.917   0.227   1.511  0.4464 -0.3251 -0.0647
 5559SOL     OW22001   2.523   1.565   0.214 -0.0531 -0.3466  0.5716
 5559SOL    HW222002   2.560   1.575   0.302  0.2696  0.3484  0.3593
 5559SOL    HW322003   2.471   1.644   0.200 -1.3391 -1.1284  0.7091
 5559SOL    MW422004   2.521   1.577   0.224 -0.1802 -0.3581  0.5617
 5560SOL     OW22005   3.243   1.302   4.710  0.0031  0.2029  0.4107
 5560SOL    HW222006   3.290   1.280   4.630 -0.3096 -2.9983  0.9761
 5560SOL    HW322007   3.312   1.318   4.775  0.3227 -1.2742  0.4616
 5560SOL    MW422008   3.258   1.302   4.708  0.0040 -0.4144  0.4920
 5561SOL     OW22009   1.868   2.725   4.911  0.3597  0.6905 -0.6286
 5561SOL    HW222010   1.875   2.799   4.971  1.7040  0.2245 -0.1860
 5561SOL    HW322011   1.958   2.701   4.890 -0.0517 -0.4863 -1.1809
 5561SOL    MW422012   1.880   2.731   4.916  0.4828  0.4737 -0.6430
 5562SOL     OW22013   3.807   2.501   0.780 -0.0869 -0.5112 -0.1885
 5562SOL    HW222014   3.761   2.543   0.707  1.0383  1.0623 -0.0391
 5562SOL    HW322015   3.773   2.543   0.858  0.5722 -0.3449  0.0164
 5562SOL    MW422016   3.796   2.512   0.781  0.1485 -0.2817 -0.1417
 5563SOL     OW22017   1.020   2.472   0.243 -0.1965  0.0299  0.0217
 5563SOL    HW222018   1.022   2.488   0.338 -0.6161  1.6886 -0.2146
 5563SOL    HW322019   0.927   2.464   0.222 -0.3386  2.4326 -0.6071
 5563SOL    MW422020   1.008   2.473   0.253 -0.2706  0.5657 -0.0924
 5564SOL     OW22021   0.716   1.171   5.391  0.4255  0.1109 -0.0157
 5564SOL    HW222022   0.702   1.265   5.379  1.5486  0.1524 -1.2354
 5564SOL    HW322023   0.639   1.141   5.439 -1.1173  1.2444 -1.6542
 5564SOL    MW422024   0.704   1.179   5.396  0.3702  0.2659 -0.3928
 5565SOL     OW22025   2.738   3.400   4.019  0.0789 -0.0477  0.1226
 5565SOL    HW222026   2.725   3.470   3.956 -1.1798  0.5675  1.0238
 5565SOL    HW322027   2.651   3.381   4.054  0.6818 -0.5638  1.4583
 5565SOL    MW422028   2.725   3.407   4.016 -0.0076 -0.0346  0.4177
 5566SOL     OW22029   0.513   0.349   5.302 -0.0342  0.7827  0.3650
 5566SOL    HW222030   0.586   0.411   5.303 -1.4572  2.5802 -0.6671
 5566SOL    HW322031   0.457   0.377   5.375 -0.0714 -0.1207  0.6978
 5566SOL    MW422032   0.515   0.361   5.312 -0.2269  0.9007  0.2727
 5567SOL     OW22033   4.490   2.665   2.252 -0.0994  0.0452 -0.6557
 5567SOL    HW222034   4.458   2.709   2.330  0.3746 -0.0789 -0.3896
 5567SOL    HW322035   4.520   2.736   2.195  0.9272  0.0658 -0.1112
 5567SOL    MW422036   4.490   2.680   2.254  0.0986  0.0316 -0.5488
 5568SOL     OW22037   0.773   6.107   4.279  0.1682 -0.0492 -0.4769
 5568SOL    HW222038   0.790   6.051   4.354  2.5626  0.0431 -0.8791
 5568SOL    HW322039   0.699   6.162   4.306  0.1285 -0.9004  1.2785
 5568SOL    MW422040   0.765   6.106   4.292  0.4789 -0.1493 -0.2983
 5569SOL     OW22041   2.501   1.058   0.805 -0.1438 -0.0977 -0.1625
 5569SOL    HW222042   2.580   1.071   0.858 -0.6911 -2.5540  1.4438
 5569SOL    HW322043   2.524   0.987   0.746 -1.3058 -1.2818  0.7653
 5569SOL    MW422044   2.514   1.050   0.805 -0.3693 -0.5780  0.1718
 5570SOL     OW22045   5.343   2.949   3.686 -0.7734 -0.3267  0.0838
 5570SOL    HW222046   5.323   2.860   3.659  1.0817 -0.8721  0.3466
 5570SOL    HW322047   5.391   2.939   3.769  0.6069  0.8029 -0.5277
 5570SOL    MW422048   5.347   2.936   3.694 -0.3465 -0.2496  0.0378
 5571SOL     OW22049   1.980   1.848   4.546 -0.0654  0.0790 -0.0911
 5571SOL    HW222050   1.924   1.792   4.600 -0.2655  0.1110 -0.2619
 5571SOL    HW322051   1.930   1.929   4.537  0.1310  0.2081 -0.0176
 5571SOL    MW422052   1.966   1.851   4.552 -0.0659  0.1003 -0.1039
 5572SOL     OW22053   0.500   1.024   2.369 -0.1555 -0.6590 -0.9251
 5572SOL    HW222054   0.526   1.111   2.339  1.1718 -1.3197 -1.7969
 5572SOL    HW322055   0.461   1.039   2.455  0.3391  0.7581 -0.9244
 5572SOL    MW422056   0.498   1.037   2.377  0.0849 -0.5592 -1.0400
 5573SOL     OW22057   1.145   2.721   5.050 -0.5021 -0.1056 -0.3581
 5573SOL    HW222058   1.118   2.810   5.074 -0.5703 -0.4612  0.9626
 5573SOL    HW322059   1.088   2.664   5.101 -1.0078 -0.9414 -1.8012
 5573SOL    MW422060   1.134   2.725   5.060 -0.5778 -0.2628 -0.3742
 5574SOL     OW22061   0.144   1.308   4.350 -0.1573 -0.0564  0.0160
 5574SOL    HW222062   0.055   1.292   4.383 -0.2413  1.7656  0.7602
 5574SOL    HW322063   0.198   1.316   4.429  0.3678  0.4563 -0.3894
 5574SOL    MW422064   0.139   1.307   4.365 -0.0991  0.2516  0.0607
 5575SOL     OW22065   3.139   4.326   1.282  0.6364  0.2720  0.9431
 5575SOL    HW222066   3.234   4.321   1.297  0.6379 -2.1367  0.5866
 5575SOL    HW322067   3.101   4.322   1.370  0.8635 -0.4514  1.0170
 5575SOL    MW422068   3.146   4.325   1.296  0.6666 -0.1412  0.9058
 5576SOL     OW22069   2.419   2.432   3.898  0.1866  0.4188  0.3181
 5576SOL    HW222070   2.369   2.420   3.817  1.9957 -1.5068 -0.6063
 5576SOL    HW322071   2.376   2.505   3.943 -2.7906 -0.4813 -0.8644
 5576SOL    MW422072   2.407   2.440   3.893  0.0325  0.0460  0.0401
 5577SOL     OW22073   0.611   0.178   4.050 -0.3115 -0.0075 -0.4184
 5577SOL    HW222074   0.702   0.195   4.075 -0.4091  1.4673 -0.9497
 5577SOL    HW322075   0.561   0.197   4.129 -0.0182 -3.6947  0.8485
 5577SOL    MW422076   0.616   0.183   4.064 -0.2857 -0.2994 -0.3213
 5578SOL     OW22077   2.144   4.481   3.723 -0.0093  0.0940 -0.0843
 5578SOL    HW222078   2.187   4.519   3.800  1.0188 -1.0043 -0.0741
 5578SOL    HW322079   2.166   4.388   3.728 -1.5792 -0.3445 -0.6559
 5578SOL    MW422080   2.153   4.473   3.734 -0.0808 -0.1087 -0.1584
 5579SOL     OW22081   1.732   4.807   4.863 -0.1381 -0.4586 -0.3814
 5579SOL    HW222082   1.676   4.836   4.791 -1.4352 -0.5966  0.5361
 5579SOL    HW322083   1.753   4.887   4.912 -1.0527 -0.6294  0.3093
 5579SOL    MW422084   1.728   4.821   4.860 -0.4299 -0.4994 -0.1692
 5580SOL     OW22085   3.002   1.087   2.612 -0.0250 -0.5206  0.4355
 5580SOL    HW222086   2.973   1.023   2.677 -0.2274 -1.4100 -0.5032
 5580SOL    HW322087   3.095   1.068   2.600 -0.2575 -1.1689 -0.4119
 5580SOL    MW422088   3.011   1.076   2.619 -0.0824 -0.7235  0.1999
 5581SOL     OW22089   5.443   5.489   2.401  0.1500 -0.3374  0.1322
 5581SOL    HW222090   5.356   5.469   2.367 -0.2601 -0.1182  0.9961
 5581SOL    HW322091   5.445   5.584   2.408 -0.4096 -0.4146  2.1850
 5581SOL    MW422092   5.432   5.499   2.398  0.0221 -0.3186  0.5170
 5582SOL     OW22093   3.697   6.263   0.628 -0.3684  0.1861 -0.7717
 5582SOL    HW222094   3.788   6.237   0.610 -0.5710 -0.2026 -1.2288
 5582SOL    HW322095   3.705   6.323   0.703 -0.0474 -2.7467  1.7659
 5582SOL    MW422096   3.710   6.268   0.636 -0.3528 -0.2521 -0.4972
 5583SOL     OW22097   4.443   0.431   2.097 -0.0201 -0.5651  0.0099
 5583SOL    HW222098   4.428   0.413   2.189  3.7672 -1.9570  0.5061
 5583SOL    HW322099   4.425   0.348   2.053 -1.6820  0.0559 -0.5784
 5583SOL    MW422100   4.439   0.418   2.103  0.2603 -0.6668 -0.0023
 5584SOL     OW22101   1.502   5.294   3.412 -0.0153 -0.7897 -0.4059
 5584SOL    HW222102   1.494   5.271   3.504  0.5591  1.3357  0.2379
 5584SOL    HW322103   1.579   5.351   3.408  1.3270 -2.5723 -2.5884
 5584SOL    MW422104   1.511   5.299   3.424  0.2376 -0.7445 -0.6089
 5585SOL     OW22105   1.441   5.259   0.385 -0.2887  0.4408  0.3168
 5585SOL    HW222106   1.520   5.233   0.339 -0.4030  0.0562  0.3341
 5585SOL    HW322107   1.391   5.178   0.394 -0.5591  0.6317  0.5449
 5585SOL    MW422108   1.445   5.245   0.380 -0.3394  0.4153  0.3492
 5586SOL     OW22109   0.130   3.034   4.154  0.6412  0.1529  0.6962
 5586SOL    HW222110   0.069   3.107   4.155 -0.4750 -0.6441 -1.6267
 5586SOL    HW322111   0.177   3.043   4.071  0.9850 -1.3314  0.6993
 5586SOL    MW422112   0.128   3.045   4.143  0.5393 -0.1481  0.3901
 5587SOL     OW22113   3.660   2.611   0.302 -0.1663  0.2118 -0.0455
 5587SOL    HW222114   3.725   2.568   0.247 -0.3576  0.4974 -0.4993
 5587SOL    HW322115   3.687   2.703   0.302 -0.6277  0.3466 -0.3177
 5587SOL    MW422116   3.672   2.617   0.295 -0.2524  0.2673 -0.1413
 5588SOL     OW22117   1.207   2.207   4.114  0.4574  0.1205 -0.5010
 5588SOL    HW222118   1.120   2.173   4.134  0.1752  1.4497  0.6811
 5588SOL    HW322119   1.227   2.173   4.027  0.2349 -3.0585  0.5782
 5588SOL    MW422120   1.199   2.198   4.105  0.3908 -0.1236 -0.2026
 5589SOL     OW22121   3.372   1.994   3.887  0.1503  0.1746  0.1420
 5589SOL    HW222122   3.363   1.912   3.837  0.0336 -0.5806  1.3582
 5589SOL    HW322123   3.466   2.011   3.889  0.0387  1.8514 -2.8163
 5589SOL    MW422124   3.383   1.985   3.880  0.1201  0.2962 -0.0878
 5590SOL     OW22125   6.120   0.399   2.183  0.5909 -0.0772  0.4673
 5590SOL    HW222126   6.130   0.430   2.273  1.6390  0.6389  0.1225
 5590SOL    HW322127   6.168   0.316   2.180  0.4675 -0.1525  0.5953
 5590SOL    MW422128   6.128   0.392   2.194  0.7129  0.0073  0.4387
 5591SOL     OW22129   3.580   1.055   0.893  0.6657  0.2389  0.7783
 5591SOL    HW222130   3.540   0.987   0.948  2.3259 -0.0069  1.7479
 5591SOL    HW322131   3.593   1.012   0.808 -2.8276  0.9189 -0.2730
 5591SOL    MW422132   3.576   1.040   0.889  0.4238  0.2962  0.7675
 5592SOL     OW22133   1.462   4.932   3.841 -0.4828  0.6026 -0.1911
 5592SOL    HW222134   1.395   4.905   3.903 -0.3213  0.1774 -0.1999
 5592SOL    HW322135   1.536   4.873   3.857 -0.3949  0.5651 -0.7001
 5592SOL    MW422136   1.463   4.921   3.851 -0.4499  0.5415 -0.2595
 5593SOL     OW22137   0.917   5.239   3.899  0.2680  0.2606 -0.9023
 5593SOL    HW222138   0.822   5.239   3.904  0.2636  2.6142  0.7542
 5593SOL    HW322139   0.936   5.274   3.812 -0.4169  1.0362 -0.7474
 5593SOL    MW422140   0.907   5.244   3.888  0.1770  0.6735 -0.6633
 5594SOL     OW22141   2.856   5.397   2.960  0.4197 -0.1878  0.0527
 5594SOL    HW222142   2.919   5.440   2.902  0.6423 -0.6154 -0.0274
 5594SOL    HW322143   2.907   5.376   3.039  0.5818 -1.2127 -0.3057
 5594SOL    MW422144   2.871   5.400   2.963  0.4705 -0.3794 -0.0052
 5595SOL     OW22145   3.226   5.255   5.888 -0.7391 -0.5543  0.7554
 5595SOL    HW222146   3.202   5.264   5.796  0.4980 -1.8703  0.2681
 5595SOL    HW322147   3.142   5.257   5.935 -1.5589 -1.9283 -0.5786
 5595SOL    MW422148   3.212   5.257   5.882 -0.6840 -0.9092  0.5151
 5596SOL     OW22149   6.010   5.575   4.584 -0.5076 -0.4001  0.3414
 5596SOL    HW222150   6.078   5.554   4.520 -0.7686  2.6587 -1.1423
 5596SOL    HW322151   5.929   5.580   4.532 -0.4588  3.8931  0.2704
 5596SOL    MW422152   6.008   5.573   4.568 -0.5356  0.5699  0.1363
 5597SOL     OW22153   1.741   3.306   1.695 -0.3714 -0.0123 -0.5602
 5597SOL    HW222154   1.729   3.397   1.668  0.6089  0.6817  1.1579
 5597SOL    HW322155   1.673   3.258   1.649 -0.9651  1.5966 -1.4499
 5597SOL    MW422156   1.730   3.312   1.686 -0.3204  0.2916 -0.4509
 5598SOL     OW22157   3.409   4.820   5.174 -0.0761 -0.0033 -0.0556
 5598SOL    HW222158   3.361   4.788   5.251  0.9938  0.3498  0.7882
 5598SOL    HW322159   3.404   4.915   5.181  1.0192  0.0386  0.2303
 5598SOL    MW422160   3.402   4.829   5.185  0.2096  0.0488  0.0934
 5599SOL     OW22161   5.663   3.064   0.201 -0.9882 -0.0360 -0.2280
 5599SOL    HW222162   5.717   3.009   0.258 -0.4759 -0.9761 -1.5896
 5599SOL    HW322163   5.622   3.003   0.140 -3.0524  0.7363  0.3036
 5599SOL    MW422164   5.665   3.049   0.201 -1.1929 -0.0581 -0.3375
 5600SOL     OW22165   5.202   6.297   1.363  0.1836 -0.0639 -0.3275
 5600SOL    HW222166   5.164   6.308   1.276 -1.7560 -0.2577  0.4356
 5600SOL    HW322167   5.249   6.378   1.379  0.3758  0.0633 -1.4646
 5600SOL    MW422168   5.203   6.309   1.354 -0.0469 -0.0727 -0.3769
 5601SOL     OW22169   2.638   3.605   4.859 -0.5764 -0.2631  0.3548
 5601SOL    HW222170   2.604   3.530   4.811 -0.3408  1.2807 -2.4164
 5601SOL    HW322171   2.732   3.606   4.839 -0.9745  2.2054 -1.9580
 5601SOL    MW422172   2.646   3.595   4.850 -0.5979  0.2663 -0.3159
 5602SOL     OW22173   6.199   3.158   3.498 -0.3192  0.4802  0.4212
 5602SOL    HW222174   6.264   3.170   3.429  1.1091  0.5298  1.7370
 5602SOL    HW322175   6.223   3.223   3.564  0.7909 -2.1086  2.7354
 5602SOL    MW422176   6.211   3.168   3.497  0.0157  0.1452  0.9001
 5603SOL     OW22177   1.305   1.372   3.153 -0.1771  0.5061 -0.1440
 5603SOL    HW222178   1.382   1.412   3.194 -0.6980  0.2843  1.1087
 5603SOL    HW322179   1.274   1.436   3.090  1.5809  0.2045 -1.3603
 5603SOL    MW422180   1.311   1.386   3.150 -0.0139  0.4370 -0.1392
 5604SOL     OW22181   4.706   1.563   5.969  0.0462 -0.4187  0.0791
 5604SOL    HW222182   4.763   1.486   5.965  2.0305  1.0378 -2.2170
 5604SOL    HW322183   4.708   1.599   5.881 -2.1745  1.3730  0.6581
 5604SOL    MW422184   4.714   1.558   5.957  0.0150  0.0099 -0.1475
 5605SOL     OW22185   4.960   5.670   5.326 -0.2330  0.6146  0.0102
 5605SOL    HW222186   4.919   5.660   5.240 -0.6503  0.0344  0.2707
 5605SOL    HW322187   5.048   5.635   5.314  0.2412  1.9346 -0.5699
 5605SOL    MW422188   4.966   5.664   5.313 -0.2255  0.7122 -0.0320
 5606SOL     OW22189   3.102   2.664   0.137  0.2191 -0.7220  0.3666
 5606SOL    HW222190   3.153   2.586   0.117  0.0478 -0.8872  0.5756
 5606SOL    HW322191   3.167   2.734   0.145  0.5544 -1.1902  2.0046
 5606SOL    MW422192   3.117   2.663   0.135  0.2407 -0.8056  0.6103
 5607SOL     OW22193   3.912   1.635   3.381 -0.3330 -0.1314 -0.5970
 5607SOL    HW222194   3.868   1.570   3.326  0.0941 -2.1923  1.3476
 5607SOL    HW322195   3.975   1.677   3.323 -2.1813  0.2327 -2.4808
 5607SOL    MW422196   3.914   1.632   3.366 -0.5205 -0.3553 -0.5889
 5608SOL     OW22197   3.011   1.349   3.669 -0.1443 -0.3210  0.2541
 5608SOL    HW222198   3.046   1.319   3.585 -1.5976 -2.5844  0.3585
 5608SOL    HW322199   2.917   1.331   3.663 -0.5540  1.1055  1.7349
 5608SOL    MW422200   3.003   1.342   3.657 -0.3901 -0.4314  0.4633
 5609SOL     OW22201   2.750   3.640   0.947 -0.2011 -0.5559  0.1177
 5609SOL    HW222202   2.806   3.699   0.998 -1.4910  0.1092  0.7920
 5609SOL    HW322203   2.762   3.554   0.989 -0.7565 -0.1396  1.1666
 5609SOL    MW422204   2.759   3.636   0.959 -0.4446 -0.4132  0.3451
 5610SOL     OW22205   0.295   6.194   5.169  0.0047 -0.1295  0.0843
 5610SOL    HW222206   0.237   6.173   5.242 -0.4981 -1.6152 -0.7038
 5610SOL    HW322207   0.328   6.110   5.139  1.7500  0.6033 -0.1920
 5610SOL    MW422208   0.291   6.180   5.175  0.1686 -0.2289 -0.0561
 5611SOL     OW22209   3.513   3.938   4.985  0.1293 -0.5406  0.4024
 5611SOL    HW222210   3.434   3.885   4.995 -0.0812 -1.2551 -3.5507
 5611SOL    HW322211   3.584   3.879   5.011 -0.4479 -0.4262  2.4288
 5611SOL    MW422212   3.512   3.923   4.989  0.0254 -0.6198  0.1482
 5612SOL     OW22213   3.777   4.945   4.908 -0.1264 -0.4914 -0.2521
 5612SOL    HW222214   3.776   4.901   4.823  0.0299 -0.2482 -0.3845
 5612SOL    HW322215   3.775   4.875   4.973  0.3301 -0.6966 -0.4603
 5612SOL    MW422216   3.777   4.930   4.905 -0.0455 -0.4864 -0.2970
 5613SOL     OW22217   3.787   5.209   5.987  0.7642  0.5361  0.4057
 5613SOL    HW222218   3.802   5.254   6.071  2.0662  1.1331 -0.1160
 5613SOL    HW322219   3.740   5.273   5.934  1.2553  0.7236  0.1881
 5613SOL    MW422220   3.783   5.224   5.991  1.0008  0.6396  0.3081
 5614SOL     OW22221   4.631   5.076   6.152 -0.1521  0.7439 -0.3113
 5614SOL    HW222222   4.637   4.986   6.121 -1.3274  0.4409  0.3030
 5614SOL    HW322223   4.702   5.122   6.106  2.5566 -1.1224  1.6647
 5614SOL    MW422224   4.641   5.070   6.142  0.0502  0.4577  0.0304
 5615SOL     OW22225   2.398   0.084   0.794 -0.0032  0.0123  0.3075
 5615SOL    HW222226   2.309   0.118   0.790  0.2562  0.9221  1.5691
 5615SOL    HW322227   2.454   0.162   0.788  0.7058 -0.5273 -0.2854
 5615SOL    MW422228   2.394   0.099   0.793  0.1246  0.0611  0.3958
 5616SOL     OW22229   0.223   3.564   0.291  0.2679 -0.3986 -0.5826
 5616SOL    HW222230   0.220   3.660   0.294 -3.9496 -0.3703  1.5676
 5616SOL    HW322231   0.157   3.540   0.227 -0.2444 -1.8546  0.4447
 5616SOL    MW422232   0.214   3.574   0.283 -0.3562 -0.5870 -0.1634
 5617SOL     OW22233   1.626   4.477   1.187 -0.0896  0.3165 -0.0079
 5617SOL    HW222234   1.574   4.463   1.267 -0.3629  0.3469 -0.1806
 5617SOL    HW322235   1.621   4.571   1.171 -2.0382  0.0056 -1.4108
 5617SOL    MW422236   1.619   4.487   1.196 -0.3827  0.2795 -0.2158
 5618SOL     OW22237   1.241   2.514   4.046 -0.1991  0.3577 -0.1248
 5618SOL    HW222238   1.157   2.504   4.002 -0.6723  2.1398  0.3274
 5618SOL    HW322239   1.230   2.467   4.129  0.3510 -2.1003 -1.3459
 5618SOL    MW422240   1.229   2.506   4.051 -0.1889  0.2685 -0.2262
 5619SOL     OW22241   0.073   3.438   5.435 -0.3377  0.6288 -0.2419
 5619SOL    HW222242   0.034   3.468   5.353 -0.6250  1.1090  0.0627
 5619SOL    HW322243   0.153   3.489   5.444 -0.5672  0.9481  0.0245
 5619SOL    MW422244   0.078   3.449   5.425 -0.4059  0.7343 -0.1666
 5620SOL     OW22245   1.762   5.514   0.911 -0.2789 -0.0637 -0.3288
 5620SOL    HW222246   1.741   5.539   1.001 -0.5663  0.4247 -0.5274
 5620SOL    HW322247   1.780   5.420   0.916 -0.2899 -0.0408  0.2379
 5620SOL    MW422248   1.762   5.505   0.924 -0.3183  0.0037 -0.2802
 5621SOL     OW22249   2.807   5.687   3.914 -0.3873 -0.1919  0.3903
 5621SOL    HW222250   2.818   5.616   3.851  2.5431  0.0850  0.4844
 5621SOL    HW322251   2.723   5.668   3.957 -1.2251 -1.7773 -1.7863
 5621SOL    MW422252   2.797   5.675   3.912 -0.1112 -0.3646  0.1156
 5622SOL     OW22253   2.732   3.418   5.338 -0.2358  0.0755 -0.0009
 5622SOL    HW222254   2.734   3.456   5.426 -0.7069 -1.8046  0.8479
 5622SOL    HW322255   2.701   3.490   5.282 -1.2321  0.9210  1.5615
 5622SOL    MW422256   2.728   3.433   5.342 -0.4294 -0.0610  0.3172
 5623SOL     OW22257   4.596   5.163   4.500  0.2491 -0.0879 -0.1283
 5623SOL    HW222258   4.641   5.189   4.420  2.8516  0.6156  1.4528
 5623SOL    HW322259   4.596   5.241   4.555 -1.6364 -0.4951  0.5375
 5623SOL    MW422260   4.602   5.176   4.497  0.3437 -0.0488  0.1682
 5624SOL     OW22261   5.327   0.121   1.386  0.6803  0.2881 -0.1098
 5624SOL    HW222262   5.277   0.142   1.465 -1.3896  0.2750 -1.3429
 5624SOL    HW322263   5.361   0.206   1.357  0.1533  0.5320 -0.0369
 5624SOL    MW422264   5.325   0.135   1.393  0.3377  0.3186 -0.2629
 5625SOL     OW22265   1.670   0.458   5.656 -0.0195 -0.0059  0.5310
 5625SOL    HW222266   1.741   0.522   5.653 -0.7332  0.7765 -1.3912
 5625SOL    HW322267   1.610   0.491   5.723  0.3403  0.5357  0.5893
 5625SOL    MW422268   1.671   0.470   5.665 -0.0662  0.1688  0.2851
 5626SOL     OW22269   1.525   0.909   1.741 -0.3168  0.5978 -0.5332
 5626SOL    HW222270   1.606   0.858   1.738 -0.6403 -0.1425  1.5445
 5626SOL    HW322271   1.461   0.854   1.696  0.2641  1.1490 -2.1099
 5626SOL    MW422272   1.527   0.895   1.735 -0.2828  0.5729 -0.4671
 5627SOL     OW22273   2.498   5.058   3.647 -0.2078 -0.4212 -0.3767
 5627SOL    HW222274   2.434   5.129   3.659  0.3942 -0.0042  0.5794
 5627SOL    HW322275   2.445   4.981   3.627 -0.9853 -0.0058  0.0178
 5627SOL    MW422276   2.482   5.057   3.646 -0.2310 -0.3114 -0.1986
 5628SOL     OW22277   1.020   1.035   2.055 -0.5143 -0.3534  0.0129
 5628SOL    HW222278   1.015   1.050   2.149  0.0381  0.6820 -0.1078
 5628SOL    HW322279   1.008   1.122   2.016 -1.5592 -0.8910 -0.9069
 5628SOL    MW422280   1.018   1.049   2.062 -0.5793 -0.2878 -0.1244
 5629SOL     OW22281   6.129   6.231   3.678  0.2499  0.1511  0.0987
 5629SOL    HW222282   6.165   6.305   3.630  1.5131  0.7462  1.8432
 5629SOL    HW322283   6.035   6.237   3.664  0.4821  0.9172 -1.3725
 5629SOL    MW422284   6.122   6.241   3.670  0.4472  0.3307  0.1348
 5630SOL     OW22285   2.950   0.117   3.882 -0.4234 -0.1925 -0.2218
 5630SOL    HW222286   3.030   0.167   3.864 -0.0096 -0.3892  0.9688
 5630SOL    HW322287   2.901   0.120   3.800  1.2260 -0.8492 -1.2797
 5630SOL    MW422288   2.955   0.124   3.869 -0.1512 -0.3051 -0.2043
 5631SOL     OW22289   0.890   0.665   6.311  0.4010  0.4679  0.2909
 5631SOL    HW222290   0.844   0.714   6.243 -0.1197  1.9472  1.6370
 5631SOL    HW322291   0.938   0.598   6.264 -0.1017  1.3055 -1.5079
 5631SOL    MW422292   0.890   0.663   6.296  0.2660  0.7736  0.2312
 5632SOL     OW22293   3.391   2.144   5.056  0.3190 -0.2273 -0.2594
 5632SOL    HW222294   3.452   2.115   4.988 -1.2245  0.4837 -2.0080
 5632SOL    HW322295   3.445   2.198   5.114  1.9506 -1.8520 -0.1530
 5632SOL    MW422296   3.406   2.147   5.055  0.3306 -0.3478 -0.4761
 5633SOL     OW22297   2.476   3.422   0.343  0.3900 -0.3472 -0.4125
 5633SOL    HW222298   2.524   3.372   0.410  1.4976  0.0680 -0.8809
 5633SOL    HW322299   2.444   3.499   0.390 -0.7861 -1.1550  0.1622
 5633SOL    MW422300   2.478   3.425   0.358  0.3810 -0.3990 -0.3985
 5634SOL     OW22301   4.283   0.969   6.088 -0.5945  0.0694  0.2054
 5634SOL    HW222302   4.218   1.004   6.149 -2.2577  1.8840 -2.3901
 5634SOL    HW322303   4.365   1.012   6.113 -1.1682  0.5769  1.2712
 5634SOL    MW422304   4.286   0.979   6.099 -0.8896  0.3758  0.0035
 5635SOL     OW22305   5.792   4.356   2.511  0.5513  0.6934  0.2468
 5635SOL    HW222306   5.876   4.310   2.505 -0.9505 -2.4946  1.6235
 5635SOL    HW322307   5.784   4.379   2.603 -0.4981  0.0343  0.3327
 5635SOL    MW422308   5.802   4.353   2.522  0.2147  0.1858  0.4398
 5636SOL     OW22309   3.170   0.299   3.762 -0.1920  0.3860 -0.3418
 5636SOL    HW222310   3.123   0.379   3.783 -0.8672 -0.0213 -0.2770
 5636SOL    HW322311   3.263   0.322   3.772  0.0692  2.5826 -5.0875
 5636SOL    MW422312   3.176   0.312   3.766 -0.2466  0.6221 -0.9594
 5637SOL     OW22313   2.824   3.789   1.375  0.2372  0.0435 -0.1582
 5637SOL    HW222314   2.852   3.804   1.466 -0.2292  1.4740 -0.2298
 5637SOL    HW322315   2.730   3.808   1.376  0.5677  1.9694 -1.3139
 5637SOL    MW422316   2.816   3.793   1.387  0.2193  0.4863 -0.3201
 5638SOL     OW22317   5.351   3.406   6.215 -0.9567 -0.0606 -0.3068
 5638SOL    HW222318   5.445   3.398   6.194 -0.7183  0.0132  0.6822
 5638SOL    HW322319   5.342   3.493   6.252 -1.2672 -0.3630  0.3403
 5638SOL    MW422320   5.363   3.416   6.217 -0.9662 -0.0908 -0.0910
 5639SOL     OW22321   6.391   4.320   4.415  0.2039  0.1755  0.6678
 5639SOL    HW222322   6.455   4.256   4.385 -3.1484 -2.4757 -1.6670
 5639SOL    HW322323   6.365   4.367   4.335  0.2927  2.3159  1.8250
 5639SOL    MW422324   6.396   4.318   4.400 -0.2267  0.1081  0.5124
 5640SOL     OW22325   4.652   5.834   4.400 -0.5216 -0.7020  0.2156
 5640SOL    HW222326   4.606   5.917   4.400  0.5918 -0.0506 -0.3328
 5640SOL    HW322327   4.739   5.855   4.365 -0.3439 -2.1618 -0.2955
 5640SOL    MW422328   4.658   5.848   4.395 -0.3513 -0.8087  0.0758
 5641SOL     OW22329   4.411   1.840   1.265  0.1359 -0.0945  0.4742
 5641SOL    HW222330   4.417   1.915   1.206 -0.2206  0.3896  1.0374
 5641SOL    HW322331   4.412   1.879   1.353  1.0960 -0.8298  0.8051
 5641SOL    MW422332   4.412   1.855   1.269  0.2156 -0.1277  0.5922
 5642SOL     OW22333   4.449   6.183   2.602 -0.2376  0.1945 -0.0850
 5642SOL    HW222334   4.365   6.166   2.645 -0.0391  0.0781  0.2653
 5642SOL    HW322335   4.475   6.099   2.565  0.2218 -0.0215  0.7081
 5642SOL    MW422336   4.441   6.170   2.603 -0.1508  0.1506  0.0659
 5643SOL     OW22337   4.554   2.385   0.350  0.0504  0.3270 -0.0822
 5643SOL    HW222338   4.523   2.422   0.432  0.5113  1.5477 -0.4454
 5643SOL    HW322339   4.647   2.408   0.347  0.1567 -0.1519 -0.7050
 5643SOL    MW422340   4.562   2.393   0.360  0.1252  0.4249 -0.2123
 5644SOL     OW22341   2.588   3.408   2.816 -0.0434  0.4875 -1.0249
 5644SOL    HW222342   2.609   3.447   2.901 -0.6670  1.0581 -1.1264
 5644SOL    HW322343   2.620   3.318   2.823 -0.8192  0.2761  0.1189
 5644SOL    MW422344   2.595   3.401   2.828 -0.2281  0.5349 -0.8874
 5645SOL     OW22345   4.635   3.172   0.021  0.3159 -0.2493  0.2320
 5645SOL    HW222346   4.552   3.188  -0.023  0.1598 -0.3730  0.4780
 5645SOL    HW322347   4.699   3.223  -0.029 -0.0203  0.3901  0.4515
 5645SOL    MW422348   4.633   3.181   0.008  0.2510 -0.1812  0.2934
 5646SOL     OW22349   3.057   3.888   5.840 -0.3269  0.0806 -0.9234
 5646SOL    HW222350   3.044   3.923   5.928  1.3242  2.7736 -1.6263
 5646SOL    HW322351   2.987   3.929   5.788 -0.3322 -0.2381 -1.1695
 5646SOL    MW422352   3.046   3.898   5.845 -0.1098  0.3939 -1.0486
 5647SOL     OW22353   0.105   5.374   2.671 -0.2315  0.5829 -0.0628
 5647SOL    HW222354   0.128   5.328   2.752 -0.9438  1.0337  0.4097
 5647SOL    HW322355   0.183   5.423   2.648  0.0528  0.2721  0.2260
 5647SOL    MW422356   0.118   5.374   2.678 -0.2879  0.6014  0.0377
 5648SOL     OW22357   4.048   2.539   4.546 -0.2416 -0.6073  0.4324
 5648SOL    HW222358   4.047   2.616   4.603  0.1265  0.6720 -1.1935
 5648SOL    HW322359   4.085   2.469   4.600 -0.4675  0.3739  1.9219
 5648SOL    MW422360   4.052   2.540   4.561 -0.2229 -0.3090  0.4144
 5649SOL     OW22361   1.651   4.733   3.887  0.4721  0.1238  0.1927
 5649SOL    HW222362   1.672   4.737   3.793  0.5471 -0.1746  0.1957
 5649SOL    HW322363   1.625   4.642   3.901  0.4229  0.1793  0.4553
 5649SOL    MW422364   1.650   4.721   3.876  0.4755  0.0917  0.2278
 5650SOL     OW22365   1.824   2.970   4.244 -0.5396 -0.3544 -0.2787
 5650SOL    HW222366   1.868   2.895   4.282 -0.9137 -0.4169  0.0407
 5650SOL    HW322367   1.832   2.958   4.149 -0.5008 -0.7391 -0.2269
 5650SOL    MW422368   1.831   2.959   4.236 -0.5838 -0.4134 -0.2297
 5651SOL     OW22369   1.985   4.987   2.449  0.3924  0.4388  0.0445
 5651SOL    HW222370   2.078   4.970   2.465  0.7275  1.2741 -0.9571
 5651SOL    HW322371   1.978   5.082   2.444 -0.2240  0.3285 -1.5887
 5651SOL    MW422372   1.996   4.997   2.451  0.3553  0.5344 -0.3031
 5652SOL     OW22373   3.908   4.236   1.634 -0.1837  0.0164  0.8377
 5652SOL    HW222374   3.980   4.177   1.654  0.2065 -0.2006 -1.0498
 5652SOL    HW322375   3.841   4.216   1.700  1.8430  1.0407  3.4132
 5652SOL    MW422376   3.908   4.226   1.646  0.1352  0.1229  0.9284
 5653SOL     OW22377   4.774   2.837   2.919  0.0219 -0.4712 -0.0673
 5653SOL    HW222378   4.782   2.764   2.857 -1.5594  0.3865 -1.3684
 5653SOL    HW322379   4.784   2.915   2.865  0.5583  0.3131  1.1187
 5653SOL    MW422380   4.776   2.838   2.904 -0.1160 -0.2545 -0.0825
 5654SOL     OW22381   3.872   3.177   5.505  0.3715 -0.4192  0.1866
 5654SOL    HW222382   3.917   3.250   5.462  0.0874 -0.0858  0.4455
 5654SOL    HW322383   3.870   3.202   5.598  2.0725 -1.6897  0.6224
 5654SOL    MW422384   3.878   3.190   5.512  0.5584 -0.5428  0.2782
 5655SOL     OW22385   0.894   3.058   6.038  0.1785 -0.1089 -0.5587
 5655SOL    HW222386   0.911   3.101   5.955 -1.0852  0.6450 -0.4384
 5655SOL    HW322387   0.944   2.976   6.033 -0.5806 -0.5025 -2.4240
 5655SOL    MW422388   0.903   3.053   6.026 -0.0884 -0.0614 -0.7889
 5656SOL     OW22389   3.722   5.175   2.194  0.0362  0.0386 -0.4301
 5656SOL    HW222390   3.769   5.163   2.277 -0.7587  0.6477  0.1230
 5656SOL    HW322391   3.762   5.111   2.135  1.4967  0.4738  0.0393
 5656SOL    MW422392   3.733   5.165   2.198  0.1240  0.1763 -0.2952
 5657SOL     OW22393   2.842   1.357   5.536 -0.1449  0.9262  0.1381
 5657SOL    HW222394   2.748   1.375   5.547 -0.7646 -2.4359  1.5210
 5657SOL    HW322395   2.879   1.441   5.508 -3.4312  2.5553  0.1664
 5657SOL    MW422396   2.834   1.370   5.534 -0.6602  0.6976  0.3243
 5658SOL     OW22397   1.413   0.113   3.622 -0.5831  0.6766 -0.0457
 5658SOL    HW222398   1.446   0.033   3.663 -2.2182 -0.2373 -0.4104
 5658SOL    HW322399   1.426   0.099   3.528 -0.1751  1.1849 -0.0686
 5658SOL    MW422400   1.419   0.101   3.615 -0.7450  0.6231 -0.0968
 5659SOL     OW22401   3.811   4.801   3.469 -0.3192  0.4665 -0.1501
 5659SOL    HW222402   3.880   4.748   3.508 -1.5380  0.5459  2.3288
 5659SOL    HW322403   3.731   4.772   3.513 -1.6230  1.5510 -1.6868
 5659SOL    MW422404   3.810   4.791   3.480 -0.6520  0.6201 -0.0258
 5660SOL     OW22405   1.963   6.100   6.378 -0.0017  0.3773  0.3632
 5660SOL    HW222406   2.016   6.178   6.361  3.6024 -1.4982  1.9289
 5660SOL    HW322407   2.003   6.031   6.324 -1.7301 -0.8958  0.6172
 5660SOL    MW422408   1.976   6.101   6.368  0.2458 -0.0381  0.6033
 5661SOL     OW22409   0.079   3.445   0.089 -0.6742 -0.2309  0.0529
 5661SOL    HW222410   0.058   3.480   0.002 -0.4275 -0.1576  0.0212
 5661SOL    HW322411   0.109   3.355   0.071 -1.7605 -0.6262  0.1806
 5661SOL    MW422412   0.080   3.438   0.075 -0.7850 -0.2734  0.0655
 5662SOL     OW22413   2.797   3.768   2.256 -0.5032  0.2418 -0.7423
 5662SOL    HW222414   2.702   3.755   2.257 -0.5235  0.1750  1.0587
 5662SOL    HW322415   2.832   3.685   2.288  0.0176  0.8941  0.4510
 5662SOL    MW422416   2.789   3.755   2.261 -0.4371  0.3191 -0.3472
 5663SOL     OW22417   6.381   1.984   3.035  0.3733  0.5377 -0.3708
 5663SOL    HW222418   6.367   2.060   3.091  1.0875 -0.5584  1.3814
 5663SOL    HW322419   6.306   1.927   3.051  1.3510 -0.4969  0.7658
 5663SOL    MW422420   6.369   1.986   3.044  0.5965  0.2566  0.0104
 5664SOL     OW22421   6.187   6.015   4.833 -0.1019 -0.1941 -0.1276
 5664SOL    HW222422   6.219   5.996   4.921 -0.3155  0.3374  0.0640
 5664SOL    HW322423   6.150   5.932   4.803 -0.6333 -0.2026  0.5370
 5664SOL    MW422424   6.186   6.001   4.841 -0.2002 -0.1251 -0.0146
 5665SOL     OW22425   5.604   1.336   6.407  0.6376 -0.4060  0.1017
 5665SOL    HW222426   5.510   1.357   6.406  0.7399  0.0481 -0.2900
 5665SOL    HW322427   5.647   1.417   6.380  1.2223 -0.2171  1.5123
 5665SOL    MW422428   5.597   1.350   6.403  0.7283 -0.3212  0.2362
 5666SOL     OW22429   5.651   3.597   3.150  0.3251 -0.2716  0.6617
 5666SOL    HW222430   5.638   3.643   3.234  1.4951  1.7255 -0.1713
 5666SOL    HW322431   5.743   3.571   3.152  0.5050  0.2705 -0.2026
 5666SOL    MW422432   5.662   3.600   3.161  0.5032  0.0634  0.4378
 5667SOL     OW22433   4.602   1.508   0.987  0.5035  0.2996  0.2526
 5667SOL    HW222434   4.613   1.593   1.030 -0.4779  0.1961  0.7492
 5667SOL    HW322435   4.687   1.466   0.994  0.3506  0.2154  2.3191
 5667SOL    MW422436   4.614   1.513   0.994  0.3538  0.2748  0.5907
 5668SOL     OW22437   1.572   6.244   4.875 -0.1442 -0.1734  0.3414
 5668SOL    HW222438   1.584   6.300   4.798  2.0866 -0.6697  0.2636
 5668SOL    HW322439   1.524   6.298   4.937 -1.0876  0.5952 -1.0072
 5668SOL    MW422440   1.567   6.258   4.873  0.0257 -0.1375  0.1532
 5669SOL     OW22441   3.404   2.662   3.751  0.0693 -0.0312 -0.2353
 5669SOL    HW222442   3.447   2.690   3.832  1.2890  0.0539 -0.9000
 5669SOL    HW322443   3.362   2.579   3.774  0.3056  0.0428  0.5089
 5669SOL    MW422444   3.404   2.655   3.765  0.2614 -0.0102 -0.2248
 5670SOL     OW22445   2.166   0.980   0.414 -0.2154  0.4550 -0.4151
 5670SOL    HW222446   2.194   1.044   0.478  0.6254 -0.6440  0.3469
 5670SOL    HW322447   2.087   0.941   0.452  0.1972 -0.0899 -0.1055
 5670SOL    MW422448   2.159   0.983   0.427 -0.0500  0.2381 -0.2737
 5671SOL     OW22449   4.206   4.923   5.569  0.1726 -0.2154 -0.6741
 5671SOL    HW222450   4.118   4.895   5.544 -0.7892  0.9896  1.1112
 5671SOL    HW322451   4.215   5.011   5.533  0.5365 -0.2178 -0.5945
 5671SOL    MW422452   4.196   4.931   5.561  0.0937 -0.0567 -0.4281
 5672SOL     OW22453   6.171   0.842   6.256 -0.1551 -0.5536  0.2270
 5672SOL    HW222454   6.245   0.896   6.285 -1.6279  0.4799  2.3292
 5672SOL    HW322455   6.152   0.874   6.168  2.7177 -1.8261 -0.9994
 5672SOL    MW422456   6.179   0.854   6.248  0.0296 -0.5851  0.3425
 5673SOL     OW22457   0.410   1.602   5.617 -0.0949  0.2791  0.0707
 5673SOL    HW222458   0.352   1.599   5.541 -0.7602 -0.1257  0.5770
 5673SOL    HW322459   0.386   1.683   5.662 -0.1888  0.1717  0.2154
 5673SOL    MW422460   0.399   1.612   5.613 -0.1951  0.2115  0.1566
 5674SOL     OW22461   3.249   0.916   3.945  0.0254  0.4063 -0.1752
 5674SOL    HW222462   3.206   0.977   3.885 -0.0400 -0.2495 -0.8128
 5674SOL    HW322463   3.271   0.968   4.022  1.0916  1.5505 -1.2109
 5674SOL    MW422464   3.246   0.931   3.947  0.1574  0.4708 -0.3960
 5675SOL     OW22465   3.480   2.266   0.280 -0.0619 -0.0999  0.4797
 5675SOL    HW222466   3.461   2.342   0.336  0.8213 -0.1893  0.9228
 5675SOL    HW322467   3.428   2.195   0.318 -0.1100  0.0432  0.6834
 5675SOL    MW422468   3.471   2.267   0.293  0.0483 -0.0928  0.5650
 5676SOL     OW22469   2.785   2.214   1.102  0.5497 -0.1571  0.2143
 5676SOL    HW222470   2.746   2.144   1.049  1.7052 -0.6655  0.0021
 5676SOL    HW322471   2.776   2.184   1.192  0.4261 -0.2511  0.1717
 5676SOL    MW422472   2.779   2.201   1.107  0.6859 -0.2365  0.1807
 5677SOL     OW22473   5.537   3.985   0.740 -0.1000 -0.2608  0.3207
 5677SOL    HW222474   5.511   3.921   0.675  0.1035  0.7857 -0.8338
 5677SOL    HW322475   5.618   3.950   0.777  2.4489  1.1896 -3.3060
 5677SOL    MW422476   5.544   3.972   0.737  0.2631  0.0687 -0.3101
 5678SOL     OW22477   4.063   3.889   2.206  0.4972  0.2655 -0.0741
 5678SOL    HW222478   4.042   3.808   2.160 -2.8792  1.5358 -1.0685
 5678SOL    HW322479   4.048   3.869   2.299 -0.7245 -0.1896 -0.3528
 5678SOL    MW422480   4.058   3.876   2.213 -0.1095  0.3730 -0.2421
 5679SOL     OW22481   5.840   6.387   4.730 -0.5642 -0.2367  0.0477
 5679SOL    HW222482   5.826   6.481   4.737  0.2806 -0.0460 -0.7467
 5679SOL    HW322483   5.905   6.377   4.661 -0.0301 -1.3556  0.6866
 5679SOL    MW422484   5.846   6.398   4.722 -0.3822 -0.3592  0.0272
 5680SOL     OW22485   3.851   6.196   3.897 -0.1918 -0.1932 -0.4982
 5680SOL    HW222486   3.801   6.264   3.942  0.3346 -0.0926 -0.0603
 5680SOL    HW322487   3.861   6.229   3.808  0.8305  0.7317 -0.0603
 5680SOL    MW422488   3.845   6.210   3.891  0.0125 -0.0579 -0.3826
 5681SOL     OW22489   3.864   1.513   6.197  0.1105  0.1080 -0.5342
 5681SOL    HW222490   3.858   1.427   6.239 -0.8397 -0.0507 -0.9685
 5681SOL    HW322491   3.802   1.509   6.124 -0.7336  1.5007  0.0486
 5681SOL    MW422492   3.855   1.501   6.193 -0.1262  0.2708 -0.5146
 5682SOL     OW22493   5.153   4.095   1.946  0.0604 -0.3056 -0.2151
 5682SOL    HW222494   5.088   4.164   1.955 -0.4807 -0.7803 -0.4403
 5682SOL    HW322495   5.214   4.110   2.019 -0.7917 -0.3812  0.5352
 5682SOL    MW422496   5.153   4.106   1.957 -0.1234 -0.3782 -0.1459
 5683SOL     OW22497   1.676   5.885   3.083 -0.3920  0.2910  0.0251
 5683SOL    HW222498   1.603   5.825   3.073 -0.2718  0.3401 -1.4327
 5683SOL    HW322499   1.747   5.845   3.032  0.0309  1.1034 -0.0426
 5683SOL    MW422500   1.676   5.872   3.075 -0.3204  0.4047 -0.1762
 5684SOL     OW22501   5.639   3.393   1.023 -0.2784 -0.4792  0.5538
 5684SOL    HW222502   5.653   3.405   1.116 -1.0679 -1.0883  0.7647
 5684SOL    HW322503   5.570   3.326   1.017 -1.1020  0.4217 -0.4474
 5684SOL    MW422504   5.632   3.386   1.034 -0.4912 -0.4407  0.4496
 5685SOL     OW22505   0.563   6.304   5.766  0.3439 -0.2205 -0.1717
 5685SOL    HW222506   0.604   6.307   5.852  0.5777 -1.6695 -0.2018
 5685SOL    HW322507   0.580   6.215   5.735 -2.5110 -0.8232 -0.3064
 5685SOL    MW422508   0.570   6.292   5.773 -0.0019 -0.4912 -0.1934
 5686SOL     OW22509   3.378   5.076   3.890 -0.5954  0.2306  0.0647
 5686SOL    HW222510   3.361   5.037   3.805  2.1843  0.9718 -0.9141
 5686SOL    HW322511   3.399   5.002   3.947  1.4675 -0.0563 -0.9679
 5686SOL    MW422512   3.378   5.061   3.886  0.0435  0.2905 -0.2007
 5687SOL     OW22513   4.943   4.721   0.904  0.1104  0.6754 -0.2823
 5687SOL    HW222514   4.963   4.766   0.986  0.7587  1.2968 -0.7746
 5687SOL    HW322515   4.850   4.737   0.890 -0.5779 -1.3219  1.4699
 5687SOL    MW422516   4.934   4.729   0.913  0.1051  0.4939 -0.1161
 5688SOL     OW22517   2.482   3.277   6.103 -0.1311 -0.6050 -0.5817
 5688SOL    HW222518   2.407   3.329   6.130  0.8301  0.5454 -0.0556
 5688SOL    HW322519   2.447   3.189   6.090 -1.3178 -0.3791  0.8959
 5688SOL    MW422520   2.468   3.272   6.104 -0.1609 -0.4234 -0.3173
 5689SOL     OW22521   6.380   1.742   1.351 -0.8082 -0.0408 -0.1937
 5689SOL    HW222522   6.343   1.678   1.413 -1.8515  1.4722  0.8074
 5689SOL    HW322523   6.313   1.751   1.283 -0.5417 -0.1906 -0.4800
 5689SOL    MW422524   6.366   1.735   1.350 -0.9107  0.1390 -0.0994
 5690SOL     OW22525   2.299   2.188   2.393  0.2789 -0.2699  0.3421
 5690SOL    HW222526   2.237   2.192   2.466 -1.4054 -0.2407 -1.0155
 5690SOL    HW322527   2.328   2.278   2.380 -1.3514  0.1635 -0.5552
 5690SOL    MW422528   2.295   2.200   2.401 -0.1584 -0.2089  0.0446
 5691SOL     OW22529   4.355   5.250   6.201 -0.1134 -0.1284  0.8618
 5691SOL    HW222530   4.383   5.232   6.290  1.0802  5.2698  1.9790
 5691SOL    HW322531   4.431   5.233   6.147 -0.1613 -1.4141  1.1831
 5691SOL    MW422532   4.368   5.246   6.205  0.0378  0.4142  1.0516
 5692SOL     OW22533   1.294   2.317   0.871 -0.5283 -0.7724  0.3732
 5692SOL    HW222534   1.309   2.397   0.822 -0.4892  0.0058  1.6172
 5692SOL    HW322535   1.382   2.280   0.883 -0.1405  0.7130  2.5728
 5692SOL    MW422536   1.308   2.323   0.866 -0.4720 -0.4738  0.8275
 5693SOL     OW22537   5.691   0.047   3.576 -0.1152 -0.0262  0.2533
 5693SOL    HW222538   5.677   0.035   3.482 -0.6758  1.3966  0.1341
 5693SOL    HW322539   5.735  -0.033   3.604  0.9275 -0.0717 -1.4028
 5693SOL    MW422540   5.695   0.035   3.568 -0.0516  0.1555  0.0191
 5694SOL     OW22541   4.970   5.621   6.331  0.5907  0.0098 -0.4891
 5694SOL    HW222542   4.883   5.596   6.301 -0.5404  2.0674  0.8552
 5694SOL    HW322543   5.003   5.679   6.262  1.6049 -1.8840 -1.7136
 5694SOL    MW422544   4.963   5.625   6.318  0.5753  0.0314 -0.4733
 5695SOL     OW22545   2.962   4.638   0.182  0.0606 -0.1345 -0.8480
 5695SOL    HW222546   2.888   4.629   0.242  0.0324 -0.8037 -0.9839
 5695SOL    HW322547   3.038   4.614   0.234  0.0181 -0.8683 -1.1214
 5695SOL    MW422548   2.962   4.634   0.197  0.0512 -0.3196 -0.9020
 5696SOL     OW22549   5.160   4.114   0.154 -0.0980 -0.6612 -0.4665
 5696SOL    HW222550   5.167   4.137   0.246  0.9570 -1.1801 -0.3980
 5696SOL    HW322551   5.244   4.139   0.116  0.0530 -1.8322 -0.9588
 5696SOL    MW422552   5.172   4.120   0.161  0.0611 -0.8841 -0.5224
 5697SOL     OW22553   2.605   1.299   0.452 -0.3499 -0.0539 -0.2371
 5697SOL    HW222554   2.681   1.280   0.506 -1.3912 -1.7790  0.7293
 5697SOL    HW322555   2.622   1.254   0.370  0.8637  1.8873 -1.1259
 5697SOL    MW422556   2.617   1.291   0.448 -0.3271 -0.0254 -0.2269
 5698SOL     OW22557   3.115   3.600   1.612 -0.5576  0.3144 -0.1841
 5698SOL    HW222558   3.192   3.548   1.589 -0.9825  0.2492 -1.5598
 5698SOL    HW322559   3.041   3.552   1.573 -1.1994  0.8442  0.3481
 5698SOL    MW422560   3.115   3.587   1.604 -0.6983  0.3757 -0.2954
 5699SOL     OW22561   4.964   1.134   1.533 -0.2629  0.1295  0.0114
 5699SOL    HW222562   4.892   1.196   1.524  0.3461  1.1777  1.8049
 5699SOL    HW322563   4.925   1.049   1.512 -1.1774  1.0329 -2.2744
 5699SOL    MW422564   4.949   1.131   1.529 -0.3032  0.3870 -0.0535
 5700SOL     OW22565   0.744   4.108   6.361 -0.2519  0.2306  0.9240
 5700SOL    HW222566   0.659   4.065   6.365 -0.6852  0.8291 -0.9375
 5700SOL    HW322567   0.805   4.044   6.399 -0.9621 -1.7855 -1.1027
 5700SOL    MW422568   0.741   4.094   6.367 -0.4028  0.0436  0.4110
 5701SOL     OW22569   0.999   0.420   4.474  0.1746  0.2405  0.3971
 5701SOL    HW222570   1.021   0.382   4.388 -0.4552 -0.3438  0.4897
 5701SOL    HW322571   0.934   0.361   4.511  0.2970  0.5940  1.2049
 5701SOL    MW422572   0.994   0.407   4.467  0.1077  0.2100  0.5159
 5702SOL     OW22573   0.897   0.968   1.401  0.4128  0.2823 -0.2431
 5702SOL    HW222574   0.977   0.918   1.417 -0.6293 -1.5202 -0.3919
 5702SOL    HW322575   0.879   1.011   1.484  0.0411 -1.5728  0.6912
 5702SOL    MW422576   0.905   0.967   1.414  0.2263 -0.2003 -0.1395
 5703SOL     OW22577   3.383   3.701   3.625  0.0457 -0.3386 -0.3254
 5703SOL    HW222578   3.466   3.655   3.635  0.8677  1.0494 -0.5420
 5703SOL    HW322579   3.350   3.711   3.714  0.3343 -0.4929 -0.2007
 5703SOL    MW422580   3.389   3.696   3.638  0.1922 -0.1759 -0.3375
 5704SOL     OW22581   4.124   4.835   2.983 -0.8608 -0.5667  0.4989
 5704SOL    HW222582   4.211   4.858   2.949 -1.6006  1.3894 -0.2596
 5704SOL    HW322583   4.140   4.765   3.046  1.2739 -0.2357  0.3991
 5704SOL    MW422584   4.138   4.829   2.987 -0.6767 -0.2650  0.3857
 5705SOL     OW22585   0.481   1.447   1.793 -0.2524 -0.1803  0.4273
 5705SOL    HW222586   0.425   1.383   1.838 -0.7555 -0.4788 -0.5882
 5705SOL    HW322587   0.428   1.526   1.790 -0.4811 -0.3574 -0.2220
 5705SOL    MW422588   0.467   1.449   1.799 -0.3490 -0.2430  0.2076
 5706SOL     OW22589   4.973   3.070   6.179 -0.2324  0.0065  0.3106
 5706SOL    HW222590   4.887   3.077   6.138 -0.9235 -1.0023  1.5030
 5706SOL    HW322591   4.992   3.158   6.210 -1.5602 -0.0432  1.3711
 5706SOL    MW422592   4.964   3.083   6.178 -0.4988 -0.1331  0.6078
 5707SOL     OW22593   1.888   1.116   6.141 -0.3169  0.3546 -0.6002
 5707SOL    HW222594   1.949   1.044   6.128  1.6837  1.8888 -0.3349
 5707SOL    HW322595   1.828   1.111   6.067  1.0598 -0.3757 -1.7131
 5707SOL    MW422596   1.888   1.106   6.129  0.1287  0.4607 -0.7120
 5708SOL     OW22597   0.503   3.653   6.203  0.7117 -0.2128  0.8332
 5708SOL    HW222598   0.597   3.668   6.203  0.7437 -0.4170  0.5534
 5708SOL    HW322599   0.465   3.737   6.175  0.9591 -1.0205 -2.3322
 5708SOL    MW422600   0.510   3.666   6.199  0.7486 -0.3463  0.3786
 5709SOL     OW22601   1.731   0.722   3.665 -0.4250  0.4837  0.0833
 5709SOL    HW222602   1.708   0.798   3.719  0.8173 -0.5399  2.1945
 5709SOL    HW322603   1.822   0.738   3.639  0.1179 -0.6161  1.2265
 5709SOL    MW422604   1.740   0.734   3.669 -0.1895  0.2035  0.5127
 5710SOL     OW22605   5.293   4.520   1.178  0.4290  0.2297 -0.5889
 5710SOL    HW222606   5.212   4.477   1.150  0.0924  0.3244  0.2272
 5710SOL    HW322607   5.308   4.489   1.267  0.3782  1.4871 -0.1125
 5710SOL    MW422608   5.284   4.510   1.186  0.3779  0.4081 -0.4183
 5711SOL     OW22609   3.304   5.174   6.284  0.2774  0.2265 -0.6109
 5711SOL    HW222610   3.387   5.154   6.327 -0.2021 -1.4555 -0.3750
 5711SOL    HW322611   3.319   5.258   6.240  1.3996  1.0315  1.2037
 5711SOL    MW422612   3.317   5.182   6.284  0.3622  0.1108 -0.3403
 5712SOL     OW22613   0.213   4.745   6.351  0.0172 -0.2014 -0.4232
 5712SOL    HW222614   0.238   4.837   6.360 -0.2642 -0.0872 -0.7531
 5712SOL    HW322615   0.145   4.732   6.416  3.1354 -1.4156  2.9274
 5712SOL    MW422616   0.207   4.755   6.361  0.3914 -0.3465 -0.0246
 5713SOL     OW22617   1.435   2.471   1.357  0.0822  0.7222 -0.3218
 5713SOL    HW222618   1.501   2.427   1.303  0.3436 -0.3302  0.8008
 5713SOL    HW322619   1.375   2.401   1.382 -2.3698  1.8787 -2.4899
 5713SOL    MW422620   1.436   2.456   1.353 -0.2068  0.7359 -0.4598
 5714SOL     OW22621   1.768   4.187   2.084  0.1860  0.8686  0.2616
 5714SOL    HW222622   1.838   4.236   2.041 -1.0711  0.2686 -2.7603
 5714SOL    HW322623   1.795   4.096   2.076 -0.2609  0.7226  0.4068
 5714SOL    MW422624   1.781   4.182   2.077 -0.0388  0.7702 -0.1180
 5715SOL     OW22625   1.851   2.920   5.297 -0.3994 -0.3252  0.2074
 5715SOL    HW222626   1.907   2.969   5.356  1.0273 -1.4186 -0.1906
 5715SOL    HW322627   1.846   2.974   5.218 -0.4563  0.0775  0.4857
 5715SOL    MW422628   1.857   2.933   5.294 -0.2187 -0.4163  0.1916
 5716SOL     OW22629   3.369   6.245   4.268 -0.2771  0.2205 -0.0188
 5716SOL    HW222630   3.442   6.296   4.302 -1.0591  0.7744  0.8722
 5716SOL    HW322631   3.318   6.307   4.215  0.3394 -0.3695 -1.3597
 5716SOL    MW422632   3.372   6.260   4.265 -0.2990  0.2157 -0.0782
 5717SOL     OW22633   0.300   5.438   5.604  0.0149 -0.1079 -0.3856
 5717SOL    HW222634   0.238   5.510   5.615 -0.9410 -0.7978 -1.0801
 5717SOL    HW322635   0.246   5.364   5.577  0.7190 -1.5639  1.8844
 5717SOL    MW422636   0.285   5.438   5.602 -0.0184 -0.3910 -0.1778
 5718SOL     OW22637   2.603   4.951   1.999 -0.2138 -0.0007 -0.2824
 5718SOL    HW222638   2.569   5.041   1.999 -0.7334 -0.1413  2.0325
 5718SOL    HW322639   2.569   4.913   1.918 -0.2092  1.7899 -1.1794
 5718SOL    MW422640   2.594   4.958   1.988 -0.2817  0.2170 -0.0953
 5719SOL     OW22641   0.332   3.260   4.009  0.0311  0.0581 -0.9184
 5719SOL    HW222642   0.424   3.253   4.036  0.1084  1.1226 -0.8655
 5719SOL    HW322643   0.282   3.252   4.090  0.1556  0.9444 -0.7448
 5719SOL    MW422644   0.338   3.258   4.023  0.0577  0.3155 -0.8885
 5720SOL     OW22645   1.222   4.657   2.984 -0.6634  0.1683 -0.0187
 5720SOL    HW222646   1.207   4.738   3.032 -0.6307 -0.6542  1.4346
 5720SOL    HW322647   1.235   4.591   3.052  1.3936 -0.6872 -1.1676
 5720SOL    MW422648   1.221   4.659   2.999 -0.3877 -0.0531  0.0215
 5721SOL     OW22649   4.639   1.994   5.048  0.4518  0.6011 -0.0577
 5721SOL    HW222650   4.669   2.085   5.055 -1.7974  1.3268  0.8566
 5721SOL    HW322651   4.564   1.988   5.107  1.3675 -2.2502  1.0153
 5721SOL    MW422652   4.633   2.005   5.057  0.2759  0.3207  0.2045
 5722SOL     OW22653   2.462   3.069   0.228  0.3667 -0.7278 -0.2122
 5722SOL    HW222654   2.421   2.994   0.185  1.6305 -0.7549 -1.4585
 5722SOL    HW322655   2.417   3.145   0.191  0.6820 -0.7977 -0.7495
 5722SOL    MW422656   2.451   3.069   0.217  0.5750 -0.7406 -0.4476
 5723SOL     OW22657   0.289   0.493   0.779  0.2296  0.4025  0.7115
 5723SOL    HW222658   0.378   0.489   0.744  0.5502  1.0579  1.4228
 5723SOL    HW322659   0.294   0.446   0.862 -0.1695  0.1748  0.6120
 5723SOL    MW422660   0.301   0.486   0.785  0.2193  0.4590  0.7922
 5724SOL     OW22661   3.188   0.223   3.122 -0.4918  0.0770  0.7530
 5724SOL    HW222662   3.272   0.268   3.126 -0.3243  0.0444 -1.2482
 5724SOL    HW322663   3.125   0.283   3.162  0.5213 -0.0640  2.6252
 5724SOL    MW422664   3.191   0.237   3.128 -0.3361  0.0541  0.7360
 5725SOL     OW22665   3.119   0.247   6.253  0.2544 -0.1354 -0.1128
 5725SOL    HW222666   3.143   0.164   6.212  0.7117  0.2002 -0.5302
 5725SOL    HW322667   3.077   0.221   6.335  0.3605 -0.7824 -0.2548
 5725SOL    MW422668   3.117   0.233   6.259  0.3287 -0.1765 -0.1866
 5726SOL     OW22669   0.186   0.768   4.178 -0.1385 -0.3615 -0.6622
 5726SOL    HW222670   0.193   0.861   4.202  0.8470 -0.5659 -0.0925
 5726SOL    HW322671   0.169   0.769   4.084 -1.1336  0.4115 -0.4822
 5726SOL    MW422672   0.185   0.781   4.169 -0.1397 -0.2865 -0.5633
 5727SOL     OW22673   1.024   1.330   3.213 -0.0599  0.3818 -0.1279
 5727SOL    HW222674   0.977   1.411   3.193 -0.9951  0.3919  1.9049
 5727SOL    HW322675   1.115   1.349   3.192 -0.1746  2.1679  0.8595
 5727SOL    MW422676   1.030   1.343   3.207 -0.1984  0.6188  0.2706
 5728SOL     OW22677   4.931   1.042   1.884 -0.6899  0.2835 -0.3915
 5728SOL    HW222678   4.978   1.121   1.857 -0.0275 -0.9331 -3.1506
 5728SOL    HW322679   4.841   1.057   1.855 -0.5689  0.0475 -0.8957
 5728SOL    MW422680   4.926   1.054   1.876 -0.5866  0.0918 -0.8221
 5729SOL     OW22681   2.564   4.340   1.076 -0.4406  0.5722  0.5996
 5729SOL    HW222682   2.658   4.321   1.070  0.0665  2.6407  0.8909
 5729SOL    HW322683   2.540   4.314   1.165 -0.3259 -0.6161  0.2944
 5729SOL    MW422684   2.574   4.334   1.087 -0.3585  0.6883  0.5978
 5730SOL     OW22685   5.672   3.214   4.430 -0.0349  0.6032 -0.6662
 5730SOL    HW222686   5.657   3.144   4.366 -1.4254 -0.8875  1.1660
 5730SOL    HW322687   5.585   3.233   4.466  0.8336  0.2792  1.8261
 5730SOL    MW422688   5.658   3.207   4.427 -0.1038  0.3638 -0.0957
 5731SOL     OW22689   4.120   0.224   4.050  0.3480 -0.3164 -0.0669
 5731SOL    HW222690   4.164   0.178   3.979  0.4060 -0.1688 -0.1265
 5731SOL    HW322691   4.180   0.294   4.075  0.6850 -0.8614  0.6705
 5731SOL    MW422692   4.133   0.227   4.044  0.4001 -0.3689  0.0225
 5732SOL     OW22693   6.241   1.595   1.986 -0.2254  0.7645  0.6252
 5732SOL    HW222694   6.276   1.523   2.038  1.2012  0.9767 -0.0058
 5732SOL    HW322695   6.165   1.557   1.941 -0.0100 -0.0972  0.9611
 5732SOL    MW422696   6.235   1.580   1.987 -0.0088  0.6788  0.5862
 5733SOL     OW22697   3.784   1.059   2.532 -0.1122 -0.6577 -0.3778
 5733SOL    HW222698   3.869   1.030   2.563 -0.1290 -0.4511 -0.1336
 5733SOL    HW322699   3.748   0.984   2.484  0.8340 -0.2618 -1.7611
 5733SOL    MW422700   3.790   1.045   2.530  0.0104 -0.5782 -0.5281
 5734SOL     OW22701   3.088   2.172   1.075  0.5334  0.8137 -0.4645
 5734SOL    HW222702   3.096   2.170   1.171  2.8179  1.4197 -0.5859
 5734SOL    HW322703   2.994   2.177   1.059  0.0792  0.3109  1.7375
 5734SOL    MW422704   3.077   2.173   1.086  0.7749  0.8274 -0.1900
 5735SOL     OW22705   2.332   2.452   1.588  0.1194 -0.2179  0.1475
 5735SOL    HW222706   2.252   2.463   1.537 -0.4712  0.1649  1.1249
 5735SOL    HW322707   2.357   2.541   1.614 -0.1794 -0.4669  1.3702
 5735SOL    MW422708   2.325   2.465   1.585  0.0021 -0.2003  0.4378
 5736SOL     OW22709   5.564   4.799   2.992  0.0739 -0.1261  0.5435
 5736SOL    HW222710   5.658   4.798   3.010  0.5175  2.6470 -1.0777
 5736SOL    HW322711   5.558   4.790   2.897 -1.1410  1.8301  0.3917
 5736SOL    MW422712   5.575   4.797   2.982 -0.0279  0.4979  0.3096
 5737SOL     OW22713   6.121   5.200   1.856  0.0220 -0.4296 -0.5796
 5737SOL    HW222714   6.083   5.214   1.770  2.4135 -0.0456 -1.6514
 5737SOL    HW322715   6.125   5.287   1.895  0.6494 -0.3321 -0.8565
 5737SOL    MW422716   6.116   5.213   1.850  0.4203 -0.3661 -0.7575
 5738SOL     OW22717   1.679   3.797   5.867  0.0105  0.0763 -0.6883
 5738SOL    HW222718   1.593   3.784   5.827  0.6758 -0.1815 -2.1262
 5738SOL    HW322719   1.729   3.719   5.843  0.4481 -0.0956  0.7161
 5738SOL    MW422720   1.675   3.785   5.858  0.1560  0.0196 -0.6927
 5739SOL     OW22721   5.309   5.697   6.363  0.3163 -0.3067 -0.2542
 5739SOL    HW222722   5.386   5.659   6.321  2.0924 -0.3303  2.7501
 5739SOL    HW322723   5.275   5.627   6.418 -0.3930  0.4606  0.2998
 5739SOL    MW422724   5.315   5.683   6.365  0.4570 -0.2086  0.2153
 5740SOL     OW22725   0.720   0.691   5.792  0.8298  1.0048  0.3451
 5740SOL    HW222726   0.812   0.684   5.768  0.5214  2.2713 -1.4612
 5740SOL    HW322727   0.698   0.783   5.775 -0.7687  0.7227  0.7158
 5740SOL    MW422728   0.729   0.702   5.787  0.5782  1.1347  0.1557
 5741SOL     OW22729   3.725   5.025   1.485 -0.2367 -0.3592 -0.2169
 5741SOL    HW222730   3.677   4.942   1.483  1.7191 -1.5675  0.2113
 5741SOL    HW322731   3.773   5.022   1.567 -1.3576  1.9823  0.5934
 5741SOL    MW422732   3.725   5.014   1.495 -0.1266 -0.2097 -0.0535
 5742SOL     OW22733   4.812   1.331   0.981  0.1280 -0.3033 -0.3188
 5742SOL    HW222734   4.766   1.251   0.956 -0.2069  0.1724 -1.2949
 5742SOL    HW322735   4.901   1.303   1.001  0.1281 -0.8774 -1.0696
 5742SOL    MW422736   4.817   1.317   0.980  0.0839 -0.3163 -0.5466
 5743SOL     OW22737   2.010   2.625   3.609 -0.1083 -0.2475  0.9403
 5743SOL    HW222738   2.055   2.567   3.547  0.3758  0.9779  0.1134
 5743SOL    HW322739   1.923   2.587   3.617 -1.4377  1.3088 -3.1730
 5743SOL    MW422740   2.005   2.612   3.602 -0.2198  0.1195  0.2885
 5744SOL     OW22741   3.487   1.983   4.817  0.4353 -0.3376  0.4742
 5744SOL    HW222742   3.392   1.992   4.809  0.6033  1.1204 -0.4446
 5744SOL    HW322743   3.508   1.905   4.766 -0.2893 -0.7571  0.8102
 5744SOL    MW422744   3.477   1.974   4.809  0.3619 -0.2006  0.3973
 5745SOL     OW22745   0.503   5.420   0.738  0.1171  0.1950  0.0804
 5745SOL    HW222746   0.480   5.370   0.660  1.5793  2.8160 -2.1814
 5745SOL    HW322747   0.419   5.452   0.771 -0.7222 -2.4660  0.8571
 5745SOL    MW422748   0.489   5.417   0.732  0.1992  0.1898 -0.1155
 5746SOL     OW22749   6.058   4.010   6.139 -0.0024 -0.5374 -0.4008
 5746SOL    HW222750   5.988   3.976   6.196 -0.8734  0.2632 -0.9554
 5746SOL    HW322751   6.122   4.047   6.200 -0.4735 -0.5207  0.1043
 5746SOL    MW422752   6.057   4.010   6.155 -0.1794 -0.4296 -0.4073
 5747SOL     OW22753   2.898   0.321   4.300 -0.1912  0.0683 -0.1950
 5747SOL    HW222754   2.970   0.374   4.268  0.4480 -1.1605 -0.8648
 5747SOL    HW322755   2.902   0.240   4.249 -0.6546 -0.9539  1.2932
 5747SOL    MW422756   2.908   0.317   4.289 -0.1680 -0.2287 -0.0870
 5748SOL     OW22757   1.159   3.879   2.135  0.0886 -0.7739  0.2866
 5748SOL    HW222758   1.081   3.843   2.092  0.0615  0.4081 -0.7236
 5748SOL    HW322759   1.180   3.957   2.083  1.0323 -0.2148  1.4787
 5748SOL    MW422760   1.151   3.885   2.122  0.2095 -0.5442  0.3106
 5749SOL     OW22761   5.466   2.779   2.521  0.5062 -0.2314  0.2989
 5749SOL    HW222762   5.556   2.771   2.490  0.8629 -1.1020  1.4864
 5749SOL    HW322763   5.451   2.699   2.572 -0.6459  0.3123  0.8459
 5749SOL    MW422764   5.476   2.767   2.524  0.4012 -0.2745  0.5278
 5750SOL     OW22765   5.236   0.173   2.645 -0.7031  0.6325  0.8608
 5750SOL    HW222766   5.262   0.164   2.737  0.0774  2.2561  0.8299
 5750SOL    HW322767   5.205   0.263   2.637  1.0306  1.1478 -0.8706
 5750SOL    MW422768   5.235   0.184   2.656 -0.3713  0.9147  0.6283
 5751SOL     OW22769   5.782   5.940   5.554 -0.1558 -0.2944  0.4596
 5751SOL    HW222770   5.734   5.985   5.624  0.6746  0.1477  0.7619
 5751SOL    HW322771   5.831   5.871   5.598  0.1432 -0.2023  0.2763
 5751SOL    MW422772   5.782   5.937   5.569 -0.0068 -0.2239  0.4753
 5752SOL     OW22773   5.105   4.511   0.256 -0.1254 -0.0402 -0.1245
 5752SOL    HW222774   5.068   4.447   0.317 -0.9017  1.0130  0.5343
 5752SOL    HW322775   5.069   4.486   0.171 -0.8388 -0.1729  0.2133
 5752SOL    MW422776   5.095   4.499   0.253 -0.3220  0.0812  0.0070
 5753SOL     OW22777   5.893   0.330   3.802 -0.0485  0.5757 -0.1002
 5753SOL    HW222778   5.859   0.408   3.757 -2.7054 -1.1180 -1.2173
 5753SOL    HW322779   5.931   0.277   3.732  1.7436  0.7611  0.6614
 5753SOL    MW422780   5.894   0.334   3.787 -0.1626  0.3767 -0.1471
 5754SOL     OW22781   3.446   4.008   4.049  0.0290  0.2913 -0.3745
 5754SOL    HW222782   3.479   3.922   4.022 -0.7402  0.5427 -2.3152
 5754SOL    HW322783   3.505   4.070   4.007  1.0229  0.7625  1.6201
 5754SOL    MW422784   3.458   4.005   4.040  0.0586  0.3867 -0.3674
 5755SOL     OW22785   4.156   0.289   3.663  0.2947  0.1700 -0.2926
 5755SOL    HW222786   4.176   0.273   3.571 -0.9934  0.2710 -0.5956
 5755SOL    HW322787   4.101   0.367   3.663  0.4020  0.2576  0.5805
 5755SOL    MW422788   4.152   0.297   3.651  0.1389  0.1949 -0.2174
 5756SOL     OW22789   3.989   2.672   3.707 -0.1906 -0.3164 -0.2581
 5756SOL    HW222790   4.057   2.733   3.679  0.9391 -0.7216  1.4578
 5756SOL    HW322791   4.034   2.589   3.717 -0.7428 -0.4343  1.5862
 5756SOL    MW422792   4.004   2.669   3.705 -0.1144 -0.3854  0.2116
 5757SOL     OW22793   4.581   4.321   4.532 -0.1284 -0.1031 -0.0391
 5757SOL    HW222794   4.552   4.402   4.574 -1.0162  0.2385 -1.2486
 5757SOL    HW322795   4.672   4.338   4.508  0.8509 -0.7707  2.7773
 5757SOL    MW422796   4.589   4.334   4.535 -0.1164 -0.1461  0.1729
 5758SOL     OW22797   0.791   2.787   4.919 -0.3540 -0.3268 -0.3016
 5758SOL    HW222798   0.862   2.735   4.882 -0.0913  1.7355 -3.0691
 5758SOL    HW322799   0.750   2.730   4.984  1.8747 -2.7091 -0.8206
 5758SOL    MW422800   0.795   2.773   4.922 -0.0253 -0.3690 -0.7352
 5759SOL     OW22801   4.074   4.972   5.258 -0.3621  0.1707  0.3006
 5759SOL    HW222802   4.045   5.032   5.189 -0.2728 -1.0998 -0.8748
 5759SOL    HW322803   4.095   5.030   5.332  2.2686  1.8848 -1.5908
 5759SOL    MW422804   4.073   4.988   5.259 -0.0032  0.2292 -0.1040
 5760SOL     OW22805   0.940   0.864   3.863 -0.0544  0.0887 -0.1312
 5760SOL    HW222806   0.984   0.804   3.924  0.9053 -0.3028 -1.1684
 5760SOL    HW322807   0.856   0.823   3.846 -0.8227  0.7613  1.7628
 5760SOL    MW422808   0.935   0.851   3.869 -0.0291  0.1258 -0.0181
 5761SOL     OW22809   4.031   1.363   0.097  0.2956  0.0812  0.4025
 5761SOL    HW222810   3.954   1.322   0.057 -0.9410  0.2850  2.4407
 5761SOL    HW322811   4.075   1.291   0.143  0.6178  0.2142  0.3058
 5761SOL    MW422812   4.027   1.348   0.098  0.1750  0.1257  0.6586
 5762SOL     OW22813   2.309   5.678   3.105  0.1052 -0.5822 -0.0870
 5762SOL    HW222814   2.327   5.639   3.019 -0.0966 -1.5966  0.3094
 5762SOL    HW322815   2.359   5.759   3.106 -0.9628  0.1685 -1.7045
 5762SOL    MW422816   2.318   5.683   3.094 -0.0624 -0.6170 -0.2481
 5763SOL     OW22817   1.888   1.819   5.593  0.7965  0.3719  0.1552
 5763SOL    HW222818   1.914   1.728   5.585  0.9123  0.3354  0.8776
 5763SOL    HW322819   1.970   1.868   5.592  0.7207  0.4946 -0.4960
 5763SOL    MW422820   1.902   1.814   5.592  0.8018  0.3833  0.1646
 5764SOL     OW22821   6.084   4.755   4.403 -0.1581  0.2371  0.7659
 5764SOL    HW222822   6.010   4.708   4.365 -0.4794  0.5541  0.9964
 5764SOL    HW322823   6.088   4.837   4.353 -1.3704  1.2274  2.2306
 5764SOL    MW422824   6.075   4.760   4.391 -0.3604  0.4096  0.9896
 5765SOL     OW22825   0.389   5.237   2.301 -0.3548  0.0270 -0.1370
 5765SOL    HW222826   0.421   5.151   2.271 -0.0937 -0.1170  0.5433
 5765SOL    HW322827   0.381   5.228   2.396  3.1218  1.8470  0.4609
 5765SOL    MW422828   0.392   5.224   2.309  0.1383  0.2481  0.0316
 5766SOL     OW22829   5.042   5.730   4.164  0.6082 -0.4984  0.1360
 5766SOL    HW222830   5.012   5.728   4.255  0.2471 -0.9069  0.0082
 5766SOL    HW322831   4.976   5.783   4.118 -0.9767 -2.8614 -0.5077
 5766SOL    MW422832   5.029   5.737   4.170  0.3515 -0.8641  0.0342
 5767SOL     OW22833   4.408   2.953   4.603 -0.8295 -0.2043  0.5411
 5767SOL    HW222834   4.503   2.942   4.599 -0.9467 -0.9732 -0.3695
 5767SOL    HW322835   4.392   3.039   4.565 -0.5974 -0.6918 -0.7154
 5767SOL    MW422836   4.419   2.963   4.598 -0.8143 -0.3700  0.2551
 5768SOL     OW22837   5.961   6.420   2.952  0.4170 -0.2380  0.2428
 5768SOL    HW222838   5.945   6.506   2.992 -0.4474 -0.5608  0.6087
 5768SOL    HW322839   5.925   6.357   3.014  0.5760 -0.8411 -0.2648
 5768SOL    MW422840   5.954   6.423   2.965  0.3239 -0.3601  0.2241
 5769SOL     OW22841   5.688   5.067   3.940  0.0715  0.2134  0.5037
 5769SOL    HW222842   5.647   5.062   3.854  2.0442 -1.6247 -0.4145
 5769SOL    HW322843   5.626   5.023   3.999 -2.6108  3.7966  0.7674
 5769SOL    MW422844   5.674   5.061   3.937 -0.0221  0.4437  0.4173
 5770SOL     OW22845   0.757   5.571   1.934 -0.2202  0.2888  0.0706
 5770SOL    HW222846   0.769   5.638   2.002  2.5013  0.0770 -0.0695
 5770SOL    HW322847   0.683   5.519   1.964 -0.4500  1.4981  1.7733
 5770SOL    MW422848   0.749   5.573   1.947  0.1085  0.4204  0.2767
 5771SOL     OW22849   3.535   4.595   2.734 -0.0568  0.3005 -0.4487
 5771SOL    HW222850   3.551   4.687   2.758 -0.2669 -0.0584  1.1922
 5771SOL    HW322851   3.585   4.545   2.798 -1.1736 -0.7445 -0.3569
 5771SOL    MW422852   3.544   4.601   2.746 -0.2319  0.1153 -0.2201
 5772SOL     OW22853   0.636   3.755   3.143  0.2169 -0.0174 -0.4090
 5772SOL    HW222854   0.689   3.826   3.180  0.5798 -0.8008  0.5884
 5772SOL    HW322855   0.667   3.748   3.052  1.2777  0.0679 -0.0734
 5772SOL    MW422856   0.647   3.764   3.136  0.4047 -0.1095 -0.2331
 5773SOL     OW22857   3.531   2.034   2.297  0.7422 -0.3214  0.4984
 5773SOL    HW222858   3.560   2.078   2.377 -0.2457 -0.4777  0.9611
 5773SOL    HW322859   3.598   1.968   2.280  2.5380  1.6268 -0.5000
 5773SOL    MW422860   3.544   2.031   2.305  0.8488 -0.0850  0.4277
 5774SOL     OW22861   6.152   2.872   3.363  0.5418 -0.1913  0.1744
 5774SOL    HW222862   6.195   2.928   3.299  0.7632 -0.6547 -0.0876
 5774SOL    HW322863   6.122   2.932   3.431  1.2235  0.1918  0.1476
 5774SOL    MW422864   6.154   2.888   3.364  0.6610 -0.2019  0.1363
 5775SOL     OW22865   0.937   5.790   5.151  0.0042 -0.8563 -0.4484
 5775SOL    HW222866   0.896   5.875   5.134  0.9548 -0.1926  0.4367
 5775SOL    HW322867   0.988   5.771   5.073  0.9532  0.1111 -0.0863
 5775SOL    MW422868   0.938   5.799   5.139  0.2548 -0.6411 -0.2838
 5776SOL     OW22869   4.576   2.237   2.057 -0.1418  0.2641  0.3007
 5776SOL    HW222870   4.510   2.276   2.115 -0.3684 -0.0277  0.2392
 5776SOL    HW322871   4.611   2.163   2.107  1.6908  1.6637  1.2420
 5776SOL    MW422872   4.572   2.232   2.072  0.0701  0.4103  0.4168
 5777SOL     OW22873   4.008   4.058   4.200 -0.3968  0.6181 -0.4100
 5777SOL    HW222874   3.914   4.057   4.218 -0.8264  2.2437 -2.2298
 5777SOL    HW322875   4.033   3.966   4.196 -2.0556  0.1461 -0.6239
 5777SOL    MW422876   3.999   4.046   4.202 -0.6723  0.7703 -0.6783
 5778SOL     OW22877   6.190   2.300   2.047  0.3030  0.6576 -0.5498
 5778SOL    HW222878   6.115   2.259   2.003  0.7287 -1.8669  0.9035
 5778SOL    HW322879   6.154   2.332   2.130  0.7948 -0.5859  0.1646
 5778SOL    MW422880   6.175   2.299   2.052  0.4240  0.1604 -0.2638
 5779SOL     OW22881   3.087   6.266   6.071 -0.4947  0.1990 -0.7894
 5779SOL    HW222882   3.158   6.329   6.081 -1.2377  0.8491  0.6826
 5779SOL    HW322883   3.008   6.320   6.065 -1.1100 -0.5640  0.1912
 5779SOL    MW422884   3.086   6.282   6.071 -0.6739  0.1841 -0.4658
 5780SOL     OW22885   5.567   2.481   3.399  0.0424  0.4543  0.3284
 5780SOL    HW222886   5.511   2.407   3.424  1.1246 -1.1082 -1.6350
 5780SOL    HW322887   5.538   2.504   3.311  1.2352  0.8846  0.0404
 5780SOL    MW422888   5.555   2.474   3.391  0.3425  0.3049  0.0314
 5781SOL     OW22889   5.977   2.418   3.162 -0.0160 -0.2619  0.4619
 5781SOL    HW222890   6.040   2.463   3.220 -0.4430  0.0341  0.6974
 5781SOL    HW322891   5.928   2.361   3.221  0.6333 -1.1812  0.1429
 5781SOL    MW422892   5.979   2.416   3.178  0.0133 -0.3441  0.4509
 5782SOL     OW22893   6.112   2.405   4.501  0.2144  0.0401  0.1368
 5782SOL    HW222894   6.058   2.451   4.438 -1.1183 -0.7627  0.6568
 5782SOL    HW322895   6.078   2.431   4.586  1.1667  0.1315  0.5069
 5782SOL    MW422896   6.101   2.415   4.504  0.1642 -0.0538  0.2542
 5783SOL     OW22897   1.091   5.647   3.731 -0.2546 -0.0538  0.3585
 5783SOL    HW222898   1.081   5.672   3.639  0.9046  0.9675  0.4840
 5783SOL    HW322899   1.053   5.721   3.779 -1.5077 -0.8935  0.7306
 5783SOL    MW422900   1.085   5.660   3.725 -0.2670 -0.0298  0.4242
 5784SOL     OW22901   6.138   0.681   1.753  0.8190  0.3262  0.1927
 5784SOL    HW222902   6.095   0.612   1.802  1.3516 -0.6048 -0.6205
 5784SOL    HW322903   6.070   0.746   1.737  0.0054 -0.5740 -0.0753
 5784SOL    MW422904   6.124   0.681   1.757  0.7819  0.0846  0.0501
 5785SOL     OW22905   5.171   6.113   1.569  0.2449  0.1923 -0.2350
 5785SOL    HW222906   5.173   6.184   1.504  1.5228 -0.7219 -1.2354
 5785SOL    HW322907   5.186   6.157   1.653  1.6774  1.0466 -0.9058
 5785SOL    MW422908   5.173   6.129   1.571  0.6025  0.1844 -0.4555
 5786SOL     OW22909   0.829   0.572   0.810  0.2869 -0.7099  0.0070
 5786SOL    HW222910   0.846   0.530   0.894 -0.0168 -0.5331  0.1557
 5786SOL    HW322911   0.891   0.530   0.749  0.3402 -1.0033  0.2648
 5786SOL    MW422912   0.840   0.561   0.813  0.2539 -0.7253  0.0606
 5787SOL     OW22913   4.777   3.901   0.968  0.1465  0.6101  0.2066
 5787SOL    HW222914   4.682   3.904   0.960  0.0574  1.2050  1.2886
 5787SOL    HW322915   4.795   3.819   1.013  0.1025  0.7601  0.4987
 5787SOL    MW422916   4.767   3.891   0.973  0.1289  0.7084  0.3879
 5788SOL     OW22917   0.526   2.959   6.396  0.0363 -0.7700 -0.1199
 5788SOL    HW222918   0.533   3.027   6.463 -1.4739 -0.5387 -0.1465
 5788SOL    HW322919   0.588   2.986   6.328 -0.4226  0.5181 -0.0609
 5788SOL    MW422920   0.535   2.971   6.395 -0.2235 -0.5695 -0.1156
 5789SOL     OW22921   3.815   1.380   3.812  0.3903  0.5532 -0.0269
 5789SOL    HW222922   3.899   1.426   3.821  0.2767  0.6643  0.4896
 5789SOL    HW322923   3.816   1.316   3.884  0.1769  0.3240 -0.2273
 5789SOL    MW422924   3.826   1.378   3.823  0.3472  0.5377  0.0148
 5790SOL     OW22925   1.701   6.398   5.153 -0.3870 -0.0324  0.0030
 5790SOL    HW222926   1.609   6.373   5.145 -0.5587 -0.1092  1.7051
 5790SOL    HW322927   1.749   6.323   5.118 -0.9500 -1.5615  2.2534
 5790SOL    MW422928   1.695   6.385   5.147 -0.4839 -0.2443  0.5245
 5791SOL     OW22929   4.467   5.451   3.656  0.0063  0.0350  0.1253
 5791SOL    HW222930   4.491   5.506   3.581 -0.9762  0.9392  0.4339
 5791SOL    HW322931   4.550   5.428   3.697  0.7462 -1.9914 -2.2237
 5791SOL    MW422932   4.481   5.455   3.651 -0.0257 -0.1131 -0.1439
 5792SOL     OW22933   6.447   1.498   5.067  0.2539 -0.5658  0.1520
 5792SOL    HW222934   6.399   1.530   4.990 -0.2770  1.4240  1.2416
 5792SOL    HW322935   6.528   1.550   5.068 -0.7396  1.0670  2.1131
 5792SOL    MW422936   6.452   1.509   5.057  0.0528 -0.0878  0.5545
 5793SOL     OW22937   3.103   2.801   2.453 -0.4812 -0.2889  0.3811
 5793SOL    HW222938   3.172   2.770   2.513 -1.2361 -1.0325  0.8870
 5793SOL    HW322939   3.031   2.740   2.466 -0.7981 -0.2452 -1.0443
 5793SOL    MW422940   3.103   2.789   2.463 -0.6226 -0.3812  0.2598
 5794SOL     OW22941   5.027   0.790   0.437 -0.1955  0.2600  0.0975
 5794SOL    HW222942   4.969   0.748   0.500  1.7705  0.2943  2.0333
 5794SOL    HW322943   5.069   0.718   0.390  1.1138  0.0898  1.4826
 5794SOL    MW422944   5.025   0.775   0.439  0.2367  0.2420  0.5357
 5795SOL     OW22945   4.900   6.412   0.675 -0.0784  0.2951  0.4963
 5795SOL    HW222946   4.829   6.400   0.612 -0.6557 -1.1043  1.3683
 5795SOL    HW322947   4.895   6.335   0.732  1.5145  0.6624  1.1924
 5795SOL    MW422948   4.890   6.400   0.674  0.0556  0.1589  0.7032
 5796SOL     OW22949   6.378   5.170   1.961 -0.1759  0.2459  0.1347
 5796SOL    HW222950   6.373   5.231   2.034  0.4686  1.3693 -0.7233
 5796SOL    HW322951   6.293   5.175   1.918  0.0120  0.8778 -0.1772
 5796SOL    MW422952   6.366   5.179   1.965 -0.0661  0.4775 -0.0197
 5797SOL     OW22953   5.310   4.381   3.140  0.1669  0.4849  0.0895
 5797SOL    HW222954   5.323   4.476   3.134 -0.2082  0.5749  0.5758
 5797SOL    HW322955   5.222   4.367   3.105 -0.0070  0.3923  0.5578
 5797SOL    MW422956   5.300   4.392   3.135  0.0944  0.4845  0.2154
 5798SOL     OW22957   1.523   1.527   3.292 -0.3598 -0.4664 -0.2992
 5798SOL    HW222958   1.599   1.508   3.346  0.3392  2.4219 -0.1112
 5798SOL    HW322959   1.460   1.566   3.352 -0.6192  0.3252 -1.0558
 5798SOL    MW422960   1.524   1.530   3.307 -0.3018  0.0191 -0.3742
 5799SOL     OW22961   1.682   1.488   4.399  0.0831  0.3716 -0.1049
 5799SOL    HW222962   1.777   1.479   4.402 -0.0624 -1.4673  2.8267
 5799SOL    HW322963   1.665   1.578   4.424  1.0675  0.2613  1.0666
 5799SOL    MW422964   1.692   1.498   4.402  0.1938  0.1144  0.4364
 5800SOL     OW22965   1.910   0.672   3.911 -0.4381  0.3046  0.1096
 5800SOL    HW222966   1.847   0.721   3.857 -0.7164 -0.3543 -0.1721
 5800SOL    HW322967   1.908   0.583   3.876  1.5442  0.5286 -0.6818
 5800SOL    MW422968   1.901   0.667   3.900 -0.2132  0.2472 -0.0319
 5801SOL     OW22969   3.263   6.087   2.008 -0.3262 -0.3645  0.8775
 5801SOL    HW222970   3.242   6.122   1.921  2.0583  0.6283  0.6318
 5801SOL    HW322971   3.232   6.153   2.069 -0.1935 -0.1074  0.6677
 5801SOL    MW422972   3.256   6.100   2.005  0.0059 -0.1996  0.8174
 5802SOL     OW22973   6.105   1.416   4.047  0.0303  0.1224  0.2665
 5802SOL    HW222974   6.117   1.339   4.102  0.8524  2.0669  3.0508
 5802SOL    HW322975   6.194   1.443   4.024 -0.2254  0.5257 -0.2653
 5802SOL    MW422976   6.119   1.410   4.052  0.1050  0.4321  0.5637
 5803SOL     OW22977   0.055   6.269   5.897  0.0602  0.2510 -0.3136
 5803SOL    HW222978   0.138   6.239   5.862  0.7095 -1.0829  2.1290
 5803SOL    HW322979   0.063   6.365   5.901  1.9551  0.0853  0.8931
 5803SOL    MW422980   0.067   6.278   5.893  0.3959  0.0531  0.1679
 5804SOL     OW22981   0.555   6.392   1.013 -0.3718 -0.0000 -0.1027
 5804SOL    HW222982   0.515   6.451   1.077  0.0404  0.7165 -0.4879
 5804SOL    HW322983   0.641   6.430   0.996  0.7990 -1.9055  1.2369
 5804SOL    MW422984   0.561   6.405   1.019 -0.1629 -0.1569  0.0233
 5805SOL     OW22985   0.888   1.150   1.655 -0.2039  0.2730 -0.0656
 5805SOL    HW222986   0.942   1.226   1.678 -1.0648  0.8717  0.0398
 5805SOL    HW322987   0.814   1.154   1.716  0.6170 -1.6961  1.1771
 5805SOL    MW422988   0.885   1.161   1.666 -0.2092  0.0922  0.1122
 5806SOL     OW22989   3.575   0.892   1.930  0.2660 -0.7754 -0.2800
 5806SOL    HW222990   3.573   0.910   2.024  3.1929  0.0230 -0.2926
 5806SOL    HW322991   3.515   0.956   1.892  1.4399  1.0604  0.8020
 5806SOL    MW422992   3.567   0.903   1.938  0.8071 -0.4279 -0.1389
 5807SOL     OW22993   3.837   2.656   2.067  0.4088  0.1477  0.0256
 5807SOL    HW222994   3.836   2.721   1.996 -0.0510  0.4296  0.2848
 5807SOL    HW322995   3.930   2.639   2.082  0.5670  1.2635  0.4159
 5807SOL    MW422996   3.849   2.662   2.060  0.3690  0.3321  0.1113
 5808SOL     OW22997   2.657   5.210   4.384 -0.5082  0.7717  0.0141
 5808SOL    HW222998   2.679   5.138   4.324 -0.0631  0.8601  0.0685
 5808SOL    HW322999   2.607   5.168   4.454  1.0292  0.2308  0.8395
 5808SOL    MW423000   2.653   5.195   4.385 -0.2466  0.7120  0.1302
 5809SOL     OW23001   4.185   2.356   2.582  0.2319  0.2403 -0.4498
 5809SOL    HW223002   4.251   2.341   2.514 -0.1775  1.4055 -1.1396
 5809SOL    HW323003   4.159   2.447   2.570 -0.3094  0.2806  0.8822
 5809SOL    MW423004   4.191   2.366   2.571  0.1065  0.3994 -0.3650
 5810SOL     OW23005   2.158   0.856   2.610  0.2277 -0.4921 -0.7298
 5810SOL    HW223006   2.159   0.897   2.524  4.1201 -0.1412 -0.6831
 5810SOL    HW323007   2.193   0.768   2.595 -2.1921 -1.6767  0.0953
 5810SOL    MW423008   2.163   0.850   2.597  0.4220 -0.6021 -0.6148
 5811SOL     OW23009   5.703   0.537   5.768 -0.0263 -0.4547 -0.0895
 5811SOL    HW223010   5.645   0.473   5.808 -2.3638  1.4375 -0.2179
 5811SOL    HW323011   5.746   0.580   5.842 -0.3194 -0.5375  0.1301
 5811SOL    MW423012   5.701   0.534   5.783 -0.3734 -0.2160 -0.0775
 5812SOL     OW23013   2.653   2.525   3.259  0.4412  0.0524  0.4017
 5812SOL    HW223014   2.718   2.469   3.302  3.5020  2.7591 -0.2904
 5812SOL    HW323015   2.678   2.524   3.167 -2.3006 -0.9029 -0.4327
 5812SOL    MW423016   2.665   2.517   3.253  0.4833  0.2834  0.2003
 5813SOL     OW23017   3.708   1.370   4.734 -0.1232  0.0301  0.2023
 5813SOL    HW223018   3.760   1.361   4.814 -1.5858 -0.4231  1.1420
 5813SOL    HW323019   3.769   1.351   4.663  1.6459  2.1118  1.0646
 5813SOL    MW423020   3.723   1.366   4.735 -0.0828  0.2449  0.4400
 5814SOL     OW23021   4.573   1.770   6.167  0.0358  0.1223 -0.6722
 5814SOL    HW223022   4.622   1.850   6.188  1.0326 -0.6500  0.0057
 5814SOL    HW323023   4.626   1.727   6.101  0.8867 -1.2648  0.8505
 5814SOL    MW423024   4.587   1.775   6.161  0.2796 -0.1626 -0.3819
 5815SOL     OW23025   3.464   3.020   3.398 -0.1337  0.3705 -0.5811
 5815SOL    HW223026   3.507   2.955   3.453 -1.0818  0.7807  0.6795
 5815SOL    HW323027   3.519   3.025   3.320 -0.6830 -2.8352 -1.3210
 5815SOL    MW423028   3.477   3.012   3.395 -0.3313  0.0017 -0.5124
 5816SOL     OW23029   2.642   1.649   1.441  0.4965  0.1592 -0.1968
 5816SOL    HW223030   2.720   1.677   1.393  0.7413 -0.5372 -0.2091
 5816SOL    HW323031   2.627   1.720   1.504  1.2309  0.2254 -0.0852
 5816SOL    MW423032   2.650   1.662   1.443  0.6257  0.0760 -0.1837
 5817SOL     OW23033   3.949   6.205   1.637  0.2618  0.0684  0.3430
 5817SOL    HW223034   3.978   6.296   1.640  0.4961 -0.0149  0.6326
 5817SOL    HW323035   3.864   6.209   1.593 -0.2078  0.5549  1.2535
 5817SOL    MW423036   3.941   6.218   1.632  0.2307  0.1216  0.5014
 5818SOL     OW23037   2.086   5.688   5.474  0.0540 -0.1151  0.2952
 5818SOL    HW223038   2.121   5.687   5.563  0.7157  1.6030  0.0990
 5818SOL    HW323039   2.144   5.630   5.425  0.5424  0.0178  0.7055
 5818SOL    MW423040   2.098   5.680   5.479  0.2057  0.1291  0.3235
 5819SOL     OW23041   1.276   5.609   5.658  0.2078  0.0437 -0.0324
 5819SOL    HW223042   1.197   5.569   5.693  0.2938  0.5811  0.8144
 5819SOL    HW323043   1.246   5.663   5.585 -0.1445 -0.1029  0.0020
 5819SOL    MW423044   1.262   5.611   5.653  0.1727  0.0953  0.0839
 5820SOL     OW23045   1.749   3.339   5.054  0.4018  0.4978 -0.0789
 5820SOL    HW223046   1.775   3.313   5.142  0.3085 -0.0307 -0.2061
 5820SOL    HW323047   1.653   3.341   5.058  0.3644 -0.4017 -0.4125
 5820SOL    MW423048   1.740   3.336   5.066  0.3846  0.3094 -0.1397
 5821SOL     OW23049   1.301   3.641   0.251  0.2448  0.3331 -0.1712
 5821SOL    HW223050   1.319   3.706   0.319  0.4945 -1.7503  1.8653
 5821SOL    HW323051   1.362   3.663   0.180  1.1761  1.5616  0.9593
 5821SOL    MW423052   1.311   3.652   0.250  0.4006  0.2203  0.2466
 5822SOL     OW23053   2.735   3.502   3.584  0.5277 -0.2286 -0.1183
 5822SOL    HW223054   2.768   3.545   3.663 -0.1320 -0.1564  0.1182
 5822SOL    HW323055   2.710   3.575   3.527  4.6253 -0.0306 -2.0849
 5822SOL    MW423056   2.736   3.517   3.587  0.9813 -0.1929 -0.3466
 5823SOL     OW23057   5.348   4.757   6.317 -0.4580 -0.2713  0.5727
 5823SOL    HW223058   5.371   4.758   6.224  0.4348  2.1536  0.7439
 5823SOL    HW323059   5.262   4.799   6.320 -0.7149 -0.8105  0.8070
 5823SOL    MW423060   5.340   4.763   6.305 -0.3741 -0.0225  0.6262
 5824SOL     OW23061   4.023   6.417   2.724 -0.0757  0.4929  0.0661
 5824SOL    HW223062   3.992   6.344   2.778 -1.2596 -0.0296 -1.2505
 5824SOL    HW323063   4.107   6.388   2.688  0.2866  0.4883  0.9036
 5824SOL    MW423064   4.030   6.403   2.726 -0.1841  0.4233  0.0029
 5825SOL     OW23065   4.529   4.324   5.606 -0.2858  0.3798  0.5168
 5825SOL    HW223066   4.525   4.306   5.512 -0.0021 -0.0310  0.5822
 5825SOL    HW323067   4.453   4.379   5.623 -0.9590 -0.4498  0.2412
 5825SOL    MW423068   4.519   4.329   5.596 -0.3372  0.2162  0.4890
 5826SOL     OW23069   1.705   0.668   4.445 -0.2099  0.2185  0.2966
 5826SOL    HW223070   1.782   0.656   4.501  0.6414 -0.4944 -0.9606
 5826SOL    HW323071   1.710   0.759   4.415  1.5741 -0.4555 -1.7034
 5826SOL    MW423072   1.716   0.678   4.448  0.1378  0.0355 -0.1331
 5827SOL     OW23073   4.833   1.267   5.154 -0.0724 -0.4506 -0.1609
 5827SOL    HW223074   4.814   1.251   5.247 -1.3647 -0.7818 -0.4653
 5827SOL    HW323075   4.749   1.292   5.116  0.6473  0.8055 -1.0295
 5827SOL    MW423076   4.820   1.268   5.161 -0.1480 -0.3286 -0.3156
 5828SOL     OW23077   1.604   2.829   5.416 -0.2745 -0.0658  0.0290
 5828SOL    HW223078   1.685   2.863   5.376  0.6872 -0.5884  1.4639
 5828SOL    HW323079   1.540   2.831   5.344  1.1739 -0.2470 -1.3286
 5828SOL    MW423080   1.606   2.834   5.401  0.0435 -0.1587  0.0392
 5829SOL     OW23081   0.190   2.700   2.346  0.5768  0.4519 -0.1408
 5829SOL    HW223082   0.252   2.681   2.275 -1.0187  0.1367 -1.5276
 5829SOL    HW323083   0.136   2.771   2.311 -0.3415  0.1807  0.6919
 5829SOL    MW423084   0.191   2.707   2.332  0.2452  0.3745 -0.2139
 5830SOL     OW23085   1.586   4.485   2.888  0.0040 -0.5532  0.1777
 5830SOL    HW223086   1.621   4.472   2.800  1.1169 -0.6897  0.6129
 5830SOL    HW323087   1.540   4.569   2.884  0.7325 -0.1615 -0.3474
 5830SOL    MW423088   1.585   4.494   2.876  0.2470 -0.5196  0.1659
 5831SOL     OW23089   2.378   2.509   6.161 -0.1832 -0.1916 -0.2678
 5831SOL    HW223090   2.424   2.448   6.103 -1.4105 -2.7840  1.3372
 5831SOL    HW323091   2.418   2.496   6.247 -1.6834 -0.0844  0.4737
 5831SOL    MW423092   2.389   2.499   6.164 -0.5430 -0.5195  0.0418
 5832SOL     OW23093   5.971   5.051   4.301 -0.4697 -0.3611  0.3926
 5832SOL    HW223094   5.922   5.115   4.248  0.9881  1.2559  0.8901
 5832SOL    HW323095   5.993   5.099   4.381 -0.5664 -1.9942  1.4422
 5832SOL    MW423096   5.967   5.066   4.305 -0.2901 -0.3632  0.5967
 5833SOL     OW23097   1.402   4.809   5.009  0.0340  0.3079  0.5230
 5833SOL    HW223098   1.390   4.734   4.951 -3.5753  0.6270  0.6088
 5833SOL    HW323099   1.457   4.869   4.960 -0.2665 -0.7767 -1.2293
 5833SOL    MW423100   1.407   4.807   4.995 -0.4818  0.2069  0.3031
 5834SOL     OW23101   1.121   3.221   5.539  0.7617  0.0885 -0.3178
 5834SOL    HW223102   1.049   3.264   5.492 -1.2049 -1.8688  0.6804
 5834SOL    HW323103   1.161   3.163   5.475 -0.5230 -0.9902 -0.1930
 5834SOL    MW423104   1.117   3.219   5.525  0.3327 -0.3120 -0.1696
 5835SOL     OW23105   5.849   4.052   3.142  0.0575 -0.5232 -0.1535
 5835SOL    HW223106   5.764   4.007   3.135 -1.1726  1.2657  1.9238
 5835SOL    HW323107   5.850   4.112   3.067  0.5710 -2.1277 -1.4876
 5835SOL    MW423108   5.838   4.054   3.131 -0.0371 -0.4989 -0.0555
 5836SOL     OW23109   1.987   4.026   1.500  0.0932 -0.3142  0.2050
 5836SOL    HW223110   1.996   4.021   1.405  0.4799 -1.1388  0.2809
 5836SOL    HW323111   2.022   4.112   1.523  1.3516 -0.6794 -0.2514
 5836SOL    MW423112   1.993   4.037   1.491  0.3102 -0.4712  0.1548
 5837SOL     OW23113   5.404   2.091   5.403 -0.1968 -1.0068 -0.5275
 5837SOL    HW223114   5.486   2.043   5.400  1.4402  1.3089  2.0929
 5837SOL    HW323115   5.411   2.154   5.332  0.5414 -0.5535 -0.0730
 5837SOL    MW423116   5.416   2.093   5.393  0.1166 -0.6415 -0.1218
 5838SOL     OW23117   2.597   0.984   6.203 -0.2469  0.5239 -0.1412
 5838SOL    HW223118   2.504   0.962   6.194 -0.1077  0.4619 -1.8808
 5838SOL    HW323119   2.618   1.033   6.123  1.4154 -0.2040 -0.2008
 5838SOL    MW423120   2.588   0.988   6.191 -0.0092  0.4197 -0.3786
 5839SOL     OW23121   5.469   1.686   2.748  0.2728 -0.2138  0.5200
 5839SOL    HW223122   5.483   1.699   2.654  2.2153 -0.8217  0.6771
 5839SOL    HW323123   5.391   1.632   2.753 -0.5332  0.7859 -0.6785
 5839SOL    MW423124   5.461   1.680   2.737  0.4227 -0.1621  0.3826
 5840SOL     OW23125   2.630   5.376   2.092  0.2088  0.4412 -0.1991
 5840SOL    HW223126   2.575   5.448   2.060  1.4193  0.5134 -2.2730
 5840SOL    HW323127   2.590   5.297   2.055  1.0048  0.4241 -1.0603
 5840SOL    MW423128   2.617   5.375   2.083  0.4735  0.4485 -0.5863
 5841SOL     OW23129   5.915   0.850   6.399 -0.3521  0.0080  0.4469
 5841SOL    HW223130   5.858   0.776   6.379 -1.0670  0.9372 -1.2467
 5841SOL    HW323131   5.997   0.829   6.356  0.0899 -0.6262  1.5669
 5841SOL    MW423132   5.918   0.838   6.390 -0.3881  0.0469  0.3712
 5842SOL     OW23133   5.886   5.672   6.318 -0.0251 -0.3131  0.0836
 5842SOL    HW223134   5.852   5.584   6.334  0.9312 -0.9369 -1.1205
 5842SOL    HW323135   5.831   5.730   6.371 -2.2016 -1.3634 -0.9160
 5842SOL    MW423136   5.875   5.668   6.328 -0.1861 -0.5340 -0.2071
 5843SOL     OW23137   1.045   5.278   4.270  0.5925  0.1892  0.2016
 5843SOL    HW223138   1.078   5.295   4.358  1.3778  1.7901 -0.3603
 5843SOL    HW323139   1.096   5.336   4.214 -2.1491  1.6861 -0.9285
 5843SOL    MW423140   1.057   5.288   4.274  0.3344  0.5979 -0.0216
 5844SOL     OW23141   2.525   0.761   3.795  0.0393  0.4698  0.0296
 5844SOL    HW223142   2.488   0.799   3.874  0.1558  0.8425 -0.0942
 5844SOL    HW323143   2.460   0.695   3.768  0.2313 -0.0071  0.6997
 5844SOL    MW423144   2.511   0.757   3.802  0.0800  0.4560  0.1017
 5845SOL     OW23145   5.667   6.212   4.257  0.7386  0.2109  0.3779
 5845SOL    HW223146   5.702   6.241   4.172 -0.4727 -0.0566 -0.2291
 5845SOL    HW323147   5.735   6.155   4.293  0.6186 -0.9230 -1.1209
 5845SOL    MW423148   5.681   6.209   4.250  0.5630  0.0260  0.1001
 5846SOL     OW23149   2.908   1.522   2.151  0.0409 -0.0478  0.4849
 5846SOL    HW223150   2.919   1.439   2.198  0.3255 -0.8029 -0.8744
 5846SOL    HW323151   2.918   1.588   2.219  0.4827 -1.0997  1.4933
 5846SOL    MW423152   2.911   1.519   2.166  0.1367 -0.2862  0.4386
 5847SOL     OW23153   2.169   6.296   6.386  0.3702 -0.4375 -0.2430
 5847SOL    HW223154   2.170   6.274   6.479 -0.5911 -2.3227 -0.6262
 5847SOL    HW323155   2.225   6.230   6.345 -0.5525 -0.6814 -1.1708
 5847SOL    MW423156   2.176   6.285   6.393  0.1216 -0.7184 -0.4159
 5848SOL     OW23157   2.115   3.142   4.043  0.5154 -0.0041  0.5227
 5848SOL    HW223158   2.110   3.134   4.138  0.0167  0.8062  0.5707
 5848SOL    HW323159   2.061   3.218   4.022 -1.9344 -1.9341 -0.7042
 5848SOL    MW423160   2.107   3.151   4.053  0.1264 -0.1518  0.3671
 5849SOL     OW23161   4.308   4.366   6.294 -0.3119 -0.1369 -0.1732
 5849SOL    HW223162   4.229   4.417   6.274  0.1514  0.1771 -1.2667
 5849SOL    HW323163   4.295   4.283   6.250  0.4574  0.3403 -1.3340
 5849SOL    MW423164   4.296   4.362   6.286 -0.1493 -0.0325 -0.4706
 5850SOL     OW23165   4.776   3.141   2.230  0.8367 -0.0394 -0.2184
 5850SOL    HW223166   4.812   3.180   2.150 -1.1587 -0.1507 -1.2326
 5850SOL    HW323167   4.853   3.123   2.284  2.3575 -0.6394 -2.4090
 5850SOL    MW423168   4.791   3.144   2.226  0.7741 -0.1332 -0.6412
 5851SOL     OW23169   5.168   0.440   5.312  0.1095  0.2085  0.3660
 5851SOL    HW223170   5.191   0.532   5.327  1.1825 -0.3073  2.2270
 5851SOL    HW323171   5.081   0.443   5.273  0.0541  2.0081  0.5373
 5851SOL    MW423172   5.160   0.453   5.309  0.2437  0.3779  0.6341
 5852SOL     OW23173   1.316   0.207   1.195 -0.1833 -0.2055 -0.2450
 5852SOL    HW223174   1.344   0.253   1.116  2.0710  0.2912  0.7661
 5852SOL    HW323175   1.397   0.186   1.240 -1.3443 -1.8894  1.1839
 5852SOL    MW423176   1.330   0.210   1.190 -0.0391 -0.3621  0.0769
 5853SOL     OW23177   5.037   3.754   3.104  0.5756 -0.0592  0.0088
 5853SOL    HW223178   5.057   3.691   3.034  0.4626 -1.5443  1.2549
 5853SOL    HW323179   5.112   3.814   3.105  0.9648 -0.5127 -0.8352
 5853SOL    MW423180   5.049   3.754   3.095  0.6121 -0.3150  0.0619
 5854SOL     OW23181   4.536   0.331   0.404 -0.4041  0.0294  0.1346
 5854SOL    HW223182   4.537   0.420   0.369  1.5329  0.0588  0.1226
 5854SOL    HW323183   4.572   0.277   0.334 -0.3005 -0.5495  0.6270
 5854SOL    MW423184   4.541   0.336   0.391 -0.1349 -0.0431  0.1980
 5855SOL     OW23185   4.136   3.217   2.769 -0.1872  0.5730 -0.3920
 5855SOL    HW223186   4.228   3.244   2.765  0.0660 -0.3105 -1.0054
 5855SOL    HW323187   4.128   3.151   2.700 -0.4344 -1.7765  1.7375
 5855SOL    MW423188   4.147   3.212   2.759 -0.1864  0.1465 -0.1920
 5856SOL     OW23189   5.133   0.207   3.782  0.1657  0.3664  0.0905
 5856SOL    HW223190   5.182   0.257   3.847 -0.3947  2.9061 -1.3188
 5856SOL    HW323191   5.041   0.218   3.807 -0.1085  1.9435 -1.4078
 5856SOL    MW423192   5.127   0.215   3.794  0.0556  0.9096 -0.2931
 5857SOL     OW23193   5.467   5.153   5.521  0.4218 -0.3946 -0.1017
 5857SOL    HW223194   5.376   5.123   5.519  0.9854 -2.2431  0.5067
 5857SOL    HW323195   5.461   5.247   5.506 -1.8094 -0.0290  2.3161
 5857SOL    MW423196   5.454   5.162   5.519  0.2018 -0.5902  0.2975
 5858SOL     OW23197   5.261   1.267   0.429  0.6132 -0.4783 -0.0711
 5858SOL    HW223198   5.342   1.230   0.466  0.1427 -1.1877  0.2566
 5858SOL    HW323199   5.192   1.206   0.455  0.1109 -0.4393 -1.2295
 5858SOL    MW423200   5.263   1.254   0.437  0.4848 -0.5668 -0.1807
 5859SOL     OW23201   4.108   4.760   4.129 -0.3619  0.3109 -0.1388
 5859SOL    HW223202   4.187   4.787   4.082  0.4909  0.1074  1.1225
 5859SOL    HW323203   4.117   4.799   4.216  0.1437 -2.5365  1.2408
 5859SOL    MW423204   4.120   4.768   4.134 -0.1826 -0.0916  0.2096
 5860SOL     OW23205   6.418   3.135   6.367  0.6356  0.2163  0.5550
 5860SOL    HW223206   6.406   3.041   6.350  1.9968 -0.3316  2.2225
 5860SOL    HW323207   6.507   3.141   6.404 -0.2759  1.8028  2.7121
 5860SOL    MW423208   6.428   3.123   6.370  0.6949  0.3534  1.0596
 5861SOL     OW23209   4.657   0.827   5.043 -0.1052  0.5355  0.6248
 5861SOL    HW223210   4.633   0.866   5.127 -0.6020 -2.3356  1.9162
 5861SOL    HW323211   4.753   0.832   5.041 -0.0744  0.3927  1.4778
 5861SOL    MW423212   4.667   0.833   5.054 -0.1667  0.1379  0.9077
 5862SOL     OW23213   0.053   3.960   1.352  0.1603 -0.1370 -0.0352
 5862SOL    HW223214   0.090   4.047   1.334  1.0558 -0.4771  0.1416
 5862SOL    HW323215   0.031   3.926   1.265 -2.7153  1.3056 -0.0047
 5862SOL    MW423216   0.055   3.967   1.338 -0.1009  0.0084 -0.0079
 5863SOL     OW23217   3.389   4.663   0.132  0.3323 -0.3975 -0.0286
 5863SOL    HW223218   3.314   4.623   0.176  1.8606  0.1852  3.4337
 5863SOL    HW323219   3.459   4.597   0.137  0.8471  0.0641 -0.7771
 5863SOL    MW423220   3.389   4.649   0.138  0.6019 -0.2597  0.3294
 5864SOL     OW23221   6.388   2.757   0.661  0.1405 -0.1724 -0.4626
 5864SOL    HW223222   6.363   2.703   0.736  0.5028 -1.1733 -1.0340
 5864SOL    HW323223   6.360   2.845   0.684  1.6313 -0.1373  1.5365
 5864SOL    MW423224   6.381   2.762   0.674  0.3850 -0.2998 -0.2743
 5865SOL     OW23225   6.362   1.290   0.950  0.1636  0.6546 -0.0651
 5865SOL    HW223226   6.338   1.293   1.043  0.2140 -1.2783  0.0541
 5865SOL    HW323227   6.402   1.375   0.933 -2.5317  2.2230  0.8987
 5865SOL    MW423228   6.364   1.302   0.960 -0.1853  0.6065  0.0778
 5866SOL     OW23229   0.515   2.294   4.021  0.0557 -0.0814 -0.2139
 5866SOL    HW223230   0.444   2.310   4.082  1.1000  0.9075  0.7906
 5866SOL    HW323231   0.593   2.329   4.064  0.9130  0.2432 -1.9171
 5866SOL    MW423232   0.516   2.301   4.035  0.3066  0.0919 -0.3061
 5867SOL     OW23233   1.309   2.996   4.854 -0.7452  0.3135 -0.2795
 5867SOL    HW223234   1.244   3.027   4.917 -0.9383  0.0694 -0.3587
 5867SOL    HW323235   1.275   2.912   4.824 -0.2565  0.0524 -0.1145
 5867SOL    MW423236   1.296   2.989   4.859 -0.7062  0.2468 -0.2682
 5868SOL     OW23237   1.653   3.987   2.944 -0.1150 -0.0350 -0.4239
 5868SOL    HW223238   1.577   3.976   2.887  0.8952 -1.4948 -1.6065
 5868SOL    HW323239   1.636   4.066   2.993 -1.5992  0.6358 -1.9216
 5868SOL    MW423240   1.641   3.996   2.943 -0.1776 -0.1391 -0.7775
 5869SOL     OW23241   4.897   4.140   0.375  0.2781  0.2832  0.1578
 5869SOL    HW223242   4.913   4.048   0.355 -1.5183  0.2445 -1.4256
 5869SOL    HW323243   4.984   4.177   0.388  1.1668 -1.2539 -1.0040
 5869SOL    MW423244   4.911   4.132   0.374  0.1583  0.0753 -0.2044
 5870SOL     OW23245   2.579   5.870   5.980  0.1514 -0.1761  0.2292
 5870SOL    HW223246   2.621   5.931   5.920  1.8053  0.5703  2.0496
 5870SOL    HW323247   2.625   5.787   5.965  0.7041  0.0603  0.6049
 5870SOL    MW423248   2.590   5.867   5.970  0.4426 -0.0464  0.5189
 5871SOL     OW23249   1.139   1.635   0.157 -0.4101  0.2153 -0.2842
 5871SOL    HW223250   1.184   1.561   0.116 -1.3712 -0.7320  0.3102
 5871SOL    HW323251   1.094   1.596   0.232  0.1348  1.6548  0.8137
 5871SOL    MW423252   1.139   1.620   0.161 -0.4650  0.2803 -0.0609
 5872SOL     OW23253   4.742   4.449   2.043  0.8048  0.6209  0.1335
 5872SOL    HW223254   4.672   4.501   2.082 -0.2608 -1.2688  0.8665
 5872SOL    HW323255   4.744   4.368   2.094  0.2616 -1.4061 -2.8106
 5872SOL    MW423256   4.733   4.445   2.055  0.5925  0.1041 -0.1582
 5873SOL     OW23257   4.704   5.711   0.471  0.1401 -0.3552  0.4600
 5873SOL    HW223258   4.636   5.776   0.456  0.3427 -0.1335  0.4962
 5873SOL    HW323259   4.656   5.629   0.488 -0.1095 -0.7736 -1.9612
 5873SOL    MW423260   4.689   5.709   0.471  0.1339 -0.3811  0.1453
 5874SOL     OW23261   2.299   0.061   3.925  0.3331 -0.4569  0.1000
 5874SOL    HW223262   2.360  -0.012   3.938  0.0474 -0.7126 -0.0019
 5874SOL    HW323263   2.229   0.025   3.871 -1.1053 -0.8036  2.0942
 5874SOL    MW423264   2.298   0.047   3.920  0.1056 -0.5364  0.3496
 5875SOL     OW23265   1.559   5.779   5.135 -0.1038 -0.3502  0.7194
 5875SOL    HW223266   1.555   5.801   5.042 -0.0146 -0.2927  0.7288
 5875SOL    HW323267   1.488   5.716   5.148  0.1029 -0.6189  0.5422
 5875SOL    MW423268   1.549   5.774   5.124 -0.0648 -0.3781  0.6972
 5876SOL     OW23269   3.250   2.630   2.277  0.2329 -0.1953  0.5981
 5876SOL    HW223270   3.284   2.554   2.326 -1.2668 -0.5486  1.1325
 5876SOL    HW323271   3.188   2.672   2.337 -0.7894  0.0262 -0.5729
 5876SOL    MW423272   3.246   2.625   2.291 -0.0998 -0.2127  0.5141
 5877SOL     OW23273   5.705   4.928   1.344 -0.2054  0.2005  0.3932
 5877SOL    HW223274   5.662   4.848   1.314  0.6696  0.3246 -1.3377
 5877SOL    HW323275   5.636   4.979   1.386 -0.8226 -1.3377  1.3379
 5877SOL    MW423276   5.690   4.924   1.346 -0.1714  0.0139  0.2895
 5878SOL     OW23277   4.475   0.195   4.134 -0.1156 -0.0609 -0.4218
 5878SOL    HW223278   4.417   0.268   4.111  0.9583  0.9164 -0.0960
 5878SOL    HW323279   4.456   0.176   4.226 -1.7154 -1.4681 -0.9812
 5878SOL    MW423280   4.465   0.202   4.143 -0.1850 -0.1176 -0.4526
 5879SOL     OW23281   1.371   5.671   3.799  0.1489  0.4204  0.2670
 5879SOL    HW223282   1.277   5.667   3.782  0.1423 -2.0127  0.4429
 5879SOL    HW323283   1.379   5.645   3.891  1.0859 -1.9322 -0.4011
 5879SOL    MW423284   1.360   5.667   3.809  0.2716 -0.2111  0.2020
 5880SOL     OW23285   0.356   1.680   0.793  0.2024 -0.4374 -0.7781
 5880SOL    HW223286   0.284   1.698   0.733  0.1181 -0.1493 -0.5937
 5880SOL    HW323287   0.399   1.764   0.805  0.2877 -0.5169 -0.5222
 5880SOL    MW423288   0.352   1.693   0.787  0.2025 -0.4099 -0.7200
 5881SOL     OW23289   3.400   5.096   3.154 -0.4026  0.2819 -0.1531
 5881SOL    HW223290   3.313   5.123   3.182  0.5690  2.4086  1.0203
 5881SOL    HW323291   3.451   5.177   3.149  1.5705 -0.9020 -0.6171
 5881SOL    MW423292   3.395   5.110   3.157 -0.0141  0.4063 -0.0595
 5882SOL     OW23293   3.779   2.979   6.185 -0.2692  0.3498 -0.1755
 5882SOL    HW223294   3.842   2.987   6.256 -1.4143  2.0030  0.7287
 5882SOL    HW323295   3.829   2.996   6.105  0.7453 -0.1037  0.3511
 5882SOL    MW423296   3.794   2.982   6.184 -0.2864  0.5081  0.0133
 5883SOL     OW23297   1.562   3.823   4.017  0.2280 -0.6712  0.4060
 5883SOL    HW223298   1.649   3.792   4.042 -0.1071 -2.1151 -0.1288
 5883SOL    HW323299   1.502   3.778   4.076 -0.1393  0.9128  1.2971
 5883SOL    MW423300   1.565   3.813   4.028  0.1353 -0.6527  0.4530
 5884SOL     OW23301   4.903   5.393   4.499  0.3104 -0.2297  0.5576
 5884SOL    HW223302   4.939   5.479   4.475 -0.7231 -0.3301 -1.4879
 5884SOL    HW323303   4.978   5.334   4.494  0.2384 -0.1805 -2.2530
 5884SOL    MW423304   4.918   5.397   4.495  0.1645 -0.2364 -0.0831
 5885SOL     OW23305   5.906   1.788   5.369  0.2628  0.5077 -0.2349
 5885SOL    HW223306   5.848   1.777   5.293  0.6688  1.4858 -0.7079
 5885SOL    HW323307   5.967   1.714   5.364 -2.0287 -1.6554  1.3404
 5885SOL    MW423308   5.907   1.777   5.358  0.0140  0.3513 -0.0894
 5886SOL     OW23309   3.435   5.098   2.702 -0.2973 -0.0889 -0.4516
 5886SOL    HW223310   3.361   5.072   2.756 -0.0185 -0.5295 -0.2808
 5886SOL    HW323311   3.403   5.092   2.612 -0.0074 -1.8075 -0.4703
 5886SOL    MW423312   3.421   5.094   2.697 -0.2223 -0.3738 -0.4315
 5887SOL     OW23313   3.354   2.437   4.610  0.2060  0.2498  0.0329
 5887SOL    HW223314   3.431   2.380   4.617 -0.5143 -0.6166  1.1684
 5887SOL    HW323315   3.280   2.379   4.626 -0.5520  1.4775  1.1339
 5887SOL    MW423316   3.354   2.422   4.613  0.0109  0.2975  0.3280
 5888SOL     OW23317   5.484   1.134   3.813  0.2363  0.1285  0.2338
 5888SOL    HW223318   5.401   1.094   3.787 -0.1972  0.6843  0.7401
 5888SOL    HW323319   5.512   1.084   3.889 -1.5225  2.2118  2.3936
 5888SOL    MW423320   5.477   1.122   3.819 -0.0529  0.4767  0.5856
 5889SOL     OW23321   0.867   4.545   3.842  0.3889  0.5707 -0.2221
 5889SOL    HW223322   0.860   4.457   3.806 -0.7613  0.9607 -1.0135
 5889SOL    HW323323   0.777   4.573   3.858  0.8141  0.8351  2.0342
 5889SOL    MW423324   0.855   4.537   3.839  0.2933  0.6571 -0.0288
 5890SOL     OW23325   6.312   2.721   4.708  0.0125  0.0581  0.2936
 5890SOL    HW223326   6.346   2.631   4.714 -1.2991 -0.5815 -1.1939
 5890SOL    HW323327   6.228   2.718   4.754  0.0921  0.6151  0.4829
 5890SOL    MW423328   6.306   2.709   4.715 -0.1500  0.0472  0.1223
 5891SOL     OW23329   3.879   4.927   4.102 -0.3582  0.4610 -0.1151
 5891SOL    HW223330   3.909   5.015   4.125 -1.0274  0.1998  1.9577
 5891SOL    HW323331   3.958   4.874   4.098 -0.0633  0.8966 -0.0806
 5891SOL    MW423332   3.893   4.932   4.104 -0.4076  0.4840  0.1629
 5892SOL     OW23333   0.328   3.860   2.556 -0.3543 -0.4247  0.1523
 5892SOL    HW223334   0.342   3.925   2.625  0.6664  0.4209 -0.8139
 5892SOL    HW323335   0.301   3.781   2.603 -3.3975  1.1213  1.2553
 5892SOL    MW423336   0.327   3.859   2.571 -0.6212 -0.1092  0.1703
 5893SOL     OW23337   1.197   1.151   5.660  0.4450  0.1028 -0.4074
 5893SOL    HW223338   1.111   1.150   5.618  0.6400  0.5637 -0.8351
 5893SOL    HW323339   1.259   1.140   5.588  0.8071  1.4109 -0.3370
 5893SOL    MW423340   1.194   1.150   5.645  0.5185  0.3362 -0.4545
 5894SOL     OW23341   0.049   5.998   2.341 -0.3268 -0.1897 -0.0047
 5894SOL    HW223342  -0.013   5.948   2.288  0.7342 -1.3947 -0.1625
 5894SOL    HW323343   0.075   5.937   2.410  0.1580  0.5361  0.4702
 5894SOL    MW423344   0.044   5.983   2.343 -0.1228 -0.2529  0.0371
 5895SOL     OW23345   2.368   2.313   0.948 -0.5170 -0.3944 -0.2984
 5895SOL    HW223346   2.408   2.313   1.035  1.1413 -1.1718 -0.9987
 5895SOL    HW323347   2.384   2.401   0.915 -1.4473  0.0070  0.2930
 5895SOL    MW423348   2.376   2.324   0.955 -0.4209 -0.4440 -0.3128
 5896SOL     OW23349   2.181   0.775   1.738  0.3525  0.1921  0.3040
 5896SOL    HW223350   2.150   0.737   1.820  1.2801 -0.4323  0.3791
 5896SOL    HW323351   2.174   0.703   1.675 -2.5521  1.2875 -0.7639
 5896SOL    MW423352   2.176   0.760   1.741  0.0917  0.2543  0.1730
 5897SOL     OW23353   4.090   4.955   1.751  0.1030 -0.3311  0.1672
 5897SOL    HW223354   4.146   5.027   1.779  0.2301 -0.3685  0.0114
 5897SOL    HW323355   4.126   4.928   1.666 -0.1930 -0.3093  0.0348
 5897SOL    MW423356   4.102   4.961   1.743  0.0807 -0.3331  0.1292
 5898SOL     OW23357   0.177   3.854   4.974 -0.0268 -0.1882  0.0566
 5898SOL    HW223358   0.113   3.852   4.903  0.5626 -0.3915 -0.4872
 5898SOL    HW323359   0.191   3.762   4.997 -0.6103 -0.0920  0.8062
 5898SOL    MW423360   0.171   3.841   4.967 -0.0260 -0.2024  0.0838
 5899SOL     OW23361   4.080   0.415   1.730  0.3314 -0.3056 -0.4225
 5899SOL    HW223362   4.132   0.428   1.650 -0.9686 -0.6438 -1.3602
 5899SOL    HW323363   4.105   0.328   1.761 -0.6646 -1.0511 -1.6493
 5899SOL    MW423364   4.090   0.405   1.723  0.0284 -0.4486 -0.7081
 5900SOL     OW23365   1.797   5.119   5.426 -0.4695  0.5648 -0.5776
 5900SOL    HW223366   1.843   5.195   5.390 -1.7833  1.1042 -1.2000
 5900SOL    HW323367   1.831   5.045   5.377  0.9428  0.7087  0.1403
 5900SOL    MW423368   1.807   5.120   5.415 -0.4565  0.6550 -0.5650
 5901SOL     OW23369   5.368   5.988   1.333 -0.0219  0.1625  0.2728
 5901SOL    HW223370   5.296   5.942   1.375 -0.5282  0.3821 -0.3424
 5901SOL    HW323371   5.326   6.055   1.279  0.5340 -0.8997 -1.5558
 5901SOL    MW423372   5.353   5.991   1.331 -0.0153  0.0513 -0.0496
 5902SOL     OW23373   4.712   2.504   3.492 -0.0348 -0.0441  0.2601
 5902SOL    HW223374   4.779   2.468   3.432  1.4190  0.6348  1.4096
 5902SOL    HW323375   4.629   2.478   3.453  0.9010 -1.8337 -0.6869
 5902SOL    MW423376   4.710   2.496   3.479  0.2805 -0.1906  0.2868
 5903SOL     OW23377   0.598   3.503   4.102 -0.3009  0.1635  0.3462
 5903SOL    HW223378   0.518   3.507   4.050 -0.1028  0.3008  0.0529
 5903SOL    HW323379   0.607   3.410   4.125 -1.4244  0.3627  1.7600
 5903SOL    MW423380   0.588   3.491   4.098 -0.4230  0.2079  0.4940
 5904SOL     OW23381   5.588   3.885   0.334 -0.3094 -0.0292 -0.3274
 5904SOL    HW223382   5.513   3.862   0.388 -0.4576  0.4496 -0.3227
 5904SOL    HW323383   5.579   3.831   0.256 -0.6806  0.0540 -0.3445
 5904SOL    MW423384   5.577   3.875   0.331 -0.3779  0.0450 -0.3290
 5905SOL     OW23385   1.630   4.265   6.407 -0.4652  0.3170 -0.4556
 5905SOL    HW223386   1.644   4.359   6.417  2.0067 -0.0238 -0.0167
 5905SOL    HW323387   1.536   4.255   6.395 -1.5517  2.4867  4.2171
 5905SOL    MW423388   1.619   4.276   6.407 -0.2824  0.5583  0.2188
 5906SOL     OW23389   2.577   1.777   2.220  0.3498 -0.1095  0.0803
 5906SOL    HW223390   2.519   1.852   2.210  0.0478 -0.2237  0.8577
 5906SOL    HW323391   2.651   1.810   2.272  0.9392  0.0057 -0.8046
 5906SOL    MW423392   2.579   1.791   2.226  0.3877 -0.1094  0.0661
 5907SOL     OW23393   0.374   3.642   4.246 -0.1408  0.6445 -0.3394
 5907SOL    HW223394   0.319   3.605   4.316 -0.1698  1.9771  0.3626
 5907SOL    HW323395   0.459   3.600   4.258  0.4560  2.3114  1.8059
 5907SOL    MW423396   0.378   3.631   4.257 -0.0659  1.0403  0.0362
 5908SOL     OW23397   3.308   0.879   5.189  0.2429  0.2495  0.0970
 5908SOL    HW223398   3.275   0.955   5.141  1.1719 -0.3788 -1.5941
 5908SOL    HW323399   3.237   0.814   5.183 -0.1852  0.6354  0.7749
 5908SOL    MW423400   3.294   0.881   5.182  0.3090  0.2176 -0.0367
 5909SOL     OW23401   3.541   0.689   1.733 -0.2839  0.3676  0.0075
 5909SOL    HW223402   3.532   0.751   1.806 -0.2842 -1.6122  1.8002
 5909SOL    HW323403   3.630   0.656   1.741 -0.7588 -0.9697  0.0813
 5909SOL    MW423404   3.552   0.693   1.744 -0.3466 -0.0700  0.2538
 5910SOL     OW23405   5.053   5.640   0.173  0.3363 -0.3473 -0.3664
 5910SOL    HW223406   5.082   5.726   0.204  2.1940 -0.9087 -0.4471
 5910SOL    HW323407   5.021   5.655   0.085 -1.4446  0.6104  0.3855
 5910SOL    MW423408   5.052   5.653   0.166  0.3464 -0.2950 -0.2778
 5911SOL     OW23409   4.772   2.143   0.697 -0.5175  0.1885 -0.4283
 5911SOL    HW223410   4.832   2.146   0.772 -0.9350 -2.1813  0.0902
 5911SOL    HW323411   4.821   2.185   0.626  0.2862  1.5838  0.8702
 5911SOL    MW423412   4.787   2.149   0.698 -0.4666  0.0599 -0.1886
 5912SOL     OW23413   1.845   0.341   3.056 -0.2320 -0.0549  0.1196
 5912SOL    HW223414   1.918   0.339   3.117 -0.0879  1.5845  0.0478
 5912SOL    HW323415   1.862   0.417   3.001 -1.3948 -0.3339 -0.6564
 5912SOL    MW423416   1.857   0.351   3.057 -0.3664  0.1246  0.0077
 5913SOL     OW23417   5.315   2.803   1.001  0.4932 -0.3041 -1.0166
 5913SOL    HW223418   5.368   2.777   0.926  0.3363  1.0448 -1.6365
 5913SOL    HW323419   5.234   2.753   0.992 -0.6057  1.6770 -3.2796
 5913SOL    MW423420   5.311   2.793   0.990  0.3275  0.1352 -1.3970
 5914SOL     OW23421   2.686   2.964   6.184 -0.2131 -0.0801  0.7207
 5914SOL    HW223422   2.711   3.055   6.200  0.3612 -0.2698  0.9274
 5914SOL    HW323423   2.602   2.954   6.229 -1.1216  0.8034 -0.7130
 5914SOL    MW423424   2.678   2.975   6.192 -0.2572  0.0114  0.5588
 5915SOL     OW23425   2.297   2.433   5.252 -0.1977  0.5608 -0.1649
 5915SOL    HW223426   2.306   2.528   5.248  0.2692  0.5510  0.4847
 5915SOL    HW323427   2.348   2.407   5.328 -0.1061 -0.2412 -0.4848
 5915SOL    MW423428   2.305   2.442   5.261 -0.1240  0.4537 -0.1214
 5916SOL     OW23429   4.820   1.872   2.164 -0.3892 -0.0909  0.5155
 5916SOL    HW223430   4.758   1.812   2.121  0.3080  0.2077 -0.9507
 5916SOL    HW323431   4.839   1.939   2.098 -0.9556  1.6429  2.0370
 5916SOL    MW423432   4.814   1.873   2.150 -0.3720  0.1772  0.5228
 5917SOL     OW23433   4.719   3.514   4.945  0.3205  0.4539 -1.2971
 5917SOL    HW223434   4.798   3.469   4.973 -1.0137 -1.0989  0.1333
 5917SOL    HW323435   4.719   3.596   4.995  0.0516 -0.4467  0.2341
 5917SOL    MW423436   4.729   3.519   4.955  0.1090  0.1302 -0.9064
 5918SOL     OW23437   5.159   5.875   0.699 -0.0001 -0.1664  0.2761
 5918SOL    HW223438   5.224   5.811   0.726  0.3536  0.4417  0.9271
 5918SOL    HW323439   5.076   5.829   0.705  0.2595 -0.6006  0.6170
 5918SOL    MW423440   5.157   5.861   0.703  0.0808 -0.1434  0.4070
 5919SOL     OW23441   5.032   0.042   4.906  0.2583 -0.0215 -0.0755
 5919SOL    HW223442   4.963   0.000   4.958  0.3588  0.8302  0.7783
 5919SOL    HW323443   5.097  -0.026   4.892  0.4066 -0.1834  1.2654
 5919SOL    MW423444   5.031   0.028   4.911  0.2911  0.0695  0.2141
 5920SOL     OW23445   0.627   0.807   2.982 -0.0217  0.1680 -0.0434
 5920SOL    HW223446   0.668   0.735   3.029 -0.4365 -0.4375 -0.5885
 5920SOL    HW323447   0.575   0.764   2.913 -0.9659  0.9382  0.1712
 5920SOL    MW423448   0.625   0.792   2.979 -0.2010  0.1898 -0.0870
 5921SOL     OW23449   2.709   1.144   2.832  0.5088 -0.1123 -0.6942
 5921SOL    HW223450   2.773   1.081   2.798  0.6595 -0.8127  0.8197
 5921SOL    HW323451   2.644   1.090   2.877 -0.0727  0.7377 -0.4932
 5921SOL    MW423452   2.709   1.129   2.833  0.4520 -0.0926 -0.4679
 5922SOL     OW23453   1.359   4.583   4.816  0.0055  0.3357  0.3290
 5922SOL    HW223454   1.420   4.513   4.841  0.6027  0.1798 -1.4283
 5922SOL    HW323455   1.276   4.538   4.799  0.6735 -0.2007 -1.9187
 5922SOL    MW423456   1.356   4.568   4.817  0.1725  0.2443 -0.1994
 5923SOL     OW23457   4.929   4.853   4.136 -0.2358 -0.0142  0.1825
 5923SOL    HW223458   4.937   4.858   4.041  0.3075  1.7598  0.2869
 5923SOL    HW323459   4.845   4.893   4.155  0.7708  2.0451  0.5783
 5923SOL    MW423460   4.919   4.859   4.126 -0.0313  0.4916  0.2485
 5924SOL     OW23461   4.812   5.459   5.414  0.0505 -0.3939 -0.3036
 5924SOL    HW223462   4.851   5.538   5.377 -0.2722  0.3015  0.8167
 5924SOL    HW323463   4.733   5.445   5.362  1.0487 -1.0507 -1.7090
 5924SOL    MW423464   4.806   5.468   5.402  0.1396 -0.3888 -0.3412
 5925SOL     OW23465   5.814   1.980   5.952 -0.1890 -0.4965  0.4367
 5925SOL    HW223466   5.824   1.988   6.047 -0.5705 -2.2456  0.6535
 5925SOL    HW323467   5.741   1.918   5.941 -0.8279  0.4573 -1.0122
 5925SOL    MW423468   5.805   1.973   5.963 -0.3236 -0.6014  0.2741
 5926SOL     OW23469   1.329   2.401   3.125 -0.2893  0.5156 -0.5412
 5926SOL    HW223470   1.357   2.475   3.179  0.6733  1.6987 -2.5808
 5926SOL    HW323471   1.408   2.373   3.079 -0.4547 -2.3052  0.6904
 5926SOL    MW423472   1.343   2.407   3.126 -0.1842  0.2996 -0.6478
 5927SOL     OW23473   3.080   3.648   0.589  0.1251  0.1562 -0.2285
 5927SOL    HW223474   3.126   3.687   0.664 -0.6410  1.8934 -0.6205
 5927SOL    HW323475   2.992   3.631   0.621  0.4626 -1.3959 -0.0441
 5927SOL    MW423476   3.075   3.650   0.603  0.0685  0.1806 -0.2559
 5928SOL     OW23477   4.388   5.583   5.106 -0.5766  0.0971 -0.2802
 5928SOL    HW223478   4.297   5.606   5.088 -0.5268  1.7468  1.2342
 5928SOL    HW323479   4.399   5.599   5.200  1.4010  0.4848 -0.5254
 5928SOL    MW423480   4.377   5.588   5.116 -0.3091  0.3659 -0.1128
 5929SOL     OW23481   0.493   5.924   5.320 -0.6678  0.0337  0.7171
 5929SOL    HW223482   0.494   5.976   5.400  0.4849  0.4133  0.4694
 5929SOL    HW323483   0.563   5.960   5.266 -1.1127 -0.5236 -0.2747
 5929SOL    MW423484   0.502   5.936   5.323 -0.5744  0.0103  0.5535
 5930SOL     OW23485   3.042   0.304   2.035 -0.1547  0.2162 -0.2687
 5930SOL    HW223486   2.965   0.330   2.085  0.1864  0.0381  0.3607
 5930SOL    HW323487   3.021   0.217   2.001  1.1675 -1.6299  3.1018
 5930SOL    MW423488   3.029   0.296   2.037  0.0648 -0.0508  0.2590
 5931SOL     OW23489   3.777   2.524   2.717  0.1380 -0.8544 -0.0222
 5931SOL    HW223490   3.794   2.430   2.705  0.9935 -0.5588 -1.3275
 5931SOL    HW323491   3.722   2.548   2.642 -0.9144 -0.4974  0.8374
 5931SOL    MW423492   3.772   2.515   2.705  0.1120 -0.7683 -0.0810
 5932SOL     OW23493   3.026   6.398   3.336  0.2413  0.0312 -0.5052
 5932SOL    HW223494   2.981   6.420   3.254  0.9740 -0.7822 -1.1473
 5932SOL    HW323495   2.995   6.310   3.358 -1.2837  0.8969  1.0635
 5932SOL    MW423496   3.016   6.389   3.328  0.1368  0.0381 -0.3830
 5933SOL     OW23497   4.018   0.962   0.674 -0.1889 -0.7718  0.1016
 5933SOL    HW223498   4.095   0.972   0.729 -1.5643 -1.4581  2.3037
 5933SOL    HW323499   4.049   0.918   0.595  1.5115 -1.8093  1.2995
 5933SOL    MW423500   4.032   0.958   0.671 -0.1460 -0.9992  0.5502
 5934SOL     OW23501   1.367   3.214   0.088  0.2244  0.2491 -0.1023
 5934SOL    HW223502   1.388   3.273   0.160  0.6290  1.1321 -0.9192
 5934SOL    HW323503   1.450   3.199   0.044  0.2075 -1.3163  0.3516
 5934SOL    MW423504   1.381   3.220   0.091  0.2756  0.1591 -0.1502
 5935SOL     OW23505   5.409   3.263   2.082  0.4653 -0.1381 -0.4500
 5935SOL    HW223506   5.499   3.235   2.099  0.4963  0.4526  0.4428
 5935SOL    HW323507   5.413   3.359   2.085 -0.2127 -0.1134 -0.3040
 5935SOL    MW423508   5.422   3.272   2.085  0.3800 -0.0569 -0.3130
 5936SOL     OW23509   5.357   5.659   0.327 -0.0307 -0.1229  0.1170
 5936SOL    HW223510   5.339   5.574   0.286 -2.2980  0.2623  0.2118
 5936SOL    HW323511   5.367   5.639   0.420  0.7456 -0.4436 -0.0316
 5936SOL    MW423512   5.356   5.645   0.334 -0.2274 -0.1144  0.1099
 5937SOL     OW23513   5.057   5.798   6.114 -0.2751 -0.6018  0.4648
 5937SOL    HW223514   5.011   5.745   6.050  0.2667 -0.4821 -0.0353
 5937SOL    HW323515   5.063   5.885   6.075 -0.9812 -0.2103  1.1937
 5937SOL    MW423516   5.052   5.802   6.101 -0.2967 -0.5344  0.4950
 5938SOL     OW23517   4.840   1.871   4.173  0.0445  0.5841 -0.1662
 5938SOL    HW223518   4.881   1.899   4.091 -0.2334  1.0530 -0.1441
 5938SOL    HW323519   4.909   1.882   4.239  0.4729 -0.3935 -0.4339
 5938SOL    MW423520   4.854   1.876   4.171  0.0644  0.5170 -0.1986
 5939SOL     OW23521   1.562   4.611   2.373  0.0452  0.5694 -0.3264
 5939SOL    HW223522   1.544   4.639   2.283  1.4230 -0.8297 -1.0999
 5939SOL    HW323523   1.645   4.653   2.395  0.1618  0.2038 -0.0577
 5939SOL    MW423524   1.571   4.620   2.364  0.2424  0.3366 -0.3930
 5940SOL     OW23525   4.779   0.588   4.719 -0.1873 -0.2478  0.4799
 5940SOL    HW223526   4.719   0.662   4.709 -0.6009 -0.7907 -1.4887
 5940SOL    HW323527   4.768   0.560   4.810 -1.1687  1.1233  0.8131
 5940SOL    MW423528   4.769   0.594   4.729 -0.3714 -0.1385  0.2641
 5941SOL     OW23529   1.774   3.405   0.076 -0.2318 -0.1350  0.2183
 5941SOL    HW223530   1.724   3.479   0.111 -0.1839  0.7837 -1.5345
 5941SOL    HW323531   1.847   3.394   0.137 -1.1553  0.1502  1.4209
 5941SOL    MW423532   1.777   3.414   0.089 -0.3473  0.0239  0.1457
 5942SOL     OW23533   3.713   5.589   2.347  0.5298 -0.2886 -0.3229
 5942SOL    HW223534   3.641   5.526   2.358  0.3390 -0.0013  0.0536
 5942SOL    HW323535   3.704   5.619   2.256 -0.9378  1.1012  0.2301
 5942SOL    MW423536   3.702   5.584   2.336  0.3110 -0.0674 -0.2003
 5943SOL     OW23537   3.309   1.540   1.666 -0.0658 -0.5257 -0.2865
 5943SOL    HW223538   3.277   1.629   1.680  1.8626  0.3569 -1.1121
 5943SOL    HW323539   3.283   1.492   1.745 -0.3807  0.9855  0.5567
 5943SOL    MW423540   3.301   1.545   1.678  0.1471 -0.2099 -0.2842
 5944SOL     OW23541   4.688   1.211   1.873 -0.1264 -0.4593  0.0910
 5944SOL    HW223542   4.622   1.281   1.880  0.4180  0.2578 -1.3993
 5944SOL    HW323543   4.764   1.246   1.919  0.6229  0.6024 -1.8346
 5944SOL    MW423544   4.689   1.225   1.880  0.0443 -0.2246 -0.3597
 5945SOL     OW23545   4.374   1.134   2.961 -0.6153 -0.4268 -1.0818
 5945SOL    HW223546   4.464   1.160   2.979 -0.7693 -0.5461 -0.0753
 5945SOL    HW323547   4.381   1.071   2.889  0.2702 -1.6307  0.0067
 5945SOL    MW423548   4.387   1.129   2.954 -0.5188 -0.6014 -0.8054
 5946SOL     OW23549   3.335   1.905   5.226  0.4876 -0.1648  0.1317
 5946SOL    HW223550   3.355   1.979   5.169  0.0403  1.3984  1.9168
 5946SOL    HW323551   3.253   1.929   5.268  0.3332 -1.6967  0.7564
 5946SOL    MW423552   3.327   1.918   5.224  0.4082 -0.1606  0.4497
 5947SOL     OW23553   1.729   4.319   6.169  0.0058 -0.5086  0.0161
 5947SOL    HW223554   1.697   4.409   6.156  1.6105  0.3704  1.7492
 5947SOL    HW323555   1.684   4.289   6.248  1.7866  0.0123  1.3074
 5947SOL    MW423556   1.719   4.327   6.178  0.4525 -0.3239  0.4152
 5948SOL     OW23557   4.787   4.185   4.842  0.4020  0.9683 -0.2265
 5948SOL    HW223558   4.802   4.270   4.801  1.6686  1.8558  1.8945
 5948SOL    HW323559   4.752   4.207   4.929  1.3771 -0.6496  0.6053
 5948SOL    MW423560   4.784   4.199   4.848  0.6978  0.8719  0.1631
 5949SOL     OW23561   5.508   2.272   1.157 -0.1153  0.0224  0.4609
 5949SOL    HW223562   5.581   2.218   1.128  0.2894  0.7398  0.1092
 5949SOL    HW323563   5.548   2.353   1.187 -0.6693 -0.0799  1.5083
 5949SOL    MW423564   5.523   2.275   1.157 -0.1350  0.1036  0.5527
 5950SOL     OW23565   3.221   6.399   3.821  0.1044  0.4933 -0.1605
 5950SOL    HW223566   3.310   6.410   3.788 -0.5371 -0.8642 -2.6533
 5950SOL    HW323567   3.166   6.401   3.742 -2.0030  0.5637  1.2284
 5950SOL    MW423568   3.225   6.400   3.806 -0.2583  0.3235 -0.3061
 5951SOL     OW23569   0.706   5.350   4.738  0.3173 -0.2029  0.8479
 5951SOL    HW223570   0.643   5.412   4.702 -1.1344 -1.1920  1.6074
 5951SOL    HW323571   0.757   5.321   4.663 -1.2773 -0.6893 -0.0904
 5951SOL    MW423572   0.705   5.355   4.724 -0.0846 -0.3976  0.8243
 5952SOL     OW23573   3.572   5.761   3.920  0.2573 -0.3104 -0.0904
 5952SOL    HW223574   3.497   5.812   3.951 -0.7098 -2.0111  0.5313
 5952SOL    HW323575   3.647   5.820   3.928 -0.7565  0.8940  0.8622
 5952SOL    MW423576   3.572   5.775   3.925 -0.0041 -0.3758  0.1173
 5953SOL     OW23577   3.658   3.402   1.758 -0.0824 -0.6454  0.1071
 5953SOL    HW223578   3.681   3.445   1.841 -0.9564 -1.0577  0.5743
 5953SOL    HW323579   3.669   3.470   1.692 -0.5500  0.0366  0.7221
 5953SOL    MW423580   3.663   3.417   1.760 -0.2594 -0.6098  0.2499
 5954SOL     OW23581   1.063   1.202   0.897 -0.0627 -0.6062  0.3946
 5954SOL    HW223582   1.083   1.250   0.817  1.3927  0.6433  1.4644
 5954SOL    HW323583   1.091   1.260   0.968 -2.9403 -0.8925  1.9110
 5954SOL    MW423584   1.069   1.216   0.896 -0.2504 -0.4791  0.7359
 5955SOL     OW23585   2.175   1.917   3.875  0.2733  0.6131  0.2625
 5955SOL    HW223586   2.118   1.953   3.807  1.3873 -0.7084 -1.4344
 5955SOL    HW323587   2.216   1.994   3.915 -0.4902  1.4192 -0.4780
 5955SOL    MW423588   2.173   1.932   3.872  0.3195  0.5451 -0.0591
 5956SOL     OW23589   6.210   4.776   2.797  0.2115  0.1356  0.4016
 5956SOL    HW223590   6.280   4.727   2.753 -0.2903 -1.6617  1.5107
 5956SOL    HW323591   6.131   4.726   2.779 -0.1136 -0.2980  2.7562
 5956SOL    MW423592   6.209   4.763   2.789  0.1024 -0.1587  0.8586
 5957SOL     OW23593   4.566   2.266   6.372 -0.2265  0.6408  0.1164
 5957SOL    HW223594   4.645   2.264   6.425 -0.4986  0.5657  0.5299
 5957SOL    HW323595   4.496   2.242   6.433 -0.4787  0.0139 -0.4045
 5957SOL    MW423596   4.567   2.262   6.387 -0.2957  0.5482  0.1022
 5958SOL     OW23597   4.168   1.074   3.613  0.7856  0.2873  0.0412
 5958SOL    HW223598   4.149   1.158   3.571  1.8987  0.0504 -1.0176
 5958SOL    HW323599   4.119   1.010   3.561  1.3684  0.1007 -0.2898
 5958SOL    MW423600   4.159   1.077   3.600  1.0094  0.2314 -0.1421
 5959SOL     OW23601   1.502   3.404   4.484 -0.0108  0.3958 -0.1143
 5959SOL    HW223602   1.493   3.320   4.529  0.1952 -0.2045 -1.1565
 5959SOL    HW323603   1.421   3.451   4.504 -0.3476 -0.2509  0.0714
 5959SOL    MW423604   1.490   3.399   4.492 -0.0280  0.2312 -0.2273
 5960SOL     OW23605   2.180   2.103   5.234  0.4823 -0.2350  0.1788
 5960SOL    HW223606   2.184   2.024   5.287  0.8525  0.7063  1.5961
 5960SOL    HW323607   2.125   2.163   5.284  1.9043  1.1434  0.1697
 5960SOL    MW423608   2.173   2.100   5.247  0.7188  0.0710  0.3646
 5961SOL     OW23609   0.235   3.571   2.567  0.1212  0.5712 -0.5157
 5961SOL    HW223610   0.318   3.525   2.581 -1.0609 -1.0145  2.0035
 5961SOL    HW323611   0.185   3.513   2.509 -0.1406  0.2846 -0.0086
 5961SOL    MW423612   0.240   3.557   2.561 -0.0693  0.3242 -0.1164
 5962SOL     OW23613   3.652   2.073   2.002  0.5083 -0.1030  0.3828
 5962SOL    HW223614   3.595   2.006   2.040  1.3945 -0.2813  1.4625
 5962SOL    HW323615   3.611   2.094   1.918 -2.0767  0.9626  1.7657
 5962SOL    MW423616   3.639   2.067   1.996  0.2842  0.0141  0.7077
 5963SOL     OW23617   3.212   4.183   6.096  0.3665 -0.6909 -0.2193
 5963SOL    HW223618   3.261   4.230   6.165 -0.5274  0.0122 -0.0461
 5963SOL    HW323619   3.249   4.095   6.097  0.9056 -0.4755  0.6348
 5963SOL    MW423620   3.224   4.178   6.106  0.3197 -0.5697 -0.0837
 5964SOL     OW23621   5.382   3.398   2.403 -0.1896 -0.2193  0.4808
 5964SOL    HW223622   5.412   3.456   2.333 -1.6402  0.2077  0.1834
 5964SOL    HW323623   5.447   3.407   2.472  0.1968  0.9040 -0.0160
 5964SOL    MW423624   5.394   3.407   2.403 -0.3300 -0.0148  0.3760
 5965SOL     OW23625   3.464   0.827   3.783 -0.0773 -0.0470 -0.5076
 5965SOL    HW223626   3.533   0.852   3.844  0.4256  0.5870 -1.3222
 5965SOL    HW323627   3.383   0.856   3.826  0.4055  2.2326 -0.9888
 5965SOL    MW423628   3.462   0.834   3.797  0.0527  0.3374 -0.6786
 5966SOL     OW23629   3.732   4.787   2.996 -0.3064  0.3696  0.1864
 5966SOL    HW223630   3.745   4.724   3.067  0.2274  0.3517  0.0731
 5966SOL    HW323631   3.640   4.814   3.005 -0.2676  0.3088  0.8342
 5966SOL    MW423632   3.721   4.782   3.006 -0.2309  0.3592  0.2569
 5967SOL     OW23633   0.368   2.369   2.193 -0.7951 -0.3759  0.0281
 5967SOL    HW223634   0.421   2.428   2.247  0.6837 -0.2878 -1.4524
 5967SOL    HW323635   0.315   2.320   2.256 -0.5507  1.0786  1.4181
 5967SOL    MW423636   0.368   2.370   2.208 -0.5677 -0.1723  0.0162
 5968SOL     OW23637   2.812   2.873   2.116  0.1213 -0.1680 -0.1805
 5968SOL    HW223638   2.770   2.872   2.202 -0.7496 -0.9659 -0.6012
 5968SOL    HW323639   2.749   2.831   2.057  1.8428 -2.3385 -0.6455
 5968SOL    MW423640   2.798   2.867   2.119  0.2335 -0.5596 -0.2973
 5969SOL     OW23641   0.402   2.927   2.447 -0.3175 -0.0224 -0.1646
 5969SOL    HW223642   0.460   2.956   2.517  0.1389  0.6998 -0.8196
 5969SOL    HW323643   0.336   2.996   2.440  0.0678  0.2873 -0.9210
 5969SOL    MW423644   0.401   2.940   2.455 -0.2064  0.1137 -0.3508
 5970SOL     OW23645   5.457   4.265   4.406 -0.0560  0.1827  0.3646
 5970SOL    HW223646   5.499   4.189   4.446  1.7395  2.0856  2.3646
 5970SOL    HW323647   5.520   4.295   4.340 -0.3553  0.4522  0.1951
 5970SOL    MW423648   5.471   4.259   4.402  0.1414  0.4694  0.6061
 5971SOL     OW23649   5.491   4.975   5.747 -0.0560 -0.4664  0.1255
 5971SOL    HW223650   5.578   4.936   5.743  0.2809  0.1109  1.3198
 5971SOL    HW323651   5.492   5.043   5.679  0.2692 -0.7345 -0.1411
 5971SOL    MW423652   5.502   4.979   5.737  0.0314 -0.4256  0.2479
 5972SOL     OW23653   3.157   6.388   2.386 -0.0293  0.0789 -0.1930
 5972SOL    HW223654   3.249   6.360   2.388  0.4155  1.3069 -1.8681
 5972SOL    HW323655   3.111   6.322   2.438  1.9081 -0.0992  1.4214
 5972SOL    MW423656   3.163   6.376   2.393  0.2850  0.2174 -0.2010
 5973SOL     OW23657   1.242   5.416   4.734  0.2595  0.6510 -0.1939
 5973SOL    HW223658   1.207   5.465   4.660  0.0402  1.7092  0.5952
 5973SOL    HW323659   1.177   5.427   4.804  0.1552 -0.8350 -0.0053
 5973SOL    MW423660   1.229   5.424   4.734  0.2168  0.5946 -0.0649
 5974SOL     OW23661   5.742   1.911   3.690 -0.2302  0.0293 -0.5748
 5974SOL    HW223662   5.830   1.881   3.669 -0.0695  0.0615  0.0437
 5974SOL    HW323663   5.696   1.833   3.720 -0.0644  0.2308  0.2177
 5974SOL    MW423664   5.748   1.897   3.691 -0.1871  0.0602 -0.3887
 5975SOL     OW23665   4.044   1.295   3.462 -0.3168 -0.0102 -0.1745
 5975SOL    HW223666   4.031   1.323   3.371 -1.0055  1.5072  0.3458
 5975SOL    HW323667   4.083   1.371   3.505 -0.1694 -0.6432  0.8407
 5975SOL    MW423668   4.047   1.309   3.456 -0.3882  0.1065  0.0281
 5976SOL     OW23669   4.675   3.951   1.949 -0.1000 -0.0465  0.0897
 5976SOL    HW223670   4.662   4.045   1.938 -1.8714 -0.2020  0.4287
 5976SOL    HW323671   4.586   3.915   1.950  0.4759 -1.5538  1.4114
 5976SOL    MW423672   4.661   3.958   1.948 -0.2577 -0.2659  0.3088
 5977SOL     OW23673   3.224   2.402   0.115  0.5980 -0.1250  0.7220
 5977SOL    HW223674   3.310   2.427   0.147  0.6378  1.3711 -0.4274
 5977SOL    HW323675   3.236   2.388   0.021 -0.4946  0.6540  0.4393
 5977SOL    MW423676   3.237   2.403   0.107  0.4591  0.1751  0.5331
 5978SOL     OW23677   4.398   4.209   3.646 -0.0295  0.0824 -0.7113
 5978SOL    HW223678   4.408   4.143   3.714 -1.0183  0.8612  0.2222
 5978SOL    HW323679   4.396   4.158   3.564  0.0999 -0.9597 -0.0915
 5978SOL    MW423680   4.399   4.193   3.644 -0.1429  0.0477 -0.5064
 5979SOL     OW23681   0.904   5.330   1.592  0.0210 -0.5919  0.6044
 5979SOL    HW223682   0.816   5.299   1.613 -0.6995  0.5952 -0.4561
 5979SOL    HW323683   0.889   5.404   1.532  1.7755 -1.2306 -0.7112
 5979SOL    MW423684   0.890   5.336   1.587  0.1574 -0.5196  0.2909
 5980SOL     OW23685   4.931   2.270   0.511 -0.3542  0.2315  0.9730
 5980SOL    HW223686   4.997   2.285   0.578  0.7631  0.8126 -0.2033
 5980SOL    HW323687   4.946   2.339   0.446  1.0746 -2.3595 -1.7093
 5980SOL    MW423688   4.942   2.281   0.511 -0.0183 -0.0337  0.4639
 5981SOL     OW23689   3.023   6.075   0.603  0.0495 -0.5783 -0.3729
 5981SOL    HW223690   3.085   6.028   0.548  1.0612  0.7284 -0.3957
 5981SOL    HW323691   3.054   6.166   0.602  0.0635 -0.4847  2.2731
 5981SOL    MW423692   3.035   6.081   0.596  0.1848 -0.3936 -0.0268
 5982SOL     OW23693   3.330   2.876   0.520 -0.3224  0.3521 -0.3324
 5982SOL    HW223694   3.266   2.934   0.562  0.3342 -0.1794  1.5214
 5982SOL    HW323695   3.322   2.794   0.569  0.0806 -0.5181 -1.6851
 5982SOL    MW423696   3.321   2.873   0.532 -0.1826  0.1671 -0.2662
 5983SOL     OW23697   3.803   5.943   3.154 -0.4713 -0.3996 -0.1857
 5983SOL    HW223698   3.825   5.851   3.162  0.4954 -0.0542  1.6664
 5983SOL    HW323699   3.734   5.957   3.220 -0.2995  0.2808 -0.1412
 5983SOL    MW423700   3.797   5.933   3.164 -0.3211 -0.2643  0.0646
 5984SOL     OW23701   6.199   1.937   0.848  0.3834 -0.3726 -0.4119
 5984SOL    HW223702   6.168   1.871   0.785  0.7141 -0.7064 -0.2323
 5984SOL    HW323703   6.294   1.939   0.835  0.3046  0.6138 -0.9350
 5984SOL    MW423704   6.208   1.928   0.838  0.4167 -0.2865 -0.4572
 5985SOL     OW23705   3.304   4.893   2.463 -0.0875 -0.2476 -0.0497
 5985SOL    HW223706   3.234   4.952   2.493  0.1503  0.1333 -0.2396
 5985SOL    HW323707   3.306   4.824   2.529 -0.7190 -0.3250 -0.1000
 5985SOL    MW423708   3.295   4.892   2.476 -0.1394 -0.2076 -0.0814
 5986SOL     OW23709   3.452   6.325   0.532 -0.3307 -0.5898  0.3290
 5986SOL    HW223710   3.544   6.301   0.544 -0.2407 -0.0177  0.8631
 5986SOL    HW323711   3.405   6.274   0.598 -0.1413  0.6252  1.4527
 5986SOL    MW423712   3.458   6.315   0.542 -0.2938 -0.3540  0.5477
 5987SOL     OW23713   2.986   5.540   0.633 -0.0374 -0.1513 -0.2644
 5987SOL    HW223714   3.045   5.598   0.585 -0.4909  0.2749 -0.3052
 5987SOL    HW323715   2.900   5.557   0.596 -0.3766  0.1040  0.6182
 5987SOL    MW423716   2.982   5.550   0.622 -0.1420 -0.0614 -0.1534
 5988SOL     OW23717   0.239   4.489   4.441 -0.3844 -0.4943  0.5707
 5988SOL    HW223718   0.312   4.448   4.488  1.0324  0.4011 -0.7584
 5988SOL    HW323719   0.187   4.416   4.408  2.2284 -1.3871 -2.0143
 5988SOL    MW423720   0.242   4.474   4.443  0.1473 -0.4940  0.0543
 5989SOL     OW23721   0.657   2.965   4.297 -0.1753  0.2528 -0.2758
 5989SOL    HW223722   0.585   2.930   4.349  0.1938 -0.1049  0.0016
 5989SOL    HW323723   0.728   2.901   4.307 -0.8428 -1.0911 -3.1165
 5989SOL    MW423724   0.657   2.952   4.305 -0.2146  0.0283 -0.6140
 5990SOL     OW23725   3.296   4.208   3.752 -0.1360  0.4968 -0.4838
 5990SOL    HW223726   3.385   4.188   3.724 -0.6862  0.2683 -2.1916
 5990SOL    HW323727   3.305   4.288   3.803  0.9982  0.7585 -1.0470
 5990SOL    MW423728   3.309   4.216   3.755 -0.0590  0.5012 -0.7835
 5991SOL     OW23729   3.056   6.151   6.384  0.1077 -0.1354  0.0105
 5991SOL    HW223730   3.125   6.117   6.328 -0.4614 -0.4420 -0.5207
 5991SOL    HW323731   3.003   6.074   6.407 -0.1892  0.1247  0.2170
 5991SOL    MW423732   3.058   6.136   6.379 -0.0065 -0.1415 -0.0323
 5992SOL     OW23733   1.349   2.766   0.243  0.2117  0.4501  0.4536
 5992SOL    HW223734   1.356   2.814   0.161 -1.8856 -0.6178 -0.4244
 5992SOL    HW323735   1.256   2.772   0.267  0.6389  0.1625  2.4062
 5992SOL    MW423736   1.338   2.773   0.236 -0.0086  0.2713  0.5954
 5993SOL     OW23737   0.795   3.952   6.120 -0.0744 -0.2112 -0.8046
 5993SOL    HW223738   0.764   3.991   6.202  0.1344  0.5373 -1.0693
 5993SOL    HW323739   0.816   3.862   6.143 -0.5830 -0.1788 -0.1722
 5993SOL    MW423740   0.794   3.945   6.134 -0.1140 -0.1081 -0.7561
 5994SOL     OW23741   2.357   2.912   0.804  0.5936  0.1862 -0.1329
 5994SOL    HW223742   2.421   2.940   0.738  4.0511 -1.9744  1.9751
 5994SOL    HW323743   2.383   2.958   0.884  1.0636 -2.3848  1.3158
 5994SOL    MW423744   2.369   2.921   0.806  1.1118 -0.4381  0.3364
 5995SOL     OW23745   0.890   3.106   0.833  0.6586  0.4265  0.4594
 5995SOL    HW223746   0.965   3.079   0.886 -0.4733  0.7789  2.3188
 5995SOL    HW323747   0.818   3.113   0.895 -0.2812  2.8024 -0.7854
 5995SOL    MW423748   0.891   3.103   0.848  0.3852  0.7865  0.5405
 5996SOL     OW23749   1.400   4.446   0.137  0.6227 -0.5135 -0.1159
 5996SOL    HW223750   1.427   4.481   0.052  0.5648 -0.6255 -0.1806
 5996SOL    HW323751   1.361   4.521   0.183  1.8433 -0.1143  0.3265
 5996SOL    MW423752   1.399   4.461   0.132  0.7761 -0.4756 -0.0661
 5997SOL     OW23753   1.690   4.256   1.607 -0.0655  0.0198 -0.7201
 5997SOL    HW223754   1.627   4.211   1.664 -1.5865 -0.5755 -2.7522
 5997SOL    HW323755   1.654   4.246   1.519  1.1787  2.5920 -1.6161
 5997SOL    MW423756   1.677   4.249   1.603 -0.1021  0.2807 -1.1064
 5998SOL     OW23757   2.520   2.344   4.710 -0.1614  0.3039 -0.1914
 5998SOL    HW223758   2.493   2.435   4.702 -0.8956  0.2029  0.8665
 5998SOL    HW323759   2.569   2.326   4.630 -1.6195  1.0821 -1.3097
 5998SOL    MW423760   2.523   2.353   4.698 -0.4506  0.3933 -0.1994
 5999SOL     OW23761   3.773   5.314   6.250  0.2273 -0.2348  0.4504
 5999SOL    HW223762   3.845   5.348   6.304 -0.6419  2.0057  0.3195
 5999SOL    HW323763   3.739   5.391   6.205 -2.2210 -1.2379  0.4539
 5999SOL    MW423764   3.778   5.329   6.251 -0.2104 -0.0715  0.4336
 6000SOL     OW23765   5.113   2.082   4.939 -0.0685 -0.1712  0.1974
 6000SOL    HW223766   5.185   2.136   4.907  0.3686 -1.7958 -1.7581
 6000SOL    HW323767   5.151   2.034   5.013  0.0507  0.8615  0.8268
 6000SOL    MW423768   5.127   2.083   4.945  0.0049 -0.2493  0.0224
 6001SOL     OW23769   0.785   3.300   2.165 -0.3181  0.0549  0.3013
 6001SOL    HW223770   0.784   3.205   2.157  1.5185  0.0067  0.1778
 6001SOL    HW323771   0.853   3.329   2.104  0.0136  1.3405  1.2291
 6001SOL    MW423772   0.794   3.291   2.156 -0.0320  0.2182  0.4074
 6002SOL     OW23773   0.704   1.051   3.669 -0.1951 -0.0671 -0.5451
 6002SOL    HW223774   0.733   0.961   3.657  1.7427 -0.3233  3.8691
 6002SOL    HW323775   0.785   1.102   3.666 -1.2039  1.5293 -2.5074
 6002SOL    MW423776   0.719   1.046   3.667 -0.0725  0.1097 -0.2216
 6003SOL     OW23777   1.773   2.195   6.200 -0.0046 -0.3612  0.0205
 6003SOL    HW223778   1.776   2.291   6.199  0.0458 -0.3355 -1.8360
 6003SOL    HW323779   1.712   2.173   6.270  0.1989  1.0168  0.6571
 6003SOL    MW423780   1.766   2.205   6.209  0.0289 -0.1760 -0.1405
 6004SOL     OW23781   1.054   2.092   3.862 -0.0067  0.1754  0.4017
 6004SOL    HW223782   0.975   2.041   3.843  0.8823 -1.2166  0.3608
 6004SOL    HW323783   1.087   2.119   3.776 -0.3066  0.5876  0.4098
 6004SOL    MW423784   1.048   2.089   3.848  0.0710  0.0461  0.3974
 6005SOL     OW23785   0.705   3.026   2.139  0.3057  0.4316 -0.1427
 6005SOL    HW223786   0.764   2.951   2.127  0.0292  0.6642 -4.1081
 6005SOL    HW323787   0.618   2.987   2.149  0.1612  0.1259 -2.1973
 6005SOL    MW423788   0.701   3.011   2.139  0.2502  0.4220 -0.9370
 6006SOL     OW23789   3.453   1.822   0.697  0.3549 -0.3391  0.0042
 6006SOL    HW223790   3.358   1.827   0.685  0.2401  1.0821  1.2035
 6006SOL    HW323791   3.479   1.743   0.651 -1.1877  0.0847 -1.7032
 6006SOL    MW423792   3.444   1.813   0.689  0.1362 -0.0957 -0.0629
 6007SOL     OW23793   2.960   2.285   2.990 -0.1943 -0.2632 -0.7637
 6007SOL    HW223794   2.877   2.254   3.025  0.7707 -2.0124  0.0640
 6007SOL    HW323795   2.951   2.275   2.895 -0.8758 -0.5239 -0.6769
 6007SOL    MW423796   2.948   2.280   2.982 -0.1569 -0.5284 -0.6430
 6008SOL     OW23797   3.520   1.182   4.870  0.5326  0.0850  0.0822
 6008SOL    HW223798   3.582   1.235   4.818  1.9667 -0.1693  1.4534
 6008SOL    HW323799   3.551   1.092   4.859  0.7971  0.0174  1.2771
 6008SOL    MW423800   3.533   1.177   4.861  0.7567  0.0425  0.4208
 6009SOL     OW23801   0.844   2.678   5.876  0.2603  0.0208  0.4870
 6009SOL    HW223802   0.853   2.597   5.928  0.3813  0.4205  1.1020
 6009SOL    HW323803   0.933   2.695   5.844  0.2469 -0.0539  0.4090
 6009SOL    MW423804   0.857   2.669   5.879  0.2745  0.0637  0.5578
 6010SOL     OW23805   5.413   2.866   1.580 -0.4716  0.3504  0.3760
 6010SOL    HW223806   5.436   2.806   1.650  0.3092  1.1722  0.8558
 6010SOL    HW323807   5.395   2.810   1.505  1.2048 -0.4534  0.5315
 6010SOL    MW423808   5.414   2.851   1.579 -0.1474  0.3528  0.4598
 6011SOL     OW23809   4.402   0.911   3.606  0.3786  0.1477 -0.0741
 6011SOL    HW223810   4.368   0.823   3.595 -1.7119  0.8498  0.3460
 6011SOL    HW323811   4.328   0.969   3.587  2.2787  1.9562 -2.7536
 6011SOL    MW423812   4.388   0.907   3.602  0.3534  0.4789 -0.3722
 6012SOL     OW23813   5.917   4.242   2.918  0.8549 -0.5743 -0.1986
 6012SOL    HW223814   5.955   4.315   2.966  0.7190 -1.3614  1.1468
 6012SOL    HW323815   5.869   4.283   2.846  2.2059  0.5587 -0.5069
 6012SOL    MW423816   5.916   4.257   2.915  1.0152 -0.5286 -0.0617
 6013SOL     OW23817   1.496   5.034   0.798 -0.0749 -0.6448  0.2513
 6013SOL    HW223818   1.486   4.939   0.800  1.2084 -0.7985  1.1008
 6013SOL    HW323819   1.553   5.053   0.873 -1.6069  0.9634  1.0701
 6013SOL    MW423820   1.502   5.024   0.808 -0.1077 -0.4529  0.4714
 6014SOL     OW23821   2.383   2.835   4.182  0.7496  0.1198  0.2051
 6014SOL    HW223822   2.341   2.794   4.257 -0.1942 -0.4555 -0.6201
 6014SOL    HW323823   2.471   2.797   4.182  0.8124  0.2279  1.0877
 6014SOL    MW423824   2.389   2.824   4.192  0.6333  0.0582  0.2127
 6015SOL     OW23825   1.771   2.665   3.387  0.3710  0.4740  0.5964
 6015SOL    HW223826   1.817   2.746   3.412  1.3884 -0.0436  0.4603
 6015SOL    HW323827   1.716   2.690   3.313  0.0383  1.2263  1.0877
 6015SOL    MW423828   1.770   2.679   3.381  0.4613  0.5050  0.6432
 6016SOL     OW23829   1.640   2.132   2.776  0.2817 -0.0175  0.2437
 6016SOL    HW223830   1.580   2.159   2.846 -0.4210  0.9734 -0.7151
 6016SOL    HW323831   1.625   2.037   2.768 -2.2993  0.3984 -0.9406
 6016SOL    MW423832   1.630   2.123   2.784 -0.1516  0.1681 -0.0390
 6017SOL     OW23833   2.352   1.987   2.707 -0.0440  0.3920  0.0689
 6017SOL    HW223834   2.301   1.909   2.732 -0.1649  1.2381  2.7547
 6017SOL    HW323835   2.358   2.038   2.787  0.8610  2.7300 -1.3931
 6017SOL    MW423836   2.346   1.983   2.721  0.0594  0.8121  0.2303
 6018SOL     OW23837   3.787   1.322   3.535 -0.1108 -0.2899  0.6803
 6018SOL    HW223838   3.797   1.355   3.624  1.2477  0.1401  0.3844
 6018SOL    HW323839   3.876   1.312   3.502 -0.5728 -1.0415 -0.4281
 6018SOL    MW423840   3.800   1.325   3.542  0.0075 -0.3323  0.4950
 6019SOL     OW23841   0.188   1.856   6.303  0.0390  0.2121 -0.3642
 6019SOL    HW223842   0.183   1.948   6.330 -1.5878 -0.3122  1.3631
 6019SOL    HW323843   0.208   1.808   6.384  0.6930 -0.9881 -1.1997
 6019SOL    MW423844   0.190   1.862   6.317 -0.0894 -0.0154 -0.2465
 6020SOL     OW23845   3.930   2.074   0.253 -0.0668 -0.3863  0.2658
 6020SOL    HW223846   3.993   2.039   0.316 -0.0555 -0.0538  0.4423
 6020SOL    HW323847   3.968   2.055   0.167  0.5710  0.3567  0.3776
 6020SOL    MW423848   3.943   2.067   0.250  0.0188 -0.2444  0.3038
 6021SOL     OW23849   1.420   6.302   5.104 -0.5336  0.0342  0.2078
 6021SOL    HW223850   1.349   6.250   5.067  0.4574 -1.1948 -0.0175
 6021SOL    HW323851   1.380   6.349   5.177 -1.4418 -1.1211  0.4787
 6021SOL    MW423852   1.406   6.302   5.109 -0.5227 -0.2804  0.2138
 6022SOL     OW23853   3.505   1.361   2.278 -0.0620 -0.3750  1.0168
 6022SOL    HW223854   3.501   1.305   2.200 -0.2026 -0.4560  1.0824
 6022SOL    HW323855   3.597   1.357   2.305  0.7327  2.0601 -0.9013
 6022SOL    MW423856   3.517   1.353   2.271  0.0243 -0.0644  0.7724
 6023SOL     OW23857   1.632   2.859   5.676 -0.1355  0.5271  0.3376
 6023SOL    HW223858   1.718   2.900   5.662 -1.0566  2.4060 -0.2823
 6023SOL    HW323859   1.614   2.813   5.594  0.8430 -1.0490  0.9763
 6023SOL    MW423860   1.641   2.859   5.663 -0.1279  0.5671  0.3401
 6024SOL     OW23861   2.670   3.557   1.857  0.0002 -0.1488 -0.2229
 6024SOL    HW223862   2.753   3.598   1.882 -1.6302  1.7202  2.8138
 6024SOL    HW323863   2.630   3.531   1.941 -3.1076  0.3551 -1.4194
 6024SOL    MW423864   2.675   3.559   1.872 -0.6249  0.1643  0.0199
 6025SOL     OW23865   6.020   6.015   3.250  0.2691  0.4532  0.1278
 6025SOL    HW223866   6.070   5.951   3.200 -1.2920 -0.3711 -0.4742
 6025SOL    HW323867   6.083   6.055   3.310  1.2130 -2.0348  0.9009
 6025SOL    MW423868   6.035   6.012   3.251  0.1876  0.0161  0.1504
 6026SOL     OW23869   1.258   2.505   1.709 -0.3293 -0.2064 -0.3360
 6026SOL    HW223870   1.273   2.411   1.706  0.8421 -0.0749  0.8064
 6026SOL    HW323871   1.276   2.530   1.800  0.2155  1.2537 -0.8176
 6026SOL    MW423872   1.262   2.496   1.721 -0.1029  0.0036 -0.2488
 6027SOL     OW23873   5.146   2.870   6.384  0.4209 -0.2764 -0.1486
 6027SOL    HW223874   5.187   2.950   6.419 -0.4410 -0.5403  1.5466
 6027SOL    HW323875   5.154   2.879   6.289 -0.0186  2.0531 -0.0257
 6027SOL    MW423876   5.152   2.882   6.376  0.2492 -0.0039  0.0913
 6028SOL     OW23877   4.264   5.845   2.483 -0.1042 -0.4106 -0.2553
 6028SOL    HW223878   4.303   5.829   2.569 -1.5902  2.8858  1.2024
 6028SOL    HW323879   4.336   5.877   2.429  0.8823 -2.6962 -0.4364
 6028SOL    MW423880   4.279   5.847   2.487 -0.1701 -0.2772 -0.0869
 6029SOL     OW23881   2.345   0.945   3.945  0.0551  0.5090  0.0454
 6029SOL    HW223882   2.301   0.940   3.861 -0.6556 -1.9968  0.4841
 6029SOL    HW323883   2.279   0.979   4.005  0.2158  1.2147 -0.1642
 6029SOL    MW423884   2.331   0.949   3.942 -0.0175  0.2715  0.0756
 6030SOL     OW23885   5.443   3.571   2.196 -0.9653  0.1741  0.1414
 6030SOL    HW223886   5.384   3.643   2.218  0.9064  1.8749 -0.1412
 6030SOL    HW323887   5.492   3.602   2.120 -0.9102 -1.9031 -0.7523
 6030SOL    MW423888   5.441   3.585   2.189 -0.7111  0.1245 -0.0138
 6031SOL     OW23889   3.890   2.102   3.635 -0.3386 -0.1111 -0.0744
 6031SOL    HW223890   3.961   2.065   3.687 -0.8464  0.1683  0.8271
 6031SOL    HW323891   3.880   2.042   3.561  1.3284  0.2461 -0.6288
 6031SOL    MW423892   3.898   2.089   3.632 -0.1857 -0.0271 -0.0286
 6032SOL     OW23893   4.950   4.812   5.405 -0.0826 -0.1532 -0.1219
 6032SOL    HW223894   4.940   4.809   5.501  3.1838 -1.8725  0.3087
 6032SOL    HW323895   4.878   4.760   5.371 -1.4190  0.6421  1.3301
 6032SOL    MW423896   4.939   4.805   5.413  0.1720 -0.2751  0.1265
 6033SOL     OW23897   5.357   5.386   0.223 -0.1002 -0.4898  0.2193
 6033SOL    HW223898   5.365   5.379   0.128  0.5913 -1.0739  0.3093
 6033SOL    HW323899   5.429   5.332   0.257 -0.3119 -0.2502  1.0713
 6033SOL    MW423900   5.368   5.378   0.215 -0.0369 -0.5353  0.3436
 6034SOL     OW23901   3.039   4.219   3.985  0.4224 -0.1775 -0.0090
 6034SOL    HW223902   3.108   4.211   4.050  2.7805  2.2247 -1.9841
 6034SOL    HW323903   3.061   4.152   3.920 -0.9423 -1.4291  0.7629
 6034SOL    MW423904   3.051   4.209   3.985  0.5535 -0.0257 -0.1677
 6035SOL     OW23905   4.394   4.789   2.601  0.3744  0.6567  0.1643
 6035SOL    HW223906   4.484   4.776   2.630 -0.4407  1.6332  3.6560
 6035SOL    HW323907   4.352   4.704   2.615  0.4203  0.5776 -0.1614
 6035SOL    MW423908   4.400   4.776   2.607  0.2729  0.7751  0.5820
 6036SOL     OW23909   2.847   1.556   1.704  0.4135 -0.5669 -0.5385
 6036SOL    HW223910   2.912   1.499   1.664  0.8989  0.1036 -0.7310
 6036SOL    HW323911   2.763   1.518   1.678  0.7110 -1.6184 -0.0265
 6036SOL    MW423912   2.844   1.544   1.695  0.5168 -0.6171 -0.4963
 6037SOL     OW23913   1.002   5.465   5.101  0.4935  0.0326 -0.5396
 6037SOL    HW223914   0.959   5.380   5.115  2.8712 -1.1935  0.0175
 6037SOL    HW323915   1.094   5.442   5.088  1.3534  2.6153  0.4917
 6037SOL    MW423916   1.009   5.450   5.101  0.9207  0.2116 -0.3300
 6038SOL     OW23917   5.598   4.135   4.853 -0.0684  0.2044  0.0023
 6038SOL    HW223918   5.580   4.053   4.900 -0.4471  0.6021  0.5668
 6038SOL    HW323919   5.530   4.195   4.883  0.0578  0.6568 -0.5943
 6038SOL    MW423920   5.586   4.132   4.863 -0.1017  0.3166 -0.0019
 6039SOL     OW23921   5.857   0.287   4.307 -0.2462 -0.1376  0.7536
 6039SOL    HW223922   5.832   0.199   4.335 -0.6526 -0.0291  0.7313
 6039SOL    HW323923   5.780   0.341   4.326  0.2046  0.3281  1.3024
 6039SOL    MW423924   5.843   0.283   4.313 -0.2403 -0.0619  0.8230
 6040SOL     OW23925   6.091   2.360   4.058 -0.7344  0.1559 -0.5320
 6040SOL    HW223926   6.184   2.383   4.049 -0.1550 -1.3440  0.8695
 6040SOL    HW323927   6.044   2.429   4.012  1.1275  0.1871 -2.5614
 6040SOL    MW423928   6.097   2.372   4.051 -0.4123 -0.0379 -0.6149
 6041SOL     OW23929   4.875   0.679   0.640  0.4454  0.4288  0.6448
 6041SOL    HW223930   4.943   0.645   0.699 -1.5898 -3.1348  1.2340
 6041SOL    HW323931   4.825   0.741   0.694  1.2750  0.6152  1.2175
 6041SOL    MW423932   4.877   0.683   0.655  0.2863 -0.0168  0.7981
 6042SOL     OW23933   1.393   4.598   5.462  0.5584 -0.4983 -0.4259
 6042SOL    HW223934   1.481   4.593   5.498  0.6403  0.1096 -0.5348
 6042SOL    HW323935   1.359   4.682   5.492 -0.8196 -1.6635  1.4642
 6042SOL    MW423936   1.400   4.609   5.470  0.3874 -0.5718 -0.1909
 6043SOL     OW23937   5.787   1.390   3.411 -0.2443  0.2881 -0.1669
 6043SOL    HW223938   5.756   1.341   3.487 -1.2610  0.2358 -0.5943
 6043SOL    HW323939   5.869   1.347   3.386  0.0426  0.2487  0.8356
 6043SOL    MW423940   5.793   1.378   3.417 -0.3406  0.2760 -0.0910
 6044SOL     OW23941   1.498   6.373   2.027 -0.7607 -0.0490 -0.1760
 6044SOL    HW223942   1.441   6.321   1.971 -0.1190 -1.3309  0.3212
 6044SOL    HW323943   1.581   6.376   1.980 -0.6500  0.1208  0.0293
 6044SOL    MW423944   1.501   6.366   2.014 -0.6615 -0.1957 -0.0833
 6045SOL     OW23945   1.685   1.908   0.325  0.1647 -0.6604 -0.4777
 6045SOL    HW223946   1.647   1.980   0.376  0.1240 -1.1307  0.1758
 6045SOL    HW323947   1.678   1.832   0.383  1.0186 -1.0068 -0.8121
 6045SOL    MW423948   1.679   1.907   0.340  0.2720 -0.7682 -0.4356
 6046SOL     OW23949   1.692   1.904   3.055  0.5350  0.2061  0.3611
 6046SOL    HW223950   1.616   1.845   3.058  1.8848 -2.0242 -3.2072
 6046SOL    HW323951   1.765   1.850   3.084  1.4895  0.6963 -1.0460
 6046SOL    MW423952   1.691   1.889   3.059  0.8390 -0.0235 -0.2954
 6047SOL     OW23953   0.327   2.701   4.916 -1.1183  0.1193  0.5077
 6047SOL    HW223954   0.246   2.677   4.962 -1.3694 -0.9168 -0.4229
 6047SOL    HW323955   0.296   2.740   4.833 -0.6683  0.2191  0.3848
 6047SOL    MW423956   0.312   2.703   4.911 -1.0920 -0.0042  0.3687
 6048SOL     OW23957   0.171   3.990   2.984 -0.6611  0.1883 -0.2540
 6048SOL    HW223958   0.199   4.081   2.997  0.8780  0.2484 -3.2951
 6048SOL    HW323959   0.082   3.997   2.949 -0.5504  0.5042 -0.4721
 6048SOL    MW423960   0.163   4.003   2.981 -0.4434  0.2379 -0.6840
 6049SOL     OW23961   1.423   0.584   0.718  0.4755 -0.2270  0.2956
 6049SOL    HW223962   1.332   0.564   0.696  0.4706 -0.5042  0.5581
 6049SOL    HW323963   1.461   0.615   0.636  0.0679  0.1818  0.2545
 6049SOL    MW423964   1.416   0.586   0.704  0.4211 -0.2096  0.3248
 6050SOL     OW23965   3.459   2.040   6.306  0.4202 -0.0606 -0.4865
 6050SOL    HW223966   3.368   2.033   6.336  0.7493  0.4424  0.6859
 6050SOL    HW323967   3.499   2.103   6.366  1.7707 -0.9336 -0.4266
 6050SOL    MW423968   3.452   2.048   6.318  0.6418 -0.1094 -0.3239
 6051SOL     OW23969   0.225   2.703   3.895  0.0693 -0.5042  0.1735
 6051SOL    HW223970   0.265   2.788   3.876  1.8060 -1.5148 -0.9827
 6051SOL    HW323971   0.268   2.673   3.975 -0.1961 -0.5076  0.3161
 6051SOL    MW423972   0.236   2.710   3.903  0.2634 -0.6380  0.0398
 6052SOL     OW23973   1.195   0.347   2.824  0.9679 -0.3995  0.7997
 6052SOL    HW223974   1.245   0.357   2.743  0.3379 -0.6204  0.3855
 6052SOL    HW323975   1.155   0.260   2.818  1.1985 -0.5678  1.5070
 6052SOL    MW423976   1.197   0.337   2.813  0.9152 -0.4509  0.8384
 6053SOL     OW23977   2.976   0.004   1.903 -0.0042 -0.3430  0.0394
 6053SOL    HW223978   3.018   0.043   1.826  0.9410 -1.5890 -0.1030
 6053SOL    HW323979   2.891  -0.027   1.872 -1.0701  2.0675  0.2922
 6053SOL    MW423980   2.970   0.005   1.889 -0.0201 -0.1894  0.0540
 6054SOL     OW23981   3.171   3.952   1.397 -0.0092 -0.2483 -0.2125
 6054SOL    HW223982   3.125   4.001   1.329  1.1889  0.0606 -0.8229
 6054SOL    HW323983   3.103   3.900   1.439 -1.1961  1.4010 -0.0115
 6054SOL    MW423984   3.156   3.951   1.394 -0.0077  0.0101 -0.2665
 6055SOL     OW23985   6.335   1.798   6.252  0.1704  0.1901  0.3731
 6055SOL    HW223986   6.429   1.803   6.264  0.1636  0.1401  0.4474
 6055SOL    HW323987   6.299   1.851   6.324  0.1531  0.4952  0.1458
 6055SOL    MW423988   6.342   1.806   6.263  0.1672  0.2238  0.3529
 6056SOL     OW23989   0.283   5.500   6.309  0.1351  0.0703  0.5561
 6056SOL    HW223990   0.371   5.538   6.311  1.1484 -2.1240  1.9393
 6056SOL    HW323991   0.292   5.421   6.256 -1.0193 -0.1634  0.6747
 6056SOL    MW423992   0.296   5.494   6.302  0.1165 -0.2501  0.7542
 6057SOL     OW23993   2.118   3.195   4.340 -0.5191  0.0877  0.4888
 6057SOL    HW223994   2.052   3.149   4.392 -0.6023 -0.2568  0.0834
 6057SOL    HW323995   2.198   3.145   4.354 -1.0903 -1.6782 -1.8294
 6057SOL    MW423996   2.120   3.182   4.348 -0.6055 -0.1907  0.1294
 6058SOL     OW23997   2.722   6.008   4.771 -0.4323 -0.1558 -0.4969
 6058SOL    HW223998   2.795   5.950   4.749 -1.0416 -0.8355 -0.7525
 6058SOL    HW323999   2.764   6.086   4.807  0.4231 -0.5220 -0.6734
 6058SOL    MW424000   2.737   6.011   4.773 -0.3998 -0.2938 -0.5539
 6059SOL     OW24001   0.213   2.210   2.846 -0.4013  0.2137  0.4208
 6059SOL    HW224002   0.278   2.261   2.797 -0.6269  0.1751  0.0850
 6059SOL    HW324003   0.129   2.235   2.809 -0.4597 -1.1123 -0.4178
 6059SOL    MW424004   0.211   2.220   2.835 -0.4388  0.0337  0.2659
 6060SOL     OW24005   1.324   5.365   5.441  0.2481  0.4585  0.1294
 6060SOL    HW224006   1.369   5.367   5.526  0.8826  0.9676 -0.2091
 6060SOL    HW324007   1.339   5.277   5.407  1.2281  0.7063 -0.1011
 6060SOL    MW424008   1.332   5.354   5.448  0.4611  0.5584  0.0543
 6061SOL     OW24009   3.496   2.680   3.278  0.4972  0.0180 -0.5242
 6061SOL    HW224010   3.501   2.585   3.287  0.9933  0.0811 -0.0674
 6061SOL    HW324011   3.540   2.714   3.356 -0.4528  0.6295 -0.2331
 6061SOL    MW424012   3.502   2.672   3.290  0.4373  0.1070 -0.4255
 6062SOL     OW24013   6.384   2.372   4.474 -0.3089  0.2663 -0.4661
 6062SOL    HW224014   6.391   2.278   4.464 -0.1613 -0.0243  1.7472
 6062SOL    HW324015   6.290   2.388   4.484 -0.2176  0.0356  1.1462
 6062SOL    MW424016   6.372   2.362   4.474 -0.2774  0.1975  0.0386
 6063SOL     OW24017   3.304   6.310   3.388 -0.1739  0.2549 -0.4861
 6063SOL    HW224018   3.217   6.348   3.399  0.0928  0.8186 -0.2586
 6063SOL    HW324019   3.363   6.375   3.427  0.4604  0.4613 -1.7431
 6063SOL    MW424020   3.300   6.324   3.395 -0.0550  0.3565 -0.6219
 6064SOL     OW24021   6.210   1.384   2.853 -1.1662  0.2180 -0.0551
 6064SOL    HW224022   6.170   1.347   2.774  0.5979 -1.3296 -0.3075
 6064SOL    HW324023   6.303   1.360   2.846 -0.8862  0.3421  2.3057
 6064SOL    MW424024   6.217   1.376   2.842 -0.8965  0.0302  0.2231
 6065SOL     OW24025   1.298   6.379   5.672  0.1327 -0.6607 -0.0212
 6065SOL    HW224026   1.219   6.405   5.720 -0.9144  0.2584 -2.1202
 6065SOL    HW324027   1.275   6.296   5.631  0.3634 -0.5395 -0.3977
 6065SOL    MW424028   1.284   6.372   5.673  0.0250 -0.5234 -0.3478
 6066SOL     OW24029   1.174   4.513   3.223  0.2798 -0.8561 -0.2166
 6066SOL    HW224030   1.137   4.450   3.285  1.9667  1.5162  3.5618
 6066SOL    HW324031   1.102   4.573   3.205  0.2605 -0.4463  1.1293
 6066SOL    MW424032   1.159   4.512   3.229  0.4998 -0.4890  0.4595
 6067SOL     OW24033   3.266   4.235   4.167  0.5209 -0.0216 -0.4152
 6067SOL    HW224034   3.233   4.289   4.239  0.7173 -1.7061  1.0083
 6067SOL    HW324035   3.348   4.278   4.141 -0.4161  1.5927 -0.8743
 6067SOL    MW424036   3.273   4.248   4.173  0.4232 -0.0308 -0.2880
 6068SOL     OW24037   4.436   4.091   4.411  0.1952 -0.1989  0.5159
 6068SOL    HW224038   4.455   4.178   4.444  1.6919 -0.8177  1.3992
 6068SOL    HW324039   4.433   4.101   4.316  1.7876  0.5858  0.5224
 6068SOL    MW424040   4.438   4.104   4.403  0.6027 -0.1770  0.6333
 6069SOL     OW24041   0.159   0.762   5.743 -0.0334 -0.0609 -0.7263
 6069SOL    HW224042   0.216   0.713   5.802 -1.2414 -0.4131  0.2035
 6069SOL    HW324043   0.209   0.770   5.662  1.2804 -0.4365  0.0133
 6069SOL    MW424044   0.173   0.757   5.740 -0.0194 -0.1569 -0.5060
 6070SOL     OW24045   5.911   2.121   0.048 -0.2243 -0.3304  0.4570
 6070SOL    HW224046   5.992   2.160   0.015 -0.2498  0.1461  0.9521
 6070SOL    HW324047   5.860   2.195   0.080 -1.0716 -0.5754 -0.3090
 6070SOL    MW424048   5.915   2.136   0.048 -0.3394 -0.2998  0.4213
 6071SOL     OW24049   5.022   4.054   1.286 -0.1247 -0.0301 -0.1460
 6071SOL    HW224050   4.982   3.993   1.349  1.9796  0.7523  2.0867
 6071SOL    HW324051   5.072   3.998   1.227 -1.1723 -0.6829 -0.4530
 6071SOL    MW424052   5.023   4.038   1.286  0.0147 -0.0130  0.1080
 6072SOL     OW24053   2.545   2.933   3.160  0.1069  0.1006 -0.1768
 6072SOL    HW224054   2.489   2.998   3.117  0.2107 -0.0683 -0.5685
 6072SOL    HW324055   2.484   2.864   3.187 -0.1902  0.9133  1.3416
 6072SOL    MW424056   2.529   2.932   3.158  0.0814  0.1856 -0.0282
 6073SOL     OW24057   1.529   3.776   2.498 -0.0121  0.5113  0.0294
 6073SOL    HW224058   1.590   3.728   2.554 -1.9831 -0.4742  1.4811
 6073SOL    HW324059   1.523   3.724   2.419  0.1066 -0.0382  0.3774
 6073SOL    MW424060   1.536   3.763   2.495 -0.2565  0.3087  0.2668
 6074SOL     OW24061   0.957   1.891   2.843  0.0452  0.1584 -0.1109
 6074SOL    HW224062   0.937   1.883   2.937  0.4862  1.1872  0.0752
 6074SOL    HW324063   1.000   1.808   2.821  3.5693  1.3614  1.5234
 6074SOL    MW424064   0.960   1.879   2.853  0.5683  0.4529  0.1292
 6075SOL     OW24065   0.413   5.810   0.704 -0.1424  1.1460 -0.3840
 6075SOL    HW224066   0.329   5.797   0.659 -0.3657 -0.8291  0.5417
 6075SOL    HW324067   0.475   5.826   0.632 -1.0749  1.4409 -1.1568
 6075SOL    MW424068   0.410   5.811   0.688 -0.2949  0.9243 -0.3638
 6076SOL     OW24069   5.650   5.009   1.972  0.1996 -0.0197  0.0052
 6076SOL    HW224070   5.667   5.102   1.986  0.7359 -0.1463  0.2582
 6076SOL    HW324071   5.590   5.006   1.897  1.0559  0.4859 -0.7297
 6076SOL    MW424072   5.645   5.021   1.964  0.3833  0.0303 -0.0584
 6077SOL     OW24073   2.107   3.292   2.236  0.2614 -0.7777 -0.2966
 6077SOL    HW224074   2.200   3.305   2.217 -0.2089  2.1751 -1.1212
 6077SOL    HW324075   2.063   3.360   2.185 -2.1000 -0.0497  2.4380
 6077SOL    MW424076   2.113   3.303   2.227 -0.1122 -0.2921 -0.0446
 6078SOL     OW24077   6.279   3.651   6.074  0.2054  0.3153 -0.0100
 6078SOL    HW224078   6.339   3.706   6.025  0.0059  0.3578 -0.2072
 6078SOL    HW324079   6.331   3.575   6.100  0.2009  0.0913 -0.6447
 6078SOL    MW424080   6.294   3.648   6.071  0.1785  0.2914 -0.1198
 6079SOL     OW24081   2.950   6.235   3.833 -0.3682  0.1979  0.3252
 6079SOL    HW224082   2.967   6.323   3.866 -1.7185  1.1915 -1.4433
 6079SOL    HW324083   3.018   6.181   3.873  0.5333  2.0383  1.4211
 6079SOL    MW424084   2.961   6.240   3.843 -0.4274  0.5718  0.2364
 6080SOL     OW24085   1.574   0.322   4.630  0.1497  0.2541  0.0237
 6080SOL    HW224086   1.583   0.226   4.634  0.5394  0.3230  1.4286
 6080SOL    HW324087   1.665   0.354   4.625  0.0488  0.5701  0.2072
 6080SOL    MW424088   1.587   0.313   4.630  0.1878  0.3049  0.2332
 6081SOL     OW24089   0.508   1.460   3.129  0.6810 -0.1754  0.0170
 6081SOL    HW224090   0.584   1.468   3.072  1.2273 -2.9870  0.1880
 6081SOL    HW324091   0.439   1.512   3.087  1.3177 -1.4279 -2.7571
 6081SOL    MW424092   0.509   1.468   3.116  0.8371 -0.7116 -0.3265
 6082SOL     OW24093   3.992   6.057   6.329 -0.0071 -0.1567 -0.5061
 6082SOL    HW224094   3.961   6.145   6.308  1.0060  0.5973  1.0257
 6082SOL    HW324095   4.070   6.071   6.382  1.0284 -1.9899 -1.4454
 6082SOL    MW424096   3.998   6.070   6.333  0.2632 -0.2991 -0.4279
 6083SOL     OW24097   3.156   5.821   3.855 -0.1746 -0.4336 -0.1208
 6083SOL    HW224098   3.215   5.764   3.905  0.4522  0.8812  0.6882
 6083SOL    HW324099   3.215   5.877   3.804 -0.6700  1.3138  1.1578
 6083SOL    MW424100   3.171   5.821   3.855 -0.1573 -0.0296  0.1547
 6084SOL     OW24101   5.186   0.176   1.610  0.4706  0.1628  0.0371
 6084SOL    HW224102   5.228   0.259   1.633 -0.0760  0.1887  0.9902
 6084SOL    HW324103   5.094   0.200   1.592  0.2923 -0.2426  0.3952
 6084SOL    MW424104   5.179   0.190   1.610  0.3750  0.1127  0.2101
 6085SOL     OW24105   3.140   5.174   0.967  0.0934 -0.2527 -0.3594
 6085SOL    HW224106   3.107   5.102   1.022 -1.5747  0.7463  0.0157
 6085SOL    HW324107   3.140   5.137   0.879 -3.5093  0.0253 -0.6367
 6085SOL    MW424108   3.136   5.159   0.963 -0.6020 -0.0842 -0.3465
 6086SOL     OW24109   6.240   5.114   5.479 -0.0151  0.4110 -0.1319
 6086SOL    HW224110   6.173   5.068   5.530 -0.2195  1.4196  0.5263
 6086SOL    HW324111   6.210   5.105   5.388  0.1830 -1.1178 -0.0669
 6086SOL    MW424112   6.227   5.107   5.474 -0.0159  0.3424 -0.0365
 6087SOL     OW24113   4.725   4.810   6.044 -0.5032 -0.3573 -0.8232
 6087SOL    HW224114   4.678   4.835   5.965  0.3218 -2.2371 -2.0089
 6087SOL    HW324115   4.676   4.735   6.078  0.4788 -1.0897 -0.9664
 6087SOL    MW424116   4.712   4.803   6.038 -0.2648 -0.7019 -0.9985
 6088SOL     OW24117   3.163   1.791   5.020  0.1784 -0.5823 -0.4796
 6088SOL    HW224118   3.188   1.710   4.974  0.1983 -0.2734 -1.0183
 6088SOL    HW324119   3.243   1.818   5.064  0.3747 -0.4545 -0.9091
 6088SOL    MW424120   3.177   1.784   5.019  0.2069 -0.5247 -0.6073
 6089SOL     OW24121   1.319   0.360   5.537 -0.1794 -0.3107  0.5295
 6089SOL    HW224122   1.346   0.432   5.480 -0.6486 -0.5846 -0.0445
 6089SOL    HW324123   1.328   0.395   5.626 -1.9600  1.0236  0.2250
 6089SOL    MW424124   1.324   0.374   5.541 -0.4763 -0.1708  0.4136
 6090SOL     OW24125   4.161   1.053   3.155  0.4822 -0.0536 -0.1276
 6090SOL    HW224126   4.145   1.148   3.147  0.7134  0.1039  1.0772
 6090SOL    HW324127   4.247   1.040   3.117  0.0407  0.0582 -1.1913
 6090SOL    MW424128   4.170   1.064   3.149  0.4545 -0.0180 -0.1090
 6091SOL     OW24129   6.122   0.434   2.449 -0.7874 -0.3263 -0.1425
 6091SOL    HW224130   6.146   0.343   2.461 -0.7717 -0.0686  2.3139
 6091SOL    HW324131   6.197   0.483   2.485 -0.3794  0.7030 -2.2739
 6091SOL    MW424132   6.135   0.429   2.456 -0.7315 -0.1565 -0.0996
 6092SOL     OW24133   0.558   3.858   5.983 -0.2345  1.0952  0.1660
 6092SOL    HW224134   0.640   3.870   6.030 -0.3133 -1.0807  1.0126
 6092SOL    HW324135   0.581   3.868   5.891  0.8589  1.1234  0.4316
 6092SOL    MW424136   0.572   3.861   5.977 -0.1006  0.8118  0.3127
 6093SOL     OW24137   5.543   6.270   5.418 -0.1803 -0.1951 -0.7029
 6093SOL    HW224138   5.489   6.348   5.409  0.1878  0.3994  1.5804
 6093SOL    HW324139   5.522   6.235   5.505  1.6914 -1.0051 -0.5083
 6093SOL    MW424140   5.533   6.276   5.428  0.1152 -0.2236 -0.3760
 6094SOL     OW24141   3.966   5.188   4.139  0.1941 -0.3497  0.3780
 6094SOL    HW224142   4.005   5.229   4.063 -0.5063  0.6122  0.5298
 6094SOL    HW324143   3.988   5.246   4.212 -0.0142 -0.7233  0.7459
 6094SOL    MW424144   3.974   5.201   4.139  0.0742 -0.2721  0.4466
 6095SOL     OW24145   3.884   0.231   2.771 -0.2185  0.6011  0.0699
 6095SOL    HW224146   3.922   0.298   2.714 -1.7016 -0.5377 -2.4435
 6095SOL    HW324147   3.938   0.153   2.756  0.1982  0.6151  1.3354
 6095SOL    MW424148   3.896   0.229   2.762 -0.3592  0.4527 -0.0947
 6096SOL     OW24149   1.354   1.794   0.321  0.2994 -0.2654 -0.2257
 6096SOL    HW224150   1.308   1.749   0.251 -0.8984 -0.3234  0.5703
 6096SOL    HW324151   1.365   1.727   0.389  3.2680 -0.8003 -1.0895
 6096SOL    MW424152   1.350   1.779   0.321  0.5330 -0.3436 -0.2347
 6097SOL     OW24153   1.464   0.224   4.004 -0.2717  0.0989 -0.2885
 6097SOL    HW224154   1.514   0.274   4.069 -0.8160 -0.0441  0.2524
 6097SOL    HW324155   1.503   0.248   3.920 -0.4756  1.4054 -0.0448
 6097SOL    MW424156   1.475   0.234   4.001 -0.3704  0.2524 -0.1849
 6098SOL     OW24157   1.809   0.564   4.219 -0.4600  0.3275  0.0065
 6098SOL    HW224158   1.887   0.616   4.199  0.8088  0.0256  3.4660
 6098SOL    HW324159   1.784   0.591   4.307 -1.8264 -2.4582  0.5892
 6098SOL    MW424160   1.816   0.574   4.228 -0.4729 -0.0798  0.5398
 6099SOL     OW24161   3.834   4.555   0.421 -1.2747 -0.1260  0.1537
 6099SOL    HW224162   3.757   4.505   0.447 -1.3974  0.8530  1.8431
 6099SOL    HW324163   3.901   4.490   0.403 -1.6107 -0.9344  1.6798
 6099SOL    MW424164   3.833   4.540   0.422 -1.3352 -0.1035  0.5779
 6100SOL     OW24165   5.063   4.462   2.720  0.1508 -0.5773  0.0979
 6100SOL    HW224166   5.025   4.460   2.632  1.1521 -1.8600 -0.3535
 6100SOL    HW324167   4.989   4.451   2.779 -0.4925 -0.1181 -0.6018
 6100SOL    MW424168   5.049   4.460   2.716  0.1980 -0.6860 -0.0540
 6101SOL     OW24169   5.513   2.963   1.257  0.2041 -0.3347 -0.7230
 6101SOL    HW224170   5.511   3.010   1.174  0.3711  1.2820  0.1510
 6101SOL    HW324171   5.494   3.030   1.323  0.8073 -1.4283  0.6007
 6101SOL    MW424172   5.510   2.978   1.255  0.3057 -0.2657 -0.4331
 6102SOL     OW24173   2.466   0.561   6.259 -0.2148  0.2452 -0.0812
 6102SOL    HW224174   2.517   0.480   6.261  1.0566  1.0263  0.1492
 6102SOL    HW324175   2.440   0.575   6.350  0.7306  0.7859  0.1230
 6102SOL    MW424176   2.469   0.552   6.271  0.0777  0.4196 -0.0238
 6103SOL     OW24177   6.042   5.846   0.297  0.0970  0.0012  0.0777
 6103SOL    HW224178   6.053   5.839   0.392 -1.2486 -1.7561  0.1506
 6103SOL    HW324179   6.123   5.887   0.267  0.9997 -0.3540  1.8835
 6103SOL    MW424180   6.055   5.850   0.306  0.0386 -0.2776  0.3256
 6104SOL     OW24181   1.991   5.756   1.964  0.1837  0.0191 -0.3324
 6104SOL    HW224182   1.992   5.821   2.034 -0.3423 -0.3778  0.0447
 6104SOL    HW324183   2.083   5.730   1.955 -0.0485 -2.2130  2.3749
 6104SOL    MW424184   2.004   5.761   1.972  0.0837 -0.3278  0.0746
 6105SOL     OW24185   1.920   4.567   2.199 -0.7344  0.5483 -0.5822
 6105SOL    HW224186   1.978   4.596   2.269 -0.3806  0.1375 -0.6996
 6105SOL    HW324187   1.848   4.523   2.243 -1.0389  1.1923 -0.4274
 6105SOL    MW424188   1.918   4.565   2.214 -0.7279  0.5791 -0.5773
 6106SOL     OW24189   0.164   0.855   3.896 -0.1475 -0.0416 -0.4309
 6106SOL    HW224190   0.108   0.815   3.829  1.0842  0.4567 -1.8331
 6106SOL    HW324191   0.252   0.855   3.856  0.5141  0.8415  0.9509
 6106SOL    MW424192   0.168   0.850   3.882  0.1023  0.1407 -0.4336
 6107SOL     OW24193   3.797   1.070   0.253 -0.4967 -0.2236 -0.1644
 6107SOL    HW224194   3.848   0.996   0.220  0.6693  0.3963  0.2028
 6107SOL    HW324195   3.733   1.030   0.312 -0.8770 -1.0725 -1.1192
 6107SOL    MW424196   3.795   1.055   0.256 -0.3930 -0.2538 -0.2419
 6108SOL     OW24197   2.478   0.656   4.876  0.0920 -0.6389  0.4259
 6108SOL    HW224198   2.517   0.737   4.844  1.5603 -1.9289 -1.2297
 6108SOL    HW324199   2.552   0.597   4.890 -1.0051 -2.0093  0.6675
 6108SOL    MW424200   2.493   0.659   4.874  0.1410 -0.9899  0.2393
 6109SOL     OW24201   4.411   4.882   2.960  0.1941 -0.1967  0.0017
 6109SOL    HW224202   4.396   4.889   3.054  1.0099 -1.5431  0.2579
 6109SOL    HW324203   4.452   4.796   2.949  1.5238  0.5750 -1.3922
 6109SOL    MW424204   4.415   4.872   2.971  0.4771 -0.2725 -0.1484
 6110SOL     OW24205   0.740   2.443   3.159 -0.2890 -0.4357 -0.2738
 6110SOL    HW224206   0.781   2.380   3.219 -2.5873 -2.0984 -0.3166
 6110SOL    HW324207   0.652   2.409   3.146 -1.0682  1.9296 -1.6851
 6110SOL    MW424208   0.734   2.430   3.165 -0.6950 -0.3430 -0.4656
 6111SOL     OW24209   3.513   5.137   2.366  0.3073  0.4738  0.0223
 6111SOL    HW224210   3.524   5.046   2.393  1.9404  1.0175  1.3908
 6111SOL    HW324211   3.582   5.152   2.302  2.0155  1.4841  1.9742
 6111SOL    MW424212   3.523   5.127   2.361  0.7481  0.6788  0.4604
 6112SOL     OW24213   3.875   0.288   5.089 -0.4303 -0.1000 -0.1081
 6112SOL    HW224214   3.798   0.252   5.134 -0.1862 -0.8809 -0.2994
 6112SOL    HW324215   3.906   0.216   5.034  1.7983 -0.6284  1.6823
 6112SOL    MW424216   3.869   0.273   5.088 -0.1041 -0.2727  0.1029
 6113SOL     OW24217   5.638   4.184   3.458 -0.5106  0.2316  0.0130
 6113SOL    HW224218   5.656   4.273   3.487  2.0564 -0.3729  0.5186
 6113SOL    HW324219   5.603   4.194   3.369 -0.6394  1.7243  0.2082
 6113SOL    MW424220   5.636   4.197   3.450 -0.1889  0.3488  0.1055
 6114SOL     OW24221   4.293   6.218   5.160  0.0473 -0.2645  0.1918
 6114SOL    HW224222   4.272   6.257   5.075 -0.6927 -0.0109  0.4802
 6114SOL    HW324223   4.370   6.266   5.191  0.5212 -0.5774 -0.4710
 6114SOL    MW424224   4.300   6.229   5.153  0.0122 -0.2723  0.1424
 6115SOL     OW24225   2.286   5.323   4.089 -0.0021 -0.1895 -0.5367
 6115SOL    HW224226   2.250   5.335   4.177 -0.5042 -0.3611 -0.7153
 6115SOL    HW324227   2.309   5.230   4.086 -2.5185 -0.8843 -1.4911
 6115SOL    MW424228   2.284   5.312   4.100 -0.4003 -0.3038 -0.6862
 6116SOL     OW24229   0.423   3.351   4.925 -0.7878  0.7242 -0.1958
 6116SOL    HW224230   0.434   3.348   4.830  1.2001 -0.5032  0.0099
 6116SOL    HW324231   0.481   3.282   4.958 -1.6389  0.9289  1.9034
 6116SOL    MW424232   0.432   3.341   4.917 -0.6378  0.5892  0.1083
 6117SOL     OW24233   2.381   3.750   3.642 -0.3002 -0.5479  0.0604
 6117SOL    HW224234   2.297   3.790   3.666  0.6502  0.8285  1.2920
 6117SOL    HW324235   2.408   3.702   3.720  0.1567 -0.8294 -0.2652
 6117SOL    MW424236   2.374   3.749   3.656 -0.1146 -0.4035  0.1800
 6118SOL     OW24237   2.133   1.736   5.961  0.8163 -0.4012 -0.3505
 6118SOL    HW224238   2.184   1.658   5.940  1.6605 -0.0303  0.2782
 6118SOL    HW324239   2.099   1.720   6.049  3.0798  0.9401  0.8720
 6118SOL    MW424240   2.135   1.724   5.970  1.2263 -0.1753 -0.1063
 6119SOL     OW24241   4.772   3.143   0.743  0.8197  0.4020  0.0919
 6119SOL    HW224242   4.725   3.210   0.694 -0.1823  0.0102  0.5021
 6119SOL    HW324243   4.828   3.193   0.803  0.2116  0.8699  0.2761
 6119SOL    MW424244   4.773   3.159   0.744  0.6073  0.4120  0.1703
 6120SOL     OW24245   2.113   1.335   1.752 -0.4102  0.0648 -0.0935
 6120SOL    HW224246   2.207   1.345   1.737 -0.5550  2.2995  0.0437
 6120SOL    HW324247   2.076   1.315   1.666  0.2298 -1.5208 -0.0291
 6120SOL    MW424248   2.121   1.334   1.739 -0.3448  0.1505 -0.0669
 6121SOL     OW24249   4.150   5.284   1.411 -0.0138 -0.1134  0.2484
 6121SOL    HW224250   4.131   5.232   1.333  0.3295  1.4326 -0.9358
 6121SOL    HW324251   4.078   5.264   1.472 -1.0491 -0.3375 -1.0036
 6121SOL    MW424252   4.138   5.275   1.409 -0.1051  0.0610 -0.0731
 6122SOL     OW24253   4.294   3.653   4.360  0.6710  0.0846 -0.2556
 6122SOL    HW224254   4.329   3.592   4.296  2.5463  1.2669 -0.4406
 6122SOL    HW324255   4.371   3.703   4.390 -0.5021  1.0895  1.2353
 6122SOL    MW424256   4.309   3.651   4.356  0.7637  0.3732 -0.0833
 6123SOL     OW24257   2.434   3.635   5.201  0.9154 -0.0531 -0.4348
 6123SOL    HW224258   2.527   3.636   5.176  1.3894 -1.7682  1.0701
 6123SOL    HW324259   2.432   3.674   5.288  0.0974  0.6716 -0.7667
 6123SOL    MW424260   2.446   3.640   5.209  0.8700 -0.1837 -0.2801
 6124SOL     OW24261   0.544   2.178   4.632  0.4456 -0.3394 -0.2202
 6124SOL    HW224262   0.594   2.136   4.562  0.3932 -0.9379  0.0897
 6124SOL    HW324263   0.462   2.206   4.590  0.2181 -1.1044 -0.3035
 6124SOL    MW424264   0.540   2.176   4.617  0.4086 -0.5193 -0.1903
 6125SOL     OW24265   1.174   4.992   5.174 -0.2582 -0.0760 -0.0615
 6125SOL    HW224266   1.093   5.025   5.136 -0.3455  0.5434  0.6467
 6125SOL    HW324267   1.243   5.032   5.120 -0.4065  0.0811 -0.1373
 6125SOL    MW424268   1.173   5.002   5.162 -0.2893  0.0265  0.0219
 6126SOL     OW24269   5.518   6.361   5.860 -0.2916 -0.1936  0.4163
 6126SOL    HW224270   5.442   6.335   5.911 -0.5233  1.1297  0.7860
 6126SOL    HW324271   5.482   6.414   5.789  0.1897 -0.5789 -0.1303
 6126SOL    MW424272   5.503   6.364   5.857 -0.2586 -0.0699  0.3930
 6127SOL     OW24273   6.174   5.832   4.481 -0.0385  0.2471  0.1234
 6127SOL    HW224274   6.228   5.761   4.448 -0.2495 -0.0244  0.3608
 6127SOL    HW324275   6.122   5.793   4.551 -0.4915  0.5237 -0.0514
 6127SOL    MW424276   6.174   5.818   4.486 -0.1261  0.2478  0.1317
 6128SOL     OW24277   1.558   4.930   3.043  0.1660  0.5784  0.1489
 6128SOL    HW224278   1.509   4.853   3.015  1.3732 -0.2293  0.1897
 6128SOL    HW324279   1.620   4.897   3.109  2.7636  0.9406 -1.9110
 6128SOL    MW424280   1.560   4.916   3.048  0.6680  0.5196 -0.1175
 6129SOL     OW24281   2.538   0.348   3.308 -0.2909  0.1111  0.1071
 6129SOL    HW224282   2.559   0.281   3.373  1.8781  0.6412  0.0494
 6129SOL    HW324283   2.483   0.303   3.244 -2.3797 -0.4587  2.1674
 6129SOL    MW424284   2.534   0.333   3.308 -0.2803  0.1058  0.3713
 6130SOL     OW24285   4.797   2.548   5.459  0.5129  0.3567 -0.3366
 6130SOL    HW224286   4.832   2.615   5.518  0.3549  0.6675 -0.5931
 6130SOL    HW324287   4.792   2.591   5.374  1.1845 -0.2347 -0.6843
 6130SOL    MW424288   4.801   2.563   5.455  0.5807  0.3197 -0.4163
 6131SOL     OW24289   3.663   1.702   4.013  0.3088 -0.2315 -0.1053
 6131SOL    HW224290   3.728   1.645   4.054 -0.4287 -1.2397 -0.3062
 6131SOL    HW324291   3.581   1.653   4.019 -1.0501  2.1018  2.5308
 6131SOL    MW424292   3.661   1.688   4.019  0.0322 -0.0567  0.2160
 6132SOL     OW24293   3.506   1.935   3.559 -0.3855  0.3910  0.0632
 6132SOL    HW224294   3.443   1.870   3.589  0.5178 -1.5913 -2.0583
 6132SOL    HW324295   3.560   1.953   3.636  1.6800 -4.2468  0.0310
 6132SOL    MW424296   3.505   1.929   3.573  0.0062 -0.4824 -0.2209
 6133SOL     OW24297   0.508   4.999   2.907 -0.3444  0.6421  0.2259
 6133SOL    HW224298   0.530   4.940   2.980 -1.2848 -0.5530 -0.4130
 6133SOL    HW324299   0.576   5.066   2.909  0.9168 -0.5959  0.8570
 6133SOL    MW424300   0.520   5.000   2.917 -0.3021  0.3211  0.2248
 6134SOL     OW24301   6.358   2.067   2.600  0.5084 -0.2648 -0.2111
 6134SOL    HW224302   6.291   2.022   2.651  1.0309  0.1323  0.8635
 6134SOL    HW324303   6.441   2.035   2.637  0.9247 -0.6969 -1.4642
 6134SOL    MW424304   6.360   2.056   2.612  0.6323 -0.2694 -0.2346
 6135SOL     OW24305   2.903   5.295   5.702 -0.2112  0.0904  0.3190
 6135SOL    HW224306   2.894   5.202   5.722  1.2483 -0.2072 -0.2546
 6135SOL    HW324307   2.856   5.307   5.619  0.8651 -0.4828 -0.3982
 6135SOL    MW424308   2.896   5.285   5.693  0.1233 -0.0245  0.1487
 6136SOL     OW24309   0.923   3.603   4.468  0.1034  0.2337 -0.1491
 6136SOL    HW224310   0.982   3.543   4.422 -1.3148 -0.5697 -0.9992
 6136SOL    HW324311   0.969   3.624   4.549  1.1998 -0.9984 -0.4141
 6136SOL    MW424312   0.937   3.598   4.472  0.0609 -0.0349 -0.2962
 6137SOL     OW24313   3.926   2.735   3.285  0.7461  0.0649  0.6077
 6137SOL    HW224314   3.862   2.781   3.231  1.3346  0.5576  0.3164
 6137SOL    HW324315   3.942   2.653   3.237 -0.8343 -0.8154  1.4872
 6137SOL    MW424316   3.920   2.730   3.271  0.6152  0.0138  0.6853
 6138SOL     OW24317   3.246   0.633   4.027 -0.4412  0.4391 -0.2082
 6138SOL    HW224318   3.312   0.661   4.090 -1.4695  0.9990  0.6525
 6138SOL    HW324319   3.208   0.715   3.994 -0.8946  0.1209 -0.4941
 6138SOL    MW424320   3.250   0.648   4.031 -0.6367  0.4710 -0.1324
 6139SOL     OW24321   6.434   5.668   4.542 -0.1957  0.4626  0.0863
 6139SOL    HW224322   6.424   5.634   4.631  1.1503 -3.2555 -0.9843
 6139SOL    HW324323   6.528   5.664   4.525 -0.6000 -1.4322 -2.2657
 6139SOL    MW424324   6.445   5.663   4.551 -0.0714 -0.2779 -0.3653
 6140SOL     OW24325   0.139   2.132   5.598 -0.1914  0.0605  0.3151
 6140SOL    HW224326   0.154   2.189   5.673 -0.1896 -0.9467  1.0984
 6140SOL    HW324327   0.060   2.084   5.619 -0.3361 -0.0525 -0.4524
 6140SOL    MW424328   0.131   2.133   5.611 -0.2103 -0.0873  0.3172
 6141SOL     OW24329   5.027   0.324   0.445  0.4122  0.0691 -0.4201
 6141SOL    HW224330   4.947   0.349   0.492 -0.4745  0.0333 -1.8418
 6141SOL    HW324331   5.001   0.249   0.392  0.5636  1.6736 -2.9710
 6141SOL    MW424332   5.013   0.318   0.444  0.3152  0.2761 -0.9442
 6142SOL     OW24333   1.345   1.016   1.272  0.6563 -0.4957  0.7718
 6142SOL    HW224334   1.350   1.082   1.203 -1.7302 -0.6586  0.3744
 6142SOL    HW324335   1.419   0.957   1.255  1.6875  0.9628 -0.0052
 6142SOL    MW424336   1.355   1.017   1.261  0.4775 -0.3247  0.6169
 6143SOL     OW24337   3.133   2.811   1.895  0.4377  0.3742  0.1852
 6143SOL    HW224338   3.079   2.889   1.883  0.1180  0.0042 -0.9915
 6143SOL    HW324339   3.219   2.845   1.920  0.7113  1.2149 -1.7228
 6143SOL    MW424340   3.138   2.826   1.896  0.4316  0.4363 -0.2218
 6144SOL     OW24341   4.507   2.193   3.332 -0.1556  0.3302 -0.0175
 6144SOL    HW224342   4.495   2.255   3.404  0.3468  1.0065 -0.5122
 6144SOL    HW324343   4.421   2.189   3.290 -0.0365  1.1888 -0.3708
 6144SOL    MW424344   4.494   2.201   3.336 -0.0736  0.5327 -0.1294
 6145SOL     OW24345   2.095   0.437   2.773 -0.0260 -0.0358  0.3321
 6145SOL    HW224346   2.016   0.473   2.813 -0.6319 -2.9212  1.9618
 6145SOL    HW324347   2.143   0.515   2.743 -3.0830  1.8848 -0.1541
 6145SOL    MW424348   2.091   0.452   2.774 -0.5092 -0.1631  0.4830
 6146SOL     OW24349   4.636   2.863   2.098  0.2887 -0.4846 -0.2971
 6146SOL    HW224350   4.726   2.854   2.065  1.0667 -0.1756  1.6019
 6146SOL    HW324351   4.622   2.958   2.100  0.4211 -0.4742  0.6067
 6146SOL    MW424352   4.646   2.875   2.094  0.4088 -0.4425  0.0727
 6147SOL     OW24353   0.174   1.147   1.303  0.4397 -0.2016 -0.1791
 6147SOL    HW224354   0.090   1.178   1.338  0.2121  0.0588 -0.9346
 6147SOL    HW324355   0.236   1.218   1.323  0.2784  0.0100 -0.4203
 6147SOL    MW424356   0.171   1.161   1.310  0.3884 -0.1393 -0.3106
 6148SOL     OW24357   4.627   4.114   6.091  0.2148 -0.2084  0.3773
 6148SOL    HW224358   4.673   4.152   6.166 -1.6323 -1.3927  2.2302
 6148SOL    HW324359   4.620   4.186   6.029  1.5974  0.9003  1.4261
 6148SOL    MW424360   4.632   4.129   6.093  0.1535 -0.2184  0.7601
 6149SOL     OW24361   6.262   0.018   5.308 -0.6518 -0.0720 -0.2078
 6149SOL    HW224362   6.297   0.004   5.397  1.9029 -0.9631 -1.2567
 6149SOL    HW324363   6.225  -0.067   5.284  0.3653 -0.4138 -0.6425
 6149SOL    MW424364   6.262   0.005   5.317 -0.1806 -0.2347 -0.4035
 6150SOL     OW24365   6.047   1.121   2.209 -0.4698  0.4084 -0.5400
 6150SOL    HW224366   6.039   1.031   2.240 -1.5252  1.1600  1.5212
 6150SOL    HW324367   5.960   1.159   2.221  0.2378  2.0399 -0.2208
 6150SOL    MW424368   6.035   1.115   2.214 -0.5157  0.7228 -0.2260
 6151SOL     OW24369   5.395   1.684   1.719  0.4446 -0.4797  0.5274
 6151SOL    HW224370   5.482   1.648   1.704  1.3020  1.8024 -0.4410
 6151SOL    HW324371   5.345   1.657   1.641  0.3971 -1.3813  0.8559
 6151SOL    MW424372   5.400   1.675   1.706  0.5514 -0.2976  0.4430
 6152SOL     OW24373   2.504   1.206   1.338  0.1496 -0.2662  0.4491
 6152SOL    HW224374   2.465   1.259   1.407  1.4710  0.3262  0.7750
 6152SOL    HW324375   2.475   1.248   1.256 -1.0871 -0.7335  0.6216
 6152SOL    MW424376   2.495   1.218   1.336  0.1608 -0.2497  0.5149
 6153SOL     OW24377   2.921   0.879   1.361 -0.2607 -0.0284 -0.4374
 6153SOL    HW224378   2.839   0.878   1.311 -0.7145 -0.2321  0.2995
 6153SOL    HW324379   2.907   0.818   1.433  0.4298  0.1669 -0.1211
 6153SOL    MW424380   2.909   0.871   1.364 -0.2295 -0.0295 -0.2984
 6154SOL     OW24381   0.530   5.444   2.028 -0.3222  0.5164  0.4888
 6154SOL    HW224382   0.575   5.379   2.082 -1.0954  0.6603  1.3433
 6154SOL    HW324383   0.449   5.400   2.000 -0.4440  0.8203  0.3567
 6154SOL    MW424384   0.525   5.429   2.031 -0.4403  0.5755  0.5841
 6155SOL     OW24385   3.609   2.886   4.449 -0.0470  0.6534 -0.3585
 6155SOL    HW224386   3.588   2.979   4.442  0.0905  0.5679 -2.6469
 6155SOL    HW324387   3.705   2.884   4.454 -0.0029  0.6001 -1.2182
 6155SOL    MW424388   3.619   2.898   4.449 -0.0230  0.6351 -0.7739
 6156SOL     OW24389   0.708   4.025   2.539  0.6664  0.2903  0.1733
 6156SOL    HW224390   0.791   3.976   2.543  0.6004 -0.0391 -1.6037
 6156SOL    HW324391   0.656   3.977   2.475 -0.6319  0.9284  0.7270
 6156SOL    MW424392   0.712   4.012   2.531  0.4864  0.3310  0.0119
 6157SOL     OW24393   4.771   3.842   4.195  0.3402  0.2433  0.1620
 6157SOL    HW224394   4.844   3.801   4.148  2.1989  2.2471  1.1229
 6157SOL    HW324395   4.780   3.811   4.285  0.3393  0.9100  0.3978
 6157SOL    MW424396   4.782   3.832   4.201  0.5853  0.5957  0.3199
 6158SOL     OW24397   1.906   4.313   5.893  0.0929 -0.0660  0.1240
 6158SOL    HW224398   1.932   4.368   5.818 -2.4377  0.2163 -0.6411
 6158SOL    HW324399   1.913   4.372   5.968 -0.3245  0.6092 -0.3484
 6158SOL    MW424400   1.911   4.328   5.893 -0.2960  0.0603 -0.0393
 6159SOL     OW24401   5.342   2.658   5.531  0.3564  0.6961 -0.4392
 6159SOL    HW224402   5.283   2.583   5.523  0.0029  0.8659  0.4096
 6159SOL    HW324403   5.346   2.695   5.443  0.6403 -0.3898 -0.8924
 6159SOL    MW424404   5.335   2.653   5.518  0.3472  0.5753 -0.3870
 6160SOL     OW24405   6.113   1.873   1.388  0.5022 -0.3653 -0.2141
 6160SOL    HW224406   6.117   1.887   1.293  0.2567 -1.8071 -0.4575
 6160SOL    HW324407   6.044   1.808   1.400 -0.0450  0.4125  1.0470
 6160SOL    MW424408   6.104   1.866   1.377  0.3976 -0.4529 -0.0798
 6161SOL     OW24409   1.031   3.680   0.210  0.1270  0.0706 -0.1194
 6161SOL    HW224410   1.001   3.688   0.300 -0.4970  0.2445 -0.3394
 6161SOL    HW324411   1.124   3.659   0.218  0.5445  1.9627  0.5609
 6161SOL    MW424412   1.039   3.678   0.223  0.0998  0.3431 -0.0587
 6162SOL     OW24413   3.976   5.720   2.624  0.6215 -0.0006 -0.1307
 6162SOL    HW224414   4.031   5.781   2.674  1.2602 -0.1524 -0.6224
 6162SOL    HW324415   3.900   5.704   2.679 -0.4098  2.5464 -0.6790
 6162SOL    MW424416   3.974   5.726   2.638  0.5697  0.3154 -0.2679
 6163SOL     OW24417   4.502   4.898   0.290 -0.1531 -0.3291  0.0030
 6163SOL    HW224418   4.506   4.848   0.208 -1.3986 -0.2804 -0.0976
 6163SOL    HW324419   4.502   4.831   0.359  0.1907 -0.3928 -0.0568
 6163SOL    MW424420   4.503   4.882   0.288 -0.2721 -0.3311 -0.0182
 6164SOL     OW24421   1.764   0.213   4.364  0.2264 -0.6922  0.1249
 6164SOL    HW224422   1.719   0.252   4.289  0.3985 -3.8958 -1.7948
 6164SOL    HW324423   1.721   0.129   4.377  0.0962 -0.2093  3.8256
 6164SOL    MW424424   1.753   0.207   4.356  0.2319 -1.0512  0.3599
 6165SOL     OW24425   2.013   5.637   2.424  1.2918  0.4433 -0.3192
 6165SOL    HW224426   1.957   5.715   2.419 -0.0287 -0.5425 -1.7224
 6165SOL    HW324427   1.952   5.564   2.435  2.4722 -0.4631  0.5448
 6165SOL    MW424428   1.998   5.638   2.425  1.2733  0.1937 -0.3903
 6166SOL     OW24429   4.611   4.628   3.497 -0.1027  0.0511 -0.4637
 6166SOL    HW224430   4.695   4.674   3.496 -0.8248  1.4200 -0.0870
 6166SOL    HW324431   4.628   4.546   3.450  1.6489 -0.0905  0.3386
 6166SOL    MW424432   4.624   4.623   3.491  0.0331  0.2130 -0.3081
 6167SOL     OW24433   4.979   4.481   5.091  0.3083  0.5890  0.4260
 6167SOL    HW224434   4.891   4.505   5.061  0.4622  0.0936 -0.4610
 6167SOL    HW324435   5.021   4.565   5.109 -0.5357  0.8105  1.4467
 6167SOL    MW424436   4.973   4.495   5.089  0.2173  0.5529  0.4436
 6168SOL     OW24437   1.497   5.406   0.603 -0.0759  0.5329  0.3359
 6168SOL    HW224438   1.480   5.351   0.526  0.7918  0.0729  0.4640
 6168SOL    HW324439   1.592   5.419   0.603 -0.1674  1.2452  0.8491
 6168SOL    MW424440   1.507   5.400   0.593  0.0265  0.5662  0.4205
 6169SOL     OW24441   2.945   3.219   5.323  0.3034  0.2550  0.3610
 6169SOL    HW224442   2.902   3.137   5.300  1.4162 -0.4523  0.7414
 6169SOL    HW324443   2.873   3.283   5.328 -0.4777 -0.4999 -0.7336
 6169SOL    MW424444   2.930   3.217   5.321  0.3471  0.0621  0.2667
 6170SOL     OW24445   1.703   2.124   3.339  0.3026  0.4639 -0.6574
 6170SOL    HW224446   1.761   2.162   3.273 -1.5051 -0.2184 -2.7932
 6170SOL    HW324447   1.730   2.033   3.345  2.1072  1.0543  1.5565
 6170SOL    MW424448   1.714   2.117   3.331  0.3022  0.4518 -0.6471
 6171SOL     OW24449   5.031   3.105   2.757  0.5010 -0.3870 -0.3917
 6171SOL    HW224450   5.096   3.089   2.688  0.1303 -0.4666 -0.7234
 6171SOL    HW324451   4.981   3.180   2.725  0.4884 -0.2662 -0.0913
 6171SOL    MW424452   5.033   3.113   2.744  0.4505 -0.3816 -0.3959
 6172SOL     OW24453   1.251   3.833   2.885 -0.2482  0.3547 -0.0233
 6172SOL    HW224454   1.276   3.780   2.960 -0.5802 -0.7120 -0.6346
 6172SOL    HW324455   1.284   3.785   2.809 -0.1874  1.2464 -0.5829
 6172SOL    MW424456   1.259   3.820   2.885 -0.2840  0.3316 -0.1778
 6173SOL     OW24457   3.909   5.890   2.414 -0.6509  0.1329  0.7288
 6173SOL    HW224458   3.870   5.972   2.446 -2.0383 -0.7920  1.5079
 6173SOL    HW324459   3.942   5.847   2.492  2.1611  0.9093  0.0918
 6173SOL    MW424460   3.908   5.895   2.428 -0.4630  0.1133  0.7475
 6174SOL     OW24461   3.696   4.398   3.655  0.0325 -0.1837 -0.0895
 6174SOL    HW224462   3.768   4.387   3.716  0.1377 -0.9483 -0.3462
 6174SOL    HW324463   3.738   4.423   3.572 -0.1019  0.7389  0.1031
 6174SOL    MW424464   3.711   4.400   3.652  0.0286 -0.1629 -0.0979
 6175SOL     OW24465   4.303   6.416   2.567 -0.0756 -0.4733  0.4549
 6175SOL    HW224466   4.373   6.352   2.563 -0.2654 -0.6436 -1.0480
 6175SOL    HW324467   4.322   6.476   2.494 -1.5116 -0.5838 -0.0524
 6175SOL    MW424468   4.314   6.416   2.557 -0.2901 -0.5104  0.1897
 6176SOL     OW24469   2.608   4.335   3.897  0.1538 -0.3148  0.6111
 6176SOL    HW224470   2.685   4.339   3.840 -0.2296 -1.3194  0.0121
 6176SOL    HW324471   2.642   4.358   3.984  1.2825 -1.4424  0.4892
 6176SOL    MW424472   2.623   4.339   3.901  0.2521 -0.5961  0.5160
 6177SOL     OW24473   2.318   2.807   3.687 -0.0651 -0.3898 -0.2063
 6177SOL    HW224474   2.279   2.847   3.610 -1.5231  0.3112  0.8492
 6177SOL    HW324475   2.244   2.787   3.744  1.0234  0.2709  1.5416
 6177SOL    MW424476   2.303   2.810   3.684 -0.1138 -0.2101  0.1636
 6178SOL     OW24477   0.476   4.947   1.363  0.1228  0.0473  0.7184
 6178SOL    HW224478   0.445   5.021   1.413 -0.5738  0.5770 -0.4572
 6178SOL    HW324479   0.495   4.983   1.276 -1.3384 -1.3336 -0.2272
 6178SOL    MW424480   0.475   4.961   1.358 -0.1619 -0.0650  0.4386
 6179SOL     OW24481   1.961   0.403   1.497 -0.1828 -0.0826 -0.7917
 6179SOL    HW224482   1.945   0.390   1.403 -0.6581 -0.3581 -0.6751
 6179SOL    HW324483   1.914   0.332   1.539 -0.1428  0.1637 -0.3293
 6179SOL    MW424484   1.953   0.392   1.490 -0.2403 -0.0865 -0.7153
 6180SOL     OW24485   2.704   0.437   6.024  0.2481  1.0148  0.2764
 6180SOL    HW224486   2.779   0.379   6.008 -1.2144 -0.1214 -3.7457
 6180SOL    HW324487   2.740   0.525   6.017  1.4278  0.5079 -0.4038
 6180SOL    MW424488   2.718   0.441   6.021  0.2108  0.7980 -0.3440
 6181SOL     OW24489   0.186   1.556   2.624 -0.5499 -0.0951 -0.4952
 6181SOL    HW224490   0.251   1.591   2.684 -0.8640 -0.5413  0.1144
 6181SOL    HW324491   0.233   1.490   2.573 -0.8597 -1.5072  0.9824
 6181SOL    MW424492   0.201   1.552   2.625 -0.6322 -0.3403 -0.2198
 6182SOL     OW24493   6.241   1.591   0.254  0.3430 -0.0370 -0.1412
 6182SOL    HW224494   6.181   1.665   0.254  0.5467  0.1281 -0.0680
 6182SOL    HW324495   6.241   1.559   0.344  1.1387  0.5933  0.0900
 6182SOL    MW424496   6.233   1.596   0.266  0.4748  0.0680 -0.1011
 6183SOL     OW24497   4.638   0.210   2.220  0.2032  0.2982 -0.2013
 6183SOL    HW224498   4.564   0.165   2.260  0.6014  0.4074  0.6751
 6183SOL    HW324499   4.647   0.170   2.134 -2.7547  2.2490 -1.6113
 6183SOL    MW424500   4.630   0.199   2.214 -0.1345  0.5700 -0.2717
 6184SOL     OW24501   1.492   4.787   5.983  0.1022  0.3287  0.0224
 6184SOL    HW224502   1.410   4.834   5.998  0.2842  1.0479 -1.1206
 6184SOL    HW324503   1.467   4.715   5.924  0.1409  0.0558  0.3410
 6184SOL    MW424504   1.478   4.784   5.977  0.1313  0.3876 -0.0864
 6185SOL     OW24505   3.835   0.142   4.455  0.0448  0.1594 -0.2801
 6185SOL    HW224506   3.924   0.111   4.436  0.1346 -0.2466  0.7635
 6185SOL    HW324507   3.826   0.135   4.550 -1.0387  0.3834 -0.3491
 6185SOL    MW424508   3.846   0.137   4.465 -0.0863  0.1354 -0.1515
 6186SOL     OW24509   1.556   3.095   1.660  0.0825 -0.1431 -0.2527
 6186SOL    HW224510   1.539   3.061   1.572 -1.3514  0.1614 -0.1309
 6186SOL    HW324511   1.469   3.122   1.691  0.7460  0.8602  0.7924
 6186SOL    MW424512   1.542   3.094   1.652 -0.0191  0.0294 -0.0988
 6187SOL     OW24513   1.162   5.721   1.198 -0.4619 -0.3795 -0.1935
 6187SOL    HW224514   1.230   5.660   1.226  0.0783  0.4439  0.3286
 6187SOL    HW324515   1.084   5.667   1.187  0.6551 -1.6711 -2.5287
 6187SOL    MW424516   1.161   5.706   1.200 -0.2432 -0.4413 -0.4327
 6188SOL     OW24517   1.556   4.784   1.778  0.3541  0.1758  0.2686
 6188SOL    HW224518   1.539   4.692   1.756  0.8797 -0.3669  1.9701
 6188SOL    HW324519   1.496   4.803   1.850  2.3521  0.1857  2.0228
 6188SOL    MW424520   1.546   4.774   1.785  0.6870  0.1055  0.7245
 6189SOL     OW24521   5.898   0.570   3.035  0.7817  0.7726  0.3181
 6189SOL    HW224522   5.830   0.612   3.087  2.3768  0.3674  2.8852
 6189SOL    HW324523   5.968   0.552   3.097  1.6845 -2.3491 -1.3863
 6189SOL    MW424524   5.898   0.573   3.050  1.1113  0.3073  0.4319
 6190SOL     OW24525   5.143   0.024   4.590 -0.2184 -0.0452 -0.4367
 6190SOL    HW224526   5.164   0.008   4.682 -1.5891  0.9851  0.0944
 6190SOL    HW324527   5.228   0.034   4.548  0.4364 -0.4581  0.7304
 6190SOL    MW424528   5.157   0.023   4.597 -0.3129  0.0362 -0.2127
 6191SOL     OW24529   2.266   1.912   4.531  0.2414  0.0291 -0.0033
 6191SOL    HW224530   2.293   1.914   4.439 -0.5854 -1.2352 -0.3065
 6191SOL    HW324531   2.171   1.900   4.527  0.0261  1.1726  1.0292
 6191SOL    MW424532   2.257   1.911   4.518  0.1039  0.0132  0.0929
 6192SOL     OW24533   2.478   6.321   1.029 -0.0344  0.2799 -0.2645
 6192SOL    HW224534   2.449   6.362   0.948  0.4739  0.4477 -0.3650
 6192SOL    HW324535   2.525   6.242   1.001 -0.9411 -0.3399 -0.0764
 6192SOL    MW424536   2.480   6.316   1.015 -0.0870  0.2202 -0.2530
 6193SOL     OW24537   1.718   4.595   1.488 -0.0148 -0.4220  0.5810
 6193SOL    HW224538   1.740   4.671   1.435 -1.2310 -0.7295 -0.4172
 6193SOL    HW324539   1.772   4.524   1.453 -1.7707 -0.9517 -1.2290
 6193SOL    MW424540   1.728   4.595   1.477 -0.4069 -0.5325  0.2105
 6194SOL     OW24541   1.122   0.908   2.963 -0.7241  0.1388 -0.5722
 6194SOL    HW224542   1.083   0.994   2.977 -1.0122  0.2807 -2.1052
 6194SOL    HW324543   1.050   0.855   2.928  0.0847  0.0183 -2.1163
 6194SOL    MW424544   1.107   0.912   2.960 -0.6554  0.1416 -0.9782
 6195SOL     OW24545   1.696   6.072   1.417  0.2156 -0.5116 -0.0737
 6195SOL    HW224546   1.645   6.003   1.374  0.7634 -0.5655 -0.6535
 6195SOL    HW324547   1.734   6.029   1.493 -0.0173 -0.6579 -0.0366
 6195SOL    MW424548   1.694   6.057   1.421  0.2572 -0.5380 -0.1453
 6196SOL     OW24549   5.627   0.620   0.304  0.1183  0.0619  0.1154
 6196SOL    HW224550   5.603   0.606   0.212  0.7100  0.3147 -0.0843
 6196SOL    HW324551   5.556   0.672   0.340 -1.3799 -2.1023  0.4780
 6196SOL    MW424552   5.615   0.625   0.297 -0.0013 -0.1903  0.1369
 6197SOL     OW24553   4.629   2.058   1.785 -0.5236 -0.0227 -0.1171
 6197SOL    HW224554   4.555   2.097   1.832  0.6905  2.4796 -0.1622
 6197SOL    HW324555   4.643   2.115   1.710  1.6672 -0.2672  0.0646
 6197SOL    MW424556   4.621   2.070   1.781 -0.0744  0.2752 -0.0991
 6198SOL     OW24557   5.095   0.815   5.090  0.5219 -0.0105  0.3867
 6198SOL    HW224558   5.027   0.878   5.069  0.5853 -0.4955 -1.5162
 6198SOL    HW324559   5.173   0.868   5.108  0.4790  0.4765 -0.8017
 6198SOL    MW424560   5.096   0.830   5.090  0.5246 -0.0103 -0.0212
 6199SOL     OW24561   1.776   3.901   5.171  0.4548  0.9784 -0.2262
 6199SOL    HW224562   1.697   3.953   5.185  0.2464  0.6815 -0.3122
 6199SOL    HW324563   1.819   3.943   5.097 -0.6563 -0.0867 -1.5055
 6199SOL    MW424564   1.771   3.914   5.163  0.2807  0.7987 -0.4063
 6200SOL     OW24565   0.312   2.839   1.476  0.0530  0.6357  0.1917
 6200SOL    HW224566   0.358   2.785   1.541  1.5074 -1.8422 -2.6483
 6200SOL    HW324567   0.381   2.879   1.424 -1.0247  0.9871 -1.0234
 6200SOL    MW424568   0.327   2.837   1.478  0.1027  0.3551 -0.3433
 6201SOL     OW24569   3.647   2.553   0.563  0.7376 -0.4345 -0.4044
 6201SOL    HW224570   3.636   2.460   0.543  0.9951 -0.8445  1.2150
 6201SOL    HW324571   3.650   2.596   0.478  0.3555 -1.8801 -1.1714
 6201SOL    MW424572   3.646   2.547   0.549  0.7212 -0.6793 -0.2919
 6202SOL     OW24573   0.883   3.473   1.125 -0.0109  0.2107 -0.2383
 6202SOL    HW224574   0.821   3.546   1.119  0.3075  0.5173  0.1673
 6202SOL    HW324575   0.840   3.409   1.183  0.0938  0.4686  0.1266
 6202SOL    MW424576   0.869   3.474   1.132  0.0449  0.2852 -0.1366
 6203SOL     OW24577   2.435   5.018   1.517  0.0074  0.0993 -0.4274
 6203SOL    HW224578   2.424   5.092   1.575 -0.2615  0.8331 -1.3820
 6203SOL    HW324579   2.525   5.025   1.485 -0.0583  0.0869 -0.6163
 6203SOL    MW424580   2.445   5.028   1.520 -0.0367  0.1945 -0.5783
 6204SOL     OW24581   3.353   0.781   2.146  0.6151 -0.2427  0.9583
 6204SOL    HW224582   3.366   0.692   2.115  1.5404  0.0997  0.3047
 6204SOL    HW324583   3.290   0.819   2.085  0.8948 -0.1883  0.6986
 6204SOL    MW424584   3.347   0.774   2.134  0.7741 -0.1903  0.8378
 6205SOL     OW24585   0.735   4.711   0.076 -0.0453  0.2797 -0.1984
 6205SOL    HW224586   0.812   4.675   0.121  0.2924  0.0774 -0.9227
 6205SOL    HW324587   0.665   4.648   0.092  0.3335 -0.3039 -0.7842
 6205SOL    MW424588   0.736   4.698   0.084  0.0492  0.1760 -0.3712
 6206SOL     OW24589   5.926   4.945   0.992 -1.0635 -0.5372  0.3797
 6206SOL    HW224590   5.907   5.008   1.061 -0.9104 -0.7705  0.6353
 6206SOL    HW324591   5.988   4.990   0.935  1.6367 -1.5566  2.3034
 6206SOL    MW424592   5.932   4.959   0.993 -0.6871 -0.7025  0.6672
 6207SOL     OW24593   4.224   4.999   2.562 -0.2296 -0.2379 -0.0728
 6207SOL    HW224594   4.274   4.918   2.573  0.3476  0.2255  0.8606
 6207SOL    HW324595   4.227   5.016   2.468  3.0133  0.7452  0.0751
 6207SOL    MW424596   4.231   4.990   2.551  0.2744 -0.0471  0.0698
 6208SOL     OW24597   1.278   0.752   3.183 -0.2280 -0.6058 -0.2483
 6208SOL    HW224598   1.363   0.797   3.177  0.1064 -0.9654  1.4844
 6208SOL    HW324599   1.220   0.804   3.127  0.9874 -0.0393 -1.0345
 6208SOL    MW424600   1.282   0.765   3.175 -0.0235 -0.5785 -0.1234
 6209SOL     OW24601   2.350   6.130   6.261 -0.4015 -0.0829 -0.0041
 6209SOL    HW224602   2.419   6.106   6.323 -1.1704 -1.1869  0.4347
 6209SOL    HW324603   2.326   6.048   6.217 -0.3866  0.5487 -1.2516
 6209SOL    MW424604   2.356   6.116   6.263 -0.5010 -0.1452 -0.1108
 6210SOL     OW24605   5.559   3.040   3.117 -0.2646  0.2771  0.0376
 6210SOL    HW224606   5.619   2.988   3.063  1.2837  1.1258  0.8509
 6210SOL    HW324607   5.559   2.995   3.202 -0.0113  0.7969  0.3214
 6210SOL    MW424608   5.567   3.027   3.121 -0.0269  0.4576  0.1823
 6211SOL     OW24609   0.848   2.675   1.726  0.7218  0.1125  0.1697
 6211SOL    HW224610   0.819   2.766   1.735  0.5282  0.5680 -3.5039
 6211SOL    HW324611   0.929   2.681   1.676  1.2643 -1.7230  0.7567
 6211SOL    MW424612   0.855   2.688   1.721  0.7679 -0.0696 -0.2376
 6212SOL     OW24613   2.878   2.735   3.415 -0.0659  1.0819  0.1546
 6212SOL    HW224614   2.893   2.829   3.426  0.8241  0.8810  0.7744
 6212SOL    HW324615   2.903   2.717   3.324  2.1923  1.0358  0.7197
 6212SOL    MW424616   2.883   2.745   3.404  0.3495  1.0493  0.3109
 6213SOL     OW24617   4.824   1.710   2.892  0.0257 -0.7886  0.2954
 6213SOL    HW224618   4.898   1.653   2.913 -0.0707 -1.9957 -2.2362
 6213SOL    HW324619   4.772   1.712   2.973  0.9703 -2.8787  1.0397
 6213SOL    MW424620   4.827   1.702   2.905  0.1376 -1.2236  0.0596
 6214SOL     OW24621   6.163   6.327   4.227 -0.0171  0.0640  0.1872
 6214SOL    HW224622   6.156   6.289   4.139  0.5602  1.3693 -0.4523
 6214SOL    HW324623   6.132   6.258   4.285  0.7015 -1.2714 -0.9382
 6214SOL    MW424624   6.158   6.312   4.223  0.1538  0.0600 -0.0456
 6215SOL     OW24625   5.405   2.179   1.765 -0.2864  0.0110  0.1427
 6215SOL    HW224626   5.398   2.113   1.696 -1.7292  0.3594 -0.0653
 6215SOL    HW324627   5.424   2.129   1.844  0.1877 -0.4973 -0.2796
 6215SOL    MW424628   5.407   2.163   1.766 -0.4142 -0.0101  0.0596
 6216SOL     OW24629   1.463   0.547   2.139  0.0879 -0.4095  0.4803
 6216SOL    HW224630   1.513   0.530   2.219  0.2560  2.4419  1.0723
 6216SOL    HW324631   1.515   0.612   2.092 -2.5144  1.9609  0.6573
 6216SOL    MW424632   1.477   0.553   2.143 -0.2333  0.2794  0.5817
 6217SOL     OW24633   5.209   3.005   1.168  0.2871  0.2202  0.2788
 6217SOL    HW224634   5.129   2.959   1.193 -1.1469  2.0139 -0.7257
 6217SOL    HW324635   5.266   2.937   1.133 -0.5089 -1.2190  1.6681
 6217SOL    MW424636   5.206   2.990   1.166 -0.0071  0.2669  0.3296
 6218SOL     OW24637   6.219   3.408   3.616 -0.1156 -0.6394  0.5445
 6218SOL    HW224638   6.305   3.377   3.645 -0.4967 -2.1696  0.1641
 6218SOL    HW324639   6.166   3.410   3.696 -0.1578 -1.2640  0.5366
 6218SOL    MW424640   6.223   3.404   3.631 -0.1714 -0.9237  0.4932
 6219SOL     OW24641   6.170   5.800   1.214  0.4458 -0.8338  0.5930
 6219SOL    HW224642   6.131   5.805   1.126  1.0752 -0.9354  0.3040
 6219SOL    HW324643   6.204   5.887   1.231  0.4000 -0.8370  0.7040
 6219SOL    MW424644   6.169   5.812   1.205  0.5228 -0.8476  0.5696
 6220SOL     OW24645   1.371   0.712   2.665  0.5122  0.0638  0.3657
 6220SOL    HW224646   1.293   0.656   2.668 -0.8351  1.8407  0.1626
 6220SOL    HW324647   1.417   0.694   2.747 -0.1551 -0.9337  0.5377
 6220SOL    MW424648   1.367   0.702   2.676  0.2464  0.1666  0.3616
 6221SOL     OW24649   0.116   3.972   4.167  0.0488  0.1807 -0.0426
 6221SOL    HW224650   0.085   3.921   4.242 -0.0168  0.7633  0.3404
 6221SOL    HW324651   0.208   3.947   4.158  0.1195  0.2675  0.3837
 6221SOL    MW424652   0.124   3.962   4.176  0.0495  0.2690  0.0641
 6222SOL     OW24653   0.675   2.058   1.428  0.0391 -0.4405  0.1459
 6222SOL    HW224654   0.695   1.968   1.402  2.6392 -0.4547  1.8995
 6222SOL    HW324655   0.760   2.101   1.437 -0.6416  0.4707  5.0184
 6222SOL    MW424656   0.689   2.052   1.426  0.2923 -0.3222  1.0202
 6223SOL     OW24657   5.213   5.286   1.917  0.0745  0.2325 -0.1537
 6223SOL    HW224658   5.174   5.218   1.862 -0.5705 -0.1109  0.6906
 6223SOL    HW324659   5.140   5.343   1.940  0.2843  0.2486  0.5009
 6223SOL    MW424660   5.198   5.284   1.913  0.0171  0.1893  0.0441
 6224SOL     OW24661   1.171   5.656   0.149 -0.1103 -0.3990 -0.5333
 6224SOL    HW224662   1.222   5.578   0.171  1.1206  1.0474  2.2256
 6224SOL    HW324663   1.237   5.725   0.138 -1.2315  0.5366 -1.6657
 6224SOL    MW424664   1.187   5.655   0.150 -0.0959 -0.0848 -0.3187
 6225SOL     OW24665   3.601   2.199   4.174 -0.2500 -0.6339  0.0009
 6225SOL    HW224666   3.642   2.116   4.150  0.3592  0.0641 -1.5029
 6225SOL    HW324667   3.637   2.263   4.113 -1.1051  0.6546  0.7759
 6225SOL    MW424668   3.611   2.197   4.163 -0.2824 -0.3718 -0.0952
 6226SOL     OW24669   3.552   5.561   3.071 -0.6462 -0.2003  0.0926
 6226SOL    HW224670   3.592   5.474   3.074  1.8332  0.8774  0.7678
 6226SOL    HW324671   3.491   5.561   3.145 -0.0943 -1.1317  0.5763
 6226SOL    MW424672   3.549   5.549   3.081 -0.2462 -0.1810  0.2455
 6227SOL     OW24673   5.913   3.956   5.346 -0.2694  0.1135  0.4861
 6227SOL    HW224674   5.875   3.896   5.282  2.2138 -0.4578 -0.5355
 6227SOL    HW324675   6.005   3.931   5.353  0.6627  3.1267  0.7928
 6227SOL    MW424676   5.920   3.945   5.339  0.1812  0.4357  0.3918
 6228SOL     OW24677   1.998   1.856   2.167  0.1304 -0.1273  0.4861
 6228SOL    HW224678   2.061   1.853   2.240  1.4812  0.0384 -0.6299
 6228SOL    HW324679   2.049   1.890   2.094 -1.4567  0.6386 -0.2994
 6228SOL    MW424680   2.013   1.860   2.167  0.0993 -0.0044  0.2352
 6229SOL     OW24681   1.171   3.018   2.994 -0.5663  0.5870 -0.3984
 6229SOL    HW224682   1.127   3.087   3.043 -1.6677  0.5964 -1.3803
 6229SOL    HW324683   1.119   2.939   3.010 -0.9449  0.5917 -1.5487
 6229SOL    MW424684   1.158   3.016   3.002 -0.7615  0.5889 -0.6797
 6230SOL     OW24685   5.701   1.378   1.056 -0.4055 -0.2632  0.0381
 6230SOL    HW224686   5.710   1.473   1.051 -0.9228 -0.2543 -0.9191
 6230SOL    HW324687   5.789   1.346   1.077 -0.2091  0.4094  0.2642
 6230SOL    MW424688   5.714   1.386   1.058 -0.4479 -0.1733 -0.0584
 6231SOL     OW24689   3.456   0.834   4.568  0.9514  0.0936 -0.5444
 6231SOL    HW224690   3.373   0.862   4.529  0.4668  0.0890  0.4553
 6231SOL    HW324691   3.513   0.910   4.561  0.1551  0.8323  0.7132
 6231SOL    MW424692   3.453   0.848   4.562  0.7824  0.1905 -0.2465
 6232SOL     OW24693   5.429   3.927   5.000 -0.1162 -0.0416  0.4805
 6232SOL    HW224694   5.383   3.982   4.937 -0.9716 -0.1254  1.0224
 6232SOL    HW324695   5.367   3.914   5.071 -0.2727 -2.4104 -0.0104
 6232SOL    MW424696   5.415   3.932   5.001 -0.2497 -0.3652  0.4872
 6233SOL     OW24697   5.621   3.459   4.734 -0.3029  0.2174 -0.4973
 6233SOL    HW224698   5.558   3.446   4.663 -0.7372 -1.6886  0.1788
 6233SOL    HW324699   5.704   3.474   4.690 -0.9208  1.1894 -1.3884
 6233SOL    MW424700   5.624   3.459   4.719 -0.4417  0.0941 -0.5257
 6234SOL     OW24701   0.870   3.545   1.467 -0.0289  0.1153 -0.4959
 6234SOL    HW224702   0.860   3.504   1.553  4.1837 -0.0663  0.1563
 6234SOL    HW324703   0.910   3.630   1.485 -1.5613  1.2936 -2.2228
 6234SOL    MW424704   0.874   3.551   1.480  0.3247  0.2468 -0.6377
 6235SOL     OW24705   3.393   2.358   3.271 -0.1129  0.0715 -0.0623
 6235SOL    HW224706   3.398   2.358   3.175  0.7589 -1.7957 -0.0553
 6235SOL    HW324707   3.314   2.308   3.291  0.6263 -1.0361  0.1806
 6235SOL    MW424708   3.384   2.351   3.261  0.0996 -0.3210 -0.0294
 6236SOL     OW24709   5.716   1.796   1.205 -0.1665  0.6982  0.5209
 6236SOL    HW224710   5.714   1.890   1.187 -1.9105  0.3777 -1.2842
 6236SOL    HW324711   5.625   1.769   1.203  0.3120 -1.0718  0.8774
 6236SOL    MW424712   5.704   1.805   1.202 -0.3335  0.4224  0.3298
 6237SOL     OW24713   0.576   3.655   3.482 -0.0578  0.1478  0.1155
 6237SOL    HW224714   0.520   3.639   3.557  0.4508  1.3741  0.7959
 6237SOL    HW324715   0.539   3.733   3.440  1.8992  1.9310  1.4534
 6237SOL    MW424716   0.564   3.663   3.486  0.2675  0.5449  0.3818
 6238SOL     OW24717   0.167   4.593   5.159 -0.2306  0.2970 -0.2446
 6238SOL    HW224718   0.143   4.502   5.174  0.6996  0.1251  0.2433
 6238SOL    HW324719   0.196   4.597   5.068 -1.3101  0.3437 -0.5989
 6238SOL    MW424720   0.167   4.582   5.149 -0.2503  0.2805 -0.2270
 6239SOL     OW24721   1.272   2.020   2.312 -0.0839  0.0661  0.1909
 6239SOL    HW224722   1.260   2.042   2.404  0.4037  1.1939 -0.0011
 6239SOL    HW324723   1.191   1.974   2.287 -1.2205  1.7362  0.6040
 6239SOL    MW424724   1.259   2.017   2.321 -0.1695  0.4353  0.2200
 6240SOL     OW24725   3.028   5.984   4.121  0.6391  0.2066  0.1389
 6240SOL    HW224726   3.073   6.010   4.040 -0.2277 -0.9965 -0.7686
 6240SOL    HW324727   3.095   5.987   4.188  1.0999  2.5461 -0.3261
 6240SOL    MW424728   3.043   5.988   4.119  0.5855  0.3565 -0.0421
 6241SOL     OW24729   3.846   5.227   0.346  0.1008 -0.8972  0.4693
 6241SOL    HW224730   3.793   5.174   0.407 -1.4003 -0.5911 -0.5055
 6241SOL    HW324731   3.928   5.243   0.393 -0.7549 -1.2080  2.1519
 6241SOL    MW424732   3.850   5.222   0.360 -0.2102 -0.8978  0.5627
 6242SOL     OW24733   5.255   3.638   4.882  0.3083  0.7129  0.0581
 6242SOL    HW224734   5.342   3.644   4.922 -0.5146 -1.7414  2.4984
 6242SOL    HW324735   5.258   3.556   4.832 -0.2075  1.3073 -0.9767
 6242SOL    MW424736   5.267   3.628   4.880  0.1316  0.4675  0.2435
 6243SOL     OW24737   4.558   5.980   2.017 -0.2402  0.4465  0.3427
 6243SOL    HW224738   4.606   5.899   2.028  0.4868  0.9819  1.2382
 6243SOL    HW324739   4.506   5.989   2.097 -0.4641  0.7702  0.1659
 6243SOL    MW424740   4.557   5.971   2.029 -0.1738  0.5599  0.4375
 6244SOL     OW24741   2.162   5.047   5.112  0.0124 -0.1927 -0.4812
 6244SOL    HW224742   2.167   5.143   5.109  0.5829 -0.1851  0.4780
 6244SOL    HW324743   2.131   5.027   5.200  0.5836 -0.9137 -0.4368
 6244SOL    MW424744   2.159   5.057   5.123  0.1630 -0.2868 -0.3488
 6245SOL     OW24745   5.002   4.811   2.350  0.2279  0.1530 -0.1392
 6245SOL    HW224746   5.083   4.859   2.337 -0.2855  0.7974 -1.0326
 6245SOL    HW324747   4.939   4.853   2.291 -0.1799 -1.7555 -1.1551
 6245SOL    MW424748   5.004   4.822   2.341  0.1064 -0.0138 -0.3911
 6246SOL     OW24749   5.204   0.569   3.994 -0.1320  0.0688  0.3676
 6246SOL    HW224750   5.275   0.626   3.965 -0.8772 -0.1260 -2.0074
 6246SOL    HW324751   5.130   0.590   3.936 -0.8928 -2.2386  0.3978
 6246SOL    MW424752   5.203   0.580   3.983 -0.3307 -0.2613  0.0582
 6247SOL     OW24753   5.651   1.291   2.869  0.3509 -0.1803  0.0770
 6247SOL    HW224754   5.621   1.354   2.934 -0.7181 -0.3217 -0.2498
 6247SOL    HW324755   5.659   1.341   2.788 -0.5836 -0.4581 -0.2036
 6247SOL    MW424756   5.648   1.306   2.867  0.0866 -0.2356 -0.0032
 6248SOL     OW24757   2.806   0.938   0.838 -0.2277  0.2397  0.3433
 6248SOL    HW224758   2.853   0.857   0.853  0.9799  0.9245  0.3687
 6248SOL    HW324759   2.794   0.976   0.925  0.9465  1.0149  0.1897
 6248SOL    MW424760   2.810   0.933   0.851  0.0866  0.4323  0.3264
 6249SOL     OW24761   0.136   0.615   2.661 -0.2228  0.0045  0.2586
 6249SOL    HW224762   0.113   0.548   2.726  0.8150  2.1945  3.1264
 6249SOL    HW324763   0.092   0.694   2.692  2.1075  1.6556 -0.3660
 6249SOL    MW424764   0.127   0.616   2.674  0.2216  0.5113  0.5546
 6250SOL     OW24765   2.250   1.693   2.524 -0.0010  0.4129 -0.0597
 6250SOL    HW224766   2.277   1.703   2.616  1.8711 -0.4981 -0.4631
 6250SOL    HW324767   2.312   1.630   2.488 -2.3002 -1.3052 -1.3165
 6250SOL    MW424768   2.262   1.686   2.532 -0.0574  0.0660 -0.2787
 6251SOL     OW24769   3.501   1.812   0.985  0.5064 -0.2941  0.1874
 6251SOL    HW224770   3.421   1.858   1.011  1.1329 -0.2195  2.1550
 6251SOL    HW324771   3.495   1.804   0.890 -1.4957  0.3347  0.2237
 6251SOL    MW424772   3.489   1.817   0.976  0.3249 -0.2013  0.4518
 6252SOL     OW24773   2.037   2.266   6.281 -0.1589 -0.3420 -0.2657
 6252SOL    HW224774   1.946   2.238   6.285  0.1781 -1.4924 -0.3096
 6252SOL    HW324775   2.084   2.191   6.245  1.1769 -0.7580  2.1106
 6252SOL    MW424776   2.031   2.253   6.277  0.0618 -0.5486  0.0421
 6253SOL     OW24777   4.665   5.962   2.536 -0.3939 -0.2512  0.1731
 6253SOL    HW224778   4.753   5.974   2.574  0.2022  0.2985 -1.2963
 6253SOL    HW324779   4.643   5.870   2.555  0.7223 -0.5460  0.1186
 6253SOL    MW424780   4.674   5.951   2.544 -0.1679 -0.2176 -0.0280
 6254SOL     OW24781   3.250   5.418   3.354 -0.4403 -0.3819 -0.4998
 6254SOL    HW224782   3.171   5.433   3.405  0.0882  1.7178 -0.1992
 6254SOL    HW324783   3.305   5.363   3.409 -0.8086 -0.0280  0.2285
 6254SOL    MW424784   3.247   5.413   3.368 -0.4191 -0.0582 -0.3640
 6255SOL     OW24785   4.079   2.516   4.260 -0.4732  0.1959  0.9030
 6255SOL    HW224786   4.022   2.588   4.233  0.7623  0.8218 -0.1263
 6255SOL    HW324787   4.089   2.528   4.355 -0.0576  1.5862  0.7123
 6255SOL    MW424788   4.073   2.527   4.269 -0.2553  0.4619  0.7421
 6256SOL     OW24789   1.296   1.380   1.754  0.0215  0.1323  0.3892
 6256SOL    HW224790   1.216   1.378   1.703  0.4920 -0.0434 -0.3469
 6256SOL    HW324791   1.304   1.471   1.783 -0.6429  0.0678  0.8055
 6256SOL    MW424792   1.286   1.392   1.751 -0.0040  0.1006  0.3470
 6257SOL     OW24793   0.109   2.524   4.284  0.3792 -0.1332  0.5968
 6257SOL    HW224794   0.115   2.615   4.313 -1.1010 -0.0243  0.6425
 6257SOL    HW324795   0.071   2.477   4.358 -1.2945 -0.2719 -0.2905
 6257SOL    MW424796   0.105   2.530   4.297 -0.0369 -0.1372  0.4858
 6258SOL     OW24797   2.612   1.909   2.608 -0.8669  0.4908 -0.4889
 6258SOL    HW224798   2.526   1.948   2.619 -0.6965  1.1541 -1.3255
 6258SOL    HW324799   2.667   1.952   2.673 -0.8352  1.1763 -0.9601
 6258SOL    MW424800   2.608   1.920   2.618 -0.8402  0.6688 -0.6615
 6259SOL     OW24801   3.229   1.900   1.070 -0.5075  0.2147  0.2205
 6259SOL    HW224802   3.178   1.853   1.005 -1.0092  1.0114  0.0227
 6259SOL    HW324803   3.191   1.988   1.071  0.7418  0.7754  0.1885
 6259SOL    MW424804   3.217   1.906   1.061 -0.4089  0.3938  0.1902
 6260SOL     OW24805   1.531   5.842   5.569 -0.9813 -0.4620  0.2998
 6260SOL    HW224806   1.465   5.849   5.637  0.8485  1.1211  2.0333
 6260SOL    HW324807   1.495   5.891   5.495 -1.7606  0.3990  1.2221
 6260SOL    MW424808   1.518   5.849   5.568 -0.8427 -0.1395  0.6502
 6261SOL     OW24809   2.501   2.721   1.470  0.2564 -0.0907 -0.0109
 6261SOL    HW224810   2.592   2.740   1.491 -0.1644  1.3975  0.5881
 6261SOL    HW324811   2.502   2.693   1.378  1.3108 -0.1715  0.0238
 6261SOL    MW424812   2.513   2.720   1.460  0.3400  0.0950  0.0727
 6262SOL     OW24813   2.101   1.362   4.883 -0.4042  0.5446 -0.5812
 6262SOL    HW224814   2.151   1.363   4.802 -1.8240 -0.4001 -1.5076
 6262SOL    HW324815   2.163   1.393   4.950  1.1533  0.1963 -1.8069
 6262SOL    MW424816   2.116   1.366   4.881 -0.3860  0.3740 -0.8651
 6263SOL     OW24817   5.926   1.725   3.827  0.6969 -0.4639  0.5328
 6263SOL    HW224818   5.853   1.665   3.812  0.1331  0.7062 -1.7749
 6263SOL    HW324819   5.998   1.689   3.775  0.3918  0.7407 -0.7722
 6263SOL    MW424820   5.926   1.712   3.818  0.5823 -0.1506  0.0561
 6264SOL     OW24821   3.680   6.316   3.203 -0.3880  0.2709  0.4190
 6264SOL    HW224822   3.745   6.385   3.188  1.3096 -1.5088 -1.0336
 6264SOL    HW324823   3.630   6.312   3.122  1.0840 -1.6765 -0.4614
 6264SOL    MW424824   3.682   6.325   3.191  0.0302 -0.2208  0.1112
 6265SOL     OW24825   2.522   4.231   1.994 -0.0626  0.3387 -0.2460
 6265SOL    HW224826   2.501   4.220   1.902  0.1402  1.7625 -0.4777
 6265SOL    HW324827   2.599   4.176   2.008 -0.6617 -0.6475 -0.6723
 6265SOL    MW424828   2.529   4.222   1.984 -0.1149  0.3965 -0.3328
 6266SOL     OW24829   3.373   5.333   1.028  0.0692 -0.7321 -0.2103
 6266SOL    HW224830   3.294   5.283   1.007 -0.2203 -0.5890  0.5057
 6266SOL    HW324831   3.438   5.266   1.050 -0.5696 -0.8088  1.6196
 6266SOL    MW424832   3.371   5.318   1.029 -0.0533 -0.7234  0.1256
 6267SOL     OW24833   5.656   1.182   1.970 -0.3917 -0.1192 -0.3744
 6267SOL    HW224834   5.688   1.194   1.881 -0.7911  0.1397 -0.4873
 6267SOL    HW324835   5.659   1.087   1.985  1.0948 -0.0549 -0.1199
 6267SOL    MW424836   5.660   1.171   1.961 -0.2483 -0.0766 -0.3557
 6268SOL     OW24837   6.307   5.609   1.897  0.6475  0.2308 -0.2267
 6268SOL    HW224838   6.360   5.560   1.834  0.0226  1.8675 -2.1251
 6268SOL    HW324839   6.368   5.628   1.969  1.7534 -0.6117 -0.9009
 6268SOL    MW424840   6.322   5.605   1.898  0.7109  0.3356 -0.5661
 6269SOL     OW24841   1.400   1.927   5.267  0.1659  0.3810  0.2610
 6269SOL    HW224842   1.470   1.968   5.318 -0.7950  1.0916  1.0556
 6269SOL    HW324843   1.382   1.845   5.313 -1.9636  1.8530  2.2881
 6269SOL    MW424844   1.407   1.922   5.280 -0.2418  0.6690  0.6333
 6270SOL     OW24845   3.531   3.009   6.335 -0.4769  0.1087 -0.1230
 6270SOL    HW224846   3.482   3.050   6.264  0.4624  0.1389 -0.7689
 6270SOL    HW324847   3.621   3.005   6.303  0.1296  0.8775  1.3725
 6270SOL    MW424848   3.537   3.014   6.322 -0.2729  0.2141 -0.0109
 6271SOL     OW24849   0.241   3.565   4.478  0.2962 -0.3519  0.0976
 6271SOL    HW224850   0.210   3.491   4.530 -2.8464  0.4103 -0.4928
 6271SOL    HW324851   0.272   3.629   4.542  1.8580 -1.6004  0.6632
 6271SOL    MW424852   0.241   3.564   4.493  0.0877 -0.4161  0.0943
 6272SOL     OW24853   4.498   4.124   0.114 -0.4404  0.5416 -0.0553
 6272SOL    HW224854   4.410   4.088   0.103 -0.7455  1.5462 -1.1125
 6272SOL    HW324855   4.557   4.055   0.085 -0.9078  0.0714  0.1078
 6272SOL    MW424856   4.494   4.110   0.109 -0.5423  0.6121 -0.1733
 6273SOL     OW24857   1.280   5.424   3.967 -0.4562 -0.3454  0.0106
 6273SOL    HW224858   1.295   5.329   3.965 -0.4496 -0.3364 -0.5305
 6273SOL    HW324859   1.185   5.433   3.971 -0.4982 -0.3744 -0.7514
 6273SOL    MW424860   1.270   5.413   3.967 -0.4609 -0.3480 -0.1613
 6274SOL     OW24861   3.724   2.372   1.708 -0.3666  0.1661 -0.2346
 6274SOL    HW224862   3.721   2.369   1.803 -0.7702 -0.5024 -0.2576
 6274SOL    HW324863   3.726   2.465   1.686  4.1188  0.4704  0.5301
 6274SOL    MW424864   3.724   2.384   1.718  0.1719  0.1180 -0.1367
 6275SOL     OW24865   4.553   3.358   3.047  0.2828 -0.1477 -0.3884
 6275SOL    HW224866   4.607   3.436   3.030 -0.5263  0.7591  0.9310
 6275SOL    HW324867   4.616   3.290   3.069  0.9649  0.5483 -0.1126
 6275SOL    MW424868   4.568   3.359   3.048  0.2660  0.0638 -0.1779
 6276SOL     OW24869   4.633   6.315   0.508 -0.3835 -0.4577  0.1599
 6276SOL    HW224870   4.550   6.281   0.474 -0.1310 -0.1270 -0.8162
 6276SOL    HW324871   4.692   6.239   0.506 -0.6754 -0.7142  0.9351
 6276SOL    MW424872   4.630   6.300   0.503 -0.3887 -0.4479  0.1334
 6277SOL     OW24873   4.453   2.954   3.083 -0.2315 -0.0810  0.4277
 6277SOL    HW224874   4.394   3.002   3.140 -0.3719  0.3668 -0.0780
 6277SOL    HW324875   4.539   2.994   3.098 -0.4727  0.8540 -0.5246
 6277SOL    MW424876   4.457   2.966   3.092 -0.2819  0.1015  0.2353
 6278SOL     OW24877   0.606   3.399   5.195  0.3600 -0.1050 -0.1404
 6278SOL    HW224878   0.575   3.489   5.199  0.2903 -0.0824 -0.9511
 6278SOL    HW324879   0.548   3.350   5.254  0.7456  0.4620  0.7312
 6278SOL    MW424880   0.594   3.404   5.203  0.4017 -0.0272 -0.1324
 6279SOL     OW24881   0.857   0.424   3.702 -0.2390 -0.1061  0.5118
 6279SOL    HW224882   0.947   0.440   3.732  0.0130  0.3915 -0.4740
 6279SOL    HW324883   0.855   0.331   3.683  0.6134  0.1652 -1.1211
 6279SOL    MW424884   0.869   0.414   3.704 -0.0933 -0.0046  0.1663
 6280SOL     OW24885   2.091   3.253   3.022  0.6356  0.7541 -0.1815
 6280SOL    HW224886   2.164   3.264   2.961 -0.0486  0.2782 -1.1112
 6280SOL    HW324887   2.048   3.338   3.024  0.4178  0.6636 -0.7060
 6280SOL    MW424888   2.095   3.265   3.014  0.5166  0.6794 -0.3733
 6281SOL     OW24889   5.022   1.382   4.352 -0.6721  0.0539  0.0953
 6281SOL    HW224890   5.043   1.319   4.284 -1.5002 -3.4494  2.8216
 6281SOL    HW324891   4.927   1.374   4.364 -0.4372 -0.1494  2.2370
 6281SOL    MW424892   5.012   1.373   4.344 -0.7504 -0.4352  0.7376
 6282SOL     OW24893   2.547   2.088   1.783  0.0636 -0.0184  0.5400
 6282SOL    HW224894   2.586   2.005   1.756 -0.1718 -0.2973  1.0362
 6282SOL    HW324895   2.586   2.153   1.726  0.6741 -0.4006  0.5191
 6282SOL    MW424896   2.557   2.086   1.772  0.1131 -0.1056  0.6027
 6283SOL     OW24897   6.161   4.490   0.148  0.2324  0.6971  0.3265
 6283SOL    HW224898   6.164   4.581   0.178  1.6629  0.5066  0.8645
 6283SOL    HW324899   6.071   4.476   0.121  0.1099  2.4392 -0.2839
 6283SOL    MW424900   6.150   4.500   0.148  0.4050  0.9018  0.3170
 6284SOL     OW24901   1.823   3.723   0.946 -0.3359  0.0305 -0.6442
 6284SOL    HW224902   1.861   3.642   0.913 -1.4798 -0.8612  0.1512
 6284SOL    HW324903   1.856   3.791   0.887  0.0366 -1.1016 -1.7801
 6284SOL    MW424904   1.832   3.721   0.934 -0.4377 -0.2365 -0.6891
 6285SOL     OW24905   5.123   5.996   2.713  0.5261 -0.2864  0.2472
 6285SOL    HW224906   5.031   5.978   2.729  0.1137  1.7010  0.4441
 6285SOL    HW324907   5.164   5.993   2.799  0.6173 -0.9786  0.1832
 6285SOL    MW424908   5.116   5.993   2.726  0.4837 -0.1155  0.2647
 6286SOL     OW24909   3.815   4.536   0.781  0.4774 -0.8001  0.2763
 6286SOL    HW224910   3.906   4.528   0.754  0.4391 -0.8151  0.1508
 6286SOL    HW324911   3.818   4.539   0.877  0.5588 -1.4520  0.2985
 6286SOL    MW424912   3.827   4.536   0.790  0.4831 -0.8881  0.2627
 6287SOL     OW24913   2.580   3.814   4.672 -0.7378 -0.6222  0.1315
 6287SOL    HW224914   2.576   3.805   4.576  2.0848  0.5975 -0.1719
 6287SOL    HW324915   2.580   3.724   4.704 -1.3230 -1.0535 -1.0145
 6287SOL    MW424916   2.579   3.801   4.663 -0.4426 -0.5182 -0.0597
 6288SOL     OW24917   0.444   3.926   4.844 -0.1074 -0.1547 -0.0086
 6288SOL    HW224918   0.374   3.984   4.875  0.2084  0.5287 -0.5356
 6288SOL    HW324919   0.430   3.844   4.892 -1.2482 -0.0240 -0.0822
 6288SOL    MW424920   0.433   3.923   4.855 -0.2163 -0.0473 -0.0879
 6289SOL     OW24921   2.947   5.456   1.088  0.0677  0.4121 -0.7431
 6289SOL    HW224922   2.921   5.526   1.147 -0.6954 -0.3272 -0.1701
 6289SOL    HW324923   2.878   5.453   1.021 -0.9220 -0.9637  0.2738
 6289SOL    MW424924   2.934   5.465   1.087 -0.1636  0.1331 -0.5333
 6290SOL     OW24925   3.344   5.273   1.452  0.2514 -0.1720 -0.1869
 6290SOL    HW224926   3.301   5.328   1.386  2.3513  0.0289 -1.4821
 6290SOL    HW324927   3.372   5.195   1.404  0.2875 -0.8245  0.8711
 6290SOL    MW424928   3.342   5.270   1.437  0.5332 -0.2316 -0.2182
 6291SOL     OW24929   0.984   0.614   1.826  0.2091  0.6518  0.3277
 6291SOL    HW224930   1.079   0.617   1.840  0.1736 -0.8827  1.0637
 6291SOL    HW324931   0.952   0.696   1.864  1.2073  1.1001  0.2436
 6291SOL    MW424932   0.992   0.625   1.833  0.3361  0.5085  0.4137
 6292SOL     OW24933   4.078   1.265   4.795  0.5759  0.7363 -0.0650
 6292SOL    HW224934   4.136   1.315   4.738  1.3385 -1.2794 -1.1441
 6292SOL    HW324935   4.128   1.253   4.876  0.9659  0.5334 -0.3328
 6292SOL    MW424936   4.092   1.270   4.798  0.7280  0.4435 -0.2427
 6293SOL     OW24937   4.360   0.643   2.632  0.2812 -0.7240  0.2447
 6293SOL    HW224938   4.412   0.654   2.711  1.4203  0.2852 -0.5950
 6293SOL    HW324939   4.417   0.673   2.561 -1.0630 -0.6112 -0.8480
 6293SOL    MW424940   4.374   0.648   2.633  0.2541 -0.5760 -0.0102
 6294SOL     OW24941   2.696   1.295   1.888  0.0796 -0.3450 -0.4703
 6294SOL    HW224942   2.648   1.226   1.843  0.2426 -0.0940 -1.0291
 6294SOL    HW324943   2.767   1.318   1.828  2.6222 -2.5883  1.4051
 6294SOL    MW424944   2.699   1.289   1.874  0.4366 -0.6079 -0.2966
 6295SOL     OW24945   3.948   4.885   5.942  0.3875  0.4448  0.0647
 6295SOL    HW224946   3.953   4.960   5.883  0.2926  0.8936  0.6195
 6295SOL    HW324947   3.932   4.923   6.028 -1.6375 -0.3117  0.0678
 6295SOL    MW424948   3.947   4.899   5.946  0.1078  0.4042  0.1383
 6296SOL     OW24949   4.051   5.391   4.329 -0.0798 -0.2741  0.2685
 6296SOL    HW224950   4.003   5.373   4.410 -1.9428  0.0245 -0.7324
 6296SOL    HW324951   4.141   5.364   4.349 -0.6454 -0.9308  2.1744
 6296SOL    MW424952   4.056   5.385   4.342 -0.4002 -0.3214  0.3879
 6297SOL     OW24953   5.316   2.932   2.322 -0.0198 -0.1913  0.1885
 6297SOL    HW224954   5.380   2.897   2.385  2.7252  0.2377 -2.1683
 6297SOL    HW324955   5.291   2.857   2.269 -1.8298 -0.4223  1.3036
 6297SOL    MW424956   5.321   2.918   2.324  0.1036 -0.1652  0.0247
 6298SOL     OW24957   1.134   3.630   0.886 -0.7419 -0.2492 -0.1481
 6298SOL    HW224958   1.128   3.572   0.810 -0.2136  0.6262 -0.8746
 6298SOL    HW324959   1.052   3.680   0.883 -1.1867 -0.9293  0.4644
 6298SOL    MW424960   1.122   3.629   0.875 -0.7308 -0.2234 -0.1631
 6299SOL     OW24961   5.479   0.317   1.202  0.3552 -0.0084 -0.3008
 6299SOL    HW224962   5.427   0.262   1.143  1.0449 -0.3794 -0.5751
 6299SOL    HW324963   5.554   0.262   1.226  0.7032  0.5738 -0.0407
 6299SOL    MW424964   5.482   0.302   1.197  0.4921  0.0195 -0.3027
 6300SOL     OW24965   5.647   5.836   5.006  0.5508  0.3635 -0.4058
 6300SOL    HW224966   5.681   5.808   5.091 -1.0644 -0.5810 -0.0343
 6300SOL    HW324967   5.679   5.925   4.996  0.5396  0.6067  1.3442
 6300SOL    MW424968   5.656   5.844   5.016  0.3362  0.2710 -0.1259
 6301SOL     OW24969   5.641   5.284   1.995  0.4683 -0.0167 -0.4648
 6301SOL    HW224970   5.735   5.296   2.013  0.7034  0.1803 -1.6917
 6301SOL    HW324971   5.610   5.372   1.975  0.1965 -0.1978 -0.8312
 6301SOL    MW424972   5.649   5.297   1.995  0.4634 -0.0146 -0.6751
 6302SOL     OW24973   3.176   4.743   2.905 -0.4723 -0.0297 -0.1001
 6302SOL    HW224974   3.148   4.835   2.907  1.1645  0.5221 -0.6788
 6302SOL    HW324975   3.122   4.703   2.838 -1.8239  0.2747  0.7751
 6302SOL    MW424976   3.166   4.750   2.897 -0.4347  0.0832 -0.0609
 6303SOL     OW24977   1.076   4.690   0.979 -0.3100 -0.0383 -0.4869
 6303SOL    HW224978   0.989   4.692   0.939 -1.1218 -0.4881  1.1925
 6303SOL    HW324979   1.073   4.758   1.047  1.0174  0.6630 -1.0906
 6303SOL    MW424980   1.064   4.700   0.983 -0.2420 -0.0051 -0.3450
 6304SOL     OW24981   1.034   1.710   1.893  0.1749 -0.8104  0.5095
 6304SOL    HW224982   0.952   1.680   1.854  0.6315 -0.6197 -0.6451
 6304SOL    HW324983   1.068   1.634   1.939 -0.3065 -1.0969  0.3992
 6304SOL    MW424984   1.028   1.696   1.894  0.1716 -0.8230  0.3426
 6305SOL     OW24985   4.006   1.339   5.709  1.0363 -0.5069 -0.2562
 6305SOL    HW224986   4.019   1.363   5.801 -0.9922 -0.2315  0.0073
 6305SOL    HW324987   3.934   1.395   5.680 -0.0969 -2.4081 -1.2571
 6305SOL    MW424988   3.998   1.350   5.717  0.6191 -0.7214 -0.3535
 6306SOL     OW24989   5.448   2.861   2.011 -0.1749 -0.0619 -0.3049
 6306SOL    HW224990   5.363   2.902   2.000  0.1402  1.3547  1.9042
 6306SOL    HW324991   5.436   2.801   2.085  0.8217  0.4713  0.3084
 6306SOL    MW424992   5.435   2.859   2.019 -0.0019  0.1954  0.0675
 6307SOL     OW24993   0.815   1.570   2.574  0.5742 -0.1265  0.7716
 6307SOL    HW224994   0.730   1.549   2.611  1.3179 -1.7199  1.6746
 6307SOL    HW324995   0.798   1.642   2.513 -1.4423 -0.5920  0.7264
 6307SOL    MW424996   0.802   1.577   2.571  0.4063 -0.3981  0.8848
 6308SOL     OW24997   4.477   5.193   5.695 -0.2547 -0.2730 -0.0899
 6308SOL    HW224998   4.537   5.145   5.638 -1.3658 -1.0776 -0.6054
 6308SOL    HW324999   4.421   5.126   5.733 -0.5571  0.4264  0.7325
 6308SOL    MW425000   4.478   5.178   5.693 -0.4412 -0.2869 -0.0494
 6309SOL     OW25001   4.771   3.359   4.066 -0.1223 -0.0266 -0.0674
 6309SOL    HW225002   4.841   3.424   4.070 -1.5124  2.0422 -3.8474
 6309SOL    HW325003   4.748   3.343   4.157  2.3060  2.5160  1.1546
 6309SOL    MW425004   4.777   3.365   4.078  0.0147  0.5818 -0.4049
 6310SOL     OW25005   5.042   2.719   0.984 -0.3352  0.1462 -0.7522
 6310SOL    HW225006   4.969   2.779   0.998 -0.4078  0.3337 -1.8403
 6310SOL    HW325007   5.015   2.665   0.910  0.9024  0.7047 -1.6532
 6310SOL    MW425008   5.029   2.720   0.977 -0.1815  0.2446 -1.0146
 6311SOL     OW25009   5.844   0.425   4.057 -0.0478  0.4451  0.5935
 6311SOL    HW225010   5.860   0.370   3.980  0.4188  1.3922 -0.0052
 6311SOL    HW325011   5.878   0.373   4.130  0.9062  0.1555 -0.0277
 6311SOL    MW425012   5.851   0.411   4.056  0.1396  0.5318  0.4325
 6312SOL     OW25013   5.718   2.506   6.282  0.0839 -0.0271 -0.0279
 6312SOL    HW225014   5.703   2.538   6.193 -0.1314 -1.4998 -0.5510
 6312SOL    HW325015   5.681   2.574   6.338 -3.2700 -0.7522 -1.1384
 6312SOL    MW425016   5.711   2.520   6.277 -0.3870 -0.3171 -0.2435
 6313SOL     OW25017   4.412   0.522   4.844 -0.0777  0.6037 -0.0505
 6313SOL    HW225018   4.486   0.551   4.897  1.8442 -2.2983 -0.9003
 6313SOL    HW325019   4.386   0.600   4.795  1.3681  2.1133  1.4456
 6313SOL    MW425020   4.418   0.536   4.844  0.3666  0.4200  0.0348
 6314SOL     OW25021   0.995   1.869   4.211  0.4802  0.6563 -0.0158
 6314SOL    HW225022   1.011   1.803   4.279  1.0752  2.3799  1.6076
 6314SOL    HW325023   1.065   1.855   4.147  1.0026  0.1567  0.6569
 6314SOL    MW425024   1.006   1.858   4.212  0.6276  0.8178  0.2871
 6315SOL     OW25025   4.174   2.182   4.732 -0.5073 -0.7510  0.6500
 6315SOL    HW225026   4.148   2.253   4.791  1.6803  1.3315 -0.6858
 6315SOL    HW325027   4.233   2.127   4.784  0.4583  0.3904  0.8052
 6315SOL    MW425028   4.178   2.184   4.746 -0.0913 -0.3256  0.4943
 6316SOL     OW25029   3.289   3.894   4.583  0.4324  0.3930 -0.0626
 6316SOL    HW225030   3.300   3.933   4.496 -2.1187  3.4564  0.7537
 6316SOL    HW325031   3.243   3.812   4.567 -3.3271  2.5118 -1.7020
 6316SOL    MW425032   3.284   3.889   4.569 -0.4002  1.0768 -0.1712
 6317SOL     OW25033   3.018   0.575   2.551 -1.1611  0.5165 -0.4186
 6317SOL    HW225034   3.088   0.584   2.487  1.8201  1.7906  2.6844
 6317SOL    HW325035   2.980   0.489   2.535 -0.0282  0.4668 -3.2675
 6317SOL    MW425036   3.022   0.565   2.541 -0.6183  0.6780 -0.3851
 6318SOL     OW25037   0.979   4.028   5.709 -0.6555  0.3124  0.3999
 6318SOL    HW225038   0.944   3.939   5.714 -0.5510  0.3060  1.2190
 6318SOL    HW325039   1.054   4.022   5.651 -1.0329 -0.0037 -0.0624
 6318SOL    MW425040   0.984   4.015   5.702 -0.6915  0.2699  0.4470
 6319SOL     OW25041   4.761   6.020   2.993  0.0049  0.1715  0.0318
 6319SOL    HW225042   4.840   6.021   3.048 -0.3470  0.8478  0.5432
 6319SOL    HW325043   4.729   6.111   2.996 -1.0738 -0.1993  0.2452
 6319SOL    MW425044   4.767   6.032   3.001 -0.1838  0.2118  0.1274
 6320SOL     OW25045   1.368   5.873   0.076  0.1069  0.0650  0.0368
 6320SOL    HW225046   1.368   5.822  -0.005  2.6533 -1.1097  0.6774
 6320SOL    HW325047   1.301   5.940   0.062 -1.2594 -1.5784 -2.0403
 6320SOL    MW425048   1.359   5.875   0.064  0.2626 -0.3068 -0.1528
 6321SOL     OW25049   1.081   4.226   1.702 -0.0220  0.2940  0.6797
 6321SOL    HW225050   1.117   4.169   1.634 -0.0547  2.4625 -1.2348
 6321SOL    HW325051   0.994   4.191   1.718  0.7735 -1.5659  1.2625
 6321SOL    MW425052   1.074   4.214   1.695  0.0787  0.3347  0.5040
 6322SOL     OW25053   5.685   0.804   0.674  0.7048  0.6267  0.4073
 6322SOL    HW225054   5.719   0.816   0.762  1.8574 -0.7635  0.1741
 6322SOL    HW325055   5.757   0.830   0.616  0.1685  0.9577 -0.1279
 6322SOL    MW425056   5.699   0.809   0.678  0.7861  0.4870  0.3059
 6323SOL     OW25057   1.780   1.429   2.679 -0.0783  0.6622 -0.2617
 6323SOL    HW225058   1.853   1.416   2.740  0.8095  1.7791 -1.0391
 6323SOL    HW325059   1.814   1.400   2.594 -0.5183  1.2024 -0.6356
 6323SOL    MW425060   1.795   1.424   2.676 -0.0192  0.8809 -0.4136
 6324SOL     OW25061   1.845   0.484   0.037 -0.3295  0.0961  0.4625
 6324SOL    HW225062   1.853   0.550   0.106 -1.0170  0.1022  0.5431
 6324SOL    HW325063   1.886   0.524  -0.040 -0.7322  0.6176  0.5148
 6324SOL    MW425064   1.851   0.498   0.036 -0.4733  0.1657  0.4801
 6325SOL     OW25065   0.386   5.375   4.210 -0.4091  0.5730  0.3571
 6325SOL    HW225066   0.438   5.357   4.288 -0.5645 -0.4676  0.2321
 6325SOL    HW325067   0.448   5.411   4.147  0.1761 -0.6599  0.2103
 6325SOL    MW425068   0.401   5.377   4.212 -0.3524  0.2730  0.3213
 6326SOL     OW25069   3.054   3.488   6.060 -0.1120 -0.3070 -0.1758
 6326SOL    HW225070   3.133   3.517   6.106  0.7251 -1.0481 -1.0876
 6326SOL    HW325071   3.068   3.517   5.969 -1.0182 -0.2206 -0.2963
 6326SOL    MW425072   3.066   3.496   6.054 -0.1211 -0.3934 -0.3120
 6327SOL     OW25073   5.299   2.635   2.970 -0.3598  0.0598  0.4905
 6327SOL    HW225074   5.219   2.672   2.934 -0.0465  1.1546  0.8618
 6327SOL    HW325075   5.368   2.697   2.944  0.1237 -0.0448  1.4790
 6327SOL    MW425076   5.298   2.648   2.962 -0.2547  0.1905  0.6699
 6328SOL     OW25077   3.108   2.201   1.352 -0.8285 -0.8148 -0.8912
 6328SOL    HW225078   3.037   2.141   1.375 -0.5595 -0.6147  0.5414
 6328SOL    HW325079   3.186   2.162   1.389 -0.6994  0.5678  0.3938
 6328SOL    MW425080   3.109   2.188   1.360 -0.7759 -0.6060 -0.5327
 6329SOL     OW25081   4.541   2.053   0.541 -0.1019  0.4789 -0.5184
 6329SOL    HW225082   4.539   2.091   0.453 -0.2702 -1.5088 -1.4066
 6329SOL    HW325083   4.624   2.083   0.578  0.9160 -0.2460 -2.1019
 6329SOL    MW425084   4.552   2.062   0.534  0.0102  0.1210 -0.8445
 6330SOL     OW25085   6.235   2.633   5.396 -0.0835  0.1983 -0.7909
 6330SOL    HW225086   6.242   2.571   5.469 -0.1224  2.0084  0.8553
 6330SOL    HW325087   6.248   2.581   5.318  1.8735 -1.5437  0.6034
 6330SOL    MW425088   6.238   2.618   5.395  0.1696  0.2073 -0.3897
 6331SOL     OW25089   4.351   4.706   4.839  0.1327  0.0345  0.0090
 6331SOL    HW225090   4.306   4.632   4.879  1.3989 -1.1201 -0.6134
 6331SOL    HW325091   4.314   4.783   4.882 -1.7444 -0.8979  0.1489
 6331SOL    MW425092   4.340   4.707   4.850  0.0521 -0.2409 -0.0547
 6332SOL     OW25093   5.688   0.935   4.641  0.4356  0.0230  0.0308
 6332SOL    HW225094   5.628   0.863   4.661 -0.1724  0.6778  0.6568
 6332SOL    HW325095   5.770   0.911   4.684  0.4374 -0.5866 -0.3028
 6332SOL    MW425096   5.691   0.922   4.650  0.3556  0.0290  0.0694
 6333SOL     OW25097   5.535   2.780   3.525  0.1470 -0.4702 -0.1005
 6333SOL    HW225098   5.497   2.848   3.581 -0.1749 -0.1567 -0.7038
 6333SOL    HW325099   5.593   2.828   3.466  1.3603 -0.9156  0.6813
 6333SOL    MW425100   5.538   2.795   3.525  0.2646 -0.4876 -0.0770
 6334SOL     OW25101   3.342   2.147   4.334  0.1682  0.0573 -0.3724
 6334SOL    HW225102   3.429   2.186   4.331 -0.2969  1.1301 -0.3669
 6334SOL    HW325103   3.337   2.093   4.255  1.2486 -0.9627  0.2222
 6334SOL    MW425104   3.353   2.145   4.323  0.2494  0.0643 -0.2932
 6335SOL     OW25105   5.836   0.506   5.231  0.2283  0.2087 -0.8303
 6335SOL    HW225106   5.799   0.567   5.167 -0.7832 -0.4176 -0.8632
 6335SOL    HW325107   5.925   0.489   5.199  0.2511  1.0616 -1.2419
 6335SOL    MW425108   5.843   0.511   5.218  0.0979  0.2386 -0.8889
 6336SOL     OW25109   0.714   3.536   0.523  0.1190  0.3710 -0.1390
 6336SOL    HW225110   0.726   3.452   0.567 -0.8649  0.2099 -0.1527
 6336SOL    HW325111   0.803   3.572   0.515  0.2723  1.4534  3.9826
 6336SOL    MW425112   0.727   3.529   0.528  0.0094  0.4925  0.4029
 6337SOL     OW25113   1.360   3.099   1.076  0.1122 -0.1556 -0.3290
 6337SOL    HW225114   1.357   3.135   0.987 -0.7691  0.5203 -0.0455
 6337SOL    HW325115   1.360   3.176   1.133  2.2482 -0.5222  0.2676
 6337SOL    MW425116   1.360   3.114   1.072  0.2777 -0.1148 -0.2128
 6338SOL     OW25117   4.179   3.865   2.723 -0.1531  0.2079 -0.0388
 6338SOL    HW225118   4.202   3.943   2.674 -1.5398 -0.4011 -1.7673
 6338SOL    HW325119   4.103   3.829   2.677 -0.6859 -1.1675  1.7686
 6338SOL    MW425120   4.172   3.871   2.711 -0.4063 -0.0539 -0.0284
 6339SOL     OW25121   2.694   2.543   0.914 -0.7615  0.1191 -0.3919
 6339SOL    HW225122   2.711   2.547   1.008 -2.1865  1.6787 -0.1421
 6339SOL    HW325123   2.685   2.449   0.895  0.0190 -0.2441  0.9151
 6339SOL    MW425124   2.695   2.531   0.924 -0.8465  0.2769 -0.1865
 6340SOL     OW25125   0.484   2.716   3.728  0.5207  0.4084  0.3341
 6340SOL    HW225126   0.424   2.720   3.653  1.6499 -0.0943 -0.6310
 6340SOL    HW325127   0.474   2.627   3.762  1.6396 -0.1145 -0.6437
 6340SOL    MW425128   0.474   2.704   3.723  0.8173  0.2731  0.0777
 6341SOL     OW25129   1.487   4.093   1.707 -0.1651  0.3739 -0.1232
 6341SOL    HW225130   1.424   4.085   1.635  1.4336 -1.0415 -1.4317
 6341SOL    HW325131   1.549   4.022   1.694  1.2373  1.1792  1.6312
 6341SOL    MW425132   1.487   4.083   1.696  0.2308  0.2934 -0.0644
 6342SOL     OW25133   3.440   0.421   5.634  0.5711 -0.2957 -0.3745
 6342SOL    HW225134   3.404   0.510   5.634  0.4290 -0.3517  0.0599
 6342SOL    HW325135   3.482   0.411   5.720  0.5488 -0.6633 -0.4020
 6342SOL    MW425136   3.441   0.431   5.646  0.5494 -0.3516 -0.3209
 6343SOL     OW25137   3.231   4.045   1.656  0.9232 -0.1996  0.3193
 6343SOL    HW225138   3.223   4.016   1.565  1.3560  0.2829  0.1201
 6343SOL    HW325139   3.196   3.972   1.708  0.0777 -0.2222 -0.2572
 6343SOL    MW425140   3.225   4.031   1.651  0.8687 -0.1389  0.2169
 6344SOL     OW25141   1.073   3.367   2.776  0.0147 -0.5220 -0.4790
 6344SOL    HW225142   1.044   3.405   2.693  0.5786 -0.5419 -0.6915
 6344SOL    HW325143   1.168   3.378   2.775 -0.1175  1.1506  0.9934
 6344SOL    MW425144   1.081   3.374   2.765  0.0717 -0.3039 -0.3128
 6345SOL     OW25145   3.667   2.818   1.148 -0.5249 -0.4502  0.4903
 6345SOL    HW225146   3.647   2.738   1.100  0.0029  0.4757 -1.3454
 6345SOL    HW325147   3.587   2.869   1.145 -0.4173 -0.2876  0.4093
 6345SOL    MW425148   3.654   2.814   1.141 -0.4410 -0.3066  0.2374
 6346SOL     OW25149   1.633   1.430   0.935 -0.2349 -0.1494  0.1444
 6346SOL    HW225150   1.624   1.418   0.840  0.4425 -0.2620  0.0928
 6346SOL    HW325151   1.595   1.516   0.952 -2.1603 -0.9216  0.0536
 6346SOL    MW425152   1.627   1.440   0.925 -0.3995 -0.2662  0.1256
 6347SOL     OW25153   0.357   1.736   2.808 -0.2367 -0.3740 -1.5960
 6347SOL    HW225154   0.340   1.703   2.896  0.6306 -2.3935 -2.1350
 6347SOL    HW325155   0.301   1.814   2.800 -3.0115 -2.1015 -0.4708
 6347SOL    MW425156   0.347   1.742   2.818 -0.4884 -0.8684 -1.5187
 6348SOL     OW25157   2.482   0.229   1.669 -0.0209 -0.0293  0.2763
 6348SOL    HW225158   2.561   0.277   1.694  0.6005 -0.9124  0.0417
 6348SOL    HW325159   2.506   0.137   1.676 -0.7642 -0.3091 -0.6154
 6348SOL    MW425160   2.496   0.223   1.673 -0.0370 -0.1827  0.1277
 6349SOL     OW25161   5.239   0.234   4.910 -0.0548  0.0275  0.0238
 6349SOL    HW225162   5.308   0.168   4.900 -0.4175 -0.8028  2.3261
 6349SOL    HW325163   5.161   0.184   4.933 -0.9160  1.1188 -0.4286
 6349SOL    MW425164   5.238   0.219   4.912 -0.2163  0.0619  0.2679
 6350SOL     OW25165   5.129   1.802   2.739 -0.5209 -0.5804 -0.1587
 6350SOL    HW225166   5.063   1.870   2.752 -0.7908 -1.1673  1.9501
 6350SOL    HW325167   5.167   1.820   2.653 -1.6540  1.2930 -0.3015
 6350SOL    MW425168   5.126   1.813   2.730 -0.7060 -0.4107  0.1007
 6351SOL     OW25169   2.866   6.230   4.883  0.0614  0.4673  0.3042
 6351SOL    HW225170   2.943   6.212   4.829 -0.0213 -0.1313  0.3800
 6351SOL    HW325171   2.835   6.315   4.853 -0.6298 -0.3362 -1.3524
 6351SOL    MW425172   2.872   6.239   4.872 -0.0407  0.2823  0.0957
 6352SOL     OW25173   5.294   5.297   4.433  0.3718  0.0661 -0.6953
 6352SOL    HW225174   5.238   5.288   4.511  0.4693  0.9956 -0.5116
 6352SOL    HW325175   5.233   5.314   4.362  0.3281 -0.2378 -0.7350
 6352SOL    MW425176   5.278   5.298   4.434  0.3789  0.1487 -0.6763
 6353SOL     OW25177   2.906   2.349   4.878 -0.4894  0.0757 -0.2943
 6353SOL    HW225178   3.001   2.338   4.883 -0.6528 -1.0926  1.4189
 6353SOL    HW325179   2.886   2.411   4.948 -1.0203 -0.0549 -0.3242
 6353SOL    MW425180   2.916   2.356   4.888 -0.5810 -0.0957 -0.0722
 6354SOL     OW25181   3.558   3.391   3.921  0.8042  0.0425  0.1984
 6354SOL    HW225182   3.570   3.325   3.852 -2.2035  0.5067 -0.9157
 6354SOL    HW325183   3.499   3.350   3.984 -0.4972  1.3431 -0.1229
 6354SOL    MW425184   3.552   3.377   3.920  0.2356  0.2753  0.0090
 6355SOL     OW25185   1.221   0.110   4.887 -0.0471  0.4153  0.0553
 6355SOL    HW225186   1.250   0.113   4.796 -0.2833 -0.4601 -0.0560
 6355SOL    HW325187   1.146   0.169   4.890  0.3400  0.9318 -0.1667
 6355SOL    MW425188   1.215   0.118   4.875 -0.0272  0.3679  0.0113
 6356SOL     OW25189   6.267   4.005   0.601  0.3798 -0.2319 -0.4424
 6356SOL    HW225190   6.294   4.088   0.564  1.6807 -0.8567 -0.9619
 6356SOL    HW325191   6.175   4.017   0.625  0.7961  1.6266  0.3344
 6356SOL    MW425192   6.258   4.017   0.600  0.6064 -0.0691 -0.4084
 6357SOL     OW25193   0.295   5.325   4.552  0.2063  0.7108  0.1221
 6357SOL    HW225194   0.369   5.276   4.516 -1.0151 -2.3497  1.4326
 6357SOL    HW325195   0.305   5.316   4.647 -1.0713  1.5062  0.3523
 6357SOL    MW425196   0.306   5.317   4.560 -0.1234  0.4119  0.3254
 6358SOL     OW25197   1.552   2.580   1.955  0.0641 -0.3249  0.0130
 6358SOL    HW225198   1.633   2.531   1.944  1.4823  1.8527  0.1489
 6358SOL    HW325199   1.577   2.672   1.940 -2.5499  0.3403 -0.7821
 6358SOL    MW425200   1.566   2.586   1.951 -0.0936  0.0501 -0.0740
 6359SOL     OW25201   1.999   4.107   4.278 -0.5113 -0.0012 -0.3448
 6359SOL    HW225202   1.913   4.073   4.251 -0.8075  1.6134 -1.6101
 6359SOL    HW325203   2.046   4.121   4.196  0.7633 -0.3119  0.3102
 6359SOL    MW425204   1.994   4.105   4.264 -0.3822  0.1709 -0.4253
 6360SOL     OW25205   0.260   5.337   3.960  0.2330 -0.2785 -0.0292
 6360SOL    HW225206   0.165   5.346   3.953  0.0423 -0.9490  1.2886
 6360SOL    HW325207   0.274   5.307   4.050  1.7033 -0.0870 -0.1737
 6360SOL    MW425208   0.249   5.334   3.971  0.4019 -0.3417  0.1256
 6361SOL     OW25209   6.080   2.796   2.397  0.3166 -0.1101  0.4140
 6361SOL    HW225210   6.067   2.723   2.458 -2.5829  0.3363  0.4718
 6361SOL    HW325211   6.001   2.849   2.406  0.9512  1.3650 -1.8908
 6361SOL    MW425212   6.068   2.793   2.406  0.0178  0.1434  0.1175
 6362SOL     OW25213   1.816   2.956   3.454 -0.3720  0.4930  0.8706
 6362SOL    HW225214   1.876   2.969   3.527  0.8461  0.5625 -0.1224
 6362SOL    HW325215   1.814   3.040   3.409  1.0183 -0.2985 -0.7338
 6362SOL    MW425216   1.823   2.968   3.458 -0.0279  0.3977  0.5279
 6363SOL     OW25217   4.196   3.989   2.973  0.0707  0.9911  0.1927
 6363SOL    HW225218   4.200   3.952   2.885  1.8146 -0.3845  0.7951
 6363SOL    HW325219   4.155   3.921   3.027  0.3997  1.2107  0.7326
 6363SOL    MW425220   4.191   3.975   2.969  0.3442  0.8386  0.3434
 6364SOL     OW25221   4.070   3.150   3.384  0.0920 -0.0629  0.0913
 6364SOL    HW225222   4.066   3.207   3.461  0.7556  0.8718 -0.5513
 6364SOL    HW325223   4.015   3.194   3.319  0.7522 -0.0535 -0.4674
 6364SOL    MW425224   4.062   3.163   3.386  0.2667  0.0617 -0.0672
 6365SOL     OW25225   4.418   6.139   6.009  0.3322  0.3215  0.5362
 6365SOL    HW225226   4.409   6.071   6.076  1.6159 -0.0655  0.3296
 6365SOL    HW325227   4.469   6.098   5.939  0.6264  1.3146  0.1531
 6365SOL    MW425228   4.424   6.124   6.009  0.5404  0.4015  0.4584
 6366SOL     OW25229   0.903   2.121   2.502 -0.4631 -0.3514 -0.0050
 6366SOL    HW225230   0.957   2.201   2.504 -2.9871  1.4793  0.2475
 6366SOL    HW325231   0.958   2.056   2.459  1.4047  1.7900 -1.0924
 6366SOL    MW425232   0.917   2.123   2.497 -0.5496  0.1727 -0.1151
 6367SOL     OW25233   6.400   4.296   2.696 -0.4153  0.0816  0.6839
 6367SOL    HW225234   6.367   4.228   2.637 -0.3207 -0.1074  0.8487
 6367SOL    HW325235   6.494   4.300   2.678 -0.1128 -1.0580  1.9110
 6367SOL    MW425236   6.408   4.288   2.686 -0.3629 -0.0937  0.8676
 6368SOL     OW25237   1.772   2.850   0.577 -0.0310  0.6814 -1.2018
 6368SOL    HW225238   1.791   2.940   0.604  0.4491  0.4398 -0.7037
 6368SOL    HW325239   1.804   2.844   0.487  0.5859  0.8150 -0.9946
 6368SOL    MW425240   1.779   2.861   0.569  0.1137  0.6671 -1.1087
 6369SOL     OW25241   1.492   6.315   3.757  0.3115 -0.7523  0.6020
 6369SOL    HW225242   1.418   6.266   3.722  0.4392 -0.2249 -0.4401
 6369SOL    HW325243   1.471   6.328   3.849 -0.7598 -0.8408  0.3771
 6369SOL    MW425244   1.480   6.310   3.764  0.1870 -0.6944  0.4349
 6370SOL     OW25245   6.021   5.202   4.519  0.1393  0.0854  0.5383
 6370SOL    HW225246   5.943   5.239   4.561 -0.4465  0.1800 -0.5786
 6370SOL    HW325247   6.049   5.132   4.578 -1.8312 -1.1168  0.1583
 6370SOL    MW425248   6.014   5.198   4.533 -0.1980 -0.0607  0.3408
 6371SOL     OW25249   2.102   4.813   0.536  0.1082 -0.4054 -0.3767
 6371SOL    HW225250   2.136   4.724   0.527 -1.6190 -1.3536  1.7001
 6371SOL    HW325251   2.011   4.807   0.508 -0.5039  0.2976  1.3400
 6371SOL    MW425252   2.094   4.800   0.531 -0.2004 -0.4377  0.1238
 6372SOL     OW25253   2.838   4.201   2.131 -0.1630  0.2382 -0.2287
 6372SOL    HW225254   2.902   4.130   2.132 -1.9549 -1.4728 -0.3637
 6372SOL    HW325255   2.793   4.194   2.215 -1.4361  0.1673 -0.8914
 6372SOL    MW425256   2.840   4.191   2.142 -0.5674  0.0031 -0.3340
 6373SOL     OW25257   1.773   4.330   3.115  0.5061  0.1473  0.4555
 6373SOL    HW225258   1.682   4.319   3.088  0.0928 -1.2441  2.2267
 6373SOL    HW325259   1.785   4.425   3.118 -0.4143  0.3524 -1.1926
 6373SOL    MW425260   1.762   4.341   3.112  0.3301 -0.0092  0.4717
 6374SOL     OW25261   1.021   3.805   1.573  0.3618 -0.0070 -0.6997
 6374SOL    HW225262   1.015   3.829   1.666  3.1518  0.4096 -0.5414
 6374SOL    HW325263   1.011   3.888   1.527 -1.7107 -0.3042 -0.8725
 6374SOL    MW425264   1.019   3.819   1.579  0.4564  0.0087 -0.7016
 6375SOL     OW25265   0.084   3.016   1.800 -0.2425  0.4079  0.4242
 6375SOL    HW225266   0.082   2.950   1.731  1.4591  0.9149 -0.1544
 6375SOL    HW325267   0.001   3.005   1.846 -0.4709 -1.3970 -0.3380
 6375SOL    MW425268   0.073   3.006   1.797 -0.0481  0.2367  0.2473
 6376SOL     OW25269   0.644   1.681   2.772 -0.5730  0.0871  0.3913
 6376SOL    HW225270   0.554   1.709   2.787 -0.5351 -0.3384  1.5586
 6376SOL    HW325271   0.689   1.760   2.742 -1.4136  0.2002 -0.6274
 6376SOL    MW425272   0.638   1.695   2.770 -0.6789  0.0459  0.4109
 6377SOL     OW25273   2.421   2.084   5.814 -0.3764  0.2345  0.0111
 6377SOL    HW225274   2.482   2.013   5.835  1.6270  1.6234 -0.8186
 6377SOL    HW325275   2.413   2.081   5.719  1.5643  2.4679 -0.2989
 6377SOL    MW425276   2.428   2.074   5.804  0.1440  0.7124 -0.1393
 6378SOL     OW25277   0.240   1.910   3.159 -0.3217  0.2241  0.0929
 6378SOL    HW225278   0.235   1.987   3.215  0.1090 -0.2269  0.7760
 6378SOL    HW325279   0.183   1.930   3.085  0.8938  1.8080 -0.4866
 6378SOL    MW425280   0.232   1.923   3.156 -0.1045  0.3736  0.1065
 6379SOL     OW25281   6.159   1.984   6.105  0.1597 -0.1897 -0.1131
 6379SOL    HW225282   6.173   2.034   6.025 -0.3112 -1.1699 -0.8329
 6379SOL    HW325283   6.228   1.917   6.105 -0.1314 -0.4960  0.0480
 6379SOL    MW425284   6.170   1.982   6.095  0.0592 -0.3594 -0.1868
 6380SOL     OW25285   5.669   2.328   0.644 -0.0040  0.4368 -0.0716
 6380SOL    HW225286   5.687   2.294   0.556  1.3040  1.0934 -0.0819
 6380SOL    HW325287   5.615   2.406   0.628 -2.0974 -0.9556 -0.1046
 6380SOL    MW425288   5.664   2.334   0.630 -0.1076  0.3397 -0.0773
 6381SOL     OW25289   5.310   2.222   1.373 -0.0818  0.4203  0.7732
 6381SOL    HW225290   5.312   2.134   1.409 -2.3371 -0.7627 -1.6378
 6381SOL    HW325291   5.383   2.225   1.311 -0.8085 -0.3169 -0.1581
 6381SOL    MW425292   5.320   2.211   1.370 -0.4753  0.1670  0.3322
 6382SOL     OW25293   2.105   5.065   0.364 -0.0097 -0.4145 -0.1160
 6382SOL    HW225294   2.106   4.970   0.379  0.7154 -0.2544  0.9389
 6382SOL    HW325295   2.159   5.101   0.434 -2.8397  1.0701  1.4888
 6382SOL    MW425296   2.112   5.057   0.375 -0.2874 -0.1975  0.2349
 6383SOL     OW25297   3.990   3.983   6.356  1.1033 -0.4093 -0.2731
 6383SOL    HW225298   3.895   3.970   6.353  0.8171  1.4867 -1.1446
 6383SOL    HW325299   4.027   3.895   6.350 -0.5908 -1.2871  1.0724
 6383SOL    MW425300   3.982   3.970   6.355  0.8420 -0.2750 -0.2105
 6384SOL     OW25301   6.132   4.444   2.563 -0.4871  0.0091  0.2467
 6384SOL    HW225302   6.223   4.449   2.592 -0.0665  2.5265 -1.2163
 6384SOL    HW325303   6.085   4.508   2.617 -0.4537  1.8558 -1.7532
 6384SOL    MW425304   6.138   4.453   2.574 -0.4272  0.5849 -0.2102
 6385SOL     OW25305   0.182   0.350   3.773 -0.2974  0.0749 -0.0619
 6385SOL    HW225306   0.217   0.296   3.844 -1.0116 -0.4025 -0.0598
 6385SOL    HW325307   0.250   0.415   3.756  0.4341 -0.6100  0.1783
 6385SOL    MW425308   0.195   0.351   3.780 -0.2951 -0.0785 -0.0300
 6386SOL     OW25309   1.599   5.481   4.999 -0.1203  0.4597  0.3284
 6386SOL    HW225310   1.578   5.499   5.090 -1.8804  0.6230 -0.0628
 6386SOL    HW325311   1.667   5.414   5.002 -2.3689 -1.9445  1.8069
 6386SOL    MW425312   1.605   5.475   5.011 -0.6492  0.1640  0.4718
 6387SOL     OW25313   3.359   3.392   2.901 -0.1218  0.2571  0.2587
 6387SOL    HW225314   3.328   3.414   2.989  0.6786  2.5709  0.0256
 6387SOL    HW325315   3.425   3.324   2.915 -0.2112  0.3848  1.4152
 6387SOL    MW425316   3.364   3.386   2.915 -0.0280  0.5792  0.3805
 6388SOL     OW25317   0.126   5.348   3.487 -0.0914  0.0535 -0.0986
 6388SOL    HW225318   0.184   5.273   3.474  2.6367  1.4431  2.8777
 6388SOL    HW325319   0.172   5.422   3.446 -2.3348  0.4058 -2.2500
 6388SOL    MW425320   0.139   5.348   3.480 -0.0274  0.2833  0.0102
 6389SOL     OW25321   1.239   2.244   2.828  0.1161 -0.0683  0.3221
 6389SOL    HW225322   1.154   2.216   2.863 -0.5714 -0.3219 -1.4665
 6389SOL    HW325323   1.256   2.185   2.755 -0.5341  2.9420 -2.4880
 6389SOL    MW425324   1.230   2.232   2.823 -0.0604  0.2954 -0.2846
 6390SOL     OW25325   3.378   5.561   4.723  0.1075  0.5533  0.1410
 6390SOL    HW225326   3.439   5.618   4.676  0.3279  0.3779  0.2128
 6390SOL    HW325327   3.342   5.616   4.792  1.5813  0.1650  1.2851
 6390SOL    MW425328   3.382   5.576   4.726  0.3310  0.4789  0.3015
 6391SOL     OW25329   0.393   2.899   4.389  0.0677 -0.0507 -0.4096
 6391SOL    HW225330   0.414   2.869   4.301 -1.4117 -0.5696 -0.6236
 6391SOL    HW325331   0.438   2.836   4.446  0.5471 -0.0680 -0.7962
 6391SOL    MW425332   0.402   2.886   4.385 -0.0643 -0.1215 -0.4888
 6392SOL     OW25333   1.166   6.123   4.775  0.5212  0.3760  0.2388
 6392SOL    HW225334   1.242   6.070   4.750  0.4422  1.6137 -3.1422
 6392SOL    HW325335   1.092   6.064   4.766  0.7784  0.0589  0.1828
 6392SOL    MW425336   1.166   6.108   4.770  0.5447  0.4975 -0.2147
 6393SOL     OW25337   2.663   5.664   4.482  0.4443 -0.3313  0.1057
 6393SOL    HW225338   2.714   5.694   4.407  0.5170  0.1961  0.3633
 6393SOL    HW325339   2.595   5.608   4.444  0.0687  0.4765 -0.4251
 6393SOL    MW425340   2.661   5.660   4.467  0.4043 -0.1551  0.0697
 6394SOL     OW25341   4.046   4.032   6.077  0.0538 -0.1685  0.1139
 6394SOL    HW225342   4.031   4.123   6.102 -2.5148  0.0224 -1.6643
 6394SOL    HW325343   4.028   3.982   6.157 -0.1948  0.7947  0.6795
 6394SOL    MW425344   4.042   4.037   6.091 -0.3179 -0.0162 -0.0461
 6395SOL     OW25345   0.302   0.507   6.149 -0.2803  0.9042  0.4110
 6395SOL    HW225346   0.218   0.521   6.193 -0.7062 -1.5726  0.5083
 6395SOL    HW325347   0.363   0.563   6.196 -1.2631  0.4114  2.3926
 6395SOL    MW425348   0.299   0.517   6.161 -0.4661  0.5124  0.6853
 6396SOL     OW25349   5.482   3.370   4.157 -0.1599 -0.4847  0.1318
 6396SOL    HW225350   5.481   3.453   4.204  0.1795  0.0201 -0.7241
 6396SOL    HW325351   5.456   3.305   4.222  1.3656  0.0270  1.3253
 6396SOL    MW425352   5.478   3.372   4.172  0.0861 -0.3506  0.1764
 6397SOL     OW25353   1.494   2.630   0.449 -0.1007 -0.2625 -0.5247
 6397SOL    HW225354   1.451   2.697   0.396 -0.3461  0.6418  0.7651
 6397SOL    HW325355   1.439   2.552   0.440 -1.8495  0.7574  0.7816
 6397SOL    MW425356   1.481   2.629   0.441 -0.3638 -0.0086 -0.1822
 6398SOL     OW25357   4.599   0.573   1.739  0.1559 -0.2952 -0.2160
 6398SOL    HW225358   4.569   0.577   1.830 -0.9686  0.6357 -0.5957
 6398SOL    HW325359   4.683   0.617   1.739 -0.7164  1.4516  0.0720
 6398SOL    MW425360   4.606   0.579   1.751 -0.1076  0.0581 -0.2281
 6399SOL     OW25361   5.476   6.297   0.326 -0.5372  0.6226 -0.5576
 6399SOL    HW225362   5.398   6.257   0.287 -0.3835 -0.8465  0.5255
 6399SOL    HW325363   5.445   6.335   0.408 -0.3903  1.3793 -0.8526
 6399SOL    MW425364   5.461   6.297   0.332 -0.4975  0.5286 -0.4536
 6400SOL     OW25365   6.284   0.018   2.650  0.6876 -0.5293 -0.3749
 6400SOL    HW225366   6.236  -0.024   2.721  0.8728 -2.2042 -1.1883
 6400SOL    HW325367   6.365   0.050   2.691 -0.4648  1.1212  0.7215
 6400SOL    MW425368   6.289   0.017   2.665  0.5600 -0.5325 -0.3376
 6401SOL     OW25369   3.239   0.020   2.697  0.0985  0.2133  0.3346
 6401SOL    HW225370   3.145   0.031   2.682  0.2119  1.5768  0.4906
 6401SOL    HW325371   3.281   0.058   2.620  0.5566  2.4029  1.5650
 6401SOL    MW425372   3.232   0.026   2.685  0.1739  0.6821  0.5175
 6402SOL     OW25373   5.480   2.207   2.041  0.0068  0.5916 -0.5882
 6402SOL    HW225374   5.575   2.204   2.031  0.4115  1.5159  2.2473
 6402SOL    HW325375   5.456   2.296   2.017  0.1016  0.8665  0.3197
 6402SOL    MW425376   5.489   2.218   2.036  0.0727  0.7498 -0.0943
 6403SOL     OW25377   4.861   4.812   4.824 -0.2454  0.2820 -0.4100
 6403SOL    HW225378   4.851   4.864   4.743  0.3121 -1.5055 -1.6790
 6403SOL    HW325379   4.952   4.781   4.822  0.2030  1.2983  1.6330
 6403SOL    MW425380   4.872   4.815   4.813 -0.1127  0.1802 -0.3079
 6404SOL     OW25381   0.111   4.832   1.705 -0.4663  0.1698  0.4181
 6404SOL    HW225382   0.071   4.823   1.791  2.6109 -1.0216  1.9039
 6404SOL    HW325383   0.196   4.872   1.723  0.9545 -1.6096 -1.8033
 6404SOL    MW425384   0.117   4.836   1.719  0.1272 -0.2222  0.3210
 6405SOL     OW25385   5.052   1.676   6.087  0.4995 -0.6102 -0.0752
 6405SOL    HW225386   5.115   1.618   6.044  1.6433 -1.0586  2.0600
 6405SOL    HW325387   5.010   1.723   6.015  0.7167 -2.8582 -1.7977
 6405SOL    MW425388   5.055   1.674   6.072  0.6791 -0.9660 -0.0208
 6406SOL     OW25389   0.036   2.691   3.297 -0.1040 -0.0228  0.3472
 6406SOL    HW225390   0.098   2.627   3.331 -0.5105  0.5056  2.1753
 6406SOL    HW325391   0.088   2.770   3.284 -0.3365  0.4043  1.8288
 6406SOL    MW425392   0.051   2.693   3.300 -0.1883  0.1033  0.7839
 6407SOL     OW25393   0.734   6.005   5.202  0.3763  0.2097  0.2700
 6407SOL    HW225394   0.697   5.960   5.126 -0.4759  1.2458  0.0509
 6407SOL    HW325395   0.720   6.098   5.184 -0.6337  0.4523  2.0698
 6407SOL    MW425396   0.727   6.011   5.190  0.1306  0.3784  0.4785
 6408SOL     OW25397   5.230   1.918   5.157 -0.2127 -0.6223  0.7303
 6408SOL    HW225398   5.283   1.916   5.236  2.7077  0.0119 -1.0835
 6408SOL    HW325399   5.259   1.843   5.106  1.1891  1.3126 -1.5557
 6408SOL    MW425400   5.241   1.908   5.160  0.3576 -0.2833  0.1893
 6409SOL     OW25401   4.187   0.843   2.388  0.2248  0.3981  0.5722
 6409SOL    HW225402   4.200   0.914   2.326  0.1331 -0.2076 -0.1467
 6409SOL    HW325403   4.137   0.882   2.460  0.6477  1.1908  0.4454
 6409SOL    MW425404   4.182   0.858   2.389  0.2685  0.4228  0.4607
 6410SOL     OW25405   2.843   4.815   2.640 -0.0554  0.1965 -0.4594
 6410SOL    HW225406   2.891   4.745   2.684  1.4669  0.0720 -2.1829
 6410SOL    HW325407   2.771   4.771   2.596  0.1054 -0.0947 -0.4339
 6410SOL    MW425408   2.840   4.800   2.640  0.1666  0.1417 -0.6835
 6411SOL     OW25409   0.302   4.812   2.292 -0.3276 -0.2813 -0.2407
 6411SOL    HW225410   0.267   4.842   2.209  1.1147  1.9698 -0.1338
 6411SOL    HW325411   0.236   4.837   2.357 -0.1416  0.6815 -0.4131
 6411SOL    MW425412   0.289   4.819   2.290 -0.1128  0.1427 -0.2493
 6412SOL     OW25413   5.984   6.119   2.819 -0.0992 -0.1910  0.4492
 6412SOL    HW225414   6.034   6.039   2.832  2.0586  1.1832  1.2075
 6412SOL    HW325415   5.929   6.101   2.743  2.1625 -1.5623 -0.9613
 6412SOL    MW425416   5.983   6.106   2.811  0.4839 -0.1906  0.3632
 6413SOL     OW25417   3.289   1.452   3.793  0.2584  0.2011  0.4620
 6413SOL    HW225418   3.371   1.453   3.743 -0.9864  0.8798 -1.7205
 6413SOL    HW325419   3.239   1.380   3.755 -0.7789  0.8048  0.6324
 6413SOL    MW425420   3.293   1.443   3.781 -0.0427  0.3703  0.1965
 6414SOL     OW25421   0.748   4.416   3.025  0.0540  0.1959 -0.9302
 6414SOL    HW225422   0.663   4.453   3.047  0.3140  0.0529  0.4367
 6414SOL    HW325423   0.757   4.340   3.083  1.0278  0.1065 -1.1737
 6414SOL    MW425424   0.738   4.411   3.036  0.2168  0.1653 -0.7820
 6415SOL     OW25425   5.052   6.393   4.155  0.0354 -0.1507 -0.4436
 6415SOL    HW225426   5.072   6.465   4.215 -0.3500 -1.3903  1.2550
 6415SOL    HW325427   5.136   6.351   4.139 -0.2493 -2.1714  2.4774
 6415SOL    MW425428   5.066   6.397   4.161 -0.0530 -0.5809  0.1659
 6416SOL     OW25429   3.143   1.065   3.752 -0.1399 -0.1275 -0.3610
 6416SOL    HW225430   3.081   1.138   3.760 -0.9814 -0.8465 -0.2121
 6416SOL    HW325431   3.112   1.016   3.676 -1.4442 -2.0554  1.3226
 6416SOL    MW425432   3.131   1.068   3.743 -0.4230 -0.4767 -0.1192
 6417SOL     OW25433   2.075   4.889   1.895  0.0426  0.2249 -0.1860
 6417SOL    HW225434   1.993   4.843   1.873  0.8637 -0.4688 -2.0715
 6417SOL    HW325435   2.063   4.918   1.985 -2.4233  0.4710 -0.5152
 6417SOL    MW425436   2.063   4.887   1.904 -0.1744  0.1659 -0.4782
 6418SOL     OW25437   2.147   1.891   0.134  0.1650  0.5418 -0.1166
 6418SOL    HW225438   2.173   1.947   0.060  0.8038  0.7293  0.2384
 6418SOL    HW325439   2.055   1.912   0.148  0.3215  1.3053 -0.1713
 6418SOL    MW425440   2.139   1.901   0.126  0.2700  0.6672 -0.0770
 6419SOL     OW25441   0.958   4.096   2.928  0.4509 -0.6224  0.1119
 6419SOL    HW225442   0.994   4.152   2.859  2.1091  0.3365  1.6617
 6419SOL    HW325443   1.002   4.012   2.915  1.7721 -0.0550  0.7548
 6419SOL    MW425444   0.969   4.093   2.917  0.8440 -0.4210  0.4012
 6420SOL     OW25445   3.710   1.460   0.215  0.1628  0.6835  0.1088
 6420SOL    HW225446   3.658   1.463   0.134  1.1006  2.7075 -0.5023
 6420SOL    HW325447   3.659   1.511   0.278 -0.0254  0.0860  0.4374
 6420SOL    MW425448   3.696   1.467   0.212  0.2617  0.8717  0.0715
 6421SOL     OW25449   4.613   1.862   4.407 -0.0227 -0.3138  0.2053
 6421SOL    HW225450   4.538   1.829   4.358  0.7440 -1.3338 -0.3077
 6421SOL    HW325451   4.660   1.918   4.345 -0.1775  0.0652  0.4261
 6421SOL    MW425452   4.609   1.865   4.392  0.0580 -0.3984  0.1667
 6422SOL     OW25453   5.539   2.557   0.549  0.0306  0.2035 -0.0149
 6422SOL    HW225454   5.486   2.549   0.470  0.7855 -1.4464 -0.3963
 6422SOL    HW325455   5.478   2.585   0.617 -1.1806 -0.9314 -0.6029
 6422SOL    MW425456   5.524   2.560   0.548 -0.0296 -0.1639 -0.1428
 6423SOL     OW25457   0.839   2.399   4.900 -0.1001  0.5809  0.0432
 6423SOL    HW225458   0.746   2.419   4.888 -0.0124  0.0473 -1.8438
 6423SOL    HW325459   0.839   2.323   4.959 -1.0376 -0.9977 -1.8871
 6423SOL    MW425460   0.827   2.391   4.906 -0.2122  0.3022 -0.4604
 6424SOL     OW25461   3.560   4.231   2.808 -0.2244 -0.2285  0.2556
 6424SOL    HW225462   3.472   4.269   2.801  0.2168  0.7393 -0.2191
 6424SOL    HW325463   3.558   4.154   2.752 -0.0967  1.0988 -1.6802
 6424SOL    MW425464   3.548   4.226   2.800 -0.1494  0.0743 -0.0625
 6425SOL     OW25465   4.157   4.928   0.222 -0.0791  0.2980  0.5605
 6425SOL    HW225466   4.094   4.992   0.189  0.2278  0.6797  0.6999
 6425SOL    HW325467   4.206   4.976   0.289  0.1708 -0.0780  0.6467
 6425SOL    MW425468   4.155   4.943   0.226 -0.0056  0.2987  0.5903
 6426SOL     OW25469   0.813   1.001   2.291  0.1715  0.0881  0.1964
 6426SOL    HW225470   0.761   1.040   2.362 -0.6089  1.2228 -0.9495
 6426SOL    HW325471   0.835   0.913   2.323  0.4726  0.8179  2.1313
 6426SOL    MW425472   0.809   0.995   2.305  0.1083  0.3341  0.3005
 6427SOL     OW25473   1.179   0.696   0.942  0.0349 -0.5880 -0.1766
 6427SOL    HW225474   1.167   0.629   0.875 -0.9103 -1.3740  0.7380
 6427SOL    HW325475   1.193   0.777   0.893 -0.2472 -1.2081 -1.3142
 6427SOL    MW425476   1.179   0.698   0.927 -0.1270 -0.7735 -0.2060
 6428SOL     OW25477   3.461   3.020   1.106  0.1755  0.8192  0.2896
 6428SOL    HW225478   3.466   2.970   1.025 -0.0389  0.6878  0.3575
 6428SOL    HW325479   3.527   3.089   1.096 -0.4685  1.3615 -0.3878
 6428SOL    MW425480   3.471   3.023   1.094  0.0622  0.8734  0.2092
 6429SOL     OW25481   0.683   3.194   4.583  0.3063  0.4564  0.3985
 6429SOL    HW225482   0.728   3.110   4.593  1.4276  1.2100  2.1194
 6429SOL    HW325483   0.720   3.250   4.652 -3.5509  1.0294  2.2734
 6429SOL    MW425484   0.694   3.190   4.594 -0.0546  0.6314  0.8729
 6430SOL     OW25485   1.444   0.116   5.524  0.1564  0.0867  0.4148
 6430SOL    HW225486   1.389   0.194   5.521  0.8682  0.6328  1.0700
 6430SOL    HW325487   1.399   0.056   5.583 -0.3652  0.0146 -0.0464
 6430SOL    MW425488   1.431   0.119   5.531  0.1815  0.1492  0.4404
 6431SOL     OW25489   3.905   5.480   0.793 -0.3338  0.0910  0.4233
 6431SOL    HW225490   3.812   5.488   0.816 -0.3774 -0.8034  0.5915
 6431SOL    HW325491   3.913   5.393   0.754 -0.0555  1.1487 -2.0224
 6431SOL    MW425492   3.894   5.470   0.791 -0.3028  0.1126  0.1228
 6432SOL     OW25493   4.069   2.174   2.822 -0.4759 -0.1760  0.1646
 6432SOL    HW225494   4.088   2.181   2.728  2.0873 -0.9876  0.5300
 6432SOL    HW325495   4.080   2.263   2.855 -0.4801 -0.0541 -0.1552
 6432SOL    MW425496   4.073   2.187   2.814 -0.1383 -0.2670  0.1706
 6433SOL     OW25497   1.014   5.744   4.876 -0.3167 -0.1371  0.4721
 6433SOL    HW225498   1.110   5.748   4.883 -0.0804 -1.0672 -1.5490
 6433SOL    HW325499   0.996   5.652   4.856 -1.6114  0.0859  0.5754
 6433SOL    MW425500   1.024   5.732   4.874 -0.4564 -0.2304  0.2190
 6434SOL     OW25501   2.584   5.477   1.724 -0.1172  0.0675 -0.3027
 6434SOL    HW225502   2.518   5.498   1.657  1.2795  1.8164 -1.2202
 6434SOL    HW325503   2.609   5.387   1.705 -0.5613  0.1614 -1.4404
 6434SOL    MW425504   2.578   5.468   1.713  0.0085  0.3106 -0.5738
 6435SOL     OW25505   5.093   2.370   1.285  0.2257  0.5546  0.1720
 6435SOL    HW225506   5.118   2.462   1.278  0.9364  0.6445  2.7010
 6435SOL    HW325507   5.174   2.326   1.311 -0.3486 -0.6095  0.0312
 6435SOL    MW425508   5.107   2.377   1.288  0.2437  0.4129  0.4871
 6436SOL     OW25509   6.397   2.545   2.400  0.1699  0.1459  0.1873
 6436SOL    HW225510   6.377   2.560   2.492 -1.9334  2.6926 -0.5415
 6436SOL    HW325511   6.476   2.596   2.383  0.8663 -0.7608  0.6805
 6436SOL    MW425512   6.405   2.554   2.410 -0.0157  0.3623  0.1562
 6437SOL     OW25513   2.163   3.497   3.766  0.0805 -0.2885 -0.3354
 6437SOL    HW225514   2.151   3.406   3.737  0.6733 -0.5727  0.3036
 6437SOL    HW325515   2.131   3.549   3.692 -0.6247 -1.0108 -0.5586
 6437SOL    MW425516   2.157   3.492   3.752  0.0657 -0.4213 -0.2805
 6438SOL     OW25517   1.345   1.897   2.068  0.2394  0.3114 -0.3571
 6438SOL    HW225518   1.433   1.915   2.036  0.1516  0.5850 -0.4466
 6438SOL    HW325519   1.336   1.949   2.148 -0.3618  1.4657 -1.1491
 6438SOL    MW425520   1.355   1.906   2.074  0.1485  0.4998 -0.4734
 6439SOL     OW25521   4.349   0.057   2.837 -0.5165  0.1827 -0.2400
 6439SOL    HW225522   4.339   0.055   2.742  0.0366  2.2176 -0.3933
 6439SOL    HW325523   4.442   0.074   2.851 -0.7257  0.6627  0.6287
 6439SOL    MW425524   4.360   0.059   2.826 -0.4711  0.5145 -0.1456
 6440SOL     OW25525   6.345   4.972   6.017  0.3725 -0.2230  0.5498
 6440SOL    HW225526   6.365   4.977   5.923  1.5206 -0.5301  0.7593
 6440SOL    HW325527   6.250   4.980   6.022  0.4789  2.5273 -0.4352
 6440SOL    MW425528   6.335   4.973   6.005  0.5380  0.0993  0.4475
 6441SOL     OW25529   4.957   3.586   2.314  0.5102  0.3138 -0.2121
 6441SOL    HW225530   4.883   3.613   2.259 -0.3987  0.6460  1.1401
 6441SOL    HW325531   4.917   3.554   2.394  1.8315  0.0460  0.3605
 6441SOL    MW425532   4.942   3.585   2.317  0.5646  0.3223  0.0419
 6442SOL     OW25533   2.037   6.048   4.272 -0.6817 -1.3918  0.1431
 6442SOL    HW225534   2.114   6.094   4.305 -0.7950 -1.5393  0.6204
 6442SOL    HW325535   2.070   5.994   4.200 -0.3454 -1.4238  0.3192
 6442SOL    MW425536   2.052   6.047   4.267 -0.6523 -1.4155  0.2293
 6443SOL     OW25537   2.689   4.523   1.876 -0.1955 -0.2511  0.5651
 6443SOL    HW225538   2.652   4.539   1.963 -0.3991  0.0234  0.4277
 6443SOL    HW325539   2.732   4.605   1.853 -0.4838 -0.1903  0.2386
 6443SOL    MW425540   2.690   4.536   1.885 -0.2604 -0.2069  0.5039
 6444SOL     OW25541   2.501   4.749   3.655  0.2257 -0.3148 -0.0879
 6444SOL    HW225542   2.482   4.722   3.745 -0.3406  1.5827  0.3989
 6444SOL    HW325543   2.582   4.704   3.634  0.6689 -0.3663  1.5758
 6444SOL    MW425544   2.509   4.739   3.664  0.2095 -0.0713  0.1958
 6445SOL     OW25545   1.452   0.824   5.025  0.2331  0.1088 -0.3041
 6445SOL    HW225546   1.457   0.753   5.088 -1.0865 -0.2980 -0.6138
 6445SOL    HW325547   1.517   0.802   4.958  1.4843  0.4347  0.7801
 6445SOL    MW425548   1.461   0.812   5.024  0.2241  0.0981 -0.2019
 6446SOL     OW25549   1.586   4.090   5.279 -0.3056  0.4225  0.2651
 6446SOL    HW225550   1.498   4.054   5.285 -0.5002  0.8720  0.1770
 6446SOL    HW325551   1.573   4.181   5.251  0.1712  0.5569  0.4626
 6446SOL    MW425552   1.572   4.097   5.276 -0.2684  0.4995  0.2796
 6447SOL     OW25553   4.271   4.873   1.535  0.3231 -0.6191  0.3202
 6447SOL    HW225554   4.192   4.870   1.482  3.0086  1.8216 -4.5811
 6447SOL    HW325555   4.327   4.805   1.499  2.2905  1.1558 -0.2188
 6447SOL    MW425556   4.268   4.864   1.523  0.9370 -0.0629 -0.3976
 6448SOL     OW25557   4.709   3.791   5.020 -0.0189  0.0864  0.0332
 6448SOL    HW225558   4.642   3.821   4.959  1.3819  0.6939 -1.2962
 6448SOL    HW325559   4.674   3.812   5.106 -0.5674  2.5638 -0.7051
 6448SOL    MW425560   4.696   3.798   5.023  0.0935  0.4934 -0.2396
 6449SOL     OW25561   2.582   0.866   5.883  0.4482  0.6530  0.2547
 6449SOL    HW225562   2.657   0.893   5.936 -0.1788 -1.0772  2.1568
 6449SOL    HW325563   2.617   0.800   5.823  0.3897 -0.6435  1.5880
 6449SOL    MW425564   2.596   0.861   5.882  0.3577  0.2536  0.6816
 6450SOL     OW25565   4.023   4.827   2.171  0.0953 -0.1698 -0.3640
 6450SOL    HW225566   4.041   4.778   2.091  0.6210 -0.8509  0.1623
 6450SOL    HW325567   4.103   4.878   2.187  0.8968 -1.7130  0.9055
 6450SOL    MW425568   4.036   4.827   2.163  0.2704 -0.4633 -0.1271
 6451SOL     OW25569   0.843   2.889   3.151 -0.7275  0.2537  0.0100
 6451SOL    HW225570   0.913   2.849   3.100 -1.3854 -1.3027  0.2659
 6451SOL    HW325571   0.823   2.970   3.104  0.3561  0.0843 -0.7882
 6451SOL    MW425572   0.849   2.894   3.138 -0.6714  0.0260 -0.0616
 6452SOL     OW25573   5.073   5.902   3.658 -0.4625  0.7591 -0.2632
 6452SOL    HW225574   4.986   5.942   3.655 -1.6152 -1.5878 -2.3292
 6452SOL    HW325575   5.110   5.919   3.572 -0.1680 -0.7926 -0.4781
 6452SOL    MW425576   5.066   5.909   3.646 -0.5757  0.2448 -0.5642
 6453SOL     OW25577   1.414   5.454   6.332  0.2300 -0.4934 -0.0128
 6453SOL    HW225578   1.404   5.542   6.295  1.6334 -1.1224 -2.0749
 6453SOL    HW325579   1.401   5.466   6.426 -1.5187  1.5670 -0.4443
 6453SOL    MW425580   1.411   5.467   6.339  0.1845 -0.3046 -0.3418
 6454SOL     OW25581   3.897   5.298   3.189  0.7027  0.2905  0.0230
 6454SOL    HW225582   3.866   5.212   3.161 -1.4541  0.8837  0.3941
 6454SOL    HW325583   3.886   5.354   3.112  1.7203  0.3357 -0.0982
 6454SOL    MW425584   3.891   5.294   3.175  0.5524  0.3747  0.0559
 6455SOL     OW25585   1.268   1.985   5.788 -0.2069  0.0614 -0.1337
 6455SOL    HW225586   1.268   2.036   5.869  0.1549  0.3828 -0.3326
 6455SOL    HW325587   1.237   1.898   5.814  1.7409 -0.4206  0.7359
 6455SOL    MW425588   1.264   1.980   5.802  0.0978  0.0402 -0.0452
 6456SOL     OW25589   6.259   4.767   4.881  0.0545  0.0927  0.0805
 6456SOL    HW225590   6.254   4.792   4.788 -2.6109  0.7194  0.2953
 6456SOL    HW325591   6.167   4.754   4.906  0.7794 -0.9372  2.4246
 6456SOL    MW425592   6.246   4.768   4.872 -0.2015  0.0395  0.4181
 6457SOL     OW25593   1.166   5.377   6.213 -0.5951  0.2661  0.9206
 6457SOL    HW225594   1.170   5.299   6.158 -0.5378  1.4386 -0.8117
 6457SOL    HW325595   1.249   5.378   6.260  0.2032  0.2148 -0.4224
 6457SOL    MW425596   1.177   5.367   6.212 -0.4822  0.4140  0.5149
 6458SOL     OW25597   4.500   1.410   0.395 -0.0148  0.7900  0.3250
 6458SOL    HW225598   4.406   1.424   0.386  0.2349  1.5771 -1.4396
 6458SOL    HW325599   4.537   1.438   0.311  1.8955  1.4183  1.3040
 6458SOL    MW425600   4.493   1.416   0.383  0.2702  0.9768  0.2214
 6459SOL     OW25601   4.846   4.044   3.911  0.0969  0.4377 -0.0393
 6459SOL    HW225602   4.795   4.080   3.984 -1.5092  2.7649 -2.1364
 6459SOL    HW325603   4.785   3.987   3.865  0.7548 -0.1391 -0.2105
 6459SOL    MW425604   4.831   4.041   3.915 -0.0282  0.6687 -0.3386
 6460SOL     OW25605   4.550   3.554   1.149  0.4323  0.4279 -0.1634
 6460SOL    HW225606   4.505   3.497   1.087  0.7388 -0.5316  0.4822
 6460SOL    HW325607   4.562   3.501   1.228  0.3384  1.5193  0.6143
 6460SOL    MW425608   4.546   3.540   1.151  0.4604  0.4453  0.0244
 6461SOL     OW25609   5.248   5.780   4.493 -0.1044 -0.5462 -0.3063
 6461SOL    HW225610   5.301   5.726   4.551  0.0361 -1.0891 -0.9365
 6461SOL    HW325611   5.285   5.767   4.406  0.7328  1.5197 -0.3160
 6461SOL    MW425612   5.260   5.771   4.489  0.0246 -0.3452 -0.3907
 6462SOL     OW25613   5.902   3.857   2.536  0.1615  0.6875  0.0635
 6462SOL    HW225614   5.969   3.879   2.471 -0.0604 -1.6488 -1.0653
 6462SOL    HW325615   5.948   3.803   2.600 -0.1092  1.1478  0.6523
 6462SOL    MW425616   5.917   3.853   2.536  0.0965  0.4400 -0.0077
 6463SOL     OW25617   6.202   6.025   1.523  0.3008  0.1245  0.2337
 6463SOL    HW225618   6.206   6.074   1.606  0.2628  0.4221  0.0606
 6463SOL    HW325619   6.237   5.939   1.545  1.9660  0.7393  0.1740
 6463SOL    MW425620   6.207   6.020   1.537  0.5155  0.2449  0.2030
 6464SOL     OW25621   3.769   1.880   4.515 -0.3796  0.2012 -0.4406
 6464SOL    HW225622   3.777   1.969   4.549  0.5945 -0.2022  0.4056
 6464SOL    HW325623   3.696   1.842   4.564  1.0452 -0.3939  1.2975
 6464SOL    MW425624   3.760   1.887   4.526 -0.0631  0.0694 -0.0996
 6465SOL     OW25625   1.657   6.080   5.102  0.1616  0.3631 -0.2929
 6465SOL    HW225626   1.579   6.053   5.151 -0.3242 -0.5911 -1.5278
 6465SOL    HW325627   1.623   6.111   5.018  1.1571 -1.6280 -1.5012
 6465SOL    MW425628   1.642   6.080   5.097  0.2288 -0.0255 -0.6152
 6466SOL     OW25629   2.199   1.885   5.392 -0.1640 -0.1871  0.4178
 6466SOL    HW225630   2.208   1.905   5.485  0.5293 -0.6346  0.4523
 6466SOL    HW325631   2.280   1.840   5.369 -0.3600 -0.1423 -0.3895
 6466SOL    MW425632   2.211   1.881   5.401 -0.0984 -0.2403  0.3158
 6467SOL     OW25633   5.123   4.061   5.445  0.4169 -0.7041  0.0823
 6467SOL    HW225634   5.176   4.027   5.373 -1.6359 -2.8608 -0.4974
 6467SOL    HW325635   5.069   4.129   5.405  0.2448 -0.9577 -0.1188
 6467SOL    MW425636   5.123   4.066   5.430  0.1234 -1.0221 -0.0207
 6468SOL     OW25637   5.193   1.639   5.135 -0.0971  0.3921  0.1907
 6468SOL    HW225638   5.128   1.691   5.182  0.2815  0.1546  0.9788
 6468SOL    HW325639   5.142   1.566   5.099 -0.5766  1.1220 -0.6816
 6468SOL    MW425640   5.178   1.636   5.136 -0.1104  0.4571  0.1796
 6469SOL     OW25641   5.155   5.088   0.786  0.0760 -0.0846  0.0443
 6469SOL    HW225642   5.206   5.088   0.705  0.5087 -1.8027  0.2688
 6469SOL    HW325643   5.064   5.084   0.758  0.2603 -1.9793 -0.4007
 6469SOL    MW425644   5.150   5.087   0.772  0.1574 -0.5612  0.0152
 6470SOL     OW25645   0.468   1.838   6.244  0.4645 -0.0521 -0.5632
 6470SOL    HW225646   0.486   1.807   6.155  0.1000 -1.5515 -0.1429
 6470SOL    HW325647   0.373   1.837   6.252  0.5190 -0.9050  0.1555
 6470SOL    MW425648   0.458   1.834   6.233  0.4236 -0.3625 -0.4129
 6471SOL     OW25649   6.093   4.555   6.020 -0.0612 -0.0462  0.0811
 6471SOL    HW225650   6.084   4.632   5.963 -0.5385  1.1280  1.6779
 6471SOL    HW325651   6.184   4.528   6.011  0.0630  0.5912 -0.6290
 6471SOL    MW425652   6.104   4.561   6.011 -0.1078  0.1928  0.1981
 6472SOL     OW25653   1.151   6.056   0.132 -0.9544  0.6757 -0.2224
 6472SOL    HW225654   1.064   6.096   0.141 -0.2644  1.9651  1.3644
 6472SOL    HW325655   1.184   6.052   0.222  0.2685 -0.6539 -0.7027
 6472SOL    MW425656   1.144   6.061   0.145 -0.7021  0.6704 -0.0764
 6473SOL     OW25657   2.377   2.442   2.380 -0.2141 -0.5879 -0.0570
 6473SOL    HW225658   2.341   2.493   2.453  0.8132 -1.0852  0.8133
 6473SOL    HW325659   2.403   2.508   2.316 -1.2681 -0.1511 -0.0596
 6473SOL    MW425660   2.375   2.457   2.381 -0.2176 -0.5959  0.0575
 6474SOL     OW25661   2.864   5.981   5.926 -0.0900  0.1697 -0.0046
 6474SOL    HW225662   2.908   6.061   5.899  1.6144 -0.4385  0.8804
 6474SOL    HW325663   2.846   5.934   5.844  0.0114  0.8708 -0.4331
 6474SOL    MW425664   2.867   5.985   5.911  0.1483  0.1820  0.0556
 6475SOL     OW25665   2.246   0.377   2.988  0.1741 -0.4696 -0.0974
 6475SOL    HW225666   2.195   0.327   3.052 -0.4256  2.8792  2.3433
 6475SOL    HW325667   2.183   0.401   2.920  0.3486 -2.4158 -1.0050
 6475SOL    MW425668   2.231   0.373   2.988  0.1180 -0.2846  0.1049
 6476SOL     OW25669   0.695   0.505   4.242  0.0126 -0.2285  0.3133
 6476SOL    HW225670   0.694   0.598   4.261 -1.4393 -0.3654  0.9687
 6476SOL    HW325671   0.657   0.463   4.319  1.6707 -1.4797  0.5151
 6476SOL    MW425672   0.690   0.511   4.255  0.0398 -0.4117  0.4264
 6477SOL     OW25673   1.296   0.214   1.516  0.5685 -0.2557 -0.0953
 6477SOL    HW225674   1.225   0.157   1.487 -0.7131  2.2231 -2.3654
 6477SOL    HW325675   1.266   0.249   1.600 -0.1003 -0.5230 -0.2161
 6477SOL    MW425676   1.283   0.211   1.523  0.3111  0.0361 -0.4108
 6478SOL     OW25677   1.285   4.504   5.216 -0.1978  0.4052  0.0928
 6478SOL    HW225678   1.267   4.578   5.158 -0.4181  0.2641 -0.0217
 6478SOL    HW325679   1.323   4.543   5.295 -4.8139  1.3232  2.2529
 6478SOL    MW425680   1.287   4.519   5.219 -0.8359  0.5077  0.3627
 6479SOL     OW25681   5.079   1.088   1.277 -0.0420  0.8234 -0.7239
 6479SOL    HW225682   5.042   1.115   1.361 -1.0744 -1.3858 -0.4044
 6479SOL    HW325683   5.156   1.037   1.300 -0.0463  0.6191 -1.1556
 6479SOL    MW425684   5.085   1.085   1.291 -0.1787  0.5050 -0.7387
 6480SOL     OW25685   0.739   1.701   3.325 -0.0793 -0.2297  0.6981
 6480SOL    HW225686   0.820   1.718   3.374 -0.3579 -1.3835  1.5856
 6480SOL    HW325687   0.718   1.610   3.343 -2.5637  0.5104  1.9617
 6480SOL    MW425688   0.747   1.691   3.334 -0.4438 -0.2843  0.9819
 6481SOL     OW25689   2.646   3.919   2.948  0.0305 -0.1803 -0.3161
 6481SOL    HW225690   2.574   3.867   2.914 -0.1313 -0.8895  1.0215
 6481SOL    HW325691   2.603   3.987   3.000  0.3035 -0.3788  0.1773
 6481SOL    MW425692   2.631   3.921   2.951  0.0452 -0.3001 -0.0745
 6482SOL     OW25693   1.606   3.048   0.306 -0.4179 -0.5185 -0.1657
 6482SOL    HW225694   1.517   3.026   0.335 -0.4349 -1.6864 -1.0252
 6482SOL    HW325695   1.649   3.083   0.384 -1.6854  0.2635  0.2120
 6482SOL    MW425696   1.600   3.050   0.320 -0.5874 -0.5694 -0.2293
 6483SOL     OW25697   3.705   2.424   1.989 -0.2194  0.5148  0.6381
 6483SOL    HW225698   3.697   2.384   2.076 -1.7343  1.6493  1.0522
 6483SOL    HW325699   3.737   2.512   2.006  1.2483  0.1727 -0.1364
 6483SOL    MW425700   3.708   2.430   2.002 -0.2256  0.6194  0.5906
 6484SOL     OW25701   1.526   2.801   4.316 -0.2432 -0.0633 -0.1907
 6484SOL    HW225702   1.550   2.894   4.324 -0.4788 -0.0651  0.6182
 6484SOL    HW325703   1.594   2.755   4.365  0.0273 -0.3451 -0.8263
 6484SOL    MW425704   1.538   2.807   4.324 -0.2386 -0.1007 -0.1679
 6485SOL     OW25705   3.012   0.938   2.320 -0.4385 -0.2514  1.0069
 6485SOL    HW225706   3.087   0.990   2.348 -2.1126  1.7697  1.9615
 6485SOL    HW325707   2.964   0.919   2.400 -2.0413  0.2711  0.2110
 6485SOL    MW425708   3.016   0.942   2.334 -0.8709  0.0842  1.0278
 6486SOL     OW25709   4.287   1.738   1.920  0.7117 -0.0670 -0.2276
 6486SOL    HW225710   4.256   1.671   1.980  0.0638  0.1406 -0.3252
 6486SOL    HW325711   4.358   1.695   1.871  1.8420  0.0247  1.2546
 6486SOL    MW425712   4.293   1.724   1.921  0.7754 -0.0275 -0.0450
 6487SOL     OW25713   5.187   2.953   1.905 -0.0220  0.3080  1.2165
 6487SOL    HW225714   5.201   2.947   1.811  2.7525 -0.4839  1.5861
 6487SOL    HW325715   5.180   3.047   1.923  0.3462  0.5096  0.3247
 6487SOL    MW425716   5.188   2.965   1.895  0.3926  0.2301  1.1476
 6488SOL     OW25717   0.696   1.100   6.145 -0.1816  0.2853  0.1040
 6488SOL    HW225718   0.646   1.047   6.208  0.9236  0.0562  0.8142
 6488SOL    HW325719   0.787   1.091   6.173  0.3199  0.3311 -1.4323
 6488SOL    MW425720   0.701   1.092   6.157  0.0304  0.2611 -0.0050
 6489SOL     OW25721   2.034   0.242   3.289 -0.2921  0.1784 -0.6354
 6489SOL    HW225722   2.113   0.187   3.290 -1.4792 -1.7900 -3.2090
 6489SOL    HW325723   1.988   0.217   3.369  0.6959 -0.2072 -0.1587
 6489SOL    MW425724   2.038   0.231   3.299 -0.3184 -0.1322 -0.9121
 6490SOL     OW25725   5.626   0.675   3.386 -0.0476 -0.2514  0.4409
 6490SOL    HW225726   5.567   0.650   3.457  0.3629 -0.8777  0.5747
 6490SOL    HW325727   5.714   0.660   3.422  0.1603 -0.9580 -0.3282
 6490SOL    MW425728   5.630   0.669   3.400  0.0340 -0.4273  0.3571
 6491SOL     OW25729   3.417   5.764   2.001 -0.3541 -0.1844 -0.4429
 6491SOL    HW225730   3.456   5.846   2.032 -0.2136  0.0272 -1.1708
 6491SOL    HW325731   3.327   5.786   1.979  0.1178  0.1830 -2.1907
 6491SOL    MW425732   3.411   5.778   2.002 -0.2733 -0.1080 -0.7695
 6492SOL     OW25733   5.176   2.299   0.035  0.0092 -0.1383  0.2051
 6492SOL    HW225734   5.120   2.315  -0.041 -1.3702 -0.4419  1.1338
 6492SOL    HW325735   5.175   2.204   0.047  3.4163 -0.6169 -1.7018
 6492SOL    MW425736   5.169   2.289   0.026  0.2767 -0.2415  0.0761
 6493SOL     OW25737   1.715   0.671   2.069  0.5131  0.2557 -0.2296
 6493SOL    HW225738   1.736   0.763   2.088  1.2585  0.1017 -0.2878
 6493SOL    HW325739   1.756   0.654   1.985 -0.5695  0.1768 -0.7625
 6493SOL    MW425740   1.723   0.681   2.060  0.4686  0.2250 -0.3076
 6494SOL     OW25741   5.575   5.802   5.370 -0.3743 -0.4578  0.3777
 6494SOL    HW225742   5.621   5.731   5.415 -2.7672 -0.5674  2.8681
 6494SOL    HW325743   5.588   5.879   5.426 -1.8830 -0.1426  0.3276
 6494SOL    MW425744   5.583   5.803   5.383 -0.8891 -0.4307  0.6997
 6495SOL     OW25745   1.908   6.198   4.508  0.0894  0.3483  0.5956
 6495SOL    HW225746   1.952   6.162   4.431 -1.3775 -1.8315  0.6639
 6495SOL    HW325747   1.976   6.246   4.555  1.3739  0.4787 -1.2873
 6495SOL    MW425748   1.923   6.200   4.504  0.0654  0.0779  0.3562
 6496SOL     OW25749   1.776   4.351   2.324 -0.0245 -0.3547 -0.1550
 6496SOL    HW225750   1.747   4.286   2.261 -0.7565 -0.5889  0.4085
 6496SOL    HW325751   1.840   4.306   2.379  0.4369 -0.2176 -0.5694
 6496SOL    MW425752   1.781   4.337   2.323 -0.0602 -0.3675 -0.1353
 6497SOL     OW25753   6.121   1.198   4.227 -0.5204 -0.8492  0.0716
 6497SOL    HW225754   6.100   1.244   4.308 -1.3288 -0.7702 -0.1744
 6497SOL    HW325755   6.092   1.108   4.242 -0.2498 -0.9422  0.0382
 6497SOL    MW425756   6.114   1.192   4.239 -0.5914 -0.8510  0.0348
 6498SOL     OW25757   0.131   0.922   2.524 -1.0994  0.4373  0.3261
 6498SOL    HW225758   0.180   0.925   2.607  0.8622  1.3248 -0.7748
 6498SOL    HW325759   0.183   0.865   2.468 -1.9559  0.4940 -0.5453
 6498SOL    MW425760   0.145   0.915   2.528 -0.9536  0.5619  0.0659
 6499SOL     OW25761   6.300   5.348   0.281  0.4848 -0.9586  0.3865
 6499SOL    HW225762   6.332   5.258   0.283  0.6724 -1.1029 -3.2667
 6499SOL    HW325763   6.220   5.344   0.228  0.7543  1.0717 -0.2608
 6499SOL    MW425764   6.293   5.336   0.274  0.5451 -0.7097 -0.1809
 6500SOL     OW25765   0.571   4.492   0.134  0.6857  0.5469  0.2650
 6500SOL    HW225766   0.604   4.405   0.156  0.3470  0.0545 -1.1156
 6500SOL    HW325767   0.500   4.476   0.071 -0.5481  1.7177  1.2808
 6500SOL    MW425768   0.566   4.479   0.129  0.4782  0.6364  0.2169
 6501SOL     OW25769   4.818   0.149   5.317  0.2436 -0.3647  0.1536
 6501SOL    HW225770   4.912   0.131   5.324  0.7434  1.5351 -0.9677
 6501SOL    HW325771   4.793   0.182   5.403  0.8132 -0.0913  0.2186
 6501SOL    MW425772   4.827   0.151   5.329  0.3847 -0.0780  0.0142
 6502SOL     OW25773   2.487   1.083   0.017 -0.0692  0.3468 -0.1086
 6502SOL    HW225774   2.537   1.039  -0.051 -0.4898 -2.0990  1.0417
 6502SOL    HW325775   2.400   1.093  -0.021  0.2826  1.1095 -0.7369
 6502SOL    MW425776   2.482   1.078   0.003 -0.0783  0.1247 -0.0398
 6503SOL     OW25777   5.576   3.913   3.156  0.6841 -0.4243 -0.1283
 6503SOL    HW225778   5.563   3.832   3.106  0.3208 -0.9121  0.7373
 6503SOL    HW325779   5.567   3.887   3.247  0.0292  0.6984  0.1489
 6503SOL    MW425780   5.573   3.899   3.161  0.5497 -0.3405  0.0225
 6504SOL     OW25781   5.579   2.594   1.014 -0.8994 -0.1301  0.2253
 6504SOL    HW225782   5.610   2.517   0.967  2.9343  0.7477  0.9377
 6504SOL    HW325783   5.612   2.668   0.964 -0.9280  0.9214  1.6880
 6504SOL    MW425784   5.588   2.593   1.001 -0.3974  0.1244  0.5123
 6505SOL     OW25785   0.114   5.449   0.385  0.1082  0.6014  0.7310
 6505SOL    HW225786   0.169   5.443   0.307 -0.4054 -2.0330  0.4769
 6505SOL    HW325787   0.031   5.408   0.360  1.3253 -4.4783  3.6811
 6505SOL    MW425788   0.110   5.443   0.372  0.2010 -0.4164  1.0867
 6506SOL     OW25789   2.805   0.047   1.503 -0.3549  0.0453  0.5785
 6506SOL    HW225790   2.884   0.029   1.453 -0.6068  0.5491 -0.0177
 6506SOL    HW325791   2.746   0.090   1.440 -0.0297  2.2985  1.6919
 6506SOL    MW425792   2.808   0.050   1.488 -0.3452  0.4090  0.6467
 6507SOL     OW25793   6.065   4.687   0.569 -0.3593  0.4141 -0.2412
 6507SOL    HW225794   5.971   4.667   0.560 -0.7427  1.3661  1.3155
 6507SOL    HW325795   6.093   4.710   0.480 -1.9534  1.4918 -0.5163
 6507SOL    MW425796   6.056   4.687   0.556 -0.6202  0.6819 -0.0721
 6508SOL     OW25797   2.357   5.245   1.369 -0.5831  0.2736  0.1830
 6508SOL    HW225798   2.269   5.238   1.334 -0.2142  1.1110 -0.9417
 6508SOL    HW325799   2.381   5.154   1.391 -0.2610 -0.5862 -3.1771
 6508SOL    MW425800   2.349   5.232   1.368 -0.4919  0.2707 -0.4087
 6509SOL     OW25801   0.165   3.459   6.085 -0.3866  0.1733 -0.1621
 6509SOL    HW225802   0.235   3.493   6.028 -1.5140  0.7713 -1.2595
 6509SOL    HW325803   0.206   3.448   6.170  0.6875  1.8974 -0.4126
 6509SOL    MW425804   0.179   3.462   6.088 -0.3936  0.4796 -0.3399
 6510SOL     OW25805   2.643   6.198   6.412 -0.1498 -0.0990 -0.2393
 6510SOL    HW225806   2.630   6.293   6.402 -1.0362 -0.4038 -2.6197
 6510SOL    HW325807   2.704   6.175   6.343 -0.0715 -1.3033  0.2141
 6510SOL    MW425808   2.649   6.208   6.402 -0.2564 -0.2981 -0.4936
 6511SOL     OW25809   4.439   5.630   5.368 -0.5969 -0.2821 -0.1309
 6511SOL    HW225810   4.466   5.721   5.378 -0.3865 -0.3966  0.4021
 6511SOL    HW325811   4.469   5.587   5.449  1.7307 -1.4175 -1.4619
 6511SOL    MW425812   4.447   5.636   5.380 -0.2620 -0.4470 -0.2362
 6512SOL     OW25813   5.131   4.636   1.522  0.1990 -0.1397 -0.6081
 6512SOL    HW225814   5.199   4.688   1.563  0.1396 -0.0709 -0.5976
 6512SOL    HW325815   5.097   4.580   1.592 -0.2182  0.2990 -0.4485
 6512SOL    MW425816   5.135   4.635   1.536  0.1361 -0.0727 -0.5856
 6513SOL     OW25817   1.311   4.560   0.917  0.1224  0.1148  0.7283
 6513SOL    HW225818   1.227   4.589   0.953  0.1378  1.4069 -0.2204
 6513SOL    HW325819   1.345   4.499   0.982 -0.8571  0.7215  1.8437
 6513SOL    MW425820   1.304   4.556   0.930 -0.0048  0.3653  0.7503
 6514SOL     OW25821   4.918   6.353   3.441  0.1180  0.1020 -0.2443
 6514SOL    HW225822   4.825   6.369   3.453  0.1304 -0.0178  0.0226
 6514SOL    HW325823   4.961   6.425   3.486  0.1561  0.1094 -0.2921
 6514SOL    MW425824   4.912   6.365   3.448  0.1247  0.0872 -0.2154
 6515SOL     OW25825   2.167   4.180   5.970  0.2834 -0.0272 -0.0732
 6515SOL    HW225826   2.078   4.210   5.949  0.5432  1.0566  0.3262
 6515SOL    HW325827   2.154   4.096   6.014 -0.4320 -0.8191 -1.6960
 6515SOL    MW425828   2.153   4.173   5.973  0.2233  0.0113 -0.2346
 6516SOL     OW25829   5.597   4.740   2.694 -0.2012  0.3398  0.3856
 6516SOL    HW225830   5.624   4.684   2.622 -0.7330 -0.9250  1.1435
 6516SOL    HW325831   5.522   4.695   2.734  0.2856  0.8124  1.9265
 6516SOL    MW425832   5.591   4.727   2.690 -0.2071  0.2353  0.6889
 6517SOL     OW25833   0.988   3.908   1.171 -0.3494  0.3037 -0.0440
 6517SOL    HW225834   0.982   3.925   1.265  0.3147 -0.1567  0.0921
 6517SOL    HW325835   0.988   3.812   1.164 -0.6697  0.3358 -0.5353
 6517SOL    MW425836   0.988   3.897   1.182 -0.3041  0.2472 -0.0908
 6518SOL     OW25837   0.881   2.833   4.308  0.4397  0.3625 -0.1002
 6518SOL    HW225838   0.949   2.899   4.296  0.7618  0.1510  0.4772
 6518SOL    HW325839   0.886   2.778   4.230  2.2682 -0.8120  0.7486
 6518SOL    MW425840   0.891   2.834   4.296  0.7235  0.1796  0.0880
 6519SOL     OW25841   5.266   4.938   2.358  0.2963  0.1129 -0.5945
 6519SOL    HW225842   5.287   4.983   2.276  0.2769  0.4608 -0.4130
 6519SOL    HW325843   5.343   4.951   2.413 -0.1680  0.9498 -0.1145
 6519SOL    MW425844   5.279   4.946   2.355  0.2325  0.2692 -0.5073
 6520SOL     OW25845   5.671   3.197   3.440  0.2977 -0.0913  0.1052
 6520SOL    HW225846   5.766   3.195   3.450  0.4724 -1.9387 -1.3619
 6520SOL    HW325847   5.638   3.202   3.529  1.7594  0.7920  0.6391
 6520SOL    MW425848   5.679   3.197   3.453  0.5136 -0.2185 -0.0180
 6521SOL     OW25849   1.281   0.820   0.047  0.2030  0.3645 -0.0276
 6521SOL    HW225850   1.306   0.898   0.096 -0.4707 -0.3306  1.4743
 6521SOL    HW325851   1.187   0.829   0.034  0.1225 -0.1853  0.1450
 6521SOL    MW425852   1.272   0.832   0.052  0.1035  0.2003  0.1933
 6522SOL     OW25853   6.032   2.860   4.376 -0.0191  0.1645  0.3662
 6522SOL    HW225854   6.124   2.853   4.404  0.9297 -2.6843 -2.7990
 6522SOL    HW325855   5.986   2.796   4.431  0.4881 -0.5062  0.0252
 6522SOL    MW425856   6.038   2.851   4.387  0.1730 -0.2999 -0.0964
 6523SOL     OW25857   5.049   5.487   1.728 -0.3449 -0.3813 -0.3525
 6523SOL    HW225858   4.971   5.541   1.720 -0.1356 -0.1530 -0.9598
 6523SOL    HW325859   5.048   5.456   1.818  0.1734  1.6440  0.4238
 6523SOL    MW425860   5.039   5.490   1.739 -0.2489 -0.0839 -0.3302
 6524SOL     OW25861   1.836   0.968   1.010  0.1033  0.7195  0.1398
 6524SOL    HW225862   1.930   0.958   1.027 -0.2569 -0.6060  1.6721
 6524SOL    HW325863   1.822   1.062   1.010  1.3782  0.9385  0.2886
 6524SOL    MW425864   1.847   0.979   1.013  0.2240  0.5735  0.3616
 6525SOL     OW25865   3.414   0.574   0.583 -0.0724  0.0385 -0.9778
 6525SOL    HW225866   3.404   0.646   0.645 -1.2763  0.3506 -1.5177
 6525SOL    HW325867   3.327   0.562   0.546  0.7386  0.2275 -3.0379
 6525SOL    MW425868   3.401   0.582   0.587 -0.1242  0.1046 -1.3209
 6526SOL     OW25869   4.567   0.363   0.873  0.1644 -0.7362 -0.3473
 6526SOL    HW225870   4.550   0.366   0.779  1.8936  0.8438 -0.6551
 6526SOL    HW325871   4.643   0.305   0.882 -0.1520 -1.0892  0.1242
 6526SOL    MW425872   4.575   0.356   0.861  0.3508 -0.5743 -0.3257
 6527SOL     OW25873   3.619   2.577   2.494  0.6258 -0.8088 -0.2402
 6527SOL    HW225874   3.655   2.639   2.430  0.0108 -0.2154 -0.0224
 6527SOL    HW325875   3.567   2.516   2.441 -0.5867  0.1874 -0.2433
 6527SOL    MW425876   3.617   2.577   2.478  0.3847 -0.5991 -0.2118
 6528SOL     OW25877   0.636   2.081   6.349 -0.1738 -0.2255 -0.2199
 6528SOL    HW225878   0.562   2.138   6.327  1.1009  1.3099 -0.7532
 6528SOL    HW325879   0.612   1.995   6.314 -2.0151  0.0428  0.3000
 6528SOL    MW425880   0.623   2.077   6.341 -0.2486  0.0125 -0.2217
 6529SOL     OW25881   2.428   4.933   5.073 -0.3758  0.0085 -0.6758
 6529SOL    HW225882   2.425   4.841   5.045 -0.5201  0.1505 -1.1297
 6529SOL    HW325883   2.338   4.963   5.065 -0.4217  0.0500 -0.0428
 6529SOL    MW425884   2.416   4.925   5.068 -0.4009  0.0327 -0.6522
 6530SOL     OW25885   3.902   3.464   0.528 -0.1366  0.2758  0.1846
 6530SOL    HW225886   3.992   3.432   0.531 -0.3001 -0.3510 -1.0454
 6530SOL    HW325887   3.849   3.392   0.562 -0.2934  0.1507 -0.3271
 6530SOL    MW425888   3.907   3.450   0.533 -0.1789  0.1766 -0.0452
 6531SOL     OW25889   0.528   0.218   4.307 -0.2855 -0.2879  0.8494
 6531SOL    HW225890   0.432   0.221   4.314 -0.2403 -0.8765  1.9193
 6531SOL    HW325891   0.559   0.260   4.387  0.3965  1.7742 -0.4258
 6531SOL    MW425892   0.519   0.224   4.318 -0.1896 -0.0935  0.8223
 6532SOL     OW25893   2.156   0.417   3.461 -0.3165 -0.3081 -0.0038
 6532SOL    HW225894   2.152   0.357   3.536 -2.0814 -1.2995 -0.8237
 6532SOL    HW325895   2.120   0.366   3.389 -0.5793  1.3227 -1.0518
 6532SOL    MW425896   2.151   0.402   3.462 -0.5840 -0.2237 -0.2502
 6533SOL     OW25897   1.331   2.055   1.207  0.5864  0.1687 -0.0833
 6533SOL    HW225898   1.363   1.980   1.257 -0.4196 -0.4854 -0.3925
 6533SOL    HW325899   1.398   2.069   1.141  0.1567 -1.3381 -0.8852
 6533SOL    MW425900   1.344   2.047   1.205  0.3970 -0.1164 -0.2299
 6534SOL     OW25901   4.507   6.046   6.315 -0.0554 -0.4745  0.1190
 6534SOL    HW225902   4.549   5.960   6.323 -0.7795 -1.0047 -1.5106
 6534SOL    HW325903   4.577   6.104   6.285  0.5095 -0.3936  1.5081
 6534SOL    MW425904   4.522   6.043   6.312 -0.0764 -0.5338  0.0873
 6535SOL     OW25905   5.187   2.110   0.571  0.8585 -0.5614 -0.5380
 6535SOL    HW225906   5.223   2.047   0.634 -2.2834 -0.9505  1.1223
 6535SOL    HW325907   5.176   2.190   0.622 -1.1173 -0.6763 -0.7154
 6535SOL    MW425908   5.190   2.112   0.586  0.1833 -0.6279 -0.3424
 6536SOL     OW25909   6.348   5.577   4.795  0.0066  0.1093  0.6128
 6536SOL    HW225910   6.310   5.496   4.828 -1.1491 -0.2162 -1.3301
 6536SOL    HW325911   6.429   5.589   4.846 -1.4030 -0.5176  3.1471
 6536SOL    MW425912   6.354   5.568   4.806 -0.3319 -0.0163  0.6908
 6537SOL     OW25913   0.468   2.900   2.164 -0.0145 -0.4199  0.0164
 6537SOL    HW225914   0.420   2.917   2.245  0.8714  0.5663  0.3680
 6537SOL    HW325915   0.406   2.920   2.094  0.4206  3.0093  0.4263
 6537SOL    MW425916   0.454   2.905   2.165  0.1598  0.1626  0.1169
 6538SOL     OW25917   5.182   5.146   0.198 -0.3043 -0.0907 -0.4237
 6538SOL    HW225918   5.257   5.093   0.171 -0.5246 -0.5186 -0.2032
 6538SOL    HW325919   5.221   5.227   0.231  0.0389 -0.1473 -0.6849
 6538SOL    MW425920   5.197   5.150   0.199 -0.2881 -0.1546 -0.4290
 6539SOL     OW25921   4.339   2.794   2.477  0.1894  0.0525  0.0146
 6539SOL    HW225922   4.395   2.758   2.545 -1.6347 -0.6622  1.2044
 6539SOL    HW325923   4.378   2.880   2.458  0.2812  0.6823  2.6137
 6539SOL    MW425924   4.352   2.801   2.483 -0.0392  0.0413  0.5145
 6540SOL     OW25925   3.881   5.972   0.573 -0.1748  0.1885  0.4719
 6540SOL    HW225926   3.915   5.993   0.660  4.2038  1.5681 -1.3366
 6540SOL    HW325927   3.905   5.881   0.559 -0.9278 -0.0501  0.6613
 6540SOL    MW425928   3.888   5.963   0.583  0.3036  0.3390  0.2583
 6541SOL     OW25929   2.784   2.491   1.212 -0.6135 -0.3518  0.2009
 6541SOL    HW225930   2.784   2.400   1.185  1.9415 -0.7167  1.1373
 6541SOL    HW325931   2.757   2.489   1.304  0.2667 -0.2925  0.4699
 6541SOL    MW425932   2.780   2.479   1.220 -0.1603 -0.3921  0.3600
 6542SOL     OW25933   6.272   3.311   1.252 -0.3911  0.1732 -0.1186
 6542SOL    HW225934   6.188   3.312   1.206  1.0807  2.3009 -3.0953
 6542SOL    HW325935   6.301   3.402   1.253  0.8911 -0.1389  2.9519
 6542SOL    MW425936   6.265   3.323   1.246 -0.0277  0.4128 -0.1062
 6543SOL     OW25937   3.653   2.580   1.014 -0.0195  0.5520 -0.0423
 6543SOL    HW225938   3.559   2.570   0.999  0.4372 -1.1025 -2.2676
 6543SOL    HW325939   3.668   2.535   1.097 -0.9963 -0.5984 -0.4472
 6543SOL    MW425940   3.643   2.573   1.023 -0.0882  0.1819 -0.3893
 6544SOL     OW25941   5.201   2.457   2.273  0.4160 -0.0751 -0.3327
 6544SOL    HW225942   5.234   2.455   2.363 -0.9094 -0.0338  0.1710
 6544SOL    HW325943   5.201   2.365   2.246  1.5643 -0.0156 -0.5928
 6544SOL    MW425944   5.205   2.445   2.281  0.3926 -0.0618 -0.3005
 6545SOL     OW25945   3.552   2.715   3.997  0.1294  0.3393 -0.1865
 6545SOL    HW225946   3.612   2.649   3.963  0.6477  0.0858  1.1517
 6545SOL    HW325947   3.493   2.667   4.055  0.5195  1.0174  0.8117
 6545SOL    MW425948   3.553   2.700   4.000  0.2492  0.3953  0.1217
 6546SOL     OW25949   0.424   6.185   1.194 -0.3982 -0.5411 -0.2531
 6546SOL    HW225950   0.442   6.197   1.287 -0.6591  0.0897 -0.2775
 6546SOL    HW325951   0.497   6.227   1.150 -1.7296  1.8063 -0.3485
 6546SOL    MW425952   0.436   6.192   1.201 -0.6083 -0.1482 -0.2689
 6547SOL     OW25953   1.917   4.155   4.760  0.4988 -0.2487 -0.3413
 6547SOL    HW225954   1.909   4.088   4.692  1.8558 -0.9588  0.1624
 6547SOL    HW325955   2.006   4.189   4.751  0.4539  0.1682  0.6035
 6547SOL    MW425956   1.927   4.151   4.750  0.6719 -0.2874 -0.1502
 6548SOL     OW25957   5.730   4.078   2.156  0.3318 -0.4394 -0.3045
 6548SOL    HW225958   5.718   4.141   2.226  0.1786 -0.0509 -0.6753
 6548SOL    HW325959   5.821   4.049   2.165  0.4881  0.0397 -0.2986
 6548SOL    MW425960   5.740   4.082   2.166  0.3322 -0.3249 -0.3527
 6549SOL     OW25961   3.482   1.244   5.725  0.0104 -0.5233 -0.0252
 6549SOL    HW225962   3.527   1.325   5.702 -1.1649  0.0921 -0.2221
 6549SOL    HW325963   3.427   1.267   5.800  1.6850 -1.8194  1.7233
 6549SOL    MW425964   3.481   1.257   5.732  0.0763 -0.6131  0.1795
 6550SOL     OW25965   4.044   2.508   5.325  0.2079  0.5590 -0.2258
 6550SOL    HW225966   4.084   2.424   5.347  0.8931  1.2118  1.1085
 6550SOL    HW325967   4.092   2.537   5.247  2.3219  1.2384  1.2352
 6550SOL    MW425968   4.056   2.501   5.317  0.5773  0.7347  0.1430
 6551SOL     OW25969   4.334   3.667   6.133  0.4967 -0.0684 -0.2575
 6551SOL    HW225970   4.344   3.717   6.053  0.5717 -0.5795 -0.5745
 6551SOL    HW325971   4.249   3.691   6.168 -0.3635 -1.2225 -1.4746
 6551SOL    MW425972   4.324   3.676   6.127  0.3931 -0.2881 -0.4599
 6552SOL     OW25973   1.924   3.820   0.359  0.3412 -0.2893  0.2844
 6552SOL    HW225974   1.946   3.913   0.361  0.5194 -0.3285  2.0974
 6552SOL    HW325975   1.962   3.788   0.277  0.4797  1.1750 -0.2575
 6552SOL    MW425976   1.932   3.828   0.349  0.3829 -0.1013  0.4521
 6553SOL     OW25977   0.649   4.349   1.753  0.5464  0.4777 -0.0190
 6553SOL    HW225978   0.722   4.410   1.746  1.2074 -0.4961 -2.4668
 6553SOL    HW325979   0.689   4.266   1.779  0.3810 -0.0850 -1.4629
 6553SOL    MW425980   0.664   4.346   1.755  0.6118  0.2750 -0.5325
 6554SOL     OW25981   4.932   0.921   5.523  0.4535 -0.6201  0.2615
 6554SOL    HW225982   4.946   0.857   5.453 -0.2256 -1.9365  1.2775
 6554SOL    HW325983   4.862   0.977   5.491  1.8682  0.4306 -1.1462
 6554SOL    MW425984   4.925   0.920   5.510  0.5505 -0.6552  0.2098
 6555SOL     OW25985   4.835   0.556   2.947  0.1078 -0.0073 -0.5396
 6555SOL    HW225986   4.895   0.631   2.945  0.1518 -0.0537 -1.7056
 6555SOL    HW325987   4.872   0.495   2.882 -0.8950 -0.2694 -0.8782
 6555SOL    MW425988   4.848   0.558   2.938 -0.0187 -0.0480 -0.7381
 6556SOL     OW25989   2.454   0.676   4.591  0.2071  0.0230  0.4055
 6556SOL    HW225990   2.432   0.661   4.683  1.4988 -0.3343  0.6902
 6556SOL    HW325991   2.370   0.688   4.547 -0.4102  0.7723  1.7282
 6556SOL    MW425992   2.440   0.675   4.597  0.2961  0.0747  0.6175
 6557SOL     OW25993   4.918   0.651   0.148 -0.0595  0.7491 -0.3437
 6557SOL    HW225994   4.869   0.722   0.190  0.2953  1.4447 -1.0606
 6557SOL    HW325995   4.956   0.692   0.070  1.2869  0.1213 -0.0421
 6557SOL    MW425996   4.917   0.666   0.144  0.1649  0.7580 -0.3985
 6558SOL     OW25997   6.011   4.705   5.020  0.0930 -0.1497 -0.0111
 6558SOL    HW225998   5.944   4.761   5.060  0.0705  0.7004 -1.1744
 6558SOL    HW325999   5.968   4.621   5.008 -1.0663  0.5798 -1.3922
 6558SOL    MW426000   5.996   4.702   5.023 -0.0629  0.0587 -0.3468
 6559SOL     OW26001   4.611   3.441   2.198 -0.0407  0.1493 -0.4734
 6559SOL    HW226002   4.675   3.394   2.145  0.7115  0.0278  0.5097
 6559SOL    HW326003   4.571   3.504   2.138  0.0936 -0.6370 -1.4102
 6559SOL    MW426004   4.614   3.443   2.183  0.0763  0.0295 -0.4673
 6560SOL     OW26005   3.916   4.088   2.891  0.7105  0.4279 -0.1084
 6560SOL    HW226006   3.853   4.061   2.957  1.2572  1.0621  0.6945
 6560SOL    HW326007   4.001   4.060   2.926  0.9456  0.1134 -0.8949
 6560SOL    MW426008   3.919   4.080   2.904  0.8136  0.4701 -0.1063
 6561SOL     OW26009   4.773   2.451   3.766  0.3922 -0.0947 -0.2755
 6561SOL    HW226010   4.764   2.467   3.672 -0.4976  0.4784 -0.1096
 6561SOL    HW326011   4.735   2.363   3.778 -0.4506  0.2509 -0.3170
 6561SOL    MW426012   4.767   2.441   3.755  0.1636  0.0265 -0.2591
 6562SOL     OW26013   4.487   3.803   4.484 -0.0395  0.1253  0.5922
 6562SOL    HW226014   4.581   3.792   4.471 -0.2297  0.9232 -2.0412
 6562SOL    HW326015   4.471   3.896   4.470 -1.2921 -0.0873  0.5018
 6562SOL    MW426016   4.497   3.814   4.480 -0.2298  0.2025  0.2328
 6563SOL     OW26017   3.787   3.515   1.986  0.0161  0.1237  0.9665
 6563SOL    HW226018   3.878   3.538   2.004  0.2995  0.9067 -1.1398
 6563SOL    HW326019   3.739   3.597   1.990 -0.0454  0.2160 -0.6986
 6563SOL    MW426020   3.793   3.529   1.989  0.0454  0.2392  0.4689
 6564SOL     OW26021   3.300   5.723   5.559 -0.0987 -0.2338  0.4563
 6564SOL    HW226022   3.331   5.812   5.544  0.3398 -0.4461  0.0940
 6564SOL    HW326023   3.378   5.673   5.582  0.3225 -1.3122 -2.7707
 6564SOL    MW426024   3.314   5.728   5.560  0.0147 -0.4041 -0.0173
 6565SOL     OW26025   0.148   3.472   1.217 -0.0575 -0.5048 -0.4632
 6565SOL    HW226026   0.069   3.526   1.225 -1.1146 -2.1510  0.9333
 6565SOL    HW326027   0.179   3.489   1.128 -2.4856 -0.4358 -1.3901
 6565SOL    MW426028   0.141   3.481   1.206 -0.5174 -0.7129 -0.4013
 6566SOL     OW26029   5.932   0.315   6.319 -0.2544  0.4945 -0.3957
 6566SOL    HW226030   5.932   0.222   6.342  0.2668  0.3037 -1.1329
 6566SOL    HW326031   5.920   0.360   6.403  0.7666 -0.2101  0.1598
 6566SOL    MW426032   5.931   0.309   6.333 -0.0509  0.3764 -0.4197
 6567SOL     OW26033   1.839   3.576   5.827  0.0040  0.3250  0.2890
 6567SOL    HW226034   1.906   3.542   5.768  0.2591  1.1018  0.1309
 6567SOL    HW326035   1.866   3.545   5.914  0.5367  0.5902  0.2195
 6567SOL    MW426036   1.851   3.567   5.831  0.1080  0.4625  0.2590
 6568SOL     OW26037   4.865   3.297   1.734  0.1888 -0.0353  0.1643
 6568SOL    HW226038   4.858   3.206   1.762 -1.1077 -0.4410 -1.3507
 6568SOL    HW326039   4.957   3.307   1.707  0.4923 -0.6998  0.9318
 6568SOL    MW426040   4.876   3.287   1.734  0.0578 -0.1765  0.0657
 6569SOL     OW26041   5.962   1.205   0.975 -0.2348 -0.2039 -0.3246
 6569SOL    HW226042   6.027   1.215   0.905  1.2007  0.6946  1.0637
 6569SOL    HW326043   5.943   1.111   0.976  1.9794 -0.7044 -0.0065
 6569SOL    MW426044   5.968   1.194   0.966  0.2467 -0.1514 -0.0994
 6570SOL     OW26045   1.218   3.382   4.262 -0.1490  0.5702  0.6287
 6570SOL    HW226046   1.130   3.346   4.259 -0.6813  1.8247  0.6242
 6570SOL    HW326047   1.226   3.418   4.350  0.1019  1.0908  0.3947
 6570SOL    MW426048   1.208   3.382   4.273 -0.1861  0.8044  0.5973
 6571SOL     OW26049   2.166   5.581   5.731 -0.1470 -0.1342  0.2246
 6571SOL    HW226050   2.161   5.544   5.819  2.1998 -0.2937  0.3403
 6571SOL    HW326051   2.137   5.510   5.673 -0.4438 -0.4599  0.7632
 6571SOL    MW426052   2.161   5.567   5.735  0.1235 -0.1982  0.3109
 6572SOL     OW26053   0.284   1.264   2.129  0.2593  0.4492 -0.4646
 6572SOL    HW226054   0.235   1.344   2.110  0.6283  0.3738 -1.8302
 6572SOL    HW326055   0.309   1.229   2.043 -3.4905 -3.4876 -0.2895
 6572SOL    MW426056   0.281   1.270   2.115 -0.1867 -0.0802 -0.6217
 6573SOL     OW26057   2.585   3.120   1.730  0.1577 -0.1706 -0.4488
 6573SOL    HW226058   2.629   3.204   1.731 -0.9681  0.4421 -0.3434
 6573SOL    HW326059   2.512   3.130   1.792  1.2641 -1.9381  1.2647
 6573SOL    MW426060   2.581   3.132   1.739  0.1551 -0.3229 -0.2089
 6574SOL     OW26061   5.651   0.286   2.568  0.0627 -0.3035  0.2996
 6574SOL    HW226062   5.637   0.352   2.636  0.1963 -1.5432  1.5817
 6574SOL    HW326063   5.663   0.337   2.487 -1.2546  1.1640  0.9775
 6574SOL    MW426064   5.651   0.302   2.566 -0.0935 -0.2734  0.5582
 6575SOL     OW26065   5.030   5.804   4.945 -0.2512  0.2089  0.2216
 6575SOL    HW226066   5.038   5.719   4.902  0.9176  0.2807  0.2638
 6575SOL    HW326067   5.095   5.801   5.016 -0.9067  0.7588  0.8687
 6575SOL    MW426068   5.040   5.792   4.949 -0.1835  0.2909  0.3125
 6576SOL     OW26069   2.273   0.493   4.991  0.2326  0.3293 -0.6684
 6576SOL    HW226070   2.273   0.439   4.912 -0.8171  0.2701 -0.6294
 6576SOL    HW326071   2.344   0.556   4.975  0.4672 -0.0953 -1.3687
 6576SOL    MW426072   2.283   0.494   4.978  0.1251  0.2655 -0.7557
 6577SOL     OW26073   3.302   4.611   2.321 -0.1466 -0.0463 -0.3930
 6577SOL    HW226074   3.275   4.573   2.238  0.3579  0.0093 -0.5830
 6577SOL    HW326075   3.340   4.696   2.298 -2.4465  1.2119  0.1347
 6577SOL    MW426076   3.303   4.617   2.307 -0.3835  0.1271 -0.3484
 6578SOL     OW26077   0.734   5.562   0.612  0.4396 -0.6199  0.5287
 6578SOL    HW226078   0.657   5.530   0.659  1.1092  0.2931  2.3555
 6578SOL    HW326079   0.771   5.628   0.670  1.4601  0.4265 -1.2395
 6578SOL    MW426080   0.729   5.566   0.626  0.6626 -0.3614  0.5364
 6579SOL     OW26081   1.041   1.630   2.732  0.3750  0.0187 -0.7657
 6579SOL    HW226082   1.106   1.628   2.662 -0.6388 -0.8420 -1.7273
 6579SOL    HW326083   0.957   1.626   2.686 -0.2975 -1.9683  0.4984
 6579SOL    MW426084   1.038   1.629   2.717  0.1525 -0.3570 -0.7258
 6580SOL     OW26085   0.416   6.265   2.167 -0.2347 -0.4697  0.0912
 6580SOL    HW226086   0.436   6.172   2.180  1.1788 -0.2639 -0.4087
 6580SOL    HW326087   0.413   6.275   2.072 -0.7046 -0.0658  0.1495
 6580SOL    MW426088   0.419   6.254   2.156 -0.1102 -0.3893  0.0330
 6581SOL     OW26089   3.078   3.345   5.095  0.0228 -0.1321 -0.1449
 6581SOL    HW226090   3.037   3.298   5.022  2.5398 -3.1882  0.1609
 6581SOL    HW326091   3.045   3.302   5.173  1.3991 -0.6097  0.2108
 6581SOL    MW426092   3.069   3.333   5.096  0.5365 -0.5983 -0.0576
 6582SOL     OW26093   1.625   5.305   6.397  0.0853  0.4387 -0.8171
 6582SOL    HW226094   1.708   5.352   6.399  0.2288  0.2667 -2.0607
 6582SOL    HW326095   1.560   5.371   6.373 -0.3525  0.8185  1.1957
 6582SOL    MW426096   1.628   5.319   6.394  0.0464  0.4661 -0.7156
 6583SOL     OW26097   2.965   4.922   5.214  0.0066  0.4798 -0.0681
 6583SOL    HW226098   2.956   4.856   5.282 -0.7022 -0.8211 -1.3492
 6583SOL    HW326099   2.901   4.896   5.147 -0.4230  2.5747 -0.5546
 6583SOL    MW426100   2.955   4.910   5.214 -0.1436  0.5846 -0.3013
 6584SOL     OW26101   5.712   5.827   0.042  0.3651  0.7921  0.0482
 6584SOL    HW226102   5.728   5.907   0.092  1.0598  0.5435  0.2386
 6584SOL    HW326103   5.650   5.777   0.095 -1.9113  2.1934 -1.1448
 6584SOL    MW426104   5.706   5.831   0.056  0.1564  0.9442 -0.0841
 6585SOL     OW26105   5.696   0.438   2.348 -0.3920  0.1473  0.0962
 6585SOL    HW226106   5.662   0.457   2.260 -0.8525  1.4489  0.5280
 6585SOL    HW326107   5.762   0.506   2.362 -1.7290  1.2126  1.5282
 6585SOL    MW426108   5.700   0.450   2.338 -0.6292  0.4596  0.3421
 6586SOL     OW26109   2.058   4.734   4.278  0.4459 -0.5353 -0.1640
 6586SOL    HW226110   2.105   4.651   4.279  1.2174 -0.1063 -0.2293
 6586SOL    HW326111   2.023   4.741   4.189 -1.2867 -1.6847  0.3648
 6586SOL    MW426112   2.060   4.724   4.266  0.3191 -0.6303 -0.1028
 6587SOL     OW26113   1.699   3.518   3.983 -0.0024  0.3419 -0.3798
 6587SOL    HW226114   1.614   3.485   3.951 -0.0234  1.1807 -1.2419
 6587SOL    HW326115   1.681   3.550   4.071 -0.3824 -0.2933 -0.2223
 6587SOL    MW426116   1.685   3.518   3.990 -0.0553  0.3688 -0.4728
 6588SOL     OW26117   2.320   3.198   2.393  0.2068 -0.3158  0.3640
 6588SOL    HW226118   2.386   3.159   2.337 -0.6731  0.0416 -0.9672
 6588SOL    HW326119   2.242   3.143   2.380  0.5480 -1.5390  2.9088
 6588SOL    MW426120   2.318   3.186   2.384  0.1357 -0.4300  0.5241
 6589SOL     OW26121   6.445   3.564   3.467  0.0110  0.0920  0.1466
 6589SOL    HW226122   6.379   3.615   3.516 -0.8177  0.0856 -0.9276
 6589SOL    HW326123   6.399   3.484   3.442  1.1425 -0.9934  1.3548
 6589SOL    MW426124   6.430   3.560   3.470  0.0510 -0.0521  0.1643
 6590SOL     OW26125   2.066   3.283   5.104 -0.2144 -0.2381 -0.1159
 6590SOL    HW226126   2.140   3.306   5.161 -0.5740  0.5469  0.0497
 6590SOL    HW326127   2.101   3.288   5.016  0.6258 -2.4469  0.0151
 6590SOL    MW426128   2.081   3.286   5.100 -0.1510 -0.4260 -0.0768
 6591SOL     OW26129   3.322   3.325   4.570  0.6482  0.0827  0.3167
 6591SOL    HW226130   3.295   3.368   4.651 -0.6295  0.2504 -0.1581
 6591SOL    HW326131   3.243   3.328   4.515  1.4962  0.0132 -0.9403
 6591SOL    MW426132   3.308   3.331   4.573  0.5915  0.0957  0.0882
 6592SOL     OW26133   3.694   3.450   1.023 -0.5221 -0.6541  0.3649
 6592SOL    HW226134   3.770   3.437   0.967 -0.0425 -1.6867  1.2292
 6592SOL    HW326135   3.729   3.487   1.104 -0.9448 -1.0798  0.7495
 6592SOL    MW426136   3.708   3.453   1.026 -0.5146 -0.8465  0.5297
 6593SOL     OW26137   4.444   3.555   1.997  0.5958  0.0808 -0.7677
 6593SOL    HW226138   4.466   3.525   1.909  0.3409 -0.7030 -0.5659
 6593SOL    HW326139   4.374   3.496   2.027  0.5010  0.4963 -0.1374
 6593SOL    MW426140   4.437   3.543   1.990  0.5497  0.0322 -0.6579
 6594SOL     OW26141   4.947   0.840   1.580 -0.4415 -0.0600  0.7463
 6594SOL    HW226142   5.033   0.822   1.617 -0.0982 -1.5486 -0.6533
 6594SOL    HW326143   4.886   0.824   1.652  0.4063  0.8338  1.7056
 6594SOL    MW426144   4.951   0.836   1.594 -0.2843 -0.1385  0.6882
 6595SOL     OW26145   4.377   3.658   2.429  0.0239 -0.4136 -0.4716
 6595SOL    HW226146   4.335   3.687   2.510  0.4092 -1.0151 -0.0439
 6595SOL    HW326147   4.464   3.628   2.457  0.2581 -0.3949 -1.1502
 6595SOL    MW426148   4.383   3.658   2.444  0.1057 -0.4905 -0.5047
 6596SOL     OW26149   2.585   5.668   4.120 -0.4776  0.9122  0.4619
 6596SOL    HW226150   2.512   5.652   4.061 -1.1428 -0.1968  1.5263
 6596SOL    HW326151   2.552   5.732   4.183 -0.6508  0.2017  1.1101
 6596SOL    MW426152   2.571   5.674   4.120 -0.5882  0.6721  0.6878
 6597SOL     OW26153   4.862   0.415   2.344 -0.5775 -0.8072  0.2066
 6597SOL    HW226154   4.956   0.429   2.338 -0.8586  1.2675 -0.1925
 6597SOL    HW326155   4.846   0.332   2.299  1.3629 -2.7795  2.8635
 6597SOL    MW426156   4.872   0.406   2.338 -0.3586 -0.7937  0.5045
 6598SOL     OW26157   3.163   2.362   4.279  0.1575  0.2754 -0.2858
 6598SOL    HW226158   3.216   2.292   4.316 -0.7935  0.7814  2.1745
 6598SOL    HW326159   3.116   2.400   4.353 -2.8285  0.5725 -2.1473
 6598SOL    MW426160   3.164   2.358   4.293 -0.3619  0.3813 -0.2068
 6599SOL     OW26161   2.769   1.536   3.357  0.2950  0.0982 -0.1849
 6599SOL    HW226162   2.682   1.523   3.319  0.4758 -2.2223  0.0689
 6599SOL    HW326163   2.753   1.581   3.440 -0.3748  2.2143 -1.3687
 6599SOL    MW426164   2.756   1.540   3.363  0.2305  0.0712 -0.3076
 6600SOL     OW26165   6.020   4.335   2.135  0.2488  0.2026  0.1781
 6600SOL    HW226166   5.927   4.336   2.110  0.3748 -0.9529 -0.4281
 6600SOL    HW326167   6.029   4.407   2.197 -0.5304  1.8732 -1.5650
 6600SOL    MW426168   6.009   4.344   2.140  0.1626  0.2706 -0.1319
 6601SOL     OW26169   0.828   4.094   4.139 -0.6255  0.2353 -0.2223
 6601SOL    HW226170   0.911   4.050   4.120 -1.0974  0.2724 -2.7468
 6601SOL    HW326171   0.848   4.187   4.132 -1.1466  0.2254 -2.4502
 6601SOL    MW426172   0.842   4.100   4.136 -0.7565  0.2389 -0.8494
 6602SOL     OW26173   5.414   2.671   2.210 -0.3177 -0.1802 -0.4053
 6602SOL    HW226174   5.321   2.648   2.200  0.1344 -2.1707 -0.4681
 6602SOL    HW326175   5.444   2.618   2.284  1.2181 -1.0898 -1.6186
 6602SOL    MW426176   5.405   2.661   2.219 -0.0554 -0.5629 -0.5737
 6603SOL     OW26177   3.175   4.199   1.005 -0.3317  0.4588 -0.2892
 6603SOL    HW226178   3.132   4.285   1.004  0.1157  0.6830 -1.8125
 6603SOL    HW326179   3.256   4.214   1.054 -1.4212  0.2803  1.6675
 6603SOL    MW426180   3.180   4.212   1.012 -0.4164  0.4648 -0.2320
 6604SOL     OW26181   2.579   6.282   2.165  0.3561  0.2734  0.2466
 6604SOL    HW226182   2.514   6.309   2.230 -1.6264  0.1129 -1.5721
 6604SOL    HW326183   2.589   6.188   2.178  0.0809  0.2659  0.3943
 6604SOL    MW426184   2.572   6.273   2.175  0.0582  0.2513  0.0261
 6605SOL     OW26185   1.485   1.546   6.390 -0.2804 -0.6163 -0.8677
 6605SOL    HW226186   1.518   1.528   6.301 -0.5891 -1.4254 -0.8272
 6605SOL    HW326187   1.556   1.519   6.447 -0.0236  0.0434 -0.8656
 6605SOL    MW426188   1.499   1.540   6.386 -0.2873 -0.6360 -0.8621
 6606SOL     OW26189   0.175   3.605   5.170  0.2864  0.0616  0.5627
 6606SOL    HW226190   0.179   3.513   5.145 -2.2991  0.2986 -1.0695
 6606SOL    HW326191   0.199   3.605   5.263  1.8836 -1.9984  0.2223
 6606SOL    MW426192   0.179   3.593   5.179  0.1560 -0.1790  0.3025
 6607SOL     OW26193   5.493   0.571   1.044 -0.6992 -0.1115  0.6033
 6607SOL    HW226194   5.493   0.478   1.069  3.6610 -0.7122 -0.8644
 6607SOL    HW326195   5.469   0.571   0.952 -0.3778  0.1938  0.5184
 6607SOL    MW426196   5.490   0.559   1.035 -0.0816 -0.1505  0.3984
 6608SOL     OW26197   0.706   2.528   4.544  0.6062 -0.4201  0.1508
 6608SOL    HW226198   0.791   2.524   4.500 -0.0131 -0.7135 -1.0664
 6608SOL    HW326199   0.642   2.530   4.473 -0.4181 -0.3660  1.0442
 6608SOL    MW426200   0.709   2.527   4.529  0.3893 -0.4516  0.1081
 6609SOL     OW26201   5.344   4.703   5.151 -0.2955  0.6060  0.2268
 6609SOL    HW226202   5.364   4.619   5.193  2.7759  1.6892  1.2037
 6609SOL    HW326203   5.361   4.688   5.058  1.4430  0.3987  0.5412
 6609SOL    MW426204   5.349   4.690   5.145  0.3391  0.7215  0.3972
 6610SOL     OW26205   0.728   2.142   5.336  0.0920 -0.1873  0.1877
 6610SOL    HW226206   0.663   2.072   5.330 -0.2539  0.1601 -0.2294
 6610SOL    HW326207   0.697   2.199   5.406 -0.9206  0.8298 -1.0328
 6610SOL    MW426208   0.715   2.140   5.344 -0.0872 -0.0073 -0.0284
 6611SOL     OW26209   5.223   0.157   5.942 -0.3706  0.3459 -0.1510
 6611SOL    HW226210   5.250   0.068   5.965 -2.9379 -0.7839 -1.1228
 6611SOL    HW326211   5.133   0.164   5.975 -1.2805  1.4993 -2.6558
 6611SOL    MW426212   5.215   0.146   5.949 -0.8294  0.3490 -0.6097
 6612SOL     OW26213   1.149   1.743   5.820 -0.1051 -0.1015 -0.5169
 6612SOL    HW226214   1.180   1.683   5.888 -1.6629 -0.6831 -0.2641
 6612SOL    HW326215   1.122   1.685   5.748 -1.5344  0.2547 -0.3117
 6612SOL    MW426216   1.149   1.727   5.819 -0.4992 -0.1313 -0.4565
 6613SOL     OW26217   3.302   0.531   2.019 -0.1130  0.0847  0.0753
 6613SOL    HW226218   3.283   0.456   2.075 -1.0934 -0.4957 -0.9923
 6613SOL    HW326219   3.389   0.513   1.984  0.5027  0.4471  1.3643
 6613SOL    MW426220   3.311   0.519   2.022 -0.1611  0.0559  0.1045
 6614SOL     OW26221   4.839   1.659   2.383 -0.4480  0.1423 -0.1505
 6614SOL    HW226222   4.820   1.741   2.339 -0.4419  0.0599 -0.3060
 6614SOL    HW326223   4.754   1.619   2.399 -0.3812 -0.9044 -2.1250
 6614SOL    MW426224   4.825   1.664   2.380 -0.4384 -0.0067 -0.4315
 6615SOL     OW26225   0.415   6.091   3.752 -0.7503 -0.2865 -0.2055
 6615SOL    HW226226   0.371   6.148   3.815  0.1826  1.6476 -1.2150
 6615SOL    HW326227   0.495   6.063   3.796  0.6300  2.2365 -0.9473
 6615SOL    MW426228   0.420   6.094   3.766 -0.4451  0.3015 -0.4366
 6616SOL     OW26229   5.027   5.345   5.889  0.2448  0.3082  0.3780
 6616SOL    HW226230   4.989   5.342   5.801 -0.8985  0.1143  0.8581
 6616SOL    HW326231   5.121   5.331   5.875 -0.1621 -1.7245 -0.6509
 6616SOL    MW426232   5.035   5.343   5.875  0.0403  0.0144  0.3056
 6617SOL     OW26233   3.319   4.528   5.138 -0.6602 -0.1850 -0.0153
 6617SOL    HW226234   3.348   4.480   5.216  0.0709 -0.3976 -0.4121
 6617SOL    HW326235   3.381   4.600   5.130 -0.3105 -0.5607 -0.7888
 6617SOL    MW426236   3.331   4.531   5.148 -0.5176 -0.2626 -0.1697
 6618SOL     OW26237   3.714   1.380   0.888 -0.2133 -0.6113 -0.0383
 6618SOL    HW226238   3.754   1.332   0.960  0.7519  1.0914  0.6078
 6618SOL    HW326239   3.625   1.398   0.918  0.4816  0.9280  1.1739
 6618SOL    MW426240   3.707   1.376   0.901  0.0057 -0.1835  0.2069
 6619SOL     OW26241   0.194   6.266   1.569 -0.0244 -0.3577 -0.1785
 6619SOL    HW226242   0.167   6.185   1.612 -1.4323  0.0944 -0.1562
 6619SOL    HW326243   0.157   6.260   1.481  0.0146  0.1754 -0.2349
 6619SOL    MW426244   0.185   6.255   1.563 -0.2050 -0.2277 -0.1830
 6620SOL     OW26245   0.768   1.872   0.493 -0.9088  0.2532  0.5077
 6620SOL    HW226246   0.824   1.942   0.524 -0.7820 -0.3726  1.7464
 6620SOL    HW326247   0.781   1.801   0.555 -0.1033 -1.3485 -1.3673
 6620SOL    MW426248   0.777   1.872   0.505 -0.7858 -0.0407  0.4238
 6621SOL     OW26249   0.920   5.982   4.765 -0.2650 -0.2156  0.3049
 6621SOL    HW226250   0.942   5.902   4.813 -1.0532 -0.1568  0.7792
 6621SOL    HW326251   0.901   6.047   4.833 -2.0365 -0.3080 -0.0546
 6621SOL    MW426252   0.921   5.980   4.780 -0.6027 -0.2200  0.3200
 6622SOL     OW26253   6.383   2.616   1.133 -0.6753 -0.1879 -0.4106
 6622SOL    HW226254   6.476   2.630   1.115 -0.1654 -0.5542  1.6543
 6622SOL    HW326255   6.339   2.642   1.052  1.2096 -0.0242 -1.4511
 6622SOL    MW426256   6.390   2.622   1.120 -0.3593 -0.2146 -0.2755
 6623SOL     OW26257   2.668   0.825   1.224 -0.0105  0.1748 -0.1588
 6623SOL    HW226258   2.627   0.852   1.142  0.7232  2.0955  0.0698
 6623SOL    HW326259   2.600   0.836   1.290 -0.9759 -2.4604 -0.5840
 6623SOL    MW426260   2.654   0.830   1.222 -0.0411  0.0806 -0.1847
 6624SOL     OW26261   4.370   5.681   3.965  0.1511  0.3031  0.4331
 6624SOL    HW226262   4.381   5.723   3.880 -0.2398  0.3844  0.4195
 6624SOL    HW326263   4.447   5.708   4.016  0.6755 -0.2012 -0.0753
 6624SOL    MW426264   4.382   5.690   3.961  0.1687  0.2473  0.3642
 6625SOL     OW26265   2.290   0.428   5.388 -0.1730 -0.2227  0.1511
 6625SOL    HW226266   2.384   0.410   5.390  0.4187  1.5815 -3.3393
 6625SOL    HW326267   2.251   0.350   5.349  0.5056  0.4271 -1.9854
 6625SOL    MW426268   2.297   0.416   5.383 -0.0054  0.1011 -0.5913
 6626SOL     OW26269   3.876   3.070   0.235  0.1827 -0.1457  0.2543
 6626SOL    HW226270   3.961   3.102   0.265  0.6721 -0.8406 -0.3489
 6626SOL    HW326271   3.842   3.142   0.181 -1.3930  1.7598  3.5082
 6626SOL    MW426272   3.883   3.084   0.232  0.0394  0.0140  0.6041
 6627SOL     OW26273   3.123   1.249   3.441  0.7885 -0.0312 -0.0022
 6627SOL    HW226274   3.142   1.155   3.431  1.5110  0.1259 -0.1880
 6627SOL    HW326275   3.039   1.262   3.398  1.6731 -0.2106 -1.8732
 6627SOL    MW426276   3.115   1.238   3.434  1.0005 -0.0342 -0.2736
 6628SOL     OW26277   0.907   0.734   2.428 -0.4030 -0.5242 -0.1062
 6628SOL    HW226278   0.983   0.723   2.487  0.2606  2.0346 -0.3779
 6628SOL    HW326279   0.832   0.737   2.487  0.1873  1.2918  0.6318
 6628SOL    MW426280   0.907   0.733   2.444 -0.2376  0.0530 -0.0447
 6629SOL     OW26281   4.964   3.376   2.563  0.0006  0.0229 -0.2996
 6629SOL    HW226282   4.973   3.304   2.501  1.5440  0.0555 -0.1743
 6629SOL    HW326283   5.041   3.431   2.547 -1.6174  2.1716 -1.0152
 6629SOL    MW426284   4.976   3.373   2.553 -0.0092  0.3107 -0.3775
 6630SOL     OW26285   0.591   4.024   3.493 -0.3725 -0.1848 -0.6814
 6630SOL    HW226286   0.625   4.109   3.519  0.5844 -0.2132 -1.7389
 6630SOL    HW326287   0.590   3.972   3.573  0.5793  0.3227 -0.3304
 6630SOL    MW426288   0.595   4.028   3.507 -0.1206 -0.1216 -0.7746
 6631SOL     OW26289   6.077   3.407   2.256 -0.3104 -0.0993  0.1305
 6631SOL    HW226290   6.139   3.395   2.328  0.5771  0.1334 -0.5683
 6631SOL    HW326291   6.054   3.500   2.258  0.6058  0.1586 -0.5657
 6631SOL    MW426292   6.082   3.418   2.266 -0.0725 -0.0346 -0.0535
 6632SOL     OW26293   1.767   3.201   3.339  0.4759  0.3045 -0.1114
 6632SOL    HW226294   1.681   3.243   3.342  0.2574 -0.1625  1.3828
 6632SOL    HW326295   1.820   3.252   3.400  0.2559 -1.3637  1.5848
 6632SOL    MW426296   1.762   3.213   3.348  0.4181  0.0228  0.3096
 6633SOL     OW26297   1.987   3.489   1.540 -0.1988 -0.2967  0.7390
 6633SOL    HW226298   2.058   3.426   1.558  0.6248  0.3984  0.0222
 6633SOL    HW326299   1.919   3.438   1.497  0.3440 -0.7514  0.4128
 6633SOL    MW426300   1.988   3.474   1.537 -0.0185 -0.2650  0.6014
 6634SOL     OW26301   0.764   1.504   3.626 -0.1140  0.0862  0.4572
 6634SOL    HW226302   0.694   1.476   3.685  0.2843  2.4098  2.1539
 6634SOL    HW326303   0.724   1.501   3.539 -2.1866  0.8742  1.3274
 6634SOL    MW426304   0.750   1.500   3.622 -0.3349  0.4967  0.7959
 6635SOL     OW26305   3.956   5.722   0.287  0.2902 -0.1556  0.0180
 6635SOL    HW226306   4.011   5.786   0.241  1.4305 -2.3855 -1.9546
 6635SOL    HW326307   3.867   5.747   0.264  0.6916  0.8296 -0.5722
 6635SOL    MW426308   3.952   5.734   0.278  0.4936 -0.3198 -0.3201
 6636SOL     OW26309   3.191   3.765   0.849 -0.0416 -0.6194 -0.1366
 6636SOL    HW226310   3.165   3.851   0.880 -0.6826 -0.3366 -1.4155
 6636SOL    HW326311   3.155   3.704   0.914 -0.0904  0.0305  0.4512
 6636SOL    MW426312   3.183   3.768   0.862 -0.1326 -0.4964 -0.2278
 6637SOL     OW26313   1.651   0.865   4.174  0.7517 -0.2579 -0.1790
 6637SOL    HW226314   1.560   0.893   4.176  0.7150 -0.3979  0.4306
 6637SOL    HW326315   1.652   0.790   4.115  0.3761 -0.5674  0.2007
 6637SOL    MW426316   1.639   0.859   4.167  0.6973 -0.3172 -0.0484
 6638SOL     OW26317   4.330   5.553   0.903 -0.2390 -0.4086  0.1409
 6638SOL    HW226318   4.369   5.638   0.924 -0.8749 -0.0116 -0.2741
 6638SOL    HW326319   4.276   5.532   0.979  2.8349 -2.2820  2.0441
 6638SOL    MW426320   4.328   5.561   0.916  0.0827 -0.6034  0.3373
 6639SOL     OW26321   0.088   1.503   1.612 -0.2559  0.3386  0.0959
 6639SOL    HW226322   0.086   1.587   1.658 -0.9504  1.1174 -1.3142
 6639SOL    HW326323   0.152   1.515   1.543 -0.6842 -0.1382 -0.3901
 6639SOL    MW426324   0.096   1.516   1.609 -0.4040  0.3784 -0.1542
 6640SOL     OW26325   4.213   2.311   4.470 -0.0150 -0.0468  0.1817
 6640SOL    HW226326   4.226   2.273   4.557 -0.9790 -0.3722  0.1936
 6640SOL    HW326327   4.125   2.284   4.445 -1.7032  3.9625  1.1224
 6640SOL    MW426328   4.203   2.302   4.478 -0.3649  0.4393  0.3074
 6641SOL     OW26329   4.322   0.326   4.578 -0.7046 -0.4649 -0.5333
 6641SOL    HW226330   4.280   0.243   4.602  0.1324 -0.8201 -0.2805
 6641SOL    HW326331   4.413   0.316   4.603 -0.5312  0.4420 -0.7452
 6641SOL    MW426332   4.328   0.314   4.584 -0.5713 -0.3921 -0.5279
 6642SOL     OW26333   0.792   5.129   0.704 -0.4271  0.2772  0.1054
 6642SOL    HW226334   0.828   5.063   0.644  2.2096  1.0032  0.7638
 6642SOL    HW326335   0.810   5.212   0.661 -1.8221  0.6897  0.2748
 6642SOL    MW426336   0.799   5.131   0.690 -0.2633  0.4274  0.2146
 6643SOL     OW26337   2.714   1.991   4.103  0.4449 -0.2645 -0.2086
 6643SOL    HW226338   2.799   2.009   4.063 -0.3844  1.7717 -1.1754
 6643SOL    HW326339   2.650   2.031   4.044 -0.9522  1.5932  2.3481
 6643SOL    MW426340   2.717   1.998   4.090  0.1511  0.2493  0.0012
 6644SOL     OW26341   2.017   0.446   2.400 -0.6613  0.0744  0.0853
 6644SOL    HW226342   1.970   0.366   2.425  0.6661 -2.0335 -3.4725
 6644SOL    HW326343   1.951   0.499   2.356 -1.0313 -0.1456  0.3674
 6644SOL    MW426344   2.002   0.442   2.397 -0.5350 -0.2327 -0.3469
 6645SOL     OW26345   5.890   3.609   1.312 -0.6936  0.0089  0.2341
 6645SOL    HW226346   5.907   3.684   1.369  1.2642 -0.8133  0.7960
 6645SOL    HW326347   5.930   3.535   1.357 -1.1263 -1.0730 -1.1074
 6645SOL    MW426348   5.898   3.609   1.325 -0.4923 -0.2423  0.1313
 6646SOL     OW26349   1.907   0.607   5.689 -0.4681  0.5559 -0.6950
 6646SOL    HW226350   1.966   0.552   5.638 -0.3552  1.6906 -1.8192
 6646SOL    HW326351   1.915   0.694   5.651 -1.1430  1.2355  0.6204
 6646SOL    MW426352   1.916   0.611   5.678 -0.5423  0.7953 -0.6698
 6647SOL     OW26353   5.136   2.735   3.988  0.4587  0.4558 -0.3686
 6647SOL    HW226354   5.107   2.669   4.051  1.8388 -0.0018 -0.1846
 6647SOL    HW326355   5.144   2.687   3.906  1.1357  0.4572 -0.3094
 6647SOL    MW426356   5.133   2.720   3.986  0.7301  0.3956 -0.3365
 6648SOL     OW26357   2.123   4.297   1.208  0.6487 -0.7336  0.7688
 6648SOL    HW226358   2.216   4.279   1.223  0.9051 -0.8013 -0.8104
 6648SOL    HW326359   2.109   4.277   1.116 -0.7650  0.0360  0.7972
 6648SOL    MW426360   2.133   4.292   1.198  0.4960 -0.6410  0.5642
 6649SOL     OW26361   1.005   0.515   2.921 -0.2915 -0.0479 -0.0805
 6649SOL    HW226362   0.922   0.468   2.910 -0.2591 -0.2460  0.4694
 6649SOL    HW326363   1.072   0.448   2.907 -0.2288  0.0643 -0.3132
 6649SOL    MW426364   1.003   0.500   2.918 -0.2789 -0.0592 -0.0386
 6650SOL     OW26365   4.379   5.244   0.324  0.3591 -0.1280  0.2111
 6650SOL    HW226366   4.466   5.284   0.325  0.2886  0.2462 -1.9930
 6650SOL    HW326367   4.388   5.166   0.378  1.8714  0.2685  0.5886
 6650SOL    MW426368   4.392   5.239   0.331  0.5493 -0.0263 -0.0299
 6651SOL     OW26369   6.190   2.598   6.045  0.1629 -0.3041 -0.1061
 6651SOL    HW226370   6.112   2.650   6.024 -0.0655 -0.5363  0.1528
 6651SOL    HW326371   6.264   2.654   6.022 -0.0809  0.1289  0.1472
 6651SOL    MW426372   6.189   2.612   6.039  0.1006 -0.2776 -0.0385
 6652SOL     OW26373   2.829   4.245   1.841  0.2424 -0.2015  0.0290
 6652SOL    HW226374   2.840   4.257   1.935 -2.9057 -2.2921  0.8151
 6652SOL    HW326375   2.755   4.300   1.818  2.2439  1.9217 -1.7782
 6652SOL    MW426376   2.820   4.253   1.850  0.0911 -0.1972 -0.1057
 6653SOL     OW26377   6.132   0.152   4.635 -0.7086 -0.3905  0.5915
 6653SOL    HW226378   6.123   0.230   4.579 -0.3568 -0.2726  0.6956
 6653SOL    HW326379   6.183   0.183   4.710 -0.0185 -0.8828  0.3253
 6653SOL    MW426380   6.137   0.167   4.637 -0.5711 -0.4399  0.5701
 6654SOL     OW26381   2.459   2.696   5.344  0.0383  0.0772  0.1875
 6654SOL    HW226382   2.398   2.679   5.416 -0.8291 -1.7718 -0.9276
 6654SOL    HW326383   2.546   2.677   5.381 -0.4646 -1.7013  0.5504
 6654SOL    MW426384   2.463   2.691   5.359 -0.1425 -0.4014  0.0883
 6655SOL     OW26385   5.961   0.038   0.010 -0.1503 -0.3516 -0.5310
 6655SOL    HW226386   5.906   0.011   0.083 -0.7991  0.0021 -0.8734
 6655SOL    HW326387   5.924  -0.008  -0.066 -2.3809  2.5908 -1.4634
 6655SOL    MW426388   5.949   0.029   0.009 -0.5302  0.0833 -0.6992
 6656SOL     OW26389   3.030   5.000   0.459  0.1776  0.2857 -0.2834
 6656SOL    HW226390   2.999   5.089   0.470 -1.1513  0.0523 -1.7783
 6656SOL    HW326391   3.110   5.009   0.407 -0.3552  0.5842 -1.0716
 6656SOL    MW426392   3.037   5.013   0.453 -0.0680  0.2943 -0.5846
 6657SOL     OW26393   1.719   2.604   6.414  0.2121  0.2489 -0.0725
 6657SOL    HW226394   1.662   2.550   6.469 -0.7691 -1.4324 -2.5570
 6657SOL    HW326395   1.805   2.565   6.422 -0.2560 -1.0221 -0.9045
 6657SOL    MW426396   1.723   2.592   6.422  0.0208 -0.1406 -0.5101
 6658SOL     OW26397   5.477   5.765   2.769 -0.2341  0.0583 -0.4673
 6658SOL    HW226398   5.558   5.754   2.720  0.6080 -1.3596  1.1491
 6658SOL    HW326399   5.408   5.744   2.706  0.7761 -1.2272 -1.1834
 6658SOL    MW426400   5.478   5.761   2.754  0.0103 -0.2984 -0.3485
 6659SOL     OW26401   1.853   5.265   1.267  0.2821 -0.5705  0.4710
 6659SOL    HW226402   1.852   5.344   1.320 -0.3066 -0.2889  0.0439
 6659SOL    HW326403   1.814   5.197   1.322 -1.9547  0.1101 -0.1817
 6659SOL    MW426404   1.848   5.266   1.281 -0.0907 -0.4435  0.3285
 6660SOL     OW26405   1.216   5.133   3.863  0.0830 -0.5456  0.3020
 6660SOL    HW226406   1.222   5.087   3.779  1.1348  1.6988 -0.9455
 6660SOL    HW326407   1.220   5.064   3.929  2.9754 -2.1878 -1.3909
 6660SOL    MW426408   1.217   5.118   3.860  0.6034 -0.4662 -0.0859
 6661SOL     OW26409   0.038   4.415   5.539  0.3045 -0.0320 -0.3256
 6661SOL    HW226410  -0.026   4.486   5.551  0.7827  0.3834 -0.2180
 6661SOL    HW326411  -0.016   4.339   5.519 -0.1941  0.4603 -0.9298
 6661SOL    MW426412   0.022   4.415   5.538  0.3018  0.0878 -0.3911
 6662SOL     OW26413   2.258   2.878   2.887 -0.4653 -0.2234  0.0866
 6662SOL    HW226414   2.184   2.912   2.837  0.4213  0.2261 -0.9617
 6662SOL    HW326415   2.296   2.956   2.929 -0.6591 -0.4709  0.7285
 6662SOL    MW426416   2.253   2.893   2.886 -0.3739 -0.1968  0.0330
 6663SOL     OW26417   6.281   5.621   1.383  0.1680 -0.4600  0.1948
 6663SOL    HW226418   6.306   5.669   1.462  0.8097  0.1013 -0.3349
 6663SOL    HW326419   6.232   5.684   1.331  0.1393 -0.6822 -0.0522
 6663SOL    MW426420   6.278   5.635   1.386  0.2488 -0.4153  0.0924
 6664SOL     OW26421   1.568   2.555   5.437 -0.2910  0.5198 -0.2178
 6664SOL    HW226422   1.603   2.637   5.402  1.4377  0.2712  0.8367
 6664SOL    HW326423   1.483   2.580   5.474  0.0141  1.7588 -0.2972
 6664SOL    MW426424   1.561   2.569   5.438 -0.0227  0.6505 -0.0891
 6665SOL     OW26425   5.308   4.332   5.804  0.2599 -0.2623  0.2420
 6665SOL    HW226426   5.228   4.282   5.791  0.2561  0.0430 -0.9926
 6665SOL    HW326427   5.283   4.402   5.865 -0.2902 -0.4370  0.2137
 6665SOL    MW426428   5.294   4.335   5.810  0.1868 -0.2451  0.0754
 6666SOL     OW26429   4.281   1.453   5.169 -0.4894 -0.6982 -0.3585
 6666SOL    HW226430   4.301   1.538   5.130  0.1767  0.0351  1.4607
 6666SOL    HW326431   4.204   1.469   5.223 -0.1582 -1.1515  0.2661
 6666SOL    MW426432   4.274   1.466   5.171 -0.3578 -0.6612 -0.0361
 6667SOL     OW26433   5.228   6.164   2.516  0.4155  0.3111 -0.5190
 6667SOL    HW226434   5.224   6.111   2.595  1.5217  2.6504  1.2248
 6667SOL    HW326435   5.177   6.114   2.451 -0.2985 -1.8265  1.5424
 6667SOL    MW426436   5.221   6.151   2.518  0.4673  0.3377 -0.0169
 6668SOL     OW26437   0.735   4.984   3.646  0.2716 -0.6652  0.4859
 6668SOL    HW226438   0.728   4.892   3.619  2.0149 -1.0468  1.2259
 6668SOL    HW326439   0.762   5.030   3.566  2.4441 -1.3119  0.8064
 6668SOL    MW426440   0.737   4.978   3.632  0.7883 -0.8009  0.6258
 6669SOL     OW26441   3.811   2.429   4.659  0.2057 -0.0060  0.1534
 6669SOL    HW226442   3.894   2.445   4.614  0.3654 -1.7615 -0.2443
 6669SOL    HW326443   3.759   2.379   4.597  0.9867 -3.8374  2.2930
 6669SOL    MW426444   3.815   2.425   4.645  0.3298 -0.7431  0.3832
 6670SOL     OW26445   2.110   1.431   0.831 -0.3554 -0.5149 -0.1566
 6670SOL    HW226446   2.018   1.423   0.809 -0.7012  1.9640  0.1586
 6670SOL    HW326447   2.141   1.507   0.781  0.5926  0.8810  2.3932
 6670SOL    MW426448   2.102   1.440   0.821 -0.2759 -0.0037  0.2214
 6671SOL     OW26449   0.681   4.293   2.527  0.5276  0.1111 -0.6591
 6671SOL    HW226450   0.677   4.199   2.510  0.0411 -0.2092  1.0482
 6671SOL    HW326451   0.746   4.301   2.598 -0.4485  0.8896  0.1704
 6671SOL    MW426452   0.689   4.282   2.534  0.3346  0.1716 -0.3244
 6672SOL     OW26453   5.224   3.958   3.717  0.2966 -0.0632 -0.5800
 6672SOL    HW226454   5.157   4.015   3.681 -0.6049 -0.0640  1.0108
 6672SOL    HW326455   5.187   3.870   3.710  0.2901 -0.1057 -0.0775
 6672SOL    MW426456   5.211   3.954   3.711  0.1768 -0.0689 -0.3038
 6673SOL     OW26457   3.171   1.582   0.809  0.2875 -1.0545  0.7251
 6673SOL    HW226458   3.225   1.504   0.801  0.6500 -0.6963 -0.5701
 6673SOL    HW326459   3.082   1.553   0.789  0.0271 -1.5431  2.3762
 6673SOL    MW426460   3.166   1.568   0.806  0.3010 -1.0717  0.7721
 6674SOL     OW26461   4.411   4.760   1.910 -0.5273  0.4709 -0.3638
 6674SOL    HW226462   4.315   4.766   1.901 -0.7268 -1.3537  0.0659
 6674SOL    HW326463   4.434   4.682   1.859  0.7135  0.7593 -0.2666
 6674SOL    MW426464   4.401   4.751   1.902 -0.3899  0.2682 -0.2942
 6675SOL     OW26465   0.319   1.029   0.670 -0.0083  0.7634  0.2256
 6675SOL    HW226466   0.244   1.080   0.701 -0.1761  0.9916 -0.5416
 6675SOL    HW326467   0.284   0.974   0.600  0.5737  1.0111 -0.2694
 6675SOL    MW426468   0.305   1.029   0.665  0.0463  0.8262  0.0591
 6676SOL     OW26469   5.962   2.666   5.917  0.3943  0.0184 -0.3143
 6676SOL    HW226470   5.890   2.629   5.865  1.9414  0.1884 -2.7834
 6676SOL    HW326471   5.973   2.754   5.882 -0.1236  1.1508  2.1795
 6676SOL    MW426472   5.954   2.672   5.905  0.5301  0.1902 -0.3110
 6677SOL     OW26473   2.825   0.944   5.994 -0.0066 -0.4998  0.2732
 6677SOL    HW226474   2.849   0.985   5.911  0.8132 -1.1850  0.1637
 6677SOL    HW326475   2.883   0.987   6.058 -1.3624  0.7945  0.6899
 6677SOL    MW426476   2.836   0.955   5.992 -0.0773 -0.4194  0.3138
 6678SOL     OW26477   5.941   2.744   5.107 -0.3817  0.2775 -0.0876
 6678SOL    HW226478   5.976   2.673   5.160 -0.2401  0.3107 -0.1364
 6678SOL    HW326479   5.990   2.738   5.025 -2.0221 -1.1026 -1.0414
 6678SOL    MW426480   5.952   2.733   5.103 -0.5795  0.0998 -0.2199
 6679SOL     OW26481   2.936   2.911   0.308 -0.2084  0.0432 -0.0451
 6679SOL    HW226482   3.032   2.913   0.302 -0.1941  2.7446  0.0610
 6679SOL    HW326483   2.906   2.927   0.219 -0.6068 -1.2711 -0.1688
 6679SOL    MW426484   2.945   2.913   0.296 -0.2591  0.2262 -0.0474
 6680SOL     OW26485   3.106   3.271   3.773  0.3494 -0.0539 -0.1215
 6680SOL    HW226486   3.059   3.299   3.694  0.5140  1.6548  0.3346
 6680SOL    HW326487   3.167   3.343   3.791 -1.1114  0.6520  2.6990
 6680SOL    MW426488   3.108   3.284   3.765  0.1784  0.2646  0.3108
 6681SOL     OW26489   5.690   2.646   4.082 -0.8575  0.5666  0.4437
 6681SOL    HW226490   5.743   2.724   4.063  0.0134 -0.4370 -1.6014
 6681SOL    HW326491   5.626   2.676   4.146  0.3344  2.5959  0.7804
 6681SOL    MW426492   5.689   2.660   4.088 -0.5854  0.7019  0.2183
 6682SOL     OW26493   2.218   5.468   0.413 -0.5323  0.3635 -0.4305
 6682SOL    HW226494   2.313   5.460   0.415 -0.6499 -1.1222  0.3930
 6682SOL    HW326495   2.187   5.412   0.484 -2.0179  1.0830 -0.4630
 6682SOL    MW426496   2.227   5.460   0.423 -0.7438  0.2624 -0.3262
 6683SOL     OW26497   6.218   4.215   0.206  0.5022  0.3416 -0.5050
 6683SOL    HW226498   6.200   4.308   0.193  1.7629  0.6560 -0.1138
 6683SOL    HW326499   6.238   4.208   0.299  0.7092 -0.2705 -0.5942
 6683SOL    MW426500   6.218   4.227   0.216  0.6959  0.3023 -0.4651
 6684SOL     OW26501   1.348   0.634   5.397 -0.4159  0.3254  0.1977
 6684SOL    HW226502   1.391   0.658   5.479  1.5223 -0.5066 -0.5089
 6684SOL    HW326503   1.420   0.614   5.337 -1.7811  0.6916 -1.6571
 6684SOL    MW426504   1.364   0.634   5.400 -0.3403  0.2639 -0.1402
 6685SOL     OW26505   3.963   2.961   0.001  0.4133  0.0013  0.3547
 6685SOL    HW226506   3.952   2.990   0.091  1.0555  0.8685  0.1686
 6685SOL    HW326507   4.026   3.023  -0.036 -0.3223  0.0383 -0.8757
 6685SOL    MW426508   3.970   2.973   0.008  0.4010  0.1206  0.1678
 6686SOL     OW26509   0.459   3.241   6.140  0.0828 -0.1654  0.0082
 6686SOL    HW226510   0.464   3.280   6.053  1.8382 -2.0597 -0.7925
 6686SOL    HW326511   0.383   3.284   6.180 -0.1331  1.5302 -2.0265
 6686SOL    MW426512   0.449   3.252   6.134  0.2859 -0.1916 -0.3659
 6687SOL     OW26513   4.728   4.619   5.327 -0.2892 -0.2007 -0.3219
 6687SOL    HW226514   4.643   4.639   5.366 -1.5043 -0.5116 -2.6309
 6687SOL    HW326515   4.709   4.606   5.234  2.2846 -0.3897 -0.8909
 6687SOL    MW426516   4.714   4.620   5.320 -0.1100 -0.2666 -0.7016
 6688SOL     OW26517   0.563   5.863   4.324  0.5532  0.3272  0.2929
 6688SOL    HW226518   0.556   5.910   4.407 -0.0951 -0.6157  0.7864
 6688SOL    HW326519   0.473   5.857   4.291  0.4801 -1.3447  0.6999
 6688SOL    MW426520   0.550   5.868   4.330  0.4580 -0.0178  0.4117
 6689SOL     OW26521   0.453   1.326   4.144  0.4351  0.7919 -0.0693
 6689SOL    HW226522   0.531   1.281   4.111  0.7998  0.6953  0.9177
 6689SOL    HW326523   0.382   1.262   4.132  0.8627  0.1226  0.8718
 6689SOL    MW426524   0.454   1.311   4.138  0.5396  0.6909  0.1851
 6690SOL     OW26525   5.722   6.084   3.829 -0.1454 -0.0191  0.3408
 6690SOL    HW226526   5.687   6.133   3.903 -1.0991  0.5030 -0.4189
 6690SOL    HW326527   5.657   6.015   3.813  1.5792 -2.1239  1.9168
 6690SOL    MW426528   5.709   6.082   3.836 -0.0437 -0.2279  0.4485
 6691SOL     OW26529   1.146   2.963   0.680 -0.5523 -0.8510  0.6068
 6691SOL    HW226530   1.208   3.014   0.731 -0.2608 -1.4579  0.8626
 6691SOL    HW326531   1.181   2.874   0.680 -0.9828 -1.0296  0.0490
 6691SOL    MW426532   1.159   2.958   0.687 -0.5707 -0.9546  0.5670
 6692SOL     OW26533   2.011   4.354   2.053 -0.0483  0.7883 -0.0775
 6692SOL    HW226534   2.087   4.365   1.996  0.6473  3.2427  1.1627
 6692SOL    HW326535   1.990   4.443   2.083 -1.8832 -0.1046  1.5619
 6692SOL    MW426536   2.018   4.367   2.050 -0.1986  0.9943  0.3024
 6693SOL     OW26537   4.000   4.614   3.565  0.6623 -0.2732 -0.2055
 6693SOL    HW226538   3.992   4.607   3.660 -1.1489 -0.4278 -0.3229
 6693SOL    HW326539   4.012   4.524   3.536 -0.3703 -0.4182 -0.2138
 6693SOL    MW426540   4.000   4.601   3.574  0.2871 -0.3127 -0.2221
 6694SOL     OW26541   5.571   4.270   5.713 -0.5568 -0.2680 -0.5345
 6694SOL    HW226542   5.609   4.311   5.791 -1.3328 -0.0628 -0.2505
 6694SOL    HW326543   5.478   4.261   5.734 -0.4093 -2.2460 -0.5520
 6694SOL    MW426544   5.563   4.274   5.726 -0.6397 -0.5019 -0.4993
 6695SOL     OW26545   5.063   1.571   1.129  0.0720 -0.1968  0.4082
 6695SOL    HW226546   5.057   1.476   1.116  3.7414 -0.5917  0.7480
 6695SOL    HW326547   5.020   1.608   1.052 -1.3787 -2.0907  0.2378
 6695SOL    MW426548   5.056   1.563   1.117  0.3647 -0.4988  0.4306
 6696SOL     OW26549   0.952   2.894   2.624 -0.8027  0.1126  0.0732
 6696SOL    HW226550   1.036   2.886   2.669  0.5233 -1.2631 -2.4342
 6696SOL    HW326551   0.887   2.874   2.691  0.8365  0.9495  2.0345
 6696SOL    MW426552   0.955   2.891   2.639 -0.4115  0.0415  0.0012
 6697SOL     OW26553   3.956   2.711   1.123  0.0509 -0.8238 -0.7148
 6697SOL    HW226554   4.048   2.723   1.149 -0.2962 -1.5752  0.9566
 6697SOL    HW326555   3.924   2.641   1.180 -1.7972 -0.0107 -0.7054
 6697SOL    MW426556   3.964   2.703   1.134 -0.2387 -0.8157 -0.4930
 6698SOL     OW26557   2.592   3.810   3.957  0.1859 -0.3068  0.7188
 6698SOL    HW226558   2.627   3.892   3.924  1.1037 -0.6958  0.6916
 6698SOL    HW326559   2.499   3.827   3.972  0.9327  1.7205  3.8208
 6698SOL    MW426560   2.584   3.823   3.955  0.4055 -0.0906  1.1245
 6699SOL     OW26561   0.595   5.128   4.195  0.1854 -0.4443  0.3409
 6699SOL    HW226562   0.506   5.099   4.213 -0.9033  1.5372 -1.3832
 6699SOL    HW326563   0.591   5.224   4.199  1.5669 -0.1703 -2.3765
 6699SOL    MW426564   0.583   5.137   4.198  0.2240 -0.1467 -0.2451
 6700SOL     OW26565   4.166   2.208   5.660 -0.2742 -0.1451 -0.5461
 6700SOL    HW226566   4.247   2.182   5.702 -1.3046 -1.0033  0.9826
 6700SOL    HW326567   4.127   2.272   5.720 -0.8616  0.0675 -1.1429
 6700SOL    MW426568   4.171   2.213   5.673 -0.4876 -0.2303 -0.4232
 6701SOL     OW26569   5.557   5.089   1.538  0.0431 -0.3272  0.1831
 6701SOL    HW226570   5.484   5.073   1.478  0.4693  0.7013 -0.6308
 6701SOL    HW326571   5.515   5.128   1.616 -0.3742 -0.5648  0.0812
 6701SOL    MW426572   5.542   5.092   1.541  0.0443 -0.2228  0.0623
 6702SOL     OW26573   2.501   5.298   0.514  0.1419  0.3342  0.5268
 6702SOL    HW226574   2.570   5.345   0.560 -0.0991 -1.3805  2.7996
 6702SOL    HW326575   2.538   5.211   0.498  0.0606  0.7203 -2.2856
 6702SOL    MW426576   2.515   5.293   0.518  0.0994  0.1589  0.4556
 6703SOL     OW26577   0.783   0.973   0.852  0.2548 -0.0365 -0.2811
 6703SOL    HW226578   0.796   0.939   0.940  0.1132 -1.1226 -0.6678
 6703SOL    HW326579   0.869   0.967   0.811  0.1672 -0.1933 -0.4429
 6703SOL    MW426580   0.796   0.968   0.858  0.2246 -0.2005 -0.3534
 6704SOL     OW26581   5.221   1.751   0.145 -0.0627  0.2766  0.6178
 6704SOL    HW226582   5.212   1.757   0.049 -2.0595 -3.0890  0.4486
 6704SOL    HW326583   5.161   1.817   0.179 -1.0170  0.0185 -0.5023
 6704SOL    MW426584   5.212   1.761   0.137 -0.4521 -0.2015  0.4477
 6705SOL     OW26585   6.144   5.289   4.189 -0.8548  0.6298  0.1398
 6705SOL    HW226586   6.150   5.205   4.235  0.4675  0.5740 -0.0764
 6705SOL    HW326587   6.115   5.266   4.101  0.4349  0.2618 -0.2113
 6705SOL    MW426588   6.141   5.275   4.183 -0.5102  0.5739  0.0649
 6706SOL     OW26589   4.437   2.289   2.455 -0.1052 -0.1118 -0.3889
 6706SOL    HW226590   4.437   2.324   2.366  3.0624 -2.2988 -1.4455
 6706SOL    HW326591   4.512   2.330   2.497 -0.5469 -0.4044  0.7248
 6706SOL    MW426592   4.447   2.299   2.449  0.2544 -0.4389 -0.3813
 6707SOL     OW26593   2.441   5.492   4.432  0.0376 -0.4728  0.5970
 6707SOL    HW226594   2.357   5.465   4.470 -1.0812 -2.5024 -2.8646
 6707SOL    HW326595   2.504   5.430   4.469 -0.5048 -0.6980  1.1800
 6707SOL    MW426596   2.438   5.480   4.442 -0.1816 -0.7703  0.2172
 6708SOL     OW26597   2.097   4.997   5.649  0.1125  0.0835 -0.1348
 6708SOL    HW226598   2.015   5.045   5.666  0.6652  1.1856 -0.4714
 6708SOL    HW326599   2.079   4.908   5.678 -1.4030  0.1639 -0.7178
 6708SOL    MW426600   2.083   4.992   5.655 -0.0145  0.2395 -0.2561
 6709SOL     OW26601   4.492   1.940   1.511 -0.1613 -0.8822  0.3573
 6709SOL    HW226602   4.542   1.886   1.573  1.3240 -0.8651 -0.7689
 6709SOL    HW326603   4.434   1.992   1.567  0.2155 -1.7789  1.6407
 6709SOL    MW426604   4.491   1.940   1.527  0.0844 -0.9983  0.3780
 6710SOL     OW26605   3.588   3.760   1.360 -0.1787 -0.0028 -0.0261
 6710SOL    HW226606   3.502   3.773   1.319  0.0390  0.4006 -0.3793
 6710SOL    HW326607   3.634   3.843   1.343  0.2065 -0.1404  0.3372
 6710SOL    MW426608   3.583   3.773   1.352 -0.0991  0.0323 -0.0248
 6711SOL     OW26609   0.558   4.641   2.511 -0.1476 -0.1078  0.1956
 6711SOL    HW226610   0.652   4.647   2.495 -0.3230  1.0687 -0.5281
 6711SOL    HW326611   0.523   4.601   2.432 -0.2273 -0.9497  0.6413
 6711SOL    MW426612   0.566   4.636   2.499 -0.1812 -0.0636  0.1589
 6712SOL     OW26613   5.132   6.046   4.793  0.4790  0.3070  0.1165
 6712SOL    HW226614   5.154   6.048   4.699  0.6830  1.4538  0.1749
 6712SOL    HW326615   5.159   5.959   4.822 -1.1552 -0.7393 -1.2527
 6712SOL    MW426616   5.138   6.035   4.784  0.2903  0.3203 -0.0565
 6713SOL     OW26617   2.844   1.654   5.794  0.2755 -0.1579  0.9153
 6713SOL    HW226618   2.814   1.602   5.868  1.2167 -1.4558  0.4219
 6713SOL    HW326619   2.935   1.676   5.814  0.5637 -0.5834  0.1248
 6713SOL    MW426620   2.852   1.650   5.806  0.4377 -0.3853  0.7459
 6714SOL     OW26621   5.903   4.960   5.405 -1.2488 -0.1850  0.1262
 6714SOL    HW226622   5.855   5.042   5.399 -0.5479  0.2329  0.1053
 6714SOL    HW326623   5.881   4.913   5.325  0.8254  1.3819 -1.4995
 6714SOL    MW426624   5.894   4.965   5.394 -0.8827  0.0769 -0.0911
 6715SOL     OW26625   2.410   5.650   2.794  0.6943  0.6757 -0.7504
 6715SOL    HW226626   2.486   5.593   2.783 -0.2209 -0.7121 -0.2243
 6715SOL    HW326627   2.446   5.735   2.818  2.0575 -0.1920  0.3949
 6715SOL    MW426628   2.425   5.653   2.796  0.7534  0.3781 -0.5299
 6716SOL     OW26629   4.653   4.941   5.795 -0.2931  0.2303 -0.2095
 6716SOL    HW226630   4.635   4.961   5.703 -0.7852  2.1045  0.2680
 6716SOL    HW326631   4.600   5.003   5.844  1.9191  1.0508  1.3203
 6716SOL    MW426632   4.644   4.952   5.789 -0.0661  0.5858  0.0553
 6717SOL     OW26633   0.173   0.139   3.157 -0.4695  0.5899 -0.4806
 6717SOL    HW226634   0.183   0.234   3.164  1.0096  0.5732 -1.7353
 6717SOL    HW326635   0.261   0.107   3.137 -0.4624 -1.3387  2.1523
 6717SOL    MW426636   0.186   0.147   3.155 -0.2734  0.3333 -0.2988
 6718SOL     OW26637   0.061   6.039   1.735  0.0726 -0.0593  1.0019
 6718SOL    HW226638  -0.034   6.045   1.747 -0.1149  0.3680 -0.5083
 6718SOL    HW326639   0.080   5.945   1.740 -0.5252 -0.2042  0.6365
 6718SOL    MW426640   0.051   6.028   1.737 -0.0310 -0.0220  0.7544
 6719SOL     OW26641   3.502   0.312   1.169  0.3723 -0.1345  0.6182
 6719SOL    HW226642   3.435   0.323   1.237 -0.9059  0.0561 -0.6238
 6719SOL    HW326643   3.487   0.384   1.108  1.0203 -0.7134 -0.2484
 6719SOL    MW426644   3.491   0.323   1.170  0.2892 -0.1858  0.3400
 6720SOL     OW26645   6.346   5.939   0.879 -0.1362  0.1707 -0.0837
 6720SOL    HW226646   6.430   5.930   0.926  1.4674  3.1718 -2.0366
 6720SOL    HW326647   6.310   6.022   0.911  0.2921  1.5594 -2.9109
 6720SOL    MW426648   6.353   5.949   0.889  0.1319  0.7499 -0.7144
 6721SOL     OW26649   5.934   3.296   1.650  0.2621  0.1694  0.0564
 6721SOL    HW226650   5.990   3.278   1.725  1.1018 -1.0946 -0.8365
 6721SOL    HW326651   5.911   3.210   1.616 -2.3437  0.6329  0.4500
 6721SOL    MW426652   5.938   3.282   1.656  0.0291  0.0638 -0.0095
 6722SOL     OW26653   6.275   2.457   0.239 -0.2846 -0.3123  0.1018
 6722SOL    HW226654   6.308   2.517   0.173 -0.6755  0.6265  0.7450
 6722SOL    HW326655   6.240   2.383   0.189 -0.6153  0.4007 -0.7420
 6722SOL    MW426656   6.274   2.455   0.224 -0.3798 -0.0943  0.0753
 6723SOL     OW26657   2.459   5.266   0.214  0.0595 -0.5261  0.5616
 6723SOL    HW226658   2.451   5.346   0.163  1.9410 -0.7629 -0.1973
 6723SOL    HW326659   2.520   5.289   0.285 -0.5670 -0.8799  1.2219
 6723SOL    MW426660   2.466   5.279   0.217  0.2251 -0.6040  0.5486
 6724SOL     OW26661   2.795   4.887   4.045 -0.1977 -0.1684  0.2679
 6724SOL    HW226662   2.730   4.911   3.979  0.2529 -1.5051 -0.6876
 6724SOL    HW326663   2.834   4.971   4.071 -2.5396  0.7347  1.1775
 6724SOL    MW426664   2.791   4.902   4.040 -0.4472 -0.2257  0.2618
 6725SOL     OW26665   2.107   0.939   1.021 -0.2093  0.1875  0.0513
 6725SOL    HW226666   2.137   0.849   1.037  0.0471  0.2847  0.1217
 6725SOL    HW326667   2.153   0.991   1.086  1.5275  0.7176 -1.5092
 6725SOL    MW426668   2.117   0.934   1.031  0.0537  0.2702 -0.1453
 6726SOL     OW26669   2.311   3.335   3.347  0.2518 -0.3006  0.0104
 6726SOL    HW226670   2.393   3.325   3.396  0.9297  3.5747  0.0113
 6726SOL    HW326671   2.339   3.350   3.256 -0.5706 -0.5947 -0.2992
 6726SOL    MW426672   2.326   3.335   3.341  0.2327  0.1719 -0.0303
 6727SOL     OW26673   0.360   3.884   1.675 -0.1088  1.2614  0.1533
 6727SOL    HW226674   0.374   3.789   1.678 -1.8361  0.8238 -2.3343
 6727SOL    HW326675   0.308   3.903   1.754  0.2398  0.1456  0.6712
 6727SOL    MW426676   0.355   3.874   1.686 -0.2907  1.0565 -0.1066
 6728SOL     OW26677   0.345   0.501   1.361  0.8038 -0.0008 -0.2874
 6728SOL    HW226678   0.323   0.588   1.330  0.7115 -0.1066 -0.5251
 6728SOL    HW326679   0.364   0.512   1.454 -0.4744  0.0553 -0.0223
 6728SOL    MW426680   0.345   0.514   1.369  0.6230 -0.0074 -0.2838
 6729SOL     OW26681   0.541   5.851   6.400  0.0941 -0.3704 -0.3768
 6729SOL    HW226682   0.458   5.898   6.387  0.8428  1.4132  0.8966
 6729SOL    HW326683   0.605   5.903   6.350  0.6201 -1.1913 -0.5709
 6729SOL    MW426684   0.539   5.864   6.392  0.2623 -0.2434 -0.2344
 6730SOL     OW26685   5.992   4.296   5.984  0.1177 -0.5588  0.1390
 6730SOL    HW226686   6.031   4.383   5.984  0.7712 -0.7909  2.8018
 6730SOL    HW326687   5.909   4.308   5.938  0.0763  1.5294  0.6454
 6730SOL    MW426688   5.986   4.309   5.978  0.1985 -0.3139  0.5571
 6731SOL     OW26689   5.085   1.444   0.603  0.7545 -0.3875 -0.0699
 6731SOL    HW226690   5.088   1.377   0.535  1.0018 -2.8697  2.2317
 6731SOL    HW326691   4.991   1.456   0.620  0.6116  1.3450 -1.7649
 6731SOL    MW426692   5.073   1.437   0.596  0.7683 -0.4864  0.0101
 6732SOL     OW26693   0.424   4.390   1.898 -0.3387  0.4151 -0.3513
 6732SOL    HW226694   0.499   4.391   1.838 -0.0399  1.8895 -0.0004
 6732SOL    HW326695   0.388   4.479   1.892  0.6948  1.1689  2.8451
 6732SOL    MW426696   0.429   4.402   1.889 -0.1629  0.7091  0.1167
 6733SOL     OW26697   3.151   5.591   2.541 -0.3082 -0.6091  0.1541
 6733SOL    HW226698   3.127   5.680   2.513 -0.7583 -0.7841 -0.0242
 6733SOL    HW326699   3.140   5.537   2.462  1.3319 -0.5920 -0.1230
 6733SOL    MW426700   3.146   5.596   2.527 -0.1512 -0.6299  0.0940
 6734SOL     OW26701   4.402   4.117   3.135  0.3632 -0.5220 -0.2353
 6734SOL    HW226702   4.464   4.045   3.139  0.0989 -0.7105  0.7910
 6734SOL    HW326703   4.330   4.085   3.080  0.9381 -0.4816 -1.0189
 6734SOL    MW426704   4.401   4.104   3.129  0.4042 -0.5416 -0.2033
 6735SOL     OW26705   2.588   0.674   2.832 -0.7438  0.5214 -0.1245
 6735SOL    HW226706   2.600   0.769   2.828 -3.7930  1.0413  0.4073
 6735SOL    HW326707   2.570   0.656   2.924 -1.2290 -0.4089 -0.3890
 6735SOL    MW426708   2.587   0.684   2.843 -1.2102  0.4672 -0.0892
 6736SOL     OW26709   0.912   3.807   0.869  0.0937  0.5200 -0.0698
 6736SOL    HW226710   0.824   3.815   0.833  0.0052 -0.4195 -0.0848
 6736SOL    HW326711   0.925   3.887   0.920  0.7447  2.6271 -3.2342
 6736SOL    MW426712   0.902   3.819   0.871  0.1679  0.6740 -0.4893
 6737SOL     OW26713   2.492   5.240   1.129  0.0754  0.3029  0.0933
 6737SOL    HW226714   2.527   5.154   1.107  1.7472  0.8389  0.4972
 6737SOL    HW326715   2.442   5.226   1.210 -0.7988 -0.5170 -0.5801
 6737SOL    MW426716   2.490   5.227   1.137  0.1807  0.2654  0.0578
 6738SOL     OW26717   1.894   0.193   0.505  0.1098  0.2266 -0.3319
 6738SOL    HW226718   1.886   0.110   0.553 -2.8791  0.6098  0.0535
 6738SOL    HW326719   1.833   0.252   0.550 -1.1105  1.3157 -3.2067
 6738SOL    MW426720   1.885   0.190   0.517 -0.4456  0.4208 -0.6603
 6739SOL     OW26721   5.053   4.378   6.135  0.1206  0.1099 -0.7767
 6739SOL    HW226722   5.085   4.378   6.225 -0.6741  0.0743 -0.4869
 6739SOL    HW326723   5.068   4.288   6.105 -2.4832 -0.8257  0.3973
 6739SOL    MW426724   5.059   4.366   6.143 -0.3278 -0.0183 -0.5836
 6740SOL     OW26725   0.525   1.923   5.280 -0.0882  0.0287  0.4838
 6740SOL    HW226726   0.566   1.870   5.349 -1.8346 -0.8398  0.9159
 6740SOL    HW326727   0.443   1.954   5.319  1.1759  3.7625  0.4958
 6740SOL    MW426728   0.519   1.920   5.294 -0.1518  0.4067  0.5424
 6741SOL     OW26729   2.628   4.962   4.801  0.5008 -0.4271 -0.2879
 6741SOL    HW226730   2.548   4.912   4.814  0.4932 -0.3904 -0.1973
 6741SOL    HW326731   2.664   4.929   4.719 -0.5968  0.8734 -1.3414
 6741SOL    MW426732   2.623   4.951   4.792  0.3550 -0.2507 -0.4149
 6742SOL     OW26733   4.451   0.864   2.469  0.3968  0.1640  0.4914
 6742SOL    HW226734   4.488   0.880   2.382  1.3672  0.7005  0.9888
 6742SOL    HW326735   4.358   0.848   2.452  0.0980  2.4726 -0.4416
 6742SOL    MW426736   4.443   0.864   2.455  0.4854  0.5394  0.4340
 6743SOL     OW26737   6.095   1.716   1.658  0.7003 -0.0209  0.4194
 6743SOL    HW226738   6.132   1.785   1.603  1.9826  1.5055  3.0171
 6743SOL    HW326739   6.060   1.762   1.734 -2.1106 -1.9300  0.4114
 6743SOL    MW426740   6.096   1.731   1.660  0.4986 -0.0714  0.7611
 6744SOL     OW26741   1.425   6.204   0.393 -0.2041  0.1132  0.0909
 6744SOL    HW226742   1.362   6.134   0.410  0.3436 -0.8265 -1.5892
 6744SOL    HW326743   1.371   6.277   0.363 -0.7288  0.2669  1.3432
 6744SOL    MW426744   1.409   6.204   0.392 -0.2011  0.0095  0.0345
 6745SOL     OW26745   6.147   2.884   1.261  0.5705 -0.5335  0.0406
 6745SOL    HW226746   6.221   2.882   1.201  0.1537  2.5264 -0.7694
 6745SOL    HW326747   6.185   2.913   1.344  0.4440  0.2194 -0.1538
 6745SOL    MW426748   6.162   2.888   1.264  0.4988 -0.0305 -0.0919
 6746SOL     OW26749   4.345   0.384   2.348  0.1713 -0.3046 -0.0255
 6746SOL    HW226750   4.293   0.308   2.326  1.4077 -1.0690 -0.4271
 6746SOL    HW326751   4.351   0.383   2.444  0.5914 -1.0115 -0.0548
 6746SOL    MW426752   4.339   0.374   2.358  0.3898 -0.4987 -0.0823
 6747SOL     OW26753   5.986   5.287   2.737  0.1062 -0.3607 -0.8775
 6747SOL    HW226754   5.923   5.327   2.677 -0.2510 -0.0537 -0.3077
 6747SOL    HW326755   6.070   5.294   2.692 -0.5316 -2.8346 -2.7013
 6747SOL    MW426756   5.989   5.293   2.723 -0.0251 -0.6466 -1.0430
 6748SOL     OW26757   5.712   6.111   1.585  0.3837  0.3067 -0.4327
 6748SOL    HW226758   5.656   6.145   1.655 -0.2838  0.5765 -1.0803
 6748SOL    HW326759   5.679   6.023   1.569  2.5160 -1.0006  1.6809
 6748SOL    MW426760   5.700   6.104   1.592  0.5769  0.1698 -0.2393
 6749SOL     OW26761   2.093   2.996   6.059  0.0791  0.4149 -0.2283
 6749SOL    HW226762   2.093   2.921   6.117 -1.9108  0.7823  0.3374
 6749SOL    HW326763   2.181   3.031   6.064  0.1708  0.0004  2.0016
 6749SOL    MW426764   2.104   2.991   6.067 -0.1714  0.4087  0.1406
 6750SOL     OW26765   5.230   0.957   2.460 -0.4086  0.3822  0.3223
 6750SOL    HW226766   5.180   0.987   2.535  0.0516 -0.2931  0.9174
 6750SOL    HW326767   5.312   0.923   2.497 -0.1313  0.1273 -0.4876
 6750SOL    MW426768   5.234   0.956   2.474 -0.3113  0.2595  0.2940
 6751SOL     OW26769   2.223   5.195   2.519 -0.0508 -0.3956 -0.1332
 6751SOL    HW226770   2.290   5.173   2.583 -1.0066 -0.4408  0.8670
 6751SOL    HW326771   2.250   5.281   2.484  0.9269 -0.7670 -0.3185
 6751SOL    MW426772   2.235   5.204   2.523 -0.0479 -0.4506 -0.0256
 6752SOL     OW26773   2.586   4.279   4.470 -0.4168  0.3817  0.0380
 6752SOL    HW226774   2.518   4.221   4.437 -0.7782  0.4321  0.6917
 6752SOL    HW326775   2.668   4.239   4.441 -0.6735 -0.3169  0.2774
 6752SOL    MW426776   2.588   4.266   4.462 -0.4984  0.2962  0.1558
 6753SOL     OW26777   6.365   2.295   2.792 -0.6201  0.1515 -0.2217
 6753SOL    HW226778   6.294   2.300   2.855 -1.4095 -0.7256 -1.0180
 6753SOL    HW326779   6.343   2.221   2.736 -0.1974  1.1856 -1.8321
 6753SOL    MW426780   6.353   2.286   2.793 -0.6685  0.1722 -0.5393
 6754SOL     OW26781   0.230   6.157   1.916 -0.3807 -0.0329 -0.2215
 6754SOL    HW226782   0.187   6.101   1.852 -1.3725 -0.3344  0.6906
 6754SOL    HW326783   0.225   6.109   1.999  0.3825  0.5951  0.2085
 6754SOL    MW426784   0.223   6.143   1.919 -0.4109  0.0102 -0.0444
 6755SOL     OW26785   2.806   1.173   0.632  0.6322 -0.2772  0.3458
 6755SOL    HW226786   2.895   1.180   0.666  0.9693 -1.0914 -0.3318
 6755SOL    HW326787   2.809   1.100   0.571 -0.7865 -1.1108  1.2017
 6755SOL    MW426788   2.818   1.164   0.628  0.4895 -0.4946  0.3693
 6756SOL     OW26789   6.218   0.562   4.266 -0.1245  0.2236 -0.0855
 6756SOL    HW226790   6.195   0.480   4.309 -0.0435 -0.2952 -0.9984
 6756SOL    HW326791   6.294   0.594   4.313 -0.1299 -0.2546  0.2487
 6756SOL    MW426792   6.225   0.556   4.278 -0.1145  0.0921 -0.1618
 6757SOL     OW26793   3.312   4.868   1.114  0.0315 -0.2836  0.6086
 6757SOL    HW226794   3.329   4.775   1.130 -0.5560 -0.8210 -1.5462
 6757SOL    HW326795   3.386   4.897   1.060  0.8039  0.8528  2.1803
 6757SOL    MW426796   3.324   4.860   1.109  0.0559 -0.2046  0.5317
 6758SOL     OW26797   2.775   4.068   0.990  0.0266 -0.0496 -0.2161
 6758SOL    HW226798   2.810   4.157   0.991  4.1299 -1.4531  0.0433
 6758SOL    HW326799   2.806   4.031   0.908 -0.3228 -1.6877  0.3502
 6758SOL    MW426800   2.783   4.075   0.980  0.5219 -0.4509 -0.1072
 6759SOL     OW26801   2.674   0.373   1.818  0.6710  0.4023 -0.3324
 6759SOL    HW226802   2.728   0.354   1.742 -0.4113 -0.4496 -0.9196
 6759SOL    HW326803   2.703   0.310   1.884  0.7735  0.3106 -0.4632
 6759SOL    MW426804   2.685   0.362   1.817  0.5417  0.2778 -0.4271
 6760SOL     OW26805   0.734   3.901   4.805 -0.3263  0.2878 -1.0393
 6760SOL    HW226806   0.649   3.937   4.832 -0.3127 -0.7870  0.5691
 6760SOL    HW326807   0.799   3.954   4.851 -0.1367  0.6635 -1.7243
 6760SOL    MW426808   0.731   3.912   4.814 -0.2995  0.1956 -0.9175
 6761SOL     OW26809   1.920   3.555   0.700 -0.2661 -0.2177  0.1079
 6761SOL    HW226810   1.838   3.602   0.688  0.2813  0.3526 -1.7200
 6761SOL    HW326811   1.980   3.592   0.635  1.2616 -1.0452  0.9646
 6761SOL    MW426812   1.917   3.566   0.690  0.0077 -0.2516 -0.0202
 6762SOL     OW26813   3.257   0.122   3.564 -0.1859 -0.8161  0.0037
 6762SOL    HW226814   3.227   0.192   3.621 -2.0410  1.1320 -3.0799
 6762SOL    HW326815   3.323   0.163   3.508  0.8244 -2.3458  0.0155
 6762SOL    MW426816   3.262   0.137   3.564 -0.2973 -0.7609 -0.4016
 6763SOL     OW26817   4.817   1.019   4.260  0.1747  0.3338  0.0134
 6763SOL    HW226818   4.756   1.013   4.334 -1.4096  0.5515 -1.2095
 6763SOL    HW326819   4.775   0.968   4.191  0.7332  1.5909 -1.2961
 6763SOL    MW426820   4.803   1.011   4.261  0.0394  0.5284 -0.3207
 6764SOL     OW26821   5.631   5.595   0.216 -0.3474  0.0028  0.1265
 6764SOL    HW226822   5.687   5.646   0.275  0.1600 -0.2824 -0.1090
 6764SOL    HW326823   5.549   5.584   0.265  0.0472 -0.1780  0.7557
 6764SOL    MW426824   5.627   5.600   0.230 -0.2284 -0.0587  0.1785
 6765SOL     OW26825   1.752   6.091   4.201 -0.1395 -0.2827 -0.2074
 6765SOL    HW226826   1.714   6.062   4.118 -0.1195 -1.9975  0.3429
 6765SOL    HW326827   1.845   6.103   4.182 -0.4689  1.5063 -0.9387
 6765SOL    MW426828   1.759   6.089   4.188 -0.1803 -0.2729 -0.2313
 6766SOL     OW26829   6.107   3.462   5.348 -0.2523  0.2902 -0.5528
 6766SOL    HW226830   6.139   3.386   5.300 -0.0290  0.8613 -1.3349
 6766SOL    HW326831   6.173   3.530   5.332 -0.8599  0.8922 -0.5605
 6766SOL    MW426832   6.120   3.461   5.340 -0.3030  0.4449 -0.6570
 6767SOL     OW26833   3.529   3.916   4.713  0.2356  0.1750 -0.4349
 6767SOL    HW226834   3.444   3.909   4.670  0.5282  0.5271 -1.0752
 6767SOL    HW326835   3.507   3.926   4.806 -0.5156  2.4296 -0.7822
 6767SOL    MW426836   3.515   3.917   4.720  0.1751  0.5189 -0.5652
 6768SOL     OW26837   2.050   4.606   1.145  0.7430 -0.6243  0.6870
 6768SOL    HW226838   1.994   4.588   1.221 -0.3916  0.7539  0.2340
 6768SOL    HW326839   2.131   4.642   1.182  0.4963 -0.6712  1.2805
 6768SOL    MW426840   2.053   4.609   1.160  0.5608 -0.4486  0.7055
 6769SOL     OW26841   1.395   4.188   4.394  0.3355 -0.8655  0.1635
 6769SOL    HW226842   1.482   4.156   4.418  1.0101  1.1808  0.7204
 6769SOL    HW326843   1.337   4.152   4.461  1.0511 -0.9281  0.7642
 6769SOL    MW426844   1.399   4.179   4.406  0.5189 -0.6038  0.3162
 6770SOL     OW26845   0.483   4.020   6.406 -0.2227  0.0790 -0.0438
 6770SOL    HW226846   0.472   3.929   6.435  2.4943 -0.3664 -0.2024
 6770SOL    HW326847   0.489   4.070   6.488  3.3997 -0.6574  0.3107
 6770SOL    MW426848   0.482   4.015   6.421  0.6137 -0.0769 -0.0180
 6771SOL     OW26849   5.556   4.485   4.253  0.6144  0.5705  0.1236
 6771SOL    HW226850   5.542   4.553   4.187 -0.2438  0.5415  0.2678
 6771SOL    HW326851   5.619   4.426   4.212 -0.9268 -0.2015 -1.2776
 6771SOL    MW426852   5.562   4.486   4.239  0.2978  0.4648 -0.0423
 6772SOL     OW26853   3.965   4.321   0.348 -0.8249 -0.1283  0.6282
 6772SOL    HW226854   3.907   4.267   0.293 -0.0430 -1.6143  1.1919
 6772SOL    HW326855   4.052   4.309   0.310 -0.3276 -0.9090  1.9539
 6772SOL    MW426856   3.969   4.312   0.336 -0.6561 -0.4274  0.8775
 6773SOL     OW26857   3.276   3.458   4.839  0.1577 -0.6093  0.4650
 6773SOL    HW226858   3.368   3.452   4.867  0.3434  0.1934  0.0433
 6773SOL    HW326859   3.240   3.528   4.893  0.1822  0.0736 -0.3887
 6773SOL    MW426860   3.284   3.466   4.850  0.1854 -0.4133  0.2968
 6774SOL     OW26861   5.626   4.708   2.386  0.4849  0.3852 -0.0057
 6774SOL    HW226862   5.721   4.720   2.390  0.4645  0.2939  1.1134
 6774SOL    HW326863   5.602   4.731   2.296  1.7896 -1.2995 -0.8227
 6774SOL    MW426864   5.635   4.713   2.375  0.6543  0.1509  0.0341
 6775SOL     OW26865   4.427   4.068   5.810  0.1525  0.0531 -0.1433
 6775SOL    HW226866   4.515   4.104   5.818  1.0424 -1.5587 -1.8788
 6775SOL    HW326867   4.426   4.027   5.723 -2.6379  0.8682 -0.5825
 6775SOL    MW426868   4.438   4.068   5.800 -0.0982 -0.0520 -0.4303
 6776SOL     OW26869   3.504   5.284   0.226 -0.3815  0.1849  0.3200
 6776SOL    HW226870   3.575   5.350   0.227 -0.3999  0.2387  2.3840
 6776SOL    HW326871   3.523   5.230   0.150  1.5381  0.5924  0.4551
 6776SOL    MW426872   3.516   5.286   0.216 -0.1307  0.2458  0.6102
 6777SOL     OW26873   2.387   1.520   1.383 -0.4514 -0.5309 -0.5340
 6777SOL    HW226874   2.435   1.570   1.448  0.2917 -1.3978 -0.3973
 6777SOL    HW326875   2.435   1.533   1.302  0.3459 -1.8304 -0.2872
 6777SOL    MW426876   2.399   1.528   1.381 -0.2482 -0.8168 -0.4834
 6778SOL     OW26877   5.038   1.274   5.755  0.0950  0.1435  0.0444
 6778SOL    HW226878   5.089   1.325   5.692 -0.4018  0.0315 -0.4563
 6778SOL    HW326879   5.068   1.184   5.743  0.8368  0.2696  0.7986
 6778SOL    MW426880   5.049   1.269   5.745  0.1273  0.1454  0.0779
 6779SOL     OW26881   3.039   1.167   4.832 -0.9124 -0.2970 -0.0423
 6779SOL    HW226882   3.102   1.192   4.764  0.8070  1.7342  2.1652
 6779SOL    HW326883   2.961   1.218   4.812 -0.4778  0.1770 -0.5719
 6779SOL    MW426884   3.037   1.177   4.820 -0.6282  0.0335  0.1791
 6780SOL     OW26885   2.522   0.296   2.975 -0.2376 -0.0848  0.2474
 6780SOL    HW226886   2.432   0.325   2.967 -0.4731 -0.8087  0.2157
 6780SOL    HW326887   2.516   0.206   3.008  0.3998 -0.7336 -1.2932
 6780SOL    MW426888   2.510   0.288   2.979 -0.1846 -0.2659  0.0400
 6781SOL     OW26889   1.310   2.608   5.548  0.1700 -0.0213  0.0360
 6781SOL    HW226890   1.347   2.626   5.635  2.4338 -0.4188 -0.7693
 6781SOL    HW326891   1.270   2.522   5.555 -0.2764  0.2488  0.8599
 6781SOL    MW426892   1.310   2.599   5.560  0.4098 -0.0381  0.0384
 6782SOL     OW26893   2.191   4.953   3.445  0.4325 -0.0329 -0.0248
 6782SOL    HW226894   2.158   5.041   3.428  0.9315 -0.0293 -1.0410
 6782SOL    HW326895   2.181   4.942   3.539 -0.2087  0.8741  0.0288
 6782SOL    MW426896   2.185   4.963   3.455  0.4137  0.0872 -0.1518
 6783SOL     OW26897   4.843   1.960   1.152 -0.5596 -0.0793  0.1041
 6783SOL    HW226898   4.824   1.875   1.111 -3.0945  1.8014 -3.0198
 6783SOL    HW326899   4.771   1.974   1.213  0.8935 -0.9131  2.1195
 6783SOL    MW426900   4.831   1.950   1.155 -0.7023  0.0588 -0.0421
 6784SOL     OW26901   2.263   4.550   1.924 -0.1005  0.2764  0.1198
 6784SOL    HW226902   2.231   4.635   1.894 -0.3111 -0.2360 -1.1797
 6784SOL    HW326903   2.232   4.488   1.858  0.6677 -0.7101  0.6586
 6784SOL    MW426904   2.255   4.553   1.911 -0.0269  0.0786  0.0195
 6785SOL     OW26905   4.181   1.443   5.488  0.2286  0.3791 -0.3786
 6785SOL    HW226906   4.168   1.537   5.484 -1.4620  0.3696  2.2921
 6785SOL    HW326907   4.147   1.418   5.574 -0.4401 -2.8396 -1.4465
 6785SOL    MW426908   4.175   1.452   5.499 -0.0827 -0.0468 -0.1671
 6786SOL     OW26909   1.516   5.455   4.736 -0.5837  0.5324 -0.2963
 6786SOL    HW226910   1.532   5.494   4.822 -1.4266 -0.7373  0.4593
 6786SOL    HW326911   1.426   5.424   4.740 -0.6934  0.6262 -1.7196
 6786SOL    MW426912   1.507   5.456   4.748 -0.7094  0.3773 -0.3844
 6787SOL     OW26913   5.072   2.492   4.747 -0.4518 -0.1841 -0.1888
 6787SOL    HW226914   5.018   2.414   4.761  0.7204 -0.7593  1.5379
 6787SOL    HW326915   5.052   2.521   4.658 -3.1727 -0.6683  0.1923
 6787SOL    MW426916   5.062   2.486   4.737 -0.6561 -0.3239  0.0893
 6788SOL     OW26917   6.317   4.675   5.672 -0.0514  0.0438 -0.2101
 6788SOL    HW226918   6.250   4.707   5.731  0.8801  0.2331  0.7738
 6788SOL    HW326919   6.393   4.658   5.728  0.6688 -0.3382 -1.2606
 6788SOL    MW426920   6.318   4.677   5.687  0.1665  0.0184 -0.2189
 6789SOL     OW26921   5.072   3.604   1.604  0.3290  0.2490  0.5145
 6789SOL    HW226922   5.104   3.635   1.519 -2.0588 -0.1102 -0.5939
 6789SOL    HW326923   5.097   3.673   1.665  1.7665  0.7016 -0.5115
 6789SOL    MW426924   5.079   3.617   1.600  0.2036  0.2613  0.2329
 6790SOL     OW26925   3.479   2.652   5.963  0.0499  0.2218 -0.3716
 6790SOL    HW226926   3.555   2.703   5.936  1.3955 -0.4692  1.8563
 6790SOL    HW326927   3.406   2.714   5.961  0.8895  1.2157 -1.3819
 6790SOL    MW426928   3.479   2.667   5.959  0.3382  0.2617 -0.2110
 6791SOL     OW26929   0.267   1.333   2.464 -0.2375 -0.4760  0.1994
 6791SOL    HW226930   0.212   1.255   2.465  1.6450 -1.8626  0.4974
 6791SOL    HW326931   0.331   1.316   2.395  1.8674 -0.4795  2.0275
 6791SOL    MW426932   0.268   1.320   2.455  0.2886 -0.6594  0.4799
 6792SOL     OW26933   1.657   4.179   5.918  0.0146  0.6377 -0.1628
 6792SOL    HW226934   1.697   4.135   5.843  1.4522 -0.1141  0.9930
 6792SOL    HW326935   1.716   4.253   5.936 -0.5094  1.0156  0.0247
 6792SOL    MW426936   1.670   4.183   5.910  0.1351  0.5883  0.0144
 6793SOL     OW26937   1.242   4.977   2.158  0.1747  0.1745 -0.2711
 6793SOL    HW226938   1.200   5.061   2.178 -0.7961 -0.6527  1.3225
 6793SOL    HW326939   1.306   4.965   2.228  1.3374  0.2370 -1.2960
 6793SOL    MW426940   1.245   4.986   2.170  0.2000  0.0736 -0.1961
 6794SOL     OW26941   3.939   0.356   0.162 -0.5710  0.3834 -0.9193
 6794SOL    HW226942   3.849   0.365   0.192 -0.6473  2.5240 -1.6241
 6794SOL    HW326943   3.992   0.386   0.235 -0.1519 -3.4480  0.5838
 6794SOL    MW426944   3.934   0.361   0.175 -0.5258  0.1603 -0.8140
 6795SOL     OW26945   4.459   1.445   3.914  0.1358 -0.6460 -0.1818
 6795SOL    HW226946   4.539   1.469   3.961  0.7305  1.6075 -2.0900
 6795SOL    HW326947   4.401   1.409   3.981  1.4778  0.8733  1.9343
 6795SOL    MW426948   4.462   1.444   3.929  0.3913 -0.1482 -0.1543
 6796SOL     OW26949   5.578   5.248   0.322 -0.4623  0.6424 -0.0552
 6796SOL    HW226950   5.672   5.270   0.322 -0.4623  0.7344  1.3829
 6796SOL    HW326951   5.554   5.246   0.415 -1.5452 -0.8658 -0.3342
 6796SOL    MW426952   5.587   5.250   0.335 -0.6052  0.4555  0.0977
 6797SOL     OW26953   1.750   1.689   4.674  0.8174 -0.1182 -0.1612
 6797SOL    HW226954   1.678   1.694   4.611  0.8169  1.3628 -0.0880
 6797SOL    HW326955   1.764   1.595   4.687  0.0907 -0.4546 -1.5288
 6797SOL    MW426956   1.742   1.677   4.667  0.7214  0.0328 -0.3320
 6798SOL     OW26957   0.035   4.520   2.395 -0.3440  0.3335 -0.3848
 6798SOL    HW226958  -0.016   4.524   2.313 -0.0205  1.5797 -0.5385
 6798SOL    HW326959   0.125   4.537   2.368  0.0469 -1.0100  0.0082
 6798SOL    MW426960   0.040   4.523   2.380 -0.2498  0.3207 -0.3532
 6799SOL     OW26961   5.831   5.243   4.121  0.0465 -0.1458  0.5955
 6799SOL    HW226962   5.886   5.291   4.058  0.9114 -0.9012  0.7567
 6799SOL    HW326963   5.783   5.180   4.068  1.2047 -1.1761  0.7358
 6799SOL    MW426964   5.832   5.241   4.106  0.3134 -0.3814  0.6353
 6800SOL     OW26965   5.463   0.654   2.383 -0.0510 -0.0846  0.3895
 6800SOL    HW226966   5.439   0.679   2.294  0.3007  0.3221  0.4039
 6800SOL    HW326967   5.536   0.712   2.405  2.2158 -2.4517 -0.3353
 6800SOL    MW426968   5.470   0.665   2.374  0.2944 -0.3433  0.2958
 6801SOL     OW26969   4.067   3.504   0.015  0.3898  0.6076 -0.7020
 6801SOL    HW226970   4.080   3.412  -0.006 -1.7798 -0.3094  1.4893
 6801SOL    HW326971   4.117   3.519   0.095 -0.2389  0.9809 -0.3685
 6801SOL    MW426972   4.075   3.494   0.023  0.0206  0.5359 -0.3689
 6802SOL     OW26973   4.596   3.831   5.266 -0.2174 -0.1814  0.2827
 6802SOL    HW226974   4.510   3.867   5.243  0.0186  0.1368 -0.1365
 6802SOL    HW326975   4.581   3.782   5.347 -0.4504  1.3673  1.2336
 6802SOL    MW426976   4.582   3.829   5.274 -0.2170  0.0650  0.3529
 6803SOL     OW26977   2.817   2.956   4.072 -0.3396  0.2553  0.6410
 6803SOL    HW226978   2.849   3.037   4.033  0.9785 -0.3625  0.3443
 6803SOL    HW326979   2.747   2.982   4.131 -2.0023  1.2869 -1.6845
 6803SOL    MW426980   2.812   2.970   4.075 -0.3850  0.3099  0.2950
 6804SOL     OW26981   1.566   4.828   4.586  0.6397 -0.5119  0.5811
 6804SOL    HW226982   1.651   4.819   4.542  1.1740  0.5634  1.3547
 6804SOL    HW326983   1.517   4.750   4.559  1.7579 -0.9983 -0.1203
 6804SOL    MW426984   1.571   4.816   4.577  0.8577 -0.4342  0.5906
 6805SOL     OW26985   4.850   1.544   3.752  0.0413  0.0149  0.1454
 6805SOL    HW226986   4.772   1.499   3.720 -0.9147 -0.3005  2.7006
 6805SOL    HW326987   4.923   1.496   3.713 -1.0113 -0.7883 -0.8992
 6805SOL    MW426988   4.849   1.531   3.743 -0.2237 -0.1327  0.3447
 6806SOL     OW26989   3.566   3.414   4.846  0.3313 -0.0443 -0.0728
 6806SOL    HW226990   3.633   3.468   4.803  0.5086  0.1531  0.4456
 6806SOL    HW326991   3.602   3.396   4.933  0.0996 -0.6763 -0.1035
 6806SOL    MW426992   3.580   3.419   4.852  0.3241 -0.1017 -0.0084
 6807SOL     OW26993   0.688   1.579   0.432 -0.3589  0.2410  0.9161
 6807SOL    HW226994   0.656   1.636   0.362 -1.0313  0.4698  1.3978
 6807SOL    HW326995   0.776   1.555   0.405 -1.7141 -2.3935 -1.6484
 6807SOL    MW426996   0.695   1.584   0.419 -0.6265 -0.0764  0.6413
 6808SOL     OW26997   2.057   4.855   1.380 -0.0866 -0.2724 -0.1673
 6808SOL    HW226998   2.040   4.812   1.463  2.0240 -1.4155 -0.2769
 6808SOL    HW326999   1.970   4.862   1.339 -1.1890  0.4581  2.1230
 6808SOL    MW427000   2.043   4.850   1.385  0.0464 -0.3268  0.1204
 6809SOL     OW27001   2.389   1.802   0.217  0.5202 -0.3959 -0.1741
 6809SOL    HW227002   2.444   1.853   0.157  0.2674 -0.1809 -0.2213
 6809SOL    HW327003   2.302   1.842   0.210  0.0615 -1.4743 -1.0163
 6809SOL    MW427004   2.385   1.814   0.208  0.4264 -0.5098 -0.2914
 6810SOL     OW27005   1.170   0.323   3.962  0.2120  0.2789  0.8214
 6810SOL    HW227006   1.165   0.390   3.894 -0.6432 -0.6651 -0.0850
 6810SOL    HW327007   1.263   0.315   3.980  0.3057  1.9770  1.2388
 6810SOL    MW427008   1.182   0.331   3.955  0.1116  0.3784  0.7568
 6811SOL     OW27009   5.517   3.951   1.998 -0.4189 -0.0951 -0.2597
 6811SOL    HW227010   5.499   4.002   1.919 -1.4687  0.4331  0.3017
 6811SOL    HW327011   5.588   3.999   2.042 -0.4709  0.1258 -0.4158
 6811SOL    MW427012   5.524   3.964   1.993 -0.5643  0.0037 -0.2062
 6812SOL     OW27013   0.900   2.248   4.668  0.1976  0.1150 -0.5664
 6812SOL    HW227014   0.876   2.307   4.739  1.0249  0.3709 -0.4894
 6812SOL    HW327015   0.858   2.165   4.691 -0.8710  0.6152 -0.6078
 6812SOL    MW427016   0.891   2.245   4.680  0.1657  0.2148 -0.5617
 6813SOL     OW27017   0.460   0.640   5.569  0.8185  0.6793 -0.3950
 6813SOL    HW227018   0.552   0.644   5.596  1.5093 -0.5938 -2.3480
 6813SOL    HW327019   0.463   0.646   5.474 -1.0668 -0.1478 -0.5460
 6813SOL    MW427020   0.472   0.642   5.560  0.6609  0.4022 -0.6726
 6814SOL     OW27021   0.722   0.478   1.564  0.2623 -0.0313  0.2905
 6814SOL    HW227022   0.793   0.539   1.584 -0.7208  0.6732  1.7215
 6814SOL    HW327023   0.691   0.448   1.649 -0.1496 -1.5383 -0.3547
 6814SOL    MW427024   0.728   0.482   1.578  0.0782 -0.1372  0.3942
 6815SOL     OW27025   3.063   4.470   1.045  0.0897 -0.3316 -0.1905
 6815SOL    HW227026   3.058   4.444   1.137  0.7525  0.1918  0.0055
 6815SOL    HW327027   3.006   4.547   1.039 -0.6493 -0.8830 -0.4245
 6815SOL    MW427028   3.055   4.477   1.056  0.0797 -0.3353 -0.1955
 6816SOL     OW27029   4.898   5.862   5.587 -0.2984 -0.0705  0.2988
 6816SOL    HW227030   4.939   5.873   5.502 -0.0169 -2.5051  0.0277
 6816SOL    HW327031   4.839   5.937   5.596  0.9525  1.1534 -1.2394
 6816SOL    MW427032   4.895   5.873   5.577 -0.0962 -0.2303  0.0601
 6817SOL     OW27033   5.411   5.299   1.709 -0.8540  0.2787 -0.0317
 6817SOL    HW227034   5.397   5.383   1.666 -0.6866  1.3367  1.8802
 6817SOL    HW327035   5.351   5.299   1.783  0.2158 -0.5970  0.8828
 6817SOL    MW427036   5.402   5.310   1.713 -0.6908  0.3027  0.3412
 6818SOL     OW27037   5.861   0.982   5.041  0.1453  0.1241  0.5338
 6818SOL    HW227038   5.947   0.941   5.053 -0.7841 -2.3960 -0.6742
 6818SOL    HW327039   5.824   0.986   5.130 -0.1483 -2.8312  0.6381
 6818SOL    MW427040   5.867   0.977   5.055 -0.0161 -0.5983  0.3882
 6819SOL     OW27041   2.646   1.844   3.766  0.1849  0.6287 -0.1655
 6819SOL    HW227042   2.692   1.897   3.832 -0.2358  0.3908  0.3215
 6819SOL    HW327043   2.582   1.905   3.728 -0.9562  0.2384  1.0598
 6819SOL    MW427044   2.643   1.859   3.770 -0.0211  0.5458  0.0604
 6820SOL     OW27045   4.102   3.678   1.786 -0.5991 -0.2285  0.4228
 6820SOL    HW227046   4.174   3.676   1.722 -0.0917 -0.1581  0.9905
 6820SOL    HW327047   4.082   3.585   1.800  0.8171 -0.3525  1.8581
 6820SOL    MW427048   4.109   3.665   1.779 -0.3453 -0.2355  0.6871
 6821SOL     OW27049   3.567   0.480   2.995 -0.3791  0.1088 -0.2512
 6821SOL    HW227050   3.508   0.540   2.950 -2.3818 -2.5223 -1.3706
 6821SOL    HW327051   3.546   0.491   3.088 -0.9508  0.8844 -0.4645
 6821SOL    MW427052   3.556   0.489   3.002 -0.7187 -0.1360 -0.4271
 6822SOL     OW27053   5.005   5.222   0.000 -0.2487  0.1110  0.1519
 6822SOL    HW227054   5.084   5.200   0.050 -0.0465  1.5145  0.5002
 6822SOL    HW327055   5.035   5.289  -0.062 -1.0081  0.1102 -0.2184
 6822SOL    MW427056   5.020   5.228  -0.002 -0.3222  0.2961  0.1490
 6823SOL     OW27057   3.133   6.311   2.103 -0.3730  0.0772  0.6417
 6823SOL    HW227058   3.123   6.342   2.193 -1.4260  0.0872  0.5354
 6823SOL    HW327059   3.059   6.349   2.057 -0.8038 -1.3117  0.1423
 6823SOL    MW427060   3.122   6.320   2.109 -0.5687 -0.1047  0.5618
 6824SOL     OW27061   5.904   4.764   2.424  0.4334  0.0543 -0.4402
 6824SOL    HW227062   5.926   4.695   2.361  2.9118  0.9297 -0.6483
 6824SOL    HW327063   5.948   4.842   2.391 -0.8787  1.3555  0.7106
 6824SOL    MW427064   5.913   4.765   2.412  0.5873  0.3415 -0.3158
 6825SOL     OW27065   2.709   2.480   5.659  0.0968  1.4392 -0.2215
 6825SOL    HW227066   2.694   2.538   5.735  0.2696 -0.2770  1.1865
 6825SOL    HW327067   2.692   2.392   5.693 -1.1500  0.7156 -2.5640
 6825SOL    MW427068   2.705   2.476   5.674 -0.0449  1.1173 -0.3448
 6826SOL     OW27069   0.599   0.417   4.490 -0.3279 -0.2573 -0.2126
 6826SOL    HW227070   0.622   0.500   4.533 -1.9936 -0.0165  0.2819
 6826SOL    HW327071   0.639   0.350   4.546  3.1082  0.1740 -1.8939
 6826SOL    MW427072   0.608   0.419   4.503 -0.0943 -0.1686 -0.3692
 6827SOL     OW27073   0.447   5.648   5.845  0.1720 -0.0623  0.3616
 6827SOL    HW227074   0.375   5.639   5.907 -0.3573 -1.0294 -0.3661
 6827SOL    HW327075   0.523   5.613   5.892  0.3186  1.4798  1.3354
 6827SOL    MW427076   0.448   5.642   5.860  0.1215  0.0136  0.3940
 6828SOL     OW27077   1.093   3.147   2.260 -0.1009  0.1543 -0.0217
 6828SOL    HW227078   1.093   3.172   2.168 -1.5779  2.5078  0.5306
 6828SOL    HW327079   1.012   3.098   2.272  0.8440 -1.5097 -0.2629
 6828SOL    MW427080   1.082   3.144   2.249 -0.1711  0.2452  0.0193
 6829SOL     OW27081   0.966   0.818   0.710 -0.3979  0.4699 -0.1394
 6829SOL    HW227082   0.894   0.769   0.749 -1.8067  2.4235 -0.1428
 6829SOL    HW327083   1.033   0.752   0.693 -1.7582 -1.2574  0.8135
 6829SOL    MW427084   0.966   0.803   0.713 -0.7633  0.4998 -0.0141
 6830SOL     OW27085   1.685   1.498   0.599 -0.5562 -0.0006 -0.2178
 6830SOL    HW227086   1.739   1.421   0.576 -1.5203 -0.3545 -1.4133
 6830SOL    HW327087   1.740   1.548   0.659  0.0216 -1.7316  0.8021
 6830SOL    MW427088   1.700   1.494   0.604 -0.6072 -0.2757 -0.2409
 6831SOL     OW27089   5.368   2.289   3.439  0.4252  0.4060  0.2444
 6831SOL    HW227090   5.313   2.271   3.363  2.6732 -0.3539 -1.2997
 6831SOL    HW327091   5.350   2.217   3.500 -0.8240  0.6028  0.1402
 6831SOL    MW427092   5.358   2.277   3.437  0.5570  0.3317  0.0270
 6832SOL     OW27093   5.340   4.953   0.566 -0.3951  0.1062 -0.0235
 6832SOL    HW227094   5.265   4.894   0.572  1.8311 -2.7907  2.5596
 6832SOL    HW327095   5.400   4.909   0.505 -0.1284  1.6525 -0.9373
 6832SOL    MW427096   5.338   4.940   0.559 -0.0662 -0.0720  0.1968
 6833SOL     OW27097   4.360   3.699   5.596 -0.9807  0.7116  0.4661
 6833SOL    HW227098   4.403   3.645   5.530 -1.2062 -0.0122  0.8933
 6833SOL    HW327099   4.305   3.759   5.547 -1.5206 -0.1397  0.0096
 6833SOL    MW427100   4.358   3.700   5.581 -1.0817  0.5038  0.4622
 6834SOL     OW27101   2.719   1.469   4.008  0.1140  0.2386 -0.2667
 6834SOL    HW227102   2.753   1.405   4.070 -0.2540  0.2719 -0.0306
 6834SOL    HW327103   2.788   1.536   4.002 -0.0145  0.4397  0.4080
 6834SOL    MW427104   2.733   1.470   4.015  0.0485  0.2695 -0.1466
 6835SOL     OW27105   0.158   4.170   0.597 -0.0426 -0.4882 -0.0629
 6835SOL    HW227106   0.156   4.226   0.675 -2.9444 -1.1039  0.4289
 6835SOL    HW327107   0.076   4.190   0.552  1.8288  0.3647 -3.4453
 6835SOL    MW427108   0.147   4.180   0.601 -0.1786 -0.4569 -0.4443
 6836SOL     OW27109   6.215   3.341   6.017 -0.0239  0.0938  0.0727
 6836SOL    HW227110   6.290   3.288   5.991 -0.5467 -0.4644 -0.3394
 6836SOL    HW327111   6.233   3.367   6.107 -0.0114 -1.2800  0.4927
 6836SOL    MW427112   6.227   3.337   6.025 -0.0912 -0.1611  0.0738
 6837SOL     OW27113   2.876   5.269   4.607  0.3707  0.0496  0.1684
 6837SOL    HW227114   2.823   5.308   4.676  0.8574 -0.3367  0.7671
 6837SOL    HW327115   2.816   5.260   4.533  0.1744  1.7092  0.0757
 6837SOL    MW427116   2.861   5.273   4.606  0.4091  0.2176  0.2352
 6838SOL     OW27117   0.377   1.536   3.980 -0.7412 -0.5446  0.5046
 6838SOL    HW227118   0.409   1.463   4.032  1.2511 -0.9294 -1.1088
 6838SOL    HW327119   0.428   1.611   4.010  1.0424 -0.9320 -1.3083
 6838SOL    MW427120   0.388   1.536   3.991 -0.2430 -0.6465  0.0525
 6839SOL     OW27121   2.722   4.145   5.995  0.4049 -0.1492 -0.2819
 6839SOL    HW227122   2.789   4.095   6.043 -0.1026  0.6130  1.2836
 6839SOL    HW327123   2.651   4.082   5.981  0.4139 -0.2978  0.2942
 6839SOL    MW427124   2.722   4.130   5.999  0.3392 -0.0682  0.0007
 6840SOL     OW27125   6.285   6.164   2.481 -0.0485 -0.1842 -0.4872
 6840SOL    HW227126   6.331   6.178   2.564  2.1441  0.5621 -1.7202
 6840SOL    HW327127   6.345   6.109   2.430 -0.8606  0.2480 -1.9569
 6840SOL    MW427128   6.299   6.158   2.485  0.1336 -0.0287 -0.8437
 6841SOL     OW27129   2.163   1.723   0.791 -0.5921 -0.0823 -0.2934
 6841SOL    HW227130   2.120   1.801   0.755 -1.2177 -0.1806  0.2212
 6841SOL    HW327131   2.249   1.753   0.818 -0.9915  0.5524  0.3137
 6841SOL    MW427132   2.169   1.737   0.790 -0.7274 -0.0116 -0.1454
 6842SOL     OW27133   4.026   6.018   4.697  0.0823 -0.2087  0.2505
 6842SOL    HW227134   4.105   5.975   4.729 -0.1646 -2.3449 -1.6740
 6842SOL    HW327135   3.958   5.993   4.759  0.5731  0.1634  0.9472
 6842SOL    MW427136   4.027   6.009   4.709  0.1145 -0.4415  0.0885
 6843SOL     OW27137   1.286   5.542   0.482 -0.5933  0.0729 -0.5233
 6843SOL    HW227138   1.242   5.527   0.566 -1.2194 -2.2627 -1.2070
 6843SOL    HW327139   1.379   5.524   0.501  0.1076  3.9866  0.6625
 6843SOL    MW427140   1.293   5.538   0.496 -0.5834  0.2811 -0.4571
 6844SOL     OW27141   4.046   0.932   5.097  0.4121  0.0947 -0.1191
 6844SOL    HW227142   4.023   0.878   5.173  2.0639  0.2793  0.5416
 6844SOL    HW327143   4.031   0.875   5.021 -0.6095 -0.3109  0.3651
 6844SOL    MW427144   4.041   0.918   5.097  0.4952  0.0656  0.0320
 6845SOL     OW27145   2.984   2.737   4.124 -0.2541  0.0320 -0.5253
 6845SOL    HW227146   2.933   2.814   4.100  1.4813  1.2528 -0.5054
 6845SOL    HW327147   3.012   2.699   4.041 -2.0060 -1.2700 -0.5711
 6845SOL    MW427148   2.981   2.742   4.110 -0.2562  0.0213 -0.5287
 6846SOL     OW27149   0.620   5.197   5.319 -0.6774 -0.0214  0.0464
 6846SOL    HW227150   0.592   5.106   5.304 -1.6716  0.1010  1.0446
 6846SOL    HW327151   0.586   5.218   5.406 -1.0547  1.5484 -0.4665
 6846SOL    MW427152   0.612   5.188   5.329 -0.8583  0.2019  0.1104
 6847SOL     OW27153   0.885   0.411   5.820 -0.1404 -0.5703 -0.0670
 6847SOL    HW227154   0.877   0.316   5.829 -1.6848 -0.4462  0.1178
 6847SOL    HW327155   0.889   0.425   5.725 -2.2224 -0.7050 -0.2208
 6847SOL    MW427156   0.885   0.400   5.809 -0.6188 -0.5717 -0.0629
 6848SOL     OW27157   1.694   0.150   5.351 -0.1067 -0.0181  0.5939
 6848SOL    HW227158   1.616   0.115   5.395 -0.7585  1.8429  1.0242
 6848SOL    HW327159   1.710   0.090   5.279 -1.9940 -0.4313  0.4696
 6848SOL    MW427160   1.685   0.138   5.348 -0.4417  0.1729  0.6343
 6849SOL     OW27161   2.748   1.876   0.462 -0.2584 -0.6198 -0.1615
 6849SOL    HW227162   2.658   1.885   0.492 -0.0492  0.8441  0.1289
 6849SOL    HW327163   2.742   1.868   0.367 -0.6447  2.0271 -0.4481
 6849SOL    MW427164   2.736   1.876   0.453 -0.2817 -0.0775 -0.1610
 6850SOL     OW27165   4.159   2.530   5.593  0.5486 -0.4897 -0.2284
 6850SOL    HW227166   4.185   2.622   5.604  0.4835 -0.6343  1.4634
 6850SOL    HW327167   4.106   2.529   5.514 -0.4482  1.1624  0.3626
 6850SOL    MW427168   4.156   2.542   5.584  0.4085 -0.2908  0.0728
 6851SOL     OW27169   5.262   6.081   3.420 -0.3031 -0.4024  0.4423
 6851SOL    HW227170   5.290   5.990   3.409 -0.1006 -0.3855  0.8316
 6851SOL    HW327171   5.174   6.084   3.381 -0.4014 -0.8149  0.6303
 6851SOL    MW427172   5.254   6.070   3.413 -0.2893 -0.4546  0.5185
 6852SOL     OW27173   2.512   0.990   3.019 -0.2702 -0.6770 -0.3031
 6852SOL    HW227174   2.446   0.991   2.950 -2.7612  0.4361  1.9609
 6852SOL    HW327175   2.515   0.898   3.048  0.6082 -1.1004 -1.6370
 6852SOL    MW427176   2.504   0.978   3.014 -0.4830 -0.5860 -0.1804
 6853SOL     OW27177   5.854   1.566   6.354  0.0244 -0.0991  1.0302
 6853SOL    HW227178   5.879   1.658   6.352 -1.2101  0.2874  1.9146
 6853SOL    HW327179   5.902   1.529   6.428  0.9782 -0.3226  0.3115
 6853SOL    MW427180   5.864   1.573   6.364 -0.0126 -0.0776  1.0520
 6854SOL     OW27181   2.089   5.147   1.433 -0.5950 -0.1299 -0.6905
 6854SOL    HW227182   2.077   5.165   1.340 -0.4505 -0.0547 -0.6946
 6854SOL    HW327183   2.108   5.053   1.437  2.6431  0.4022 -1.0568
 6854SOL    MW427184   2.090   5.137   1.421 -0.1487 -0.0498 -0.7394
 6855SOL     OW27185   3.206   5.420   0.466 -0.2126  0.3146 -0.5095
 6855SOL    HW227186   3.256   5.477   0.524  1.9925 -1.9363 -0.0317
 6855SOL    HW327187   3.247   5.431   0.380  0.9251 -1.2108 -0.2070
 6855SOL    MW427188   3.218   5.429   0.462  0.2284 -0.1836 -0.4065
 6856SOL     OW27189   3.599   5.333   5.491  0.0155 -0.1979 -0.0918
 6856SOL    HW227190   3.664   5.275   5.531  1.4347 -0.6691 -2.8422
 6856SOL    HW327191   3.545   5.274   5.438 -0.6074  0.5901 -0.3340
 6856SOL    MW427192   3.601   5.317   5.489  0.1206 -0.1561 -0.4866
 6857SOL     OW27193   3.237   0.175   4.727  0.6277  0.2041 -0.2652
 6857SOL    HW227194   3.290   0.096   4.720  0.8274  0.2995  0.1654
 6857SOL    HW327195   3.159   0.147   4.775  0.2607  0.0559 -0.9257
 6857SOL    MW427196   3.234   0.161   4.732  0.6057  0.1971 -0.2955
 6858SOL     OW27197   2.718   4.882   0.162  0.1058  0.2372  0.0166
 6858SOL    HW227198   2.732   4.977   0.159 -0.4629  0.3834  1.1996
 6858SOL    HW327199   2.633   4.872   0.205 -0.3901 -0.7908 -1.1532
 6858SOL    MW427200   2.708   4.894   0.167 -0.0346  0.1208  0.0184
 6859SOL     OW27201   2.080   6.252   3.478  0.3567 -0.0551 -0.1701
 6859SOL    HW227202   2.037   6.320   3.529  2.8436  1.4544  0.0620
 6859SOL    HW327203   2.172   6.257   3.504  1.3836 -0.6022 -3.2707
 6859SOL    MW427204   2.087   6.261   3.488  0.8203  0.0719 -0.5486
 6860SOL     OW27205   1.218   4.592   2.121 -0.2562 -0.0925 -0.5538
 6860SOL    HW227206   1.299   4.635   2.093  0.5528 -0.7501  0.7016
 6860SOL    HW327207   1.150   4.656   2.102  0.7207  1.0637 -0.3001
 6860SOL    MW427208   1.220   4.606   2.115 -0.0206 -0.0267 -0.3547
 6861SOL     OW27209   4.957   5.972   1.183 -0.0333  0.1962 -0.8615
 6861SOL    HW227210   4.954   5.891   1.131  0.6437  0.1828 -0.8834
 6861SOL    HW327211   4.869   6.010   1.173 -0.3439 -0.5132 -0.8815
 6861SOL    MW427212   4.945   5.966   1.175  0.0150  0.1008 -0.8670
 6862SOL     OW27213   6.168   4.858   1.754 -0.0595  0.4392  0.3369
 6862SOL    HW227214   6.261   4.863   1.775 -0.0995 -0.5761  0.7789
 6862SOL    HW327215   6.124   4.891   1.832 -0.1174 -0.8107  0.8540
 6862SOL    MW427216   6.175   4.863   1.767 -0.0724  0.1403  0.4634
 6863SOL     OW27217   6.326   2.623   0.016 -0.3277  0.6637 -0.6349
 6863SOL    HW227218   6.382   2.573  -0.043 -0.6238 -1.4653  0.7518
 6863SOL    HW327219   6.237   2.593  -0.004 -0.6995  1.8242 -0.8111
 6863SOL    MW427220   6.322   2.612   0.006 -0.4158  0.5359 -0.4752
 6864SOL     OW27221   3.178   2.197   3.334 -0.1792  0.5743 -0.5535
 6864SOL    HW227222   3.152   2.153   3.415 -1.2602  0.5306 -0.9134
 6864SOL    HW327223   3.102   2.249   3.309 -0.1435  0.0226 -1.9191
 6864SOL    MW427224   3.165   2.198   3.342 -0.3171  0.4958 -0.7811
 6865SOL     OW27225   5.968   1.408   4.732  0.6038 -0.5282 -0.1670
 6865SOL    HW227226   5.924   1.459   4.664 -1.3672 -0.9761  0.6971
 6865SOL    HW327227   6.003   1.474   4.792 -0.7734 -0.1361  0.2436
 6865SOL    MW427228   5.967   1.424   4.731  0.1621 -0.5356  0.0012
 6866SOL     OW27229   2.920   3.344   5.614 -0.6496 -0.3077  0.1226
 6866SOL    HW227230   2.853   3.276   5.622 -0.6126 -0.7266 -2.3785
 6866SOL    HW327231   2.996   3.309   5.660 -1.0530 -1.3860 -0.0050
 6866SOL    MW427232   2.921   3.330   5.621 -0.6980 -0.5052 -0.2242
 6867SOL     OW27233   2.248   3.572   1.894 -0.1931  0.4265 -0.3266
 6867SOL    HW227234   2.245   3.625   1.973 -0.7354 -1.2371  0.8310
 6867SOL    HW327235   2.174   3.602   1.841 -1.8363 -0.5548  1.2932
 6867SOL    MW427236   2.238   3.583   1.897 -0.4814  0.0775  0.0399
 6868SOL     OW27237   3.690   4.772   1.136  0.1191 -0.0769 -0.4854
 6868SOL    HW227238   3.726   4.860   1.145  0.4404 -0.2323 -0.2270
 6868SOL    HW327239   3.623   4.780   1.069 -1.2202  0.7751  0.8900
 6868SOL    MW427240   3.686   4.784   1.129 -0.0152  0.0150 -0.2699
 6869SOL     OW27241   3.704   1.608   4.850  0.0304 -0.1258  0.3320
 6869SOL    HW227242   3.656   1.569   4.924  1.4327 -2.2914  0.1872
 6869SOL    HW327243   3.712   1.537   4.787 -0.1137  1.3614 -1.4281
 6869SOL    MW427244   3.699   1.594   4.852  0.1964 -0.2153  0.0806
 6870SOL     OW27245   3.113   1.690   2.586  0.1564  0.0560 -0.0176
 6870SOL    HW227246   3.194   1.656   2.623  0.5397  0.0924 -0.8001
 6870SOL    HW327247   3.051   1.689   2.659  0.5416 -1.0200  0.3162
 6870SOL    MW427248   3.115   1.685   2.600  0.2578 -0.0812 -0.0768
 6871SOL     OW27249   6.425   5.037   1.513  0.1135 -0.3498 -0.2862
 6871SOL    HW227250   6.459   4.961   1.560 -0.8552 -1.1052 -0.7776
 6871SOL    HW327251   6.330   5.032   1.522  0.0103  0.6016 -0.6387
 6871SOL    MW427252   6.417   5.026   1.520 -0.0279 -0.3239 -0.3975
 6872SOL     OW27253   2.430   0.878   5.614  0.1909 -0.2164  0.2707
 6872SOL    HW227254   2.461   0.962   5.647 -0.8251 -0.2628  1.4649
 6872SOL    HW327255   2.364   0.901   5.548  0.4645 -0.0820  0.0447
 6872SOL    MW427256   2.425   0.892   5.610  0.0929 -0.2048  0.3984
 6873SOL     OW27257   4.956   3.784   4.867 -0.1218 -0.2143  0.0881
 6873SOL    HW227258   5.003   3.702   4.879  1.7222  0.6458 -0.9108
 6873SOL    HW327259   4.880   3.776   4.924  1.3335 -1.5724  1.9709
 6873SOL    MW427260   4.952   3.772   4.876  0.3135 -0.2800  0.2047
 6874SOL     OW27261   5.354   2.445   0.867  0.3872 -0.3157  0.3844
 6874SOL    HW227262   5.387   2.437   0.957 -0.6786  3.8431  1.3154
 6874SOL    HW327263   5.370   2.536   0.843 -1.4464 -0.6946 -2.8137
 6874SOL    MW427264   5.360   2.456   0.876  0.0046  0.1830  0.0853
 6875SOL     OW27265   5.811   3.478   2.539 -0.3444  0.2300 -0.0313
 6875SOL    HW227266   5.832   3.396   2.493  0.1299  0.3153  0.0265
 6875SOL    HW327267   5.857   3.470   2.623  0.6191  1.0279 -0.4647
 6875SOL    MW427268   5.820   3.466   2.544 -0.1547  0.3465 -0.0809
 6876SOL     OW27269   3.785   2.818   1.842  0.2473 -0.4810 -0.1893
 6876SOL    HW227270   3.853   2.804   1.776  0.1515 -2.4835  0.0520
 6876SOL    HW327271   3.803   2.904   1.878  1.5844 -0.2368 -1.3598
 6876SOL    MW427272   3.797   2.827   1.838  0.4111 -0.7130 -0.3119
 6877SOL     OW27273   0.050   1.906   4.858 -0.1247  0.4027  0.4338
 6877SOL    HW227274   0.127   1.894   4.802  1.1614  1.5259  1.8764
 6877SOL    HW327275   0.083   1.952   4.935 -2.1049  0.1702  1.4892
 6877SOL    MW427276   0.064   1.910   4.861 -0.2163  0.5202  0.7634
 6878SOL     OW27277   1.839   3.803   3.273 -0.3459 -0.0278 -0.7913
 6878SOL    HW227278   1.813   3.895   3.263  2.5696  0.9388 -0.6528
 6878SOL    HW327279   1.804   3.777   3.358 -0.8621  1.1164 -0.6324
 6878SOL    MW427280   1.831   3.812   3.283 -0.0293  0.2507 -0.7521
 6879SOL     OW27281   1.185   1.360   5.436  0.2316 -0.8227  0.4462
 6879SOL    HW227282   1.179   1.378   5.530 -1.1965  0.4680  0.1388
 6879SOL    HW327283   1.275   1.383   5.413  0.0967  0.5032  1.1856
 6879SOL    MW427284   1.196   1.365   5.445  0.0254 -0.4775  0.5032
 6880SOL     OW27285   4.029   5.294   2.607  0.3025 -0.4677 -0.4328
 6880SOL    HW227286   3.972   5.237   2.555  0.2207 -1.6221  0.8594
 6880SOL    HW327287   4.024   5.379   2.563 -3.2541 -0.2145  0.1725
 6880SOL    MW427288   4.021   5.298   2.594 -0.1775 -0.5866 -0.1824
 6881SOL     OW27289   5.807   0.879   2.075 -0.1087 -0.4206 -0.2365
 6881SOL    HW227290   5.758   0.858   2.155 -0.3241 -1.3265 -0.5895
 6881SOL    HW327291   5.785   0.808   2.015  2.2270 -1.2893 -0.1498
 6881SOL    MW427292   5.798   0.867   2.078  0.1710 -0.6548 -0.2717
 6882SOL     OW27293   1.189   5.199   5.969 -0.3368 -0.0891  0.0061
 6882SOL    HW227294   1.270   5.244   5.949 -0.3069 -0.6023 -1.0929
 6882SOL    HW327295   1.169   5.149   5.890 -1.6708 -0.0473  0.2930
 6882SOL    MW427296   1.197   5.198   5.956 -0.5089 -0.1513 -0.1010
 6883SOL     OW27297   5.193   3.337   2.809  0.2186  0.2815  0.1434
 6883SOL    HW227298   5.179   3.275   2.737  2.5597  0.4096 -0.5238
 6883SOL    HW327299   5.252   3.292   2.869  0.6561  1.2580  0.4764
 6883SOL    MW427300   5.199   3.323   2.807  0.5852  0.4272  0.0993
 6884SOL     OW27301   1.957   0.305   4.970  0.2845 -0.3676  0.2122
 6884SOL    HW227302   2.003   0.221   4.961  2.4791  0.6762  0.8858
 6884SOL    HW327303   1.864   0.282   4.966  0.8108 -2.6148 -1.2734
 6884SOL    MW427304   1.951   0.291   4.968  0.6435 -0.5264  0.1051
 6885SOL     OW27305   1.344   1.857   2.734 -0.5712  0.6793  0.3106
 6885SOL    HW227306   1.433   1.850   2.769 -0.6971 -0.5172  0.4178
 6885SOL    HW327307   1.343   1.798   2.659 -0.9875  1.4651 -0.3231
 6885SOL    MW427308   1.356   1.849   2.728 -0.6427  0.6251  0.2412
 6886SOL     OW27309   2.379   0.820   6.171  0.1834  0.3937  0.0268
 6886SOL    HW227310   2.340   0.860   6.093 -1.3836  0.8823  1.0233
 6886SOL    HW327311   2.400   0.731   6.144 -0.1394  0.6145 -1.0174
 6886SOL    MW427312   2.377   0.814   6.157 -0.0660  0.4873  0.0205
 6887SOL     OW27313   0.907   5.469   6.251 -0.5340  0.1590  0.3150
 6887SOL    HW227314   0.850   5.405   6.295  1.6488 -1.1019  1.4959
 6887SOL    HW327315   0.990   5.422   6.238 -0.3429  1.2397 -3.2243
 6887SOL    MW427316   0.910   5.454   6.255 -0.2208  0.1352  0.0039
 6888SOL     OW27317   6.032   2.142   4.442 -0.4471 -0.2504  0.4999
 6888SOL    HW227318   6.077   2.122   4.360 -0.0924 -0.6832  0.8014
 6888SOL    HW327319   6.043   2.237   4.452 -2.2573  0.1805 -1.0017
 6888SOL    MW427320   6.039   2.152   4.432 -0.6392 -0.2507  0.3416
 6889SOL     OW27321   0.394   6.201   4.522  0.3369  0.1900  0.3528
 6889SOL    HW227322   0.433   6.233   4.603 -0.2434 -1.7897  1.4887
 6889SOL    HW327323   0.316   6.256   4.510  1.7622  2.1800 -0.3174
 6889SOL    MW427324   0.389   6.213   4.531  0.4484  0.1914  0.4143
 6890SOL     OW27325   4.999   3.529   4.101 -0.1022  0.2447  0.0715
 6890SOL    HW227326   4.984   3.601   4.040 -2.2486  0.3844  0.6845
 6890SOL    HW327327   5.029   3.571   4.181 -0.8858  0.4228  0.2761
 6890SOL    MW427328   5.001   3.544   4.103 -0.4888  0.2866  0.1794
 6891SOL     OW27329   1.625   4.985   3.467 -0.2445  0.4161  0.0010
 6891SOL    HW227330   1.662   4.990   3.379 -1.2931 -0.1986 -0.4979
 6891SOL    HW327331   1.658   5.063   3.512  1.8675 -0.2493 -0.3025
 6891SOL    MW427332   1.634   4.996   3.461 -0.1042  0.2472 -0.1048
 6892SOL     OW27333   0.518   3.018   2.703 -0.1692  0.0666 -0.3910
 6892SOL    HW227334   0.600   2.981   2.735  0.2871  2.0186  0.9060
 6892SOL    HW327335   0.511   3.102   2.748 -2.1549  0.6142 -1.6008
 6892SOL    MW427336   0.528   3.024   2.713 -0.3710  0.3964 -0.3795
 6893SOL     OW27337   4.136   3.923   4.909 -0.3286  0.4743  0.2625
 6893SOL    HW227338   4.177   3.889   4.830  0.6885  1.4030  0.3563
 6893SOL    HW327339   4.062   3.975   4.878 -1.4393 -1.1383  0.0848
 6893SOL    MW427340   4.132   3.926   4.894 -0.3409  0.3841  0.2514
 6894SOL     OW27341   1.907   1.896   3.395  0.1177 -0.4557 -0.1259
 6894SOL    HW227342   1.863   1.812   3.408 -0.1170  0.0640  3.3436
 6894SOL    HW327343   1.907   1.937   3.482  0.8943  2.8177 -1.5170
 6894SOL    MW427344   1.901   1.891   3.408  0.1892  0.0448  0.1483
 6895SOL     OW27345   3.935   5.700   4.382  0.0110  0.5305  0.2597
 6895SOL    HW227346   3.944   5.757   4.306 -1.6426  0.3835 -0.0971
 6895SOL    HW327347   3.932   5.612   4.346 -1.0935  0.4782  0.4299
 6895SOL    MW427348   3.936   5.696   4.367 -0.3529  0.5042  0.2351
 6896SOL     OW27349   4.755   3.070   4.214 -0.1535  0.0982 -0.9369
 6896SOL    HW227350   4.678   3.015   4.204 -0.5429  0.1336  1.3015
 6896SOL    HW327351   4.824   3.026   4.164 -1.3124 -0.5636 -1.9827
 6896SOL    MW427352   4.754   3.057   4.206 -0.3578  0.0155 -0.7796
 6897SOL     OW27353   1.330   0.651   3.734  0.1209 -0.0398  0.1328
 6897SOL    HW227354   1.411   0.600   3.741 -0.7538 -1.4304  0.2207
 6897SOL    HW327355   1.352   0.721   3.672  1.7297  0.3084  1.0049
 6897SOL    MW427356   1.344   0.654   3.727  0.2178 -0.1773  0.2595
 6898SOL     OW27357   3.694   3.174   1.114 -0.2720 -0.2466 -0.0159
 6898SOL    HW227358   3.775   3.132   1.145 -0.4837  0.1578  1.1449
 6898SOL    HW327359   3.711   3.268   1.122 -1.2129 -0.1518  1.3110
 6898SOL    MW427360   3.707   3.181   1.119 -0.4241 -0.1807  0.3123
 6899SOL     OW27361   1.282   5.204   0.710  0.4918 -0.2945  0.4327
 6899SOL    HW227362   1.323   5.291   0.716  0.3985 -0.2663  0.6861
 6899SOL    HW327363   1.347   5.145   0.748  0.3268 -0.2577  0.7793
 6899SOL    MW427364   1.296   5.208   0.716  0.4577 -0.2859  0.5119
 6900SOL     OW27365   1.964   3.122   5.434 -0.0501 -0.0380 -0.1419
 6900SOL    HW227366   2.041   3.178   5.440  0.2267 -0.2920 -1.0810
 6900SOL    HW327367   1.893   3.181   5.410  0.2697 -0.0892 -1.2762
 6900SOL    MW427368   1.965   3.137   5.431  0.0286 -0.0782 -0.4154
 6901SOL     OW27369   4.797   5.672   3.321 -0.6638 -0.1246  0.1111
 6901SOL    HW227370   4.829   5.590   3.284  0.4178  0.0542  0.5896
 6901SOL    HW327371   4.853   5.687   3.398 -1.3167  0.6908  0.4487
 6901SOL    MW427372   4.809   5.663   3.327 -0.6072  0.0066  0.2188
 6902SOL     OW27373   1.410   4.307   6.005  0.5179 -0.6151 -0.2208
 6902SOL    HW227374   1.486   4.256   5.976  1.4229 -0.4104  1.6193
 6902SOL    HW327375   1.382   4.264   6.085 -0.8166 -0.1826 -0.4456
 6902SOL    MW427376   1.417   4.295   6.011  0.4612 -0.5310 -0.0077
 6903SOL     OW27377   1.098   4.045   0.288 -0.4070  0.3083 -0.0015
 6903SOL    HW227378   1.139   4.000   0.214 -0.6087  1.4443 -0.8168
 6903SOL    HW327379   1.149   4.125   0.300 -1.4067  0.9698 -0.0173
 6903SOL    MW427380   1.110   4.049   0.280 -0.5655  0.5455 -0.1112
 6904SOL     OW27381   3.418   1.240   3.422  0.0315 -0.0370 -0.0849
 6904SOL    HW227382   3.337   1.261   3.375 -1.9152 -1.2287  2.5000
 6904SOL    HW327383   3.477   1.313   3.401 -2.0976  1.4848 -1.1657
 6904SOL    MW427384   3.415   1.253   3.413 -0.5062  0.0065  0.1136
 6905SOL     OW27385   2.584   2.912   0.597  0.4691  0.4316 -0.0318
 6905SOL    HW227386   2.641   2.933   0.671  1.3496 -1.5262 -0.0814
 6905SOL    HW327387   2.554   2.823   0.615 -1.2317  0.7968 -0.8744
 6905SOL    MW427388   2.588   2.903   0.609  0.3609  0.2215 -0.1495
 6906SOL     OW27389   4.779   5.666   5.080 -0.1206 -0.6216  0.1445
 6906SOL    HW227390   4.698   5.681   5.030 -1.1623  0.5781  2.1068
 6906SOL    HW327391   4.840   5.732   5.047 -0.5110 -0.3912 -0.1311
 6906SOL    MW427392   4.776   5.676   5.069 -0.3095 -0.4329  0.3671
 6907SOL     OW27393   1.261   3.205   4.018 -0.1640 -0.0041 -0.1892
 6907SOL    HW227394   1.313   3.125   4.028 -1.8758 -0.9744  1.5872
 6907SOL    HW327395   1.255   3.242   4.106 -0.0351  1.6874 -0.8590
 6907SOL    MW427396   1.267   3.199   4.031 -0.3728  0.0910 -0.0432
 6908SOL     OW27397   5.124   0.651   4.245 -0.5906 -0.1872 -0.0557
 6908SOL    HW227398   5.131   0.629   4.152  2.5585  0.5836 -0.1160
 6908SOL    HW327399   5.099   0.743   4.246  0.7528  0.1999 -0.2251
 6908SOL    MW427400   5.121   0.660   4.233  0.0021 -0.0345 -0.0860
 6909SOL     OW27401   3.655   2.843   5.931 -0.1470  0.1710 -0.3770
 6909SOL    HW227402   3.661   2.871   6.022 -0.8990 -3.1358  0.8449
 6909SOL    HW327403   3.745   2.819   5.908 -0.2794 -1.0229  0.2818
 6909SOL    MW427404   3.668   2.843   5.940 -0.2637 -0.4229 -0.1288
 6910SOL     OW27405   2.414   2.595   0.869  0.1482  0.3578  0.3025
 6910SOL    HW227406   2.405   2.631   0.781  0.4335  0.3920  0.2857
 6910SOL    HW327407   2.509   2.596   0.886  0.2360 -0.9888  0.0433
 6910SOL    MW427408   2.426   2.600   0.860  0.1974  0.1847  0.2661
 6911SOL     OW27409   4.637   2.062   2.782  0.1384 -0.3646  0.3693
 6911SOL    HW227410   4.606   2.066   2.692 -1.4485  0.0152  0.8991
 6911SOL    HW327411   4.561   2.034   2.833  0.8887 -0.1812  1.6431
 6911SOL    MW427412   4.623   2.059   2.777  0.0280 -0.2903  0.6073
 6912SOL     OW27413   3.493   4.095   1.710  0.3298 -0.0130 -0.0931
 6912SOL    HW227414   3.400   4.077   1.695  0.0681  1.0506  0.2079
 6912SOL    HW327415   3.494   4.168   1.771  1.3722 -0.0017 -0.1070
 6912SOL    MW427416   3.481   4.102   1.716  0.4328  0.1288 -0.0552
 6913SOL     OW27417   1.808   2.295   2.627 -0.0461  0.4654  0.2159
 6913SOL    HW227418   1.744   2.236   2.665 -1.4324  2.0101  0.4068
 6913SOL    HW327419   1.756   2.356   2.573  1.1011  2.3678  1.1333
 6913SOL    MW427420   1.793   2.295   2.625 -0.0777  0.9202  0.3621
 6914SOL     OW27421   4.249   2.829   0.873  0.6482  0.0807  0.0169
 6914SOL    HW227422   4.221   2.740   0.897  2.7356 -0.1643  1.7866
 6914SOL    HW327423   4.305   2.816   0.796 -0.3833  0.0825 -0.7533
 6914SOL    MW427424   4.253   2.815   0.866  0.7875  0.0486  0.1487
 6915SOL     OW27425   3.236   6.078   6.172 -0.4618 -0.2599  0.4551
 6915SOL    HW227426   3.321   6.116   6.193 -0.3757 -0.1222 -0.1329
 6915SOL    HW327427   3.186   6.149   6.133 -0.3037 -0.7261 -0.6328
 6915SOL    MW427428   3.241   6.092   6.169 -0.4295 -0.3032  0.2340
 6916SOL     OW27429   4.148   0.654   1.869  0.6113  0.2084 -0.6799
 6916SOL    HW227430   4.207   0.637   1.942  2.1871 -1.1132 -2.1783
 6916SOL    HW327431   4.138   0.569   1.826 -0.9368  0.7868 -1.5531
 6916SOL    MW427432   4.154   0.640   1.873  0.6150  0.1103 -0.9928
 6917SOL     OW27433   6.213   5.382   5.205  0.2186  0.2582 -0.6291
 6917SOL    HW227434   6.210   5.366   5.110 -0.7595  2.1789 -0.9634
 6917SOL    HW327435   6.296   5.343   5.233  0.6870 -0.0535 -2.3247
 6917SOL    MW427436   6.224   5.374   5.196  0.1514  0.4705 -0.8969
 6918SOL     OW27437   4.161   4.094   0.268 -0.0799  0.5430 -0.3759
 6918SOL    HW227438   4.210   4.093   0.350  0.0881 -2.8611 -0.3748
 6918SOL    HW327439   4.069   4.095   0.295 -0.0230  0.5346 -0.1817
 6918SOL    MW427440   4.155   4.094   0.282 -0.0502  0.0927 -0.3501
 6919SOL     OW27441   4.593   4.228   1.925  0.1087 -0.2730  0.2805
 6919SOL    HW227442   4.502   4.258   1.924  0.0800 -0.3602 -0.2071
 6919SOL    HW327443   4.644   4.307   1.943 -0.1417 -0.4928  2.1143
 6919SOL    MW427444   4.588   4.243   1.927  0.0719 -0.3135  0.4581
 6920SOL     OW27445   4.929   4.646   1.315 -0.2848  0.1040  0.2705
 6920SOL    HW227446   4.958   4.574   1.259  4.1708  1.6656  0.2115
 6920SOL    HW327447   4.994   4.651   1.384 -1.6703  2.7231  1.5462
 6920SOL    MW427448   4.941   4.637   1.317  0.1203  0.6556  0.4310
 6921SOL     OW27449   2.073   3.507   1.004  0.0617 -0.4630  0.5073
 6921SOL    HW227450   2.106   3.421   0.977 -1.1349 -1.0107  0.7030
 6921SOL    HW327451   2.037   3.492   1.092 -2.4016 -0.4050 -0.4140
 6921SOL    MW427452   2.073   3.493   1.012 -0.4212 -0.5276  0.4116
 6922SOL     OW27453   2.503   6.345   3.717  0.1994 -0.1610 -1.0503
 6922SOL    HW227454   2.592   6.326   3.686  0.4339  2.5246 -2.2474
 6922SOL    HW327455   2.503   6.317   3.809  3.2272  2.2171 -0.1637
 6922SOL    MW427456   2.515   6.339   3.725  0.6298  0.5071 -1.0913
 6923SOL     OW27457   2.988   0.119   4.856 -0.8687  0.4575  0.4548
 6923SOL    HW227458   2.961   0.185   4.920 -0.1880 -0.7581  2.0766
 6923SOL    HW327459   2.955   0.151   4.772 -0.5060  2.8608  1.1618
 6923SOL    MW427460   2.980   0.132   4.853 -0.7310  0.6142  0.7621
 6924SOL     OW27461   4.717   0.997   1.241  0.2320 -0.2751 -0.0330
 6924SOL    HW227462   4.794   0.962   1.196 -0.1952  0.4679 -1.4072
 6924SOL    HW327463   4.644   0.946   1.206 -0.4624  2.1478 -2.4264
 6924SOL    MW427464   4.718   0.985   1.230  0.0840  0.1426 -0.5301
 6925SOL     OW27465   1.606   2.873   6.330  0.0516  0.3146 -0.1488
 6925SOL    HW227466   1.644   2.791   6.359 -1.0144  1.0874  4.0134
 6925SOL    HW327467   1.668   2.940   6.358 -0.9248  1.1534  0.0745
 6925SOL    MW427468   1.619   2.871   6.337 -0.2179  0.5273  0.4298
 6926SOL     OW27469   3.450   0.932   6.164  0.4504 -0.3543  0.2587
 6926SOL    HW227470   3.422   0.900   6.250 -1.4121  0.8689  0.1522
 6926SOL    HW327471   3.470   0.852   6.115 -1.4041 -1.2637  0.8778
 6926SOL    MW427472   3.449   0.917   6.169 -0.0400 -0.3129  0.3263
 6927SOL     OW27473   0.458   6.300   1.478 -0.4327 -0.0611 -0.5714
 6927SOL    HW227474   0.384   6.288   1.537  0.9435  0.4307  1.3640
 6927SOL    HW327475   0.528   6.334   1.534  1.4579 -1.0827 -2.1734
 6927SOL    MW427476   0.458   6.303   1.493 -0.0017 -0.1310 -0.5274
 6928SOL     OW27477   3.401   6.119   4.558  0.0170 -0.5305 -0.1176
 6928SOL    HW227478   3.475   6.086   4.610  1.1346 -0.3297 -1.5099
 6928SOL    HW327479   3.370   6.194   4.607  1.2856 -0.1210  0.1091
 6928SOL    MW427480   3.407   6.124   4.572  0.3318 -0.4499 -0.2714
 6929SOL     OW27481   5.336   2.094   3.698  0.0771  0.4212  0.2097
 6929SOL    HW227482   5.417   2.141   3.678 -0.6873  1.4014 -0.6854
 6929SOL    HW327483   5.303   2.135   3.778  0.5427 -0.1167  0.6932
 6929SOL    MW427484   5.342   2.106   3.706  0.0377  0.4796  0.1554
 6930SOL     OW27485   2.941   2.173   2.625 -0.1656 -0.2611  0.1603
 6930SOL    HW227486   2.874   2.148   2.689  0.1085 -0.9642  0.1767
 6930SOL    HW327487   3.013   2.112   2.641  0.4741  0.4784  0.1354
 6930SOL    MW427488   2.942   2.162   2.636 -0.0450 -0.2563  0.1592
 6931SOL     OW27489   2.526   3.109   2.226  0.1198 -0.0970  0.0544
 6931SOL    HW227490   2.562   3.194   2.202 -0.7060  0.2917  0.1656
 6931SOL    HW327491   2.517   3.062   2.143  0.7724 -0.1554  0.0153
 6931SOL    MW427492   2.529   3.114   2.212  0.0970 -0.0534  0.0639
 6932SOL     OW27493   5.343   4.608   2.723 -0.3282  0.4595  0.3339
 6932SOL    HW227494   5.392   4.555   2.786  0.1230 -0.6361 -0.9009
 6932SOL    HW327495   5.252   4.577   2.730 -0.2013  0.0428  0.1548
 6932SOL    MW427496   5.337   4.597   2.732 -0.2520  0.2600  0.1474
 6933SOL     OW27497   2.026   4.734   5.734 -0.1181  0.1132 -0.1850
 6933SOL    HW227498   2.100   4.697   5.782  1.1841  1.0211 -1.3980
 6933SOL    HW327499   1.949   4.709   5.785  1.0808 -0.1176  1.6172
 6933SOL    MW427500   2.026   4.726   5.747  0.2119  0.2025 -0.1073
 6934SOL     OW27501   1.932   1.711   1.856 -0.2237  0.1159  0.1353
 6934SOL    HW227502   1.923   1.807   1.850 -2.3253  0.0019  0.4069
 6934SOL    HW327503   1.994   1.688   1.787 -1.1333  1.5275 -1.2150
 6934SOL    MW427504   1.939   1.721   1.846 -0.6210  0.2871 -0.0070
 6935SOL     OW27505   4.991   4.294   5.324 -0.1083  0.3976 -0.0785
 6935SOL    HW227506   4.954   4.331   5.404 -0.3706  0.3593 -0.1790
 6935SOL    HW327507   4.988   4.366   5.260  1.2148  0.7835  0.2806
 6935SOL    MW427508   4.985   4.308   5.326  0.0317  0.4435 -0.0444
 6936SOL     OW27509   0.221   6.060   0.684 -0.1490  0.0312 -0.2432
 6936SOL    HW227510   0.221   5.969   0.653  1.3249 -0.2488  0.4792
 6936SOL    HW327511   0.289   6.062   0.752 -0.7259  1.4914  0.3249
 6936SOL    MW427512   0.230   6.048   0.689 -0.0306  0.1869 -0.0730
 6937SOL     OW27513   5.815   3.493   4.393  0.0959 -0.5490  0.0929
 6937SOL    HW227514   5.815   3.426   4.325 -1.8334  0.5110 -1.0228
 6937SOL    HW327515   5.748   3.555   4.366 -0.0651  0.4231  2.4870
 6937SOL    MW427516   5.806   3.492   4.381 -0.1799 -0.2809  0.2615
 6938SOL     OW27517   5.724   3.654   0.466 -0.0326  0.0324 -0.2582
 6938SOL    HW227518   5.662   3.722   0.439  1.4972  0.9746 -1.5833
 6938SOL    HW327519   5.704   3.579   0.410 -1.4395 -0.5124  0.9103
 6938SOL    MW427520   5.713   3.653   0.455 -0.0164  0.0848 -0.2789
 6939SOL     OW27521   0.690   4.948   4.015 -0.3266 -0.2013  0.4442
 6939SOL    HW227522   0.716   4.980   3.928 -0.8744 -1.2246 -0.1201
 6939SOL    HW327523   0.672   5.027   4.065  0.3181  0.4247 -0.2652
 6939SOL    MW427524   0.691   4.962   4.010 -0.3138 -0.2537  0.2762
 6940SOL     OW27525   6.075   5.848   0.948  0.4316  0.0955 -0.2516
 6940SOL    HW227526   6.019   5.925   0.939 -0.6350 -0.7025 -0.6263
 6940SOL    HW327527   6.162   5.878   0.922 -0.0140  1.1135 -0.5973
 6940SOL    MW427528   6.079   5.862   0.944  0.2321  0.1245 -0.3466
 6941SOL     OW27529   4.003   0.381   1.185  0.7135 -0.2204  0.1748
 6941SOL    HW227530   4.048   0.360   1.104 -2.6353  3.5911 -3.0992
 6941SOL    HW327531   3.918   0.338   1.177 -0.4605  1.9035  0.5604
 6941SOL    MW427532   3.998   0.373   1.174  0.1168  0.5627 -0.2063
 6942SOL     OW27533   2.271   6.085   3.145 -0.1842 -0.2047 -0.0383
 6942SOL    HW227534   2.215   6.014   3.115  1.3655 -0.5175 -2.4192
 6942SOL    HW327535   2.288   6.138   3.067  0.2662  1.7166  1.2718
 6942SOL    MW427536   2.266   6.083   3.131  0.0797  0.0075 -0.1796
 6943SOL     OW27537   3.562   2.487   1.475  0.2423  0.0619  0.7768
 6943SOL    HW227538   3.491   2.542   1.442  0.0834 -1.4734 -1.6426
 6943SOL    HW327539   3.540   2.472   1.567 -0.9397  2.0529  0.8731
 6943SOL    MW427540   3.550   2.492   1.483  0.0654  0.1220  0.4703
 6944SOL     OW27541   6.394   0.512   5.538 -0.2982  0.1757  0.2358
 6944SOL    HW227542   6.350   0.554   5.612 -2.6708 -0.6240 -0.6462
 6944SOL    HW327543   6.425   0.428   5.573 -1.5371 -0.2618  0.3479
 6944SOL    MW427544   6.392   0.506   5.553 -0.7747  0.0125  0.1342
 6945SOL     OW27545   5.129   3.429   0.862  0.3249 -0.2402 -0.4885
 6945SOL    HW227546   5.199   3.478   0.905 -0.1730  0.8938 -0.9521
 6945SOL    HW327547   5.137   3.453   0.770 -0.4806 -0.3524 -0.5887
 6945SOL    MW427548   5.139   3.438   0.855  0.1529 -0.1054 -0.5629
 6946SOL     OW27549   6.285   0.187   2.123 -0.5877  0.0459 -0.2053
 6946SOL    HW227550   6.325   0.256   2.069 -1.5760  0.0614 -0.9467
 6946SOL    HW327551   6.345   0.113   2.115  1.3736  1.2615  1.9205
 6946SOL    MW427552   6.298   0.186   2.115 -0.4593  0.2083 -0.0226
 6947SOL     OW27553   1.798   3.352   1.364  0.1567 -0.6069  0.3568
 6947SOL    HW227554   1.823   3.366   1.273 -0.4460 -0.0811  0.2617
 6947SOL    HW327555   1.702   3.361   1.364  0.1651 -0.4140  1.0669
 6947SOL    MW427556   1.789   3.355   1.352  0.0783 -0.5121  0.4379
 6948SOL     OW27557   3.076   0.471   0.701 -0.1645  0.4299  0.2710
 6948SOL    HW227558   3.039   0.383   0.703 -1.9934  1.1667  0.5400
 6948SOL    HW327559   3.097   0.486   0.609  1.9194 -0.9237  0.4507
 6948SOL    MW427560   3.074   0.462   0.689 -0.1308  0.3485  0.3302
 6949SOL     OW27561   2.915   4.345   4.716  0.3429  0.2376  0.2457
 6949SOL    HW227562   2.975   4.272   4.701 -0.4268 -0.5933  1.0478
 6949SOL    HW327563   2.921   4.360   4.811  0.3588  1.1066  0.1104
 6949SOL    MW427564   2.924   4.337   4.727  0.2434  0.2426  0.3336
 6950SOL     OW27565   4.496   3.935   3.483  0.1925  0.1113 -0.4398
 6950SOL    HW227566   4.502   3.867   3.551  0.3462  2.3966  1.9812
 6950SOL    HW327567   4.584   3.971   3.477 -0.0017  0.4610 -1.3360
 6950SOL    MW427568   4.508   3.931   3.492  0.1871  0.4590 -0.2386
 6951SOL     OW27569   5.523   5.640   1.475  0.1348  0.1498 -0.5899
 6951SOL    HW227570   5.552   5.718   1.522  2.2742 -1.2808  0.6535
 6951SOL    HW327571   5.444   5.612   1.521  1.5299 -0.5437  1.5657
 6951SOL    MW427572   5.517   5.646   1.487  0.6011 -0.1304 -0.1414
 6952SOL     OW27573   1.750   1.579   1.280 -0.2843  0.4933 -0.3820
 6952SOL    HW227574   1.797   1.497   1.267 -0.0517  0.5739 -0.0492
 6952SOL    HW327575   1.793   1.621   1.354 -1.2112  0.3153  0.2865
 6952SOL    MW427576   1.762   1.574   1.288 -0.3759  0.4804 -0.2499
 6953SOL     OW27577   0.431   3.900   4.247  0.1261 -0.0461  0.0986
 6953SOL    HW227578   0.401   3.809   4.254  0.4074 -0.2155 -0.6924
 6953SOL    HW327579   0.452   3.910   4.154 -0.1503  0.9113  0.1343
 6953SOL    MW427580   0.430   3.889   4.235  0.1267  0.0579 -0.0011
 6954SOL     OW27581   4.129   3.082   1.029 -0.1752  0.1649  0.7285
 6954SOL    HW227582   4.213   3.041   1.051 -0.7823 -0.7259  1.4686
 6954SOL    HW327583   4.094   3.028   0.958 -0.6426 -0.1851  1.2136
 6954SOL    MW427584   4.136   3.069   1.023 -0.3170  0.0012  0.8901
 6955SOL     OW27585   4.849   2.024   1.945  0.3140  0.2582  0.1903
 6955SOL    HW227586   4.766   2.020   1.897 -0.6601 -2.3759  1.9021
 6955SOL    HW327587   4.911   1.977   1.890 -0.1092 -0.3857  0.2552
 6955SOL    MW427588   4.846   2.017   1.932  0.1297 -0.1743  0.4247
 6956SOL     OW27589   4.716   6.402   5.807  0.3287 -0.1203  0.4504
 6956SOL    HW227590   4.660   6.395   5.885 -0.5388  2.4513  0.1495
 6956SOL    HW327591   4.793   6.350   5.829 -0.0236  0.2604  2.9271
 6956SOL    MW427592   4.718   6.394   5.820  0.1678  0.2692  0.7375
 6957SOL     OW27593   2.875   1.001   4.353 -0.5509 -0.4029  0.6413
 6957SOL    HW227594   2.843   0.930   4.298 -0.0330  0.2332 -0.5237
 6957SOL    HW327595   2.889   0.961   4.439 -2.0937 -1.2457  0.5332
 6957SOL    MW427596   2.873   0.986   4.357 -0.6861 -0.4302  0.4733
 6958SOL     OW27597   4.618   2.339   3.143 -0.8994 -0.1977 -0.1218
 6958SOL    HW227598   4.530   2.345   3.107 -1.0769 -0.4472  0.2605
 6958SOL    HW327599   4.611   2.275   3.213 -0.7555  0.8872  0.9230
 6958SOL    MW427600   4.606   2.332   3.147 -0.9038 -0.0875  0.0665
 6959SOL     OW27601   1.246   6.281   6.169  0.3733 -0.0591  0.2265
 6959SOL    HW227602   1.290   6.204   6.132  0.5139 -1.0993  2.4173
 6959SOL    HW327603   1.169   6.292   6.114  2.0668  0.3931 -2.2673
 6959SOL    MW427604   1.242   6.272   6.157  0.6153 -0.1367  0.1865
 6960SOL     OW27605   2.010   2.594   0.285 -0.5477  0.2721 -0.5086
 6960SOL    HW227606   1.986   2.537   0.213 -2.1477  0.5514 -0.2284
 6960SOL    HW327607   1.931   2.601   0.338  0.8822 -0.9323  1.9900
 6960SOL    MW427608   1.997   2.588   0.283 -0.5701  0.1501 -0.1420
 6961SOL     OW27609   3.123   2.150   0.511  0.1280 -0.1573  0.3243
 6961SOL    HW227610   3.093   2.241   0.500  0.6351  0.0664  0.7468
 6961SOL    HW327611   3.156   2.147   0.601  0.8610 -0.5463  0.0448
 6961SOL    MW427612   3.123   2.162   0.521  0.2916 -0.1791  0.3432
 6962SOL     OW27613   4.372   5.541   2.671  0.1935  0.7192  0.1693
 6962SOL    HW227614   4.396   5.594   2.595 -0.0169 -0.1904 -0.5503
 6962SOL    HW327615   4.445   5.550   2.732  0.8416  0.6320 -0.5840
 6962SOL    MW427616   4.385   5.549   2.669  0.2512  0.5877 -0.0250
 6963SOL     OW27617   1.425   0.293   5.978 -0.1592 -1.2945 -0.0832
 6963SOL    HW227618   1.506   0.258   5.939  0.3544  1.3072 -1.5580
 6963SOL    HW327619   1.454   0.367   6.031 -1.5758 -0.1029 -0.9078
 6963SOL    MW427620   1.440   0.298   5.980 -0.2784 -0.7940 -0.3866
 6964SOL     OW27621   1.067   2.757   0.309  0.2766  0.4154 -0.3711
 6964SOL    HW227622   0.999   2.798   0.256 -1.2762 -0.2707  0.9942
 6964SOL    HW327623   1.069   2.666   0.279 -0.4233  0.0899  0.5323
 6964SOL    MW427624   1.058   2.750   0.298 -0.0206  0.2820 -0.0717
 6965SOL     OW27625   6.391   1.048   3.960  0.0618  0.5525  0.5255
 6965SOL    HW227626   6.315   0.991   3.971  0.4878 -0.0602  0.3338
 6965SOL    HW327627   6.464   0.989   3.943  0.5026  1.1596  0.2430
 6965SOL    MW427628   6.391   1.033   3.959  0.1762  0.5518  0.4629
 6966SOL     OW27629   6.307   2.875   4.479 -0.3578 -0.2560  0.0232
 6966SOL    HW227630   6.390   2.848   4.441 -1.4792 -2.5334 -0.9501
 6966SOL    HW327631   6.304   2.831   4.564 -0.7883 -0.6063 -0.1708
 6966SOL    MW427632   6.318   2.866   4.485 -0.5626 -0.6027 -0.1308
 6967SOL     OW27633   3.362   2.577   4.171 -0.0467 -0.4473  0.4145
 6967SOL    HW227634   3.303   2.511   4.209  0.7097 -0.5251  1.5087
 6967SOL    HW327635   3.320   2.661   4.190  1.1540 -0.3660  3.0874
 6967SOL    MW427636   3.348   2.579   4.178  0.2115 -0.4468  0.9115
 6968SOL     OW27637   2.949   6.014   2.738 -0.3011  0.1759 -0.5660
 6968SOL    HW227638   2.890   5.966   2.797  0.5395  0.7770  0.8242
 6968SOL    HW327639   3.030   6.022   2.788  0.5792  0.3880 -1.9848
 6968SOL    MW427640   2.952   6.009   2.752 -0.0740  0.2832 -0.5698
 6969SOL     OW27641   4.239   5.915   1.451 -0.2343  0.1907  0.3207
 6969SOL    HW227642   4.180   5.841   1.464 -1.4976  1.1632  0.2945
 6969SOL    HW327643   4.304   5.907   1.521 -1.6676  0.3057  1.7100
 6969SOL    MW427644   4.240   5.904   1.462 -0.5901  0.3342  0.5006
 6970SOL     OW27645   5.122   4.528   5.511 -0.3192  0.4876  0.0981
 6970SOL    HW227646   5.129   4.539   5.416 -1.0346 -0.7830 -0.1238
 6970SOL    HW327647   5.212   4.511   5.540 -0.3482 -1.1781 -0.6658
 6970SOL    MW427648   5.135   4.527   5.502 -0.4174  0.1002 -0.0320
 6971SOL     OW27649   3.161   4.306   5.558 -0.3676  0.0777  0.3269
 6971SOL    HW227650   3.114   4.235   5.516 -0.9916  0.9505 -0.4861
 6971SOL    HW327651   3.166   4.280   5.650  1.0810 -1.9046 -0.2349
 6971SOL    MW427652   3.156   4.293   5.565 -0.2588 -0.0686  0.1455
 6972SOL     OW27653   2.373   3.086   4.028  0.3377 -0.2451 -0.0714
 6972SOL    HW227654   2.393   3.015   4.089  0.9939 -0.4650 -0.5323
 6972SOL    HW327655   2.277   3.093   4.030  0.2992 -0.8259  0.3304
 6972SOL    MW427656   2.363   3.078   4.036  0.4192 -0.3508 -0.0792
 6973SOL     OW27657   1.546   2.940   3.518 -0.1293 -0.3991 -0.6158
 6973SOL    HW227658   1.535   2.890   3.598 -0.9437  1.4236  0.4854
 6973SOL    HW327659   1.641   2.955   3.512  0.0034 -1.1120 -0.3836
 6973SOL    MW427660   1.557   2.936   3.528 -0.2193 -0.2527 -0.4399
 6974SOL     OW27661   3.764   6.044   3.576 -0.0261  0.1587  0.5856
 6974SOL    HW227662   3.800   5.955   3.569 -2.2215 -0.9190  1.7865
 6974SOL    HW327663   3.720   6.058   3.492 -1.5291 -0.8370  1.1617
 6974SOL    MW427664   3.763   6.034   3.564 -0.5140 -0.1149  0.8200
 6975SOL     OW27665   5.456   0.948   0.541 -0.0929  0.2466 -0.1012
 6975SOL    HW227666   5.514   0.910   0.606 -0.5242 -0.4659 -0.1209
 6975SOL    HW327667   5.435   1.035   0.575 -1.9497 -0.8480  1.7775
 6975SOL    MW427668   5.461   0.954   0.554 -0.3948  0.0082  0.1441
 6976SOL     OW27669   4.567   5.489   0.569  0.1122  0.3796 -0.3670
 6976SOL    HW227670   4.583   5.442   0.488 -1.5406  0.1892 -0.6054
 6976SOL    HW327671   4.472   5.494   0.576  0.2341  1.1588  1.1181
 6976SOL    MW427672   4.557   5.484   0.559 -0.0898  0.4573 -0.2025
 6977SOL     OW27673   2.960   1.039   5.753  0.0394  0.2705  0.2000
 6977SOL    HW227674   2.950   1.134   5.761 -3.9563 -0.0689  0.8592
 6977SOL    HW327675   2.936   1.019   5.663  3.1081 -0.0586 -0.6808
 6977SOL    MW427676   2.956   1.049   5.742 -0.0829  0.1823  0.1707
 6978SOL     OW27677   0.542   3.411   1.091 -0.4796  0.3786 -0.2886
 6978SOL    HW227678   0.502   3.444   1.171 -0.1783  0.0732 -0.0071
 6978SOL    HW327679   0.473   3.360   1.048  0.1202 -1.7867  1.1528
 6978SOL    MW427680   0.528   3.409   1.095 -0.3607  0.0526 -0.0613
 6979SOL     OW27681   1.893   6.064   6.111 -0.5365 -0.2576  0.2319
 6979SOL    HW227682   1.886   5.969   6.104 -1.1422 -0.1273 -1.3244
 6979SOL    HW327683   1.872   6.083   6.203 -0.0597 -1.6374  0.6456
 6979SOL    MW427684   1.889   6.054   6.122 -0.5535 -0.4225  0.0812
 6980SOL     OW27685   3.113   1.343   6.192  0.7049 -0.2769 -0.0905
 6980SOL    HW227686   3.152   1.283   6.256 -0.4117 -1.4353 -0.4605
 6980SOL    HW327687   3.125   1.299   6.108 -0.0698  0.0448 -0.3770
 6980SOL    MW427688   3.120   1.329   6.189  0.4553 -0.3873 -0.1771
 6981SOL     OW27689   5.400   1.226   4.570  0.6104  0.0844 -0.5541
 6981SOL    HW227690   5.455   1.195   4.642  1.6002  1.1290 -0.8266
 6981SOL    HW327691   5.347   1.151   4.547 -0.6392  0.0434  2.0632
 6981SOL    MW427692   5.400   1.212   4.577  0.5761  0.2168 -0.2448
 6982SOL     OW27693   1.532   4.421   3.419 -0.1227 -0.1452 -0.4393
 6982SOL    HW227694   1.488   4.386   3.342 -0.3106  0.3431 -0.5567
 6982SOL    HW327695   1.512   4.360   3.489  0.1812 -0.6786 -0.8129
 6982SOL    MW427696   1.524   4.409   3.418 -0.1074 -0.1512 -0.5041
 6983SOL     OW27697   5.634   0.049   2.769 -0.8036  0.1719  0.0666
 6983SOL    HW227698   5.625   0.144   2.769  1.6370  0.5032 -1.8146
 6983SOL    HW327699   5.579   0.019   2.697 -0.4357  0.3289 -0.2819
 6983SOL    MW427700   5.626   0.057   2.760 -0.4331  0.2363 -0.2276
 6984SOL     OW27701   1.796   3.763   5.420 -0.1331  0.0337  0.0070
 6984SOL    HW227702   1.767   3.801   5.337  0.4350  0.0022 -0.2159
 6984SOL    HW327703   1.791   3.835   5.483  1.2131  0.5974 -0.4783
 6984SOL    MW427704   1.792   3.777   5.418  0.1195  0.1039 -0.0865
 6985SOL     OW27705   0.611   6.317   4.027 -0.6345  0.2067 -0.3049
 6985SOL    HW227706   0.596   6.296   4.119 -0.2680 -0.2088 -0.3350
 6985SOL    HW327707   0.618   6.412   4.024  0.3227  0.1629  0.2539
 6985SOL    MW427708   0.610   6.327   4.038 -0.4598  0.1461 -0.2351
 6986SOL     OW27709   3.734   3.264   3.572  0.4018 -0.2697 -0.0633
 6986SOL    HW227710   3.698   3.333   3.516  0.8990  1.7420  1.9502
 6986SOL    HW327711   3.658   3.224   3.614  0.1621 -0.2480 -0.4757
 6986SOL    MW427712   3.719   3.268   3.570  0.4358 -0.0014  0.1479
 6987SOL     OW27713   5.399   1.822   3.897 -0.7445 -0.2856 -0.4306
 6987SOL    HW227714   5.444   1.894   3.853 -0.2240 -1.2791 -1.5660
 6987SOL    HW327715   5.468   1.773   3.941 -0.8179 -1.2416 -1.3433
 6987SOL    MW427716   5.414   1.825   3.897 -0.6855 -0.5428 -0.7008
 6988SOL     OW27717   0.677   1.974   5.924 -0.1245  0.0350 -0.2276
 6988SOL    HW227718   0.728   1.946   6.000  1.5416  2.4485 -0.3360
 6988SOL    HW327719   0.725   1.938   5.849 -1.0448 -1.2648 -0.2197
 6988SOL    MW427720   0.690   1.966   5.924 -0.0261  0.1819 -0.2409
 6989SOL     OW27721   6.216   0.308   6.234  0.4125  0.0519 -0.4728
 6989SOL    HW227722   6.236   0.218   6.208  0.1852 -0.1597  0.0681
 6989SOL    HW327723   6.122   0.307   6.253 -0.1051  0.9662 -2.7272
 6989SOL    MW427724   6.206   0.296   6.233  0.3142  0.1446 -0.6989
 6990SOL     OW27725   4.205   0.802   4.435  0.1796  0.8377 -0.0526
 6990SOL    HW227726   4.160   0.855   4.369 -0.3972 -2.8850 -2.9478
 6990SOL    HW327727   4.135   0.770   4.492  0.1611  0.9551 -0.0091
 6990SOL    MW427728   4.190   0.805   4.434  0.1010  0.3620 -0.4288
 6991SOL     OW27729   2.684   2.605   0.219 -0.5066  0.2830 -0.1446
 6991SOL    HW227730   2.683   2.633   0.311  0.0454 -1.1791  0.3354
 6991SOL    HW327731   2.682   2.509   0.223  2.1209  0.0693 -1.5654
 6991SOL    MW427732   2.684   2.596   0.232 -0.0871  0.0619 -0.2687
 6992SOL     OW27733   1.997   0.868   4.834  0.0002  0.3230  0.1893
 6992SOL    HW227734   2.065   0.842   4.895 -0.7132  0.7492  1.1889
 6992SOL    HW327735   2.021   0.957   4.808  0.8072 -0.1868 -0.9048
 6992SOL    MW427736   2.009   0.877   4.838  0.0125  0.3119  0.1768
 6993SOL     OW27737   3.559   1.753   4.675  0.2883  0.3051 -0.0120
 6993SOL    HW227738   3.586   1.679   4.730  0.2094  0.9663  0.9305
 6993SOL    HW327739   3.476   1.724   4.636  1.3447 -0.9741 -1.4259
 6993SOL    MW427740   3.552   1.739   4.677  0.4173  0.2236 -0.0742
 6994SOL     OW27741   0.145   5.063   4.579  0.2905  0.1834 -0.4171
 6994SOL    HW227742   0.082   5.089   4.646  0.4720  0.2121 -0.2561
 6994SOL    HW327743   0.192   5.143   4.558  0.5488  0.0813 -0.2409
 6994SOL    MW427744   0.143   5.077   4.585  0.3486  0.1738 -0.3726
 6995SOL     OW27745   1.777   1.374   3.041  0.2626 -0.3792  0.1064
 6995SOL    HW227746   1.754   1.336   3.127 -1.5683  0.6970  0.1390
 6995SOL    HW327747   1.712   1.337   2.981  1.5082 -1.0909 -0.8434
 6995SOL    MW427748   1.765   1.364   3.045  0.1854 -0.3311 -0.0146
 6996SOL     OW27749   3.594   1.817   0.109  0.3302  0.1654  0.2188
 6996SOL    HW227750   3.608   1.859   0.194 -0.6973 -0.1938  0.5841
 6996SOL    HW327751   3.681   1.792   0.080  1.1115  3.1269 -0.3383
 6996SOL    MW427752   3.607   1.819   0.117  0.2977  0.5088  0.1935
 6997SOL     OW27753   4.391   3.409   3.658 -0.2488 -0.9994 -0.6460
 6997SOL    HW227754   4.409   3.350   3.585  2.9678 -1.5303  0.4185
 6997SOL    HW327755   4.464   3.397   3.718 -0.5616  2.4832  0.6976
 6997SOL    MW427756   4.403   3.400   3.656  0.1343 -0.6100 -0.3283
 6998SOL     OW27757   1.765   2.159   4.259 -0.4995  0.7881  0.4761
 6998SOL    HW227758   1.681   2.200   4.239 -0.6207 -0.2657 -1.5309
 6998SOL    HW327759   1.771   2.086   4.197  1.3766  0.1140  1.3649
 6998SOL    MW427760   1.755   2.154   4.248 -0.2680  0.5601  0.3286
 6999SOL     OW27761   3.601   4.849   2.716  0.0853 -0.2313  0.2210
 6999SOL    HW227762   3.561   4.920   2.766  1.0912  0.7502 -0.3150
 6999SOL    HW327763   3.695   4.865   2.724  0.3461 -1.7568  0.4235
 6999SOL    MW427764   3.608   4.861   2.724  0.2524 -0.3031  0.1770
 7000SOL     OW27765   2.940   5.537   4.565  0.4518 -0.3219  0.0308
 7000SOL    HW227766   2.902   5.449   4.560  0.2247 -0.2003 -0.4679
 7000SOL    HW327767   3.034   5.523   4.556  0.3431 -0.4381 -0.9864
 7000SOL    MW427768   2.947   5.524   4.563  0.4075 -0.3212 -0.1692
 7001SOL     OW27769   3.637   1.180   6.046  0.0832  0.2927 -0.6496
 7001SOL    HW227770   3.589   1.114   5.995 -0.0149  0.7110 -1.1087
 7001SOL    HW327771   3.585   1.191   6.126 -0.0292 -0.0060 -0.6786
 7001SOL    MW427772   3.624   1.173   6.050  0.0554  0.3085 -0.7140
 7002SOL     OW27773   5.160   3.436   0.585  0.0681  0.2450 -0.2491
 7002SOL    HW227774   5.100   3.430   0.511  1.3362  0.3757 -1.3224
 7002SOL    HW327775   5.159   3.348   0.623 -0.8759  0.2784 -0.1669
 7002SOL    MW427776   5.152   3.423   0.581  0.1108  0.2666 -0.3799
 7003SOL     OW27777   2.128   0.697   1.189  0.8831 -0.0234  0.4705
 7003SOL    HW227778   2.190   0.665   1.254  2.0094  1.1913  0.0424
 7003SOL    HW327779   2.051   0.724   1.240  2.1272  1.8733  1.4706
 7003SOL    MW427780   2.126   0.697   1.204  1.1959  0.3871  0.5460
 7004SOL     OW27781   3.520   3.617   2.808 -0.2006 -0.6193  0.1672
 7004SOL    HW227782   3.450   3.563   2.844 -0.7561  0.7977  1.2789
 7004SOL    HW327783   3.573   3.641   2.884  0.5216 -0.2847 -0.4312
 7004SOL    MW427784   3.518   3.613   2.823 -0.1786 -0.3882  0.2349
 7005SOL     OW27785   2.460   0.501   5.861  0.4861  0.4892 -0.3430
 7005SOL    HW227786   2.502   0.469   5.941 -0.5183  0.3251  0.1385
 7005SOL    HW327787   2.393   0.435   5.842  1.4184 -0.0519 -1.9595
 7005SOL    MW427788   2.457   0.488   5.869  0.4766  0.3961 -0.4927
 7006SOL     OW27789   1.806   4.764   4.429 -0.7127  0.0202 -0.0372
 7006SOL    HW227790   1.814   4.804   4.342 -0.2098 -1.5022 -0.7293
 7006SOL    HW327791   1.893   4.773   4.468 -0.9399  0.7080  0.3315
 7006SOL    MW427792   1.818   4.771   4.423 -0.6763 -0.0899 -0.0798
 7007SOL     OW27793   5.375   0.685   2.113 -0.3633 -0.5078  0.3652
 7007SOL    HW227794   5.381   0.742   2.037  2.1265  0.9681  1.5390
 7007SOL    HW327795   5.281   0.685   2.136 -1.0022 -0.1893 -2.0314
 7007SOL    MW427796   5.363   0.693   2.106 -0.1191 -0.2710  0.2038
 7008SOL     OW27797   0.170   2.226   4.798  0.2635  0.2615  0.4236
 7008SOL    HW227798   0.174   2.229   4.893 -2.0116 -0.8919  0.6301
 7008SOL    HW327799   0.091   2.175   4.779  0.6670  0.4430 -2.0838
 7008SOL    MW427800   0.160   2.220   4.808  0.0165  0.1333  0.1201
 7009SOL     OW27801   4.569   0.935   1.881 -0.3886  0.3686  0.1326
 7009SOL    HW227802   4.494   0.914   1.826 -0.8771  0.9000  0.5901
 7009SOL    HW327803   4.558   1.028   1.903  1.1684  0.8608 -0.9957
 7009SOL    MW427804   4.558   0.944   1.877 -0.2476  0.5036  0.0441
 7010SOL     OW27805   5.458   1.450   4.882 -0.1187  0.4959 -0.5344
 7010SOL    HW227806   5.399   1.522   4.862  0.0811  1.3497  1.7023
 7010SOL    HW327807   5.401   1.372   4.884 -0.7548  0.9514 -0.6382
 7010SOL    MW427808   5.442   1.449   4.880 -0.1763  0.6686 -0.2530
 7011SOL     OW27809   4.552   4.284   0.336 -0.0503 -0.3088 -0.1239
 7011SOL    HW227810   4.537   4.249   0.249 -0.7612  0.2831 -0.2429
 7011SOL    HW327811   4.530   4.377   0.329  0.6953 -0.0726  0.4763
 7011SOL    MW427812   4.547   4.292   0.324 -0.0457 -0.1996 -0.0604
 7012SOL     OW27813   6.123   3.496   2.722 -0.0570 -0.6189  0.3272
 7012SOL    HW227814   6.076   3.579   2.731 -1.3821 -1.3356  0.2962
 7012SOL    HW327815   6.183   3.495   2.797  0.1750  0.4726  0.1791
 7012SOL    MW427816   6.125   3.507   2.733 -0.2012 -0.5694  0.3035
 7013SOL     OW27817   0.665   0.027   6.340  0.2050 -0.1602 -0.3788
 7013SOL    HW227818   0.690   0.116   6.366  2.6137 -0.9074  0.1472
 7013SOL    HW327819   0.744  -0.025   6.353 -0.9183 -2.2659 -1.3734
 7013SOL    MW427820   0.678   0.032   6.345  0.3746 -0.5366 -0.4406
 7014SOL     OW27821   6.053   4.701   6.368  0.0450 -0.2771 -0.3168
 7014SOL    HW227822   6.037   4.760   6.295 -1.0088 -0.7090 -0.4586
 7014SOL    HW327823   6.147   4.706   6.384  0.2388  0.0441 -1.5113
 7014SOL    MW427824   6.063   4.709   6.361 -0.0684 -0.2917 -0.4931
 7015SOL     OW27825   2.929   3.597   4.811  0.1169  0.1098 -0.0483
 7015SOL    HW227826   2.928   3.501   4.810  0.9315  0.0840  0.6408
 7015SOL    HW327827   2.984   3.620   4.885 -0.1446  1.1223 -0.1493
 7015SOL    MW427828   2.936   3.587   4.820  0.1899  0.2400  0.0293
 7016SOL     OW27829   5.976   5.330   0.874 -0.0207 -0.2247 -0.3899
 7016SOL    HW227830   5.977   5.404   0.813  2.4696  0.5658  0.5090
 7016SOL    HW327831   5.898   5.344   0.928 -0.2486  1.0471 -1.0190
 7016SOL    MW427832   5.966   5.342   0.873  0.2778  0.0474 -0.3543
 7017SOL     OW27833   1.753   5.658   1.617  0.3758  0.5590 -0.0587
 7017SOL    HW227834   1.756   5.593   1.688 -0.0555 -0.6131 -1.0729
 7017SOL    HW327835   1.660   5.674   1.603  0.4853  1.5650  0.3108
 7017SOL    MW427836   1.741   5.651   1.624  0.3333  0.5371 -0.1438
 7018SOL     OW27837   3.157   3.655   3.449  0.1342 -0.0992 -0.6565
 7018SOL    HW227838   3.140   3.743   3.416  0.0992  0.6221  1.1966
 7018SOL    HW327839   3.238   3.663   3.499 -0.8614 -0.6853  1.1057
 7018SOL    MW427840   3.165   3.668   3.451 -0.0018 -0.0813 -0.1795
 7019SOL     OW27841   6.203   1.936   0.050 -0.2382 -0.5089 -0.1049
 7019SOL    HW227842   6.199   1.902   0.139 -0.8209  0.9908  0.4631
 7019SOL    HW327843   6.123   1.905   0.008 -1.4903  1.2746  0.8533
 7019SOL    MW427844   6.192   1.927   0.056 -0.4803 -0.0757  0.0965
 7020SOL     OW27845   3.053   0.902   4.755  0.0050 -0.1151 -0.1694
 7020SOL    HW227846   3.049   0.992   4.788 -0.8436 -0.6655  1.3746
 7020SOL    HW327847   3.146   0.879   4.759  0.2542  0.7460 -0.7551
 7020SOL    MW427848   3.065   0.911   4.760 -0.0741 -0.0741 -0.0430
 7021SOL     OW27849   1.684   3.200   0.518 -0.5599 -0.0272 -0.5128
 7021SOL    HW227850   1.760   3.185   0.574 -0.8357  0.0416 -0.1190
 7021SOL    HW327851   1.699   3.287   0.480 -0.0566 -0.3453 -1.0576
 7021SOL    MW427852   1.696   3.210   0.520 -0.5299 -0.0601 -0.5327
 7022SOL     OW27853   1.770   1.740   6.325  0.4943 -0.8808 -1.0340
 7022SOL    HW227854   1.845   1.739   6.265  0.8824  1.7347 -0.7012
 7022SOL    HW327855   1.704   1.794   6.280 -0.6355 -1.8888 -0.6446
 7022SOL    MW427856   1.771   1.747   6.311  0.3964 -0.6687 -0.9387
 7023SOL     OW27857   0.496   1.350   2.274 -0.1132  0.1997  0.4559
 7023SOL    HW227858   0.480   1.445   2.273  1.0307  0.4318 -1.6254
 7023SOL    HW327859   0.436   1.316   2.208 -0.2683 -0.4937  0.9498
 7023SOL    MW427860   0.486   1.358   2.265  0.0173  0.1389  0.2464
 7024SOL     OW27861   5.274   3.225   3.434 -0.2967 -0.8031 -0.3477
 7024SOL    HW227862   5.324   3.307   3.431 -1.2923 -0.2211 -1.3947
 7024SOL    HW327863   5.228   3.228   3.518 -1.7075  0.5603 -1.1392
 7024SOL    MW427864   5.275   3.236   3.445 -0.6142 -0.5465 -0.5903
 7025SOL     OW27865   3.935   2.979   4.233  0.2802 -0.4253  0.1104
 7025SOL    HW227866   3.863   3.041   4.219  1.0086  0.1610 -1.1894
 7025SOL    HW327867   4.010   3.035   4.255  1.0575 -0.7806 -1.5293
 7025SOL    MW427868   3.935   2.995   4.234  0.4788 -0.3948 -0.2775
 7026SOL     OW27869   1.925   3.046   1.009  0.0401 -0.0390 -0.0561
 7026SOL    HW227870   1.874   3.121   1.041  0.3334  1.8250 -3.4381
 7026SOL    HW327871   1.860   2.979   0.989 -0.6041  0.5792 -0.0572
 7026SOL    MW427872   1.910   3.047   1.010 -0.0062  0.2885 -0.5025
 7027SOL     OW27873   0.140   5.084   1.222  0.0779  0.2165 -0.3815
 7027SOL    HW227874   0.154   4.995   1.189  0.8670  0.3936 -0.5458
 7027SOL    HW327875   0.124   5.073   1.316 -0.7240 -0.1682 -0.5570
 7027SOL    MW427876   0.140   5.071   1.230  0.0762  0.1891 -0.4263
 7028SOL     OW27877   3.789   5.684   4.640  0.4500  0.6224 -0.6417
 7028SOL    HW227878   3.872   5.668   4.685 -0.0247 -1.4572 -0.4337
 7028SOL    HW327879   3.813   5.690   4.547  0.9017  0.6798 -0.5267
 7028SOL    MW427880   3.803   5.683   4.634  0.4470  0.3556 -0.5991
 7029SOL     OW27881   2.674   3.426   0.159 -0.2056  0.0681 -0.3648
 7029SOL    HW227882   2.597   3.419   0.215  1.1713 -1.8517  1.4302
 7029SOL    HW327883   2.640   3.414   0.070 -2.0852  0.4079  0.2502
 7029SOL    MW427884   2.659   3.424   0.154 -0.2719 -0.1403 -0.0468
 7030SOL     OW27885   5.670   0.682   1.231  0.0979 -0.2958 -0.0307
 7030SOL    HW227886   5.614   0.662   1.157 -0.0960  2.0850 -0.6039
 7030SOL    HW327887   5.759   0.671   1.197  0.1180  3.2658 -1.5783
 7030SOL    MW427888   5.675   0.678   1.217  0.0750  0.4882 -0.3105
 7031SOL     OW27889   2.960   1.943   2.220 -0.0852 -0.2976 -0.1279
 7031SOL    HW227890   3.020   2.005   2.261  0.1352 -0.3518 -0.3653
 7031SOL    HW327891   2.873   1.968   2.252  0.2156 -1.2314  1.5232
 7031SOL    MW427892   2.956   1.954   2.229 -0.0164 -0.4279  0.0586
 7032SOL     OW27893   1.459   0.601   1.349  0.5368  1.0794  0.3887
 7032SOL    HW227894   1.437   0.583   1.440  2.3376  0.7476  0.7926
 7032SOL    HW327895   1.374   0.602   1.303 -0.3849  1.1779  2.0297
 7032SOL    MW427896   1.445   0.599   1.355  0.6528  1.0486  0.6585
 7033SOL     OW27897   4.971   0.076   0.327 -0.0517 -0.2736 -0.7866
 7033SOL    HW227898   5.011   0.008   0.382 -1.3762 -0.6672 -0.2679
 7033SOL    HW327899   4.902   0.030   0.280  0.3328  0.3099 -1.9510
 7033SOL    MW427900   4.967   0.061   0.328 -0.1757 -0.2486 -0.8718
 7034SOL     OW27901   2.550   3.957   0.435 -0.0124 -0.0727  0.1424
 7034SOL    HW227902   2.465   3.950   0.392  1.0569 -0.8179 -2.0165
 7034SOL    HW327903   2.557   4.048   0.461 -1.7808 -0.1717  1.1155
 7034SOL    MW427904   2.540   3.968   0.433 -0.1046 -0.1841 -0.0141
 7035SOL     OW27905   5.432   5.041   0.188 -0.1246 -0.1908 -0.1369
 7035SOL    HW227906   5.507   5.093   0.219  0.6705 -0.0189 -2.1930
 7035SOL    HW327907   5.440   4.958   0.236  1.8073 -0.4243 -0.7341
 7035SOL    MW427908   5.443   5.037   0.198  0.2352 -0.1989 -0.4870
 7036SOL     OW27909   0.994   5.637   2.450 -0.3965  0.2817 -0.2051
 7036SOL    HW227910   1.027   5.628   2.539  0.1185 -1.1476 -0.5215
 7036SOL    HW327911   0.916   5.692   2.459  0.2676  1.0671  0.9647
 7036SOL    MW427912   0.988   5.643   2.463 -0.2409  0.1968 -0.0925
 7037SOL     OW27913   5.987   0.512   1.915  0.7750  0.1803  0.1374
 7037SOL    HW227914   5.982   0.424   1.877  1.5252  0.5881 -0.9432
 7037SOL    HW327915   6.018   0.498   2.005 -0.7784 -0.7788  0.5746
 7037SOL    MW427916   5.990   0.499   1.922  0.6690  0.1075  0.0525
 7038SOL     OW27917   0.764   0.175   1.848 -0.3572  0.2666  0.1435
 7038SOL    HW227918   0.730   0.111   1.784  0.0125 -0.2335  0.4388
 7038SOL    HW327919   0.822   0.124   1.904 -0.8699  0.6529  1.0417
 7038SOL    MW427920   0.767   0.160   1.847 -0.3760  0.2516  0.3009
 7039SOL     OW27921   2.809   5.430   0.275 -0.0814  0.2421 -0.3226
 7039SOL    HW227922   2.824   5.525   0.280  2.0396 -0.0360 -0.4147
 7039SOL    HW327923   2.753   5.418   0.198 -0.3979  1.4092 -0.2956
 7039SOL    MW427924   2.804   5.441   0.266  0.1567  0.3594 -0.3312
 7040SOL     OW27925   5.708   5.397   5.047 -0.4292 -0.5473 -0.5502
 7040SOL    HW227926   5.766   5.470   5.068 -2.1322  0.3256  1.5808
 7040SOL    HW327927   5.660   5.426   4.970 -1.3452  0.8404  0.4805
 7040SOL    MW427928   5.709   5.411   5.040 -0.7747 -0.2490 -0.1331
 7041SOL     OW27929   6.432   0.236   1.758 -0.5478 -0.4293 -0.0487
 7041SOL    HW227930   6.448   0.150   1.797 -1.3718 -0.5868 -0.0303
 7041SOL    HW327931   6.390   0.286   1.828  3.3050  1.2923  1.2599
 7041SOL    MW427932   6.428   0.231   1.773 -0.1482 -0.2229  0.1264
 7042SOL     OW27933   3.383   0.770   2.478 -0.0713  0.4061 -0.1924
 7042SOL    HW227934   3.417   0.769   2.568 -0.8573  0.8427  0.1178
 7042SOL    HW327935   3.338   0.854   2.470 -0.2513  0.2482 -0.9100
 7042SOL    MW427936   3.382   0.781   2.489 -0.1988  0.4428 -0.2461
 7043SOL     OW27937   2.767   2.511   1.519  0.5725  0.0878 -0.1151
 7043SOL    HW227938   2.855   2.473   1.520  0.9907  0.9216  2.4282
 7043SOL    HW327939   2.710   2.441   1.550  0.7385  0.2759  0.6407
 7043SOL    MW427940   2.771   2.497   1.523  0.6496  0.2226  0.3202
 7044SOL     OW27941   2.989   3.989   2.183 -0.4464  0.4705 -0.5207
 7044SOL    HW227942   2.937   3.916   2.217  0.7859  0.3443  1.2753
 7044SOL    HW327943   3.044   4.015   2.257  1.5524  1.0200 -2.1135
 7044SOL    MW427944   2.990   3.983   2.197 -0.0201  0.5263 -0.4939
 7045SOL     OW27945   5.183   4.825   3.829  0.1789 -0.6578  0.0080
 7045SOL    HW227946   5.190   4.883   3.905 -0.3623  0.0868 -0.4941
 7045SOL    HW327947   5.222   4.742   3.858 -0.3700 -0.5167  1.2314
 7045SOL    MW427948   5.189   4.822   3.843  0.0351 -0.5410  0.1032
 7046SOL     OW27949   1.307   0.942   4.494 -0.2988  0.3413 -0.1152
 7046SOL    HW227950   1.336   1.018   4.444  0.1393  1.3454  1.5686
 7046SOL    HW327951   1.274   0.881   4.428 -1.1034  2.1588 -1.5030
 7046SOL    MW427952   1.307   0.944   4.479 -0.3472  0.7136 -0.0761
 7047SOL     OW27953   5.863   1.822   2.614 -0.2637 -0.0960 -0.2161
 7047SOL    HW227954   5.795   1.885   2.591 -1.2343 -1.7069 -1.9817
 7047SOL    HW327955   5.867   1.762   2.540  0.9754 -1.8359  1.1650
 7047SOL    MW427956   5.855   1.823   2.601 -0.2282 -0.5381 -0.2668
 7048SOL     OW27957   0.887   3.328   4.418 -0.0450 -0.0852  0.0222
 7048SOL    HW227958   0.846   3.263   4.476  0.8086 -0.7281 -0.0893
 7048SOL    HW327959   0.852   3.412   4.449 -0.5757 -0.5265  0.6531
 7048SOL    MW427960   0.877   3.330   4.430 -0.0024 -0.2282  0.0908
 7049SOL     OW27961   1.995   1.374   2.851 -0.5488  0.3275 -0.4728
 7049SOL    HW227962   2.077   1.421   2.838  0.0220 -0.3835  0.3931
 7049SOL    HW327963   1.953   1.419   2.924 -1.5152  1.4238 -1.6686
 7049SOL    MW427964   2.000   1.386   2.859 -0.6010  0.3783 -0.5163
 7050SOL     OW27965   0.760   6.358   3.434 -0.6781 -0.1356 -0.4012
 7050SOL    HW227966   0.751   6.423   3.503 -2.3738  1.2970 -1.8600
 7050SOL    HW327967   0.737   6.404   3.353 -0.9157 -2.2733 -1.6595
 7050SOL    MW427968   0.756   6.372   3.432 -0.9332 -0.2287 -0.7597
 7051SOL     OW27969   2.129   3.911   5.785  0.5511 -0.1782 -0.3918
 7051SOL    HW227970   2.099   3.922   5.875 -1.3741  0.7067 -1.0726
 7051SOL    HW327971   2.155   3.820   5.779  0.4925 -0.3038  1.0004
 7051SOL    MW427972   2.128   3.901   5.796  0.2893 -0.0780 -0.2980
 7052SOL     OW27973   0.847   0.343   0.555  0.0549  0.0004 -0.8301
 7052SOL    HW227974   0.814   0.414   0.499  0.4346  0.8351 -0.0186
 7052SOL    HW327975   0.891   0.284   0.494  0.3330  0.8161 -1.4447
 7052SOL    MW427976   0.848   0.344   0.539  0.1417  0.2181 -0.8041
 7053SOL     OW27977   0.997   4.865   5.490 -0.3015  0.1955  0.4077
 7053SOL    HW227978   0.909   4.872   5.528 -1.4299  0.0799 -1.9740
 7053SOL    HW327979   0.985   4.808   5.414  2.1218 -0.8194  0.7128
 7053SOL    MW427980   0.984   4.858   5.485 -0.1306  0.0463  0.1337
 7054SOL     OW27981   6.202   0.715   3.461 -0.5800  0.0767  0.3100
 7054SOL    HW227982   6.222   0.766   3.381 -1.5150 -0.2267 -0.1266
 7054SOL    HW327983   6.212   0.624   3.434  0.1774 -0.0021  0.8435
 7054SOL    MW427984   6.206   0.710   3.447 -0.6034  0.0263  0.3228
 7055SOL     OW27985   0.458   1.548   6.281  0.5805 -0.9062  0.5901
 7055SOL    HW227986   0.491   1.631   6.246 -0.2630 -0.6983  0.2834
 7055SOL    HW327987   0.374   1.535   6.237  0.8613 -2.0950  0.3925
 7055SOL    MW427988   0.451   1.558   6.271  0.5062 -1.0356  0.5235
 7056SOL     OW27989   3.778   4.084   2.194  0.0829  0.0777 -0.1519
 7056SOL    HW227990   3.760   3.990   2.201  0.7495  0.0030  0.6331
 7056SOL    HW327991   3.873   4.090   2.186  0.1034  0.7135  0.4448
 7056SOL    MW427992   3.788   4.072   2.194  0.1736  0.1518  0.0304
 7057SOL     OW27993   4.703   1.281   1.249 -0.3037 -0.0754 -0.2704
 7057SOL    HW227994   4.689   1.187   1.250  1.0065 -0.3108  1.7731
 7057SOL    HW327995   4.742   1.299   1.164 -0.0549 -1.4706 -0.4643
 7057SOL    MW427996   4.706   1.271   1.238 -0.0980 -0.2905 -0.0264
 7058SOL     OW27997   0.343   5.302   4.812  0.0598  0.1362 -0.1949
 7058SOL    HW227998   0.369   5.390   4.841  0.4719 -0.2149  0.5362
 7058SOL    HW327999   0.268   5.280   4.866  0.3617 -0.2206  0.0843
 7058SOL    MW428000   0.337   5.311   4.823  0.1540  0.0428 -0.0616
 7059SOL     OW28001   2.118   6.161   4.005  0.2729  0.0450  0.5248
 7059SOL    HW228002   2.051   6.107   3.965 -1.5469  1.7845  1.0697
 7059SOL    HW328003   2.200   6.113   3.991 -0.8450 -1.3717 -1.5664
 7059SOL    MW428004   2.120   6.148   3.998 -0.1147  0.0876  0.3208
 7060SOL     OW28005   5.903   0.552   3.423  0.1669  0.2272 -0.2254
 7060SOL    HW228006   5.998   0.552   3.409  0.2122  0.7553  0.0523
 7060SOL    HW328007   5.892   0.531   3.515 -0.0269 -0.6364 -0.4356
 7060SOL    MW428008   5.914   0.549   3.433  0.1473  0.1830 -0.2165
 7061SOL     OW28009   4.252   0.285   3.374 -0.2359  0.6284  0.0393
 7061SOL    HW228010   4.294   0.369   3.357 -0.2457  0.5596 -0.3396
 7061SOL    HW328011   4.179   0.282   3.312 -0.2935  0.3822  0.1170
 7061SOL    MW428012   4.248   0.296   3.363 -0.2448  0.5868 -0.0005
 7062SOL     OW28013   0.065   0.299   4.587  0.4933  0.2840  0.4469
 7062SOL    HW228014   0.154   0.269   4.569  1.2367  2.9258 -0.7599
 7062SOL    HW328015   0.025   0.307   4.501  0.2224  2.2008  0.7048
 7062SOL    MW428016   0.071   0.296   4.574  0.5556  0.8854  0.3217
 7063SOL     OW28017   4.333   1.078   4.491 -0.1996  0.4034 -0.0821
 7063SOL    HW228018   4.294   1.012   4.548  0.7261  0.1863  0.3300
 7063SOL    HW328019   4.379   1.137   4.551  1.9825 -0.6277 -0.6533
 7063SOL    MW428020   4.334   1.077   4.507  0.2105  0.2387 -0.1031
 7064SOL     OW28021   2.540   1.581   0.494  0.7480 -0.0277  0.3750
 7064SOL    HW228022   2.596   1.627   0.556 -1.7054  1.1463  1.8571
 7064SOL    HW328023   2.583   1.496   0.481  1.3829 -0.3536  3.7523
 7064SOL    MW428024   2.553   1.576   0.500  0.5081  0.0842  1.0161
 7065SOL     OW28025   0.902   5.293   4.543 -0.1413  0.3320  0.1280
 7065SOL    HW228026   0.964   5.223   4.566  0.9479  1.1487 -0.1927
 7065SOL    HW328027   0.958   5.368   4.522 -1.3189  1.7980  1.9855
 7065SOL    MW428028   0.918   5.294   4.543 -0.1530  0.6332  0.3308
 7066SOL     OW28029   3.321   3.237   1.724  0.0615 -0.2852 -0.1995
 7066SOL    HW228030   3.306   3.212   1.815  2.5626  0.1279  0.3957
 7066SOL    HW328031   3.303   3.158   1.674 -1.4932 -0.4764  0.5834
 7066SOL    MW428032   3.316   3.224   1.730  0.1863 -0.2559 -0.0177
 7067SOL     OW28033   1.049   4.719   4.058 -0.1047 -0.0867 -0.0428
 7067SOL    HW228034   1.002   4.672   3.989  0.5614 -0.9383  0.0608
 7067SOL    HW328035   1.115   4.657   4.089  0.4499  0.7348  0.4813
 7067SOL    MW428036   1.052   4.705   4.053  0.0563 -0.0907  0.0400
 7068SOL     OW28037   1.046   5.426   2.303  0.7517 -0.0340 -0.2402
 7068SOL    HW228038   1.010   5.500   2.351 -0.3016 -1.6833  1.6663
 7068SOL    HW328039   1.140   5.445   2.295  0.4042  1.7699 -0.4060
 7068SOL    MW428040   1.054   5.438   2.308  0.5669 -0.0136 -0.0106
 7069SOL     OW28041   5.263   3.925   5.225  0.4358  0.5219 -0.4350
 7069SOL    HW228042   5.180   3.879   5.237  1.5589 -1.0368  2.0059
 7069SOL    HW328043   5.317   3.896   5.297  2.2713  3.5005 -0.4654
 7069SOL    MW428044   5.259   3.915   5.236  0.8262  0.7092 -0.1170
 7070SOL     OW28045   1.147   5.507   0.732  0.8047  0.0676 -0.1411
 7070SOL    HW228046   1.138   5.600   0.751  0.2236  0.2688 -1.3049
 7070SOL    HW328047   1.066   5.484   0.686 -0.0817 -1.5572  2.0670
 7070SOL    MW428048   1.135   5.516   0.729  0.6111 -0.1203 -0.0033
 7071SOL     OW28049   3.385   2.932   1.955 -0.1905 -0.1467  0.1187
 7071SOL    HW228050   3.439   2.920   1.877  0.9340  2.0713  0.4508
 7071SOL    HW328051   3.412   2.862   2.014 -0.3300 -1.2492 -1.0902
 7071SOL    MW428052   3.396   2.921   1.953 -0.0605  0.0005  0.0030
 7072SOL     OW28053   6.432   1.524   5.376 -0.1637 -0.1390 -0.1930
 7072SOL    HW228054   6.417   1.436   5.342  1.1307 -0.4445 -0.0484
 7072SOL    HW328055   6.517   1.518   5.421 -0.0405  1.1815 -0.1978
 7072SOL    MW428056   6.441   1.512   5.378  0.0234 -0.0051 -0.1746
 7073SOL     OW28057   1.397   5.805   0.488 -0.1471  0.7312 -0.4205
 7073SOL    HW228058   1.461   5.787   0.558  0.5188  1.7294 -0.7617
 7073SOL    HW328059   1.345   5.724   0.482 -1.5056  1.2379  2.5558
 7073SOL    MW428060   1.398   5.792   0.497 -0.2385  0.9297 -0.0728
 7074SOL     OW28061   3.174   4.854   5.038 -0.0958  0.0628 -0.6188
 7074SOL    HW228062   3.118   4.876   5.112  0.6267  1.2303 -0.3829
 7074SOL    HW328063   3.256   4.823   5.077 -0.5510 -1.6557 -0.9578
 7074SOL    MW428064   3.178   4.853   5.053 -0.0605 -0.0099 -0.6324
 7075SOL     OW28065   4.392   6.327   3.685  0.6134  0.1499  0.4531
 7075SOL    HW228066   4.478   6.364   3.663  1.1659 -1.0478  0.5483
 7075SOL    HW328067   4.343   6.332   3.604  1.3342 -0.6434 -0.0550
 7075SOL    MW428068   4.397   6.333   3.672  0.7814 -0.1128  0.3986
 7076SOL     OW28069   2.205   2.428   1.341  0.1226 -0.1811 -0.1103
 7076SOL    HW228070   2.169   2.339   1.337  1.2414 -0.7731  1.7520
 7076SOL    HW328071   2.134   2.484   1.310 -1.0206 -1.6153 -0.1897
 7076SOL    MW428072   2.191   2.424   1.336  0.1194 -0.4484  0.1249
 7077SOL     OW28073   1.683   3.985   0.668 -0.1322 -0.4284  0.1489
 7077SOL    HW228074   1.625   4.057   0.642 -0.0409 -1.0409 -1.9321
 7077SOL    HW328075   1.701   4.001   0.761 -0.7449  1.7721 -0.0539
 7077SOL    MW428076   1.678   3.996   0.677 -0.2010 -0.2189 -0.1524
 7078SOL     OW28077   6.313   6.252   0.255 -0.6106 -0.3759 -0.0220
 7078SOL    HW228078   6.341   6.311   0.185  0.5576  0.3730  1.0183
 7078SOL    HW328079   6.310   6.307   0.333 -2.5400 -1.0334  0.4363
 7078SOL    MW428080   6.316   6.267   0.256 -0.7110 -0.3638  0.1757
 7079SOL     OW28081   5.971   3.719   0.329  0.3820  0.6504  0.1024
 7079SOL    HW228082   5.907   3.719   0.400  0.1547 -1.1345 -0.0498
 7079SOL    HW328083   6.054   3.742   0.370  0.1179  0.3253  0.8300
 7079SOL    MW428084   5.973   3.722   0.344  0.3172  0.3720  0.1783
 7080SOL     OW28085   5.726   1.335   5.159 -0.0600  0.3605  0.4779
 7080SOL    HW228086   5.639   1.297   5.170 -0.0817  0.8268  2.0851
 7080SOL    HW328087   5.732   1.352   5.065 -2.0959  1.1921  0.4369
 7080SOL    MW428088   5.715   1.333   5.148 -0.3315  0.5318  0.6846
 7081SOL     OW28089   3.164   4.794   6.038 -0.2377  0.3691 -0.1471
 7081SOL    HW228090   3.152   4.837   6.122  0.6160  0.4171 -0.0357
 7081SOL    HW328091   3.259   4.788   6.027 -0.3319 -0.6029 -0.6130
 7081SOL    MW428092   3.175   4.799   6.047 -0.1375  0.2472 -0.1938
 7082SOL     OW28093   0.597   0.092   2.072 -0.6061 -0.3788  0.4482
 7082SOL    HW228094   0.644   0.123   1.995 -0.0405 -1.4250  0.3583
 7082SOL    HW328095   0.541   0.022   2.040 -0.8615 -0.3764  0.8746
 7082SOL    MW428096   0.596   0.087   2.058 -0.5652 -0.5165  0.4926
 7083SOL     OW28097   3.981   2.754   4.068  0.0145  0.1311 -0.0483
 7083SOL    HW228098   3.949   2.827   4.122 -1.2486 -0.4290 -0.0202
 7083SOL    HW328099   4.068   2.783   4.039 -0.6232  1.8347 -0.3863
 7083SOL    MW428100   3.989   2.768   4.072 -0.2363  0.2820 -0.0892
 7084SOL     OW28101   1.306   0.829   1.594 -0.0208 -0.1623  0.1233
 7084SOL    HW228102   1.238   0.874   1.644  0.3139 -1.5739  1.9528
 7084SOL    HW328103   1.265   0.810   1.509 -1.4061  0.2790  0.6663
 7084SOL    MW428104   1.292   0.832   1.589 -0.1594 -0.2903  0.4363
 7085SOL     OW28105   0.085   5.299   1.509 -0.0397 -0.8291 -0.3699
 7085SOL    HW228106   0.062   5.327   1.421 -0.8168  0.1124  0.1158
 7085SOL    HW328107   0.050   5.210   1.516 -0.4461 -0.7102 -0.8271
 7085SOL    MW428108   0.078   5.291   1.498 -0.1958 -0.6892 -0.3662
 7086SOL     OW28109   1.523   0.097   1.336 -0.0810  0.1527 -0.2681
 7086SOL    HW228110   1.481   0.058   1.413 -0.5661  0.3104 -0.4458
 7086SOL    HW328111   1.600   0.042   1.321  0.4452  0.5698  0.7798
 7086SOL    MW428112   1.527   0.084   1.345 -0.0755  0.2286 -0.1533
 7087SOL     OW28113   3.522   5.192   1.653  0.4396 -0.2166 -0.5917
 7087SOL    HW228114   3.448   5.226   1.605 -1.9202 -0.9118  2.2503
 7087SOL    HW328115   3.551   5.116   1.603  0.8982  1.4491 -3.0124
 7087SOL    MW428116   3.516   5.187   1.640  0.1888 -0.0885 -0.5361
 7088SOL     OW28117   1.301   5.708   1.705 -0.0528  0.1176 -0.5537
 7088SOL    HW228118   1.301   5.617   1.734 -0.3879  0.6471  1.2522
 7088SOL    HW328119   1.214   5.741   1.731  0.2906  1.1036 -0.6153
 7088SOL    MW428120   1.289   5.700   1.712 -0.0517  0.3176 -0.3235
 7089SOL     OW28121   1.496   2.189   2.538 -0.3189  0.0592  0.4198
 7089SOL    HW228122   1.555   2.129   2.492 -1.6160 -0.5064 -0.5655
 7089SOL    HW328123   1.531   2.194   2.627  1.3885  0.0117 -0.2143
 7089SOL    MW428124   1.509   2.182   2.544 -0.2648 -0.0217  0.2061
 7090SOL     OW28125   3.704   0.245   5.774 -1.3423 -0.4091  0.0240
 7090SOL    HW228126   3.759   0.275   5.701 -2.6399  0.9822 -0.4046
 7090SOL    HW328127   3.767   0.206   5.835 -0.2827 -2.4688 -2.1878
 7090SOL    MW428128   3.720   0.244   5.773 -1.3737 -0.4973 -0.3244
 7091SOL     OW28129   2.283   0.961   5.339  0.3608  0.3328 -0.2649
 7091SOL    HW228130   2.373   0.974   5.308  0.0209  0.6080 -1.1804
 7091SOL    HW328131   2.269   0.867   5.334  0.3292  0.3675 -0.9257
 7091SOL    MW428132   2.293   0.950   5.334  0.3118  0.3737 -0.4729
 7092SOL     OW28133   3.072   0.991   0.730 -0.4236  0.1085  0.4000
 7092SOL    HW228134   2.986   0.984   0.773  0.2254  0.1051  1.7722
 7092SOL    HW328135   3.068   0.929   0.658 -2.6906  2.3440 -1.6069
 7092SOL    MW428136   3.060   0.982   0.726 -0.6370  0.4030  0.3162
 7093SOL     OW28137   5.088   4.907   6.302 -0.6267  0.0381  0.6132
 7093SOL    HW228138   5.072   4.854   6.224 -0.9458 -0.4755  1.0218
 7093SOL    HW328139   5.004   4.909   6.348 -0.6169  0.9033  0.6067
 7093SOL    MW428140   5.075   4.900   6.297 -0.6675  0.0845  0.6662
 7094SOL     OW28141   1.755   4.427   4.755  0.1642  0.0091 -0.1436
 7094SOL    HW228142   1.802   4.503   4.789 -1.1932  1.3168 -1.0373
 7094SOL    HW328143   1.820   4.357   4.753  0.7891  0.3549  3.2508
 7094SOL    MW428144   1.770   4.428   4.759  0.0675  0.2272  0.1863
 7095SOL     OW28145   0.839   2.646   4.089  0.0356  0.6785 -0.0449
 7095SOL    HW228146   0.909   2.631   4.025  0.4397  0.4195  0.4474
 7095SOL    HW328147   0.764   2.672   4.036 -0.4146 -2.0225 -0.8726
 7095SOL    MW428148   0.839   2.648   4.073  0.0295  0.2880 -0.0892
 7096SOL     OW28149   6.034   3.356   0.588 -0.2171 -0.4084 -0.4506
 7096SOL    HW228150   5.955   3.316   0.624  0.5490 -1.2398  0.3949
 7096SOL    HW328151   6.082   3.283   0.549  0.0980  0.0961 -1.0107
 7096SOL    MW428152   6.030   3.341   0.588 -0.0744 -0.4515 -0.4130
 7097SOL     OW28153   1.383   3.651   2.734 -0.0047 -0.4250 -0.3137
 7097SOL    HW228154   1.477   3.663   2.719 -0.3884  0.6980 -2.0520
 7097SOL    HW328155   1.377   3.568   2.783  1.9955  0.5509  1.7534
 7097SOL    MW428156   1.395   3.641   2.739  0.2086 -0.1481 -0.2703
 7098SOL     OW28157   2.558   1.758   4.176 -0.5814 -0.5689  0.1077
 7098SOL    HW228158   2.478   1.808   4.190 -0.3467  0.1379 -1.0070
 7098SOL    HW328159   2.619   1.819   4.135  1.3479 -0.4240  2.9139
 7098SOL    MW428160   2.556   1.772   4.173 -0.2959 -0.4565  0.3308
 7099SOL     OW28161   3.291   3.911   6.101 -0.0880 -0.2912 -0.7656
 7099SOL    HW228162   3.279   3.847   6.031 -0.7526  0.0769 -0.9980
 7099SOL    HW328163   3.229   3.884   6.169 -0.9685  0.5681 -1.2065
 7099SOL    MW428164   3.281   3.899   6.101 -0.2919 -0.1292 -0.8544
 7100SOL     OW28165   5.878   3.533   3.498 -0.4824  0.0853 -0.1178
 7100SOL    HW228166   5.907   3.571   3.415  0.0495 -1.1537 -0.5201
 7100SOL    HW328167   5.792   3.572   3.514 -1.1364 -0.5682 -1.8766
 7100SOL    MW428168   5.871   3.544   3.489 -0.4985 -0.1644 -0.4029
 7101SOL     OW28169   3.673   5.296   4.093 -0.3737  0.5220 -0.1262
 7101SOL    HW228170   3.717   5.249   4.023 -0.2273 -0.2814  0.4914
 7101SOL    HW328171   3.580   5.294   4.069 -0.7830 -2.5728  1.2203
 7101SOL    MW428172   3.666   5.290   4.081 -0.4084  0.0077  0.1330
 7102SOL     OW28173   0.445   3.250   5.383  0.7077 -0.8026 -0.6513
 7102SOL    HW228174   0.369   3.213   5.338 -0.3832 -0.4657  0.8508
 7102SOL    HW328175   0.432   3.228   5.475  1.5704  0.6886 -0.1314
 7102SOL    MW428176   0.433   3.242   5.389  0.6776 -0.5614 -0.3845
 7103SOL     OW28177   1.784   0.051   3.849 -0.0849  0.4448  0.0119
 7103SOL    HW228178   1.818   0.021   3.765  1.6444 -2.1158  1.5095
 7103SOL    HW328179   1.857   0.099   3.888  0.2281 -0.9867  1.2661
 7103SOL    MW428180   1.798   0.054   3.843  0.1846 -0.0819  0.3750
 7104SOL     OW28181   6.403   1.944   3.705 -0.1908  0.0939  0.2391
 7104SOL    HW228182   6.482   1.952   3.652 -1.1565  0.3955 -1.1933
 7104SOL    HW328183   6.435   1.912   3.790  1.6046  1.3859  0.1058
 7104SOL    MW428184   6.418   1.941   3.709 -0.0814  0.3042  0.0326
 7105SOL     OW28185   5.864   3.809   1.497  0.3438 -0.5296  0.2443
 7105SOL    HW228186   5.914   3.890   1.502 -0.8426  0.2931 -0.7108
 7105SOL    HW328187   5.837   3.793   1.588 -2.0392  1.8998  0.0850
 7105SOL    MW428188   5.867   3.818   1.510 -0.1271 -0.1005  0.0973
 7106SOL     OW28189   1.498   5.710   2.485 -0.3170 -0.6991 -0.0494
 7106SOL    HW228190   1.410   5.672   2.488 -1.2067  1.1415 -1.1996
 7106SOL    HW328191   1.542   5.665   2.413 -0.6005 -1.0387 -0.0122
 7106SOL    MW428192   1.492   5.699   2.476 -0.4718 -0.5010 -0.1963
 7107SOL     OW28193   1.304   1.601   3.441 -0.3789 -0.7011  0.0528
 7107SOL    HW228194   1.239   1.532   3.435 -1.4959 -0.1499  3.3794
 7107SOL    HW328195   1.346   1.587   3.526  1.1691  1.2199 -0.3060
 7107SOL    MW428196   1.301   1.590   3.452 -0.3220 -0.3749  0.4443
 7108SOL     OW28197   3.915   1.522   2.718  0.0782  0.0681  0.0069
 7108SOL    HW228198   3.974   1.557   2.785  0.5819  1.2894 -1.0250
 7108SOL    HW328199   3.937   1.572   2.639 -1.3029 -0.5167 -0.7769
 7108SOL    MW428200   3.925   1.533   2.717 -0.0376  0.1520 -0.2327
 7109SOL     OW28201   5.101   6.061   6.007 -0.8477  0.1297 -0.6254
 7109SOL    HW228202   5.008   6.069   6.031 -1.0633 -0.2371 -1.3069
 7109SOL    HW328203   5.100   6.013   5.924 -0.0824  0.6851 -0.9655
 7109SOL    MW428204   5.089   6.056   5.999 -0.7752  0.1546 -0.7602
 7110SOL     OW28205   1.285   3.194   1.660  0.2577 -0.6170 -0.0954
 7110SOL    HW228206   1.239   3.277   1.667  1.3735 -0.1314  4.1936
 7110SOL    HW328207   1.215   3.128   1.665 -0.3877  0.1160  1.1459
 7110SOL    MW428208   1.269   3.196   1.662  0.3198 -0.4562  0.6342
 7111SOL     OW28209   1.955   4.802   3.409  0.5625  0.1561 -0.5709
 7111SOL    HW228210   2.038   4.850   3.413  0.2717  0.6795 -0.7573
 7111SOL    HW328211   1.891   4.867   3.381  0.0542 -0.2090 -0.2630
 7111SOL    MW428212   1.958   4.817   3.406  0.4571  0.1770 -0.5548
 7112SOL     OW28213   5.427   1.933   2.246 -0.0045  0.4149 -0.2078
 7112SOL    HW228214   5.479   1.915   2.168 -0.3800  1.0643 -0.6124
 7112SOL    HW328215   5.462   2.015   2.280  1.0094 -0.4844  1.0501
 7112SOL    MW428216   5.439   1.941   2.240  0.0797  0.3819 -0.0952
 7113SOL     OW28217   1.304   6.206   2.784  0.3140  0.0072 -0.2609
 7113SOL    HW228218   1.278   6.118   2.810 -0.9687  0.7519  1.1841
 7113SOL    HW328219   1.334   6.247   2.865  0.7116  0.9563 -0.8679
 7113SOL    MW428220   1.305   6.200   2.798  0.1973  0.2307 -0.1503
 7114SOL     OW28221   0.682   2.651   5.626 -0.0785  0.5941  0.0437
 7114SOL    HW228222   0.591   2.666   5.652  0.2502  1.5841  0.7072
 7114SOL    HW328223   0.731   2.655   5.708  0.3383 -2.2741  0.0405
 7114SOL    MW428224   0.677   2.654   5.640  0.0198  0.3463  0.1308
 7115SOL     OW28225   3.609   0.353   6.355 -0.1795 -0.4800  0.5345
 7115SOL    HW228226   3.576   0.441   6.341 -0.3311 -0.3982  1.3260
 7115SOL    HW328227   3.583   0.304   6.277  0.7161  0.3951 -0.3472
 7115SOL    MW428228   3.601   0.358   6.343 -0.0814 -0.3538  0.5226
 7116SOL     OW28229   4.280   5.664   0.067 -0.3358 -0.2326  0.3201
 7116SOL    HW228230   4.276   5.744   0.120  0.3532 -1.1088  1.7446
 7116SOL    HW328231   4.229   5.600   0.115 -0.7602 -0.7186 -0.7358
 7116SOL    MW428232   4.273   5.666   0.080 -0.3009 -0.4123  0.3687
 7117SOL     OW28233   1.989   5.995   1.804  0.0625  0.0177 -0.1272
 7117SOL    HW228234   1.958   5.947   1.881  1.2564  0.3358  0.5842
 7117SOL    HW328235   1.978   6.087   1.828 -0.5031  0.1221 -0.7575
 7117SOL    MW428236   1.983   6.001   1.817  0.1454  0.0735 -0.1165
 7118SOL     OW28237   5.981   6.220   0.427 -0.2162  0.5698 -0.9580
 7118SOL    HW228238   5.983   6.142   0.483  0.0882  1.6969  0.6809
 7118SOL    HW328239   6.056   6.271   0.455 -1.3159  2.2037 -0.8683
 7118SOL    MW428240   5.991   6.216   0.438 -0.3212  0.9341 -0.7300
 7119SOL     OW28241   5.958   3.514   5.131 -0.2737 -0.0192 -0.2876
 7119SOL    HW228242   6.010   3.495   5.209 -1.5824  0.6221  0.7924
 7119SOL    HW328243   5.878   3.464   5.143 -1.3363  1.6165 -0.2096
 7119SOL    MW428244   5.954   3.505   5.143 -0.5866  0.2812 -0.1348
 7120SOL     OW28245   5.451   1.016   4.090  0.3721  0.0628 -0.5697
 7120SOL    HW228246   5.422   1.071   4.162 -1.3988  0.1921 -1.3302
 7120SOL    HW328247   5.543   0.999   4.108  0.1309  0.6032  1.3724
 7120SOL    MW428248   5.459   1.021   4.102  0.1066  0.1511 -0.4138
 7121SOL     OW28249   4.277   3.817   3.796  0.0530  0.1260  0.3767
 7121SOL    HW228250   4.344   3.784   3.737 -0.1834  0.0505  0.1491
 7121SOL    HW328251   4.313   3.899   3.830 -0.6279  1.1856 -1.3766
 7121SOL    MW428252   4.291   3.824   3.793 -0.0680  0.2558  0.1154
 7122SOL     OW28253   3.553   3.415   4.427  0.5057 -0.2413 -0.2401
 7122SOL    HW228254   3.469   3.391   4.467  0.7858 -0.2589  0.3460
 7122SOL    HW328255   3.574   3.500   4.466  0.5495 -0.0249 -0.7214
 7122SOL    MW428256   3.545   3.423   4.438  0.5484 -0.2150 -0.2263
 7123SOL     OW28257   3.796   3.773   5.390  0.4081 -0.0060  0.4891
 7123SOL    HW228258   3.743   3.727   5.456 -0.3860  0.7646  0.4094
 7123SOL    HW328259   3.761   3.743   5.306 -1.5445  2.1925  0.3949
 7123SOL    MW428260   3.784   3.763   5.388  0.0457  0.3857  0.4662
 7124SOL     OW28261   3.049   4.446   0.596  0.4655 -0.0200 -0.3782
 7124SOL    HW228262   3.042   4.388   0.520  1.7498 -1.5245  0.5874
 7124SOL    HW328263   3.123   4.503   0.576  2.3411 -1.9578  0.6305
 7124SOL    MW428264   3.058   4.446   0.583  0.8824 -0.4742 -0.1177
 7125SOL     OW28265   5.334   3.734   1.958 -0.1492 -0.2569  0.0382
 7125SOL    HW228266   5.393   3.789   2.009  2.3534 -3.0046  0.4113
 7125SOL    HW328267   5.277   3.693   2.023  0.4816 -0.8597  0.2267
 7125SOL    MW428268   5.334   3.736   1.974  0.2642 -0.6990  0.1123
 7126SOL     OW28269   5.648   1.195   0.821  0.0342 -0.6386  0.4781
 7126SOL    HW228270   5.652   1.264   0.887  1.3476 -1.9388  1.8217
 7126SOL    HW328271   5.645   1.114   0.871 -1.1384 -1.6086 -1.0670
 7126SOL    MW428272   5.648   1.194   0.836  0.0528 -0.9381  0.4515
 7127SOL     OW28273   4.164   6.270   4.658 -0.1548  0.0966  0.0133
 7127SOL    HW228274   4.195   6.274   4.568  1.7117 -0.6261  0.5942
 7127SOL    HW328275   4.129   6.181   4.668  2.1998 -0.8375  0.7289
 7127SOL    MW428276   4.163   6.259   4.648  0.4022 -0.1220  0.1843
 7128SOL     OW28277   6.039   3.886   1.227 -0.0465  0.1453  0.5486
 7128SOL    HW228278   5.962   3.876   1.171  1.3522  0.6471 -1.5581
 7128SOL    HW328279   6.046   3.980   1.241  0.5800  0.1675  0.1164
 7128SOL    MW428280   6.030   3.897   1.221  0.2207  0.2144  0.2136
 7129SOL     OW28281   5.580   0.027   6.101 -0.5414 -0.3376  0.5958
 7129SOL    HW228282   5.567  -0.003   6.012  1.2759 -0.9804  0.5059
 7129SOL    HW328283   5.514  -0.019   6.152 -2.0425  0.5525 -0.4799
 7129SOL    MW428284   5.570   0.017   6.096 -0.4996 -0.3050  0.4420
 7130SOL     OW28285   1.727   0.636   1.460 -0.3227  0.3952 -0.0654
 7130SOL    HW228286   1.636   0.623   1.434 -1.3598  0.3984  3.1299
 7130SOL    HW328287   1.756   0.550   1.490  0.3261  0.6490  0.0431
 7130SOL    MW428288   1.719   0.623   1.461 -0.3740  0.4291  0.3705
 7131SOL     OW28289   2.447   5.545   1.970 -0.1361 -0.2348  0.4154
 7131SOL    HW228290   2.474   5.521   1.882 -0.1286  2.7680 -0.5321
 7131SOL    HW328291   2.364   5.499   1.984 -0.8703  0.3013 -1.7817
 7131SOL    MW428292   2.439   5.536   1.960 -0.2320  0.2321  0.0005
 7132SOL     OW28293   4.721   5.296   4.291  0.1301  0.1263  0.1801
 7132SOL    HW228294   4.722   5.364   4.223 -0.9863 -0.7567 -0.7513
 7132SOL    HW328295   4.775   5.332   4.361  0.9420  1.2594 -0.9828
 7132SOL    MW428296   4.728   5.310   4.291  0.0899  0.1593 -0.0962
 7133SOL     OW28297   3.516   6.000   2.110  0.5830  0.3640 -0.0454
 7133SOL    HW228298   3.573   6.007   2.034  1.9475 -1.1268  0.7904
 7133SOL    HW328299   3.435   6.044   2.083  1.0369 -0.0743 -2.3298
 7133SOL    MW428300   3.513   6.006   2.096  0.8229  0.1095 -0.2366
 7134SOL     OW28301   2.405   3.463   1.489  0.3064 -0.5083  0.2839
 7134SOL    HW228302   2.409   3.517   1.568  1.1696  0.6698 -0.5361
 7134SOL    HW328303   2.496   3.448   1.465  0.0992  1.0170 -1.7042
 7134SOL    MW428304   2.417   3.468   1.496  0.3930 -0.1516 -0.0866
 7135SOL     OW28305   4.105   5.388   5.640  0.4868  0.0712 -0.3720
 7135SOL    HW228306   4.124   5.426   5.554  2.8629 -1.8383 -0.7980
 7135SOL    HW328307   4.099   5.293   5.623  2.7496 -0.5582  1.7260
 7135SOL    MW428308   4.107   5.380   5.626  1.0989 -0.2638 -0.1514
 7136SOL     OW28309   0.376   5.212   1.500  0.1304 -0.4028 -0.2633
 7136SOL    HW228310   0.390   5.249   1.413 -0.2880  0.1558 -0.0938
 7136SOL    HW328311   0.285   5.232   1.521  0.6808  0.9939  1.0190
 7136SOL    MW428312   0.366   5.219   1.491  0.1478 -0.1448 -0.0717
 7137SOL     OW28313   2.627   0.150   4.117 -0.6694  0.4817  0.6239
 7137SOL    HW228314   2.711   0.108   4.137 -1.0383 -1.0075 -0.7081
 7137SOL    HW328315   2.648   0.243   4.110  0.9682  0.1061 -0.0561
 7137SOL    MW428316   2.641   0.157   4.119 -0.5020  0.2357  0.3585
 7138SOL     OW28317   3.498   3.333   5.391 -0.2683  0.1047 -0.2515
 7138SOL    HW228318   3.531   3.257   5.342  0.2178  0.1658 -0.0209
 7138SOL    HW328319   3.477   3.299   5.478 -0.1608  0.2104 -0.1844
 7138SOL    MW428320   3.500   3.318   5.396 -0.1900  0.1267 -0.2123
 7139SOL     OW28321   4.422   4.922   3.232 -0.1687  0.2432  0.6003
 7139SOL    HW228322   4.372   4.866   3.291 -0.4394 -0.4984 -0.2982
 7139SOL    HW328323   4.368   5.001   3.222 -0.0150  0.4725  1.4934
 7139SOL    MW428324   4.408   4.925   3.238 -0.1841  0.1756  0.5996
 7140SOL     OW28325   6.407   2.106   5.276  0.2307 -0.2078  0.1459
 7140SOL    HW228326   6.329   2.132   5.228 -0.0264  0.0981  0.7225
 7140SOL    HW328327   6.381   2.029   5.326 -0.1189  0.6893  1.4043
 7140SOL    MW428328   6.393   2.099   5.276  0.1507 -0.0491  0.3880
 7141SOL     OW28329   4.056   5.825   5.965  0.1070 -0.2960 -0.0358
 7141SOL    HW228330   4.015   5.799   5.882  0.4018 -1.2792  0.1160
 7141SOL    HW328331   4.146   5.794   5.958  1.0764  2.4003 -0.6276
 7141SOL    MW428332   4.063   5.818   5.953  0.2738 -0.0700 -0.0939
 7142SOL     OW28333   4.375   2.437   3.004  0.0431 -0.2750  0.0461
 7142SOL    HW228334   4.364   2.371   2.936  0.7171  0.8152 -1.1627
 7142SOL    HW328335   4.418   2.510   2.960  0.1595  0.6141  1.5643
 7142SOL    MW428336   4.379   2.438   2.989  0.1474 -0.0138  0.0869
 7143SOL     OW28337   3.158   1.160   1.158  0.2295  1.1889  0.4022
 7143SOL    HW228338   3.168   1.144   1.251 -0.2604 -0.2749  0.2392
 7143SOL    HW328339   3.243   1.194   1.129  1.0964 -0.3777  1.0012
 7143SOL    MW428340   3.170   1.162   1.166  0.2792  0.7890  0.4597
 7144SOL     OW28341   1.105   2.989   1.684  0.0613  0.0830  0.2490
 7144SOL    HW228342   1.103   2.894   1.677  1.6621 -0.2432  2.8524
 7144SOL    HW328343   1.036   3.010   1.747  0.6158  0.4818  0.7366
 7144SOL    MW428344   1.096   2.979   1.692  0.3456  0.0925  0.6568
 7145SOL     OW28345   4.520   5.153   3.895 -0.9104 -0.3778  0.0843
 7145SOL    HW228346   4.460   5.189   3.961 -0.7170 -1.0454  0.6373
 7145SOL    HW328347   4.586   5.220   3.883  0.0169 -0.8993  1.8456
 7145SOL    MW428348   4.521   5.166   3.902 -0.7625 -0.5347  0.3897
 7146SOL     OW28349   6.367   1.070   2.163  0.3017  0.3088  0.0441
 7146SOL    HW228350   6.421   1.025   2.098  0.2381  0.5667 -0.1901
 7146SOL    HW328351   6.278   1.061   2.130  0.0403 -1.2142  1.0721
 7146SOL    MW428352   6.362   1.063   2.150  0.2588  0.1419  0.1488
 7147SOL     OW28353   1.859   6.205   0.842  0.6129  0.4428 -0.0243
 7147SOL    HW228354   1.950   6.178   0.858  0.8352  1.1129 -0.1113
 7147SOL    HW328355   1.809   6.124   0.848  1.0160  0.2586  1.4912
 7147SOL    MW428356   1.865   6.191   0.845  0.6954  0.5069  0.1642
 7148SOL     OW28357   5.413   3.310   5.545  0.4464 -0.2438  0.6349
 7148SOL    HW228358   5.419   3.282   5.636  1.2780  1.0171  0.9969
 7148SOL    HW328359   5.504   3.322   5.517  0.1740  0.4402 -0.0102
 7148SOL    MW428360   5.426   3.308   5.553  0.5202  0.0128  0.5975
 7149SOL     OW28361   0.866   3.761   5.793 -0.1305 -0.1313  0.1651
 7149SOL    HW228362   0.905   3.674   5.800  1.0203  0.2267 -1.2093
 7149SOL    HW328363   0.775   3.746   5.768 -0.1348 -0.9415  0.6450
 7149SOL    MW428364   0.859   3.748   5.790  0.0208 -0.1910  0.0471
 7150SOL     OW28365   6.211   3.611   0.183  0.2247 -0.8628 -0.3401
 7150SOL    HW228366   6.267   3.608   0.261  0.0129 -0.6242 -0.1797
 7150SOL    HW328367   6.215   3.703   0.155 -0.0889 -0.8471 -0.3289
 7150SOL    MW428368   6.219   3.623   0.190  0.1554 -0.8292 -0.3175
 7151SOL     OW28369   6.226   6.329   2.949 -0.1523 -0.1561  0.1999
 7151SOL    HW228370   6.274   6.412   2.954 -0.9621  0.3242  0.1147
 7151SOL    HW328371   6.135   6.353   2.965 -0.5728 -0.8508 -1.0731
 7151SOL    MW428372   6.220   6.343   2.952 -0.3146 -0.1843  0.0207
 7152SOL     OW28373   0.918   2.316   3.322  0.0098 -0.1933 -0.4684
 7152SOL    HW228374   0.952   2.366   3.396 -0.7595 -0.8548  0.3367
 7152SOL    HW328375   0.985   2.250   3.304 -0.7165 -1.3722  0.9943
 7152SOL    MW428376   0.931   2.314   3.329 -0.1875 -0.4361 -0.1692
 7153SOL     OW28377   1.596   2.446   2.463 -0.0363  0.3508  0.4225
 7153SOL    HW228378   1.533   2.376   2.483  0.0228  0.0645 -0.3513
 7153SOL    HW328379   1.552   2.498   2.395 -0.8088  2.0953  2.1385
 7153SOL    MW428380   1.582   2.444   2.456 -0.1304  0.5432  0.5468
 7154SOL     OW28381   3.118   3.453   1.934  0.2060 -0.3759  0.4651
 7154SOL    HW228382   3.209   3.477   1.913  0.2545  0.9868  1.9741
 7154SOL    HW328383   3.112   3.360   1.912  2.1243 -0.6249  0.7710
 7154SOL    MW428384   3.129   3.444   1.929  0.4655 -0.2290  0.7045
 7155SOL     OW28385   0.815   2.203   6.198  0.5746 -0.1646  0.1557
 7155SOL    HW228386   0.817   2.144   6.122  1.0876  0.7557 -0.5638
 7155SOL    HW328387   0.760   2.158   6.262 -0.3358 -0.7038 -0.9801
 7155SOL    MW428388   0.808   2.189   6.196  0.5222 -0.1143 -0.0891
 7156SOL     OW28389   5.586   5.825   5.807 -0.4543 -0.0517  0.1987
 7156SOL    HW228390   5.590   5.748   5.749 -2.7818 -0.5526  0.5753
 7156SOL    HW328391   5.672   5.828   5.849 -0.6714 -3.3168  1.1823
 7156SOL    MW428392   5.598   5.815   5.805 -0.7900 -0.5486  0.3782
 7157SOL     OW28393   2.131   5.372   5.553 -0.0817 -0.5724 -0.2679
 7157SOL    HW228394   2.089   5.312   5.614  1.6206 -0.0149  1.5640
 7157SOL    HW328395   2.217   5.333   5.535  0.1459  0.1812 -0.8868
 7157SOL    MW428396   2.137   5.359   5.558  0.1729 -0.3994 -0.1079
 7158SOL     OW28397   1.250   0.517   0.177  0.9168  0.2409 -0.0867
 7158SOL    HW228398   1.256   0.545   0.085 -3.1533  1.4182 -0.1958
 7158SOL    HW328399   1.209   0.431   0.173 -2.0541  1.5158  0.5434
 7158SOL    MW428400   1.245   0.510   0.164 -0.0122  0.5645 -0.0179
 7159SOL     OW28401   6.018   5.187   0.114 -0.1879 -0.3092 -0.1944
 7159SOL    HW228402   6.010   5.098   0.148 -0.0882 -0.0063  0.6494
 7159SOL    HW328403   5.987   5.181   0.023 -3.1424 -0.6139  0.7344
 7159SOL    MW428404   6.013   5.175   0.106 -0.5646 -0.3094  0.0395
 7160SOL     OW28405   3.929   6.267   3.602  0.7779  0.3844  0.5634
 7160SOL    HW228406   3.871   6.193   3.583 -0.0028  1.1170  0.0528
 7160SOL    HW328407   3.990   6.233   3.668  0.9761 -0.9717 -0.2810
 7160SOL    MW428408   3.930   6.253   3.608  0.7010  0.3022  0.3846
 7161SOL     OW28409   2.687   5.869   1.162 -0.3718  0.5708 -0.0176
 7161SOL    HW228410   2.673   5.959   1.135 -1.5266  0.1527 -0.8757
 7161SOL    HW328411   2.602   5.839   1.194  0.0015 -0.2074  0.2824
 7161SOL    MW428412   2.674   5.877   1.162 -0.4749  0.4130 -0.0912
 7162SOL     OW28413   4.185   1.749   1.453  0.3353  0.5539 -0.2271
 7162SOL    HW228414   4.210   1.736   1.544 -0.7136 -1.5275 -0.1783
 7162SOL    HW328415   4.246   1.695   1.403 -1.1418 -1.0278 -0.4360
 7162SOL    MW428416   4.196   1.740   1.459  0.0021  0.0706 -0.2482
 7163SOL     OW28417   0.113   2.894   5.723 -0.1661  0.5058  0.4174
 7163SOL    HW228418   0.119   2.945   5.642 -1.0359  0.5765  0.3819
 7163SOL    HW328419   0.159   2.813   5.704  0.1631  0.7741  0.0543
 7163SOL    MW428420   0.120   2.890   5.710 -0.2374  0.5505  0.3648
 7164SOL     OW28421   4.841   3.962   2.191  0.5122  0.3663  0.1225
 7164SOL    HW228422   4.778   3.958   2.120  1.7256 -0.4651 -0.9651
 7164SOL    HW328423   4.812   3.896   2.254 -0.0189  0.4089 -0.0793
 7164SOL    MW428424   4.829   3.953   2.190  0.6022  0.2622 -0.0476
 7165SOL     OW28425   5.735   5.415   1.301 -0.1255 -0.3603  0.0309
 7165SOL    HW228426   5.765   5.381   1.217 -1.0464  2.2238 -1.4252
 7165SOL    HW328427   5.677   5.488   1.279 -0.7052  0.1785  2.9125
 7165SOL    MW428428   5.731   5.420   1.287 -0.3235  0.0517  0.2190
 7166SOL     OW28429   2.093   6.326   4.696 -0.3857  0.2278  0.7819
 7166SOL    HW228430   2.152   6.367   4.633 -3.3154  1.0705 -1.6834
 7166SOL    HW328431   2.097   6.383   4.773  0.9946  0.9708  0.2033
 7166SOL    MW428432   2.101   6.339   4.698 -0.5901  0.4370  0.3803
 7167SOL     OW28433   3.058   0.764   3.335  0.3314 -0.5085 -0.3920
 7167SOL    HW228434   2.998   0.738   3.405  0.4742 -1.4358 -0.6015
 7167SOL    HW328435   3.098   0.682   3.306  2.9388  0.2116  0.8572
 7167SOL    MW428436   3.055   0.750   3.341  0.6942 -0.5359 -0.2548
 7168SOL     OW28437   1.864   3.056   1.427 -0.0080 -0.3000 -0.1088
 7168SOL    HW228438   1.843   3.146   1.402 -0.9494 -0.0188  1.4802
 7168SOL    HW328439   1.958   3.048   1.413 -0.1310  0.4893 -1.5436
 7168SOL    MW428440   1.873   3.067   1.422 -0.1484 -0.1587 -0.0885
 7169SOL     OW28441   6.274   3.307   1.596  0.2328 -0.1504  0.1446
 7169SOL    HW228442   6.367   3.324   1.609  0.1344 -0.3012  1.1230
 7169SOL    HW328443   6.271   3.222   1.551  0.5439 -0.6542  1.0595
 7169SOL    MW428444   6.286   3.298   1.592  0.2609 -0.2368  0.3944
 7170SOL     OW28445   2.144   3.242   4.819 -0.0617 -0.4691  0.5206
 7170SOL    HW228446   2.050   3.245   4.803 -0.0383  0.5802  0.4766
 7170SOL    HW328447   2.161   3.152   4.846 -0.8763 -0.9982 -0.6548
 7170SOL    MW428448   2.134   3.231   4.821 -0.1661 -0.4005  0.3597
 7171SOL     OW28449   6.200   3.753   4.111 -0.2693 -0.3402 -0.3020
 7171SOL    HW228450   6.254   3.760   4.033  1.2877  0.6555  0.8138
 7171SOL    HW328451   6.154   3.837   4.116  1.8085  0.7990  1.3173
 7171SOL    MW428452   6.201   3.765   4.102  0.2103 -0.0585  0.0589
 7172SOL     OW28453   6.334   5.614   1.064 -0.0986 -0.6636  0.4063
 7172SOL    HW228454   6.307   5.684   1.123  1.5774 -1.3084  2.0535
 7172SOL    HW328455   6.281   5.539   1.091 -1.0233 -0.3930 -0.5539
 7172SOL    MW428456   6.323   5.613   1.075  0.0005 -0.7130  0.4970
 7173SOL     OW28457   3.179   4.453   4.398 -0.2419  0.0924  0.7167
 7173SOL    HW228458   3.163   4.391   4.470  1.1963 -3.3601 -1.6707
 7173SOL    HW328459   3.269   4.482   4.411 -0.5852  0.9707  1.2617
 7173SOL    MW428460   3.189   4.449   4.410 -0.0974 -0.2472  0.4736
 7174SOL     OW28461   2.291   1.120   3.164 -0.1975 -0.4535 -0.3437
 7174SOL    HW228462   2.376   1.079   3.152  0.8854  1.3715  0.7053
 7174SOL    HW328463   2.231   1.067   3.111  1.1781 -3.0306  0.5027
 7174SOL    MW428464   2.294   1.107   3.155  0.1269 -0.5527 -0.0936
 7175SOL     OW28465   5.057   3.287   3.229 -0.1415  0.2826  0.5981
 7175SOL    HW228466   5.119   3.229   3.273  0.2569  0.3915  0.1827
 7175SOL    HW328467   5.099   3.373   3.232 -0.2781  0.3577  0.3151
 7175SOL    MW428468   5.070   3.291   3.235 -0.1069  0.3069  0.5059
 7176SOL     OW28469   4.340   2.042   5.430 -0.5014  0.2681 -0.1487
 7176SOL    HW228470   4.351   1.990   5.351 -0.9584 -2.0893  1.2287
 7176SOL    HW328471   4.261   2.095   5.414 -1.3017 -1.0824 -0.8199
 7176SOL    MW428472   4.331   2.042   5.418 -0.6673 -0.2211 -0.0555
 7177SOL     OW28473   4.660   3.551   2.448 -0.2807  0.3872  0.2659
 7177SOL    HW228474   4.654   3.473   2.503  0.2512 -0.2856 -0.5939
 7177SOL    HW328475   4.655   3.518   2.358 -0.9587  1.4397 -0.1087
 7177SOL    MW428476   4.659   3.536   2.443 -0.3000  0.4373  0.1030
 7178SOL     OW28477   1.200   3.645   5.344  0.5918  0.5779 -0.1724
 7178SOL    HW228478   1.276   3.586   5.339 -1.0269 -1.8649  1.7668
 7178SOL    HW328479   1.191   3.664   5.437 -0.3719  2.0066 -0.5226
 7178SOL    MW428480   1.209   3.640   5.355  0.2511  0.4441  0.0373
 7179SOL     OW28481   6.213   0.134   0.116 -0.1276 -0.1472  0.4610
 7179SOL    HW228482   6.200   0.224   0.084 -0.3863 -0.8877 -1.7406
 7179SOL    HW328483   6.141   0.084   0.075  0.5242 -1.5083  0.9246
 7179SOL    MW428484   6.202   0.139   0.106 -0.0757 -0.4245  0.2317
 7180SOL     OW28485   5.708   0.146   1.831 -0.1544  0.8748  0.2086
 7180SOL    HW228486   5.688   0.077   1.768 -0.6989  0.7306  0.5403
 7180SOL    HW328487   5.665   0.224   1.796  1.1429  1.2656 -0.6038
 7180SOL    MW428488   5.700   0.147   1.818 -0.0551  0.9073  0.1452
 7181SOL     OW28489   0.340   0.075   3.712 -0.2261  0.0418 -0.0237
 7181SOL    HW228490   0.347   0.157   3.663  1.0867  0.0224  0.0956
 7181SOL    HW328491   0.346   0.007   3.645 -0.2950  0.0331 -0.0209
 7181SOL    MW428492   0.341   0.077   3.697 -0.0620  0.0381 -0.0076
 7182SOL     OW28493   6.139   5.426   1.091 -0.2585  0.6043  0.4343
 7182SOL    HW228494   6.076   5.459   1.155 -1.3193 -2.4021  1.1005
 7182SOL    HW328495   6.085   5.376   1.029  1.3156 -1.0395  0.3211
 7182SOL    MW428496   6.123   5.424   1.091 -0.1908 -0.0092  0.5073
 7183SOL     OW28497   2.006   3.641   3.596  0.1378 -0.2103  0.4481
 7183SOL    HW228498   1.945   3.618   3.666  0.2087 -2.9196 -0.2558
 7183SOL    HW328499   1.980   3.587   3.522  2.2613 -0.1171 -0.4616
 7183SOL    MW428500   1.995   3.631   3.596  0.4273 -0.5554  0.2352
 7184SOL     OW28501   4.205   6.148   2.818 -0.1478  0.0283  0.4016
 7184SOL    HW228502   4.147   6.208   2.866 -0.0374  1.4649 -1.1561
 7184SOL    HW328503   4.154   6.067   2.810 -2.2492  1.3647 -1.2845
 7184SOL    MW428504   4.190   6.146   2.823 -0.4105  0.3941 -0.0264
 7185SOL     OW28505   2.683   5.569   2.811  0.4080  0.0190  0.4508
 7185SOL    HW228506   2.737   5.494   2.836  2.4013  1.0369 -0.5744
 7185SOL    HW328507   2.718   5.597   2.727 -1.2550  1.2147  0.1121
 7185SOL    MW428508   2.695   5.563   2.804  0.4516  0.3111  0.2708
 7186SOL     OW28509   2.112   0.477   1.867 -0.1438 -0.6250 -0.8305
 7186SOL    HW228510   2.086   0.386   1.880  0.5905 -0.5153  2.0423
 7186SOL    HW328511   2.206   0.473   1.849  0.4076 -0.3864  1.6924
 7186SOL    MW428512   2.121   0.464   1.866  0.0258 -0.5790 -0.1186
 7187SOL     OW28513   0.723   5.225   1.339  0.1989 -0.9445  0.5843
 7187SOL    HW228514   0.634   5.260   1.326  0.6233  0.0691  0.3237
 7187SOL    HW328515   0.780   5.302   1.335  1.4491 -1.8691 -2.4674
 7187SOL    MW428516   0.718   5.240   1.337  0.4199 -0.9327  0.1473
 7188SOL     OW28517   3.709   2.039   5.685 -0.0903  0.2374 -0.8720
 7188SOL    HW228518   3.700   1.975   5.755 -0.3539  1.4710  0.2670
 7188SOL    HW328519   3.662   2.001   5.611 -3.0204  0.4604  0.7283
 7188SOL    MW428520   3.702   2.026   5.685 -0.5116  0.4295 -0.5106
 7189SOL     OW28521   5.793   6.180   5.282  0.3366  0.2548 -0.4674
 7189SOL    HW228522   5.824   6.092   5.259 -0.0412  0.0987 -0.3891
 7189SOL    HW328523   5.731   6.165   5.354  0.2675  0.5864 -0.4583
 7189SOL    MW428524   5.789   6.167   5.289  0.2776  0.2780 -0.4559
 7190SOL     OW28525   5.992   1.527   5.977 -0.4720  0.5132  0.1607
 7190SOL    HW228526   6.026   1.543   6.065  0.1688 -0.1728  0.0439
 7190SOL    HW328527   6.004   1.611   5.931  1.1329  0.2797  0.1064
 7190SOL    MW428528   5.998   1.540   5.982 -0.1757  0.3919  0.1381
 7191SOL     OW28529   0.176   5.274   0.584 -0.0936  0.2510 -0.1740
 7191SOL    HW228530   0.113   5.298   0.652  0.6635 -0.1153  0.6773
 7191SOL    HW328531   0.164   5.340   0.516  1.1733  2.4418  1.6008
 7191SOL    MW428532   0.166   5.286   0.584  0.1734  0.4917  0.1725
 7192SOL     OW28533   2.375   1.320   1.118 -0.0647 -0.2780 -0.1754
 7192SOL    HW228534   2.388   1.316   1.023 -0.3372 -1.1491 -0.1857
 7192SOL    HW328535   2.283   1.345   1.128  0.3277  1.1880 -0.1274
 7192SOL    MW428536   2.364   1.323   1.106 -0.0489 -0.1995 -0.1704
 7193SOL     OW28537   5.919   5.846   1.381  0.5228 -0.4147  0.0410
 7193SOL    HW228538   5.986   5.799   1.330  0.6051  0.3229 -0.5559
 7193SOL    HW328539   5.940   5.939   1.368 -0.5703 -0.1725 -0.0889
 7193SOL    MW428540   5.931   5.852   1.372  0.3894 -0.2854 -0.0549
 7194SOL     OW28541   1.838   2.199   5.549  0.8874  0.3700  0.6658
 7194SOL    HW228542   1.744   2.189   5.564  0.9865 -1.0633  0.4442
 7194SOL    HW328543   1.857   2.288   5.579 -0.2188  0.0735  2.4341
 7194SOL    MW428544   1.828   2.209   5.555  0.7545  0.1418  0.8698
 7195SOL     OW28545   0.754   3.964   3.269  0.5508 -0.1656  0.5663
 7195SOL    HW228546   0.705   3.977   3.350 -0.6319  0.2655 -0.1878
 7195SOL    HW328547   0.713   4.024   3.206  1.1708 -0.7857 -0.4646
 7195SOL    MW428548   0.742   3.974   3.271  0.4765 -0.1906  0.3308
 7196SOL     OW28549   4.279   4.454   4.437 -0.1355  0.0073 -0.2301
 7196SOL    HW228550   4.221   4.409   4.499  0.0229 -1.9992 -1.4535
 7196SOL    HW328551   4.225   4.466   4.358  0.5631 -0.2334 -0.7517
 7196SOL    MW428552   4.264   4.449   4.435 -0.0225 -0.2892 -0.4604
 7197SOL     OW28553   2.534   4.431   4.846  0.4381  0.2407  0.4311
 7197SOL    HW228554   2.450   4.391   4.868  0.6649 -0.0327  0.8259
 7197SOL    HW328555   2.587   4.357   4.814 -0.0827  0.7187 -1.7114
 7197SOL    MW428556   2.530   4.416   4.845  0.3993  0.2677  0.2005
 7198SOL     OW28557   2.363   6.040   3.998  0.0111 -0.1247  0.1212
 7198SOL    HW228558   2.386   5.976   4.065  0.6926  0.0667  0.0759
 7198SOL    HW328559   2.353   5.989   3.918 -1.3892 -0.4421  0.4603
 7198SOL    MW428560   2.365   6.025   3.997 -0.0838 -0.1413  0.1600
 7199SOL     OW28561   0.361   3.586   0.697 -1.0387 -0.5477 -0.5601
 7199SOL    HW228562   0.415   3.639   0.638 -0.0486  0.2883  1.0524
 7199SOL    HW328563   0.361   3.499   0.656  0.1795 -0.1600 -1.4570
 7199SOL    MW428564   0.368   3.581   0.684 -0.7474 -0.3863 -0.4657
 7200SOL     OW28565   5.318   2.559   3.857 -0.4277  0.4019  0.0739
 7200SOL    HW228566   5.392   2.516   3.815  0.3349  0.8217  0.9544
 7200SOL    HW328567   5.307   2.512   3.940 -1.0718  0.4215  0.0065
 7200SOL    MW428568   5.326   2.547   3.863 -0.4121  0.4599  0.1812
 7201SOL     OW28569   3.481   1.342   2.565 -0.1630 -0.1577 -0.4001
 7201SOL    HW228570   3.386   1.355   2.560 -0.3173 -0.4008  1.3076
 7201SOL    HW328571   3.513   1.363   2.477 -1.6141  1.3452 -0.6145
 7201SOL    MW428572   3.473   1.346   2.553 -0.3748  0.0085 -0.2031
 7202SOL     OW28573   2.061   1.581   4.690 -0.5284  0.4839  0.3188
 7202SOL    HW228574   2.056   1.554   4.781 -0.2161  1.3448  0.6049
 7202SOL    HW328575   2.126   1.652   4.690  1.1653 -0.9608 -0.9134
 7202SOL    MW428576   2.069   1.587   4.702 -0.2637  0.4069  0.1939
 7203SOL     OW28577   2.431   2.696   5.785  0.1437 -0.3603 -0.4807
 7203SOL    HW228578   2.408   2.609   5.751  1.0939 -1.0207  0.4885
 7203SOL    HW328579   2.361   2.753   5.753 -0.7110 -1.5492 -0.8278
 7203SOL    MW428580   2.419   2.692   5.776  0.1563 -0.6043 -0.3987
 7204SOL     OW28581   2.220   0.771   4.470  0.1195  0.4336 -0.2551
 7204SOL    HW228582   2.131   0.736   4.466  0.3643 -0.2626  0.1221
 7204SOL    HW328583   2.215   0.842   4.535  0.1196 -0.5181  0.8217
 7204SOL    MW428584   2.207   0.776   4.478  0.1518  0.2162 -0.0632
 7205SOL     OW28585   2.462   4.239   2.411  0.2589  0.3597  0.1830
 7205SOL    HW228586   2.434   4.157   2.371 -0.7398  1.2327 -0.9740
 7205SOL    HW328587   2.381   4.287   2.427  0.7642  0.7523  1.7344
 7205SOL    MW428588   2.448   4.235   2.408  0.1938  0.5267  0.2351
 7206SOL     OW28589   0.729   2.828   2.758  0.2762  0.7318  0.8865
 7206SOL    HW228590   0.740   2.757   2.822  1.9782 -0.3361 -0.4710
 7206SOL    HW328591   0.680   2.788   2.686  1.6814  0.7224 -0.1151
 7206SOL    MW428592   0.724   2.813   2.757  0.6862  0.5896  0.5753
 7207SOL     OW28593   5.632   5.257   0.613 -0.0445  0.1381 -0.2000
 7207SOL    HW228594   5.727   5.269   0.612 -0.1871  1.3228 -0.8688
 7207SOL    HW328595   5.619   5.181   0.671  1.1944  0.8527  1.0939
 7207SOL    MW428596   5.643   5.248   0.621  0.1002  0.3887 -0.1175
 7208SOL     OW28597   3.982   0.516   3.651  0.1540 -0.1895 -0.2681
 7208SOL    HW228598   3.897   0.487   3.617  0.2350 -1.5845  0.6172
 7208SOL    HW328599   3.965   0.537   3.743  1.1678 -2.8227  0.6222
 7208SOL    MW428600   3.968   0.515   3.659  0.2984 -0.7209 -0.0338
 7209SOL     OW28601   0.710   3.717   2.887  0.0530  0.2766 -0.1397
 7209SOL    HW228602   0.692   3.807   2.860 -0.3831 -0.6373 -3.4299
 7209SOL    HW328603   0.805   3.709   2.882  0.2671  0.9964  2.0241
 7209SOL    MW428604   0.720   3.728   2.883  0.0237  0.2510 -0.2883
 7210SOL     OW28605   3.465   0.231   2.896 -0.4870  0.8586 -0.1985
 7210SOL    HW228606   3.493   0.313   2.936 -1.4124  0.9968  0.2026
 7210SOL    HW328607   3.371   0.243   2.881 -0.6681 -0.1795  0.0133
 7210SOL    MW428608   3.456   0.243   2.899 -0.6330  0.7399 -0.1177
 7211SOL     OW28609   2.990   1.312   1.596  0.5000  0.3178 -0.0177
 7211SOL    HW228610   2.994   1.252   1.671  1.3570  1.7466  1.1322
 7211SOL    HW328611   2.920   1.277   1.541 -1.0062 -0.1343  2.0556
 7211SOL    MW428612   2.981   1.300   1.599  0.4144  0.4467  0.4076
 7212SOL     OW28613   4.389   1.384   6.258 -0.4111 -1.0913  0.1544
 7212SOL    HW228614   4.412   1.337   6.178  0.6403 -1.8583  0.8749
 7212SOL    HW328615   4.304   1.348   6.284 -2.1508  1.1230 -2.0544
 7212SOL    MW428616   4.381   1.373   6.251 -0.5019 -0.9004 -0.0420
 7213SOL     OW28617   1.770   3.271   5.312 -0.0481 -0.3233 -0.2549
 7213SOL    HW228618   1.692   3.227   5.346 -0.0559 -0.1039  0.0144
 7213SOL    HW328619   1.762   3.362   5.341  1.0343 -0.6085  1.1163
 7213SOL    MW428620   1.759   3.277   5.321  0.0937 -0.3320 -0.0384
 7214SOL     OW28621   5.007   5.886   3.091  0.1391 -0.0979 -0.1218
 7214SOL    HW228622   4.981   5.806   3.044 -0.1975 -0.0720  0.0125
 7214SOL    HW328623   5.090   5.911   3.051  0.8638 -1.1901  0.6613
 7214SOL    MW428624   5.014   5.879   3.079  0.1903 -0.2386 -0.0008
 7215SOL     OW28625   5.439   5.083   1.271  0.3512  0.0686  0.2848
 7215SOL    HW228626   5.488   5.061   1.191  0.6311  1.8801 -0.0808
 7215SOL    HW328627   5.391   5.163   1.249  0.8803  0.9414  2.0984
 7215SOL    MW428628   5.439   5.090   1.258  0.4580  0.4227  0.4759
 7216SOL     OW28629   5.095   3.248   1.980 -0.6910 -0.1215  0.0287
 7216SOL    HW228630   5.001   3.270   1.979 -0.2324  2.2025  1.5689
 7216SOL    HW328631   5.121   3.256   2.071  0.8069 -1.9560 -0.1727
 7216SOL    MW428632   5.086   3.252   1.992 -0.4328 -0.0569  0.2053
 7217SOL     OW28633   5.341   3.240   1.804  0.0416  0.3292  0.2256
 7217SOL    HW228634   5.249   3.257   1.784  0.5377  1.5196 -1.2528
 7217SOL    HW328635   5.347   3.245   1.900 -1.0814  2.2796  0.2437
 7217SOL    MW428636   5.330   3.243   1.814 -0.0411  0.7436  0.0329
 7218SOL     OW28637   6.070   0.710   4.103 -0.3260  0.0429  0.2550
 7218SOL    HW228638   6.139   0.664   4.152  0.9583  1.1334 -0.4666
 7218SOL    HW328639   6.059   0.659   4.023  1.2535  1.0513 -0.6479
 7218SOL    MW428640   6.077   0.697   4.099  0.0519  0.3198  0.0407
 7219SOL     OW28641   4.444   6.421   0.742  0.2065  0.1064 -0.1797
 7219SOL    HW228642   4.438   6.516   0.734 -0.4860  0.1727  0.8972
 7219SOL    HW328643   4.500   6.394   0.669 -2.2430  0.9934 -2.5824
 7219SOL    MW428644   4.451   6.430   0.731 -0.2080  0.2322 -0.3546
 7220SOL     OW28645   0.045   4.194   4.763  0.4045  0.1491  0.1171
 7220SOL    HW228646   0.012   4.278   4.729  0.5712 -0.2977 -1.2154
 7220SOL    HW328647   0.129   4.182   4.719 -0.3041 -1.4344 -0.9031
 7220SOL    MW428648   0.052   4.204   4.753  0.3330 -0.1188 -0.1933
 7221SOL     OW28649   1.092   4.186   6.414 -0.3884  0.2180 -0.3839
 7221SOL    HW228650   1.062   4.202   6.324 -2.0271  0.1021  0.1184
 7221SOL    HW328651   1.100   4.091   6.420  1.0790  0.2950 -0.8042
 7221SOL    MW428652   1.089   4.175   6.403 -0.4110  0.2128 -0.3731
 7222SOL     OW28653   6.071   5.458   1.969 -0.2141  0.4797 -0.0072
 7222SOL    HW228654   5.999   5.506   2.008 -0.3245  0.2095  0.1272
 7222SOL    HW328655   6.145   5.519   1.968 -0.4811  0.8012 -0.2685
 7222SOL    MW428656   6.071   5.472   1.974 -0.2639  0.4865 -0.0239
 7223SOL     OW28657   5.116   3.184   4.142  0.1721 -0.7151  1.2612
 7223SOL    HW228658   5.076   3.105   4.105  1.7796 -0.0903 -2.1468
 7223SOL    HW328659   5.201   3.155   4.176  1.4950 -0.3075 -1.4840
 7223SOL    MW428660   5.122   3.170   4.142  0.5587 -0.5789  0.4493
 7224SOL     OW28661   5.473   5.974   0.941  0.0761  0.2316  0.7452
 7224SOL    HW228662   5.547   5.977   1.002  0.8793  2.6072 -0.2053
 7224SOL    HW328663   5.396   5.990   0.996  0.3760 -0.9496  1.5573
 7224SOL    MW428664   5.473   5.976   0.956  0.2217  0.3892  0.7269
 7225SOL     OW28665   3.696   5.824   0.252 -0.2344 -0.1616 -0.4020
 7225SOL    HW228666   3.676   5.896   0.193 -1.3784 -1.3840 -1.5785
 7225SOL    HW328667   3.616   5.771   0.255 -0.4407  0.1196  2.7396
 7225SOL    MW428668   3.683   5.826   0.245 -0.4125 -0.2858 -0.1427
 7226SOL     OW28669   1.850   1.407   6.384 -0.4436 -0.4606  0.0268
 7226SOL    HW228670   1.914   1.346   6.422 -0.3623  1.0106  2.4813
 7226SOL    HW328671   1.895   1.491   6.381 -2.0665  0.5529  1.5622
 7226SOL    MW428672   1.864   1.410   6.389 -0.6470 -0.1328  0.5532
 7227SOL     OW28673   2.376   0.481   1.745 -0.1508 -0.0897 -0.0139
 7227SOL    HW228674   2.313   0.498   1.675  0.0525 -0.0609 -0.1865
 7227SOL    HW328675   2.395   0.388   1.738 -0.6731 -0.2400  0.4499
 7227SOL    MW428676   2.370   0.471   1.735 -0.1929 -0.1058  0.0245
 7228SOL     OW28677   0.203   0.406   1.626 -0.1502 -0.2525  0.3873
 7228SOL    HW228678   0.134   0.373   1.683  0.7975  0.6457  2.1323
 7228SOL    HW328679   0.178   0.377   1.538 -1.9194 -1.2494  1.1777
 7228SOL    MW428680   0.191   0.398   1.622 -0.2586 -0.2655  0.7218
 7229SOL     OW28681   3.643   6.052   0.809 -0.5433 -0.0608  0.0435
 7229SOL    HW228682   3.722   6.023   0.854 -0.8104 -2.4796 -0.8937
 7229SOL    HW328683   3.673   6.121   0.750  0.9278 -0.9851 -0.3497
 7229SOL    MW428684   3.657   6.057   0.807 -0.3844 -0.5019 -0.1320
 7230SOL     OW28685   3.813   5.307   1.042  0.5251 -0.4086 -0.6189
 7230SOL    HW228686   3.759   5.383   1.020 -0.8236 -0.1576  2.8831
 7230SOL    HW328687   3.899   5.326   1.003  0.4455  3.2977  0.6129
 7230SOL    MW428688   3.818   5.319   1.034  0.3366  0.1135  0.0056
 7231SOL     OW28689   5.467   4.689   0.848 -0.3066  0.7349 -0.1556
 7231SOL    HW228690   5.382   4.732   0.858 -0.4547  0.1388  1.5566
 7231SOL    HW328691   5.527   4.743   0.899  0.1013  0.5315 -0.4172
 7231SOL    MW428692   5.464   4.702   0.856 -0.2723  0.6294  0.0358
 7232SOL     OW28693   6.149   4.276   4.792 -0.7250  0.5224  0.1481
 7232SOL    HW228694   6.117   4.335   4.723  1.7797  2.2464  0.3253
 7232SOL    HW328695   6.210   4.329   4.843  0.1815 -1.7068  1.5403
 7232SOL    MW428696   6.153   4.291   4.789 -0.2750  0.4558  0.3552
 7233SOL     OW28697   2.405   1.655   5.817  0.0639  0.1979  0.0540
 7233SOL    HW228698   2.457   1.638   5.739 -0.4454 -1.0525 -0.0372
 7233SOL    HW328699   2.464   1.702   5.876  1.0947 -0.6584 -0.2767
 7233SOL    MW428700   2.420   1.659   5.815  0.1327 -0.0800 -0.0017
 7234SOL     OW28701   0.963   2.914   3.478 -0.7611  0.0796  0.1735
 7234SOL    HW228702   1.003   2.953   3.556  0.5020  0.4113 -0.6106
 7234SOL    HW328703   0.882   2.875   3.510 -0.0936 -0.1217  1.7319
 7234SOL    MW428704   0.958   2.914   3.492 -0.5064  0.0968  0.2757
 7235SOL     OW28705   3.059   2.980   2.223  0.5764  0.0903 -0.7025
 7235SOL    HW228706   2.993   2.931   2.174 -1.5491  1.7054  0.4264
 7235SOL    HW328707   3.076   2.926   2.301  1.5774 -0.9041 -1.5542
 7235SOL    MW428708   3.053   2.966   2.227  0.4280  0.1722 -0.6659
 7236SOL     OW28709   5.268   2.127   2.483  0.1739  0.2967 -0.3909
 7236SOL    HW228710   5.177   2.146   2.464  0.1885  0.0601 -0.6981
 7236SOL    HW328711   5.275   2.032   2.476  0.2101  0.2028  0.6452
 7236SOL    MW428712   5.257   2.117   2.480  0.1806  0.2531 -0.2947
 7237SOL     OW28713   5.018   5.332   0.494 -1.1137  0.0882  0.0980
 7237SOL    HW228714   5.103   5.291   0.477 -1.1182 -0.0508  0.4101
 7237SOL    HW328715   4.987   5.359   0.408 -1.1507 -0.6356 -0.1203
 7237SOL    MW428716   5.025   5.330   0.480 -1.1191 -0.0257  0.1104
 7238SOL     OW28717   0.851   0.491   4.735 -0.1810  0.7433 -0.2807
 7238SOL    HW228718   0.918   0.543   4.780 -0.9310  1.2532  0.2678
 7238SOL    HW328719   0.787   0.555   4.705 -0.5142  0.2420 -0.6567
 7238SOL    MW428720   0.852   0.506   4.737 -0.3239  0.7445 -0.2579
 7239SOL     OW28721   3.933   6.136   5.448 -0.9282 -0.2276 -0.1700
 7239SOL    HW228722   3.961   6.152   5.538  0.7361  0.4656 -0.7787
 7239SOL    HW328723   3.857   6.192   5.436 -1.1493 -0.3092  0.7930
 7239SOL    MW428724   3.927   6.145   5.458 -0.7378 -0.1469 -0.1232
 7240SOL     OW28725   1.280   3.293   5.191  0.2677  0.2212 -0.0642
 7240SOL    HW228726   1.247   3.227   5.252 -0.0736 -0.6825 -1.1758
 7240SOL    HW328727   1.201   3.326   5.148  0.6141 -0.8914 -1.6927
 7240SOL    MW428728   1.265   3.288   5.193  0.2684 -0.0448 -0.4257
 7241SOL     OW28729   3.166   3.634   3.109  0.4417  0.0089 -0.0484
 7241SOL    HW228730   3.081   3.590   3.102  0.9288 -0.7247 -2.2919
 7241SOL    HW328731   3.146   3.720   3.145 -0.8944 -1.0147  1.8772
 7241SOL    MW428732   3.153   3.639   3.113  0.3297 -0.2229 -0.0904
 7242SOL     OW28733   0.944   6.350   6.122 -0.5449 -0.5620 -0.5757
 7242SOL    HW228734   0.923   6.298   6.200 -0.0097  0.4964  0.2970
 7242SOL    HW328735   0.966   6.285   6.055  1.8995 -1.4617  0.9837
 7242SOL    MW428736   0.944   6.334   6.124 -0.1518 -0.5410 -0.2548
 7243SOL     OW28737   5.786   1.212   2.407 -0.1052 -0.8300 -0.6471
 7243SOL    HW228738   5.877   1.240   2.396 -0.2974 -0.2989 -0.9376
 7243SOL    HW328739   5.790   1.144   2.474  0.4975 -0.7670 -0.6104
 7243SOL    MW428740   5.798   1.207   2.414 -0.0510 -0.7516 -0.6806
 7244SOL     OW28741   4.846   0.333   1.830  0.4982  0.4721 -0.0586
 7244SOL    HW228742   4.811   0.367   1.912  1.1914  1.1774 -0.0437
 7244SOL    HW328743   4.914   0.272   1.856 -1.0667 -1.3837 -0.0726
 7244SOL    MW428744   4.850   0.330   1.844  0.3832  0.3203 -0.0585
 7245SOL     OW28745   6.400   2.773   3.576 -0.1244  0.0063 -0.0589
 7245SOL    HW228746   6.363   2.808   3.496  0.2625  0.6604  0.0427
 7245SOL    HW328747   6.403   2.847   3.636  1.1495 -0.0621 -0.0033
 7245SOL    MW428748   6.396   2.787   3.574  0.0947  0.0835 -0.0382
 7246SOL     OW28749   2.991   2.543   5.533  0.6697  0.0898 -0.0428
 7246SOL    HW228750   2.908   2.519   5.574  1.2061 -0.3065  0.8394
 7246SOL    HW328751   3.058   2.506   5.590  1.5032  1.8297  0.1848
 7246SOL    MW428752   2.989   2.535   5.546  0.8504  0.2671  0.1036
 7247SOL     OW28753   3.199   3.391   0.508  0.1259 -0.2579  0.7576
 7247SOL    HW228754   3.284   3.379   0.551  0.8578 -0.8318 -0.7751
 7247SOL    HW328755   3.167   3.475   0.541  0.3996 -0.9051  2.7888
 7247SOL    MW428756   3.206   3.400   0.518  0.2586 -0.4190  0.8234
 7248SOL     OW28757   4.006   3.130   3.011 -0.2182  0.4881  0.0723
 7248SOL    HW228758   3.938   3.076   2.971 -1.4932  2.9406 -1.3160
 7248SOL    HW328759   4.072   3.140   2.943  1.0397 -0.9345  1.0251
 7248SOL    MW428760   4.006   3.124   2.997 -0.2205  0.6240  0.0149
 7249SOL     OW28761   4.788   4.279   2.905 -0.0756  0.0574 -0.2421
 7249SOL    HW228762   4.696   4.294   2.929 -0.5088 -2.7297  0.1072
 7249SOL    HW328763   4.825   4.230   2.979  0.8744 -1.3539 -1.5951
 7249SOL    MW428764   4.780   4.275   2.918 -0.0074 -0.4966 -0.3745
 7250SOL     OW28765   2.115   3.682   0.552 -0.0502 -0.2703  0.0378
 7250SOL    HW228766   2.091   3.753   0.493  1.0050  1.3384  1.4704
 7250SOL    HW328767   2.148   3.725   0.631 -0.1103 -2.3417  1.2894
 7250SOL    MW428768   2.116   3.697   0.555  0.0811 -0.3313  0.3919
 7251SOL     OW28769   0.909   3.473   0.079  0.3008  0.3460 -0.6238
 7251SOL    HW228770   0.942   3.516   0.157 -1.0277  3.1618 -1.4985
 7251SOL    HW328771   0.882   3.386   0.109  0.6019  1.0376  1.8503
 7251SOL    MW428772   0.910   3.467   0.093  0.1652  0.8088 -0.4128
 7252SOL     OW28773   4.294   1.411   1.948 -0.5188 -0.2273 -0.1642
 7252SOL    HW228774   4.315   1.317   1.950 -1.6319 -0.6570 -3.0159
 7252SOL    HW328775   4.201   1.415   1.972 -0.7934 -0.0574 -1.1660
 7252SOL    MW428776   4.284   1.399   1.951 -0.7019 -0.2615 -0.6726
 7253SOL     OW28777   5.064   5.740   2.052 -0.0636 -0.7776  0.4456
 7253SOL    HW228778   5.063   5.800   1.977 -0.0575 -2.6307 -1.1151
 7253SOL    HW328779   5.139   5.769   2.105  0.8497 -0.2920 -1.0438
 7253SOL    MW428780   5.074   5.752   2.049  0.0577 -0.9580  0.0432
 7254SOL     OW28781   3.715   0.368   4.797 -0.2588  0.1469  0.5003
 7254SOL    HW228782   3.670   0.423   4.733  0.7450 -0.6700 -0.9727
 7254SOL    HW328783   3.788   0.422   4.827 -0.2360  0.2303  0.2997
 7254SOL    MW428784   3.719   0.383   4.792 -0.1234  0.0501  0.2795
 7255SOL     OW28785   4.312   0.882   3.945  0.1563  0.0535 -0.5902
 7255SOL    HW228786   4.273   0.801   3.911  0.2040 -0.7481  1.1647
 7255SOL    HW328787   4.384   0.901   3.885 -1.6987  0.5257 -2.8166
 7255SOL    MW428788   4.316   0.874   3.932 -0.0822  0.0100 -0.6524
 7256SOL     OW28789   3.743   0.134   1.521  0.1530  0.2222  0.1672
 7256SOL    HW228790   3.828   0.093   1.536 -0.3685 -0.8027  0.4936
 7256SOL    HW328791   3.755   0.188   1.444  0.9168 -0.4879 -0.2298
 7256SOL    MW428792   3.756   0.135   1.513  0.1850 -0.0067  0.1579
 7257SOL     OW28793   0.955   4.736   2.679  0.1969 -0.3334 -0.2380
 7257SOL    HW228794   1.014   4.800   2.639  0.1427 -0.6810 -0.8811
 7257SOL    HW328795   0.899   4.707   2.607  0.0568 -0.9203  0.1035
 7257SOL    MW428796   0.955   4.741   2.664  0.1713 -0.4567 -0.2778
 7258SOL     OW28797   0.244   0.210   6.097  0.1807 -0.6760  0.1220
 7258SOL    HW228798   0.190   0.232   6.174 -0.1774 -0.8064 -0.0916
 7258SOL    HW328799   0.328   0.251   6.115 -0.0495 -0.3088  0.3709
 7258SOL    MW428800   0.248   0.218   6.110  0.1031 -0.6448  0.1266
 7259SOL     OW28801   3.285   1.492   1.220 -0.1602  0.6486 -0.0278
 7259SOL    HW228802   3.285   1.442   1.302 -3.9914  0.4886  0.0266
 7259SOL    HW328803   3.263   1.581   1.247 -2.5848  0.3662 -0.8918
 7259SOL    MW428804   3.282   1.497   1.235 -0.9856  0.5902 -0.1346
 7260SOL     OW28805   2.614   4.936   1.085  0.3201 -0.0853 -0.2417
 7260SOL    HW228806   2.663   4.947   1.004  1.3135 -0.3422  0.3024
 7260SOL    HW328807   2.522   4.928   1.057  0.5343  0.7727 -1.2521
 7260SOL    MW428808   2.608   4.936   1.071  0.4794 -0.0060 -0.3032
 7261SOL     OW28809   2.448   2.887   6.318 -0.1878  0.1152  0.3264
 7261SOL    HW228810   2.365   2.934   6.329 -0.4108 -0.4046  0.8542
 7261SOL    HW328811   2.442   2.850   6.230 -1.2586 -1.3462  0.9686
 7261SOL    MW428812   2.436   2.888   6.308 -0.3585 -0.1462  0.4807
 7262SOL     OW28813   2.127   5.328   4.361  0.3802 -0.2294  0.4022
 7262SOL    HW228814   2.031   5.329   4.358  0.3943 -0.9449 -1.4378
 7262SOL    HW328815   2.150   5.236   4.354  1.2006  0.0914 -2.6970
 7262SOL    MW428816   2.118   5.316   4.360  0.4903 -0.2815 -0.2495
 7263SOL     OW28817   5.951   2.061   5.705 -0.4379  0.3028  0.0244
 7263SOL    HW228818   5.888   2.036   5.773  0.2287 -0.9434  0.2199
 7263SOL    HW328819   6.015   2.115   5.750 -1.4078  1.7014 -0.2049
 7263SOL    MW428820   5.951   2.065   5.720 -0.4779  0.3229  0.0199
 7264SOL     OW28821   2.184   3.071   1.084 -0.6405 -0.5770 -0.4783
 7264SOL    HW228822   2.198   3.116   1.167  0.6977 -2.5275  0.4188
 7264SOL    HW328823   2.089   3.073   1.071 -0.7483  1.0202  0.3242
 7264SOL    MW428824   2.173   3.077   1.093 -0.4782 -0.6236 -0.2541
 7265SOL     OW28825   5.888   2.543   2.707  0.8308  0.0949  0.4808
 7265SOL    HW228826   5.925   2.541   2.796 -0.6204  0.1992  1.1232
 7265SOL    HW328827   5.833   2.465   2.703 -0.8002  1.2014  0.4628
 7265SOL    MW428828   5.885   2.532   2.719  0.4242  0.2546  0.5632
 7266SOL     OW28829   2.656   2.307   0.757  0.4686 -0.2605 -0.1830
 7266SOL    HW228830   2.733   2.257   0.731  0.0245 -0.0852 -1.9406
 7266SOL    HW328831   2.587   2.242   0.768  0.0175 -0.1314 -1.9865
 7266SOL    MW428832   2.657   2.292   0.755  0.3505 -0.2203 -0.6529
 7267SOL     OW28833   5.488   1.421   3.521 -0.0162 -0.5276  0.1738
 7267SOL    HW228834   5.481   1.481   3.446 -1.3932  0.3032  0.9127
 7267SOL    HW328835   5.521   1.340   3.484  2.0155  0.6797 -0.8632
 7267SOL    MW428836   5.491   1.418   3.506  0.0702 -0.2587  0.1345
 7268SOL     OW28837   2.823   0.002   2.215 -0.6652  0.2941  0.0817
 7268SOL    HW228838   2.891   0.049   2.263 -0.0831 -0.6526  0.1994
 7268SOL    HW328839   2.750  -0.005   2.276 -0.2625 -0.1112  0.5220
 7268SOL    MW428840   2.822   0.007   2.229 -0.5352  0.1157  0.1553
 7269SOL     OW28841   1.060   4.995   4.316 -0.1471 -0.0637  0.6109
 7269SOL    HW228842   1.069   5.088   4.293  3.2203 -0.0736  1.4122
 7269SOL    HW328843   1.066   4.949   4.233  0.0140  0.3656  0.3826
 7269SOL    MW428844   1.062   5.001   4.302  0.3184 -0.0083  0.6865
 7270SOL     OW28845   2.746   5.214   6.282  0.3351  0.0776  0.5627
 7270SOL    HW228846   2.837   5.188   6.295  0.2886 -0.1251  0.4887
 7270SOL    HW328847   2.739   5.231   6.188 -0.0843 -1.4134  0.3002
 7270SOL    MW428848   2.757   5.213   6.271  0.2736 -0.1459  0.5183
 7271SOL     OW28849   1.029   1.334   6.111 -0.4258 -0.1108 -0.5732
 7271SOL    HW228850   0.988   1.399   6.168 -1.3700 -0.6981 -0.5669
 7271SOL    HW328851   0.988   1.347   6.025  1.6967  1.4421 -1.4501
 7271SOL    MW428852   1.018   1.344   6.107 -0.2703  0.0166 -0.6881
 7272SOL     OW28853   4.462   1.293   4.663 -0.1336 -0.1576 -0.1505
 7272SOL    HW228854   4.513   1.356   4.612  0.3229  0.6092  1.2100
 7272SOL    HW328855   4.528   1.235   4.703 -0.3815  0.1119  0.6771
 7272SOL    MW428856   4.478   1.293   4.662 -0.1060 -0.0209  0.1382
 7273SOL     OW28857   4.178   3.303   5.138  0.0594 -0.4798 -0.6529
 7273SOL    HW228858   4.208   3.295   5.229  1.3493  1.1579 -0.8925
 7273SOL    HW328859   4.110   3.236   5.129 -1.6268  0.7000  2.1239
 7273SOL    MW428860   4.173   3.293   5.149  0.0071 -0.1080 -0.3181
 7274SOL     OW28861   4.812   3.864   2.935  0.2114  0.4225 -0.4429
 7274SOL    HW228862   4.864   3.932   2.893 -0.9864  1.9372  0.4004
 7274SOL    HW328863   4.875   3.814   2.987  0.9437  1.7461 -0.0175
 7274SOL    MW428864   4.827   3.866   2.937  0.1500  0.7970 -0.2755
 7275SOL     OW28865   2.859   0.287   1.632  0.0148 -0.6772 -0.2027
 7275SOL    HW228866   2.853   0.197   1.602  1.9121 -1.1586  0.7161
 7275SOL    HW328867   2.922   0.329   1.574  0.9266 -0.6192  0.7920
 7275SOL    MW428868   2.867   0.281   1.621  0.3854 -0.7330  0.0497
 7276SOL     OW28869   3.961   0.261   6.307 -0.0432 -0.2836  0.4470
 7276SOL    HW228870   3.969   0.283   6.400  1.2311  1.0587  0.0483
 7276SOL    HW328871   3.907   0.331   6.270 -0.3058 -0.6598  0.0990
 7276SOL    MW428872   3.955   0.273   6.314  0.0902 -0.1561  0.3485
 7277SOL     OW28873   3.878   4.200   0.124 -0.3374 -0.1876  0.3411
 7277SOL    HW228874   3.914   4.143   0.057  0.6977 -0.5629  1.1824
 7277SOL    HW328875   3.787   4.172   0.133 -0.5384 -0.0133 -1.0045
 7277SOL    MW428876   3.871   4.189   0.116 -0.2273 -0.2141  0.2746
 7278SOL     OW28877   5.955   0.185   3.569 -0.2979  0.1339 -0.3878
 7278SOL    HW228878   6.029   0.128   3.589  0.0875  1.0656  1.0547
 7278SOL    HW328879   5.878   0.128   3.573  0.2357 -0.6263 -0.7972
 7278SOL    MW428880   5.954   0.170   3.572 -0.1767  0.1566 -0.2515
 7279SOL     OW28881   5.297   3.510   0.353 -0.3889 -0.4833 -0.1719
 7279SOL    HW228882   5.346   3.429   0.340 -0.8955 -0.6774 -0.9664
 7279SOL    HW328883   5.248   3.496   0.434 -1.1813 -1.3548 -0.7777
 7279SOL    MW428884   5.297   3.498   0.362 -0.5603 -0.6239 -0.3567
 7280SOL     OW28885   3.754   2.551   3.567 -0.0130 -0.2133 -0.8447
 7280SOL    HW228886   3.686   2.619   3.567 -1.2778 -1.4218 -0.1963
 7280SOL    HW328887   3.835   2.598   3.588 -0.5116  1.3611 -2.2397
 7280SOL    MW428888   3.756   2.566   3.570 -0.2457 -0.1650 -0.9432
 7281SOL     OW28889   0.926   3.332   2.535 -0.6936 -0.4001  0.4650
 7281SOL    HW228890   0.876   3.267   2.486 -0.1697 -0.8737  0.5508
 7281SOL    HW328891   1.016   3.323   2.504 -0.8094  1.1939 -0.4781
 7281SOL    MW428892   0.931   3.322   2.525 -0.6398 -0.2523  0.3519
 7282SOL     OW28893   5.412   6.115   2.120 -0.2255 -0.6451  0.4041
 7282SOL    HW228894   5.376   6.027   2.127 -0.1149 -0.5767  2.1050
 7282SOL    HW328895   5.426   6.143   2.210 -0.6510  1.2883 -0.0838
 7282SOL    MW428896   5.409   6.107   2.133 -0.2671 -0.3810  0.5641
 7283SOL     OW28897   6.320   2.366   0.519 -0.2749  0.3200  0.5214
 7283SOL    HW228898   6.299   2.370   0.426  0.1893 -0.9080  0.3336
 7283SOL    HW328899   6.320   2.272   0.539 -1.2137  0.5903  1.9628
 7283SOL    MW428900   6.317   2.354   0.509 -0.3375  0.1936  0.6868
 7284SOL     OW28901   1.257   3.746   4.590  0.8286  0.5853  0.1061
 7284SOL    HW228902   1.336   3.787   4.626  0.9627  0.1167  0.3536
 7284SOL    HW328903   1.190   3.813   4.596  1.1255  0.8727  0.2211
 7284SOL    MW428904   1.259   3.760   4.595  0.8855  0.5614  0.1539
 7285SOL     OW28905   5.675   0.948   5.678 -0.2138 -0.1562 -0.1109
 7285SOL    HW228906   5.675   1.007   5.753  1.3828 -1.8794  1.3473
 7285SOL    HW328907   5.760   0.905   5.680 -0.9881 -1.9337 -1.5618
 7285SOL    MW428908   5.686   0.950   5.688 -0.1053 -0.6181 -0.1100
 7286SOL     OW28909   3.703   5.950   6.214  0.0333  0.2845 -0.2767
 7286SOL    HW228910   3.613   5.922   6.200  0.4375  0.2117 -3.2664
 7286SOL    HW328911   3.757   5.880   6.177  1.3582  0.3063  1.4870
 7286SOL    MW428912   3.699   5.937   6.207  0.2615  0.2778 -0.4384
 7287SOL     OW28913   3.295   1.422   1.917  0.2402 -0.0250  0.0690
 7287SOL    HW228914   3.277   1.337   1.956 -2.0050  0.9080  1.2658
 7287SOL    HW328915   3.249   1.485   1.973  1.5301  1.9655 -0.9677
 7287SOL    MW428916   3.286   1.419   1.929  0.1142  0.3607  0.0901
 7288SOL     OW28917   4.412   2.426   3.494 -0.8799 -0.3634  0.3405
 7288SOL    HW228918   4.384   2.357   3.554 -1.7668 -1.5772 -1.3816
 7288SOL    HW328919   4.340   2.434   3.431  0.3237  0.3013 -1.0093
 7288SOL    MW428920   4.399   2.418   3.493 -0.8381 -0.4359 -0.0648
 7289SOL     OW28921   6.446   5.115   0.397 -0.3913  0.5684 -0.2279
 7289SOL    HW228922   6.497   5.158   0.465 -1.5317  0.0633  0.9866
 7289SOL    HW328923   6.511   5.082   0.335  0.8286 -0.7835  1.6871
 7289SOL    MW428924   6.461   5.116   0.398 -0.3808  0.3234  0.1850
 7290SOL     OW28925   4.358   5.456   4.597 -0.3614  0.2436  0.6874
 7290SOL    HW228926   4.287   5.520   4.601  0.0506  0.6970  0.8205
 7290SOL    HW328927   4.433   5.501   4.634  0.2395  0.0873 -0.3039
 7290SOL    MW428928   4.358   5.471   4.602 -0.2278  0.2828  0.5742
 7291SOL     OW28929   2.322   5.727   0.183 -0.2012  0.2460  0.6112
 7291SOL    HW228930   2.236   5.688   0.169  0.1741 -0.6505  0.7504
 7291SOL    HW328931   2.304   5.817   0.211 -1.0723  0.2741 -0.0071
 7291SOL    MW428932   2.308   5.734   0.185 -0.2666  0.1314  0.5480
 7292SOL     OW28933   4.765   0.729   5.647  0.2019  0.3009 -0.0986
 7292SOL    HW228934   4.688   0.784   5.641  1.8255  3.1654  2.5287
 7292SOL    HW328935   4.837   0.785   5.617  1.6586 -1.2819  0.2501
 7292SOL    MW428936   4.765   0.743   5.642  0.6083  0.4700  0.2940
 7293SOL     OW28937   2.908   4.622   1.362  0.2663  0.6323 -0.3565
 7293SOL    HW228938   2.823   4.664   1.350  0.6689  1.6316  0.1805
 7293SOL    HW328939   2.891   4.552   1.425  0.0510  1.5696  0.6572
 7293SOL    MW428940   2.895   4.618   1.368  0.2910  0.8878 -0.1519
 7294SOL     OW28941   4.472   3.428   6.114  0.5411  0.3377  0.2569
 7294SOL    HW228942   4.416   3.500   6.142 -0.6268 -1.7645  4.0767
 7294SOL    HW328943   4.560   3.456   6.137  0.5260  1.6305 -1.0769
 7294SOL    MW428944   4.476   3.441   6.121  0.3850  0.2309  0.5849
 7295SOL     OW28945   5.119   0.573   0.328 -0.4304  0.3804  0.3277
 7295SOL    HW228946   5.067   0.592   0.250 -0.5893 -0.2156  0.2792
 7295SOL    HW328947   5.097   0.482   0.349 -0.6152  0.6360  1.2464
 7295SOL    MW428948   5.109   0.563   0.320 -0.4758  0.3355  0.4425
 7296SOL     OW28949   5.807   0.220   0.969 -0.5853 -0.3578 -0.4409
 7296SOL    HW228950   5.899   0.199   0.952 -0.5734 -1.3219  0.6765
 7296SOL    HW328951   5.810   0.298   1.025 -0.3925 -1.0197  0.4932
 7296SOL    MW428952   5.820   0.227   0.974 -0.5583 -0.5723 -0.1702
 7297SOL     OW28953   4.263   2.007   2.961  0.0906 -0.2989 -0.4627
 7297SOL    HW228954   4.177   2.015   2.920 -0.0445  0.9345  0.0477
 7297SOL    HW328955   4.305   1.936   2.912 -0.7567 -0.1112 -1.5129
 7297SOL    MW428956   4.257   1.998   2.949 -0.0390 -0.1114 -0.5339
 7298SOL     OW28957   4.813   4.660   1.867 -0.0929  0.3187  0.0329
 7298SOL    HW228958   4.747   4.653   1.798 -3.0534  1.5972  2.4938
 7298SOL    HW328959   4.797   4.585   1.924 -0.5728  1.4592  1.4829
 7298SOL    MW428960   4.802   4.649   1.866 -0.5468  0.6379  0.5489
 7299SOL     OW28961   5.663   2.282   2.615 -0.8101  0.0981 -0.4078
 7299SOL    HW228962   5.611   2.342   2.668 -0.7875 -0.2861  0.0617
 7299SOL    HW328963   5.624   2.196   2.630  1.0313 -0.5104  1.4297
 7299SOL    MW428964   5.651   2.279   2.624 -0.5641 -0.0329 -0.1034
 7300SOL     OW28965   3.400   0.643   2.825  0.5209  0.4703 -0.0915
 7300SOL    HW228966   3.363   0.576   2.768  2.3711 -0.4063 -0.3310
 7300SOL    HW328967   3.461   0.691   2.769 -0.3258  1.9680  0.2434
 7300SOL    MW428968   3.403   0.640   2.810  0.6533  0.5522 -0.0789
 7301SOL     OW28969   4.557   6.361   6.022  0.6763  0.2247 -0.5653
 7301SOL    HW228970   4.540   6.365   6.116  0.9331 -1.3230 -0.4296
 7301SOL    HW328971   4.512   6.282   5.992  0.5415  0.7208 -1.7658
 7301SOL    MW428972   4.549   6.351   6.030  0.6924  0.0860 -0.7058
 7302SOL     OW28973   6.076   0.628   6.040 -0.4981  0.3266  0.4086
 7302SOL    HW228974   6.006   0.688   6.014 -1.0328 -0.0159  1.0341
 7302SOL    HW328975   6.052   0.545   6.000 -0.2096  0.3151  0.2564
 7302SOL    MW428976   6.064   0.625   6.031 -0.5306  0.2799  0.4710
 7303SOL     OW28977   2.454   3.124   2.989 -0.1750  0.5551 -0.1996
 7303SOL    HW228978   2.419   3.208   2.960  2.0115  2.2319  1.6093
 7303SOL    HW328979   2.525   3.105   2.927 -1.9529 -1.1002 -1.8396
 7303SOL    MW428980   2.459   3.133   2.977 -0.1211  0.5579 -0.1773
 7304SOL     OW28981   4.797   4.493   5.973  0.0852  0.1963  0.1792
 7304SOL    HW228982   4.884   4.507   5.934  0.1035 -0.2809  0.0385
 7304SOL    HW328983   4.816   4.471   6.064  0.1212 -0.0266  0.1191
 7304SOL    MW428984   4.811   4.492   5.980  0.0924  0.1039  0.1527
 7305SOL     OW28985   0.533   5.453   0.169 -0.1395 -0.2821 -0.3251
 7305SOL    HW228986   0.574   5.384   0.220 -2.0166 -0.6977  0.7040
 7305SOL    HW328987   0.567   5.534   0.207 -0.7464 -0.6068  0.9765
 7305SOL    MW428988   0.542   5.455   0.181 -0.4673 -0.3798 -0.0176
 7306SOL     OW28989   3.252   2.540   4.848 -0.4053  0.2001  0.1376
 7306SOL    HW228990   3.171   2.576   4.810 -0.3080 -0.5919 -0.8655
 7306SOL    HW328991   3.301   2.506   4.773  0.1585 -0.7176  0.8920
 7306SOL    MW428992   3.248   2.540   4.833 -0.3181 -0.0255  0.1048
 7307SOL     OW28993   6.196   3.578   1.654 -0.0334  0.1706  0.1539
 7307SOL    HW228994   6.223   3.500   1.607 -2.8377 -0.8262  0.0335
 7307SOL    HW328995   6.165   3.638   1.586  0.1832  0.5882  0.4145
 7307SOL    MW428996   6.195   3.576   1.639 -0.3748  0.0942  0.1724
 7308SOL     OW28997   3.383   0.934   5.736  0.6904 -0.2199 -0.0089
 7308SOL    HW228998   3.375   0.999   5.667  1.1439 -0.2616 -0.1087
 7308SOL    HW328999   3.314   0.955   5.799  0.0733 -0.3768 -0.6306
 7308SOL    MW429000   3.373   0.945   5.735  0.6688 -0.2461 -0.1041
 7309SOL     OW29001   3.956   6.158   3.249  0.3110  0.0121 -0.1055
 7309SOL    HW229002   3.900   6.091   3.210 -0.0555  0.8048 -0.9783
 7309SOL    HW329003   3.896   6.230   3.272  0.9419  0.8695 -1.0527
 7309SOL    MW429004   3.941   6.159   3.247  0.3459  0.2298 -0.3456
 7310SOL     OW29005   1.641   0.416   1.736  0.2228  0.2209  0.1182
 7310SOL    HW229006   1.612   0.370   1.815 -0.7556  1.4154  0.4997
 7310SOL    HW329007   1.672   0.347   1.678 -1.3807 -0.9417  0.5678
 7310SOL    MW429008   1.641   0.401   1.739 -0.1178  0.2251  0.2279
 7311SOL     OW29009   1.421   6.356   1.541  0.0890  0.0116 -0.3122
 7311SOL    HW229010   1.344   6.413   1.550  1.4947  2.4189 -2.2835
 7311SOL    HW329011   1.387   6.276   1.500 -1.6897  0.0249  1.0139
 7311SOL    MW429012   1.406   6.353   1.536  0.0398  0.3310 -0.3974
 7312SOL     OW29013   0.505   0.152   0.249  0.7794  0.0497  0.1291
 7312SOL    HW229014   0.559   0.209   0.195 -1.0390  1.3476 -0.4433
 7312SOL    HW329015   0.456   0.099   0.186 -0.2996  0.5714  0.4860
 7312SOL    MW429016   0.505   0.153   0.233  0.3971  0.2897  0.1006
 7313SOL     OW29017   2.918   5.170   2.118 -0.1507  0.4607  0.1185
 7313SOL    HW229018   2.928   5.082   2.083  2.0975  0.4229  0.7249
 7313SOL    HW329019   2.907   5.226   2.040 -0.2884 -0.1941 -0.3381
 7313SOL    MW429020   2.918   5.166   2.103  0.1277  0.3693  0.1383
 7314SOL     OW29021   6.292   4.455   4.952 -0.7803 -0.4063  0.0146
 7314SOL    HW229022   6.308   4.543   4.920 -0.0585 -0.0684  1.2195
 7314SOL    HW329023   6.252   4.467   5.038 -1.3987 -1.2656 -0.1338
 7314SOL    MW429024   6.289   4.468   4.959 -0.7667 -0.4751  0.1540
 7315SOL     OW29025   4.555   3.923   2.984  1.1570 -0.1096  0.8614
 7315SOL    HW229026   4.526   3.954   2.898 -0.1864 -1.4701  0.7916
 7315SOL    HW329027   4.645   3.894   2.971  0.4517 -1.8234 -0.5199
 7315SOL    MW429028   4.563   3.924   2.971  0.8867 -0.5152  0.6699
 7316SOL     OW29029   5.671   0.143   1.266  0.1791  0.1244 -0.3094
 7316SOL    HW229030   5.673   0.065   1.209  1.1394  0.6415 -1.0119
 7316SOL    HW329031   5.741   0.199   1.232 -1.0691  1.7028 -0.3783
 7316SOL    MW429032   5.681   0.140   1.254  0.1411  0.4009 -0.4111
 7317SOL     OW29033   1.781   4.671   5.825  0.3398  0.1819 -0.7433
 7317SOL    HW229034   1.715   4.657   5.757  0.3206 -1.1912 -0.4591
 7317SOL    HW329035   1.776   4.765   5.843 -1.7806  0.0734 -0.4894
 7317SOL    MW429036   1.771   4.682   5.818  0.0575 -0.0135 -0.6723
 7318SOL     OW29037   0.425   4.855   3.998  0.3853  0.1535  0.4660
 7318SOL    HW229038   0.516   4.881   4.015 -0.0887  2.1117  0.1215
 7318SOL    HW329039   0.384   4.932   3.960 -1.2252 -0.9791 -0.2015
 7318SOL    MW429040   0.432   4.868   3.995  0.1103  0.2624  0.3325
 7319SOL     OW29041   4.818   3.608   0.979 -0.0948 -0.1250 -0.1411
 7319SOL    HW229042   4.731   3.577   1.006 -0.7276  2.6350  1.3762
 7319SOL    HW329043   4.874   3.592   1.055 -0.0872  1.0287  0.1087
 7319SOL    MW429044   4.814   3.601   0.992 -0.1772  0.3914  0.0920
 7320SOL     OW29045   4.121   0.091   1.320 -0.5315  0.3198 -0.5393
 7320SOL    HW229046   4.190   0.156   1.337  0.5316 -1.0925  0.8227
 7320SOL    HW329047   4.064   0.133   1.255  1.1563  1.8543 -1.1107
 7320SOL    MW429048   4.123   0.106   1.314 -0.1685  0.3359 -0.4350
 7321SOL     OW29049   3.527   3.349   1.326 -0.0585  0.3514 -0.4287
 7321SOL    HW229050   3.607   3.400   1.316 -0.3600  0.9267  0.0280
 7321SOL    HW329051   3.556   3.262   1.352  0.4949  0.1318 -1.7204
 7321SOL    MW429052   3.541   3.344   1.328 -0.0252  0.3983 -0.5389
 7322SOL     OW29053   5.935   2.774   0.735 -1.0473 -0.4946  0.1897
 7322SOL    HW229054   5.970   2.806   0.652  0.9678 -2.3428  0.2075
 7322SOL    HW329055   5.908   2.684   0.716 -0.6375 -0.9096  1.4777
 7322SOL    MW429056   5.936   2.767   0.721 -0.7274 -0.7932  0.3620
 7323SOL     OW29057   4.063   1.694   6.223 -0.2417  0.7299  0.5356
 7323SOL    HW229058   4.008   1.616   6.219  1.2278 -0.3105 -0.4400
 7323SOL    HW329059   4.141   1.671   6.172  0.2986  2.7891  0.3378
 7323SOL    MW429060   4.066   1.681   6.216  0.0235  0.8643  0.3808
 7324SOL     OW29061   2.579   2.256   2.062 -0.2438  0.0545 -0.0271
 7324SOL    HW229062   2.643   2.238   1.993 -0.3391 -1.7502  0.3025
 7324SOL    HW329063   2.629   2.296   2.133  0.4997 -1.1527  0.1438
 7324SOL    MW429064   2.594   2.259   2.062 -0.1583 -0.3429  0.0389
 7325SOL     OW29065   0.114   1.405   1.885  0.3617  0.3606  0.5702
 7325SOL    HW229066   0.060   1.369   1.956  1.5451 -1.3560  0.6808
 7325SOL    HW329067   0.065   1.385   1.805  0.5053 -0.6198  0.7101
 7325SOL    MW429068   0.101   1.397   1.884  0.5368  0.0048  0.6032
 7326SOL     OW29069   1.801   2.192   0.631 -0.4681 -0.4231 -0.0046
 7326SOL    HW229070   1.841   2.202   0.545 -0.5666 -1.1602 -0.1414
 7326SOL    HW329071   1.840   2.262   0.684  0.7283 -0.8916 -0.2394
 7326SOL    MW429072   1.812   2.202   0.627 -0.3232 -0.5822 -0.0537
 7327SOL     OW29073   5.250   1.907   4.758  0.1552 -0.3802  0.2872
 7327SOL    HW229074   5.287   1.828   4.799 -0.1307 -0.3263  0.6556
 7327SOL    HW329075   5.210   1.954   4.831  0.0938 -0.0239  0.0221
 7327SOL    MW429076   5.250   1.902   4.773  0.1094 -0.3261  0.3009
 7328SOL     OW29077   1.149   3.539   6.355 -0.1816  0.1082 -0.0418
 7328SOL    HW229078   1.069   3.511   6.399  0.3935 -0.5350  0.6078
 7328SOL    HW329079   1.179   3.461   6.308  0.7544 -0.0277  0.7637
 7328SOL    MW429080   1.142   3.525   6.354  0.0178  0.0054  0.1502
 7329SOL     OW29081   2.999   2.365   1.559  0.2402  0.0087 -0.2811
 7329SOL    HW229082   3.051   2.320   1.492  0.5601 -0.3257  0.1880
 7329SOL    HW329083   2.965   2.295   1.614 -0.0442  0.2822 -0.1058
 7329SOL    MW429084   3.001   2.350   1.557  0.2449  0.0006 -0.1961
 7330SOL     OW29085   1.875   1.108   2.931 -0.1306 -0.0098 -0.0409
 7330SOL    HW229086   1.862   1.195   2.970  1.2767  0.2567 -0.1020
 7330SOL    HW329087   1.883   1.126   2.837  1.1067 -0.0627  0.0358
 7330SOL    MW429088   1.875   1.122   2.924  0.2183  0.0184 -0.0389
 7331SOL     OW29089   2.086   2.750   5.209  0.0381 -0.0655  0.2575
 7331SOL    HW229090   2.084   2.706   5.124  0.6955  0.6437 -0.1393
 7331SOL    HW329091   1.995   2.773   5.227 -0.1943 -0.8441  0.0784
 7331SOL    MW429092   2.074   2.747   5.200  0.0942 -0.0746  0.1815
 7332SOL     OW29093   1.995   5.595   3.485  0.2928  0.2402  0.0426
 7332SOL    HW229094   2.028   5.677   3.447  1.5961 -0.8580 -1.3087
 7332SOL    HW329095   2.004   5.531   3.415  0.5801 -1.3638  1.4932
 7332SOL    MW429096   2.001   5.597   3.471  0.5027 -0.1163  0.0557
 7333SOL     OW29097   2.398   3.366   4.061 -0.1505 -0.6533  0.2273
 7333SOL    HW229098   2.325   3.391   4.118 -0.8935 -0.8228 -0.6311
 7333SOL    HW329099   2.389   3.272   4.051  1.1469 -0.9368  1.3965
 7333SOL    MW429100   2.387   3.357   4.067 -0.0774 -0.7130  0.2683
 7334SOL     OW29101   1.055   2.823   6.077  0.0193  0.3368 -0.1103
 7334SOL    HW229102   0.995   2.749   6.075  0.9787 -0.4288 -1.3221
 7334SOL    HW329103   1.091   2.822   6.166  0.3686 -0.9502 -0.2472
 7334SOL    MW429104   1.052   2.813   6.089  0.1920  0.0660 -0.2882
 7335SOL     OW29105   5.258   2.751   6.101 -0.0861  0.1917 -0.7613
 7335SOL    HW229106   5.340   2.755   6.051  0.1335  1.0489 -0.3626
 7335SOL    HW329107   5.200   2.812   6.057 -0.4293 -0.2168 -0.8832
 7335SOL    MW429108   5.261   2.759   6.089 -0.1024  0.2509 -0.7248
 7336SOL     OW29109   0.125   6.021   3.134  0.7224 -0.0832  0.0259
 7336SOL    HW229110   0.126   6.053   3.044  0.9753  2.3057  0.7933
 7336SOL    HW329111   0.213   6.038   3.167  0.2988  0.2345  1.0549
 7336SOL    MW429112   0.137   6.028   3.126  0.6999  0.2739  0.2629
 7337SOL     OW29113   0.109   4.659   5.859 -0.0781  0.4857  0.2961
 7337SOL    HW229114   0.187   4.660   5.804  0.6036 -1.3682  1.1337
 7337SOL    HW329115   0.124   4.728   5.924  0.5745  0.5633  0.0690
 7337SOL    MW429116   0.121   4.668   5.860  0.0979  0.2513  0.3767
 7338SOL     OW29117   6.258   2.934   4.136  0.3051 -0.0488 -0.3733
 7338SOL    HW229118   6.352   2.949   4.151  0.4060 -0.4818 -0.5600
 7338SOL    HW329119   6.215   2.985   4.204  0.6462  0.9222 -0.8631
 7338SOL    MW429120   6.265   2.943   4.147  0.3634  0.0222 -0.4626
 7339SOL     OW29121   3.577   3.788   0.398  0.0878  0.6715  0.1020
 7339SOL    HW229122   3.578   3.856   0.465  1.0097  2.2908 -1.4568
 7339SOL    HW329123   3.664   3.748   0.402  0.4304  1.3177 -0.6190
 7339SOL    MW429124   3.589   3.791   0.407  0.2546  0.9704 -0.1988
 7340SOL     OW29125   2.015   2.012   5.019 -0.5009  0.5441 -0.5459
 7340SOL    HW229126   2.054   2.025   5.105 -0.2017  0.4316 -0.6656
 7340SOL    HW329127   1.970   1.928   5.026 -0.7742  0.7027 -0.3900
 7340SOL    MW429128   2.014   2.002   5.031 -0.4975  0.5502 -0.5412
 7341SOL     OW29129   4.724   6.308   2.676  0.5624 -0.1577  0.2632
 7341SOL    HW229130   4.649   6.258   2.644  0.0673  0.3638  0.5905
 7341SOL    HW329131   4.732   6.382   2.615  0.9239 -0.3112  0.1215
 7341SOL    MW429132   4.715   6.311   2.664  0.5447 -0.1091  0.2876
 7342SOL     OW29133   1.958   1.789   2.781  0.6166 -0.1467  0.5177
 7342SOL    HW229134   1.902   1.734   2.836  1.8041 -0.4895  1.4142
 7342SOL    HW329135   1.959   1.874   2.826  0.9239 -0.1805  0.5738
 7342SOL    MW429136   1.950   1.793   2.794  0.8138 -0.1964  0.6434
 7343SOL     OW29137   4.695   1.409   2.119  0.0074 -0.9574 -0.5202
 7343SOL    HW229138   4.675   1.342   2.184  0.0256 -0.8413 -0.3946
 7343SOL    HW329139   4.789   1.427   2.131 -0.8368  2.5886  2.8071
 7343SOL    MW429140   4.705   1.402   2.129 -0.1016 -0.4743 -0.0646
 7344SOL     OW29141   4.767   3.339   6.292  0.1745  0.2119 -0.5160
 7344SOL    HW229142   4.748   3.433   6.299  0.9228  0.2965  0.5655
 7344SOL    HW329143   4.859   3.335   6.267 -0.0665 -0.2441 -1.3680
 7344SOL    MW429144   4.776   3.351   6.290  0.2414  0.1629 -0.4857
 7345SOL     OW29145   2.265   1.490   2.853 -0.2903  0.4932  0.1597
 7345SOL    HW229146   2.302   1.462   2.937  1.2149  1.5717 -0.0995
 7345SOL    HW329147   2.327   1.459   2.787 -1.6558 -0.6755 -0.6202
 7345SOL    MW429148   2.278   1.482   2.856 -0.2719  0.4813  0.0226
 7346SOL     OW29149   3.506   4.312   6.296 -0.1975 -0.0992 -0.0656
 7346SOL    HW229150   3.578   4.301   6.234 -1.4558 -0.0273 -1.6206
 7346SOL    HW329151   3.474   4.401   6.279  0.9314  0.8643  2.4177
 7346SOL    MW429152   3.511   4.323   6.286 -0.2146  0.0374  0.0569
 7347SOL     OW29153   2.775   4.324   5.494  0.2941 -0.0554 -0.0709
 7347SOL    HW229154   2.779   4.394   5.429 -0.6472 -0.7297 -0.8729
 7347SOL    HW329155   2.856   4.274   5.481  0.8365  0.6947  0.3193
 7347SOL    MW429156   2.786   4.327   5.484  0.2414 -0.0454 -0.1252
 7348SOL     OW29157   2.829   4.191   0.211 -0.0567  0.1217  0.6906
 7348SOL    HW229158   2.824   4.243   0.131 -2.4836 -1.9445 -0.6192
 7348SOL    HW329159   2.873   4.110   0.184 -2.7626 -1.4844  0.8243
 7348SOL    MW429160   2.834   4.187   0.197 -0.7339 -0.3628  0.5355
 7349SOL     OW29161   0.278   2.066   4.372  0.1028 -0.0463 -0.4066
 7349SOL    HW229162   0.294   2.047   4.280  0.1559 -1.9062 -0.0464
 7349SOL    HW329163   0.184   2.083   4.377  0.2348  0.9176 -0.9173
 7349SOL    MW429164   0.268   2.066   4.361  0.1272 -0.1645 -0.4265
 7350SOL     OW29165   0.472   3.760   0.085 -0.2660 -0.0955  0.3321
 7350SOL    HW229166   0.396   3.765   0.143 -0.4686 -0.5696  0.1117
 7350SOL    HW329167   0.446   3.698   0.017  0.0021  0.3927 -0.2192
 7350SOL    MW429168   0.458   3.752   0.084 -0.2574 -0.0937  0.2303
 7351SOL     OW29169   1.035   1.668   5.497 -0.2419 -0.2286  0.4891
 7351SOL    HW229170   0.992   1.748   5.469 -0.7863  0.5080  3.1460
 7351SOL    HW329171   0.964   1.604   5.506 -0.2240 -0.1906  0.9603
 7351SOL    MW429172   1.020   1.670   5.495 -0.3114 -0.1264  0.9018
 7352SOL     OW29173   3.414   1.604   4.374 -0.0715 -0.1274  0.2816
 7352SOL    HW229174   3.440   1.695   4.361 -2.6137  0.6042 -0.2423
 7352SOL    HW329175   3.364   1.605   4.456 -2.1829 -0.4940 -0.9296
 7352SOL    MW429176   3.411   1.616   4.383 -0.6855 -0.0792  0.0527
 7353SOL     OW29177   4.821   3.648   0.340  0.1951  0.1462  0.1429
 7353SOL    HW229178   4.740   3.620   0.297  1.0003 -0.9982 -0.7031
 7353SOL    HW329179   4.874   3.568   0.345  0.9738  0.7112  1.3785
 7353SOL    MW429180   4.817   3.634   0.335  0.4041  0.0698  0.1943
 7354SOL     OW29181   2.388   3.976   3.287  0.1823 -0.1916  0.5433
 7354SOL    HW229182   2.383   4.017   3.373 -0.5681  0.4532  0.2007
 7354SOL    HW329183   2.379   3.883   3.304  1.5128 -0.2094  1.2978
 7354SOL    MW429184   2.386   3.969   3.301  0.2589 -0.1088  0.5976
 7355SOL     OW29185   0.701   5.063   2.446 -0.2745 -0.3054 -0.3391
 7355SOL    HW229186   0.644   5.015   2.505  0.6460  1.0229  1.7470
 7355SOL    HW329187   0.787   5.062   2.489  0.1099  1.8898 -0.9129
 7355SOL    MW429188   0.705   5.057   2.459 -0.1023  0.1595 -0.1396
 7356SOL     OW29189   5.289   4.785   5.765  0.0069  0.3767  0.4418
 7356SOL    HW229190   5.378   4.822   5.762  0.9094 -1.6372  1.0872
 7356SOL    HW329191   5.244   4.837   5.831  1.0471  0.7235  0.8949
 7356SOL    MW429192   5.295   4.797   5.773  0.2632  0.1568  0.5867
 7357SOL     OW29193   6.171   5.628   5.630  0.1285  0.4028 -0.1538
 7357SOL    HW229194   6.211   5.551   5.590  2.4561  1.2333  0.3984
 7357SOL    HW329195   6.173   5.694   5.560  0.6448  0.7190  0.1492
 7357SOL    MW429196   6.177   5.627   5.615  0.5037  0.5541 -0.0409
 7358SOL     OW29197   5.120   4.177   3.007 -0.3442 -0.1320  0.2934
 7358SOL    HW229198   5.168   4.103   3.044 -0.2508 -0.5372 -0.6001
 7358SOL    HW329199   5.060   4.137   2.944  1.0446  0.6620 -1.6322
 7358SOL    MW429200   5.118   4.162   3.003 -0.1486 -0.0807 -0.0785
 7359SOL     OW29201   2.048   5.217   4.674  0.1547 -0.4496  0.3038
 7359SOL    HW229202   2.094   5.294   4.642  0.3534 -1.0300 -0.8672
 7359SOL    HW329203   2.113   5.172   4.728 -0.4564  0.9889  2.3369
 7359SOL    MW429204   2.063   5.221   4.677  0.1003 -0.3364  0.4175
 7360SOL     OW29205   1.501   2.102   0.991  0.2210  0.2480 -0.0972
 7360SOL    HW229206   1.535   2.188   0.965  0.2055 -0.2803 -2.0018
 7360SOL    HW329207   1.475   2.061   0.908 -0.5577 -1.2624  0.8663
 7360SOL    MW429208   1.502   2.108   0.976  0.1162 -0.0210 -0.2214
 7361SOL     OW29209   6.321   2.286   3.460 -0.5909 -0.1538  0.2524
 7361SOL    HW229210   6.286   2.375   3.451 -0.7639 -0.3707 -1.7106
 7361SOL    HW329211   6.326   2.272   3.554  2.0076  2.9061  0.7535
 7361SOL    MW429212   6.317   2.296   3.471 -0.2709  0.2213  0.0596
 7362SOL     OW29213   1.376   1.465   2.743 -0.2534  0.0725 -0.1359
 7362SOL    HW229214   1.294   1.425   2.716 -0.1111  0.9142 -1.9643
 7362SOL    HW329215   1.417   1.399   2.800 -3.2677  0.6028  3.0518
 7362SOL    MW429216   1.371   1.451   2.747 -0.6324  0.2535  0.0434
 7363SOL     OW29217   1.233   0.124   2.068 -0.2634 -1.0710 -0.4573
 7363SOL    HW229218   1.304   0.061   2.060 -1.1975 -2.0942 -0.9078
 7363SOL    HW329219   1.248   0.184   1.994 -0.0826 -1.5020 -0.7807
 7363SOL    MW429220   1.245   0.124   2.057 -0.3628 -1.2629 -0.5594
 7364SOL     OW29221   6.388   6.140   2.751  0.3413 -0.0418  0.0800
 7364SOL    HW229222   6.483   6.133   2.761  0.2676 -1.4329  0.0744
 7364SOL    HW329223   6.360   6.191   2.827  0.9938 -0.5138  0.6620
 7364SOL    MW429224   6.397   6.146   2.762  0.4177 -0.2876  0.1561
 7365SOL     OW29225   2.820   0.959   0.457  0.1298  0.3585  0.2453
 7365SOL    HW229226   2.800   0.946   0.364 -0.8289  0.7695  0.3806
 7365SOL    HW329227   2.898   0.906   0.473 -0.9018 -1.4063 -0.3011
 7365SOL    MW429228   2.827   0.951   0.447 -0.1328  0.1799  0.1911
 7366SOL     OW29229   4.608   0.680   3.986  0.3599 -0.3838 -0.0557
 7366SOL    HW229230   4.678   0.617   3.971  0.7401 -0.1278  0.5998
 7366SOL    HW329231   4.618   0.707   4.078 -1.9094 -1.9597  0.7464
 7366SOL    MW429232   4.618   0.676   3.997  0.1106 -0.5579  0.1366
 7367SOL     OW29233   0.642   3.355   6.370  0.6661  0.5060  0.2041
 7367SOL    HW229234   0.604   3.382   6.453 -2.0914 -3.7328  0.6022
 7367SOL    HW329235   0.576   3.380   6.305  0.3625 -0.8176 -0.0099
 7367SOL    MW429236   0.628   3.362   6.372  0.2622 -0.2279  0.2284
 7368SOL     OW29237   2.687   0.128   0.474 -0.2362 -0.0233 -0.1699
 7368SOL    HW229238   2.638   0.061   0.521 -0.8577  0.5504  0.0153
 7368SOL    HW329239   2.710   0.192   0.541  0.6640 -0.2237 -0.2811
 7368SOL    MW429240   2.683   0.128   0.489 -0.1994  0.0259 -0.1602
 7369SOL     OW29241   2.860   1.877   2.983 -0.1532  0.0853 -0.4050
 7369SOL    HW229242   2.778   1.830   2.998  0.1264 -0.4571 -0.5565
 7369SOL    HW329243   2.901   1.882   3.070 -0.4633  0.5748 -0.2880
 7369SOL    MW429244   2.855   1.871   2.997 -0.1572  0.0783 -0.4096
 7370SOL     OW29245   5.121   2.433   0.291  0.5923 -0.2727  0.4410
 7370SOL    HW229246   5.060   2.494   0.251 -0.1048 -0.9371  0.4712
 7370SOL    HW329247   5.128   2.360   0.229 -0.1188 -1.0788  1.2659
 7370SOL    MW429248   5.114   2.431   0.278  0.4065 -0.4667  0.5538
 7371SOL     OW29249   6.166   1.433   5.131  0.5799  0.5835  0.6785
 7371SOL    HW229250   6.262   1.437   5.122  0.4773  0.7960 -0.6806
 7371SOL    HW329251   6.147   1.486   5.208  1.6444 -0.5999  1.8025
 7371SOL    MW429252   6.176   1.441   5.140  0.7068  0.4554  0.6475
 7372SOL     OW29253   1.743   3.218   3.826  0.7262 -0.2440  0.0019
 7372SOL    HW229254   1.707   3.287   3.771 -0.1891  1.1328  2.1788
 7372SOL    HW329255   1.812   3.261   3.876  1.0018 -1.2329  0.4867
 7372SOL    MW429256   1.747   3.233   3.826  0.6418 -0.1928  0.3531
 7373SOL     OW29257   2.590   1.757   3.059  0.0688 -0.0947  0.4452
 7373SOL    HW229258   2.585   1.736   2.966 -0.2138 -3.4971  1.0864
 7373SOL    HW329259   2.499   1.776   3.084 -0.0098 -0.1284  0.1903
 7373SOL    MW429260   2.577   1.757   3.050  0.0211 -0.5481  0.4962
 7374SOL     OW29261   4.837   5.744   4.659  0.2991  0.0729 -0.1058
 7374SOL    HW229262   4.821   5.825   4.708 -0.4366  0.1397 -0.4387
 7374SOL    HW329263   4.869   5.682   4.724 -1.1652 -0.0017  0.5842
 7374SOL    MW429264   4.839   5.747   4.674  0.0088  0.0719 -0.0587
 7375SOL     OW29265   0.760   3.818   1.784  0.1624 -0.6919  0.1513
 7375SOL    HW229266   0.704   3.820   1.862  0.2645 -1.6600  0.2648
 7375SOL    HW329267   0.849   3.818   1.820  0.2081 -1.2938  0.0474
 7375SOL    MW429268   0.764   3.818   1.799  0.1819 -0.8990  0.1526
 7376SOL     OW29269   4.026   2.990   6.027 -0.2405 -0.0441 -0.0919
 7376SOL    HW229270   4.001   2.900   6.049 -2.4077  0.7892  1.2695
 7376SOL    HW329271   4.105   3.007   6.078 -0.2447 -0.9482  0.2263
 7376SOL    MW429272   4.033   2.981   6.037 -0.5270 -0.0535  0.1297
 7377SOL     OW29273   2.468   1.513   5.393 -0.4445  0.1537  0.3661
 7377SOL    HW229274   2.471   1.488   5.485 -2.0623 -0.9122  0.1791
 7377SOL    HW329275   2.540   1.465   5.352  0.2123  0.5444  1.0413
 7377SOL    MW429276   2.478   1.504   5.400 -0.5713  0.0646  0.4305
 7378SOL     OW29277   6.016   0.844   2.273  0.4660 -0.1778 -0.4615
 7378SOL    HW229278   6.100   0.802   2.253  0.4546 -0.3904 -0.0709
 7378SOL    HW329279   5.969   0.845   2.190  0.9814  0.2328 -0.7619
 7378SOL    MW429280   6.021   0.839   2.260  0.5325 -0.1517 -0.4496
 7379SOL     OW29281   2.229   3.391   6.128 -0.6123  0.2804 -0.0322
 7379SOL    HW229282   2.173   3.351   6.061  0.0058 -0.2408 -0.2572
 7379SOL    HW329283   2.185   3.372   6.211  0.2876 -2.0545 -0.0043
 7379SOL    MW429284   2.216   3.383   6.130 -0.4120 -0.0964 -0.0582
 7380SOL     OW29285   4.913   2.955   3.404 -0.0932  0.2526  0.4477
 7380SOL    HW229286   4.837   3.013   3.412  0.2638  1.0596 -1.2948
 7380SOL    HW329287   4.888   2.892   3.337  0.4052 -0.0898  0.5768
 7380SOL    MW429288   4.900   2.955   3.396  0.0197  0.3139  0.2349
 7381SOL     OW29289   5.049   1.902   1.794 -0.3538  0.0256  0.3594
 7381SOL    HW229290   5.041   1.912   1.700  0.4980  0.2038  0.2996
 7381SOL    HW329291   5.028   1.810   1.810  0.6363 -0.3006 -0.1512
 7381SOL    MW429292   5.045   1.891   1.784 -0.1108  0.0061  0.2841
 7382SOL     OW29293   6.273   1.621   5.588 -0.3755  0.3810  0.1414
 7382SOL    HW229294   6.337   1.579   5.530 -1.4619  0.2613 -1.0404
 7382SOL    HW329295   6.226   1.548   5.628  0.2029  0.4674  0.9848
 7382SOL    MW429296   6.275   1.606   5.585 -0.4425  0.3766  0.0968
 7383SOL     OW29297   0.244   4.825   1.254  0.8327 -0.8822  0.4986
 7383SOL    HW229298   0.187   4.786   1.321  0.3304  1.4706  1.5394
 7383SOL    HW329299   0.318   4.861   1.303  1.4444 -0.8194 -0.4495
 7383SOL    MW429300   0.246   4.824   1.269  0.8472 -0.5635  0.5108
 7384SOL     OW29301   4.385   1.779   4.242 -0.5627 -0.1689 -0.0649
 7384SOL    HW229302   4.365   1.696   4.199 -2.1077  0.3520 -0.4155
 7384SOL    HW329303   4.308   1.833   4.228  0.4396  1.3806  0.0768
 7384SOL    MW429304   4.373   1.775   4.235 -0.6343  0.1042 -0.0924
 7385SOL     OW29305   1.515   1.012   0.936 -0.1463  0.3244 -0.2699
 7385SOL    HW229306   1.511   1.091   0.990  0.5822 -0.6067  1.2034
 7385SOL    HW329307   1.538   0.942   0.997 -0.8575 -1.0584 -1.5239
 7385SOL    MW429308   1.517   1.013   0.951 -0.1440  0.0191 -0.2410
 7386SOL     OW29309   5.461   1.921   0.163 -0.4824  0.5848 -0.1236
 7386SOL    HW229310   5.403   1.848   0.142 -0.5019  0.5261  0.1222
 7386SOL    HW329311   5.403   1.987   0.201 -0.1886 -0.0935  1.6207
 7386SOL    MW429312   5.446   1.920   0.165 -0.4463  0.4876  0.1390
 7387SOL     OW29313   4.636   0.041   3.696 -0.6191  0.4735 -0.0434
 7387SOL    HW229314   4.695  -0.019   3.741 -0.7085  0.8760  0.6233
 7387SOL    HW329315   4.606   0.101   3.764 -1.1160  0.8121 -0.5499
 7387SOL    MW429316   4.639   0.041   3.711 -0.6964  0.5713 -0.0223
 7388SOL     OW29317   4.063   3.603   4.495  0.0392  0.8396  0.0091
 7388SOL    HW229318   4.074   3.554   4.576  0.9597  0.1912 -0.4812
 7388SOL    HW329319   4.149   3.599   4.453 -0.8806 -0.4508 -1.8885
 7388SOL    MW429320   4.076   3.596   4.500  0.0393  0.5838 -0.3059
 7389SOL     OW29321   3.537   4.675   0.713  0.1351 -1.1323 -0.0403
 7389SOL    HW229322   3.585   4.658   0.632 -0.2031  1.1071 -0.7930
 7389SOL    HW329323   3.527   4.589   0.754  1.9960 -2.0732 -1.4123
 7389SOL    MW429324   3.542   4.661   0.707  0.3360 -0.9610 -0.3206
 7390SOL     OW29325   0.930   1.470   0.352 -0.0346  0.0459 -0.4242
 7390SOL    HW229326   0.954   1.384   0.316 -1.6606 -1.0984  1.0625
 7390SOL    HW329327   0.958   1.466   0.443 -0.2152  1.0574 -0.3182
 7390SOL    MW429328   0.937   1.458   0.359 -0.2730  0.0284 -0.2141
 7391SOL     OW29329   0.487   2.616   0.679 -0.2240 -0.1817  0.7194
 7391SOL    HW229330   0.398   2.634   0.649 -0.4239 -1.1570  0.6983
 7391SOL    HW329331   0.475   2.562   0.757  0.3627 -2.1911 -0.5106
 7391SOL    MW429332   0.474   2.611   0.686 -0.1729 -0.5755  0.5543
 7392SOL     OW29333   4.226   0.797   2.942  0.2319 -0.6949 -0.1339
 7392SOL    HW229334   4.173   0.728   2.902  0.8786 -0.9530 -0.5588
 7392SOL    HW329335   4.295   0.750   2.988  2.0702 -0.3456 -2.3379
 7392SOL    MW429336   4.228   0.782   2.942  0.5598 -0.6828 -0.4808
 7393SOL     OW29337   2.302   1.417   3.114  0.4360 -0.1316  0.0360
 7393SOL    HW229338   2.395   1.439   3.110  1.1419 -2.9551 -3.9733
 7393SOL    HW329339   2.299   1.322   3.122 -2.1882 -0.0677  0.9859
 7393SOL    MW429340   2.314   1.408   3.115  0.1829 -0.4957 -0.3676
 7394SOL     OW29341   1.752   0.874   2.882 -0.0664 -0.0046 -0.1294
 7394SOL    HW229342   1.790   0.959   2.903 -0.9639  0.2225  0.6215
 7394SOL    HW329343   1.792   0.850   2.798 -0.2081  1.4052 -0.6275
 7394SOL    MW429344   1.762   0.882   2.874 -0.2035  0.2114 -0.0960
 7395SOL     OW29345   5.720   5.965   1.043  0.6472  0.5877 -0.2916
 7395SOL    HW229346   5.788   6.032   1.038  0.6185  1.0026  3.0952
 7395SOL    HW329347   5.769   5.882   1.045  0.9016  0.7344 -0.3078
 7395SOL    MW429348   5.736   5.963   1.042  0.6770  0.6618  0.1531
 7396SOL     OW29349   1.828   4.997   3.737 -0.4931  0.2101 -0.2251
 7396SOL    HW229350   1.790   5.054   3.670 -1.1215 -0.7905 -0.7510
 7396SOL    HW329351   1.826   4.910   3.697 -0.2466 -0.2922  0.8405
 7396SOL    MW429352   1.822   4.993   3.723 -0.5435  0.0118 -0.1539
 7397SOL     OW29353   2.393   3.686   3.328  0.5223  0.0128 -0.6910
 7397SOL    HW229354   2.332   3.657   3.260 -0.3386  0.7415 -0.2418
 7397SOL    HW329355   2.343   3.677   3.409  1.1213  0.3461 -0.2865
 7397SOL    MW429356   2.378   3.681   3.330  0.4878  0.1529 -0.5784
 7398SOL     OW29357   4.447   4.886   5.180  0.3566 -0.1778  0.2368
 7398SOL    HW229358   4.537   4.907   5.157  0.1215  1.2736  0.5320
 7398SOL    HW329359   4.396   4.908   5.102  0.2923 -1.4029 -0.0826
 7398SOL    MW429360   4.452   4.892   5.167  0.3171 -0.1479  0.2336
 7399SOL     OW29361   2.126   2.456   3.414  0.1080 -0.2197  0.0649
 7399SOL    HW229362   2.199   2.424   3.362 -0.8828 -2.4770 -0.0137
 7399SOL    HW329363   2.054   2.395   3.397 -1.4310  1.1861  1.1259
 7399SOL    MW429364   2.126   2.444   3.405 -0.2258 -0.3320  0.1945
 7400SOL     OW29365   3.429   2.662   0.695 -0.2057  0.1112 -0.3829
 7400SOL    HW229366   3.411   2.625   0.781  0.9652  1.1169  0.3331
 7400SOL    HW329367   3.512   2.622   0.668  1.1352  2.1471  0.4486
 7400SOL    MW429368   3.438   2.652   0.703  0.1257  0.5125 -0.1787
 7401SOL     OW29369   6.151   1.096   0.365 -0.8445  0.1920  0.1877
 7401SOL    HW229370   6.185   1.014   0.400 -1.1830  0.6362  1.6282
 7401SOL    HW329371   6.057   1.093   0.384 -0.7329  1.2465  1.0086
 7401SOL    MW429372   6.143   1.085   0.372 -0.8744  0.3897  0.4861
 7402SOL     OW29373   3.383   4.716   4.789 -1.0832 -0.2285 -0.6865
 7402SOL    HW229374   3.363   4.806   4.813 -1.6570 -0.3880 -0.5476
 7402SOL    HW329375   3.310   4.665   4.823  0.4834 -1.1207  1.6088
 7402SOL    MW429376   3.371   4.721   4.797 -0.9522 -0.3673 -0.3653
 7403SOL     OW29377   1.730   6.011   4.586 -0.1776  0.2569 -0.3071
 7403SOL    HW229378   1.788   6.082   4.559 -2.1972  1.4810 -1.6383
 7403SOL    HW329379   1.719   5.958   4.506 -0.6656 -0.1107 -0.0006
 7403SOL    MW429380   1.736   6.013   4.572 -0.5084  0.3699 -0.4423
 7404SOL     OW29381   3.905   6.033   5.185 -0.1699  0.2720  0.1543
 7404SOL    HW229382   3.944   5.946   5.187  1.9479  1.0813 -1.6878
 7404SOL    HW329383   3.889   6.055   5.277  1.4363 -1.1245  0.8105
 7404SOL    MW429384   3.908   6.024   5.197  0.3214  0.1945 -0.0022
 7405SOL     OW29385   6.259   4.504   0.621  0.2742  0.0553 -0.3688
 7405SOL    HW229386   6.183   4.561   0.614 -1.3640 -1.9605 -0.0729
 7405SOL    HW329387   6.315   4.546   0.687 -0.7869  1.3506 -0.2515
 7405SOL    MW429388   6.256   4.517   0.629 -0.0819 -0.0398 -0.3143
 7406SOL     OW29389   1.741   1.801   4.251 -0.3930  0.9961  0.6011
 7406SOL    HW229390   1.702   1.727   4.205 -0.7591  0.9856  0.9222
 7406SOL    HW329391   1.825   1.769   4.283  0.2155  1.2260 -0.7043
 7406SOL    MW429392   1.747   1.787   4.249 -0.3610  1.0250  0.4712
 7407SOL     OW29393   2.947   3.938   3.517 -0.0755  0.0671  0.3630
 7407SOL    HW229394   2.891   4.016   3.522 -0.1734 -0.0795  1.7822
 7407SOL    HW329395   2.945   3.914   3.424  0.6341  2.2498 -0.3017
 7407SOL    MW429396   2.940   3.945   3.505  0.0052  0.3357  0.4626
 7408SOL     OW29397   3.120   5.946   3.056 -0.3233 -0.1208 -0.0101
 7408SOL    HW229398   3.059   5.929   3.128 -1.2544  0.7217 -0.5683
 7408SOL    HW329399   3.194   5.991   3.097 -0.5258 -0.2712  0.5260
 7408SOL    MW429400   3.122   5.950   3.071 -0.4728 -0.0295 -0.0130
 7409SOL     OW29401   5.635   3.798   4.594  0.3692  0.2887 -0.3266
 7409SOL    HW229402   5.657   3.755   4.512  0.8835 -0.1290  0.0237
 7409SOL    HW329403   5.540   3.787   4.603  0.3148  0.3092 -0.8404
 7409SOL    MW429404   5.625   3.791   4.584  0.4299  0.2363 -0.3482
 7410SOL     OW29405   1.086   2.472   3.046  0.5198  0.2892 -0.2463
 7410SOL    HW229406   1.048   2.480   3.134  0.7322  0.3600 -0.1600
 7410SOL    HW329407   1.176   2.443   3.062  0.4106 -0.1870 -0.4632
 7410SOL    MW429408   1.092   2.469   3.060  0.5334  0.2357 -0.2636
 7411SOL     OW29409   0.190   4.106   5.325  0.6173 -0.4139 -0.5224
 7411SOL    HW229410   0.282   4.094   5.301  0.7713  0.2319 -0.2806
 7411SOL    HW329411   0.146   4.027   5.293  1.7247 -2.1566  1.9157
 7411SOL    MW429412   0.196   4.094   5.318  0.7838 -0.5587 -0.1688
 7412SOL     OW29413   0.972   1.969   6.365 -0.2049 -0.4521  0.1952
 7412SOL    HW229414   1.059   1.944   6.396  0.1313 -0.2951 -0.6006
 7412SOL    HW329415   0.925   1.996   6.444  0.4326 -0.6458  0.6436
 7412SOL    MW429416   0.977   1.969   6.380 -0.0764 -0.4569  0.1494
 7413SOL     OW29417   3.979   2.001   1.638  0.3922  0.4766  0.5886
 7413SOL    HW229418   4.071   1.982   1.658  0.2847  0.6411  1.2707
 7413SOL    HW329419   3.947   1.921   1.596  0.2473 -0.4612  2.3940
 7413SOL    MW429420   3.987   1.988   1.635  0.3589  0.3746  0.9168
 7414SOL     OW29421   0.795   2.983   3.997 -0.4769 -0.2694 -0.3697
 7414SOL    HW229422   0.823   3.034   4.073 -0.1263  0.0698 -0.7242
 7414SOL    HW329423   0.772   3.049   3.932  0.4176 -0.5509 -0.9916
 7414SOL    MW429424   0.796   2.999   3.999 -0.3127 -0.2618 -0.4985
 7415SOL     OW29425   6.044   2.221   0.459 -0.1053 -0.1659 -0.1173
 7415SOL    HW229426   6.047   2.132   0.494 -0.1258  0.2320  0.9408
 7415SOL    HW329427   6.060   2.277   0.535  3.6568  0.6749 -1.3202
 7415SOL    MW429428   6.046   2.217   0.474  0.3883 -0.0025 -0.1364
 7416SOL     OW29429   1.011   5.390   5.388 -0.7474  0.1263  0.3214
 7416SOL    HW229430   1.101   5.388   5.422 -0.3987 -0.9898 -0.5956
 7416SOL    HW329431   1.021   5.415   5.296 -1.2879 -0.9424 -0.0335
 7416SOL    MW429432   1.024   5.393   5.380 -0.7727 -0.1620  0.1536
 7417SOL     OW29433   3.208   2.146   3.029 -0.7623 -0.7497 -0.2517
 7417SOL    HW229434   3.127   2.188   3.000 -0.4452  1.0964  1.3051
 7417SOL    HW329435   3.204   2.150   3.124  1.5056  0.1862 -0.1368
 7417SOL    MW429436   3.197   2.152   3.038 -0.4213 -0.3826 -0.0311
 7418SOL     OW29437   0.820   4.682   0.833  0.2289  0.2111 -0.6198
 7418SOL    HW229438   0.770   4.681   0.751 -2.7778  0.3451  1.0487
 7418SOL    HW329439   0.813   4.592   0.866  1.3365  0.1754 -0.4597
 7418SOL    MW429440   0.812   4.670   0.827 -0.0217  0.2241 -0.3785
 7419SOL     OW29441   4.344   2.823   6.365 -0.5277  0.7203  0.4266
 7419SOL    HW229442   4.372   2.901   6.414 -0.4237  0.6032  0.5531
 7419SOL    HW329443   4.425   2.775   6.347 -0.3871  1.4822 -1.1182
 7419SOL    MW429444   4.358   2.827   6.369 -0.4954  0.8054  0.2395
 7420SOL     OW29445   0.423   1.135   2.650 -0.2305  0.2984 -0.0995
 7420SOL    HW229446   0.383   1.056   2.684  1.0907  0.0536  1.0000
 7420SOL    HW329447   0.509   1.139   2.693  0.9883  0.7252 -2.4059
 7420SOL    MW429448   0.429   1.125   2.660  0.1046  0.3224 -0.2587
 7421SOL     OW29449   3.609   0.595   2.051  0.0736  0.0678 -0.7733
 7421SOL    HW229450   3.675   0.662   2.033  1.8209 -1.7964 -1.8169
 7421SOL    HW329451   3.648   0.540   2.119 -1.1954 -0.0751 -0.1255
 7421SOL    MW429452   3.623   0.596   2.058  0.1367 -0.1970 -0.8255
 7422SOL     OW29453   2.646   3.695   2.635  0.2814 -0.3261  0.3439
 7422SOL    HW229454   2.621   3.614   2.590 -0.0883 -0.5264  0.8956
 7422SOL    HW329455   2.693   3.666   2.712  0.6337  0.0069  0.2548
 7422SOL    MW429456   2.649   3.681   2.639  0.2791 -0.3086  0.4050
 7423SOL     OW29457   4.148   3.493   5.870 -0.4081  0.2964  0.3611
 7423SOL    HW229458   4.180   3.583   5.869 -0.0776  0.1779  0.1133
 7423SOL    HW329459   4.227   3.439   5.866 -0.6173 -0.0014  0.1807
 7423SOL    MW429460   4.163   3.498   5.869 -0.3921  0.2415  0.3046
 7424SOL     OW29461   1.920   5.036   0.011  0.6682 -0.6315 -0.2673
 7424SOL    HW229462   1.891   4.980  -0.062  2.2768 -0.1078 -1.3633
 7424SOL    HW329463   2.015   5.026   0.013  0.5661 -2.0482  3.0095
 7424SOL    MW429464   1.929   5.028   0.001  0.8669 -0.7493  0.0204
 7425SOL     OW29465   2.098   2.286   2.241  0.6121 -0.5200  0.3428
 7425SOL    HW229466   2.167   2.254   2.299 -0.4692 -1.0544  1.3796
 7425SOL    HW329467   2.124   2.256   2.154  2.3956  0.5085  0.4737
 7425SOL    MW429468   2.111   2.278   2.237  0.7048 -0.4549  0.4969
 7426SOL     OW29469   0.716   5.242   0.232 -0.0703  0.4455  0.2590
 7426SOL    HW229470   0.793   5.298   0.237  1.1820 -1.2387  0.7006
 7426SOL    HW329471   0.748   5.160   0.194 -1.7704 -0.1095 -0.0643
 7426SOL    MW429472   0.730   5.239   0.228 -0.1294  0.1501  0.2746
 7427SOL     OW29473   1.198   0.286   3.561  0.1359 -0.0480  0.3356
 7427SOL    HW229474   1.266   0.220   3.578  0.8692  0.4916 -0.4177
 7427SOL    HW329475   1.130   0.237   3.514  2.1075  0.3084 -3.2045
 7427SOL    MW429476   1.198   0.271   3.557  0.4928  0.0702 -0.2308
 7428SOL     OW29477   2.929   0.285   6.011 -0.6005  0.5118  0.2634
 7428SOL    HW229478   2.963   0.301   6.100  0.1954  1.6261 -0.2138
 7428SOL    HW329479   2.880   0.203   6.019 -0.5835  0.6044  1.7428
 7428SOL    MW429480   2.927   0.276   6.024 -0.4932  0.6710  0.3956
 7429SOL     OW29481   4.384   0.951   0.672 -0.0763 -0.7156 -0.0790
 7429SOL    HW229482   4.414   0.900   0.597  1.8250 -0.8102  0.6969
 7429SOL    HW329483   4.382   1.041   0.640 -1.5678 -0.9838 -0.8790
 7429SOL    MW429484   4.388   0.956   0.658 -0.0222 -0.7635 -0.0822
 7430SOL     OW29485   4.336   5.970   2.982  0.4862 -0.0326 -0.1706
 7430SOL    HW229486   4.317   5.995   2.892  1.2241 -0.1109 -0.3609
 7430SOL    HW329487   4.342   6.053   3.029 -1.9188 -0.0577  0.2631
 7430SOL    MW429488   4.334   5.984   2.976  0.2663 -0.0462 -0.1385
 7431SOL     OW29489   1.518   0.691   0.162 -0.7142 -0.2879 -0.1275
 7431SOL    HW229490   1.436   0.730   0.131 -1.9041 -2.1687  0.4871
 7431SOL    HW329491   1.505   0.681   0.256 -1.1167 -3.3840 -0.3949
 7431SOL    MW429492   1.505   0.695   0.170 -0.9243 -0.9445 -0.0817
 7432SOL     OW29493   3.278   1.719   4.631 -0.5569  0.3635 -0.1949
 7432SOL    HW229494   3.251   1.801   4.673 -1.1888 -0.3930  0.9344
 7432SOL    HW329495   3.291   1.658   4.703 -1.6414 -0.9767 -1.0778
 7432SOL    MW429496   3.276   1.722   4.646 -0.7834  0.0869 -0.1624
 7433SOL     OW29497   4.880   5.960   4.299 -0.3405 -0.4018  0.3037
 7433SOL    HW229498   4.854   5.976   4.208  0.9840 -0.1253 -0.0571
 7433SOL    HW329499   4.958   6.015   4.311  0.5653 -1.7987  1.0384
 7433SOL    MW429500   4.887   5.970   4.288 -0.0462 -0.5496  0.3531
 7434SOL     OW29501   1.831   1.667   2.344  0.9400 -0.3451 -0.3828
 7434SOL    HW229502   1.886   1.681   2.268  0.8245 -0.3223 -0.4630
 7434SOL    HW329503   1.843   1.746   2.398  1.0279 -0.3653 -0.3736
 7434SOL    MW429504   1.840   1.680   2.341  0.9363 -0.3448 -0.3922
 7435SOL     OW29505   3.632   6.319   4.724  0.6951  0.2313  0.3056
 7435SOL    HW229506   3.642   6.296   4.817 -0.1019 -2.5509 -0.1984
 7435SOL    HW329507   3.694   6.262   4.679 -0.9496 -0.5844 -1.0374
 7435SOL    MW429508   3.642   6.308   4.730  0.3730 -0.2434  0.0619
 7436SOL     OW29509   4.649   5.376   0.314  0.4156  0.3918 -0.3058
 7436SOL    HW229510   4.602   5.446   0.268 -0.0247  0.2633 -0.0629
 7436SOL    HW329511   4.739   5.383   0.283  0.7046  1.9662  0.7956
 7436SOL    MW429512   4.654   5.386   0.304  0.3956  0.5825 -0.1285
 7437SOL     OW29513   5.458   6.351   1.540 -0.9554 -0.0506  0.0077
 7437SOL    HW229514   5.471   6.290   1.468 -1.0202  0.5752 -0.5460
 7437SOL    HW329515   5.432   6.433   1.498 -0.0032  0.6143  0.6623
 7437SOL    MW429516   5.457   6.354   1.525 -0.8383  0.1197  0.0210
 7438SOL     OW29517   3.426   4.905   1.602  0.6745  0.2887  0.0500
 7438SOL    HW229518   3.414   4.917   1.696 -0.7339  1.1273 -0.2151
 7438SOL    HW329519   3.405   4.813   1.586  1.2373  0.0579  0.5845
 7438SOL    MW429520   3.422   4.894   1.612  0.5629  0.3689  0.0855
 7439SOL     OW29521   4.624   1.820   5.838  0.1726 -0.5843  0.4437
 7439SOL    HW229522   4.543   1.787   5.877 -0.4109 -0.2897 -0.5022
 7439SOL    HW329523   4.598   1.857   5.754  1.0268  1.1167  0.8892
 7439SOL    MW429524   4.610   1.820   5.832  0.2083 -0.3210  0.3777
 7440SOL     OW29525   3.009   5.518   1.384  0.4892 -0.2389  0.5473
 7440SOL    HW229526   3.075   5.469   1.335 -1.7624 -0.6109 -2.4293
 7440SOL    HW329527   3.022   5.609   1.357  0.4900 -0.1492  0.8492
 7440SOL    MW429528   3.019   5.523   1.374  0.1922 -0.2762  0.1944
 7441SOL     OW29529   5.052   1.384   3.265 -0.3559 -0.1722 -0.0974
 7441SOL    HW229530   4.981   1.408   3.326  0.1861 -0.0146  0.4873
 7441SOL    HW329531   5.127   1.366   3.322 -0.1274 -1.0637 -0.6704
 7441SOL    MW429532   5.053   1.385   3.281 -0.2543 -0.2690 -0.0959
 7442SOL     OW29533   1.501   4.214   0.655 -0.1038  0.7354 -0.0466
 7442SOL    HW229534   1.421   4.190   0.703  0.6940 -1.3398  0.3461
 7442SOL    HW329535   1.487   4.180   0.567  0.8952 -1.0258  0.4207
 7442SOL    MW429536   1.489   4.206   0.650  0.1333  0.2292  0.0669
 7443SOL     OW29537   3.177   0.974   0.361  0.3107  0.0590  0.5323
 7443SOL    HW229538   3.218   0.998   0.278  1.1325  1.3240  1.2858
 7443SOL    HW329539   3.248   0.939   0.414 -0.0047  0.2331  1.0747
 7443SOL    MW429540   3.192   0.972   0.357  0.3775  0.2488  0.7033
 7444SOL     OW29541   2.125   0.954   0.727 -0.4276  0.4212  0.2630
 7444SOL    HW229542   2.115   0.966   0.822  0.3420  1.3728  0.2346
 7444SOL    HW329543   2.196   1.012   0.703  0.4918 -1.0180 -0.6547
 7444SOL    MW429544   2.133   0.963   0.736 -0.2048  0.3569  0.1382
 7445SOL     OW29545   5.002   2.367   1.017  0.0433  0.0441  0.7156
 7445SOL    HW229546   5.052   2.329   1.089  1.4360 -0.2048 -0.3415
 7445SOL    HW329547   5.065   2.374   0.945 -1.7251 -1.4596 -1.1050
 7445SOL    MW429548   5.017   2.363   1.017 -0.0063 -0.1872  0.3359
 7446SOL     OW29549   6.114   1.995   5.475 -0.3895 -0.4114 -0.5014
 7446SOL    HW229550   6.054   1.955   5.411  0.0304  3.5606 -3.8655
 7446SOL    HW329551   6.061   2.007   5.554 -2.3180 -1.8920 -1.4966
 7446SOL    MW429552   6.099   1.992   5.477 -0.5885 -0.0827 -1.0766
 7447SOL     OW29553   1.186   4.598   2.413 -0.0086  0.2859 -0.6442
 7447SOL    HW229554   1.190   4.548   2.331 -0.7503 -0.3611 -0.2888
 7447SOL    HW329555   1.146   4.682   2.388  1.0315  0.6398 -1.1960
 7447SOL    MW429556   1.182   4.603   2.399  0.0308  0.2472 -0.6701
 7448SOL     OW29557   2.949   2.592   3.861  0.5161 -0.2662 -0.4257
 7448SOL    HW229558   3.008   2.664   3.837 -0.2583  1.2685  1.9390
 7448SOL    HW329559   2.868   2.636   3.888  0.1545 -1.9742  1.4941
 7448SOL    MW429560   2.946   2.607   3.861  0.3662 -0.2891  0.1396
 7449SOL     OW29561   1.829   0.832   3.157  0.4605  0.2129  0.1499
 7449SOL    HW229562   1.863   0.812   3.070 -1.3572 -0.4426 -0.4647
 7449SOL    HW329563   1.827   0.748   3.202  0.2548  0.3422  0.3851
 7449SOL    MW429564   1.833   0.818   3.151  0.1936  0.1435  0.0998
 7450SOL     OW29565   0.191   6.383   4.501 -0.0999  0.0695 -0.1711
 7450SOL    HW229566   0.156   6.433   4.575  0.9193  0.4501  0.0837
 7450SOL    HW329567   0.127   6.392   4.432 -1.0552 -0.2474  0.6518
 7450SOL    MW429568   0.178   6.391   4.502 -0.0915  0.0779 -0.0289
 7451SOL     OW29569   3.150   1.809   5.476  0.0415  0.0395  0.1746
 7451SOL    HW229570   3.127   1.777   5.564 -0.0915  0.6696  0.3748
 7451SOL    HW329571   3.100   1.890   5.466  0.2915  0.1309 -0.3659
 7451SOL    MW429572   3.140   1.815   5.486  0.0569  0.1347  0.1297
 7452SOL     OW29573   1.710   2.844   3.163  0.0668  0.3832 -0.5184
 7452SOL    HW229574   1.649   2.904   3.206  1.6788  2.9461 -1.6397
 7452SOL    HW329575   1.668   2.822   3.080 -1.9521 -2.7168  1.0816
 7452SOL    MW429576   1.696   2.849   3.158  0.0131  0.3123 -0.4552
 7453SOL     OW29577   5.130   3.298   1.602 -0.3334 -0.1105  0.0704
 7453SOL    HW229578   5.112   3.392   1.605 -0.0439 -0.0744  0.9491
 7453SOL    HW329579   5.158   3.282   1.512 -0.3725  0.6452 -0.0846
 7453SOL    MW429580   5.131   3.309   1.591 -0.3003 -0.0060  0.1659
 7454SOL     OW29581   2.793   5.910   0.656 -0.2474 -0.1514 -0.2675
 7454SOL    HW229582   2.882   5.946   0.663 -0.1719 -0.3179 -0.3548
 7454SOL    HW329583   2.787   5.847   0.728 -0.8809  1.0641  0.7909
 7454SOL    MW429584   2.804   5.907   0.667 -0.3210 -0.0130 -0.1394
 7455SOL     OW29585   4.942   5.246   1.171 -0.4140  0.4510 -0.4727
 7455SOL    HW229586   4.869   5.209   1.121 -0.9302  0.4739  0.2406
 7455SOL    HW329587   5.015   5.185   1.156 -0.7943  0.0228 -0.5948
 7455SOL    MW429588   4.942   5.233   1.162 -0.5323  0.3975 -0.3947
 7456SOL     OW29589   3.856   1.812   3.839  0.2003 -0.5859  0.1075
 7456SOL    HW229590   3.831   1.797   3.748 -1.4269  3.3290 -0.2854
 7456SOL    HW329591   3.791   1.764   3.890 -1.5675  0.6392 -0.8997
 7456SOL    MW429592   3.844   1.804   3.834 -0.2477  0.0923 -0.0772
 7457SOL     OW29593   4.250   4.317   5.320 -0.4533 -0.0585  0.0789
 7457SOL    HW229594   4.184   4.276   5.375 -0.6776  1.5434  1.0809
 7457SOL    HW329595   4.205   4.391   5.279  0.7307  1.2548  1.0123
 7457SOL    MW429596   4.236   4.321   5.322 -0.3267  0.3262  0.3342
 7458SOL     OW29597   0.532   2.038   3.580 -0.1290 -0.2522  0.3871
 7458SOL    HW229598   0.566   2.034   3.669 -0.1168  1.5762  0.5104
 7458SOL    HW329599   0.604   2.073   3.528 -0.7679  0.5877  0.0450
 7458SOL    MW429600   0.546   2.042   3.585 -0.2117  0.0998  0.3582
 7459SOL     OW29601   4.424   1.527   5.758 -0.6099  0.1512  0.7486
 7459SOL    HW229602   4.397   1.613   5.791 -1.2682  0.0851  0.3991
 7459SOL    HW329603   4.436   1.474   5.837 -3.1208 -0.2903  0.9054
 7459SOL    MW429604   4.422   1.532   5.773 -1.0280  0.0842  0.7232
 7460SOL     OW29605   3.836   3.948   3.135  0.0536  0.0241  0.4475
 7460SOL    HW229606   3.911   3.890   3.134  1.2790  1.5336  0.2698
 7460SOL    HW329607   3.786   3.923   3.212  0.1815 -1.6550  0.0149
 7460SOL    MW429608   3.839   3.937   3.145  0.2321  0.0017  0.3670
 7461SOL     OW29609   4.467   3.483   4.197  0.1960 -0.5242 -0.3217
 7461SOL    HW229610   4.548   3.445   4.232 -0.7466 -1.6854  0.6660
 7461SOL    HW329611   4.496   3.562   4.152  1.8630 -0.8109  0.1656
 7461SOL    MW429612   4.482   3.488   4.196  0.2916 -0.7152 -0.1271
 7462SOL     OW29613   6.200   0.283   1.594  0.0538 -0.0116  0.6214
 7462SOL    HW229614   6.276   0.249   1.642  1.7521 -0.0801 -1.9032
 7462SOL    HW329615   6.224   0.372   1.570  0.1700 -0.5710 -1.6486
 7462SOL    MW429616   6.213   0.290   1.597  0.2932 -0.0945 -0.0112
 7463SOL     OW29617   6.185   1.804   3.112 -0.5220  0.3967 -0.3068
 7463SOL    HW229618   6.231   1.747   3.049 -0.5961 -0.7105  0.6167
 7463SOL    HW329619   6.135   1.744   3.167 -0.4583  1.3482  0.8250
 7463SOL    MW429620   6.185   1.789   3.111 -0.5234  0.3761 -0.0356
 7464SOL     OW29621   6.343   0.054   4.391 -0.4806 -0.5409 -0.1802
 7464SOL    HW229622   6.304   0.000   4.322 -0.4502 -1.8124  0.7484
 7464SOL    HW329623   6.309   0.017   4.473 -0.4801  0.8964  0.4984
 7464SOL    MW429624   6.334   0.042   4.393 -0.4765 -0.5190  0.0319
 7465SOL     OW29625   0.804   1.544   5.583 -0.1722  0.0824 -0.2747
 7465SOL    HW229626   0.819   1.552   5.677 -0.9333 -0.2296 -0.1187
 7465SOL    HW329627   0.749   1.467   5.574 -2.4350  1.6701 -0.7260
 7465SOL    MW429628   0.799   1.535   5.594 -0.5712  0.2507 -0.3136
 7466SOL     OW29629   5.592   5.095   3.384  0.3519 -0.2509  0.3887
 7466SOL    HW229630   5.687   5.102   3.387  0.2283  2.3556  0.2718
 7466SOL    HW329631   5.572   5.074   3.293  0.7860 -1.4409  0.5399
 7466SOL    MW429632   5.602   5.093   3.372  0.3929 -0.0640  0.3932
 7467SOL     OW29633   3.332   4.437   3.885 -0.0581 -0.5310 -0.5628
 7467SOL    HW229634   3.421   4.416   3.915 -0.5084 -0.1441  1.1465
 7467SOL    HW329635   3.345   4.514   3.829  0.7713 -0.9490 -0.9671
 7467SOL    MW429636   3.346   4.445   3.882 -0.0080 -0.5351 -0.3906
 7468SOL     OW29637   2.628   0.340   6.280  0.1188  0.1282 -0.0491
 7468SOL    HW229638   2.561   0.275   6.258 -0.8824  0.8184  0.7926
 7468SOL    HW329639   2.665   0.367   6.196 -0.2093 -0.7385 -0.4814
 7468SOL    MW429640   2.624   0.335   6.266 -0.0566  0.1049  0.0050
 7469SOL     OW29641   3.823   1.714   5.341 -0.1836  0.0311  0.1796
 7469SOL    HW229642   3.737   1.709   5.300 -0.3600 -1.7690  0.6972
 7469SOL    HW329643   3.809   1.684   5.430  0.6415  1.6437  0.8983
 7469SOL    MW429644   3.810   1.710   5.347 -0.0980  0.0064  0.3427
 7470SOL     OW29645   3.489   4.458   5.534 -0.1385  0.2467  0.0567
 7470SOL    HW229646   3.522   4.453   5.444  2.0068  0.4937  0.7877
 7470SOL    HW329647   3.527   4.539   5.569  2.3842 -1.7688  2.3875
 7470SOL    MW429648   3.498   4.468   5.527  0.4774  0.0133  0.4606
 7471SOL     OW29649   5.736   0.689   5.056  0.1567  0.3830 -0.2245
 7471SOL    HW229650   5.777   0.773   5.040 -0.1535  0.8072  1.0969
 7471SOL    HW329651   5.733   0.647   4.970  0.4225  1.6615 -0.8788
 7471SOL    MW429652   5.741   0.694   5.042  0.1508  0.6076 -0.1365
 7472SOL     OW29653   0.152   6.359   4.166  0.4995 -0.5963  0.5951
 7472SOL    HW229654   0.094   6.397   4.100  1.5689  1.4227  0.7523
 7472SOL    HW329655   0.232   6.338   4.118  0.6155 -0.8756  0.9040
 7472SOL    MW429656   0.155   6.361   4.151  0.6559 -0.3668  0.6566
 7473SOL     OW29657   3.743   0.408   3.542  0.0824  0.2881 -0.3542
 7473SOL    HW229658   3.660   0.451   3.561 -1.2078 -2.4151  0.4740
 7473SOL    HW329659   3.745   0.401   3.446  0.2286  1.8886 -0.5019
 7473SOL    MW429660   3.733   0.413   3.532 -0.0686  0.1426 -0.2644
 7474SOL     OW29661   5.695   0.112   3.859 -0.2304 -0.5424 -0.1873
 7474SOL    HW229662   5.667   0.195   3.823  0.1808 -0.2404  0.1769
 7474SOL    HW329663   5.784   0.100   3.826 -0.1413 -0.6445  0.0827
 7474SOL    MW429664   5.703   0.121   3.850 -0.1644 -0.5161 -0.1036
 7475SOL     OW29665   1.176   6.181   0.873 -0.1247  0.3451 -0.1096
 7475SOL    HW229666   1.242   6.112   0.868 -1.3616 -0.8784  0.0018
 7475SOL    HW329667   1.218   6.250   0.924  0.6491 -0.9253  1.0291
 7475SOL    MW429668   1.190   6.181   0.879 -0.1858  0.0161  0.0554
 7476SOL     OW29669   1.516   6.195   0.132  0.1198 -0.4664  0.5806
 7476SOL    HW229670   1.432   6.220   0.093  0.7836  0.3898 -0.3463
 7476SOL    HW329671   1.495   6.173   0.222 -0.6953  2.5173  1.2327
 7476SOL    MW429672   1.502   6.195   0.139  0.0999  0.0402  0.5443
 7477SOL     OW29673   5.401   3.457   3.135  0.2938 -0.3774 -0.3279
 7477SOL    HW229674   5.443   3.427   3.216  1.0200 -1.7429 -1.1752
 7477SOL    HW329675   5.464   3.518   3.096  0.0831  0.0327 -0.0347
 7477SOL    MW429676   5.415   3.461   3.141  0.3618 -0.5034 -0.4010
 7478SOL     OW29677   4.731   3.334   0.527  0.0005 -0.0399  0.4493
 7478SOL    HW229678   4.692   3.321   0.440 -2.4496  0.0220  1.4630
 7478SOL    HW329679   4.701   3.420   0.555 -2.7680 -1.6364  2.9625
 7478SOL    MW429680   4.722   3.343   0.519 -0.6880 -0.2424  0.9146
 7479SOL     OW29681   5.833   2.180   1.669 -0.2095  0.0505 -0.2773
 7479SOL    HW229682   5.915   2.159   1.624  0.4476  1.7647  0.0592
 7479SOL    HW329683   5.795   2.094   1.689  1.5778 -0.8025 -0.2929
 7479SOL    MW429684   5.839   2.166   1.666  0.1130  0.1641 -0.2350
 7480SOL     OW29685   3.716   3.677   2.993  0.1108  0.5966 -0.1415
 7480SOL    HW229686   3.654   3.749   3.008  0.2974  1.5251 -3.2261
 7480SOL    HW329687   3.780   3.713   2.933  0.1054 -2.1883 -1.9646
 7480SOL    MW429688   3.716   3.691   2.987  0.1347  0.3517 -0.7890
 7481SOL     OW29689   0.395   2.045   5.941 -0.1906 -0.1406 -0.2026
 7481SOL    HW229690   0.380   2.123   5.994  0.5982 -0.2560  0.2051
 7481SOL    HW329691   0.490   2.036   5.938 -0.2813 -1.4054  0.2281
 7481SOL    MW429692   0.406   2.054   5.947 -0.0985 -0.3227 -0.0920
 7482SOL     OW29693   5.457   4.824   0.357 -0.1278 -0.0397  0.3748
 7482SOL    HW229694   5.449   4.733   0.327  1.2088 -0.0208 -0.1358
 7482SOL    HW329695   5.533   4.823   0.415 -0.0827  0.7475  0.3351
 7482SOL    MW429696   5.466   4.812   0.361  0.0545  0.0667  0.3022
 7483SOL     OW29697   0.595   4.150   3.118  0.0086 -0.1600 -0.5010
 7483SOL    HW229698   0.508   4.134   3.155  0.7554 -1.3520  0.8552
 7483SOL    HW329699   0.589   4.116   3.029 -1.0398  0.1927 -0.5790
 7483SOL    MW429700   0.583   4.143   3.111 -0.0312 -0.2707 -0.3323
 7484SOL     OW29701   1.201   1.569   2.985  0.4968  0.8076 -0.4228
 7484SOL    HW229702   1.166   1.638   3.042  2.3974  1.8371 -0.3902
 7484SOL    HW329703   1.143   1.569   2.909 -0.4653  1.3455  0.2868
 7484SOL    MW429704   1.189   1.578   2.982  0.6206  1.0144 -0.3249
 7485SOL     OW29705   2.782   4.562   0.396  0.3309 -0.2769  0.0076
 7485SOL    HW229706   2.857   4.509   0.423  1.4482  1.0697 -0.3583
 7485SOL    HW329707   2.798   4.648   0.433  0.5853  0.9022 -2.6161
 7485SOL    MW429708   2.794   4.566   0.404  0.5118  0.0563 -0.3868
 7486SOL     OW29709   0.276   4.199   4.614 -0.4932 -0.1267  0.3533
 7486SOL    HW229710   0.329   4.276   4.633 -1.0183  0.1642  0.6610
 7486SOL    HW329711   0.333   4.143   4.561  0.2534  0.0122  0.9799
 7486SOL    MW429712   0.290   4.202   4.610 -0.4640 -0.0700  0.4766
 7487SOL     OW29713   6.423   1.212   1.666 -0.3856  0.4910 -0.5172
 7487SOL    HW229714   6.343   1.191   1.714  0.0403 -0.9911 -0.4160
 7487SOL    HW329715   6.393   1.233   1.577 -0.8358 -0.7954 -0.6845
 7487SOL    MW429716   6.408   1.212   1.660 -0.3888  0.1257 -0.5259
 7488SOL     OW29717   6.334   5.586   0.767  0.1450 -0.1532  0.4718
 7488SOL    HW229718   6.311   5.599   0.859 -0.8407 -0.4782  0.2910
 7488SOL    HW329719   6.384   5.504   0.766 -0.5734 -0.6049  0.6252
 7488SOL    MW429720   6.337   5.577   0.779 -0.0799 -0.2557  0.4682
 7489SOL     OW29721   2.408   3.109   0.503  0.6030  0.2925  0.2432
 7489SOL    HW229722   2.435   3.092   0.412  0.7376  0.8999  0.1617
 7489SOL    HW329723   2.466   3.056   0.556 -0.7023 -1.5604 -0.0822
 7489SOL    MW429724   2.419   3.100   0.498  0.4485  0.1282  0.1895
 7490SOL     OW29725   4.798   4.208   1.208 -0.0528 -0.3015  0.3159
 7490SOL    HW229726   4.856   4.138   1.239  0.1386 -1.1965 -1.8853
 7490SOL    HW329727   4.712   4.168   1.204 -0.0157 -0.3169 -0.5639
 7490SOL    MW429728   4.795   4.193   1.212 -0.0227 -0.4216 -0.0906
 7491SOL     OW29729   5.495   1.973   6.303 -0.0782 -0.3188  0.1794
 7491SOL    HW229730   5.510   1.967   6.397  2.9140 -0.6316 -0.1995
 7491SOL    HW329731   5.474   1.884   6.276  2.1149 -0.9218  0.2319
 7491SOL    MW429732   5.494   1.960   6.312  0.6059 -0.4396  0.1363
 7492SOL     OW29733   0.262   0.935   4.939  0.0037  0.3011 -0.2205
 7492SOL    HW229734   0.182   0.973   4.904  0.4141  0.2661 -1.2578
 7492SOL    HW329735   0.332   0.972   4.885  0.5930 -0.3914  0.0431
 7492SOL    MW429736   0.261   0.945   4.927  0.1356  0.2051 -0.3226
 7493SOL     OW29737   4.450   0.108   3.250  0.5494  0.1952 -0.7270
 7493SOL    HW229738   4.367   0.143   3.283 -0.1189  0.2738 -2.4065
 7493SOL    HW329739   4.424   0.038   3.190  1.7353 -0.2307 -0.7593
 7493SOL    MW429740   4.435   0.104   3.247  0.6177  0.1494 -0.9528
 7494SOL     OW29741   2.296   2.272   1.795 -0.0215 -0.2892 -0.2585
 7494SOL    HW229742   2.380   2.234   1.820  0.6204 -1.0970 -3.2799
 7494SOL    HW329743   2.318   2.339   1.731 -1.6661 -0.2998 -0.8787
 7494SOL    MW429744   2.310   2.276   1.790 -0.1538 -0.3972 -0.7390
 7495SOL     OW29745   1.469   2.558   0.096 -0.0777 -0.8212 -0.5662
 7495SOL    HW229746   1.425   2.563   0.012 -0.8737 -0.9785 -0.1701
 7495SOL    HW329747   1.434   2.633   0.145  1.8528  0.4736 -1.0393
 7495SOL    MW429748   1.458   2.569   0.092  0.0720 -0.6712 -0.5764
 7496SOL     OW29749   4.942   1.067   0.223 -0.0605  0.1442  0.0988
 7496SOL    HW229750   5.025   1.020   0.232 -1.0053 -1.4216  1.0873
 7496SOL    HW329751   4.947   1.138   0.287  0.4551 -0.0214  0.2445
 7496SOL    MW429752   4.954   1.070   0.233 -0.1172 -0.0842  0.2485
 7497SOL     OW29753   5.339   3.758   2.508 -1.1419 -0.1969 -0.7522
 7497SOL    HW229754   5.311   3.763   2.416 -1.9614  1.5438 -0.4364
 7497SOL    HW329755   5.293   3.682   2.543 -2.8773  0.6513 -1.1269
 7497SOL    MW429756   5.330   3.749   2.500 -1.4790  0.1446 -0.7599
 7498SOL     OW29757   6.257   0.242   5.950  0.1054  0.1641  0.0446
 7498SOL    HW229758   6.318   0.314   5.934  0.8451 -0.8224 -1.9722
 7498SOL    HW329759   6.171   0.284   5.950  0.3402  0.9027 -3.1220
 7498SOL    MW429760   6.254   0.257   5.948  0.2340  0.1314 -0.6393
 7499SOL     OW29761   5.997   1.780   4.364  0.1827 -0.3796 -0.2894
 7499SOL    HW229762   5.931   1.796   4.296 -1.3146 -0.8352  1.0083
 7499SOL    HW329763   6.055   1.715   4.325  0.9592  1.2693 -2.1140
 7499SOL    MW429764   5.996   1.774   4.350  0.0876 -0.2221 -0.3589
 7500SOL     OW29765   5.064   3.206   4.616 -0.1131 -0.1186  0.4531
 7500SOL    HW229766   5.113   3.250   4.547 -0.1250 -1.5338 -0.4983
 7500SOL    HW329767   5.099   3.117   4.618 -0.4864 -0.2625  1.9199
 7500SOL    MW429768   5.075   3.200   4.607 -0.1640 -0.3243  0.5211
 7501SOL     OW29769   1.607   2.242   3.589 -0.0930 -0.2617 -0.0357
 7501SOL    HW229770   1.628   2.216   3.499  0.7589 -0.1225  0.1101
 7501SOL    HW329771   1.650   2.328   3.599 -0.1917 -0.2745  0.4944
 7501SOL    MW429772   1.616   2.250   3.578  0.0064 -0.2451  0.0535
 7502SOL     OW29773   4.545   5.606   3.431  0.2580 -0.2866 -0.3717
 7502SOL    HW229774   4.632   5.644   3.444  1.8259 -3.3665 -0.7958
 7502SOL    HW329775   4.521   5.630   3.342  1.3180 -0.4959 -0.7269
 7502SOL    MW429776   4.554   5.614   3.421  0.6047 -0.7206 -0.4745
 7503SOL     OW29777   5.623   0.954   1.663  0.0666 -0.1080  0.0999
 7503SOL    HW229778   5.620   0.941   1.568 -2.0455  0.5349  0.0140
 7503SOL    HW329779   5.627   1.049   1.674  1.3695 -0.2107  0.6776
 7503SOL    MW429780   5.623   0.965   1.652 -0.0402 -0.0367  0.1648
 7504SOL     OW29781   3.882   4.493   0.080  0.1354 -0.0333 -0.1779
 7504SOL    HW229782   3.924   4.536   0.155  0.4489 -1.7538  0.6661
 7504SOL    HW329783   3.917   4.404   0.080 -0.9074 -0.4810 -1.5599
 7504SOL    MW429784   3.892   4.487   0.090  0.0392 -0.3194 -0.2489
 7505SOL     OW29785   4.372   2.714   3.277  0.6576  0.2245 -0.0033
 7505SOL    HW229786   4.355   2.777   3.208  1.0007  1.5895  1.1190
 7505SOL    HW329787   4.448   2.665   3.246  1.2488  1.2938 -0.3000
 7505SOL    MW429788   4.380   2.716   3.264  0.7809  0.5457  0.1056
 7506SOL     OW29789   0.180   2.552   1.680  0.1095  0.2028  0.0397
 7506SOL    HW229790   0.105   2.584   1.729  0.4428  1.2950 -0.1266
 7506SOL    HW329791   0.194   2.463   1.713 -0.7979  0.2496  0.5906
 7506SOL    MW429792   0.172   2.545   1.691  0.0337  0.3530  0.0904
 7507SOL     OW29793   5.533   2.952   0.687  0.3829 -0.2376 -0.3384
 7507SOL    HW229794   5.561   2.941   0.596  1.6772  1.3557 -0.1598
 7507SOL    HW329795   5.508   3.044   0.694 -0.0647 -0.4332  0.8324
 7507SOL    MW429796   5.534   2.962   0.676  0.4946 -0.0532 -0.1603
 7508SOL     OW29797   3.326   6.406   3.136 -0.0295  0.4752  0.1040
 7508SOL    HW229798   3.325   6.385   3.229  1.2503  1.4657  0.3684
 7508SOL    HW329799   3.249   6.461   3.123  0.5229  1.4733  0.8931
 7508SOL    MW429800   3.316   6.411   3.147  0.2122  0.7376  0.2430
 7509SOL     OW29801   4.754   2.573   2.258 -0.3134  0.4501 -0.1727
 7509SOL    HW229802   4.757   2.507   2.189  1.7563 -0.1435  0.4236
 7509SOL    HW329803   4.664   2.608   2.254 -1.1215 -1.6017 -1.2213
 7509SOL    MW429804   4.742   2.569   2.248 -0.1470  0.1011 -0.2324
 7510SOL     OW29805   3.962   2.547   0.178 -0.1172  0.0207  0.3444
 7510SOL    HW229806   4.001   2.597   0.106  0.3668  0.3524  0.8257
 7510SOL    HW329807   3.922   2.470   0.136 -0.8951  0.8197 -0.4051
 7510SOL    MW429808   3.962   2.543   0.163 -0.1559  0.1699  0.3090
 7511SOL     OW29809   1.267   1.382   0.068 -0.2376  0.9515  0.1548
 7511SOL    HW229810   1.335   1.409   0.006 -1.5103  1.7990 -0.9245
 7511SOL    HW329811   1.311   1.382   0.153  1.1625  1.2553 -0.5374
 7511SOL    MW429812   1.282   1.386   0.071 -0.2208  1.1034 -0.0789
 7512SOL     OW29813   5.749   2.681   5.698 -0.4946 -0.2586 -0.2351
 7512SOL    HW229814   5.688   2.614   5.729 -2.7563  1.5408 -0.5291
 7512SOL    HW329815   5.728   2.691   5.605 -1.9267  2.4072  0.2574
 7512SOL    MW429816   5.738   2.673   5.690 -0.9819  0.3306 -0.2089
 7513SOL     OW29817   2.217   0.203   1.418 -0.5269 -0.0739  0.1393
 7513SOL    HW229818   2.237   0.146   1.344  3.0289 -0.3274  1.1483
 7513SOL    HW329819   2.141   0.254   1.388  2.2714  1.8335 -4.8800
 7513SOL    MW429820   2.209   0.202   1.404  0.3115  0.1443 -0.3898
 7514SOL     OW29821   3.830   2.683   2.947  0.9188  0.6465 -0.3404
 7514SOL    HW229822   3.910   2.634   2.969  1.1149  0.4566 -1.4141
 7514SOL    HW329823   3.793   2.635   2.872 -0.6290  0.2723  0.6192
 7514SOL    MW429824   3.836   2.670   2.940  0.7405  0.5721 -0.3555
 7515SOL     OW29825   2.491   2.099   0.758 -0.4501  0.8875  0.0699
 7515SOL    HW229826   2.406   2.142   0.754  0.2391  2.2406 -0.7746
 7515SOL    HW329827   2.493   2.040   0.682 -1.2443 -0.4008  1.0116
 7515SOL    MW429828   2.480   2.097   0.747 -0.4639  0.8961  0.0827
 7516SOL     OW29829   4.988   2.115   2.493 -0.3851  0.7527  0.3404
 7516SOL    HW229830   4.959   2.077   2.576  0.7654  0.4532  0.6168
 7516SOL    HW329831   4.927   2.187   2.477 -1.9592 -0.5217  0.3363
 7516SOL    MW429832   4.976   2.120   2.502 -0.4410  0.5450  0.3763
 7517SOL     OW29833   0.682   3.036   1.497 -0.1541 -0.4345  0.0357
 7517SOL    HW229834   0.682   3.130   1.510  0.3707 -0.0863 -2.0307
 7517SOL    HW329835   0.602   3.018   1.447 -1.2449 -1.4047  2.0109
 7517SOL    MW429836   0.672   3.046   1.492 -0.2288 -0.5166  0.0237
 7518SOL     OW29837   1.249   3.671   4.888 -0.2253 -0.1056  0.1884
 7518SOL    HW229838   1.212   3.594   4.932 -1.2318 -0.4740 -1.2430
 7518SOL    HW329839   1.195   3.682   4.810  0.5490  1.4571 -0.1565
 7518SOL    MW429840   1.237   3.662   4.884 -0.2560  0.0520 -0.0460
 7519SOL     OW29841   1.303   3.036   2.569 -0.6015 -0.3485 -0.2442
 7519SOL    HW229842   1.321   2.995   2.485  0.4857  0.9171 -0.6517
 7519SOL    HW329843   1.252   2.971   2.617  0.3183 -1.7992 -1.1893
 7519SOL    MW429844   1.298   3.022   2.564 -0.3367 -0.3730 -0.4227
 7520SOL     OW29845   5.286   6.301   3.106 -0.1964 -0.6516 -0.5141
 7520SOL    HW229846   5.352   6.242   3.143  0.7414 -0.0700 -1.1939
 7520SOL    HW329847   5.278   6.371   3.172  0.5170 -0.2840 -0.8005
 7520SOL    MW429848   5.294   6.302   3.120  0.0214 -0.5264 -0.6416
 7521SOL     OW29849   4.208   3.572   0.279  0.6157 -0.2393  0.4156
 7521SOL    HW229850   4.148   3.535   0.343  1.4465 -0.7583  0.9092
 7521SOL    HW329851   4.215   3.664   0.303 -0.4810 -0.0119 -0.0545
 7521SOL    MW429852   4.201   3.579   0.290  0.5806 -0.2778  0.4187
 7522SOL     OW29853   0.471   3.400   3.385  0.0886  0.0035 -0.0017
 7522SOL    HW229854   0.520   3.476   3.418  0.0560  0.5077 -1.0876
 7522SOL    HW329855   0.435   3.429   3.301  1.3489 -1.7341 -1.1908
 7522SOL    MW429856   0.472   3.414   3.379  0.2506 -0.1592 -0.3019
 7523SOL     OW29857   2.764   4.045   4.165 -0.0816 -0.2481 -0.0419
 7523SOL    HW229858   2.736   4.134   4.142 -0.6551 -0.3784  0.1458
 7523SOL    HW329859   2.853   4.039   4.129 -0.4745 -0.0102 -1.1002
 7523SOL    MW429860   2.772   4.056   4.157 -0.2091 -0.2339 -0.1568
 7524SOL     OW29861   4.693   1.575   5.658  0.1056  0.2644  0.3995
 7524SOL    HW229862   4.702   1.633   5.583 -0.0857  0.9543  0.8931
 7524SOL    HW329863   4.598   1.572   5.674  0.1657  0.3298  0.7695
 7524SOL    MW429864   4.682   1.582   5.650  0.0883  0.3641  0.5135
 7525SOL     OW29865   0.404   0.924   1.536  0.7195 -0.0628 -0.2516
 7525SOL    HW229866   0.477   0.920   1.598 -0.0027 -0.5834  0.5897
 7525SOL    HW329867   0.328   0.944   1.590  0.2565  0.6363 -1.1387
 7525SOL    MW429868   0.404   0.926   1.551  0.5632 -0.0393 -0.2576
 7526SOL     OW29869   2.736   0.018   1.084  0.4496 -0.0154  0.3946
 7526SOL    HW229870   2.641   0.015   1.072  0.2450 -1.3582  1.9866
 7526SOL    HW329871   2.754   0.109   1.109 -0.4915  0.1461  0.5264
 7526SOL    MW429872   2.726   0.029   1.086  0.2984 -0.1712  0.6220
 7527SOL     OW29873   5.349   1.460   0.026 -0.4310 -0.8102  0.1819
 7527SOL    HW229874   5.291   1.385   0.037 -2.3883  0.4700 -0.9059
 7527SOL    HW329875   5.347   1.505   0.110 -2.1328 -0.0733 -0.2050
 7527SOL    MW429876   5.341   1.456   0.039 -0.9138 -0.5441 -0.0127
 7528SOL     OW29877   5.085   2.887   2.478 -0.8663 -0.2866 -0.1399
 7528SOL    HW229878   5.010   2.856   2.428 -0.8072 -0.1159 -0.3375
 7528SOL    HW329879   5.157   2.890   2.415 -1.3059  2.0259 -0.6133
 7528SOL    MW429880   5.085   2.884   2.463 -0.9165  0.0410 -0.2284
 7529SOL     OW29881   4.932   1.687   4.440 -0.1184 -0.1311  0.1597
 7529SOL    HW229882   4.843   1.671   4.408 -0.4898  2.5452 -0.4475
 7529SOL    HW329883   4.988   1.636   4.382 -1.2168 -1.4825  0.2528
 7529SOL    MW429884   4.928   1.678   4.428 -0.3123  0.0437  0.0918
 7530SOL     OW29885   3.313   1.804   1.330  0.1885  0.0626  0.6418
 7530SOL    HW229886   3.287   1.830   1.241 -0.6435  0.3075  0.9571
 7530SOL    HW329887   3.331   1.886   1.375  0.4340 -0.0562  0.7665
 7530SOL    MW429888   3.312   1.818   1.324  0.1111  0.0792  0.6999
 7531SOL     OW29889   0.830   3.938   5.349 -0.4577  0.4379 -0.1538
 7531SOL    HW229890   0.923   3.937   5.328 -0.8251  0.9860 -1.9839
 7531SOL    HW329891   0.818   4.016   5.404  0.3776 -0.4923  1.4158
 7531SOL    MW429892   0.841   3.948   5.353 -0.3960  0.3875 -0.1881
 7532SOL     OW29893   3.751   4.281   1.887 -0.1324  0.5999 -0.5452
 7532SOL    HW229894   3.656   4.277   1.896  0.0005  0.1308  0.9309
 7532SOL    HW329895   3.778   4.349   1.948  0.3921  1.7499 -1.9960
 7532SOL    MW429896   3.742   4.289   1.896 -0.0457  0.6898 -0.5418
 7533SOL     OW29897   3.941   2.294   0.475 -0.2335 -0.2998  0.3373
 7533SOL    HW229898   3.973   2.282   0.385 -1.0103  1.0852 -0.1494
 7533SOL    HW329899   3.852   2.260   0.473 -0.4153  0.1596  0.4533
 7533SOL    MW429900   3.933   2.288   0.463 -0.3600 -0.0565  0.2884
 7534SOL     OW29901   1.663   4.432   2.612  0.4217  0.1697 -0.2625
 7534SOL    HW229902   1.684   4.427   2.518  0.9559  2.2307 -0.2939
 7534SOL    HW329903   1.651   4.341   2.638 -0.6742 -0.4075 -2.5356
 7534SOL    MW429904   1.665   4.419   2.603  0.3476  0.3654 -0.5665
 7535SOL     OW29905   3.619   2.532   5.053  0.0848 -0.4166 -0.9086
 7535SOL    HW229906   3.703   2.561   5.090  0.6600 -1.6089 -1.2165
 7535SOL    HW329907   3.618   2.570   4.965 -0.4571  0.9304 -0.3468
 7535SOL    MW429908   3.630   2.541   5.047  0.0892 -0.3962 -0.8751
 7536SOL     OW29909   3.362   0.354   1.396  0.7606  0.8222  0.1602
 7536SOL    HW229910   3.427   0.321   1.458  0.4236  1.9176  1.1131
 7536SOL    HW329911   3.315   0.422   1.443 -3.5702 -2.1892  0.8889
 7536SOL    MW429912   3.364   0.358   1.410  0.1448  0.5694  0.3820
 7537SOL     OW29913   0.999   1.561   4.818  0.3992  0.1724  0.5759
 7537SOL    HW229914   0.904   1.563   4.832  0.2238 -0.7058 -0.3919
 7537SOL    HW329915   1.036   1.578   4.904 -0.6340  1.7919  0.7371
 7537SOL    MW429916   0.992   1.564   4.831  0.2398  0.2702  0.4695
 7538SOL     OW29917   2.958   0.206   5.458 -0.1159  0.8344 -0.1417
 7538SOL    HW229918   3.050   0.225   5.479  0.6442  0.1231 -2.6070
 7538SOL    HW329919   2.937   0.266   5.387 -1.0037 -0.2351 -0.8097
 7538SOL    MW429920   2.968   0.217   5.452 -0.1328  0.5995 -0.5551
 7539SOL     OW29921   0.090   5.057   2.234  0.0485 -0.0703 -0.0487
 7539SOL    HW229922   0.174   5.049   2.187 -0.0635  3.5755 -1.1708
 7539SOL    HW329923   0.115   5.090   2.320 -0.1917  3.8858 -1.3233
 7539SOL    MW429924   0.105   5.060   2.239  0.0020  0.9327 -0.3649
 7540SOL     OW29925   4.988   5.242   2.859 -0.5119  0.1618  0.1954
 7540SOL    HW229926   5.011   5.150   2.871  2.7343  0.5837 -1.7114
 7540SOL    HW329927   5.034   5.288   2.928  1.1432  0.6425 -1.1656
 7540SOL    MW429928   4.997   5.236   2.869  0.1347  0.2809 -0.2357
 7541SOL     OW29929   2.137   0.705   5.986 -0.2498  0.2801  0.0460
 7541SOL    HW229930   2.189   0.637   6.029 -2.6433 -1.6785  0.0625
 7541SOL    HW329931   2.167   0.704   5.895  0.0539 -0.5215  0.1417
 7541SOL    MW429932   2.148   0.696   5.980 -0.5256 -0.0840  0.0608
 7542SOL     OW29933   5.401   4.318   2.385 -0.3061 -0.1909 -0.0215
 7542SOL    HW229934   5.356   4.397   2.415  1.3752  0.4721  0.9156
 7542SOL    HW329935   5.491   4.347   2.368  0.2385 -1.8080 -0.0918
 7542SOL    MW429936   5.407   4.333   2.387 -0.0124 -0.3168  0.0929
 7543SOL     OW29937   0.229   0.770   0.950 -0.0489 -0.3301  0.6129
 7543SOL    HW229938   0.186   0.698   0.904 -0.9141  1.3479 -1.3713
 7543SOL    HW329939   0.323   0.754   0.938 -0.2421 -0.8257 -0.3303
 7543SOL    MW429940   0.236   0.758   0.942 -0.1886 -0.1741  0.2267
 7544SOL     OW29941   3.445   5.867   6.157 -0.1194 -0.4471  0.5804
 7544SOL    HW229942   3.420   5.877   6.066 -0.7728 -0.4638  0.7522
 7544SOL    HW329943   3.372   5.904   6.207 -0.6822 -2.1550  1.1266
 7544SOL    MW429944   3.432   5.873   6.152 -0.2799 -0.6747  0.6751
 7545SOL     OW29945   4.854   2.053   3.075 -0.8310  0.1733  0.0363
 7545SOL    HW229946   4.935   2.013   3.108 -1.3091 -0.3906  0.5667
 7545SOL    HW329947   4.859   2.043   2.980 -0.0621  0.5741  0.0288
 7545SOL    MW429948   4.866   2.046   3.067 -0.7926  0.1518  0.1053
 7546SOL     OW29949   2.181   5.426   1.112  0.6261 -0.0431  0.7161
 7546SOL    HW229950   2.274   5.447   1.126  0.3016  1.6205  0.6448
 7546SOL    HW329951   2.134   5.497   1.156 -0.6313 -0.9151  0.8449
 7546SOL    MW429952   2.187   5.438   1.120  0.4174  0.0613  0.7237
 7547SOL     OW29953   2.106   5.867   3.086  0.0901 -0.3745  0.2032
 7547SOL    HW229954   2.068   5.882   3.173 -0.0594  1.6615 -0.1588
 7547SOL    HW329955   2.174   5.801   3.101 -1.7566 -2.1548  1.3376
 7547SOL    MW429956   2.110   5.860   3.100 -0.1733 -0.3408  0.3051
 7548SOL     OW29957   5.617   5.832   1.667 -0.6229  0.3191 -0.5234
 7548SOL    HW229958   5.543   5.871   1.714  0.5338  2.2141 -0.1900
 7548SOL    HW329959   5.686   5.823   1.733  1.0905  3.1723 -1.7338
 7548SOL    MW429960   5.616   5.836   1.682 -0.2442  0.9456 -0.6391
 7549SOL     OW29961   2.638   1.742   5.631  0.0642 -0.0990 -0.0251
 7549SOL    HW229962   2.615   1.694   5.551  0.5304  0.5843 -0.5721
 7549SOL    HW329963   2.713   1.694   5.666  0.0616 -0.2118 -0.1705
 7549SOL    MW429964   2.645   1.729   5.625  0.1254 -0.0237 -0.1164
 7550SOL     OW29965   4.037   6.238   0.661  0.0967 -0.1385 -0.0563
 7550SOL    HW229966   4.107   6.285   0.706 -0.6530 -0.1740  1.1934
 7550SOL    HW329967   4.074   6.216   0.575  1.4288  0.2859  0.3843
 7550SOL    MW429968   4.051   6.241   0.656  0.1735 -0.0872  0.1667
 7551SOL     OW29969   0.790   4.373   4.835  0.1079 -0.0203  0.7744
 7551SOL    HW229970   0.824   4.449   4.883  1.3928  0.2745 -0.5265
 7551SOL    HW329971   0.851   4.362   4.763 -2.7745  0.7919 -2.0104
 7551SOL    MW429972   0.803   4.382   4.832 -0.1029  0.1258  0.2353
 7552SOL     OW29973   3.102   1.452   4.964 -0.1904 -0.1936  0.8536
 7552SOL    HW229974   3.007   1.461   4.971 -0.1529 -0.2024  1.4245
 7552SOL    HW329975   3.128   1.411   5.047  0.1959 -1.1091  0.2944
 7552SOL    MW429976   3.093   1.448   4.976 -0.1345 -0.3156  0.8551
 7553SOL     OW29977   3.912   5.089   0.116  0.0131 -0.3478 -0.1225
 7553SOL    HW229978   3.839   5.036   0.085 -0.9180  0.6993  0.1909
 7553SOL    HW329979   3.874   5.143   0.186  0.5184  1.8348 -1.4422
 7553SOL    MW429980   3.898   5.089   0.121 -0.0431  0.0783 -0.2553
 7554SOL     OW29981   2.392   4.849   3.260  0.3250 -0.2708  0.3210
 7554SOL    HW229982   2.422   4.768   3.301  0.0684  0.7948  2.8046
 7554SOL    HW329983   2.329   4.885   3.323  1.9202  2.8373  0.3259
 7554SOL    MW429984   2.387   4.843   3.274  0.5016  0.2799  0.6493
 7555SOL     OW29985   1.693   5.186   0.208 -0.1171 -0.2453  0.6474
 7555SOL    HW229986   1.729   5.260   0.257  1.9509 -0.1463 -0.9126
 7555SOL    HW329987   1.666   5.224   0.125 -0.8854 -0.9209  0.5807
 7555SOL    MW429988   1.694   5.201   0.204  0.0544 -0.3214  0.4328
 7556SOL     OW29989   4.037   1.425   2.016  0.0117  0.4738 -0.3563
 7556SOL    HW229990   3.973   1.365   1.976 -0.4636  0.4516  0.4185
 7556SOL    HW329991   4.005   1.512   1.993  1.0988  0.4592 -2.0993
 7556SOL    MW429992   4.024   1.428   2.008  0.0924  0.4689 -0.4840
 7557SOL     OW29993   0.735   2.018   0.977  0.4319  0.1537 -0.0860
 7557SOL    HW229994   0.816   2.035   1.025  0.9030  1.8317 -1.3963
 7557SOL    HW329995   0.703   2.104   0.951 -1.8796 -0.4505  0.4948
 7557SOL    MW429996   0.741   2.032   0.980  0.1891  0.2953 -0.1822
 7558SOL     OW29997   5.534   6.142   2.725 -0.1573  0.7690 -0.7139
 7558SOL    HW229998   5.603   6.122   2.788 -1.5260 -0.4846  0.4617
 7558SOL    HW329999   5.547   6.080   2.654 -1.1266 -0.7592  0.3810
 7558SOL    MW430000   5.545   6.131   2.724 -0.4657  0.4020 -0.4143
 7559SOL     OW30001   1.339   3.381   5.646 -0.2834 -0.8398  0.1213
 7559SOL    HW230002   1.381   3.377   5.732 -0.7021  1.4900  0.5105
 7559SOL    HW330003   1.269   3.316   5.650  0.4312 -1.5823  1.0991
 7559SOL    MW430004   1.336   3.372   5.658 -0.2443 -0.6303  0.3017
 7560SOL     OW30005   2.131   3.016   1.404 -0.4935 -0.4253  0.2161
 7560SOL    HW230006   2.226   3.027   1.397 -0.5961  1.5848  1.3561
 7560SOL    HW330007   2.119   2.922   1.423  1.4494 -0.2910  2.5266
 7560SOL    MW430008   2.142   3.005   1.405 -0.2507 -0.1424  0.6714
 7561SOL     OW30009   1.198   3.592   2.508 -0.0844 -0.0690 -0.1142
 7561SOL    HW230010   1.213   3.499   2.495  0.9601  0.0813 -0.0697
 7561SOL    HW330011   1.247   3.613   2.588 -1.0787  0.3285  0.3970
 7561SOL    MW430012   1.207   3.583   2.516 -0.0778  0.0033 -0.0408
 7562SOL     OW30013   3.690   5.854   1.014  0.2516 -0.1618  0.9887
 7562SOL    HW230014   3.695   5.812   0.928  1.1076 -0.5472  1.2159
 7562SOL    HW330015   3.634   5.796   1.066  1.0023 -0.7677  1.1444
 7562SOL    MW430016   3.683   5.841   1.010  0.4636 -0.2926  1.0393
 7563SOL     OW30017   3.572   1.076   3.266 -1.0231 -0.0758 -0.7984
 7563SOL    HW230018   3.524   1.129   3.331  0.2655 -0.0113  0.1350
 7563SOL    HW330019   3.504   1.046   3.206 -2.3160 -0.2983  0.6915
 7563SOL    MW430020   3.557   1.079   3.267 -1.0237 -0.0966 -0.4787
 7564SOL     OW30021   5.981   1.775   5.885  0.2524 -0.0316  0.4323
 7564SOL    HW230022   5.950   1.765   5.795  0.1811 -1.4967  0.5918
 7564SOL    HW330023   5.928   1.846   5.920 -0.3270 -0.0096 -0.4282
 7564SOL    MW430024   5.970   1.783   5.877  0.1665 -0.2220  0.3398
 7565SOL     OW30025   1.877   5.975   5.244  0.0875  0.6989 -0.6749
 7565SOL    HW230026   1.844   6.012   5.326 -0.5043  1.6901 -1.3403
 7565SOL    HW330027   1.813   6.003   5.178 -0.2121 -1.2314 -1.2763
 7565SOL    MW430028   1.864   5.983   5.246 -0.0301  0.5750 -0.8420
 7566SOL     OW30029   4.837   4.936   2.176  0.6012  0.0837 -0.2246
 7566SOL    HW230030   4.916   4.950   2.123  0.1641  1.6743 -0.5242
 7566SOL    HW330031   4.766   4.926   2.113  0.3409  0.2179  0.0400
 7566SOL    MW430032   4.838   4.937   2.161  0.5092  0.3112 -0.2292
 7567SOL     OW30033   6.171   3.154   0.212 -0.9256 -0.4550  0.1121
 7567SOL    HW230034   6.082   3.119   0.207 -0.9737 -0.1719 -1.5069
 7567SOL    HW330035   6.224   3.090   0.163 -0.5659  0.3343 -0.5458
 7567SOL    MW430036   6.166   3.141   0.205 -0.8845 -0.3135 -0.1883
 7568SOL     OW30037   0.191   3.741   3.589  0.2762  0.1422  0.4709
 7568SOL    HW230038   0.135   3.670   3.559  1.0601 -0.5586  0.6270
 7568SOL    HW330039   0.191   3.804   3.516 -1.2408  0.4945  0.7459
 7568SOL    MW430040   0.184   3.740   3.575  0.1795  0.0963  0.5278
 7569SOL     OW30041   4.653   0.253   5.527  0.1122 -0.0160 -0.0627
 7569SOL    HW230042   4.690   0.323   5.581  0.2287 -0.4898  0.4822
 7569SOL    HW330043   4.595   0.298   5.466  0.6713  0.6200 -0.1422
 7569SOL    MW430044   4.650   0.268   5.526  0.2014  0.0054 -0.0013
 7570SOL     OW30045   4.506   4.446   1.751  0.0018  0.2112  0.2788
 7570SOL    HW230046   4.531   4.356   1.732 -0.3938  0.4519 -1.5984
 7570SOL    HW330047   4.410   4.444   1.755  0.0323  0.3181  1.7009
 7570SOL    MW430048   4.496   4.434   1.749 -0.0464  0.2571  0.2188
 7571SOL     OW30049   4.065   3.803   3.126  0.9738  0.3124  0.0951
 7571SOL    HW230050   4.131   3.815   3.194  0.4381  0.4237  0.6048
 7571SOL    HW330051   4.088   3.720   3.085  0.1069 -0.8243  1.8001
 7571SOL    MW430052   4.077   3.794   3.130  0.7887  0.1771  0.3873
 7572SOL     OW30053   3.137   0.847   5.496 -0.0461 -0.6107 -0.6261
 7572SOL    HW230054   3.196   0.788   5.543 -0.8913  0.0741  1.4285
 7572SOL    HW330055   3.182   0.932   5.496 -1.0629 -0.0232  1.1767
 7572SOL    MW430056   3.151   0.851   5.502 -0.2918 -0.4428 -0.1171
 7573SOL     OW30057   1.026   6.147   0.641 -0.1801  0.6549  0.0621
 7573SOL    HW230058   0.980   6.230   0.650  0.3099  0.7393  2.4630
 7573SOL    HW330059   1.083   6.143   0.717  1.0136 -1.1593 -0.8636
 7573SOL    MW430060   1.027   6.157   0.652  0.0420  0.4267  0.2567
 7574SOL     OW30061   2.587   6.399   5.286  0.7191  0.6297 -0.3094
 7574SOL    HW230062   2.660   6.343   5.312  2.1328  1.5976 -1.9392
 7574SOL    HW330063   2.627   6.465   5.229 -1.5257  0.8368 -1.7744
 7574SOL    MW430064   2.602   6.400   5.282  0.6095  0.7847 -0.7177
 7575SOL     OW30065   1.749   2.845   0.932  0.1915  0.0204  0.6441
 7575SOL    HW230066   1.812   2.797   0.878 -0.6263  0.1298 -0.4388
 7575SOL    HW330067   1.673   2.858   0.875 -0.3097  1.0223  1.4993
 7575SOL    MW430068   1.748   2.841   0.918  0.0174  0.1670  0.6140
 7576SOL     OW30069   0.689   5.570   5.104 -0.0494  0.0045  0.3292
 7576SOL    HW230070   0.768   5.519   5.121 -0.5613 -0.4259  1.5432
 7576SOL    HW330071   0.617   5.507   5.113 -0.6257  0.7147  0.8625
 7576SOL    MW430072   0.690   5.555   5.107 -0.1930  0.0414  0.5597
 7577SOL     OW30073   0.294   2.023   2.538 -0.4288  0.3379 -0.0601
 7577SOL    HW230074   0.261   1.943   2.496  1.5509 -0.5758  0.0143
 7577SOL    HW330075   0.386   2.005   2.556 -0.3903  1.9377  1.7268
 7577SOL    MW430076   0.302   2.010   2.535 -0.1625  0.4284  0.1855
 7578SOL     OW30077   5.063   5.279   5.160  0.0872  0.7970 -0.5112
 7578SOL    HW230078   5.010   5.213   5.205  1.6199  0.7021  1.3039
 7578SOL    HW330079   5.007   5.311   5.089 -1.5894 -0.7210  0.0449
 7578SOL    MW430080   5.049   5.274   5.156  0.0682  0.5842 -0.1983
 7579SOL     OW30081   5.583   2.223   3.630  0.2628  0.3573  0.8048
 7579SOL    HW230082   5.596   2.156   3.563 -1.0819  0.5552  0.3080
 7579SOL    HW330083   5.665   2.224   3.679  1.3096  0.2004 -0.8350
 7579SOL    MW430084   5.596   2.215   3.627  0.2235  0.3627  0.5229
 7580SOL     OW30085   1.615   1.756   0.735 -0.0899  0.0046 -0.6788
 7580SOL    HW230086   1.573   1.732   0.817 -0.0147  0.8064 -0.3948
 7580SOL    HW330087   1.707   1.771   0.759 -0.1050  0.4156 -0.8717
 7580SOL    MW430088   1.622   1.755   0.749 -0.0820  0.1646 -0.6668
 7581SOL     OW30089   1.226   3.327   4.746  0.7170 -0.3946 -0.0924
 7581SOL    HW230090   1.163   3.255   4.736  0.6398 -0.1543 -1.5473
 7581SOL    HW330091   1.311   3.286   4.730  0.5875  0.0089 -2.0087
 7581SOL    MW430092   1.229   3.312   4.742  0.6897 -0.3096 -0.5372
 7582SOL     OW30093   3.208   2.239   5.658  0.0310 -0.0332 -0.3332
 7582SOL    HW230094   3.237   2.167   5.714 -1.7152  0.3061  1.1129
 7582SOL    HW330095   3.289   2.274   5.621  0.9957 -2.2269 -0.4953
 7582SOL    MW430096   3.223   2.234   5.661 -0.0721 -0.2778 -0.1638
 7583SOL     OW30097   6.048   2.134   3.772  0.1993  0.8306 -0.3157
 7583SOL    HW230098   6.132   2.169   3.799  0.8343 -1.0423  0.3066
 7583SOL    HW330099   6.046   2.146   3.677  0.7147  1.7786 -0.2175
 7583SOL    MW430100   6.058   2.140   3.763  0.3511  0.7086 -0.2206
 7584SOL     OW30101   6.377   0.431   1.959  0.0060  0.3937  0.1677
 7584SOL    HW230102   6.466   0.423   1.992 -1.7560  0.5147  6.0151
 7584SOL    HW330103   6.365   0.525   1.945  0.4175  0.5195  0.6382
 7584SOL    MW430104   6.387   0.443   1.961 -0.1722  0.4263  1.0013
 7585SOL     OW30105   4.053   3.110   3.817  0.4217  0.6634 -0.5618
 7585SOL    HW230106   3.976   3.057   3.840  0.0370  0.5032 -2.1388
 7585SOL    HW330107   4.066   3.167   3.893  0.0304 -0.7530  0.6150
 7585SOL    MW430108   4.044   3.111   3.830  0.3193  0.4554 -0.6146
 7586SOL     OW30109   5.835   3.004   4.530 -0.1415  0.1681 -0.1621
 7586SOL    HW230110   5.777   3.080   4.524 -1.5603 -0.7540  1.1201
 7586SOL    HW330111   5.876   2.998   4.444 -2.1817  0.7053 -1.2386
 7586SOL    MW430112   5.833   3.013   4.518 -0.5978  0.1173 -0.1349
 7587SOL     OW30113   2.154   2.169   1.318  0.4808  0.5675  0.4751
 7587SOL    HW230114   2.152   2.088   1.266  1.7636  1.2642 -0.7357
 7587SOL    HW330115   2.141   2.140   1.408 -0.5380 -0.8249 -0.0887
 7587SOL    MW430116   2.152   2.155   1.323  0.5156  0.4757  0.2410
 7588SOL     OW30117   1.232   3.252   3.352 -0.2068  0.1817  0.5323
 7588SOL    HW230118   1.212   3.159   3.356  1.4293 -0.2698 -0.8268
 7588SOL    HW330119   1.205   3.286   3.438 -0.0723 -1.6851  1.3551
 7588SOL    MW430120   1.226   3.244   3.364  0.0268 -0.1242  0.4616
 7589SOL     OW30121   1.673   2.515   4.891  0.1503  0.9328 -0.6851
 7589SOL    HW230122   1.642   2.445   4.948 -0.4206  0.5280 -1.4729
 7589SOL    HW330123   1.751   2.550   4.935  0.7287 -0.5083 -0.5232
 7589SOL    MW430124   1.679   2.510   4.905  0.1513  0.6892 -0.7677
 7590SOL     OW30125   1.941   1.889   0.461 -0.6754  0.6383 -0.2925
 7590SOL    HW230126   1.882   1.895   0.386  0.4777  0.6380 -1.2310
 7590SOL    HW330127   1.978   1.801   0.456  0.1642  0.9856 -0.3080
 7590SOL    MW430128   1.938   1.878   0.451 -0.4125  0.6841 -0.4184
 7591SOL     OW30129   1.271   1.487   6.172 -0.1768 -0.0707 -0.5775
 7591SOL    HW230130   1.219   1.427   6.118  0.5114 -0.5635 -0.7179
 7591SOL    HW330131   1.226   1.571   6.166 -1.3627 -0.6568 -0.0945
 7591SOL    MW430132   1.258   1.490   6.164 -0.2425 -0.2130 -0.5323
 7592SOL     OW30133   1.747   2.752   2.252  0.8102  0.3376 -0.2159
 7592SOL    HW230134   1.791   2.698   2.187  0.0956  0.4193 -0.7714
 7592SOL    HW330135   1.660   2.713   2.262 -0.1957  2.0836 -1.5659
 7592SOL    MW430136   1.741   2.740   2.245  0.5832  0.5787 -0.4673
 7593SOL     OW30137   5.690   3.245   2.087  0.5243  0.2240  0.0380
 7593SOL    HW230138   5.672   3.312   2.021 -0.4559  0.3047  0.3693
 7593SOL    HW330139   5.722   3.294   2.162  0.9962  0.1957 -0.1412
 7593SOL    MW430140   5.692   3.260   2.088  0.4572  0.2309  0.0581
 7594SOL     OW30141   4.589   2.851   5.402  0.0946 -0.3569  0.2031
 7594SOL    HW230142   4.546   2.916   5.457 -0.5527 -0.8261  0.2612
 7594SOL    HW330143   4.521   2.821   5.343  0.3629 -1.0472  0.2373
 7594SOL    MW430144   4.574   2.856   5.402  0.0446 -0.5099  0.2153
 7595SOL     OW30145   2.266   5.591   4.230 -0.4596 -0.0175 -0.4679
 7595SOL    HW230146   2.336   5.567   4.291  0.1157  1.4327 -0.5071
 7595SOL    HW330147   2.289   5.549   4.148 -0.0591 -0.1875 -0.2689
 7595SOL    MW430148   2.278   5.582   4.227 -0.3309  0.1514 -0.4468
 7596SOL     OW30149   2.391   4.231   1.296 -0.0983 -0.3575  0.4215
 7596SOL    HW230150   2.368   4.139   1.312 -0.1873 -0.3597  0.2853
 7596SOL    HW330151   2.419   4.264   1.381 -1.1001 -0.2079  0.7004
 7596SOL    MW430152   2.392   4.223   1.309 -0.2422 -0.3381  0.4403
 7597SOL     OW30153   4.772   2.435   2.030  0.7002 -0.1037 -0.6288
 7597SOL    HW230154   4.711   2.362   2.039 -0.7196  1.0036 -0.8009
 7597SOL    HW330155   4.858   2.395   2.024  0.3453 -1.6663  2.6105
 7597SOL    MW430156   4.775   2.420   2.031  0.4661 -0.1638 -0.2241
 7598SOL     OW30157   4.295   1.955   3.567  0.4075  0.1539  0.5279
 7598SOL    HW230158   4.264   1.965   3.477  0.7244 -0.1618  0.3803
 7598SOL    HW330159   4.314   1.861   3.575  3.6634  0.6408 -0.1720
 7598SOL    MW430160   4.294   1.944   3.556  0.8789  0.1765  0.4161
 7599SOL     OW30161   3.488   4.114   2.223 -0.4672 -0.0337  0.0816
 7599SOL    HW230162   3.515   4.157   2.304 -0.1578  1.3652 -0.7266
 7599SOL    HW330163   3.570   4.088   2.181 -0.6367 -0.9939  0.3435
 7599SOL    MW430164   3.503   4.117   2.228 -0.4487  0.0242  0.0095
 7600SOL     OW30165   3.802   0.123   4.735 -0.4979  0.5263 -0.1387
 7600SOL    HW230166   3.734   0.056   4.742 -0.4472  0.5271  0.4752
 7600SOL    HW330167   3.762   0.201   4.774  0.5468 -0.0295  2.2191
 7600SOL    MW430168   3.788   0.124   4.741 -0.3534  0.4531  0.2534
 7601SOL     OW30169   5.143   0.093   5.690  0.4002 -0.7756 -0.2351
 7601SOL    HW230170   5.102   0.171   5.651  0.5336 -0.8173 -0.4626
 7601SOL    HW330171   5.172   0.122   5.776  0.8916 -0.4313 -0.5108
 7601SOL    MW430172   5.141   0.107   5.696  0.4827 -0.7357 -0.3015
 7602SOL     OW30173   6.320   5.112   0.025  0.4583  0.1303  0.0801
 7602SOL    HW230174   6.333   5.127  -0.068 -0.0020  0.3916  0.0570
 7602SOL    HW330175   6.225   5.116   0.037  0.4000 -1.3814  0.3013
 7602SOL    MW430176   6.309   5.114   0.015  0.3899 -0.0347  0.1062
 7603SOL     OW30177   3.825   2.052   6.038 -0.3247 -0.3009 -0.4290
 7603SOL    HW230178   3.761   2.001   6.087 -0.0903  1.1536  1.5024
 7603SOL    HW330179   3.905   1.999   6.041 -0.9979 -1.4352 -1.5741
 7603SOL    MW430180   3.827   2.038   6.045 -0.3826 -0.2586 -0.3253
 7604SOL     OW30181   4.897   4.549   2.967  0.0597  0.3231  0.3208
 7604SOL    HW230182   4.837   4.600   3.022 -0.9564 -1.3489  0.8295
 7604SOL    HW330183   4.848   4.469   2.946  1.8136 -0.7259  0.0652
 7604SOL    MW430184   4.882   4.545   2.972  0.1570 -0.0359  0.3542
 7605SOL     OW30185   6.341   1.286   1.397  0.5013  0.4109 -0.3042
 7605SOL    HW230186   6.297   1.363   1.432 -1.0895 -0.5700 -0.0514
 7605SOL    HW330187   6.280   1.251   1.331  0.9921 -0.8566 -0.1093
 7605SOL    MW430188   6.327   1.291   1.393  0.3561  0.1143 -0.2452
 7606SOL     OW30189   0.208   1.709   1.210 -0.5539  0.3495  0.1235
 7606SOL    HW230190   0.121   1.709   1.248 -0.4462 -0.4306  0.3895
 7606SOL    HW330191   0.204   1.643   1.141  0.0539 -0.3115  0.7035
 7606SOL    MW430192   0.196   1.701   1.206 -0.4595  0.1594  0.2351
 7607SOL     OW30193   5.419   2.220   3.023 -0.3508  0.2341  0.7856
 7607SOL    HW230194   5.434   2.140   3.073  2.3255 -0.2768 -0.6612
 7607SOL    HW330195   5.455   2.201   2.936  0.0280  2.8553  0.2914
 7607SOL    MW430196   5.426   2.207   3.019  0.0523  0.5125  0.5295
 7608SOL     OW30197   3.044   4.894   4.564 -0.1475  0.0211  0.0879
 7608SOL    HW230198   3.123   4.841   4.553  0.8433  1.3316  0.6097
 7608SOL    HW330199   2.987   4.841   4.619  0.7178 -0.6014  0.4080
 7608SOL    MW430200   3.047   4.880   4.570  0.0974  0.1119  0.1990
 7609SOL     OW30201   3.372   6.358   5.206 -0.1884 -0.2653 -1.0958
 7609SOL    HW230202   3.284   6.368   5.171 -0.3674 -0.4775 -0.7064
 7609SOL    HW330203   3.397   6.268   5.183  0.7094  0.4088 -2.9740
 7609SOL    MW430204   3.364   6.347   5.198 -0.0936 -0.2043 -1.2922
 7610SOL     OW30205   3.301   5.444   6.200 -0.1785 -0.2514 -0.4266
 7610SOL    HW230206   3.374   5.489   6.243 -0.2863 -1.0698  0.6785
 7610SOL    HW330207   3.322   5.445   6.107  0.5356  0.7758 -0.2600
 7610SOL    MW430208   3.314   5.450   6.194 -0.0985 -0.2239 -0.2588
 7611SOL     OW30209   4.469   4.034   5.543  0.6101 -0.0467 -0.1546
 7611SOL    HW230210   4.476   4.127   5.568 -0.6936  0.2857 -0.9363
 7611SOL    HW330211   4.560   4.006   5.532  1.1328  0.5689  2.0390
 7611SOL    MW430212   4.482   4.043   5.545  0.5070  0.0784  0.0317
 7612SOL     OW30213   1.634   0.889   6.097 -0.0327  0.1460 -0.1633
 7612SOL    HW230214   1.692   0.885   6.172  0.8956 -0.4045 -0.8833
 7612SOL    HW330215   1.560   0.834   6.121  0.3489 -0.1856  0.2665
 7612SOL    MW430216   1.632   0.881   6.110  0.1401  0.0296 -0.2016
 7613SOL     OW30217   3.420   4.753   6.055  0.0370 -0.3119  0.0190
 7613SOL    HW230218   3.442   4.745   6.148 -1.2516 -0.2084  0.3605
 7613SOL    HW330219   3.489   4.807   6.018  0.7152 -0.5831  0.8600
 7613SOL    MW430220   3.432   4.759   6.062 -0.0435 -0.3340  0.1750
 7614SOL     OW30221   2.829   2.337   3.347 -0.0332  0.0998 -0.7131
 7614SOL    HW230222   2.781   2.277   3.290  0.2928  0.8232 -1.7720
 7614SOL    HW330223   2.792   2.322   3.434 -3.1250  1.5267 -1.6578
 7614SOL    MW430224   2.818   2.327   3.351 -0.3981  0.3835 -0.9775
 7615SOL     OW30225   0.898   0.435   6.099 -0.3017 -0.7343  0.5375
 7615SOL    HW230226   0.882   0.412   6.007 -0.3694 -1.7959  0.8119
 7615SOL    HW330227   0.811   0.446   6.137 -0.2738 -0.3035  0.4900
 7615SOL    MW430228   0.884   0.434   6.092 -0.3070 -0.8176  0.5674
 7616SOL     OW30229   1.984   1.967   3.672 -0.1870 -0.1470 -0.4221
 7616SOL    HW230230   1.969   2.059   3.652 -0.7176 -0.5544 -2.0667
 7616SOL    HW330231   1.916   1.944   3.734 -0.7597  0.2902 -0.8781
 7616SOL    MW430232   1.973   1.976   3.678 -0.3326 -0.1431 -0.6992
 7617SOL     OW30233   5.528   1.530   2.972  0.7191 -0.4830  0.6744
 7617SOL    HW230234   5.433   1.541   2.977  0.8687  0.9981  0.8919
 7617SOL    HW330235   5.555   1.585   2.898  1.5040  0.0386  1.3214
 7617SOL    MW430236   5.519   1.539   2.963  0.8424 -0.2188  0.7885
 7618SOL     OW30237   4.354   0.828   4.853  0.2715  1.1442 -0.1054
 7618SOL    HW230238   4.306   0.798   4.929  0.0286 -0.9507 -1.0174
 7618SOL    HW330239   4.292   0.883   4.805 -0.3150  0.6478  0.0799
 7618SOL    MW430240   4.340   0.831   4.856  0.1621  0.8023 -0.2012
 7619SOL     OW30241   4.272   3.740   3.341 -0.6629  0.2921 -0.1772
 7619SOL    HW230242   4.325   3.741   3.261  1.8886  0.7017  1.3928
 7619SOL    HW330243   4.247   3.648   3.352  0.8328 -0.1645 -0.3400
 7619SOL    MW430244   4.276   3.728   3.331 -0.1289  0.2859  0.0084
 7620SOL     OW30245   2.090   2.753   6.202  0.3002 -0.5700  0.4853
 7620SOL    HW230246   2.061   2.677   6.151  0.8950 -0.6294  0.2323
 7620SOL    HW330247   2.105   2.718   6.290  1.8290 -1.0437  0.0707
 7620SOL    MW430248   2.088   2.738   6.207  0.5804 -0.6403  0.3972
 7621SOL     OW30249   2.232   3.838   0.760  0.8049  0.5166 -0.2300
 7621SOL    HW230250   2.268   3.768   0.815  0.6032 -0.1102 -0.8687
 7621SOL    HW330251   2.156   3.871   0.809 -0.1001 -0.8513 -0.6401
 7621SOL    MW430252   2.226   3.833   0.773  0.6589  0.2534 -0.3684
 7622SOL     OW30253   0.270   0.389   0.188  0.3632 -0.3785  0.8070
 7622SOL    HW230254   0.320   0.380   0.269  1.3244  0.8059  0.3746
 7622SOL    HW330255   0.293   0.476   0.156 -0.5027 -0.5821 -0.4063
 7622SOL    MW430256   0.280   0.399   0.194  0.3758 -0.2491  0.5899
 7623SOL     OW30257   5.072   2.940   5.284 -0.2989 -0.0218 -0.5111
 7623SOL    HW230258   5.117   2.993   5.349 -3.0687  0.7817  0.9066
 7623SOL    HW330259   5.019   2.879   5.335 -0.4135 -1.3079 -2.0803
 7623SOL    MW430260   5.071   2.939   5.299 -0.6795 -0.0855 -0.5311
 7624SOL     OW30261   5.265   5.179   4.747  0.2585  0.1042 -0.2605
 7624SOL    HW230262   5.327   5.105   4.739  0.3205  0.0414  0.6565
 7624SOL    HW330263   5.259   5.194   4.842 -0.8279  0.3764 -0.3702
 7624SOL    MW430264   5.273   5.171   4.759  0.1234  0.1318 -0.1540
 7625SOL     OW30265   5.656   1.953   0.388  0.1871 -0.2180  0.0091
 7625SOL    HW230266   5.588   1.939   0.322 -0.3719  1.5031  0.1914
 7625SOL    HW330267   5.612   1.938   0.471  0.0055  0.9544  0.1301
 7625SOL    MW430268   5.641   1.949   0.390  0.0894  0.1638  0.0491
 7626SOL     OW30269   6.395   3.846   1.093 -0.2796  0.2754 -0.0028
 7626SOL    HW230270   6.379   3.909   1.023  0.2010  0.3606 -0.0396
 7626SOL    HW330271   6.486   3.820   1.082 -1.0601 -2.1579 -1.3917
 7626SOL    MW430272   6.405   3.851   1.083 -0.3192 -0.0344 -0.1909
 7627SOL     OW30273   1.909   4.666   3.990 -0.0920  0.2283  0.3799
 7627SOL    HW230274   1.982   4.716   3.954  0.2446 -0.4409  0.1303
 7627SOL    HW330275   1.832   4.699   3.943  0.1816  0.2215 -0.0713
 7627SOL    MW430276   1.908   4.677   3.979 -0.0115  0.1391  0.2874
 7628SOL     OW30277   1.926   3.547   3.166  0.0517 -0.5067  0.0998
 7628SOL    HW230278   1.890   3.554   3.078 -0.3018 -1.4113  0.1672
 7628SOL    HW330279   1.892   3.624   3.212 -0.1446 -0.2818 -0.4134
 7628SOL    MW430280   1.917   3.558   3.160 -0.0208 -0.5964  0.0410
 7629SOL     OW30281   1.548   3.309   0.722 -0.2106  0.5091 -0.2117
 7629SOL    HW230282   1.601   3.260   0.659 -0.0784 -0.6229  0.7391
 7629SOL    HW330283   1.478   3.348   0.670  0.0503 -0.1635 -1.0947
 7629SOL    MW430284   1.546   3.308   0.707 -0.1587  0.2710 -0.2027
 7630SOL     OW30285   1.563   0.354   3.171 -0.1515  0.1129 -0.5138
 7630SOL    HW230286   1.649   0.355   3.128 -0.8235 -2.5307 -2.1601
 7630SOL    HW330287   1.505   0.397   3.108 -0.4637 -0.3565 -0.5502
 7630SOL    MW430288   1.566   0.360   3.157 -0.2814 -0.2978 -0.7358
 7631SOL     OW30289   5.188   1.280   2.141  0.0091  0.2457 -0.4470
 7631SOL    HW230290   5.251   1.251   2.207  0.1549 -0.2158 -0.7791
 7631SOL    HW330291   5.114   1.219   2.151 -1.0724  1.7069  0.9683
 7631SOL    MW430292   5.186   1.268   2.151 -0.1144  0.3776 -0.3040
 7632SOL     OW30293   0.659   1.121   2.069  0.0197  0.1027 -0.1221
 7632SOL    HW230294   0.627   1.031   2.078 -0.1062  0.2918  1.6478
 7632SOL    HW330295   0.730   1.129   2.132  0.1658  1.1974 -0.3918
 7632SOL    MW430296   0.664   1.111   2.078  0.0224  0.2721  0.0759
 7633SOL     OW30297   2.953   5.890   3.270 -0.2464 -0.2430  0.0886
 7633SOL    HW230298   2.935   5.976   3.309  0.3424  0.1396 -0.4703
 7633SOL    HW330299   3.036   5.863   3.310 -0.2433 -0.3828 -0.0127
 7633SOL    MW430300   2.962   5.897   3.281 -0.1683 -0.2110  0.0015
 7634SOL     OW30301   6.239   2.821   5.787 -0.8648 -0.1175  0.4471
 7634SOL    HW230302   6.212   2.889   5.849  0.3583 -0.6159  1.5965
 7634SOL    HW330303   6.328   2.846   5.762 -0.1189 -1.6221  1.4396
 7634SOL    MW430304   6.248   2.833   5.792 -0.6050 -0.3818  0.7297
 7635SOL     OW30305   5.589   2.538   1.287 -0.2409 -0.0351 -0.2536
 7635SOL    HW230306   5.594   2.574   1.198 -1.2363  2.4444  0.6047
 7635SOL    HW330307   5.680   2.524   1.312  0.1684  1.3559 -0.8751
 7635SOL    MW430308   5.602   2.541   1.278 -0.3182  0.4755 -0.2223
 7636SOL     OW30309   4.193   4.773   6.183  0.1628  0.0643  0.5453
 7636SOL    HW230310   4.234   4.788   6.268 -0.7731  2.0672  0.7153
 7636SOL    HW330311   4.263   4.785   6.119  0.6271 -0.3335  0.9787
 7636SOL    MW430312   4.207   4.777   6.186  0.1006  0.2761  0.6249
 7637SOL     OW30313   5.153   4.505   0.615  0.3849  0.1024  0.1775
 7637SOL    HW230314   5.107   4.492   0.698  1.3563 -2.8077  0.3669
 7637SOL    HW330315   5.241   4.471   0.631  0.2240 -1.7455 -2.3701
 7637SOL    MW430316   5.159   4.499   0.628  0.4919 -0.5254 -0.1336
 7638SOL     OW30317   0.665   4.233   4.593 -0.3100  0.3074 -0.1496
 7638SOL    HW230318   0.600   4.163   4.601 -0.5382  0.5237 -0.0900
 7638SOL    HW330319   0.693   4.251   4.683 -0.2547  0.2981 -0.1645
 7638SOL    MW430320   0.660   4.226   4.606 -0.3328  0.3347 -0.1437
 7639SOL     OW30321   5.571   3.128   1.691  0.6504 -0.1674  0.3004
 7639SOL    HW230322   5.507   3.177   1.743  1.5291  0.9864  0.3276
 7639SOL    HW330323   5.537   3.039   1.690 -3.2654  1.0577 -3.1879
 7639SOL    MW430324   5.558   3.123   1.698  0.2497  0.1465 -0.1563
 7640SOL     OW30325   0.788   5.944   0.333  0.1581 -0.0915 -0.1488
 7640SOL    HW230326   0.793   5.917   0.425  1.1823  1.5855  0.3319
 7640SOL    HW330327   0.695   5.952   0.316 -0.1279  3.2951  1.9956
 7640SOL    MW430328   0.777   5.942   0.343  0.2555  0.5766  0.1976
 7641SOL     OW30329   2.385   4.424   2.146  0.4012 -0.4809 -0.0177
 7641SOL    HW230330   2.447   4.373   2.094  0.3604 -1.7870  1.1416
 7641SOL    HW330331   2.341   4.480   2.083  2.6673  0.4285 -0.8991
 7641SOL    MW430332   2.387   4.425   2.131  0.6948 -0.5332  0.0190
 7642SOL     OW30333   1.305   1.174   5.948  0.3575  0.1949  0.2210
 7642SOL    HW230334   1.257   1.167   5.866 -0.3325 -1.8894  0.7583
 7642SOL    HW330335   1.374   1.238   5.930 -0.7661  0.9990 -1.4674
 7642SOL    MW430336   1.308   1.182   5.935  0.1182  0.0260  0.0691
 7643SOL     OW30337   4.529   4.665   6.193 -0.7648 -0.3350  0.0879
 7643SOL    HW230338   4.588   4.593   6.217  0.2268  0.0078 -1.2011
 7643SOL    HW330339   4.458   4.623   6.145 -1.1511 -0.6577  0.9316
 7643SOL    MW430340   4.528   4.650   6.190 -0.6849 -0.3323  0.0291
 7644SOL     OW30341   1.381   0.902   3.590 -0.4936 -0.7257 -0.0522
 7644SOL    HW230342   1.326   0.926   3.515 -0.7015  0.1662  0.3693
 7644SOL    HW330343   1.455   0.855   3.551  0.0215  0.7741 -0.9602
 7644SOL    MW430344   1.384   0.899   3.575 -0.4531 -0.4101 -0.1164
 7645SOL     OW30345   3.101   2.120   1.828  0.4017 -0.8679 -0.2750
 7645SOL    HW230346   3.123   2.060   1.899 -0.3731 -0.3195  0.4630
 7645SOL    HW330347   3.067   2.198   1.873 -2.2141 -1.3250 -1.2411
 7645SOL    MW430348   3.099   2.122   1.844 -0.0457 -0.8559 -0.3051
 7646SOL     OW30349   4.372   0.636   3.109 -0.4295  0.5609 -0.1106
 7646SOL    HW230350   4.368   0.548   3.071 -1.7204  0.7829 -0.5450
 7646SOL    HW330351   4.462   0.664   3.095  0.3086 -1.0899  0.9603
 7646SOL    MW430352   4.383   0.628   3.102 -0.5024  0.3724 -0.0266
 7647SOL     OW30353   4.581   5.043   3.458  0.0633 -0.2258  0.0837
 7647SOL    HW230354   4.532   5.000   3.389  0.9286 -1.3427  0.1476
 7647SOL    HW330355   4.514   5.073   3.520 -0.5639 -1.4144  0.0003
 7647SOL    MW430356   4.566   5.041   3.457  0.0947 -0.5300  0.0811
 7648SOL     OW30357   5.533   6.281   0.903  0.4300  0.5282  0.5857
 7648SOL    HW230358   5.446   6.276   0.942  0.6522 -2.1465  0.8958
 7648SOL    HW330359   5.592   6.293   0.978  0.3800  2.1417  0.3933
 7648SOL    MW430360   5.530   6.282   0.918  0.4527  0.3882  0.6012
 7649SOL     OW30361   3.983   1.616   0.216  0.1565  0.5726 -0.1440
 7649SOL    HW230362   4.019   1.533   0.184 -1.6481 -0.0440 -0.6787
 7649SOL    HW330363   4.035   1.635   0.294  0.1690 -1.4348  0.4026
 7649SOL    MW430364   3.995   1.607   0.222 -0.0800  0.2264 -0.1424
 7650SOL     OW30365   5.927   4.990   0.558 -0.3965  0.0472 -0.0937
 7650SOL    HW230366   6.003   4.977   0.501 -1.6153 -1.2944 -1.4994
 7650SOL    HW330367   5.907   5.084   0.551  1.5299  0.5947  0.9153
 7650SOL    MW430368   5.934   5.001   0.550 -0.3031 -0.0576 -0.1460
 7651SOL     OW30369   2.373   4.217   2.910  0.3752 -0.1558  0.1932
 7651SOL    HW230370   2.410   4.171   2.835 -0.4933 -2.2786  1.0087
 7651SOL    HW330371   2.349   4.303   2.876  2.0225 -0.2701 -1.3980
 7651SOL    MW430372   2.375   4.223   2.896  0.4779 -0.4509  0.0908
 7652SOL     OW30373   4.760   3.615   1.805 -0.2241  1.0798 -0.0744
 7652SOL    HW230374   4.778   3.637   1.896 -0.8321 -0.7858  0.5502
 7652SOL    HW330375   4.816   3.674   1.754  0.1597  2.1193  1.4996
 7652SOL    MW430376   4.770   3.626   1.810 -0.2537  0.9708  0.2157
 7653SOL     OW30377   0.428   2.392   3.347 -0.0469 -0.0004  0.7061
 7653SOL    HW230378   0.446   2.380   3.254 -0.7653 -0.6071  0.6280
 7653SOL    HW330379   0.332   2.389   3.353 -0.0555  1.1479  1.3263
 7653SOL    MW430380   0.418   2.390   3.336 -0.1428  0.0711  0.7777
 7654SOL     OW30381   3.531   4.851   0.241 -0.1222 -0.3862 -0.0662
 7654SOL    HW230382   3.464   4.877   0.303 -1.1213 -0.3046 -1.1448
 7654SOL    HW330383   3.493   4.778   0.192  0.5862 -0.3839 -0.6476
 7654SOL    MW430384   3.517   4.845   0.242 -0.1606 -0.3752 -0.2852
 7655SOL     OW30385   5.751   2.955   2.623  0.1905 -0.0731 -0.2554
 7655SOL    HW230386   5.686   3.026   2.629 -1.4891 -1.6061  0.8716
 7655SOL    HW330387   5.765   2.928   2.713  0.5860 -1.3409 -0.6718
 7655SOL    MW430388   5.744   2.961   2.635  0.0211 -0.4427 -0.1617
 7656SOL     OW30389   5.852   3.879   5.604  0.4102 -0.3688 -0.2414
 7656SOL    HW230390   5.849   3.913   5.515  0.3534  0.2071 -0.0185
 7656SOL    HW330391   5.858   3.784   5.593  0.5754 -0.2894 -0.8599
 7656SOL    MW430392   5.853   3.871   5.591  0.4245 -0.2824 -0.2936
 7657SOL     OW30393   5.589   0.514   4.009 -0.4691  0.0439 -0.3462
 7657SOL    HW230394   5.682   0.497   4.024 -0.5196  0.6123  0.6098
 7657SOL    HW330395   5.558   0.558   4.088 -1.9101 -1.5081  0.0150
 7657SOL    MW430396   5.597   0.517   4.021 -0.6659 -0.0859 -0.1724
 7658SOL     OW30397   0.580   5.674   5.375  0.5495  0.1205  0.0123
 7658SOL    HW230398   0.622   5.638   5.297  1.6345  1.0994  0.1332
 7658SOL    HW330399   0.563   5.765   5.354  2.4606  0.8845  1.5084
 7658SOL    MW430400   0.583   5.681   5.362  0.9448  0.3505  0.2256
 7659SOL     OW30401   4.900   6.216   0.902 -0.2801  0.3029  0.5234
 7659SOL    HW230402   4.808   6.238   0.919 -0.5455  0.1674 -0.6172
 7659SOL    HW330403   4.899   6.123   0.881  0.1200  0.3090  0.4639
 7659SOL    MW430404   4.888   6.207   0.901 -0.2623  0.2858  0.3651
 7660SOL     OW30405   1.140   2.813   5.443  0.2991  0.0613 -0.4021
 7660SOL    HW230406   1.116   2.861   5.522 -1.8209 -1.5868  0.0711
 7660SOL    HW330407   1.203   2.747   5.472  1.3276  0.9308 -0.5879
 7660SOL    MW430408   1.145   2.810   5.457  0.1551 -0.0414 -0.3642
 7661SOL     OW30409   3.562   1.519   6.402 -0.0285 -0.1768  0.0466
 7661SOL    HW230410   3.477   1.562   6.399 -0.3352 -0.7981 -0.1231
 7661SOL    HW330411   3.625   1.592   6.402 -0.5231  0.2630 -0.7816
 7661SOL    MW430412   3.559   1.534   6.402 -0.1342 -0.2007 -0.0851
 7662SOL     OW30413   2.373   6.065   0.612 -0.7021 -0.0492 -0.7315
 7662SOL    HW230414   2.432   6.016   0.669 -0.5754  0.7880 -0.1328
 7662SOL    HW330415   2.418   6.069   0.528  0.0377  0.4664 -0.3177
 7662SOL    MW430416   2.387   6.059   0.609 -0.5878  0.1293 -0.5979
 7663SOL     OW30417   0.435   3.330   1.758  0.4836 -0.0286 -0.1051
 7663SOL    HW230418   0.490   3.273   1.811  0.6782 -0.8081 -1.0971
 7663SOL    HW330419   0.360   3.275   1.735  0.9050 -0.0797 -1.4664
 7663SOL    MW430420   0.433   3.315   1.762  0.5649 -0.1382 -0.4156
 7664SOL     OW30421   3.112   3.632   4.999  0.0852 -0.4625  0.0139
 7664SOL    HW230422   3.156   3.695   5.056  1.3193  0.0141 -1.4168
 7664SOL    HW330423   3.117   3.549   5.048  0.0467  0.1606  1.1132
 7664SOL    MW430424   3.118   3.629   5.013  0.2429 -0.3174 -0.0298
 7665SOL     OW30425   4.464   4.025   3.825 -0.2980  0.0360 -0.4001
 7665SOL    HW230426   4.491   4.061   3.910 -0.0655 -0.5645 -0.2196
 7665SOL    HW330427   4.522   3.952   3.809 -2.4864 -2.0545  0.5685
 7665SOL    MW430428   4.475   4.020   3.834 -0.5561 -0.3190 -0.2485
 7666SOL     OW30429   5.260   3.591   5.346  0.0496  0.3225 -0.7243
 7666SOL    HW230430   5.184   3.579   5.290 -1.5941  0.3399  1.4066
 7666SOL    HW330431   5.225   3.598   5.434  2.4589  1.3017  0.2470
 7666SOL    MW430432   5.246   3.590   5.350  0.1506  0.4540 -0.3150
 7667SOL     OW30433   5.768   3.679   2.311  0.5015 -0.1228 -0.0185
 7667SOL    HW230434   5.773   3.623   2.388  0.0599 -0.1775 -0.0271
 7667SOL    HW330435   5.705   3.747   2.335  0.0360 -0.3831 -0.4779
 7667SOL    MW430436   5.761   3.681   2.324  0.3818 -0.1644 -0.0802
 7668SOL     OW30437   3.603   4.514   4.275  0.0917  0.3136  0.0380
 7668SOL    HW230438   3.622   4.474   4.360 -0.5144 -2.6193 -1.1029
 7668SOL    HW330439   3.689   4.540   4.242  0.3284  1.5677  1.5282
 7668SOL    MW430440   3.617   4.512   4.282  0.0430  0.0921  0.0841
 7669SOL     OW30441   1.025   1.892   2.378  0.6328  0.2255  0.1759
 7669SOL    HW230442   0.980   1.848   2.306  2.6135 -0.3299 -0.8233
 7669SOL    HW330443   1.060   1.820   2.431  2.1043  0.5642 -0.2805
 7669SOL    MW430444   1.024   1.876   2.375  1.0883  0.1969 -0.0162
 7670SOL     OW30445   4.268   2.818   4.241 -0.0584 -0.0567  0.4270
 7670SOL    HW230446   4.236   2.907   4.228  0.1841 -0.1115 -0.6673
 7670SOL    HW330447   4.269   2.780   4.153  0.4949 -0.9162  0.7923
 7670SOL    MW430448   4.264   2.825   4.228  0.0466 -0.1773  0.3308
 7671SOL     OW30449   1.964   3.470   2.060  0.1688  0.4455  0.5124
 7671SOL    HW230450   1.974   3.404   1.992  1.1807  0.7407  0.3492
 7671SOL    HW330451   1.870   3.485   2.066  0.0960  0.8022 -1.1869
 7671SOL    MW430452   1.953   3.463   2.052  0.2927  0.5315  0.2667
 7672SOL     OW30453   0.416   0.735   4.736 -0.7503  0.3609 -0.0847
 7672SOL    HW230454   0.450   0.824   4.743 -0.5455  0.1721  1.7673
 7672SOL    HW330455   0.327   0.746   4.703 -0.4639  1.1750 -0.6254
 7672SOL    MW430456   0.409   0.748   4.733 -0.6855  0.4434  0.0883
 7673SOL     OW30457   6.094   5.716   4.798  0.0677 -0.5407 -0.1696
 7673SOL    HW230458   6.178   5.675   4.821 -0.9423 -1.6574  1.7061
 7673SOL    HW330459   6.052   5.654   4.739  0.3028 -0.2465 -0.6521
 7673SOL    MW430460   6.100   5.702   4.794 -0.0345 -0.6492  0.0142
 7674SOL     OW30461   6.054   3.342   1.057  0.4368  1.1419 -0.4926
 7674SOL    HW230462   6.042   3.437   1.051 -0.2265  1.0367 -1.0048
 7674SOL    HW330463   6.118   3.322   0.988  0.5954  1.2244 -0.3678
 7674SOL    MW430464   6.061   3.352   1.047  0.3702  1.1389 -0.5437
 7675SOL     OW30465   4.945   1.680   1.601 -0.5785  0.0116 -0.2644
 7675SOL    HW230466   5.005   1.621   1.647 -0.9249 -0.1813 -0.0474
 7675SOL    HW330467   4.910   1.627   1.529 -1.9488 -0.5359  0.7469
 7675SOL    MW430468   4.948   1.665   1.598 -0.8050 -0.0861 -0.1023
 7676SOL     OW30469   5.958   1.920   2.319 -0.0800  0.2196  0.6657
 7676SOL    HW230470   5.972   2.009   2.350 -1.8245  0.4488  0.9270
 7676SOL    HW330471   6.044   1.880   2.320  0.7872  1.9657  0.3333
 7676SOL    MW430472   5.971   1.927   2.323 -0.1957  0.4802  0.6563
 7677SOL     OW30473   5.009   0.406   3.337  0.4731 -0.0931  0.4991
 7677SOL    HW230474   4.997   0.343   3.265  0.5998 -0.5001  0.8291
 7677SOL    HW330475   4.926   0.453   3.340  0.4190 -0.1592  0.1697
 7677SOL    MW430476   4.996   0.404   3.328  0.4827 -0.1555  0.4992
 7678SOL     OW30477   5.862   4.595   6.176 -0.0192  0.0355  0.3228
 7678SOL    HW230478   5.926   4.575   6.107 -1.1470  2.5820 -1.6225
 7678SOL    HW330479   5.914   4.610   6.254  1.5248 -0.5325 -0.5600
 7678SOL    MW430480   5.877   4.594   6.177  0.0357  0.2966 -0.0503
 7679SOL     OW30481   2.529   1.655   3.507 -0.0095  0.6146 -0.0189
 7679SOL    HW230482   2.470   1.719   3.546 -2.7568 -0.4773 -2.0423
 7679SOL    HW330483   2.505   1.572   3.548  0.8237  0.2854 -0.1717
 7679SOL    MW430484   2.518   1.653   3.517 -0.2620  0.4271 -0.3061
 7680SOL     OW30485   2.031   4.549   0.378 -0.0129 -0.6886  0.5933
 7680SOL    HW230486   2.039   4.607   0.302  0.9688 -1.2147  0.2705
 7680SOL    HW330487   2.115   4.502   0.380 -1.1557 -2.8643  0.2068
 7680SOL    MW430488   2.043   4.550   0.368 -0.0342 -1.0451  0.4998
 7681SOL     OW30489   2.562   4.114   3.108  0.1055  0.0407 -0.0220
 7681SOL    HW230490   2.497   4.173   3.069  0.1839 -0.2855 -0.6589
 7681SOL    HW330491   2.511   4.059   3.168 -0.0141  0.5457  0.3514
 7681SOL    MW430492   2.546   4.115   3.111  0.1000  0.0643 -0.0568
 7682SOL     OW30493   1.248   1.121   4.739  0.5868 -0.2540 -0.3526
 7682SOL    HW230494   1.229   1.044   4.794 -0.1378 -0.2768 -0.6258
 7682SOL    HW330495   1.284   1.084   4.658  0.9409 -0.2595 -0.1966
 7682SOL    MW430496   1.251   1.106   4.736  0.5379 -0.2578 -0.3681
 7683SOL     OW30497   1.474   4.992   4.391  0.4255  0.1690 -0.3148
 7683SOL    HW230498   1.504   4.942   4.467 -0.6699 -0.8137 -0.5026
 7683SOL    HW330499   1.461   4.927   4.323  0.2233  0.8845 -0.9699
 7683SOL    MW430500   1.476   4.977   4.392  0.2543  0.1338 -0.4260
 7684SOL     OW30501   6.059   0.767   3.721  0.3492  0.1636  0.7122
 7684SOL    HW230502   6.122   0.736   3.655 -2.0672 -0.0446 -1.6372
 7684SOL    HW330503   6.041   0.690   3.775 -2.6530 -1.7827 -2.6738
 7684SOL    MW430504   6.065   0.753   3.720 -0.3657 -0.1207 -0.0445
 7685SOL     OW30505   5.237   5.611   5.761 -0.1823 -0.4626 -0.3710
 7685SOL    HW230506   5.276   5.666   5.693 -1.0157  0.4963 -0.1009
 7685SOL    HW330507   5.153   5.583   5.724 -0.9763  0.6571  0.4982
 7685SOL    MW430508   5.231   5.615   5.747 -0.3970 -0.1884 -0.2207
 7686SOL     OW30509   5.369   6.356   0.559  0.1016  0.3129 -0.0280
 7686SOL    HW230510   5.289   6.407   0.549 -0.7777 -1.1259 -0.6333
 7686SOL    HW330511   5.432   6.417   0.596 -1.7186  1.1006  1.9744
 7686SOL    MW430512   5.367   6.371   0.563 -0.2545  0.2270  0.1563
 7687SOL     OW30513   2.976   6.030   1.320 -0.3938 -0.2283 -0.0616
 7687SOL    HW230514   2.889   6.051   1.288 -0.3643 -0.3154 -0.1990
 7687SOL    HW330515   3.004   6.109   1.367 -0.2159  0.1098 -0.7217
 7687SOL    MW430516   2.968   6.043   1.322 -0.3665 -0.1952 -0.1669
 7688SOL     OW30517   4.237   5.712   1.859 -0.2578  0.0714  0.6090
 7688SOL    HW230518   4.150   5.674   1.847 -0.3152  0.2151  0.5665
 7688SOL    HW330519   4.227   5.770   1.936 -0.5811  1.2225 -0.2675
 7688SOL    MW430520   4.224   5.715   1.868 -0.3081  0.2422  0.4877
 7689SOL     OW30521   5.107   2.945   2.978 -0.5066  0.1689  0.0393
 7689SOL    HW230522   5.060   3.006   2.921 -0.2156  0.5832  0.2321
 7689SOL    HW330523   5.122   2.995   3.058 -1.2319 -0.5260  0.6264
 7689SOL    MW430524   5.103   2.960   2.981 -0.5639  0.1319  0.1422
 7690SOL     OW30525   0.066   5.315   5.246  0.4632  0.3385 -0.3400
 7690SOL    HW230526   0.139   5.376   5.257  1.8885 -0.8362 -2.5035
 7690SOL    HW330527   0.078   5.280   5.157 -0.6704 -2.5574  0.5576
 7690SOL    MW430528   0.077   5.318   5.235  0.5017 -0.1985 -0.5070
 7691SOL     OW30529   4.123   3.154   0.330  0.2098  0.2016  0.2415
 7691SOL    HW230530   4.189   3.221   0.314  0.7813 -0.5939 -1.0037
 7691SOL    HW330531   4.151   3.111   0.411 -0.9613  2.3287  1.8520
 7691SOL    MW430532   4.135   3.157   0.338  0.1307  0.3773  0.2897
 7692SOL     OW30533   3.211   1.220   2.098 -0.2200  0.5597  0.2047
 7692SOL    HW230534   3.118   1.197   2.092  0.3051 -1.3563 -2.1471
 7692SOL    HW330535   3.239   1.187   2.183 -1.1101 -1.4798 -0.2278
 7692SOL    MW430536   3.202   1.213   2.108 -0.2682  0.0378 -0.1627
 7693SOL     OW30537   0.393   2.731   3.454 -0.0188  0.0532  0.1130
 7693SOL    HW230538   0.415   2.650   3.408 -1.5601 -0.0453 -0.5430
 7693SOL    HW330539   0.429   2.800   3.399 -0.5892 -0.1225 -0.4976
 7693SOL    MW430540   0.400   2.729   3.441 -0.2974  0.0170 -0.0541
 7694SOL     OW30541   0.158   0.128   5.867 -0.0862  0.1844 -0.2281
 7694SOL    HW230542   0.184   0.161   5.953  0.6274  0.8067 -0.6687
 7694SOL    HW330543   0.236   0.084   5.834 -0.1363  0.5409 -0.8368
 7694SOL    MW430544   0.172   0.127   5.874  0.0014  0.3135 -0.3665
 7695SOL     OW30545   5.072   4.357   0.007  0.3610  0.8777  0.6362
 7695SOL    HW230546   5.102   4.269   0.029 -1.5812 -0.9851 -3.0835
 7695SOL    HW330547   4.979   4.357   0.032 -0.2628  0.8764 -1.4217
 7695SOL    MW430548   5.063   4.345   0.013  0.0225  0.6317 -0.1261
 7696SOL     OW30549   4.292   1.510   4.173 -0.1634 -0.0363  0.7198
 7696SOL    HW230550   4.333   1.439   4.223 -2.3174 -1.8728  0.0453
 7696SOL    HW330551   4.201   1.482   4.163 -0.8993  2.4819 -0.2853
 7696SOL    MW430552   4.285   1.496   4.178 -0.5447  0.0536  0.4982
 7697SOL     OW30553   5.772   3.776   2.925 -0.1758  0.4199  0.2736
 7697SOL    HW230554   5.694   3.808   2.880 -0.1252  1.9968  1.2383
 7697SOL    HW330555   5.738   3.717   2.992 -0.3587 -0.6031 -0.6830
 7697SOL    MW430556   5.757   3.772   2.928 -0.1932  0.4930  0.2746
 7698SOL     OW30557   4.208   4.859   5.835 -0.0232 -0.3592 -0.5363
 7698SOL    HW230558   4.122   4.861   5.878  0.0943 -0.9199 -0.2523
 7698SOL    HW330559   4.192   4.889   5.746 -0.6443 -1.1264 -0.6916
 7698SOL    MW430560   4.195   4.863   5.829 -0.0896 -0.5344 -0.5193
 7699SOL     OW30561   3.142   0.768   1.694 -0.5958  0.3182  0.1052
 7699SOL    HW230562   3.211   0.724   1.645 -1.4430  0.5685 -1.3577
 7699SOL    HW330563   3.138   0.721   1.778 -0.1154 -1.0752 -0.6314
 7699SOL    MW430564   3.150   0.756   1.699 -0.6442  0.1674 -0.1850
 7700SOL     OW30565   5.384   2.164   2.727  0.7273 -0.3134 -0.4335
 7700SOL    HW230566   5.334   2.149   2.647 -2.4867 -1.5568  1.5793
 7700SOL    HW330567   5.406   2.076   2.758  0.5899  0.0650  0.7906
 7700SOL    MW430568   5.380   2.150   2.720  0.2851 -0.4275 -0.0065
 7701SOL     OW30569   6.312   1.260   4.465  0.2050  0.0405  0.3022
 7701SOL    HW230570   6.339   1.169   4.458  0.5868  0.2739 -1.8520
 7701SOL    HW330571   6.218   1.259   4.444  0.2746  0.1823 -0.0128
 7701SOL    MW430572   6.303   1.248   4.462  0.2645  0.0900 -0.0236
 7702SOL     OW30573   0.552   0.669   5.230 -0.4438 -0.7413  0.1393
 7702SOL    HW230574   0.618   0.704   5.169 -0.9452 -1.3034 -0.7342
 7702SOL    HW330575   0.501   0.607   5.178 -1.5499 -0.4612  0.8589
 7702SOL    MW430576   0.554   0.666   5.215 -0.6559 -0.7785  0.1190
 7703SOL     OW30577   1.585   2.435   5.910  0.0729  0.5767  0.0899
 7703SOL    HW230578   1.647   2.468   5.845  0.6696  0.1623  0.4378
 7703SOL    HW330579   1.640   2.409   5.984 -0.4569 -0.3800  0.1570
 7703SOL    MW430580   1.601   2.436   5.911  0.0817  0.3958  0.1447
 7704SOL     OW30581   5.944   5.103   1.620  0.3216 -0.2653 -0.8407
 7704SOL    HW230582   5.881   5.151   1.566 -0.6628 -1.6032 -0.9424
 7704SOL    HW330583   5.897   5.024   1.648  0.1963  1.0808  3.3816
 7704SOL    MW430584   5.930   5.099   1.616  0.1752 -0.2642 -0.2970
 7705SOL     OW30585   1.796   1.247   1.914  0.3034 -0.2195  0.4521
 7705SOL    HW230586   1.863   1.181   1.932 -1.6376 -2.9467 -1.5603
 7705SOL    HW330587   1.739   1.244   1.991  0.1804 -1.0113  0.3413
 7705SOL    MW430588   1.798   1.238   1.927  0.0311 -0.6838  0.1719
 7706SOL     OW30589   4.389   2.525   4.408 -0.0583 -0.5836  0.2621
 7706SOL    HW230590   4.345   2.608   4.428 -0.7805 -1.0310  0.5769
 7706SOL    HW330591   4.324   2.458   4.431  0.1560 -1.2050 -0.8807
 7706SOL    MW430592   4.374   2.527   4.413 -0.1253 -0.7246  0.1529
 7707SOL     OW30593   4.026   4.215   0.600 -0.5031 -0.3513  0.1988
 7707SOL    HW230594   3.998   4.261   0.520 -0.4875 -0.3816  0.1760
 7707SOL    HW330595   4.106   4.168   0.574  0.0535  0.4193  0.4897
 7707SOL    MW430596   4.033   4.215   0.586 -0.4276 -0.2537  0.2342
 7708SOL     OW30597   5.769   4.517   4.969 -0.2839  0.4726 -0.2607
 7708SOL    HW230598   5.688   4.538   4.922 -0.7183 -0.6192 -0.0231
 7708SOL    HW330599   5.801   4.437   4.927  0.1186  0.3169  0.3284
 7708SOL    MW430600   5.763   4.509   4.957 -0.2881  0.3080 -0.1516
 7709SOL     OW30601   3.951   0.595   0.024  0.0564 -0.0286 -0.1572
 7709SOL    HW230602   4.045   0.601   0.007 -0.1073  1.3632 -0.7280
 7709SOL    HW330603   3.937   0.505   0.054  1.1583 -1.0847 -2.6113
 7709SOL    MW430604   3.961   0.584   0.026  0.1802  0.0157 -0.5563
 7710SOL     OW30605   5.951   0.847   4.745  0.2067  0.1039 -0.0299
 7710SOL    HW230606   5.990   0.934   4.761 -1.2094  0.8026 -0.2174
 7710SOL    HW330607   5.974   0.797   4.823  1.3560  0.5144 -0.0719
 7710SOL    MW430608   5.959   0.852   4.758  0.1715  0.2503 -0.0602
 7711SOL     OW30609   5.371   3.840   2.904 -0.4110  0.3851  0.1080
 7711SOL    HW230610   5.402   3.753   2.879 -0.0122  0.7255 -0.6271
 7711SOL    HW330611   5.427   3.900   2.854 -0.6701  1.0587  0.6218
 7711SOL    MW430612   5.383   3.836   2.894 -0.3926  0.5189  0.0788
 7712SOL     OW30613   6.441   0.987   3.522  0.3251  0.4574  0.4070
 7712SOL    HW230614   6.392   1.040   3.586 -1.4247 -0.9226  0.3003
 7712SOL    HW330615   6.403   1.010   3.438  1.2199  0.7772  0.0821
 7712SOL    MW430616   6.429   0.997   3.520  0.2123  0.3175  0.3500
 7713SOL     OW30617   6.026   0.391   5.892 -0.0909  0.1856  0.2407
 7713SOL    HW230618   6.012   0.410   5.799 -0.1218 -1.6993 -0.1732
 7713SOL    HW330619   5.946   0.346   5.919  1.2794 -2.4398  0.2228
 7713SOL    MW430620   6.013   0.387   5.883  0.0858 -0.4095  0.1837
 7714SOL     OW30621   5.123   4.242   3.366  0.4237  0.1749  0.4325
 7714SOL    HW230622   5.108   4.337   3.366  0.0015  0.1262 -0.9202
 7714SOL    HW330623   5.187   4.228   3.296 -0.0930 -0.6209  0.1146
 7714SOL    MW430624   5.130   4.253   3.357  0.2998  0.0635  0.2120
 7715SOL     OW30625   5.674   1.294   1.446 -0.0035 -0.8758 -0.8386
 7715SOL    HW230626   5.762   1.302   1.409  0.0739 -1.3981 -0.7665
 7715SOL    HW330627   5.638   1.383   1.440  0.8508 -0.4617 -0.0438
 7715SOL    MW430628   5.681   1.307   1.440  0.1194 -0.8901 -0.7242
 7716SOL     OW30629   5.090   4.945   2.050  0.4368  0.0423 -0.5200
 7716SOL    HW230630   5.150   5.019   2.061  0.3341 -0.0106  0.4803
 7716SOL    HW330631   5.118   4.903   1.968  0.0187  1.6313 -1.5283
 7716SOL    MW430632   5.101   4.949   2.041  0.3681  0.2450 -0.5211
 7717SOL     OW30633   4.838   5.240   6.089  0.1851 -0.2187  0.5546
 7717SOL    HW230634   4.889   5.219   6.166  0.3686  1.3469  0.9016
 7717SOL    HW330635   4.903   5.262   6.022  0.0003  0.3839  0.5683
 7717SOL    MW430636   4.853   5.240   6.090  0.1849  0.0674  0.6022
 7718SOL     OW30637   5.886   4.605   4.261  0.1092  0.2445 -0.3799
 7718SOL    HW230638   5.794   4.608   4.290 -0.3107  1.1298 -1.6915
 7718SOL    HW330639   5.910   4.513   4.270 -1.0512 -0.0876 -0.4142
 7718SOL    MW430640   5.877   4.593   4.266 -0.0993  0.3175 -0.5575
 7719SOL     OW30641   2.917   3.795   1.094 -0.3132  0.1380 -0.2422
 7719SOL    HW230642   2.892   3.798   1.186  0.8783  0.4390  0.0869
 7719SOL    HW330643   2.990   3.733   1.091 -1.1506 -0.8546 -1.1957
 7719SOL    MW430644   2.924   3.787   1.106 -0.2665  0.0468 -0.3246
 7720SOL     OW30645   4.990   2.272   1.980  0.1852  0.0220 -0.1875
 7720SOL    HW230646   4.931   2.198   1.980 -1.4133  1.2408 -0.1099
 7720SOL    HW330647   5.055   2.251   2.048  0.3719 -1.7065 -0.8558
 7720SOL    MW430648   4.991   2.260   1.989 -0.0011 -0.0453 -0.2654
 7721SOL     OW30649   4.311   3.958   2.138  0.1676  0.8238  0.7237
 7721SOL    HW230650   4.226   3.940   2.177 -1.2848  2.1344 -1.5638
 7721SOL    HW330651   4.353   4.020   2.197 -1.4193  1.8099  0.8706
 7721SOL    MW430652   4.305   3.964   2.151 -0.2334  1.1268  0.4413
 7722SOL     OW30653   4.997   1.936   3.936  0.6055 -0.0281  0.0637
 7722SOL    HW230654   5.048   1.997   3.882 -1.4730  1.8575  0.0804
 7722SOL    HW330655   4.936   1.895   3.875  1.6113 -1.7689  0.1559
 7722SOL    MW430656   4.996   1.938   3.921  0.4640 -0.0090  0.0781
 7723SOL     OW30657   2.509   3.924   6.410  0.0117 -0.1718  0.2767
 7723SOL    HW230658   2.470   3.960   6.331 -0.4996 -0.4004  0.4207
 7723SOL    HW330659   2.593   3.887   6.381 -0.4233 -0.7553 -0.2716
 7723SOL    MW430660   2.515   3.924   6.396 -0.1131 -0.2789  0.2233
 7724SOL     OW30661   3.932   2.248   1.048 -0.3478  0.3847  0.0081
 7724SOL    HW230662   3.983   2.168   1.054 -1.6193 -0.5101 -0.7204
 7724SOL    HW330663   3.986   2.307   0.996  0.1823 -0.3384 -0.2798
 7724SOL    MW430664   3.946   2.245   1.042 -0.4456  0.1712 -0.1260
 7725SOL     OW30665   4.757   3.813   2.395  0.0755  0.8421  0.2988
 7725SOL    HW230666   4.713   3.732   2.419 -0.4083  0.6011 -1.3071
 7725SOL    HW330667   4.845   3.804   2.431  0.9395 -1.6350 -2.1492
 7725SOL    MW430668   4.763   3.801   2.403  0.1257  0.4835 -0.2361
 7726SOL     OW30669   0.133   5.773   1.736 -0.5751  0.2635 -1.0657
 7726SOL    HW230670   0.226   5.783   1.715 -0.4782 -2.8483 -2.5680
 7726SOL    HW330671   0.131   5.752   1.829  0.1817  0.6054 -0.9644
 7726SOL    MW430672   0.145   5.772   1.745 -0.4624 -0.1020 -1.2505
 7727SOL     OW30673   1.813   0.732   5.227  0.5319 -0.0435  0.0603
 7727SOL    HW230674   1.816   0.821   5.192 -0.5491  0.4065  1.0600
 7727SOL    HW330675   1.729   0.697   5.198  0.1841 -0.1129  1.0958
 7727SOL    MW430676   1.802   0.739   5.219  0.3434  0.0067  0.3288
 7728SOL     OW30677   5.416   5.193   5.964 -0.1024  0.2757 -0.1313
 7728SOL    HW230678   5.363   5.213   6.042 -1.8778 -0.4119 -1.0850
 7728SOL    HW330679   5.363   5.226   5.891  0.5780 -0.8536 -1.1692
 7728SOL    MW430680   5.402   5.200   5.965 -0.2469  0.0359 -0.3941
 7729SOL     OW30681   1.515   3.887   4.672  0.1539 -0.1164  0.0379
 7729SOL    HW230682   1.520   3.960   4.733  1.4422  0.3358 -0.5568
 7729SOL    HW330683   1.585   3.827   4.700 -0.6715 -0.9711  0.3196
 7729SOL    MW430684   1.525   3.889   4.683  0.2150 -0.1695 -0.0034
 7730SOL     OW30685   4.228   0.994   0.887 -0.6041  0.1409  0.0026
 7730SOL    HW230686   4.193   0.909   0.912 -2.7881  1.2183  0.9040
 7730SOL    HW330687   4.288   0.975   0.815 -2.8906 -1.9601 -1.5321
 7730SOL    MW430688   4.231   0.980   0.880 -1.1939  0.0059 -0.0810
 7731SOL     OW30689   2.727   6.392   0.250  0.1922 -0.3717 -0.0002
 7731SOL    HW230690   2.678   6.437   0.181 -1.8460  0.2008  1.7182
 7731SOL    HW330691   2.702   6.436   0.330  0.2521 -2.7995  1.4663
 7731SOL    MW430692   2.717   6.403   0.251 -0.0688 -0.6165  0.4200
 7732SOL     OW30693   5.688   2.025   4.067  0.1209  0.0541 -0.4085
 7732SOL    HW230694   5.716   2.085   4.137  1.2645  0.1400 -0.9229
 7732SOL    HW330695   5.711   2.071   3.986 -0.0852 -0.5726 -0.8257
 7732SOL    MW430696   5.695   2.039   4.066  0.2446 -0.0173 -0.5314
 7733SOL     OW30697   2.233   1.765   2.830 -0.3897 -0.0729 -0.2061
 7733SOL    HW230698   2.266   1.676   2.841 -0.1163 -0.1712 -1.6272
 7733SOL    HW330699   2.139   1.753   2.813 -0.0930 -0.2345 -1.9106
 7733SOL    MW430700   2.225   1.752   2.829 -0.3145 -0.1072 -0.6185
 7734SOL     OW30701   0.735   4.274   0.153  0.3855 -0.3265 -0.0167
 7734SOL    HW230702   0.746   4.200   0.212  3.0382  0.7284  0.9924
 7734SOL    HW330703   0.749   4.237   0.065  2.6668 -0.9450  0.5339
 7734SOL    MW430704   0.738   4.260   0.149  1.0365 -0.2689  0.1891
 7735SOL     OW30705   0.555   3.987   3.996  0.1854  0.3938  0.5379
 7735SOL    HW230706   0.579   3.953   3.909  0.1841  1.8169 -0.0360
 7735SOL    HW330707   0.639   4.006   4.038  0.1739  0.1390  0.6799
 7735SOL    MW430708   0.569   3.985   3.990  0.1837  0.5480  0.4809
 7736SOL     OW30709   4.107   4.640   0.273 -0.4884  0.0666  0.6154
 7736SOL    HW230710   4.196   4.617   0.247 -0.6234 -1.0253  1.0667
 7736SOL    HW330711   4.104   4.736   0.265  1.2976  0.3308  2.2912
 7736SOL    MW430712   4.118   4.650   0.269 -0.2706 -0.0426  0.8961
 7737SOL     OW30713   1.660   1.068   2.535  0.0810  0.0778  0.5233
 7737SOL    HW230714   1.587   1.016   2.503  0.6705 -0.6781  0.3616
 7737SOL    HW330715   1.723   1.068   2.462  1.2956 -1.3778  1.5288
 7737SOL    MW430716   1.659   1.061   2.521  0.3190 -0.2140  0.6346
 7738SOL     OW30717   1.481   4.798   4.171 -0.4159  0.1680  0.0751
 7738SOL    HW230718   1.447   4.708   4.165 -0.8025  0.4073 -3.0169
 7738SOL    HW330719   1.572   4.791   4.142 -0.3791  0.7420  0.0549
 7738SOL    MW430720   1.488   4.785   4.166 -0.4620  0.2753 -0.3355
 7739SOL     OW30721   2.258   1.909   2.038  0.2047  0.5456  0.2924
 7739SOL    HW230722   2.337   1.933   2.086 -0.4034  0.4192  1.3974
 7739SOL    HW330723   2.259   1.813   2.039  0.3645  0.5394 -0.2608
 7739SOL    MW430724   2.269   1.899   2.045  0.1456  0.5281  0.3652
 7740SOL     OW30725   3.971   6.161   4.339  0.1752  0.0146 -0.1660
 7740SOL    HW230726   3.929   6.227   4.284  0.1336  0.1976  0.0850
 7740SOL    HW330727   3.909   6.146   4.411 -0.0191 -0.6279 -0.4591
 7740SOL    MW430728   3.957   6.168   4.341  0.1441 -0.0461 -0.1715
 7741SOL     OW30729   6.097   1.439   5.720 -0.2971  0.1902 -0.9206
 7741SOL    HW230730   6.032   1.489   5.769 -0.8007 -0.9601 -0.3787
 7741SOL    HW330731   6.056   1.422   5.636  0.4705  1.9520 -1.6896
 7741SOL    MW430732   6.083   1.443   5.716 -0.2623  0.2709 -0.9506
 7742SOL     OW30733   5.837   2.628   3.431 -0.7005  0.0755 -0.3971
 7742SOL    HW230734   5.870   2.549   3.473 -0.9561  0.5253  0.6657
 7742SOL    HW330735   5.761   2.599   3.381  0.2586 -0.6588 -1.4960
 7742SOL    MW430736   5.832   2.614   3.430 -0.6077  0.0380 -0.4018
 7743SOL     OW30737   2.677   3.701   3.381  0.9039  0.3334 -0.0539
 7743SOL    HW230738   2.680   3.785   3.428 -0.4196  0.2167  0.2836
 7743SOL    HW330739   2.583   3.684   3.368  0.9499 -2.2270  2.0086
 7743SOL    MW430740   2.665   3.710   3.386  0.7353 -0.0198  0.2628
 7744SOL     OW30741   2.634   0.525   0.955 -0.0306 -0.3226 -0.1045
 7744SOL    HW230742   2.618   0.479   0.873 -1.1245  0.9113 -0.6194
 7744SOL    HW330743   2.553   0.571   0.973  0.7429  0.7443  0.8165
 7744SOL    MW430744   2.622   0.525   0.947 -0.0729 -0.0190 -0.0510
 7745SOL     OW30745   6.384   3.349   2.020 -0.4078  0.0222  0.0482
 7745SOL    HW230746   6.303   3.326   1.975  0.5713 -0.9588 -1.2629
 7745SOL    HW330747   6.398   3.277   2.082  1.3014 -1.7981 -2.2645
 7745SOL    MW430748   6.375   3.337   2.022 -0.0531 -0.3474 -0.4299
 7746SOL     OW30749   3.717   4.077   4.268  0.2728  0.7402  0.3289
 7746SOL    HW230750   3.696   3.984   4.255 -1.1643  1.0939 -0.0558
 7746SOL    HW330751   3.689   4.095   4.358 -0.0252  0.9384  0.1985
 7746SOL    MW430752   3.710   4.067   4.279  0.0439  0.8130  0.2609
 7747SOL     OW30753   4.936   0.144   2.828 -0.2794 -0.2039  0.0079
 7747SOL    HW230754   4.977   0.158   2.914  0.9678 -0.5309 -0.5158
 7747SOL    HW330755   4.941   0.049   2.815  0.1256 -0.0883 -0.7093
 7747SOL    MW430756   4.942   0.133   2.838 -0.0614 -0.2318 -0.1558
 7748SOL     OW30757   4.754   0.479   3.919 -0.2029  0.1532 -0.7572
 7748SOL    HW230758   4.721   0.397   3.884  0.4434 -0.0460 -0.9076
 7748SOL    HW330759   4.829   0.501   3.864  0.2615  0.3113 -0.0804
 7748SOL    MW430760   4.759   0.471   3.908 -0.0563  0.1478 -0.6878
 7749SOL     OW30761   0.304   2.302   4.525 -0.2171 -0.1953 -0.0483
 7749SOL    HW230762   0.310   2.219   4.479  1.3710 -0.8150  1.1944
 7749SOL    HW330763   0.248   2.285   4.601 -0.2801 -0.0043 -0.0495
 7749SOL    MW430764   0.297   2.289   4.529 -0.0158 -0.2518  0.1155
 7750SOL     OW30765   0.572   2.023   4.851 -0.0010 -0.2455  0.1337
 7750SOL    HW230766   0.665   2.009   4.833  0.5000 -0.5332  2.5479
 7750SOL    HW330767   0.543   2.083   4.782  2.3696  1.0988  0.1742
 7750SOL    MW430768   0.580   2.029   4.839  0.3779 -0.1061  0.4575
 7751SOL     OW30769   6.398   4.089   5.036 -0.4866 -0.2073 -0.2102
 7751SOL    HW230770   6.306   4.113   5.048 -0.3937  0.1698 -0.2327
 7751SOL    HW330771   6.420   4.118   4.947 -0.4432 -0.6125 -0.3320
 7751SOL    MW430772   6.389   4.096   5.026 -0.4686 -0.2110 -0.2293
 7752SOL     OW30773   1.306   4.010   4.189  0.3980  0.0308 -0.0534
 7752SOL    HW230774   1.343   4.076   4.247  0.8530 -0.1652 -0.1187
 7752SOL    HW330775   1.342   4.031   4.102  0.9230 -0.5844  0.0098
 7752SOL    MW430776   1.316   4.021   4.185  0.5273 -0.0762 -0.0537
 7753SOL     OW30777   0.725   2.559   2.092  0.2915 -0.2343  0.5306
 7753SOL    HW230778   0.674   2.581   2.171 -1.2565 -0.9380 -0.2275
 7753SOL    HW330779   0.665   2.576   2.020  2.2864  2.2330 -0.6901
 7753SOL    MW430780   0.710   2.564   2.093  0.3505 -0.0016  0.2695
 7754SOL     OW30781   3.530   4.196   0.501  0.1850  0.5301  0.0377
 7754SOL    HW230782   3.566   4.129   0.558  1.0850 -0.2100 -1.3307
 7754SOL    HW330783   3.441   4.166   0.481  1.2325 -1.4266 -2.1832
 7754SOL    MW430784   3.523   4.183   0.506  0.4419  0.1743 -0.4359
 7755SOL     OW30785   5.333   5.603   0.631 -0.5706  0.1289 -0.0574
 7755SOL    HW230786   5.240   5.592   0.652 -0.5742 -1.8467 -0.9277
 7755SOL    HW330787   5.374   5.627   0.715 -1.8385  1.0701  0.3263
 7755SOL    MW430788   5.326   5.605   0.645 -0.7383 -0.0076 -0.1216
 7756SOL     OW30789   3.065   5.523   2.823 -0.1988 -0.2530  0.5622
 7756SOL    HW230790   3.108   5.607   2.835 -1.2548  0.3801  0.0652
 7756SOL    HW330791   3.038   5.523   2.731 -0.2072 -1.1276  0.5585
 7756SOL    MW430792   3.067   5.534   2.812 -0.3392 -0.2849  0.4961
 7757SOL     OW30793   3.935   4.037   3.726  0.5003  0.5393 -0.1055
 7757SOL    HW230794   3.955   4.023   3.633 -0.9091  1.1265 -0.5220
 7757SOL    HW330795   3.916   3.950   3.760  1.5380  0.2508 -0.2127
 7757SOL    MW430796   3.935   4.024   3.718  0.4512  0.5787 -0.1746
 7758SOL     OW30797   4.156   2.266   5.378  0.0502 -0.5686  0.4206
 7758SOL    HW230798   4.106   2.251   5.458 -1.1867  1.9992  0.2275
 7758SOL    HW330799   4.098   2.236   5.308  0.9714 -2.4392  0.3999
 7758SOL    MW430800   4.142   2.260   5.379  0.0085 -0.4766  0.3924
 7759SOL     OW30801   0.894   1.237   3.646  0.2058 -0.2797  0.3313
 7759SOL    HW230802   0.861   1.322   3.617  0.7051 -0.1421  0.1543
 7759SOL    HW330803   0.984   1.255   3.675 -0.1446 -0.4843  1.6079
 7759SOL    MW430804   0.902   1.251   3.646  0.2254 -0.2886  0.4764
 7760SOL     OW30805   4.096   0.594   3.229 -0.4816 -1.1221 -0.1307
 7760SOL    HW230806   4.171   0.610   3.172 -1.6746  0.3199 -1.4084
 7760SOL    HW330807   4.049   0.521   3.187 -0.2195 -1.5066  0.2360
 7760SOL    MW430808   4.099   0.586   3.216 -0.6044 -0.9826 -0.2509
 7761SOL     OW30809   0.618   6.256   4.700 -0.5105  0.6778 -0.1137
 7761SOL    HW230810   0.705   6.250   4.660 -0.2029 -0.5054  0.6625
 7761SOL    HW330811   0.599   6.350   4.703  0.7119  0.9524 -0.3533
 7761SOL    MW430812   0.627   6.267   4.695 -0.3087  0.5579 -0.0429
 7762SOL     OW30813   1.593   3.183   1.238  0.3562 -0.2609 -0.3050
 7762SOL    HW230814   1.562   3.101   1.275 -1.0828  0.5514  0.3765
 7762SOL    HW330815   1.557   3.185   1.150  0.0208 -0.1717 -0.1677
 7762SOL    MW430816   1.584   3.173   1.231  0.1221 -0.1420 -0.1970
 7763SOL     OW30817   4.887   1.860   5.037 -0.7429  0.4716  0.4026
 7763SOL    HW230818   4.850   1.773   5.024 -0.9979  0.7072 -0.5207
 7763SOL    HW330819   4.811   1.917   5.048 -0.6842  0.9269 -1.2917
 7763SOL    MW430820   4.872   1.856   5.037 -0.7688  0.5628  0.0572
 7764SOL     OW30821   1.528   2.855   0.748 -0.4733  0.0246 -0.1644
 7764SOL    HW230822   1.594   2.875   0.682  1.2399  0.3284  1.5463
 7764SOL    HW330823   1.518   2.760   0.744  2.5045 -0.4826  1.6220
 7764SOL    MW430824   1.536   2.845   0.739  0.1456 -0.0022  0.2970
 7765SOL     OW30825   0.286   4.602   3.997 -0.0199  0.0494  0.1198
 7765SOL    HW230826   0.192   4.613   3.985  0.0448 -0.7221 -1.2700
 7765SOL    HW330827   0.324   4.686   3.973 -0.2266 -0.1892 -1.0742
 7765SOL    MW430828   0.279   4.614   3.992 -0.0386 -0.0839 -0.2211
 7766SOL     OW30829   6.105   3.854   0.029  0.2987 -0.1066  0.1074
 7766SOL    HW230830   6.077   3.770  -0.007  0.4484  0.0582 -0.3925
 7766SOL    HW330831   6.191   3.869  -0.009  0.4704  0.0590  0.5507
 7766SOL    MW430832   6.113   3.845   0.020  0.3411 -0.0630  0.0999
 7767SOL     OW30833   6.445   3.049   0.494 -0.3418 -0.1900  0.5860
 7767SOL    HW230834   6.516   2.996   0.531 -0.8856 -1.3903 -0.0137
 7767SOL    HW330835   6.468   3.058   0.401 -1.1372 -0.9364  0.2941
 7767SOL    MW430836   6.457   3.043   0.486 -0.5185 -0.4468  0.4683
 7768SOL     OW30837   6.311   2.984   0.795 -0.5786 -0.3763  0.5074
 7768SOL    HW230838   6.298   3.079   0.796  2.0614  0.1146 -0.8598
 7768SOL    HW330839   6.387   2.970   0.852  1.1139 -1.1496 -1.7569
 7768SOL    MW430840   6.320   2.995   0.803 -0.0070 -0.4136  0.0283
 7769SOL     OW30841   0.306   0.592   5.896 -0.2418 -0.7241  0.0814
 7769SOL    HW230842   0.374   0.555   5.841  0.0492 -0.2966  0.1458
 7769SOL    HW330843   0.320   0.552   5.982 -0.6363 -1.3173 -0.1314
 7769SOL    MW430844   0.317   0.582   5.900 -0.2555 -0.7460  0.0618
 7770SOL     OW30845   2.272   0.502   0.386  0.4186  0.1981 -0.0155
 7770SOL    HW230846   2.321   0.573   0.427  0.6830 -0.3136  0.5752
 7770SOL    HW330847   2.319   0.423   0.411 -1.0063 -0.3688  1.0456
 7770SOL    MW430848   2.285   0.501   0.395  0.2655  0.0558  0.2025
 7771SOL     OW30849   6.151   0.648   1.301 -0.1331 -0.5857  0.0227
 7771SOL    HW230850   6.172   0.742   1.303 -0.4922 -0.4879 -0.3920
 7771SOL    HW330851   6.180   0.615   1.386 -2.2978  0.4173  1.2622
 7771SOL    MW430852   6.157   0.656   1.312 -0.4661 -0.4405  0.1316
 7772SOL     OW30853   3.229   0.228   4.321  0.0326 -0.4227 -0.0242
 7772SOL    HW230854   3.236   0.161   4.253  1.6359 -0.6872  0.3523
 7772SOL    HW330855   3.164   0.193   4.381 -2.1878  0.2884 -1.8833
 7772SOL    MW430856   3.221   0.214   4.320 -0.0488 -0.3637 -0.2198
 7773SOL     OW30857   2.497   5.175   4.615 -0.1361  0.3301 -0.4048
 7773SOL    HW230858   2.525   5.261   4.646 -1.4448  0.6290  0.0343
 7773SOL    HW330859   2.534   5.113   4.679 -1.1938  0.7903  0.7126
 7773SOL    MW430860   2.505   5.178   4.628 -0.4483  0.4302 -0.1994
 7774SOL     OW30861   3.026   0.006   1.197 -0.5384  0.1116  0.0703
 7774SOL    HW230862   2.998  -0.069   1.144  1.7102 -1.4783  0.9911
 7774SOL    HW330863   3.013   0.082   1.140 -3.2747 -0.8505 -0.7576
 7774SOL    MW430864   3.020   0.006   1.183 -0.6028 -0.2251  0.0825
 7775SOL     OW30865   1.939   4.607   4.862 -0.1005  0.1076 -0.1304
 7775SOL    HW230866   2.012   4.624   4.922  0.3709 -1.1613 -0.3256
 7775SOL    HW330867   1.879   4.680   4.877  1.3447  1.3633 -0.1940
 7775SOL    MW430868   1.941   4.619   4.872  0.1523  0.1059 -0.1646
 7776SOL     OW30869   4.265   2.755   4.506 -0.7265 -0.0642  0.4411
 7776SOL    HW230870   4.244   2.787   4.419  0.3621  0.2333  0.2708
 7776SOL    HW330871   4.321   2.823   4.544  1.2349 -1.5039  0.2560
 7776SOL    MW430872   4.270   2.768   4.500 -0.3241 -0.2149  0.3942
 7777SOL     OW30873   1.230   5.776   5.386  0.7730  0.6067  0.2274
 7777SOL    HW230874   1.154   5.724   5.411  1.7142 -0.4436  0.9954
 7777SOL    HW330875   1.196   5.865   5.376 -0.1704  0.5870  2.6572
 7777SOL    MW430876   1.215   5.781   5.388  0.7727  0.4655  0.6493
 7778SOL     OW30877   4.207   1.855   0.700 -0.3061  0.1299  0.5229
 7778SOL    HW230878   4.152   1.920   0.744 -0.5682  0.2102  0.0847
 7778SOL    HW330879   4.158   1.773   0.709  0.0518 -0.0224  1.1246
 7778SOL    MW430880   4.193   1.853   0.707 -0.2935  0.1204  0.5445
 7779SOL     OW30881   0.316   0.047   0.808  0.1126 -0.6253  0.3992
 7779SOL    HW230882   0.321  -0.012   0.883  0.7574 -2.0734 -0.7150
 7779SOL    HW330883   0.223   0.062   0.795 -0.3921 -4.0309 -1.1427
 7779SOL    MW430884   0.304   0.041   0.816  0.1311 -1.2657  0.0488
 7780SOL     OW30885   6.002   1.946   3.983 -0.4173 -0.3135  0.2012
 7780SOL    HW230886   5.952   1.872   3.950 -0.1374 -0.2953 -0.2808
 7780SOL    HW330887   6.014   2.003   3.907  0.1293 -0.2049  0.3582
 7780SOL    MW430888   5.997   1.944   3.969 -0.3082 -0.2968  0.1583
 7781SOL     OW30889   3.041   5.711   4.097 -0.2054  0.4122  0.3089
 7781SOL    HW230890   2.977   5.691   4.029 -0.7075  0.3979  0.7734
 7781SOL    HW330891   3.051   5.806   4.093  0.6881  0.3007 -0.5823
 7781SOL    MW430892   3.033   5.721   4.088 -0.1537  0.3956  0.2526
 7782SOL     OW30893   0.630   0.769   2.481  0.0938  0.3006  0.4844
 7782SOL    HW230894   0.605   0.858   2.457 -1.5233 -0.2193  0.1506
 7782SOL    HW330895   0.616   0.717   2.401  2.3868 -0.0547  0.2252
 7782SOL    MW430896   0.625   0.774   2.467  0.1830  0.1851  0.4062
 7783SOL     OW30897   5.334   5.248   2.883 -0.2901  0.5199 -0.0745
 7783SOL    HW230898   5.347   5.301   2.804 -0.4540  1.1407  0.3066
 7783SOL    HW330899   5.339   5.158   2.852  0.2804  0.7542 -0.6934
 7783SOL    MW430900   5.336   5.243   2.869 -0.2365  0.6327 -0.1059
 7784SOL     OW30901   2.298   4.598   4.563 -0.7335 -0.3900  0.0336
 7784SOL    HW230902   2.390   4.609   4.588 -0.0541 -1.6364 -1.7364
 7784SOL    HW330903   2.265   4.530   4.622 -0.4036 -0.2382  0.3962
 7784SOL    MW430904   2.306   4.590   4.574 -0.6003 -0.5344 -0.1521
 7785SOL     OW30905   2.306   3.374   5.219  0.3868  0.1712 -0.5156
 7785SOL    HW230906   2.387   3.322   5.222  0.8394  0.8682 -0.3608
 7785SOL    HW330907   2.334   3.459   5.186 -0.6930 -0.2925 -2.8248
 7785SOL    MW430908   2.321   3.378   5.215  0.3041  0.2020 -0.7999
 7786SOL     OW30909   6.121   1.123   3.091  0.0516  0.3621  0.1137
 7786SOL    HW230910   6.105   1.193   3.028 -1.2513  0.5350  0.6149
 7786SOL    HW330911   6.103   1.042   3.043 -1.0399  0.4983  0.2753
 7786SOL    MW430912   6.117   1.121   3.076 -0.2643  0.4029  0.2011
 7787SOL     OW30913   2.088   1.580   3.152 -0.1696 -0.0119 -0.4297
 7787SOL    HW230914   2.153   1.517   3.122  0.4950  0.5154 -0.1100
 7787SOL    HW330915   2.132   1.630   3.221  0.1040  2.3112 -2.1541
 7787SOL    MW430916   2.102   1.578   3.158 -0.0458  0.3642 -0.6150
 7788SOL     OW30917   1.191   0.300   6.258  0.0437  0.2375 -0.4559
 7788SOL    HW230918   1.258   0.235   6.237 -1.6035 -0.5896 -3.8418
 7788SOL    HW330919   1.241   0.377   6.286  2.1329 -1.6282  1.3370
 7788SOL    MW430920   1.207   0.302   6.259  0.1020 -0.1178 -0.6661
 7789SOL     OW30921   4.397   2.447   5.478 -0.1969  0.0803 -0.6510
 7789SOL    HW230922   4.311   2.458   5.518 -0.1899 -0.0108 -0.6112
 7789SOL    HW330923   4.456   2.499   5.531 -0.2800  0.3896 -0.8589
 7789SOL    MW430924   4.394   2.455   5.490 -0.2069  0.1091 -0.6732
 7790SOL     OW30925   3.087   0.080   4.523  0.3312  0.2053 -0.1107
 7790SOL    HW230926   3.112  -0.012   4.513 -4.3669 -1.6658  2.1566
 7790SOL    HW330927   3.146   0.114   4.590  1.8821 -1.2794 -0.6465
 7790SOL    MW430928   3.098   0.072   4.530 -0.0840 -0.2374  0.1177
 7791SOL     OW30929   0.306   3.389   6.325  0.0432 -0.4587 -0.2615
 7791SOL    HW230930   0.286   3.340   6.405 -0.9275 -1.3337 -1.0086
 7791SOL    HW330931   0.319   3.479   6.354 -2.9347 -0.2046  0.6401
 7791SOL    MW430932   0.305   3.394   6.339 -0.4778 -0.5406 -0.2411
 7792SOL     OW30933   1.140   5.168   1.904  0.8412 -0.7810  0.0523
 7792SOL    HW230934   1.096   5.244   1.866  0.5386 -0.2071  1.4632
 7792SOL    HW330935   1.088   5.093   1.876  0.2064 -0.3043 -0.0576
 7792SOL    MW430936   1.127   5.168   1.896  0.7176 -0.6424  0.2239
 7793SOL     OW30937   5.201   3.532   2.578  0.0110 -0.3040 -0.0137
 7793SOL    HW230938   5.269   3.496   2.522 -2.2793 -1.6487 -2.1753
 7793SOL    HW330939   5.228   3.511   2.667  2.3407 -0.7851 -0.7841
 7793SOL    MW430940   5.213   3.525   2.582  0.0162 -0.5449 -0.4005
 7794SOL     OW30941   5.690   2.798   0.858 -0.0436  0.7168  0.0942
 7794SOL    HW230942   5.777   2.799   0.817  0.3935  0.8909  0.9977
 7794SOL    HW330943   5.633   2.839   0.793  0.5364  0.5526 -0.5381
 7794SOL    MW430944   5.694   2.803   0.844  0.0906  0.7181  0.1300
 7795SOL     OW30945   5.205   4.133   4.341  0.0938 -0.1247  0.0537
 7795SOL    HW230946   5.189   4.168   4.254 -0.2691 -0.9141 -0.2078
 7795SOL    HW330947   5.290   4.169   4.366 -1.2798  2.8845  0.8277
 7795SOL    MW430948   5.214   4.142   4.333 -0.1353  0.1682  0.1213
 7796SOL     OW30949   5.494   6.206   2.373  0.4257  0.1724 -0.0762
 7796SOL    HW230950   5.419   6.189   2.429  0.4338  1.2276  0.2754
 7796SOL    HW330951   5.498   6.301   2.366  0.4169  0.0838 -1.8847
 7796SOL    MW430952   5.485   6.216   2.379  0.4256  0.2999 -0.2684
 7797SOL     OW30953   4.511   1.120   4.024  0.3964  0.0690 -0.0365
 7797SOL    HW230954   4.452   1.074   4.083  0.7112  0.4420  0.5870
 7797SOL    HW330955   4.565   1.174   4.082 -0.0914  1.3667 -0.7569
 7797SOL    MW430956   4.510   1.121   4.039  0.3736  0.2894 -0.0493
 7798SOL     OW30957   0.890   5.050   3.429 -0.2041 -0.0830  0.3387
 7798SOL    HW230958   0.958   5.108   3.464  0.6464 -1.0775  0.3804
 7798SOL    HW330959   0.932   4.965   3.423 -0.7709 -0.2750 -1.7124
 7798SOL    MW430960   0.905   5.047   3.433 -0.1667 -0.2396  0.0736
 7799SOL     OW30961   2.738   3.758   4.198  0.3276 -0.3395 -0.3785
 7799SOL    HW230962   2.676   3.750   4.126 -1.1349  1.2444  0.6236
 7799SOL    HW330963   2.751   3.852   4.208 -1.0427 -0.3761  2.6271
 7799SOL    MW430964   2.732   3.769   4.190 -0.0462 -0.1354  0.1502
 7800SOL     OW30965   1.161   4.341   4.185  0.3230  0.4947 -0.1292
 7800SOL    HW230966   1.131   4.265   4.234  0.8415  0.5384  0.2491
 7800SOL    HW330967   1.083   4.397   4.178 -0.1229 -0.1676 -0.6152
 7800SOL    MW430968   1.146   4.338   4.190  0.3326  0.4131 -0.1434
 7801SOL     OW30969   4.897   4.815   5.671 -0.6364 -0.2028  0.0622
 7801SOL    HW230970   4.925   4.734   5.713 -1.6769 -0.2635  0.6664
 7801SOL    HW330971   4.813   4.835   5.711 -1.8387 -0.4285 -2.1966
 7801SOL    MW430972   4.890   4.807   5.682 -0.9323 -0.2406 -0.1561
 7802SOL     OW30973   4.933   2.901   1.569  0.5532 -0.1689 -0.0126
 7802SOL    HW230974   4.943   2.816   1.612  0.5628  0.5375  1.4571
 7802SOL    HW330975   5.021   2.939   1.571  0.8161 -0.5912 -1.7791
 7802SOL    MW430976   4.946   2.894   1.575  0.5891 -0.1314 -0.0518
 7803SOL     OW30977   2.300   0.596   3.733  0.5327  0.0953  0.1880
 7803SOL    HW230978   2.268   0.519   3.779  0.2989 -0.3478 -0.7075
 7803SOL    HW330979   2.221   0.641   3.704  0.6905 -0.2075 -0.7254
 7803SOL    MW430980   2.285   0.592   3.735  0.5227 -0.0032 -0.0507
 7804SOL     OW30981   6.174   0.479   0.802 -0.3657  0.0820  0.0228
 7804SOL    HW230982   6.249   0.520   0.844 -1.3077 -0.2327  2.0959
 7804SOL    HW330983   6.190   0.385   0.810 -0.3308  0.0049 -0.8020
 7804SOL    MW430984   6.186   0.472   0.808 -0.4854  0.0303  0.1875
 7805SOL     OW30985   1.650   1.994   2.425 -0.4601  0.1428 -0.3082
 7805SOL    HW230986   1.723   1.963   2.478 -1.0366  0.1017  0.4787
 7805SOL    HW330987   1.674   1.970   2.335 -0.2231 -1.2932  0.1040
 7805SOL    MW430988   1.663   1.987   2.420 -0.5049 -0.0521 -0.1500
 7806SOL     OW30989   3.308   2.210   1.674 -0.4102  0.1196  0.2907
 7806SOL    HW230990   3.313   2.305   1.683 -1.0754  0.1840  0.0398
 7806SOL    HW330991   3.239   2.184   1.735 -1.0932 -0.0556 -0.5378
 7806SOL    MW430992   3.300   2.219   1.683 -0.5881  0.1050  0.1483
 7807SOL     OW30993   0.563   3.833   1.977  0.1505  0.4762  0.1412
 7807SOL    HW230994   0.558   3.746   2.018  1.0509 -1.0217 -2.6573
 7807SOL    HW330995   0.472   3.861   1.971 -0.1357 -0.1051  1.4157
 7807SOL    MW430996   0.550   3.825   1.982  0.2315  0.2019 -0.0598
 7808SOL     OW30997   3.967   6.213   1.191 -0.4495 -0.1263  0.8615
 7808SOL    HW230998   4.027   6.199   1.265  0.0758 -1.6598  0.1807
 7808SOL    HW330999   3.925   6.128   1.178  0.7545 -0.4070 -1.7000
 7808SOL    MW431000   3.969   6.200   1.199 -0.2213 -0.3657  0.4337
 7809SOL     OW31001   4.812   5.132   3.287 -0.3607 -0.5456 -0.1737
 7809SOL    HW231002   4.731   5.101   3.327 -1.3520  0.7561 -1.0741
 7809SOL    HW331003   4.818   5.084   3.205 -1.3317  0.7593 -1.0601
 7809SOL    MW431004   4.802   5.122   3.281 -0.6196 -0.2017 -0.4094
 7810SOL     OW31005   4.606   2.939   1.458  0.5731  0.7283  0.4119
 7810SOL    HW231006   4.514   2.927   1.432  0.7544  0.5143 -0.1396
 7810SOL    HW331007   4.605   2.929   1.553 -0.2800  2.5189  0.6537
 7810SOL    MW431008   4.594   2.936   1.467  0.4844  0.9363  0.3710
 7811SOL     OW31009   0.056   1.601   0.906 -0.1722 -0.0518 -0.3255
 7811SOL    HW231010   0.140   1.578   0.945 -0.9042 -1.1341  0.6855
 7811SOL    HW331011   0.059   1.696   0.897  0.5301  0.1031  1.2292
 7811SOL    MW431012   0.068   1.610   0.910 -0.1761 -0.1742  0.0130
 7812SOL     OW31013   4.959   3.197   5.597  0.6706  0.4059  0.1172
 7812SOL    HW231014   5.026   3.164   5.538 -1.1223 -0.1815 -1.7320
 7812SOL    HW331015   4.929   3.120   5.646  0.1526  0.3058 -0.3452
 7812SOL    MW431016   4.964   3.183   5.596  0.3657  0.3152 -0.1878
 7813SOL     OW31017   3.306   5.028   4.774  0.1648  0.2565 -0.2016
 7813SOL    HW231018   3.325   5.001   4.684  0.0610 -0.6010  0.0257
 7813SOL    HW331019   3.287   5.121   4.767  1.7146  0.5724 -0.8440
 7813SOL    MW431020   3.306   5.037   4.761  0.3556  0.1851 -0.2564
 7814SOL     OW31021   4.305   2.729   4.969  0.1966  0.0552  0.0253
 7814SOL    HW231022   4.280   2.791   4.901  0.5943 -0.3856 -0.5311
 7814SOL    HW331023   4.344   2.655   4.922 -0.0091 -0.4954  0.6932
 7814SOL    MW431024   4.307   2.727   4.954  0.2220 -0.0756  0.0400
 7815SOL     OW31025   3.146   4.326   5.844  0.4511  0.6981 -0.2617
 7815SOL    HW231026   3.161   4.254   5.905 -0.4602  0.5075 -0.2467
 7815SOL    HW331027   3.202   4.397   5.877  0.3579  0.4306  0.5055
 7815SOL    MW431028   3.155   4.326   5.857  0.3186  0.6377 -0.1585
 7816SOL     OW31029   5.628   5.512   2.802 -0.3714 -0.5980  0.2742
 7816SOL    HW231030   5.611   5.538   2.893 -0.2683 -0.7081  0.3249
 7816SOL    HW331031   5.542   5.509   2.761 -0.6017 -2.1911  0.7980
 7816SOL    MW431032   5.614   5.515   2.809 -0.3882 -0.8227  0.3500
 7817SOL     OW31033   0.545   0.454   5.891 -0.1479 -0.4658  0.0741
 7817SOL    HW231034   0.617   0.503   5.850 -0.1977  1.0395  1.6560
 7817SOL    HW331035   0.570   0.362   5.880  1.0547 -0.0453 -1.0798
 7817SOL    MW431036   0.558   0.448   5.884  0.0042 -0.2117  0.1306
 7818SOL     OW31037   2.564   6.122   0.363 -0.1349 -0.1606  0.3097
 7818SOL    HW231038   2.612   6.039   0.371 -0.3356 -0.2521  0.5583
 7818SOL    HW331039   2.626   6.180   0.318  0.2863 -0.2147  0.8045
 7818SOL    MW431040   2.579   6.119   0.358 -0.1058 -0.1798  0.4078
 7819SOL     OW31041   6.446   2.796   2.616 -0.3226  0.3269 -0.0921
 7819SOL    HW231042   6.536   2.766   2.617 -0.4700 -0.1649  1.8350
 7819SOL    HW331043   6.394   2.719   2.639 -1.1816  0.7760 -0.4608
 7819SOL    MW431044   6.451   2.782   2.619 -0.4554  0.3213  0.1135
 7820SOL     OW31045   0.892   5.000   0.463 -0.1368  0.4526 -0.1437
 7820SOL    HW231046   0.860   4.984   0.374 -1.2150 -1.4049  0.5214
 7820SOL    HW331047   0.962   4.935   0.475 -0.0883  0.6056  0.4170
 7820SOL    MW431048   0.897   4.989   0.453 -0.2726  0.2277  0.0180
 7821SOL     OW31049   5.078   1.200   4.143 -0.1287 -0.5614 -0.5082
 7821SOL    HW231050   5.172   1.216   4.155 -0.2821 -0.0788  0.1259
 7821SOL    HW331051   5.062   1.116   4.185 -0.3535  0.3557  1.3997
 7821SOL    MW431052   5.088   1.191   4.150 -0.1786 -0.3768 -0.1728
 7822SOL     OW31053   5.130   5.541   1.350  0.6390 -0.2999  0.1569
 7822SOL    HW231054   5.039   5.572   1.354  0.8397  0.1839  1.1114
 7822SOL    HW331055   5.156   5.558   1.259  0.0766  0.4476  0.1223
 7822SOL    MW431056   5.122   5.548   1.338  0.5913 -0.1374  0.2782
 7823SOL     OW31057   2.797   6.169   5.282 -0.6786  0.4814  0.1784
 7823SOL    HW231058   2.843   6.252   5.266 -2.3437  1.2613 -0.8772
 7823SOL    HW331059   2.865   6.109   5.310  0.5600  2.2857  1.3022
 7823SOL    MW431060   2.812   6.172   5.284 -0.7349  0.8223  0.1874
 7824SOL     OW31061   5.703   2.012   5.559  0.2807  0.2949  0.3293
 7824SOL    HW231062   5.782   2.056   5.589  1.8333 -1.6925 -0.5846
 7824SOL    HW331063   5.704   1.927   5.604 -0.9366 -0.0406 -0.2339
 7824SOL    MW431064   5.714   2.006   5.569  0.3249 -0.0116  0.1344
 7825SOL     OW31065   3.874   3.742   2.784 -0.2368 -0.5048 -0.1185
 7825SOL    HW231066   3.844   3.814   2.728  0.5464  0.3550  0.5471
 7825SOL    HW331067   3.855   3.664   2.733  0.6182  0.2558 -1.6739
 7825SOL    MW431068   3.867   3.742   2.770 -0.0206 -0.2910 -0.2359
 7826SOL     OW31069   5.173   5.797   1.520  0.6032  0.0299  0.1040
 7826SOL    HW231070   5.092   5.842   1.496 -0.1669  0.0345  2.4492
 7826SOL    HW331071   5.163   5.708   1.485  0.4600  0.5616 -1.2615
 7826SOL    MW431072   5.161   5.791   1.512  0.4827  0.1006  0.2333
 7827SOL     OW31073   4.454   4.481   5.045  0.2948 -0.2295  0.2050
 7827SOL    HW231074   4.411   4.470   4.960  0.5127 -1.6449  0.2452
 7827SOL    HW331075   4.383   4.500   5.106 -0.1391 -1.3505  0.0649
 7827SOL    MW431076   4.439   4.482   5.042  0.2663 -0.5641  0.1918
 7828SOL     OW31077   2.973   5.348   3.217 -0.3213  0.1861  0.3671
 7828SOL    HW231078   3.059   5.369   3.181  0.5053 -1.5206  1.2744
 7828SOL    HW331079   2.956   5.418   3.281 -0.2203  1.2346 -0.7079
 7828SOL    MW431080   2.982   5.360   3.221 -0.1989  0.0992  0.3450
 7829SOL     OW31081   0.438   2.710   1.685 -0.2403 -0.3346 -0.1369
 7829SOL    HW231082   0.368   2.645   1.678  1.0910 -1.7945 -0.4909
 7829SOL    HW331083   0.507   2.677   1.627  0.6333  1.2194 -0.0376
 7829SOL    MW431084   0.438   2.697   1.676  0.0506 -0.3222 -0.1705
 7830SOL     OW31085   0.861   4.308   5.339  0.4374  0.0511  0.0428
 7830SOL    HW231086   0.818   4.253   5.404  2.1730 -0.6413  0.6691
 7830SOL    HW331087   0.799   4.311   5.266 -1.2382  0.2593  1.4100
 7830SOL    MW431088   0.847   4.301   5.338  0.4453 -0.0128  0.3058
 7831SOL     OW31089   2.460   0.365   1.401 -0.8137  0.1239  0.1508
 7831SOL    HW231090   2.374   0.332   1.377 -1.6244  0.7383  1.9949
 7831SOL    HW331091   2.460   0.364   1.497  1.3489 -0.1313  0.2091
 7831SOL    MW431092   2.449   0.360   1.411 -0.6354  0.1713  0.4018
 7832SOL     OW31093   1.609   2.831   1.872  0.4557  0.3688  0.3170
 7832SOL    HW231094   1.675   2.878   1.924  0.8323 -0.9696  1.1124
 7832SOL    HW331095   1.554   2.899   1.835  2.5968  1.5689 -0.8217
 7832SOL    MW431096   1.610   2.846   1.874  0.7879  0.3506  0.2717
 7833SOL     OW31097   2.285   2.198   3.994  0.1897  0.2094  0.1509
 7833SOL    HW231098   2.312   2.200   4.086 -1.6573 -0.8356  0.7577
 7833SOL    HW331099   2.311   2.284   3.960  4.0779 -0.5846  0.6100
 7833SOL    MW431100   2.292   2.210   4.002  0.4590 -0.0332  0.2915
 7834SOL     OW31101   2.886   2.329   4.245 -0.4036  0.6491  0.4764
 7834SOL    HW231102   2.981   2.328   4.255 -0.3344 -2.6877  0.4918
 7834SOL    HW331103   2.853   2.276   4.318 -2.1431  0.5099 -0.3615
 7834SOL    MW431104   2.894   2.322   4.256 -0.6240  0.1905  0.3679
 7835SOL     OW31105   0.089   4.683   1.464 -0.4706  0.4888  0.1458
 7835SOL    HW231106   0.024   4.617   1.489  1.3881 -1.5241 -0.0484
 7835SOL    HW331107   0.102   4.735   1.543 -0.0025 -1.1356  1.1695
 7835SOL    MW431108   0.082   4.681   1.478 -0.1636  0.0089  0.2552
 7836SOL     OW31109   5.282   0.875   0.879 -0.2784  0.4451  0.2942
 7836SOL    HW231110   5.314   0.788   0.854  0.0666  0.0154  2.1361
 7836SOL    HW331111   5.362   0.927   0.891 -0.4887  1.2941 -1.5301
 7836SOL    MW431112   5.297   0.870   0.877 -0.2606  0.5004  0.2965
 7837SOL     OW31113   5.678   5.480   2.241 -0.1586  1.0069 -0.2221
 7837SOL    HW231114   5.634   5.517   2.164  0.2766  0.5573 -0.6987
 7837SOL    HW331115   5.607   5.467   2.304 -0.8109 -0.0569 -1.1165
 7837SOL    MW431116   5.663   5.483   2.239 -0.1873  0.8072 -0.4030
 7838SOL     OW31117   5.299   5.218   5.013 -0.2114 -0.3062  1.0783
 7838SOL    HW231118   5.248   5.180   5.085  1.2302 -1.6300  1.4300
 7838SOL    HW331119   5.387   5.185   5.025 -0.0624 -1.1819 -1.7396
 7838SOL    MW431120   5.304   5.209   5.024 -0.0015 -0.5964  0.7529
 7839SOL     OW31121   4.932   0.953   1.081 -0.2601 -0.1243 -0.0877
 7839SOL    HW231122   4.947   0.990   0.994 -1.3206  1.6998  0.4613
 7839SOL    HW331123   4.983   1.009   1.139 -1.7856  0.4101  0.7629
 7839SOL    MW431124   4.941   0.965   1.077 -0.6013  0.1868  0.0970
 7840SOL     OW31125   6.104   2.709   4.127 -0.0804  0.6966 -0.3389
 7840SOL    HW231126   6.144   2.796   4.132 -1.0168  1.0834  0.6215
 7840SOL    HW331127   6.100   2.678   4.217  2.7382 -1.5610 -0.8127
 7840SOL    MW431128   6.109   2.716   4.139  0.1680  0.4498 -0.2747
 7841SOL     OW31129   2.044   3.535   1.274  0.0506 -0.9932 -0.1204
 7841SOL    HW231130   2.014   3.546   1.364  1.1201 -2.1051  0.4139
 7841SOL    HW331131   2.137   3.560   1.277 -0.0930 -0.2824 -1.0994
 7841SOL    MW431132   2.053   3.540   1.286  0.1728 -1.0461 -0.1791
 7842SOL     OW31133   1.880   4.318   0.433  0.1831  0.2849  0.0605
 7842SOL    HW231134   1.795   4.318   0.389  0.5780  0.1657 -0.7389
 7842SOL    HW331135   1.909   4.409   0.428  0.0202  0.3632  0.5061
 7842SOL    MW431136   1.873   4.330   0.426  0.2137  0.2795  0.0138
 7843SOL     OW31137   1.123   5.200   0.442 -0.0838 -0.2356  0.0537
 7843SOL    HW231138   1.148   5.207   0.534 -1.3129 -1.3666  0.5011
 7843SOL    HW331139   1.057   5.130   0.440 -0.3534  0.0268 -1.6284
 7843SOL    MW431140   1.118   5.192   0.454 -0.2816 -0.3502 -0.1092
 7844SOL     OW31141   5.229   4.460   4.367  0.3305 -0.3989 -0.1556
 7844SOL    HW231142   5.145   4.425   4.396  0.5360 -0.9806 -0.2665
 7844SOL    HW331143   5.291   4.388   4.376  0.7465 -0.0841 -0.4269
 7844SOL    MW431144   5.226   4.446   4.372  0.4125 -0.4341 -0.2061
 7845SOL     OW31145   5.907   4.588   0.850 -0.2379 -0.6905 -0.6441
 7845SOL    HW231146   5.968   4.607   0.922 -1.5387 -1.6579  0.7909
 7845SOL    HW331147   5.943   4.510   0.808  2.2358  1.5794 -3.1793
 7845SOL    MW431148   5.920   4.580   0.854 -0.0831 -0.5186 -0.7892
 7846SOL     OW31149   1.237   1.095   6.195  0.0415 -0.0134 -0.1969
 7846SOL    HW231150   1.281   1.079   6.111  2.8896  0.1563  1.1302
 7846SOL    HW331151   1.187   1.175   6.182 -0.9409 -0.8903 -2.1736
 7846SOL    MW431152   1.236   1.103   6.182  0.2877 -0.1067 -0.2826
 7847SOL     OW31153   4.223   6.309   0.888  0.2789  0.3591  0.2613
 7847SOL    HW231154   4.291   6.353   0.838  0.7242 -0.2628  0.3067
 7847SOL    HW331155   4.269   6.270   0.963 -0.0014 -0.6289 -0.0578
 7847SOL    MW431156   4.238   6.310   0.891  0.3007  0.1467  0.2252
 7848SOL     OW31157   4.502   5.760   5.767  0.0958 -0.0023 -0.4925
 7848SOL    HW231158   4.565   5.689   5.754  0.3173  0.4026 -1.7937
 7848SOL    HW331159   4.447   5.730   5.840  1.0979 -0.8433 -0.0577
 7848SOL    MW431160   4.503   5.747   5.775  0.2572 -0.0599 -0.6068
 7849SOL     OW31161   3.341   4.845   4.515 -0.3838 -0.4543 -0.3301
 7849SOL    HW231162   3.355   4.787   4.441 -1.8199  0.3836 -1.3162
 7849SOL    HW331163   3.391   4.806   4.587  0.7330 -1.4877 -1.6251
 7849SOL    MW431164   3.349   4.832   4.515 -0.4260 -0.4801 -0.6311
 7850SOL     OW31165   0.158   5.318   1.071 -0.3423  0.7714 -0.8190
 7850SOL    HW231166   0.094   5.366   1.123 -0.0985  0.0192  0.2024
 7850SOL    HW331167   0.168   5.234   1.116  2.1079  1.2460 -0.3389
 7850SOL    MW431168   0.151   5.313   1.083  0.0132  0.7348 -0.6209
 7851SOL     OW31169   3.442   3.797   0.721 -0.4368  0.1982 -0.3209
 7851SOL    HW231170   3.496   3.722   0.744  1.8652  1.5260 -1.1235
 7851SOL    HW331171   3.371   3.796   0.786  1.2340 -0.9009  1.5985
 7851SOL    MW431172   3.439   3.787   0.733  0.0874  0.2283 -0.1736
 7852SOL     OW31173   1.948   1.335   3.643  0.2131  0.1729  0.1823
 7852SOL    HW231174   1.989   1.352   3.728  2.9484 -1.4472 -0.7016
 7852SOL    HW331175   1.993   1.394   3.583  1.7390 -1.9992 -0.9095
 7852SOL    MW431176   1.959   1.345   3.647  0.7753 -0.3275 -0.0784
 7853SOL     OW31177   3.198   5.393   2.075  0.0279  0.4611 -0.1985
 7853SOL    HW231178   3.236   5.310   2.106  0.3965  0.0328 -1.7145
 7853SOL    HW331179   3.235   5.459   2.133 -1.7477 -0.5796  2.2943
 7853SOL    MW431180   3.208   5.391   2.087 -0.1578  0.2673 -0.0696
 7854SOL     OW31181   1.324   6.224   1.851 -0.6814  0.4017  0.2434
 7854SOL    HW231182   1.282   6.286   1.792 -1.3087 -0.1899  0.0548
 7854SOL    HW331183   1.357   6.155   1.794 -1.8742 -0.5111  0.6106
 7854SOL    MW431184   1.323   6.223   1.836 -0.9215  0.2032  0.2670
 7855SOL     OW31185   1.369   5.340   1.096  0.1002  0.4832  0.0325
 7855SOL    HW231186   1.450   5.375   1.057  1.6405 -2.4517  0.3360
 7855SOL    HW331187   1.301   5.364   1.034  1.2592  2.4912 -0.5701
 7855SOL    MW431188   1.371   5.348   1.083  0.4564  0.3609 -0.0070
 7856SOL     OW31189   0.317   5.883   3.946 -0.0838  0.5411 -0.1900
 7856SOL    HW231190   0.276   5.801   3.972  0.7326  0.6243  1.4868
 7856SOL    HW331191   0.407   5.877   3.979  0.3469  1.6133 -1.0948
 7856SOL    MW431192   0.324   5.872   3.954  0.0807  0.6935 -0.0881
 7857SOL     OW31193   5.656   5.312   6.085 -0.7284  0.2234  0.2344
 7857SOL    HW231194   5.712   5.244   6.122  1.1074  1.5391  0.0534
 7857SOL    HW331195   5.590   5.264   6.035  1.2221 -1.4355 -0.9311
 7857SOL    MW431196   5.655   5.297   6.083 -0.2289  0.1781  0.0567
 7858SOL     OW31197   2.293   5.914   5.915 -0.0866 -0.1477  0.4556
 7858SOL    HW231198   2.263   6.005   5.904 -0.7086 -0.4384 -0.3895
 7858SOL    HW331199   2.388   5.919   5.909 -0.1907  0.2611 -1.1150
 7858SOL    MW431200   2.301   5.927   5.913 -0.1824 -0.1322  0.1369
 7859SOL     OW31201   0.045   1.463   3.120  0.2380  0.4123  0.1047
 7859SOL    HW231202  -0.011   1.473   3.197  0.3978  0.7929  0.1754
 7859SOL    HW331203   0.034   1.372   3.093 -2.2498  1.0444 -1.2948
 7859SOL    MW431204   0.036   1.452   3.126 -0.0692  0.5459 -0.0706
 7860SOL     OW31205   2.909   1.868   5.084 -0.4251 -0.5420  0.0315
 7860SOL    HW231206   2.998   1.835   5.070 -0.7126 -0.5532 -2.0557
 7860SOL    HW331207   2.914   1.913   5.168  1.8913  0.5261 -0.5764
 7860SOL    MW431208   2.921   1.869   5.093 -0.1574 -0.4026 -0.3241
 7861SOL     OW31209   4.770   5.362   1.366 -0.0285 -0.4765 -0.0935
 7861SOL    HW231210   4.743   5.306   1.438 -0.1487  0.4425  0.5939
 7861SOL    HW331211   4.827   5.307   1.312 -1.2641 -1.6915 -0.2148
 7861SOL    MW431212   4.774   5.347   1.368 -0.2074 -0.5155 -0.0188
 7862SOL     OW31213   2.509   6.299   3.996 -0.0760 -0.2030 -0.5750
 7862SOL    HW231214   2.465   6.214   4.006  0.3822 -0.3404  0.3790
 7862SOL    HW331215   2.598   6.283   4.028 -0.1789  0.8155  0.2454
 7862SOL    MW431216   2.515   6.285   4.001 -0.0291 -0.0868 -0.3409
 7863SOL     OW31217   3.383   1.748   3.744  0.9667 -0.8965  0.3136
 7863SOL    HW231218   3.295   1.709   3.746  0.3158  0.4245 -1.0252
 7863SOL    HW331219   3.442   1.673   3.740  0.0076 -1.8590  2.4650
 7863SOL    MW431220   3.379   1.733   3.744  0.7543 -0.8492  0.4208
 7864SOL     OW31221   5.392   1.213   6.035 -0.6771  0.4003  0.2978
 7864SOL    HW231222   5.444   1.178   6.107 -0.5353  0.3508  0.1705
 7864SOL    HW331223   5.434   1.296   6.012  1.0666 -0.9563 -1.6888
 7864SOL    MW431224   5.404   1.220   6.042 -0.4283  0.2148  0.0189
 7865SOL     OW31225   0.535   5.920   1.960  0.3668  0.2342 -0.0528
 7865SOL    HW231226   0.512   5.960   2.044  0.9538 -1.3532  0.9130
 7865SOL    HW331227   0.625   5.890   1.972  0.8867  0.9971 -1.6814
 7865SOL    MW431228   0.544   5.922   1.973  0.5128  0.1254 -0.1403
 7866SOL     OW31229   1.755   6.180   3.673 -0.1064  0.2454 -0.3528
 7866SOL    HW231230   1.687   6.238   3.708 -1.1943 -0.4947 -1.2114
 7866SOL    HW331231   1.812   6.239   3.623 -0.9219  0.6711 -0.8127
 7866SOL    MW431232   1.754   6.196   3.671 -0.3575  0.2039 -0.5268
 7867SOL     OW31233   5.594   0.921   0.027  0.6773  0.2089  0.4467
 7867SOL    HW231234   5.574   0.981  -0.045 -1.4316 -1.0064 -0.0704
 7867SOL    HW331235   5.538   0.949   0.099  0.3111 -0.6096  0.4892
 7867SOL    MW431236   5.584   0.933   0.027  0.3507 -0.0594  0.3841
 7868SOL     OW31237   6.114   1.105   2.705 -0.2454 -0.1582 -0.2788
 7868SOL    HW231238   6.043   1.166   2.728 -0.1188  0.6910 -1.9458
 7868SOL    HW331239   6.125   1.116   2.611 -0.3732 -2.9695 -0.7139
 7868SOL    MW431240   6.106   1.115   2.696 -0.2455 -0.4171 -0.5562
 7869SOL     OW31241   5.203   4.267   0.957 -0.0470  0.3528  0.5731
 7869SOL    HW231242   5.215   4.328   0.885 -0.0957 -1.0998 -0.7146
 7869SOL    HW331243   5.112   4.281   0.985 -0.1333  0.6931  0.1342
 7869SOL    MW431244   5.192   4.277   0.952 -0.0648  0.2060  0.3453
 7870SOL     OW31245   6.413   0.813   0.705  0.5155 -0.3515 -0.1288
 7870SOL    HW231246   6.494   0.859   0.683  0.6222  0.2672  1.4164
 7870SOL    HW331247   6.405   0.822   0.800 -1.3371 -0.4492 -0.2292
 7870SOL    MW431248   6.423   0.821   0.714  0.2852 -0.2828  0.0618
 7871SOL     OW31249   0.119   4.364   0.221  0.4249  0.1838  0.1447
 7871SOL    HW231250   0.199   4.383   0.271 -0.5294  0.4146  1.6636
 7871SOL    HW331251   0.119   4.269   0.211 -0.7811 -0.2474  3.2293
 7871SOL    MW431252   0.130   4.354   0.226  0.1399  0.1574  0.7521
 7872SOL     OW31253   5.803   3.187   4.801 -0.4202 -0.0272  0.3918
 7872SOL    HW231254   5.865   3.114   4.795  0.0118  0.2688  1.0785
 7872SOL    HW331255   5.830   3.248   4.733 -0.1310 -0.0333  0.5006
 7872SOL    MW431256   5.814   3.186   4.791 -0.3251  0.0110  0.4968
 7873SOL     OW31257   0.153   0.755   4.666  0.3919 -0.1474  0.6923
 7873SOL    HW231258   0.115   0.754   4.578  0.9424 -0.5289  0.4500
 7873SOL    HW331259   0.130   0.841   4.701 -1.3043 -0.6230  0.8395
 7873SOL    MW431260   0.145   0.766   4.659  0.2408 -0.2605  0.6797
 7874SOL     OW31261   5.283   3.102   2.598  0.1969 -0.0265  0.2619
 7874SOL    HW231262   5.372   3.119   2.629  0.4156  0.3065 -0.5430
 7874SOL    HW331263   5.293   3.077   2.506 -0.2689 -2.8993  0.8788
 7874SOL    MW431264   5.296   3.101   2.590  0.1643 -0.3616  0.2371
 7875SOL     OW31265   4.651   3.460   3.343  0.0386 -0.1724  0.2060
 7875SOL    HW231266   4.673   3.469   3.250  0.2386 -0.1655  0.2548
 7875SOL    HW331267   4.724   3.412   3.381  0.8642  1.4413  0.7373
 7875SOL    MW431268   4.663   3.455   3.335  0.1739  0.0414  0.2826
 7876SOL     OW31269   2.789   5.204   4.881  0.8395  0.4841 -0.1367
 7876SOL    HW231270   2.726   5.137   4.854 -0.7409  1.4284  1.0230
 7876SOL    HW331271   2.874   5.160   4.876  0.1372 -0.8141 -1.8508
 7876SOL    MW431272   2.792   5.189   4.876  0.5383  0.4374 -0.2099
 7877SOL     OW31273   4.764   3.145   4.830  0.7665  0.2109 -0.0720
 7877SOL    HW231274   4.849   3.117   4.863  0.7032 -1.0640 -0.9447
 7877SOL    HW331275   4.701   3.085   4.871  0.3426  0.7345  0.0641
 7877SOL    MW431276   4.767   3.133   4.840  0.7022  0.1118 -0.1692
 7878SOL     OW31277   3.213   1.671   4.169  0.3317 -0.0233 -0.1279
 7878SOL    HW231278   3.226   1.766   4.166 -0.4729  0.0658 -1.9225
 7878SOL    HW331279   3.246   1.646   4.255 -1.8411  2.2781  1.5572
 7878SOL    MW431280   3.219   1.681   4.180 -0.0612  0.2921 -0.1424
 7879SOL     OW31281   0.710   2.393   3.701 -0.4505  0.1647 -0.1087
 7879SOL    HW231282   0.750   2.380   3.787 -0.4255 -0.2104 -0.1735
 7879SOL    HW331283   0.627   2.437   3.719  0.3174  1.6629 -0.0231
 7879SOL    MW431284   0.704   2.397   3.715 -0.3459  0.3129 -0.1060
 7880SOL     OW31285   5.215   4.828   0.897  0.6414  0.0425 -0.2404
 7880SOL    HW231286   5.211   4.920   0.871 -2.0241  0.7464  2.1643
 7880SOL    HW331287   5.153   4.785   0.838  1.9132 -0.2625 -1.3875
 7880SOL    MW431288   5.206   4.835   0.886  0.4575  0.0951 -0.0745
 7881SOL     OW31289   0.835   0.556   5.048 -0.0499  0.4700 -0.2274
 7881SOL    HW231290   0.914   0.564   5.101 -0.4224 -0.3392  0.4719
 7881SOL    HW331291   0.805   0.646   5.037 -0.4464  0.6227  1.7024
 7881SOL    MW431292   0.841   0.569   5.054 -0.1514  0.3833  0.1195
 7882SOL     OW31293   1.166   0.164   5.821 -0.1462 -0.5694 -0.1882
 7882SOL    HW231294   1.081   0.180   5.863 -0.2094 -3.5229  1.1070
 7882SOL    HW331295   1.217   0.243   5.838 -1.7982  0.2429  1.2809
 7882SOL    MW431296   1.162   0.177   5.829 -0.3725 -0.8519  0.1765
 7883SOL     OW31297   2.407   2.942   4.642 -0.5487  0.1541  0.4516
 7883SOL    HW231298   2.318   2.906   4.635 -0.4727 -0.0442  0.4920
 7883SOL    HW331299   2.444   2.897   4.718 -0.0355 -0.5606 -0.2161
 7883SOL    MW431300   2.400   2.931   4.651 -0.4709  0.0337  0.3688
 7884SOL     OW31301   3.791   4.049   5.445 -0.4913  0.7976  0.3624
 7884SOL    HW231302   3.802   3.960   5.413  1.3084  0.1729  2.4537
 7884SOL    HW331303   3.697   4.067   5.436 -0.9724 -1.4729  0.3239
 7884SOL    MW431304   3.780   4.040   5.439 -0.3173  0.4156  0.6332
 7885SOL     OW31305   2.412   4.745   0.818  0.0644 -0.1757 -0.2474
 7885SOL    HW231306   2.375   4.686   0.752  0.0478 -0.0893 -0.3151
 7885SOL    HW331307   2.418   4.830   0.774  0.6693 -0.2685 -0.3424
 7885SOL    MW431308   2.408   4.749   0.804  0.1420 -0.1765 -0.2689
 7886SOL     OW31309   0.317   0.226   3.985 -0.5540 -0.1022 -0.1203
 7886SOL    HW231310   0.366   0.308   3.993  1.2580 -1.2677  1.4684
 7886SOL    HW331311   0.283   0.209   4.073 -0.9516 -1.0437 -0.4384
 7886SOL    MW431312   0.319   0.235   3.998 -0.3674 -0.3802  0.0473
 7887SOL     OW31313   1.125   2.771   0.963 -0.3396  0.3311 -0.0404
 7887SOL    HW231314   1.173   2.854   0.964  0.2892 -0.0234  1.5149
 7887SOL    HW331315   1.182   2.710   1.010 -1.6237 -0.5060  0.4630
 7887SOL    MW431316   1.139   2.774   0.969 -0.4260  0.1739  0.2313
 7888SOL     OW31317   5.377   4.612   2.434  0.4213 -0.4097 -0.0027
 7888SOL    HW231318   5.463   4.650   2.415  1.2638 -2.6019 -0.8602
 7888SOL    HW331319   5.370   4.615   2.529  1.1013  0.4711  0.0385
 7888SOL    MW431320   5.388   4.618   2.444  0.6221 -0.5827 -0.1104
 7889SOL     OW31321   1.998   6.254   2.183  0.1911 -0.4490  0.1291
 7889SOL    HW231322   2.013   6.219   2.271 -0.2965  0.7729  0.7371
 7889SOL    HW331323   1.933   6.323   2.197  0.3193 -0.0535 -1.1621
 7889SOL    MW431324   1.991   6.259   2.197  0.1437 -0.2356  0.0390
 7890SOL     OW31325   6.344   5.116   4.395 -0.1228  0.1997  0.5916
 7890SOL    HW231326   6.411   5.084   4.455  0.3315  1.1653  0.6110
 7890SOL    HW331327   6.359   5.067   4.314 -0.3962 -0.7117  1.0767
 7890SOL    MW431328   6.355   5.105   4.392 -0.0990  0.2068  0.6581
 7891SOL     OW31329   3.834   0.565   2.891 -0.6168 -0.4427  0.0042
 7891SOL    HW231330   3.756   0.519   2.922  0.6996 -1.2682  2.3063
 7891SOL    HW331331   3.844   0.638   2.952  0.8794 -0.8348  0.2462
 7891SOL    MW431332   3.825   0.569   2.903 -0.2457 -0.6033  0.3399
 7892SOL     OW31333   3.112   3.582   1.049 -0.3051  0.0577  0.5622
 7892SOL    HW231334   3.186   3.542   1.095  1.5115  0.9058 -1.4705
 7892SOL    HW331335   3.071   3.509   1.001  0.0785 -0.1739  0.5836
 7892SOL    MW431336   3.116   3.567   1.049 -0.0148  0.1390  0.2969
 7893SOL     OW31337   1.780   5.289   2.760  0.5965 -0.4576  0.1398
 7893SOL    HW231338   1.762   5.196   2.772  0.5336 -0.2910  1.5209
 7893SOL    HW331339   1.694   5.330   2.757  0.6212 -0.2606  1.3937
 7893SOL    MW431340   1.766   5.282   2.761  0.5914 -0.4096  0.4875
 7894SOL     OW31341   5.366   3.169   4.537 -0.2597 -0.1176 -0.0582
 7894SOL    HW231342   5.360   3.264   4.532  0.8263 -0.0659 -0.7382
 7894SOL    HW331343   5.435   3.152   4.601 -0.2168 -0.4376 -0.1876
 7894SOL    MW431344   5.374   3.179   4.545 -0.1107 -0.1530 -0.1650
 7895SOL     OW31345   1.434   3.645   1.754  0.3427 -0.2599  0.2213
 7895SOL    HW231346   1.352   3.614   1.792 -1.1089  1.8163 -0.9802
 7895SOL    HW331347   1.481   3.685   1.828  0.4758 -1.7750  0.9891
 7895SOL    MW431348   1.430   3.646   1.769  0.1687 -0.1859  0.1641
 7896SOL     OW31349   4.859   5.065   5.301  0.0071 -0.3122  0.4631
 7896SOL    HW231350   4.808   5.029   5.228  2.5261  1.5825 -2.5203
 7896SOL    HW331351   4.906   4.990   5.336 -0.5392 -1.1534 -0.5341
 7896SOL    MW431352   4.859   5.050   5.296  0.2674 -0.1732 -0.0621
 7897SOL     OW31353   3.134   3.644   4.608 -0.4612 -0.4741  0.1014
 7897SOL    HW231354   3.130   3.575   4.543 -0.1290 -0.6989  0.3144
 7897SOL    HW331355   3.075   3.615   4.678  1.1307 -1.5048  1.0858
 7897SOL    MW431356   3.126   3.631   4.609 -0.2073 -0.6398  0.2594
 7898SOL     OW31357   0.830   1.938   3.847 -0.5958  1.0638 -0.0774
 7898SOL    HW231358   0.821   1.886   3.927 -1.9945 -1.7170 -1.8469
 7898SOL    HW331359   0.751   1.992   3.845 -1.2032  0.2090 -0.1157
 7898SOL    MW431360   0.818   1.938   3.857 -0.8605  0.5841 -0.3159
 7899SOL     OW31361   3.071   4.573   5.579 -0.5244  0.6578  0.3630
 7899SOL    HW231362   3.092   4.480   5.587 -2.2480  0.3407  1.7282
 7899SOL    HW331363   3.048   4.600   5.668 -0.3447  2.3358 -0.0620
 7899SOL    MW431364   3.071   4.564   5.592 -0.7281  0.8373  0.4870
 7900SOL     OW31365   4.223   1.292   3.907 -0.0274  0.2530  0.0340
 7900SOL    HW231366   4.293   1.286   3.841 -0.0904 -0.3215  0.0160
 7900SOL    HW331367   4.179   1.207   3.903 -0.7976  0.6499 -0.0253
 7900SOL    MW431368   4.227   1.280   3.898 -0.1373  0.2295  0.0238
 7901SOL     OW31369   0.434   3.598   1.656 -0.1958  0.1255 -0.5921
 7901SOL    HW231370   0.441   3.533   1.725 -0.4155 -0.0721 -0.7514
 7901SOL    HW331371   0.524   3.609   1.623 -0.3108 -0.9390 -1.3233
 7901SOL    MW431372   0.447   3.591   1.661 -0.2399 -0.0410 -0.7096
 7902SOL     OW31373   4.055   2.799   4.688  0.1924 -0.0185 -0.2175
 7902SOL    HW231374   3.997   2.834   4.621  2.7940  0.6827 -2.2979
 7902SOL    HW331375   4.140   2.791   4.644  1.5456 -1.6357  2.4116
 7902SOL    MW431376   4.059   2.802   4.674  0.7142 -0.1393 -0.1451
 7903SOL     OW31377   5.712   6.075   2.912 -0.2179  0.5823 -0.4282
 7903SOL    HW231378   5.798   6.107   2.885  0.6179  0.5474  1.9647
 7903SOL    HW331379   5.701   6.108   3.001 -2.0961 -0.5457 -0.1923
 7903SOL    MW431380   5.722   6.083   2.920 -0.3554  0.4288 -0.0814
 7904SOL     OW31381   3.453   3.608   0.071 -0.1581 -0.2484  0.1030
 7904SOL    HW231382   3.422   3.609   0.161  0.6121  1.0536  0.3782
 7904SOL    HW331383   3.417   3.689   0.032  1.9307  0.7717  0.1414
 7904SOL    MW431384   3.444   3.619   0.078  0.2191  0.0579  0.1444
 7905SOL     OW31385   3.295   1.035   0.111 -0.2609  0.0652 -0.0225
 7905SOL    HW231386   3.317   0.953   0.065  1.1569  0.1625  0.4320
 7905SOL    HW331387   3.379   1.080   0.121 -1.0551  1.7311 -0.5144
 7905SOL    MW431388   3.309   1.030   0.106 -0.1786  0.2979 -0.0274
 7906SOL     OW31389   1.552   2.462   4.641 -0.4258  0.2947  0.1361
 7906SOL    HW231390   1.584   2.519   4.571  0.3785 -0.6502 -0.2845
 7906SOL    HW331391   1.594   2.496   4.720 -0.5810  0.7773  0.0137
 7906SOL    MW431392   1.562   2.474   4.642 -0.3402  0.2337  0.0645
 7907SOL     OW31393   5.490   2.477   3.128  0.5923 -0.4608 -0.2687
 7907SOL    HW231394   5.417   2.538   3.114  0.2199 -0.7991  0.1728
 7907SOL    HW331395   5.461   2.395   3.087  1.7351  0.0632 -2.2811
 7907SOL    MW431396   5.476   2.474   3.121  0.6939 -0.4363 -0.4760
 7908SOL     OW31397   1.846   4.923   5.210 -0.4059 -0.3289  0.0539
 7908SOL    HW231398   1.836   4.967   5.125 -0.6977 -1.3013 -0.4329
 7908SOL    HW331399   1.768   4.868   5.217  0.2708 -1.2550  0.3443
 7908SOL    MW431400   1.834   4.922   5.200 -0.3551 -0.5794  0.0280
 7909SOL     OW31401   2.155   1.032   2.368 -0.2560  0.3125  0.0194
 7909SOL    HW231402   2.174   1.116   2.410  1.8810  0.1668 -0.5324
 7909SOL    HW331403   2.169   1.048   2.275  1.5760 -0.9173  0.0161
 7909SOL    MW431404   2.160   1.045   2.362  0.2677  0.1310 -0.0538
 7910SOL     OW31405   3.030   1.757   0.108 -0.3651  0.2464 -0.3173
 7910SOL    HW231406   2.955   1.749   0.167 -0.8628  0.6705 -0.8717
 7910SOL    HW331407   3.082   1.678   0.123 -1.9760 -1.0891 -1.3742
 7910SOL    MW431408   3.027   1.746   0.118 -0.6433  0.1262 -0.5299
 7911SOL     OW31409   0.407   3.809   3.306  0.1292  0.5533  0.3353
 7911SOL    HW231410   0.337   3.747   3.286  0.0049  0.9613 -0.5189
 7911SOL    HW331411   0.482   3.780   3.254  1.8642 -2.0419  3.8643
 7911SOL    MW431412   0.407   3.797   3.297  0.3417  0.2647  0.6882
 7912SOL     OW31413   0.249   2.230   6.130 -0.6792  0.0410 -0.3671
 7912SOL    HW231414   0.203   2.311   6.110  0.5414  0.7734 -0.2900
 7912SOL    HW331415   0.286   2.245   6.217 -0.8352 -0.7859 -0.1517
 7912SOL    MW431416   0.247   2.243   6.139 -0.5387  0.0285 -0.3285
 7913SOL     OW31417   6.412   0.300   4.299 -0.1658 -0.0674  0.1863
 7913SOL    HW231418   6.353   0.322   4.228 -1.0007 -1.8667  0.2747
 7913SOL    HW331419   6.384   0.213   4.328  2.6227 -1.1009  0.1193
 7913SOL    MW431420   6.401   0.291   4.294  0.0920 -0.4412  0.1891
 7914SOL     OW31421   3.089   5.856   6.080  0.0787  0.2916 -0.3799
 7914SOL    HW231422   3.008   5.891   6.043 -1.0539  0.2084  1.8240
 7914SOL    HW331423   3.137   5.933   6.110 -0.9356  0.2179  1.5929
 7914SOL    MW431424   3.085   5.870   6.079 -0.2046  0.2709  0.1712
 7915SOL     OW31425   0.240   4.747   0.968  0.0776 -0.1531 -0.0931
 7915SOL    HW231426   0.221   4.759   1.061  0.7655  0.2665  0.0030
 7915SOL    HW331427   0.216   4.831   0.928 -2.1806 -0.9878 -0.6546
 7915SOL    MW431428   0.234   4.760   0.975 -0.1296 -0.2078 -0.1545
 7916SOL     OW31429   2.674   5.233   1.630 -0.6676 -0.0998 -0.3034
 7916SOL    HW231430   2.744   5.172   1.654  0.1396  0.7014 -0.5961
 7916SOL    HW331431   2.715   5.294   1.569 -1.3127  1.0983  0.4377
 7916SOL    MW431432   2.688   5.233   1.625 -0.6462  0.1640 -0.2442
 7917SOL     OW31433   3.750   2.096   4.856  0.2373  0.3711  0.1359
 7917SOL    HW231434   3.658   2.080   4.834  0.6907  0.9703 -2.5654
 7917SOL    HW331435   3.749   2.182   4.899 -0.3181  1.2265 -1.5024
 7917SOL    MW431436   3.737   2.105   4.859  0.2239  0.5630 -0.4367
 7918SOL     OW31437   3.283   5.774   1.280 -0.3528  0.3121  0.2087
 7918SOL    HW231438   3.226   5.779   1.357 -2.8049 -1.9585 -1.2959
 7918SOL    HW331439   3.253   5.846   1.224 -0.6665  0.0986  0.0995
 7918SOL    MW431440   3.271   5.784   1.283 -0.7177 -0.0157 -0.0043
 7919SOL     OW31441   5.129   3.728   1.367 -0.2159  0.7046  0.4360
 7919SOL    HW231442   5.208   3.763   1.408  1.0440  0.7817 -1.8884
 7919SOL    HW331443   5.057   3.778   1.406  0.7655  0.3051  2.9656
 7919SOL    MW431444   5.130   3.739   1.377  0.0798  0.6621  0.4631
 7920SOL     OW31445   4.165   5.675   4.539  0.4720  0.4477  0.5800
 7920SOL    HW231446   4.120   5.665   4.456 -0.0231 -1.2031  1.0061
 7920SOL    HW331447   4.097   5.663   4.605  1.0519  0.6601  1.2285
 7920SOL    MW431448   4.150   5.672   4.537  0.4832  0.2579  0.7218
 7921SOL     OW31449   4.828   1.627   6.283 -0.2709  0.3254 -0.7799
 7921SOL    HW231450   4.901   1.599   6.338  0.0710  0.5068 -1.1357
 7921SOL    HW331451   4.866   1.635   6.195 -0.5964  0.9062 -0.8736
 7921SOL    MW431452   4.843   1.625   6.278 -0.2687  0.4260 -0.8392
 7922SOL     OW31453   0.437   0.794   6.053  0.0960 -0.1848  0.2063
 7922SOL    HW231454   0.401   0.740   5.983 -0.5937 -0.2805  0.6343
 7922SOL    HW331455   0.361   0.834   6.095  0.5930  1.7026 -0.5565
 7922SOL    MW431456   0.422   0.792   6.049  0.0705  0.0516  0.1621
 7923SOL     OW31457   0.033   0.438   5.941  0.1372  0.1922  0.1749
 7923SOL    HW231458   0.103   0.500   5.918  0.7072  0.1572  1.7224
 7923SOL    HW331459   0.079   0.359   5.969 -0.5617 -0.2336  0.1370
 7923SOL    MW431460   0.048   0.436   5.941  0.1202  0.1314  0.3740
 7924SOL     OW31461   5.234   1.628   3.481  0.5269  0.9197  0.2331
 7924SOL    HW231462   5.262   1.711   3.443 -0.9397  1.4596  0.2609
 7924SOL    HW331463   5.247   1.639   3.575  0.6211  1.0011  0.2105
 7924SOL    MW431464   5.239   1.641   3.488  0.3459  1.0017  0.2338
 7925SOL     OW31465   2.122   6.278   2.956 -0.3684 -0.8334  0.1227
 7925SOL    HW231466   2.098   6.243   3.042  1.2552  0.8841  1.3398
 7925SOL    HW331467   2.039   6.286   2.909 -1.6354  0.4776  2.4452
 7925SOL    MW431468   2.108   6.274   2.961 -0.3213 -0.4338  0.5897
 7926SOL     OW31469   5.976   1.084   3.711  0.4842  0.2725  0.0863
 7926SOL    HW231470   6.027   1.039   3.643  0.2792 -1.2146  0.8772
 7926SOL    HW331471   6.032   1.158   3.737  0.9042  0.4112 -1.1332
 7926SOL    MW431472   5.990   1.088   3.705  0.5125  0.0946  0.0298
 7927SOL     OW31473   2.392   3.405   3.093  0.3533  0.1429  0.2693
 7927SOL    HW231474   2.328   3.476   3.085  0.8080  0.6406  0.9030
 7927SOL    HW331475   2.475   3.450   3.106  0.8530 -0.4941 -0.6609
 7927SOL    MW431476   2.394   3.420   3.094  0.4792  0.1245  0.2302
 7928SOL     OW31477   5.769   4.944   5.942 -0.1305 -0.3759  0.4617
 7928SOL    HW231478   5.749   4.860   5.901 -2.4196  1.4891 -2.7031
 7928SOL    HW331479   5.690   4.965   5.993 -0.2211  0.4778 -0.0052
 7928SOL    MW431480   5.756   4.936   5.943 -0.4444 -0.0172 -0.0175
 7929SOL     OW31481   0.280   6.194   0.220  0.2791  0.0735  0.3137
 7929SOL    HW231482   0.339   6.212   0.293  1.4592 -0.0257 -0.5906
 7929SOL    HW331483   0.306   6.257   0.153 -2.5681  2.0242  0.8644
 7929SOL    MW431484   0.291   6.205   0.221  0.0591  0.3178  0.2671
 7930SOL     OW31485   6.361   0.986   4.403 -0.6334 -0.4389  0.2876
 7930SOL    HW231486   6.435   0.982   4.464 -0.9293 -2.5640  0.5707
 7930SOL    HW331487   6.315   0.904   4.415 -2.4621  0.3829 -0.6650
 7930SOL    MW431488   6.365   0.975   4.413 -0.9137 -0.6109  0.1993
 7931SOL     OW31489   3.843   2.938   3.876 -0.0946 -0.2071  0.1151
 7931SOL    HW231490   3.884   2.854   3.898  0.7904  0.0538 -0.4874
 7931SOL    HW331491   3.825   2.932   3.782 -1.5030 -0.3297  0.3793
 7931SOL    MW431492   3.846   2.926   3.867 -0.1637 -0.1888  0.0705
 7932SOL     OW31493   6.333   2.895   5.403  0.0900  0.3915 -0.1203
 7932SOL    HW231494   6.323   2.800   5.389 -0.2802  0.5140 -0.7297
 7932SOL    HW331495   6.346   2.931   5.315  0.7095  0.8566  0.1598
 7932SOL    MW431496   6.333   2.887   5.390  0.1229  0.4690 -0.1637
 7933SOL     OW31497   1.464   5.692   3.078  0.0649  0.8210  0.5148
 7933SOL    HW231498   1.409   5.698   3.156 -0.4417  0.0043  0.2270
 7933SOL    HW331499   1.514   5.611   3.090  0.8474  1.2889  0.5333
 7933SOL    MW431500   1.464   5.682   3.090  0.1013  0.7750  0.4793
 7934SOL     OW31501   3.630   4.369   4.966  0.2129  0.5164 -0.5222
 7934SOL    HW231502   3.626   4.455   4.924 -0.3977  0.7418 -0.0162
 7934SOL    HW331503   3.690   4.318   4.911  1.0236  1.4324 -0.5069
 7934SOL    MW431504   3.637   4.373   4.953  0.2393  0.6670 -0.4534
 7935SOL     OW31505   4.015   5.629   4.787  0.0780  0.0440 -0.5920
 7935SOL    HW231506   4.070   5.700   4.822 -1.4803  1.6563 -1.2342
 7935SOL    HW331507   4.053   5.549   4.824  1.6825  1.2257  0.4862
 7935SOL    MW431508   4.027   5.628   4.797  0.0841  0.4126 -0.5345
 7936SOL     OW31509   5.460   0.677   2.768  0.2523  0.1959  0.1967
 7936SOL    HW231510   5.447   0.728   2.689 -0.7558 -1.1398 -0.5508
 7936SOL    HW331511   5.374   0.674   2.810  0.3259 -0.7148  0.3115
 7936SOL    MW431512   5.447   0.683   2.763  0.1290 -0.1005  0.1132
 7937SOL     OW31513   0.317   0.905   2.189  0.3128  0.4584 -0.2786
 7937SOL    HW231514   0.398   0.953   2.206  0.7682 -0.6626  0.8900
 7937SOL    HW331515   0.300   0.857   2.270 -1.5102  0.6377 -0.5223
 7937SOL    MW431516   0.326   0.905   2.202  0.1324  0.3342 -0.1566
 7938SOL     OW31517   5.508   2.430   4.297  0.2010  0.6007 -0.0237
 7938SOL    HW231518   5.523   2.336   4.307 -0.9932  0.3237 -0.5728
 7938SOL    HW331519   5.556   2.470   4.369  1.0140 -0.3997  0.0093
 7938SOL    MW431520   5.516   2.423   4.308  0.1507  0.4322 -0.0918
 7939SOL     OW31521   2.478   6.104   1.317 -0.0147  0.1493 -0.5410
 7939SOL    HW231522   2.417   6.060   1.258  1.2587 -0.3615 -1.5178
 7939SOL    HW331523   2.447   6.081   1.405 -2.9301  2.2710 -0.8816
 7939SOL    MW431524   2.466   6.095   1.321 -0.2313  0.3619 -0.7148
 7940SOL     OW31525   0.522   0.487   3.112  0.0249 -0.3369  0.4345
 7940SOL    HW231526   0.609   0.526   3.104 -0.2033 -0.0584 -0.8698
 7940SOL    HW331527   0.482   0.531   3.187  0.4411  0.6534  0.0818
 7940SOL    MW431528   0.528   0.498   3.121  0.0497 -0.1695  0.2158
 7941SOL     OW31529   1.642   1.053   5.705 -0.1414 -0.0632 -0.2521
 7941SOL    HW231530   1.699   1.110   5.654  1.2597 -0.3735  0.9193
 7941SOL    HW331531   1.628   1.100   5.787 -1.7432  0.0810 -0.5593
 7941SOL    MW431532   1.648   1.067   5.709 -0.1679 -0.0851 -0.1381
 7942SOL     OW31533   4.693   0.407   6.156 -1.0848 -0.0786  0.1886
 7942SOL    HW231534   4.633   0.359   6.213 -0.2805 -0.5120  0.6868
 7942SOL    HW331535   4.775   0.410   6.205 -0.6218  0.2776 -0.5940
 7942SOL    MW431536   4.696   0.401   6.170 -0.9176 -0.0888  0.1511
 7943SOL     OW31537   5.966   2.732   5.444  0.4559  0.3303 -0.1356
 7943SOL    HW231538   6.034   2.679   5.403  0.6894 -0.6936  1.4654
 7943SOL    HW331539   6.012   2.785   5.509 -0.3087 -0.9384  1.5103
 7943SOL    MW431540   5.981   2.732   5.447  0.3858  0.0278  0.2928
 7944SOL     OW31541   2.113   2.272   2.590 -0.1279 -0.1730 -0.0723
 7944SOL    HW231542   2.019   2.293   2.585 -0.2976 -0.8853 -0.0019
 7944SOL    HW331543   2.122   2.225   2.673 -0.1336 -2.1355 -1.1392
 7944SOL    MW431544   2.101   2.269   2.601 -0.1510 -0.5259 -0.2038
 7945SOL     OW31545   6.168   0.892   5.567  0.0717  0.3850 -0.3916
 7945SOL    HW231546   6.143   0.897   5.474  1.0266 -1.7374 -0.8364
 7945SOL    HW331547   6.089   0.862   5.611 -0.0959  0.3710 -0.6932
 7945SOL    MW431548   6.154   0.889   5.560  0.1756  0.1031 -0.4901
 7946SOL     OW31549   4.646   6.257   2.982 -0.0525  0.5903  0.0209
 7946SOL    HW231550   4.687   6.321   3.040 -1.2092  0.2935  1.1878
 7946SOL    HW331551   4.643   6.301   2.897  1.8014  0.9654  0.1106
 7946SOL    MW431552   4.651   6.271   2.978  0.0395  0.6006  0.1867
 7947SOL     OW31553   2.973   2.074   4.380  0.0793 -0.3000 -0.7205
 7947SOL    HW231554   2.881   2.049   4.393  0.2660  0.2065  2.5775
 7947SOL    HW331555   3.023   1.996   4.407  0.6038  0.3755  0.3149
 7947SOL    MW431556   2.968   2.060   4.385  0.1731 -0.1440 -0.1488
 7948SOL     OW31557   2.191   4.039   0.579 -0.3328 -0.1843 -0.8036
 7948SOL    HW231558   2.105   4.071   0.606  0.7450  1.6908  0.6796
 7948SOL    HW331559   2.216   3.976   0.646 -0.2316 -0.1168 -0.7758
 7948SOL    MW431560   2.183   4.035   0.591 -0.1773  0.0720 -0.6042
 7949SOL     OW31561   1.685   4.067   0.945  0.5581  0.0191  0.3112
 7949SOL    HW231562   1.593   4.088   0.963  0.5411 -0.3052  0.6144
 7949SOL    HW331563   1.733   4.099   1.021  0.7031  0.2238  0.1349
 7949SOL    MW431564   1.679   4.074   0.957  0.5750  0.0033  0.3279
 7950SOL     OW31565   1.012   6.217   4.027 -0.2050 -0.1495 -0.0007
 7950SOL    HW231566   0.989   6.300   3.984  0.5021 -0.6969 -1.4609
 7950SOL    HW331567   0.927   6.176   4.044 -0.4897 -0.5044 -2.0676
 7950SOL    MW431568   0.998   6.223   4.024 -0.1492 -0.2685 -0.4661
 7951SOL     OW31569   3.660   6.358   2.676  0.3795  0.0062  0.0251
 7951SOL    HW231570   3.740   6.410   2.673  1.6499 -1.7914  0.4043
 7951SOL    HW331571   3.617   6.384   2.757  0.4615  1.1270 -0.2742
 7951SOL    MW431572   3.665   6.368   2.686  0.5580 -0.0831  0.0357
 7952SOL     OW31573   2.945   6.143   3.426  0.3603 -0.2349 -0.3121
 7952SOL    HW231574   2.879   6.155   3.495 -0.0041  1.2247 -0.8654
 7952SOL    HW331575   3.026   6.127   3.474 -0.0452 -0.0981  0.4411
 7952SOL    MW431576   2.947   6.143   3.442  0.2587 -0.0243 -0.2857
 7953SOL     OW31577   1.275   5.414   5.040 -0.2651  0.4904 -0.2907
 7953SOL    HW231578   1.326   5.454   5.110 -1.9022 -0.2177  1.3730
 7953SOL    HW331579   1.301   5.322   5.041 -1.5725  0.1048  0.6329
 7953SOL    MW431580   1.285   5.407   5.049 -0.6536  0.3461  0.0507
 7954SOL     OW31581   6.430   2.979   5.147 -0.0927 -0.1376 -0.2477
 7954SOL    HW231582   6.395   3.030   5.074  1.7034  0.6108 -0.6421
 7954SOL    HW331583   6.503   3.032   5.179  0.2761 -1.3253  0.9364
 7954SOL    MW431584   6.435   2.993   5.142  0.1929 -0.1955 -0.1435
 7955SOL     OW31585   1.675   1.226   3.241 -0.5521  0.1649 -0.4514
 7955SOL    HW231586   1.603   1.178   3.202 -1.2169  0.8649 -0.1225
 7955SOL    HW331587   1.728   1.160   3.286 -0.9196 -0.3677 -0.8026
 7955SOL    MW431588   1.673   1.211   3.242 -0.6883  0.1870 -0.4543
 7956SOL     OW31589   0.989   3.846   3.186  0.8971  0.4654 -0.2012
 7956SOL    HW231590   0.922   3.900   3.229 -1.6351 -3.2085  1.0103
 7956SOL    HW331591   1.045   3.816   3.257  1.7108  0.7155 -0.7207
 7956SOL    MW431592   0.987   3.849   3.201  0.6704  0.0136 -0.1099
 7957SOL     OW31593   2.487   3.474   0.693 -0.4993  0.6582  0.0063
 7957SOL    HW231594   2.454   3.499   0.779  0.9225  0.7324  0.5553
 7957SOL    HW331595   2.518   3.555   0.654  2.1334  0.2123  0.9218
 7957SOL    MW431596   2.487   3.488   0.700  0.0356  0.6091  0.1995
 7958SOL     OW31597   4.315   2.737   1.612 -0.3863  0.7298 -0.3095
 7958SOL    HW231598   4.282   2.779   1.533  2.1086  1.1439 -1.2080
 7958SOL    HW331599   4.293   2.645   1.601  0.2894  0.7166 -1.7081
 7958SOL    MW431600   4.308   2.730   1.600  0.0320  0.7827 -0.6126
 7959SOL     OW31601   3.956   2.200   4.405 -0.0206  0.0717  0.3463
 7959SOL    HW231602   3.873   2.241   4.428  0.9384  2.0663  0.3890
 7959SOL    HW331603   3.965   2.128   4.468 -0.3367  1.6518  2.3179
 7959SOL    MW431604   3.946   2.196   4.416  0.0643  0.5433  0.6121
 7960SOL     OW31605   1.778   1.877   3.829  0.4547 -0.3423 -0.2469
 7960SOL    HW231606   1.697   1.909   3.789  0.4139  2.1084  1.5397
 7960SOL    HW331607   1.765   1.782   3.836 -1.8224 -0.1482 -0.9177
 7960SOL    MW431608   1.766   1.868   3.825  0.1489  0.0066 -0.0997
 7961SOL     OW31609   6.243   5.873   5.494 -0.2607 -0.4732  0.0860
 7961SOL    HW231610   6.306   5.819   5.446 -1.0198  0.6525 -2.2997
 7961SOL    HW331611   6.285   5.888   5.579  0.5477 -3.6437  0.3487
 7961SOL    MW431612   6.257   5.868   5.499 -0.2542 -0.7429 -0.1941
 7962SOL     OW31613   6.153   3.750   0.865  0.2605 -0.1335 -0.4658
 7962SOL    HW231614   6.143   3.840   0.896  1.0339 -0.1495 -0.1642
 7962SOL    HW331615   6.076   3.704   0.901  0.0570  0.3191 -0.3137
 7962SOL    MW431616   6.141   3.756   0.874  0.3357 -0.0759 -0.4059
 7963SOL     OW31617   2.622   3.027   4.266 -0.0352  0.6244 -0.1362
 7963SOL    HW231618   2.644   2.968   4.338 -1.9669  0.9087  0.7584
 7963SOL    HW331619   2.617   3.114   4.307 -2.0651  0.6634 -0.3340
 7963SOL    MW431620   2.624   3.031   4.281 -0.5579  0.6671 -0.0443
 7964SOL     OW31621   4.959   3.023   0.545 -0.2140  0.5935 -0.1769
 7964SOL    HW231622   4.902   3.065   0.609  1.0993 -0.8116  2.0437
 7964SOL    HW331623   5.043   3.067   0.555  0.4015 -0.6168  0.1599
 7964SOL    MW431624   4.962   3.034   0.554  0.0405  0.2485  0.1605
 7965SOL     OW31625   3.189   5.764   4.438 -0.1941  0.3550  0.6341
 7965SOL    HW231626   3.215   5.674   4.462  0.4503 -0.3890 -2.4245
 7965SOL    HW331627   3.094   5.758   4.424 -0.0411 -0.0678 -0.2931
 7965SOL    MW431628   3.180   5.751   4.439 -0.0889  0.2010  0.1082
 7966SOL     OW31629   2.183   0.190   5.286  0.3664  0.6285  0.5236
 7966SOL    HW231630   2.230   0.135   5.224  0.1407  0.2999  0.6345
 7966SOL    HW331631   2.092   0.190   5.254  0.4220  1.1817  0.3580
 7966SOL    MW431632   2.177   0.183   5.274  0.3440  0.6581  0.5164
 7967SOL     OW31633   3.958   6.291   5.095 -0.3221  0.0190  0.3687
 7967SOL    HW231634   4.016   6.324   5.163  3.0429 -2.4751 -1.0144
 7967SOL    HW331635   3.936   6.202   5.124  1.5073 -1.2454 -1.8463
 7967SOL    MW431636   3.963   6.283   5.108  0.3632 -0.4769 -0.1061
 7968SOL     OW31637   0.140   5.169   4.147  0.6645 -0.9962  0.7401
 7968SOL    HW231638   0.107   5.247   4.191  1.4824  0.7779 -1.5842
 7968SOL    HW331639   0.066   5.109   4.144 -0.0170 -0.2974  2.4561
 7968SOL    MW431640   0.126   5.171   4.153  0.6825 -0.6700  0.6598
 7969SOL     OW31641   0.470   2.737   5.796 -0.5459 -0.4989  0.4633
 7969SOL    HW231642   0.393   2.722   5.740  1.1579 -1.3580 -1.7937
 7969SOL    HW331643   0.488   2.830   5.787  0.1194 -0.7393 -1.0870
 7969SOL    MW431644   0.462   2.747   5.787 -0.2333 -0.6440 -0.0391
 7970SOL     OW31645   1.240   4.861   3.179  0.4961  0.6796  0.0034
 7970SOL    HW231646   1.233   4.949   3.143  2.8771  1.4450  1.2002
 7970SOL    HW331647   1.257   4.875   3.273 -1.3214 -1.1328  0.6745
 7970SOL    MW431648   1.241   4.874   3.187  0.5705  0.5415  0.2498
 7971SOL     OW31649   6.120   5.029   4.759 -0.7211 -0.4178 -0.1824
 7971SOL    HW231650   6.085   5.107   4.802  0.2574 -0.4760  0.7672
 7971SOL    HW331651   6.061   4.958   4.786 -0.6036 -0.3034  0.3848
 7971SOL    MW431652   6.108   5.030   4.768 -0.5765 -0.4104  0.0177
 7972SOL     OW31653   4.138   3.057   2.508 -0.2550  0.1913  0.0609
 7972SOL    HW231654   4.231   3.044   2.494 -0.4874 -0.5966 -0.8510
 7972SOL    HW331655   4.100   2.969   2.503 -0.6546  0.0107  3.8453
 7972SOL    MW431656   4.145   3.044   2.505 -0.3384  0.0635  0.4399
 7973SOL     OW31657   2.782   5.621   1.894 -1.0373  0.4051 -0.1555
 7973SOL    HW231658   2.734   5.579   1.822  0.6320  0.4598 -1.3740
 7973SOL    HW331659   2.835   5.551   1.931 -0.6699  0.7317 -0.0617
 7973SOL    MW431660   2.783   5.606   1.889 -0.7686  0.4554 -0.3039
 7974SOL     OW31661   3.562   3.890   6.093  0.7538 -0.3980  0.1270
 7974SOL    HW231662   3.466   3.889   6.092  0.7087 -2.7244  0.9891
 7974SOL    HW331663   3.585   3.975   6.130 -0.9451  0.3629 -0.4494
 7974SOL    MW431664   3.552   3.901   6.098  0.5237 -0.6046  0.1647
 7975SOL     OW31665   2.255   0.319   4.756 -0.1412  0.2277 -0.5934
 7975SOL    HW231666   2.331   0.265   4.733  0.3157  0.9224 -0.7430
 7975SOL    HW331667   2.180   0.268   4.726  0.2470 -0.5775 -0.2289
 7975SOL    MW431668   2.255   0.305   4.749 -0.0297  0.2131 -0.5651
 7976SOL     OW31669   3.657   3.438   5.107  0.1778  0.1268 -0.0207
 7976SOL    HW231670   3.573   3.438   5.152  0.7791  1.3198  1.1562
 7976SOL    HW331671   3.701   3.359   5.139  0.1875  0.4140  0.6749
 7976SOL    MW431672   3.652   3.427   5.117  0.2584  0.3221  0.2264
 7977SOL     OW31673   5.426   0.571   0.102  0.3293 -0.0597 -0.0122
 7977SOL    HW231674   5.409   0.638   0.168 -0.6652 -0.5702  0.2640
 7977SOL    HW331675   5.487   0.613   0.041 -0.6595  1.2809 -0.1207
 7977SOL    MW431676   5.432   0.585   0.102  0.0676  0.0498  0.0099
 7978SOL     OW31677   0.542   2.872   3.069 -0.1222 -0.1179 -0.2800
 7978SOL    HW231678   0.596   2.809   3.117  0.9053  0.1476 -1.0382
 7978SOL    HW331679   0.605   2.932   3.029 -1.0678  1.2382  0.1953
 7978SOL    MW431680   0.558   2.872   3.070 -0.1114  0.0961 -0.3174
 7979SOL     OW31681   4.675   2.036   1.339  0.2107  0.3959 -0.6104
 7979SOL    HW231682   4.627   2.115   1.313 -1.1520  0.2826  1.2901
 7979SOL    HW331683   4.621   1.997   1.408  0.8107 -2.2523 -1.5075
 7979SOL    MW431684   4.661   2.041   1.345  0.1101  0.0315 -0.4780
 7980SOL     OW31685   5.355   3.035   0.403  0.5185 -0.2989  0.5777
 7980SOL    HW231686   5.414   2.959   0.403 -0.1137 -0.7958 -0.1008
 7980SOL    HW331687   5.413   3.109   0.386  0.9194 -0.8215 -0.4467
 7980SOL    MW431688   5.371   3.034   0.401  0.4880 -0.4334  0.3530
 7981SOL     OW31689   1.135   2.177   3.269  0.2884  0.6723 -0.1727
 7981SOL    HW231690   1.223   2.176   3.231  0.3544  1.5730 -0.0822
 7981SOL    HW331691   1.086   2.112   3.219  0.6632  1.0788 -1.0966
 7981SOL    MW431692   1.140   2.168   3.257  0.3466  0.8447 -0.2826
 7982SOL     OW31693   0.391   5.557   4.866  0.6545 -0.2621  0.6270
 7982SOL    HW231694   0.448   5.609   4.809  0.4862 -2.3848 -1.6472
 7982SOL    HW331695   0.305   5.598   4.857  0.1859 -1.6302 -2.3550
 7982SOL    MW431696   0.387   5.570   4.857  0.5705 -0.7227 -0.0665
 7983SOL     OW31697   3.813   4.953   1.773  0.1723  0.0578  0.0165
 7983SOL    HW231698   3.908   4.953   1.767  0.2025 -2.0955 -0.3094
 7983SOL    HW331699   3.795   4.945   1.866  0.3149  0.4050  0.0737
 7983SOL    MW431700   3.823   4.952   1.784  0.1951 -0.1805 -0.0189
 7984SOL     OW31701   4.233   5.690   4.220 -0.2342  0.5076 -0.3059
 7984SOL    HW231702   4.308   5.667   4.275 -0.7403 -1.4535 -0.3596
 7984SOL    HW331703   4.264   5.678   4.130 -0.5667 -0.2226 -0.3306
 7984SOL    MW431704   4.247   5.685   4.215 -0.3448  0.1525 -0.3162
 7985SOL     OW31705   5.688   1.956   1.775 -0.3454 -0.4003  0.2644
 7985SOL    HW231706   5.667   1.889   1.711 -1.7736 -0.2138  0.5009
 7985SOL    HW331707   5.658   1.920   1.859 -0.5391  0.2504  0.4885
 7985SOL    MW431708   5.681   1.943   1.778 -0.5594 -0.2899  0.3252
 7986SOL     OW31709   4.365   0.147   4.376  0.8053  0.0502 -0.4522
 7986SOL    HW231710   4.330   0.224   4.419  0.7668  0.3887 -1.0833
 7986SOL    HW331711   4.382   0.085   4.448  0.8727  0.6517  0.0559
 7986SOL    MW431712   4.363   0.149   4.391  0.8091  0.1742 -0.4685
 7987SOL     OW31713   1.444   4.449   4.318  0.1506  0.0424 -0.7870
 7987SOL    HW231714   1.429   4.508   4.393  0.1592 -2.3198  1.2191
 7987SOL    HW331715   1.414   4.364   4.349  0.3641 -1.1010 -3.4707
 7987SOL    MW431716   1.438   4.446   4.332  0.1799 -0.4201 -0.8764
 7988SOL     OW31717   6.385   4.622   2.663 -0.0177 -0.2371  0.7288
 7988SOL    HW231718   6.410   4.591   2.576 -1.9959 -1.9133  0.6897
 7988SOL    HW331719   6.439   4.572   2.723  0.5794  0.1400  0.5149
 7988SOL    MW431720   6.395   4.611   2.659 -0.1999 -0.4085  0.6954
 7989SOL     OW31721   1.413   0.161   4.374 -0.6088 -0.1149  0.0799
 7989SOL    HW231722   1.472   0.229   4.341  0.3593 -1.8961 -2.1132
 7989SOL    HW331723   1.337   0.165   4.316  0.1420 -1.8281 -1.1298
 7989SOL    MW431724   1.411   0.170   4.362 -0.3820 -0.5760 -0.3690
 7990SOL     OW31725   2.504   0.150   5.553 -0.8339  0.0665 -0.1895
 7990SOL    HW231726   2.410   0.170   5.547 -0.3813  2.1223 -1.1510
 7990SOL    HW331727   2.518   0.082   5.487 -1.3445  1.0068 -1.2892
 7990SOL    MW431728   2.493   0.144   5.543 -0.8415  0.4618 -0.4615
 7991SOL     OW31729   2.118   0.216   3.655 -0.2750  0.8036 -0.2746
 7991SOL    HW231730   2.043   0.184   3.605  0.3927 -0.3678 -0.5668
 7991SOL    HW331731   2.114   0.169   3.738  2.1785 -2.2445 -1.6771
 7991SOL    MW431732   2.108   0.206   3.659  0.1368  0.2469 -0.4982
 7992SOL     OW31733   4.327   5.112   2.061 -0.2381  0.3937 -0.1013
 7992SOL    HW231734   4.303   5.102   1.969  0.2368  0.9404 -0.2928
 7992SOL    HW331735   4.262   5.173   2.096 -0.9033 -0.4398  0.1338
 7992SOL    MW431736   4.315   5.119   2.053 -0.2632  0.3559 -0.0955
 7993SOL     OW31737   5.981   5.530   1.309 -0.4203 -0.1975 -0.2879
 7993SOL    HW231738   6.050   5.500   1.368 -1.0690  1.3494  1.3489
 7993SOL    HW331739   5.903   5.482   1.337 -0.1241 -1.7695 -1.9804
 7993SOL    MW431740   5.980   5.520   1.321 -0.4668 -0.2008 -0.2952
 7994SOL     OW31741   2.941   4.555   6.340 -0.2814 -0.0726  0.1177
 7994SOL    HW231742   3.023   4.526   6.302  0.5589  0.5078  1.4053
 7994SOL    HW331743   2.966   4.593   6.424 -1.8535  0.2478  0.4728
 7994SOL    MW431744   2.955   4.556   6.346 -0.3779  0.0463  0.3344
 7995SOL     OW31745   1.382   1.264   4.080 -0.0149  0.0929  0.0606
 7995SOL    HW231746   1.317   1.223   4.025 -0.5824  1.1581 -0.0905
 7995SOL    HW331747   1.352   1.355   4.090  0.8341  0.3008  0.9247
 7995SOL    MW431748   1.370   1.271   4.074  0.0223  0.2609  0.1547
 7996SOL     OW31749   4.017   5.558   4.010  0.1107 -0.7351 -0.2269
 7996SOL    HW231750   3.929   5.572   4.045 -0.1315  3.0553 -1.8229
 7996SOL    HW331751   4.074   5.605   4.070  0.2413  1.6616 -2.0550
 7996SOL    MW431752   4.013   5.566   4.022  0.0960  0.0812 -0.6787
 7997SOL     OW31753   1.036   5.055   4.596 -0.0971 -0.0234 -0.5106
 7997SOL    HW231754   1.002   4.979   4.643  0.7394  0.6048  1.1533
 7997SOL    HW331755   1.054   5.022   4.508 -0.8570 -1.4482 -0.1589
 7997SOL    MW431756   1.034   5.041   4.590 -0.0870 -0.1285 -0.2446
 7998SOL     OW31757   5.790   6.073   4.933  0.4007 -0.1653 -0.4460
 7998SOL    HW231758   5.872   6.117   4.954  1.2173 -1.2914 -1.1701
 7998SOL    HW331759   5.778   6.086   4.839 -0.2518 -0.0098 -0.3467
 7998SOL    MW431760   5.799   6.081   4.924  0.4224 -0.2934 -0.5284
 7999SOL     OW31761   5.741   6.190   2.070  0.4324  0.7729 -0.1400
 7999SOL    HW231762   5.806   6.184   2.001 -1.2678  2.6396 -2.0637
 7999SOL    HW331763   5.724   6.284   2.079 -0.8044  0.4536  1.4820
 7999SOL    MW431764   5.747   6.202   2.062  0.0449  0.9770 -0.1798
 8000SOL     OW31765   2.319   1.602   4.432 -0.2658 -0.1270 -0.5368
 8000SOL    HW231766   2.319   1.697   4.444  2.9998  0.0466 -0.9235
 8000SOL    HW331767   2.382   1.570   4.496  0.7963 -1.6720 -2.2586
 8000SOL    MW431768   2.328   1.610   4.442  0.3052 -0.3080 -0.8150
 8001SOL     OW31769   5.227   5.759   2.627  0.0841  0.4549  0.2482
 8001SOL    HW231770   5.188   5.842   2.655  1.2069  1.4034 -0.8179
 8001SOL    HW331771   5.170   5.728   2.557  1.5966  2.3348 -1.9854
 8001SOL    MW431772   5.215   5.766   2.621  0.4318  0.8281 -0.1871
 8002SOL     OW31773   5.157   3.636   4.284 -0.1347  0.0595 -0.6112
 8002SOL    HW231774   5.221   3.648   4.214 -1.6805 -0.6712 -2.2305
 8002SOL    HW331775   5.165   3.715   4.337  2.0432  0.0078 -0.7745
 8002SOL    MW431776   5.166   3.648   4.281 -0.0513 -0.0437 -0.8464
 8003SOL     OW31777   5.396   2.720   0.741 -0.1639 -0.1118 -0.5609
 8003SOL    HW231778   5.306   2.723   0.706 -1.0774  0.3096  1.6457
 8003SOL    HW331779   5.426   2.810   0.738  0.3012 -0.2927 -1.5401
 8003SOL    MW431780   5.388   2.732   0.736 -0.2230 -0.0801 -0.3990
 8004SOL     OW31781   5.320   1.639   0.915 -0.0967 -0.6026  0.6551
 8004SOL    HW231782   5.348   1.717   0.964 -2.8011 -0.3650  1.9716
 8004SOL    HW331783   5.284   1.674   0.834  0.5648 -0.6874  0.3123
 8004SOL    MW431784   5.319   1.654   0.911 -0.3662 -0.5825  0.7835
 8005SOL     OW31785   0.128   0.853   6.047  0.1288  0.2215  0.0751
 8005SOL    HW231786   0.078   0.777   6.018  0.7567  0.5633 -2.0093
 8005SOL    HW331787   0.097   0.926   5.992  2.0949  0.6676 -0.5219
 8005SOL    MW431788   0.118   0.853   6.036  0.4711  0.3255 -0.2787
 8006SOL     OW31789   1.999   3.589   5.152 -0.3856  0.0759  0.0807
 8006SOL    HW231790   2.012   3.497   5.128 -1.1077 -0.3267  1.1617
 8006SOL    HW331791   2.017   3.593   5.246  0.7628  1.2876 -0.1470
 8006SOL    MW431792   2.003   3.578   5.161 -0.3294  0.1826  0.1933
 8007SOL     OW31793   4.501   5.842   1.608  0.3231  0.3597  0.2536
 8007SOL    HW231794   4.491   5.923   1.657 -1.6742 -0.1575  0.8068
 8007SOL    HW331795   4.508   5.774   1.676 -1.3890 -0.2481 -0.1306
 8007SOL    MW431796   4.501   5.843   1.623 -0.1663  0.2112  0.2759
 8008SOL     OW31797   0.600   1.710   0.198  0.2871 -0.1946  0.0561
 8008SOL    HW231798   0.521   1.658   0.183 -0.0588  0.7797 -1.8058
 8008SOL    HW331799   0.652   1.700   0.118  1.2861  0.5008  0.5831
 8008SOL    MW431800   0.597   1.702   0.185  0.3733  0.0257 -0.1200
 8009SOL     OW31801   4.716   5.538   2.462  0.8489  0.1833  0.5155
 8009SOL    HW231802   4.724   5.464   2.523 -0.8124 -0.4406  0.0191
 8009SOL    HW331803   4.758   5.506   2.382  0.4125 -0.1131  0.4017
 8009SOL    MW431804   4.723   5.524   2.460  0.5721  0.0619  0.4350
 8010SOL     OW31805   1.119   0.474   3.749 -0.2902  0.1504 -0.2058
 8010SOL    HW231806   1.186   0.542   3.739  0.3086 -0.1667  1.3790
 8010SOL    HW331807   1.143   0.407   3.685  1.1412 -0.1201  0.5718
 8010SOL    MW431808   1.131   0.474   3.739 -0.0223  0.0729  0.1059
 8011SOL     OW31809   4.305   3.129   3.218  0.2318  0.4121  0.3086
 8011SOL    HW231810   4.234   3.117   3.281  0.1149 -2.0052 -0.1809
 8011SOL    HW331811   4.277   3.202   3.163 -1.5028  0.0086  0.6081
 8011SOL    MW431812   4.292   3.137   3.219 -0.0125  0.0400  0.2835
 8012SOL     OW31813   0.805   2.512   6.332 -0.2025  0.0403  0.3321
 8012SOL    HW231814   0.719   2.546   6.307 -0.7697 -1.2180  0.4835
 8012SOL    HW331815   0.792   2.479   6.421  0.1745 -1.0293  0.0022
 8012SOL    MW431816   0.792   2.512   6.340 -0.2276 -0.2669  0.3086
 8013SOL     OW31817   2.109   2.722   1.469 -0.9437 -0.1192 -0.7027
 8013SOL    HW231818   2.046   2.688   1.406 -0.4500 -0.3684 -1.0754
 8013SOL    HW331819   2.066   2.715   1.554 -1.9874  1.0979 -1.0992
 8013SOL    MW431820   2.095   2.717   1.472 -1.0162  0.0085 -0.8042
 8014SOL     OW31821   2.431   2.150   3.590 -0.0877  0.5868 -0.3370
 8014SOL    HW231822   2.522   2.141   3.620 -0.3975 -1.2029  0.1568
 8014SOL    HW331823   2.394   2.217   3.648  1.2935  2.5253 -1.5544
 8014SOL    MW431824   2.438   2.157   3.602  0.0537  0.6065 -0.4325
 8015SOL     OW31825   4.311   5.943   5.127 -0.3513  0.2631  0.2374
 8015SOL    HW231826   4.315   6.039   5.124  1.8466  0.1905 -2.1603
 8015SOL    HW331827   4.366   5.919   5.201 -1.2180  0.8217  1.0886
 8015SOL    MW431828   4.318   5.953   5.136 -0.1756  0.3272  0.0334
 8016SOL     OW31829   0.051   1.184   3.088 -0.0994 -0.2514  0.4227
 8016SOL    HW231830   0.054   1.142   3.002  0.3510  0.1574  0.2345
 8016SOL    HW331831   0.137   1.168   3.126 -0.9336 -2.1386  1.6463
 8016SOL    MW431832   0.062   1.177   3.081 -0.1500 -0.4464  0.5594
 8017SOL     OW31833   6.257   1.520   1.523  0.8638  0.0098  0.4806
 8017SOL    HW231834   6.339   1.507   1.570  1.4388 -0.9379 -0.7226
 8017SOL    HW331835   6.210   1.585   1.574  0.6446 -2.2154  3.3676
 8017SOL    MW431836   6.262   1.527   1.536  0.9107 -0.4088  0.7028
 8018SOL     OW31837   1.118   3.825   5.957  0.4370 -0.0970  0.2023
 8018SOL    HW231838   1.155   3.911   5.934 -0.9214  0.6449  0.6506
 8018SOL    HW331839   1.035   3.821   5.908 -1.2368  0.3917  2.7824
 8018SOL    MW431840   1.112   3.836   5.947  0.0370  0.0654  0.6018
 8019SOL     OW31841   3.760   5.707   1.377 -0.8657 -0.0058  0.0989
 8019SOL    HW231842   3.698   5.682   1.309  0.6878 -1.0269 -1.0386
 8019SOL    HW331843   3.752   5.638   1.443 -0.2737 -0.6947 -0.5266
 8019SOL    MW431844   3.751   5.694   1.376 -0.5826 -0.2314 -0.1337
 8020SOL     OW31845   0.952   0.886   5.366  0.0290  0.0834  0.4293
 8020SOL    HW231846   0.941   0.969   5.413  1.1403  0.2190  0.4679
 8020SOL    HW331847   0.997   0.910   5.285 -2.5928 -0.0211 -1.1783
 8020SOL    MW431848   0.956   0.900   5.362 -0.1703  0.0875  0.2223
 8021SOL     OW31849   0.156   2.937   3.350 -0.4033  0.0689 -0.0485
 8021SOL    HW231850   0.178   2.917   3.441 -1.8751  3.6350  1.2982
 8021SOL    HW331851   0.220   3.003   3.324 -1.0692  0.3669 -0.9878
 8021SOL    MW431852   0.167   2.943   3.359 -0.6854  0.5787  0.0052
 8022SOL     OW31853   4.981   1.801   5.277 -0.2095  0.4483  0.2138
 8022SOL    HW231854   5.031   1.876   5.308  1.1087 -0.0718 -0.5928
 8022SOL    HW331855   4.943   1.830   5.194 -0.2818  0.4502  0.2470
 8022SOL    MW431856   4.982   1.815   5.270 -0.0451  0.3799  0.1118
 8023SOL     OW31857   6.442   0.234   1.005 -0.2269  0.3744  0.1828
 8023SOL    HW231858   6.421   0.318   1.046 -2.0781  0.4677 -0.8062
 8023SOL    HW331859   6.473   0.258   0.917 -2.1253  0.0537 -0.6319
 8023SOL    MW431860   6.443   0.249   0.999 -0.7216  0.3444 -0.0552
 8024SOL     OW31861   0.593   3.152   3.341  0.5099 -0.0920  0.0521
 8024SOL    HW231862   0.688   3.156   3.327  0.6083  0.4210  0.7708
 8024SOL    HW331863   0.572   3.235   3.385  0.3522 -1.6936  3.3175
 8024SOL    MW431864   0.603   3.164   3.345  0.5021 -0.2356  0.5777
 8025SOL     OW31865   1.324   1.873   4.789 -0.0788 -0.7068 -0.0779
 8025SOL    HW231866   1.384   1.898   4.859 -0.6389 -0.0049  0.1665
 8025SOL    HW331867   1.371   1.893   4.708 -0.4202  0.9709  0.1126
 8025SOL    MW431868   1.338   1.879   4.788 -0.1977 -0.3928 -0.0205
 8026SOL     OW31869   5.590   4.252   0.640 -0.2930  0.6696  0.0367
 8026SOL    HW231870   5.577   4.160   0.665 -0.2384  0.5474 -0.3870
 8026SOL    HW331871   5.682   4.257   0.615  0.6342  1.5354  3.0787
 8026SOL    MW431872   5.600   4.241   0.640 -0.1635  0.7677  0.3821
 8027SOL     OW31873   4.645   1.431   5.359 -0.3289  0.4473  0.0680
 8027SOL    HW231874   4.586   1.400   5.428  1.7606 -2.8193  0.6136
 8027SOL    HW331875   4.609   1.394   5.279 -0.6181  0.9378 -0.0295
 8027SOL    MW431876   4.632   1.422   5.358 -0.0914  0.0810  0.1271
 8028SOL     OW31877   3.309   1.967   6.086 -0.0925  0.1322  0.6184
 8028SOL    HW231878   3.273   2.055   6.076 -0.6133 -0.1272  0.1132
 8028SOL    HW331879   3.380   1.976   6.148 -0.5376  0.8021  1.0375
 8028SOL    MW431880   3.313   1.980   6.093 -0.2200  0.1864  0.6070
 8029SOL     OW31881   5.175   4.193   0.415 -0.0020  0.1314  0.2858
 8029SOL    HW231882   5.192   4.128   0.484  0.4131  0.4207  0.4628
 8029SOL    HW331883   5.245   4.257   0.426  1.0383 -0.6536 -1.4421
 8029SOL    MW431884   5.187   4.193   0.426  0.1901  0.0660  0.0812
 8030SOL     OW31885   0.095   0.686   1.652 -0.0846 -0.0203  0.0606
 8030SOL    HW231886   0.117   0.747   1.582  2.9612 -0.0142  0.9038
 8030SOL    HW331887   0.161   0.617   1.646 -3.2157 -3.2924 -0.6858
 8030SOL    MW431888   0.106   0.685   1.642 -0.0958 -0.4512  0.0734
 8031SOL     OW31889   5.523   3.316   4.950 -0.2161 -0.4905 -0.0338
 8031SOL    HW231890   5.561   3.228   4.940 -1.3544 -1.1821  1.2817
 8031SOL    HW331891   5.564   3.368   4.882 -0.2499 -2.2948 -1.5093
 8031SOL    MW431892   5.534   3.311   4.940 -0.3708 -0.8198 -0.0549
 8032SOL     OW31893   1.120   1.999   0.452  0.0204 -0.6238  0.0547
 8032SOL    HW231894   1.150   1.919   0.495  0.0159 -0.3421  0.5838
 8032SOL    HW331895   1.173   2.069   0.489 -1.5754 -0.0455  1.3734
 8032SOL    MW431896   1.131   1.997   0.462 -0.1908 -0.5103  0.2985
 8033SOL     OW31897   3.230   4.376   4.923  0.0970  0.0110  0.8279
 8033SOL    HW231898   3.164   4.436   4.888  0.2896 -1.3063 -2.1365
 8033SOL    HW331899   3.276   4.426   4.990 -1.3761  2.2739  0.2463
 8033SOL    MW431900   3.227   4.390   4.927 -0.0719  0.1358  0.3601
 8034SOL     OW31901   2.126   1.001   2.995  0.0864  0.6065 -0.1681
 8034SOL    HW231902   2.038   1.031   2.971 -0.7417 -2.1720 -0.9211
 8034SOL    HW331903   2.180   1.022   2.919 -0.6034 -0.3173 -0.9298
 8034SOL    MW431904   2.121   1.008   2.982 -0.1139  0.1180 -0.3679
 8035SOL     OW31905   2.847   4.331   5.026  0.1470 -0.3372 -0.7386
 8035SOL    HW231906   2.801   4.414   5.034  0.5840 -0.2072  0.7963
 8035SOL    HW331907   2.924   4.341   5.082  0.7273 -1.4288 -1.3072
 8035SOL    MW431908   2.851   4.343   5.035  0.2812 -0.4641 -0.6111
 8036SOL     OW31909   2.381   1.690   4.991 -0.0609 -0.2002  0.1934
 8036SOL    HW231910   2.464   1.710   4.946 -0.2979  1.0390  0.2549
 8036SOL    HW331911   2.313   1.722   4.931 -0.4631 -0.5426  0.4646
 8036SOL    MW431912   2.383   1.697   4.977 -0.1453 -0.0819  0.2373
 8037SOL     OW31913   5.182   2.184   2.173 -0.2390 -0.1566  0.2815
 8037SOL    HW231914   5.252   2.156   2.114  0.6448  1.9133  0.2602
 8037SOL    HW331915   5.157   2.104   2.220 -0.4458 -1.7295 -2.2850
 8037SOL    MW431916   5.188   2.170   2.172 -0.1497 -0.0910 -0.0599
 8038SOL     OW31917   2.206   3.566   0.221 -0.1116 -0.1825 -0.3318
 8038SOL    HW231918   2.130   3.516   0.250 -0.6202  0.1718 -1.0167
 8038SOL    HW331919   2.262   3.572   0.298 -0.7715 -0.4638  0.1803
 8038SOL    MW431920   2.203   3.561   0.235 -0.2657 -0.1728 -0.3546
 8039SOL     OW31921   2.752   5.432   0.871 -0.2082 -0.2658 -0.4810
 8039SOL    HW231922   2.791   5.350   0.840  2.2760  0.9777 -0.9127
 8039SOL    HW331923   2.658   5.415   0.871  0.2432 -3.3478  0.2114
 8039SOL    MW431924   2.744   5.419   0.867  0.1791 -0.5084 -0.4466
 8040SOL     OW31925   1.951   2.696   0.791 -0.0813 -0.3953 -0.1959
 8040SOL    HW231926   2.001   2.750   0.728  0.5449 -0.6049  0.1101
 8040SOL    HW331927   2.011   2.685   0.865 -1.2283  0.7856  0.9366
 8040SOL    MW431928   1.966   2.702   0.792 -0.1500 -0.2672 -0.0061
 8041SOL     OW31929   0.780   0.658   5.408  0.3932 -0.0775  0.5842
 8041SOL    HW231930   0.846   0.723   5.384  0.7776  0.7214  3.4300
 8041SOL    HW331931   0.700   0.688   5.366  1.2480  0.3752 -0.8094
 8041SOL    MW431932   0.778   0.670   5.399  0.5567  0.0876  0.7758
 8042SOL     OW31933   1.728   6.412   1.888  0.0443 -0.2410 -0.8975
 8042SOL    HW231934   1.780   6.492   1.890  1.0128 -0.8507  0.1452
 8042SOL    HW331935   1.716   6.392   1.795 -0.2791  1.1302 -1.1703
 8042SOL    MW431936   1.733   6.420   1.876  0.1294 -0.1405 -0.7959
 8043SOL     OW31937   2.144   2.688   4.954  0.4440 -0.0394 -0.2228
 8043SOL    HW231938   2.192   2.609   4.926 -0.6558 -0.8200  0.0357
 8043SOL    HW331939   2.194   2.760   4.916  1.4567 -0.8598 -0.5075
 8043SOL    MW431940   2.157   2.687   4.945  0.4325 -0.2507 -0.2262
 8044SOL     OW31941   1.965   5.503   5.027  0.2417 -0.5623 -0.0099
 8044SOL    HW231942   1.932   5.513   4.938 -0.2330 -0.2861  0.1920
 8044SOL    HW331943   1.921   5.572   5.077 -0.6346 -1.6240  0.7367
 8044SOL    MW431944   1.955   5.513   5.022  0.0635 -0.6659  0.1152
 8045SOL     OW31945   5.809   6.285   0.791 -0.1078 -0.0562  0.6386
 8045SOL    HW231946   5.812   6.321   0.702 -1.0278  0.3649  0.7624
 8045SOL    HW331947   5.717   6.291   0.815  0.4260  1.8921  2.4632
 8045SOL    MW431948   5.797   6.291   0.782 -0.1588  0.2564  0.8957
 8046SOL     OW31949   3.079   5.418   4.096 -0.1399  0.1383 -0.6747
 8046SOL    HW231950   3.087   5.513   4.085 -0.6117  0.3210  0.3982
 8046SOL    HW331951   3.041   5.387   4.014  3.5235  0.3210 -2.6449
 8046SOL    MW431952   3.075   5.427   4.084  0.2812  0.1865 -0.7931
 8047SOL     OW31953   3.600   3.462   3.373 -0.5776 -0.2926 -0.4115
 8047SOL    HW231954   3.657   3.534   3.344  0.9957 -1.2424  0.2252
 8047SOL    HW331955   3.589   3.408   3.295  0.5999 -0.8676 -0.1971
 8047SOL    MW431956   3.606   3.465   3.359 -0.2146 -0.4938 -0.2992
 8048SOL     OW31957   1.496   2.675   6.045  0.2889 -0.4911  0.2376
 8048SOL    HW231958   1.538   2.600   6.003 -2.5791 -1.7624 -0.6916
 8048SOL    HW331959   1.449   2.719   5.974 -0.1988  0.6255  1.2123
 8048SOL    MW431960   1.495   2.671   6.030 -0.1539 -0.5115  0.2436
 8049SOL     OW31961   0.217   3.677   6.373  0.1336 -0.2587 -0.1824
 8049SOL    HW231962   0.212   3.715   6.285  1.6902  0.7866  0.1500
 8049SOL    HW331963   0.149   3.723   6.423  0.7556  0.8039 -0.2769
 8049SOL    MW431964   0.207   3.688   6.368  0.4210  0.0194 -0.1510
 8050SOL     OW31965   2.641   0.342   2.724  0.5339  0.7454 -0.2328
 8050SOL    HW231966   2.592   0.335   2.806  0.8585 -0.9724 -0.1482
 8050SOL    HW331967   2.723   0.296   2.741 -0.5284 -2.2458 -2.3284
 8050SOL    MW431968   2.646   0.335   2.737  0.4366  0.1241 -0.4981
 8051SOL     OW31969   4.372   6.277   4.169 -0.0155 -0.2751  0.1986
 8051SOL    HW231970   4.292   6.324   4.146  0.6034  0.8330  0.2314
 8051SOL    HW331971   4.401   6.237   4.087 -0.5137 -0.5471  0.1535
 8051SOL    MW431972   4.365   6.278   4.155  0.0004 -0.1648  0.1970
 8052SOL     OW31973   2.441   1.770   0.886  0.0424  0.7035 -0.7794
 8052SOL    HW231974   2.467   1.704   0.951 -0.0163  0.6458 -0.8155
 8052SOL    HW331975   2.464   1.854   0.928  0.7260  0.6362 -0.9995
 8052SOL    MW431976   2.448   1.773   0.900  0.1248  0.6870 -0.8132
 8053SOL     OW31977   4.076   1.951   6.111  0.6497 -0.2946  0.3688
 8053SOL    HW231978   4.164   1.955   6.073  1.9831  1.3497  3.3440
 8053SOL    HW331979   4.068   1.861   6.143  0.4269 -0.9974 -1.4788
 8053SOL    MW431980   4.086   1.939   6.110  0.7962 -0.1704  0.5175
 8054SOL     OW31981   0.060   2.406   0.763 -0.5772  0.0420 -0.3974
 8054SOL    HW231982   0.003   2.411   0.687  0.4682 -0.4050 -1.2309
 8054SOL    HW331983   0.136   2.356   0.733 -0.9406 -1.7611  1.4417
 8054SOL    MW431984   0.062   2.400   0.749 -0.4873 -0.2549 -0.2647
 8055SOL     OW31985   0.097   1.211   5.729  0.1096 -0.3350  0.0952
 8055SOL    HW231986   0.139   1.158   5.661  2.3062  0.5054  0.6949
 8055SOL    HW331987   0.156   1.205   5.804 -1.0062  0.7293  1.1045
 8055SOL    MW431988   0.110   1.203   5.730  0.2522 -0.0837  0.3075
 8056SOL     OW31989   2.631   0.721   2.404 -0.2461  0.5551 -0.0964
 8056SOL    HW231990   2.587   0.665   2.467  0.7528  0.7973  0.8529
 8056SOL    HW331991   2.563   0.780   2.372 -0.8350  0.2173  0.5193
 8056SOL    MW431992   2.616   0.722   2.408 -0.1920  0.5425  0.1101
 8057SOL     OW31993   4.013   1.657   2.475 -0.0424  0.9397  0.4743
 8057SOL    HW231994   3.921   1.674   2.454  0.1020  1.8974  0.5966
 8057SOL    HW331995   4.047   1.740   2.508  1.3579  1.1187 -1.2827
 8057SOL    MW431996   4.005   1.670   2.477  0.1614  1.0897  0.2586
 8058SOL     OW31997   5.824   1.620   1.963  0.1066 -0.1610 -0.0288
 8058SOL    HW231998   5.893   1.560   1.933  0.1631  0.4746 -1.2420
 8058SOL    HW331999   5.864   1.707   1.957 -0.5710  0.1544 -0.0887
 8058SOL    MW432000   5.839   1.624   1.958  0.0247 -0.0355 -0.1967
 8059SOL     OW32001   0.062   4.963   3.744 -0.4252 -0.0003 -0.1539
 8059SOL    HW232002   0.072   4.929   3.655 -0.1742  0.1844 -0.1981
 8059SOL    HW332003   0.150   4.992   3.769 -0.8048  1.6481 -0.5560
 8059SOL    MW432004   0.075   4.963   3.736 -0.4422  0.2415 -0.2128
 8060SOL     OW32005   4.659   3.312   4.313 -0.3971  0.9808  0.0971
 8060SOL    HW232006   4.684   3.226   4.280 -1.1236  0.9997 -0.5218
 8060SOL    HW332007   4.701   3.317   4.399  1.9030  1.1003 -0.9440
 8060SOL    MW432008   4.668   3.301   4.320 -0.1895  0.9990 -0.1219
 8061SOL     OW32009   4.206   1.484   0.450 -0.8346 -1.0440 -0.3362
 8061SOL    HW232010   4.154   1.506   0.527  0.6571 -0.8399  0.6726
 8061SOL    HW332011   4.209   1.564   0.398 -0.8556 -0.8149  0.0135
 8061SOL    MW432012   4.200   1.497   0.453 -0.6406 -0.9868 -0.1569
 8062SOL     OW32013   1.652   5.165   5.983 -0.2042  0.0162 -0.3866
 8062SOL    HW232014   1.721   5.232   5.985  1.1942 -1.3363 -0.7484
 8062SOL    HW332015   1.688   5.097   5.927 -2.1702 -0.4463 -1.1573
 8062SOL    MW432016   1.666   5.165   5.976 -0.2791 -0.2233 -0.5360
 8063SOL     OW32017   6.360   6.014   0.581  0.0356 -0.5660  0.0881
 8063SOL    HW232018   6.401   5.995   0.496  0.2203  0.0318  0.0460
 8063SOL    HW332019   6.413   5.965   0.644  1.1626  0.6348  0.1050
 8063SOL    MW432020   6.372   6.005   0.578  0.2086 -0.3287  0.0848
 8064SOL     OW32021   3.400   4.216   1.168 -0.3586 -0.1128  0.4374
 8064SOL    HW232022   3.475   4.268   1.140  0.2774 -0.0692  2.1475
 8064SOL    HW332023   3.435   4.127   1.178 -1.2956 -0.8156 -1.8543
 8064SOL    MW432024   3.415   4.211   1.166 -0.3983 -0.1998  0.3607
 8065SOL     OW32025   0.761   5.365   2.493  0.0158  0.0631  0.5040
 8065SOL    HW232026   0.737   5.273   2.504  0.3460 -0.2924 -1.4958
 8065SOL    HW332027   0.845   5.373   2.537 -0.2446 -0.4542  1.1164
 8065SOL    MW432028   0.769   5.354   2.500  0.0250 -0.0520  0.3209
 8066SOL     OW32029   6.264   2.395   4.921  0.0649 -0.4672 -0.0409
 8066SOL    HW232030   6.276   2.302   4.939 -0.9098 -1.1495 -2.5227
 8066SOL    HW332031   6.332   2.418   4.859 -0.0947  0.3218  0.0559
 8066SOL    MW432032   6.274   2.386   4.916 -0.0848 -0.4531 -0.3555
 8067SOL     OW32033   3.285   3.078   4.258 -0.1814 -0.4716 -0.0539
 8067SOL    HW232034   3.368   3.080   4.305 -0.9692 -1.2762  1.4707
 8067SOL    HW332035   3.275   2.987   4.229 -0.3110 -0.2689 -0.6628
 8067SOL    MW432036   3.294   3.066   4.261 -0.3024 -0.5510  0.0669
 8068SOL     OW32037   1.397   1.016   5.209 -0.1770  0.0687  0.2948
 8068SOL    HW232038   1.303   0.999   5.212 -0.3956  0.6676 -1.4781
 8068SOL    HW332039   1.432   0.948   5.151  0.0855  1.1794 -0.9113
 8068SOL    MW432040   1.390   1.005   5.202 -0.1712  0.2943 -0.0982
 8069SOL     OW32041   3.007   1.610   3.241  0.3690 -0.2809  0.0890
 8069SOL    HW232042   2.934   1.595   3.300  1.1193  0.6225  1.2780
 8069SOL    HW332043   3.005   1.704   3.222  1.1481 -0.2603  0.0484
 8069SOL    MW432044   2.997   1.620   3.246  0.5708 -0.1590  0.2405
 8070SOL     OW32045   0.533   2.528   6.195 -0.1660 -0.8892 -0.4435
 8070SOL    HW232046   0.483   2.497   6.120 -2.2383  0.7390  0.1795
 8070SOL    HW332047   0.561   2.616   6.170  0.0263 -0.7393  0.2810
 8070SOL    MW432048   0.530   2.536   6.182 -0.4141 -0.6546 -0.2657
 8071SOL     OW32049   3.366   0.396   0.130 -0.7320  0.1756 -0.2773
 8071SOL    HW232050   3.363   0.394   0.035  1.0842 -0.9054 -0.3655
 8071SOL    HW332051   3.372   0.304   0.156  0.3310  0.5070  0.7792
 8071SOL    MW432052   3.367   0.383   0.121 -0.3521  0.0767 -0.1495
 8072SOL     OW32053   3.048   2.754   1.440 -0.8041 -0.0797  0.0555
 8072SOL    HW232054   3.104   2.721   1.510  0.0586  2.0819  0.4703
 8072SOL    HW332055   3.070   2.699   1.364  0.1770 -0.7808  0.8209
 8072SOL    MW432056   3.059   2.742   1.439 -0.5608  0.1130  0.2112
 8073SOL     OW32057   0.074   2.020   6.060  0.1224  0.0421 -0.1115
 8073SOL    HW232058   0.114   2.106   6.073  0.3362  0.0081 -0.5215
 8073SOL    HW332059   0.126   1.961   6.115  0.0289  0.1589  0.1043
 8073SOL    MW432060   0.086   2.023   6.069  0.1383  0.0530 -0.1371
 8074SOL     OW32061   5.799   2.277   3.385  0.0594  0.1853 -0.1427
 8074SOL    HW232062   5.857   2.271   3.461  0.3275 -1.3282 -0.4342
 8074SOL    HW332063   5.721   2.321   3.418  0.7966  0.9706  0.6071
 8074SOL    MW432064   5.796   2.282   3.399  0.1921  0.0893 -0.0823
 8075SOL     OW32065   3.760   4.916   6.383 -0.4150  0.0074  0.1050
 8075SOL    HW232066   3.748   4.826   6.351 -0.4248 -0.3060  0.9561
 8075SOL    HW332067   3.839   4.946   6.338 -0.3291 -0.4791 -0.0826
 8075SOL    MW432068   3.769   4.908   6.373 -0.4049 -0.0982  0.1926
 8076SOL     OW32069   0.155   3.241   0.722  0.2562 -0.2742  0.2205
 8076SOL    HW232070   0.086   3.294   0.682  0.1767 -0.4919  0.0679
 8076SOL    HW332071   0.142   3.154   0.686 -0.0310 -0.5581  0.9829
 8076SOL    MW432072   0.144   3.237   0.712  0.2079 -0.3404  0.3009
 8077SOL     OW32073   3.521   1.732   2.582 -0.5951  0.0606 -0.1518
 8077SOL    HW232074   3.450   1.762   2.525  1.8609  0.3472 -3.3440
 8077SOL    HW332075   3.542   1.808   2.636 -2.0283  0.2685  0.1470
 8077SOL    MW432076   3.514   1.746   2.582 -0.4602  0.1259 -0.5335
 8078SOL     OW32077   4.254   4.788   3.433 -0.3872  0.5902 -0.2375
 8078SOL    HW232078   4.215   4.865   3.474  1.8750  1.1770  0.9458
 8078SOL    HW332079   4.290   4.737   3.505 -0.7748 -0.9945 -1.1107
 8078SOL    MW432080   4.254   4.791   3.448 -0.1398  0.4585 -0.1966
 8079SOL     OW32081   1.632   3.181   0.038  0.6697  0.0685  0.1387
 8079SOL    HW232082   1.702   3.244   0.056  0.5834 -0.2710  1.7986
 8079SOL    HW332083   1.627   3.127   0.117  1.7228 -3.0228 -1.7464
 8079SOL    MW432084   1.641   3.182   0.051  0.7973 -0.3842  0.1090
 8080SOL     OW32085   2.741   4.534   5.307 -0.2090 -0.1739  0.5022
 8080SOL    HW232086   2.822   4.568   5.269 -1.4690  0.9316 -1.3288
 8080SOL    HW332087   2.698   4.610   5.346 -2.2043  0.1630 -2.0670
 8080SOL    MW432088   2.746   4.548   5.307 -0.6385  0.0164 -0.0784
 8081SOL     OW32089   5.200   3.854   0.187  0.2351  0.5779 -0.7388
 8081SOL    HW232090   5.291   3.829   0.178 -0.2945 -1.4414 -0.8604
 8081SOL    HW332091   5.200   3.949   0.173  2.8736  1.4462  3.3769
 8081SOL    MW432092   5.212   3.864   0.184  0.5134  0.4261 -0.2118
 8082SOL     OW32093   4.236   0.470   5.420 -0.3915 -0.8238  0.0746
 8082SOL    HW232094   4.235   0.554   5.465 -1.1574 -1.3962  1.1750
 8082SOL    HW332095   4.327   0.440   5.427 -0.4635 -0.8236  1.1139
 8082SOL    MW432096   4.248   0.477   5.427 -0.5020 -0.8993  0.3569
 8083SOL     OW32097   2.765   2.369   5.340 -0.1103  0.6423 -0.0251
 8083SOL    HW232098   2.826   2.357   5.268  0.7879 -0.9561  0.9351
 8083SOL    HW332099   2.812   2.335   5.417 -0.7255  2.9652  1.4846
 8083SOL    MW432100   2.779   2.363   5.341 -0.0730  0.7379  0.3008
 8084SOL     OW32101   6.054   0.930   5.321  0.0848  0.0888 -0.3423
 8084SOL    HW232102   5.983   0.993   5.331  1.7494  2.1224 -0.5673
 8084SOL    HW332103   6.117   0.974   5.263  2.2850 -0.8959  1.1398
 8084SOL    MW432104   6.053   0.945   5.315  0.5947  0.2272 -0.1765
 8085SOL     OW32105   5.198   2.732   2.677 -0.1993  0.0460  0.1127
 8085SOL    HW232106   5.275   2.780   2.707 -0.3507  0.7793 -0.6285
 8085SOL    HW332107   5.150   2.795   2.623 -1.8264 -0.0957  1.3196
 8085SOL    MW432108   5.202   2.747   2.674 -0.4339  0.1241  0.1741
 8086SOL     OW32109   6.350   4.034   3.788  0.5463 -0.3780  0.2303
 8086SOL    HW232110   6.354   4.074   3.875  2.2111 -0.8738  0.4096
 8086SOL    HW332111   6.373   4.105   3.729 -0.9653  0.0639  0.1137
 8086SOL    MW432112   6.353   4.048   3.792  0.5665 -0.3851  0.2385
 8087SOL     OW32113   4.301   4.468   5.723  0.2828 -0.1852  0.0526
 8087SOL    HW232114   4.285   4.538   5.659  0.2094  0.8743  1.2003
 8087SOL    HW332115   4.236   4.401   5.703  0.0363  0.2854 -0.7542
 8087SOL    MW432116   4.290   4.468   5.712  0.2406  0.0167  0.0975
 8088SOL     OW32117   1.590   0.230   0.872 -0.2394  0.4996 -0.2392
 8088SOL    HW232118   1.612   0.166   0.804 -2.1514 -0.6296  0.1542
 8088SOL    HW332119   1.670   0.282   0.881  0.2844  0.3221 -2.9061
 8088SOL    MW432120   1.604   0.228   0.864 -0.4225  0.3272 -0.5392
 8089SOL     OW32121   1.044   5.802   1.790  0.3218 -0.1346  0.1565
 8089SOL    HW232122   1.001   5.816   1.706  0.4486 -0.4758  0.0348
 8089SOL    HW332123   1.075   5.889   1.816  0.3330 -0.0387 -0.1774
 8089SOL    MW432124   1.043   5.815   1.782  0.3400 -0.1669  0.0964
 8090SOL     OW32125   5.935   2.888   3.202  0.6405  0.2293  0.3331
 8090SOL    HW232126   5.905   2.815   3.148  0.6699  1.1887 -1.0232
 8090SOL    HW332127   6.016   2.857   3.241  1.4866  0.0526 -1.4681
 8090SOL    MW432128   5.941   2.874   3.200  0.7560  0.3326 -0.0835
 8091SOL     OW32129   5.687   2.726   5.417 -0.4535 -0.2975 -0.4102
 8091SOL    HW232130   5.782   2.738   5.408 -0.6029  0.7214 -0.7056
 8091SOL    HW332131   5.653   2.814   5.432 -1.1942 -0.8454  1.4189
 8091SOL    MW432132   5.695   2.739   5.418 -0.5709 -0.2353 -0.2078
 8092SOL     OW32133   4.394   0.540   3.374 -0.6283  0.9137 -0.0745
 8092SOL    HW232134   4.403   0.598   3.298 -0.2683  0.3246 -0.4910
 8092SOL    HW332135   4.360   0.596   3.443  0.0842  1.7185 -0.3604
 8092SOL    MW432136   4.391   0.555   3.373 -0.4868  0.9422 -0.1672
 8093SOL     OW32137   2.792   2.953   5.910  0.8900 -0.3105  0.1989
 8093SOL    HW232138   2.738   2.978   5.985  0.6968 -0.0188 -0.0364
 8093SOL    HW332139   2.775   2.860   5.897  0.1608 -0.1362 -0.1111
 8093SOL    MW432140   2.783   2.944   5.919  0.7683 -0.2490  0.1270
 8094SOL     OW32141   2.019   6.018   1.328 -0.9463 -0.5429  0.8153
 8094SOL    HW232142   1.959   5.987   1.261 -1.2297  2.2479 -0.3603
 8094SOL    HW332143   2.002   6.112   1.333  2.0859  0.0500  1.7143
 8094SOL    MW432144   2.009   6.027   1.320 -0.5836 -0.0965  0.7788
 8095SOL     OW32145   2.412   1.315   0.835  0.3846  0.0319  0.2397
 8095SOL    HW232146   2.408   1.228   0.795 -1.9069  0.0149  0.4104
 8095SOL    HW332147   2.324   1.350   0.826  0.0915  0.6199  3.9559
 8095SOL    MW432148   2.400   1.308   0.829  0.0436  0.1072  0.7525
 8096SOL     OW32149   5.139   5.311   4.192  0.4480 -0.3218 -0.1312
 8096SOL    HW232150   5.206   5.289   4.127  0.2383  0.9019 -0.8036
 8096SOL    HW332151   5.066   5.251   4.173  0.7811 -0.6552 -0.3622
 8096SOL    MW432152   5.138   5.300   4.181  0.4643 -0.2043 -0.2504
 8097SOL     OW32153   1.264   5.567   2.064  0.0742 -0.1550 -0.1575
 8097SOL    HW232154   1.178   5.606   2.050  0.6595  0.7760 -1.3732
 8097SOL    HW332155   1.250   5.473   2.054 -0.7163  0.0208 -0.7480
 8097SOL    MW432156   1.251   5.560   2.061  0.0471 -0.0090 -0.3958
 8098SOL     OW32157   1.534   0.493   4.847 -0.3561 -0.6196  0.2757
 8098SOL    HW232158   1.588   0.569   4.825  1.8055 -2.1499 -0.0500
 8098SOL    HW332159   1.555   0.429   4.780 -1.4980 -1.7952  0.9984
 8098SOL    MW432160   1.544   0.495   4.836 -0.2216 -0.9766  0.3281
 8099SOL     OW32161   1.452   2.782   3.723  0.2439 -0.2051 -0.2219
 8099SOL    HW232162   1.397   2.713   3.685  0.5094 -0.7965  0.4248
 8099SOL    HW332163   1.526   2.734   3.760  0.7162  0.4963 -0.2603
 8099SOL    MW432164   1.454   2.766   3.723  0.3413 -0.1906 -0.1417
 8100SOL     OW32165   2.740   4.520   0.750 -0.2590  0.1792 -0.8160
 8100SOL    HW232166   2.695   4.569   0.819 -0.0871 -1.5877  0.6316
 8100SOL    HW332167   2.670   4.490   0.692 -0.6757 -0.2348 -0.1174
 8100SOL    MW432168   2.725   4.523   0.752 -0.2913 -0.1086 -0.5328
 8101SOL     OW32169   5.458   5.883   0.195 -0.7816  0.1682  0.0564
 8101SOL    HW232170   5.445   5.792   0.220  0.7006 -0.2956 -0.7032
 8101SOL    HW332171   5.480   5.928   0.277 -0.6247 -0.3522  0.3028
 8101SOL    MW432172   5.459   5.877   0.209 -0.5654  0.0383 -0.0113
 8102SOL     OW32173   5.897   2.591   0.143 -0.1089 -0.0229  1.2713
 8102SOL    HW232174   5.886   2.497   0.130  0.5362  0.0480  0.1574
 8102SOL    HW332175   5.818   2.630   0.104  0.9326  0.0595 -0.8952
 8102SOL    MW432176   5.885   2.584   0.136  0.1136 -0.0027  0.8385
 8103SOL     OW32177   5.599   3.821   5.697  0.6640  0.2401  0.0845
 8103SOL    HW232178   5.685   3.834   5.655  1.5996 -0.7064  1.6129
 8103SOL    HW332179   5.595   3.887   5.765 -0.5665  1.3417 -1.0111
 8103SOL    MW432180   5.610   3.831   5.700  0.6251  0.2606  0.1416
 8104SOL     OW32181   3.276   5.686   1.673 -0.5549  0.1600  0.6053
 8104SOL    HW232182   3.227   5.750   1.621 -0.6226 -0.8708 -0.6349
 8104SOL    HW332183   3.366   5.721   1.675 -0.8228  0.8633  0.9326
 8104SOL    MW432184   3.282   5.699   1.667 -0.5992  0.1168  0.4849
 8105SOL     OW32185   0.402   0.438   2.606  0.3776 -0.1161  0.4618
 8105SOL    HW232186   0.427   0.454   2.516 -0.5450  0.9091  0.3710
 8105SOL    HW332187   0.322   0.386   2.599 -0.2679  0.8300  0.6573
 8105SOL    MW432188   0.395   0.433   2.593  0.1707  0.1440  0.4757
 8106SOL     OW32189   2.833   5.024   5.779  0.1047  0.4388 -0.2277
 8106SOL    HW232190   2.785   4.948   5.747 -0.1518 -0.3271  1.8520
 8106SOL    HW332191   2.918   4.989   5.808  0.4442  1.1502 -0.3286
 8106SOL    MW432192   2.838   5.010   5.779  0.1157  0.4316  0.0334
 8107SOL     OW32193   2.493   3.461   5.777 -0.0949 -0.3155  0.0566
 8107SOL    HW232194   2.566   3.405   5.804 -0.0718 -0.5939 -0.5638
 8107SOL    HW332195   2.479   3.520   5.852  0.3115 -0.7133  0.4535
 8107SOL    MW432196   2.501   3.462   5.791 -0.0382 -0.4047  0.0271
 8108SOL     OW32197   5.644   3.694   2.030  0.1533 -0.4327  0.3347
 8108SOL    HW232198   5.606   3.782   2.020  0.9913  0.1576  2.0474
 8108SOL    HW332199   5.681   3.694   2.118  1.4251 -2.0366 -0.1656
 8108SOL    MW432200   5.644   3.706   2.040  0.4316 -0.5664  0.4947
 8109SOL     OW32201   3.409   5.102   5.144 -0.5792 -0.0556 -0.3181
 8109SOL    HW232202   3.324   5.120   5.104 -0.4935 -0.1782 -0.5575
 8109SOL    HW332203   3.471   5.104   5.071 -0.4675 -0.6158 -0.2469
 8109SOL    MW432204   3.406   5.105   5.129 -0.5531 -0.1457 -0.3403
 8110SOL     OW32205   2.044   3.626   5.415  0.0229  0.4772 -0.0192
 8110SOL    HW232206   1.979   3.696   5.425  1.4102  1.5519  2.4466
 8110SOL    HW332207   2.010   3.554   5.467  0.1957  0.5773  0.2345
 8110SOL    MW432208   2.031   3.626   5.423  0.2287  0.6322  0.3396
 8111SOL     OW32209   2.936   5.750   1.221  0.1822  0.0662 -0.2157
 8111SOL    HW232210   2.850   5.789   1.206 -0.2942 -0.9316 -0.1370
 8111SOL    HW332211   2.968   5.792   1.301 -1.3012 -1.2823  1.1517
 8111SOL    MW432212   2.929   5.761   1.230 -0.0764 -0.2434 -0.0249
 8112SOL     OW32213   3.485   3.143   4.423  0.0888  0.2727  0.8232
 8112SOL    HW232214   3.540   3.213   4.387 -1.2949  0.3373 -1.3514
 8112SOL    HW332215   3.428   3.188   4.486  0.7802  0.6587  1.1846
 8112SOL    MW432216   3.485   3.158   4.427 -0.0026  0.3322  0.5840
 8113SOL     OW32217   3.817   5.710   5.004 -0.6065  0.0377 -0.7759
 8113SOL    HW232218   3.725   5.708   5.031 -0.3819 -0.9245 -0.0116
 8113SOL    HW332219   3.816   5.681   4.913 -1.1869  1.4530 -1.2499
 8113SOL    MW432220   3.805   5.706   4.995 -0.6534  0.0975 -0.7376
 8114SOL     OW32221   3.360   5.483   5.930 -0.5181  0.0441 -0.1100
 8114SOL    HW232222   3.315   5.566   5.910 -0.8759 -0.4909 -1.6864
 8114SOL    HW332223   3.300   5.416   5.898  0.8540 -0.7307 -1.1299
 8114SOL    MW432224   3.346   5.485   5.923 -0.3843 -0.1287 -0.4526
 8115SOL     OW32225   4.045   2.799   1.714 -0.1146 -0.3834  0.2049
 8115SOL    HW232226   4.087   2.715   1.731  0.4693 -0.6605 -2.2522
 8115SOL    HW332227   4.036   2.803   1.619 -1.1365  1.8624  0.3260
 8115SOL    MW432228   4.050   2.788   1.703 -0.1723 -0.1236 -0.1033
 8116SOL     OW32229   1.386   5.625   5.911  0.2726  0.4104 -0.0958
 8116SOL    HW232230   1.297   5.612   5.945  0.5805  0.7235  0.8582
 8116SOL    HW332231   1.380   5.600   5.818 -0.3426 -1.5616  0.4232
 8116SOL    MW432232   1.373   5.620   5.903  0.2320  0.1916  0.0986
 8117SOL     OW32233   0.053   3.813   4.393 -0.2792 -0.4940 -0.3462
 8117SOL    HW232234   0.089   3.747   4.334  1.5295  0.7248 -0.7114
 8117SOL    HW332235   0.109   3.809   4.470 -0.4831  0.2427 -0.1494
 8117SOL    MW432236   0.065   3.804   4.395 -0.0675 -0.2360 -0.3685
 8118SOL     OW32237   0.127   3.626   2.810 -0.5697  0.5300  0.0925
 8118SOL    HW232238   0.177   3.626   2.729  0.5637 -0.1400  0.7694
 8118SOL    HW332239   0.117   3.534   2.832  1.9723  0.6685  2.3626
 8118SOL    MW432240   0.132   3.614   2.802 -0.0848  0.4598  0.4813
 8119SOL     OW32241   2.393   0.319   2.444 -0.1693  0.1306  0.5255
 8119SOL    HW232242   2.336   0.265   2.499 -0.4821 -1.0698 -0.9417
 8119SOL    HW332243   2.471   0.266   2.429 -0.2994  0.2260 -0.5941
 8119SOL    MW432244   2.396   0.305   2.449 -0.2277 -0.0152  0.1842
 8120SOL     OW32245   5.304   1.549   2.440  0.7803  0.1293 -0.0943
 8120SOL    HW232246   5.233   1.542   2.503  0.3178 -1.9999 -0.7774
 8120SOL    HW332247   5.264   1.586   2.362  1.2496  2.3044  0.6299
 8120SOL    MW432248   5.290   1.553   2.438  0.7812  0.1354 -0.0889
 8121SOL     OW32249   2.987   5.841   2.529 -0.1965  0.1647 -0.4765
 8121SOL    HW232250   2.977   5.889   2.611 -0.7741 -1.4227  0.4300
 8121SOL    HW332251   2.898   5.822   2.500  0.0148 -0.2570 -0.8734
 8121SOL    MW432252   2.974   5.845   2.536 -0.2448 -0.1004 -0.4093
 8122SOL     OW32253   0.071   1.333   2.783  0.2638 -0.6805  0.4638
 8122SOL    HW232254   0.158   1.333   2.822  0.5726  0.2517 -0.1919
 8122SOL    HW332255   0.080   1.386   2.704 -1.5103  1.6192  1.7005
 8122SOL    MW432256   0.084   1.340   2.777  0.0704 -0.2541  0.5404
 8123SOL     OW32257   0.414   3.642   3.727  0.5396  0.5872  0.0297
 8123SOL    HW232258   0.340   3.677   3.678  0.4016  1.5037  0.8520
 8123SOL    HW332259   0.376   3.612   3.810  1.1393  1.5796  0.6909
 8123SOL    MW432260   0.400   3.643   3.732  0.6005  0.8391  0.2254
 8124SOL     OW32261   1.368   5.159   5.085 -0.1878 -0.6159  0.1272
 8124SOL    HW232262   1.426   5.172   5.160  0.1197  1.5993 -0.4108
 8124SOL    HW332263   1.428   5.136   5.013  0.0283  1.0437 -0.2778
 8124SOL    MW432264   1.384   5.158   5.085 -0.1187 -0.1047  0.0027
 8125SOL     OW32265   0.883   0.152   0.349  0.3450 -0.4846  0.4806
 8125SOL    HW232266   0.826   0.084   0.312  0.0646  0.2140 -0.4252
 8125SOL    HW332267   0.904   0.208   0.274 -0.3900  1.1104  1.4078
 8125SOL    MW432268   0.878   0.151   0.334  0.2110 -0.1820  0.4834
 8126SOL     OW32269   3.319   5.592   2.213  0.3029 -0.5769 -0.1409
 8126SOL    HW232270   3.358   5.657   2.154  0.5061  0.7622  1.4021
 8126SOL    HW332271   3.390   5.567   2.272 -0.3569 -0.4995  0.6956
 8126SOL    MW432272   3.333   5.597   2.213  0.2427 -0.3900  0.1731
 8127SOL     OW32273   2.558   2.371   5.016 -0.4426  0.4507 -0.4346
 8127SOL    HW232274   2.584   2.344   4.928 -0.1260  0.9836 -0.5109
 8127SOL    HW332275   2.524   2.292   5.057  0.7703 -0.1459 -0.5304
 8127SOL    MW432276   2.557   2.357   5.010 -0.2408  0.4423 -0.4573
 8128SOL     OW32277   5.114   1.660   4.009  0.4025 -0.5378 -0.5647
 8128SOL    HW232278   5.165   1.644   3.930 -0.5773 -0.6225 -1.2025
 8128SOL    HW332279   5.085   1.751   4.000  2.2954  0.2860  0.9027
 8128SOL    MW432280   5.117   1.670   3.997  0.5229 -0.4403 -0.4553
 8129SOL     OW32281   0.412   3.656   4.971  0.3386  0.6000 -0.1436
 8129SOL    HW232282   0.415   3.672   5.065  0.6792  0.1710 -0.0806
 8129SOL    HW332283   0.442   3.566   4.960 -1.3461  0.0354 -0.5063
 8129SOL    MW432284   0.416   3.647   4.982  0.1613  0.4689 -0.1832
 8130SOL     OW32285   0.196   6.236   6.270  0.1816 -0.6654  0.8641
 8130SOL    HW232286   0.215   6.156   6.319  0.5875 -1.3920 -0.4400
 8130SOL    HW332287   0.126   6.212   6.210  0.0184  0.0744  0.7462
 8130SOL    MW432288   0.189   6.222   6.269  0.2136 -0.6636  0.6765
 8131SOL     OW32289   6.077   4.488   4.626  0.1576 -0.5315 -0.2350
 8131SOL    HW232290   6.037   4.575   4.628  0.8202 -0.2215 -0.1488
 8131SOL    HW332291   6.055   4.453   4.539  0.3532 -0.0504 -0.4835
 8131SOL    MW432292   6.069   4.495   4.615  0.2708 -0.4271 -0.2564
 8132SOL     OW32293   6.363   5.155   4.779 -0.3618  0.4248  0.0309
 8132SOL    HW232294   6.299   5.085   4.769  0.0161  0.1751 -0.7051
 8132SOL    HW332295   6.337   5.222   4.716  0.2817  0.1717 -0.5256
 8132SOL    MW432296   6.351   5.154   4.769 -0.2271  0.3585 -0.1396
 8133SOL     OW32297   0.446   0.717   4.400  0.7713  0.8148 -0.0822
 8133SOL    HW232298   0.384   0.648   4.424 -1.1481  2.6731  0.6518
 8133SOL    HW332299   0.467   0.700   4.308 -0.5394 -0.0686 -0.2426
 8133SOL    MW432300   0.441   0.705   4.391  0.3452  0.9434 -0.0065
 8134SOL     OW32301   5.561   5.623   3.733  0.1111  0.1043  0.2667
 8134SOL    HW232302   5.543   5.559   3.802 -1.6516 -1.8079 -1.7963
 8134SOL    HW332303   5.653   5.610   3.711 -0.0256 -1.1884  0.4121
 8134SOL    MW432304   5.571   5.613   3.739 -0.1395 -0.3185  0.0137
 8135SOL     OW32305   2.668   0.592   1.552  0.4904  0.1356  0.3920
 8135SOL    HW232306   2.663   0.547   1.467 -1.7564 -1.6234  1.3444
 8135SOL    HW332307   2.759   0.620   1.559  0.9158 -0.2964 -2.2663
 8135SOL    MW432308   2.679   0.589   1.542  0.2501 -0.1535  0.1669
 8136SOL     OW32309   0.032   1.577   5.999  0.2398  0.2725  0.2620
 8136SOL    HW232310  -0.026   1.641   5.958 -0.2708  0.3348  1.0554
 8136SOL    HW332311  -0.009   1.492   5.981  1.0419  0.1320 -0.9927
 8136SOL    MW432312   0.018   1.574   5.992  0.2783  0.2622  0.2011
 8137SOL     OW32313   5.363   5.837   3.323  0.1443 -0.0362 -0.1005
 8137SOL    HW232314   5.270   5.815   3.314  0.0829 -0.7077  1.7836
 8137SOL    HW332315   5.404   5.757   3.356  1.1806  0.6057  0.2303
 8137SOL    MW432316   5.356   5.823   3.326  0.2729 -0.0401  0.1918
 8138SOL     OW32317   2.890   2.336   2.196 -0.2441  0.7078 -0.6370
 8138SOL    HW232318   2.867   2.429   2.194  0.7730  0.9697 -2.2933
 8138SOL    HW332319   2.917   2.316   2.106 -0.9514 -1.3375 -0.4533
 8138SOL    MW432320   2.890   2.346   2.184 -0.2032  0.4725 -0.8313
 8139SOL     OW32321   5.180   2.979   3.268 -0.6428 -0.5743 -0.1482
 8139SOL    HW232322   5.245   3.037   3.308 -1.0173  1.4484 -2.2158
 8139SOL    HW332323   5.108   2.978   3.331  0.4080 -0.9308  1.0984
 8139SOL    MW432324   5.179   2.987   3.282 -0.5536 -0.3544 -0.2565
 8140SOL     OW32325   2.476   4.403   3.418 -0.1798  0.4441  0.0218
 8140SOL    HW232326   2.426   4.481   3.442 -1.0005 -0.1137  0.1302
 8140SOL    HW332327   2.565   4.422   3.449 -0.5740  0.9607  0.8630
 8140SOL    MW432328   2.481   4.416   3.425 -0.3401  0.4387  0.1471
 8141SOL     OW32329   6.107   2.545   2.541  0.1817 -0.2900  0.0129
 8141SOL    HW232330   6.026   2.535   2.591 -0.0951  0.2783 -0.3096
 8141SOL    HW332331   6.083   2.519   2.452  0.1975  0.3889 -0.2018
 8141SOL    MW432332   6.093   2.541   2.536  0.1473 -0.1255 -0.0580
 8142SOL     OW32333   2.352   5.226   5.436  0.8728 -0.3733  0.2572
 8142SOL    HW232334   2.421   5.253   5.375  0.2148 -0.8458 -0.7172
 8142SOL    HW332335   2.394   5.158   5.490  1.2852 -0.3797 -0.0639
 8142SOL    MW432336   2.367   5.220   5.435  0.8404 -0.4365  0.0863
 8143SOL     OW32337   5.450   4.923   4.678 -0.2485  0.3328 -0.0523
 8143SOL    HW232338   5.482   4.849   4.626  0.9103  1.4718 -1.0350
 8143SOL    HW332339   5.393   4.883   4.744  1.8316 -1.6760  0.6870
 8143SOL    MW432340   5.447   4.908   4.680  0.1788  0.2180 -0.0844
 8144SOL     OW32341   4.245   0.698   5.561 -0.2621  0.1359 -0.1873
 8144SOL    HW232342   4.332   0.736   5.545 -0.4732  1.1553  0.9646
 8144SOL    HW332343   4.186   0.774   5.559 -1.0940 -0.5122 -0.6492
 8144SOL    MW432344   4.249   0.713   5.558 -0.3997  0.1849 -0.0963
 8145SOL     OW32345   3.460   2.391   5.621  0.3767 -0.1298 -0.0770
 8145SOL    HW232346   3.456   2.391   5.717 -0.0888 -0.2674 -0.0924
 8145SOL    HW332347   3.416   2.472   5.595  1.5300  0.4835 -0.1440
 8145SOL    MW432348   3.453   2.402   5.631  0.4675 -0.0670 -0.0879
 8146SOL     OW32349   4.953   4.985   0.293 -0.0808  0.4339  0.7557
 8146SOL    HW232350   5.028   5.043   0.280 -1.0732  1.3986 -1.0340
 8146SOL    HW332351   4.879   5.044   0.305 -0.9496 -0.4563 -0.0195
 8146SOL    MW432352   4.953   5.000   0.293 -0.3263  0.4437  0.4173
 8147SOL     OW32353   4.802   6.105   4.563 -0.0609  0.0887 -0.1324
 8147SOL    HW232354   4.759   6.054   4.494  0.7583 -1.0490  0.1662
 8147SOL    HW332355   4.849   6.174   4.516 -2.9946  2.0593 -0.4121
 8147SOL    MW432356   4.803   6.108   4.547 -0.3399  0.1986 -0.1299
 8148SOL     OW32357   1.553   3.781   1.005  0.3437 -0.2481 -0.6546
 8148SOL    HW232358   1.600   3.861   0.982  0.2881  0.3444  1.1442
 8148SOL    HW332359   1.615   3.711   0.988  0.7520  0.2583 -1.2905
 8148SOL    MW432360   1.567   3.782   1.000  0.3902 -0.1031 -0.5012
 8149SOL     OW32361   1.051   4.279   2.728 -0.4212 -0.0899  0.7193
 8149SOL    HW232362   1.109   4.350   2.755 -1.0587 -0.2484  2.5976
 8149SOL    HW332363   0.963   4.314   2.739 -0.7216 -0.5494 -0.1503
 8149SOL    MW432364   1.047   4.293   2.733 -0.5450 -0.1715  0.8524
 8150SOL     OW32365   1.008   4.042   2.304  0.8869  0.5378 -0.1428
 8150SOL    HW232366   1.062   3.984   2.250  0.5084 -1.4179  1.4384
 8150SOL    HW332367   0.990   3.991   2.383 -2.0378  1.6836  0.0582
 8150SOL    MW432368   1.013   4.028   2.307  0.4511  0.4309  0.0924
 8151SOL     OW32369   4.203   4.572   2.601  0.1015  0.3376  0.2460
 8151SOL    HW232370   4.242   4.521   2.672  0.3068  1.0382  0.6555
 8151SOL    HW332371   4.141   4.630   2.646  1.7880  2.3336  0.1749
 8151SOL    MW432372   4.200   4.573   2.617  0.3511  0.6934  0.2906
 8152SOL     OW32373   5.665   2.480   5.240  0.6895  0.5127  0.0798
 8152SOL    HW232374   5.673   2.557   5.296 -0.6787  1.1144 -0.5147
 8152SOL    HW332375   5.706   2.409   5.291  0.5092  1.2803  1.3419
 8152SOL    MW432376   5.671   2.481   5.254  0.4852  0.6934  0.1679
 8153SOL     OW32377   4.076   4.383   3.381  0.0352  0.0185 -0.1206
 8153SOL    HW232378   4.061   4.303   3.331  0.1566 -0.3760  0.4634
 8153SOL    HW332379   4.117   4.353   3.462 -0.5809  0.6032  0.4177
 8153SOL    MW432380   4.080   4.369   3.385 -0.0300  0.0436  0.0275
 8154SOL     OW32381   5.802   2.263   3.819 -0.5264  0.3606 -0.0721
 8154SOL    HW232382   5.792   2.316   3.899 -0.8759 -1.8732  1.4480
 8154SOL    HW332383   5.889   2.224   3.827 -0.7356 -0.2166 -0.5773
 8154SOL    MW432384   5.812   2.265   3.831 -0.6001 -0.0103  0.0618
 8155SOL     OW32385   0.525   4.646   0.379  0.1225 -0.2182 -0.1734
 8155SOL    HW232386   0.470   4.571   0.402 -0.1221  0.4431  1.5576
 8155SOL    HW332387   0.583   4.613   0.310 -0.6822 -1.6845 -0.1892
 8155SOL    MW432388   0.525   4.632   0.373 -0.0159 -0.3244  0.0529
 8156SOL     OW32389   4.369   1.687   3.826 -0.0382 -0.0341  0.6234
 8156SOL    HW232390   4.393   1.689   3.733 -1.6403  1.9833  0.1629
 8156SOL    HW332391   4.401   1.603   3.858 -0.3242 -1.2504 -2.0079
 8156SOL    MW432392   4.376   1.676   3.818 -0.2873  0.0716  0.2155
 8157SOL     OW32393   6.272   1.790   3.504  0.5690  0.0616  0.6691
 8157SOL    HW232394   6.305   1.845   3.575 -0.3812  0.7064  0.6355
 8157SOL    HW332395   6.350   1.762   3.456  1.1914 -0.0844  1.7442
 8157SOL    MW432396   6.286   1.794   3.507  0.5257  0.1274  0.8065
 8158SOL     OW32397   5.295   5.483   6.025 -0.1046  0.2974 -0.4374
 8158SOL    HW232398   5.374   5.514   6.069  0.6870  0.1061 -1.6679
 8158SOL    HW332399   5.268   5.556   5.969  0.6907 -0.5325 -1.9396
 8158SOL    MW432400   5.302   5.497   6.023  0.1047  0.1627 -0.7979
 8159SOL     OW32401   5.663   0.326   5.378  0.5256  0.1745 -0.0444
 8159SOL    HW232402   5.735   0.352   5.321  0.6254 -1.4491 -0.7168
 8159SOL    HW332403   5.702   0.324   5.466  1.7676 -2.0591 -0.5626
 8159SOL    MW432404   5.677   0.329   5.382  0.7026 -0.3344 -0.2015
 8160SOL     OW32405   0.614   0.110   5.016  0.1838 -0.1085 -0.1769
 8160SOL    HW232406   0.599   0.204   5.002  2.1349  0.0824 -1.3460
 8160SOL    HW332407   0.540   0.082   5.071 -2.5723  1.3007 -2.8462
 8160SOL    MW432408   0.602   0.119   5.021  0.0776  0.1026 -0.6833
 8161SOL     OW32409   3.672   0.348   0.225 -0.3821 -0.1750  0.3564
 8161SOL    HW232410   3.645   0.276   0.282  0.9697 -1.9788 -1.1433
 8161SOL    HW332411   3.629   0.330   0.141 -0.3896  1.0544  0.0698
 8161SOL    MW432412   3.662   0.336   0.221 -0.2047 -0.2508  0.1207
 8162SOL     OW32413   5.319   1.470   5.317  0.5282 -0.4531  0.2685
 8162SOL    HW232414   5.251   1.455   5.383  0.3148  0.1050  0.1744
 8162SOL    HW332415   5.281   1.533   5.256  1.3699  0.3863  0.5827
 8162SOL    MW432416   5.305   1.476   5.318  0.6111 -0.2687  0.2975
 8163SOL     OW32417   4.964   0.754   6.318 -0.3359  0.5080  0.1502
 8163SOL    HW232418   4.935   0.717   6.235 -1.3716  0.0002  0.7161
 8163SOL    HW332419   5.059   0.764   6.309 -0.5187  1.1363 -1.3406
 8163SOL    MW432420   4.973   0.751   6.306 -0.4967  0.5239  0.0281
 8164SOL     OW32421   5.702   5.711   6.106 -0.3209  0.4300 -0.3007
 8164SOL    HW232422   5.657   5.794   6.123  0.1396  0.7830 -0.7528
 8164SOL    HW332423   5.750   5.694   6.187 -0.0204  0.8709 -0.3775
 8164SOL    MW432424   5.703   5.720   6.119 -0.2205  0.5347 -0.3705
 8165SOL     OW32425   4.696   4.670   3.129  0.0214  0.7468  0.3826
 8165SOL    HW232426   4.688   4.614   3.206  2.4557 -1.3760 -0.7780
 8165SOL    HW332427   4.625   4.642   3.071  0.5304 -0.3991  0.2906
 8165SOL    MW432428   4.686   4.659   3.131  0.4097  0.3155  0.2174
 8166SOL     OW32429   6.437   3.840   2.000 -0.2943  0.3518 -0.1837
 8166SOL    HW232430   6.389   3.765   1.966 -0.2106  0.4730 -0.5852
 8166SOL    HW332431   6.370   3.902   2.027 -0.3650 -0.0913  0.6656
 8166SOL    MW432432   6.422   3.838   1.999 -0.2926  0.3094 -0.1246
 8167SOL     OW32433   1.018   0.946   3.413  0.3962  0.0609  0.2707
 8167SOL    HW232434   1.043   0.972   3.502  1.3500  0.5619 -0.1179
 8167SOL    HW332435   1.099   0.957   3.363 -1.2166  5.2397 -1.9000
 8167SOL    MW432436   1.032   0.951   3.419  0.3093  0.8103 -0.0670
 8168SOL     OW32437   0.786   4.166   1.478 -0.3971 -0.6668 -0.6436
 8168SOL    HW232438   0.741   4.219   1.413  1.0756  0.7457 -0.5727
 8168SOL    HW332439   0.726   4.161   1.552  0.4779  3.5642  0.6211
 8168SOL    MW432440   0.772   4.172   1.479 -0.0873  0.0778 -0.4674
 8169SOL     OW32441   5.268   5.868   3.868 -0.4243  0.1182 -0.6452
 8169SOL    HW232442   5.205   5.862   3.796 -0.6277 -0.3090 -0.4369
 8169SOL    HW332443   5.282   5.777   3.895  0.5194  0.1767 -0.8907
 8169SOL    MW432444   5.262   5.855   3.862 -0.3266  0.0696 -0.6501
 8170SOL     OW32445   0.800   6.048   0.037 -0.2411 -0.3881  0.0806
 8170SOL    HW232446   0.883   6.068  -0.006 -0.4310 -0.2377 -0.2289
 8170SOL    HW332447   0.815   5.966   0.083  0.1193 -0.2886  0.1416
 8170SOL    MW432448   0.813   6.040   0.037 -0.2186 -0.3552  0.0478
 8171SOL     OW32449   4.759   4.936   3.088 -0.1268 -0.1644 -0.6325
 8171SOL    HW232450   4.693   4.976   3.032  0.1181  0.2361 -0.6362
 8171SOL    HW332451   4.729   4.846   3.100 -0.6273 -0.0046 -0.6968
 8171SOL    MW432452   4.746   4.929   3.082 -0.1605 -0.0905 -0.6415
 8172SOL     OW32453   2.754   3.788   5.372  0.5653  0.1232 -0.2745
 8172SOL    HW232454   2.688   3.773   5.304  1.4067 -0.5115 -0.9841
 8172SOL    HW332455   2.741   3.879   5.398 -1.4839 -0.3669  0.6132
 8172SOL    MW432456   2.743   3.798   5.366  0.4059 -0.0252 -0.2510
 8173SOL     OW32457   0.331   1.574   1.431  0.2407  0.3496  0.1731
 8173SOL    HW232458   0.380   1.495   1.408 -0.0343  0.2570 -0.0980
 8173SOL    HW332459   0.290   1.602   1.349  1.2960  1.4561 -0.0113
 8173SOL    MW432460   0.332   1.567   1.417  0.3437  0.4833  0.1130
 8174SOL     OW32461   5.006   4.091   3.602 -0.2247 -0.7039 -0.2263
 8174SOL    HW232462   4.971   4.151   3.668 -2.0400 -1.5942 -0.3268
 8174SOL    HW332463   5.027   4.147   3.528  1.7961  0.3106  1.0320
 8174SOL    MW432464   5.004   4.107   3.601 -0.1976 -0.6875 -0.0735
 8175SOL     OW32465   5.007   6.322   3.090  0.1023 -0.3202  0.2392
 8175SOL    HW232466   5.099   6.345   3.077 -0.3069  1.6668  0.4175
 8175SOL    HW332467   4.975   6.302   3.002  0.7011 -1.0322  0.1770
 8175SOL    MW432468   5.015   6.323   3.077  0.1273 -0.1520  0.2545
 8176SOL     OW32469   5.854   1.153   0.392  0.2797 -0.1157  0.5939
 8176SOL    HW232470   5.857   1.141   0.297  0.0936  0.0614  0.5657
 8176SOL    HW332471   5.852   1.064   0.427  2.7821 -0.2609  0.5225
 8176SOL    MW432472   5.854   1.140   0.384  0.5853 -0.1115  0.5807
 8177SOL     OW32473   5.408   0.900   5.546 -0.0218  0.0435 -0.1329
 8177SOL    HW232474   5.436   0.937   5.631  1.0978 -0.6691 -0.1678
 8177SOL    HW332475   5.490   0.882   5.500 -0.4794  4.0735 -3.0813
 8177SOL    MW432476   5.423   0.902   5.551  0.0656  0.4812 -0.5265
 8178SOL     OW32477   2.755   3.827   6.326 -0.0192  0.4027  0.0738
 8178SOL    HW232478   2.753   3.749   6.271  0.3596 -0.3659  1.0951
 8178SOL    HW332479   2.809   3.801   6.401  0.1411  1.6652  0.4223
 8178SOL    MW432480   2.762   3.813   6.329  0.0520  0.4678  0.2545
 8179SOL     OW32481   6.222   2.526   3.380  0.5307 -0.0198  0.2202
 8179SOL    HW232482   6.296   2.576   3.346  1.4019 -0.7938  0.9328
 8179SOL    HW332483   6.199   2.570   3.462  2.5566 -1.8556  1.8610
 8179SOL    MW432484   6.229   2.539   3.386  0.9129 -0.3642  0.5307
 8180SOL     OW32485   4.365   0.392   1.115 -0.0992  0.2654 -0.3735
 8180SOL    HW232486   4.456   0.364   1.107 -0.5715 -1.9892  1.3030
 8180SOL    HW332487   4.368   0.465   1.177  0.6780  1.2858 -1.5437
 8180SOL    MW432488   4.377   0.398   1.122 -0.0590  0.1025 -0.3067
 8181SOL     OW32489   4.370   4.593   3.668  0.1507  0.1885  0.6617
 8181SOL    HW232490   4.371   4.647   3.747  2.9148 -1.2628  1.7478
 8181SOL    HW332491   4.450   4.615   3.621 -1.2437  0.7321 -1.6239
 8181SOL    MW432492   4.380   4.603   3.672  0.3314  0.0688  0.5035
 8182SOL     OW32493   3.201   1.383   2.863  0.6320  0.3109 -0.1208
 8182SOL    HW232494   3.259   1.432   2.805  1.1730  1.3788  1.2428
 8182SOL    HW332495   3.258   1.352   2.934  0.2339 -2.0983 -0.7928
 8182SOL    MW432496   3.216   1.386   2.865  0.6508  0.1339 -0.0295
 8183SOL     OW32497   3.482   0.149   1.565  0.4845  0.0669  0.8004
 8183SOL    HW232498   3.572   0.151   1.533 -0.0974  1.8767 -0.8803
 8183SOL    HW332499   3.447   0.065   1.534  0.4966  0.9811 -1.8748
 8183SOL    MW432500   3.489   0.138   1.557  0.4093  0.4263  0.2257
 8184SOL     OW32501   4.964   3.975   6.239 -0.1835  0.1638  0.2365
 8184SOL    HW232502   4.908   3.915   6.190 -0.8604  0.7649  0.2616
 8184SOL    HW332503   5.028   3.919   6.282  0.6952 -0.3680 -1.6432
 8184SOL    MW432504   4.965   3.960   6.238 -0.1569  0.1730 -0.0082
 8185SOL     OW32505   5.172   3.158   3.687  0.1366 -0.4466 -0.2244
 8185SOL    HW232506   5.092   3.104   3.679 -0.2151  0.0676 -0.2030
 8185SOL    HW332507   5.243   3.094   3.690 -0.2726 -0.9138 -0.2727
 8185SOL    MW432508   5.171   3.142   3.687  0.0362 -0.4404 -0.2280
 8186SOL     OW32509   1.319   4.562   3.817  0.5089  0.1400  0.0818
 8186SOL    HW232510   1.255   4.499   3.852  1.5641 -0.9756  0.0803
 8186SOL    HW332511   1.266   4.629   3.775 -0.6622 -0.8539 -0.0877
 8186SOL    MW432512   1.303   4.562   3.816  0.4936 -0.1383  0.0593
 8187SOL     OW32513   1.076   6.232   5.917 -0.2174  0.1446 -0.1762
 8187SOL    HW232514   1.087   6.140   5.894 -2.1006 -0.7280  2.0890
 8187SOL    HW332515   1.030   6.270   5.842  1.0487 -0.5734 -1.3603
 8187SOL    MW432516   1.071   6.225   5.904 -0.2988 -0.0652 -0.0336
 8188SOL     OW32517   5.838   0.597   2.687  0.4039  0.4914  0.4571
 8188SOL    HW232518   5.862   0.612   2.595  2.0874 -1.4317  0.5203
 8188SOL    HW332519   5.807   0.683   2.717  0.4177  1.3363 -1.7052
 8188SOL    MW432520   5.837   0.611   2.679  0.6279  0.3491  0.1802
 8189SOL     OW32521   5.040   3.868   2.037  0.1820 -0.2576  0.4258
 8189SOL    HW232522   4.980   3.898   2.105 -1.2438 -0.2267 -0.7941
 8189SOL    HW332523   5.082   3.947   2.003 -1.5924  0.1449 -0.9649
 8189SOL    MW432524   5.038   3.882   2.041 -0.2403 -0.2004  0.0814
 8190SOL     OW32525   3.317   1.304   5.951 -0.5156  0.1451  0.0100
 8190SOL    HW232526   3.317   1.226   6.006  1.1491  0.0237 -0.1053
 8190SOL    HW332527   3.353   1.373   6.006 -1.1096  0.6024 -0.1741
 8190SOL    MW432528   3.322   1.302   5.965 -0.3743  0.1894 -0.0295
 8191SOL     OW32529   5.070   3.296   1.245 -0.1150  0.5330  0.3308
 8191SOL    HW232530   5.008   3.223   1.243  0.4274  0.0865 -0.5141
 8191SOL    HW332531   5.155   3.255   1.259  0.1417  1.0368  0.2617
 8191SOL    MW432532   5.073   3.281   1.247 -0.0096  0.5406  0.2102
 8192SOL     OW32533   4.648   4.496   1.026  0.4050  0.0005  0.8583
 8192SOL    HW232534   4.657   4.517   1.119 -0.1053  0.8968  0.7109
 8192SOL    HW332535   4.664   4.579   0.980 -0.4504 -0.1873  0.2004
 8192SOL    MW432536   4.652   4.510   1.032  0.2248  0.0940  0.7521
 8193SOL     OW32537   1.717   1.407   4.759  0.1744 -0.2169  0.0640
 8193SOL    HW232538   1.629   1.418   4.724  0.6346  0.8691 -0.8050
 8193SOL    HW332539   1.756   1.338   4.706 -0.2091 -0.8409  0.5823
 8193SOL    MW432540   1.711   1.399   4.748  0.1845 -0.1560  0.0178
 8194SOL     OW32541   2.234   4.371   2.479 -0.1672 -0.4966  0.1570
 8194SOL    HW232542   2.222   4.458   2.441 -2.4602 -1.0556 -0.5810
 8194SOL    HW332543   2.205   4.382   2.570  1.7512 -0.0114  0.7496
 8194SOL    MW432544   2.229   4.384   2.486 -0.2166 -0.5063  0.1378
 8195SOL     OW32545   6.392   1.088   2.827  0.0565 -0.1136 -0.0236
 8195SOL    HW232546   6.301   1.098   2.800 -0.3977  1.1486  1.7663
 8195SOL    HW332547   6.435   1.167   2.795 -0.0515  0.4536  1.1907
 8195SOL    MW432548   6.386   1.099   2.819 -0.0177  0.1278  0.3728
 8196SOL     OW32549   0.406   2.346   5.593 -0.1357 -0.3324  0.9959
 8196SOL    HW232550   0.501   2.340   5.584 -0.3169 -2.2415 -0.3031
 8196SOL    HW332551   0.373   2.344   5.503 -1.3844  1.8462  1.3434
 8196SOL    MW432552   0.414   2.345   5.580 -0.3244 -0.2968  0.8703
 8197SOL     OW32553   5.241   6.342   0.949  0.0083  0.0943  0.5147
 8197SOL    HW232554   5.206   6.305   0.868  1.8597  2.2183 -1.3750
 8197SOL    HW332555   5.163   6.376   0.995 -1.1314 -1.6554 -0.0254
 8197SOL    MW432556   5.226   6.342   0.944  0.1022  0.1437  0.1941
 8198SOL     OW32557   0.343   1.572   3.569  0.0145  0.1229 -0.5737
 8198SOL    HW232558   0.409   1.539   3.508 -0.1762 -0.1026 -0.6621
 8198SOL    HW332559   0.270   1.510   3.561 -0.3629  0.5769 -0.7650
 8198SOL    MW432560   0.342   1.559   3.560 -0.0604  0.1530 -0.6106
 8199SOL     OW32561   2.120   2.128   1.955 -0.0362 -0.1011  0.0047
 8199SOL    HW232562   2.163   2.045   1.975 -1.5065 -0.6523  1.0775
 8199SOL    HW332563   2.182   2.174   1.899  1.2968 -1.4489  0.2959
 8199SOL    MW432564   2.134   2.123   1.950 -0.0543 -0.3516  0.1847
 8200SOL     OW32565   1.566   0.775   3.174 -0.1220 -0.2162 -0.4494
 8200SOL    HW232566   1.570   0.754   3.268 -1.5051 -0.7562 -0.4855
 8200SOL    HW332567   1.645   0.827   3.158 -1.3075  2.5401  1.6906
 8200SOL    MW432568   1.577   0.779   3.185 -0.4609  0.0762 -0.1718
 8201SOL     OW32569   4.173   4.198   2.313  0.3957  0.0801  0.1839
 8201SOL    HW232570   4.127   4.177   2.232 -0.2911  0.4412  0.4763
 8201SOL    HW332571   4.150   4.289   2.331  0.0214 -0.1848  1.1183
 8201SOL    MW432572   4.164   4.207   2.304  0.2557  0.0928  0.3458
 8202SOL     OW32573   5.865   5.934   2.610 -0.0410 -0.1971 -0.2616
 8202SOL    HW232574   5.949   5.934   2.564 -0.8893 -1.6310 -1.9664
 8202SOL    HW332575   5.804   5.973   2.548 -1.0136 -1.1046  0.0965
 8202SOL    MW432576   5.868   5.939   2.596 -0.2812 -0.5061 -0.4393
 8203SOL     OW32577   4.238   0.740   5.120  0.6653 -0.2434  0.0732
 8203SOL    HW232578   4.185   0.820   5.117  1.5461  0.3135 -1.4935
 8203SOL    HW332579   4.174   0.671   5.139 -0.7084  0.3736 -1.9710
 8203SOL    MW432580   4.222   0.742   5.122  0.6002 -0.0885 -0.4032
 8204SOL     OW32581   0.669   4.466   3.321  0.2419 -0.2835  0.2761
 8204SOL    HW232582   0.573   4.468   3.318  0.1664 -0.1232  1.8341
 8204SOL    HW332583   0.696   4.540   3.268 -0.5952  1.0330  1.5855
 8204SOL    MW432584   0.660   4.476   3.314  0.1215 -0.0886  0.6544
 8205SOL     OW32585   3.064   0.380   1.457 -0.0539 -0.2788  0.0519
 8205SOL    HW232586   3.070   0.294   1.417  0.6990 -0.4310  0.4685
 8205SOL    HW332587   3.102   0.369   1.545 -0.8651  0.2424  0.4867
 8205SOL    MW432588   3.070   0.367   1.464 -0.0616 -0.2301  0.1643
 8206SOL     OW32589   4.979   0.799   2.880 -0.2992 -0.3585  0.0601
 8206SOL    HW232590   5.004   0.886   2.849  2.4268 -1.0873 -0.0360
 8206SOL    HW332591   4.929   0.761   2.808  0.3064  0.3709 -0.7717
 8206SOL    MW432592   4.976   0.806   2.866  0.1404 -0.3584 -0.0623
 8207SOL     OW32593   0.491   2.512   5.006 -0.8499 -0.8606 -0.3000
 8207SOL    HW232594   0.535   2.466   4.935 -0.1401 -2.0897  0.8857
 8207SOL    HW332595   0.435   2.576   4.962  0.2742 -0.9295 -1.9227
 8207SOL    MW432596   0.489   2.514   4.991 -0.6079 -1.0319 -0.3577
 8208SOL     OW32597   2.556   2.121   3.891 -0.6845 -0.2255 -0.4529
 8208SOL    HW232598   2.471   2.156   3.917 -0.5138  0.0839 -0.3029
 8208SOL    HW332599   2.617   2.194   3.902 -0.7844  0.2957 -2.8172
 8208SOL    MW432600   2.553   2.135   3.896 -0.6751 -0.1159 -0.7451
 8209SOL     OW32601   0.592   5.829   5.020 -0.7025  0.3045 -0.0344
 8209SOL    HW232602   0.631   5.742   5.030 -1.4833 -0.1824 -1.0304
 8209SOL    HW332603   0.608   5.852   4.929 -0.7573  1.0884  0.1498
 8209SOL    MW432604   0.599   5.820   5.010 -0.8127  0.3437 -0.1415
 8210SOL     OW32605   2.089   3.937   6.075 -0.7358  0.0560 -0.1178
 8210SOL    HW232606   2.130   3.867   6.125  0.7753  2.0890  1.6637
 8210SOL    HW332607   1.995   3.925   6.091 -0.4662 -1.0467  0.8188
 8210SOL    MW432608   2.082   3.926   6.083 -0.5009  0.1787  0.2408
 8211SOL     OW32609   6.406   5.550   4.170  0.1850  0.4904  0.0196
 8211SOL    HW232610   6.373   5.501   4.094  0.9622 -1.3502  0.8211
 8211SOL    HW332611   6.437   5.483   4.230 -0.9110  1.8658  2.2398
 8211SOL    MW432612   6.406   5.535   4.168  0.1429  0.4290  0.4183
 8212SOL     OW32613   0.122   5.527   3.716 -0.1473  0.4790 -0.4815
 8212SOL    HW232614   0.104   5.604   3.661  3.1837 -0.3726 -3.0967
 8212SOL    HW332615   0.131   5.455   3.654  1.0126 -1.1523  1.4615
 8212SOL    MW432616   0.121   5.528   3.701  0.4452  0.1514 -0.5701
 8213SOL     OW32617   2.199   5.836   0.593  0.0164 -0.5184  0.0971
 8213SOL    HW232618   2.257   5.911   0.584  0.0172 -0.6000 -0.6551
 8213SOL    HW332619   2.178   5.811   0.503  0.5267 -1.8032  0.3061
 8213SOL    MW432620   2.204   5.842   0.580  0.0839 -0.6987  0.0254
 8214SOL     OW32621   4.447   5.191   0.038  0.3977 -0.1570  0.0240
 8214SOL    HW232622   4.409   5.210   0.123 -0.7697  1.0855 -0.7456
 8214SOL    HW332623   4.524   5.137   0.058  0.2502  0.2514  1.8591
 8214SOL    MW432624   4.452   5.186   0.052  0.2242  0.0609  0.1646
 8215SOL     OW32625   5.975   3.915   0.644 -0.7401  0.2722 -0.6049
 8215SOL    HW232626   5.918   3.933   0.569 -1.2523  0.5627 -0.1569
 8215SOL    HW332627   6.003   3.825   0.632 -2.5319 -0.4046 -0.0504
 8215SOL    MW432628   5.971   3.906   0.633 -1.0441  0.2213 -0.4727
 8216SOL     OW32629   4.298   5.962   1.171 -0.4766 -0.2423  0.4560
 8216SOL    HW232630   4.287   5.954   1.266 -1.6210 -1.1680  0.2696
 8216SOL    HW332631   4.368   5.900   1.150 -1.6935 -1.6752  0.4542
 8216SOL    MW432632   4.306   5.953   1.181 -0.7882 -0.5535  0.4312
 8217SOL     OW32633   1.675   4.552   0.003  0.0236  0.2171  0.0192
 8217SOL    HW232634   1.692   4.600   0.083  0.8750  2.5325 -1.4417
 8217SOL    HW332635   1.751   4.570  -0.053 -0.1422 -1.9717 -1.0542
 8217SOL    MW432636   1.687   4.560   0.006  0.1141  0.2338 -0.3151
 8218SOL     OW32637   0.953   0.208   1.625 -0.0392  0.2505 -0.3019
 8218SOL    HW232638   0.914   0.227   1.710 -0.1928 -0.3965 -0.2187
 8218SOL    HW332639   0.984   0.293   1.593 -0.7670  0.6417 -0.0008
 8218SOL    MW432640   0.952   0.222   1.632 -0.1555  0.2168 -0.2512
 8219SOL     OW32641   0.532   4.808   5.811  0.0721  0.1061  0.5324
 8219SOL    HW232642   0.535   4.831   5.904  0.0924 -1.1861  0.8632
 8219SOL    HW332643   0.622   4.783   5.789  0.5975  2.4921 -0.4335
 8219SOL    MW432644   0.544   4.808   5.820  0.1441  0.2504  0.4486
 8220SOL     OW32645   2.862   0.612   2.868 -0.9506 -0.2150 -0.2082
 8220SOL    HW232646   2.767   0.618   2.867 -0.9497  0.9473  1.3828
 8220SOL    HW332647   2.886   0.636   2.958  0.8117 -1.0415 -0.4191
 8220SOL    MW432648   2.853   0.616   2.880 -0.7180 -0.1707 -0.0261
 8221SOL     OW32649   1.265   6.136   3.942 -0.0960  1.1585 -0.5400
 8221SOL    HW232650   1.313   6.202   3.992 -0.2892 -0.1155  1.4591
 8221SOL    HW332651   1.173   6.161   3.951 -0.2407  0.1934  0.9672
 8221SOL    MW432652   1.259   6.148   3.950 -0.1406  0.8631 -0.0774
 8222SOL     OW32653   2.993   0.772   0.581 -0.0065 -0.0024  0.0183
 8222SOL    HW232654   3.022   0.725   0.502 -1.5068 -0.1659 -0.4679
 8222SOL    HW332655   2.900   0.752   0.587  0.0291  0.2514  1.6926
 8222SOL    MW432656   2.985   0.763   0.571 -0.1997  0.0095  0.1751
 8223SOL     OW32657   0.225   5.970   2.124  0.4935 -0.1223  0.1227
 8223SOL    HW232658   0.310   5.983   2.165 -0.2466  1.3698  1.3231
 8223SOL    HW332659   0.162   5.988   2.194 -0.8105 -0.4101 -0.9297
 8223SOL    MW432660   0.228   5.974   2.138  0.2238  0.0366  0.1423
 8224SOL     OW32661   0.701   2.878   1.110 -0.3872  0.1464  0.6416
 8224SOL    HW232662   0.734   2.826   1.036  0.0283  1.2551  0.0245
 8224SOL    HW332663   0.745   2.962   1.102  0.7680 -0.1491  3.0049
 8224SOL    MW432664   0.711   2.882   1.099 -0.1799  0.2537  0.8720
 8225SOL     OW32665   2.098   3.081   0.430 -0.1424 -0.4739  1.0833
 8225SOL    HW232666   2.155   3.007   0.409 -1.1770 -0.5894 -1.7236
 8225SOL    HW332667   2.055   3.102   0.347 -0.1661  3.0728  1.8441
 8225SOL    MW432668   2.100   3.074   0.416 -0.2820 -0.0212  0.8133
 8226SOL     OW32669   0.120   1.443   0.586  0.0704 -0.4128  0.2337
 8226SOL    HW232670   0.182   1.387   0.538  1.3262  0.5235  0.7102
 8226SOL    HW332671   0.094   1.391   0.662  1.8268 -0.0900  1.0879
 8226SOL    MW432672   0.125   1.429   0.589  0.4678 -0.2467  0.4093
 8227SOL     OW32673   3.450   3.706   4.260  0.3473 -0.0959  0.2709
 8227SOL    HW232674   3.510   3.713   4.186  0.3041 -0.8370  0.1515
 8227SOL    HW332675   3.506   3.712   4.337  0.3091  1.4469  0.2142
 8227SOL    MW432676   3.465   3.708   4.260  0.3366  0.0099  0.2477
 8228SOL     OW32677   1.254   0.561   1.162  0.1674 -0.1237 -0.2246
 8228SOL    HW232678   1.182   0.504   1.187  0.6093 -1.0224 -0.9537
 8228SOL    HW332679   1.219   0.615   1.091  0.3673 -0.9522 -0.9680
 8228SOL    MW432680   1.240   0.561   1.156  0.2521 -0.3515 -0.4189
 8229SOL     OW32681   3.999   2.620   2.327 -0.1221  0.1730 -0.0549
 8229SOL    HW232682   4.018   2.615   2.421 -1.7608  0.0504  0.2985
 8229SOL    HW332683   3.993   2.714   2.308 -0.4952  0.1833  0.1168
 8229SOL    MW432684   4.001   2.632   2.337 -0.3875  0.1582  0.0144
 8230SOL     OW32685   2.530   5.080   5.572  0.4492 -0.2829  0.1430
 8230SOL    HW232686   2.567   5.040   5.493 -0.0534  0.2037 -0.3447
 8230SOL    HW332687   2.513   5.006   5.630  2.8703 -0.4837  0.6945
 8230SOL    MW432688   2.533   5.065   5.569  0.7023 -0.2452  0.1514
 8231SOL     OW32689   2.457   6.290   4.283  0.0913 -0.3525  0.0632
 8231SOL    HW232690   2.539   6.250   4.311  0.3495 -0.1621 -0.3983
 8231SOL    HW332691   2.476   6.324   4.195  0.4129  2.3042  1.0734
 8231SOL    MW432692   2.470   6.289   4.275  0.1678  0.0231  0.1356
 8232SOL     OW32693   2.675   3.656   5.959 -0.5532 -0.2813  0.1996
 8232SOL    HW232694   2.589   3.699   5.967 -0.3040  0.4004 -0.6127
 8232SOL    HW332695   2.693   3.655   5.865  0.0531 -0.9886  0.3132
 8232SOL    MW432696   2.666   3.662   5.948 -0.4403 -0.2847  0.1074
 8233SOL     OW32697   3.412   6.268   2.407 -0.0274 -0.0828  0.1963
 8233SOL    HW232698   3.361   6.202   2.359  0.9239 -0.9247  0.2971
 8233SOL    HW332699   3.412   6.237   2.497  2.3035 -1.2155 -0.1328
 8233SOL    MW432700   3.405   6.255   2.413  0.4056 -0.3433  0.1662
 8234SOL     OW32701   5.409   4.121   1.449 -0.0917 -0.1682 -0.0736
 8234SOL    HW232702   5.392   4.214   1.434  1.3178  0.7453  3.1100
 8234SOL    HW332703   5.501   4.109   1.426  0.0824 -0.4291  0.7124
 8234SOL    MW432704   5.419   4.131   1.444  0.1172 -0.0821  0.4501
 8235SOL     OW32705   3.071   5.041   1.322  0.3783 -0.2666 -0.0178
 8235SOL    HW232706   3.056   5.008   1.234  1.4228  0.5132 -0.5157
 8235SOL    HW332707   3.001   5.104   1.337 -0.8549 -1.6838  0.4366
 8235SOL    MW432708   3.060   5.045   1.313  0.3534 -0.3507 -0.0235
 8236SOL     OW32709   5.724   3.090   0.898 -0.1889  0.6761 -0.1989
 8236SOL    HW232710   5.699   2.999   0.914 -1.1785  0.4073 -2.8467
 8236SOL    HW332711   5.802   3.103   0.953 -0.6528 -1.3983  1.0713
 8236SOL    MW432712   5.731   3.080   0.908 -0.3807  0.3670 -0.3807
 8237SOL     OW32713   6.057   2.635   1.391 -0.3709  0.2897 -0.2388
 8237SOL    HW232714   6.067   2.695   1.316 -0.0175 -0.7277 -1.0376
 8237SOL    HW332715   6.043   2.692   1.466  2.1559  1.5106 -0.5920
 8237SOL    MW432716   6.057   2.651   1.391  0.0091  0.3165 -0.3908
 8238SOL     OW32717   1.900   0.755   2.685 -0.1322 -0.3212  0.0998
 8238SOL    HW232718   1.993   0.773   2.671  0.3414 -1.0454  1.9660
 8238SOL    HW332719   1.869   0.721   2.601  1.4965 -0.8463 -0.3272
 8238SOL    MW432720   1.908   0.753   2.672  0.1451 -0.4861  0.2897
 8239SOL     OW32721   1.842   5.513   1.392  0.1097  0.2419 -0.1345
 8239SOL    HW232722   1.790   5.562   1.456  1.7793 -0.4039  1.8127
 8239SOL    HW332723   1.931   5.545   1.404  0.6851 -0.8808 -1.2052
 8239SOL    MW432724   1.847   5.523   1.402  0.4059  0.0086 -0.0189
 8240SOL     OW32725   4.181   1.326   4.485 -0.1598 -0.4400  0.0523
 8240SOL    HW232726   4.238   1.403   4.490 -0.4350 -0.2059 -0.3090
 8240SOL    HW332727   4.240   1.252   4.480  0.1597 -0.1078 -1.9972
 8240SOL    MW432728   4.196   1.326   4.485 -0.1540 -0.3653 -0.2658
 8241SOL     OW32729   5.146   0.844   4.691  0.4617  0.0497  0.8058
 8241SOL    HW232730   5.224   0.853   4.746  0.8382  1.4195  0.1146
 8241SOL    HW332731   5.124   0.751   4.695  2.7917 -0.6097  0.1353
 8241SOL    MW432732   5.153   0.833   4.699  0.8188  0.1434  0.6261
 8242SOL     OW32733   5.041   2.598   6.410  0.2618 -0.4051  0.0828
 8242SOL    HW232734   5.056   2.534   6.340  2.1348 -0.9771  0.9522
 8242SOL    HW332735   5.097   2.673   6.386  0.0758 -0.1639  0.3981
 8242SOL    MW432736   5.051   2.599   6.398  0.4844 -0.4487  0.2391
 8243SOL     OW32737   5.987   5.266   4.854  0.8325  0.0401  0.0010
 8243SOL    HW232738   5.956   5.267   4.944  0.7400 -0.2953 -0.0277
 8243SOL    HW332739   5.917   5.310   4.805 -0.5699 -2.4389 -0.3732
 8243SOL    MW432740   5.973   5.272   4.859  0.6352 -0.3312 -0.0521
 8244SOL     OW32741   4.197   2.413   3.762 -0.3164 -0.0896  0.1019
 8244SOL    HW232742   4.207   2.338   3.821  0.0825 -1.4070 -1.5575
 8244SOL    HW332743   4.170   2.374   3.679  1.9514  1.3892 -1.4110
 8244SOL    MW432744   4.195   2.398   3.759  0.0355 -0.0683 -0.3166
 8245SOL     OW32745   2.826   4.336   0.983 -0.1020  0.1466  0.4456
 8245SOL    HW232746   2.900   4.385   1.020  0.4896  0.9030 -1.5816
 8245SOL    HW332747   2.798   4.389   0.908 -1.5459 -1.0422  0.1077
 8245SOL    MW432748   2.832   4.350   0.978 -0.2145  0.0896  0.1335
 8246SOL     OW32749   5.637   0.427   2.818 -0.2185  0.1012  0.1722
 8246SOL    HW232750   5.627   0.518   2.790  0.8584  0.1407 -0.1272
 8246SOL    HW332751   5.575   0.417   2.890 -0.8454  0.8677 -0.2492
 8246SOL    MW432752   5.628   0.438   2.824 -0.1591  0.2075  0.0771
 8247SOL     OW32753   3.746   3.532   1.279 -0.3560 -0.1712  0.2985
 8247SOL    HW232754   3.834   3.569   1.284 -0.5826  1.0967 -2.6735
 8247SOL    HW332755   3.688   3.606   1.298 -0.7587 -0.3440 -0.2272
 8247SOL    MW432756   3.750   3.547   1.282 -0.4390 -0.0267 -0.1630
 8248SOL     OW32757   5.529   1.119   6.251 -0.5706  0.0968  0.0210
 8248SOL    HW232758   5.581   1.175   6.310  1.0055 -1.8783  0.6090
 8248SOL    HW332759   5.451   1.097   6.303  0.1077 -0.4448  0.8397
 8248SOL    MW432760   5.526   1.124   6.266 -0.2732 -0.2352  0.2066
 8249SOL     OW32761   0.734   2.555   2.912 -0.0115  0.3621 -0.0842
 8249SOL    HW232762   0.749   2.519   2.999 -0.4951  1.5006  0.4909
 8249SOL    HW332763   0.638   2.560   2.905  0.0309  2.4421  0.2684
 8249SOL    MW432764   0.723   2.550   2.923 -0.0697  0.7868  0.0382
 8250SOL     OW32765   4.950   3.247   3.861  0.0976 -0.2277  1.0848
 8250SOL    HW232766   4.957   3.341   3.841  1.7055  0.0199  2.6072
 8250SOL    HW332767   4.902   3.244   3.944  0.0442 -0.7676  1.0345
 8250SOL    MW432768   4.945   3.259   3.869  0.3027 -0.2662  1.2790
 8251SOL     OW32769   0.280   4.749   3.449  0.6403  0.1547  0.5031
 8251SOL    HW232770   0.198   4.797   3.455  1.0601  1.5123 -2.5118
 8251SOL    HW332771   0.314   4.748   3.539 -1.6263  1.3951  1.4587
 8251SOL    MW432772   0.274   4.755   3.462  0.3966  0.4974  0.2314
 8252SOL     OW32773   2.804   4.651   3.819  0.0470  0.5026 -0.2955
 8252SOL    HW232774   2.781   4.617   3.733  0.1948 -0.6986  0.1246
 8252SOL    HW332775   2.848   4.734   3.801 -0.2202  0.4263 -1.3513
 8252SOL    MW432776   2.807   4.657   3.805  0.0313  0.3341 -0.3794
 8253SOL     OW32777   2.620   4.976   3.146 -0.0651  0.4860  0.0860
 8253SOL    HW232778   2.639   5.066   3.173 -1.3294  1.5966 -2.3702
 8253SOL    HW332779   2.541   4.953   3.195  1.1895  0.0260  1.9801
 8253SOL    MW432780   2.612   4.985   3.156 -0.0663  0.5718  0.0118
 8254SOL     OW32781   4.293   0.665   2.114 -0.0566  0.0781 -0.0370
 8254SOL    HW232782   4.364   0.601   2.119  0.2080  0.2456 -1.4091
 8254SOL    HW332783   4.227   0.631   2.174 -0.2829 -1.9523 -1.3498
 8254SOL    MW432784   4.294   0.652   2.123 -0.0516 -0.1677 -0.3913
 8255SOL     OW32785   5.110   5.365   2.639 -0.1119  0.5511  0.0570
 8255SOL    HW232786   5.108   5.293   2.576 -1.2707  0.9525 -0.3841
 8255SOL    HW332787   5.092   5.322   2.723 -0.2027  0.2448 -0.1149
 8255SOL    MW432788   5.108   5.350   2.642 -0.2767  0.5637 -0.0239
 8256SOL     OW32789   0.677   3.440   5.921 -0.0468 -0.4186 -0.1113
 8256SOL    HW232790   0.700   3.438   5.828  0.6419 -0.8842  0.0613
 8256SOL    HW332791   0.604   3.501   5.926  0.9697  0.9012 -0.7199
 8256SOL    MW432792   0.671   3.448   5.909  0.1782 -0.3059 -0.1689
 8257SOL     OW32793   3.290   0.852   0.820 -0.4199 -0.2033 -0.4987
 8257SOL    HW232794   3.205   0.888   0.793 -0.8683  1.0998  2.2402
 8257SOL    HW332795   3.348   0.871   0.747 -2.1522  0.1520 -1.8727
 8257SOL    MW432796   3.286   0.859   0.807 -0.7076  0.0155 -0.3186
 8258SOL     OW32797   2.285   2.823   1.190 -0.6688 -0.2040 -0.0242
 8258SOL    HW232798   2.234   2.805   1.269  0.4158 -0.0696  0.7395
 8258SOL    HW332799   2.260   2.912   1.165 -0.7117 -0.0834  0.4305
 8258SOL    MW432800   2.275   2.832   1.197 -0.5314 -0.1704  0.1366
 8259SOL     OW32801   6.195   0.166   2.435 -0.2833  0.2579 -0.2048
 8259SOL    HW232802   6.229   0.129   2.516 -0.6731  0.0263 -0.1455
 8259SOL    HW332803   6.172   0.090   2.381  0.7221  0.3953 -0.8581
 8259SOL    MW432804   6.197   0.151   2.438 -0.2021  0.2455 -0.2832
 8260SOL     OW32805   6.138   1.598   3.685  0.0802  0.4396 -0.6234
 8260SOL    HW232806   6.194   1.559   3.753 -0.0941 -1.2330 -1.3847
 8260SOL    HW332807   6.198   1.649   3.631  0.5584  0.1335 -0.3898
 8260SOL    MW432808   6.153   1.600   3.687  0.1203  0.1786 -0.6930
 8261SOL     OW32809   3.436   3.886   5.608  0.5932  0.1587 -0.6852
 8261SOL    HW232810   3.510   3.863   5.663  1.2492  1.2294 -1.0745
 8261SOL    HW332811   3.374   3.928   5.668  1.5075  1.7524 -0.7994
 8261SOL    MW432812   3.437   3.889   5.623  0.8004  0.5102 -0.7516
 8262SOL     OW32813   1.724   0.713   2.423  0.1710 -0.5803 -0.4731
 8262SOL    HW232814   1.649   0.768   2.448  0.6731 -1.0401  2.2722
 8262SOL    HW332815   1.796   0.775   2.412  1.2182 -0.5528  4.4378
 8262SOL    MW432816   1.723   0.729   2.425  0.3754 -0.6373  0.5370
 8263SOL     OW32817   5.573   4.150   0.252 -0.0387 -0.9120  0.3495
 8263SOL    HW232818   5.652   4.156   0.199 -0.3683 -0.5075 -0.1011
 8263SOL    HW332819   5.582   4.066   0.298  0.8881 -0.6385  0.6942
 8263SOL    MW432820   5.585   4.140   0.251  0.0401 -0.8226  0.3355
 8264SOL     OW32821   2.207   3.879   1.576 -0.0124 -0.3972  0.0708
 8264SOL    HW232822   2.131   3.930   1.549 -0.6954 -1.6542 -0.4424
 8264SOL    HW332823   2.270   3.889   1.504  1.6761  3.1490  1.7642
 8264SOL    MW432824   2.206   3.887   1.563  0.1203 -0.0952  0.2265
 8265SOL     OW32825   6.036   4.197   2.497 -0.5202 -0.0935  0.7074
 8265SOL    HW232826   6.032   4.142   2.574 -0.4239 -0.2196  0.6227
 8265SOL    HW332827   6.086   4.274   2.525  1.2789 -1.0314  0.2360
 8265SOL    MW432828   6.042   4.200   2.511 -0.2701 -0.2339  0.6341
 8266SOL     OW32829   5.453   6.066   6.394 -0.5629 -0.4712  0.1003
 8266SOL    HW232830   5.361   6.059   6.371 -0.6461 -1.6647  0.6973
 8266SOL    HW332831   5.467   5.996   6.458  0.7669 -0.3431 -0.0187
 8266SOL    MW432832   5.443   6.056   6.399 -0.3985 -0.6118  0.1634
 8267SOL     OW32833   5.766   4.686   5.851 -0.7930 -0.1513 -0.2688
 8267SOL    HW232834   5.861   4.673   5.850 -1.0229 -2.4557  1.1594
 8267SOL    HW332835   5.748   4.735   5.771  1.5835  0.4231 -0.5355
 8267SOL    MW432836   5.776   4.691   5.841 -0.5098 -0.3796 -0.1155
 8268SOL     OW32837   1.670   1.433   0.174 -0.0312  0.6992 -0.2430
 8268SOL    HW232838   1.654   1.345   0.207 -1.6077  1.0575  0.0320
 8268SOL    HW332839   1.719   1.420   0.093 -0.6921 -0.4633 -0.4724
 8268SOL    MW432840   1.674   1.420   0.168 -0.3264  0.5931 -0.2370
 8269SOL     OW32841   3.868   3.703   3.577  0.1623  0.6769  0.0238
 8269SOL    HW232842   3.959   3.673   3.578 -0.2359 -1.0444 -3.0822
 8269SOL    HW332843   3.869   3.781   3.523 -0.1446  0.9350  0.3869
 8269SOL    MW432844   3.880   3.709   3.570  0.0693  0.4839 -0.3381
 8270SOL     OW32845   5.522   4.572   4.863  0.1653 -0.5545  0.0548
 8270SOL    HW232846   5.490   4.489   4.897  2.0273 -1.0167  0.7938
 8270SOL    HW332847   5.535   4.556   4.769 -0.9476 -0.5826 -0.1121
 8270SOL    MW432848   5.519   4.559   4.855  0.2641 -0.6192  0.1303
 8271SOL     OW32849   3.458   1.643   3.408 -0.0546 -0.0566 -0.6028
 8271SOL    HW232850   3.372   1.612   3.377 -0.5200  1.3229 -0.7897
 8271SOL    HW332851   3.462   1.734   3.378  0.7672  0.4114  0.8317
 8271SOL    MW432852   3.447   1.651   3.400 -0.0076  0.1871 -0.4382
 8272SOL     OW32853   6.416   0.264   0.726  0.9198  0.2103 -0.1823
 8272SOL    HW232854   6.441   0.349   0.688  0.8127  0.4573  0.2891
 8272SOL    HW332855   6.442   0.200   0.660  1.9064  0.5337 -0.1250
 8272SOL    MW432856   6.423   0.267   0.712  1.0359  0.2856 -0.1126
 8273SOL     OW32857   4.996   2.480   1.577 -0.0997 -0.1894  0.1641
 8273SOL    HW232858   5.036   2.413   1.633  0.3325 -0.6288 -0.6507
 8273SOL    HW332859   5.028   2.459   1.489 -0.3089  0.8329 -0.1609
 8273SOL    MW432860   5.006   2.468   1.573 -0.0703 -0.1125  0.0137
 8274SOL     OW32861   4.880   4.097   5.747  0.4544 -0.0136  0.3605
 8274SOL    HW232862   4.802   4.138   5.786 -1.1176 -0.4600 -2.1166
 8274SOL    HW332863   4.924   4.168   5.701  2.0490  0.4054  2.3579
 8274SOL    MW432864   4.875   4.112   5.746  0.4574 -0.0172  0.2972
 8275SOL     OW32865   4.926   4.887   1.158  0.1682 -0.2064 -0.2131
 8275SOL    HW232866   4.884   4.938   1.227 -2.5302 -1.4182 -0.8207
 8275SOL    HW332867   4.943   4.801   1.198  2.7733  0.4090  0.1893
 8275SOL    MW432868   4.923   4.882   1.172  0.1559 -0.2851 -0.2402
 8276SOL     OW32869   5.597   5.048   1.051  0.1090  0.2435 -0.3739
 8276SOL    HW232870   5.591   5.043   0.956 -1.8913 -1.0529 -0.2284
 8276SOL    HW332871   5.658   4.978   1.074 -0.1685 -0.0929 -0.6502
 8276SOL    MW432872   5.605   5.038   1.042 -0.1916  0.0281 -0.3912
 8277SOL     OW32873   6.288   1.635   2.916 -0.0064  0.4772 -0.2764
 8277SOL    HW232874   6.220   1.571   2.895  0.5415  0.6050 -2.6934
 8277SOL    HW332875   6.357   1.584   2.958 -0.3828 -0.1675 -0.4370
 8277SOL    MW432876   6.288   1.620   2.919  0.0162  0.4090 -0.6165
 8278SOL     OW32877   0.724   1.480   2.969  0.0659  0.6858  0.2558
 8278SOL    HW232878   0.713   1.405   2.912  0.2548  0.8351  0.0172
 8278SOL    HW332879   0.706   1.556   2.913  1.3198  0.8857  0.0945
 8278SOL    MW432880   0.720   1.480   2.954  0.2562  0.7318  0.2031
 8279SOL     OW32881   4.733   1.766   5.429  0.1620  0.3553  0.3797
 8279SOL    HW232882   4.663   1.755   5.365  1.1922 -0.4346 -0.6699
 8279SOL    HW332883   4.810   1.789   5.376  0.9895 -0.0681  1.3570
 8279SOL    MW432884   4.734   1.768   5.413  0.4071  0.1952  0.3701
 8280SOL     OW32885   3.218   2.540   2.808  0.1772 -0.0689 -0.4324
 8280SOL    HW232886   3.259   2.493   2.881  1.1657  1.3221 -0.0541
 8280SOL    HW332887   3.137   2.576   2.845  0.8365  0.9149  0.1158
 8280SOL    MW432888   3.213   2.538   2.823  0.3946  0.2444 -0.3101
 8281SOL     OW32889   5.301   3.200   1.392  0.0516 -0.9186 -0.0488
 8281SOL    HW232890   5.376   3.260   1.385 -0.6943 -0.0399 -0.7423
 8281SOL    HW332891   5.314   3.138   1.320 -1.0920  0.6560 -1.6850
 8281SOL    MW432892   5.313   3.200   1.381 -0.1977 -0.5949 -0.3562
 8282SOL     OW32893   4.014   0.126   4.911  0.3531 -0.6076  0.4672
 8282SOL    HW232894   4.060   0.046   4.938 -0.6536 -1.9968 -1.6549
 8282SOL    HW332895   3.942   0.095   4.856 -0.7479  1.7337  0.4465
 8282SOL    MW432896   4.010   0.111   4.907  0.0750 -0.4820  0.1845
 8283SOL     OW32897   3.948   0.531   3.962  0.5693  0.3559  0.0213
 8283SOL    HW232898   3.940   0.585   4.040 -1.7554  1.5681 -0.9699
 8283SOL    HW332899   3.904   0.449   3.984  1.9299 -0.2330  0.6900
 8283SOL    MW432900   3.941   0.527   3.975  0.4421  0.4381 -0.0213
 8284SOL     OW32901   2.258   5.192   0.563  0.7017 -0.0630 -0.4398
 8284SOL    HW232902   2.215   5.255   0.621  1.2972  1.5200 -1.6569
 8284SOL    HW332903   2.345   5.227   0.549  0.3580  0.0214 -2.8639
 8284SOL    MW432904   2.264   5.205   0.569  0.7349  0.1570 -0.9202
 8285SOL     OW32905   0.793   1.330   2.390  0.7688 -0.1017  0.2163
 8285SOL    HW232906   0.781   1.346   2.297  0.8316 -3.2305 -0.4358
 8285SOL    HW332907   0.727   1.384   2.433  1.9095  2.8313 -1.4048
 8285SOL    MW432908   0.783   1.340   2.384  0.9276 -0.1275 -0.0836
 8286SOL     OW32909   1.964   0.213   0.231 -0.5910 -0.5014 -0.0468
 8286SOL    HW232910   1.908   0.159   0.176 -1.4903 -1.0215  1.3405
 8286SOL    HW332911   1.948   0.182   0.320  0.7687  0.3667  0.5291
 8286SOL    MW432912   1.954   0.202   0.235 -0.5303 -0.4555  0.2122
 8287SOL     OW32913   5.787   0.939   2.547 -0.1288  0.0996 -0.3457
 8287SOL    HW232914   5.746   0.895   2.621 -0.6535  1.0405 -0.0646
 8287SOL    HW332915   5.881   0.928   2.562 -0.2318  0.1657  0.3862
 8287SOL    MW432916   5.794   0.932   2.558 -0.2116  0.2324 -0.2121
 8288SOL     OW32917   1.408   4.902   1.535  0.2481  0.2674  0.2512
 8288SOL    HW232918   1.469   4.865   1.599  0.9372 -0.4829 -0.8009
 8288SOL    HW332919   1.396   4.832   1.471 -1.0144  0.7336 -0.0540
 8288SOL    MW432920   1.414   4.888   1.535  0.1724  0.2299  0.0721
 8289SOL     OW32921   4.253   1.482   1.675 -0.0517  0.0656 -0.1144
 8289SOL    HW232922   4.164   1.517   1.681 -0.6355 -1.3208 -0.4016
 8289SOL    HW332923   4.272   1.449   1.763  0.0770  0.1258 -0.1194
 8289SOL    MW432924   4.244   1.482   1.687 -0.1118 -0.1093 -0.1529
 8290SOL     OW32925   6.136   5.458   0.063  0.4661  0.4960 -0.1678
 8290SOL    HW232926   6.192   5.518   0.013  1.3032 -1.2817 -1.4483
 8290SOL    HW332927   6.098   5.400  -0.002 -2.1857  1.0052  0.7750
 8290SOL    MW432928   6.138   5.459   0.048  0.2266  0.3286 -0.2124
 8291SOL     OW32929   6.121   2.237   6.337 -0.4140  0.7608  0.2979
 8291SOL    HW232930   6.128   2.229   6.242 -0.2454 -0.1296  0.3748
 8291SOL    HW332931   6.113   2.331   6.353  0.4146  0.9834 -0.5339
 8291SOL    MW432932   6.121   2.249   6.326 -0.2824  0.6727  0.1983
 8292SOL     OW32933   0.418   3.559   5.943  0.2061 -0.1873 -0.2652
 8292SOL    HW232934   0.438   3.580   6.034 -0.2987 -1.6447  0.2126
 8292SOL    HW332935   0.408   3.644   5.900 -0.5253  0.5227  1.2457
 8292SOL    MW432936   0.419   3.573   5.949  0.0430 -0.2859 -0.0028
 8293SOL     OW32937   3.368   2.635   1.333 -0.4931 -0.1588 -0.3475
 8293SOL    HW232938   3.289   2.580   1.327 -0.4237 -0.2010 -0.9740
 8293SOL    HW332939   3.337   2.724   1.316 -0.5458 -0.0558  0.2924
 8293SOL    MW432940   3.353   2.639   1.330 -0.4909 -0.1508 -0.3457
 8294SOL     OW32941   1.868   1.921   0.103  0.1441  0.3708  0.6875
 8294SOL    HW232942   1.796   1.893   0.159 -0.0187  1.3750  1.0110
 8294SOL    HW332943   1.859   1.869   0.024 -1.6086  1.2226  0.2720
 8294SOL    MW432944   1.858   1.911   0.100 -0.1086  0.6157  0.6753
 8295SOL     OW32945   3.833   1.265   6.351 -0.0781  0.2921 -0.1179
 8295SOL    HW232946   3.740   1.250   6.335 -0.1258  1.2508 -0.7944
 8295SOL    HW332947   3.872   1.177   6.345 -0.6012  0.1510 -2.2174
 8295SOL    MW432948   3.826   1.251   6.348 -0.1534  0.4000 -0.4842
 8296SOL     OW32949   3.314   3.500   6.167 -0.3420 -0.1211  0.4356
 8296SOL    HW232950   3.304   3.526   6.259 -1.6218 -2.2682  0.9699
 8296SOL    HW332951   3.380   3.431   6.168 -0.6231 -0.4136 -0.1960
 8296SOL    MW432952   3.321   3.494   6.179 -0.5479 -0.4430  0.4227
 8297SOL     OW32953   5.200   0.960   0.224  0.5516  0.4732  0.5474
 8297SOL    HW232954   5.282   1.005   0.246 -0.5236  2.2968  1.0445
 8297SOL    HW332955   5.195   0.887   0.286  1.8361  0.2642  0.4316
 8297SOL    MW432956   5.210   0.956   0.235  0.5792  0.6862  0.5977
 8298SOL     OW32957   3.521   2.326   5.212  0.7285 -0.2806  0.1932
 8298SOL    HW232958   3.525   2.409   5.165 -0.6552  0.1519  0.8013
 8298SOL    HW332959   3.611   2.312   5.243  1.1055  0.6680 -0.4228
 8298SOL    MW432960   3.534   2.335   5.210  0.5957 -0.0984  0.1922
 8299SOL     OW32961   4.961   6.263   2.825  0.2068  0.1682  0.0870
 8299SOL    HW232962   5.036   6.227   2.779 -0.2101 -0.7140  0.0755
 8299SOL    HW332963   4.891   6.265   2.760 -0.1893 -0.4159  0.4853
 8299SOL    MW432964   4.962   6.258   2.811  0.0995 -0.0253  0.1381
 8300SOL     OW32965   3.923   0.803   5.332 -0.1062 -0.1300  0.6060
 8300SOL    HW232966   3.853   0.868   5.343  0.7772  0.8847  0.3348
 8300SOL    HW332967   3.969   0.804   5.416  0.6170  0.4569  0.2148
 8300SOL    MW432968   3.920   0.812   5.345  0.1058  0.0813  0.5186
 8301SOL     OW32969   0.915   2.809   0.589  0.1701  0.3631 -0.4029
 8301SOL    HW232970   0.961   2.869   0.648 -0.7639 -1.0554  1.9281
 8301SOL    HW332971   0.977   2.792   0.518  1.4676  1.9670  0.2920
 8301SOL    MW432972   0.929   2.815   0.587  0.2180  0.3875 -0.0037
 8302SOL     OW32973   3.694   0.920   4.866 -0.0411  0.0112  0.1524
 8302SOL    HW232974   3.782   0.887   4.886 -0.8661 -2.5274 -0.0410
 8302SOL    HW332975   3.638   0.883   4.934 -0.7664  3.2430  1.4947
 8302SOL    MW432976   3.698   0.910   4.878 -0.2456  0.1027  0.3040
 8303SOL     OW32977   1.961   2.818   3.048 -0.1551 -0.7091 -0.0386
 8303SOL    HW232978   2.009   2.794   3.128  0.0231  2.1665  0.8168
 8303SOL    HW332979   1.872   2.836   3.079 -0.3183 -0.4430 -0.6466
 8303SOL    MW432980   1.955   2.817   3.063 -0.1531 -0.2946 -0.0059
 8304SOL     OW32981   0.656   4.610   4.046  0.0859  0.2269  0.0516
 8304SOL    HW232982   0.592   4.571   4.106  0.6053 -1.9567 -0.7358
 8304SOL    HW332983   0.707   4.669   4.100 -0.5327 -0.4394  1.4020
 8304SOL    MW432984   0.654   4.612   4.061  0.0728 -0.1491  0.1259
 8305SOL     OW32985   0.854   0.812   1.986  0.3903  0.1303  0.4084
 8305SOL    HW232986   0.896   0.897   2.002  0.7141  0.1855 -0.6697
 8305SOL    HW332987   0.764   0.824   2.018 -0.7437  2.1380 -2.9559
 8305SOL    MW432988   0.847   0.825   1.993  0.2834  0.4025 -0.1777
 8306SOL     OW32989   1.286   0.074   4.620  0.5493 -0.2867 -0.2934
 8306SOL    HW232990   1.302  -0.016   4.591  0.0313 -0.4222 -0.1678
 8306SOL    HW332991   1.321   0.128   4.549  1.2090 -0.5758 -0.1962
 8306SOL    MW432992   1.293   0.069   4.607  0.5680 -0.3427 -0.2640
 8307SOL     OW32993   4.534   2.219   5.394 -0.1551 -0.0452  0.2133
 8307SOL    HW232994   4.499   2.303   5.425 -0.2713  0.0121 -0.0728
 8307SOL    HW332995   4.463   2.157   5.409 -0.5974  0.1739 -0.8777
 8307SOL    MW432996   4.520   2.222   5.400 -0.2288 -0.0087  0.0316
 8308SOL     OW32997   1.762   2.736   1.663 -0.2157 -0.5393 -0.1941
 8308SOL    HW232998   1.710   2.769   1.737  0.1698  0.9395 -0.5425
 8308SOL    HW332999   1.711   2.663   1.629 -1.7901  0.4703 -0.1320
 8308SOL    MW433000   1.748   2.731   1.668 -0.3726 -0.2110 -0.2319
 8309SOL     OW33001   3.736   4.250   0.791 -0.8156 -0.1552 -0.0013
 8309SOL    HW233002   3.810   4.201   0.755 -0.6512 -0.4335  0.6931
 8309SOL    HW333003   3.755   4.341   0.771 -0.0612 -0.1814  0.5516
 8309SOL    MW433004   3.748   4.255   0.783 -0.6944 -0.1954  0.1633
 8310SOL     OW33005   1.280   3.452   3.164  0.1194 -0.2317 -0.8139
 8310SOL    HW233006   1.238   3.423   3.246 -0.7132  0.5655 -0.9423
 8310SOL    HW333007   1.345   3.384   3.146 -0.1581 -0.7820  0.1418
 8310SOL    MW433008   1.283   3.439   3.173 -0.0270 -0.1992 -0.7048
 8311SOL     OW33009   1.516   0.406   4.213 -0.2729 -0.3254 -0.1825
 8311SOL    HW233010   1.598   0.456   4.210 -1.0389  0.9639 -0.5447
 8311SOL    HW333011   1.470   0.440   4.290 -1.1312  0.1030 -0.8562
 8311SOL    MW433012   1.521   0.417   4.222 -0.4872 -0.0987 -0.3191
 8312SOL     OW33013   1.356   2.082   0.247  0.3640 -0.2141  0.3587
 8312SOL    HW233014   1.408   2.027   0.188 -0.0850 -0.3188  0.0531
 8312SOL    HW333015   1.318   2.021   0.310 -2.1109 -0.6801 -1.3954
 8312SOL    MW433016   1.358   2.066   0.248 -0.0218 -0.2894  0.0870
 8313SOL     OW33017   3.092   2.140   0.215  0.1926  0.4004  0.1154
 8313SOL    HW233018   3.102   2.234   0.205  2.5566  0.0613 -1.2566
 8313SOL    HW333019   3.108   2.124   0.308 -0.4697  1.3448  0.4078
 8313SOL    MW433020   3.095   2.150   0.226  0.4171  0.4803 -0.0270
 8314SOL     OW33021   6.449   4.697   0.507 -0.1103 -0.3718  0.0317
 8314SOL    HW233022   6.439   4.771   0.566 -0.8049 -0.3474 -0.1133
 8314SOL    HW333023   6.365   4.651   0.511  0.6316 -1.7214  0.8810
 8314SOL    MW433024   6.437   4.701   0.515 -0.1040 -0.5466  0.1246
 8315SOL     OW33025   0.599   1.104   0.192 -0.2758  0.1843 -0.4051
 8315SOL    HW233026   0.654   1.037   0.232 -1.3475 -0.4864 -0.0142
 8315SOL    HW333027   0.614   1.183   0.244 -1.4774 -0.6125  1.2295
 8315SOL    MW433028   0.608   1.106   0.204 -0.5757 -0.0093 -0.1378
 8316SOL     OW33029   2.291   2.902   3.408 -0.4815 -0.9940  0.3547
 8316SOL    HW233030   2.240   2.974   3.369 -0.7845 -0.0292  2.4051
 8316SOL    HW333031   2.378   2.939   3.421 -0.8354 -0.6841  2.1068
 8316SOL    MW433032   2.295   2.916   3.405 -0.5682 -0.8259  0.8564
 8317SOL     OW33033   1.399   4.308   2.680 -0.4938 -0.4178  0.3068
 8317SOL    HW233034   1.352   4.376   2.728 -0.6070  0.4532 -1.0160
 8317SOL    HW333035   1.385   4.329   2.588  2.4710 -0.1362 -0.1648
 8317SOL    MW433036   1.391   4.319   2.674 -0.1176 -0.2658  0.0700
 8318SOL     OW33037   1.906   2.289   1.228  0.1854  0.2669  0.6247
 8318SOL    HW233038   1.955   2.333   1.159 -2.5203  1.4902 -0.6687
 8318SOL    HW333039   1.947   2.202   1.235 -0.7135 -0.8375 -4.1871
 8318SOL    MW433040   1.918   2.283   1.220 -0.2902  0.2826 -0.1808
 8319SOL     OW33041   1.563   4.654   2.092  0.5921  0.3371 -0.0644
 8319SOL    HW233042   1.491   4.716   2.085  0.9844  0.8420  0.3488
 8319SOL    HW333043   1.616   4.670   2.014  1.3620  1.3900  0.6455
 8319SOL    MW433044   1.560   4.664   2.081  0.7454  0.5426  0.0838
 8320SOL     OW33045   3.745   2.327   5.423  0.3292 -0.3531  0.4776
 8320SOL    HW233046   3.827   2.373   5.402  0.4038 -1.1366 -1.0807
 8320SOL    HW333047   3.774   2.242   5.456  0.1397 -0.3453  0.6673
 8320SOL    MW433048   3.760   2.322   5.425  0.3140 -0.4555  0.2970
 8321SOL     OW33049   2.760   0.246   0.095 -0.2897 -0.0062  0.8444
 8321SOL    HW233050   2.712   0.244   0.013 -0.5552 -1.7844  1.0133
 8321SOL    HW333051   2.701   0.289   0.157 -0.9069 -0.4634  0.5829
 8321SOL    MW433052   2.746   0.251   0.092 -0.4062 -0.3011  0.8322
 8322SOL     OW33053   1.746   5.724   0.000  0.2328 -0.0187 -0.8558
 8322SOL    HW233054   1.710   5.809  -0.026  1.0749 -0.1524 -2.5719
 8322SOL    HW333055   1.759   5.677  -0.082  0.5820 -1.4955  0.0065
 8322SOL    MW433056   1.743   5.729  -0.014  0.3900 -0.2312 -0.9684
 8323SOL     OW33057   3.052   3.951   4.182 -0.5132  0.8765 -0.2430
 8323SOL    HW233058   3.002   3.942   4.264 -0.9685  2.8461 -0.2438
 8323SOL    HW333059   3.143   3.956   4.210 -0.2143 -2.4678 -0.2196
 8323SOL    MW433060   3.057   3.951   4.197 -0.5338  0.6951 -0.2400
 8324SOL     OW33061   2.409   3.284   3.716  0.2841  0.2520 -0.3872
 8324SOL    HW233062   2.435   3.225   3.788  0.1384  1.1758  0.4432
 8324SOL    HW333063   2.426   3.372   3.750 -1.7148  0.8009 -0.7003
 8324SOL    MW433064   2.415   3.288   3.730  0.0011  0.4463 -0.3190
 8325SOL     OW33065   3.525   1.565   0.625  0.3140  0.6845  0.2513
 8325SOL    HW233066   3.609   1.581   0.669 -0.2367  1.1077  1.1802
 8325SOL    HW333067   3.492   1.485   0.665  0.6613  0.0420 -0.7226
 8325SOL    MW433068   3.532   1.557   0.636  0.2871  0.6556  0.2454
 8326SOL     OW33069   0.861   5.335   3.112 -0.0618 -0.0041 -0.0883
 8326SOL    HW233070   0.861   5.243   3.141 -0.1885 -0.4133 -1.3346
 8326SOL    HW333071   0.810   5.334   3.031  1.4251  0.8491 -1.0649
 8326SOL    MW433072   0.854   5.322   3.105  0.1176  0.0545 -0.3816
 8327SOL     OW33073   0.614   0.395   4.942  0.0683  0.3737 -0.3636
 8327SOL    HW233074   0.549   0.419   5.007  0.7995 -1.2719  1.0473
 8327SOL    HW333075   0.694   0.439   4.970 -0.2182  1.9459 -1.7892
 8327SOL    MW433076   0.616   0.404   4.954  0.1270  0.3640 -0.3656
 8328SOL     OW33077   0.480   1.880   0.516 -0.0985  0.3174  0.1643
 8328SOL    HW233078   0.452   1.916   0.433  0.3605 -0.0908 -0.1747
 8328SOL    HW333079   0.573   1.862   0.504 -0.5294 -2.0231 -0.0684
 8328SOL    MW433080   0.489   1.883   0.504 -0.0948 -0.0453  0.0889
 8329SOL     OW33081   4.396   3.720   3.086 -0.4876  0.0824 -0.0305
 8329SOL    HW233082   4.434   3.799   3.048 -0.5355  0.0270 -0.1980
 8329SOL    HW333083   4.368   3.669   3.010  0.4426 -0.5481  0.0443
 8329SOL    MW433084   4.397   3.724   3.071 -0.3712 -0.0081 -0.0427
 8330SOL     OW33085   5.201   6.263   1.807 -0.3799 -0.3935 -0.2241
 8330SOL    HW233086   5.265   6.300   1.869  0.8464  0.4579 -1.8952
 8330SOL    HW333087   5.164   6.188   1.853  2.9784 -1.9067  0.3178
 8330SOL    MW433088   5.205   6.258   1.821  0.2250 -0.4808 -0.3730
 8331SOL     OW33089   0.174   5.894   4.777  0.0798  0.5149  0.1444
 8331SOL    HW233090   0.212   5.961   4.834  0.1023  1.1139 -0.5666
 8331SOL    HW333091   0.112   5.941   4.723 -0.2188 -0.1210 -0.0717
 8331SOL    MW433092   0.171   5.909   4.778  0.0434  0.5101  0.0220
 8332SOL     OW33093   6.348   1.900   0.506  0.4081 -0.3528  0.1731
 8332SOL    HW233094   6.411   1.840   0.466  1.8709  1.3643 -0.2339
 8332SOL    HW333095   6.388   1.986   0.496 -1.2278  0.6104  1.4922
 8332SOL    MW433096   6.362   1.903   0.499  0.3852  0.0008  0.2934
 8333SOL     OW33097   3.411   0.427   3.928 -0.1055 -0.0027  0.3480
 8333SOL    HW233098   3.467   0.454   3.855 -1.8454 -0.0782 -1.0702
 8333SOL    HW333099   3.367   0.507   3.956 -0.5748 -0.2499  0.3188
 8333SOL    MW433100   3.413   0.441   3.922 -0.3970 -0.0453  0.1570
 8334SOL     OW33101   2.659   5.045   0.483 -0.5655  0.9547  0.2016
 8334SOL    HW233102   2.742   5.014   0.518  0.0369  1.3014 -0.8745
 8334SOL    HW333103   2.629   4.975   0.425 -0.0099  1.6512 -0.9678
 8334SOL    MW433104   2.666   5.032   0.480 -0.4127  1.0924 -0.0947
 8335SOL     OW33105   3.188   6.083   5.271 -0.0036  0.0275  0.4822
 8335SOL    HW233106   3.247   6.007   5.266 -1.9442 -1.4657 -0.9111
 8335SOL    HW333107   3.134   6.077   5.193 -0.3408  2.8285  0.3907
 8335SOL    MW433108   3.189   6.073   5.260 -0.3041  0.2000  0.2863
 8336SOL     OW33109   2.926   0.100   4.145  0.1355 -0.1003  0.4319
 8336SOL    HW233110   2.943   0.092   4.052  1.8690  0.5386  0.6610
 8336SOL    HW333111   2.923   0.009   4.177 -1.2590 -0.3450 -0.3490
 8336SOL    MW433112   2.928   0.087   4.137  0.1802 -0.0483  0.3591
 8337SOL     OW33113   1.867   2.628   2.049 -0.3518 -0.6385 -0.3437
 8337SOL    HW233114   1.870   2.566   1.977  2.1446 -0.6957 -0.2823
 8337SOL    HW333115   1.949   2.614   2.097 -0.6201  1.3371  0.8364
 8337SOL    MW433116   1.879   2.618   2.046 -0.0579 -0.3854 -0.1799
 8338SOL     OW33117   0.983   5.376   3.660  0.2677 -0.5202  0.1023
 8338SOL    HW233118   0.892   5.394   3.636  0.6818 -0.1320 -1.2637
 8338SOL    HW333119   1.024   5.462   3.666  0.6405 -0.7101  0.3394
 8338SOL    MW433120   0.976   5.389   3.658  0.3715 -0.4940 -0.0466
 8339SOL     OW33121   6.339   3.950   5.625  0.1907  0.4757 -0.5099
 8339SOL    HW233122   6.356   4.039   5.593 -0.5886  0.7596 -0.1465
 8339SOL    HW333123   6.277   3.913   5.562  0.7750  0.0608 -0.8519
 8339SOL    MW433124   6.333   3.957   5.612  0.1650  0.4584 -0.5070
 8340SOL     OW33125   1.492   4.642   3.599 -0.3534 -1.3630  0.4538
 8340SOL    HW233126   1.442   4.606   3.672 -3.0168 -2.8772 -1.9068
 8340SOL    HW333127   1.504   4.568   3.539  2.3992 -0.3702 -0.4149
 8340SOL    MW433128   1.487   4.628   3.600 -0.3416 -1.4318  0.0277
 8341SOL     OW33129   0.469   2.991   1.327  0.3672 -0.1169 -0.1445
 8341SOL    HW233130   0.431   3.076   1.351 -1.9207 -1.3741  1.1062
 8341SOL    HW333131   0.454   2.983   1.233  0.1366  0.6460 -0.1759
 8341SOL    MW433132   0.462   3.001   1.318  0.0349 -0.1821  0.0163
 8342SOL     OW33133   0.276   0.696   2.393 -0.1485  0.7841  0.0937
 8342SOL    HW233134   0.187   0.669   2.367 -1.0580  1.1118  2.6214
 8342SOL    HW333135   0.282   0.674   2.486  2.9710 -0.4841 -0.2830
 8342SOL    MW433136   0.265   0.689   2.402  0.1431  0.6600  0.3775
 8343SOL     OW33137   3.657   1.495   1.330  0.5286 -0.3167  0.1830
 8343SOL    HW233138   3.623   1.525   1.246 -0.6090 -1.2328  0.2871
 8343SOL    HW333139   3.609   1.414   1.348  0.9880 -0.3177  1.5599
 8343SOL    MW433140   3.646   1.488   1.321  0.4391 -0.4377  0.3784
 8344SOL     OW33141   5.245   1.667   1.500 -0.1867 -0.0230  0.2577
 8344SOL    HW233142   5.161   1.711   1.489 -0.0183 -0.1401 -2.1438
 8344SOL    HW333143   5.294   1.691   1.421  1.7446 -0.5957  1.2258
 8344SOL    MW433144   5.240   1.676   1.488  0.0903 -0.1140  0.0686
 8345SOL     OW33145   1.051   2.077   5.633  0.1659  0.1512  0.1171
 8345SOL    HW233146   1.125   2.073   5.694 -0.2045  2.1487  0.7757
 8345SOL    HW333147   1.007   2.160   5.654 -1.7018 -0.5187 -0.9032
 8345SOL    MW433148   1.055   2.088   5.644 -0.1294  0.3263  0.0694
 8346SOL     OW33149   2.488   5.314   2.842  0.2762 -0.8274  0.5671
 8346SOL    HW233150   2.455   5.242   2.789 -1.5468 -1.3242  2.2710
 8346SOL    HW333151   2.520   5.378   2.779  0.0971 -2.2508 -1.0373
 8346SOL    MW433152   2.488   5.313   2.827  0.0120 -1.0807  0.5802
 8347SOL     OW33153   3.751   5.623   2.797 -0.0261 -0.0274  0.4192
 8347SOL    HW233154   3.709   5.545   2.761 -0.8546  0.0996  1.0933
 8347SOL    HW333155   3.818   5.589   2.857  0.9286 -0.2283 -0.7209
 8347SOL    MW433156   3.754   5.608   2.800 -0.0095 -0.0372  0.3577
 8348SOL     OW33157   3.816   2.508   6.148 -0.3188  0.0751  0.3989
 8348SOL    HW233158   3.817   2.494   6.053  0.7950  0.1079  0.3906
 8348SOL    HW333159   3.728   2.483   6.175 -1.1468  1.4502 -0.8530
 8348SOL    MW433160   3.804   2.503   6.139 -0.2811  0.2609  0.2327
 8349SOL     OW33161   3.919   3.743   4.947  0.4613  0.1552  0.2164
 8349SOL    HW233162   3.993   3.804   4.949 -1.2215  2.4515 -1.4134
 8349SOL    HW333163   3.959   3.656   4.949  3.1379  1.2863  0.2250
 8349SOL    MW433164   3.934   3.740   4.947  0.5924  0.6074  0.0025
 8350SOL     OW33165   0.628   1.724   5.442 -0.2110  0.1360 -0.5729
 8350SOL    HW233166   0.705   1.673   5.468 -0.1122 -1.2180 -3.2205
 8350SOL    HW333167   0.560   1.697   5.504  0.5790 -1.1794 -0.2349
 8350SOL    MW433168   0.629   1.713   5.454 -0.0937 -0.2162 -0.8776
 8351SOL     OW33169   3.697   0.845   2.381  0.3144  0.2393  0.4400
 8351SOL    HW233170   3.668   0.756   2.398  0.6364  0.0591  0.0784
 8351SOL    HW333171   3.748   0.838   2.299  2.6435  0.2589  1.7902
 8351SOL    MW433172   3.700   0.832   2.372  0.6642  0.2181  0.5704
 8352SOL     OW33173   1.143   1.647   4.391  0.1099  0.0209  0.1160
 8352SOL    HW233174   1.210   1.679   4.330 -0.0665 -0.6274 -0.4404
 8352SOL    HW333175   1.184   1.652   4.477  0.7470 -0.0122 -0.1776
 8352SOL    MW433176   1.157   1.652   4.394  0.1707 -0.0690  0.0039
 8353SOL     OW33177   1.896   3.064   5.048 -0.1225 -0.1101 -0.1467
 8353SOL    HW233178   1.810   3.104   5.034 -0.0687 -0.4785 -1.7544
 8353SOL    HW333179   1.951   3.136   5.077 -0.3700  0.7157 -1.6269
 8353SOL    MW433180   1.892   3.079   5.050 -0.1481 -0.0498 -0.5541
 8354SOL     OW33181   4.235   5.967   6.200 -0.2705  0.1402  0.1057
 8354SOL    HW233182   4.262   6.049   6.241  0.9546  0.0658 -0.5082
 8354SOL    HW333183   4.141   5.960   6.220 -0.6187  2.1201 -0.5394
 8354SOL    MW433184   4.226   5.977   6.208 -0.1548  0.3916 -0.0604
 8355SOL     OW33185   6.325   6.019   1.268 -0.2534  0.2562  0.0132
 8355SOL    HW233186   6.290   6.058   1.348 -0.5411 -0.5864  0.3023
 8355SOL    HW333187   6.420   6.014   1.283 -0.5615 -2.7449  1.6257
 8355SOL    MW433188   6.333   6.023   1.280 -0.3320 -0.2509  0.2641
 8356SOL     OW33189   6.137   5.589   5.910  0.3030 -0.0135 -0.0208
 8356SOL    HW233190   6.156   5.613   5.819  0.0946 -0.1973 -0.1121
 8356SOL    HW333191   6.220   5.601   5.956  0.1454  1.1726 -0.0044
 8356SOL    MW433192   6.150   5.594   5.904  0.2547  0.1187 -0.0306
 8357SOL     OW33193   1.844   5.821   4.769 -0.4391 -0.0660  0.1522
 8357SOL    HW233194   1.811   5.891   4.714 -0.2987 -0.7015 -0.7582
 8357SOL    HW333195   1.906   5.773   4.714  1.0956  0.3651  1.4268
 8357SOL    MW433196   1.848   5.824   4.755 -0.2181 -0.0929  0.2002
 8358SOL     OW33197   1.702   0.008   0.248 -0.2389  0.2305  0.0199
 8358SOL    HW233198   1.647  -0.052   0.198 -0.9747  0.2598  0.7736
 8358SOL    HW333199   1.641   0.073   0.283  0.6884  2.4229 -2.0917
 8358SOL    MW433200   1.687   0.009   0.246 -0.2136  0.5236 -0.1593
 8359SOL     OW33201   3.923   5.707   0.557  0.2356 -0.5795  0.0302
 8359SOL    HW233202   3.945   5.708   0.463 -1.5427 -3.1970 -0.5016
 8359SOL    HW333203   3.992   5.654   0.597 -0.5268 -1.8530 -0.2979
 8359SOL    MW433204   3.935   5.700   0.550 -0.0996 -1.0929 -0.0833
 8360SOL     OW33205   3.987   1.928   5.310 -0.4640 -0.0404  0.1224
 8360SOL    HW233206   3.942   1.998   5.357 -2.0265  0.3163 -1.7790
 8360SOL    HW333207   3.921   1.860   5.298  0.3135 -0.7559 -0.2283
 8360SOL    MW433208   3.973   1.929   5.314 -0.5675 -0.0877 -0.1747
 8361SOL     OW33209   6.450   4.221   5.935  0.0601 -0.8283  0.5237
 8361SOL    HW233210   6.538   4.237   5.901 -0.5877  0.8046 -0.5158
 8361SOL    HW333211   6.407   4.307   5.933 -2.0422 -1.8167 -0.4492
 8361SOL    MW433212   6.456   4.234   5.930 -0.3028 -0.7432  0.2582
 8362SOL     OW33213   0.883   3.746   2.131 -0.2371  0.0968 -0.0130
 8362SOL    HW233214   0.789   3.766   2.126 -0.3759 -0.6902 -0.7725
 8362SOL    HW333215   0.905   3.757   2.223 -0.5836  2.4147 -0.1373
 8362SOL    MW433216   0.873   3.750   2.142 -0.3012  0.2988 -0.1296
 8363SOL     OW33217   1.022   1.424   4.262  0.1168 -0.2181 -0.4154
 8363SOL    HW233218   1.033   1.350   4.322 -0.3650 -0.5998 -0.7918
 8363SOL    HW333219   1.057   1.499   4.310 -1.5204 -0.2524  0.9306
 8363SOL    MW433220   1.028   1.424   4.276 -0.1627 -0.2730 -0.2875
 8364SOL     OW33221   0.612   3.143   1.891 -0.2092 -0.0430 -0.0728
 8364SOL    HW233222   0.619   3.112   1.981  0.4090 -1.4453 -0.5787
 8364SOL    HW333223   0.584   3.067   1.841 -1.1995  0.8830 -0.9882
 8364SOL    MW433224   0.609   3.129   1.896 -0.2583 -0.1058 -0.2603
 8365SOL     OW33225   5.173   6.194   0.712  0.1804  0.6159  0.2426
 8365SOL    HW233226   5.249   6.230   0.667 -0.8163  0.6526 -1.4903
 8365SOL    HW333227   5.201   6.107   0.740  0.7945  0.5591 -0.5314
 8365SOL    MW433228   5.186   6.187   0.710  0.1299  0.6132 -0.0881
 8366SOL     OW33229   0.815   0.043   5.197  0.3695  0.2828  0.1270
 8366SOL    HW233230   0.770  -0.041   5.191  1.3814 -0.1738 -2.9084
 8366SOL    HW333231   0.770   0.098   5.133 -0.1533  2.0674  1.9158
 8366SOL    MW433232   0.803   0.039   5.188  0.4340  0.4580 -0.0375
 8367SOL     OW33233   5.649   5.989   2.428  0.3955  0.4813  0.1401
 8367SOL    HW233234   5.595   6.065   2.406 -1.2149 -0.7800 -0.4564
 8367SOL    HW333235   5.667   5.948   2.343 -1.0571 -1.2762  0.6304
 8367SOL    MW433236   5.644   5.994   2.414 -0.0086  0.0830  0.1261
 8368SOL     OW33237   4.846   4.022   5.240  0.2990  0.1642 -0.1061
 8368SOL    HW233238   4.866   4.101   5.188 -0.3296  0.4171  0.0289
 8368SOL    HW333239   4.765   3.989   5.203 -0.3981  0.5957  0.9858
 8368SOL    MW433240   4.838   4.028   5.228  0.1241  0.2545  0.0558
 8369SOL     OW33241   0.972   6.106   3.713  0.1508 -0.4916  0.0664
 8369SOL    HW233242   0.899   6.104   3.651 -2.0787  0.9202  2.4791
 8369SOL    HW333243   0.965   6.023   3.761  0.4655 -0.5904 -0.0573
 8369SOL    MW433244   0.962   6.095   3.711 -0.1018 -0.3184  0.3684
 8370SOL     OW33245   4.889   3.599   0.050 -0.7079  0.5495 -0.0175
 8370SOL    HW233246   4.858   3.611   0.140 -0.5321  1.9809 -0.1286
 8370SOL    HW333247   4.812   3.618  -0.004 -0.6969  0.1138 -0.1913
 8370SOL    MW433248   4.875   3.603   0.055 -0.6832  0.6809 -0.0551
 8371SOL     OW33249   4.110   1.010   5.561 -0.0869  0.0179 -0.3608
 8371SOL    HW233250   4.039   1.061   5.598 -1.8461 -2.5909  0.0918
 8371SOL    HW333251   4.166   0.987   5.635 -0.0359  0.1349 -0.3622
 8371SOL    MW433252   4.108   1.014   5.575 -0.3123 -0.3109 -0.3013
 8372SOL     OW33253   4.721   6.052   5.273 -0.4016  0.1862 -0.9453
 8372SOL    HW233254   4.795   5.992   5.278 -1.9489 -1.7261  0.8132
 8372SOL    HW333255   4.692   6.048   5.182 -0.1453 -1.3663 -0.9768
 8372SOL    MW433256   4.727   6.044   5.262 -0.5720 -0.2710 -0.7175
 8373SOL     OW33257   2.179   2.209   2.870  0.2044  0.3891  0.4266
 8373SOL    HW233258   2.123   2.137   2.900 -0.5309  0.4322 -0.7841
 8373SOL    HW333259   2.168   2.277   2.937  1.1903 -0.7163  1.7849
 8373SOL    MW433260   2.171   2.208   2.883  0.2375  0.2489  0.4461
 8374SOL     OW33261   6.418   0.961   5.821 -0.6762  0.2994  0.0002
 8374SOL    HW233262   6.481   0.897   5.789 -0.9892 -0.9510  1.7390
 8374SOL    HW333263   6.454   1.045   5.794 -0.4499 -0.5482 -2.6898
 8374SOL    MW433264   6.431   0.964   5.813 -0.6876  0.0226 -0.1253
 8375SOL     OW33265   1.039   3.880   0.630 -0.2688 -0.3855  0.9752
 8375SOL    HW233266   1.012   3.860   0.720 -0.7768 -0.7341  0.7475
 8375SOL    HW333267   1.030   3.975   0.623 -2.1608 -0.5550  0.6856
 8375SOL    MW433268   1.034   3.889   0.641 -0.5854 -0.4539  0.9070
 8376SOL     OW33269   0.440   0.151   1.235 -0.6123  0.3302  0.1329
 8376SOL    HW233270   0.466   0.240   1.212 -1.7305  0.6408  0.0216
 8376SOL    HW333271   0.371   0.130   1.172  0.2704 -0.9711 -0.4533
 8376SOL    MW433272   0.435   0.160   1.223 -0.6434  0.1995  0.0409
 8377SOL     OW33273   2.728   5.362   6.045  0.1438 -0.2015  0.2361
 8377SOL    HW233274   2.656   5.312   6.005 -1.0818  1.2933  0.4740
 8377SOL    HW333275   2.709   5.453   6.022 -0.2337  0.6696  3.5818
 8377SOL    MW433276   2.716   5.368   6.036 -0.0677  0.1107  0.7089
 8378SOL     OW33277   2.523   3.691   1.104  0.1546  0.3835 -0.5679
 8378SOL    HW233278   2.600   3.663   1.055 -1.4563 -0.6527 -2.6773
 8378SOL    HW333279   2.532   3.787   1.109  1.0234  0.3912 -1.7713
 8378SOL    MW433280   2.534   3.700   1.098  0.0567  0.2478 -1.0050
 8379SOL     OW33281   3.121   2.332   4.006  0.3348 -0.2796  0.0789
 8379SOL    HW233282   3.162   2.350   4.090 -1.2244  0.7308  0.6678
 8379SOL    HW333283   3.160   2.395   3.946  0.6548 -0.2628  0.3027
 8379SOL    MW433284   3.132   2.342   4.009  0.1713 -0.1441  0.1861
 8380SOL     OW33285   3.121   0.650   6.195 -0.1809  0.2434  0.2592
 8380SOL    HW233286   3.063   0.585   6.236  0.6618 -0.7729 -0.1172
 8380SOL    HW333287   3.188   0.598   6.151  3.2029  1.2830  3.6001
 8380SOL    MW433288   3.122   0.634   6.195  0.3767  0.2465  0.6503
 8381SOL     OW33289   4.826   5.002   3.587  0.7382 -0.3863  0.7856
 8381SOL    HW233290   4.741   5.013   3.545  1.3042 -0.4492 -0.3974
 8381SOL    HW333291   4.847   4.910   3.576  1.5391 -0.1101 -0.0676
 8381SOL    MW433292   4.817   4.991   3.580  0.9186 -0.3582  0.5170
 8382SOL     OW33293   2.798   2.581   2.224  0.4181 -0.2376 -0.2222
 8382SOL    HW233294   2.849   2.570   2.304 -0.4505 -1.9275  0.1562
 8382SOL    HW333295   2.858   2.624   2.163  0.9388  1.5412  1.4626
 8382SOL    MW433296   2.813   2.585   2.227  0.3722 -0.2259  0.0500
 8383SOL     OW33297   4.998   6.139   3.291  0.0555  0.3526 -0.5484
 8383SOL    HW233298   4.988   6.205   3.360 -2.8791  1.0843 -1.5399
 8383SOL    HW333299   5.022   6.188   3.213  3.4202 -0.4842 -0.1860
 8383SOL    MW433300   5.000   6.154   3.290  0.1123  0.3388 -0.6314
 8384SOL     OW33301   5.028   0.498   1.716  0.0471 -0.3208 -0.3360
 8384SOL    HW233302   4.979   0.517   1.636 -0.9817 -0.5672  0.2206
 8384SOL    HW333303   4.975   0.432   1.761  1.2093 -1.0546 -0.0043
 8384SOL    MW433304   5.014   0.492   1.711  0.0647 -0.4501 -0.2188
 8385SOL     OW33305   6.042   2.881   0.497  0.0935  0.0135 -0.0086
 8385SOL    HW233306   6.108   2.829   0.450  0.1738 -0.4172  0.5666
 8385SOL    HW333307   6.071   2.971   0.487 -0.2937  0.0032 -1.4119
 8385SOL    MW433308   6.055   2.886   0.490  0.0530 -0.0447 -0.1179
 8386SOL     OW33309   3.064   4.734   1.983  0.3632 -0.3882  0.1167
 8386SOL    HW233310   3.061   4.716   1.889  3.2608 -0.2307 -0.0809
 8386SOL    HW333311   3.027   4.655   2.023 -2.5963  0.2443 -1.1115
 8386SOL    MW433312   3.059   4.721   1.976  0.3550 -0.2839 -0.0714
 8387SOL     OW33313   4.111   3.260   2.310 -0.4949  0.0246 -0.0036
 8387SOL    HW233314   4.138   3.226   2.225 -0.1287  1.0558 -0.3086
 8387SOL    HW333315   4.109   3.183   2.367 -1.2232 -0.7608 -1.0456
 8387SOL    MW433316   4.114   3.245   2.306 -0.5427  0.0571 -0.1813
 8388SOL     OW33317   4.128   1.546   3.548  0.2941 -0.2500  0.4092
 8388SOL    HW233318   4.128   1.573   3.640  1.8632 -0.6262  0.5575
 8388SOL    HW333319   4.052   1.590   3.510 -0.1445  0.2463  1.7819
 8388SOL    MW433320   4.118   1.556   3.555  0.4433 -0.2341  0.6099
 8389SOL     OW33321   5.222   4.196   4.050  0.0949 -0.1585 -0.3339
 8389SOL    HW233322   5.305   4.203   4.002  0.2630  0.8666  0.0905
 8389SOL    HW333323   5.175   4.277   4.029 -1.3752 -1.2813 -1.5945
 8389SOL    MW433324   5.227   4.208   4.041 -0.0769 -0.1714 -0.4442
 8390SOL     OW33325   4.215   4.133   2.620  0.0189 -0.0527  0.6114
 8390SOL    HW233326   4.216   4.154   2.527 -0.1633  1.1183  0.8625
 8390SOL    HW333327   4.128   4.159   2.650  0.5751  0.9803  1.4023
 8390SOL    MW433328   4.204   4.139   2.612  0.0682  0.2381  0.7489
 8391SOL     OW33329   1.956   4.238   6.304  0.6351 -0.5503  0.6269
 8391SOL    HW233330   1.898   4.299   6.258  0.5270 -0.0167  1.4536
 8391SOL    HW333331   1.904   4.206   6.378  0.9874 -0.9889  0.6872
 8391SOL    MW433332   1.941   4.242   6.308  0.6673 -0.5378  0.7439
 8392SOL     OW33333   3.385   2.359   2.967  0.1771  0.0052 -0.6475
 8392SOL    HW233334   3.333   2.286   2.999  0.4333  0.1133  0.0296
 8392SOL    HW333335   3.471   2.321   2.949  0.2858  0.1232 -0.3774
 8392SOL    MW433336   3.390   2.345   2.968  0.2252  0.0350 -0.5225
 8393SOL     OW33337   2.505   3.048   1.013 -0.1561  0.3724 -0.6794
 8393SOL    HW233338   2.465   3.127   1.049  1.2773  0.6200  0.4931
 8393SOL    HW333339   2.598   3.072   1.001  0.1306 -0.8757 -1.1026
 8393SOL    MW433340   2.512   3.062   1.016  0.0708  0.2404 -0.5806
 8394SOL     OW33341   3.930   3.237   4.997  0.1584 -0.0215  0.4830
 8394SOL    HW233342   3.963   3.213   4.910  0.0637  0.3871  0.3343
 8394SOL    HW333343   3.949   3.330   5.005 -1.4774  0.3570  0.1647
 8394SOL    MW433344   3.937   3.246   4.987 -0.0699  0.0824  0.4214
 8395SOL     OW33345   4.007   0.914   2.627 -0.6085  0.0376  0.1166
 8395SOL    HW233346   4.020   0.950   2.715 -0.4674 -1.5838  0.7904
 8395SOL    HW333347   3.980   0.824   2.641 -0.5699 -0.2679 -1.5235
 8395SOL    MW433348   4.005   0.907   2.640 -0.5848 -0.2166 -0.0109
 8396SOL     OW33349   3.532   0.541   3.678 -0.3852 -0.1833  0.0667
 8396SOL    HW233350   3.453   0.551   3.624  1.3201  0.5557 -2.5207
 8396SOL    HW333351   3.548   0.629   3.712 -0.3594 -0.1867  0.0631
 8396SOL    MW433352   3.524   0.554   3.675 -0.1568 -0.0863 -0.2752
 8397SOL     OW33353   5.943   2.324   1.897  0.1495  0.4945  0.0715
 8397SOL    HW233354   5.971   2.411   1.869 -0.2612  0.4720 -0.4205
 8397SOL    HW333355   5.898   2.287   1.821  0.2259 -0.1076  0.3113
 8397SOL    MW433356   5.941   2.331   1.883  0.1054  0.4121  0.0382
 8398SOL     OW33357   4.521   0.247   6.325  0.0366 -0.4782  0.0680
 8398SOL    HW233358   4.565   0.259   6.409  0.3562  1.6057 -0.3326
 8398SOL    HW333359   4.435   0.287   6.337  0.7285  1.4996 -1.0489
 8398SOL    MW433360   4.516   0.254   6.338  0.1701  0.0577 -0.1322
 8399SOL     OW33361   4.531   4.290   5.327  0.0808 -0.0286 -0.1131
 8399SOL    HW233362   4.562   4.237   5.253  0.4122  0.3153 -0.2199
 8399SOL    HW333363   4.440   4.309   5.305  0.0572 -0.2693 -0.2350
 8399SOL    MW433364   4.523   4.285   5.314  0.1214 -0.0150 -0.1433
 8400SOL     OW33365   3.001   5.783   0.943 -0.1959  0.4909 -0.1043
 8400SOL    HW233366   3.018   5.770   1.036  0.2384 -2.8721 -0.5372
 8400SOL    HW333367   3.047   5.711   0.900 -3.7861 -0.5688 -2.5608
 8400SOL    MW433368   3.010   5.772   0.949 -0.6123 -0.0927 -0.4855
 8401SOL     OW33369   4.859   2.757   3.188  0.5233  0.0345  0.1053
 8401SOL    HW233370   4.864   2.789   3.098 -0.3482  1.6363  0.6029
 8401SOL    HW333371   4.941   2.708   3.200  1.2785  0.9321 -1.1212
 8401SOL    MW433372   4.871   2.754   3.178  0.5080  0.3642  0.0091
 8402SOL     OW33373   2.222   1.164   2.131  0.1459 -0.0214  0.0511
 8402SOL    HW233374   2.205   1.256   2.150 -1.0457  0.1703 -1.7318
 8402SOL    HW333375   2.316   1.161   2.113  0.1354  0.9168 -0.2295
 8402SOL    MW433376   2.232   1.176   2.131 -0.0127  0.1277 -0.2212
 8403SOL     OW33377   1.271   4.941   6.062 -0.5927 -0.0187 -0.3823
 8403SOL    HW233378   1.256   5.034   6.045 -1.5605 -0.5749 -3.0962
 8403SOL    HW333379   1.186   4.908   6.092 -0.8624 -0.3956 -1.5085
 8403SOL    MW433380   1.258   4.949   6.064 -0.7559 -0.1418 -0.8889
 8404SOL     OW33381   1.775   5.088   4.395  0.1336  0.1099  0.5769
 8404SOL    HW233382   1.794   5.062   4.486  0.0963 -0.4213  0.4363
 8404SOL    HW333383   1.686   5.056   4.380  0.4780 -0.6296  0.0549
 8404SOL    MW433384   1.766   5.080   4.405  0.1741 -0.0578  0.4895
 8405SOL     OW33385   3.167   3.480   2.219  0.0438  0.6959  0.5558
 8405SOL    HW233386   3.157   3.476   2.124 -1.0430  2.5245  0.5521
 8405SOL    HW333387   3.078   3.469   2.253  0.3268  0.7627  1.3354
 8405SOL    MW433388   3.154   3.478   2.211 -0.0623  0.9460  0.6581
 8406SOL     OW33389   3.969   1.323   3.201  0.0501  0.2680 -0.1697
 8406SOL    HW233390   3.896   1.382   3.183 -1.0472 -1.1059 -0.4472
 8406SOL    HW333391   4.044   1.364   3.160 -0.7616  1.2713 -0.6940
 8406SOL    MW433392   3.969   1.336   3.193 -0.2018  0.2191 -0.2754
 8407SOL     OW33393   0.324   1.221   1.869 -0.3854 -0.5656 -0.1947
 8407SOL    HW233394   0.237   1.260   1.865 -0.6561 -1.2637 -2.0605
 8407SOL    HW333395   0.318   1.142   1.816  1.5515 -0.2409 -0.9892
 8407SOL    MW433396   0.312   1.216   1.861 -0.1656 -0.6148 -0.5457
 8408SOL     OW33397   1.968   1.568   0.237 -0.0513 -0.3345 -0.5462
 8408SOL    HW233398   1.885   1.598   0.273  1.3599  2.1193  0.9350
 8408SOL    HW333399   1.967   1.473   0.252 -2.1788 -0.2517  0.2370
 8408SOL    MW433400   1.957   1.559   0.244 -0.1458  0.0002 -0.2475
 8409SOL     OW33401   0.857   4.382   2.324  0.3800  0.8004 -0.0021
 8409SOL    HW233402   0.787   4.363   2.387 -0.0487  1.7229 -0.1858
 8409SOL    HW333403   0.935   4.341   2.362 -0.6801 -2.3725 -0.9566
 8409SOL    MW433404   0.858   4.374   2.337  0.1836  0.5035 -0.1522
 8410SOL     OW33405   5.499   5.537   6.200 -0.5351  0.2544  0.4083
 8410SOL    HW233406   5.554   5.609   6.168  1.0631  0.8349  3.9629
 8410SOL    HW333407   5.554   5.459   6.192  0.4442  0.6292  2.7845
 8410SOL    MW433408   5.513   5.536   6.195 -0.1950  0.3805  1.1908
 8411SOL     OW33409   4.092   1.603   0.685 -0.7048 -0.4807  0.7578
 8411SOL    HW233410   4.092   1.522   0.736 -0.1617 -0.6111  0.5483
 8411SOL    HW333411   4.002   1.609   0.651 -0.5459 -1.3867  0.1520
 8411SOL    MW433412   4.080   1.593   0.687 -0.6122 -0.6174  0.6503
 8412SOL     OW33413   6.251   5.355   4.930  0.3360  0.2351 -0.4391
 8412SOL    HW233414   6.295   5.282   4.886 -0.1843 -0.1275 -0.3631
 8412SOL    HW333415   6.159   5.345   4.907  0.4561  1.7841 -1.7144
 8412SOL    MW433416   6.245   5.344   4.921  0.2832  0.3917 -0.5974
 8413SOL     OW33417   1.027   0.678   5.759  0.1035 -0.0216 -0.6115
 8413SOL    HW233418   1.033   0.647   5.669  0.2741 -0.3473 -0.4896
 8413SOL    HW333419   1.102   0.736   5.770  1.1314 -1.3959 -0.1363
 8413SOL    MW433420   1.037   0.682   5.748  0.2616 -0.2459 -0.5327
 8414SOL     OW33421   4.416   6.132   3.927 -0.5071 -0.1325  0.2580
 8414SOL    HW233422   4.487   6.070   3.910 -1.8749 -1.4324 -1.0226
 8414SOL    HW333423   4.437   6.208   3.872  0.3168 -0.1285  0.5576
 8414SOL    MW433424   4.429   6.134   3.917 -0.5789 -0.3035  0.1286
 8415SOL     OW33425   0.597   6.236   0.123 -0.0847 -0.1072 -0.1066
 8415SOL    HW233426   0.650   6.167   0.083  0.8305  1.1989 -1.2390
 8415SOL    HW333427   0.587   6.302   0.054  0.3860  1.6077  1.3942
 8415SOL    MW433428   0.603   6.236   0.109  0.0982  0.2914 -0.0580
 8416SOL     OW33429   3.069   4.271   0.366 -0.2876 -0.4637 -0.2565
 8416SOL    HW233430   3.013   4.240   0.295 -0.3642 -2.1419  0.4879
 8416SOL    HW333431   3.134   4.202   0.378  0.8610  0.6231  0.1074
 8416SOL    MW433432   3.070   4.258   0.358 -0.1462 -0.5417 -0.1103
 8417SOL     OW33433   0.511   4.997   2.256 -0.4953  0.0593 -0.4511
 8417SOL    HW233434   0.451   4.930   2.287  0.1716 -0.2712  0.1407
 8417SOL    HW333435   0.584   4.995   2.317  0.1077  0.4811 -1.1389
 8417SOL    MW433436   0.512   4.988   2.268 -0.3277  0.0714 -0.4638
 8418SOL     OW33437   6.244   0.833   3.204 -0.4755 -0.2301 -0.2485
 8418SOL    HW233438   6.166   0.836   3.149  0.3104  0.3571 -1.3664
 8418SOL    HW333439   6.252   0.921   3.240 -0.5435 -0.4006  0.1998
 8418SOL    MW433440   6.235   0.845   3.202 -0.3808 -0.1752 -0.3368
 8419SOL     OW33441   0.767   1.092   2.563 -0.1866  0.2006  0.1277
 8419SOL    HW233442   0.851   1.063   2.596  0.1861 -0.8432 -1.6193
 8419SOL    HW333443   0.781   1.184   2.540  0.4255  0.0776 -0.0036
 8419SOL    MW433444   0.780   1.100   2.564 -0.0566  0.0467 -0.1201
 8420SOL     OW33445   1.293   2.215   0.507  0.0177 -0.3897 -0.1856
 8420SOL    HW233446   1.244   2.281   0.556 -0.2950 -1.1377  0.5389
 8420SOL    HW333447   1.329   2.262   0.432  0.5528  0.8102  0.7812
 8420SOL    MW433448   1.291   2.230   0.504  0.0470 -0.3301  0.0375
 8421SOL     OW33449   5.564   1.934   0.847 -0.0500 -0.0262  0.3567
 8421SOL    HW233450   5.628   2.004   0.837 -0.1158 -0.2407 -1.9858
 8421SOL    HW333451   5.564   1.889   0.763 -3.3105 -0.0124  0.2456
 8421SOL    MW433452   5.573   1.937   0.835 -0.4889 -0.0527  0.0330
 8422SOL     OW33453   1.411   0.094   6.177  0.1707 -0.5805 -0.2228
 8422SOL    HW233454   1.388   0.156   6.108  0.3715  0.6017  0.7305
 8422SOL    HW333455   1.352   0.020   6.164  0.1827 -0.3756 -1.6260
 8422SOL    MW433456   1.401   0.092   6.166  0.1988 -0.3975 -0.2821
 8423SOL     OW33457   3.302   5.818   5.218  0.1668  0.2690 -0.2674
 8423SOL    HW233458   3.279   5.749   5.279 -0.4501 -0.5020 -1.3310
 8423SOL    HW333459   3.397   5.809   5.206 -0.0248 -0.9386 -1.0153
 8423SOL    MW433460   3.312   5.808   5.224  0.0602  0.0079 -0.5064
 8424SOL     OW33461   2.780   1.282   4.210  0.2920 -0.0209 -0.3614
 8424SOL    HW233462   2.783   1.187   4.203 -2.0674 -0.1059 -1.0071
 8424SOL    HW333463   2.862   1.305   4.253  0.9610 -2.3207 -0.2501
 8424SOL    MW433464   2.792   1.272   4.215  0.0690 -0.3355 -0.4319
 8425SOL     OW33465   2.019   0.177   3.961 -0.1053  0.0085 -0.2939
 8425SOL    HW233466   2.029   0.098   4.014  0.0527  0.2188 -0.0061
 8425SOL    HW333467   1.970   0.237   4.017  0.1061  0.2508 -0.3654
 8425SOL    MW433468   2.014   0.175   3.975 -0.0565  0.0682 -0.2654
 8426SOL     OW33469   0.927   0.952   4.870  0.1275 -0.3481 -0.2277
 8426SOL    HW233470   1.002   0.955   4.930 -0.6202 -0.9269  0.7589
 8426SOL    HW333471   0.965   0.931   4.785  1.3315  1.4757 -0.1859
 8426SOL    MW433472   0.942   0.950   4.867  0.1877 -0.1838 -0.0920
 8427SOL     OW33473   0.626   0.454   6.179 -0.0002  0.0148  0.0509
 8427SOL    HW233474   0.597   0.464   6.089  2.1006 -0.2055 -0.7147
 8427SOL    HW333475   0.589   0.529   6.226 -1.1630  0.0965 -0.9678
 8427SOL    MW433476   0.618   0.465   6.173  0.1235 -0.0035 -0.1845
 8428SOL     OW33477   4.637   6.300   0.937  0.5378  0.2368  0.1004
 8428SOL    HW233478   4.574   6.352   0.887 -1.0772 -1.8882 -0.2131
 8428SOL    HW333479   4.595   6.290   1.023  1.4743  0.5902  0.6081
 8428SOL    MW433480   4.623   6.305   0.942  0.4483  0.0030  0.1260
 8429SOL     OW33481   5.229   0.838   1.667  0.3549  0.5246 -0.1171
 8429SOL    HW233482   5.258   0.779   1.598  1.9244  1.4239 -0.2614
 8429SOL    HW333483   5.255   0.925   1.637 -2.0999  1.3611 -0.0130
 8429SOL    MW433484   5.236   0.842   1.654  0.2381  0.7536 -0.1224
 8430SOL     OW33485   4.417   0.626   4.512 -0.2078  0.0001 -0.1186
 8430SOL    HW233486   4.332   0.669   4.514  0.0059  0.6600 -2.3014
 8430SOL    HW333487   4.397   0.532   4.512 -0.9241  0.1484 -0.3458
 8430SOL    MW433488   4.403   0.619   4.513 -0.2741  0.1067 -0.4365
 8431SOL     OW33489   0.802   2.492   0.984  0.0971 -0.2811  0.3445
 8431SOL    HW233490   0.818   2.582   0.955  0.7954  0.2360  2.1757
 8431SOL    HW333491   0.878   2.443   0.952  0.0365 -0.0829 -0.1091
 8431SOL    MW433492   0.814   2.497   0.976  0.1812 -0.1868  0.5263
 8432SOL     OW33493   1.246   1.873   6.389 -0.1912  0.1739 -0.9283
 8432SOL    HW233494   1.333   1.872   6.429  0.7932 -0.5422 -2.9381
 8432SOL    HW333495   1.214   1.783   6.400 -1.1895  0.7000  0.7663
 8432SOL    MW433496   1.253   1.861   6.395 -0.1930  0.1488 -0.9699
 8433SOL     OW33497   5.108   3.583   5.120  0.4686 -0.3978  0.5113
 8433SOL    HW233498   5.148   3.596   5.034 -0.8164  0.8139  0.0671
 8433SOL    HW333499   5.071   3.668   5.143 -0.1092 -0.9703  1.8105
 8433SOL    MW433500   5.108   3.596   5.112  0.2229 -0.3134  0.6241
 8434SOL     OW33501   0.324   3.044   5.884 -0.2776  0.2010  0.1109
 8434SOL    HW233502   0.270   2.989   5.827  2.0539 -2.4661  0.2929
 8434SOL    HW333503   0.288   3.031   5.972  0.3998 -1.3438  0.1916
 8434SOL    MW433504   0.312   3.035   5.888  0.1194 -0.3547  0.1456
 8435SOL     OW33505   1.533   4.363   4.879 -0.2803  0.0268 -0.1782
 8435SOL    HW233506   1.615   4.383   4.834 -0.6400 -0.5547 -1.1454
 8435SOL    HW333507   1.557   4.347   4.970  0.9829 -1.9834 -0.7918
 8435SOL    MW433508   1.547   4.363   4.885 -0.1611 -0.3151 -0.3868
 8436SOL     OW33509   3.018   3.396   3.533  0.0366 -0.2513 -0.0220
 8436SOL    HW233510   2.931   3.433   3.515 -0.1581 -1.7164 -2.6574
 8436SOL    HW333511   3.077   3.471   3.527 -0.8331  0.4260 -0.3733
 8436SOL    MW433512   3.014   3.411   3.529 -0.1039 -0.3553 -0.4161
 8437SOL     OW33513   4.500   5.591   0.233 -0.1500  0.0480 -0.1467
 8437SOL    HW233514   4.503   5.673   0.283 -1.3023 -0.3359  0.5792
 8437SOL    HW333515   4.435   5.608   0.165 -1.3442 -0.6734  0.7878
 8437SOL    MW433516   4.492   5.604   0.230 -0.4596 -0.0979  0.0724
 8438SOL     OW33517   0.432   5.225   2.667  0.2181 -0.2187 -0.5747
 8438SOL    HW233518   0.462   5.135   2.656  0.7218  0.0183 -1.1846
 8438SOL    HW333519   0.367   5.220   2.737  0.8923 -0.9148  0.0175
 8438SOL    MW433520   0.428   5.212   2.675  0.3735 -0.2793 -0.5771
 8439SOL     OW33521   3.907   3.017   1.199  0.0133  0.6920 -0.0707
 8439SOL    HW233522   3.850   2.940   1.199  1.1552 -0.1945  0.8949
 8439SOL    HW333523   3.979   2.993   1.141  0.4184  1.0103  0.2995
 8439SOL    MW433524   3.909   3.003   1.191  0.2174  0.6171  0.1056
 8440SOL     OW33525   0.151   5.730   0.362 -0.5041  0.4749  0.1819
 8440SOL    HW233526   0.132   5.637   0.372  0.2871  0.4884  2.5311
 8440SOL    HW333527   0.246   5.734   0.353 -0.6672  0.9829 -1.5517
 8440SOL    MW433528   0.161   5.718   0.362 -0.4212  0.5437  0.2631
 8441SOL     OW33529   3.703   4.036   1.335  0.2774  0.3209  0.4382
 8441SOL    HW233530   3.783   4.011   1.380  0.6940 -0.3572 -0.6300
 8441SOL    HW333531   3.731   4.054   1.245 -0.3474  2.6743  0.6446
 8441SOL    MW433532   3.717   4.035   1.329  0.2500  0.5419  0.3245
 8442SOL     OW33533   1.349   2.338   3.481  0.3764 -0.3303 -0.0460
 8442SOL    HW233534   1.380   2.293   3.402 -0.8059 -0.5343 -0.4281
 8442SOL    HW333535   1.400   2.300   3.552  0.5648 -1.0827 -0.5662
 8442SOL    MW433536   1.360   2.327   3.480  0.2453 -0.4565 -0.1650
 8443SOL     OW33537   4.099   4.449   2.996  0.3478  0.4107 -0.0519
 8443SOL    HW233538   4.094   4.523   3.056  0.1220  0.0992  0.3176
 8443SOL    HW333539   4.035   4.468   2.928  2.4979  2.1023 -1.7167
 8443SOL    MW433540   4.090   4.461   2.995  0.6017  0.5928 -0.2228
 8444SOL     OW33541   5.847   2.459   2.326  0.3078  0.2735 -0.0750
 8444SOL    HW233542   5.823   2.381   2.375  1.6457 -0.7159 -0.9083
 8444SOL    HW333543   5.804   2.531   2.371 -0.9488 -0.9445  0.7229
 8444SOL    MW433544   5.838   2.458   2.338  0.3185 -0.0177 -0.0797
 8445SOL     OW33545   3.032   6.243   5.518  0.6072 -0.3274  0.0104
 8445SOL    HW233546   3.015   6.294   5.439 -0.1770 -0.4756  0.0766
 8445SOL    HW333547   3.001   6.155   5.497 -0.5764 -0.1277  0.8255
 8445SOL    MW433548   3.026   6.238   5.505  0.3476 -0.3206  0.1267
 8446SOL     OW33549   1.848   5.277   0.992  0.1059  0.4365  0.3772
 8446SOL    HW233550   1.863   5.283   1.087  0.0155  0.7232  0.3752
 8446SOL    HW333551   1.874   5.188   0.969 -0.5959  0.1153  0.7961
 8446SOL    MW433552   1.854   5.266   1.002  0.0014  0.4319  0.4322
 8447SOL     OW33553   6.295   1.128   3.715  0.1762 -0.2192 -0.8329
 8447SOL    HW233554   6.323   1.106   3.804 -1.3441 -2.0327 -0.7423
 8447SOL    HW333555   6.247   1.211   3.724  0.3729 -0.1921 -0.0255
 8447SOL    MW433556   6.292   1.136   3.728  0.0016 -0.4549 -0.7144
 8448SOL     OW33557   2.730   6.241   4.375 -0.0783  0.1399 -0.6653
 8448SOL    HW233558   2.771   6.303   4.436  0.4991  0.9280 -1.8083
 8448SOL    HW333559   2.757   6.155   4.406  0.2876  0.5302  0.1296
 8448SOL    MW433560   2.739   6.238   4.387  0.0461  0.2954 -0.7112
 8449SOL     OW33561   3.564   3.542   0.809  0.1279  0.2114  0.2651
 8449SOL    HW233562   3.586   3.505   0.894  0.2857  0.5273  0.3604
 8449SOL    HW333563   3.519   3.471   0.763  0.2988 -0.0512  0.5040
 8449SOL    MW433564   3.561   3.528   0.814  0.1712  0.2184  0.3092
 8450SOL     OW33565   5.301   2.664   4.760  0.0278 -0.0185  0.4709
 8450SOL    HW233566   5.247   2.587   4.778 -0.7521 -0.1272 -2.0021
 8450SOL    HW333567   5.237   2.735   4.746  0.6212  0.4403  0.0336
 8450SOL    MW433568   5.285   2.663   4.760  0.0032  0.0277  0.0870
 8451SOL     OW33569   0.387   5.928   4.612  0.2449  0.1540 -0.1877
 8451SOL    HW233570   0.317   5.902   4.673  0.2745  1.2763  0.3459
 8451SOL    HW333571   0.367   6.019   4.591  1.1764  0.2713 -0.5775
 8451SOL    MW433572   0.375   5.937   4.617  0.3717  0.3176 -0.1687
 8452SOL     OW33573   3.641   1.069   1.510 -0.3202 -0.2380 -0.1828
 8452SOL    HW233574   3.704   1.080   1.582 -2.4328  0.4339  1.6851
 8452SOL    HW333575   3.632   0.974   1.500  1.9308 -0.3855 -1.4437
 8452SOL    MW433576   3.648   1.058   1.519 -0.3019 -0.1688 -0.1027
 8453SOL     OW33577   3.156   5.569   5.400  0.0364  0.1343 -0.7985
 8453SOL    HW233578   3.193   5.638   5.456 -1.0286 -1.6781  2.4367
 8453SOL    HW333579   3.225   5.504   5.394 -0.2084 -0.1320 -0.7394
 8453SOL    MW433580   3.170   5.570   5.407 -0.1364 -0.1399 -0.3638
 8454SOL     OW33581   4.861   5.942   2.731  0.0834 -0.0770 -0.0604
 8454SOL    HW233582   4.809   5.975   2.805  0.6753  2.0143 -0.4989
 8454SOL    HW333583   4.849   5.847   2.733  0.4406 -0.1771  3.0196
 8454SOL    MW433584   4.853   5.934   2.741  0.2086  0.1857  0.2881
 8455SOL     OW33585   4.079   5.266   0.989 -0.2115  0.1245 -0.1297
 8455SOL    HW233586   4.120   5.350   0.970 -0.6822  0.5015  0.4973
 8455SOL    HW333587   4.079   5.220   0.904 -1.3432  1.3533 -0.8268
 8455SOL    MW433588   4.085   5.271   0.975 -0.4229  0.3364 -0.1389
 8456SOL     OW33589   5.320   2.466   6.030  0.0194 -0.1159  1.2351
 8456SOL    HW233590   5.298   2.551   6.067  0.3165  0.8176 -0.6270
 8456SOL    HW333591   5.412   2.453   6.053  0.1090  0.2951  1.1146
 8456SOL    MW433592   5.330   2.476   6.038  0.0705  0.0615  0.9735
 8457SOL     OW33593   1.912   5.461   4.719 -0.1478  0.8415  0.9209
 8457SOL    HW233594   1.819   5.449   4.699  0.5498 -0.1735 -2.3352
 8457SOL    HW333595   1.946   5.372   4.728  0.7024  1.1831  1.1559
 8457SOL    MW433596   1.904   5.448   4.718  0.0564  0.7526  0.5223
 8458SOL     OW33597   0.819   0.276   2.929  0.3800 -0.2159  0.0843
 8458SOL    HW233598   0.847   0.185   2.927  2.2925  0.3317 -1.1294
 8458SOL    HW333599   0.748   0.282   2.865  0.4490 -0.7929 -0.0487
 8458SOL    MW433600   0.814   0.265   2.921  0.6414 -0.2197 -0.0934
 8459SOL     OW33601   2.246   2.074   0.398  0.3820  0.0113 -0.1502
 8459SOL    HW233602   2.292   2.154   0.375  1.2409  0.1303  1.7910
 8459SOL    HW333603   2.155   2.091   0.376  0.9294  0.5195 -2.1895
 8459SOL    MW433604   2.240   2.087   0.392  0.5675  0.0941 -0.1632
 8460SOL     OW33605   4.153   4.106   4.465  0.1502  0.0579 -0.2332
 8460SOL    HW233606   4.237   4.061   4.473  0.1084 -0.0514 -0.4012
 8460SOL    HW333607   4.122   4.082   4.378  0.5319  1.1162 -0.6693
 8460SOL    MW433608   4.160   4.097   4.455  0.1951  0.1831 -0.3129
 8461SOL     OW33609   2.646   2.766   3.578 -0.0391  0.2087 -0.0810
 8461SOL    HW233610   2.625   2.857   3.558 -2.2003 -0.4563 -1.0778
 8461SOL    HW333611   2.722   2.746   3.524 -0.6885  0.9005 -1.2904
 8461SOL    MW433612   2.653   2.775   3.568 -0.4100  0.2123 -0.3721
 8462SOL     OW33613   2.936   5.261   0.498 -0.0213 -0.0073 -0.4147
 8462SOL    HW233614   3.003   5.328   0.513 -1.3009  0.7287  2.5974
 8462SOL    HW333615   2.870   5.305   0.444  0.1839  0.4753 -0.2813
 8462SOL    MW433616   2.936   5.276   0.493 -0.1630  0.1535  0.0003
 8463SOL     OW33617   2.197   4.495   4.322 -0.5391 -0.1156 -0.6516
 8463SOL    HW233618   2.233   4.512   4.409 -0.4660  0.9544 -0.8828
 8463SOL    HW333619   2.133   4.425   4.336  1.2771 -1.7619 -0.1662
 8463SOL    MW433620   2.194   4.488   4.335 -0.2898 -0.1916 -0.6180
 8464SOL     OW33621   3.758   2.456   1.255  0.8625  0.3770 -0.4492
 8464SOL    HW233622   3.835   2.409   1.288 -0.9902 -2.0402  0.7921
 8464SOL    HW333623   3.715   2.489   1.333 -0.8492 -0.8874 -0.8033
 8464SOL    MW433624   3.763   2.454   1.269  0.3922 -0.1087 -0.3322
 8465SOL     OW33625   0.105   1.478   2.290 -0.1342 -0.3674  0.3302
 8465SOL    HW233626   0.046   1.528   2.346  1.1695  0.4569  1.0272
 8465SOL    HW333627   0.157   1.426   2.350 -2.0667 -3.3838 -0.4162
 8465SOL    MW433628   0.104   1.478   2.305 -0.2172 -0.6566  0.3237
 8466SOL     OW33629   2.764   3.615   3.846 -0.8738 -0.7870 -0.7155
 8466SOL    HW233630   2.853   3.651   3.847 -0.6415 -1.3028  0.8944
 8466SOL    HW333631   2.708   3.691   3.867 -1.0539 -0.0563 -3.4831
 8466SOL    MW433632   2.769   3.630   3.849 -0.8669 -0.7586 -0.8683
 8467SOL     OW33633   6.127   0.793   4.522 -0.5739 -0.2397  0.8941
 8467SOL    HW233634   6.175   0.712   4.538 -1.5403 -0.7136  1.4694
 8467SOL    HW333635   6.063   0.797   4.593  0.5147  1.8717  1.8629
 8467SOL    MW433636   6.125   0.783   4.534 -0.5577 -0.0237  1.0978
 8468SOL     OW33637   2.871   0.812   2.520  0.0515 -0.4165 -0.3104
 8468SOL    HW233638   2.784   0.797   2.483  0.2639 -0.8631 -0.6428
 8468SOL    HW333639   2.906   0.724   2.533  0.3819 -0.2401 -0.0051
 8468SOL    MW433640   2.864   0.798   2.517  0.1231 -0.4521 -0.3139
 8469SOL     OW33641   2.509   1.564   1.062 -0.3072  0.0271  0.3646
 8469SOL    HW233642   2.587   1.512   1.080 -0.4484 -0.8239 -1.2596
 8469SOL    HW333643   2.435   1.510   1.089 -0.3702  0.9144  2.0917
 8469SOL    MW433644   2.510   1.550   1.068 -0.3341  0.0319  0.3782
 8470SOL     OW33645   4.667   4.605   0.216  0.2947  0.7430  0.2984
 8470SOL    HW233646   4.645   4.568   0.130  0.4684  2.5791 -0.5699
 8470SOL    HW333647   4.749   4.652   0.202 -0.0714  1.7061  1.2936
 8470SOL    MW433648   4.675   4.606   0.203  0.2693  1.1123  0.3151
 8471SOL     OW33649   5.747   1.352   4.889  0.2432  0.4531 -0.2545
 8471SOL    HW233650   5.666   1.399   4.874 -0.4389 -0.1477  1.3105
 8471SOL    HW333651   5.811   1.395   4.832 -1.1742  0.8788 -1.5704
 8471SOL    MW433652   5.745   1.364   4.880 -0.0338  0.4300 -0.2217
 8472SOL     OW33653   1.248   6.372   0.621 -0.3423 -0.7604 -0.6604
 8472SOL    HW233654   1.210   6.293   0.660  0.7037 -1.4731 -1.0129
 8472SOL    HW333655   1.342   6.353   0.618  0.1284  1.1478  0.7126
 8472SOL    MW433656   1.256   6.359   0.626 -0.1422 -0.6026 -0.5258
 8473SOL     OW33657   2.028   0.199   4.637  0.3405 -0.2039 -0.4176
 8473SOL    HW233658   2.030   0.122   4.694 -0.5586  0.1032  0.0438
 8473SOL    HW333659   2.048   0.165   4.550 -0.6948 -1.0705 -0.3316
 8473SOL    MW433660   2.031   0.185   4.633  0.0853 -0.2778 -0.3454
 8474SOL     OW33661   3.695   6.275   5.001 -0.7394 -0.3046  0.1314
 8474SOL    HW233662   3.651   6.337   5.059 -0.6196 -0.4663  0.3952
 8474SOL    HW333663   3.785   6.272   5.033 -1.0461 -1.5693  0.9152
 8474SOL    MW433664   3.701   6.283   5.013 -0.7641 -0.4928  0.2696
 8475SOL     OW33665   5.928   4.170   3.376 -0.0673 -0.2226 -0.1572
 8475SOL    HW233666   5.906   4.160   3.283 -0.4155  1.4152 -0.2875
 8475SOL    HW333667   5.844   4.161   3.421  0.1110 -1.0762  0.0144
 8475SOL    MW433668   5.914   4.168   3.370 -0.0897 -0.1191 -0.1517
 8476SOL     OW33669   5.570   4.872   5.201  0.5318  0.0249  0.8022
 8476SOL    HW233670   5.502   4.818   5.162  0.1829  0.2911  1.0297
 8476SOL    HW333671   5.565   4.854   5.295 -0.7724  1.7196  1.1141
 8476SOL    MW433672   5.560   4.863   5.208  0.3137  0.2836  0.8734
 8477SOL     OW33673   2.998   0.424   3.229 -0.2812 -0.2932 -0.2203
 8477SOL    HW233674   3.056   0.481   3.179  0.2522 -0.7240 -0.1084
 8477SOL    HW333675   2.921   0.413   3.174 -0.4054  0.5417 -0.2353
 8477SOL    MW433676   2.996   0.430   3.215 -0.2272 -0.2399 -0.2075
 8478SOL     OW33677   1.372   1.902   1.607 -0.0231  0.2089 -0.1867
 8478SOL    HW233678   1.450   1.910   1.661  0.8275  0.9860 -1.4878
 8478SOL    HW333679   1.302   1.943   1.659  1.3849  3.8569 -0.8700
 8478SOL    MW433680   1.373   1.908   1.621  0.2749  0.7928 -0.4485
 8479SOL     OW33681   0.470   1.947   0.796 -0.9377  0.0275 -0.1708
 8479SOL    HW233682   0.465   1.949   0.701 -1.6945  3.1246 -0.1819
 8479SOL    HW333683   0.543   2.006   0.817  0.5244 -2.1326  1.1883
 8479SOL    MW433684   0.479   1.955   0.787 -0.8446  0.1511  0.0070
 8480SOL     OW33685   3.401   5.642   3.304 -0.4651 -0.3540 -0.0219
 8480SOL    HW233686   3.451   5.663   3.382 -0.2999 -0.3389 -0.1327
 8480SOL    HW333687   3.368   5.554   3.319 -0.5985 -0.2753  0.1503
 8480SOL    MW433688   3.403   5.633   3.316 -0.4609 -0.3416 -0.0138
 8481SOL     OW33689   5.988   1.231   1.567 -0.3864  0.1013 -0.1587
 8481SOL    HW233690   6.007   1.155   1.511  1.7211 -1.7330  2.7164
 8481SOL    HW333691   5.909   1.206   1.615 -1.5315  1.1814 -1.4018
 8481SOL    MW433692   5.980   1.217   1.566 -0.2594  0.0018  0.0566
 8482SOL     OW33693   2.630   6.097   0.977 -0.2905 -0.2566  0.2594
 8482SOL    HW233694   2.674   6.134   0.901  2.8872 -2.3170  0.9036
 8482SOL    HW333695   2.591   6.015   0.944  0.5374 -0.8302  0.6851
 8482SOL    MW433696   2.631   6.091   0.962  0.2380 -0.6042  0.4006
 8483SOL     OW33697   0.848   1.580   6.188  0.4000  0.2133  0.0265
 8483SOL    HW233698   0.852   1.597   6.283 -0.6240  1.3294 -0.1169
 8483SOL    HW333699   0.796   1.500   6.180  0.8856 -0.1519  0.4186
 8483SOL    MW433700   0.842   1.571   6.200  0.3289  0.3124  0.0593
 8484SOL     OW33701   2.950   5.433   5.252  0.2522 -0.0543 -0.6116
 8484SOL    HW233702   2.871   5.482   5.275 -0.0853 -1.9752  2.9810
 8484SOL    HW333703   3.020   5.478   5.300  0.6977 -0.5530 -0.7890
 8484SOL    MW433704   2.949   5.446   5.261  0.2664 -0.3735 -0.1610
 8485SOL     OW33705   1.731   0.108   5.971  0.0093  0.4836 -0.3887
 8485SOL    HW233706   1.716   0.016   5.994  0.7682  0.4563  0.0142
 8485SOL    HW333707   1.691   0.117   5.884  0.6120 -0.4256 -0.7727
 8485SOL    MW433708   1.723   0.097   5.962  0.1890  0.3600 -0.3862
 8486SOL     OW33709   6.123   6.084   0.682  0.0461  0.1123  0.0554
 8486SOL    HW233710   6.058   6.030   0.637 -0.0739 -0.3369  0.7402
 8486SOL    HW333711   6.207   6.042   0.661  0.0828  0.4736 -0.5285
 8486SOL    MW433712   6.126   6.071   0.674  0.0351  0.1007  0.0688
 8487SOL     OW33713   3.568   4.490   0.468 -0.3372  0.2756  0.0931
 8487SOL    HW233714   3.562   4.485   0.373  0.7496 -1.2175  0.0518
 8487SOL    HW333715   3.533   4.406   0.498  1.3184 -0.1833  0.8543
 8487SOL    MW433716   3.563   4.478   0.460  0.0247  0.0181  0.1881
 8488SOL     OW33717   1.022   3.055   1.293 -0.2817  0.1458  0.6542
 8488SOL    HW233718   1.070   3.047   1.210  0.7986  1.9275  1.0514
 8488SOL    HW333719   1.037   2.971   1.337  1.6271  0.2481  0.2879
 8488SOL    MW433720   1.031   3.043   1.288  0.1127  0.3944  0.6583
 8489SOL     OW33721   1.831   0.593   3.287 -1.1493  0.5300  0.1830
 8489SOL    HW233722   1.855   0.554   3.371  1.3600 -1.7176 -1.4215
 8489SOL    HW333723   1.769   0.532   3.248 -0.1872  0.0806 -0.7078
 8489SOL    MW433724   1.826   0.580   3.293 -0.6913  0.1741 -0.1462
 8490SOL     OW33725   0.517   0.086   4.737 -0.1313 -0.7647 -0.3072
 8490SOL    HW233726   0.578   0.157   4.713 -2.2383  0.7746 -1.3856
 8490SOL    HW333727   0.501   0.101   4.831 -0.0059 -0.2415 -0.3620
 8490SOL    MW433728   0.523   0.098   4.746 -0.3927 -0.4926 -0.4567
 8491SOL     OW33729   2.988   4.110   5.530  0.1864 -0.0123  0.3986
 8491SOL    HW233730   2.940   4.085   5.610 -0.1827 -0.5288  0.0277
 8491SOL    HW333731   2.977   4.035   5.472 -0.3549  0.7401 -0.4994
 8491SOL    MW433732   2.980   4.097   5.533  0.0663  0.0189  0.2312
 8492SOL     OW33733   4.897   1.855   5.641 -0.5345  0.0071  0.4396
 8492SOL    HW233734   4.835   1.829   5.573 -1.5967  0.1778  1.3098
 8492SOL    HW333735   4.871   1.803   5.717 -0.5584  1.1548  1.2428
 8492SOL    MW433736   4.885   1.844   5.642 -0.6778  0.1811  0.6604
 8493SOL     OW33737   3.897   2.159   3.153 -0.1397 -0.1329 -0.5840
 8493SOL    HW233738   3.825   2.170   3.092 -0.9361  1.3684  0.5596
 8493SOL    HW333739   3.883   2.226   3.220  3.0177  1.1326 -0.9866
 8493SOL    MW433740   3.886   2.169   3.154  0.1718  0.2321 -0.4862
 8494SOL     OW33741   1.557   1.993   3.692 -0.0405  0.2045 -0.1349
 8494SOL    HW233742   1.580   2.083   3.666  0.3874  0.7002  1.8246
 8494SOL    HW333743   1.501   2.004   3.768 -0.3437 -1.1955 -0.1433
 8494SOL    MW433744   1.553   2.007   3.699 -0.0241  0.0852  0.1225
 8495SOL     OW33745   1.385   0.525   1.592 -0.5407  0.6424 -0.9050
 8495SOL    HW233746   1.397   0.431   1.601 -1.8743  0.4692 -0.7829
 8495SOL    HW333747   1.437   0.562   1.664 -0.1067  0.0073 -0.8809
 8495SOL    MW433748   1.394   0.518   1.603 -0.6594  0.5357 -0.8857
 8496SOL     OW33749   5.092   2.051   5.982 -0.0003  0.5230 -0.0706
 8496SOL    HW233750   5.130   2.018   5.900 -2.4778  0.1074 -1.1464
 8496SOL    HW333751   5.167   2.080   6.033  1.5879  2.0883 -3.0421
 8496SOL    MW433752   5.107   2.050   5.978 -0.1176  0.6747 -0.6046
 8497SOL     OW33753   3.972   1.883   1.192 -0.0518 -0.0632 -0.4118
 8497SOL    HW233754   3.878   1.891   1.204  0.1067  0.1679  0.9115
 8497SOL    HW333755   3.991   1.791   1.213  0.0082 -0.1152 -0.6992
 8497SOL    MW433756   3.962   1.872   1.197 -0.0230 -0.0396 -0.2751
 8498SOL     OW33757   0.571   1.286   1.571 -0.0273 -0.6527  0.6233
 8498SOL    HW233758   0.525   1.347   1.628 -0.9510 -0.7869  0.0400
 8498SOL    HW333759   0.604   1.218   1.631 -2.7272 -1.9167  0.8692
 8498SOL    MW433760   0.569   1.285   1.587 -0.5054 -0.8372  0.5788
 8499SOL     OW33761   6.104   0.275   1.147  0.0248 -0.7150  0.4561
 8499SOL    HW233762   6.121   0.199   1.203  2.5148  0.7877  1.9365
 8499SOL    HW333763   6.174   0.336   1.168 -1.2589  1.5905 -1.4700
 8499SOL    MW433764   6.116   0.273   1.157  0.1840 -0.2126  0.3973
 8500SOL     OW33765   2.424   2.618   3.512  0.0629  0.2366  0.2572
 8500SOL    HW233766   2.512   2.654   3.509  0.0383  0.3129  0.3923
 8500SOL    HW333767   2.385   2.658   3.590 -0.1980  0.4534  0.0166
 8500SOL    MW433768   2.430   2.628   3.522  0.0252  0.2752  0.2433
 8501SOL     OW33769   1.194   0.067   4.238  0.1400 -0.2945 -0.2851
 8501SOL    HW233770   1.223   0.039   4.151  0.3873  0.2012 -0.3630
 8501SOL    HW333771   1.162  -0.014   4.279  1.5519 -0.8430 -0.2196
 8501SOL    MW433772   1.194   0.052   4.232  0.3589 -0.3014 -0.2868
 8502SOL     OW33773   2.163   0.834   6.383  0.4096  0.0076  0.2936
 8502SOL    HW233774   2.237   0.825   6.323 -1.7628  1.1600 -2.8385
 8502SOL    HW333775   2.123   0.747   6.386  0.0494  0.1159 -0.7332
 8502SOL    MW433776   2.167   0.822   6.375  0.0755  0.1739 -0.2551
 8503SOL     OW33777   1.718   2.225   2.102 -0.0959  0.0302  0.2349
 8503SOL    HW233778   1.631   2.256   2.126 -0.1121 -0.0973  0.3459
 8503SOL    HW333779   1.769   2.232   2.183 -0.2724 -0.8394  0.4367
 8503SOL    MW433780   1.713   2.230   2.116 -0.1213 -0.1014  0.2762
 8504SOL     OW33781   3.131   6.229   4.477 -0.2009 -0.8700  0.0629
 8504SOL    HW233782   3.216   6.241   4.436 -0.5706 -0.7592 -0.7049
 8504SOL    HW333783   3.073   6.207   4.404 -0.6301 -1.9368  0.7002
 8504SOL    MW433784   3.134   6.227   4.462 -0.3063 -0.9962  0.0457
 8505SOL     OW33785   4.983   3.875   0.780  0.4995  0.1987 -0.4547
 8505SOL    HW233786   5.056   3.885   0.842 -0.6245  0.0749  0.9628
 8505SOL    HW333787   4.905   3.875   0.836 -0.5248 -0.7219 -1.8180
 8505SOL    MW433788   4.982   3.876   0.796  0.2161  0.0609 -0.4476
 8506SOL     OW33789   5.775   1.858   0.025 -0.7859 -0.3106 -0.1452
 8506SOL    HW233790   5.841   1.841  -0.042  1.5744 -0.4858  2.0610
 8506SOL    HW333791   5.787   1.950   0.048 -0.9289 -0.4692  0.6107
 8506SOL    MW433792   5.785   1.868   0.019 -0.4933 -0.3546  0.2456
 8507SOL     OW33793   5.125   1.945   3.599 -0.1054  0.0475 -0.0424
 8507SOL    HW233794   5.068   2.021   3.589  0.8780  0.6369 -1.6051
 8507SOL    HW333795   5.203   1.980   3.643 -0.7601 -0.6716  1.7485
 8507SOL    MW433796   5.128   1.960   3.603 -0.0621  0.0304 -0.0123
 8508SOL     OW33797   3.808   0.176   3.734 -0.0180 -0.0928 -0.2534
 8508SOL    HW233798   3.798   0.248   3.672  1.0019 -0.3826 -0.7778
 8508SOL    HW333799   3.833   0.219   3.816  0.0268  0.1882 -0.4122
 8508SOL    MW433800   3.810   0.191   3.737  0.1225 -0.0940 -0.3435
 8509SOL     OW33801   0.398   0.696   3.309 -0.1059  0.1631 -0.2191
 8509SOL    HW233802   0.304   0.687   3.328 -0.0356  1.8372  1.1231
 8509SOL    HW333803   0.418   0.786   3.332  1.5473  0.2751 -1.9122
 8509SOL    MW433804   0.388   0.707   3.314  0.1215  0.3988 -0.2654
 8510SOL     OW33805   4.553   2.646   5.631 -0.1861 -0.0224  0.5592
 8510SOL    HW233806   4.623   2.585   5.654  0.0360 -0.0459 -0.1736
 8510SOL    HW333807   4.578   2.682   5.547 -0.5256  0.7826  0.7926
 8510SOL    MW433808   4.565   2.643   5.623 -0.2016  0.0807  0.4933
 8511SOL     OW33809   2.568   4.928   5.315 -0.2759 -0.1041 -0.6351
 8511SOL    HW233810   2.510   4.967   5.251 -1.2635  2.3459  1.5939
 8511SOL    HW333811   2.526   4.845   5.339 -1.9221  0.7757 -0.3909
 8511SOL    MW433812   2.555   4.922   5.310 -0.6234  0.3353 -0.3088
 8512SOL     OW33813   4.217   0.142   5.447  0.1391  0.3004 -0.1476
 8512SOL    HW233814   4.178   0.055   5.454  2.9233 -1.0319 -0.0614
 8512SOL    HW333815   4.179   0.191   5.521 -1.2893 -0.8708 -0.0588
 8512SOL    MW433816   4.206   0.137   5.458  0.3179 -0.0299 -0.1245
 8513SOL     OW33817   4.709   0.266   4.891 -0.3538  0.4134  0.2445
 8513SOL    HW233818   4.765   0.193   4.917 -1.2456 -0.1123  0.7151
 8513SOL    HW333819   4.645   0.227   4.832 -0.1892  1.0260 -0.3510
 8513SOL    MW433820   4.708   0.251   4.886 -0.4498  0.4249  0.2280
 8514SOL     OW33821   5.086   4.277   5.624  0.5191 -0.4211  0.0278
 8514SOL    HW233822   5.093   4.366   5.590 -0.7043 -0.7675 -1.2601
 8514SOL    HW333823   5.124   4.222   5.555 -0.8654 -1.0488 -0.2858
 8514SOL    MW433824   5.092   4.281   5.610  0.1750 -0.5496 -0.1835
 8515SOL     OW33825   0.546   6.127   1.768 -0.7237  0.2054 -0.3840
 8515SOL    HW233826   0.501   6.206   1.798  0.6228  0.8458  0.0611
 8515SOL    HW333827   0.524   6.060   1.832 -1.5724  0.3217 -0.5487
 8515SOL    MW433828   0.537   6.129   1.780 -0.6580  0.3053 -0.3470
 8516SOL     OW33829   3.567   1.586   2.118  0.1337 -0.6890 -0.0343
 8516SOL    HW233830   3.556   1.543   2.033  1.4437 -0.4345 -0.3557
 8516SOL    HW333831   3.555   1.516   2.182  0.8025 -1.2449 -0.5042
 8516SOL    MW433832   3.564   1.571   2.115  0.3948 -0.7288 -0.1387
 8517SOL     OW33833   2.684   5.299   3.888 -0.4551  0.5508 -1.0620
 8517SOL    HW233834   2.680   5.306   3.983  1.6448 -0.3153 -0.8457
 8517SOL    HW333835   2.692   5.205   3.871 -1.1058  0.6770 -2.1106
 8517SOL    MW433836   2.685   5.288   3.898 -0.2639  0.4532 -1.1718
 8518SOL     OW33837   5.264   4.776   1.179 -0.6699 -0.8784  0.3852
 8518SOL    HW233838   5.266   4.801   1.086 -0.7412 -0.5420  0.4721
 8518SOL    HW333839   5.266   4.681   1.178 -3.6651 -1.0322 -0.0643
 8518SOL    MW433840   5.265   4.767   1.167 -1.0745 -0.8543  0.3374
 8519SOL     OW33841   2.499   5.011   2.409 -0.1185  0.6185  0.3516
 8519SOL    HW233842   2.530   5.023   2.499  0.9345  1.5006 -0.1058
 8519SOL    HW333843   2.493   5.099   2.373  0.7646  0.2228 -0.8571
 8519SOL    MW433844   2.503   5.024   2.416  0.1369  0.6827  0.1318
 8520SOL     OW33845   1.738   3.859   6.357 -0.3113  0.3556  0.0695
 8520SOL    HW233846   1.770   3.870   6.268 -1.2679  1.6613 -0.1374
 8520SOL    HW333847   1.757   3.767   6.378  1.0807  0.3697 -0.9933
 8520SOL    MW433848   1.745   3.848   6.348 -0.2539  0.5297 -0.0981
 8521SOL     OW33849   1.425   4.643   3.237 -0.1726 -0.5801 -0.2069
 8521SOL    HW233850   1.388   4.728   3.215  0.6421  0.0569  0.7840
 8521SOL    HW333851   1.349   4.587   3.253 -0.7287  0.5452  1.2598
 8521SOL    MW433852   1.410   4.647   3.236 -0.1384 -0.3476  0.1173
 8522SOL     OW33853   6.070   2.136   3.495  0.1535  0.5362  0.3496
 8522SOL    HW233854   6.151   2.173   3.460  1.0175 -0.4589  1.2160
 8522SOL    HW333855   6.051   2.063   3.436  0.8126 -0.2411  1.0666
 8522SOL    MW433856   6.078   2.131   3.482  0.3545  0.3023  0.5585
 8523SOL     OW33857   1.378   2.934   0.034  0.4584 -0.3323 -0.1842
 8523SOL    HW233858   1.460   2.914  -0.009 -0.4844 -2.2963 -1.2175
 8523SOL    HW333859   1.361   3.026   0.015  1.3515 -0.4787 -1.8025
 8523SOL    MW433860   1.386   2.943   0.026  0.4518 -0.6107 -0.5340
 8524SOL     OW33861   1.026   4.039   1.423 -0.1854  0.6606 -0.3115
 8524SOL    HW233862   1.087   4.100   1.381 -0.6015  1.4896  0.2715
 8524SOL    HW333863   0.952   4.093   1.450 -0.8614 -0.2163 -0.3662
 8524SOL    MW433864   1.024   4.054   1.421 -0.3295  0.6542 -0.2418
 8525SOL     OW33865   0.379   3.448   1.394  0.7372 -0.4514  0.0205
 8525SOL    HW233866   0.290   3.448   1.357 -0.0080 -0.0137  1.7400
 8525SOL    HW333867   0.369   3.482   1.483  2.4811 -1.3724  0.6270
 8525SOL    MW433868   0.366   3.453   1.401  0.8690 -0.5152  0.3274
 8526SOL     OW33869   4.452   1.081   1.060 -0.1563 -0.3093 -0.0672
 8526SOL    HW233870   4.521   1.024   1.024  0.1405  1.4462 -2.5720
 8526SOL    HW333871   4.376   1.063   1.005  0.5578  3.0974 -2.4956
 8526SOL    MW433872   4.451   1.071   1.048 -0.0229  0.3718 -0.7181
 8527SOL     OW33873   5.330   4.661   3.065  0.0112 -0.4481 -0.5810
 8527SOL    HW233874   5.257   4.704   3.019  0.6009  0.3978 -0.7554
 8527SOL    HW333875   5.408   4.703   3.030  0.4674  1.9760  2.7976
 8527SOL    MW433876   5.330   4.672   3.054  0.1492 -0.0166 -0.1582
 8528SOL     OW33877   5.478   3.858   1.122 -0.5879 -0.4589 -0.0365
 8528SOL    HW233878   5.499   3.826   1.210  0.3847 -0.8493 -0.3923
 8528SOL    HW333879   5.448   3.780   1.075  0.5064 -0.6037 -0.5234
 8528SOL    MW433880   5.477   3.843   1.127 -0.3152 -0.5295 -0.1477
 8529SOL     OW33881   6.412   4.525   3.671  0.4999 -0.3544 -0.1495
 8529SOL    HW233882   6.317   4.514   3.673  0.5815 -1.2116  2.4478
 8529SOL    HW333883   6.431   4.593   3.736  1.7714 -1.6767  0.9476
 8529SOL    MW433884   6.402   4.532   3.680  0.6784 -0.6420  0.3380
 8530SOL     OW33885   4.373   1.940   5.169 -0.0328  0.4010  0.4824
 8530SOL    HW233886   4.290   1.977   5.141  0.5569  0.3030 -1.5437
 8530SOL    HW333887   4.362   1.845   5.158  0.8917  0.4825 -1.5735
 8530SOL    MW433888   4.361   1.932   5.164  0.1670  0.3989 -0.0562
 8531SOL     OW33889   3.865   0.142   6.005  0.1569 -0.4722 -0.2849
 8531SOL    HW233890   3.899   0.227   6.033 -0.3438 -0.3583 -0.0153
 8531SOL    HW333891   3.936   0.104   5.952  0.0835  0.4451 -1.0635
 8531SOL    MW433892   3.879   0.148   6.002  0.0811 -0.3362 -0.3520
 8532SOL     OW33893   0.203   3.931   3.791  0.0647 -0.0821 -0.0263
 8532SOL    HW233894   0.191   3.851   3.741  0.3291  0.1577 -0.4741
 8532SOL    HW333895   0.115   3.957   3.816 -0.0561 -0.2785 -0.2476
 8532SOL    MW433896   0.190   3.924   3.788  0.0837 -0.0764 -0.1146
 8533SOL     OW33897   2.003   5.674   4.568 -0.2767 -0.7871 -0.4446
 8533SOL    HW233898   1.963   5.663   4.482 -1.5995 -1.1162  0.1835
 8533SOL    HW333899   1.989   5.590   4.612 -0.1723 -0.4190  0.3045
 8533SOL    MW433900   1.996   5.661   4.562 -0.4374 -0.7819 -0.2629
 8534SOL     OW33901   3.193   1.358   5.477  0.1554  0.0366  0.4541
 8534SOL    HW233902   3.236   1.273   5.484 -0.9777 -0.4499  1.8492
 8534SOL    HW333903   3.192   1.392   5.567  0.4785  1.4888 -0.0562
 8534SOL    MW433904   3.199   1.351   5.490  0.0485  0.1640  0.5708
 8535SOL     OW33905   2.008   3.736   2.726  0.7312  0.6719  0.1873
 8535SOL    HW233906   2.056   3.776   2.799 -1.1882  4.0307 -0.1722
 8535SOL    HW333907   1.931   3.792   2.715 -0.4491 -1.2939 -2.7216
 8535SOL    MW433908   2.004   3.749   2.734  0.3223  0.8557 -0.2439
 8536SOL     OW33909   2.543   3.733   4.399 -0.1719 -0.2006 -0.1225
 8536SOL    HW233910   2.606   3.737   4.327 -1.3233 -0.2405 -1.1604
 8536SOL    HW333911   2.488   3.810   4.388 -1.6521 -1.2780 -0.5265
 8536SOL    MW433912   2.544   3.744   4.388 -0.5191 -0.3480 -0.3127
 8537SOL     OW33913   1.866   1.650   2.998  0.1031  0.0943 -0.3293
 8537SOL    HW233914   1.948   1.631   3.044  0.5376 -0.2773 -1.2355
 8537SOL    HW333915   1.808   1.578   3.023  0.3485 -0.1284 -0.3975
 8537SOL    MW433916   1.869   1.638   3.007  0.1928  0.0159 -0.4579
 8538SOL     OW33917   1.470   1.973   0.718 -0.0223  0.0569  0.2895
 8538SOL    HW233918   1.507   2.016   0.640 -0.9540  0.1878 -0.0996
 8538SOL    HW333919   1.529   1.900   0.736  0.8164  0.6795  0.1246
 8538SOL    MW433920   1.483   1.969   0.710 -0.0346  0.1563  0.2164
 8539SOL     OW33921   4.363   1.210   0.586  0.1414 -0.3257 -0.0108
 8539SOL    HW233922   4.367   1.264   0.664  0.6481 -0.9285  0.3897
 8539SOL    HW333923   4.270   1.200   0.568  0.0303  0.0401  0.3614
 8539SOL    MW433924   4.352   1.216   0.594  0.1936 -0.3570  0.0912
 8540SOL     OW33925   4.979   1.512   2.153 -0.5052 -0.1599 -0.2753
 8540SOL    HW233926   4.957   1.555   2.236 -2.5795  2.2108 -1.8736
 8540SOL    HW333927   5.054   1.456   2.173 -0.0764  1.3352  2.8742
 8540SOL    MW433928   4.986   1.510   2.167 -0.7223  0.3502 -0.0706
 8541SOL     OW33929   1.105   1.720   6.121  0.0351 -0.5459  0.2411
 8541SOL    HW233930   1.020   1.692   6.153  0.3030 -0.9609  0.6062
 8541SOL    HW333931   1.090   1.806   6.083 -0.9399 -1.4554 -1.5162
 8541SOL    MW433932   1.092   1.727   6.121 -0.0582 -0.7207  0.0574
 8542SOL     OW33933   2.179   4.700   5.981 -0.0468 -0.0347 -0.4389
 8542SOL    HW233934   2.112   4.654   6.031  0.1904  0.5502  0.4375
 8542SOL    HW333935   2.261   4.660   6.009  0.0220 -0.3501 -1.0770
 8542SOL    MW433936   2.181   4.689   5.991 -0.0064  0.0009 -0.4075
 8543SOL     OW33937   6.005   2.576   3.901  0.3508 -0.1766 -0.0600
 8543SOL    HW233938   5.931   2.615   3.855  0.2240  0.3589  0.5880
 8543SOL    HW333939   6.020   2.633   3.976  2.2262  0.4446 -0.8480
 8543SOL    MW433940   5.997   2.589   3.905  0.5815 -0.0240 -0.0785
 8544SOL     OW33941   3.198   3.054   3.970  0.1791  0.6579 -0.4296
 8544SOL    HW233942   3.163   3.124   3.916  0.1377  0.3195 -0.8525
 8544SOL    HW333943   3.266   3.095   4.023 -1.3821  1.5013  0.9950
 8544SOL    MW433944   3.202   3.069   3.970 -0.0324  0.7246 -0.2974
 8545SOL     OW33945   5.936   4.934   3.835  0.1265 -0.3446 -0.4420
 8545SOL    HW233946   5.930   4.954   3.742  1.0326 -0.5839 -0.5596
 8545SOL    HW333947   5.855   4.968   3.872  0.3191  0.9010 -1.1083
 8545SOL    MW433948   5.925   4.941   3.827  0.2714 -0.2118 -0.5454
 8546SOL     OW33949   5.121   1.943   0.356  0.4539 -0.4395 -0.5055
 8546SOL    HW233950   5.052   1.898   0.405  1.3150 -0.5438  0.6654
 8546SOL    HW333951   5.147   2.015   0.414  0.8338  0.0345 -1.2563
 8546SOL    MW433952   5.115   1.947   0.370  0.6176 -0.3907 -0.4501
 8547SOL     OW33953   3.779   2.962   3.576  0.4649  0.5199 -1.0043
 8547SOL    HW233954   3.776   3.041   3.522  1.2555  1.0823 -0.2527
 8547SOL    HW333955   3.871   2.935   3.574  0.4201  0.2970 -0.3043
 8547SOL    MW433956   3.791   2.969   3.569  0.5633  0.5647 -0.8127
 8548SOL     OW33957   3.318   0.852   1.476 -0.2316 -0.0158  0.0865
 8548SOL    HW233958   3.265   0.922   1.437 -2.3124 -1.0698  0.8785
 8548SOL    HW333959   3.311   0.780   1.413  0.3719 -0.1399  0.1603
 8548SOL    MW433960   3.310   0.852   1.462 -0.4265 -0.1713  0.2007
 8549SOL     OW33961   2.214   0.670   0.823  0.2316 -0.2846 -0.5856
 8549SOL    HW233962   2.197   0.750   0.774 -1.6284 -0.1318  0.2267
 8549SOL    HW333963   2.280   0.624   0.771  0.1758  1.0261 -1.8909
 8549SOL    MW433964   2.220   0.674   0.810 -0.0212 -0.0916 -0.6506
 8550SOL     OW33965   4.523   2.322   5.889  0.2804 -0.2475  0.2378
 8550SOL    HW233966   4.589   2.368   5.837 -1.0143  0.5628 -0.7512
 8550SOL    HW333967   4.496   2.249   5.834 -1.0409  0.5674 -0.2327
 8550SOL    MW433968   4.528   2.318   5.875 -0.0648 -0.0331  0.0452
 8551SOL     OW33969   0.651   3.096   3.600 -0.0039 -0.0827  0.0122
 8551SOL    HW233970   0.629   3.108   3.508  0.4149  0.3757 -0.0309
 8551SOL    HW333971   0.679   3.004   3.605  0.9266  0.1608 -0.5215
 8551SOL    MW433972   0.652   3.085   3.589  0.1741  0.0099 -0.0639
 8552SOL     OW33973   6.165   3.136   0.479 -0.1079 -0.0542 -0.0747
 8552SOL    HW233974   6.248   3.097   0.508 -0.3807 -0.8258 -0.2854
 8552SOL    HW333975   6.175   3.147   0.384 -0.8816 -1.8570 -0.4127
 8552SOL    MW433976   6.177   3.132   0.470 -0.2460 -0.3939 -0.1471
 8553SOL     OW33977   4.992   2.080   5.401 -0.4189 -0.1111  0.1872
 8553SOL    HW233978   4.917   2.131   5.431 -1.7997 -3.2610  2.7361
 8553SOL    HW333979   5.064   2.106   5.458 -0.4019  0.7083 -0.1959
 8553SOL    MW433980   4.992   2.090   5.412 -0.5989 -0.4185  0.4730
 8554SOL     OW33981   0.120   0.343   1.374  0.3024  0.0669  0.3289
 8554SOL    HW233982   0.161   0.259   1.394  0.3460 -0.3485 -1.3349
 8554SOL    HW333983   0.193   0.403   1.362  0.2520  0.6667  2.6371
 8554SOL    MW433984   0.135   0.340   1.375  0.3015  0.0913  0.4139
 8555SOL     OW33985   3.698   0.192   5.388  0.3125 -0.1559  1.0804
 8555SOL    HW233986   3.611   0.231   5.401  0.6411  0.0288  3.0021
 8555SOL    HW333987   3.751   0.227   5.459  1.8694 -0.6076  0.1951
 8555SOL    MW433988   3.693   0.202   5.399  0.5613 -0.1911  1.2171
 8556SOL     OW33989   1.768   0.252   2.126 -0.2654 -0.2328 -0.5960
 8556SOL    HW233990   1.803   0.167   2.155  0.9935  0.3220 -0.4297
 8556SOL    HW333991   1.759   0.303   2.207 -2.0643 -0.5418 -0.5537
 8556SOL    MW433992   1.771   0.247   2.141 -0.3366 -0.2004 -0.5684
 8557SOL     OW33993   4.775   0.014   3.175 -0.5708 -0.2023  0.6772
 8557SOL    HW233994   4.730  -0.023   3.251 -2.1549  0.1712 -0.0312
 8557SOL    HW333995   4.861  -0.028   3.175 -1.5978 -2.4361  0.9736
 8557SOL    MW433996   4.780   0.004   3.185 -0.9153 -0.4477  0.6229
 8558SOL     OW33997   4.589   2.683   4.847 -0.3001 -0.4706  0.4452
 8558SOL    HW233998   4.604   2.771   4.883  0.5276 -0.7444  0.7955
 8558SOL    HW333999   4.608   2.624   4.920 -0.7624 -0.9508  0.1834
 8558SOL    MW434000   4.594   2.687   4.861 -0.2519 -0.5701  0.4569
 8559SOL     OW34001   5.027   2.675   2.939  0.2810  0.5017 -0.1693
 8559SOL    HW234002   5.050   2.768   2.935  3.8318 -0.2447 -1.0332
 8559SOL    HW334003   4.999   2.653   2.850 -1.4318  0.8803  0.2522
 8559SOL    MW434004   5.027   2.684   2.926  0.5235  0.4532 -0.2277
 8560SOL     OW34005   0.479   1.636   2.272  0.7419 -0.2555 -0.2387
 8560SOL    HW234006   0.404   1.668   2.322  0.9616  2.5079 -1.5462
 8560SOL    HW334007   0.556   1.666   2.322  0.9888 -0.7741 -0.2946
 8560SOL    MW434008   0.480   1.644   2.285  0.8035  0.0407 -0.4186
 8561SOL     OW34009   0.681   4.799   1.073 -0.7476  0.0554 -0.4206
 8561SOL    HW234010   0.711   4.766   0.988 -0.5141 -0.7224 -0.0462
 8561SOL    HW334011   0.612   4.739   1.099 -0.6961  0.1872  0.0244
 8561SOL    MW434012   0.676   4.787   1.065 -0.7100 -0.0298 -0.3125
 8562SOL     OW34013   6.328   3.009   3.195 -0.1637 -0.0045 -0.5215
 8562SOL    HW234014   6.357   3.017   3.104 -0.9124  0.0478 -0.7668
 8562SOL    HW334015   6.402   2.970   3.241  0.8847  1.5766 -0.7976
 8562SOL    MW434016   6.341   3.005   3.189 -0.1242  0.2110 -0.5903
 8563SOL     OW34017   1.148   5.878   3.025 -0.3637 -0.2428  0.4809
 8563SOL    HW234018   1.095   5.932   2.967 -1.4478  0.3347  1.9368
 8563SOL    HW334019   1.195   5.941   3.080 -1.2911 -0.7290  1.8863
 8563SOL    MW434020   1.147   5.893   3.025 -0.6291 -0.2308  0.8584
 8564SOL     OW34021   3.980   2.487   3.170 -0.2591 -0.1751  0.2292
 8564SOL    HW234022   4.050   2.469   3.232  0.0361 -0.3111 -0.1402
 8564SOL    HW334023   4.019   2.472   3.084 -0.4917  0.6049 -0.0195
 8564SOL    MW434024   3.994   2.482   3.167 -0.2508 -0.0901  0.1477
 8565SOL     OW34025   1.782   5.938   1.651  0.2237 -0.0746  0.2686
 8565SOL    HW234026   1.853   5.974   1.703  1.2598  0.4612 -1.4625
 8565SOL    HW334027   1.782   5.844   1.672  3.3077 -0.6648 -1.6546
 8565SOL    MW434028   1.791   5.930   1.660  0.7673 -0.0818 -0.2136
 8566SOL     OW34029   6.131   6.217   5.170  0.2128  0.0918  0.2397
 8566SOL    HW234030   6.087   6.173   5.243  1.0832 -1.2199  0.0158
 8566SOL    HW334031   6.060   6.255   5.118 -0.4153  1.3922  1.9310
 8566SOL    MW434032   6.116   6.216   5.173  0.2448  0.0903  0.4333
 8567SOL     OW34033   6.040   6.045   5.923  0.0189  0.3485  0.0679
 8567SOL    HW234034   5.972   5.979   5.934  0.2390  0.0198 -0.4986
 8567SOL    HW334035   6.121   6.001   5.951  0.1559  0.3971 -0.2461
 8567SOL    MW434036   6.042   6.030   5.928  0.0660  0.3115 -0.0482
 8568SOL     OW34037   3.132   5.109   3.236 -0.4993  0.0816  0.0668
 8568SOL    HW234038   3.131   5.118   3.331  0.1731  1.9658 -0.0646
 8568SOL    HW334039   3.081   5.184   3.205  1.0049  0.6785 -1.0949
 8568SOL    MW434040   3.125   5.120   3.244 -0.2121  0.4089 -0.1038
 8569SOL     OW34041   2.188   5.955   0.321 -0.0318  0.5156  0.5378
 8569SOL    HW234042   2.095   5.935   0.315  0.3871 -1.1063 -1.7923
 8569SOL    HW334043   2.198   6.037   0.272 -0.2233  0.6619  0.7428
 8569SOL    MW434044   2.177   5.963   0.314 -0.0018  0.3209  0.2574
 8570SOL     OW34045   1.702   2.839   4.730 -0.2716 -0.7825 -0.1561
 8570SOL    HW234046   1.758   2.782   4.783 -3.5487 -2.7508  1.5840
 8570SOL    HW334047   1.736   2.927   4.745  1.0414 -1.6243  2.5347
 8570SOL    MW434048   1.714   2.843   4.739 -0.5308 -1.1533  0.4285
 8571SOL     OW34049   4.772   1.304   5.652 -0.7624  0.2054  0.1121
 8571SOL    HW234050   4.761   1.398   5.641  0.7810  0.3599 -0.4323
 8571SOL    HW334051   4.865   1.293   5.673 -0.7905 -1.2286 -0.4043
 8571SOL    MW434052   4.783   1.315   5.653 -0.5624  0.0366 -0.0279
 8572SOL     OW34053   0.552   4.921   5.384  0.8048  0.0489  0.2400
 8572SOL    HW234054   0.559   4.834   5.345  0.2685 -1.4936  3.3363
 8572SOL    HW334055   0.459   4.931   5.404  0.5916  2.0388 -1.3931
 8572SOL    MW434056   0.541   4.911   5.381  0.7059  0.1079  0.4330
 8573SOL     OW34057   3.202   0.416   5.241 -0.0111  0.0916 -0.2188
 8573SOL    HW234058   3.207   0.352   5.170  1.0729  1.8825 -1.8583
 8573SOL    HW334059   3.208   0.501   5.198  0.3564  1.2912  2.0060
 8573SOL    MW434060   3.204   0.419   5.226  0.1804  0.4861 -0.1416
 8574SOL     OW34061   0.873   0.247   4.038 -0.1183 -0.3998 -0.1385
 8574SOL    HW234062   0.867   0.333   3.996  2.5160 -0.5854 -1.0227
 8574SOL    HW334063   0.927   0.261   4.115 -0.4484 -1.1103  0.2333
 8574SOL    MW434064   0.879   0.260   4.043  0.1857 -0.5181 -0.2061
 8575SOL     OW34065   1.260   6.383   2.316  0.6897  0.1442  0.9016
 8575SOL    HW234066   1.258   6.354   2.407  0.1647  0.4510  0.9946
 8575SOL    HW334067   1.188   6.446   2.310  0.5236 -0.1096  0.1939
 8575SOL    MW434068   1.250   6.388   2.327  0.5985  0.1512  0.8205
 8576SOL     OW34069   4.730   3.572   3.091 -0.3020  0.2215 -0.2487
 8576SOL    HW234070   4.711   3.605   3.003 -1.8119 -0.0134 -0.0217
 8576SOL    HW334071   4.737   3.651   3.145 -0.6465  0.3087 -0.3312
 8576SOL    MW434072   4.729   3.587   3.086 -0.5466  0.2020 -0.2296
 8577SOL     OW34073   5.560   5.401   3.896  0.1268  0.4256  0.1785
 8577SOL    HW234074   5.531   5.309   3.890  0.5743  0.3157 -0.3298
 8577SOL    HW334075   5.510   5.436   3.969  0.4153 -0.4048  0.7955
 8577SOL    MW434076   5.550   5.393   3.905  0.2239  0.3015  0.1928
 8578SOL     OW34077   5.242   4.817   3.287 -0.4524  0.0705  1.0785
 8578SOL    HW234078   5.295   4.765   3.227 -0.0360  2.4616 -0.7473
 8578SOL    HW334079   5.262   4.780   3.374 -0.1888 -2.7118 -0.0606
 8578SOL    MW434080   5.252   4.805   3.291 -0.3627  0.0189  0.6873
 8579SOL     OW34081   5.340   3.084   4.271  0.2273 -0.1737 -0.8918
 8579SOL    HW234082   5.354   3.102   4.364  0.2328  0.2717 -0.9751
 8579SOL    HW334083   5.324   2.990   4.266  0.3907 -0.2227 -0.4592
 8579SOL    MW434084   5.340   3.074   4.283  0.2496 -0.1214 -0.8457
 8580SOL     OW34085   3.412   1.535   4.042 -0.2898 -0.2146 -0.5835
 8580SOL    HW234086   3.342   1.573   4.096 -0.5639 -2.1929  0.5497
 8580SOL    HW334087   3.369   1.511   3.961 -0.5208  0.1968 -0.5866
 8580SOL    MW434088   3.397   1.537   4.039 -0.3565 -0.4214 -0.4344
 8581SOL     OW34089   0.580   1.989   2.489  0.9773 -0.7237  0.6243
 8581SOL    HW234090   0.603   2.078   2.463 -1.1220 -0.1145  0.6686
 8581SOL    HW334091   0.650   1.964   2.550  1.4198  1.0220  0.9018
 8581SOL    MW434092   0.593   1.998   2.494  0.7587 -0.4130  0.6668
 8582SOL     OW34093   2.138   2.871   1.849 -0.0205  0.6164  0.1200
 8582SOL    HW234094   2.082   2.919   1.788 -0.0138  0.7024  0.1797
 8582SOL    HW334095   2.126   2.917   1.933  0.2265  0.7086  0.1078
 8582SOL    MW434096   2.129   2.884   1.852  0.0130  0.6399  0.1262
 8583SOL     OW34097   5.434   6.008   4.161  0.3844 -0.0603 -0.0551
 8583SOL    HW234098   5.497   6.073   4.193 -0.3580  0.0856  1.1478
 8583SOL    HW334099   5.412   6.038   4.072 -0.3957  1.7054  0.6800
 8583SOL    MW434100   5.439   6.021   4.153  0.1835  0.1919  0.2006
 8584SOL     OW34101   3.947   6.083   0.313 -0.6033 -0.5373 -0.3967
 8584SOL    HW234102   3.933   6.052   0.403 -1.5725  1.2262  0.1127
 8584SOL    HW334103   3.905   6.169   0.311  0.4054 -0.0385 -2.2235
 8584SOL    MW434104   3.939   6.090   0.325 -0.5981 -0.2388 -0.5705
 8585SOL     OW34105   4.382   6.224   1.094  0.2611  0.3863 -0.2838
 8585SOL    HW234106   4.350   6.136   1.115 -1.5676  0.9207 -0.5885
 8585SOL    HW334107   4.369   6.274   1.175 -0.2412  0.7420 -0.5711
 8585SOL    MW434108   4.376   6.219   1.107 -0.0464  0.5037 -0.3619
 8586SOL     OW34109   2.020   6.324   1.287  0.2293 -0.5625 -0.4990
 8586SOL    HW234110   2.113   6.344   1.276 -0.1555  1.1089 -1.0397
 8586SOL    HW334111   1.998   6.358   1.373 -0.4429  1.5254 -1.4381
 8586SOL    MW434112   2.029   6.331   1.297  0.0899 -0.0665 -0.6942
 8587SOL     OW34113   5.565   5.950   6.150  0.4061 -0.2619 -0.4037
 8587SOL    HW234114   5.488   5.922   6.101  0.1061  0.6322 -0.4584
 8587SOL    HW334115   5.530   5.997   6.225  0.8114 -2.9298  1.5752
 8587SOL    MW434116   5.550   5.953   6.153  0.4200 -0.4959 -0.1498
 8588SOL     OW34117   4.466   5.513   6.126 -0.1370  0.9786  0.3920
 8588SOL    HW234118   4.415   5.445   6.170 -1.2621  0.6671 -1.3117
 8588SOL    HW334119   4.485   5.478   6.039  0.7403  2.1569  0.0708
 8588SOL    MW434120   4.462   5.500   6.120 -0.1697  1.0929  0.1249
 8589SOL     OW34121   4.109   0.516   5.151 -0.0792 -0.0608  0.3855
 8589SOL    HW234122   4.126   0.461   5.074 -1.1469 -0.0138  0.1023
 8589SOL    HW334123   4.179   0.493   5.212 -0.2058 -1.3746  0.0742
 8589SOL    MW434124   4.121   0.506   5.149 -0.2368 -0.2280  0.3071
 8590SOL     OW34125   1.962   3.354   2.483  0.5280 -0.4346 -0.0065
 8590SOL    HW234126   2.034   3.348   2.421  0.4746  1.1684 -0.2731
 8590SOL    HW334127   2.000   3.398   2.559 -0.5326  2.1813 -0.8757
 8590SOL    MW434128   1.976   3.359   2.485  0.3810  0.1221 -0.1563
 8591SOL     OW34129   2.180   5.510   6.313  0.0885  0.0396 -0.2690
 8591SOL    HW234130   2.142   5.424   6.294  0.5053 -0.2809  0.3041
 8591SOL    HW334131   2.124   5.546   6.382 -0.8367  0.7796 -1.3740
 8591SOL    MW434132   2.167   5.503   6.320  0.0215  0.0949 -0.3392
 8592SOL     OW34133   3.708   4.942   5.412 -0.3381 -0.5171  0.0502
 8592SOL    HW234134   3.619   4.976   5.418 -0.2288 -0.1564 -0.3081
 8592SOL    HW334135   3.724   4.933   5.318  0.3291  0.3210  0.0671
 8592SOL    MW434136   3.698   4.945   5.400 -0.2357 -0.3589  0.0051
 8593SOL     OW34137   6.070   1.809   0.267  0.6863  0.1014  0.2847
 8593SOL    HW234138   5.984   1.767   0.257  1.3892 -1.2180 -0.5944
 8593SOL    HW334139   6.063   1.857   0.350 -1.0748  0.5171 -0.0457
 8593SOL    MW434140   6.057   1.810   0.277  0.5467 -0.0178  0.1252
 8594SOL     OW34141   2.131   0.916   3.686 -0.0307 -0.3968  0.2454
 8594SOL    HW234142   2.155   0.982   3.621 -2.9312  1.1787  0.6281
 8594SOL    HW334143   2.090   0.846   3.636 -0.2112 -0.2324  0.1621
 8594SOL    MW434144   2.129   0.915   3.671 -0.4372 -0.1672  0.2849
 8595SOL     OW34145   5.129   1.018   5.687 -0.6347 -0.3881  0.0663
 8595SOL    HW234146   5.066   0.984   5.623 -1.5820  0.0068  0.7625
 8595SOL    HW334147   5.099   0.982   5.770  1.2424 -1.8270  0.1811
 8595SOL    MW434148   5.116   1.009   5.689 -0.5121 -0.5258  0.1733
 8596SOL     OW34149   0.799   1.219   0.561  0.0641 -0.7378 -0.0269
 8596SOL    HW234150   0.752   1.214   0.478  1.5280 -1.6184 -0.8616
 8596SOL    HW334151   0.732   1.204   0.628 -1.2155  0.3612 -1.0110
 8596SOL    MW434152   0.784   1.216   0.559  0.0884 -0.7090 -0.2669
 8597SOL     OW34153   2.609   6.094   5.039 -0.4420  0.1772  0.3000
 8597SOL    HW234154   2.662   6.166   5.006  2.6015 -1.2035  1.7873
 8597SOL    HW334155   2.632   6.020   4.985  0.5791 -0.8587  2.0576
 8597SOL    MW434156   2.619   6.094   5.028  0.0942 -0.1416  0.7281
 8598SOL     OW34157   5.408   4.650   1.934  0.5268 -0.1166 -0.1148
 8598SOL    HW234158   5.330   4.688   1.894  0.4456  0.7021  0.7955
 8598SOL    HW334159   5.479   4.669   1.872  0.1377 -0.2215 -0.5974
 8598SOL    MW434160   5.407   4.657   1.920  0.4647 -0.0224 -0.0584
 8599SOL     OW34161   5.146   3.543   3.246  1.0116 -0.1627 -0.4091
 8599SOL    HW234162   5.101   3.614   3.200  0.2516 -1.3110 -1.5510
 8599SOL    HW334163   5.223   3.525   3.192  1.3084 -0.0638 -0.0162
 8599SOL    MW434164   5.150   3.550   3.233  0.9505 -0.3012 -0.5079
 8600SOL     OW34165   0.760   4.780   6.244 -0.0326  0.2340 -0.2751
 8600SOL    HW234166   0.759   4.739   6.330  0.5139  0.3099 -0.2299
 8600SOL    HW334167   0.697   4.852   6.251 -1.4607 -0.9337 -0.5405
 8600SOL    MW434168   0.752   4.784   6.256 -0.1489  0.0900 -0.3042
 8601SOL     OW34169   1.846   0.755   0.828 -0.6534  0.2715  0.2426
 8601SOL    HW234170   1.850   0.834   0.883  1.2148 -0.5969  1.4462
 8601SOL    HW334171   1.873   0.684   0.886 -0.6828 -1.0282 -1.2698
 8601SOL    MW434172   1.850   0.756   0.843 -0.4108 -0.0145  0.2018
 8602SOL     OW34173   0.506   2.601   1.917 -0.2983  0.9167 -0.3111
 8602SOL    HW234174   0.420   2.577   1.951 -0.4806  0.5919 -0.9713
 8602SOL    HW334175   0.486   2.651   1.837  0.1224  0.8658 -0.4490
 8602SOL    MW434176   0.492   2.605   1.911 -0.2669  0.8671 -0.4164
 8603SOL     OW34177   5.581   1.472   2.383  0.1278 -0.2289 -0.2871
 8603SOL    HW234178   5.633   1.445   2.459 -0.7854 -0.2955  0.3412
 8603SOL    HW334179   5.505   1.516   2.421 -0.0838  0.2128 -1.1928
 8603SOL    MW434180   5.578   1.474   2.398 -0.0206 -0.1794 -0.3237
 8604SOL     OW34181   5.817   5.620   5.408 -0.1007  0.6266  1.0261
 8604SOL    HW234182   5.870   5.540   5.408  0.0165  0.6873 -0.3923
 8604SOL    HW334183   5.829   5.656   5.496  2.4198  0.7589  0.6938
 8604SOL    MW434184   5.825   5.614   5.420  0.2473  0.6521  0.7951
 8605SOL     OW34185   2.582   2.262   6.282 -0.1813 -0.2699  0.2543
 8605SOL    HW234186   2.677   2.249   6.276 -0.2589 -0.5225 -0.5873
 8605SOL    HW334187   2.553   2.267   6.191 -0.5817  2.8500  0.4454
 8605SOL    MW434188   2.591   2.261   6.269 -0.2444  0.1084  0.1685
 8606SOL     OW34189   0.111   2.938   2.215  0.0974  0.4845  0.5959
 8606SOL    HW234190   0.174   2.922   2.144 -0.8879 -0.4146 -0.1098
 8606SOL    HW334191   0.103   3.033   2.218  2.0534  0.6918  1.2461
 8606SOL    MW434192   0.119   2.948   2.206  0.2255  0.3932  0.5886
 8607SOL     OW34193   2.162   3.920   2.578  0.2523 -0.3577 -0.1392
 8607SOL    HW234194   2.088   3.878   2.622  0.9364 -2.4876 -0.9031
 8607SOL    HW334195   2.122   3.969   2.506 -0.5543  0.1236  0.6208
 8607SOL    MW434196   2.147   3.921   2.574  0.2362 -0.5752 -0.1397
 8608SOL     OW34197   6.022   2.161   2.446  0.4990  0.1638 -0.4950
 8608SOL    HW234198   6.107   2.197   2.422  0.8695 -0.3666 -0.0104
 8608SOL    HW334199   6.009   2.188   2.537  1.5042 -2.1721  0.4180
 8608SOL    MW434200   6.031   2.169   2.455  0.6805 -0.2144 -0.3106
 8609SOL     OW34201   6.372   3.244   4.129  0.4366  0.2911 -0.0779
 8609SOL    HW234202   6.293   3.227   4.181  0.5608 -0.0269  0.0110
 8609SOL    HW334203   6.423   3.305   4.183  1.3738 -1.3895  0.9945
 8609SOL    MW434204   6.368   3.250   4.143  0.5766  0.0274  0.0753
 8610SOL     OW34205   1.256   3.032   5.316 -0.3044  0.0511  0.2823
 8610SOL    HW234206   1.197   2.965   5.350 -1.4407 -0.7304 -2.8797
 8610SOL    HW334207   1.322   2.984   5.266  0.3298  1.1608  0.0166
 8610SOL    MW434208   1.257   3.017   5.314 -0.3706  0.0944 -0.1699
 8611SOL     OW34209   4.724   1.009   3.225 -0.5159 -0.0817 -0.0385
 8611SOL    HW234210   4.733   1.030   3.318  0.7785  1.8444 -0.5390
 8611SOL    HW334211   4.814   1.001   3.193 -0.9364 -0.4682 -1.1758
 8611SOL    MW434212   4.737   1.011   3.233 -0.4006  0.1214 -0.2546
 8612SOL     OW34213   2.960   1.496   0.476 -0.0603  0.1898  0.1145
 8612SOL    HW234214   3.047   1.455   0.475  0.1244  0.5379 -1.8996
 8612SOL    HW334215   2.922   1.474   0.392 -1.4168  1.1340  0.4518
 8612SOL    MW434216   2.967   1.488   0.465 -0.2149  0.3603 -0.1067
 8613SOL     OW34217   1.427   1.302   2.450  0.0726 -0.2117  0.2684
 8613SOL    HW234218   1.466   1.383   2.417 -0.6356  0.1209  0.2358
 8613SOL    HW334219   1.497   1.261   2.501  1.0008 -0.4551 -1.1608
 8613SOL    MW434220   1.442   1.308   2.453  0.1016 -0.1999  0.0755
 8614SOL     OW34221   6.221   3.302   2.981 -0.4501 -0.3554  0.6957
 8614SOL    HW234222   6.128   3.321   2.994 -0.5745 -0.9813  0.7689
 8614SOL    HW334223   6.254   3.286   3.069 -0.2957 -0.2538  0.6569
 8614SOL    MW434224   6.213   3.303   2.995 -0.4462 -0.4246  0.7003
 8615SOL     OW34225   0.587   3.216   4.115 -0.1000 -0.1643 -0.5266
 8615SOL    HW234226   0.637   3.189   4.037  1.4445  0.7217  0.1040
 8615SOL    HW334227   0.623   3.162   4.186  1.7447  2.0816  0.3925
 8615SOL    MW434228   0.598   3.206   4.114  0.3472  0.2489 -0.3222
 8616SOL     OW34229   4.065   1.227   0.572 -0.0689 -0.2072  0.1359
 8616SOL    HW234230   4.036   1.136   0.573  0.1017 -0.2624  0.1829
 8616SOL    HW334231   4.010   1.269   0.507  0.0604 -0.4132 -0.1083
 8616SOL    MW434232   4.054   1.220   0.564 -0.0294 -0.2417  0.1099
 8617SOL     OW34233   0.448   4.140   0.253  0.3877 -0.2607  0.0937
 8617SOL    HW234234   0.487   4.070   0.304  0.6874 -0.8281 -0.8894
 8617SOL    HW334235   0.453   4.217   0.310 -1.7692 -1.4190  1.9888
 8617SOL    MW434236   0.454   4.141   0.267  0.1427 -0.4884  0.2140
 8618SOL     OW34237   0.271   4.142   5.589 -0.2989  0.3417  0.1853
 8618SOL    HW234238   0.273   4.213   5.524 -1.8218 -0.4495 -0.7948
 8618SOL    HW334239   0.261   4.187   5.673  0.2437  1.3385 -0.2661
 8618SOL    MW434240   0.270   4.158   5.591 -0.4282  0.3688 -0.0035
 8619SOL     OW34241   3.954   0.085   0.136 -0.4876  0.3026 -0.2503
 8619SOL    HW234242   4.045   0.087   0.107 -0.3557 -0.2625  0.1098
 8619SOL    HW334243   3.934   0.177   0.156 -0.3551  0.5917 -1.3906
 8619SOL    MW434244   3.964   0.098   0.135 -0.4527  0.2661 -0.3533
 8620SOL     OW34245   5.931   0.613   1.130 -0.2229 -0.0777 -0.1751
 8620SOL    HW234246   5.893   0.530   1.158  0.7056 -0.3536  0.3111
 8620SOL    HW334247   6.004   0.627   1.190  0.9803  0.0048 -1.5877
 8620SOL    MW434248   5.936   0.604   1.142  0.0583 -0.1032 -0.2973
 8621SOL     OW34249   3.149   5.839   1.993  0.8045 -0.5880  0.0345
 8621SOL    HW234250   3.182   5.929   2.004 -2.2394  0.9501 -1.9870
 8621SOL    HW334251   3.110   5.818   2.078 -0.3786  0.9767 -0.0676
 8621SOL    MW434252   3.148   5.848   2.006  0.2468 -0.1786 -0.2457
 8622SOL     OW34253   2.550   1.919   4.875 -0.2578  0.4104  0.0481
 8622SOL    HW234254   2.613   1.990   4.877 -1.2477  1.3647 -0.8615
 8622SOL    HW334255   2.466   1.961   4.896 -0.6258 -0.8038  1.1478
 8622SOL    MW434256   2.547   1.934   4.878 -0.4369  0.3761  0.0732
 8623SOL     OW34257   1.946   5.590   3.970  0.2108 -0.4695 -0.1731
 8623SOL    HW234258   1.942   5.503   4.009  0.3769 -0.2060  0.4372
 8623SOL    HW334259   2.005   5.579   3.895  1.1303 -0.6462  0.5568
 8623SOL    MW434260   1.954   5.577   3.965  0.3540 -0.4581  0.0037
 8624SOL     OW34261   0.714   1.783   1.348 -0.3596  0.3315 -0.1302
 8624SOL    HW234262   0.700   1.802   1.255  0.2609 -1.0001 -0.5219
 8624SOL    HW334263   0.627   1.789   1.388 -0.5709  1.2790 -0.7223
 8624SOL    MW434264   0.701   1.786   1.341 -0.3056  0.2808 -0.2600
 8625SOL     OW34265   0.399   0.180   1.699  0.0460 -0.2077 -0.1497
 8625SOL    HW234266   0.351   0.252   1.739  2.0145  0.6053  0.9033
 8625SOL    HW334267   0.360   0.170   1.612 -2.9517 -0.6201  1.1423
 8625SOL    MW434268   0.388   0.188   1.693 -0.0898 -0.1548  0.1597
 8626SOL     OW34269   2.435   5.000   0.690  0.2343  0.0009 -0.2022
 8626SOL    HW234270   2.488   4.994   0.610 -0.7051 -1.2418 -0.7724
 8626SOL    HW334271   2.352   5.038   0.660 -0.1695 -0.5903  0.1418
 8626SOL    MW434272   2.431   5.004   0.675  0.0571 -0.2410 -0.2320
 8627SOL     OW34273   3.252   4.302   2.823  0.3420  0.0830  0.3302
 8627SOL    HW234274   3.244   4.387   2.779 -0.3037  0.1357  0.5459
 8627SOL    HW334275   3.253   4.324   2.916 -1.5361 -0.2655  0.4552
 8627SOL    MW434276   3.251   4.316   2.830  0.0090  0.0440  0.3752
 8628SOL     OW34277   3.942   3.192   1.716 -0.5358  0.2368 -0.1565
 8628SOL    HW234278   3.879   3.155   1.778  0.3911 -0.6699  0.2904
 8628SOL    HW334279   3.894   3.261   1.671 -1.9648 -0.6589 -0.0925
 8628SOL    MW434280   3.928   3.196   1.718 -0.6021 -0.0010 -0.0891
 8629SOL     OW34281   3.628   4.331   1.051 -0.0517 -0.8031  0.3677
 8629SOL    HW234282   3.579   4.386   0.990  1.4472 -0.4758 -0.5989
 8629SOL    HW334283   3.674   4.268   0.995  1.2210 -0.6069  1.1446
 8629SOL    MW434284   3.628   4.330   1.036  0.3140 -0.7340  0.3427
 8630SOL     OW34285   3.625   6.003   2.662  0.0765 -0.1443 -0.0905
 8630SOL    HW234286   3.537   6.042   2.661  0.4915  0.8802 -1.8237
 8630SOL    HW334287   3.615   5.922   2.612  0.2008  0.2025 -0.6836
 8630SOL    MW434288   3.612   5.998   2.655  0.1476  0.0366 -0.3974
 8631SOL     OW34289   5.147   3.886   1.082 -0.0414 -0.1363 -0.8348
 8631SOL    HW234290   5.184   3.933   1.008  2.0339  0.1398  0.2968
 8631SOL    HW334291   5.222   3.847   1.126 -0.7301  2.1074  2.7693
 8631SOL    MW434292   5.162   3.887   1.078  0.1416  0.1962 -0.2100
 8632SOL     OW34293   4.123   2.281   3.513  0.1784  0.4161  0.1523
 8632SOL    HW234294   4.059   2.213   3.537 -1.5151  2.1634  0.7879
 8632SOL    HW334295   4.122   2.282   3.417  0.6079 -0.7660  0.1153
 8632SOL    MW434296   4.114   2.272   3.503  0.0116  0.4906  0.2312
 8633SOL     OW34297   0.658   1.877   2.019 -0.3385 -0.2142 -0.3818
 8633SOL    HW234298   0.657   1.959   2.068  3.3861 -0.9970  1.3989
 8633SOL    HW334299   0.645   1.903   1.928  0.7040  2.3801  0.1103
 8633SOL    MW434300   0.656   1.891   2.013  0.2904  0.0248 -0.0819
 8634SOL     OW34301   2.076   4.388   2.698 -0.4444 -0.4183 -0.5246
 8634SOL    HW234302   2.023   4.467   2.704 -0.5500 -0.6110  2.4479
 8634SOL    HW334303   2.038   4.329   2.763  2.7709 -0.9511  1.0233
 8634SOL    MW434304   2.064   4.391   2.707 -0.0341 -0.5141  0.0718
 8635SOL     OW34305   2.428   2.123   5.111  0.3287 -0.2784  0.0438
 8635SOL    HW234306   2.382   2.102   5.030 -2.1357 -0.4011  1.3803
 8635SOL    HW334307   2.360   2.156   5.170  2.3698  1.9393  1.3813
 8635SOL    MW434308   2.413   2.125   5.108  0.2728 -0.0020  0.3966
 8636SOL     OW34309   0.976   3.208   6.240 -0.0852 -0.1011  0.1206
 8636SOL    HW234310   0.933   3.287   6.207  2.1826  0.7944 -0.9145
 8636SOL    HW334311   0.941   3.137   6.186 -0.5940  0.5134 -0.3750
 8636SOL    MW434312   0.966   3.209   6.228  0.1469  0.0981 -0.0813
 8637SOL     OW34313   5.330   5.504   5.059 -0.1404 -0.5554 -0.4039
 8637SOL    HW234314   5.327   5.409   5.050 -0.4308 -0.4428 -1.5538
 8637SOL    HW334315   5.274   5.523   5.134  0.2711 -1.3215  0.1062
 8637SOL    MW434316   5.323   5.494   5.068 -0.1244 -0.6416 -0.4883
 8638SOL     OW34317   1.606   3.858   3.523  1.0485 -0.6646  0.0894
 8638SOL    HW234318   1.562   3.929   3.476  2.0012 -0.1654 -0.0728
 8638SOL    HW334319   1.654   3.901   3.593  0.5608 -1.2943  0.8341
 8638SOL    MW434320   1.606   3.873   3.526  1.1098 -0.6818  0.1663
 8639SOL     OW34321   3.817   0.764   3.883  0.0943 -0.0964  0.7270
 8639SOL    HW234322   3.861   0.789   3.802  1.6339  1.0250  1.8601
 8639SOL    HW334323   3.848   0.675   3.901  2.9108  1.0290  2.0500
 8639SOL    MW434324   3.827   0.755   3.875  0.6690  0.2000  1.0511
 8640SOL     OW34325   2.216   5.181   2.053 -0.4154 -0.0359  0.1657
 8640SOL    HW234326   2.166   5.111   2.094  1.2078 -0.8237  0.9015
 8640SOL    HW334327   2.180   5.189   1.965 -2.7201  0.4042  1.0902
 8640SOL    MW434328   2.205   5.173   2.047 -0.5053 -0.0818  0.3848
 8641SOL     OW34329   2.999   1.243   0.936 -0.1123 -0.1868 -0.3878
 8641SOL    HW234330   3.031   1.169   0.987  3.0804  1.0964 -0.2838
 8641SOL    HW334331   3.024   1.320   0.987 -0.8143  1.0175 -1.7985
 8641SOL    MW434332   3.007   1.243   0.949  0.2163  0.1414 -0.5602
 8642SOL     OW34333   3.197   2.176   4.587 -0.3659  0.0018 -0.2048
 8642SOL    HW234334   3.262   2.146   4.523  0.4067 -0.9385  0.9646
 8642SOL    HW334335   3.117   2.188   4.537  0.1624 -0.9189 -1.3164
 8642SOL    MW434336   3.195   2.173   4.572 -0.1942 -0.2437 -0.1972
 8643SOL     OW34337   4.710   3.081   2.793  0.2533 -0.4870  0.1934
 8643SOL    HW234338   4.762   3.133   2.854 -0.3873 -0.8056  1.0159
 8643SOL    HW334339   4.626   3.069   2.836  0.3291 -2.0865 -0.0213
 8643SOL    MW434340   4.706   3.086   2.807  0.1788 -0.7401  0.2736
 8644SOL     OW34341   3.925   0.080   3.231 -0.0512 -0.1666  0.3917
 8644SOL    HW234342   4.003   0.045   3.188 -0.7983 -1.0313 -0.3043
 8644SOL    HW334343   3.950   0.087   3.323  0.8220 -0.5057  0.1951
 8644SOL    MW434344   3.939   0.076   3.237 -0.0345 -0.3254  0.2739
 8645SOL     OW34345   4.551   4.106   1.126 -0.1924 -0.3308 -1.2459
 8645SOL    HW234346   4.544   4.011   1.124  0.3857 -0.3695 -1.9767
 8645SOL    HW334347   4.485   4.136   1.064 -2.8847 -0.0508  1.5614
 8645SOL    MW434348   4.542   4.098   1.118 -0.4713 -0.2989 -0.9719
 8646SOL     OW34349   1.102   5.024   5.751  0.3081  0.6687  0.2243
 8646SOL    HW234350   1.071   5.064   5.670 -0.1265 -1.2398 -0.6180
 8646SOL    HW334351   1.169   4.961   5.723 -1.3199 -1.5605  1.0340
 8646SOL    MW434352   1.107   5.021   5.737  0.0359  0.1228  0.2200
 8647SOL     OW34353   6.366   3.722   3.898 -0.2142  0.1082  0.5356
 8647SOL    HW234354   6.399   3.636   3.873  0.3719  0.2187  0.9271
 8647SOL    HW334355   6.331   3.758   3.817  0.9646  0.1421  0.0218
 8647SOL    MW434356   6.366   3.715   3.884  0.0186  0.1272  0.5195
 8648SOL     OW34357   0.112   0.426   3.195 -0.0862 -0.4046 -0.1454
 8648SOL    HW234358   0.058   0.471   3.130 -0.3156 -0.1648  0.2060
 8648SOL    HW334359   0.131   0.493   3.261  0.7380 -0.4507 -0.3168
 8648SOL    MW434360   0.108   0.441   3.195 -0.0077 -0.3790 -0.1217
 8649SOL     OW34361   2.452   3.651   1.701  0.2664 -0.1115  0.1397
 8649SOL    HW234362   2.538   3.642   1.743 -0.0293  0.6820  0.9485
 8649SOL    HW334363   2.389   3.633   1.770 -0.2299  1.4269  0.1335
 8649SOL    MW434364   2.455   3.647   1.715  0.1619  0.1962  0.2456
 8650SOL     OW34365   1.927   5.314   0.025  0.1267  0.4861 -0.0312
 8650SOL    HW234366   1.898   5.223   0.032  0.8487  0.3325  1.2203
 8650SOL    HW334367   1.975   5.331   0.106  0.4140  1.8424 -0.4506
 8650SOL    MW434368   1.930   5.304   0.036  0.2599  0.6448  0.0786
 8651SOL     OW34369   2.497   4.661   2.261  0.6687 -0.1159 -0.1175
 8651SOL    HW234370   2.454   4.739   2.225 -0.1605 -0.6254 -0.2646
 8651SOL    HW334371   2.448   4.588   2.224  2.1771 -0.7537 -0.9216
 8651SOL    MW434372   2.485   4.662   2.252  0.7583 -0.2673 -0.2430
 8652SOL     OW34373   1.404   3.152   3.708  0.1691 -0.1010 -0.0674
 8652SOL    HW234374   1.462   3.107   3.646  1.2507  0.0768  0.7851
 8652SOL    HW334375   1.338   3.086   3.731 -0.7974  0.1003 -2.0555
 8652SOL    MW434376   1.403   3.137   3.703  0.1843 -0.0510 -0.2173
 8653SOL     OW34377   5.922   2.690   1.107 -0.1983  0.5816  0.1459
 8653SOL    HW234378   5.862   2.723   1.174 -0.8455  0.3986 -0.3292
 8653SOL    HW334379   5.959   2.768   1.067  0.2455  0.6926  0.7531
 8653SOL    MW434380   5.919   2.704   1.111 -0.2252  0.5721  0.1633
 8654SOL     OW34381   0.285   2.013   1.612  0.7622 -0.0717  0.5231
 8654SOL    HW234382   0.216   2.006   1.546  0.1901 -0.5152  1.1458
 8654SOL    HW334383   0.359   1.967   1.574  0.4771 -0.2206  0.1375
 8654SOL    MW434384   0.285   2.006   1.598  0.6491 -0.1499  0.5544
 8655SOL     OW34385   1.453   3.928   6.345  0.4971 -0.1391 -0.8555
 8655SOL    HW234386   1.459   3.961   6.256  2.3264  1.1823 -0.3112
 8655SOL    HW334387   1.543   3.908   6.370 -0.0592 -1.1983  0.4532
 8655SOL    MW434388   1.465   3.930   6.337  0.6651 -0.1045 -0.6110
 8656SOL     OW34389   4.810   1.826   3.759  0.2844  0.1027 -0.4806
 8656SOL    HW234390   4.818   1.731   3.765  2.3937  0.2835  0.4849
 8656SOL    HW334391   4.727   1.846   3.802 -0.2699 -1.3011 -0.8375
 8656SOL    MW434392   4.800   1.816   3.765  0.4896 -0.0586 -0.4003
 8657SOL     OW34393   3.708   5.412   3.382  0.8652  0.7072 -0.2761
 8657SOL    HW234394   3.740   5.355   3.312 -0.4018  0.5079 -0.7157
 8657SOL    HW334395   3.777   5.408   3.449  0.9960 -1.0548 -0.4551
 8657SOL    MW434396   3.722   5.404   3.382  0.7153  0.4484 -0.3577
 8658SOL     OW34397   1.788   3.943   6.099  0.1459 -0.1642  0.5536
 8658SOL    HW234398   1.773   4.037   6.089  0.7643 -0.0373  0.7436
 8658SOL    HW334399   1.741   3.903   6.026  0.7029  0.3704 -0.1175
 8658SOL    MW434400   1.780   3.950   6.088  0.3010 -0.0770  0.4901
 8659SOL     OW34401   5.324   1.563   4.169  0.3394  0.5009  0.2954
 8659SOL    HW234402   5.250   1.597   4.117  0.3632 -0.5025 -0.4225
 8659SOL    HW334403   5.309   1.598   4.257 -0.7195  0.7320  0.0425
 8659SOL    MW434404   5.312   1.572   4.174  0.2028  0.3990  0.1673
 8660SOL     OW34405   1.141   5.156   1.519  0.0646  0.3159  0.3447
 8660SOL    HW234406   1.120   5.062   1.514 -0.1483  0.2959  1.3987
 8660SOL    HW334407   1.059   5.198   1.546  0.2229  0.7830  0.1086
 8660SOL    MW434408   1.127   5.149   1.522  0.0574  0.3748  0.4526
 8661SOL     OW34409   4.703   4.962   5.090  0.6596 -0.0176 -0.4941
 8661SOL    HW234410   4.761   4.903   5.043  0.1984 -0.0935 -0.9817
 8661SOL    HW334411   4.697   5.039   5.034 -0.2620 -0.2966 -0.7917
 8661SOL    MW434412   4.710   4.965   5.077  0.4772 -0.0645 -0.5977
 8662SOL     OW34413   0.567   0.486   3.825  0.0642  0.5413 -0.2400
 8662SOL    HW234414   0.546   0.461   3.915 -1.0329  2.7069  0.1493
 8662SOL    HW334415   0.598   0.405   3.785 -1.2047 -0.9027  1.5418
 8662SOL    MW434416   0.569   0.472   3.832 -0.2480  0.6365  0.0465
 8663SOL     OW34417   5.606   1.758   4.346  0.0963 -0.7474  0.1801
 8663SOL    HW234418   5.680   1.777   4.289 -0.5754 -0.3296 -0.5719
 8663SOL    HW334419   5.591   1.664   4.334 -0.5081 -0.5313 -0.9384
 8663SOL    MW434420   5.614   1.748   4.337 -0.0721 -0.6638 -0.0667
 8664SOL     OW34421   4.720   2.128   3.639  0.1127  0.0072  0.7076
 8664SOL    HW234422   4.713   2.033   3.651  1.2406 -0.0069  1.3368
 8664SOL    HW334423   4.632   2.161   3.660 -0.3128 -0.8901  0.4061
 8664SOL    MW434424   4.707   2.120   3.643  0.2054 -0.1130  0.7508
 8665SOL     OW34425   3.998   3.288   1.277 -0.3267  0.0758 -0.1275
 8665SOL    HW234426   4.014   3.207   1.229 -1.2607 -0.5688  0.6247
 8665SOL    HW334427   3.933   3.265   1.342 -1.5933  1.7407 -0.7365
 8665SOL    MW434428   3.992   3.275   1.279 -0.6170  0.2104 -0.1086
 8666SOL     OW34429   4.463   3.749   6.367 -1.0391 -0.0822 -0.1388
 8666SOL    HW234430   4.405   3.730   6.293 -2.8541 -0.5924  1.3409
 8666SOL    HW334431   4.424   3.826   6.408 -0.8068 -0.5743  1.0251
 8666SOL    MW434432   4.451   3.757   6.362 -1.2479 -0.2144  0.2100
 8667SOL     OW34433   3.177   2.706   4.522  1.0322  0.0841 -0.7861
 8667SOL    HW234434   3.130   2.788   4.507 -0.4763 -0.4741  0.6542
 8667SOL    HW334435   3.258   2.733   4.564  0.5316  0.8386 -0.2770
 8667SOL    MW434436   3.181   2.720   4.525  0.7671  0.1100 -0.5289
 8668SOL     OW34437   3.550   4.991   3.368  0.5032  0.3969  0.3386
 8668SOL    HW234438   3.487   5.006   3.298  0.6046 -0.1876  0.1144
 8668SOL    HW334439   3.568   4.897   3.364  2.9160  0.8181 -0.9262
 8668SOL    MW434440   3.544   4.980   3.358  0.8349  0.3754  0.1421
 8669SOL     OW34441   0.547   5.505   1.030 -0.9514 -0.1564 -0.3651
 8669SOL    HW234442   0.595   5.426   1.004 -0.7837 -0.2350  0.1750
 8669SOL    HW334443   0.478   5.514   0.963 -0.4925 -0.3185 -0.8686
 8669SOL    MW434444   0.544   5.496   1.018 -0.8687 -0.1882 -0.3603
 8670SOL     OW34445   0.634   4.976   4.832  0.7011  0.7647 -0.3578
 8670SOL    HW234446   0.609   5.057   4.876  2.2820  2.0403 -1.6768
 8670SOL    HW334447   0.564   4.960   4.769  0.7571  1.5481 -0.6265
 8670SOL    MW434448   0.621   4.984   4.830  0.9171  1.0364 -0.5673
 8671SOL     OW34449   0.832   6.420   4.853 -0.2328  0.2155 -0.0930
 8671SOL    HW234450   0.889   6.479   4.903 -0.5023 -0.4084  0.9798
 8671SOL    HW334451   0.743   6.443   4.880 -0.4184  0.2900 -0.7583
 8671SOL    MW434452   0.828   6.431   4.864 -0.2928  0.1430 -0.0392
 8672SOL     OW34453   4.800   6.231   4.104 -0.2317  0.2378 -0.2221
 8672SOL    HW234454   4.888   6.270   4.097 -0.4768  0.6250 -1.2969
 8672SOL    HW334455   4.760   6.277   4.178  0.7386 -0.5068  0.8050
 8672SOL    MW434456   4.807   6.242   4.113 -0.1360  0.1906 -0.2284
 8673SOL     OW34457   4.636   3.777   3.258  0.5749  0.5158 -0.3146
 8673SOL    HW234458   4.557   3.728   3.235  0.6993  0.6103 -0.9640
 8673SOL    HW334459   4.641   3.772   3.353  1.0435 -1.4742 -0.3996
 8673SOL    MW434460   4.626   3.770   3.268  0.6531  0.2657 -0.4115
 8674SOL     OW34461   2.882   0.569   0.324 -0.4767  0.3382  0.3470
 8674SOL    HW234462   2.929   0.534   0.248 -0.9255  0.1444  0.1599
 8674SOL    HW334463   2.893   0.502   0.391  0.5298  0.8274  0.6894
 8674SOL    MW434464   2.890   0.556   0.323 -0.4031  0.3772  0.3675
 8675SOL     OW34465   5.720   4.396   5.911  0.1500  0.4224  0.0649
 8675SOL    HW234466   5.736   4.478   5.863 -1.3623  1.0828  0.6298
 8675SOL    HW334467   5.661   4.421   5.982 -0.5823 -1.2197  0.0734
 8675SOL    MW434468   5.714   4.410   5.914 -0.1462  0.2929  0.1406
 8676SOL     OW34469   5.577   2.485   4.969  0.1700  0.2645 -0.2844
 8676SOL    HW234470   5.539   2.572   4.970 -0.1411  0.1272  0.2503
 8676SOL    HW334471   5.594   2.465   5.061 -1.7249 -1.0750 -0.1566
 8676SOL    MW434472   5.574   2.494   4.981 -0.1211  0.0697 -0.1970
 8677SOL     OW34473   0.944   5.211   2.189  0.1272 -0.1334  0.0851
 8677SOL    HW234474   0.988   5.289   2.224 -0.7371 -0.0927  1.1234
 8677SOL    HW334475   0.990   5.193   2.106  0.4400  1.3775 -0.0972
 8677SOL    MW434476   0.956   5.219   2.182  0.0544  0.0713  0.1980
 8678SOL     OW34477   2.818   0.124   3.622 -0.5118 -0.0161 -0.4506
 8678SOL    HW234478   2.728   0.134   3.594 -0.8860 -1.2705  0.1851
 8678SOL    HW334479   2.871   0.162   3.552 -1.4684 -1.2723 -1.9064
 8678SOL    MW434480   2.813   0.130   3.609 -0.6874 -0.3474 -0.5588
 8679SOL     OW34481   5.688   5.057   2.733  0.1643  0.5898 -0.1609
 8679SOL    HW234482   5.601   5.029   2.760  0.1457  1.0874  0.3018
 8679SOL    HW334483   5.738   4.976   2.726 -0.9550  0.0188 -2.7934
 8679SOL    MW434484   5.683   5.043   2.735  0.0142  0.5801 -0.4472
 8680SOL     OW34485   0.712   5.258   2.899  0.3109 -0.1708  0.5697
 8680SOL    HW234486   0.735   5.339   2.854 -1.0153 -0.3102 -0.4279
 8680SOL    HW334487   0.779   5.195   2.873  1.0133  0.4381  0.8816
 8680SOL    MW434488   0.724   5.260   2.890  0.2286 -0.1089  0.4792
 8681SOL     OW34489   2.724   2.252   3.597 -0.2848 -0.2110  0.9227
 8681SOL    HW234490   2.708   2.338   3.634  1.2240  0.9044 -0.8473
 8681SOL    HW334491   2.807   2.224   3.634  1.6018  1.2193 -1.8417
 8681SOL    MW434492   2.733   2.259   3.606  0.1632  0.1249  0.3245
 8682SOL     OW34493   5.501   3.717   1.742  0.3619 -0.0275 -0.5999
 8682SOL    HW234494   5.457   3.711   1.827  1.8541 -1.4166  0.1149
 8682SOL    HW334495   5.464   3.645   1.691 -1.5298  1.6002 -1.6935
 8682SOL    MW434496   5.490   3.707   1.747  0.3092  0.0040 -0.6499
 8683SOL     OW34497   5.958   1.162   3.322  0.6049 -0.1061  0.1899
 8683SOL    HW234498   6.006   1.150   3.240  0.4103  1.6549 -0.2158
 8683SOL    HW334499   5.949   1.073   3.358  1.8785 -0.7496 -1.0059
 8683SOL    MW434500   5.963   1.149   3.316  0.7473  0.0413 -0.0214
 8684SOL     OW34501   2.952   2.788   0.985 -0.4830  0.4120  0.6232
 8684SOL    HW234502   2.967   2.712   1.042 -0.6158 -0.1742 -0.1153
 8684SOL    HW334503   2.893   2.756   0.917 -0.3824  1.1265  0.1898
 8684SOL    MW434504   2.946   2.774   0.984 -0.4872  0.4289  0.4685
 8685SOL     OW34505   2.406   4.749   2.706 -0.2483  0.1494  0.1009
 8685SOL    HW234506   2.478   4.783   2.758  0.7299 -0.8875 -0.5243
 8685SOL    HW334507   2.390   4.662   2.741  1.3554 -1.1336 -2.1251
 8685SOL    MW434508   2.413   4.742   2.717  0.0923 -0.1567 -0.2752
 8686SOL     OW34509   6.379   1.780   5.230 -0.4419 -0.0254 -0.2338
 8686SOL    HW234510   6.302   1.782   5.174 -1.4794 -0.6738  1.1058
 8686SOL    HW334511   6.387   1.688   5.257  0.7164  0.0636 -0.2552
 8686SOL    MW434512   6.370   1.768   5.226 -0.4260 -0.0992 -0.0599
 8687SOL     OW34513   5.821   4.010   0.433 -0.0782  0.4111  0.2855
 8687SOL    HW234514   5.737   3.985   0.394  0.9827  1.6108 -3.1452
 8687SOL    HW334515   5.883   4.007   0.360  2.9347 -0.4771  2.6803
 8687SOL    MW434516   5.818   4.006   0.418  0.4593  0.4522  0.1488
 8688SOL     OW34517   0.823   0.422   5.534 -0.0085 -0.1990  0.1294
 8688SOL    HW234518   0.919   0.412   5.531  0.1096  0.5660  0.9143
 8688SOL    HW334519   0.807   0.506   5.490 -0.0602  0.9130  2.1208
 8688SOL    MW434520   0.834   0.432   5.528  0.0003  0.0486  0.4957
 8689SOL     OW34521   3.152   1.809   3.512 -0.7662  0.3451 -0.2886
 8689SOL    HW234522   3.161   1.759   3.431 -1.2031  0.2059 -0.2544
 8689SOL    HW334523   3.129   1.743   3.578  2.0206  0.0286  0.4975
 8689SOL    MW434524   3.150   1.794   3.510 -0.4562  0.2850 -0.1804
 8690SOL     OW34525   5.731   4.295   6.239 -0.1702  0.0245 -0.1947
 8690SOL    HW234526   5.758   4.259   6.323 -1.4598  1.6422  0.9804
 8690SOL    HW334527   5.779   4.377   6.232 -0.0542 -0.1075 -1.0801
 8690SOL    MW434528   5.741   4.301   6.249 -0.3250  0.2205 -0.1565
 8691SOL     OW34529   4.168   1.213   5.063  0.5824  0.2555 -0.0956
 8691SOL    HW234530   4.161   1.150   5.135 -0.3082 -0.6694 -0.9432
 8691SOL    HW334531   4.195   1.294   5.104  0.6374 -0.3941  1.2044
 8691SOL    MW434532   4.171   1.215   5.078  0.4721  0.0478 -0.0359
 8692SOL     OW34533   0.249   2.576   2.036 -0.0540  0.0910  0.5510
 8692SOL    HW234534   0.294   2.515   2.095  2.3181  1.6952  0.5503
 8692SOL    HW334535   0.160   2.543   2.030  0.0300 -1.0292  3.7866
 8692SOL    MW434536   0.243   2.564   2.043  0.2700  0.1549  0.9778
 8693SOL     OW34537   2.908   5.699   5.524  0.0467  0.0874  0.3803
 8693SOL    HW234538   2.987   5.668   5.480  0.1556  1.0619 -0.1416
 8693SOL    HW334539   2.896   5.639   5.597  1.4612  0.1139  0.6560
 8693SOL    MW434540   2.917   5.687   5.528  0.2477  0.2195  0.3478
 8694SOL     OW34541   2.611   2.172   1.331  0.0195  0.3692  0.6351
 8694SOL    HW234542   2.552   2.217   1.270  2.0982  0.7162 -1.2361
 8694SOL    HW334543   2.581   2.081   1.331  0.7281  0.0544 -2.0035
 8694SOL    MW434544   2.599   2.166   1.323  0.3872  0.3735  0.0401
 8695SOL     OW34545   3.779   0.244   1.186  0.1312 -0.2494  0.0995
 8695SOL    HW234546   3.685   0.263   1.182  0.2425  0.2609 -0.3012
 8695SOL    HW334547   3.785   0.150   1.170 -0.2000  0.0288 -1.9381
 8695SOL    MW434548   3.767   0.235   1.183  0.1022 -0.1454 -0.2222
 8696SOL     OW34549   6.413   2.652   3.020 -0.1651  0.5230 -0.0120
 8696SOL    HW234550   6.340   2.706   2.989  0.3782  1.6249  0.5954
 8696SOL    HW334551   6.410   2.659   3.115  1.5122  1.6715 -0.0098
 8696SOL    MW434552   6.403   2.660   3.028  0.1279  0.8199  0.0685
 8697SOL     OW34553   0.483   5.626   3.758 -0.2608  0.4155  0.1914
 8697SOL    HW234554   0.480   5.570   3.680  0.0886 -1.7133  1.6145
 8697SOL    HW334555   0.417   5.694   3.741  0.5140  0.6507 -2.3593
 8697SOL    MW434556   0.474   5.627   3.745 -0.1125  0.1657  0.0427
 8698SOL     OW34557   5.835   5.327   0.311 -0.3216  0.1873  0.0066
 8698SOL    HW234558   5.898   5.281   0.256  0.7762  0.5191  0.9716
 8698SOL    HW334559   5.860   5.419   0.305 -0.2453  0.2378  0.9800
 8698SOL    MW434560   5.846   5.333   0.303 -0.1667  0.2377  0.2623
 8699SOL     OW34561   4.475   4.669   0.461 -0.4574 -0.0373 -0.1542
 8699SOL    HW234562   4.557   4.663   0.413  0.0850  0.6266  0.6740
 8699SOL    HW334563   4.418   4.604   0.419  0.3876 -0.3059 -0.9132
 8699SOL    MW434564   4.478   4.659   0.449 -0.2744  0.0149 -0.1451
 8700SOL     OW34565   5.029   0.234   3.092 -0.5994  0.1880 -0.6740
 8700SOL    HW234566   4.966   0.166   3.112 -0.2374 -0.1566 -0.6969
 8700SOL    HW334567   5.113   0.200   3.123 -0.6891  1.3998  1.0571
 8700SOL    MW434568   5.032   0.221   3.099 -0.5635  0.3024 -0.4487
 8701SOL     OW34569   3.152   5.664   3.611 -0.1827  0.5421  0.2414
 8701SOL    HW234570   3.128   5.716   3.688 -2.4906  1.4911 -1.0429
 8701SOL    HW334571   3.184   5.728   3.548  1.1561 -0.1693  0.1516
 8701SOL    MW434572   3.153   5.679   3.613 -0.3105  0.5735  0.0601
 8702SOL     OW34573   1.767   4.723   0.231 -0.4662 -0.6004 -0.0862
 8702SOL    HW234574   1.704   4.785   0.194 -1.7108 -2.7070 -1.7123
 8702SOL    HW334575   1.848   4.741   0.184 -1.4873 -1.8241 -2.4898
 8702SOL    MW434576   1.769   4.733   0.220 -0.7651 -1.0398 -0.6179
 8703SOL     OW34577   4.589   2.784   5.875  0.2837  0.1773 -0.6162
 8703SOL    HW234578   4.682   2.775   5.899  0.0304 -1.1361 -0.0431
 8703SOL    HW334579   4.582   2.742   5.789  0.3727  1.0735 -1.0745
 8703SOL    MW434580   4.601   2.778   5.867  0.2621  0.1222 -0.6011
 8704SOL     OW34581   1.877   5.002   4.652  0.1938 -0.4153 -0.1637
 8704SOL    HW234582   1.945   5.069   4.644  0.0674 -0.3815 -1.0380
 8704SOL    HW334583   1.925   4.919   4.647  0.4043 -0.4187  1.3738
 8704SOL    MW434584   1.893   4.999   4.650  0.2049 -0.4113 -0.0762
 8705SOL     OW34585   6.140   4.039   4.116 -0.5595 -0.0881  0.6235
 8705SOL    HW234586   6.197   4.103   4.073  0.9439 -2.0579 -0.5040
 8705SOL    HW334587   6.182   4.022   4.200 -1.6295  1.2551  1.4575
 8705SOL    MW434588   6.153   4.045   4.121 -0.5023 -0.1708  0.5848
 8706SOL     OW34589   5.767   5.138   6.267 -0.2057  0.2067 -0.0960
 8706SOL    HW234590   5.798   5.048   6.251 -0.1565  0.1685  0.2044
 8706SOL    HW334591   5.681   5.128   6.306 -0.4195  0.3056 -0.5331
 8706SOL    MW434592   5.760   5.125   6.270 -0.2274  0.2147 -0.1141
 8707SOL     OW34593   1.356   2.706   2.935  0.6618 -0.1118  0.0851
 8707SOL    HW234594   1.333   2.712   3.028 -0.2384  0.5988 -0.1774
 8707SOL    HW334595   1.440   2.752   2.928  1.8705 -2.0790  0.9138
 8707SOL    MW434596   1.364   2.713   2.946  0.7025 -0.2776  0.1598
 8708SOL     OW34597   2.393   2.694   3.240  0.0887 -0.2706  0.0449
 8708SOL    HW234598   2.390   2.706   3.335 -0.7480 -1.7587  0.2449
 8708SOL    HW334599   2.456   2.623   3.227 -1.1762 -1.3719 -0.3221
 8708SOL    MW434600   2.401   2.686   3.251 -0.1885 -0.6122  0.0228
 8709SOL     OW34601   2.566   2.435   0.515  0.7766  0.3593 -0.3965
 8709SOL    HW234602   2.601   2.397   0.596  0.7376  0.4497 -0.3367
 8709SOL    HW334603   2.636   2.425   0.451  1.4642  1.8434  0.0958
 8709SOL    MW434604   2.580   2.429   0.517  0.8622  0.5670 -0.3236
 8710SOL     OW34605   5.676   3.306   5.453 -0.3506  0.8492 -0.1673
 8710SOL    HW234606   5.757   3.303   5.504  0.0493  1.8716 -0.7067
 8710SOL    HW334607   5.706   3.313   5.362 -0.9714  3.7346 -0.2431
 8710SOL    MW434608   5.691   3.306   5.448 -0.3798  1.3648 -0.2485
 8711SOL     OW34609   0.786   0.658   3.561 -0.8995  0.3648 -0.3479
 8711SOL    HW234610   0.811   0.585   3.616 -0.9210  0.6930  0.1033
 8711SOL    HW334611   0.856   0.665   3.496 -0.3279  0.6392  0.2839
 8711SOL    MW434612   0.798   0.649   3.559 -0.8269  0.4443 -0.2050
 8712SOL     OW34613   3.733   6.163   5.808  0.1119 -0.3441 -0.5393
 8712SOL    HW234614   3.800   6.205   5.754  1.0168 -0.8105  0.1840
 8712SOL    HW334615   3.662   6.226   5.812  1.7616  1.5383  1.2076
 8712SOL    MW434616   3.732   6.177   5.802  0.4490 -0.1573 -0.2134
 8713SOL     OW34617   1.019   4.612   3.585  0.5578 -0.2205  0.4899
 8713SOL    HW234618   1.046   4.541   3.526 -1.3083 -0.7394  0.1862
 8713SOL    HW334619   0.989   4.567   3.664  0.9189  0.3439  0.9508
 8713SOL    MW434620   1.018   4.596   3.587  0.3592 -0.2145  0.5107
 8714SOL     OW34621   1.041   4.455   5.585 -0.3286  0.1331 -0.1487
 8714SOL    HW234622   1.132   4.432   5.606 -0.4483 -1.7830 -1.4422
 8714SOL    HW334623   0.989   4.394   5.636 -0.7240 -1.3777 -2.2068
 8714SOL    MW434624   1.046   4.444   5.594 -0.3966 -0.3191 -0.5909
 8715SOL     OW34625   6.034   0.674   0.720 -0.3304  0.0154 -0.6712
 8715SOL    HW234626   6.082   0.596   0.745  0.2694  0.7723  0.6524
 8715SOL    HW334627   5.960   0.677   0.780 -0.4465  0.3658 -0.8291
 8715SOL    MW434628   6.031   0.664   0.731 -0.2666  0.1615 -0.5174
 8716SOL     OW34629   5.758   5.494   5.894  0.4328 -0.6179 -0.2126
 8716SOL    HW234630   5.770   5.579   5.938  1.3598 -0.7226 -0.2547
 8716SOL    HW334631   5.718   5.439   5.961  1.2372 -0.5869  0.3055
 8716SOL    MW434632   5.754   5.498   5.909  0.6612 -0.6276 -0.1498
 8717SOL     OW34633   1.160   1.349   1.118 -0.2908 -0.0582  0.4965
 8717SOL    HW234634   1.116   1.318   1.197 -1.9639  0.9705  0.0373
 8717SOL    HW334635   1.198   1.434   1.143  0.5302 -0.4472  0.5983
 8717SOL    MW434636   1.159   1.356   1.132 -0.4032  0.0262  0.4494
 8718SOL     OW34637   2.506   5.441   2.562 -0.1521 -0.1207  0.1427
 8718SOL    HW234638   2.444   5.512   2.546  0.5725  0.7290  0.9920
 8718SOL    HW334639   2.591   5.485   2.570  0.3733 -1.1309  0.2797
 8718SOL    MW434640   2.509   5.457   2.561  0.0128 -0.1419  0.2728
 8719SOL     OW34641   0.454   2.503   2.913 -0.5971 -0.4439 -0.0092
 8719SOL    HW234642   0.419   2.503   2.824 -1.7520  0.7772  0.4092
 8719SOL    HW334643   0.403   2.570   2.959  0.1397 -0.8772  1.5108
 8719SOL    MW434644   0.443   2.512   2.908 -0.6522 -0.3400  0.2465
 8720SOL     OW34645   1.649   5.976   0.816  0.0993  0.1126  0.2774
 8720SOL    HW234646   1.586   6.017   0.875  0.5072 -0.3487  1.0407
 8720SOL    HW334647   1.622   6.006   0.729 -0.6601  0.5966  0.6632
 8720SOL    MW434648   1.637   5.986   0.812  0.0529  0.1156  0.4290
 8721SOL     OW34649   3.380   0.870   3.527 -0.4285 -0.1144 -0.1029
 8721SOL    HW234650   3.410   0.872   3.618 -3.6036 -1.9930  1.1822
 8721SOL    HW334651   3.459   0.850   3.477  1.4295  0.8255  2.2130
 8721SOL    MW434652   3.394   0.867   3.533 -0.6023 -0.2383  0.3722
 8722SOL     OW34653   5.087   0.712   2.417  0.0595 -0.0638 -0.0418
 8722SOL    HW234654   5.143   0.786   2.440 -0.1418  0.3342 -0.8164
 8722SOL    HW334655   5.059   0.730   2.328 -1.0780 -0.4023  0.2370
 8722SOL    MW434656   5.091   0.724   2.408 -0.1172 -0.0560 -0.1073
 8723SOL     OW34657   0.850   2.750   0.889  0.0245 -0.7926  0.2410
 8723SOL    HW234658   0.843   2.759   0.794 -2.1682  0.6570  0.4808
 8723SOL    HW334659   0.944   2.756   0.906  0.3594  0.3940 -1.7093
 8723SOL    MW434660   0.862   2.752   0.878 -0.2206 -0.4448  0.0153
 8724SOL     OW34661   0.413   6.359   1.878 -0.5489  0.1379 -0.0884
 8724SOL    HW234662   0.409   6.432   1.817 -0.7441 -1.4443 -2.0926
 8724SOL    HW334663   0.332   6.310   1.863  0.2907 -1.3430  0.0210
 8724SOL    MW434664   0.402   6.362   1.868 -0.4639 -0.2662 -0.3384
 8725SOL     OW34665   0.253   1.712   5.137 -0.0095  0.4862  0.5210
 8725SOL    HW234666   0.282   1.670   5.056 -0.8709 -0.5770  0.7354
 8725SOL    HW334667   0.204   1.789   5.107 -0.1430  0.2192  0.0358
 8725SOL    MW434668   0.250   1.716   5.122 -0.1408  0.3107  0.4853
 8726SOL     OW34669   4.233   6.068   0.487 -0.0494 -0.0647 -0.1562
 8726SOL    HW234670   4.257   6.049   0.577  1.8505  2.2940 -0.0541
 8726SOL    HW334671   4.200   5.985   0.452  1.2705 -1.6024  2.0410
 8726SOL    MW434672   4.232   6.055   0.494  0.3754  0.0436  0.1472
 8727SOL     OW34673   0.350   3.525   3.993  0.4410 -0.2325  0.0143
 8727SOL    HW234674   0.349   3.575   4.075 -0.0835  0.6801 -0.5213
 8727SOL    HW334675   0.315   3.439   4.017 -1.4198  0.5819  0.4405
 8727SOL    MW434676   0.345   3.520   4.007  0.1263 -0.0047 -0.0002
 8728SOL     OW34677   1.120   5.473   4.457 -0.5064  0.4042  0.1219
 8728SOL    HW234678   1.184   5.458   4.388 -1.8024 -1.4597 -0.7508
 8728SOL    HW334679   1.094   5.564   4.446 -0.4743  0.2335 -1.6938
 8728SOL    MW434680   1.125   5.483   4.447 -0.6732  0.1358 -0.2328
 8729SOL     OW34681   2.055   2.319   4.972 -0.4806  0.2302  0.0193
 8729SOL    HW234682   1.991   2.365   5.026 -0.8485 -1.0719  0.7393
 8729SOL    HW334683   2.019   2.230   4.963  0.9099 -0.3499 -0.0680
 8729SOL    MW434684   2.042   2.313   4.978 -0.3457 -0.0181  0.1028
 8730SOL     OW34685   4.885   3.025   1.818  0.7824  0.0916  0.3720
 8730SOL    HW234686   4.931   2.979   1.747  1.0034  0.1352  0.4849
 8730SOL    HW334687   4.903   2.972   1.895 -0.8057 -0.8698  0.1298
 8730SOL    MW434688   4.894   3.012   1.818  0.6020 -0.0295  0.3549
 8731SOL     OW34689   0.457   1.350   1.308 -0.2659 -0.2570  0.6650
 8731SOL    HW234690   0.481   1.308   1.391 -0.8582 -0.4573  0.7400
 8731SOL    HW334691   0.490   1.291   1.240  0.8290  0.2442  0.7386
 8731SOL    MW434692   0.465   1.337   1.310 -0.1996 -0.2173  0.6846
 8732SOL     OW34693   2.210   2.722   4.342 -0.2177  0.0073 -0.1088
 8732SOL    HW234694   2.203   2.719   4.437 -1.7108 -0.3662 -0.2206
 8732SOL    HW334695   2.190   2.633   4.313  0.8094 -0.0327 -0.7605
 8732SOL    MW434696   2.207   2.710   4.351 -0.2792 -0.0473 -0.2095
 8733SOL     OW34697   2.023   5.327   0.277 -0.2470  0.4944 -0.4685
 8733SOL    HW234698   2.060   5.240   0.295  0.0968  0.6955 -0.1863
 8733SOL    HW334699   2.084   5.388   0.319 -0.4848  0.8731 -0.6676
 8733SOL    MW434700   2.036   5.324   0.285 -0.2330  0.5709 -0.4576
 8734SOL     OW34701   0.394   2.282   3.591  0.2143  0.0221 -0.2058
 8734SOL    HW234702   0.442   2.200   3.585  0.6214  0.0977  1.6366
 8734SOL    HW334703   0.418   2.329   3.511  0.6667 -1.2723 -0.8558
 8734SOL    MW434704   0.404   2.277   3.579  0.3277 -0.1387 -0.0485
 8735SOL     OW34705   4.304   1.609   1.088 -0.2068  0.3056 -0.0335
 8735SOL    HW234706   4.305   1.688   1.142 -0.6398 -0.0285  0.4814
 8735SOL    HW334707   4.357   1.546   1.136 -0.3306  0.1044 -0.1577
 8735SOL    MW434708   4.311   1.611   1.102 -0.2802  0.2350  0.0180
 8736SOL     OW34709   2.849   4.050   0.726 -0.1846  0.4284  0.0442
 8736SOL    HW234710   2.920   4.114   0.715  0.0474  0.5011  1.6886
 8736SOL    HW334711   2.777   4.086   0.674  0.4947  1.1276 -0.4481
 8736SOL    MW434712   2.849   4.064   0.718 -0.0644  0.5303  0.1962
 8737SOL     OW34713   3.486   3.935   1.052 -0.3727 -0.0340 -0.4364
 8737SOL    HW234714   3.556   3.881   1.014 -0.1488 -0.4105  0.4798
 8737SOL    HW334715   3.458   3.992   0.980  1.5112  0.7628 -0.5997
 8737SOL    MW434716   3.492   3.935   1.038 -0.0946  0.0215 -0.3371
 8738SOL     OW34717   4.760   0.466   2.070 -0.0111  0.0700  0.1391
 8738SOL    HW234718   4.807   0.452   2.152 -1.2220  1.0363  1.0422
 8738SOL    HW334719   4.675   0.425   2.084  0.2121 -0.8783 -1.1347
 8738SOL    MW434720   4.755   0.459   2.083 -0.1414  0.0724  0.0902
 8739SOL     OW34721   0.263   1.741   0.107 -0.3354 -0.0795 -0.5614
 8739SOL    HW234722   0.205   1.687   0.161  1.2525 -0.2773  1.0405
 8739SOL    HW334723   0.272   1.823   0.157 -1.3272  1.0397 -2.1158
 8739SOL    MW434724   0.256   1.745   0.121 -0.2568  0.0421 -0.5551
 8740SOL     OW34725   4.170   1.592   2.950  0.1352 -0.1064 -0.1055
 8740SOL    HW234726   4.133   1.507   2.973  0.0526  0.1441  0.7102
 8740SOL    HW334727   4.263   1.574   2.935 -0.0631 -0.5069 -0.9102
 8740SOL    MW434728   4.178   1.579   2.951  0.0981 -0.1262 -0.1040
 8741SOL     OW34729   3.181   0.367   1.725 -0.5309 -0.0497 -0.1132
 8741SOL    HW234730   3.221   0.378   1.812 -0.5719 -0.4375 -0.0446
 8741SOL    HW334731   3.179   0.272   1.711 -0.4254  0.0166 -0.5851
 8741SOL    MW434732   3.186   0.356   1.735 -0.5224 -0.0921 -0.1664
 8742SOL     OW34733   3.170   0.556   0.447  0.5239  0.9023 -0.2198
 8742SOL    HW234734   3.135   0.479   0.403  1.1014  0.0779  0.7237
 8742SOL    HW334735   3.210   0.607   0.377  2.2509 -0.8485 -0.5905
 8742SOL    MW434736   3.171   0.553   0.432  0.8279  0.5625 -0.1442
 8743SOL     OW34737   5.633   1.663   2.166  0.7243  0.1454  0.3017
 8743SOL    HW234738   5.699   1.626   2.108 -0.0915  0.5636 -0.9408
 8743SOL    HW334739   5.610   1.591   2.225  0.9914 -0.5475 -0.4219
 8743SOL    MW434740   5.639   1.649   2.166  0.6519  0.1091  0.0423
 8744SOL     OW34741   0.936   2.279   5.197 -0.2217  0.0010 -0.1159
 8744SOL    HW234742   0.860   2.242   5.241  0.2902  1.4932  2.1822
 8744SOL    HW334743   1.008   2.222   5.221  0.4280  1.8349  2.8205
 8744SOL    MW434744   0.935   2.267   5.206 -0.0685  0.4398  0.5747
 8745SOL     OW34745   1.927   4.995   1.013 -0.3043  0.1600 -0.0490
 8745SOL    HW234746   1.989   4.933   0.974 -0.0266  0.7022 -0.5092
 8745SOL    HW334747   1.972   5.028   1.091 -0.9902 -1.1581  0.9331
 8745SOL    MW434748   1.941   4.991   1.018 -0.3582  0.0576  0.0199
 8746SOL     OW34749   6.431   4.560   0.837 -0.2752  0.2103  0.4221
 8746SOL    HW234750   6.442   4.636   0.895 -0.6098 -1.3291  2.6274
 8746SOL    HW334751   6.514   4.513   0.843 -1.2395 -1.4122  1.9264
 8746SOL    MW434752   6.443   4.564   0.846 -0.4466 -0.2069  0.9115
 8747SOL     OW34753   2.269   4.982   4.509  0.0599 -0.2167 -0.2077
 8747SOL    HW234754   2.305   5.062   4.546  0.1306 -0.7900  0.9943
 8747SOL    HW334755   2.181   5.006   4.481 -0.2243  0.0875  0.9059
 8747SOL    MW434756   2.262   4.996   4.510  0.0317 -0.2522  0.0978
 8748SOL     OW34757   1.115   3.335   1.065 -0.0178  0.0402  0.3551
 8748SOL    HW234758   1.183   3.398   1.086  1.8675 -1.2232 -1.5256
 8748SOL    HW334759   1.034   3.386   1.063  1.3406  2.2645 -0.4694
 8748SOL    MW434760   1.113   3.350   1.067  0.4102  0.1670 -0.0018
 8749SOL     OW34761   1.438   1.747   2.456 -0.3481  0.7640 -0.2179
 8749SOL    HW234762   1.492   1.825   2.443 -0.8418  1.2151  0.3695
 8749SOL    HW334763   1.487   1.693   2.519  0.8095 -0.2189 -1.8991
 8749SOL    MW434764   1.452   1.750   2.463 -0.2605  0.6938 -0.3622
 8750SOL     OW34765   5.283   1.258   4.957 -0.6810 -0.4163  0.0478
 8750SOL    HW234766   5.335   1.253   5.037 -2.0906 -1.5499  0.9478
 8750SOL    HW334767   5.298   1.174   4.913  0.4004  0.3533 -1.1194
 8750SOL    MW434768   5.292   1.246   4.962 -0.7243 -0.4643  0.0125
 8751SOL     OW34769   5.389   3.175   3.961 -0.2473  0.7203 -0.0930
 8751SOL    HW234770   5.424   3.254   4.003  0.4494  0.1489  0.4296
 8751SOL    HW334771   5.395   3.107   4.029  0.3419 -0.0811 -0.9242
 8751SOL    MW434772   5.395   3.176   3.976 -0.0776  0.5392 -0.1337
 8752SOL     OW34773   4.786   3.237   1.475 -0.2814 -0.0698  0.2904
 8752SOL    HW234774   4.818   3.264   1.561  0.5248  0.5878 -0.1983
 8752SOL    HW334775   4.701   3.196   1.492  0.6758 -1.6181  1.6068
 8752SOL    MW434776   4.779   3.235   1.488 -0.0487 -0.1874  0.3996
 8753SOL     OW34777   0.950   2.467   3.579 -0.4974 -0.1443  0.1671
 8753SOL    HW234778   1.001   2.390   3.605 -0.2042  0.6201  2.0628
 8753SOL    HW334779   0.860   2.446   3.604 -0.6925 -0.4860 -0.8005
 8753SOL    MW434780   0.945   2.454   3.586 -0.4845 -0.0885  0.2895
 8754SOL     OW34781   0.985   5.354   2.656 -0.1559 -0.5077  0.4501
 8754SOL    HW234782   0.937   5.401   2.724 -0.0527  0.7699 -0.3254
 8754SOL    HW334783   1.076   5.379   2.669 -0.2444  0.5405 -0.7247
 8754SOL    MW434784   0.991   5.364   2.667 -0.1539 -0.2008  0.1928
 8755SOL     OW34785   1.873   0.772   1.260 -0.4827 -0.4782 -0.2087
 8755SOL    HW234786   1.814   0.737   1.326 -2.0984 -0.7874 -1.7369
 8755SOL    HW334787   1.870   0.867   1.271 -0.6051 -0.5362  0.2561
 8755SOL    MW434788   1.865   0.780   1.270 -0.7120 -0.5267 -0.3490
 8756SOL     OW34789   2.977   5.436   4.851  0.2808  0.5864 -0.0486
 8756SOL    HW234790   2.943   5.469   4.767  2.4013 -0.4062 -1.3978
 8756SOL    HW334791   2.909   5.376   4.882 -1.7003  2.8590  0.3164
 8756SOL    MW434792   2.963   5.432   4.844  0.2992  0.7553 -0.1785
 8757SOL     OW34793   0.188   2.818   0.281 -0.2401 -0.3910  0.0130
 8757SOL    HW234794   0.278   2.786   0.282 -0.4281 -1.1383 -2.3237
 8757SOL    HW334795   0.144   2.766   0.214 -2.0566  0.9174  0.1026
 8757SOL    MW434796   0.194   2.807   0.272 -0.5046 -0.3169 -0.2835
 8758SOL     OW34797   0.878   3.254   0.585 -0.3540 -0.3836  0.5111
 8758SOL    HW234798   0.885   3.202   0.665 -0.9142  1.6397  1.9449
 8758SOL    HW334799   0.826   3.200   0.526 -1.8301 -1.0541  2.3247
 8758SOL    MW434800   0.872   3.240   0.588 -0.6227 -0.2051  0.9395
 8759SOL     OW34801   0.387   6.268   3.517  0.5133  0.0071  0.0719
 8759SOL    HW234802   0.301   6.240   3.548  0.5641  1.2447  1.4452
 8759SOL    HW334803   0.449   6.214   3.566  0.5627 -1.2473 -1.2879
 8759SOL    MW434804   0.384   6.257   3.527  0.5265  0.0049  0.0737
 8760SOL     OW34805   0.562   2.946   4.820  0.1129 -0.0151 -0.2587
 8760SOL    HW234806   0.517   2.901   4.748 -0.0243  0.9529 -0.7976
 8760SOL    HW334807   0.636   2.889   4.841 -2.0752 -2.4197  1.6459
 8760SOL    MW434808   0.565   2.932   4.813 -0.1939 -0.2046 -0.0785
 8761SOL     OW34809   1.763   3.733   4.703 -0.5824 -0.6335  0.4720
 8761SOL    HW234810   1.747   3.647   4.664 -2.5067 -0.1352  0.0635
 8761SOL    HW334811   1.798   3.714   4.790 -0.9914 -1.8237  0.3855
 8761SOL    MW434812   1.765   3.719   4.710 -0.8902 -0.7248  0.4067
 8762SOL     OW34813   5.064   1.286   1.058 -0.5425  0.1115  0.5893
 8762SOL    HW234814   5.101   1.220   1.118 -0.3032 -0.4756 -0.1880
 8762SOL    HW334815   5.112   1.273   0.976 -0.8996  0.8772  0.2535
 8762SOL    MW434816   5.075   1.275   1.055 -0.5580  0.1350  0.4425
 8763SOL     OW34817   6.204   0.015   1.433  0.0022  0.3231 -0.6030
 8763SOL    HW234818   6.192   0.081   1.501  0.1517  0.2063 -0.4612
 8763SOL    HW334819   6.117   0.005   1.394 -0.0971  0.3571 -0.3950
 8763SOL    MW434820   6.191   0.022   1.437  0.0088  0.3122 -0.5568
 8764SOL     OW34821   5.734   4.755   0.234 -0.4366  0.2187  0.3325
 8764SOL    HW234822   5.727   4.696   0.308 -0.0595 -1.6945 -1.0780
 8764SOL    HW334823   5.675   4.719   0.168  0.0923  1.1812 -0.7252
 8764SOL    MW434824   5.725   4.742   0.235 -0.3170  0.0933  0.0068
 8765SOL     OW34825   2.267   1.414   6.001 -0.4778  0.2744 -0.3049
 8765SOL    HW234826   2.304   1.497   6.032 -3.0795  1.8423 -1.0794
 8765SOL    HW334827   2.194   1.397   6.060  0.5630 -2.0520  0.4301
 8765SOL    MW434828   2.262   1.423   6.013 -0.6838  0.1743 -0.3101
 8766SOL     OW34829   4.806   0.723   4.410  0.1185 -0.3515  0.2496
 8766SOL    HW234830   4.771   0.789   4.470 -1.1504 -1.0459  0.2900
 8766SOL    HW334831   4.856   0.663   4.465 -0.7516 -0.7884  0.5767
 8766SOL    MW434832   4.808   0.724   4.425 -0.1637 -0.5007  0.2981
 8767SOL     OW34833   4.739   3.692   1.356 -0.2825 -0.4444 -0.3247
 8767SOL    HW234834   4.811   3.643   1.317 -0.2091 -0.4360 -0.1979
 8767SOL    HW334835   4.669   3.628   1.367 -1.1513  0.0035 -2.6265
 8767SOL    MW434836   4.739   3.677   1.352 -0.3874 -0.3842 -0.6117
 8768SOL     OW34837   3.286   4.058   5.760  0.4913  0.5005 -0.3905
 8768SOL    HW234838   3.232   4.074   5.683  0.9772 -0.7617 -1.0183
 8768SOL    HW334839   3.227   4.014   5.822  0.0840  1.5723  0.0136
 8768SOL    MW434840   3.271   4.055   5.758  0.5017  0.4754 -0.4200
 8769SOL     OW34841   0.417   3.662   1.223 -0.0079 -0.2426  0.0403
 8769SOL    HW234842   0.403   3.583   1.275 -1.9287 -0.1059 -0.1669
 8769SOL    HW334843   0.390   3.734   1.281  0.4178  0.1410 -0.2297
 8769SOL    MW434844   0.411   3.661   1.238 -0.2052 -0.1740 -0.0226
 8770SOL     OW34845   1.010   1.218   5.057  0.5729  0.4542 -0.7210
 8770SOL    HW234846   1.038   1.302   5.093 -0.4373  1.0125 -1.1859
 8770SOL    HW334847   1.017   1.228   4.963 -0.4976  0.3898 -0.8268
 8770SOL    MW434848   1.014   1.230   5.050  0.2984  0.5194 -0.7963
 8771SOL     OW34849   6.000   1.019   1.919  0.8247 -0.4942  0.7900
 8771SOL    HW234850   5.943   0.989   1.989  0.8183 -0.0248  0.9947
 8771SOL    HW334851   6.001   0.948   1.856 -1.3669  0.1274 -0.0615
 8771SOL    MW434852   5.993   1.006   1.920  0.5347 -0.3503  0.7047
 8772SOL     OW34853   3.994   4.693   4.746 -0.6484  0.3699 -0.0745
 8772SOL    HW234854   3.927   4.749   4.709 -0.4119  0.2376 -0.7167
 8772SOL    HW334855   4.055   4.677   4.674  0.7269  1.4652  0.7889
 8772SOL    MW434856   3.993   4.698   4.732 -0.4357  0.4970 -0.0453
 8773SOL     OW34857   2.121   4.095   5.523 -0.6049 -0.1210 -0.2425
 8773SOL    HW234858   2.163   4.011   5.542  0.8233  0.4814 -0.6074
 8773SOL    HW334859   2.048   4.073   5.465  1.0119 -0.9193 -2.0854
 8773SOL    MW434860   2.116   4.081   5.518 -0.2032 -0.1469 -0.5338
 8774SOL     OW34861   1.884   2.467   1.464  0.1052  0.3625  0.2148
 8774SOL    HW234862   1.794   2.475   1.496 -0.4192 -2.6352 -0.2843
 8774SOL    HW334863   1.878   2.408   1.389  2.6213 -0.8837  0.8858
 8774SOL    MW434864   1.871   2.461   1.458  0.3679 -0.1975  0.2375
 8775SOL     OW34865   4.460   0.214   5.941 -0.2493  0.1141  0.1885
 8775SOL    HW234866   4.488   0.135   5.987  0.8843  1.0415  1.1358
 8775SOL    HW334867   4.380   0.241   5.986 -1.1091 -0.9035 -0.6546
 8775SOL    MW434868   4.453   0.207   5.953 -0.2131  0.1022  0.2023
 8776SOL     OW34869   0.249   1.043   4.242 -0.7004  0.1499  0.4145
 8776SOL    HW234870   0.202   1.103   4.300  0.7907  1.2445  0.5654
 8776SOL    HW334871   0.334   1.031   4.284 -0.1915 -0.3642 -0.7074
 8776SOL    MW434872   0.254   1.050   4.255 -0.4365  0.2265  0.2864
 8777SOL     OW34873   0.076   3.674   2.235  0.9584  0.2355 -0.1965
 8777SOL    HW234874   0.061   3.714   2.149  2.5777  0.0215 -0.6113
 8777SOL    HW334875   0.091   3.748   2.294  0.1022  0.3712 -0.1369
 8777SOL    MW434876   0.076   3.689   2.231  1.0591  0.2251 -0.2434
 8778SOL     OW34877   4.054   4.063   5.811  0.1716  0.3479  0.3839
 8778SOL    HW234878   4.049   4.062   5.907 -1.4865 -0.5430  0.3267
 8778SOL    HW334879   3.970   4.028   5.782  0.8090  0.1753 -1.4078
 8778SOL    MW434880   4.042   4.058   5.820  0.0369  0.2076  0.1400
 8779SOL     OW34881   0.268   2.385   5.339 -0.7528 -0.4259 -0.3035
 8779SOL    HW234882   0.265   2.332   5.259 -1.7020  0.6081 -1.0002
 8779SOL    HW334883   0.182   2.372   5.379 -0.3970 -0.6830  0.3812
 8779SOL    MW434884   0.256   2.376   5.334 -0.8311 -0.3234 -0.3051
 8780SOL     OW34885   6.245   1.826   4.526 -0.6337  0.9150 -0.2309
 8780SOL    HW234886   6.169   1.819   4.468 -1.2018  2.5456  0.2663
 8780SOL    HW334887   6.312   1.774   4.483 -2.3096 -1.5109 -0.1385
 8780SOL    MW434888   6.243   1.818   4.512 -0.9297  0.8100 -0.1531
 8781SOL     OW34889   1.433   2.460   2.835 -0.2848  0.1653  0.4614
 8781SOL    HW234890   1.394   2.521   2.897 -0.3320 -0.3366  0.9386
 8781SOL    HW334891   1.378   2.381   2.842  0.3460 -0.2680  0.5612
 8781SOL    MW434892   1.420   2.457   2.844 -0.2078  0.0419  0.5375
 8782SOL     OW34893   0.986   0.140   0.749 -0.4135  0.2205 -0.3412
 8782SOL    HW234894   0.930   0.067   0.723  0.1336 -0.2171 -0.3207
 8782SOL    HW334895   1.050   0.147   0.677 -0.6093  0.8319 -0.4539
 8782SOL    MW434896   0.987   0.131   0.736 -0.3672  0.2434 -0.3534
 8783SOL     OW34897   0.734   5.778   2.774  0.0953  0.1742 -0.4089
 8783SOL    HW234898   0.651   5.791   2.818 -0.0947 -1.5359 -0.1858
 8783SOL    HW334899   0.711   5.769   2.681  0.1496  0.6782 -0.4736
 8783SOL    MW434900   0.720   5.779   2.767  0.0774  0.0151 -0.3880
 8784SOL     OW34901   1.400   4.979   0.441  0.1314  0.0328 -0.1343
 8784SOL    HW234902   1.351   4.995   0.522 -0.8063 -0.6367 -0.5493
 8784SOL    HW334903   1.489   5.009   0.460  0.3218 -1.5030  1.6635
 8784SOL    MW434904   1.405   4.985   0.454  0.0328 -0.2581  0.0482
 8785SOL     OW34905   2.352   0.600   1.328 -0.1243 -0.4720 -0.0167
 8785SOL    HW234906   2.406   0.524   1.348  0.1601 -0.3584 -0.3315
 8785SOL    HW334907   2.403   0.674   1.361 -0.5386 -0.4411  0.5630
 8785SOL    MW434908   2.366   0.600   1.335 -0.1414 -0.4530  0.0182
 8786SOL     OW34909   2.186   3.816   2.931 -0.2311 -0.3918 -0.2956
 8786SOL    HW234910   2.273   3.811   2.890  0.7780  0.1653  1.6253
 8786SOL    HW334911   2.184   3.902   2.973 -0.3938 -1.5650  2.3219
 8786SOL    MW434912   2.197   3.826   2.931 -0.1194 -0.4731  0.3032
 8787SOL     OW34913   3.019   1.494   1.073  0.7271  0.5018  0.0021
 8787SOL    HW234914   3.100   1.468   1.117  2.1243  2.6169 -1.1805
 8787SOL    HW334915   3.041   1.575   1.028 -1.7189  0.4618 -1.4217
 8787SOL    MW434916   3.033   1.501   1.073  0.5887  0.7756 -0.3418
 8788SOL     OW34917   1.025   2.380   2.501  0.3262 -0.1417  0.2475
 8788SOL    HW234918   1.111   2.372   2.460 -0.0997 -1.5764 -0.4498
 8788SOL    HW334919   1.042   2.420   2.586  1.6578 -0.1907  0.0253
 8788SOL    MW434920   1.039   2.384   2.507  0.4457 -0.3375  0.1262
 8789SOL     OW34921   5.609   1.632   5.677  0.3942 -0.0568 -0.0611
 8789SOL    HW234922   5.573   1.616   5.590 -1.7971  1.2389  0.5175
 8789SOL    HW334923   5.613   1.545   5.717  0.8930 -0.6013 -1.2443
 8789SOL    MW434924   5.605   1.618   5.671  0.1709  0.0423 -0.1409
 8790SOL     OW34925   2.495   5.902   0.838  0.1653  0.6828  0.1986
 8790SOL    HW234926   2.416   5.859   0.870 -0.0851  0.3587 -0.8205
 8790SOL    HW334927   2.565   5.838   0.852 -0.2552 -0.2298 -1.5984
 8790SOL    MW434928   2.494   5.888   0.844  0.0768  0.5196 -0.1730
 8791SOL     OW34929   5.741   5.178   5.760 -0.0437  0.2827  0.3090
 8791SOL    HW234930   5.740   5.084   5.779  0.4198  0.4883  1.4548
 8791SOL    HW334931   5.650   5.206   5.773  0.0429  0.1974  1.1514
 8791SOL    MW434932   5.729   5.169   5.764  0.0289  0.2986  0.5713
 8792SOL     OW34933   5.977   6.050   4.008  0.0360 -0.1090  0.0457
 8792SOL    HW234934   6.037   6.122   3.993 -0.9003  0.9595  1.1562
 8792SOL    HW334935   5.901   6.069   3.953  0.2787 -0.9112 -0.5868
 8792SOL    MW434936   5.975   6.062   3.999 -0.0555 -0.0739  0.1087
 8793SOL     OW34937   6.069   3.635   0.634  1.1799  0.0360  0.4241
 8793SOL    HW234938   6.055   3.541   0.621  0.2936  0.2382 -0.1953
 8793SOL    HW334939   6.111   3.642   0.720 -1.1230 -0.7727  1.6864
 8793SOL    MW434940   6.073   3.624   0.644  0.7591 -0.0440  0.5089
 8794SOL     OW34941   5.771   2.213   5.302  0.5172 -0.2638 -0.2540
 8794SOL    HW234942   5.778   2.141   5.240  2.3155 -0.1241 -0.2654
 8794SOL    HW334943   5.775   2.172   5.389 -1.0385 -0.3784 -0.2237
 8794SOL    MW434944   5.773   2.198   5.306  0.5492 -0.2605 -0.2515
 8795SOL     OW34945   0.611   5.178   0.502 -0.1957 -0.4014 -0.8044
 8795SOL    HW234946   0.680   5.196   0.437  0.4659 -0.1535 -0.0465
 8795SOL    HW334947   0.658   5.143   0.577 -0.6924  1.3161  0.3568
 8795SOL    MW434948   0.627   5.175   0.503 -0.1739 -0.1421 -0.5511
 8796SOL     OW34949   5.239   0.293   4.015 -0.1256 -0.0459  0.1533
 8796SOL    HW234950   5.241   0.388   4.014  2.2111 -0.0281  0.5182
 8796SOL    HW334951   5.332   0.267   4.018 -0.6922 -2.3246 -0.2001
 8796SOL    MW434952   5.252   0.302   4.016  0.1080 -0.3442  0.1548
 8797SOL     OW34953   1.073   4.942   0.060  0.3764 -0.3399  0.3156
 8797SOL    HW234954   1.047   4.925  -0.030 -1.2530 -2.2081  1.0548
 8797SOL    HW334955   1.142   4.878   0.078  2.2515  1.4393 -0.1839
 8797SOL    MW434956   1.078   4.931   0.051  0.4088 -0.3516  0.3472
 8798SOL     OW34957   5.865   6.072   4.401  0.6122 -0.1469 -0.4757
 8798SOL    HW234958   5.832   6.066   4.490  0.6243  0.8650 -0.3906
 8798SOL    HW334959   5.949   6.118   4.409  0.4811  0.2003 -1.0393
 8798SOL    MW434960   5.872   6.077   4.414  0.5965  0.0325 -0.5388
 8799SOL     OW34961   0.190   2.167   3.285 -0.6032 -0.0563  0.3226
 8799SOL    HW234962   0.216   2.249   3.245 -0.4097 -0.2123  0.1249
 8799SOL    HW334963   0.099   2.154   3.257  0.2238 -1.3094 -2.0038
 8799SOL    MW434964   0.181   2.176   3.276 -0.4686 -0.2422 -0.0105
 8800SOL     OW34965   6.075   6.121   2.150 -0.2329 -0.3907 -0.3108
 8800SOL    HW234966   6.021   6.142   2.074 -0.2553  0.3871 -0.0890
 8800SOL    HW334967   6.059   6.193   2.211  0.5854 -0.4681  0.0059
 8800SOL    MW434968   6.066   6.133   2.148 -0.1279 -0.2983 -0.2398
 8801SOL     OW34969   0.155   2.899   0.939  0.0525 -0.0421 -0.5234
 8801SOL    HW234970   0.172   2.812   0.905 -0.3909 -0.0919 -0.6184
 8801SOL    HW334971   0.232   2.919   0.993 -0.0588 -0.6701 -0.1319
 8801SOL    MW434972   0.168   2.890   0.941 -0.0207 -0.1315 -0.4843
 8802SOL     OW34973   4.428   1.379   1.233 -0.1918  0.5580  0.3082
 8802SOL    HW234974   4.396   1.289   1.230 -0.5260  0.6764  0.3071
 8802SOL    HW334975   4.523   1.370   1.229 -0.2499  0.2408 -0.6580
 8802SOL    MW434976   4.437   1.366   1.232 -0.2436  0.5317  0.1806
 8803SOL     OW34977   4.288   3.030   6.153 -0.4870 -0.4843  0.3706
 8803SOL    HW234978   4.292   2.955   6.212 -1.5617 -0.4238  0.5355
 8803SOL    HW334979   4.355   3.012   6.086 -0.6458 -1.5170  0.4789
 8803SOL    MW434980   4.298   3.018   6.152 -0.6497 -0.6126  0.4067
 8804SOL     OW34981   0.554   1.206   0.733  0.3028 -0.2933 -0.0971
 8804SOL    HW234982   0.553   1.301   0.720  1.6904 -0.1229  0.8597
 8804SOL    HW334983   0.469   1.187   0.771 -0.6032  0.3224 -1.6890
 8804SOL    MW434984   0.543   1.216   0.736  0.3664 -0.1896 -0.1809
 8805SOL     OW34985   0.237   3.163   0.077 -0.5961  0.1135 -0.0298
 8805SOL    HW234986   0.272   3.074   0.082 -2.4572 -0.6100  1.3648
 8805SOL    HW334987   0.230   3.191   0.169 -0.4490  1.5306 -0.4288
 8805SOL    MW434988   0.240   3.155   0.090 -0.8222  0.2050  0.1016
 8806SOL     OW34989   0.453   4.463   5.668  1.1201 -0.2203 -0.0003
 8806SOL    HW234990   0.400   4.543   5.675  0.3492 -0.7208  0.0507
 8806SOL    HW334991   0.542   4.494   5.651  0.7383  0.6385 -0.5143
 8806SOL    MW434992   0.458   4.478   5.666  0.9680 -0.1730 -0.0614
 8807SOL     OW34993   2.267   1.466   0.476 -0.0593 -0.4864  0.1411
 8807SOL    HW234994   2.279   1.436   0.386  0.1346 -3.1341  0.9463
 8807SOL    HW334995   2.354   1.494   0.504  0.4140 -1.8756  0.1712
 8807SOL    MW434996   2.280   1.465   0.468  0.0288 -1.0190  0.2513
 8808SOL     OW34997   0.300   5.626   4.528 -0.8817  0.2311  0.5160
 8808SOL    HW234998   0.288   5.532   4.542  0.1860  0.0962  0.6145
 8808SOL    HW334999   0.388   5.644   4.563  0.1200  0.7140 -2.0291
 8808SOL    MW435000   0.310   5.616   4.534 -0.6086  0.2770  0.1932
 8809SOL     OW35001   4.296   1.835   4.628 -0.6488 -1.0143  0.2743
 8809SOL    HW235002   4.347   1.814   4.706 -1.7999 -1.5823  0.8939
 8809SOL    HW335003   4.328   1.922   4.602 -0.2365 -0.8175  1.3600
 8809SOL    MW435004   4.307   1.844   4.635 -0.7463 -1.0633  0.4993
 8810SOL     OW35005   1.125   4.676   5.978 -0.1349  0.7305 -0.0506
 8810SOL    HW235006   1.044   4.711   5.942 -1.1210 -2.2798 -1.0463
 8810SOL    HW335007   1.099   4.595   6.022  2.0289  0.9038  1.7302
 8810SOL    MW435008   1.111   4.670   5.979  0.0205  0.3562  0.0530
 8811SOL     OW35009   5.656   5.940   2.132 -0.6348 -0.5606 -0.1413
 8811SOL    HW235010   5.670   6.033   2.116  3.2498 -1.4240 -3.4084
 8811SOL    HW335011   5.574   5.919   2.087 -0.3135  0.9113 -1.4839
 8811SOL    MW435012   5.647   5.949   2.124 -0.0799 -0.4803 -0.7495
 8812SOL     OW35013   4.215   3.527   1.090  0.1906  0.4338 -0.0181
 8812SOL    HW235014   4.205   3.516   1.184  0.0401 -1.9333 -0.2271
 8812SOL    HW335015   4.197   3.440   1.054 -0.1432  1.3557 -2.2748
 8812SOL    MW435016   4.212   3.514   1.098  0.1267  0.2431 -0.3434
 8813SOL     OW35017   5.518   0.240   4.067 -0.2108  0.6341  0.4017
 8813SOL    HW235018   5.585   0.216   4.004 -1.9249  0.2713 -1.3920
 8813SOL    HW335019   5.534   0.333   4.086  0.4416  0.7002 -0.4437
 8813SOL    MW435020   5.529   0.249   4.061 -0.3509  0.5949  0.0535
 8814SOL     OW35021   2.695   5.839   6.247  0.1320 -0.1338  0.2463
 8814SOL    HW235022   2.662   5.869   6.162  1.6639  0.0480 -0.3054
 8814SOL    HW335023   2.753   5.766   6.226  1.8487  0.9706  0.9599
 8814SOL    MW435024   2.698   5.833   6.233  0.5606  0.0359  0.2677
 8815SOL     OW35025   1.198   1.300   0.662  0.4212  1.1731  0.2105
 8815SOL    HW235026   1.283   1.325   0.699  0.7465 -0.8416  0.9393
 8815SOL    HW335027   1.218   1.225   0.606 -1.0338 -0.2385  1.5015
 8815SOL    MW435028   1.212   1.293   0.659  0.2722  0.7210  0.4769
 8816SOL     OW35029   2.771   0.696   1.881 -0.2764  0.5618 -0.5207
 8816SOL    HW235030   2.747   0.676   1.971 -2.0056 -0.6203 -1.2002
 8816SOL    HW335031   2.857   0.655   1.870 -0.6167 -0.3992  0.2315
 8816SOL    MW435032   2.779   0.688   1.891 -0.5494  0.2791 -0.5111
 8817SOL     OW35033   0.598   0.334   1.027  0.5811 -0.1554 -0.2580
 8817SOL    HW235034   0.664   0.310   0.962  0.4541 -0.8012 -0.1563
 8817SOL    HW335035   0.642   0.396   1.085  1.2857 -1.0157  0.1481
 8817SOL    MW435036   0.612   0.339   1.026  0.6573 -0.3541 -0.1910
 8818SOL     OW35037   1.245   5.901   4.098  0.2850 -0.6386  0.0792
 8818SOL    HW235038   1.244   5.927   4.190  1.2076 -1.0425  0.2157
 8818SOL    HW335039   1.258   5.983   4.050 -1.6498 -0.2163  0.1925
 8818SOL    MW435040   1.247   5.915   4.103  0.1514 -0.6362  0.1122
 8819SOL     OW35041   0.072   6.385   2.400  0.5043  0.0120 -0.2256
 8819SOL    HW235042   0.065   6.362   2.308 -2.2951  1.7957 -0.5746
 8819SOL    HW335043   0.019   6.319   2.445  1.7854 -0.7977  0.1633
 8819SOL    MW435044   0.064   6.373   2.394  0.3040  0.1405 -0.2204
 8820SOL     OW35045   1.346   1.531   4.983  0.0450  0.6944  0.5890
 8820SOL    HW235046   1.335   1.441   5.012 -0.2564  0.2259 -0.9208
 8820SOL    HW335047   1.258   1.570   4.991  0.3406  1.1389  2.0484
 8820SOL    MW435048   1.333   1.524   4.988  0.0442  0.6912  0.5824
 8821SOL     OW35049   0.500   2.655   1.113  0.4787 -0.6943 -0.0453
 8821SOL    HW235050   0.412   2.660   1.149 -1.3120 -1.6767 -3.7494
 8821SOL    HW335051   0.526   2.746   1.101 -0.1548 -0.3928  0.8070
 8821SOL    MW435052   0.492   2.668   1.116  0.1588 -0.7842 -0.4216
 8822SOL     OW35053   4.388   2.766   1.921  0.1038  0.1973 -0.3210
 8822SOL    HW235054   4.478   2.783   1.948  1.8417 -2.8928 -3.4251
 8822SOL    HW335055   4.382   2.805   1.834  0.5804 -4.3834 -2.6808
 8822SOL    MW435056   4.399   2.773   1.913  0.3960 -0.8148 -1.0419
 8823SOL     OW35057   3.571   2.795   3.533 -1.0846  0.2323  0.3818
 8823SOL    HW235058   3.642   2.852   3.564 -1.1543  1.4798 -1.5825
 8823SOL    HW335059   3.502   2.807   3.598 -0.9668  2.1561  0.2078
 8823SOL    MW435060   3.572   2.805   3.546 -1.0783  0.6507  0.0996
 8824SOL     OW35061   2.221   0.223   4.182  0.2591  0.1857  0.8826
 8824SOL    HW235062   2.234   0.189   4.093 -0.9622 -0.6000  0.9631
 8824SOL    HW335063   2.293   0.186   4.232  0.4491 -0.1285  0.3932
 8824SOL    MW435064   2.232   0.213   4.177  0.1231  0.0406  0.8287
 8825SOL     OW35065   3.355   5.810   4.900  0.0868  0.2271 -0.1734
 8825SOL    HW235066   3.297   5.787   4.973 -0.8715  0.2478 -0.9060
 8825SOL    HW335067   3.295   5.833   4.828  1.0081  0.3239 -0.9287
 8825SOL    MW435068   3.339   5.810   4.900  0.0819  0.2426 -0.3697
 8826SOL     OW35069   4.191   4.329   0.124  0.0206  0.0490  0.3586
 8826SOL    HW235070   4.197   4.236   0.148  0.4115 -0.0337 -0.0566
 8826SOL    HW335071   4.252   4.339   0.052  1.6085  1.1189  1.8010
 8826SOL    MW435072   4.200   4.318   0.118  0.2817  0.1792  0.4941
 8827SOL     OW35073   1.599   0.244   3.745 -0.1752  0.6601 -0.4841
 8827SOL    HW235074   1.654   0.187   3.798 -0.8336  1.5359  1.2010
 8827SOL    HW335075   1.544   0.183   3.695  0.6208 -0.1819 -0.3668
 8827SOL    MW435076   1.599   0.228   3.745 -0.1571  0.6646 -0.2463
 8828SOL     OW35077   0.728   5.400   3.692 -0.4343  0.6549 -0.0436
 8828SOL    HW235078   0.675   5.356   3.626  0.7535  0.6864 -1.0602
 8828SOL    HW335079   0.703   5.360   3.775 -0.8777 -0.4464 -0.6988
 8828SOL    MW435080   0.718   5.389   3.694 -0.3361  0.5137 -0.2642
 8829SOL     OW35081   3.340   6.338   4.724 -0.0072  0.1779 -0.1980
 8829SOL    HW235082   3.327   6.294   4.808  0.2556  1.5092  0.5523
 8829SOL    HW335083   3.435   6.346   4.716 -0.0415  0.2412 -0.5377
 8829SOL    MW435084   3.351   6.333   4.734  0.0229  0.3619 -0.1438
 8830SOL     OW35085   0.810   2.252   4.403  0.6282  0.5105  0.8617
 8830SOL    HW235086   0.824   2.278   4.494 -0.6403  2.3554  0.5847
 8830SOL    HW335087   0.738   2.190   4.407  0.7288  0.4089  1.1313
 8830SOL    MW435088   0.802   2.247   4.415  0.4741  0.7405  0.8608
 8831SOL     OW35089   4.883   3.344   3.439  0.6381 -0.3822  0.0933
 8831SOL    HW235090   4.927   3.424   3.468  0.4924  0.0055 -0.7362
 8831SOL    HW335091   4.930   3.318   3.359 -1.6080  0.9571 -1.7846
 8831SOL    MW435092   4.895   3.351   3.432  0.3226 -0.1544 -0.2639
 8832SOL     OW35093   4.104   0.131   5.203  0.1382  0.1345 -0.1192
 8832SOL    HW235094   4.023   0.181   5.204  0.9030  1.4691 -0.8415
 8832SOL    HW335095   4.137   0.138   5.292  0.1120  0.7496 -0.1498
 8832SOL    MW435096   4.098   0.139   5.215  0.2356  0.3918 -0.2185
 8833SOL     OW35097   4.243   3.907   5.447 -0.3578  0.2913  0.5156
 8833SOL    HW235098   4.317   3.960   5.476  0.0068 -0.2634  0.5936
 8833SOL    HW335099   4.171   3.970   5.440  0.1138  0.8311  0.4361
 8833SOL    MW435100   4.243   3.922   5.450 -0.2475  0.2893  0.5154
 8834SOL     OW35101   4.463   6.093   1.759  0.5396 -0.2937  0.9252
 8834SOL    HW235102   4.502   6.078   1.846  0.4671 -0.4886  0.9246
 8834SOL    HW335103   4.369   6.079   1.773  0.6922 -1.9832  0.4615
 8834SOL    MW435104   4.456   6.089   1.773  0.5501 -0.5423  0.8640
 8835SOL     OW35105   6.077   1.585   4.924  0.5219  0.2281  0.1377
 8835SOL    HW235106   6.156   1.620   4.882 -0.1466  1.9157  0.2524
 8835SOL    HW335107   6.111   1.528   4.993  1.6520  0.9772  0.2296
 8835SOL    MW435108   6.092   1.582   4.927  0.5828  0.5496  0.1650
 8836SOL     OW35109   5.838   2.830   0.306  0.1358 -0.3499  0.0088
 8836SOL    HW235110   5.876   2.745   0.284  0.6605 -0.7270  2.1208
 8836SOL    HW335111   5.888   2.860   0.382 -1.0052  1.1651  0.2202
 8836SOL    MW435112   5.850   2.823   0.313  0.0545 -0.1998  0.3154
 8837SOL     OW35113   3.191   0.567   3.069 -0.2339 -0.0045 -0.3720
 8837SOL    HW235114   3.210   0.548   2.977 -0.2975 -3.2803  0.1715
 8837SOL    HW335115   3.276   0.586   3.108 -0.1886  1.2484 -1.0385
 8837SOL    MW435116   3.205   0.567   3.062 -0.2363 -0.2714 -0.3882
 8838SOL     OW35117   4.211   6.279   4.399  0.1414 -0.2005  0.3061
 8838SOL    HW235118   4.133   6.237   4.365 -0.2547  0.2268  0.6695
 8838SOL    HW335119   4.278   6.265   4.332 -0.4148 -0.0349 -0.2878
 8838SOL    MW435120   4.210   6.272   4.386  0.0157 -0.1223  0.2757
 8839SOL     OW35121   5.243   0.793   6.233 -0.4604  0.5309  0.4037
 8839SOL    HW235122   5.242   0.809   6.139 -2.6244 -2.8838 -0.3267
 8839SOL    HW335123   5.325   0.745   6.248 -1.2464 -1.1104 -0.2889
 8839SOL    MW435124   5.254   0.789   6.223 -0.8496 -0.1362  0.2159
 8840SOL     OW35125   3.683   5.307   5.183 -0.8734 -0.1302  0.0872
 8840SOL    HW235126   3.688   5.379   5.246 -0.3876  1.1530 -1.3505
 8840SOL    HW335127   3.602   5.324   5.134  0.7200  1.2464 -2.2609
 8840SOL    MW435128   3.673   5.319   5.185 -0.5991  0.2207 -0.4123
 8841SOL     OW35129   5.065   6.178   0.054 -0.3070 -0.0680 -0.1334
 8841SOL    HW235130   4.972   6.164   0.074 -1.4614  0.7278 -4.0548
 8841SOL    HW335131   5.087   6.108  -0.007  0.8592  1.2311 -1.2775
 8841SOL    MW435132   5.056   6.167   0.049 -0.3054  0.2084 -0.8017
 8842SOL     OW35133   1.019   0.388   2.442  0.3548  0.2721  0.0704
 8842SOL    HW235134   1.023   0.323   2.372  0.1111  0.9353 -0.5845
 8842SOL    HW335135   0.982   0.341   2.516 -1.9635  0.1806 -1.0519
 8842SOL    MW435136   1.015   0.373   2.442  0.0168  0.3475 -0.1641
 8843SOL     OW35137   3.909   5.870   1.653  0.5664  0.2536 -0.3290
 8843SOL    HW235138   3.851   5.930   1.607  0.3596 -1.3856 -2.3652
 8843SOL    HW335139   3.875   5.867   1.742 -2.2735 -0.3145 -1.3293
 8843SOL    MW435140   3.897   5.878   1.659  0.1644 -0.0376 -0.7296
 8844SOL     OW35141   2.758   1.781   0.205 -0.6715  0.5217  0.2817
 8844SOL    HW235142   2.693   1.784   0.134 -0.4383  1.0553  0.0869
 8844SOL    HW335143   2.769   1.688   0.223 -2.0316  0.4511  0.8214
 8844SOL    MW435144   2.751   1.769   0.198 -0.8202  0.5828  0.3272
 8845SOL     OW35145   0.952   5.937   2.810 -0.1612 -1.1112  0.0821
 8845SOL    HW235146   0.872   5.885   2.815 -2.3114  1.9265  0.2490
 8845SOL    HW335147   0.989   5.915   2.724 -1.0116 -2.7826  0.1019
 8845SOL    MW435148   0.946   5.927   2.799 -0.5571 -0.9309  0.1068
 8846SOL     OW35149   2.028   0.426   5.505  0.3027 -0.4291 -0.1356
 8846SOL    HW235150   2.122   0.443   5.499  0.7268 -2.4897 -0.1275
 8846SOL    HW335151   1.995   0.442   5.417  0.5010  1.0037  0.0290
 8846SOL    MW435152   2.036   0.430   5.493  0.3848 -0.5120 -0.1128
 8847SOL     OW35153   4.158   5.304   3.645  0.2505  0.1238 -0.6403
 8847SOL    HW235154   4.163   5.374   3.709  0.5456  0.6387 -1.2169
 8847SOL    HW335155   4.072   5.314   3.605  1.1956  1.7155 -2.4367
 8847SOL    MW435156   4.147   5.314   3.648  0.4141  0.4017 -0.9534
 8848SOL     OW35157   1.706   4.825   0.895 -0.1214  0.8214 -0.2046
 8848SOL    HW235158   1.750   4.750   0.855  0.7110  2.1332 -1.8746
 8848SOL    HW335159   1.775   4.871   0.942 -0.2719  1.4052 -0.5445
 8848SOL    MW435160   1.721   4.821   0.896 -0.0315  1.0715 -0.4698
 8849SOL     OW35161   3.268   0.044   4.102  0.0493  0.4828  0.4104
 8849SOL    HW235162   3.238   0.026   4.013  1.2363  1.0981 -0.1408
 8849SOL    HW335163   3.345   0.100   4.090  2.1779 -1.9989  1.6833
 8849SOL    MW435164   3.274   0.049   4.089  0.4867  0.2365  0.5056
 8850SOL     OW35165   0.629   5.581   2.311 -0.0023 -0.2037 -0.0606
 8850SOL    HW235166   0.666   5.496   2.336  1.5954 -0.0404 -1.6866
 8850SOL    HW335167   0.600   5.569   2.221  1.8594  1.4104 -0.9472
 8850SOL    MW435168   0.630   5.568   2.302  0.4542  0.0308 -0.3921
 8851SOL     OW35169   2.301   1.355   3.958  0.3714  0.1721 -0.7529
 8851SOL    HW235170   2.348   1.382   4.037  0.9437  1.4225 -1.4946
 8851SOL    HW335171   2.255   1.433   3.929 -0.9694 -0.6487 -0.9016
 8851SOL    MW435172   2.301   1.369   3.965  0.2700  0.2287 -0.8704
 8852SOL     OW35173   1.645   1.182   4.412  0.2911 -0.1366 -0.0942
 8852SOL    HW235174   1.698   1.164   4.334  0.3581 -0.6399  0.0642
 8852SOL    HW335175   1.708   1.208   4.479  0.3864 -1.0608  0.1925
 8852SOL    MW435176   1.660   1.183   4.410  0.3125 -0.3250 -0.0354
 8853SOL     OW35177   3.495   3.093   0.195  0.3662 -0.2292  0.1700
 8853SOL    HW235178   3.501   3.063   0.104  0.7336  0.5171 -0.0613
 8853SOL    HW335179   3.586   3.109   0.221  0.2022  0.4711  0.3446
 8853SOL    MW435180   3.508   3.091   0.186  0.3930 -0.0383  0.1625
 8854SOL     OW35181   2.332   0.039   5.095 -0.2830  0.6828  0.1783
 8854SOL    HW235182   2.375   0.117   5.062 -1.2272  0.3548 -1.9610
 8854SOL    HW335183   2.404  -0.016   5.128  0.6993  1.1548 -1.1020
 8854SOL    MW435184   2.347   0.042   5.095 -0.2780  0.7018 -0.2729
 8855SOL     OW35185   3.265   5.946   2.692 -0.6860  0.3084 -0.2472
 8855SOL    HW235186   3.264   5.889   2.615 -0.2356 -0.2986  0.1890
 8855SOL    HW335187   3.330   6.014   2.671 -0.4217  0.0329 -0.3269
 8855SOL    MW435188   3.273   5.948   2.679 -0.5917  0.1920 -0.2002
 8856SOL     OW35189   4.470   5.353   1.691  0.8241  0.1029  0.5627
 8856SOL    HW235190   4.422   5.405   1.627 -1.0017 -2.3700 -0.2583
 8856SOL    HW335191   4.512   5.284   1.640  1.0012 -0.7399  1.7964
 8856SOL    MW435192   4.469   5.351   1.676  0.6066 -0.3346  0.6171
 8857SOL     OW35193   5.225   0.467   6.345 -0.9817  0.6144  0.3891
 8857SOL    HW235194   5.294   0.500   6.402 -1.1110  0.4698  0.6285
 8857SOL    HW335195   5.256   0.486   6.256 -1.2692  1.8269  0.5235
 8857SOL    MW435196   5.238   0.474   6.341 -1.0367  0.7553  0.4385
 8858SOL     OW35197   5.276   0.961   3.382 -0.0078 -0.3437 -0.0419
 8858SOL    HW235198   5.195   0.919   3.355 -0.4879  1.0555 -0.9285
 8858SOL    HW335199   5.248   1.041   3.426  0.8801 -0.4632  0.7691
 8858SOL    MW435200   5.262   0.966   3.384  0.0460 -0.1749 -0.0519
 8859SOL     OW35201   0.409   5.874   5.687 -0.8163  0.0591  0.2149
 8859SOL    HW235202   0.445   5.814   5.752 -1.1777 -0.8225 -0.3745
 8859SOL    HW335203   0.477   5.941   5.676 -0.4863 -0.1313  1.0281
 8859SOL    MW435204   0.423   5.875   5.694 -0.8205 -0.0824  0.2444
 8860SOL     OW35205   2.191   1.068   3.453 -0.7086  0.0751 -0.0099
 8860SOL    HW235206   2.286   1.060   3.453 -0.7613 -0.6650 -0.2598
 8860SOL    HW335207   2.173   1.150   3.406 -0.2069  0.0604 -0.2281
 8860SOL    MW435208   2.201   1.078   3.447 -0.6494 -0.0245 -0.0716
 8861SOL     OW35209   4.367   2.551   3.937  0.3377 -0.6605  0.1795
 8861SOL    HW235210   4.443   2.581   3.888 -0.1524 -0.8691 -0.7189
 8861SOL    HW335211   4.309   2.513   3.872 -0.5957 -0.4078  0.8343
 8861SOL    MW435212   4.369   2.550   3.922  0.1499 -0.6547  0.1474
 8862SOL     OW35213   3.008   0.623   1.167 -0.4263  0.1688 -0.4729
 8862SOL    HW235214   3.027   0.717   1.175  0.7817 -0.1782  1.3173
 8862SOL    HW335215   2.920   0.614   1.205 -1.1531  0.7214 -1.9209
 8862SOL    MW435216   2.999   0.635   1.173 -0.3628  0.1959 -0.4278
 8863SOL     OW35217   1.947   0.622   2.206 -0.0356  0.3803  0.1129
 8863SOL    HW235218   2.005   0.679   2.155 -1.5544  2.4693  0.5525
 8863SOL    HW335219   1.860   0.638   2.169 -0.7627 -0.3035  1.4488
 8863SOL    MW435220   1.943   0.632   2.194 -0.3319  0.5657  0.3472
 8864SOL     OW35221   5.020   6.360   6.207  0.5971 -0.0724  0.6037
 8864SOL    HW235222   5.003   6.442   6.160  0.8710 -0.0550  0.5329
 8864SOL    HW335223   5.072   6.386   6.282  0.4296 -0.1442  0.7452
 8864SOL    MW435224   5.024   6.374   6.210  0.6112 -0.0796  0.6130
 8865SOL     OW35225   4.976   1.952   4.465  0.1374 -0.5360  0.0803
 8865SOL    HW235226   5.071   1.959   4.463  0.1347 -0.1003  0.9729
 8865SOL    HW335227   4.958   1.858   4.463  0.6833 -0.7437  2.3284
 8865SOL    MW435228   4.986   1.941   4.464  0.2090 -0.5059  0.4947
 8866SOL     OW35229   3.416   1.714   2.985 -0.1630 -0.1957 -0.1228
 8866SOL    HW235230   3.492   1.674   2.944 -1.6499 -2.4772 -0.8094
 8866SOL    HW335231   3.406   1.797   2.939  2.3617  0.6052  0.5795
 8866SOL    MW435232   3.425   1.720   2.974 -0.0260 -0.3911 -0.1207
 8867SOL     OW35233   4.468   1.122   0.284  0.5246 -0.6214 -0.0027
 8867SOL    HW235234   4.505   1.201   0.324  1.0434  0.0632 -1.7156
 8867SOL    HW335235   4.497   1.126   0.193 -1.9060 -1.2621 -0.8856
 8867SOL    MW435236   4.477   1.133   0.277  0.2723 -0.6156 -0.3452
 8868SOL     OW35237   2.604   4.396   0.235  0.4460 -0.4084 -0.5694
 8868SOL    HW235238   2.667   4.428   0.299  0.9785  0.6149 -1.5556
 8868SOL    HW335239   2.635   4.432   0.151 -0.7428 -0.9249 -1.2566
 8868SOL    MW435240   2.616   4.405   0.232  0.3594 -0.3415 -0.7902
 8869SOL     OW35241   1.789   5.909   5.518  0.4978  0.1548 -1.1064
 8869SOL    HW235242   1.697   5.899   5.540  1.2433 -1.4340  1.8034
 8869SOL    HW335243   1.811   5.828   5.471  0.8652 -0.5010  0.1591
 8869SOL    MW435244   1.780   5.897   5.514  0.6446 -0.1413 -0.5555
 8870SOL     OW35245   0.278   3.934   0.536 -0.2254  0.0941 -0.1866
 8870SOL    HW235246   0.227   4.014   0.549 -2.6260 -1.4122  0.4308
 8870SOL    HW335247   0.314   3.913   0.622  2.7893  1.8761 -0.8767
 8870SOL    MW435248   0.276   3.942   0.549 -0.1444  0.1305 -0.1962
 8871SOL     OW35249   1.290   6.170   3.613  0.3587 -0.6102  0.1172
 8871SOL    HW235250   1.244   6.110   3.672  0.8045 -2.1201 -1.0129
 8871SOL    HW335251   1.225   6.238   3.592 -1.0042 -2.0665 -0.5384
 8871SOL    MW435252   1.275   6.171   3.618  0.2377 -1.0016 -0.1184
 8872SOL     OW35253   6.240   4.350   4.167 -0.0590 -0.2928 -0.1487
 8872SOL    HW235254   6.297   4.300   4.109 -0.4111 -0.7760 -0.0879
 8872SOL    HW335255   6.199   4.415   4.110  0.1082 -0.3269 -0.3082
 8872SOL    MW435256   6.242   4.352   4.152 -0.0834 -0.3610 -0.1617
 8873SOL     OW35257   5.635   5.414   5.329 -0.6335  0.0945  0.2893
 8873SOL    HW235258   5.630   5.416   5.233 -0.7006  1.8346  0.3088
 8873SOL    HW335259   5.696   5.483   5.352 -0.0295 -0.8064  1.4973
 8873SOL    MW435260   5.642   5.423   5.319 -0.5626  0.2052  0.4513
 8874SOL     OW35261   0.360   5.048   0.460  0.4085  0.1169  0.5070
 8874SOL    HW235262   0.302   5.122   0.478  0.4835  0.4678 -0.5821
 8874SOL    HW335263   0.447   5.087   0.452  0.6048 -0.2337  0.9308
 8874SOL    MW435264   0.364   5.063   0.461  0.4443  0.1169  0.4192
 8875SOL     OW35265   4.236   3.649   0.663 -0.2035  0.3735  0.3420
 8875SOL    HW235266   4.305   3.615   0.720 -0.2135 -0.1227  0.0640
 8875SOL    HW335267   4.160   3.659   0.721  0.0817  0.8655  0.6359
 8875SOL    MW435268   4.235   3.646   0.678 -0.1672  0.3729  0.3441
 8876SOL     OW35269   6.343   2.033   5.799 -0.0182 -0.5515 -0.5763
 8876SOL    HW235270   6.405   2.021   5.871  1.5472  0.2214 -1.7287
 8876SOL    HW335271   6.325   1.945   5.768 -2.7179 -1.1784  2.2632
 8876SOL    MW435272   6.349   2.020   5.805 -0.1678 -0.5322 -0.3537
 8877SOL     OW35273   1.440   4.906   2.331  0.8787 -0.0634 -0.0825
 8877SOL    HW235274   1.533   4.891   2.349  0.2105 -1.6041  2.6535
 8877SOL    HW335275   1.394   4.855   2.398 -1.9609  0.7073 -1.2982
 8877SOL    MW435276   1.446   4.897   2.343  0.4159 -0.1650  0.1181
 8878SOL     OW35277   0.413   0.429   4.733 -0.3461 -0.2245 -0.2688
 8878SOL    HW235278   0.472   0.400   4.803 -0.6202  2.0243  0.9918
 8878SOL    HW335279   0.423   0.525   4.732 -2.1872 -0.0063 -1.6539
 8878SOL    MW435280   0.422   0.438   4.742 -0.6252  0.1010 -0.2852
 8879SOL     OW35281   1.362   5.924   2.626 -0.1967 -0.5766  0.4080
 8879SOL    HW235282   1.401   5.897   2.710  0.4121 -0.8881  0.0312
 8879SOL    HW335283   1.413   5.877   2.560 -0.6771 -0.3350 -0.1387
 8879SOL    MW435284   1.374   5.914   2.629 -0.1797 -0.5858  0.2862
 8880SOL     OW35285   6.021   4.363   4.379 -0.1348  0.0713  0.0048
 8880SOL    HW235286   5.986   4.281   4.413  0.1937 -0.0773 -0.0176
 8880SOL    HW335287   6.110   4.342   4.350 -0.3696  0.2135 -0.8464
 8880SOL    MW435288   6.028   4.349   4.379 -0.1225  0.0704 -0.1104
 8881SOL     OW35289   3.465   4.166   0.834  0.4117 -0.2792 -0.8157
 8881SOL    HW235290   3.544   4.184   0.783  0.3275  0.8813 -0.5624
 8881SOL    HW335291   3.405   4.125   0.771  1.0370 -0.7278 -1.1283
 8881SOL    MW435292   3.467   4.163   0.819  0.4831 -0.1853 -0.8235
 8882SOL     OW35293   5.491   2.102   5.754 -0.5132 -0.1299 -0.0733
 8882SOL    HW235294   5.561   2.128   5.814 -1.9037  0.9833  1.1444
 8882SOL    HW335295   5.536   2.058   5.682  1.3270 -0.4261  1.1967
 8882SOL    MW435296   5.506   2.100   5.752 -0.4539 -0.0221  0.2550
 8883SOL     OW35297   5.018   4.547   3.678 -0.5090 -0.1025  0.0942
 8883SOL    HW235298   5.002   4.465   3.725  0.3514 -0.6847 -0.6140
 8883SOL    HW335299   5.109   4.542   3.650  0.1078  1.8432  1.5053
 8883SOL    MW435300   5.028   4.535   3.681 -0.3141  0.0774  0.1870
 8884SOL     OW35301   1.827   4.917   6.194  0.8275 -0.0288  0.1332
 8884SOL    HW235302   1.854   4.974   6.122  0.9703  1.6094  1.4351
 8884SOL    HW335303   1.738   4.944   6.214 -0.0038 -1.9284 -0.7728
 8884SOL    MW435304   1.819   4.928   6.187  0.7367 -0.0633  0.1854
 8885SOL     OW35305   0.183   5.399   2.196  0.9318  0.0602  0.0198
 8885SOL    HW235306   0.205   5.400   2.103  1.5605 -0.3239  0.1636
 8885SOL    HW335307   0.253   5.349   2.237 -0.6002 -1.8862  0.3748
 8885SOL    MW435308   0.195   5.393   2.189  0.8126 -0.2473  0.0856
 8886NA      NA35309   5.153   0.436   4.803  0.3068  0.4776 -0.5525
 8887NA      NA35310   3.215   3.033   3.420  0.1376 -0.3051 -0.2239
 8888NA      NA35311   2.565   0.590   1.821 -0.1571 -0.1792 -0.2112
 8889NA      NA35312   5.883   0.429   2.850 -0.5535  0.8113  0.2852
 8890NA      NA35313   0.479   1.724   2.046  0.5102 -0.3962 -0.1474
 8891NA      NA35314   5.994   4.043   5.922  0.1541 -0.2092 -0.2286
 8892NA      NA35315   5.176   3.241   3.922 -0.4648  0.1537  0.3526
   6.42920   6.42920   6.42920
