A-SYNC WITH LIG-47 in water
35301
  121NASP     N    1   0.068   2.679   5.913  0.1816 -0.1792  0.1056
  121NASP    H1    2   0.085   2.618   5.991 -0.3560 -0.2146  0.1931
  121NASP    H2    3   0.124   2.762   5.923 -0.8836  0.2670  3.8862
  121NASP    H3    4   0.089   2.623   5.831  2.7147 -0.1121  0.6087
  121NASP    CA    5  -0.078   2.720   5.906  0.0144 -0.1049  0.3657
  121NASP    HA    6  -0.132   2.626   5.914  0.4117 -0.2204  2.3071
  121NASP    CB    7  -0.119   2.813   6.025 -0.2006 -0.1889 -0.7960
  121NASP   HB1    8  -0.226   2.809   6.046  0.1064 -0.0501  0.9359
  121NASP   HB2    9  -0.093   2.916   6.000  0.9460 -0.0988  0.6641
  121NASP    CG   10  -0.055   2.788   6.168  0.2218 -0.0101  0.2041
  121NASP   OD1   11   0.035   2.705   6.182 -0.2864  0.0011 -0.6793
  121NASP   OD2   12  -0.095   2.864   6.257  0.2257  0.0957  0.0162
  121NASP     C   13  -0.120   2.799   5.778 -0.6606  0.7396 -0.1978
  121NASP     O   14  -0.028   2.819   5.702  0.0479 -0.3737 -0.1591
  122ASN      N   15  -0.243   2.845   5.761 -0.3069 -0.1899 -0.1707
  122ASN      H   16  -0.317   2.812   5.822 -0.3239 -4.5199 -2.1757
  122ASN     CA   17  -0.283   2.911   5.634  0.7255 -0.0805  0.0298
  122ASN     HA   18  -0.223   2.866   5.554 -1.9981 -2.3712 -0.9183
  122ASN     CB   19  -0.427   2.871   5.598  0.3134 -0.2904 -0.4405
  122ASN    HB1   20  -0.470   2.906   5.504 -3.7478  0.2094  1.3922
  122ASN    HB2   21  -0.489   2.905   5.681  0.4307 -2.3644  0.5498
  122ASN     CG   22  -0.439   2.722   5.583  0.5151 -0.5772 -0.1596
  122ASN    OD1   23  -0.371   2.663   5.495  0.1056  0.2309 -0.8211
  122ASN    ND2   24  -0.513   2.653   5.658  0.0972 -0.3071 -0.7285
  122ASN   HD21   25  -0.537   2.561   5.624  1.7173  0.0288 -2.9971
  122ASN   HD22   26  -0.578   2.694   5.724 -0.1972 -1.3167 -0.3666
  122ASN      C   27  -0.271   3.065   5.624  0.5695  0.0659 -0.1755
  122ASN      O   28  -0.234   3.113   5.517  0.0154  0.0800  0.4538
  123GLU      N   29  -0.280   3.143   5.733  0.6371  0.1726  0.4407
  123GLU      H   30  -0.313   3.097   5.816 -1.0932  2.7296  1.2881
  123GLU     CA   31  -0.249   3.289   5.741 -0.7468  0.0871  0.3994
  123GLU     HA   32  -0.300   3.345   5.662 -1.9000 -1.6141 -0.1249
  123GLU     CB   33  -0.290   3.354   5.872  0.4036 -0.1357  0.3045
  123GLU    HB1   34  -0.398   3.362   5.871  0.2278 -1.9087 -2.0003
  123GLU    HB2   35  -0.249   3.456   5.872 -1.5666  0.6977 -0.3325
  123GLU     CG   36  -0.246   3.271   5.994 -0.6151 -0.6572 -0.4240
  123GLU    HG1   37  -0.139   3.252   5.984 -0.3564  0.0881  0.6635
  123GLU    HG2   38  -0.292   3.174   6.010 -0.9821 -0.3041  0.7401
  123GLU     CD   39  -0.266   3.348   6.122  0.3570 -0.3545 -0.2356
  123GLU    OE1   40  -0.353   3.442   6.128  0.2309  0.3539 -0.1071
  123GLU    OE2   41  -0.200   3.314   6.227 -0.7895 -0.4245 -0.3381
  123GLU      C   42  -0.103   3.305   5.703 -0.0549 -0.2088 -0.2754
  123GLU      O   43  -0.016   3.236   5.746 -0.4175  0.2435 -0.6868
  124ALA      N   44  -0.074   3.397   5.610  0.3692  0.0570 -0.4202
  124ALA      H   45  -0.152   3.447   5.571 -0.6257 -1.8773 -1.0793
  124ALA     CA   46   0.057   3.438   5.564 -0.7380  0.2435 -0.7107
  124ALA     HA   47   0.104   3.359   5.506  1.8369  1.3392 -0.2250
  124ALA     CB   48   0.045   3.559   5.470  0.8683 -0.3055  0.5215
  124ALA    HB1   49   0.012   3.649   5.522 -0.8909  1.4863 -3.3139
  124ALA    HB2   50  -0.016   3.541   5.382 -0.2180  0.8757  1.0023
  124ALA    HB3   51   0.139   3.590   5.425 -0.3460  1.3502 -1.0058
  124ALA      C   52   0.160   3.463   5.679  0.4227  0.0788  0.2967
  124ALA      O   53   0.137   3.531   5.779 -0.1545 -0.4214  0.5123
  125TYR      N   54   0.279   3.409   5.658  0.6246 -0.4206 -0.5627
  125TYR      H   55   0.284   3.361   5.569 -0.9101 -1.1212 -0.3104
  125TYR     CA   56   0.390   3.396   5.754  0.0301 -0.6080  0.0307
  125TYR     HA   57   0.355   3.415   5.856  1.2240  0.6122  0.2399
  125TYR     CB   58   0.425   3.248   5.747  0.1622 -0.0265 -0.4484
  125TYR    HB1   59   0.459   3.234   5.645 -1.4680  1.3144 -1.2252
  125TYR    HB2   60   0.332   3.191   5.757  0.4872 -0.5860 -0.5668
  125TYR     CG   61   0.529   3.202   5.849 -0.2162 -0.2640 -0.3334
  125TYR    CD1   62   0.656   3.158   5.812 -0.4708  0.1864 -0.1538
  125TYR    HD1   63   0.689   3.145   5.710  0.6373 -2.4765  0.4641
  125TYR    CE1   64   0.747   3.115   5.914 -0.1466 -0.3621  0.6406
  125TYR    HE1   65   0.848   3.084   5.889 -0.4904 -0.8690 -0.1595
  125TYR     CZ   66   0.710   3.126   6.052 -0.3022  0.3784  0.0337
  125TYR     OH   67   0.805   3.103   6.150  0.0855  0.0617  0.4647
  125TYR     HH   68   0.772   3.112   6.239  0.3575  0.4689  0.5295
  125TYR    CE2   69   0.579   3.168   6.082 -0.3346 -0.0738 -0.7063
  125TYR    HE2   70   0.544   3.168   6.184 -1.0372 -1.3737 -0.9210
  125TYR    CD2   71   0.484   3.198   5.983  0.0147  0.3536  0.0313
  125TYR    HD2   72   0.381   3.221   6.004 -0.3564 -1.4517  0.3047
  125TYR      C   73   0.509   3.496   5.716  0.1462  0.3434 -0.2105
  125TYR      O   74   0.583   3.549   5.802 -0.2291 -0.5533  0.2436
  126GLU      N   75   0.522   3.521   5.585  0.3497 -0.2965  0.3388
  126GLU      H   76   0.457   3.472   5.526 -0.1107 -0.3363  0.8580
  126GLU     CA   77   0.630   3.600   5.523  0.6927 -0.3871 -0.4902
  126GLU     HA   78   0.704   3.622   5.600  1.7148  0.2131 -1.5974
  126GLU     CB   79   0.704   3.509   5.424 -0.3359  0.1053  0.3805
  126GLU    HB1   80   0.796   3.560   5.397 -0.0848 -0.2082  0.6429
  126GLU    HB2   81   0.644   3.493   5.334 -0.1945 -0.8845  0.4520
  126GLU     CG   82   0.741   3.373   5.499  0.2300 -0.2568  0.6072
  126GLU    HG1   83   0.673   3.292   5.472  1.8889 -1.8175  0.8237
  126GLU    HG2   84   0.737   3.388   5.607 -2.3769 -2.6836  0.9854
  126GLU     CD   85   0.875   3.314   5.463 -0.0110  0.1325  0.6687
  126GLU    OE1   86   0.932   3.248   5.552  0.7995  0.8224  0.0971
  126GLU    OE2   87   0.930   3.336   5.352  0.2800 -0.5109  0.0303
  126GLU      C   88   0.572   3.725   5.454 -0.6115  0.5586  0.0726
  126GLU      O   89   0.451   3.746   5.444  0.2232  0.2348  0.4765
  127MET      N   90   0.656   3.825   5.415  0.6314  1.0561 -0.3730
  127MET      H   91   0.753   3.820   5.441 -0.0579 -0.5836  2.1901
  127MET     CA   92   0.613   3.941   5.338 -0.0225  0.7186  1.3386
  127MET     HA   93   0.509   3.963   5.362 -1.1273 -1.3449 -1.1618
  127MET     CB   94   0.702   4.058   5.365  0.1014  0.1432  0.2870
  127MET    HB1   95   0.704   4.118   5.274 -1.5092 -1.5638 -0.9546
  127MET    HB2   96   0.807   4.041   5.389 -0.2175  0.3389  1.9278
  127MET     CG   97   0.654   4.144   5.478  0.7158 -0.0271 -0.9237
  127MET    HG1   98   0.727   4.224   5.494 -1.1045  1.3526  1.1053
  127MET    HG2   99   0.645   4.086   5.570  1.3771 -0.1110 -0.9084
  127MET     SD  100   0.494   4.227   5.461  0.3553  0.0908 -0.3116
  127MET     CE  101   0.497   4.373   5.568  0.0498  0.5636 -0.6144
  127MET    HE1  102   0.557   4.354   5.657 -2.6433 -1.0307  0.9855
  127MET    HE2  103   0.399   4.401   5.605 -0.5509 -1.4260 -0.5672
  127MET    HE3  104   0.542   4.456   5.515 -0.9116  0.6329 -1.3405
  127MET      C  105   0.604   3.908   5.186 -0.8754 -0.5621  0.9426
  127MET      O  106   0.695   3.840   5.137  0.4605  0.0308  0.6332
  128PRO      N  107   0.509   3.957   5.107  0.6838  0.2651 -0.2981
  128PRO     CD  108   0.386   4.008   5.161  0.3604  0.0687 -0.0801
  128PRO    HD1  109   0.401   4.097   5.223 -0.9547 -0.5830  1.2574
  128PRO    HD2  110   0.325   3.939   5.219  1.0765 -0.0145  0.5923
  128PRO     CG  111   0.315   4.056   5.035 -0.7759 -0.1103 -0.1816
  128PRO    HG1  112   0.346   4.159   5.016  0.6796 -0.9151 -2.5636
  128PRO    HG2  113   0.206   4.051   5.034 -0.8265  0.1001  1.3565
  128PRO     CB  114   0.363   3.969   4.921 -0.0062 -0.1216  0.0065
  128PRO    HB1  115   0.295   3.885   4.905 -2.2410  1.3483  1.2214
  128PRO    HB2  116   0.370   4.013   4.822  1.2265 -0.1427  0.0706
  128PRO     CA  117   0.502   3.923   4.961 -0.6422 -0.1405 -0.6718
  128PRO     HA  118   0.523   3.818   4.938 -1.4095  0.2197 -3.4551
  128PRO      C  119   0.627   3.983   4.886 -0.9080  0.6039  0.1259
  128PRO      O  120   0.696   4.074   4.938  0.6773  0.2913  0.7158
  129SER      N  121   0.654   3.944   4.761  0.7396  0.5561 -0.3174
  129SER      H  122   0.594   3.870   4.730  0.3098  0.3102  1.0178
  129SER     CA  123   0.777   3.957   4.675  0.7960  0.3234 -0.3226
  129SER     HA  124   0.820   4.055   4.694  1.3185  0.4194 -1.8912
  129SER     CB  125   0.881   3.850   4.721  1.0241  0.7344 -0.5826
  129SER    HB1  126   0.837   3.751   4.725  0.6679  0.9192  1.5885
  129SER    HB2  127   0.911   3.877   4.823 -1.2743 -1.3781  0.7775
  129SER     OG  128   0.999   3.852   4.644  0.0549 -0.5355  0.4306
  129SER    HG1  129   1.036   3.764   4.655 -0.8066 -0.7266  2.2814
  129SER      C  130   0.747   3.945   4.524  0.4020  0.4345  0.6796
  129SER      O  131   0.659   3.868   4.481  0.1986 -0.5510 -0.0659
  130GLU      N  132   0.822   4.021   4.442  1.0871 -0.6412 -0.2434
  130GLU      H  133   0.893   4.082   4.480  1.1974 -0.9992  0.1243
  130GLU     CA  134   0.813   4.019   4.295  0.8063  0.2096 -0.5112
  130GLU     HA  135   0.709   4.007   4.266  1.1259  0.6709 -1.9227
  130GLU     CB  136   0.873   4.150   4.229 -0.5128  0.9745  0.3033
  130GLU    HB1  137   0.881   4.125   4.123 -0.7541  0.7168  0.3428
  130GLU    HB2  138   0.978   4.167   4.253 -0.2113 -0.6275  0.2544
  130GLU     CG  139   0.798   4.276   4.248  1.2246  0.1339 -0.4401
  130GLU    HG1  140   0.777   4.290   4.354 -2.9344 -2.9336 -0.6202
  130GLU    HG2  141   0.695   4.273   4.212  1.2536 -1.3848 -0.4568
  130GLU     CD  142   0.872   4.392   4.186 -0.0907 -0.0257  0.1316
  130GLU    OE1  143   0.915   4.375   4.072  0.2047 -0.5729 -0.0683
  130GLU    OE2  144   0.877   4.499   4.247  0.3501  0.1135 -0.1204
  130GLU      C  145   0.883   3.894   4.235 -0.3377 -0.8992 -0.5111
  130GLU      O  146   0.870   3.870   4.115  0.1425  0.3428  0.0940
  131GLU      N  147   0.965   3.824   4.316 -0.3678 -0.2720  0.1075
  131GLU      H  148   0.960   3.849   4.414 -0.2992 -0.2027  0.0942
  131GLU     CA  149   1.088   3.746   4.280  0.0450  0.6145  0.1994
  131GLU     HA  150   1.107   3.777   4.177 -0.2699 -0.0758 -0.0719
  131GLU     CB  151   1.210   3.793   4.356 -0.8406 -0.0699  0.2600
  131GLU    HB1  152   1.287   3.716   4.346 -0.9339  0.0394 -1.9040
  131GLU    HB2  153   1.184   3.804   4.461  0.6353 -0.1941  0.6650
  131GLU     CG  154   1.261   3.918   4.288  0.3977 -0.3765  0.3546
  131GLU    HG1  155   1.177   3.988   4.282  0.7171  0.0539  0.8529
  131GLU    HG2  156   1.278   3.895   4.183 -1.1818 -0.8718  0.1810
  131GLU     CD  157   1.378   3.986   4.363 -0.2324 -0.5375  0.2865
  131GLU    OE1  158   1.438   4.085   4.309 -0.4375 -0.1173 -0.5349
  131GLU    OE2  159   1.422   3.932   4.471  0.1690 -0.6434 -0.2915
  131GLU      C  160   1.082   3.589   4.264 -0.2172  0.4867  1.0130
  131GLU      O  161   1.162   3.524   4.190  0.4376  0.8182  0.4982
  132GLY      N  162   0.988   3.524   4.330 -0.2402 -0.0312 -0.3911
  132GLY      H  163   0.931   3.584   4.389  1.0479  0.5068  0.3617
  132GLY     CA  164   0.962   3.384   4.325 -0.1137 -0.2889 -0.8932
  132GLY    HA1  165   1.058   3.337   4.346  0.6042  1.7140  0.7043
  132GLY    HA2  166   0.918   3.353   4.231 -0.8558 -0.7982 -0.3797
  132GLY      C  167   0.881   3.329   4.435  0.0129 -0.1947  1.0605
  132GLY      O  168   0.857   3.394   4.533 -0.0773 -0.2193  0.3383
  133TYR      N  169   0.834   3.205   4.406 -0.3132  0.0789 -0.2028
  133TYR      H  170   0.854   3.169   4.314 -1.8547  0.0679 -0.5692
  133TYR     CA  171   0.736   3.129   4.493 -0.2663 -0.2323 -0.0435
  133TYR     HA  172   0.646   3.186   4.515 -0.1379 -1.0680  3.1499
  133TYR     CB  173   0.683   3.003   4.414 -0.4619  0.3171 -0.2649
  133TYR    HB1  174   0.727   2.916   4.464 -1.7325 -0.6306 -0.7394
  133TYR    HB2  175   0.733   3.000   4.318  2.2114  1.1922  1.0043
  133TYR     CG  176   0.537   2.997   4.418  0.2212  0.3174 -0.0199
  133TYR    CD1  177   0.474   2.890   4.487 -0.5158  1.1133  0.1430
  133TYR    HD1  178   0.530   2.812   4.537 -0.8701 -1.0367 -2.5613
  133TYR    CE1  179   0.331   2.881   4.488 -0.3649 -0.1898  0.2536
  133TYR    HE1  180   0.284   2.799   4.541  0.6700 -0.5019  0.7180
  133TYR     CZ  181   0.254   2.981   4.424 -0.0987  0.3141  0.1352
  133TYR     OH  182   0.117   2.961   4.438 -0.1403 -0.6324  0.2278
  133TYR     HH  183   0.079   2.895   4.496 -1.4891  0.4440  0.6312
  133TYR    CE2  184   0.316   3.083   4.350 -0.0899  0.1899 -0.7929
  133TYR    HE2  185   0.257   3.165   4.314  0.1993  1.7808  2.0456
  133TYR    CD2  186   0.455   3.089   4.347  0.2383 -0.7153 -0.8058
  133TYR    HD2  187   0.498   3.163   4.282 -1.0122  1.7664  1.0273
  133TYR      C  188   0.797   3.092   4.635 -0.5531 -0.0179 -0.0948
  133TYR      O  189   0.913   3.058   4.647 -0.1298  0.3909  0.2389
  134GLN      N  190   0.710   3.103   4.735  0.3606 -0.1969 -0.0654
  134GLN      H  191   0.620   3.141   4.710  0.6484  0.3695 -0.2476
  134GLN     CA  192   0.741   3.069   4.878 -0.2326  0.3524 -0.6051
  134GLN     HA  193   0.842   3.105   4.895  0.8150 -1.1280 -3.2089
  134GLN     CB  194   0.636   3.127   4.978 -0.0865 -0.5691  0.1174
  134GLN    HB1  195   0.638   3.073   5.073  0.9372 -0.7119  0.0190
  134GLN    HB2  196   0.541   3.106   4.929  0.7310 -0.3819 -1.6121
  134GLN     CG  197   0.648   3.277   4.998  0.4734  0.0106 -0.1037
  134GLN    HG1  198   0.685   3.321   4.905  2.2073 -0.6062  0.2660
  134GLN    HG2  199   0.730   3.291   5.069 -0.5195  0.5094  0.9746
  134GLN     CD  200   0.518   3.350   5.050 -0.5473 -0.2256  0.3437
  134GLN    OE1  201   0.416   3.297   5.083  0.0938  0.1072  0.0538
  134GLN    NE2  202   0.531   3.481   5.064  0.0880 -0.5247 -0.5122
  134GLN   HE21  203   0.458   3.528   5.115  0.4240  0.5190 -0.9580
  134GLN   HE22  204   0.613   3.531   5.032  0.0424 -0.1421 -0.0430
  134GLN      C  205   0.741   2.916   4.913  0.3257 -0.0041 -0.4120
  134GLN      O  206   0.660   2.842   4.853 -0.2857  0.2295  0.3654
  135ASP      N  207   0.817   2.870   5.017  0.1533  0.2445 -0.0021
  135ASP      H  208   0.877   2.934   5.067 -0.2344 -0.7759  1.8322
  135ASP     CA  209   0.844   2.726   5.035 -0.4681 -0.8787 -0.2305
  135ASP     HA  210   0.861   2.679   4.938  3.0059 -1.4931  0.5421
  135ASP     CB  211   0.968   2.721   5.128  0.4031  0.1843 -0.3072
  135ASP    HB1  212   0.995   2.618   5.149 -0.9751  0.4180  3.3973
  135ASP    HB2  213   0.932   2.765   5.221  0.3972  2.3727 -1.2849
  135ASP     CG  214   1.096   2.792   5.077 -0.2105 -0.5082  0.3866
  135ASP    OD1  215   1.203   2.773   5.141  0.7705  0.5092 -0.0512
  135ASP    OD2  216   1.097   2.858   4.969  0.1279 -0.0671  0.5145
  135ASP      C  217   0.737   2.649   5.099  0.9737  0.3233 -0.6629
  135ASP      O  218   0.755   2.524   5.099  0.1098 -0.1909  1.0260
  136TYR      N  219   0.639   2.711   5.164  0.3870  0.1628  0.0443
  136TYR      H  220   0.664   2.801   5.201  3.2487 -0.1998 -0.7944
  136TYR     CA  221   0.524   2.635   5.213  0.2455 -0.1869  0.7144
  136TYR     HA  222   0.555   2.531   5.214  1.3577  0.1028 -0.3545
  136TYR     CB  223   0.483   2.695   5.352 -0.1376 -0.4942 -1.1550
  136TYR    HB1  224   0.487   2.804   5.340  0.8826 -0.6200 -2.1470
  136TYR    HB2  225   0.552   2.651   5.424  0.2598 -0.5939 -1.5973
  136TYR     CG  226   0.344   2.651   5.397  0.2002  0.6344 -0.3015
  136TYR    CD1  227   0.326   2.520   5.432  0.2398  0.6097 -0.5766
  136TYR    HD1  228   0.400   2.442   5.421  0.0782  0.4414 -0.4697
  136TYR    CE1  229   0.209   2.472   5.489  0.5195 -0.6771  0.3472
  136TYR    HE1  230   0.195   2.369   5.517 -2.3225 -0.1738  1.0169
  136TYR     CZ  231   0.100   2.562   5.507  0.0255  0.6737 -0.4768
  136TYR     OH  232  -0.020   2.518   5.560 -0.0152  0.2500  0.5769
  136TYR     HH  233  -0.005   2.425   5.579  2.4761  0.8934  2.2711
  136TYR    CE2  234   0.112   2.693   5.467 -0.5650  0.7169 -0.7506
  136TYR    HE2  235   0.024   2.755   5.476 -1.2871 -0.3983  0.3777
  136TYR    CD2  236   0.237   2.741   5.412  0.1843 -0.7659  0.0114
  136TYR    HD2  237   0.255   2.845   5.389  1.6056 -0.8341  0.6616
  136TYR      C  238   0.405   2.653   5.116 -0.2580  0.3736 -0.3745
  136TYR      O  239   0.369   2.757   5.066 -0.0926 -0.1158 -0.5304
  137GLU      N  240   0.335   2.542   5.098  0.1665 -0.0598 -0.7153
  137GLU      H  241   0.377   2.465   5.149  0.6613  1.4323  1.2692
  137GLU     CA  242   0.212   2.536   5.020 -0.3767  0.0966 -0.9486
  137GLU     HA  243   0.205   2.623   4.954  1.4971  1.3896  0.4301
  137GLU     CB  244   0.220   2.421   4.923  0.0054 -0.6330 -0.2595
  137GLU    HB1  245   0.236   2.326   4.974 -1.7212 -0.3935  0.7944
  137GLU    HB2  246   0.302   2.440   4.854 -0.8709 -3.7936 -2.3858
  137GLU     CG  247   0.093   2.423   4.832  0.3841  0.5311  0.3123
  137GLU    HG1  248   0.070   2.525   4.801  0.2651 -0.1103 -1.9124
  137GLU    HG2  249   0.025   2.379   4.904  2.0383 -0.2883  1.4389
  137GLU     CD  250   0.105   2.335   4.710 -0.6150 -0.1650 -0.3396
  137GLU    OE1  251  -0.001   2.310   4.647 -0.4002 -0.0402 -0.4025
  137GLU    OE2  252   0.220   2.297   4.674  0.3862 -0.1099 -0.7452
  137GLU      C  253   0.089   2.530   5.111 -0.8998  0.6036 -0.1984
  137GLU      O  254   0.075   2.429   5.184  0.2474 -0.7563 -0.1977
  138PRO      N  255  -0.015   2.624   5.101 -0.1730 -0.2325 -0.0545
  138PRO     CD  256  -0.001   2.754   5.036  0.3599  0.6657 -0.5222
  138PRO    HD1  257  -0.027   2.752   4.931  0.2386 -3.7797 -0.5840
  138PRO    HD2  258   0.101   2.793   5.036  0.7398  0.2178  3.8861
  138PRO     CG  259  -0.089   2.848   5.117  0.4390 -0.7297  0.3772
  138PRO    HG1  260  -0.129   2.934   5.064  0.1684  1.2041  3.4819
  138PRO    HG2  261  -0.037   2.894   5.201  0.1136 -1.3438  0.9221
  138PRO     CB  262  -0.207   2.758   5.163 -0.3271 -0.3483 -0.1891
  138PRO    HB1  263  -0.262   2.789   5.252 -0.8876 -2.2700  0.1851
  138PRO    HB2  264  -0.274   2.745   5.078  0.6251 -0.1126 -0.9935
  138PRO     CA  265  -0.127   2.624   5.191  0.1006 -0.4050  0.0774
  138PRO     HA  266  -0.081   2.639   5.288 -1.2427 -1.3180  0.8835
  138PRO      C  267  -0.209   2.496   5.186  0.2203 -0.4068  1.1192
  138PRO      O  268  -0.230   2.433   5.080  0.7951 -0.0979 -0.4844
  139GLU      N  269  -0.236   2.440   5.305 -0.2611 -0.0793 -0.0962
  139GLU      H  270  -0.220   2.495   5.388  1.6003  0.0846 -0.5105
  139GLU     CA  271  -0.284   2.301   5.328  0.3446  0.3760  0.5395
  139GLU     HA  272  -0.218   2.227   5.283 -0.2096 -0.3224  0.8435
  139GLU     CB  273  -0.279   2.277   5.476 -0.3467  0.1399 -0.1917
  139GLU    HB1  274  -0.356   2.206   5.505 -2.1433  2.3270  0.8015
  139GLU    HB2  275  -0.313   2.363   5.535 -1.9047 -2.5137  3.1048
  139GLU     CG  276  -0.149   2.212   5.518 -0.3186  0.3854  0.1062
  139GLU    HG1  277  -0.068   2.283   5.502  0.0678  0.3499  1.7146
  139GLU    HG2  278  -0.138   2.125   5.453  1.2505  0.9887 -0.4987
  139GLU     CD  279  -0.150   2.165   5.667 -0.5183 -0.4618  0.3455
  139GLU    OE1  280  -0.254   2.153   5.729  0.7972 -0.8610 -0.3475
  139GLU    OE2  281  -0.043   2.126   5.718 -0.2633  0.2587 -0.0091
  139GLU      C  282  -0.428   2.266   5.276 -0.3495  0.1316  0.1080
  139GLU      O  283  -0.522   2.337   5.313  0.0564  0.0577 -0.0613
  140CALA     N  284  -0.444   2.151   5.206 -0.0036  0.0955 -0.6017
  140CALA     H  285  -0.360   2.103   5.180  0.3918  1.3131 -1.6959
  140CALA    CA  286  -0.574   2.110   5.145 -0.0438  0.2592 -0.3305
  140CALA    HA  287  -0.611   2.192   5.084 -0.3467 -0.0505 -0.5674
  140CALA    CB  288  -0.552   1.999   5.045 -0.0633 -0.4706  0.0915
  140CALA   HB1  289  -0.637   1.992   4.977 -0.0016  0.7106 -0.1334
  140CALA   HB2  290  -0.545   1.906   5.102  1.6435 -0.2243  0.3385
  140CALA   HB3  291  -0.454   2.016   5.001  0.2243  0.2543  0.9747
  140CALA     C  292  -0.690   2.068   5.243  0.2862  0.1910 -0.4598
  140CALA   OC1  293  -0.779   2.157   5.260 -0.3170  0.2351 -0.9144
  140CALA   OC2  294  -0.677   1.973   5.327 -0.5666 -0.6477  0.0885
  141L47      C  295   2.010   0.177   0.701  0.2658  0.0389 -0.1888
  141L47      H  296   1.928   0.202   0.633  0.0738 -1.5014 -0.5663
  141L47     H1  297   1.974   0.125   0.790  0.0932 -0.3281 -0.4689
  141L47     H2  298   2.083   0.112   0.651  0.0046 -1.5908  1.4300
  141L47     C1  299   2.080   0.304   0.755 -0.3141  0.4391 -0.1285
  141L47      O  300   2.076   0.335   0.868  0.1579 -0.1465 -0.2110
  141L47      N  301   2.158   0.381   0.669 -0.4143 -0.3322  0.4551
  141L47     C2  302   2.148   0.372   0.521  0.1339 -0.3698  0.0795
  141L47     H3  303   2.040   0.382   0.501 -0.1698 -2.3866  0.4956
  141L47     H4  304   2.202   0.280   0.495 -0.7470 -0.9062  0.0932
  141L47     C3  305   2.228   0.490   0.459  0.1286 -0.3563 -0.3834
  141L47     H5  306   2.160   0.554   0.402 -0.7238 -1.6496 -0.8737
  141L47     H6  307   2.300   0.453   0.385 -0.3452 -3.1884  0.4385
  141L47     C4  308   2.289   0.553   0.579  0.2872 -0.2597  0.6505
  141L47     C5  309   2.242   0.495   0.694 -0.0138 -0.0358 -0.0344
  141L47     C6  310   2.291   0.537   0.819  0.3478 -0.0996 -0.1433
  141L47     H7  311   2.257   0.490   0.911  0.6696 -0.9036 -0.4309
  141L47     C7  312   2.377   0.650   0.821 -0.1615 -0.2163 -0.0344
  141L47     H8  313   2.396   0.691   0.920 -1.2845 -0.5314  0.3211
  141L47     C8  314   2.422   0.715   0.705  0.1796 -0.2773  0.4824
  141L47     C9  315   2.374   0.665   0.580  1.0777 -0.6774  0.0124
  141L47     H9  316   2.398   0.706   0.483  3.7259 -0.0931  0.8219
  141L47      S  317   2.536   0.852   0.722  0.2706 -0.2300  0.0346
  141L47     O1  318   2.626   0.841   0.608 -0.0941  0.3573 -0.3197
  141L47     O2  319   2.566   0.895   0.854 -0.4300  0.4727 -0.0526
  141L47     N1  320   2.439   0.974   0.667 -0.2630 -0.0432  0.2852
  141L47    C10  321   2.307   0.985   0.730 -0.4374 -0.2416 -0.5078
  141L47    H10  322   2.292   1.062   0.806  0.0561  1.6887 -2.2511
  141L47    H11  323   2.286   0.888   0.777 -0.4580 -0.8833 -1.7898
  141L47    C11  324   2.202   1.016   0.622  0.7674  0.6599 -0.2036
  141L47    H12  325   2.099   1.004   0.658  0.7236 -1.7541 -0.9452
  141L47    H13  326   2.210   0.943   0.539  0.8975  2.5039 -1.8851
  141L47    C12  327   2.211   1.161   0.556  0.0754 -0.5391 -0.2912
  141L47    H14  328   2.200   1.245   0.625  1.5289 -3.3190  3.7066
  141L47    H15  329   2.130   1.175   0.484  1.2058  2.2996 -1.1305
  141L47     N2  330   2.341   1.193   0.477  0.5416  0.1286 -0.1714
  141L47    H16  331   2.364   1.111   0.419  1.4676 -0.6326  1.2034
  141L47    H17  332   2.327   1.267   0.407 -1.3765  0.2099  0.2200
  141L47    C13  333   2.451   1.218   0.579 -0.5481  0.3991 -0.0361
  141L47    H18  334   2.416   1.288   0.655 -0.0393  0.5517  0.0624
  141L47    H19  335   2.538   1.258   0.525  0.8127 -0.9962  1.0190
  141L47    C14  336   2.524   1.095   0.650  0.6634  0.3369  0.7393
  141L47    H20  337   2.603   1.062   0.581 -1.3057  0.4391 -1.7135
  141L47    H21  338   2.569   1.126   0.745  0.2755  1.0539  0.6983
  142SOL     OW  339   4.152   2.561   0.558  0.4092  0.0329 -0.2657
  142SOL    HW2  340   4.191   2.603   0.635 -0.2724  1.0160 -0.4271
  142SOL    HW3  341   4.058   2.560   0.578 -0.1989  3.1255 -2.3070
  142SOL    MW4  342   4.145   2.566   0.571  0.2391  0.5707 -0.5563
  143SOL     OW  343   1.930   4.338   3.937  0.2520 -0.4187 -0.0791
  143SOL    HW2  344   1.871   4.299   4.001  0.5901 -0.2348  0.3505
  143SOL    HW3  345   1.878   4.345   3.857  0.1023 -1.4833 -0.0875
  143SOL    MW4  346   1.915   4.334   3.935  0.2768 -0.5349 -0.0235
  144SOL     OW  347   1.326   2.992   2.111 -0.0721 -0.5665  0.1232
  144SOL    HW2  348   1.283   3.048   2.046 -0.7295 -0.9523  0.2269
  144SOL    HW3  349   1.358   3.053   2.177  1.3456 -0.0746 -0.9613
  144SOL    MW4  350   1.325   3.007   2.111  0.0282 -0.5525 -0.0062
  145SOL     OW  351   5.741   5.771   4.589  0.4228 -0.3151  0.6999
  145SOL    HW2  352   5.813   5.833   4.588  1.0624 -0.9998  2.1894
  145SOL    HW3  353   5.759   5.712   4.515  0.4100  0.5633 -0.0241
  145SOL    MW4  354   5.753   5.771   4.579  0.5055 -0.2895  0.8009
  146SOL     OW  355   4.876   5.965   5.022  0.2888  0.3563  0.6610
  146SOL    HW2  356   4.792   5.921   5.040  0.1750 -0.1552 -0.9448
  146SOL    HW3  357   4.853   6.038   4.964  0.7747  1.1923  1.4911
  146SOL    MW4  358   4.862   5.969   5.017  0.3379  0.3991  0.5587
  147SOL     OW  359   3.851   2.016   4.834  0.1375 -0.3806  0.2163
  147SOL    HW2  360   3.939   2.035   4.868 -0.0154 -0.6627  0.7698
  147SOL    HW3  361   3.863   1.941   4.776  0.4115  0.1537 -0.4510
  147SOL    MW4  362   3.865   2.009   4.831  0.1535 -0.3473  0.2013
  148SOL     OW  363   1.443   5.386   4.775 -0.1024  0.1715 -0.2889
  148SOL    HW2  364   1.446   5.327   4.700  1.2976 -0.4402  0.2176
  148SOL    HW3  365   1.528   5.376   4.817 -0.8727  0.4506  1.4315
  148SOL    MW4  366   1.455   5.377   4.771 -0.0193  0.1276  0.0049
  149SOL     OW  367   2.976   0.076   5.875 -0.4764 -0.0126 -0.0126
  149SOL    HW2  368   2.925   0.052   5.952 -1.6913 -0.3144 -0.8800
  149SOL    HW3  369   3.008  -0.007   5.839  0.5729  0.1658  0.4654
  149SOL    MW4  370   2.974   0.062   5.880 -0.4983 -0.0289 -0.0640
  150SOL     OW  371   5.335   3.425   4.417 -1.1420  0.4474  0.1231
  150SOL    HW2  372   5.422   3.431   4.455 -0.4312 -0.0961 -1.3402
  150SOL    HW3  373   5.305   3.516   4.413 -0.7382  0.6217  0.8196
  150SOL    MW4  374   5.342   3.438   4.422 -0.9949  0.3987  0.0220
  151SOL     OW  375   0.459   6.187   0.779 -0.1661  0.2987 -0.3437
  151SOL    HW2  376   0.390   6.169   0.716 -0.6082  1.2314 -0.1379
  151SOL    HW3  377   0.433   6.269   0.821  0.1878 -0.2124  0.9394
  151SOL    MW4  378   0.447   6.195   0.777 -0.1778  0.3543 -0.1473
  152SOL     OW  379   3.897   5.179   2.620 -0.5872 -0.0034 -0.7367
  152SOL    HW2  380   3.897   5.133   2.536 -1.2702  0.0650 -0.7740
  152SOL    HW3  381   3.989   5.201   2.634 -0.4207 -0.2980 -1.3092
  152SOL    MW4  382   3.909   5.176   2.611 -0.6553 -0.0333 -0.8172
  153SOL     OW  383   0.689   5.980   1.040 -0.3120  0.3985  0.3896
  153SOL    HW2  384   0.684   5.992   1.135 -1.1706 -0.2495  0.4306
  153SOL    HW3  385   0.600   5.997   1.009  0.0632  1.0548 -0.3601
  153SOL    MW4  386   0.677   5.984   1.048 -0.3758  0.3996  0.2961
  154SOL     OW  387   3.811   3.143   5.133 -0.2607  0.4223  0.5160
  154SOL    HW2  388   3.844   3.209   5.195  0.9543 -1.4254  1.9573
  154SOL    HW3  389   3.890   3.112   5.089 -0.7695 -0.3358  0.1395
  154SOL    MW4  390   3.826   3.148   5.135 -0.1675  0.0785  0.6565
  155SOL     OW  391   0.640   6.034   4.877 -0.0124  0.3070  0.2317
  155SOL    HW2  392   0.623   5.978   4.952  0.3125 -0.5476 -0.3114
  155SOL    HW3  393   0.619   6.123   4.907  2.3196  0.3174  2.0827
  155SOL    MW4  394   0.635   6.039   4.891  0.3382  0.1956  0.4042
  156SOL     OW  395   4.445   0.501   2.464 -0.5774 -0.5906 -0.0425
  156SOL    HW2  396   4.403   0.527   2.546  0.6163 -0.4562  0.5511
  156SOL    HW3  397   4.430   0.575   2.405  1.7033  1.0145  1.2339
  156SOL    MW4  398   4.438   0.515   2.467 -0.1190 -0.3611  0.2042
  157SOL     OW  399   2.235   1.150   6.400 -0.5339  0.1906  0.1126
  157SOL    HW2  400   2.172   1.219   6.422 -1.1560  0.1619 -1.4352
  157SOL    HW3  401   2.190   1.068   6.424 -0.7496  0.2168 -0.1909
  157SOL    MW4  402   2.221   1.148   6.406 -0.6444  0.1903 -0.1317
  158SOL     OW  403   3.514   5.643   3.766  0.3882  0.1320 -0.1857
  158SOL    HW2  404   3.588   5.701   3.785 -1.1009  2.4029 -0.8808
  158SOL    HW3  405   3.445   5.702   3.735 -1.4354 -1.9889 -0.4014
  158SOL    MW4  406   3.514   5.659   3.765 -0.0489  0.1518 -0.3059
  159SOL     OW  407   6.100   2.786   0.257  0.0919 -0.0141 -0.5449
  159SOL    HW2  408   6.011   2.776   0.289  0.7550  0.1542  1.4797
  159SOL    HW3  409   6.155   2.776   0.334  1.9056 -0.9897 -1.8776
  159SOL    MW4  410   6.096   2.783   0.271  0.4186 -0.1206 -0.4536
  160SOL     OW  411   4.005   3.558   4.023 -0.0667 -0.1328 -0.3514
  160SOL    HW2  412   4.080   3.558   4.083 -0.4506  3.2775  0.3904
  160SOL    HW3  413   3.931   3.531   4.077  0.2256 -1.1565 -0.4461
  160SOL    MW4  414   4.005   3.555   4.038 -0.0788  0.1821 -0.2660
  161SOL     OW  415   5.556   5.028   3.484 -0.2075 -0.0670 -0.4607
  161SOL    HW2  416   5.552   5.086   3.560 -0.1016  2.1793 -2.0338
  161SOL    HW3  417   5.649   5.017   3.467 -0.1758 -2.2559  0.8632
  161SOL    MW4  418   5.567   5.034   3.492 -0.1893 -0.0594 -0.4936
  162SOL     OW  419   6.234   1.463   3.956  0.2597 -0.3854  0.2330
  162SOL    HW2  420   6.189   1.491   4.036 -0.5333  0.7103 -0.5741
  162SOL    HW3  421   6.326   1.463   3.980  0.1240  0.9687  0.8540
  162SOL    MW4  422   6.240   1.466   3.970  0.1372 -0.0622  0.2084
  163SOL     OW  423   0.703   2.506   3.320  0.1143  0.6733  0.0703
  163SOL    HW2  424   0.666   2.591   3.342 -1.0489  0.7650 -2.0151
  163SOL    HW3  425   0.641   2.443   3.356 -0.3221  0.7686 -0.5023
  163SOL    MW4  426   0.690   2.509   3.328 -0.0967  0.6980 -0.2804
  164SOL     OW  427   3.283   3.031   1.403  0.2134  0.7291  0.5001
  164SOL    HW2  428   3.233   3.006   1.481  0.3313  0.0217  0.3529
  164SOL    HW3  429   3.373   3.041   1.434  0.3705 -0.1269  0.3556
  164SOL    MW4  430   3.288   3.029   1.418  0.2497  0.5228  0.4616
  165SOL     OW  431   4.039   5.451   5.711 -0.0482 -0.8306  0.0301
  165SOL    HW2  432   4.099   5.450   5.636  0.8413  0.1980  0.6932
  165SOL    HW3  433   3.958   5.415   5.677  0.4444 -0.7208 -1.3385
  165SOL    MW4  434   4.036   5.446   5.697  0.1342 -0.6804 -0.0630
  166SOL     OW  435   0.980   0.957   3.086 -0.1993  0.0427 -0.0707
  166SOL    HW2  436   0.893   0.950   3.127 -0.2366 -2.0110 -0.3902
  166SOL    HW3  437   0.990   0.876   3.037  2.3554 -0.3016  0.8548
  166SOL    MW4  438   0.970   0.946   3.085  0.1328 -0.2737  0.0093
  167SOL     OW  439   3.568   1.962   3.669 -0.0798  0.7763  0.5557
  167SOL    HW2  440   3.521   1.995   3.746 -0.5658  2.6006 -0.4436
  167SOL    HW3  441   3.657   1.946   3.700 -0.2226  1.6574  1.4815
  167SOL    MW4  442   3.574   1.964   3.683 -0.1627  1.1333  0.5460
  168SOL     OW  443   5.152   5.915   0.256 -0.3176  0.1389 -0.8575
  168SOL    HW2  444   5.070   5.962   0.242 -0.3243  0.6609  0.6622
  168SOL    HW3  445   5.153   5.846   0.190 -1.8225  0.3330 -1.1138
  168SOL    MW4  446   5.141   5.912   0.246 -0.5171  0.2333 -0.6908
  169SOL     OW  447   0.951   5.876   4.031  0.1752  0.0232  0.3597
  169SOL    HW2  448   0.876   5.918   3.989  0.6054  1.2112  0.7342
  169SOL    HW3  449   0.969   5.931   4.107 -0.0121 -1.5718  1.5947
  169SOL    MW4  450   0.943   5.889   4.035  0.2073 -0.0305  0.5721
  170SOL     OW  451   1.751   4.199   2.066 -0.1184  0.1240  0.0058
  170SOL    HW2  452   1.846   4.202   2.067 -0.0947 -0.7365  0.4134
  170SOL    HW3  453   1.729   4.169   1.977 -0.0210  0.4856 -0.1428
  170SOL    MW4  454   1.760   4.196   2.054 -0.1024  0.0581  0.0400
  171SOL     OW  455   4.594   2.000   5.283 -0.3005  0.2613 -0.2136
  171SOL    HW2  456   4.595   2.052   5.363 -0.8559 -0.6864  0.4288
  171SOL    HW3  457   4.575   2.063   5.214 -2.2636  0.7596  0.7044
  171SOL    MW4  458   4.591   2.015   5.284 -0.6328  0.2020 -0.0077
  172SOL     OW  459   3.337   3.053   3.363 -0.1565 -0.2655 -0.0674
  172SOL    HW2  460   3.341   3.015   3.450 -0.6912 -1.8347 -0.6890
  172SOL    HW3  461   3.296   3.138   3.375  0.5266 -0.1015  1.2989
  172SOL    MW4  462   3.332   3.059   3.376 -0.1369 -0.4509  0.0308
  173SOL     OW  463   0.530   1.214   5.825  0.3865  0.0927 -0.4054
  173SOL    HW2  464   0.547   1.125   5.794  1.6295 -0.1191  0.7768
  173SOL    HW3  465   0.434   1.219   5.832  0.2428 -0.7889 -1.4447
  173SOL    MW4  466   0.519   1.203   5.822  0.5316 -0.0516 -0.3865
  174SOL     OW  467   2.374   3.144   5.782  0.4854 -0.4555  0.1913
  174SOL    HW2  468   2.396   3.076   5.846 -0.8830 -0.8543  0.2682
  174SOL    HW3  469   2.346   3.095   5.704  3.1927  0.0049 -1.1673
  174SOL    MW4  470   2.373   3.128   5.781  0.6621 -0.4474  0.0222
  175SOL     OW  471   0.086   1.982   6.128  0.5063 -0.5674 -0.0035
  175SOL    HW2  472   0.127   1.902   6.097 -1.6813 -2.0116  0.6038
  175SOL    HW3  473  -0.006   1.973   6.103  0.0441  1.3846  0.8137
  175SOL    MW4  474   0.079   1.971   6.121  0.1567 -0.5004  0.1845
  176SOL     OW  475   3.035   2.156   5.076  0.3550 -0.7283 -0.0231
  176SOL    HW2  476   2.965   2.212   5.043 -1.4459 -1.9555  1.4962
  176SOL    HW3  477   3.064   2.107   4.999  0.7027  0.9427 -1.0039
  176SOL    MW4  478   3.029   2.157   5.061  0.1632 -0.6698  0.0480
  177SOL     OW  479   3.809   4.318   1.056  0.1580  0.3779 -0.3899
  177SOL    HW2  480   3.837   4.255   0.990  1.7209  1.3597 -0.7102
  177SOL    HW3  481   3.886   4.333   1.110 -0.4973  1.1986  0.3531
  177SOL    MW4  482   3.823   4.312   1.054  0.2778  0.6158 -0.3341
  178SOL     OW  483   3.900   2.132   1.927 -0.0693 -0.3472 -0.1635
  178SOL    HW2  484   3.860   2.167   1.847 -0.3804  1.7047  0.8381
  178SOL    HW3  485   3.828   2.089   1.973  0.0459 -1.2602 -0.7994
  178SOL    MW4  486   3.885   2.131   1.922 -0.0952 -0.1969 -0.1152
  179SOL     OW  487   3.616   5.905   5.427  0.5267 -0.6269  0.6752
  179SOL    HW2  488   3.588   5.831   5.481  0.8823 -0.9980  0.3587
  179SOL    HW3  489   3.708   5.920   5.452  0.4016 -0.1705  0.8719
  179SOL    MW4  490   3.625   5.897   5.438  0.5571 -0.6157  0.6594
  180SOL     OW  491   2.216   4.603   4.168 -0.4596  0.1898  0.0357
  180SOL    HW2  492   2.268   4.681   4.149 -0.3251 -0.0950 -0.8133
  180SOL    HW3  493   2.249   4.572   4.253  1.0064 -0.1872 -0.6491
  180SOL    MW4  494   2.227   4.609   4.177 -0.2484  0.1025 -0.1667
  181SOL     OW  495   4.010   6.165   2.116  0.8307 -0.2508 -0.4009
  181SOL    HW2  496   4.027   6.082   2.071  0.4216  0.1461 -1.3169
  181SOL    HW3  497   4.073   6.226   2.079 -0.1642  0.3269 -1.1702
  181SOL    MW4  498   4.020   6.162   2.105  0.6455 -0.1222 -0.6232
  182SOL     OW  499   6.056   2.374   1.095 -0.0221  0.4044  0.6297
  182SOL    HW2  500   6.140   2.337   1.071 -0.7690 -0.7595 -0.2865
  182SOL    HW3  501   6.076   2.437   1.165  1.3096 -1.6208  2.1627
  182SOL    MW4  502   6.070   2.378   1.101  0.0550 -0.0164  0.7110
  183SOL     OW  503   5.778   2.863   0.909 -0.0183 -0.4428 -0.0265
  183SOL    HW2  504   5.781   2.905   0.824  1.8319  1.4300  0.8645
  183SOL    HW3  505   5.865   2.825   0.920 -0.0804 -0.2780  1.1760
  183SOL    MW4  506   5.790   2.864   0.900  0.2176 -0.1740  0.2497
  184SOL     OW  507   3.105   2.437   0.545 -0.1404 -0.2595  0.2442
  184SOL    HW2  508   3.058   2.409   0.624 -0.1709 -1.0826 -0.0504
  184SOL    HW3  509   3.133   2.355   0.504  2.4048  0.1873  0.9033
  184SOL    MW4  510   3.103   2.422   0.550  0.1914 -0.3091  0.2923
  185SOL     OW  511   6.233   0.931   0.295 -0.2465  0.5915  0.0986
  185SOL    HW2  512   6.303   0.987   0.262  0.3733  0.2939  0.8547
  185SOL    HW3  513   6.234   0.946   0.390 -0.3512 -0.3612  0.2608
  185SOL    MW4  514   6.243   0.940   0.303 -0.1786  0.4266  0.2198
  186SOL     OW  515   6.297   0.389   6.196 -0.3906 -0.6881 -0.4230
  186SOL    HW2  516   6.297   0.482   6.173  1.8633 -0.8116 -1.1997
  186SOL    HW3  517   6.348   0.384   6.277  1.0927 -1.3967 -1.3605
  186SOL    MW4  518   6.304   0.401   6.204  0.1025 -0.7979 -0.6492
  187SOL     OW  519   2.672   4.865   3.051 -0.0866  0.0390 -0.5769
  187SOL    HW2  520   2.679   4.881   3.145 -0.9514  1.0921 -0.6807
  187SOL    HW3  521   2.636   4.776   3.044  0.8877 -0.4257  0.0560
  187SOL    MW4  522   2.668   4.855   3.062 -0.0721  0.1167 -0.5071
  188SOL     OW  523   5.006   0.979   6.155 -0.4079  0.9292 -0.2827
  188SOL    HW2  524   5.026   0.986   6.248 -0.4420 -0.4736 -0.1590
  188SOL    HW3  525   5.045   1.058   6.116  1.1889  0.6373  0.6551
  188SOL    MW4  526   5.014   0.991   6.162 -0.2017  0.7056 -0.1426
  189SOL     OW  527   4.191   0.595   2.250  0.9835  0.8548 -0.8315
  189SOL    HW2  528   4.100   0.626   2.248  0.6153 -0.0966  0.1460
  189SOL    HW3  529   4.241   0.670   2.281  0.4443  1.2165 -0.8232
  189SOL    MW4  530   4.185   0.609   2.254  0.8638  0.7770 -0.7014
  190SOL     OW  531   3.098   3.144   5.116  0.1340 -0.7687 -0.6205
  190SOL    HW2  532   3.129   3.177   5.032  1.1354  0.7809  0.3044
  190SOL    HW3  533   3.009   3.179   5.124  1.0695  1.6389  0.2092
  190SOL    MW4  534   3.091   3.153   5.106  0.3895 -0.2466 -0.3890
  191SOL     OW  535   5.793   0.005   0.684  0.0840 -0.5260  0.2902
  191SOL    HW2  536   5.699  -0.005   0.696  0.2427 -3.1876  0.0471
  191SOL    HW3  537   5.821   0.060   0.757 -1.4345 -1.1303  1.3836
  191SOL    MW4  538   5.785   0.011   0.696 -0.0954 -0.9569  0.4024
  192SOL     OW  539   2.770   0.157   0.573  0.4576 -0.4952 -0.5209
  192SOL    HW2  540   2.813   0.242   0.587  0.4500 -0.4394 -0.8342
  192SOL    HW3  541   2.693   0.160   0.629  0.4022 -0.2534 -0.6076
  192SOL    MW4  542   2.765   0.168   0.582  0.4493 -0.4559 -0.5737
  193SOL     OW  543   1.735   0.902   1.345  0.1075 -1.0759  0.1123
  193SOL    HW2  544   1.734   0.995   1.322  0.9968 -0.4115  2.4604
  193SOL    HW3  545   1.649   0.870   1.320 -0.2413  0.3753 -0.6811
  193SOL    MW4  546   1.724   0.910   1.339  0.1788 -0.7968  0.3174
  194SOL     OW  547   5.813   4.166   2.767 -0.6172  0.9391  0.4303
  194SOL    HW2  548   5.737   4.115   2.795  0.4427 -0.2697  1.3012
  194SOL    HW3  549   5.825   4.231   2.836 -1.5523  1.9336 -0.3214
  194SOL    MW4  550   5.805   4.168   2.780 -0.6008  0.9108  0.4461
  195SOL     OW  551   0.221   6.142   4.271  0.8061 -0.6794 -0.3190
  195SOL    HW2  552   0.296   6.130   4.213 -0.1180  0.6432 -1.8691
  195SOL    HW3  553   0.145   6.138   4.213 -0.2175 -0.1911  0.9434
  195SOL    MW4  554   0.221   6.140   4.256  0.5491 -0.4404 -0.3570
  196SOL     OW  555   6.055   1.941   2.014 -0.1045 -0.2150  1.1514
  196SOL    HW2  556   6.089   1.952   1.925 -0.3421 -1.1130  0.9408
  196SOL    HW3  557   5.984   1.878   2.005 -0.0416 -0.4194  2.0027
  196SOL    MW4  558   6.050   1.935   2.001 -0.1275 -0.3605  1.2360
  197SOL     OW  559   5.485   1.227   0.727  0.2786 -0.1817  0.3483
  197SOL    HW2  560   5.498   1.305   0.781  1.3911 -1.6120  2.2606
  197SOL    HW3  561   5.449   1.162   0.786  2.7541 -2.2372 -0.1945
  197SOL    MW4  562   5.482   1.229   0.742  0.7520 -0.6416  0.5290
  198SOL     OW  563   1.269   5.032   4.413 -0.6333 -0.2394 -0.4413
  198SOL    HW2  564   1.218   4.980   4.475 -0.1761 -0.9838 -0.6671
  198SOL    HW3  565   1.360   5.007   4.430 -0.1649  2.0949  0.9190
  198SOL    MW4  566   1.274   5.022   4.423 -0.5111 -0.0297 -0.2916
  199SOL     OW  567   2.703   6.198   5.862 -0.3328  0.0408 -0.0129
  199SOL    HW2  568   2.714   6.126   5.924 -0.4963  1.2398  1.4620
  199SOL    HW3  569   2.756   6.172   5.786 -0.8451 -1.8780  0.2240
  199SOL    MW4  570   2.712   6.185   5.860 -0.4219 -0.0542  0.2130
  200SOL     OW  571   3.326   0.735   4.376 -0.4941 -0.3261 -0.6012
  200SOL    HW2  572   3.256   0.714   4.438 -1.0393 -0.8697 -1.3821
  200SOL    HW3  573   3.334   0.657   4.322  0.0254  0.1157 -1.1705
  200SOL    MW4  574   3.317   0.722   4.377 -0.4975 -0.3395 -0.7794
  201SOL     OW  575   4.565   6.375   3.849  0.6305  0.2994  0.3737
  201SOL    HW2  576   4.605   6.330   3.775  0.2071 -0.5512  0.6436
  201SOL    HW3  577   4.509   6.442   3.810  1.8397  1.1132 -0.0169
  201SOL    MW4  578   4.563   6.378   3.834  0.7342  0.2945  0.3578
  202SOL     OW  579   2.099   1.552   6.163  0.0649 -0.8131 -0.2696
  202SOL    HW2  580   2.162   1.624   6.160 -0.7153 -0.0760  0.4119
  202SOL    HW3  581   2.149   1.475   6.136  0.9943 -0.0754 -0.7098
  202SOL    MW4  582   2.114   1.552   6.159  0.0846 -0.6185 -0.2378
  203SOL     OW  583   5.740   3.155   2.041 -0.4891  0.6289 -0.6234
  203SOL    HW2  584   5.774   3.244   2.030  0.3280  0.3207 -0.6244
  203SOL    HW3  585   5.757   3.134   2.133 -1.8566  0.9452 -0.2739
  203SOL    MW4  586   5.746   3.164   2.052 -0.5617  0.6300 -0.5774
  204SOL     OW  587   5.609   0.541   5.496  0.1052 -0.6203  0.1715
  204SOL    HW2  588   5.598   0.460   5.546 -1.6770 -0.9630 -0.6815
  204SOL    HW3  589   5.591   0.611   5.558 -1.3971 -1.0136  0.2104
  204SOL    MW4  590   5.605   0.539   5.510 -0.3281 -0.7174  0.0641
  205SOL     OW  591   0.774   3.264   2.159 -0.2671  0.3500  0.1574
  205SOL    HW2  592   0.796   3.174   2.185 -1.3657  0.5258  1.8759
  205SOL    HW3  593   0.742   3.255   2.070 -0.0125 -0.9093  0.1603
  205SOL    MW4  594   0.773   3.251   2.151 -0.3785  0.2070  0.3845
  206SOL     OW  595   2.744   1.544   4.585  0.2378 -0.2445  0.6729
  206SOL    HW2  596   2.836   1.520   4.595  0.2888  0.0036  0.8069
  206SOL    HW3  597   2.708   1.479   4.525 -0.0758 -1.7854  2.4255
  206SOL    MW4  598   2.751   1.532   4.578  0.2032 -0.4150  0.9218
  207SOL     OW  599   3.589   4.330   5.362  0.2642  0.1482  0.2299
  207SOL    HW2  600   3.544   4.335   5.278 -0.6995  0.0674  0.7179
  207SOL    HW3  601   3.518   4.326   5.426  0.9831 -0.2503  1.0180
  207SOL    MW4  602   3.574   4.330   5.359  0.2319  0.0850  0.3982
  208SOL     OW  603   4.911   0.773   0.544  0.7457  0.1942  0.2292
  208SOL    HW2  604   4.898   0.847   0.604 -1.0300  0.1379 -0.0293
  208SOL    HW3  605   4.964   0.808   0.473  0.8903  0.8985  0.6751
  208SOL    MW4  606   4.916   0.787   0.543  0.5305  0.2797  0.2539
  209SOL     OW  607   2.791   3.857   2.457 -0.4612  0.4690  0.1054
  209SOL    HW2  608   2.706   3.900   2.464 -0.3215  0.6428  0.8761
  209SOL    HW3  609   2.848   3.908   2.515  0.1895  0.4098 -0.4780
  209SOL    MW4  610   2.787   3.870   2.466 -0.3569  0.4841  0.1301
  210SOL     OW  611   4.652   5.962   3.284 -0.4913 -0.0630  0.3026
  210SOL    HW2  612   4.595   5.947   3.209  0.1903  0.3683 -0.3213
  210SOL    HW3  613   4.615   6.040   3.327  1.2468  2.0695 -1.7990
  210SOL    MW4  614   4.640   5.970   3.280 -0.1721  0.2752 -0.0570
  211SOL     OW  615   4.478   2.327   0.495  0.4265 -0.3124 -0.2678
  211SOL    HW2  616   4.413   2.372   0.440  0.2637  0.6596  0.6698
  211SOL    HW3  617   4.536   2.397   0.523  1.8539 -1.1574 -1.0104
  211SOL    MW4  618   4.477   2.343   0.491  0.5934 -0.2956 -0.2420
  212SOL     OW  619   2.182   4.145   0.218  0.3308  0.0420 -0.8709
  212SOL    HW2  620   2.128   4.214   0.256  0.9228  0.0750 -0.0573
  212SOL    HW3  621   2.178   4.160   0.124 -0.7421  0.2807 -0.7994
  212SOL    MW4  622   2.174   4.156   0.211  0.2674  0.0778 -0.7541
  213SOL     OW  623   2.631   5.298   3.906  0.0211  0.1324 -0.0745
  213SOL    HW2  624   2.701   5.236   3.923 -0.1143 -0.2586 -0.8913
  213SOL    HW3  625   2.552   5.245   3.899 -0.0340  0.3242 -1.1942
  213SOL    MW4  626   2.630   5.283   3.907 -0.0041  0.1061 -0.3300
  214SOL     OW  627   5.571   4.314   2.963  0.3657  0.1109  0.2001
  214SOL    HW2  628   5.659   4.348   2.981 -0.4983  2.0910  1.0017
  214SOL    HW3  629   5.515   4.391   2.964 -1.3622 -1.0718 -0.5756
  214SOL    MW4  630   5.575   4.329   2.966  0.0237  0.2161  0.2035
  215SOL     OW  631   0.961   2.351   2.178  0.0570 -0.4748  0.4723
  215SOL    HW2  632   0.983   2.296   2.254  1.8124 -1.4177 -0.6363
  215SOL    HW3  633   0.912   2.294   2.120  0.1167 -0.2406  0.1899
  215SOL    MW4  634   0.958   2.337   2.180  0.2965 -0.5683  0.2888
  216SOL     OW  635   1.856   0.571   5.428 -0.0999  0.0539 -0.0720
  216SOL    HW2  636   1.762   0.583   5.441 -0.2677 -1.6815  0.5211
  216SOL    HW3  637   1.885   0.519   5.503  1.7065  2.0441  0.7231
  216SOL    MW4  638   1.848   0.566   5.439  0.1163  0.0876  0.1111
  217SOL     OW  639   5.812   4.193   1.837  0.0969  0.2052 -0.7235
  217SOL    HW2  640   5.891   4.145   1.813  0.1668 -0.4128  0.6699
  217SOL    HW3  641   5.743   4.154   1.783  0.5435  0.0412 -1.1853
  217SOL    MW4  642   5.813   4.182   1.826  0.1651  0.1020 -0.6006
  218SOL     OW  643   3.642   3.658   5.991  0.4430 -0.1184 -0.4708
  218SOL    HW2  644   3.729   3.699   5.997 -0.1595  1.5489 -2.2131
  218SOL    HW3  645   3.627   3.623   6.079  1.7300  2.0015  0.7070
  218SOL    MW4  646   3.652   3.659   6.003  0.5333  0.3813 -0.5453
  219SOL     OW  647   2.833   5.889   0.753 -0.4518  0.8124  0.0637
  219SOL    HW2  648   2.780   5.894   0.833 -1.1713 -1.1341 -0.2297
  219SOL    HW3  649   2.822   5.798   0.724  2.3472  0.5931 -0.5143
  219SOL    MW4  650   2.824   5.878   0.760 -0.1775  0.5266 -0.0512
  220SOL     OW  651   1.041   5.100   3.807 -1.1250  0.3866  0.4898
  220SOL    HW2  652   1.020   5.154   3.883  0.0106 -0.8253  1.7254
  220SOL    HW3  653   1.127   5.131   3.778 -0.9396 -0.0523  0.5574
  220SOL    MW4  654   1.049   5.111   3.813 -0.9507  0.1688  0.6618
  221SOL     OW  655   5.956   1.205   4.258 -0.3803  0.1457  0.1097
  221SOL    HW2  656   5.862   1.188   4.268 -0.2420 -0.4339  0.4549
  221SOL    HW3  657   5.966   1.232   4.167 -0.7742 -0.5370 -0.1409
  221SOL    MW4  658   5.945   1.206   4.247 -0.4140 -0.0209  0.1222
  222SOL     OW  659   2.364   0.600   6.157 -0.0683  0.2754  1.0153
  222SOL    HW2  660   2.365   0.581   6.063  2.3199  2.3570  0.4984
  222SOL    HW3  661   2.445   0.562   6.191 -0.4128  0.4027  2.0142
  222SOL    MW4  662   2.375   0.593   6.149  0.2013  0.5668  1.0789
  223SOL     OW  663   5.861   1.801   0.647  0.3900  0.2103 -0.2523
  223SOL    HW2  664   5.826   1.775   0.732  0.4857 -0.1848 -0.3359
  223SOL    HW3  665   5.915   1.878   0.666  0.3496  0.1697  0.0326
  223SOL    MW4  666   5.863   1.808   0.661  0.3973  0.1528 -0.2257
  224SOL     OW  667   2.088   3.975   0.605  0.0231 -0.3995  0.6255
  224SOL    HW2  668   2.013   3.927   0.639 -1.1439 -0.5859 -1.9852
  224SOL    HW3  669   2.052   4.059   0.577  1.4588  0.8318  2.2874
  224SOL    MW4  670   2.073   3.979   0.606  0.0585 -0.2617  0.5003
  225SOL     OW  671   2.439   0.623   3.889  0.1902  0.0692 -0.1899
  225SOL    HW2  672   2.481   0.649   3.807 -0.9346  0.0366 -0.8011
  225SOL    HW3  673   2.512   0.604   3.949  1.0812  2.8828 -0.2506
  225SOL    MW4  674   2.454   0.624   3.886  0.1594  0.4361 -0.2786
  226SOL     OW  675   1.478   3.517   2.340 -0.3388 -0.0407 -0.6520
  226SOL    HW2  676   1.571   3.501   2.358 -0.5097 -0.2969  0.0344
  226SOL    HW3  677   1.453   3.447   2.279  0.4269  1.2614 -2.5802
  226SOL    MW4  678   1.487   3.506   2.334 -0.2603  0.0973 -0.8159
  227SOL     OW  679   5.572   2.511   1.084 -0.4842  0.1133 -0.1543
  227SOL    HW2  680   5.647   2.456   1.106 -2.3394 -2.0359  1.3061
  227SOL    HW3  681   5.584   2.532   0.992  3.2034  2.1301  0.5875
  227SOL    MW4  682   5.583   2.506   1.075 -0.2424  0.0959  0.1363
  228SOL     OW  683   4.476   3.190   2.215 -0.5937  0.4276  0.4216
  228SOL    HW2  684   4.470   3.201   2.120 -1.1809 -1.4453  0.2027
  228SOL    HW3  685   4.566   3.217   2.236  0.9610 -2.8228 -1.2949
  228SOL    MW4  686   4.487   3.195   2.205 -0.4661 -0.2484  0.1662
  229SOL     OW  687   2.161   3.984   3.065 -0.0002 -0.5308 -0.6410
  229SOL    HW2  688   2.108   3.992   3.144  0.9934  1.0998 -0.0946
  229SOL    HW3  689   2.206   3.901   3.074  0.8535  0.0743  1.0180
  229SOL    MW4  690   2.160   3.974   3.076  0.2435 -0.2358 -0.3500
  230SOL     OW  691   0.386   4.835   3.631 -1.0097 -0.4254  0.1628
  230SOL    HW2  692   0.362   4.915   3.584 -2.9851 -1.1114 -0.0936
  230SOL    HW3  693   0.333   4.838   3.711 -1.5895 -1.7594 -0.1487
  230SOL    MW4  694   0.376   4.846   3.636 -1.3468 -0.6919  0.0878
  231SOL     OW  695   6.187   5.990   3.541  0.4051 -0.0710 -0.5080
  231SOL    HW2  696   6.222   5.901   3.535 -2.1930 -1.2036  0.0655
  231SOL    HW3  697   6.146   5.995   3.627 -0.8827  1.1408 -1.1476
  231SOL    MW4  698   6.186   5.979   3.552 -0.1076 -0.0606 -0.5167
  232SOL     OW  699   1.273   5.612   4.332  0.2958  0.0836  0.1295
  232SOL    HW2  700   1.354   5.661   4.345 -0.0129  0.4832  0.5682
  232SOL    HW3  701   1.299   5.536   4.280  1.2572 -0.6290  1.6000
  232SOL    MW4  702   1.287   5.608   4.327  0.3819  0.0423  0.3814
  233SOL     OW  703   2.846   0.354   0.828  0.8071 -0.5798  0.4148
  233SOL    HW2  704   2.889   0.430   0.868 -0.2758  0.2907 -0.0288
  233SOL    HW3  705   2.764   0.388   0.793  1.1118 -1.5737 -1.4196
  233SOL    MW4  706   2.841   0.368   0.829  0.7044 -0.5961  0.1143
  234SOL     OW  707   4.593   0.420   3.806  0.7118 -0.6204 -0.3248
  234SOL    HW2  708   4.604   0.508   3.844  0.2828 -0.2401 -1.0535
  234SOL    HW3  709   4.621   0.430   3.716 -1.8550 -0.5410 -1.1983
  234SOL    MW4  710   4.598   0.433   3.799  0.3165 -0.5597 -0.5362
  235SOL     OW  711   1.081   1.834   1.463 -0.3187 -0.0124 -0.6550
  235SOL    HW2  712   1.127   1.790   1.535  0.0182  0.2995 -0.6768
  235SOL    HW3  713   1.080   1.769   1.393 -1.8010 -0.7972  0.0555
  235SOL    MW4  714   1.087   1.819   1.464 -0.4698 -0.0748 -0.5641
  236SOL     OW  715   2.812   2.587   2.587  0.3420  0.1162 -0.0362
  236SOL    HW2  716   2.873   2.552   2.522  0.6377 -0.8732  0.7441
  236SOL    HW3  717   2.741   2.623   2.535  1.5346  1.2326 -0.9677
  236SOL    MW4  718   2.811   2.587   2.572  0.5383  0.1330 -0.0561
  237SOL     OW  719   0.171   2.141   3.016  0.2324 -0.1829 -0.2167
  237SOL    HW2  720   0.086   2.106   3.043  0.7212  0.3167  2.0930
  237SOL    HW3  721   0.164   2.235   3.030  1.1956 -0.1421  0.0268
  237SOL    MW4  722   0.159   2.149   3.021  0.4240 -0.1116  0.1202
  238SOL     OW  723   1.090   0.034   1.650  0.1576 -0.1556  0.0768
  238SOL    HW2  724   1.057   0.053   1.738  0.3324  0.5184  0.0070
  238SOL    HW3  725   1.165   0.094   1.639 -0.8151  0.9114 -1.1100
  238SOL    MW4  726   1.096   0.044   1.660  0.0523  0.0741 -0.0890
  239SOL     OW  727   4.813   1.295   1.333 -0.1738  0.3676 -0.6438
  239SOL    HW2  728   4.837   1.372   1.384 -2.8096  1.0213 -0.2774
  239SOL    HW3  729   4.897   1.253   1.313  1.2474  2.6204  0.2146
  239SOL    MW4  730   4.827   1.300   1.337 -0.3340  0.7510 -0.4822
  240SOL     OW  731   4.819  -0.005   3.960 -0.3000  0.2335 -0.1233
  240SOL    HW2  732   4.879  -0.075   3.936 -0.0756 -0.2264  1.6045
  240SOL    HW3  733   4.735  -0.030   3.922  0.2233  0.0424 -1.1672
  240SOL    MW4  734   4.816  -0.018   3.952 -0.2014  0.1476 -0.0330
  241SOL     OW  735   1.727   1.181   1.260  0.3912 -0.2284 -0.0964
  241SOL    HW2  736   1.677   1.200   1.181  1.2603 -1.0692 -0.8693
  241SOL    HW3  737   1.802   1.241   1.257 -0.1052  0.4572  0.6389
  241SOL    MW4  738   1.730   1.192   1.249  0.4403 -0.2489 -0.1014
  242SOL     OW  739   1.105   1.174   2.989  0.2385 -0.4831  0.2124
  242SOL    HW2  740   1.072   1.174   2.900  2.9929  0.0064 -0.9156
  242SOL    HW3  741   1.082   1.088   3.023 -0.4165 -0.8685 -1.1465
  242SOL    MW4  742   1.098   1.163   2.982  0.5155 -0.4694 -0.1157
  243SOL     OW  743   0.764   1.410   4.071  0.3481 -0.0083 -0.2808
  243SOL    HW2  744   0.786   1.317   4.082  1.3719  0.2225 -0.2580
  243SOL    HW3  745   0.678   1.409   4.030  0.4509 -0.9813 -0.5114
  243SOL    MW4  746   0.756   1.397   4.067  0.4967 -0.1062 -0.3082
  244SOL     OW  747   4.911   5.529   3.171  0.2734  0.0378 -0.2305
  244SOL    HW2  748   4.983   5.539   3.233  0.0735 -1.9691  0.3807
  244SOL    HW3  749   4.832   5.526   3.225 -0.3561  2.3539 -0.9008
  244SOL    MW4  750   4.910   5.530   3.186  0.1640  0.0786 -0.2383
  245SOL     OW  751   1.447   1.796   5.033 -0.0350 -0.6864 -0.0093
  245SOL    HW2  752   1.431   1.738   4.959 -1.8058 -0.1888 -0.0621
  245SOL    HW3  753   1.522   1.757   5.078 -0.4640 -2.3796 -0.6788
  245SOL    MW4  754   1.455   1.784   5.029 -0.3253 -0.8441 -0.1046
  246SOL     OW  755   2.212   1.272   6.141 -0.1905 -0.3763 -0.4164
  246SOL    HW2  756   2.305   1.294   6.134 -0.1554 -0.6507 -0.8223
  246SOL    HW3  757   2.205   1.223   6.223  0.3240 -1.8639 -1.2380
  246SOL    MW4  758   2.223   1.268   6.151 -0.1180 -0.6088 -0.5784
  247SOL     OW  759   2.349   5.016   4.468  0.0196  0.5231  0.4414
  247SOL    HW2  760   2.390   4.959   4.403 -2.8015  0.1158 -1.1030
  247SOL    HW3  761   2.333   5.098   4.422  0.6705  1.3022  1.5537
  247SOL    MW4  762   2.353   5.019   4.454 -0.2668  0.5721  0.3844
  248SOL     OW  763   2.699   2.310   1.699  0.3264 -0.0236 -0.1828
  248SOL    HW2  764   2.658   2.241   1.647  0.1365 -0.2104  0.2067
  248SOL    HW3  765   2.634   2.333   1.765 -0.2282  1.6377 -1.2546
  248SOL    MW4  766   2.685   2.304   1.701  0.2281  0.1709 -0.2728
  249SOL     OW  767   5.732   0.210   6.148  0.0421  0.4370  0.5034
  249SOL    HW2  768   5.668   0.236   6.081 -1.4298  0.3478  1.8090
  249SOL    HW3  769   5.689   0.231   6.231  2.5056  2.1820  1.4526
  249SOL    MW4  770   5.718   0.216   6.150  0.1729  0.6555  0.8009
  250SOL     OW  771   2.595   1.741   1.951  0.2187  0.0874 -0.2254
  250SOL    HW2  772   2.646   1.660   1.952 -2.3324 -1.6690 -0.8395
  250SOL    HW3  773   2.624   1.787   1.872  1.5311 -0.3241 -0.0057
  250SOL    MW4  774   2.605   1.736   1.941  0.0553 -0.1986 -0.2774
  251SOL     OW  775   6.079   4.827   4.658 -0.2130  0.0640  0.3396
  251SOL    HW2  776   6.086   4.747   4.605 -1.0279  0.6242 -0.6640
  251SOL    HW3  777   6.146   4.885   4.622 -1.0074  0.5778 -0.3538
  251SOL    MW4  778   6.089   4.824   4.646 -0.4254  0.2057  0.1157
  252SOL     OW  779   1.444   2.178   5.951 -0.6450 -0.2703  0.4619
  252SOL    HW2  780   1.457   2.212   5.862  0.3905 -0.8999  0.3496
  252SOL    HW3  781   1.349   2.178   5.964 -0.7197  2.9000  0.5772
  252SOL    MW4  782   1.433   2.183   5.941 -0.5183  0.0649  0.4623
  253SOL     OW  783   2.105   1.311   5.089  0.4790  0.5880  0.1100
  253SOL    HW2  784   2.110   1.260   5.009  0.5834  1.3223 -0.3554
  253SOL    HW3  785   2.050   1.258   5.147  1.6308 -0.6630  0.1088
  253SOL    MW4  786   2.098   1.297   5.086  0.6448  0.5198  0.0485
  254SOL     OW  787   0.134   3.378   1.819 -0.4677  0.1935 -0.5599
  254SOL    HW2  788   0.149   3.283   1.823 -0.0769  0.2413 -0.9010
  254SOL    HW3  789   0.151   3.401   1.728  1.5779  0.9527 -0.0362
  254SOL    MW4  790   0.138   3.368   1.807 -0.1463  0.3000 -0.5358
  255SOL     OW  791   0.887   4.721   5.487  0.2536  0.2068 -0.3653
  255SOL    HW2  792   0.937   4.792   5.446 -0.2353  0.3203 -0.7682
  255SOL    HW3  793   0.947   4.646   5.487  0.5629  0.4541 -0.4758
  255SOL    MW4  794   0.902   4.720   5.482  0.2299  0.2544 -0.4330
  256SOL     OW  795   0.998   2.601   4.712  0.5460  0.3692 -0.2627
  256SOL    HW2  796   1.009   2.695   4.728  0.2387  0.4146 -0.3257
  256SOL    HW3  797   1.084   2.564   4.733  0.8542  0.7429 -0.8440
  256SOL    MW4  798   1.011   2.609   4.717  0.5461  0.4245 -0.3477
  257SOL     OW  799   6.202   1.741   0.248 -0.4255  0.4259 -0.6968
  257SOL    HW2  800   6.289   1.750   0.207 -0.6190 -0.4996 -1.3539
  257SOL    HW3  801   6.192   1.647   0.262 -0.3290  0.7075  1.6586
  257SOL    MW4  802   6.212   1.730   0.244 -0.4383  0.3410 -0.4727
  258SOL     OW  803   1.047   5.289   5.861  0.5400 -0.4282 -0.5022
  258SOL    HW2  804   0.952   5.279   5.860  0.3168  1.2709 -2.2452
  258SOL    HW3  805   1.063   5.359   5.925  0.6042 -0.6079 -0.3214
  258SOL    MW4  806   1.037   5.297   5.869  0.5190 -0.2278 -0.7083
  259SOL     OW  807   0.146   3.696   5.051  0.5013 -0.6330  0.3141
  259SOL    HW2  808   0.164   3.654   4.967 -1.1014 -1.5974  0.4061
  259SOL    HW3  809   0.076   3.759   5.032  0.5898 -0.3841  0.7974
  259SOL    MW4  810   0.139   3.699   5.037  0.3015 -0.7274  0.3900
  260SOL     OW  811   3.653   0.233   3.976  0.5751  0.4187 -0.0439
  260SOL    HW2  812   3.621   0.295   3.910  0.1717  0.7881  0.5004
  260SOL    HW3  813   3.589   0.163   3.977 -0.2207  1.1359  1.0127
  260SOL    MW4  814   3.641   0.232   3.967  0.4169  0.5621  0.1673
  261SOL     OW  815   0.691   3.064   2.429  0.5538  0.0137  0.1180
  261SOL    HW2  816   0.636   3.044   2.505  0.0283 -1.2164 -0.5541
  261SOL    HW3  817   0.723   3.153   2.444  0.5384 -0.2481  1.8184
  261SOL    MW4  818   0.688   3.073   2.441  0.4824 -0.1832  0.2537
  262SOL     OW  819   1.051   4.033   3.616 -0.6327  0.5457  0.1274
  262SOL    HW2  820   1.108   4.050   3.541  0.1068 -1.0780  0.2835
  262SOL    HW3  821   1.103   4.057   3.692 -0.3192 -0.4398  0.2419
  262SOL    MW4  822   1.065   4.038   3.616 -0.4937  0.2015  0.1631
  263SOL     OW  823   2.585   1.499   3.111 -0.2656  0.0995  0.2018
  263SOL    HW2  824   2.609   1.569   3.172  0.8181 -0.1181  0.0504
  263SOL    HW3  825   2.490   1.489   3.122 -0.1683  0.3750  1.5099
  263SOL    MW4  826   2.576   1.507   3.121 -0.1098  0.1071  0.3544
  264SOL     OW  827   0.105   3.765   4.611  0.6096  0.0808  0.1463
  264SOL    HW2  828   0.165   3.712   4.663  2.0597  0.4882 -1.0545
  264SOL    HW3  829   0.020   3.722   4.622  1.3297 -1.2052  0.9379
  264SOL    MW4  830   0.102   3.752   4.619  0.8959 -0.0351  0.0923
  265SOL     OW  831   1.361   4.520   3.087 -0.2296 -0.1209  0.2931
  265SOL    HW2  832   1.343   4.582   3.016 -1.0544  0.3328  0.8752
  265SOL    HW3  833   1.387   4.439   3.043 -0.4415  0.2440 -0.5153
  265SOL    MW4  834   1.362   4.518   3.072 -0.3664 -0.0129  0.2633
  266SOL     OW  835   5.667   6.008   2.448 -0.7426 -0.1711  0.4537
  266SOL    HW2  836   5.580   6.040   2.473  0.1137  1.3852  1.6110
  266SOL    HW3  837   5.728   6.070   2.487  0.8884 -0.5201 -1.3769
  266SOL    MW4  838   5.664   6.020   2.456 -0.4145 -0.0118  0.3649
  267SOL     OW  839   1.976   3.086   4.976 -0.1687  0.5388  0.4283
  267SOL    HW2  840   1.977   3.119   5.065 -1.5612 -2.9185  1.9103
  267SOL    HW3  841   2.068   3.065   4.957 -0.1428 -1.3501  2.2742
  267SOL    MW4  842   1.989   3.088   4.985 -0.3490 -0.1665  0.8674
  268SOL     OW  843   6.046   0.517   4.356 -0.0215  0.3521 -0.0054
  268SOL    HW2  844   5.953   0.494   4.350 -0.1523  0.0958  2.1710
  268SOL    HW3  845   6.067   0.555   4.270 -2.1196  0.4166 -0.5507
  268SOL    MW4  846   6.036   0.519   4.344 -0.3156  0.3268  0.2098
  269SOL     OW  847   2.647   3.491   3.171 -0.2884 -0.1807 -0.2670
  269SOL    HW2  848   2.739   3.518   3.163  0.3940 -1.7091  1.5406
  269SOL    HW3  849   2.610   3.551   3.236 -0.0240 -0.7527  0.4188
  269SOL    MW4  850   2.654   3.502   3.179 -0.1635 -0.4578  0.0620
  270SOL     OW  851   3.489   0.107   0.619  0.1064  0.3315  0.0710
  270SOL    HW2  852   3.495   0.048   0.695 -0.3882 -1.3095 -1.1164
  270SOL    HW3  853   3.529   0.188   0.650 -1.1993  0.1474  2.4846
  270SOL    MW4  854   3.495   0.110   0.633 -0.1311  0.0907  0.2328
  271SOL     OW  855   1.330   2.611   3.063  0.2126  0.4520 -0.0121
  271SOL    HW2  856   1.280   2.641   3.139  1.1476  2.5680 -0.1598
  271SOL    HW3  857   1.405   2.564   3.101 -0.7309 -0.9206  0.2505
  271SOL    MW4  858   1.333   2.608   3.078  0.2114  0.5501  0.0031
  272SOL     OW  859   4.427   5.923   4.928 -0.4713  0.1926  0.4625
  272SOL    HW2  860   4.436   6.009   4.970  1.8348 -0.0464  0.5861
  272SOL    HW3  861   4.516   5.899   4.903 -0.5848 -3.3584  2.7831
  272SOL    MW4  862   4.440   5.932   4.930 -0.1821 -0.3075  0.7850
  273SOL     OW  863   1.190   4.718   0.441 -0.6371  0.7116 -0.0230
  273SOL    HW2  864   1.168   4.727   0.534  1.0317 -2.4704  0.8262
  273SOL    HW3  865   1.107   4.693   0.400 -1.1831  1.0849  0.8120
  273SOL    MW4  866   1.176   4.716   0.448 -0.4890  0.3410  0.1992
  274SOL     OW  867   6.268   0.886   2.241 -0.2524  0.4942 -0.1884
  274SOL    HW2  868   6.262   0.800   2.200 -0.2153 -0.1519  1.0930
  274SOL    HW3  869   6.177   0.910   2.260 -0.2584  0.7003 -0.4842
  274SOL    MW4  870   6.255   0.878   2.238 -0.2483  0.4361 -0.0584
  275SOL     OW  871   5.130   2.464   5.856  0.0243 -0.5036  0.3943
  275SOL    HW2  872   5.204   2.458   5.795 -0.6030 -0.7671 -0.3549
  275SOL    HW3  873   5.113   2.558   5.864 -0.5002 -0.5053 -0.5931
  275SOL    MW4  874   5.138   2.476   5.849 -0.1277 -0.5386  0.1652
  276SOL     OW  875   0.030   5.331   2.503 -0.1036 -0.6486 -0.1762
  276SOL    HW2  876  -0.055   5.355   2.468 -0.5289 -0.4149  0.9797
  276SOL    HW3  877   0.011   5.276   2.579  0.7353  0.2021  0.6807
  276SOL    MW4  878   0.016   5.327   2.508 -0.0491 -0.5055  0.0893
  277SOL     OW  879   5.014   5.142   6.299 -0.6799 -0.2391 -0.4863
  277SOL    HW2  880   5.104   5.113   6.308 -0.6691 -0.1617 -0.3402
  277SOL    HW3  881   5.004   5.212   6.364 -1.0702 -0.7834  0.0597
  277SOL    MW4  882   5.024   5.148   6.309 -0.7300 -0.3007 -0.3950
  278SOL     OW  883   4.086   6.425   5.773 -0.0644  0.1313 -0.3231
  278SOL    HW2  884   4.158   6.394   5.718 -0.0408  1.2577 -0.9506
  278SOL    HW3  885   4.110   6.396   5.862 -0.5847 -2.5888 -0.9638
  278SOL    MW4  886   4.099   6.417   5.778 -0.1299 -0.0790 -0.4904
  279SOL     OW  887   1.668   0.698   1.953  0.2408 -0.2883  0.4803
  279SOL    HW2  888   1.660   0.606   1.927  0.1305 -0.3557  0.7489
  279SOL    HW3  889   1.605   0.744   1.898  1.8228 -0.0421 -1.2567
  279SOL    MW4  890   1.659   0.692   1.942  0.4349 -0.2647  0.2865
  280SOL     OW  891   5.132   0.276   3.086 -0.0045 -0.4432 -0.1955
  280SOL    HW2  892   5.128   0.244   2.996 -0.0657 -0.3792 -0.2160
  280SOL    HW3  893   5.083   0.358   3.084  0.7742  0.0230 -0.3004
  280SOL    MW4  894   5.125   0.283   3.074  0.0902 -0.3732 -0.2120
  281SOL     OW  895   0.083   5.773   2.456 -0.2723 -0.0047 -0.0753
  281SOL    HW2  896  -0.007   5.756   2.485 -0.3608  1.4280  0.5489
  281SOL    HW3  897   0.135   5.706   2.501 -0.9696 -0.6368 -0.1802
  281SOL    MW4  898   0.078   5.762   2.466 -0.3760  0.1009 -0.0068
  282SOL     OW  899   1.393   5.836   1.823 -0.1437  0.2472 -0.7870
  282SOL    HW2  900   1.399   5.904   1.756  0.3137  0.0831 -0.9173
  282SOL    HW3  901   1.472   5.847   1.876 -0.2621  0.0684 -0.5728
  282SOL    MW4  902   1.404   5.846   1.821 -0.0990  0.2019 -0.7760
  283SOL     OW  903   4.393   5.838   2.682  0.4456  0.0406  0.2771
  283SOL    HW2  904   4.469   5.882   2.720 -0.6554  1.7914  0.5314
  283SOL    HW3  905   4.383   5.879   2.596 -1.0731  0.9057  0.8402
  283SOL    MW4  906   4.402   5.849   2.676  0.1000  0.3858  0.3849
  284SOL     OW  907   5.998   1.821   1.081  0.3020 -0.0244  0.1149
  284SOL    HW2  908   5.925   1.815   1.020  1.1525  1.0174 -1.0539
  284SOL    HW3  909   5.964   1.868   1.156 -0.2446  0.4241 -0.4084
  284SOL    MW4  910   5.984   1.826   1.083  0.3421  0.1722 -0.1083
  285SOL     OW  911   5.201   4.126   4.254 -0.0010 -0.4969 -0.2480
  285SOL    HW2  912   5.248   4.169   4.326 -2.6918  0.0566  1.3368
  285SOL    HW3  913   5.239   4.163   4.175 -0.4551  3.0409  0.9881
  285SOL    MW4  914   5.212   4.137   4.253 -0.4159  0.0429  0.1242
  286SOL     OW  915   4.064   6.315   4.974 -0.2116 -0.1413  0.5816
  286SOL    HW2  916   4.032   6.403   4.957  1.4004  0.3230 -0.2462
  286SOL    HW3  917   4.076   6.311   5.069 -0.4110  0.4851  0.6321
  286SOL    MW4  918   4.062   6.326   4.984 -0.0252  0.0026  0.4791
  287SOL     OW  919   4.706   6.320   2.066  0.6489 -0.0886  0.3333
  287SOL    HW2  920   4.711   6.397   2.123 -0.4787 -0.3294  0.7832
  287SOL    HW3  921   4.691   6.247   2.126  0.4780 -0.4891 -0.1912
  287SOL    MW4  922   4.705   6.321   2.081  0.4776 -0.1732  0.3235
  288SOL     OW  923   1.759   2.692   2.590 -0.4021  0.4028 -0.1099
  288SOL    HW2  924   1.731   2.649   2.509 -1.4119 -0.0242  0.4610
  288SOL    HW3  925   1.827   2.754   2.561  0.3611 -0.8343 -1.0793
  288SOL    MW4  926   1.765   2.694   2.576 -0.4346  0.1832 -0.1625
  289SOL     OW  927   2.863   0.693   6.099 -0.3980  0.2250 -0.3074
  289SOL    HW2  928   2.769   0.697   6.079 -0.2453 -0.8704 -1.3306
  289SOL    HW3  929   2.899   0.772   6.059 -0.7116  0.0523 -0.9469
  289SOL    MW4  930   2.855   0.704   6.091 -0.4192  0.0577 -0.5268
  290SOL     OW  931   1.338   1.024   3.711 -0.5885 -0.5250 -0.1241
  290SOL    HW2  932   1.410   0.973   3.675  1.7037  2.2421  0.2484
  290SOL    HW3  933   1.355   1.028   3.805 -0.7336  0.8699 -0.1446
  290SOL    MW4  934   1.349   1.018   3.718 -0.3052  0.0241 -0.0777
  291SOL     OW  935   1.473   5.684   4.060  0.3837  0.0516 -0.0623
  291SOL    HW2  936   1.545   5.622   4.070 -0.8004 -1.1969  1.1223
  291SOL    HW3  937   1.474   5.737   4.139  2.3750  2.7722 -1.7200
  291SOL    MW4  938   1.482   5.683   4.071  0.4902  0.2458 -0.1247
  292SOL     OW  939   4.099   5.182   3.426  0.0189 -0.0575  0.1599
  292SOL    HW2  940   4.093   5.097   3.470  2.8650 -0.6913 -0.4795
  292SOL    HW3  941   4.114   5.160   3.334  1.6744  1.0751  0.1217
  292SOL    MW4  942   4.100   5.168   3.419  0.6128  0.0083  0.0705
  293SOL     OW  943   1.660   2.995   2.509  0.5661  0.3861  0.2230
  293SOL    HW2  944   1.664   2.969   2.601  1.5571  0.4926  0.2128
  293SOL    HW3  945   1.671   3.090   2.510 -2.3593  0.8416  0.2006
  293SOL    MW4  946   1.662   3.004   2.521  0.3109  0.4603  0.2187
  294SOL     OW  947   2.181   6.217   0.588  0.0490 -0.2125  0.9101
  294SOL    HW2  948   2.228   6.187   0.510 -0.6055  0.9702  0.0355
  294SOL    HW3  949   2.243   6.275   0.633 -0.3214  0.8352  0.0969
  294SOL    MW4  950   2.195   6.221   0.584 -0.0862  0.0818  0.6875
  295SOL     OW  951   4.508   2.000   4.183 -0.0876 -0.4415 -0.6458
  295SOL    HW2  952   4.555   1.943   4.243  0.4967 -1.3486 -1.9443
  295SOL    HW3  953   4.512   2.087   4.225  2.8918 -0.4300 -0.7674
  295SOL    MW4  954   4.515   2.004   4.197  0.3826 -0.5597 -0.8332
  296SOL     OW  955   1.680   3.016   4.981 -0.2704 -0.1274  0.2910
  296SOL    HW2  956   1.664   3.102   4.942  0.6984  0.0433  0.2346
  296SOL    HW3  957   1.773   3.000   4.965 -0.0485 -0.4438  1.7220
  296SOL    MW4  958   1.691   3.025   4.974 -0.1133 -0.1466  0.4724
  297SOL     OW  959   6.168   3.996   0.729  0.1010 -0.0077 -0.2452
  297SOL    HW2  960   6.079   3.998   0.764  0.2273 -1.0126  0.1832
  297SOL    HW3  961   6.160   3.946   0.647  0.5296 -1.6935  0.6901
  297SOL    MW4  962   6.155   3.989   0.723  0.1742 -0.3627 -0.0653
  298SOL     OW  963   2.209   5.357   3.224  0.4703 -0.4716 -0.8647
  298SOL    HW2  964   2.143   5.329   3.288 -0.0699  0.0541 -1.1798
  298SOL    HW3  965   2.172   5.332   3.140  0.3213  0.4880 -1.0996
  298SOL    MW4  966   2.195   5.350   3.221  0.3794 -0.2757 -0.9372
  299SOL     OW  967   1.732   6.260   5.611  0.1153 -0.0238 -0.0874
  299SOL    HW2  968   1.773   6.223   5.533  0.8380  2.9826 -1.2670
  299SOL    HW3  969   1.653   6.207   5.624 -0.1374 -0.5520 -2.9973
  299SOL    MW4  970   1.727   6.248   5.602  0.1773  0.3032 -0.6270
  300SOL     OW  971   1.833   5.870   3.897  0.2319 -0.0111  0.2152
  300SOL    HW2  972   1.869   5.958   3.885  0.2066 -0.0695 -0.2988
  300SOL    HW3  973   1.778   5.877   3.975  2.0357 -0.1227  1.5730
  300SOL    MW4  974   1.831   5.882   3.906  0.4665 -0.0335  0.3265
  301SOL     OW  975   2.938   1.547   2.783  0.2304 -0.3629  0.2514
  301SOL    HW2  976   3.008   1.567   2.721  0.4273 -1.6683  0.0191
  301SOL    HW3  977   2.978   1.555   2.869 -0.4311  3.0035  0.3790
  301SOL    MW4  978   2.952   1.550   2.786  0.1691 -0.0910  0.2376
  302SOL     OW  979   4.813   0.164   2.841 -0.1345 -0.1525 -0.0343
  302SOL    HW2  980   4.740   0.111   2.809  0.2434 -1.3394  0.9970
  302SOL    HW3  981   4.776   0.213   2.915  0.1464 -0.9327  0.6398
  302SOL    MW4  982   4.798   0.163   2.847 -0.0476 -0.4120  0.1907
  303SOL     OW  983   4.789   0.404   5.826 -0.0073 -0.0204 -0.1843
  303SOL    HW2  984   4.852   0.440   5.889 -0.4369  0.6295 -0.1234
  303SOL    HW3  985   4.756   0.325   5.868  0.9977 -0.5435 -0.3514
  303SOL    MW4  986   4.793   0.398   5.840  0.0686 -0.0037 -0.1983
  304SOL     OW  987   2.735   1.640   5.006  0.0966 -0.6085  0.3842
  304SOL    HW2  988   2.707   1.567   4.951  1.2266 -2.2996  1.9328
  304SOL    HW3  989   2.674   1.637   5.081 -0.3496  0.5680  0.0811
  304SOL    MW4  990   2.723   1.630   5.009  0.1868 -0.6764  0.5486
  305SOL     OW  991   2.322   3.434   3.886 -0.0163 -0.3960 -0.3528
  305SOL    HW2  992   2.383   3.485   3.939 -1.0756 -0.4458  0.9753
  305SOL    HW3  993   2.361   3.347   3.882  1.6793  0.3697 -2.4293
  305SOL    MW4  994   2.335   3.429   3.892  0.0676 -0.3016 -0.4516
  306SOL     OW  995   5.656   1.664   2.978 -0.0444  0.3366  0.4643
  306SOL    HW2  996   5.623   1.723   2.910 -0.0330  0.5786  0.6654
  306SOL    HW3  997   5.627   1.705   3.060  0.8012  0.5809  0.6438
  306SOL    MW4  998   5.647   1.677   2.980  0.0687  0.4008  0.5145
  307SOL     OW  999   3.064   5.046   6.032 -0.4728 -0.1377  0.1454
  307SOL    HW2 1000   2.971   5.040   6.010 -0.3730  1.2849 -0.8000
  307SOL    HW3 1001   3.083   4.964   6.077 -2.0986 -0.6100  0.0461
  307SOL    MW4 1002   3.054   5.035   6.035 -0.6741 -0.0123  0.0076
  308SOL     OW 1003   1.595   2.284   2.356 -0.7432 -0.3867 -0.3520
  308SOL    HW2 1004   1.655   2.359   2.362 -0.1341 -0.8647 -0.3424
  308SOL    HW3 1005   1.553   2.293   2.271  0.1522 -0.6307 -0.8333
  308SOL    MW4 1006   1.597   2.295   2.346 -0.5447 -0.4819 -0.4142
  309SOL     OW 1007   3.672   2.241   5.243  0.2469 -0.1596 -0.3894
  309SOL    HW2 1008   3.678   2.273   5.152 -0.3159  0.9859 -0.0436
  309SOL    HW3 1009   3.636   2.315   5.292  3.0033  0.2102  1.2910
  309SOL    MW4 1010   3.668   2.255   5.237  0.5363  0.0403 -0.1221
  310SOL     OW 1011   2.954   5.853   0.450  0.8215 -0.1780 -0.0862
  310SOL    HW2 1012   2.917   5.908   0.519  0.5897  1.3208 -1.3624
  310SOL    HW3 1013   3.047   5.875   0.449  1.0480 -1.0395  0.4724
  310SOL    MW4 1014   2.961   5.863   0.459  0.8208 -0.0939 -0.1809
  311SOL     OW 1015   0.358   2.492   0.316  0.2822  0.0581 -0.6057
  311SOL    HW2 1016   0.337   2.407   0.278 -1.4904  0.0099  0.4172
  311SOL    HW3 1017   0.449   2.483   0.346  0.4829 -1.0918 -1.4926
  311SOL    MW4 1018   0.367   2.480   0.315  0.0748 -0.1000 -0.5878
  312SOL     OW 1019   2.781   0.157   5.707  0.4885 -0.2152  0.0247
  312SOL    HW2 1020   2.846   0.150   5.777  0.0082  0.0738  0.5085
  312SOL    HW3 1021   2.756   0.250   5.707 -1.5393 -0.7036  1.3378
  312SOL    MW4 1022   2.787   0.169   5.716  0.1576 -0.2415  0.2618
  313SOL     OW 1023   2.257   4.980   5.268 -0.5117  0.1080 -0.1349
  313SOL    HW2 1024   2.213   5.065   5.258  1.2700  1.0947 -0.0721
  313SOL    HW3 1025   2.264   4.946   5.179 -0.0033  0.7040 -0.3324
  313SOL    MW4 1026   2.252   4.987   5.255 -0.2096  0.3168 -0.1526
  314SOL     OW 1027   5.186   2.721   2.458 -0.1972 -0.3444 -0.1207
  314SOL    HW2 1028   5.215   2.805   2.494 -1.2708  0.1678 -0.4084
  314SOL    HW3 1029   5.091   2.722   2.469 -0.0829 -2.2803  1.4570
  314SOL    MW4 1030   5.178   2.732   2.464 -0.3237 -0.5323  0.0495
  315SOL     OW 1031   2.779   6.253   1.265 -0.3296  0.8651 -0.0184
  315SOL    HW2 1032   2.800   6.220   1.178  0.9333  1.5634  0.0087
  315SOL    HW3 1033   2.696   6.210   1.287 -0.2745  0.0910 -1.2350
  315SOL    MW4 1034   2.771   6.243   1.256 -0.1557  0.8551 -0.1754
  316SOL     OW 1035   3.975   3.547   6.104  0.0009  0.3879 -0.1489
  316SOL    HW2 1036   4.014   3.499   6.031 -0.4065  1.6522 -1.2170
  316SOL    HW3 1037   3.968   3.637   6.074  0.7063  1.1656  1.7922
  316SOL    MW4 1038   3.979   3.553   6.091  0.0402  0.6573 -0.0337
  317SOL     OW 1039   2.175   3.701   3.773 -0.3871 -0.1395  0.4490
  317SOL    HW2 1040   2.088   3.671   3.800 -0.1596 -0.0409  1.3141
  317SOL    HW3 1041   2.232   3.625   3.787 -0.3500 -0.2320 -0.2037
  317SOL    MW4 1042   2.171   3.687   3.779 -0.3522 -0.1387  0.4770
  318SOL     OW 1043   2.394   3.088   2.624  0.3210 -0.6224  0.1422
  318SOL    HW2 1044   2.449   3.033   2.679 -0.1422 -0.5437  0.7041
  318SOL    HW3 1045   2.405   3.054   2.535 -0.3004 -1.9212  0.5409
  318SOL    MW4 1046   2.402   3.076   2.620  0.1779 -0.7834  0.2690
  319SOL     OW 1047   2.668   3.745   6.294  0.0901  0.3990  0.8064
  319SOL    HW2 1048   2.706   3.789   6.370 -0.9161 -1.9210  2.7671
  319SOL    HW3 1049   2.687   3.652   6.308 -0.1568 -0.1203 -1.7949
  319SOL    MW4 1050   2.676   3.738   6.306 -0.0752  0.0244  0.7219
  320SOL     OW 1051   3.351   3.861   0.405 -0.4324 -0.0030 -0.4210
  320SOL    HW2 1052   3.375   3.838   0.494 -0.7876  0.0695 -0.3033
  320SOL    HW3 1053   3.287   3.794   0.379  2.3918 -2.3180 -1.9930
  320SOL    MW4 1054   3.345   3.849   0.413 -0.1067 -0.2989 -0.6128
  321SOL     OW 1055   4.651   1.631   1.627 -0.3483  0.0265  0.8118
  321SOL    HW2 1056   4.633   1.711   1.677  1.0792  1.6096 -1.0519
  321SOL    HW3 1057   4.571   1.616   1.577 -0.5509  0.3938  1.0178
  321SOL    MW4 1058   4.638   1.639   1.627 -0.1867  0.2838  0.5931
  322SOL     OW 1059   5.529   0.872   3.792 -0.3219  0.1144  0.3160
  322SOL    HW2 1060   5.572   0.956   3.776 -1.5168  0.6610 -0.1352
  322SOL    HW3 1061   5.526   0.830   3.706  1.8679 -1.2337  0.8019
  322SOL    MW4 1062   5.535   0.877   3.778 -0.1906  0.0087  0.3206
  323SOL     OW 1063   0.597   0.743   4.490 -0.6230  0.4397 -0.3829
  323SOL    HW2 1064   0.576   0.746   4.583 -1.3011 -1.5947 -0.4119
  323SOL    HW3 1065   0.661   0.672   4.483  2.9757  3.4314 -0.9417
  323SOL    MW4 1066   0.603   0.734   4.501 -0.2377  0.5660 -0.4604
  324SOL     OW 1067   1.798   4.119   4.094  0.3642 -0.2235 -0.0945
  324SOL    HW2 1068   1.862   4.053   4.069  0.1924 -0.4651  0.1011
  324SOL    HW3 1069   1.821   4.144   4.183 -1.5037 -2.4110  1.1169
  324SOL    MW4 1070   1.809   4.114   4.103  0.0951 -0.5440  0.0912
  325SOL     OW 1071   0.699   5.565   1.509  0.1022  0.2774  0.6140
  325SOL    HW2 1072   0.728   5.507   1.439 -0.2088 -0.4160  1.0533
  325SOL    HW3 1073   0.662   5.507   1.576  1.2879  0.8392  1.8023
  325SOL    MW4 1074   0.698   5.550   1.509  0.2176  0.2601  0.8287
  326SOL     OW 1075   5.898   2.706   1.858  0.4042 -0.2817  0.3292
  326SOL    HW2 1076   5.901   2.672   1.948  1.2257 -0.2189  0.3330
  326SOL    HW3 1077   5.838   2.780   1.863  0.0056 -0.6225  0.7051
  326SOL    MW4 1078   5.890   2.711   1.871  0.4600 -0.3183  0.3793
  327SOL     OW 1079   3.417   5.258   2.749 -0.0428  0.7580  0.4235
  327SOL    HW2 1080   3.508   5.236   2.768 -0.8174 -1.7187  1.7487
  327SOL    HW3 1081   3.422   5.335   2.692  2.8743  0.1323 -0.3289
  327SOL    MW4 1082   3.429   5.265   2.744  0.2399  0.3486  0.4991
  328SOL     OW 1083   5.421   3.758   5.249  0.8651 -0.3588 -0.3529
  328SOL    HW2 1084   5.443   3.746   5.157  2.0666  2.2814 -0.5018
  328SOL    HW3 1085   5.476   3.831   5.278  0.0912 -0.7054  2.3103
  328SOL    MW4 1086   5.431   3.766   5.241  0.9215 -0.0562 -0.0211
  329SOL     OW 1087   1.924   4.227   1.412  0.1594 -0.1378 -0.0615
  329SOL    HW2 1088   1.979   4.215   1.489 -0.1711  0.6399  0.3126
  329SOL    HW3 1089   1.975   4.192   1.340  0.8673 -0.0342  0.3821
  329SOL    MW4 1090   1.938   4.221   1.413  0.2092 -0.0215  0.0464
  330SOL     OW 1091   0.378   4.329   1.071  0.3114  0.2236  0.0772
  330SOL    HW2 1092   0.433   4.255   1.044 -1.4930 -1.2747  0.2555
  330SOL    HW3 1093   0.293   4.312   1.030  0.2086  3.0307 -1.1001
  330SOL    MW4 1094   0.374   4.317   1.062  0.0598  0.3962 -0.0546
  331SOL     OW 1095   3.714   4.032   4.718  0.0708 -0.0020 -0.1643
  331SOL    HW2 1096   3.707   4.112   4.665 -0.9487  0.0415  0.0011
  331SOL    HW3 1097   3.669   3.965   4.666 -0.3638 -0.1115  0.3468
  331SOL    MW4 1098   3.707   4.034   4.704 -0.1211 -0.0107 -0.0750
  332SOL     OW 1099   5.027   0.449   6.395 -0.0940 -0.1171  0.1321
  332SOL    HW2 1100   5.055   0.519   6.455  0.9323 -1.0589  0.7937
  332SOL    HW3 1101   5.027   0.370   6.449 -1.2520 -0.6421 -0.6002
  332SOL    MW4 1102   5.031   0.448   6.410 -0.1114 -0.3106  0.1228
  333SOL     OW 1103   1.639   6.240   3.878  0.5857  0.0174 -0.0246
  333SOL    HW2 1104   1.659   6.196   3.961  0.3624 -1.7682 -0.8501
  333SOL    HW3 1105   1.556   6.285   3.894  0.2166 -0.8369  0.5602
  333SOL    MW4 1106   1.630   6.240   3.891  0.5075 -0.3309 -0.0564
  334SOL     OW 1107   1.225   1.359   2.434  0.1481 -0.2068  0.8753
  334SOL    HW2 1108   1.203   1.423   2.367 -0.2212 -0.8402  0.3816
  334SOL    HW3 1109   1.166   1.380   2.507  0.2892  0.2475  0.8604
  334SOL    MW4 1110   1.214   1.370   2.435  0.1180 -0.2304  0.8082
  335SOL     OW 1111   3.748   5.601   0.505 -0.2105  0.4066  0.0982
  335SOL    HW2 1112   3.826   5.549   0.522 -0.6398  0.3767  2.2440
  335SOL    HW3 1113   3.763   5.683   0.551  0.0049  1.8275 -2.3760
  335SOL    MW4 1114   3.760   5.605   0.513 -0.2387  0.5901  0.0549
  336SOL     OW 1115   0.792   4.773   0.915 -0.4919  0.4354  0.3659
  336SOL    HW2 1116   0.830   4.855   0.946 -0.5285  0.0061  1.6091
  336SOL    HW3 1117   0.806   4.711   0.987  2.8571 -1.7349 -1.8560
  336SOL    MW4 1118   0.798   4.775   0.929 -0.0549  0.0924  0.2368
  337SOL     OW 1119   2.257   6.322   3.840 -0.4080 -0.1105  0.1325
  337SOL    HW2 1120   2.244   6.354   3.751  1.4241 -0.8587 -0.4513
  337SOL    HW3 1121   2.330   6.373   3.874 -1.0251  0.0951  1.1918
  337SOL    MW4 1122   2.265   6.333   3.833 -0.2477 -0.1821  0.1952
  338SOL     OW 1123   5.114   3.146   4.642  0.1778  0.4352  0.1991
  338SOL    HW2 1124   5.123   3.240   4.626 -0.8521  0.1577 -2.5189
  338SOL    HW3 1125   5.193   3.122   4.690 -0.2419  2.9000  2.3685
  338SOL    MW4 1126   5.126   3.155   4.646 -0.0135  0.7238  0.1267
  339SOL     OW 1127   5.113   1.279   5.327 -0.1235 -0.3143 -0.5678
  339SOL    HW2 1128   5.200   1.320   5.322 -0.0714 -0.4645 -0.8979
  339SOL    HW3 1129   5.060   1.331   5.267 -0.3989  0.1021  0.0177
  339SOL    MW4 1130   5.118   1.292   5.319 -0.1530 -0.2792 -0.5341
  340SOL     OW 1131   4.866   5.486   5.336  0.1599  0.4652 -1.0448
  340SOL    HW2 1132   4.951   5.473   5.294  0.9521  0.3184  0.5277
  340SOL    HW3 1133   4.881   5.556   5.399 -0.0691 -1.4657  1.2961
  340SOL    MW4 1134   4.879   5.494   5.339  0.2342  0.1911 -0.5284
  341SOL     OW 1135   4.981   0.053   3.571 -0.0470  0.1760  0.5993
  341SOL    HW2 1136   5.038   0.112   3.620 -0.2385  1.1171 -0.2793
  341SOL    HW3 1137   5.010   0.061   3.481 -2.8710  2.3629 -0.2643
  341SOL    MW4 1138   4.993   0.062   3.566 -0.4449  0.5887  0.3695
  342SOL     OW 1139   3.594   1.720   0.496 -0.0989  0.2038 -1.1055
  342SOL    HW2 1140   3.599   1.670   0.578  0.8819  0.3387 -1.0723
  342SOL    HW3 1141   3.682   1.754   0.483 -0.9841  3.0297 -0.4603
  342SOL    MW4 1142   3.606   1.718   0.505 -0.0863  0.5944 -1.0160
  343SOL     OW 1143   1.881   3.187   1.594  0.5186 -0.6648  0.4322
  343SOL    HW2 1144   1.866   3.204   1.501 -0.5410 -0.6548  0.5856
  343SOL    HW3 1145   1.966   3.145   1.597  1.9992  2.0078 -0.2486
  343SOL    MW4 1146   1.890   3.184   1.582  0.5742 -0.3108  0.3626
  344SOL     OW 1147   4.675   2.061   6.169 -0.5294  0.3114 -0.0124
  344SOL    HW2 1148   4.705   1.991   6.111 -0.1912 -2.6036  3.3743
  344SOL    HW3 1149   4.754   2.113   6.185  0.0265 -0.5195  0.0079
  344SOL    MW4 1150   4.689   2.059   6.163 -0.4114 -0.1828  0.4371
  345SOL     OW 1151   1.276   1.434   1.272 -0.2951 -0.7188 -0.2038
  345SOL    HW2 1152   1.329   1.434   1.352 -2.6853 -0.3140  1.5054
  345SOL    HW3 1153   1.313   1.363   1.219  2.5301  0.1872  0.3766
  345SOL    MW4 1154   1.288   1.424   1.276 -0.2377 -0.5459  0.0983
  346SOL     OW 1155   6.180   5.595   2.764  0.2247 -0.1509  0.7341
  346SOL    HW2 1156   6.140   5.527   2.710  0.1746 -0.4355  1.1305
  346SOL    HW3 1157   6.106   5.638   2.808  0.3624 -0.8677  1.6935
  346SOL    MW4 1158   6.165   5.592   2.763  0.2362 -0.2830  0.9129
  347SOL     OW 1159   1.396   4.822   3.877 -0.3085 -0.3956  0.3257
  347SOL    HW2 1160   1.341   4.767   3.933 -1.4323  0.5631  0.2144
  347SOL    HW3 1161   1.375   4.794   3.788  1.0325 -1.5101  0.3374
  347SOL    MW4 1162   1.386   4.811   3.873 -0.2798 -0.4162  0.3125
  348SOL     OW 1163   1.253   1.043   1.770  0.0197 -0.2933  0.3583
  348SOL    HW2 1164   1.341   1.007   1.784  0.3541 -0.0482 -1.0529
  348SOL    HW3 1165   1.194   0.969   1.787  0.7254 -1.8517 -3.1781
  348SOL    MW4 1166   1.257   1.028   1.774  0.1569 -0.4666 -0.2945
  349SOL     OW 1167   2.463   3.229   0.984 -0.2716  0.3566  0.0283
  349SOL    HW2 1168   2.485   3.215   1.076 -0.1459 -0.5030 -0.1228
  349SOL    HW3 1169   2.474   3.323   0.971 -0.0145  0.4463  0.8188
  349SOL    MW4 1170   2.468   3.239   0.994 -0.2211  0.2550  0.1127
  350SOL     OW 1171   1.696   1.235   5.110  0.5099  0.4398 -0.0232
  350SOL    HW2 1172   1.642   1.291   5.167 -0.3929  1.4354 -1.7601
  350SOL    HW3 1173   1.663   1.147   5.125 -1.7873  1.0336 -1.1145
  350SOL    MW4 1174   1.684   1.231   5.120  0.0877  0.6495 -0.3963
  351SOL     OW 1175   0.747   2.166   5.025  0.4144 -0.0498 -0.1492
  351SOL    HW2 1176   0.684   2.128   4.964  0.4277 -0.4185  0.0643
  351SOL    HW3 1177   0.699   2.236   5.069 -0.3928 -1.4382  1.2633
  351SOL    MW4 1178   0.733   2.171   5.023  0.3097 -0.2817  0.0653
  352SOL     OW 1179   3.900   3.324   5.336  0.6949  0.4313 -1.1594
  352SOL    HW2 1180   3.826   3.382   5.354  0.7343  0.5280 -1.3062
  352SOL    HW3 1181   3.959   3.336   5.410 -0.6975 -1.7246  0.4298
  352SOL    MW4 1182   3.898   3.333   5.348  0.5164  0.1596 -0.9691
  353SOL     OW 1183   6.286   5.081   5.840  0.0232  0.2176 -0.0686
  353SOL    HW2 1184   6.256   5.018   5.906  1.5185  0.0437  0.4942
  353SOL    HW3 1185   6.217   5.147   5.835 -1.0796 -0.9107  0.1059
  353SOL    MW4 1186   6.273   5.082   5.848  0.0750  0.0458  0.0287
  354SOL     OW 1187   3.818   5.143   1.087  0.2641 -0.7638 -0.9175
  354SOL    HW2 1188   3.801   5.141   1.181 -0.1670 -2.4562 -1.0141
  354SOL    HW3 1189   3.852   5.231   1.072  3.5050 -1.4176  1.3814
  354SOL    MW4 1190   3.820   5.155   1.098  0.6348 -1.0733 -0.6269
  355SOL     OW 1191   0.135   2.129   0.996 -0.0684  0.0018  0.0814
  355SOL    HW2 1192   0.181   2.201   0.952  0.7832 -0.7079 -0.2106
  355SOL    HW3 1193   0.097   2.078   0.924 -0.8001  0.2318  0.2965
  355SOL    MW4 1194   0.136   2.132   0.980 -0.0526 -0.0615  0.0713
  356SOL     OW 1195   4.765   1.209   5.422  0.2497 -0.1053  0.5177
  356SOL    HW2 1196   4.696   1.199   5.357 -0.0900  2.2115  0.4350
  356SOL    HW3 1197   4.823   1.276   5.386  0.0332  1.2900  2.5434
  356SOL    MW4 1198   4.764   1.216   5.409  0.1763  0.3845  0.7741
  357SOL     OW 1199   0.997   0.443   1.666  0.4465 -0.8199 -0.4364
  357SOL    HW2 1200   0.907   0.464   1.693  0.6417 -3.1719  2.6340
  357SOL    HW3 1201   0.989   0.421   1.574 -2.0598 -0.4492 -0.3874
  357SOL    MW4 1202   0.984   0.443   1.658  0.1416 -1.0813 -0.0248
  358SOL     OW 1203   1.229   3.601   0.723 -0.1873 -0.7567  0.6854
  358SOL    HW2 1204   1.165   3.577   0.791 -1.3185  0.1663 -0.0176
  358SOL    HW3 1205   1.247   3.693   0.739 -2.9551  0.4547 -2.1177
  358SOL    MW4 1206   1.223   3.610   0.734 -0.7017 -0.4751  0.2228
  359SOL     OW 1207   4.077   6.105   6.245  0.1248 -0.0039 -0.5136
  359SOL    HW2 1208   4.039   6.026   6.206  0.4033 -0.8647  0.9059
  359SOL    HW3 1209   4.155   6.122   6.193  1.4286 -2.1131  0.6367
  359SOL    MW4 1210   4.082   6.097   6.233  0.3335 -0.3957 -0.1745
  360SOL     OW 1211   1.256   1.303   5.510  0.1991  0.1140  0.0245
  360SOL    HW2 1212   1.350   1.285   5.502 -0.0193 -1.1900  0.1054
  360SOL    HW3 1213   1.232   1.339   5.425  1.0589  1.9998  0.5318
  360SOL    MW4 1214   1.265   1.305   5.497  0.2838  0.1907  0.1021
  361SOL     OW 1215   6.236   4.160   4.998  0.0803  0.1444 -0.0875
  361SOL    HW2 1216   6.160   4.129   4.950  0.1016  1.8574 -1.3125
  361SOL    HW3 1217   6.223   4.129   5.087 -3.9384  3.2916  0.7198
  361SOL    MW4 1218   6.225   4.152   5.003 -0.4471  0.7856 -0.1426
  362SOL     OW 1219   0.119   0.607   1.376  0.3997 -0.0077  0.2674
  362SOL    HW2 1220   0.130   0.685   1.430 -0.4759 -0.5460  1.2725
  362SOL    HW3 1221   0.024   0.595   1.370  0.5093 -0.7202 -0.2844
  362SOL    MW4 1222   0.108   0.616   1.382  0.2986 -0.1728  0.3272
  363SOL     OW 1223   2.746   6.146   0.649 -0.1491 -0.0028 -0.1266
  363SOL    HW2 1224   2.691   6.202   0.704 -1.7291  0.3759 -1.9753
  363SOL    HW3 1225   2.753   6.064   0.697  1.3410  1.3471  2.1440
  363SOL    MW4 1226   2.740   6.143   0.662 -0.1609  0.2253 -0.0709
  364SOL     OW 1227   0.929   6.050   5.342 -0.3075  0.2849  0.1822
  364SOL    HW2 1228   0.930   6.049   5.438 -1.0210  1.1989  0.2132
  364SOL    HW3 1229   0.883   6.130   5.320  1.0673  0.7998 -0.9489
  364SOL    MW4 1230   0.923   6.060   5.352 -0.2203  0.4734  0.0371
  365SOL     OW 1231   1.127   5.844   4.440 -0.0896  0.2836  0.5137
  365SOL    HW2 1232   1.082   5.796   4.510  1.0852 -1.1076  0.3761
  365SOL    HW3 1233   1.178   5.776   4.395  1.1264  1.5717 -0.1138
  365SOL    MW4 1234   1.128   5.828   4.444  0.2258  0.2700  0.4128
  366SOL     OW 1235   3.153   2.536   3.801  0.3653 -0.0990 -0.4133
  366SOL    HW2 1236   3.182   2.627   3.808  0.0063 -0.0177  0.1200
  366SOL    HW3 1237   3.064   2.542   3.767  1.0185 -0.3604 -2.3126
  366SOL    MW4 1238   3.145   2.549   3.798  0.4041 -0.1227 -0.5935
  367SOL     OW 1239   1.207   0.167   3.347  1.0606 -0.1169 -0.0910
  367SOL    HW2 1240   1.175   0.078   3.356 -0.4514  0.2813 -1.1171
  367SOL    HW3 1241   1.298   0.163   3.377  1.1086 -2.0402 -0.3771
  367SOL    MW4 1242   1.215   0.155   3.352  0.8674 -0.3181 -0.2642
  368SOL     OW 1243   1.656   3.511   0.600  0.6572 -0.2314  0.0772
  368SOL    HW2 1244   1.632   3.481   0.513 -1.6276 -0.4377  0.7015
  368SOL    HW3 1245   1.699   3.595   0.586 -0.2908  0.0623 -1.2132
  368SOL    MW4 1246   1.659   3.518   0.587  0.2307 -0.2199 -0.0106
  369SOL     OW 1247   4.176   3.573   4.952 -0.5073  0.2771  0.1519
  369SOL    HW2 1248   4.138   3.654   4.919 -0.8515  0.2652  0.5196
  369SOL    HW3 1249   4.141   3.564   5.041 -1.0443 -0.6425 -0.1386
  369SOL    MW4 1250   4.167   3.582   4.960 -0.6236  0.1542  0.1621
  370SOL     OW 1251   2.949   5.621   5.969 -0.4019  0.3289 -0.2735
  370SOL    HW2 1252   2.854   5.609   5.973 -0.5773  1.7760  0.4766
  370SOL    HW3 1253   2.982   5.537   5.936 -1.8271 -0.6501  0.6460
  370SOL    MW4 1254   2.941   5.608   5.965 -0.6130  0.3907 -0.0532
  371SOL     OW 1255   1.078   2.348   4.460 -0.1092  0.1962  0.2928
  371SOL    HW2 1256   0.988   2.327   4.435 -0.4845 -0.0913  1.7876
  371SOL    HW3 1257   1.093   2.436   4.426 -0.7622  0.0352 -0.4395
  371SOL    MW4 1258   1.068   2.357   4.453 -0.2449  0.1371  0.3934
  372SOL     OW 1259   5.118   2.483   5.423 -0.1123 -0.4775  0.0352
  372SOL    HW2 1260   5.181   2.420   5.388 -0.2823  0.4705 -2.1333
  372SOL    HW3 1261   5.051   2.429   5.466 -0.2285 -1.8074 -1.7131
  372SOL    MW4 1262   5.117   2.467   5.424 -0.1500 -0.5279 -0.4816
  373SOL     OW 1263   2.704   0.682   4.012 -0.2767 -0.3446 -0.5726
  373SOL    HW2 1264   2.789   0.640   4.026  0.5226  1.4088  0.1809
  373SOL    HW3 1265   2.687   0.728   4.094 -2.1633 -0.9547 -0.5752
  373SOL    MW4 1266   2.713   0.683   4.025 -0.4202 -0.1938 -0.4735
  374SOL     OW 1267   3.148   1.067   4.584 -0.6703 -0.0693 -0.0986
  374SOL    HW2 1268   3.207   1.101   4.651 -1.4876  0.0390  0.5827
  374SOL    HW3 1269   3.075   1.129   4.582 -0.9629 -0.4203 -0.6355
  374SOL    MW4 1270   3.146   1.079   4.592 -0.8168 -0.1013 -0.0796
  375SOL     OW 1271   4.740   3.960   2.893 -0.0731 -0.4307 -0.0331
  375SOL    HW2 1272   4.779   3.960   2.805 -0.5324 -2.0550 -0.2713
  375SOL    HW3 1273   4.811   3.986   2.951  0.6678 -0.8197 -0.7393
  375SOL    MW4 1274   4.755   3.963   2.889 -0.0359 -0.6964 -0.1577
  376SOL     OW 1275   6.019   0.349   3.073  0.0770  1.2004 -0.2071
  376SOL    HW2 1276   5.932   0.382   3.097 -1.4527 -2.4673 -0.0538
  376SOL    HW3 1277   6.018   0.348   2.977 -0.5111  0.1638 -0.2002
  376SOL    MW4 1278   6.007   0.353   3.063 -0.2024  0.5797 -0.1859
  377SOL     OW 1279   1.432   3.187   1.796  0.2462  0.1061 -0.8079
  377SOL    HW2 1280   1.507   3.212   1.849 -0.6144  1.4525 -0.1681
  377SOL    HW3 1281   1.470   3.162   1.711  1.3529  2.0530 -0.9641
  377SOL    MW4 1282   1.447   3.187   1.792  0.2787  0.5406 -0.7441
  378SOL     OW 1283   3.365   5.123   3.977 -0.3151  0.4326  0.2510
  378SOL    HW2 1284   3.285   5.086   4.014 -1.2721  0.2830 -1.8324
  378SOL    HW3 1285   3.436   5.076   4.022 -1.2816  1.4541  3.0556
  378SOL    MW4 1286   3.364   5.112   3.988 -0.5689  0.5476  0.3461
  379SOL     OW 1287   4.237   1.868   4.134  0.1013 -0.4578  0.4174
  379SOL    HW2 1288   4.295   1.935   4.168 -2.1646  1.7960  0.1708
  379SOL    HW3 1289   4.282   1.833   4.057  2.0498 -0.4137  1.4974
  379SOL    MW4 1290   4.250   1.872   4.128  0.0594 -0.1546  0.5274
  380SOL     OW 1291   3.796   1.358   1.488  0.0466  0.5358 -0.2592
  380SOL    HW2 1292   3.869   1.399   1.534  2.0404 -0.2492 -2.5211
  380SOL    HW3 1293   3.796   1.399   1.401  0.1899 -2.0231 -1.5534
  380SOL    MW4 1294   3.805   1.369   1.483  0.3286  0.0946 -0.7284
  381SOL     OW 1295   5.178   4.963   5.625  0.0364 -0.0498 -0.0692
  381SOL    HW2 1296   5.239   4.981   5.553  0.0771  0.4131  0.0775
  381SOL    HW3 1297   5.091   4.965   5.585 -0.0668  1.8568  0.1811
  381SOL    MW4 1298   5.175   4.965   5.610  0.0282  0.2628 -0.0168
  382SOL     OW 1299   0.255   1.692   5.326  0.4667  0.8145 -0.9470
  382SOL    HW2 1300   0.249   1.602   5.293 -2.3196  0.0316  1.3003
  382SOL    HW3 1301   0.187   1.740   5.280 -1.7625  0.3060  1.5303
  382SOL    MW4 1302   0.246   1.686   5.316 -0.1951  0.6441 -0.3236
  383SOL     OW 1303   3.509   3.626   1.167  0.3763  0.4435 -0.0830
  383SOL    HW2 1304   3.428   3.646   1.119  0.9835  1.6986 -0.6167
  383SOL    HW3 1305   3.504   3.531   1.183 -0.5713  0.2621 -1.2758
  383SOL    MW4 1306   3.498   3.616   1.162  0.3314  0.5852 -0.3108
  384SOL     OW 1307   3.182   1.485   1.370 -0.4407  0.7757 -0.2304
  384SOL    HW2 1308   3.184   1.398   1.331 -1.3690  0.8416 -0.4534
  384SOL    HW3 1309   3.130   1.476   1.449  2.1151  0.4725  1.5280
  384SOL    MW4 1310   3.176   1.472   1.375 -0.2260  0.7444 -0.0278
  385SOL     OW 1311   1.467   0.150   3.007 -0.3647  0.1047 -0.2480
  385SOL    HW2 1312   1.559   0.123   3.000 -0.4201 -0.0888 -0.2358
  385SOL    HW3 1313   1.425   0.080   3.057 -0.3456  0.6132  0.4864
  385SOL    MW4 1314   1.473   0.137   3.013 -0.3695  0.1462 -0.1495
  386SOL     OW 1315   5.011   0.702   4.918 -0.6743 -0.5311  0.3837
  386SOL    HW2 1316   4.951   0.717   4.991 -1.6221  0.2062 -0.5158
  386SOL    HW3 1317   5.089   0.754   4.939 -0.8909 -0.4258  0.9238
  386SOL    MW4 1318   5.013   0.711   4.930 -0.8279 -0.4199  0.3363
  387SOL     OW 1319   4.328   4.766   1.114 -0.4950 -0.3580  0.0401
  387SOL    HW2 1320   4.238   4.736   1.103 -0.7206  0.4788 -0.4876
  387SOL    HW3 1321   4.338   4.838   1.051  0.8932 -1.1666 -0.7364
  387SOL    MW4 1322   4.318   4.772   1.104 -0.3416 -0.3543 -0.1320
  388SOL     OW 1323   3.841   4.283   0.378  0.3652 -0.2055  0.5473
  388SOL    HW2 1324   3.808   4.367   0.345 -0.0597 -0.1108  1.2024
  388SOL    HW3 1325   3.929   4.276   0.342  0.4022  0.5223  0.4874
  388SOL    MW4 1326   3.848   4.293   0.369  0.3140 -0.0970  0.6258
  389SOL     OW 1327   4.240   1.456   3.853  0.2010  0.5763  0.5818
  389SOL    HW2 1328   4.187   1.536   3.852 -0.2304  0.3666 -2.0134
  389SOL    HW3 1329   4.327   1.485   3.878 -0.1761  1.6916  0.6617
  389SOL    MW4 1330   4.244   1.470   3.856  0.0943  0.6958  0.2500
  390SOL     OW 1331   4.577   1.452   6.340  0.0277 -0.3714  1.0012
  390SOL    HW2 1332   4.625   1.426   6.261 -2.0096 -0.5660 -0.2452
  390SOL    HW3 1333   4.514   1.518   6.310 -0.4213 -0.0250  2.5824
  390SOL    MW4 1334   4.575   1.457   6.326 -0.3004 -0.3513  1.0454
  391SOL     OW 1335   3.758   0.228   4.345  0.3345 -0.1221  0.3060
  391SOL    HW2 1336   3.761   0.281   4.425 -0.9718 -0.8580  0.8779
  391SOL    HW3 1337   3.667   0.230   4.318  0.2390 -2.0417  0.3376
  391SOL    MW4 1338   3.747   0.236   4.352  0.1495 -0.4724  0.3856
  392SOL     OW 1339   5.158   3.152   1.968  0.1296 -0.5507 -0.1197
  392SOL    HW2 1340   5.065   3.142   1.988  0.1443 -0.1186  0.1703
  392SOL    HW3 1341   5.188   3.063   1.950 -0.8378 -0.5036 -2.4363
  392SOL    MW4 1342   5.150   3.139   1.968  0.0039 -0.4874 -0.3871
  393SOL     OW 1343   5.016   2.753   0.988 -0.5430 -0.2005  0.2305
  393SOL    HW2 1344   5.042   2.809   0.915 -1.3150 -1.1725 -0.8269
  393SOL    HW3 1345   4.940   2.705   0.955 -1.3352 -0.1735  1.9176
  393SOL    MW4 1346   5.010   2.754   0.974 -0.7494 -0.3252  0.3136
  394SOL     OW 1347   6.125   5.189   1.678 -0.3370 -0.2915 -0.3650
  394SOL    HW2 1348   6.175   5.133   1.738  0.0970  2.3641  2.0228
  394SOL    HW3 1349   6.167   5.177   1.593  2.3748 -0.5677  0.8901
  394SOL    MW4 1350   6.137   5.180   1.675  0.0780  0.0224  0.1156
  395SOL     OW 1351   0.952   3.808   1.435 -0.1339 -0.4674  0.4192
  395SOL    HW2 1352   1.028   3.796   1.493 -0.7170  0.2591  1.3803
  395SOL    HW3 1353   0.889   3.743   1.466 -0.3307 -0.2854  0.4021
  395SOL    MW4 1354   0.954   3.798   1.447 -0.2368 -0.3476  0.5438
  396SOL     OW 1355   1.184   3.992   5.167  0.2523 -0.2130 -0.2470
  396SOL    HW2 1356   1.097   3.956   5.151 -0.0818  0.5888 -0.2380
  396SOL    HW3 1357   1.236   3.962   5.092  0.0564 -0.9496 -0.0992
  396SOL    MW4 1358   1.180   3.983   5.155  0.1824 -0.2044 -0.2263
  397SOL     OW 1359   3.825   5.623   4.932 -0.1824 -0.1262  0.4646
  397SOL    HW2 1360   3.793   5.533   4.936 -1.7371  0.4436  3.8230
  397SOL    HW3 1361   3.776   5.662   4.859 -0.5593 -1.5831 -0.1036
  397SOL    MW4 1362   3.815   5.616   4.923 -0.4372 -0.2433  0.8327
  398SOL     OW 1363   3.544   5.891   1.551 -0.3596  0.1254  0.0995
  398SOL    HW2 1364   3.567   5.916   1.462 -0.5463  0.8874  0.2638
  398SOL    HW3 1365   3.458   5.929   1.566 -0.3294  0.0067  0.6126
  398SOL    MW4 1366   3.535   5.899   1.542 -0.3803  0.2103  0.1889
  399SOL     OW 1367   2.424   0.171   2.461  0.1736 -0.0601 -0.2904
  399SOL    HW2 1368   2.329   0.157   2.455  0.4662 -2.7866  0.1063
  399SOL    HW3 1369   2.454   0.169   2.370  0.0098 -0.7726 -0.3348
  399SOL    MW4 1370   2.415   0.169   2.448  0.1906 -0.5138 -0.2440
  400SOL     OW 1371   4.402   1.217   4.848  0.2468  0.4113  0.5063
  400SOL    HW2 1372   4.409   1.137   4.900 -1.1990 -0.0849  0.0113
  400SOL    HW3 1373   4.473   1.211   4.785 -0.7661 -1.2973 -0.5446
  400SOL    MW4 1374   4.412   1.205   4.847 -0.0776  0.1204  0.3024
  401SOL     OW 1375   1.501   0.892   6.159 -0.3201 -0.2522  0.3007
  401SOL    HW2 1376   1.582   0.935   6.185 -0.3558  1.2875 -1.8442
  401SOL    HW3 1377   1.432   0.951   6.189 -0.4686  0.0923 -0.6728
  401SOL    MW4 1378   1.503   0.906   6.166 -0.3444 -0.0036 -0.1107
  402SOL     OW 1379   2.036   4.043   5.643  0.8129  0.4199  0.4756
  402SOL    HW2 1380   2.049   3.948   5.646 -0.0434  0.2843  0.2469
  402SOL    HW3 1381   1.942   4.055   5.656  0.1556  0.9784 -3.4599
  402SOL    MW4 1382   2.025   4.032   5.645  0.6132  0.4757 -0.0739
  403SOL     OW 1383   2.546   4.712   1.092  0.0470 -0.3903  0.1883
  403SOL    HW2 1384   2.496   4.631   1.076  0.0657  0.0151 -2.2582
  403SOL    HW3 1385   2.541   4.760   1.010 -0.1258  2.2477  1.6364
  403SOL    MW4 1386   2.539   4.707   1.079  0.0267  0.0113  0.0565
  404SOL     OW 1387   4.235   3.880   2.900  0.8155  0.5393  0.3752
  404SOL    HW2 1388   4.324   3.843   2.903  1.3955  1.9044  1.9514
  404SOL    HW3 1389   4.246   3.965   2.857 -0.0459  0.0331 -0.8975
  404SOL    MW4 1390   4.249   3.886   2.895  0.7784  0.6526  0.4152
  405SOL     OW 1391   0.386   1.980   5.476 -0.4902 -0.3972 -0.1819
  405SOL    HW2 1392   0.295   1.987   5.447 -0.4870 -1.7675 -0.5878
  405SOL    HW3 1393   0.422   1.907   5.425  0.4323 -0.7918  0.9935
  405SOL    MW4 1394   0.379   1.971   5.465 -0.3680 -0.6301 -0.0803
  406SOL     OW 1395   3.121   4.985   1.197 -0.2468  0.3586 -0.2851
  406SOL    HW2 1396   3.171   4.914   1.157  0.1776 -0.2364  1.2490
  406SOL    HW3 1397   3.154   4.990   1.287  0.0860  2.8206 -0.4641
  406SOL    MW4 1398   3.132   4.977   1.203 -0.1469  0.6049 -0.1063
  407SOL     OW 1399   4.104   0.392   3.088 -0.3015 -0.0901 -0.3395
  407SOL    HW2 1400   4.040   0.449   3.130  0.1542 -0.3225  0.7108
  407SOL    HW3 1401   4.096   0.309   3.135 -1.6815 -1.2782 -2.5058
  407SOL    MW4 1402   4.095   0.388   3.099 -0.4235 -0.2775 -0.4868
  408SOL     OW 1403   3.388   3.847   1.787  0.0252 -0.0653  0.6096
  408SOL    HW2 1404   3.460   3.784   1.797 -0.1784 -0.4463 -0.2369
  408SOL    HW3 1405   3.419   3.908   1.720 -1.2152 -1.4491 -1.3655
  408SOL    MW4 1406   3.402   3.846   1.779 -0.1653 -0.2982  0.2373
  409SOL     OW 1407   0.671   1.935   1.546  0.0419  0.3779 -0.0426
  409SOL    HW2 1408   0.596   1.930   1.605 -1.2915  0.3994 -1.6678
  409SOL    HW3 1409   0.673   1.849   1.503  1.1170  0.2885  0.1531
  409SOL    MW4 1410   0.661   1.923   1.548  0.0078  0.3690 -0.2312
  410SOL     OW 1411   3.918   0.653   1.376  0.7586  0.0490 -0.1366
  410SOL    HW2 1412   3.932   0.673   1.284 -0.3226 -2.4773 -0.9350
  410SOL    HW3 1413   3.927   0.737   1.421  0.4787  1.4990 -2.6325
  410SOL    MW4 1414   3.921   0.666   1.370  0.5790 -0.0930 -0.5713
  411SOL     OW 1415   6.253   1.908   0.987 -0.6929  0.0416 -0.5926
  411SOL    HW2 1416   6.274   1.821   0.953 -0.4739 -0.4387  0.7179
  411SOL    HW3 1417   6.162   1.902   1.014 -0.5101  0.0486  0.0239
  411SOL    MW4 1418   6.244   1.896   0.986 -0.6399 -0.0209 -0.3384
  412SOL     OW 1419   5.027   6.097   6.290  0.0975  0.1076 -0.3318
  412SOL    HW2 1420   5.031   6.159   6.363  1.4316  0.3609 -0.5970
  412SOL    HW3 1421   5.110   6.051   6.293 -0.2193 -0.5429 -1.1362
  412SOL    MW4 1422   5.038   6.099   6.300  0.2317  0.0552 -0.4730
  413SOL     OW 1423   5.243   2.843   1.094  0.2312 -0.1832  0.4093
  413SOL    HW2 1424   5.176   2.785   1.058  1.4087 -0.7536 -1.0301
  413SOL    HW3 1425   5.293   2.788   1.154 -0.3378  0.1317  1.1803
  413SOL    MW4 1426   5.241   2.828   1.097  0.3115 -0.2169  0.3211
  414SOL     OW 1427   3.894   5.206   6.234 -0.0588 -0.6570 -0.6500
  414SOL    HW2 1428   3.872   5.297   6.255 -3.3654 -0.6624 -3.1843
  414SOL    HW3 1429   3.976   5.190   6.280  2.0151  4.3434 -1.8658
  414SOL    MW4 1430   3.902   5.216   6.243 -0.2214  0.0020 -1.1448
  415SOL     OW 1431   1.152   4.955   1.496  0.7897  0.2497  0.0323
  415SOL    HW2 1432   1.066   4.950   1.456  0.0640 -0.3013  1.5796
  415SOL    HW3 1433   1.212   4.919   1.430 -0.3949 -0.9790 -0.4109
  415SOL    MW4 1434   1.149   4.950   1.482  0.5377  0.0149  0.1780
  416SOL     OW 1435   0.917   3.101   5.201 -0.5309  0.4144 -0.5447
  416SOL    HW2 1436   0.919   3.190   5.236 -1.1713  0.3297 -0.2768
  416SOL    HW3 1437   0.861   3.053   5.262  0.1514 -0.2814 -0.4460
  416SOL    MW4 1438   0.910   3.106   5.214 -0.5253  0.3114 -0.4963
  417SOL     OW 1439   0.331   3.594   5.224  0.4357  0.1432 -0.2302
  417SOL    HW2 1440   0.356   3.662   5.286 -0.9474  0.4732 -0.0147
  417SOL    HW3 1441   0.262   3.633   5.171 -0.7021 -1.2326  0.1924
  417SOL    MW4 1442   0.326   3.608   5.225  0.1031  0.0052 -0.1460
  418SOL     OW 1443   4.701   4.097   4.557  0.1359  0.3663 -0.0545
  418SOL    HW2 1444   4.696   4.005   4.532  0.8815 -0.0602  1.2601
  418SOL    HW3 1445   4.669   4.144   4.481  0.2797 -0.9529 -0.9687
  418SOL    MW4 1446   4.696   4.091   4.544  0.2533  0.1360 -0.0017
  419SOL     OW 1447   1.096   5.208   4.730  0.5837  0.4119 -0.0855
  419SOL    HW2 1448   1.018   5.250   4.766 -0.2383  0.1698 -1.5047
  419SOL    HW3 1449   1.134   5.273   4.672  1.0536  0.2907  0.0875
  419SOL    MW4 1450   1.090   5.222   4.727  0.5372  0.3639 -0.2499
  420SOL     OW 1451   4.868   3.805   4.929 -0.2073  0.1493  0.0333
  420SOL    HW2 1452   4.849   3.825   5.021  0.8472 -0.0738  0.3122
  420SOL    HW3 1453   4.957   3.769   4.930 -1.0446 -2.1369 -0.7742
  420SOL    MW4 1454   4.877   3.803   4.942 -0.1786 -0.1818 -0.0364
  421SOL     OW 1455   2.024   1.229   5.346 -0.1108 -0.4939  0.0743
  421SOL    HW2 1456   2.022   1.136   5.372  0.0299 -0.2972  0.8227
  421SOL    HW3 1457   2.091   1.268   5.402 -1.0209  0.3055  0.6496
  421SOL    MW4 1458   2.032   1.221   5.357 -0.2123 -0.3624  0.2489
  422SOL     OW 1459   3.226   3.742   2.726  0.1689 -0.0417  0.3284
  422SOL    HW2 1460   3.213   3.756   2.632 -1.5573 -0.8220  0.4213
  422SOL    HW3 1461   3.155   3.684   2.752  0.1213  0.8241  2.3000
  422SOL    MW4 1462   3.215   3.736   2.717 -0.0652 -0.0304  0.6008
  423SOL     OW 1463   4.794   4.679   5.801 -0.0716  0.1513  0.1245
  423SOL    HW2 1464   4.884   4.696   5.826  0.1402  0.0511 -0.5511
  423SOL    HW3 1465   4.755   4.765   5.790  0.0085  0.1942  0.1783
  423SOL    MW4 1466   4.800   4.692   5.803 -0.0331  0.1437  0.0425
  424SOL     OW 1467   5.261   1.493   3.252  0.1285 -0.2571 -0.0140
  424SOL    HW2 1468   5.289   1.410   3.292 -0.3992 -1.5810 -2.2179
  424SOL    HW3 1469   5.321   1.505   3.178 -1.2885  0.0827 -1.1350
  424SOL    MW4 1470   5.273   1.484   3.248 -0.1281 -0.3869 -0.4527
  425SOL     OW 1471   2.944   5.323   6.200  0.0551  0.5934  0.0567
  425SOL    HW2 1472   2.934   5.359   6.288 -3.6431 -1.4611  0.6610
  425SOL    HW3 1473   2.910   5.234   6.206  0.8905 -0.0912 -3.2140
  425SOL    MW4 1474   2.938   5.316   6.213 -0.3226  0.2320 -0.2951
  426SOL     OW 1475   4.347   6.425   5.621 -0.1772  0.1566  0.4341
  426SOL    HW2 1476   4.292   6.440   5.544 -0.0407 -2.6270 -0.3126
  426SOL    HW3 1477   4.427   6.473   5.603 -1.1798  1.8389  0.1808
  426SOL    MW4 1478   4.350   6.433   5.609 -0.2915  0.0113  0.3021
  427SOL     OW 1479   4.724   2.855   3.298  0.0930 -0.4701  0.4734
  427SOL    HW2 1480   4.786   2.922   3.326  0.5916 -0.9062  0.4300
  427SOL    HW3 1481   4.724   2.861   3.202 -0.6134  0.1302  0.5030
  427SOL    MW4 1482   4.732   2.865   3.289  0.0656 -0.4484  0.4716
  428SOL     OW 1483   2.038   1.494   2.385  0.4696  0.7659 -0.3247
  428SOL    HW2 1484   2.089   1.460   2.459 -1.2397 -0.1527  0.4938
  428SOL    HW3 1485   2.041   1.589   2.396  0.9725  0.6722  0.4091
  428SOL    MW4 1486   2.045   1.502   2.396  0.3104  0.6323 -0.1199
  429SOL     OW 1487   2.210   0.041   4.695  0.2031  0.0179 -0.0837
  429SOL    HW2 1488   2.201   0.001   4.608 -0.3898  1.0476 -0.5215
  429SOL    HW3 1489   2.145  -0.005   4.749 -1.1068  0.9512 -0.8049
  429SOL    MW4 1490   2.200   0.030   4.690 -0.0479  0.2769 -0.2366
  430SOL     OW 1491   2.825   5.895   1.450 -0.2660 -0.1469 -0.7159
  430SOL    HW2 1492   2.836   5.953   1.526 -0.6122 -1.4498  0.3583
  430SOL    HW3 1493   2.735   5.909   1.422 -0.3149 -0.0981 -0.5350
  430SOL    MW4 1494   2.815   5.905   1.456 -0.3181 -0.3124 -0.5503
  431SOL     OW 1495   0.985   1.524   4.221  0.2555  0.6837  0.1118
  431SOL    HW2 1496   0.916   1.506   4.158 -0.5179  2.3951  0.4086
  431SOL    HW3 1497   0.954   1.486   4.303 -0.1571  1.1108  0.1557
  431SOL    MW4 1498   0.972   1.517   4.223  0.0990  0.9659  0.1568
  432SOL     OW 1499   2.414   4.089   4.305  0.2596  0.0552  0.4376
  432SOL    HW2 1500   2.441   4.036   4.380 -0.4154 -0.8911  0.0282
  432SOL    HW3 1501   2.345   4.038   4.262  0.2739  0.8117 -0.5359
  432SOL    MW4 1502   2.409   4.075   4.309  0.1724  0.0302  0.2552
  433SOL     OW 1503   0.758   1.866   5.126  0.0192  0.2814 -0.0116
  433SOL    HW2 1504   0.761   1.930   5.197 -0.8562 -0.0149  0.3043
  433SOL    HW3 1505   0.795   1.912   5.050  0.9472  0.6021  0.6241
  433SOL    MW4 1506   0.763   1.881   5.125  0.0261  0.2846  0.1140
  434SOL     OW 1507   6.363   5.567   0.994 -0.0319  0.5336 -0.3116
  434SOL    HW2 1508   6.328   5.480   1.015  0.9031 -0.2709 -1.9078
  434SOL    HW3 1509   6.354   5.616   1.076 -1.6615 -0.6785  0.3158
  434SOL    MW4 1510   6.357   5.562   1.008 -0.1235  0.2675 -0.4394
  435SOL     OW 1511   2.732   0.543   1.576  0.5171 -0.4331  0.1148
  435SOL    HW2 1512   2.682   0.464   1.555  0.8580 -0.3313 -1.1637
  435SOL    HW3 1513   2.776   0.522   1.659 -1.6584 -0.4986  1.3284
  435SOL    MW4 1514   2.731   0.529   1.584  0.2750 -0.4283  0.1062
  436SOL     OW 1515   2.702   5.933   2.029  0.0663  0.1343 -0.3330
  436SOL    HW2 1516   2.789   5.918   1.992 -0.1364 -0.9421 -0.4042
  436SOL    HW3 1517   2.643   5.880   1.975 -0.9909  2.5266 -1.7048
  436SOL    MW4 1518   2.706   5.924   2.017 -0.0999  0.3079 -0.5234
  437SOL     OW 1519   6.358   6.316   3.201  0.0126 -0.6276  0.2210
  437SOL    HW2 1520   6.265   6.325   3.178 -0.1917 -1.1098  0.8420
  437SOL    HW3 1521   6.367   6.365   3.283  0.6097  0.5850 -0.5391
  437SOL    MW4 1522   6.347   6.324   3.209  0.0644 -0.5312  0.2026
  438SOL     OW 1523   4.421   5.083   1.351 -0.4816  0.3317 -0.0698
  438SOL    HW2 1524   4.391   4.994   1.370  1.2581 -0.0013  1.3357
  438SOL    HW3 1525   4.495   5.071   1.292 -1.6344  1.0183 -1.7273
  438SOL    MW4 1526   4.427   5.070   1.346 -0.4042  0.3783 -0.1030
  439SOL     OW 1527   1.711   3.364   1.167 -0.5602 -0.7539  0.0645
  439SOL    HW2 1528   1.730   3.437   1.108  0.9699 -1.4501 -0.3531
  439SOL    HW3 1529   1.675   3.406   1.246  1.5427  0.6244  0.3970
  439SOL    MW4 1530   1.709   3.379   1.170 -0.0809 -0.6639  0.0532
  440SOL     OW 1531   0.908   4.629   2.085  1.0084  0.3324 -0.5587
  440SOL    HW2 1532   0.868   4.677   2.157  1.0412 -1.0284  0.4057
  440SOL    HW3 1533   0.944   4.550   2.126  0.7155 -0.6464 -2.1156
  440SOL    MW4 1534   0.907   4.625   2.100  0.9741  0.0238 -0.6369
  441SOL     OW 1535   6.156   1.390   1.865  0.4519 -0.2752  0.3210
  441SOL    HW2 1536   6.208   1.392   1.945 -0.1349 -1.7670  0.7588
  441SOL    HW3 1537   6.067   1.374   1.894 -0.0667  0.8887 -0.5271
  441SOL    MW4 1538   6.151   1.388   1.879  0.3060 -0.3185  0.2669
  442SOL     OW 1539   3.003   3.195   4.641  0.1281 -0.3767  0.5019
  442SOL    HW2 1540   3.091   3.163   4.619 -1.0506 -2.5656 -1.5501
  442SOL    HW3 1541   3.005   3.288   4.621  1.7157 -0.5774 -0.4407
  442SOL    MW4 1542   3.015   3.203   4.636  0.1821 -0.6920  0.1068
  443SOL     OW 1543   0.363   5.857   5.727  0.5029  0.0077  0.6359
  443SOL    HW2 1544   0.336   5.933   5.779  0.6429 -0.6572  1.7214
  443SOL    HW3 1545   0.308   5.785   5.760  2.0738 -0.8952  1.3870
  443SOL    MW4 1546   0.352   5.858   5.738  0.7286 -0.1991  0.8782
  444SOL     OW 1547   0.058   1.066   2.337  0.0824 -0.7005 -0.5388
  444SOL    HW2 1548  -0.017   1.008   2.337  0.8681 -1.7728 -1.8115
  444SOL    HW3 1549   0.124   1.020   2.389 -0.3659  0.6020  1.2649
  444SOL    MW4 1550   0.057   1.052   2.344  0.1269 -0.6701 -0.4687
  445SOL     OW 1551   2.493   5.811   1.844 -0.5511  0.0704 -0.2012
  445SOL    HW2 1552   2.523   5.720   1.849 -0.7092  0.0710  0.8092
  445SOL    HW3 1553   2.402   5.808   1.874  0.4476  1.0566  3.4143
  445SOL    MW4 1554   2.485   5.799   1.848 -0.4402  0.2006  0.4092
  446SOL     OW 1555   3.707   0.099   1.017 -0.0633  0.5356 -0.3805
  446SOL    HW2 1556   3.719   0.039   1.090  3.7006  2.4936  0.9185
  446SOL    HW3 1557   3.670   0.178   1.057 -1.0307  0.5275 -1.2345
  446SOL    MW4 1558   3.704   0.102   1.032  0.3057  0.7928 -0.3218
  447SOL     OW 1559   5.228   2.597   0.067 -0.1489 -0.4102 -0.0569
  447SOL    HW2 1560   5.206   2.613   0.159 -1.3364 -0.2677 -0.3475
  447SOL    HW3 1561   5.293   2.663   0.046 -1.6527  1.1734  0.0244
  447SOL    MW4 1562   5.233   2.608   0.077 -0.5040 -0.1825 -0.0845
  448SOL     OW 1563   5.708   1.033   5.567 -0.4410  1.2884 -0.4435
  448SOL    HW2 1564   5.725   1.121   5.600 -0.9287  0.3765  2.5068
  448SOL    HW3 1565   5.791   0.987   5.579 -1.5553 -0.0515  3.2506
  448SOL    MW4 1566   5.721   1.039   5.573 -0.6524  0.9913  0.4332
  449SOL     OW 1567   3.944   2.060   6.015 -0.5207  0.2241 -0.2860
  449SOL    HW2 1568   3.939   2.032   6.106 -0.3891  0.8418 -0.0829
  449SOL    HW3 1569   3.870   2.016   5.972 -2.0214  1.7266  0.6213
  449SOL    MW4 1570   3.933   2.050   6.022 -0.7014  0.5038 -0.1395
  450SOL     OW 1571   2.081   6.374   5.191  0.2237  0.4128 -0.5995
  450SOL    HW2 1572   2.119   6.288   5.206 -2.3675 -0.6231  0.7489
  450SOL    HW3 1573   2.106   6.426   5.267  2.1937  1.0970 -1.6406
  450SOL    MW4 1574   2.089   6.369   5.203  0.1418  0.3664 -0.5590
  451SOL     OW 1575   5.145   0.123   0.728 -0.5605 -0.4452 -0.4385
  451SOL    HW2 1576   5.105   0.140   0.642  0.8818  0.2223 -1.0182
  451SOL    HW3 1577   5.229   0.170   0.724 -0.0924 -1.1247  1.0255
  451SOL    MW4 1578   5.151   0.132   0.716 -0.3085 -0.4468 -0.3218
  452SOL     OW 1579   0.577   4.849   6.029 -0.1066 -0.3687 -0.1292
  452SOL    HW2 1580   0.569   4.942   6.051  0.2836 -0.5920  1.0566
  452SOL    HW3 1581   0.489   4.822   6.003 -0.6649 -0.0918  1.3525
  452SOL    MW4 1582   0.565   4.857   6.029 -0.1288 -0.3616  0.2227
  453SOL     OW 1583   5.389   4.510   3.000 -0.5779  0.3045  0.0800
  453SOL    HW2 1584   5.371   4.556   2.918 -0.4939  0.4203  0.1243
  453SOL    HW3 1585   5.303   4.497   3.040 -0.5813  0.6609  0.1917
  453SOL    MW4 1586   5.376   4.515   2.995 -0.5673  0.3668  0.1006
  454SOL     OW 1587   4.268   2.457   1.154  0.5791  0.1514 -0.4258
  454SOL    HW2 1588   4.249   2.551   1.152  0.0969  0.0883  0.6682
  454SOL    HW3 1589   4.224   2.422   1.077 -0.8559  0.5458  0.1975
  454SOL    MW4 1590   4.260   2.465   1.143  0.3262  0.1951 -0.1992
  455SOL     OW 1591   3.070   1.852   4.069 -0.2835  0.0833  0.0936
  455SOL    HW2 1592   2.990   1.804   4.049 -0.4842  0.5077 -0.1420
  455SOL    HW3 1593   3.067   1.929   4.012  1.9786 -1.5737 -2.5754
  455SOL    MW4 1594   3.059   1.856   4.059 -0.0115 -0.0793 -0.2897
  456SOL     OW 1595   2.269   3.673   3.329 -0.1437  0.6575 -0.3179
  456SOL    HW2 1596   2.360   3.682   3.357  0.6937 -1.4713 -2.1012
  456SOL    HW3 1597   2.257   3.740   3.263 -0.6427  2.4469  1.4828
  456SOL    MW4 1598   2.280   3.683   3.324 -0.0991  0.6127 -0.3156
  457SOL     OW 1599   4.911   5.119   2.829 -0.4932  0.9463 -0.0722
  457SOL    HW2 1600   4.824   5.112   2.869  0.2559  0.0328  1.4996
  457SOL    HW3 1601   4.967   5.152   2.899  0.4775  1.3079 -0.9987
  457SOL    MW4 1602   4.907   5.122   2.844 -0.2663  0.8735  0.0130
  458SOL     OW 1603   4.869   2.623   0.775 -0.1397 -0.3155  0.1724
  458SOL    HW2 1604   4.815   2.702   0.774 -2.3874 -1.7047  2.2932
  458SOL    HW3 1605   4.884   2.603   0.682 -0.8185  1.7036 -0.4231
  458SOL    MW4 1606   4.864   2.631   0.762 -0.5258 -0.2324  0.3737
  459SOL     OW 1607   6.021   3.690   0.292 -0.3050  0.4813  0.6710
  459SOL    HW2 1608   6.080   3.748   0.245  0.9414 -1.4361 -0.2558
  459SOL    HW3 1609   5.936   3.703   0.250  0.0341  1.3307  0.2273
  459SOL    MW4 1610   6.017   3.700   0.281 -0.0958  0.3404  0.4902
  460SOL     OW 1611   2.414   5.185   3.227  0.1254  0.5957 -0.0549
  460SOL    HW2 1612   2.357   5.258   3.252  0.0161  0.9873 -1.3836
  460SOL    HW3 1613   2.463   5.218   3.151  2.1382  0.2771  1.0324
  460SOL    MW4 1614   2.413   5.199   3.220  0.3766  0.6053 -0.0867
  461SOL     OW 1615   5.009   2.012   2.500 -0.2437 -0.2962 -0.3692
  461SOL    HW2 1616   5.102   1.991   2.513  0.3734  1.5737 -1.4566
  461SOL    HW3 1617   4.985   2.066   2.575 -0.0087  0.5487 -0.9022
  461SOL    MW4 1618   5.018   2.016   2.511 -0.1313  0.0620 -0.5830
  462SOL     OW 1619   5.328   4.526   0.476 -0.5224  0.0213 -0.7044
  462SOL    HW2 1620   5.310   4.475   0.555  1.2440 -0.6560 -0.7031
  462SOL    HW3 1621   5.419   4.554   0.485 -0.6852  1.0664 -1.9009
  462SOL    MW4 1622   5.337   4.523   0.488 -0.3108  0.0698 -0.8621
  463SOL     OW 1623   1.461   1.117   2.760  0.2809  0.0682 -0.4239
  463SOL    HW2 1624   1.481   1.057   2.688 -0.2969  0.7460 -1.1709
  463SOL    HW3 1625   1.509   1.081   2.835 -0.7769 -1.8717 -0.5960
  463SOL    MW4 1626   1.470   1.104   2.760  0.0651 -0.0984 -0.5452
  464SOL     OW 1627   2.928   1.738   1.430 -0.0322 -0.1385 -0.0164
  464SOL    HW2 1628   2.936   1.720   1.337 -3.2149  0.4145 -0.5030
  464SOL    HW3 1629   2.966   1.825   1.442  3.3924 -1.4570 -0.0510
  464SOL    MW4 1630   2.934   1.747   1.420 -0.0003 -0.2395 -0.0852
  465SOL     OW 1631   4.845   1.690   0.621 -0.2813  0.5585  0.2297
  465SOL    HW2 1632   4.826   1.613   0.567 -2.1883  1.0374  0.1810
  465SOL    HW3 1633   4.781   1.755   0.596  2.0468  2.6983 -0.6161
  465SOL    MW4 1634   4.834   1.688   0.611 -0.2257  0.9040  0.1117
  466SOL     OW 1635   2.790   1.313   1.579  0.0591  0.1052  0.1900
  466SOL    HW2 1636   2.819   1.240   1.525  1.1462 -0.2553  1.2214
  466SOL    HW3 1637   2.805   1.284   1.669 -1.0100  0.9762  0.6775
  466SOL    MW4 1638   2.796   1.300   1.584  0.0615  0.1725  0.3904
  467SOL     OW 1639   0.766   0.609   2.260 -0.4420 -0.5069 -0.3545
  467SOL    HW2 1640   0.857   0.633   2.243 -1.1237  1.0767 -2.1666
  467SOL    HW3 1641   0.754   0.525   2.217  0.0544 -0.5126 -0.4814
  467SOL    MW4 1642   0.776   0.601   2.252 -0.4665 -0.2987 -0.6103
  468SOL     OW 1643   0.690   1.703   3.417 -0.3176  0.4506 -0.3497
  468SOL    HW2 1644   0.716   1.636   3.480 -0.6368  0.7274  0.0795
  468SOL    HW3 1645   0.768   1.716   3.362  1.0810  2.4212  1.9101
  468SOL    MW4 1646   0.704   1.696   3.418 -0.1752  0.7471  0.0051
  469SOL     OW 1647   5.699   0.112   3.968  0.4765  0.1280  0.2998
  469SOL    HW2 1648   5.782   0.146   4.001 -0.0082  3.5569 -1.5534
  469SOL    HW3 1649   5.635   0.180   3.991 -1.0982 -0.6820 -1.4402
  469SOL    MW4 1650   5.701   0.126   3.975  0.2048  0.4735 -0.1743
  470SOL     OW 1651   4.193   0.651   1.375 -0.8911 -0.3848  0.1535
  470SOL    HW2 1652   4.224   0.738   1.398  1.4094 -1.6829  2.4523
  470SOL    HW3 1653   4.098   0.658   1.376 -0.7653  1.9055  1.0545
  470SOL    MW4 1654   4.185   0.663   1.378 -0.5710 -0.2539  0.5757
  471SOL     OW 1655   5.549   0.321   5.666  0.7767  0.0117  0.0566
  471SOL    HW2 1656   5.459   0.295   5.646  1.0657 -0.8852 -0.0925
  471SOL    HW3 1657   5.543   0.367   5.750  0.2723 -0.5900  0.3523
  471SOL    MW4 1658   5.536   0.324   5.674  0.7483 -0.1860  0.0759
  472SOL     OW 1659   1.815   1.453   3.068 -0.1343 -0.3945  0.3203
  472SOL    HW2 1660   1.750   1.459   2.998 -1.0459  1.4496  1.2734
  472SOL    HW3 1661   1.767   1.472   3.148  1.4455  0.4197  1.1277
  472SOL    MW4 1662   1.800   1.456   3.069 -0.0462 -0.0438  0.5526
  473SOL     OW 1663   1.189   0.996   2.489  0.3175 -0.2227  0.2613
  473SOL    HW2 1664   1.205   1.090   2.477  1.8278 -0.4428  0.3029
  473SOL    HW3 1665   1.238   0.954   2.419 -0.9877 -0.9656 -0.2272
  473SOL    MW4 1666   1.198   1.003   2.478  0.3445 -0.3498  0.2023
  474SOL     OW 1667   5.175   6.167   4.864  0.0116  0.0732  0.2618
  474SOL    HW2 1668   5.194   6.075   4.880  0.3857  0.0108 -0.4660
  474SOL    HW3 1669   5.084   6.168   4.835  0.2660 -0.1945 -0.5962
  474SOL    MW4 1670   5.165   6.155   4.862  0.0945  0.0296  0.0525
  475SOL     OW 1671   5.241   0.474   1.947 -0.0425 -0.2773  0.2252
  475SOL    HW2 1672   5.305   0.541   1.922 -0.5599 -0.3394 -1.3607
  475SOL    HW3 1673   5.273   0.395   1.905 -0.7494 -0.4772  0.0623
  475SOL    MW4 1674   5.254   0.473   1.938 -0.2040 -0.3119 -0.0056
  476SOL     OW 1675   5.245   1.509   4.397 -0.7849  0.2115  0.2244
  476SOL    HW2 1676   5.206   1.469   4.319  1.1894 -0.8403 -0.3075
  476SOL    HW3 1677   5.221   1.601   4.390 -0.6492  0.1608 -1.6674
  476SOL    MW4 1678   5.237   1.516   4.386 -0.5065  0.0660 -0.0954
  477SOL     OW 1679   1.795   0.117   2.309 -0.9658 -0.6524 -0.0104
  477SOL    HW2 1680   1.881   0.110   2.351  0.1187  0.2633 -1.9186
  477SOL    HW3 1681   1.733   0.100   2.379  0.7655 -2.8335  1.1339
  477SOL    MW4 1682   1.798   0.114   2.323 -0.5943 -0.8194 -0.1112
  478SOL     OW 1683   1.219   0.015   0.054 -0.1003 -0.3211  0.0312
  478SOL    HW2 1684   1.156   0.087   0.064 -0.5158 -0.6797 -0.0231
  478SOL    HW3 1685   1.169  -0.064   0.072  0.4791 -0.5690  0.6092
  478SOL    MW4 1686   1.204   0.014   0.058 -0.0786 -0.4011  0.1003
  479SOL     OW 1687   5.234   0.466   3.274 -0.1506 -0.2149 -0.1981
  479SOL    HW2 1688   5.147   0.476   3.313 -0.5762  0.1881 -1.2226
  479SOL    HW3 1689   5.224   0.394   3.212 -0.1930  0.9024 -1.5206
  479SOL    MW4 1690   5.221   0.458   3.271 -0.2124 -0.0143 -0.5077
  480SOL     OW 1691   0.357   4.149   4.197  0.3433 -0.0342  0.3468
  480SOL    HW2 1692   0.362   4.245   4.200  0.2072 -0.0199  0.0911
  480SOL    HW3 1693   0.383   4.122   4.285  2.2084  0.1528 -0.1181
  480SOL    MW4 1694   0.361   4.158   4.209  0.5714 -0.0077  0.2518
  481SOL     OW 1695   1.247   6.211   3.075 -0.3715  0.1810 -0.8424
  481SOL    HW2 1696   1.206   6.245   2.995  0.0341  2.0491 -0.3252
  481SOL    HW3 1697   1.286   6.289   3.115  1.8305 -1.1634 -0.2298
  481SOL    MW4 1698   1.247   6.226   3.070 -0.0275  0.2501 -0.6934
  482SOL     OW 1699   1.343   2.294   1.798  0.3424 -0.1010 -0.6087
  482SOL    HW2 1700   1.408   2.231   1.766 -0.4255 -0.7895 -0.8366
  482SOL    HW3 1701   1.290   2.245   1.861  1.0542  0.9027  0.8268
  482SOL    MW4 1702   1.345   2.279   1.802  0.3350 -0.0594 -0.4494
  483SOL     OW 1703   6.253   5.508   4.834 -0.1076  0.1175 -0.6788
  483SOL    HW2 1704   6.306   5.508   4.914 -1.3283 -0.8094  0.1648
  483SOL    HW3 1705   6.317   5.506   4.763  1.0423  2.2247  0.1940
  483SOL    MW4 1706   6.268   5.508   4.836 -0.1169  0.2732 -0.4523
  484SOL     OW 1707   0.607   1.291   1.014 -0.5379  0.3084  0.7427
  484SOL    HW2 1708   0.603   1.373   1.063  0.6742  0.5634  0.4380
  484SOL    HW3 1709   0.534   1.296   0.952 -1.1159  0.6747  1.4471
  484SOL    MW4 1710   0.597   1.302   1.012 -0.4543  0.3904  0.7954
  485SOL     OW 1711   1.515   4.070   0.090  0.3067 -0.1466  0.3977
  485SOL    HW2 1712   1.428   4.094   0.058 -1.3447 -2.6359  2.6684
  485SOL    HW3 1713   1.565   4.049   0.011 -1.1146  1.2634 -0.9395
  485SOL    MW4 1714   1.510   4.071   0.075 -0.0987 -0.2890  0.5209
  486SOL     OW 1715   0.640   1.916   2.047 -0.4156 -0.4791 -0.3487
  486SOL    HW2 1716   0.675   2.004   2.063 -0.2963 -0.4761 -0.6192
  486SOL    HW3 1717   0.712   1.857   2.068  0.0861 -0.4267 -1.8451
  486SOL    MW4 1718   0.654   1.920   2.052 -0.3337 -0.4718 -0.5818
  487SOL     OW 1719   0.269   6.113   0.572  0.8014 -0.0977 -0.0639
  487SOL    HW2 1720   0.214   6.069   0.637  1.8889  0.5384  1.3368
  487SOL    HW3 1721   0.329   6.046   0.541 -0.1310 -0.5665 -0.9323
  487SOL    MW4 1722   0.269   6.099   0.576  0.8218 -0.0756  0.0063
  488SOL     OW 1723   1.429   0.892   4.382  0.1948 -0.0763  0.1075
  488SOL    HW2 1724   1.394   0.854   4.302 -1.8836  1.9952 -0.0777
  488SOL    HW3 1725   1.507   0.840   4.401 -0.2063 -1.7250 -2.2819
  488SOL    MW4 1726   1.435   0.880   4.374 -0.1324 -0.0205 -0.2322
  489SOL     OW 1727   1.546   5.635   1.414  0.3644  0.0760 -0.0111
  489SOL    HW2 1728   1.478   5.636   1.481 -0.6954  0.8106 -1.0541
  489SOL    HW3 1729   1.524   5.560   1.359 -1.3678  1.8939 -2.0054
  489SOL    MW4 1730   1.534   5.625   1.416 -0.0040  0.4127 -0.4119
  490SOL     OW 1731   2.533   4.071   0.602 -0.0275 -0.9169 -0.1022
  490SOL    HW2 1732   2.477   4.007   0.647 -0.8808 -1.6830 -2.1051
  490SOL    HW3 1733   2.473   4.123   0.549  0.8948  0.1324 -0.1617
  490SOL    MW4 1734   2.518   4.069   0.601 -0.0184 -0.8795 -0.3743
  491SOL     OW 1735   4.725   3.268   3.557  0.1256 -0.4588 -0.4767
  491SOL    HW2 1736   4.779   3.295   3.631 -2.2123  1.0989  0.8130
  491SOL    HW3 1737   4.783   3.216   3.502  3.0014  1.4153  0.5637
  491SOL    MW4 1738   4.740   3.265   3.559  0.1966 -0.0060 -0.1692
  492SOL     OW 1739   2.978   4.035   1.767  0.4412  0.3245 -0.0904
  492SOL    HW2 1740   3.011   4.124   1.777 -1.1314  1.2112 -2.0516
  492SOL    HW3 1741   3.025   4.000   1.692 -0.2498  0.1791 -0.4633
  492SOL    MW4 1742   2.989   4.042   1.758  0.1425  0.4223 -0.3984
  493SOL     OW 1743   2.807   3.202   4.839 -0.5948  0.2144 -0.1977
  493SOL    HW2 1744   2.883   3.192   4.781  0.3170 -0.2946  1.0552
  493SOL    HW3 1745   2.775   3.112   4.850 -0.0730  0.1594  0.9687
  493SOL    MW4 1746   2.813   3.189   4.833 -0.4057  0.1400  0.1215
  494SOL     OW 1747   1.103   6.303   1.414 -0.1331  0.2692  0.5711
  494SOL    HW2 1748   1.103   6.372   1.480 -1.1194  0.6075  0.2436
  494SOL    HW3 1749   1.195   6.281   1.401  0.1941  1.5598  0.6475
  494SOL    MW4 1750   1.115   6.309   1.421 -0.2201  0.4841  0.5380
  495SOL     OW 1751   6.402   4.692   0.549 -0.0015  0.1516 -0.1025
  495SOL    HW2 1752   6.313   4.726   0.558 -0.1457 -0.2690  0.1082
  495SOL    HW3 1753   6.408   4.622   0.614  0.0615 -0.6745 -0.9656
  495SOL    MW4 1754   6.391   4.687   0.558 -0.0122 -0.0129 -0.1886
  496SOL     OW 1755   0.177   3.979   2.802  0.4949  0.1585 -0.5272
  496SOL    HW2 1756   0.143   3.923   2.872 -1.0602  2.1139  0.3771
  496SOL    HW3 1757   0.269   3.955   2.795  0.7998  0.0820  2.4287
  496SOL    MW4 1758   0.185   3.969   2.810  0.3300  0.4064 -0.0179
  497SOL     OW 1759   5.617   0.364   3.791  0.3842  0.5377 -0.0314
  497SOL    HW2 1760   5.594   0.316   3.711  0.3128 -1.8558  1.3235
  497SOL    HW3 1761   5.544   0.347   3.851  0.7302  1.7595  0.7816
  497SOL    MW4 1762   5.604   0.355   3.789  0.4204  0.3831  0.2546
  498SOL     OW 1763   2.996   0.071   0.707 -0.0612  0.3446 -0.6966
  498SOL    HW2 1764   2.921   0.082   0.648  0.4526  1.9476 -1.0944
  498SOL    HW3 1765   3.018  -0.022   0.700 -1.1090  0.1487 -1.6900
  498SOL    MW4 1766   2.989   0.060   0.698 -0.1317  0.5303 -0.8802
  499SOL     OW 1767   5.437   3.846   3.273 -0.0773  0.1700  0.0609
  499SOL    HW2 1768   5.472   3.785   3.208 -1.3753  0.3084 -0.7839
  499SOL    HW3 1769   5.481   3.820   3.355  0.3118 -1.1047 -0.5201
  499SOL    MW4 1770   5.447   3.834   3.275 -0.1972  0.0201 -0.1272
  500SOL     OW 1771   4.204   0.379   3.690 -0.2868 -0.1396  0.0563
  500SOL    HW2 1772   4.165   0.461   3.660 -1.1225 -1.0179 -1.3601
  500SOL    HW3 1773   4.223   0.394   3.783  1.2588  2.2671 -0.5405
  500SOL    MW4 1774   4.202   0.392   3.698 -0.1931  0.0621 -0.2093
  501SOL     OW 1775   2.275   3.713   2.392 -0.0626 -0.1376 -0.6357
  501SOL    HW2 1776   2.291   3.789   2.449  0.8691  0.0043 -1.0689
  501SOL    HW3 1777   2.247   3.644   2.452  2.8895 -0.6276  0.3502
  501SOL    MW4 1778   2.273   3.714   2.408  0.4498 -0.1835 -0.5628
  502SOL     OW 1779   1.362   1.974   2.603 -0.1332 -0.5151 -0.0350
  502SOL    HW2 1780   1.334   1.953   2.692  1.2877  0.1915  0.6094
  502SOL    HW3 1781   1.290   1.943   2.547 -2.6571  2.0359  1.5466
  502SOL    MW4 1782   1.349   1.967   2.607 -0.2787 -0.0853  0.2587
  503SOL     OW 1783   5.985   3.791   3.931  0.1060 -0.2948  0.2239
  503SOL    HW2 1784   5.936   3.854   3.985  0.2143  0.5977 -0.6856
  503SOL    HW3 1785   6.039   3.743   3.994 -0.3245  0.2047  0.9936
  503SOL    MW4 1786   5.986   3.793   3.947  0.0635 -0.1111  0.2054
  504SOL     OW 1787   0.236   4.912   4.122  0.2338 -0.0317 -0.0797
  504SOL    HW2 1788   0.208   4.928   4.212 -0.0309 -2.8388  0.4041
  504SOL    HW3 1789   0.170   4.853   4.086  0.6203  0.6099 -1.9907
  504SOL    MW4 1790   0.224   4.907   4.129  0.2499 -0.3174 -0.2680
  505SOL     OW 1791   0.035   2.875   4.137  0.4354 -0.5140  0.7524
  505SOL    HW2 1792   0.081   2.822   4.202  1.0758  0.7544  1.3852
  505SOL    HW3 1793   0.018   2.958   4.182 -0.9681 -0.3419 -0.0447
  505SOL    MW4 1794   0.039   2.879   4.151  0.3347 -0.3240  0.7308
  506SOL     OW 1795   0.551   1.452   6.222 -0.0834 -0.5325  0.0719
  506SOL    HW2 1796   0.594   1.371   6.197  1.7668  0.7061 -1.0403
  506SOL    HW3 1797   0.552   1.506   6.143 -4.3397 -0.5767 -0.2499
  506SOL    MW4 1798   0.557   1.449   6.208 -0.4008 -0.3749 -0.1173
  507SOL     OW 1799   0.610   0.316   0.872 -0.0382 -0.0533 -0.1404
  507SOL    HW2 1800   0.699   0.292   0.846 -0.8152 -2.6951 -0.6364
  507SOL    HW3 1801   0.619   0.354   0.959  1.7271  1.3045 -0.8611
  507SOL    MW4 1802   0.623   0.318   0.880  0.0922 -0.2227 -0.3009
  508SOL     OW 1803   6.357   0.776   1.109  0.1406 -0.3659  0.1359
  508SOL    HW2 1804   6.356   0.832   1.187 -0.0993  1.3213 -1.0136
  508SOL    HW3 1805   6.289   0.813   1.052  0.7159 -1.1839 -1.1223
  508SOL    MW4 1806   6.348   0.789   1.112  0.1849 -0.2512 -0.1818
  509SOL     OW 1807   5.563   5.548   6.377 -0.1706  0.3325  0.1787
  509SOL    HW2 1808   5.501   5.603   6.330  1.5353  0.5309 -2.0227
  509SOL    HW3 1809   5.529   5.459   6.368 -0.7920  0.5731  0.1336
  509SOL    MW4 1810   5.551   5.543   6.370 -0.0275  0.3904 -0.1177
  510SOL     OW 1811   2.976   3.591   1.030 -0.0585  0.0684  0.1737
  510SOL    HW2 1812   2.955   3.498   1.028 -0.5328  0.1095  1.6660
  510SOL    HW3 1813   2.922   3.630   0.961  0.5869 -0.8264 -0.8606
  510SOL    MW4 1814   2.966   3.584   1.021 -0.0359 -0.0443  0.2341
  511SOL     OW 1815   6.109   4.739   5.382 -0.2375  0.3426 -0.0796
  511SOL    HW2 1816   6.091   4.831   5.398  0.9456  0.2270  2.3117
  511SOL    HW3 1817   6.204   4.731   5.389 -0.2424 -0.9553 -0.9959
  511SOL    MW4 1818   6.119   4.750   5.385 -0.0821  0.1561  0.1150
  512SOL     OW 1819   3.699   4.414   1.632 -0.1344 -0.1667  0.2134
  512SOL    HW2 1820   3.787   4.411   1.594 -0.7213 -0.2978 -1.2058
  512SOL    HW3 1821   3.659   4.492   1.593 -1.7110 -1.8276 -1.6960
  512SOL    MW4 1822   3.706   4.424   1.622 -0.4199 -0.4032 -0.2257
  513SOL     OW 1823   0.517   5.756   3.247  0.1047 -0.2489  0.0147
  513SOL    HW2 1824   0.561   5.686   3.200  0.0037 -0.6509  0.5093
  513SOL    HW3 1825   0.499   5.719   3.334 -3.3487 -0.9751 -0.8458
  513SOL    MW4 1826   0.520   5.742   3.252 -0.3643 -0.3977 -0.0336
  514SOL     OW 1827   2.785   5.969   4.948 -0.4413  0.5040 -0.3989
  514SOL    HW2 1828   2.736   6.050   4.937 -2.0642 -0.6700 -2.8372
  514SOL    HW3 1829   2.851   5.972   4.879  1.0109  0.7200  0.9532
  514SOL    MW4 1830   2.787   5.980   4.937 -0.4638  0.3776 -0.5422
  515SOL     OW 1831   4.751   0.262   4.766 -0.1094 -0.1694 -0.3249
  515SOL    HW2 1832   4.714   0.233   4.849  0.6745  0.1895  0.1661
  515SOL    HW3 1833   4.835   0.301   4.790  0.8380 -1.4102 -1.4394
  515SOL    MW4 1834   4.757   0.263   4.780  0.1190 -0.2858 -0.4072
  516SOL     OW 1835   5.789   2.234   3.967  0.1420 -0.2434 -0.2533
  516SOL    HW2 1836   5.865   2.177   3.966  1.0294  0.9090 -0.4375
  516SOL    HW3 1837   5.776   2.256   4.060  0.8034  0.5359 -0.3354
  516SOL    MW4 1838   5.797   2.229   3.979  0.3464  0.0115 -0.2884
  517SOL     OW 1839   3.543   2.936   0.893 -0.5950  0.5168 -0.0792
  517SOL    HW2 1840   3.578   2.939   0.804  0.5694  2.5294  0.3735
  517SOL    HW3 1841   3.450   2.957   0.882 -1.4765 -3.1601 -1.1171
  517SOL    MW4 1842   3.535   2.939   0.880 -0.5577  0.2972 -0.1564
  518SOL     OW 1843   2.251   2.029   4.497  0.1807 -0.0292 -0.0971
  518SOL    HW2 1844   2.252   1.945   4.452 -1.0425 -0.3042  0.3556
  518SOL    HW3 1845   2.331   2.028   4.550 -0.2721 -1.3143  0.6012
  518SOL    MW4 1846   2.262   2.018   4.498 -0.0404 -0.2351  0.0548
  519SOL     OW 1847   0.474   3.227   1.180  0.3041 -0.0674 -0.7114
  519SOL    HW2 1848   0.557   3.198   1.217  0.3137  0.0848 -0.6119
  519SOL    HW3 1849   0.481   3.209   1.086  1.4494  2.2435 -1.1370
  519SOL    MW4 1850   0.486   3.220   1.173  0.4565  0.2576 -0.7544
  520SOL     OW 1851   1.030   1.005   2.099  0.0258 -0.4237  0.5409
  520SOL    HW2 1852   0.963   1.074   2.098  0.3200 -0.1324 -0.5434
  520SOL    HW3 1853   1.023   0.966   2.186 -1.7686 -0.6167  0.3539
  520SOL    MW4 1854   1.020   1.009   2.111 -0.1721 -0.4108  0.3731
  521SOL     OW 1855   6.158   5.282   3.821 -0.1823 -0.1080 -0.1490
  521SOL    HW2 1856   6.228   5.330   3.777  0.5755 -0.7333  0.3549
  521SOL    HW3 1857   6.163   5.310   3.912  0.2522 -1.0943  0.1456
  521SOL    MW4 1858   6.168   5.292   3.827 -0.0250 -0.3206 -0.0437
  522SOL     OW 1859   1.296   3.888   5.846 -0.4613 -0.0606 -0.0225
  522SOL    HW2 1860   1.286   3.809   5.793  2.0075  0.2766 -1.1318
  522SOL    HW3 1861   1.256   3.866   5.930  1.0423 -2.9037  0.0764
  522SOL    MW4 1862   1.289   3.874   5.850  0.0628 -0.3912 -0.1558
  523SOL     OW 1863   1.989   0.087   6.162  0.2349  0.1270  0.0504
  523SOL    HW2 1864   1.945   0.109   6.080 -0.7989  1.3618  0.8876
  523SOL    HW3 1865   2.079   0.117   6.149  0.7358 -1.8211 -1.4397
  523SOL    MW4 1866   1.995   0.094   6.150  0.1646  0.0329 -0.0358
  524SOL     OW 1867   5.226   3.156   5.094 -0.4823  1.3625  0.1707
  524SOL    HW2 1868   5.240   3.071   5.052 -0.2856  2.0469 -1.2147
  524SOL    HW3 1869   5.133   3.156   5.117 -0.4604  0.7407  0.2905
  524SOL    MW4 1870   5.216   3.145   5.091 -0.4534  1.3708  0.0037
  525SOL     OW 1871   0.363   2.162   1.767  0.0557 -0.0152  0.4247
  525SOL    HW2 1872   0.442   2.208   1.738 -0.4521  0.5323 -0.1324
  525SOL    HW3 1873   0.306   2.232   1.800  0.0185 -0.4697  1.3264
  525SOL    MW4 1874   0.366   2.178   1.767 -0.0162 -0.0029  0.4702
  526SOL     OW 1875   0.230   1.543   0.449 -0.3139  0.3495  0.0589
  526SOL    HW2 1876   0.227   1.514   0.358 -0.9936  1.8783 -0.4430
  526SOL    HW3 1877   0.165   1.489   0.494 -0.1706 -0.2204 -0.4071
  526SOL    MW4 1878   0.221   1.532   0.443 -0.3847  0.4760 -0.0688
  527SOL     OW 1879   5.184   1.547   2.153 -0.2542 -0.0183 -0.1817
  527SOL    HW2 1880   5.102   1.497   2.152  1.0471 -2.3121  0.9482
  527SOL    HW3 1881   5.182   1.595   2.235  0.6390 -2.1565  1.1619
  527SOL    MW4 1882   5.173   1.546   2.163  0.0353 -0.6030  0.1446
  528SOL     OW 1883   4.523   1.837   1.759 -0.0406  0.9076 -0.4097
  528SOL    HW2 1884   4.454   1.824   1.695  1.0598  0.8437 -1.6175
  528SOL    HW3 1885   4.490   1.795   1.839 -1.0316  0.1570 -1.1904
  528SOL    MW4 1886   4.510   1.830   1.761 -0.0262  0.8002 -0.6720
  529SOL     OW 1887   0.846   0.319   4.763 -0.2438  0.1883 -0.1139
  529SOL    HW2 1888   0.840   0.227   4.790  0.8845  0.8028  2.6137
  529SOL    HW3 1889   0.922   0.322   4.705 -0.9344 -0.7358 -1.1098
  529SOL    MW4 1890   0.856   0.307   4.759 -0.1860  0.1475  0.1146
  530SOL     OW 1891   4.272   0.152   4.332  0.2443  0.3324 -0.0106
  530SOL    HW2 1892   4.183   0.168   4.301 -0.0349 -2.9495 -1.3912
  530SOL    HW3 1893   4.327   0.215   4.286 -1.1750  1.3023 -0.4104
  530SOL    MW4 1894   4.268   0.162   4.322  0.0202  0.0273 -0.2455
  531SOL     OW 1895   5.870   4.918   4.011 -0.3761 -0.0206 -0.6524
  531SOL    HW2 1896   5.921   4.897   4.090  2.1501 -0.6544 -2.3179
  531SOL    HW3 1897   5.794   4.860   4.016  0.8310 -1.6293  0.3027
  531SOL    MW4 1898   5.867   4.908   4.022  0.1165 -0.3165 -0.7462
  532SOL     OW 1899   5.883   2.088   2.901 -0.1153  0.4898 -0.2155
  532SOL    HW2 1900   5.966   2.067   2.945 -0.4506 -0.0752  0.1487
  532SOL    HW3 1901   5.879   2.028   2.827 -0.4471  0.1601  0.0680
  532SOL    MW4 1902   5.894   2.077   2.897 -0.2033  0.3717 -0.1301
  533SOL     OW 1903   3.855   5.938   2.304  0.2491 -0.2720 -0.2763
  533SOL    HW2 1904   3.901   6.010   2.261  0.5439 -0.8633 -0.9875
  533SOL    HW3 1905   3.888   5.859   2.260  0.1170 -0.8601  0.6468
  533SOL    MW4 1906   3.865   5.937   2.293  0.2706 -0.4276 -0.2483
  534SOL     OW 1907   2.847   0.906   1.762  0.0110 -0.3328  0.9426
  534SOL    HW2 1908   2.790   0.959   1.706  1.8923  2.1117  1.1857
  534SOL    HW3 1909   2.898   0.854   1.700 -1.5195 -1.6091  0.6802
  534SOL    MW4 1910   2.846   0.906   1.746  0.0573 -0.1787  0.9400
  535SOL     OW 1911   5.150   4.747   0.412 -0.1138  0.1579  0.3651
  535SOL    HW2 1912   5.205   4.698   0.473  0.3955  1.0791  0.6767
  535SOL    HW3 1913   5.068   4.762   0.459  0.1351  0.5327  0.6840
  535SOL    MW4 1914   5.147   4.743   0.426 -0.0138  0.3289  0.4483
  536SOL     OW 1915   5.387   4.316   4.452 -0.1194  0.0459  0.2603
  536SOL    HW2 1916   5.412   4.265   4.529  0.1388 -0.4820 -0.1709
  536SOL    HW3 1917   5.451   4.387   4.449 -1.7410  1.6953  2.0999
  536SOL    MW4 1918   5.399   4.319   4.462 -0.2993  0.1939  0.4461
  537SOL     OW 1919   5.842   5.184   4.134 -0.2046  0.3006 -0.0896
  537SOL    HW2 1920   5.828   5.184   4.229 -0.8217  1.5886 -0.1675
  537SOL    HW3 1921   5.874   5.096   4.115  1.5051  0.5018  1.5406
  537SOL    MW4 1922   5.844   5.172   4.144 -0.0605  0.4971  0.1152
  538SOL     OW 1923   6.272   4.475   2.969 -0.4881  0.1694 -0.6364
  538SOL    HW2 1924   6.318   4.392   2.960 -0.6840  0.1589 -1.6025
  538SOL    HW3 1925   6.221   4.483   2.889 -1.2258  0.7636 -0.1171
  538SOL    MW4 1926   6.272   4.465   2.958 -0.6113  0.2464 -0.6953
  539SOL     OW 1927   1.739   3.248   1.844 -0.2920 -0.5693 -0.3253
  539SOL    HW2 1928   1.784   3.204   1.771  0.2059 -1.0729  0.2692
  539SOL    HW3 1929   1.795   3.230   1.920 -0.7643  0.0168  0.1641
  539SOL    MW4 1930   1.753   3.240   1.844 -0.2886 -0.5584 -0.1823
  540SOL     OW 1931   4.297   6.209   6.125  0.2779  0.1127  0.3976
  540SOL    HW2 1932   4.312   6.138   6.063  1.3789  1.2452 -0.6989
  540SOL    HW3 1933   4.377   6.214   6.177  0.9732  1.6447 -0.7313
  540SOL    MW4 1934   4.310   6.200   6.123  0.5149  0.4642  0.1040
  541SOL     OW 1935   3.311   5.508   5.193  0.2851 -0.5695 -0.3327
  541SOL    HW2 1936   3.381   5.544   5.247  1.4734 -0.7259 -1.6945
  541SOL    HW3 1937   3.294   5.575   5.127 -0.3679 -0.8252 -0.4368
  541SOL    MW4 1938   3.318   5.521   5.192  0.3557 -0.6239 -0.5261
  542SOL     OW 1939   1.419   4.700   0.253  0.9694  0.2703 -0.4190
  542SOL    HW2 1940   1.368   4.709   0.334  0.5451 -0.6926 -0.5773
  542SOL    HW3 1941   1.413   4.608   0.230 -0.5936  0.8670 -2.6645
  542SOL    MW4 1942   1.412   4.689   0.261  0.7072  0.2220 -0.7361
  543SOL     OW 1943   4.285   1.596   5.458 -0.3491  0.0119 -0.0693
  543SOL    HW2 1944   4.205   1.561   5.496 -0.7113 -2.6176 -2.9235
  543SOL    HW3 1945   4.267   1.690   5.447 -2.4586 -0.2638  0.6399
  543SOL    MW4 1946   4.272   1.604   5.462 -0.6752 -0.3714 -0.3523
  544SOL     OW 1947   6.204   0.721   0.093 -0.2223 -0.3219  1.0832
  544SOL    HW2 1948   6.113   0.701   0.113 -0.3947  1.1921  1.8784
  544SOL    HW3 1949   6.226   0.795   0.149  1.0092  0.3812 -0.2544
  544SOL    MW4 1950   6.195   0.728   0.103 -0.0826 -0.0294  1.0117
  545SOL     OW 1951   1.035   4.424   0.621 -0.1380 -0.2599 -0.1470
  545SOL    HW2 1952   1.112   4.383   0.660 -0.5089 -0.4322  0.4148
  545SOL    HW3 1953   0.988   4.462   0.695  0.2862  1.3461 -0.6763
  545SOL    MW4 1954   1.039   4.423   0.636 -0.1309 -0.0707 -0.1427
  546SOL     OW 1955   2.943   2.909   0.245 -0.6091 -0.2802 -0.1432
  546SOL    HW2 1956   2.910   2.835   0.193 -0.0183  0.6656 -1.9668
  546SOL    HW3 1957   3.033   2.884   0.268  0.2569  0.5561 -2.3469
  546SOL    MW4 1958   2.951   2.896   0.241 -0.4169 -0.0451 -0.6745
  547SOL     OW 1959   5.887   4.469   2.072 -0.3323  0.7020  0.1631
  547SOL    HW2 1960   5.796   4.473   2.102 -0.2734 -0.6533  0.5901
  547SOL    HW3 1961   5.910   4.377   2.079 -0.0369  0.3707 -3.2932
  547SOL    MW4 1962   5.878   4.457   2.077 -0.2855  0.4795 -0.2366
  548SOL     OW 1963   4.378   0.468   1.305  0.1827  0.4868  0.0168
  548SOL    HW2 1964   4.342   0.379   1.302  1.2929  0.0226 -0.3548
  548SOL    HW3 1965   4.305   0.523   1.332 -1.3023 -0.1446 -2.3900
  548SOL    MW4 1966   4.364   0.463   1.308  0.1332  0.3423 -0.3498
  549SOL     OW 1967   5.717   5.853   5.892 -0.5754 -0.1688 -0.5239
  549SOL    HW2 1968   5.690   5.878   5.980  1.4687 -0.4576  0.2278
  549SOL    HW3 1969   5.810   5.834   5.900 -0.3924 -0.4016 -2.7171
  549SOL    MW4 1970   5.725   5.854   5.905 -0.2816 -0.2376 -0.7141
  550SOL     OW 1971   0.633   5.826   5.741 -0.0918 -0.2851  0.8185
  550SOL    HW2 1972   0.639   5.874   5.824 -2.7791  1.6389  0.0682
  550SOL    HW3 1973   0.539   5.825   5.721  0.5315  0.7964 -2.9665
  550SOL    MW4 1974   0.621   5.832   5.749 -0.3641  0.1115  0.2201
  551SOL     OW 1975   3.026   6.038   3.122 -0.0428  0.8559  0.4481
  551SOL    HW2 1976   3.076   5.982   3.063  1.0012  2.2958 -0.0912
  551SOL    HW3 1977   2.935   6.023   3.096  0.3294  0.7353 -0.8981
  551SOL    MW4 1978   3.020   6.029   3.111  0.1440  1.0300  0.1994
  552SOL     OW 1979   5.558   0.591   4.679  0.1865 -0.5579  0.0734
  552SOL    HW2 1980   5.644   0.590   4.721  0.8792 -0.3664 -1.2913
  552SOL    HW3 1981   5.533   0.499   4.672 -0.0564 -0.5843  1.0918
  552SOL    MW4 1982   5.566   0.579   4.684  0.2458 -0.5361  0.0277
  553SOL     OW 1983   5.632   1.562   0.553 -0.0304  0.0832  0.3259
  553SOL    HW2 1984   5.585   1.525   0.478 -2.5704  1.2365  1.2482
  553SOL    HW3 1985   5.611   1.656   0.550  0.0179  0.1907  2.3421
  553SOL    MW4 1986   5.623   1.570   0.543 -0.3592  0.2496  0.7136
  554SOL     OW 1987   6.103   2.362   2.907 -0.1492 -1.3322  0.3654
  554SOL    HW2 1988   6.158   2.333   2.979  1.1413 -0.7593 -0.3629
  554SOL    HW3 1989   6.162   2.410   2.849 -1.6969  0.5171  0.2465
  554SOL    MW4 1990   6.118   2.364   2.909 -0.1832 -1.0126  0.2536
  555SOL     OW 1991   5.611   5.645   2.956 -0.7109 -0.4999 -0.3801
  555SOL    HW2 1992   5.570   5.708   3.016 -0.2523 -0.7694  0.2237
  555SOL    HW3 1993   5.544   5.578   2.942 -0.4442 -1.0093  0.7057
  555SOL    MW4 1994   5.597   5.645   2.962 -0.6152 -0.6027 -0.1572
  556SOL     OW 1995   2.122   3.379   4.095 -0.1585 -0.4467 -0.1258
  556SOL    HW2 1996   2.178   3.420   4.029 -0.7906  1.4528  0.4457
  556SOL    HW3 1997   2.044   3.435   4.098  0.0510 -0.1781  2.5348
  556SOL    MW4 1998   2.119   3.392   4.087 -0.2143 -0.1607  0.3006
  557SOL     OW 1999   5.412   2.104   5.935  0.4894  0.1717 -0.8422
  557SOL    HW2 2000   5.464   2.025   5.946  0.9400  0.5351 -0.3382
  557SOL    HW3 2001   5.383   2.101   5.843  1.2658 -0.1107 -1.0808
  557SOL    MW4 2002   5.415   2.093   5.924  0.6513  0.1824 -0.8072
  558SOL     OW 2003   3.184   2.209   0.390 -0.3168 -0.1607  0.4851
  558SOL    HW2 2004   3.149   2.123   0.413  0.4313  0.0221  2.5427
  558SOL    HW3 2005   3.278   2.196   0.385  0.0357  0.8958  2.9600
  558SOL    MW4 2006   3.192   2.196   0.393 -0.1716  0.0028  1.0831
  559SOL     OW 2007   6.059   0.266   1.067  0.6120  0.0004 -0.3290
  559SOL    HW2 2008   6.122   0.318   1.017  1.1219 -0.0744  0.2204
  559SOL    HW3 2009   6.084   0.280   1.158 -0.0637 -0.1741 -0.1108
  559SOL    MW4 2010   6.071   0.275   1.072  0.5901 -0.0325 -0.2277
  560SOL     OW 2011   0.008   3.823   3.716  0.5558 -0.6569 -0.2168
  560SOL    HW2 2012  -0.084   3.819   3.740  0.2416  0.7118 -1.0953
  560SOL    HW3 2013   0.034   3.913   3.737  1.4571 -0.7715 -0.7961
  560SOL    MW4 2014   0.000   3.834   3.722  0.6333 -0.4915 -0.4092
  561SOL     OW 2015   4.873   4.846   4.857 -0.0292 -0.5153  0.4994
  561SOL    HW2 2016   4.881   4.921   4.915 -2.7097  0.0795  0.2554
  561SOL    HW3 2017   4.927   4.868   4.781  0.8008  0.2385  1.2927
  561SOL    MW4 2018   4.881   4.859   4.854 -0.2733 -0.3374  0.5719
  562SOL     OW 2019   0.532   1.742   0.893 -0.1465 -0.7131  0.7670
  562SOL    HW2 2020   0.522   1.719   0.986 -0.9005 -1.9504  0.4038
  562SOL    HW3 2021   0.481   1.676   0.846 -0.0755  0.1083 -0.5201
  562SOL    MW4 2022   0.524   1.730   0.899 -0.2366 -0.7680  0.5493
  563SOL     OW 2023   0.324   4.258   6.279  0.5103 -0.3932 -0.3746
  563SOL    HW2 2024   0.304   4.285   6.368 -1.6330 -0.3310 -0.8179
  563SOL    HW3 2025   0.362   4.336   6.238  1.6075 -0.4548  0.4752
  563SOL    MW4 2026   0.327   4.272   6.285  0.3723 -0.3931 -0.3209
  564SOL     OW 2027   1.971   5.866   2.031 -0.3078  0.2068 -0.1000
  564SOL    HW2 2028   2.055   5.852   2.076  0.5828  0.8508 -1.5195
  564SOL    HW3 2029   1.939   5.950   2.066 -0.9272 -0.5560  1.2464
  564SOL    MW4 2030   1.978   5.875   2.042 -0.2720  0.1911 -0.1096
  565SOL     OW 2031   6.268   4.867   2.071  0.4160 -0.2614 -0.1127
  565SOL    HW2 2032   6.332   4.862   2.143 -1.1743  3.1295  1.7999
  565SOL    HW3 2033   6.199   4.805   2.096  1.1246 -1.1120 -0.2035
  565SOL    MW4 2034   6.268   4.858   2.084  0.2996  0.0738  0.1277
  566SOL     OW 2035   0.955   1.933   4.927 -0.3203  1.0401  0.1934
  566SOL    HW2 2036   0.921   1.943   4.839 -0.4930  1.5838  0.3170
  566SOL    HW3 2037   1.003   2.014   4.944  1.0928  0.2839  0.0084
  566SOL    MW4 2038   0.957   1.945   4.918 -0.1566  1.0121  0.1853
  567SOL     OW 2039   4.964   2.256   4.901  0.6049 -0.8455 -0.0105
  567SOL    HW2 2040   4.960   2.314   4.824 -0.2052 -1.9641 -0.8429
  567SOL    HW3 2041   4.881   2.271   4.947  0.6867 -0.8592  0.1422
  567SOL    MW4 2042   4.953   2.266   4.897  0.5088 -0.9949 -0.1001
  568SOL     OW 2043   4.400   3.884   4.716 -0.1939 -0.2420  0.6988
  568SOL    HW2 2044   4.410   3.813   4.779 -0.6260 -0.2049  0.8109
  568SOL    HW3 2045   4.475   3.874   4.657  0.3214 -0.1602  1.3244
  568SOL    MW4 2046   4.411   3.873   4.716 -0.1829 -0.2263  0.7961
  569SOL     OW 2047   6.371   5.681   1.826 -0.1827  0.6231 -0.0983
  569SOL    HW2 2048   6.281   5.652   1.840  0.3736 -1.9188 -1.1898
  569SOL    HW3 2049   6.375   5.705   1.734  0.6658 -1.2206 -0.5885
  569SOL    MW4 2050   6.360   5.680   1.816  0.0027  0.0445 -0.3070
  570SOL     OW 2051   2.358   1.744   4.635 -0.4222  0.2203  0.4889
  570SOL    HW2 2052   2.316   1.672   4.588  1.8659 -0.0675 -1.3183
  570SOL    HW3 2053   2.287   1.791   4.676 -2.4347 -0.5808 -1.8399
  570SOL    MW4 2054   2.343   1.740   4.634 -0.3859  0.0766 -0.0568
  571SOL     OW 2055   3.049   2.391   4.817  0.1164 -0.2616 -0.2830
  571SOL    HW2 2056   3.000   2.414   4.738 -0.5669  0.9252  0.4479
  571SOL    HW3 2057   2.981   2.377   4.883  0.7083  0.7978  0.5905
  571SOL    MW4 2058   3.033   2.392   4.815  0.1043  0.0348 -0.0713
  572SOL     OW 2059   5.449   1.364   1.442  0.4516 -0.0033  0.5127
  572SOL    HW2 2060   5.529   1.414   1.429  0.1401  0.6108  0.9403
  572SOL    HW3 2061   5.392   1.422   1.492  0.3617 -1.0523  1.6761
  572SOL    MW4 2062   5.452   1.378   1.447  0.3986 -0.0607  0.7226
  573SOL     OW 2063   0.872   2.379   2.614 -0.5875  0.1362 -0.3155
  573SOL    HW2 2064   0.955   2.417   2.587 -1.2098  1.8283  0.0541
  573SOL    HW3 2065   0.816   2.454   2.634 -1.8712 -0.9734  0.4505
  573SOL    MW4 2066   0.876   2.394   2.613 -0.8390  0.2130 -0.1656
  574SOL     OW 2067   6.389   6.280   0.089 -0.1067 -0.0021  0.4260
  574SOL    HW2 2068   6.416   6.242   0.005 -0.6672 -0.3038  0.3747
  574SOL    HW3 2069   6.464   6.331   0.118 -0.3040  1.0187 -0.8087
  574SOL    MW4 2070   6.403   6.282   0.082 -0.2067  0.0928  0.2563
  575SOL     OW 2071   2.595   1.847   5.378 -0.0132 -0.3404 -0.2520
  575SOL    HW2 2072   2.650   1.882   5.307  1.1526 -1.3204  0.1222
  575SOL    HW3 2073   2.520   1.906   5.381  1.9524  2.3326  0.5280
  575SOL    MW4 2074   2.593   1.860   5.369  0.4000 -0.1170 -0.0997
  576SOL     OW 2075   4.446   0.527   5.989  0.0101  0.6539 -0.1620
  576SOL    HW2 2076   4.381   0.462   5.962  1.9907 -1.3340 -0.5388
  576SOL    HW3 2077   4.492   0.486   6.062  2.6416  0.6695 -1.6843
  576SOL    MW4 2078   4.444   0.513   5.995  0.6186  0.3937 -0.4125
  577SOL     OW 2079   4.942   3.895   4.440  0.0710  0.3609 -0.2889
  577SOL    HW2 2080   4.880   3.831   4.476 -0.3651  0.8476 -0.1597
  577SOL    HW3 2081   4.962   3.863   4.352 -1.9356  1.2410 -1.1354
  577SOL    MW4 2082   4.936   3.883   4.433 -0.2513  0.5412 -0.3835
  578SOL     OW 2083   2.326   6.252   6.096  0.0549 -0.2397  0.3495
  578SOL    HW2 2084   2.349   6.289   6.181  0.3384  0.8111 -0.1635
  578SOL    HW3 2085   2.240   6.290   6.077 -0.1541 -0.7322  0.3170
  578SOL    MW4 2086   2.317   6.262   6.105  0.0647 -0.1660  0.2775
  579SOL     OW 2087   4.580   1.640   3.506 -0.4917 -0.0754  0.6183
  579SOL    HW2 2088   4.500   1.661   3.552 -1.8110 -0.2420 -1.4649
  579SOL    HW3 2089   4.568   1.550   3.476  0.7937 -0.3529  0.8630
  579SOL    MW4 2090   4.568   1.631   3.508 -0.4962 -0.1340  0.3757
  580SOL     OW 2091   6.407   2.675   2.372 -0.3268  0.6333 -0.3024
  580SOL    HW2 2092   6.475   2.674   2.305 -0.1380  0.9474 -0.1151
  580SOL    HW3 2093   6.446   2.631   2.448 -0.9253 -0.7512 -0.7629
  580SOL    MW4 2094   6.421   2.669   2.373 -0.3809  0.4921 -0.3384
  581SOL     OW 2095   5.732   5.337   5.977 -0.0941 -0.0017  0.2087
  581SOL    HW2 2096   5.815   5.362   6.016 -0.3279  1.0216  0.0759
  581SOL    HW3 2097   5.690   5.419   5.953 -2.0623 -0.3574  2.1286
  581SOL    MW4 2098   5.737   5.351   5.979 -0.3847  0.0864  0.4445
  582SOL     OW 2099   5.748   1.470   6.135 -0.3989 -0.2631 -0.2601
  582SOL    HW2 2100   5.800   1.439   6.210 -1.5169 -2.3821 -0.2678
  582SOL    HW3 2101   5.717   1.389   6.093 -0.6687  0.8931 -2.4071
  582SOL    MW4 2102   5.751   1.455   6.140 -0.5820 -0.3901 -0.5444
  583SOL     OW 2103   0.047   6.340   2.785  0.5192  0.3288 -0.3403
  583SOL    HW2 2104   0.019   6.292   2.707  0.6724  0.8171 -0.7010
  583SOL    HW3 2105   0.072   6.271   2.847  2.4210 -0.0817 -1.4634
  583SOL    MW4 2106   0.047   6.324   2.783  0.7904  0.3391 -0.5360
  584SOL     OW 2107   1.966   6.039   0.976  0.0076 -0.3165  0.6045
  584SOL    HW2 2108   1.899   6.025   1.043  0.3823 -1.6167  0.7399
  584SOL    HW3 2109   2.039   6.080   1.023 -0.3306  0.2382  0.6509
  584SOL    MW4 2110   1.967   6.042   0.991  0.0124 -0.4149  0.6285
  585SOL     OW 2111   1.012   1.076   6.124  0.9750 -0.2961 -0.6203
  585SOL    HW2 2112   0.946   1.083   6.055 -1.5001  0.6162  1.6960
  585SOL    HW3 2113   1.029   1.166   6.150 -0.5046 -0.6826  1.9845
  585SOL    MW4 2114   1.006   1.089   6.118  0.4532 -0.2267  0.0290
  586SOL     OW 2115   1.311   2.064   6.382  0.2737  0.0917  0.9192
  586SOL    HW2 2116   1.226   2.026   6.360  0.6013 -0.0404 -0.1772
  586SOL    HW3 2117   1.296   2.158   6.389  0.2067  0.1715 -0.1840
  586SOL    MW4 2118   1.298   2.071   6.380  0.3081  0.0848  0.6290
  587SOL     OW 2119   4.426   5.801   2.224 -0.7646 -0.3539 -0.0432
  587SOL    HW2 2120   4.518   5.778   2.214 -0.3375  1.0421  0.5118
  587SOL    HW3 2121   4.422   5.853   2.304 -1.8281  0.6258 -0.6915
  587SOL    MW4 2122   4.437   5.805   2.233 -0.8486 -0.0404 -0.0555
  588SOL     OW 2123   0.553   0.789   3.424 -0.0412 -0.0606  0.0994
  588SOL    HW2 2124   0.518   0.816   3.509  0.1815  0.5396  0.0051
  588SOL    HW3 2125   0.483   0.808   3.362 -0.6886 -1.6707  0.3027
  588SOL    MW4 2126   0.539   0.795   3.427 -0.0972 -0.1939  0.1138
  589SOL     OW 2127   4.137   5.569   6.170 -0.3812 -0.0396 -0.1599
  589SOL    HW2 2128   4.163   5.536   6.084  0.3783  1.1299 -0.4031
  589SOL    HW3 2129   4.211   5.622   6.199 -1.7976  2.0425 -0.1265
  589SOL    MW4 2130   4.150   5.572   6.162 -0.4679  0.3894 -0.1876
  590SOL     OW 2131   3.122   0.981   1.032  0.0411 -0.9849  0.1135
  590SOL    HW2 2132   3.137   1.066   0.991 -1.3973 -0.8718 -0.2482
  590SOL    HW3 2133   3.196   0.969   1.091 -0.5195  1.2953  1.3982
  590SOL    MW4 2134   3.134   0.991   1.035 -0.2226 -0.6692  0.2353
  591SOL     OW 2135   2.292   4.401   6.240  0.2178 -0.0851  0.1301
  591SOL    HW2 2136   2.225   4.447   6.189  0.6003  1.0390  0.6120
  591SOL    HW3 2137   2.242   4.339   6.294 -0.2852 -0.4530 -0.7258
  591SOL    MW4 2138   2.276   4.399   6.240  0.2019  0.0146  0.0807
  592SOL     OW 2139   6.097   2.049   1.567 -0.0911  0.1202  0.0643
  592SOL    HW2 2140   6.121   2.136   1.536  1.4757 -0.3367 -0.1219
  592SOL    HW3 2141   6.177   2.017   1.610 -0.5963 -1.2727  0.0059
  592SOL    MW4 2142   6.111   2.056   1.569  0.0490 -0.1238  0.0321
  593SOL     OW 2143   1.261   0.149   3.875  0.0587  0.3158 -0.2801
  593SOL    HW2 2144   1.172   0.128   3.849  0.1872 -0.1745 -0.3383
  593SOL    HW3 2145   1.299   0.065   3.901 -0.8114  1.0219  3.9700
  593SOL    MW4 2146   1.255   0.135   3.875 -0.0392  0.3443  0.2729
  594SOL     OW 2147   1.974   0.632   4.789 -0.1525  0.6277  0.0116
  594SOL    HW2 2148   2.064   0.617   4.761 -0.4666  0.9700 -1.2309
  594SOL    HW3 2149   1.922   0.568   4.740 -1.0330  2.9720 -2.3735
  594SOL    MW4 2150   1.979   0.622   4.779 -0.3101  0.9822 -0.4670
  595SOL     OW 2151   0.580   3.077   3.361 -0.1151  0.1994 -0.2883
  595SOL    HW2 2152   0.549   3.123   3.283 -1.4803 -1.2690 -0.6705
  595SOL    HW3 2153   0.579   2.984   3.337  0.4867 -0.2153  1.1307
  595SOL    MW4 2154   0.576   3.071   3.348 -0.2158 -0.0491 -0.1515
  596SOL     OW 2155   3.969   0.923   4.085 -0.3127 -0.0708  0.3067
  596SOL    HW2 2156   3.899   0.986   4.105  0.2295  0.1477  1.5708
  596SOL    HW3 2157   3.971   0.864   4.160  0.2017 -0.6853 -0.1770
  596SOL    MW4 2158   3.960   0.924   4.097 -0.1733 -0.1230  0.4096
  597SOL     OW 2159   6.377   5.804   3.179 -0.2628  0.0122  0.1959
  597SOL    HW2 2160   6.468   5.814   3.149 -0.4781  0.1077 -0.4457
  597SOL    HW3 2161   6.365   5.875   3.242 -0.2980  0.8677 -0.7288
  597SOL    MW4 2162   6.388   5.815   3.183 -0.2958  0.1377 -0.0108
  598SOL     OW 2163   3.939   0.134   5.578  0.3735 -0.2418  0.4020
  598SOL    HW2 2164   3.967   0.085   5.656  1.4204 -2.2265 -1.1314
  598SOL    HW3 2165   3.881   0.074   5.531  1.2103  0.1921 -1.2536
  598SOL    MW4 2166   3.935   0.120   5.582  0.6220 -0.4464 -0.0188
  599SOL     OW 2167   1.694   2.150   4.234  0.0998  0.0301  0.0957
  599SOL    HW2 2168   1.657   2.091   4.299 -0.2520 -1.8260 -1.6753
  599SOL    HW3 2169   1.620   2.205   4.207  0.6595  2.1776  2.5159
  599SOL    MW4 2170   1.679   2.150   4.239  0.1272  0.0686  0.1814
  600SOL     OW 2171   1.522   2.892   5.886 -0.1987  0.1291 -0.0177
  600SOL    HW2 2172   1.487   2.894   5.976 -1.2560 -0.6919 -0.3926
  600SOL    HW3 2173   1.614   2.868   5.897 -0.8878 -2.5852  0.7437
  600SOL    MW4 2174   1.529   2.889   5.900 -0.4291 -0.3373  0.0333
  601SOL     OW 2175   0.072   0.935   6.316  0.1240 -0.1976 -0.5497
  601SOL    HW2 2176   0.027   0.959   6.235 -0.8561  1.7415  0.5055
  601SOL    HW3 2177   0.024   0.980   6.385 -1.2894 -4.5501  1.6432
  601SOL    MW4 2178   0.060   0.944   6.314 -0.1918 -0.5160 -0.1211
  602SOL     OW 2179   3.235   3.339   4.399  0.1495  0.0227  0.0834
  602SOL    HW2 2180   3.196   3.323   4.313 -0.2270 -1.3255  0.4961
  602SOL    HW3 2181   3.196   3.422   4.428 -0.6862 -0.1601 -0.4847
  602SOL    MW4 2182   3.225   3.348   4.391 -0.0104 -0.1793  0.0629
  603SOL     OW 2183   1.405   0.677   1.055 -0.3482 -0.1879  0.2798
  603SOL    HW2 2184   1.409   0.666   1.150  0.6092 -2.9122 -0.0087
  603SOL    HW3 2185   1.488   0.717   1.031  1.0868 -2.9643  0.2863
  603SOL    MW4 2186   1.416   0.681   1.064 -0.0325 -0.9137  0.2425
  604SOL     OW 2187   2.883   4.624   2.785  0.4761  0.3388 -0.1749
  604SOL    HW2 2188   2.972   4.598   2.759  0.7212  1.1545 -0.1906
  604SOL    HW3 2189   2.897   4.694   2.848 -0.1701  1.5313 -1.3149
  604SOL    MW4 2190   2.897   4.630   2.790  0.4232  0.6037 -0.3274
  605SOL     OW 2191   4.205   6.145   1.304  0.4532  0.1868  0.4356
  605SOL    HW2 2192   4.246   6.066   1.337  0.7200  0.1124 -0.0675
  605SOL    HW3 2193   4.258   6.170   1.229  2.4462  2.7072  2.4720
  605SOL    MW4 2194   4.217   6.138   1.299  0.7514  0.5095  0.6379
  606SOL     OW 2195   4.654   6.331   4.257  0.3015 -0.2042 -0.4567
  606SOL    HW2 2196   4.666   6.426   4.263 -0.7972 -0.0435 -0.4863
  606SOL    HW3 2197   4.669   6.299   4.345  0.7031 -0.0034 -0.4503
  606SOL    MW4 2198   4.657   6.340   4.269  0.2095 -0.1565 -0.4597
  607SOL     OW 2199   4.386   4.955   3.497 -0.2858 -0.0679 -0.4689
  607SOL    HW2 2200   4.345   4.965   3.412 -1.2855 -0.3212 -0.0284
  607SOL    HW3 2201   4.406   4.861   3.503  0.9606  0.1474 -0.9380
  607SOL    MW4 2202   4.384   4.944   3.487 -0.2533 -0.0729 -0.4727
  608SOL     OW 2203   0.523   2.442   6.200  0.3922 -0.0430 -0.1664
  608SOL    HW2 2204   0.596   2.452   6.261 -0.3302 -0.8943  0.8813
  608SOL    HW3 2205   0.454   2.402   6.252 -0.4524 -0.2704 -1.4180
  608SOL    MW4 2206   0.523   2.438   6.215  0.1854 -0.1853 -0.1933
  609SOL     OW 2207   6.234   1.808   3.660  0.5598  0.0988 -0.7311
  609SOL    HW2 2208   6.188   1.782   3.740 -0.0957  0.4346 -0.9897
  609SOL    HW3 2209   6.226   1.903   3.658  1.9318  0.2345 -0.3917
  609SOL    MW4 2210   6.227   1.817   3.670  0.6544  0.1610 -0.7204
  610SOL     OW 2211   4.503   4.753   2.341  0.3775 -0.3381 -0.4932
  610SOL    HW2 2212   4.447   4.830   2.350 -0.5825 -1.0946  0.2184
  610SOL    HW3 2213   4.514   4.742   2.247 -1.3830 -0.6620 -0.6858
  610SOL    MW4 2214   4.497   4.762   2.330  0.0185 -0.4807 -0.4247
  611SOL     OW 2215   2.720   2.572   1.044 -0.4500 -0.0260 -0.3550
  611SOL    HW2 2216   2.746   2.658   1.077  2.2772 -0.6707 -0.5857
  611SOL    HW3 2217   2.658   2.591   0.973  0.0842  1.7556 -0.3865
  611SOL    MW4 2218   2.716   2.586   1.039 -0.0197  0.1240 -0.3896
  612SOL     OW 2219   1.913   3.624   2.851  1.1596 -0.9582  0.0831
  612SOL    HW2 2220   1.917   3.600   2.759  0.4724  0.4031 -0.3406
  612SOL    HW3 2221   1.992   3.588   2.890  1.2820 -1.8494 -0.9627
  612SOL    MW4 2222   1.924   3.616   2.844  1.0851 -0.8962 -0.1108
  613SOL     OW 2223   0.723   6.159   2.752  0.1087 -0.2684  0.5168
  613SOL    HW2 2224   0.730   6.098   2.679 -1.5685  0.2017 -0.0730
  613SOL    HW3 2225   0.637   6.141   2.791  0.1253  0.8439  1.1130
  613SOL    MW4 2226   0.713   6.149   2.748 -0.1104 -0.0596  0.5176
  614SOL     OW 2227   6.233   1.876   1.776  0.6408 -0.2744  0.2227
  614SOL    HW2 2228   6.315   1.852   1.733  0.2894 -0.1149 -0.5589
  614SOL    HW3 2229   6.172   1.805   1.752 -0.0315  0.6577 -0.9915
  614SOL    MW4 2230   6.235   1.863   1.767  0.5057 -0.1304 -0.0407
  615SOL     OW 2231   1.980   1.513   4.319 -0.4462  0.0665  0.0242
  615SOL    HW2 2232   1.972   1.446   4.251  0.8163  0.6890 -0.7592
  615SOL    HW3 2233   1.889   1.533   4.343 -0.8854 -0.7489 -0.8738
  615SOL    MW4 2234   1.967   1.507   4.313 -0.3376  0.0411 -0.1976
  616SOL     OW 2235   1.372   0.620   5.945 -0.5423  0.1640  0.1130
  616SOL    HW2 2236   1.332   0.700   5.981  1.4245  0.7089  1.2049
  616SOL    HW3 2237   1.384   0.563   6.020 -2.1627 -1.3308 -0.7003
  616SOL    MW4 2238   1.368   0.623   5.960 -0.4966  0.0387  0.1497
  617SOL     OW 2239   1.457   6.319   2.428 -0.7512 -0.4869  0.2987
  617SOL    HW2 2240   1.404   6.318   2.507 -0.6481 -3.3079  0.4485
  617SOL    HW3 2241   1.396   6.343   2.358 -1.0216  1.2359  1.0916
  617SOL    MW4 2242   1.442   6.322   2.429 -0.7733 -0.6318  0.4231
  618SOL     OW 2243   1.938   5.134   5.175 -0.0346 -0.0790 -0.0611
  618SOL    HW2 2244   1.947   5.124   5.270  0.1064  1.3771  0.1080
  618SOL    HW3 2245   2.018   5.179   5.148 -0.0591 -0.5162 -0.8779
  618SOL    MW4 2246   1.949   5.139   5.184 -0.0192  0.0554 -0.1465
  619SOL     OW 2247   2.358   0.013   0.647  0.0249  0.0215  0.0008
  619SOL    HW2 2248   2.423   0.080   0.666 -1.5030  1.8369 -0.8560
  619SOL    HW3 2249   2.307   0.005   0.728 -1.7098  2.2244 -0.7697
  619SOL    MW4 2250   2.360   0.021   0.660 -0.4056  0.5517 -0.2139
  620SOL     OW 2251   4.471   4.110   4.886  0.5581  0.4782  0.0602
  620SOL    HW2 2252   4.456   4.040   4.822  0.4065 -0.0167  0.6329
  620SOL    HW3 2253   4.524   4.174   4.838  1.7664 -0.6003 -0.1109
  620SOL    MW4 2254   4.476   4.109   4.871  0.6975  0.2706  0.1132
  621SOL     OW 2255   0.655   3.214   1.879  0.1938  0.2437  0.0303
  621SOL    HW2 2256   0.630   3.296   1.836  0.1518 -1.1527 -2.8239
  621SOL    HW3 2257   0.725   3.179   1.824  0.5664 -1.4055  1.4815
  621SOL    MW4 2258   0.661   3.220   1.866  0.2374 -0.1582 -0.1548
  622SOL     OW 2259   6.316   4.892   3.072 -0.4566 -0.0052 -0.4786
  622SOL    HW2 2260   6.343   4.966   3.127 -1.7735  0.0845  0.1004
  622SOL    HW3 2261   6.266   4.836   3.132  0.8138 -1.5518 -0.8248
  622SOL    MW4 2262   6.313   4.894   3.087 -0.4627 -0.1974 -0.4479
  623SOL     OW 2263   0.199   0.984   1.030  0.1660 -0.3876  0.1608
  623SOL    HW2 2264   0.126   1.047   1.033 -0.3260 -0.9194 -0.4350
  623SOL    HW3 2265   0.228   0.986   0.939 -0.0164 -1.2077  0.0805
  623SOL    MW4 2266   0.193   0.993   1.018  0.0770 -0.5660  0.0716
  624SOL     OW 2267   0.738   4.994   3.898  0.1652 -0.0412 -0.5299
  624SOL    HW2 2268   0.649   4.964   3.919  0.1563  0.2856 -0.0735
  624SOL    HW3 2269   0.760   5.054   3.970  0.6795  0.0299 -0.7447
  624SOL    MW4 2270   0.729   4.998   3.910  0.2319  0.0113 -0.4980
  625SOL     OW 2271   5.348   1.244   3.375 -0.0714  0.4688 -0.7530
  625SOL    HW2 2272   5.438   1.257   3.403 -0.2287  0.6116 -0.2995
  625SOL    HW3 2273   5.355   1.194   3.294  0.4196  0.6247 -0.8133
  625SOL    MW4 2274   5.361   1.239   3.368 -0.0273  0.5082 -0.7011
  626SOL     OW 2275   4.488   2.701   5.200 -0.1011  0.0534 -0.5781
  626SOL    HW2 2276   4.402   2.742   5.189 -0.2414  0.1036  0.5647
  626SOL    HW3 2277   4.550   2.775   5.203 -0.0813  0.0482 -0.8628
  626SOL    MW4 2278   4.485   2.717   5.199 -0.1170  0.0593 -0.4649
  627SOL     OW 2279   0.642   0.703   0.572  0.3062  0.8374  0.2261
  627SOL    HW2 2280   0.736   0.719   0.580  0.2528  0.8237  0.8704
  627SOL    HW3 2281   0.615   0.675   0.659  0.4276 -2.9337 -0.7571
  627SOL    MW4 2282   0.651   0.701   0.584  0.3152  0.3380  0.1814
  628SOL     OW 2283   0.670   3.440   4.165 -0.1581  0.2638  0.0869
  628SOL    HW2 2284   0.595   3.444   4.105  0.7638  2.6795 -1.0510
  628SOL    HW3 2285   0.677   3.530   4.199  2.6524  0.3216 -0.4487
  628SOL    MW4 2286   0.661   3.453   4.162  0.3343  0.5901 -0.1339
  629SOL     OW 2287   4.601   3.545   6.222  0.4382  0.0428 -0.6732
  629SOL    HW2 2288   4.534   3.597   6.266  1.3529  1.2654 -0.6869
  629SOL    HW3 2289   4.564   3.528   6.135  0.3350  1.1078 -0.8479
  629SOL    MW4 2290   4.587   3.550   6.216  0.5453  0.3446 -0.6981
  630SOL     OW 2291   1.825   3.584   5.100  0.1973 -0.5503  0.7186
  630SOL    HW2 2292   1.900   3.544   5.056  2.1627  1.9456  1.5995
  630SOL    HW3 2293   1.753   3.577   5.036  1.8547 -0.6996 -1.2252
  630SOL    MW4 2294   1.825   3.578   5.086  0.6753 -0.2407  0.5784
  631SOL     OW 2295   5.406   3.946   2.640  0.6939 -0.2278  0.6975
  631SOL    HW2 2296   5.497   3.930   2.616  0.5251  1.8083 -1.7129
  631SOL    HW3 2297   5.407   3.953   2.735  2.1780 -4.7626  1.2413
  631SOL    MW4 2298   5.418   3.945   2.649  0.8674 -0.5575  0.4513
  632SOL     OW 2299   4.899   6.019   0.236 -0.0518  0.1651  0.0678
  632SOL    HW2 2300   4.863   6.050   0.319 -0.4083  0.0155 -0.0285
  632SOL    HW3 2301   4.884   6.090   0.175  2.1426  1.1703  0.6093
  632SOL    MW4 2302   4.892   6.032   0.239  0.1907  0.2780  0.1266
  633SOL     OW 2303   5.472   3.236   4.807  0.1997 -0.5290 -0.1229
  633SOL    HW2 2304   5.415   3.163   4.781 -0.0642 -0.1169 -0.7277
  633SOL    HW3 2305   5.535   3.244   4.735  1.7958 -1.7402  1.0711
  633SOL    MW4 2306   5.473   3.227   4.794  0.3755 -0.6344 -0.0452
  634SOL     OW 2307   2.995   3.636   2.537 -0.1130 -0.1287 -0.1291
  634SOL    HW2 2308   3.083   3.660   2.507 -0.4816  1.9289  0.3206
  634SOL    HW3 2309   2.942   3.713   2.519 -0.8343  0.4690  3.8304
  634SOL    MW4 2310   3.000   3.649   2.531 -0.2568  0.2216  0.4526
  635SOL     OW 2311   1.648   4.877   5.956  0.1497  0.0295 -0.3337
  635SOL    HW2 2312   1.618   4.845   5.871 -1.6133 -2.8823  1.2318
  635SOL    HW3 2313   1.711   4.812   5.986 -0.9398 -0.2319  1.5228
  635SOL    MW4 2314   1.652   4.864   5.949 -0.2267 -0.3891  0.1178
  636SOL     OW 2315   5.753   4.170   5.226 -0.0888 -0.1643 -0.5409
  636SOL    HW2 2316   5.733   4.264   5.225  1.3590  0.1706 -0.1958
  636SOL    HW3 2317   5.779   4.150   5.136 -1.1701 -0.4336 -0.8088
  636SOL    MW4 2318   5.754   4.180   5.214 -0.0404 -0.1556 -0.5307
  637SOL     OW 2319   4.036   2.687   4.438  0.5749 -0.2019  0.0950
  637SOL    HW2 2320   4.047   2.731   4.354 -2.4335  0.3747 -0.1187
  637SOL    HW3 2321   4.077   2.601   4.425  1.2508  0.3175 -1.5261
  637SOL    MW4 2322   4.043   2.682   4.425  0.2671 -0.0573 -0.1471
  638SOL     OW 2323   1.465   4.390   6.324 -1.0427  0.0707  0.5535
  638SOL    HW2 2324   1.455   4.303   6.285 -2.3458  0.5034 -0.1376
  638SOL    HW3 2325   1.545   4.383   6.376 -0.7506 -1.3408 -0.0125
  638SOL    MW4 2326   1.474   4.377   6.325 -1.1761 -0.0584  0.3876
  639SOL     OW 2327   0.517   0.254   6.320 -0.0376 -0.0714 -0.0158
  639SOL    HW2 2328   0.516   0.174   6.373 -1.9737 -0.6015 -0.7920
  639SOL    HW3 2329   0.483   0.322   6.379  0.5240 -0.0432  0.2855
  639SOL    MW4 2330   0.513   0.252   6.335 -0.2189 -0.1376 -0.0784
  640SOL     OW 2331   4.062   4.900   3.523  0.1685  0.3173  0.1590
  640SOL    HW2 2332   4.002   4.859   3.460 -0.1097 -0.2462  0.7847
  640SOL    HW3 2333   4.128   4.833   3.540 -1.4866 -0.7709  2.8698
  640SOL    MW4 2334   4.063   4.886   3.517 -0.0866  0.0993  0.5992
  641SOL     OW 2335   2.302   1.291   2.425 -0.8299 -0.1291  0.4467
  641SOL    HW2 2336   2.298   1.350   2.500  1.3788  0.0846  0.4813
  641SOL    HW3 2337   2.233   1.227   2.441 -2.4476  1.6788  1.0489
  641SOL    MW4 2338   2.292   1.290   2.437 -0.7519  0.1377  0.5307
  642SOL     OW 2339   1.728   2.145   6.286 -0.3028 -0.4907  0.2094
  642SOL    HW2 2340   1.758   2.181   6.369  1.6885 -1.2177 -0.1521
  642SOL    HW3 2341   1.681   2.065   6.309 -0.5676 -0.2086  0.6694
  642SOL    MW4 2342   1.725   2.139   6.300 -0.0750 -0.5494  0.2224
  643SOL     OW 2343   0.550   0.604   0.822 -0.5538 -0.7996 -0.2830
  643SOL    HW2 2344   0.562   0.510   0.831  1.5410 -0.6537 -1.0812
  643SOL    HW3 2345   0.613   0.643   0.882 -0.4023  0.0830 -0.9909
  643SOL    MW4 2346   0.560   0.597   0.831 -0.2574 -0.6639 -0.4817
  644SOL     OW 2347   1.593   4.649   5.728 -0.6548 -0.1132  0.1837
  644SOL    HW2 2348   1.555   4.682   5.646 -0.0888  1.7144  0.6245
  644SOL    HW3 2349   1.687   4.664   5.718 -0.7668  2.4045  2.0815
  644SOL    MW4 2350   1.601   4.655   5.716 -0.5949  0.4601  0.4923
  645SOL     OW 2351   6.204   4.621   3.559 -0.2966  0.7249  0.3056
  645SOL    HW2 2352   6.297   4.600   3.551 -0.3956  0.8899 -2.2534
  645SOL    HW3 2353   6.203   4.709   3.598  0.5445  0.2296  1.4913
  645SOL    MW4 2354   6.216   4.630   3.563 -0.1987  0.6813  0.1244
  646SOL     OW 2355   0.390   2.916   5.637  0.2862 -0.0692  0.0083
  646SOL    HW2 2356   0.455   2.977   5.602 -0.2217  1.2923  1.3238
  646SOL    HW3 2357   0.306   2.953   5.611 -0.0188 -0.7483  0.0043
  646SOL    MW4 2358   0.388   2.929   5.629  0.1789  0.0208  0.1814
  647SOL     OW 2359   0.669   3.549   3.165 -0.1510 -0.5164  0.2617
  647SOL    HW2 2360   0.653   3.506   3.081 -0.7079  1.0961 -0.4857
  647SOL    HW3 2361   0.762   3.573   3.163 -0.5238  0.9701 -0.6275
  647SOL    MW4 2362   0.679   3.546   3.154 -0.2737 -0.1076  0.0458
  648SOL     OW 2363   2.992   6.033   2.096 -0.2504 -0.0185 -0.0348
  648SOL    HW2 2364   2.966   5.998   2.181  0.3417 -0.5887 -0.0821
  648SOL    HW3 2365   3.063   6.094   2.117  0.7805 -1.1269 -0.2289
  648SOL    MW4 2366   2.998   6.037   2.110 -0.0363 -0.2400 -0.0667
  649SOL     OW 2367   5.831   4.482   4.627  0.6380  0.4158  0.7672
  649SOL    HW2 2368   5.752   4.536   4.626  0.4992  0.2289  1.1747
  649SOL    HW3 2369   5.890   4.523   4.565 -0.9677 -1.2749 -2.0771
  649SOL    MW4 2370   5.828   4.494   4.619  0.4078  0.1680  0.4457
  650SOL     OW 2371   2.806   3.253   5.773 -0.1130 -0.0089  0.6051
  650SOL    HW2 2372   2.776   3.284   5.859 -1.5836 -0.2195  0.1920
  650SOL    HW3 2373   2.812   3.332   5.719 -3.4808 -0.2430 -0.3341
  650SOL    MW4 2374   2.803   3.267   5.777 -0.7514 -0.0675  0.4267
  651SOL     OW 2375   1.001   6.287   5.140  0.1687 -0.4807 -0.2570
  651SOL    HW2 2376   0.999   6.281   5.235  0.6919 -0.5045 -0.2435
  651SOL    HW3 2377   0.938   6.357   5.119 -0.4102 -0.9054  0.0580
  651SOL    MW4 2378   0.992   6.296   5.150  0.1614 -0.5398 -0.2137
  652SOL     OW 2379   3.301   1.661   1.039 -0.2662  0.1358  0.4392
  652SOL    HW2 2380   3.307   1.654   1.135  0.7303 -2.1640  0.2680
  652SOL    HW3 2381   3.214   1.628   1.018 -0.3058  0.1898  0.5166
  652SOL    MW4 2382   3.290   1.655   1.049 -0.1400 -0.1605  0.4268
  653SOL     OW 2383   4.923   2.533   2.855 -0.4814 -0.1730  0.1308
  653SOL    HW2 2384   5.007   2.489   2.840 -0.6111 -0.1559 -0.6723
  653SOL    HW3 2385   4.901   2.512   2.946  1.1649  1.1456  0.8871
  653SOL    MW4 2386   4.931   2.524   2.865 -0.2813  0.0032  0.1247
  654SOL     OW 2387   2.903   0.259   2.709  0.8326 -0.9626 -0.4782
  654SOL    HW2 2388   2.985   0.221   2.740  1.3329 -0.6902 -1.4238
  654SOL    HW3 2389   2.910   0.352   2.730  0.5090 -1.0345 -0.0392
  654SOL    MW4 2390   2.915   0.266   2.716  0.8559 -0.9361 -0.5450
  655SOL     OW 2391   4.781   0.195   0.287  0.0919 -0.2094  0.0488
  655SOL    HW2 2392   4.699   0.194   0.336 -0.4573 -0.8626 -0.8569
  655SOL    HW3 2393   4.760   0.152   0.204  1.8829 -2.4221  0.6348
  655SOL    MW4 2394   4.768   0.189   0.282  0.2558 -0.5876  0.0066
  656SOL     OW 2395   4.565   6.169   5.694 -0.4673  0.6567  0.1397
  656SOL    HW2 2396   4.495   6.224   5.730 -1.7112 -0.3211 -0.6984
  656SOL    HW3 2397   4.546   6.164   5.601  1.7108  1.7188 -0.4224
  656SOL    MW4 2398   4.553   6.176   5.687 -0.3440  0.6678 -0.0450
  657SOL     OW 2399   4.346   0.842   1.521  0.2289 -0.8696  0.2184
  657SOL    HW2 2400   4.282   0.912   1.510  0.6270 -0.1924  1.9706
  657SOL    HW3 2401   4.419   0.868   1.465  1.3217  1.3681  2.4863
  657SOL    MW4 2402   4.347   0.855   1.512  0.4256 -0.4850  0.7488
  658SOL     OW 2403   3.212   1.232   2.098 -0.2500 -0.0525 -0.0457
  658SOL    HW2 2404   3.270   1.186   2.037 -0.5353 -1.4763  0.7241
  658SOL    HW3 2405   3.233   1.194   2.183 -0.4464  1.3195  0.6365
  658SOL    MW4 2406   3.223   1.221   2.101 -0.3135 -0.0593  0.1458
  659SOL     OW 2407   3.661   2.886   6.399  0.1355 -0.0491 -0.2625
  659SOL    HW2 2408   3.592   2.947   6.426 -1.3626 -1.3500 -0.9604
  659SOL    HW3 2409   3.629   2.850   6.317  2.0661 -0.1258 -1.0312
  659SOL    MW4 2410   3.647   2.890   6.392  0.1926 -0.2309 -0.4560
  660SOL     OW 2411   0.518   4.434   3.864 -0.0806 -0.2976  0.2515
  660SOL    HW2 2412   0.604   4.393   3.854 -0.3058 -0.5876 -0.5654
  660SOL    HW3 2413   0.535   4.513   3.915  0.5781 -0.6516  0.5932
  660SOL    MW4 2414   0.532   4.439   3.869 -0.0234 -0.3826  0.1888
  661SOL     OW 2415   2.023   6.406   1.192 -0.0310 -0.5661 -0.3355
  661SOL    HW2 2416   2.008   6.375   1.282  1.5404 -1.4389 -0.3473
  661SOL    HW3 2417   1.935   6.407   1.153 -0.8825  0.7206  1.4507
  661SOL    MW4 2418   2.009   6.402   1.199  0.0640 -0.5115 -0.1014
  662SOL     OW 2419   3.158   3.306   0.955 -0.1609  0.1532 -0.0469
  662SOL    HW2 2420   3.231   3.288   1.014  1.7757  1.8319 -1.7575
  662SOL    HW3 2421   3.079   3.294   1.009  1.2695 -2.6443  1.6363
  662SOL    MW4 2422   3.157   3.302   0.970  0.2833  0.0056 -0.0505
  663SOL     OW 2423   0.949   1.883   5.778 -0.1738  0.2581 -0.5071
  663SOL    HW2 2424   0.915   1.942   5.845 -1.8915 -1.1677 -0.0469
  663SOL    HW3 2425   0.874   1.869   5.719  0.8972  0.3668 -1.9452
  663SOL    MW4 2426   0.934   1.889   5.779 -0.2591  0.0843 -0.6361
  664SOL     OW 2427   5.714   6.186   1.806 -0.0953 -0.5387  0.0440
  664SOL    HW2 2428   5.758   6.143   1.732  0.5295 -0.5858  0.4333
  664SOL    HW3 2429   5.636   6.133   1.822 -0.6221 -0.1216 -1.0336
  664SOL    MW4 2430   5.710   6.173   1.798 -0.0824 -0.4899 -0.0468
  665SOL     OW 2431   2.579   6.253   2.450 -0.3479 -0.5501 -0.3544
  665SOL    HW2 2432   2.490   6.280   2.474  0.6009  1.7806  0.9141
  665SOL    HW3 2433   2.570   6.219   2.360 -2.4871 -0.3570 -0.2777
  665SOL    MW4 2434   2.566   6.252   2.441 -0.5050 -0.2171 -0.1769
  666SOL     OW 2435   3.913   4.111   1.750 -0.2669 -0.5291  0.0181
  666SOL    HW2 2436   3.943   4.021   1.762  1.7605  0.2092  0.7218
  666SOL    HW3 2437   3.825   4.112   1.788  0.5422 -1.6974  2.0620
  666SOL    MW4 2438   3.905   4.099   1.757  0.1074 -0.5858  0.3806
  667SOL     OW 2439   4.852   4.669   3.051 -0.0181 -0.3588  0.3765
  667SOL    HW2 2440   4.892   4.589   3.016  0.1223 -0.3915  0.6034
  667SOL    HW3 2441   4.804   4.707   2.978  2.6455  1.1432 -0.7515
  667SOL    MW4 2442   4.851   4.664   3.037  0.3519 -0.1650  0.2576
  668SOL     OW 2443   5.259   4.456   5.431  0.0953  0.0831  0.0360
  668SOL    HW2 2444   5.195   4.526   5.430 -2.3653 -2.0047 -1.6952
  668SOL    HW3 2445   5.343   4.499   5.418 -1.0188  2.8280  1.1877
  668SOL    MW4 2446   5.261   4.471   5.429 -0.3763  0.1698 -0.0404
  669SOL     OW 2447   4.093   3.556   5.223  0.6425 -0.1560 -0.0248
  669SOL    HW2 2448   4.037   3.482   5.200 -0.0179  1.1520 -3.1541
  669SOL    HW3 2449   4.034   3.617   5.268  0.5498 -0.3953  0.1868
  669SOL    MW4 2450   4.078   3.554   5.226  0.5431 -0.0150 -0.4097
  670SOL     OW 2451   4.133   4.525   5.182  0.5427  0.2643 -0.3498
  670SOL    HW2 2452   4.131   4.621   5.178 -0.5611  0.2582 -0.1734
  670SOL    HW3 2453   4.202   4.500   5.120  0.2753  1.1398 -1.0178
  670SOL    MW4 2454   4.142   4.535   5.174  0.3618  0.3790 -0.4146
  671SOL     OW 2455   6.104   6.036   5.677 -0.3648 -0.0525  0.1165
  671SOL    HW2 2456   6.087   5.964   5.737 -0.2170 -1.4688 -1.4576
  671SOL    HW3 2457   6.187   6.014   5.636 -1.1988  0.0134 -1.7303
  671SOL    MW4 2458   6.113   6.023   5.680 -0.4553 -0.2307 -0.3348
  672SOL     OW 2459   4.737   6.236   3.690  0.0665  0.0346  0.2679
  672SOL    HW2 2460   4.739   6.177   3.766  2.6367 -1.7083 -0.9720
  672SOL    HW3 2461   4.829   6.246   3.665 -0.6788 -1.0438 -3.6929
  672SOL    MW4 2462   4.749   6.229   3.697  0.3073 -0.3376 -0.4183
  673SOL     OW 2463   3.859   3.699   0.576  0.2587  0.1068  0.5869
  673SOL    HW2 2464   3.809   3.692   0.495 -0.0350  2.6427  0.4631
  673SOL    HW3 2465   3.817   3.638   0.636 -0.1005 -1.1197 -0.8645
  673SOL    MW4 2466   3.847   3.690   0.574  0.1725  0.2795  0.3791
  674SOL     OW 2467   1.201   2.152   1.982  0.8303 -0.1183 -0.1084
  674SOL    HW2 2468   1.214   2.062   2.010 -0.3587 -0.5143 -0.7644
  674SOL    HW3 2469   1.109   2.170   1.999  0.8895  0.7468 -0.6102
  674SOL    MW4 2470   1.191   2.142   1.988  0.6813 -0.0564 -0.2611
  675SOL     OW 2471   3.920   1.788   2.380 -0.0379  0.3887  0.4671
  675SOL    HW2 2472   3.900   1.702   2.417  0.9819  0.2403  0.6880
  675SOL    HW3 2473   3.990   1.823   2.435  0.1260  1.0123 -0.1191
  675SOL    MW4 2474   3.926   1.781   2.392  0.1183  0.4514  0.4189
  676SOL     OW 2475   1.929   3.969   1.638  0.2502 -0.5649 -0.2102
  676SOL    HW2 2476   1.910   3.891   1.585  0.3479  0.1468 -1.3129
  676SOL    HW3 2477   1.846   3.987   1.683  0.1519 -1.1465 -0.1401
  676SOL    MW4 2478   1.915   3.961   1.637  0.2501 -0.5477 -0.3465
  677SOL     OW 2479   0.527   1.894   3.878  0.0229 -1.0327 -0.0218
  677SOL    HW2 2480   0.541   1.986   3.859  2.7852 -1.5511 -0.9919
  677SOL    HW3 2481   0.614   1.862   3.903 -0.8822 -3.3496  0.3777
  677SOL    MW4 2482   0.541   1.902   3.879  0.2679 -1.4068 -0.0971
  678SOL     OW 2483   0.741   0.617   2.534  0.0484 -0.0496 -0.2074
  678SOL    HW2 2484   0.811   0.552   2.543  0.8600  0.3490 -2.7449
  678SOL    HW3 2485   0.741   0.638   2.441 -1.9851  1.6410  0.1183
  678SOL    MW4 2486   0.750   0.611   2.523 -0.1128  0.2261 -0.4992
  679SOL     OW 2487   6.054   5.847   0.046 -0.4541  0.2896 -0.1839
  679SOL    HW2 2488   6.016   5.905   0.112 -1.6968 -0.9145  0.1920
  679SOL    HW3 2489   6.105   5.783   0.096 -0.1895  0.2520 -0.4985
  679SOL    MW4 2490   6.056   5.846   0.061 -0.5831  0.1257 -0.1758
  680SOL     OW 2491   0.636   0.776   2.746  0.1142  0.3941  0.0187
  680SOL    HW2 2492   0.627   0.855   2.692  0.7569  2.2526  2.4523
  680SOL    HW3 2493   0.682   0.714   2.689  0.5286  2.1225 -1.6663
  680SOL    MW4 2494   0.641   0.779   2.731  0.2537  0.8674  0.1175
  681SOL     OW 2495   1.278   2.680   0.301 -0.3396  0.1353 -0.1950
  681SOL    HW2 2496   1.331   2.604   0.323 -2.2300 -1.4138 -0.7258
  681SOL    HW3 2497   1.342   2.748   0.278  1.4101 -1.0966  0.8124
  681SOL    MW4 2498   1.294   2.679   0.301 -0.3581 -0.2317 -0.1322
  682SOL     OW 2499   3.341   0.445   3.349  0.3712  0.1576 -0.6136
  682SOL    HW2 2500   3.290   0.520   3.378 -1.8051 -1.1889 -0.7445
  682SOL    HW3 2501   3.289   0.406   3.279  0.4140 -2.5721  0.7486
  682SOL    MW4 2502   3.328   0.450   3.344  0.0897 -0.3802 -0.4511
  683SOL     OW 2503   4.851   1.290   3.306 -0.2059  0.0299 -0.1923
  683SOL    HW2 2504   4.776   1.232   3.315 -0.1797  0.2417  1.7756
  683SOL    HW3 2505   4.902   1.277   3.386  0.8009  1.3687 -0.5658
  683SOL    MW4 2506   4.848   1.281   3.318 -0.0696  0.2345  0.0181
  684SOL     OW 2507   5.274   5.852   4.882 -0.3956 -0.2003 -0.4490
  684SOL    HW2 2508   5.304   5.833   4.971 -3.1982  4.1217  1.7695
  684SOL    HW3 2509   5.350   5.892   4.839  0.3644 -0.2419  0.7942
  684SOL    MW4 2510   5.288   5.855   4.888 -0.6651  0.3645  0.0078
  685SOL     OW 2511   4.643   0.227   5.011  0.3293  0.0185 -0.0516
  685SOL    HW2 2512   4.574   0.160   5.015  0.6509 -0.3267 -0.2033
  685SOL    HW3 2513   4.709   0.198   5.074 -1.2824  2.2562  2.9095
  685SOL    MW4 2514   4.643   0.214   5.020  0.1591  0.2682  0.3190
  686SOL     OW 2515   0.801   2.430   5.795  0.6597  0.5364 -0.1081
  686SOL    HW2 2516   0.835   2.481   5.869 -0.8360  1.9737 -0.3691
  686SOL    HW3 2517   0.725   2.479   5.765  0.5825 -0.6142 -1.9160
  686SOL    MW4 2518   0.796   2.443   5.801  0.4522  0.5742 -0.3811
  687SOL     OW 2519   3.945   0.570   2.787  0.2050 -0.4710 -0.2700
  687SOL    HW2 2520   4.000   0.498   2.817 -0.2545 -0.6918  0.0412
  687SOL    HW3 2521   3.861   0.529   2.767 -0.4817  0.1732  1.1696
  687SOL    MW4 2522   3.941   0.555   2.788  0.0538 -0.4152 -0.0390
  688SOL     OW 2523   1.899   0.317   1.246 -0.8610  0.3759  0.2378
  688SOL    HW2 2524   1.892   0.353   1.334 -0.3609 -1.8109  1.2315
  688SOL    HW3 2525   1.842   0.240   1.246  0.1750 -0.4449 -0.8963
  688SOL    MW4 2526   1.891   0.311   1.258 -0.6583 -0.0209  0.2193
  689SOL     OW 2527   6.435   0.914   3.802  0.1165 -0.4792  0.3700
  689SOL    HW2 2528   6.440   0.864   3.721  0.4367 -0.8175  0.5993
  689SOL    HW3 2529   6.524   0.916   3.836  0.2518  0.8674 -0.0041
  689SOL    MW4 2530   6.447   0.908   3.796  0.1766 -0.3461  0.3509
  690SOL     OW 2531   5.335   4.196   3.734  0.2549  0.0373 -0.2185
  690SOL    HW2 2532   5.416   4.189   3.682  1.3526 -0.9206  1.5095
  690SOL    HW3 2533   5.280   4.125   3.701  1.4776 -1.4321  0.7077
  690SOL    MW4 2534   5.339   4.185   3.723  0.5610 -0.2829  0.1317
  691SOL     OW 2535   0.798   1.410   2.560  0.3731  0.3992  0.2103
  691SOL    HW2 2536   0.874   1.417   2.618 -0.9380  1.1307  1.9422
  691SOL    HW3 2537   0.726   1.446   2.612 -0.9266  0.8387 -1.8241
  691SOL    MW4 2538   0.798   1.415   2.575  0.0286  0.5537  0.1704
  692SOL     OW 2539   0.146   3.339   5.019  0.0182 -0.2857 -0.0795
  692SOL    HW2 2540   0.175   3.333   4.928  2.0694  0.9906  0.4268
  692SOL    HW3 2541   0.226   3.340   5.070 -0.9342  1.9030  1.5584
  692SOL    MW4 2542   0.160   3.338   5.014  0.1632  0.1715  0.2034
  693SOL     OW 2543   0.464   1.311   2.238 -0.0434 -0.0189  0.3401
  693SOL    HW2 2544   0.432   1.287   2.325  0.1922  0.7406  0.6430
  693SOL    HW3 2545   0.414   1.389   2.215  0.1170 -0.0380 -0.0809
  693SOL    MW4 2546   0.453   1.318   2.247  0.0088  0.0788  0.3245
  694SOL     OW 2547   5.578   2.354   6.003 -0.4172 -0.1146 -0.0245
  694SOL    HW2 2548   5.525   2.274   5.993 -0.9429  0.2416 -0.1240
  694SOL    HW3 2549   5.550   2.391   6.086  1.7623 -1.4429  1.4031
  694SOL    MW4 2550   5.567   2.348   6.012 -0.1990 -0.2429  0.1507
  695SOL     OW 2551   3.032   4.147   2.308 -0.1730 -0.4781 -0.1517
  695SOL    HW2 2552   2.972   4.127   2.237 -1.8165 -0.0560  1.0572
  695SOL    HW3 2553   3.011   4.082   2.376 -1.4752  1.5262  1.4916
  695SOL    MW4 2554   3.021   4.136   2.308 -0.5616 -0.1579  0.2247
  696SOL     OW 2555   1.300   0.378   1.117 -0.0583 -0.0062  0.6905
  696SOL    HW2 2556   1.265   0.465   1.137 -0.9771  0.0315 -0.8676
  696SOL    HW3 2557   1.355   0.393   1.039 -3.7464 -1.3746 -2.5074
  696SOL    MW4 2558   1.303   0.392   1.109 -0.6661 -0.1818  0.0630
  697SOL     OW 2559   5.744   0.980   3.443  0.1202  0.2021  0.2961
  697SOL    HW2 2560   5.664   0.946   3.483  0.1135 -0.1507 -0.0171
  697SOL    HW3 2561   5.772   0.911   3.383  0.1494  0.7142 -0.2837
  697SOL    MW4 2562   5.737   0.966   3.440  0.1232  0.2231  0.1783
  698SOL     OW 2563   2.213   4.891   0.671  0.2510 -0.0657  0.9731
  698SOL    HW2 2564   2.118   4.892   0.659  0.3100 -1.0329  0.3230
  698SOL    HW3 2565   2.226   4.867   0.763 -0.1389 -1.6097  0.6564
  698SOL    MW4 2566   2.202   4.888   0.681  0.2073 -0.3970  0.8456
  699SOL     OW 2567   1.305   0.664   0.794  0.1672  0.6998  0.4747
  699SOL    HW2 2568   1.311   0.640   0.887 -1.0173  1.5158  0.7953
  699SOL    HW3 2569   1.245   0.739   0.793 -0.8576 -0.0909 -1.0711
  699SOL    MW4 2570   1.298   0.671   0.806 -0.1243  0.7032  0.3131
  700SOL     OW 2571   0.052   2.426   6.151 -0.3216  0.0152 -0.4714
  700SOL    HW2 2572  -0.019   2.408   6.212  1.5603  0.2401  1.9359
  700SOL    HW3 2573   0.071   2.519   6.163  1.1545 -0.3062 -0.1353
  700SOL    MW4 2574   0.045   2.436   6.160  0.1214  0.0025 -0.1095
  701SOL     OW 2575   5.229   5.512   5.482 -0.0386  0.1030 -0.0594
  701SOL    HW2 2576   5.308   5.482   5.528  1.6849  0.3297 -2.6340
  701SOL    HW3 2577   5.188   5.432   5.450  0.8804  0.0773 -1.2672
  701SOL    MW4 2578   5.234   5.498   5.483  0.3101  0.1295 -0.5584
  702SOL     OW 2579   3.478   0.009   0.154  0.7971 -0.6904 -0.3036
  702SOL    HW2 2580   3.392   0.047   0.133 -0.6211 -1.9718  2.5402
  702SOL    HW3 2581   3.530   0.022   0.075 -2.0979 -0.0942 -2.2940
  702SOL    MW4 2582   3.473   0.016   0.141  0.2280 -0.7808 -0.1910
  703SOL     OW 2583   3.155   4.826   0.741 -0.1134 -0.0367 -0.2580
  703SOL    HW2 2584   3.162   4.738   0.704  2.2478  0.4068 -1.0610
  703SOL    HW3 2585   3.071   4.826   0.787 -2.3237 -1.2529 -3.9261
  703SOL    MW4 2586   3.145   4.814   0.742 -0.0935 -0.1387 -0.8479
  704SOL     OW 2587   2.291   4.659   0.504 -0.2647 -0.3085 -0.0111
  704SOL    HW2 2588   2.314   4.725   0.571 -0.0342 -1.0015  0.6123
  704SOL    HW3 2589   2.375   4.638   0.463 -0.4830  0.5028 -0.8991
  704SOL    MW4 2590   2.305   4.665   0.508 -0.2631 -0.2929 -0.0460
  705SOL     OW 2591   5.004   2.841   0.069 -0.8498 -0.0789  0.2101
  705SOL    HW2 2592   4.955   2.807   0.144 -0.5277  0.4171  0.6561
  705SOL    HW3 2593   5.031   2.929   0.096 -2.4795  0.9342 -1.2722
  705SOL    MW4 2594   5.001   2.848   0.082 -1.0223  0.1202  0.0733
  706SOL     OW 2595   4.395   0.271   0.027 -0.1046  0.7873 -0.0830
  706SOL    HW2 2596   4.304   0.277  -0.003 -0.3411  1.1335  0.6632
  706SOL    HW3 2597   4.394   0.311   0.114  0.8720  1.2852 -0.2834
  706SOL    MW4 2598   4.383   0.277   0.034 -0.0070  0.8986 -0.0110
  707SOL     OW 2599   2.586   2.503   6.389 -0.1534 -0.2640 -0.7329
  707SOL    HW2 2600   2.579   2.508   6.484 -1.4545 -0.5705 -0.7834
  707SOL    HW3 2601   2.609   2.592   6.362 -0.3013 -0.0467 -0.1607
  707SOL    MW4 2602   2.588   2.515   6.398 -0.3445 -0.2758 -0.6640
  708SOL     OW 2603   0.155   5.892   3.780 -0.0096 -0.4106 -0.5629
  708SOL    HW2 2604   0.208   5.860   3.853  1.0500 -0.5668 -1.3764
  708SOL    HW3 2605   0.068   5.856   3.797  0.6675 -2.0958 -0.3997
  708SOL    MW4 2606   0.151   5.883   3.792  0.2196 -0.6536 -0.6487
  709SOL     OW 2607   0.910   2.246   1.683  0.3826  0.0006  0.7358
  709SOL    HW2 2608   0.945   2.201   1.606  0.6354 -0.1217  0.9192
  709SOL    HW3 2609   0.939   2.336   1.673  0.3969 -0.0106  0.6754
  709SOL    MW4 2610   0.919   2.252   1.672  0.4179 -0.0170  0.7521
  710SOL     OW 2611   0.468   4.963   2.363 -0.1030 -0.0200 -0.0915
  710SOL    HW2 2612   0.425   4.980   2.279 -1.9757  0.7742  0.9562
  710SOL    HW3 2613   0.553   5.007   2.356 -0.2655  0.1070 -1.5276
  710SOL    MW4 2614   0.474   4.971   2.351 -0.3715  0.1015 -0.1427
  711SOL     OW 2615   5.511   2.007   0.781 -0.1824  0.6133 -0.0215
  711SOL    HW2 2616   5.568   2.083   0.774 -1.6674  1.7562 -0.1905
  711SOL    HW3 2617   5.422   2.043   0.785 -1.1280 -1.1543 -2.3524
  711SOL    MW4 2618   5.507   2.022   0.781 -0.5031  0.5309 -0.3514
  712SOL     OW 2619   1.113   1.998   1.741  0.4283  0.5524 -0.0288
  712SOL    HW2 2620   1.066   1.916   1.724 -0.3233  1.1595 -0.9621
  712SOL    HW3 2621   1.045   2.064   1.750  1.0833  1.4455 -1.3520
  712SOL    MW4 2622   1.098   1.996   1.740  0.4155  0.7503 -0.3265
  713SOL     OW 2623   5.311   2.718   5.341  0.2306 -0.0651 -0.3400
  713SOL    HW2 2624   5.274   2.804   5.361 -1.0654 -0.5551 -0.5494
  713SOL    HW3 2625   5.245   2.656   5.372  0.2843 -0.9366 -1.8826
  713SOL    MW4 2626   5.297   2.721   5.348  0.0667 -0.2447 -0.5711
  714SOL     OW 2627   2.939   1.282   4.304 -0.2047  0.1801 -0.3209
  714SOL    HW2 2628   2.848   1.295   4.331 -0.6153 -2.1323 -0.3627
  714SOL    HW3 2629   2.952   1.344   4.232 -0.6667  2.8726  1.7168
  714SOL    MW4 2630   2.928   1.292   4.298 -0.3199  0.2303 -0.0575
  715SOL     OW 2631   3.179   5.968   5.131 -0.1836 -0.3240 -0.0611
  715SOL    HW2 2632   3.089   5.941   5.146 -1.3073  1.7712 -2.1914
  715SOL    HW3 2633   3.207   6.007   5.214 -0.5269 -2.5919  1.1864
  715SOL    MW4 2634   3.171   5.970   5.144 -0.3772 -0.3468 -0.1776
  716SOL     OW 2635   1.151   1.065   0.262  0.0824  0.4222 -0.2744
  716SOL    HW2 2636   1.066   1.044   0.223  0.5392  0.0004 -1.0826
  716SOL    HW3 2637   1.144   1.157   0.286 -0.7213  0.3021 -0.0009
  716SOL    MW4 2638   1.139   1.074   0.260  0.0366  0.3507 -0.3450
  717SOL     OW 2639   6.276   4.976   5.366 -0.0296 -0.8885 -0.2172
  717SOL    HW2 2640   6.238   5.023   5.291 -0.8397 -0.7601  0.2621
  717SOL    HW3 2641   6.262   5.035   5.440 -0.7539 -1.7287  0.3325
  717SOL    MW4 2642   6.269   4.990   5.366 -0.2320 -0.9824 -0.0814
  718SOL     OW 2643   0.826   3.316   3.448 -0.5496  0.0367 -0.1116
  718SOL    HW2 2644   0.917   3.308   3.477 -0.4412  0.6003 -0.2882
  718SOL    HW3 2645   0.828   3.295   3.355 -0.6103 -0.0188 -0.1004
  718SOL    MW4 2646   0.838   3.312   3.440 -0.5433  0.1038 -0.1335
  719SOL     OW 2647   4.744   0.418   5.309 -0.1181 -0.4323 -0.0954
  719SOL    HW2 2648   4.730   0.444   5.400 -1.1297 -0.2468 -0.2828
  719SOL    HW3 2649   4.834   0.386   5.306  0.2798  0.5419  0.7400
  719SOL    MW4 2650   4.754   0.417   5.321 -0.1991 -0.2793 -0.0099
  720SOL     OW 2651   3.642   1.370   2.489 -0.2089 -0.2091 -0.3010
  720SOL    HW2 2652   3.618   1.458   2.517 -2.1994 -0.3523 -1.3474
  720SOL    HW3 2653   3.735   1.376   2.466 -0.2286  1.5182 -0.0539
  720SOL    MW4 2654   3.651   1.382   2.490 -0.4742 -0.0001 -0.4065
  721SOL     OW 2655   1.436   1.208   6.433  0.0680 -0.4939  0.2685
  721SOL    HW2 2656   1.395   1.176   6.353 -1.7072  1.4825  0.3091
  721SOL    HW3 2657   1.522   1.240   6.405 -0.8454  0.9435 -1.0560
  721SOL    MW4 2658   1.442   1.208   6.419 -0.2868 -0.0435  0.0991
  722SOL     OW 2659   0.349   4.723   1.876 -0.1525  0.3760 -0.2051
  722SOL    HW2 2660   0.262   4.728   1.914 -0.5191 -0.7757 -0.8271
  722SOL    HW3 2661   0.362   4.629   1.859  0.3548  0.7280 -2.0052
  722SOL    MW4 2662   0.339   4.711   1.879 -0.1339  0.2705 -0.5247
  723SOL     OW 2663   5.948   5.435   5.082 -0.0105  0.4855 -0.1321
  723SOL    HW2 2664   6.034   5.457   5.118  0.2071  1.1788 -1.0664
  723SOL    HW3 2665   5.967   5.396   4.997 -0.6080  0.2043 -0.1413
  723SOL    MW4 2666   5.962   5.433   5.076 -0.0607  0.5399 -0.2566
  724SOL     OW 2667   4.617   4.701   6.025  0.0916  0.0527  0.2692
  724SOL    HW2 2668   4.653   4.672   5.942  0.2102 -2.4483  1.1199
  724SOL    HW3 2669   4.693   4.710   6.083 -0.1862 -0.6216  0.7588
  724SOL    MW4 2670   4.632   4.698   6.022  0.0706 -0.3662  0.4460
  725SOL     OW 2671   1.814   3.747   1.181 -0.7853 -0.2591 -0.2432
  725SOL    HW2 2672   1.882   3.713   1.239 -2.0488  0.6007  1.8233
  725SOL    HW3 2673   1.862   3.791   1.111  0.7860 -1.4007  0.0639
  725SOL    MW4 2674   1.829   3.748   1.179 -0.7447 -0.2963  0.0700
  726SOL     OW 2675   5.168   4.535   0.720  0.7523  0.5145 -0.1627
  726SOL    HW2 2676   5.172   4.511   0.813  2.2612 -0.0319 -0.3388
  726SOL    HW3 2677   5.089   4.492   0.687  1.6917 -1.6721  0.2635
  726SOL    MW4 2678   5.158   4.526   0.728  1.0753  0.1539 -0.1297
  727SOL     OW 2679   3.016   3.823   1.979 -0.3130  0.3923 -0.5407
  727SOL    HW2 2680   3.035   3.739   1.935  0.1351  1.1048 -1.7696
  727SOL    HW3 2681   3.016   3.887   1.908  0.7517  1.6562  0.5456
  727SOL    MW4 2682   3.019   3.820   1.964 -0.1134  0.6530 -0.5595
  728SOL     OW 2683   3.548   5.210   5.691  0.1208 -0.5001  0.5705
  728SOL    HW2 2684   3.566   5.119   5.717 -1.8341 -0.6912  1.5271
  728SOL    HW3 2685   3.524   5.253   5.774  1.9104  1.1557  0.2732
  728SOL    MW4 2686   3.547   5.203   5.706  0.0990 -0.3069  0.6575
  729SOL     OW 2687   5.739   6.089   6.436 -0.0296  0.0109 -0.0806
  729SOL    HW2 2688   5.663   6.038   6.463  1.0803 -0.8307  1.6382
  729SOL    HW3 2689   5.803   6.076   6.506  1.3939  1.3853 -1.0482
  729SOL    MW4 2690   5.737   6.081   6.449  0.3047  0.0812  0.0185
  730SOL     OW 2691   4.072   3.279   4.213  0.0798 -0.0588 -0.4880
  730SOL    HW2 2692   4.014   3.207   4.191 -0.4531 -0.1074  1.0164
  730SOL    HW3 2693   4.117   3.252   4.293  1.4045  0.4236 -1.0311
  730SOL    MW4 2694   4.070   3.266   4.220  0.1843 -0.0016 -0.3612
  731SOL     OW 2695   5.257   3.003   2.350  0.0769 -0.3384  0.4317
  731SOL    HW2 2696   5.260   3.079   2.292  0.3460 -1.4822 -1.1128
  731SOL    HW3 2697   5.265   3.040   2.438 -2.4267  1.6649 -0.0570
  731SOL    MW4 2698   5.258   3.018   2.354 -0.2179 -0.2250  0.1635
  732SOL     OW 2699   4.613   6.292   1.263 -0.3324 -0.3968  0.3014
  732SOL    HW2 2700   4.519   6.300   1.278 -0.4497 -0.4132 -0.4049
  732SOL    HW3 2701   4.651   6.294   1.351 -0.8399  1.4681  0.5273
  732SOL    MW4 2702   4.605   6.294   1.277 -0.4148 -0.1529  0.2380
  733SOL     OW 2703   6.185   3.237   3.480  0.8154 -0.4895  0.0377
  733SOL    HW2 2704   6.200   3.275   3.566 -0.6856  1.5366 -0.5009
  733SOL    HW3 2705   6.272   3.231   3.440  1.2432  1.5876  0.5381
  733SOL    MW4 2706   6.198   3.242   3.486  0.6738  0.0518  0.0326
  734SOL     OW 2707   2.950   6.093   2.728  0.1982 -0.2693 -0.1778
  734SOL    HW2 2708   2.944   6.004   2.764 -2.7055 -0.6843 -1.3556
  734SOL    HW3 2709   3.009   6.085   2.654 -1.2553 -1.6792 -1.2619
  734SOL    MW4 2710   2.957   6.080   2.723 -0.3767 -0.5100 -0.4762
  735SOL     OW 2711   2.047   1.188   4.418 -0.2662  1.0243 -0.4869
  735SOL    HW2 2712   2.054   1.235   4.501 -0.7612 -1.4744  1.0472
  735SOL    HW3 2713   1.959   1.151   4.418  0.4793 -0.8470 -1.0908
  735SOL    MW4 2714   2.037   1.190   4.429 -0.2331  0.4477 -0.3642
  736SOL     OW 2715   6.293   3.265   0.892 -0.2860 -0.6826  0.5683
  736SOL    HW2 2716   6.288   3.333   0.824 -0.6744  1.0342  2.2269
  736SOL    HW3 2717   6.384   3.267   0.921 -0.5294 -0.1441  1.3094
  736SOL    MW4 2718   6.304   3.275   0.887 -0.3694 -0.3850  0.8849
  737SOL     OW 2719   2.260   0.960   5.253 -0.1546 -0.4248  0.0166
  737SOL    HW2 2720   2.230   0.930   5.168 -1.0059  0.0449  0.1428
  737SOL    HW3 2721   2.300   1.045   5.236  1.3661 -1.1345 -0.1842
  737SOL    MW4 2722   2.261   0.967   5.240 -0.0663 -0.4565  0.0067
  738SOL     OW 2723   3.255   0.276   4.544 -0.4100 -0.0607 -0.4057
  738SOL    HW2 2724   3.302   0.206   4.590  1.9397  1.2053 -0.7263
  738SOL    HW3 2725   3.175   0.289   4.596  0.0422 -1.6210  0.7760
  738SOL    MW4 2726   3.251   0.268   4.557 -0.0403 -0.0995 -0.2921
  739SOL     OW 2727   1.145   5.642   2.804 -0.0701  0.0455  0.4608
  739SOL    HW2 2728   1.154   5.553   2.770  2.4981 -0.1213  1.3426
  739SOL    HW3 2729   1.135   5.697   2.726 -0.3065 -0.8698 -0.1722
  739SOL    MW4 2730   1.145   5.637   2.789  0.2375 -0.0972  0.4936
  740SOL     OW 2731   1.875   5.361   0.191  0.1831  0.3097 -1.1539
  740SOL    HW2 2732   1.902   5.271   0.171 -2.6943 -1.0809  0.6407
  740SOL    HW3 2733   1.931   5.387   0.264 -0.9378 -1.2309  0.3110
  740SOL    MW4 2734   1.886   5.352   0.198 -0.3444 -0.0770 -0.7239
  741SOL     OW 2735   0.664   3.296   3.691 -0.6597 -0.5721  0.3497
  741SOL    HW2 2736   0.708   3.284   3.607  0.0899  1.1026  0.4563
  741SOL    HW3 2737   0.653   3.207   3.725  0.0400 -1.2105 -0.9990
  741SOL    MW4 2738   0.668   3.283   3.684 -0.4684 -0.4354  0.1858
  742SOL     OW 2739   6.269   3.876   4.471 -0.2568 -0.4663 -0.0257
  742SOL    HW2 2740   6.195   3.816   4.481 -0.2938 -0.6481 -1.2367
  742SOL    HW3 2741   6.268   3.900   4.379  0.7734  0.0890  0.0961
  742SOL    MW4 2742   6.259   3.871   4.460 -0.1257 -0.4170 -0.1694
  743SOL     OW 2743   5.843   3.734   3.677 -0.3119 -0.0770  0.2189
  743SOL    HW2 2744   5.879   3.717   3.764 -2.1234 -0.5855  0.9173
  743SOL    HW3 2745   5.858   3.653   3.629  0.0976 -0.0323  0.2672
  743SOL    MW4 2746   5.849   3.721   3.682 -0.4969 -0.1382  0.3174
  744SOL     OW 2747   6.138   1.066   6.098 -0.4233 -0.1132  0.5421
  744SOL    HW2 2748   6.156   1.142   6.153  0.5673  0.0325  0.0244
  744SOL    HW3 2749   6.155   0.990   6.154 -1.9126  0.0076  1.2257
  744SOL    MW4 2750   6.142   1.066   6.113 -0.4891 -0.0781  0.5640
  745SOL     OW 2751   2.990   5.818   2.772 -0.3040  0.0415 -0.5822
  745SOL    HW2 2752   3.010   5.744   2.715  1.3626 -0.2436  0.2949
  745SOL    HW3 2753   2.920   5.787   2.828  2.0672 -1.9409  1.5501
  745SOL    MW4 2754   2.984   5.804   2.772  0.2287 -0.2577 -0.1852
  746SOL     OW 2755   6.170   5.468   5.220  0.8914  0.0904 -0.1004
  746SOL    HW2 2756   6.252   5.518   5.229  1.3136 -0.8373  1.5920
  746SOL    HW3 2757   6.198   5.379   5.201  0.1377  0.3504 -2.9841
  746SOL    MW4 2758   6.185   5.463   5.218  0.8476  0.0023 -0.2576
  747SOL     OW 2759   1.421   2.865   1.664 -0.2896  0.5657 -0.4892
  747SOL    HW2 2760   1.439   2.778   1.629  0.9914  0.7944 -0.4424
  747SOL    HW3 2761   1.498   2.916   1.643 -0.8055  1.5563 -0.0483
  747SOL    MW4 2762   1.433   2.860   1.657 -0.1887  0.7266 -0.4249
  748SOL     OW 2763   5.275   3.144   3.853 -0.3073 -0.5285 -0.6531
  748SOL    HW2 2764   5.343   3.079   3.870  0.8185  0.5624 -0.8305
  748SOL    HW3 2765   5.207   3.126   3.918 -0.5054 -2.5179 -1.3610
  748SOL    MW4 2766   5.275   3.133   3.864 -0.1849 -0.6471 -0.7699
  749SOL     OW 2767   5.079   5.167   3.610  0.2457 -0.3829 -0.3370
  749SOL    HW2 2768   5.092   5.164   3.515  0.6375  0.2038 -0.3040
  749SOL    HW3 2769   4.984   5.164   3.620  0.0483  1.9743 -0.8737
  749SOL    MW4 2770   5.068   5.166   3.599  0.2713  0.0055 -0.4035
  750SOL     OW 2771   4.775   4.073   2.480 -0.0888 -0.0350  0.2678
  750SOL    HW2 2772   4.733   4.030   2.405  0.0278 -1.1451  0.8233
  750SOL    HW3 2773   4.822   4.147   2.442 -2.3013  1.1171 -0.4319
  750SOL    MW4 2774   4.776   4.077   2.465 -0.3654 -0.0295  0.2488
  751SOL     OW 2775   4.965   0.868   5.834 -0.3006 -0.3214  0.4691
  751SOL    HW2 2776   5.007   0.954   5.830  1.1152 -1.0463 -0.9396
  751SOL    HW3 2777   4.879   0.886   5.873  0.5214  1.4942  1.5988
  751SOL    MW4 2778   4.959   0.882   5.839 -0.0054 -0.1775  0.4323
  752SOL     OW 2779   0.258   5.022   1.280 -0.1983 -0.4221 -0.4145
  752SOL    HW2 2780   0.353   5.036   1.271 -0.3806  0.8106 -0.5439
  752SOL    HW3 2781   0.240   5.046   1.371 -1.0032  3.4441 -1.4239
  752SOL    MW4 2782   0.268   5.027   1.291 -0.3286  0.2506 -0.5647
  753SOL     OW 2783   0.655   5.351   0.282 -0.3129 -0.7754  0.1041
  753SOL    HW2 2784   0.725   5.391   0.333 -1.1008  0.8617 -0.0133
  753SOL    HW3 2785   0.579   5.409   0.297 -2.1499 -3.3495  1.5663
  753SOL    MW4 2786   0.654   5.364   0.291 -0.6592 -0.8990  0.2815
  754SOL     OW 2787   2.876   5.528   4.428 -0.2717 -0.4366 -0.3027
  754SOL    HW2 2788   2.790   5.496   4.457 -0.0021  0.2017  1.2730
  754SOL    HW3 2789   2.938   5.465   4.465 -0.0098 -0.5670 -0.9560
  754SOL    MW4 2790   2.873   5.515   4.436 -0.2016 -0.3696 -0.1810
  755SOL     OW 2791   5.500   2.294   4.763  0.1905 -0.2331 -0.3776
  755SOL    HW2 2792   5.412   2.292   4.724  0.8457  0.2147 -1.9589
  755SOL    HW3 2793   5.559   2.307   4.689  1.3164  4.0853  0.9617
  755SOL    MW4 2794   5.496   2.295   4.748  0.4255  0.3957 -0.4095
  756SOL     OW 2795   5.883   1.702   4.184 -0.6607 -0.0079  0.5096
  756SOL    HW2 2796   5.827   1.629   4.210  1.1046 -1.6168  0.0886
  756SOL    HW3 2797   5.957   1.660   4.139  0.2358  2.0867 -0.0921
  756SOL    MW4 2798   5.885   1.687   4.182 -0.3095  0.0562  0.3747
  757SOL     OW 2799   4.538   5.145   4.157 -0.4819  0.3221 -0.2823
  757SOL    HW2 2800   4.490   5.228   4.163 -0.2170  0.4630 -0.0588
  757SOL    HW3 2801   4.614   5.158   4.215 -0.2328  0.0674 -0.5517
  757SOL    MW4 2802   4.542   5.158   4.166 -0.4141  0.3071 -0.2883
  758SOL     OW 2803   3.947   6.074   4.867  0.3723  0.5359 -0.3203
  758SOL    HW2 2804   3.920   6.027   4.945  1.4724 -0.8642 -0.7534
  758SOL    HW3 2805   3.984   6.157   4.900 -1.2969  1.0014  0.4582
  758SOL    MW4 2806   3.949   6.079   4.882  0.2972  0.4126 -0.2748
  759SOL     OW 2807   2.732   2.413   0.436  0.1994 -0.6411  0.3094
  759SOL    HW2 2808   2.704   2.498   0.470  0.0466 -0.8363  0.6776
  759SOL    HW3 2809   2.658   2.385   0.381  0.6308 -0.1230 -0.5650
  759SOL    MW4 2810   2.718   2.421   0.433  0.2362 -0.5985  0.2426
  760SOL     OW 2811   4.902   2.887   4.034  0.4494  0.4465  0.1087
  760SOL    HW2 2812   4.833   2.936   4.078  1.5752 -0.5531  3.2447
  760SOL    HW3 2813   4.857   2.812   3.994 -0.6758  1.6296 -0.9005
  760SOL    MW4 2814   4.887   2.883   4.034  0.4495  0.4707  0.3893
  761SOL     OW 2815   3.154   0.610   4.575  0.4496 -0.2800 -0.3383
  761SOL    HW2 2816   3.115   0.663   4.645  2.3533  1.6903 -0.6562
  761SOL    HW3 2817   3.224   0.561   4.617  0.1361 -0.8440 -0.4631
  761SOL    MW4 2818   3.158   0.611   4.589  0.6594 -0.0945 -0.3967
  762SOL     OW 2819   3.317   5.901   5.778  0.0722  0.4135  0.4453
  762SOL    HW2 2820   3.233   5.860   5.757  1.3041 -2.0187 -0.1015
  762SOL    HW3 2821   3.331   5.882   5.871  0.4520 -0.1215  0.2892
  762SOL    MW4 2822   3.308   5.893   5.787  0.2848  0.0220  0.3526
  763SOL     OW 2823   4.771   2.202   2.101  0.0574 -0.8949  0.3036
  763SOL    HW2 2824   4.755   2.134   2.036 -0.9773 -0.8957  0.5440
  763SOL    HW3 2825   4.713   2.274   2.076  1.3856  0.0697 -0.1596
  763SOL    MW4 2826   4.761   2.203   2.089  0.0961 -0.7678  0.2742
  764SOL     OW 2827   2.443   2.241   2.661 -0.0415 -0.1614  0.2612
  764SOL    HW2 2828   2.533   2.211   2.669  0.1068  0.2954  0.3239
  764SOL    HW3 2829   2.441   2.325   2.708 -0.1003  0.6617 -1.1683
  764SOL    MW4 2830   2.454   2.248   2.668 -0.0297  0.0075  0.0809
  765SOL     OW 2831   4.456   2.578   6.375 -0.9411  0.0535  0.3973
  765SOL    HW2 2832   4.514   2.523   6.323  0.8361  1.5230  0.7587
  765SOL    HW3 2833   4.424   2.519   6.444  0.3391 -0.7198  0.3596
  765SOL    MW4 2834   4.459   2.563   6.377 -0.5377  0.1453  0.4400
  766SOL     OW 2835   4.957   3.708   6.158 -0.0594  0.2502 -0.3017
  766SOL    HW2 2836   5.021   3.739   6.223 -1.0129  1.5913  0.0344
  766SOL    HW3 2837   5.005   3.709   6.075  1.5870 -2.7365  0.4697
  766SOL    MW4 2838   4.972   3.712   6.156  0.0320  0.0331 -0.1556
  767SOL     OW 2839   2.780   4.702   1.901  0.4884 -0.2016  0.3593
  767SOL    HW2 2840   2.728   4.692   1.980 -0.5468  0.3698 -0.2176
  767SOL    HW3 2841   2.745   4.781   1.859  0.3099 -1.0638 -1.1791
  767SOL    MW4 2842   2.769   4.711   1.906  0.3283 -0.2400  0.0802
  768SOL     OW 2843   4.564   5.082   5.884 -0.1471  0.1690  0.2653
  768SOL    HW2 2844   4.486   5.082   5.828 -1.0892  0.1032  1.5433
  768SOL    HW3 2845   4.554   5.160   5.939  0.2129 -0.3601  1.0882
  768SOL    MW4 2846   4.552   5.092   5.884 -0.2239  0.0905  0.5425
  769SOL     OW 2847   1.404   1.356   4.470 -0.1142  0.2936 -0.1734
  769SOL    HW2 2848   1.497   1.338   4.460  0.1345  1.8614 -0.9500
  769SOL    HW3 2849   1.361   1.284   4.424  0.6592 -0.9609  1.0046
  769SOL    MW4 2850   1.411   1.344   4.462  0.0206  0.3350 -0.1205
  770SOL     OW 2851   3.416   3.793   3.583  0.2434  0.2247 -0.1517
  770SOL    HW2 2852   3.389   3.792   3.675  0.9238  1.3168  0.0797
  770SOL    HW3 2853   3.508   3.820   3.585  0.2983  0.1653 -1.1447
  770SOL    MW4 2854   3.425   3.797   3.595  0.3404  0.3609 -0.2522
  771SOL     OW 2855   2.711   0.928   0.352  0.3123  0.0906 -0.3922
  771SOL    HW2 2856   2.804   0.942   0.370  0.7097 -2.3030 -0.3168
  771SOL    HW3 2857   2.675   0.893   0.434 -0.5216  0.3208 -0.6412
  771SOL    MW4 2858   2.718   0.925   0.365  0.2547 -0.1948 -0.4151
  772SOL     OW 2859   3.559   4.634   6.169  0.3295 -0.2050 -0.0627
  772SOL    HW2 2860   3.586   4.698   6.234 -0.4309 -0.3920  0.4483
  772SOL    HW3 2861   3.641   4.600   6.133  0.7513  0.1385  0.5652
  772SOL    MW4 2862   3.573   4.638   6.173  0.2848 -0.1844  0.0876
  773SOL     OW 2863   3.045   4.017   1.081  0.5659 -0.3572  0.1913
  773SOL    HW2 2864   3.072   4.014   0.989  0.0813 -0.1530  0.0421
  773SOL    HW3 2865   2.987   3.941   1.091  1.1728 -0.7862  0.5071
  773SOL    MW4 2866   3.041   4.006   1.070  0.5820 -0.3869  0.2133
  774SOL     OW 2867   6.086   5.650   5.451  0.3091 -0.4687 -0.1660
  774SOL    HW2 2868   6.105   5.579   5.391 -1.1085 -0.3855 -0.7611
  774SOL    HW3 2869   6.031   5.710   5.400  0.1888  0.2644  0.8032
  774SOL    MW4 2870   6.081   5.649   5.436  0.1062 -0.3610 -0.1166
  775SOL     OW 2871   3.144   3.504   5.565  0.1161 -0.0169  0.0040
  775SOL    HW2 2872   3.171   3.415   5.543  0.5666  0.2163 -0.4077
  775SOL    HW3 2873   3.061   3.516   5.517 -1.4818 -1.1850  2.2871
  775SOL    MW4 2874   3.136   3.494   5.556 -0.0353 -0.1403  0.2509
  776SOL     OW 2875   5.161   5.932   5.882 -0.1892 -0.1906 -0.3576
  776SOL    HW2 2876   5.131   5.852   5.840  0.9030 -0.7798 -0.0380
  776SOL    HW3 2877   5.093   5.952   5.947  0.9303 -2.5888  1.7414
  776SOL    MW4 2878   5.148   5.924   5.885  0.1026 -0.5847 -0.0385
  777SOL     OW 2879   0.408   3.095   4.007  0.4313  0.6994 -0.2895
  777SOL    HW2 2880   0.340   3.030   3.992 -0.2609  1.4350 -0.4007
  777SOL    HW3 2881   0.469   3.053   4.067 -1.8158  1.1607  2.4880
  777SOL    MW4 2882   0.407   3.081   4.013  0.0435  0.8573  0.0623
  778SOL     OW 2883   1.481   2.953   0.946  0.2119 -0.4822  0.4222
  778SOL    HW2 2884   1.398   2.907   0.938  0.1658 -0.4960  0.9281
  778SOL    HW3 2885   1.542   2.903   0.892 -0.3237  0.0835 -0.7293
  778SOL    MW4 2886   1.478   2.941   0.938  0.1351 -0.4093  0.3370
  779SOL     OW 2887   5.129   2.798   4.603  0.4915 -0.5802 -0.0721
  779SOL    HW2 2888   5.074   2.799   4.525 -1.4690 -1.5540  1.2171
  779SOL    HW3 2889   5.198   2.735   4.584 -0.2715 -1.2047 -0.8213
  779SOL    MW4 2890   5.131   2.790   4.590  0.1321 -0.7911 -0.0009
  780SOL     OW 2891   3.602   3.822   0.994 -0.4058 -0.2297 -0.1338
  780SOL    HW2 2892   3.597   3.767   1.073 -0.4636 -2.1805 -1.4313
  780SOL    HW3 2893   3.694   3.851   0.992 -0.7264  1.0959  1.3812
  780SOL    MW4 2894   3.614   3.819   1.004 -0.4558 -0.3122 -0.1051
  781SOL     OW 2895   3.269   3.234   2.847 -0.1585  0.3623  0.0478
  781SOL    HW2 2896   3.323   3.225   2.926 -0.5120 -1.0611  0.1554
  781SOL    HW3 2897   3.180   3.247   2.881 -0.7499 -2.7625  0.0058
  781SOL    MW4 2898   3.265   3.234   2.862 -0.2832 -0.2377  0.0565
  782SOL     OW 2899   1.424   2.628   4.015 -0.3998 -0.0923  0.5756
  782SOL    HW2 2900   1.480   2.661   4.086 -0.6667  1.9088 -0.0827
  782SOL    HW3 2901   1.358   2.695   4.003 -0.9652 -0.8647 -0.9058
  782SOL    MW4 2902   1.423   2.641   4.023 -0.5096  0.0698  0.2933
  783SOL     OW 2903   2.548   6.082   4.517  0.0264  0.4001 -0.0529
  783SOL    HW2 2904   2.478   6.094   4.453 -0.0605  1.8831  0.2753
  783SOL    HW3 2905   2.560   5.988   4.523 -0.8788  0.1892 -1.2635
  783SOL    MW4 2906   2.540   6.071   4.509 -0.1045  0.5680 -0.1693
  784SOL     OW 2907   2.190   4.595   3.810  0.0660  0.3483  0.2687
  784SOL    HW2 2908   2.129   4.569   3.742 -0.9520 -2.6298  2.1485
  784SOL    HW3 2909   2.198   4.518   3.866  1.4667  2.3635  3.0718
  784SOL    MW4 2910   2.183   4.582   3.808  0.1165  0.2213  0.8865
  785SOL     OW 2911   0.810   5.414   1.282  0.4919 -0.2110  0.4653
  785SOL    HW2 2912   0.854   5.330   1.285  0.6157 -0.1499  0.3655
  785SOL    HW3 2913   0.872   5.473   1.238 -0.1524 -0.4118 -0.7554
  785SOL    MW4 2914   0.824   5.411   1.277  0.4232 -0.2295  0.2911
  786SOL     OW 2915   0.967   0.433   4.305 -0.3638  0.0573  0.8492
  786SOL    HW2 2916   0.974   0.338   4.313 -1.8433 -0.3096 -1.3874
  786SOL    HW3 2917   0.878   0.453   4.335 -1.0295  0.3314 -1.1682
  786SOL    MW4 2918   0.956   0.423   4.310 -0.6468  0.0451  0.2879
  787SOL     OW 2919   5.519   3.081   6.390  0.1167  0.1300 -0.3092
  787SOL    HW2 2920   5.615   3.079   6.383  0.1395 -0.5397  0.0922
  787SOL    HW3 2921   5.490   3.119   6.308  0.6643 -1.2826 -1.2001
  787SOL    MW4 2922   5.528   3.085   6.378  0.1920 -0.1448 -0.3738
  788SOL     OW 2923   5.715   0.025   2.707  0.1673 -0.0274  0.5265
  788SOL    HW2 2924   5.794   0.031   2.761 -0.3403  1.2147  1.1826
  788SOL    HW3 2925   5.723   0.098   2.645  0.6088 -1.2728 -0.9410
  788SOL    MW4 2926   5.727   0.036   2.706  0.1586 -0.0278  0.4195
  789SOL     OW 2927   3.676   2.397   4.549 -0.5640  0.1829  0.4475
  789SOL    HW2 2928   3.602   2.451   4.524 -0.8403 -1.2243 -2.0537
  789SOL    HW3 2929   3.645   2.307   4.538  1.0220 -0.4592  0.9037
  789SOL    MW4 2930   3.662   2.392   4.544 -0.3912 -0.0875  0.1777
  790SOL     OW 2931   5.996   2.443   4.035  0.2569  0.4366 -0.5365
  790SOL    HW2 2932   5.913   2.449   3.987 -0.6683  0.0815  0.9726
  790SOL    HW3 2933   6.063   2.444   3.966 -0.9909  0.5552 -1.7979
  790SOL    MW4 2934   5.994   2.444   4.019 -0.0298  0.4054 -0.5038
  791SOL     OW 2935   1.098   3.835   3.945 -0.5902 -0.5196 -0.5804
  791SOL    HW2 2936   1.022   3.879   3.982 -0.1452  0.8107 -1.1941
  791SOL    HW3 2937   1.155   3.906   3.914  1.5139 -1.3907  1.0167
  791SOL    MW4 2938   1.096   3.850   3.946 -0.2539 -0.4590 -0.4506
  792SOL     OW 2939   5.636   3.463   0.181 -0.3043 -0.0092 -0.4073
  792SOL    HW2 2940   5.711   3.427   0.134  1.2943  2.0474  0.4261
  792SOL    HW3 2941   5.667   3.474   0.271 -1.8333  0.2533  0.1162
  792SOL    MW4 2942   5.650   3.460   0.187 -0.2951  0.2968 -0.2283
  793SOL     OW 2943   3.080   3.106   0.646 -0.4621  0.1198 -0.4285
  793SOL    HW2 2944   3.087   3.201   0.653  0.7806  0.0701 -0.7542
  793SOL    HW3 2945   3.005   3.092   0.587 -2.3660  0.7967  1.7162
  793SOL    MW4 2946   3.071   3.116   0.639 -0.5493  0.2025 -0.1885
  794SOL     OW 2947   1.209   0.856   2.732  0.7386 -0.5975  0.3019
  794SOL    HW2 2948   1.295   0.885   2.763  0.8282 -0.3345 -0.1949
  794SOL    HW3 2949   1.185   0.920   2.665  1.0422 -1.7873 -0.9803
  794SOL    MW4 2950   1.217   0.868   2.727  0.7905 -0.7198  0.0672
  795SOL     OW 2951   1.787   5.463   3.434  0.2791  0.1680  0.1391
  795SOL    HW2 2952   1.738   5.467   3.516 -1.9967  2.3060 -1.1758
  795SOL    HW3 2953   1.745   5.393   3.384  0.9922 -0.4461  0.3883
  795SOL    MW4 2954   1.775   5.454   3.438  0.0729  0.3691 -0.0015
  796SOL     OW 2955   1.461   2.841   3.149 -0.3562  0.4271 -0.3153
  796SOL    HW2 2956   1.527   2.791   3.100 -0.5334  0.0055 -0.1267
  796SOL    HW3 2957   1.384   2.784   3.151 -0.6453  0.8149 -0.3170
  796SOL    MW4 2958   1.460   2.827   3.143 -0.4177  0.4226 -0.2906
  797SOL     OW 2959   4.246   3.972   5.800 -0.0678  0.3982 -0.2974
  797SOL    HW2 2960   4.315   3.994   5.862 -0.3133 -0.7448  0.4075
  797SOL    HW3 2961   4.198   4.054   5.788  0.2907  0.7556  0.6255
  797SOL    MW4 2962   4.249   3.986   5.807 -0.0529  0.2945 -0.0826
  798SOL     OW 2963   6.261   6.136   4.480 -0.9462  0.1138  0.0470
  798SOL    HW2 2964   6.305   6.217   4.455  0.4082 -0.1753  1.3559
  798SOL    HW3 2965   6.210   6.112   4.402  0.5031  0.9596 -1.2296
  798SOL    MW4 2966   6.260   6.143   4.466 -0.5763  0.1872  0.0513
  799SOL     OW 2967   6.047   0.248   4.811  0.1805  0.3219  0.3112
  799SOL    HW2 2968   6.138   0.265   4.788  0.4104  0.4710  1.2772
  799SOL    HW3 2969   6.052   0.183   4.881 -0.4572  0.3061  0.3471
  799SOL    MW4 2970   6.060   0.242   4.817  0.1267  0.3395  0.4434
  800SOL     OW 2971   2.305   4.248   0.948 -0.0684 -0.1815 -0.1645
  800SOL    HW2 2972   2.275   4.283   0.864 -2.7030  0.6514  1.0345
  800SOL    HW3 2973   2.322   4.325   1.002  1.4193 -0.7093  0.1862
  800SOL    MW4 2974   2.303   4.262   0.944 -0.2197 -0.1412  0.0400
  801SOL     OW 2975   5.926   0.888   4.882  0.0736  0.2036 -0.3049
  801SOL    HW2 2976   5.944   0.966   4.829 -0.5829  0.2125 -0.5182
  801SOL    HW3 2977   5.910   0.921   4.970  0.1212  0.2816 -0.3260
  801SOL    MW4 2978   5.926   0.902   4.886 -0.0068  0.2151 -0.3358
  802SOL     OW 2979   2.587   3.858   5.848  0.0183  0.0876 -0.0814
  802SOL    HW2 2980   2.639   3.807   5.910  0.7991 -1.1812 -1.6996
  802SOL    HW3 2981   2.646   3.927   5.817 -0.0020  0.0178 -0.2744
  802SOL    MW4 2982   2.602   3.861   5.852  0.1186 -0.0890 -0.3204
  803SOL     OW 2983   5.486   5.677   1.485 -0.3928 -0.0636  0.3227
  803SOL    HW2 2984   5.531   5.594   1.498 -1.8408 -0.7560  1.1785
  803SOL    HW3 2985   5.421   5.659   1.417 -1.1314  0.1717  0.9495
  803SOL    MW4 2986   5.483   5.664   1.478 -0.6813 -0.1239  0.5183
  804SOL     OW 2987   0.839   5.601   4.087 -0.2844  0.1164  0.5423
  804SOL    HW2 2988   0.870   5.691   4.078 -1.5995  0.6602  1.1050
  804SOL    HW3 2989   0.918   5.548   4.080  0.6342  1.3607  0.9522
  804SOL    MW4 2990   0.854   5.606   4.085 -0.3367  0.3523  0.6706
  805SOL     OW 2991   5.704   5.732   2.450 -0.1977 -0.4101 -0.0552
  805SOL    HW2 2992   5.690   5.826   2.460 -1.3602 -0.6845  1.0969
  805SOL    HW3 2993   5.682   5.695   2.535  2.1696 -1.5530  0.1394
  805SOL    MW4 2994   5.699   5.740   2.462 -0.0387 -0.5971  0.1225
  806SOL     OW 2995   3.173   2.855   5.918  0.0253 -0.3342 -0.5340
  806SOL    HW2 2996   3.162   2.893   5.831 -0.0961  1.6255  0.2784
  806SOL    HW3 2997   3.166   2.760   5.904 -0.1937 -0.0647 -2.6038
  806SOL    MW4 2998   3.171   2.847   5.905 -0.0196 -0.0401 -0.6999
  807SOL     OW 2999   2.187   6.348   4.445 -0.1679  0.2034 -0.4972
  807SOL    HW2 3000   2.230   6.264   4.428  1.7218  0.4309  2.4242
  807SOL    HW3 3001   2.223   6.407   4.380 -0.9678 -1.0275 -2.1230
  807SOL    MW4 3002   2.197   6.345   4.434 -0.0241  0.0710 -0.3263
  808SOL     OW 3003   2.571   0.828   4.268 -0.0493  0.6506 -0.2751
  808SOL    HW2 3004   2.480   0.808   4.246  0.2889 -0.1699 -0.9852
  808SOL    HW3 3005   2.578   0.923   4.260  0.0082  0.4550 -3.7240
  808SOL    MW4 3006   2.560   0.838   4.264  0.0029  0.5166 -0.8238
  809SOL     OW 3007   1.181   5.571   0.349  0.0752 -0.0436  0.0289
  809SOL    HW2 3008   1.133   5.581   0.267  1.9092  0.8043 -0.9871
  809SOL    HW3 3009   1.258   5.625   0.339  1.2275 -1.2854  1.6333
  809SOL    MW4 3010   1.185   5.579   0.337  0.4692 -0.0956  0.1065
  810SOL     OW 3011   4.180   6.274   0.687 -0.0339 -0.4183  0.4484
  810SOL    HW2 3012   4.142   6.318   0.611  1.3491 -3.4697 -2.2736
  810SOL    HW3 3013   4.256   6.328   0.711 -0.6102  0.7001 -0.1661
  810SOL    MW4 3014   4.185   6.287   0.680  0.0726 -0.6733  0.0082
  811SOL     OW 3015   3.711   3.663   5.012 -0.2225 -0.8304 -0.2294
  811SOL    HW2 3016   3.638   3.630   5.065  0.6512 -0.2059  1.4401
  811SOL    HW3 3017   3.695   3.757   5.006  0.7757 -0.5686  0.7662
  811SOL    MW4 3018   3.699   3.671   5.018  0.0245 -0.7135  0.1222
  812SOL     OW 3019   0.706   0.588   6.047 -0.3691 -0.1541 -0.3892
  812SOL    HW2 3020   0.718   0.498   6.018  2.1267  0.4527 -1.5479
  812SOL    HW3 3021   0.711   0.640   5.967 -0.1207  1.1331  0.4289
  812SOL    MW4 3022   0.708   0.583   6.033 -0.0071  0.0958 -0.4341
  813SOL     OW 3023   5.697   6.088   5.133 -0.6048  0.4880  0.0240
  813SOL    HW2 3024   5.670   6.049   5.216  0.1160  2.1351  1.0777
  813SOL    HW3 3025   5.755   6.160   5.158  0.7951  0.1267 -1.9633
  813SOL    MW4 3026   5.701   6.092   5.147 -0.3250  0.6577 -0.0992
  814SOL     OW 3027   5.969   1.766   3.100  0.0937  0.1129 -0.0024
  814SOL    HW2 3028   5.975   1.736   3.009  1.0167  0.8253 -0.1956
  814SOL    HW3 3029   5.882   1.803   3.108  0.5046  1.4010 -1.0508
  814SOL    MW4 3030   5.959   1.767   3.089  0.2697  0.3769 -0.1662
  815SOL     OW 3031   6.388   4.482   5.350  0.0819 -0.4348  0.6005
  815SOL    HW2 3032   6.436   4.422   5.293 -0.9769 -0.9122  0.1906
  815SOL    HW3 3033   6.375   4.561   5.297  0.2101 -0.3878  0.6376
  815SOL    MW4 3034   6.392   4.485   5.336 -0.0408 -0.4916  0.5513
  816SOL     OW 3035   6.002   5.687   1.623  0.5378  0.5946 -0.4310
  816SOL    HW2 3036   6.057   5.722   1.553  2.0194 -2.0635 -0.7074
  816SOL    HW3 3037   5.931   5.642   1.577 -1.1293  2.6834 -0.0819
  816SOL    MW4 3038   6.000   5.686   1.608  0.5133  0.5195 -0.4214
  817SOL     OW 3039   1.179   1.480   5.276 -0.2026 -0.0478 -0.5670
  817SOL    HW2 3040   1.214   1.536   5.345 -1.5038 -1.1558  1.0818
  817SOL    HW3 3041   1.086   1.472   5.296 -0.1449 -2.4689 -0.9416
  817SOL    MW4 3042   1.172   1.486   5.287 -0.3666 -0.5134 -0.3989
  818SOL     OW 3043   1.533   1.494   4.156  0.0512 -0.2644 -0.3231
  818SOL    HW2 3044   1.558   1.409   4.192  1.1536  0.6836  1.2420
  818SOL    HW3 3045   1.505   1.474   4.066  0.0462 -2.2945  0.0781
  818SOL    MW4 3046   1.533   1.480   4.149  0.1960 -0.4071 -0.0636
  819SOL     OW 3047   1.804   6.171   5.863  0.0403 -0.0793 -0.4173
  819SOL    HW2 3048   1.781   6.226   5.787  0.9581  0.3484 -0.4137
  819SOL    HW3 3049   1.753   6.207   5.935 -0.5556 -0.2423 -0.7578
  819SOL    MW4 3050   1.794   6.183   5.862  0.0828 -0.0444 -0.4618
  820SOL     OW 3051   4.834  -0.000   6.304 -0.3209  0.3593  0.4767
  820SOL    HW2 3052   4.776   0.066   6.341 -0.8486  0.3371 -0.3061
  820SOL    HW3 3053   4.903   0.050   6.260 -0.4289  0.3828  0.3362
  820SOL    MW4 3054   4.835   0.015   6.303 -0.4048  0.3594  0.3549
  821SOL     OW 3055   4.080   3.864   4.088 -0.5689  0.2323 -0.3704
  821SOL    HW2 3056   4.081   3.948   4.043 -0.6852  0.7043  0.4912
  821SOL    HW3 3057   4.147   3.873   4.156  0.8863 -1.0960 -1.5329
  821SOL    MW4 3058   4.089   3.876   4.091 -0.3923  0.1193 -0.4101
  822SOL     OW 3059   1.193   2.277   1.399 -0.4004 -0.2226  0.5156
  822SOL    HW2 3060   1.226   2.210   1.460  0.4340  0.5836  0.9777
  822SOL    HW3 3061   1.105   2.247   1.376  0.7267 -2.6659 -1.0584
  822SOL    MW4 3062   1.186   2.264   1.404 -0.1416 -0.4386  0.3689
  823SOL     OW 3063   3.656   1.513   3.171  0.4833 -0.3608 -0.2009
  823SOL    HW2 3064   3.603   1.510   3.091  1.6189 -1.0150 -0.9610
  823SOL    HW3 3065   3.614   1.451   3.230 -0.9573  0.8670  0.1221
  823SOL    MW4 3066   3.644   1.505   3.168  0.4431 -0.2851 -0.2586
  824SOL     OW 3067   2.484   1.985   3.552 -1.0914  0.8689 -0.1016
  824SOL    HW2 3068   2.507   2.032   3.471  0.1330  0.7435  0.1426
  824SOL    HW3 3069   2.546   2.018   3.617 -0.2158 -1.0070  0.0873
  824SOL    MW4 3070   2.495   1.996   3.550 -0.8143  0.6048 -0.0444
  825SOL     OW 3071   5.316   6.121   6.017 -0.0262 -0.0428  0.3353
  825SOL    HW2 3072   5.239   6.179   6.019 -0.2620 -0.3027 -0.8420
  825SOL    HW3 3073   5.286   6.044   5.970  0.4796 -0.8739  1.3329
  825SOL    MW4 3074   5.302   6.119   6.011  0.0094 -0.1867  0.3116
  826SOL     OW 3075   0.221   4.610   2.236  0.1167 -0.7408  0.0558
  826SOL    HW2 3076   0.301   4.653   2.265 -0.1043 -0.1356 -0.2082
  826SOL    HW3 3077   0.222   4.524   2.280  0.2664 -0.2345  1.0781
  826SOL    MW4 3078   0.231   4.604   2.246  0.1073 -0.5942  0.1559
  827SOL     OW 3079   1.663   0.086   4.746  0.0622 -0.0170 -0.3664
  827SOL    HW2 3080   1.704   0.130   4.671  1.3199 -0.3669  0.0844
  827SOL    HW3 3081   1.623   0.157   4.797  0.9999  0.4713 -0.2878
  827SOL    MW4 3082   1.663   0.101   4.743  0.3519  0.0012 -0.2966
  828SOL     OW 3083   2.400   6.079   3.749 -0.5866 -0.5263 -0.0130
  828SOL    HW2 3084   2.483   6.073   3.796 -0.2865 -1.3408 -0.6142
  828SOL    HW3 3085   2.347   6.139   3.801  0.5914  0.4990  0.0506
  828SOL    MW4 3086   2.404   6.086   3.762 -0.3916 -0.4985 -0.0839
  829SOL     OW 3087   2.914   1.227   4.610  1.0038  0.3393 -0.4063
  829SOL    HW2 3088   2.854   1.174   4.557 -1.1602  1.6392  0.6243
  829SOL    HW3 3089   2.897   1.200   4.700 -1.8536  4.1283  0.4327
  829SOL    MW4 3090   2.904   1.216   4.614  0.3413  1.0107 -0.1596
  830SOL     OW 3091   0.092   3.638   3.402 -0.0477  0.0451 -0.2411
  830SOL    HW2 3092   0.156   3.600   3.463  0.6183  0.3367 -0.7405
  830SOL    HW3 3093   0.069   3.567   3.343 -0.7479 -0.2577  0.3825
  830SOL    MW4 3094   0.098   3.624   3.403 -0.0522  0.0436 -0.2247
  831SOL     OW 3095   5.582   0.690   0.866  0.0030  0.0340 -0.1430
  831SOL    HW2 3096   5.583   0.772   0.915  1.5210  0.2494 -0.4897
  831SOL    HW3 3097   5.490   0.669   0.856 -0.4016  1.5705  0.1630
  831SOL    MW4 3098   5.570   0.698   0.871  0.1499  0.2652 -0.1484
  832SOL     OW 3099   1.648   3.238   6.146  0.0116  0.2275  0.0297
  832SOL    HW2 3100   1.705   3.289   6.089 -1.2654  1.2940 -0.3532
  832SOL    HW3 3101   1.560   3.273   6.130 -0.7143 -1.1194  0.8468
  832SOL    MW4 3102   1.644   3.250   6.137 -0.2526  0.1905  0.0870
  833SOL     OW 3103   2.552   1.941   2.516  0.0852  0.4038 -0.0824
  833SOL    HW2 3104   2.538   1.872   2.581 -2.7002 -0.2044 -1.1867
  833SOL    HW3 3105   2.611   1.902   2.452  0.7577  0.0757  0.7201
  833SOL    MW4 3106   2.558   1.927   2.516 -0.1936  0.2803 -0.1222
  834SOL     OW 3107   5.585   4.734   1.592 -0.5967  0.3598 -1.0166
  834SOL    HW2 3108   5.616   4.743   1.502  1.7015 -2.7320 -0.7136
  834SOL    HW3 3109   5.537   4.652   1.593 -0.5478  0.3123  0.5589
  834SOL    MW4 3110   5.583   4.725   1.580 -0.2870 -0.0544 -0.7688
  835SOL     OW 3111   5.620   0.892   4.988  0.0894  0.2998 -0.0600
  835SOL    HW2 3112   5.683   0.836   5.033 -0.4541 -1.5051 -1.4449
  835SOL    HW3 3113   5.645   0.981   5.014  2.2321 -0.4368  0.6431
  835SOL    MW4 3114   5.632   0.897   4.997  0.3004 -0.0356 -0.1499
  836SOL     OW 3115   4.450   0.934   3.230  0.3017  0.0313 -0.1691
  836SOL    HW2 3116   4.438   0.954   3.137 -0.3462  1.6852  0.2353
  836SOL    HW3 3117   4.515   0.998   3.260 -0.0503  0.0069  0.6755
  836SOL    MW4 3118   4.457   0.945   3.221  0.1698  0.2463 -0.0043
  837SOL     OW 3119   5.233   3.186   5.784 -0.1595 -0.4015  0.1969
  837SOL    HW2 3120   5.206   3.108   5.832  2.2193 -0.9066  0.8312
  837SOL    HW3 3121   5.290   3.153   5.715 -0.2295  0.6774 -0.3970
  837SOL    MW4 3122   5.237   3.172   5.781  0.1451 -0.3258  0.2022
  838SOL     OW 3123   4.497   2.276   3.710 -0.8900  0.1877 -0.2372
  838SOL    HW2 3124   4.457   2.197   3.676  0.6106 -0.9298  0.4600
  838SOL    HW3 3125   4.578   2.285   3.660  1.4723 -1.5966  2.8924
  838SOL    MW4 3126   4.503   2.267   3.699 -0.3803 -0.1952  0.2677
  839SOL     OW 3127   3.922   0.126   1.742  0.1784  0.5338  0.2476
  839SOL    HW2 3128   4.013   0.151   1.759  0.2774 -0.5537  1.3865
  839SOL    HW3 3129   3.926   0.036   1.712 -0.5666  0.2776  0.8697
  839SOL    MW4 3130   3.934   0.117   1.740  0.0932  0.3565  0.4800
  840SOL     OW 3131   2.998   3.326   2.819 -0.0469 -0.4961 -0.6349
  840SOL    HW2 3132   2.916   3.356   2.858  0.6757  0.2917  0.3384
  840SOL    HW3 3133   2.971   3.283   2.738 -1.6097 -2.2600  0.7286
  840SOL    MW4 3134   2.983   3.324   2.813 -0.1578 -0.6249 -0.3266
  841SOL     OW 3135   5.952   2.635   4.223 -0.0383  0.1711  0.5103
  841SOL    HW2 3136   6.042   2.664   4.205  0.8896 -0.6658  3.2869
  841SOL    HW3 3137   5.942   2.557   4.168  0.5913  0.7554 -0.4754
  841SOL    MW4 3138   5.963   2.628   4.213  0.1672  0.1377  0.7466
  842SOL     OW 3139   1.653   5.343   1.524 -0.1434 -0.1966  0.1774
  842SOL    HW2 3140   1.561   5.350   1.550 -0.4115  1.6449 -1.0007
  842SOL    HW3 3141   1.670   5.249   1.519 -1.4762 -0.5931  1.9553
  842SOL    MW4 3142   1.643   5.332   1.527 -0.3546 -0.0060  0.2566
  843SOL     OW 3143   4.452   3.590   3.347  0.3194  0.4761  0.0733
  843SOL    HW2 3144   4.425   3.498   3.343  2.3613 -0.1352 -1.5785
  843SOL    HW3 3145   4.390   3.637   3.292  0.0425 -0.1584 -0.1596
  843SOL    MW4 3146   4.441   3.584   3.339  0.5523  0.3117 -0.1753
  844SOL     OW 3147   3.858   5.273   0.813  0.0760  0.0344  0.3162
  844SOL    HW2 3148   3.926   5.206   0.806  0.4516  0.5645 -1.8790
  844SOL    HW3 3149   3.776   5.224   0.806  0.2089 -0.4892  1.9090
  844SOL    MW4 3150   3.856   5.257   0.811  0.1431  0.0352  0.2367
  845SOL     OW 3151   1.025   4.232   5.375 -0.2891 -0.1599  0.6093
  845SOL    HW2 3152   1.064   4.150   5.405  0.5387 -0.2339 -0.5986
  845SOL    HW3 3153   1.093   4.273   5.320 -0.7092  1.3015  1.1282
  845SOL    MW4 3154   1.039   4.227   5.371 -0.2353  0.0232  0.5184
  846SOL     OW 3155   2.934   5.972   2.355  0.1203 -0.1863 -0.2478
  846SOL    HW2 3156   2.954   6.064   2.374 -1.1951  0.5101 -1.9043
  846SOL    HW3 3157   2.884   5.942   2.430  2.1627 -0.1765  1.1918
  846SOL    MW4 3158   2.930   5.980   2.367  0.2162 -0.0931 -0.2764
  847SOL     OW 3159   4.160   3.032   0.423  0.0067  0.1923  0.3362
  847SOL    HW2 3160   4.107   3.052   0.346  0.0144  1.3785  0.6242
  847SOL    HW3 3161   4.247   3.063   0.402 -0.2526  1.6195  1.2493
  847SOL    MW4 3162   4.164   3.038   0.410 -0.0265  0.5371  0.4947
  848SOL     OW 3163   4.109   0.464   0.604  0.1813 -0.2627 -0.5635
  848SOL    HW2 3164   4.189   0.513   0.621  0.3566 -0.0297 -1.9610
  848SOL    HW3 3165   4.119   0.384   0.657  1.8156 -0.7134 -1.4595
  848SOL    MW4 3166   4.121   0.460   0.613  0.4200 -0.2914 -0.8661
  849SOL     OW 3167   1.446   2.025   0.353 -0.4990 -0.0605  0.3109
  849SOL    HW2 3168   1.451   2.104   0.300 -1.9667 -0.7010 -0.8675
  849SOL    HW3 3169   1.495   1.960   0.303  0.6992  0.0757  1.2724
  849SOL    MW4 3170   1.453   2.027   0.339 -0.5345 -0.1270  0.2823
  850SOL     OW 3171   4.645   0.571   0.244  0.4647  0.3083 -0.0829
  850SOL    HW2 3172   4.566   0.518   0.240  0.6108  0.1274 -0.7979
  850SOL    HW3 3173   4.620   0.654   0.201  0.6049  0.3265 -0.1292
  850SOL    MW4 3174   4.631   0.575   0.238  0.5025  0.2868 -0.1834
  851SOL     OW 3175   3.221   0.112   0.100  0.5903 -0.3629 -0.5118
  851SOL    HW2 3176   3.214   0.020   0.074 -2.4633 -0.4747  0.2615
  851SOL    HW3 3177   3.209   0.112   0.195 -1.2822  0.8758 -0.6742
  851SOL    MW4 3178   3.219   0.100   0.109 -0.0597 -0.2142 -0.4312
  852SOL     OW 3179   2.953   6.264   1.459 -0.7835 -0.5418  0.6156
  852SOL    HW2 3180   2.887   6.218   1.512 -1.2484 -1.2687 -0.5561
  852SOL    HW3 3181   2.901   6.314   1.395 -0.2190 -0.0175  0.5571
  852SOL    MW4 3182   2.937   6.265   1.458 -0.7704 -0.5685  0.4533
  853SOL     OW 3183   1.197   5.738   5.046 -0.4972  0.2830  0.0266
  853SOL    HW2 3184   1.163   5.724   4.957 -0.1075  0.5027 -0.1590
  853SOL    HW3 3185   1.149   5.675   5.100 -0.1960 -0.3812 -0.4660
  853SOL    MW4 3186   1.186   5.728   5.041 -0.4060  0.2244 -0.0629
  854SOL     OW 3187   5.678   3.697   5.914 -0.6526  0.2701 -0.0972
  854SOL    HW2 3188   5.649   3.786   5.896 -2.4956 -0.0113  1.2578
  854SOL    HW3 3189   5.609   3.641   5.880 -0.6455 -0.5389  1.1452
  854SOL    MW4 3190   5.665   3.701   5.907 -0.8949  0.1262  0.2455
  855SOL     OW 3191   1.819   4.700   1.180 -0.3736  0.0023  0.3472
  855SOL    HW2 3192   1.810   4.724   1.272  0.2227  0.3605  0.3179
  855SOL    HW3 3193   1.865   4.774   1.140 -0.5333 -0.1975 -0.2163
  855SOL    MW4 3194   1.824   4.713   1.187 -0.3160  0.0232  0.2690
  856SOL     OW 3195   3.713   2.785   5.080  0.1183 -0.0888  0.1188
  856SOL    HW2 3196   3.647   2.855   5.077 -0.7779 -0.9302 -0.4394
  856SOL    HW3 3197   3.663   2.705   5.095  1.0356 -0.7256 -0.0975
  856SOL    MW4 3198   3.698   2.784   5.081  0.1210 -0.2839  0.0166
  857SOL     OW 3199   5.578   1.206   2.169  0.1442  0.0648 -0.1476
  857SOL    HW2 3200   5.551   1.192   2.079  1.5899 -1.0815 -0.4546
  857SOL    HW3 3201   5.622   1.291   2.168  0.6275 -0.1844 -0.6573
  857SOL    MW4 3202   5.581   1.216   2.157  0.3987 -0.1193 -0.2553
  858SOL     OW 3203   5.924   1.450   0.445  0.9795 -0.4804  0.1376
  858SOL    HW2 3204   5.887   1.535   0.466  0.1081 -0.7681 -0.1943
  858SOL    HW3 3205   5.867   1.415   0.376  0.9863 -1.5666  0.6563
  858SOL    MW4 3206   5.912   1.457   0.439  0.8654 -0.6616  0.1622
  859SOL     OW 3207   2.266   6.214   1.832  0.1362 -0.0705 -0.0097
  859SOL    HW2 3208   2.181   6.170   1.830  0.4338 -0.6579 -0.0903
  859SOL    HW3 3209   2.285   6.224   1.925  1.1873 -2.3853  0.0978
  859SOL    MW4 3210   2.257   6.209   1.844  0.3141 -0.4534 -0.0061
  860SOL     OW 3211   1.026   0.581   2.329  0.2011  1.2225 -0.1089
  860SOL    HW2 3212   1.093   0.537   2.277  2.5730  1.2682  2.6112
  860SOL    HW3 3213   1.005   0.518   2.398 -2.0593  1.5114 -0.4860
  860SOL    MW4 3214   1.032   0.567   2.331  0.2158  1.2666  0.2002
  861SOL     OW 3215   2.088   3.576   0.666  0.1101 -0.0480  0.8272
  861SOL    HW2 3216   2.090   3.630   0.746  0.5384  1.3580 -0.0854
  861SOL    HW3 3217   2.018   3.615   0.613  1.1470  0.3222 -0.3157
  861SOL    MW4 3218   2.079   3.589   0.670  0.3034  0.1863  0.5560
  862SOL     OW 3219   1.707   6.020   5.117  0.1377  0.1222  0.2358
  862SOL    HW2 3220   1.684   6.113   5.118  0.4924  0.2059  0.7405
  862SOL    HW3 3221   1.625   5.975   5.139 -0.3141  0.2449 -1.1078
  862SOL    MW4 3222   1.693   6.026   5.120  0.1249  0.1494  0.1251
  863SOL     OW 3223   5.214   0.312   4.661 -0.1357  0.1154 -0.0510
  863SOL    HW2 3224   5.309   0.317   4.667  0.2597 -1.6540 -2.8737
  863SOL    HW3 3225   5.189   0.393   4.616  0.3650 -0.4597 -1.4191
  863SOL    MW4 3226   5.223   0.323   4.656 -0.0175 -0.1939 -0.6039
  864SOL     OW 3227   2.487   5.305   0.756 -0.0796 -0.1726  0.5936
  864SOL    HW2 3228   2.421   5.252   0.710  1.3197 -0.9247 -0.6069
  864SOL    HW3 3229   2.436   5.376   0.796 -1.3390  1.0904 -2.8552
  864SOL    MW4 3230   2.471   5.307   0.755 -0.0612 -0.1052 -0.0198
  865SOL     OW 3231   5.673   1.166   4.243  0.7278 -0.6730 -0.3805
  865SOL    HW2 3232   5.610   1.105   4.282  0.0555  0.5584  0.5286
  865SOL    HW3 3233   5.654   1.163   4.149  0.6304 -1.7417 -0.3490
  865SOL    MW4 3234   5.662   1.157   4.236  0.6262 -0.6515 -0.2564
  866SOL     OW 3235   1.512   1.236   3.678  0.2331 -0.5505 -0.1632
  866SOL    HW2 3236   1.567   1.206   3.605  1.0126  0.3293  0.0450
  866SOL    HW3 3237   1.448   1.166   3.690  0.6462 -1.1120 -1.1113
  866SOL    MW4 3238   1.511   1.223   3.670  0.3905 -0.5085 -0.2608
  867SOL     OW 3239   4.188   4.766   3.183 -0.4545  0.2732 -0.1214
  867SOL    HW2 3240   4.233   4.784   3.101  2.1174 -0.6433  0.9806
  867SOL    HW3 3241   4.111   4.822   3.181  1.4095  3.0260 -1.5790
  867SOL    MW4 3242   4.184   4.776   3.172  0.1307  0.5155 -0.1683
  868SOL     OW 3243   1.296   4.589   3.355  0.2876 -0.6010  0.1504
  868SOL    HW2 3244   1.322   4.568   3.265  0.5204  0.3810 -0.0172
  868SOL    HW3 3245   1.235   4.662   3.346  0.7453 -0.1271  0.8242
  868SOL    MW4 3246   1.291   4.596   3.342  0.3787 -0.4089  0.2172
  869SOL     OW 3247   2.036   1.063   4.084 -0.1732 -0.1337 -0.3495
  869SOL    HW2 3248   1.991   0.994   4.133 -2.0949  0.8848 -0.5735
  869SOL    HW3 3249   1.976   1.137   4.088  2.1332  1.8113  0.5159
  869SOL    MW4 3250   2.022   1.064   4.091 -0.1224  0.2573 -0.2649
  870SOL     OW 3251   5.353   4.196   4.015 -0.0444 -0.2848  0.4045
  870SOL    HW2 3252   5.409   4.270   4.035 -1.7913  1.0331  0.6470
  870SOL    HW3 3253   5.332   4.205   3.922 -0.5538 -0.2434  0.5177
  870SOL    MW4 3254   5.357   4.207   4.006 -0.3421 -0.1055  0.4515
  871SOL     OW 3255   1.016   4.469   5.518 -0.2650  0.5523  0.5962
  871SOL    HW2 3256   1.082   4.446   5.584 -0.7755  0.4035  1.0595
  871SOL    HW3 3257   1.013   4.394   5.460 -0.7699  0.1076  1.1806
  871SOL    MW4 3258   1.024   4.456   5.519 -0.3990  0.4740  0.7344
  872SOL     OW 3259   1.462   2.909   4.551  0.2076  0.1284  0.7975
  872SOL    HW2 3260   1.379   2.899   4.506  0.6944  2.6675 -0.8483
  872SOL    HW3 3261   1.522   2.850   4.505  0.3001  1.4900 -0.9059
  872SOL    MW4 3262   1.459   2.899   4.539  0.2840  0.6430  0.3556
  873SOL     OW 3263   5.638   1.620   4.645 -0.3021 -0.0768  0.1615
  873SOL    HW2 3264   5.647   1.692   4.707 -1.5125 -1.0770  1.5617
  873SOL    HW3 3265   5.618   1.663   4.561  1.1621  1.2864  0.4562
  873SOL    MW4 3266   5.637   1.635   4.642 -0.2686 -0.0289  0.3851
  874SOL     OW 3267   1.212   3.224   0.403 -0.0433 -0.0744 -0.0243
  874SOL    HW2 3268   1.292   3.171   0.400  0.6086  0.9000 -0.8119
  874SOL    HW3 3269   1.196   3.239   0.496  1.1243  0.3193  0.1322
  874SOL    MW4 3270   1.221   3.219   0.415  0.1968  0.1061 -0.1076
  875SOL     OW 3271   5.691   0.165   1.398  0.5756 -0.2008  0.2052
  875SOL    HW2 3272   5.611   0.216   1.394 -0.8673 -2.2368  1.3190
  875SOL    HW3 3273   5.713   0.147   1.306  0.8553  1.8955 -0.1834
  875SOL    MW4 3274   5.683   0.169   1.385  0.4221 -0.1928  0.3009
  876SOL     OW 3275   5.638   5.566   2.661 -0.1501 -0.0444 -0.3647
  876SOL    HW2 3276   5.545   5.548   2.647 -0.0585 -0.6945 -0.1695
  876SOL    HW3 3277   5.642   5.599   2.751 -0.0100 -1.5374  0.2079
  876SOL    MW4 3278   5.626   5.568   2.671 -0.1195 -0.3272 -0.2634
  877SOL     OW 3279   3.815   5.175   1.350  0.3491 -0.3570 -0.1605
  877SOL    HW2 3280   3.898   5.132   1.367  0.1470 -0.5191  0.4462
  877SOL    HW3 3281   3.751   5.125   1.401 -0.0584 -0.0101 -0.3208
  877SOL    MW4 3282   3.817   5.163   1.359  0.2687 -0.3326 -0.1016
  878SOL     OW 3283   2.118   5.929   4.474 -0.0260 -0.0805  0.2114
  878SOL    HW2 3284   2.051   5.974   4.526 -1.3433  1.7219 -2.8150
  878SOL    HW3 3285   2.152   5.862   4.533 -0.3232  2.6776  3.8868
  878SOL    MW4 3286   2.113   5.926   4.489 -0.2390  0.5212  0.2971
  879SOL     OW 3287   0.820   5.539   4.966  0.4315 -0.1381 -0.0653
  879SOL    HW2 3288   0.887   5.550   5.033  0.9674  2.3258 -0.9103
  879SOL    HW3 3289   0.833   5.449   4.935  0.8623 -0.9809  2.3281
  879SOL    MW4 3290   0.831   5.528   4.970  0.5590  0.0758  0.1390
  880SOL     OW 3291   5.079   0.870   0.342 -0.0770 -0.4500  0.1810
  880SOL    HW2 3292   5.160   0.913   0.370  0.9543 -2.1013 -0.1406
  880SOL    HW3 3293   5.021   0.942   0.318  1.3918  0.7706  0.1223
  880SOL    MW4 3294   5.082   0.885   0.343  0.2528 -0.5069  0.1308
  881SOL     OW 3295   4.665   2.104   0.428 -0.0372  0.3010  0.2245
  881SOL    HW2 3296   4.616   2.173   0.472 -0.7856  0.0641 -0.2224
  881SOL    HW3 3297   4.696   2.145   0.347 -1.2866 -0.1466 -0.4967
  881SOL    MW4 3298   4.663   2.119   0.423 -0.3008  0.2106  0.0704
  882SOL     OW 3299   1.827   1.462   2.689 -0.0241  0.0899 -0.2199
  882SOL    HW2 3300   1.753   1.420   2.734  0.6961 -2.4012 -1.1658
  882SOL    HW3 3301   1.897   1.396   2.692  2.2010  2.3320  0.6140
  882SOL    MW4 3302   1.827   1.448   2.696  0.3645  0.0570 -0.2347
  883SOL     OW 3303   4.128   2.983   1.898  0.4229  0.0747  0.1748
  883SOL    HW2 3304   4.039   2.976   1.932  0.5272  1.6516  0.8806
  883SOL    HW3 3305   4.139   3.076   1.877  2.3830  0.2117  1.5186
  883SOL    MW4 3306   4.118   2.995   1.900  0.6953  0.3008  0.4453
  884SOL     OW 3307   4.832   1.857   3.227  0.1494  0.0393  0.7968
  884SOL    HW2 3308   4.740   1.831   3.234  0.3268 -1.7922 -2.0420
  884SOL    HW3 3309   4.880   1.788   3.274  0.1645  0.2404  1.0807
  884SOL    MW4 3310   4.826   1.844   3.234  0.1748 -0.1758  0.4597
  885SOL     OW 3311   6.323   0.411   4.186  0.1645 -0.5282 -0.8806
  885SOL    HW2 3312   6.363   0.391   4.102 -0.9590  0.0793 -1.5668
  885SOL    HW3 3313   6.272   0.490   4.172  0.4588 -0.0411  0.5379
  885SOL    MW4 3314   6.322   0.418   4.173  0.0551 -0.3838 -0.7840
  886SOL     OW 3315   5.261   5.285   2.297  0.3983 -0.1512 -0.0167
  886SOL    HW2 3316   5.330   5.242   2.248 -0.2714  1.0120 -2.1179
  886SOL    HW3 3317   5.282   5.379   2.292 -1.3213  0.2480 -0.7930
  886SOL    MW4 3318   5.273   5.292   2.290  0.0830  0.0549 -0.3964
  887SOL     OW 3319   5.612   2.562   2.445 -1.0464  0.5577  0.0970
  887SOL    HW2 3320   5.626   2.499   2.375  0.7623  0.1979  0.7250
  887SOL    HW3 3321   5.529   2.537   2.484  0.3481 -2.5076  1.3566
  887SOL    MW4 3322   5.603   2.551   2.441 -0.6238  0.1058  0.3461
  888SOL     OW 3323   2.190   0.213   1.422 -0.2552 -0.3900  1.1590
  888SOL    HW2 3324   2.182   0.247   1.333 -1.2096 -0.4371  1.2216
  888SOL    HW3 3325   2.283   0.190   1.430  0.2533  1.3736  0.8301
  888SOL    MW4 3326   2.201   0.214   1.411 -0.3140 -0.1635  1.1239
  889SOL     OW 3327   3.105   0.392   5.478  0.1466 -0.2689 -0.3873
  889SOL    HW2 3328   3.148   0.390   5.392  1.0712 -0.9839  0.0741
  889SOL    HW3 3329   3.033   0.329   5.470  1.0031 -1.2919 -0.2646
  889SOL    MW4 3330   3.101   0.383   5.465  0.3816 -0.4982 -0.3103
  890SOL     OW 3331   2.079   4.228   4.919 -0.2692  0.0149 -0.0232
  890SOL    HW2 3332   2.096   4.193   4.831  1.6716  1.7967 -0.4424
  890SOL    HW3 3333   2.084   4.151   4.976 -0.3266 -1.0060 -1.3374
  890SOL    MW4 3334   2.082   4.213   4.915 -0.0207  0.1153 -0.2519
  891SOL     OW 3335   2.324   3.880   5.687  0.0052 -0.2470  0.2176
  891SOL    HW2 3336   2.295   3.958   5.735 -0.2604 -0.1887 -0.0332
  891SOL    HW3 3337   2.286   3.891   5.600  0.6446 -0.2563 -0.0636
  891SOL    MW4 3338   2.315   3.892   5.682  0.0545 -0.2405  0.1474
  892SOL     OW 3339   1.298   6.243   3.572  0.3421 -0.3006  0.7323
  892SOL    HW2 3340   1.235   6.282   3.512  0.0546 -1.0930  0.5155
  892SOL    HW3 3341   1.358   6.315   3.593 -1.4240  0.9000  2.0715
  892SOL    MW4 3342   1.298   6.258   3.567  0.0711 -0.2467  0.8804
  893SOL     OW 3343   3.016   6.263   3.810 -0.3752 -0.4449  0.6918
  893SOL    HW2 3344   3.065   6.281   3.730  1.9646  0.0489  2.1264
  893SOL    HW3 3345   3.018   6.345   3.859  0.8289 -1.4724  2.4935
  893SOL    MW4 3346   3.023   6.276   3.806  0.0923 -0.5153  1.1188
  894SOL     OW 3347   4.474   5.593   2.783  0.0757 -0.1135 -0.6636
  894SOL    HW2 3348   4.409   5.565   2.847  0.0413 -1.6787 -1.3237
  894SOL    HW3 3349   4.439   5.674   2.747 -1.1067 -0.4890 -0.4130
  894SOL    MW4 3350   4.461   5.600   2.786 -0.0848 -0.3696 -0.7176
  895SOL     OW 3351   5.155   6.036   4.394 -0.1986  0.2349  0.3184
  895SOL    HW2 3352   5.074   5.997   4.426 -0.7971  1.2927  0.1504
  895SOL    HW3 3353   5.223   5.974   4.417 -1.1363 -0.9972 -0.1195
  895SOL    MW4 3354   5.153   6.023   4.401 -0.4013  0.2119  0.2384
  896SOL     OW 3355   1.061   1.636   1.249 -0.5155  0.3376 -0.4793
  896SOL    HW2 3356   1.139   1.585   1.269 -0.6314  0.8453  1.4617
  896SOL    HW3 3357   1.084   1.685   1.170  0.7141 -0.3649 -0.5814
  896SOL    MW4 3358   1.074   1.636   1.241 -0.3686  0.3119 -0.2367
  897SOL     OW 3359   6.246   1.060   2.508  0.3255  0.6134 -0.9331
  897SOL    HW2 3360   6.306   0.992   2.539  1.3015  1.9150  0.1578
  897SOL    HW3 3361   6.197   1.086   2.586  0.2424  1.4204 -1.2428
  897SOL    MW4 3362   6.247   1.054   2.522  0.4433  0.8916 -0.8300
  898SOL     OW 3363   1.363   2.561   1.922  0.2417 -0.2025 -0.2415
  898SOL    HW2 3364   1.351   2.474   1.885 -0.1155 -0.3047  0.1048
  898SOL    HW3 3365   1.290   2.612   1.888 -0.0374 -0.2729  0.2346
  898SOL    MW4 3366   1.352   2.556   1.913  0.1577 -0.2253 -0.1330
  899SOL     OW 3367   0.076   1.437   4.339 -0.1358 -0.3954 -0.3637
  899SOL    HW2 3368   0.107   1.379   4.409 -0.7159 -1.3155 -0.8495
  899SOL    HW3 3369   0.154   1.454   4.286  0.1006 -0.5024 -0.0539
  899SOL    MW4 3370   0.091   1.431   4.341 -0.1812 -0.5309 -0.3869
  900SOL     OW 3371   1.422   5.465   2.034 -0.5115  0.2979  0.2237
  900SOL    HW2 3372   1.345   5.467   1.978  0.9926  0.4408 -1.9418
  900SOL    HW3 3373   1.438   5.557   2.057  1.1807  0.8247 -2.5894
  900SOL    MW4 3374   1.414   5.478   2.030 -0.0898  0.3862 -0.4332
  901SOL     OW 3375   6.090   4.781   1.239  0.1608  0.2389  0.0441
  901SOL    HW2 3376   6.061   4.801   1.150  0.3803 -1.1005 -0.3493
  901SOL    HW3 3377   6.118   4.689   1.236  0.3465  0.2167  1.4513
  901SOL    MW4 3378   6.090   4.771   1.227  0.2142  0.0593  0.1779
  902SOL     OW 3379   1.146   2.681   1.810  0.0844  0.1955 -0.0316
  902SOL    HW2 3380   1.150   2.616   1.739 -2.3613  0.5474 -0.5627
  902SOL    HW3 3381   1.157   2.765   1.765  2.2337  0.2767  0.5336
  902SOL    MW4 3382   1.148   2.684   1.794  0.0453  0.2526 -0.0271
  903SOL     OW 3383   2.293   2.545   4.078  0.0890 -0.3209 -0.1012
  903SOL    HW2 3384   2.238   2.471   4.106  2.2522 -2.0187 -0.0702
  903SOL    HW3 3385   2.272   2.556   3.985 -2.6826  1.3347  0.6056
  903SOL    MW4 3386   2.283   2.536   4.070  0.0087 -0.3265 -0.0039
  904SOL     OW 3387   5.495   2.214   3.924  0.1251  0.5905 -0.1827
  904SOL    HW2 3388   5.588   2.199   3.943  0.0407 -0.0915 -0.2938
  904SOL    HW3 3389   5.475   2.297   3.968  1.1199  1.4386 -1.2603
  904SOL    MW4 3390   5.505   2.223   3.932  0.2452  0.6124 -0.3396
  905SOL     OW 3391   5.718   5.195   1.116  0.2053 -0.1151 -0.3201
  905SOL    HW2 3392   5.789   5.131   1.119 -1.1632 -1.8224 -2.1100
  905SOL    HW3 3393   5.638   5.143   1.121 -0.9676  1.6163 -0.0961
  905SOL    MW4 3394   5.717   5.180   1.117 -0.1300 -0.1120 -0.5267
  906SOL     OW 3395   2.272   6.027   2.945 -0.1359 -0.2776 -0.0459
  906SOL    HW2 3396   2.261   6.122   2.939  2.4628  0.0557 -0.7081
  906SOL    HW3 3397   2.248   6.006   3.035 -1.5666  0.8555 -0.1239
  906SOL    MW4 3398   2.267   6.037   2.956  0.0182 -0.0841 -0.1436
  907SOL     OW 3399   0.857   0.628   0.869 -0.5638  0.1478  0.6803
  907SOL    HW2 3400   0.916   0.579   0.812  0.1882  0.3558  1.2647
  907SOL    HW3 3401   0.866   0.719   0.841  0.4832  0.3791  1.6736
  907SOL    MW4 3402   0.866   0.634   0.858 -0.3265  0.2058  0.8884
  908SOL     OW 3403   6.380  -0.004   4.865 -1.2149  0.1147 -0.5217
  908SOL    HW2 3404   6.359  -0.089   4.904 -1.3051 -0.5513 -1.9559
  908SOL    HW3 3405   6.408   0.050   4.939  1.0653 -1.8495  0.1773
  908SOL    MW4 3406   6.381  -0.008   4.880 -0.9260 -0.2323 -0.6187
  909SOL     OW 3407   0.066   4.304   1.433  0.4538 -0.2116 -0.3549
  909SOL    HW2 3408   0.010   4.322   1.357 -0.5736  1.5979  0.7503
  909SOL    HW3 3409   0.154   4.326   1.403  0.2571 -0.7876 -1.4063
  909SOL    MW4 3410   0.070   4.309   1.419  0.2923 -0.0488 -0.3478
  910SOL     OW 3411   4.095   4.294   0.294 -0.2495  0.0017  1.0914
  910SOL    HW2 3412   4.117   4.374   0.245  0.6969 -0.2506  1.0857
  910SOL    HW3 3413   4.122   4.223   0.237  1.9883 -0.3057  2.3997
  910SOL    MW4 3414   4.102   4.295   0.280  0.1706 -0.0721  1.2633
  911SOL     OW 3415   5.451   5.788   5.108 -0.0569  0.2905  0.2520
  911SOL    HW2 3416   5.536   5.745   5.116 -0.6193 -0.6803  1.2352
  911SOL    HW3 3417   5.400   5.755   5.181 -1.4694  0.4564 -0.6151
  911SOL    MW4 3418   5.456   5.778   5.119 -0.3174  0.1843  0.2673
  912SOL     OW 3419   5.421   5.454   2.903 -0.2220  0.5166 -0.0569
  912SOL    HW2 3420   5.406   5.448   2.809 -2.4593 -2.2006  0.3318
  912SOL    HW3 3421   5.340   5.492   2.938 -0.0892 -0.0426  0.8955
  912SOL    MW4 3422   5.408   5.458   2.895 -0.4997  0.0843  0.1200
  913SOL     OW 3423   1.839   4.204   4.357  0.4268  0.9662 -0.9502
  913SOL    HW2 3424   1.890   4.231   4.433 -1.4072  0.9793  0.3313
  913SOL    HW3 3425   1.751   4.239   4.373 -0.2546  0.1273 -2.6024
  913SOL    MW4 3426   1.834   4.212   4.369  0.0949  0.8572 -0.9991
  914SOL     OW 3427   3.456   4.169   1.154 -0.2541  0.8721  0.0670
  914SOL    HW2 3428   3.546   4.150   1.183 -0.0515  0.9503 -0.4868
  914SOL    HW3 3429   3.423   4.231   1.219 -0.4901 -0.4133  1.1926
  914SOL    MW4 3430   3.464   4.175   1.166 -0.2585  0.7129  0.1425
  915SOL     OW 3431   3.773   1.441   6.295  0.6027  0.3413  0.4400
  915SOL    HW2 3432   3.822   1.379   6.241  1.1794 -0.5781  1.9701
  915SOL    HW3 3433   3.826   1.521   6.294 -0.0151  0.7730 -1.3328
  915SOL    MW4 3434   3.786   1.444   6.288  0.5973  0.2770  0.4080
  916SOL     OW 3435   4.218   1.186   5.201 -0.1780  0.1343  0.7940
  916SOL    HW2 3436   4.144   1.218   5.253  1.3824  3.8104  1.0687
  916SOL    HW3 3437   4.179   1.154   5.120 -2.1562  0.6077  1.5051
  916SOL    MW4 3438   4.203   1.186   5.197 -0.2332  0.6818  0.9241
  917SOL     OW 3439   3.284   4.049   2.453  0.3734  0.1823 -0.4615
  917SOL    HW2 3440   3.308   4.126   2.504 -1.0608  1.0517 -1.0511
  917SOL    HW3 3441   3.303   4.073   2.362 -2.1142  0.7372 -0.9062
  917SOL    MW4 3442   3.289   4.062   2.448 -0.1440  0.3702 -0.5979
  918SOL     OW 3443   3.425   0.802   0.629  0.3863 -0.1252 -0.1179
  918SOL    HW2 3444   3.408   0.708   0.622  1.4486 -0.4310  1.1118
  918SOL    HW3 3445   3.379   0.829   0.708 -0.1508  0.4671 -0.6195
  918SOL    MW4 3446   3.417   0.793   0.639  0.4556 -0.0874 -0.0218
  919SOL     OW 3447   5.058   2.385   1.716 -0.0108 -0.4300  0.5263
  919SOL    HW2 3448   5.118   2.459   1.715  0.2090 -0.4916 -2.5728
  919SOL    HW3 3449   5.110   2.311   1.684 -1.4759 -0.6425 -1.5754
  919SOL    MW4 3450   5.073   2.385   1.711 -0.1751 -0.4662 -0.1599
  920SOL     OW 3451   4.337   6.231   1.072 -0.7152  0.0125 -0.4641
  920SOL    HW2 3452   4.275   6.187   1.014 -0.5945 -0.9396  0.1106
  920SOL    HW3 3453   4.302   6.320   1.081 -1.1135 -0.0323 -1.4192
  920SOL    MW4 3454   4.324   6.237   1.065 -0.7518 -0.1190 -0.5143
  921SOL     OW 3455   0.547   0.760   4.773  0.2640 -0.3877 -0.3020
  921SOL    HW2 3456   0.505   0.680   4.804  0.1842 -0.3087 -0.2057
  921SOL    HW3 3457   0.475   0.820   4.756  0.3563 -0.0932  0.3098
  921SOL    MW4 3458   0.532   0.758   4.775  0.2657 -0.3384 -0.2086
  922SOL     OW 3459   2.768   2.498   1.951  0.0953  0.1599 -0.1095
  922SOL    HW2 3460   2.712   2.421   1.959  0.2891  0.1635  1.7406
  922SOL    HW3 3461   2.830   2.476   1.882 -0.2552 -1.0959 -0.0467
  922SOL    MW4 3462   2.769   2.485   1.943  0.0746 -0.0053  0.1428
  923SOL     OW 3463   6.425   4.846   6.225  0.1833 -0.1305 -0.4037
  923SOL    HW2 3464   6.371   4.849   6.146  2.1452  0.6179 -1.8151
  923SOL    HW3 3465   6.511   4.878   6.196  1.2871 -0.9021  1.7892
  923SOL    MW4 3466   6.430   4.850   6.211  0.5878 -0.1336 -0.3006
  924SOL     OW 3467   1.347   4.547   5.002  0.7432 -0.5236  0.1285
  924SOL    HW2 3468   1.298   4.581   5.077  1.5321  1.0593 -0.0464
  924SOL    HW3 3469   1.310   4.593   4.927  0.7103 -1.2867 -0.3300
  924SOL    MW4 3470   1.335   4.557   5.002  0.8430 -0.4154  0.0449
  925SOL     OW 3471   5.602   1.427   3.227 -0.2459  0.0477  0.5099
  925SOL    HW2 3472   5.530   1.422   3.164 -0.4487  0.5147  0.7003
  925SOL    HW3 3473   5.623   1.520   3.232  0.0578 -0.0353  0.8087
  925SOL    MW4 3474   5.595   1.438   3.220 -0.2326  0.0984  0.5745
  926SOL     OW 3475   3.750   2.768   1.848  0.0627  0.4335  0.0617
  926SOL    HW2 3476   3.780   2.826   1.918 -0.1512  2.8799 -1.7638
  926SOL    HW3 3477   3.827   2.756   1.792 -0.6272  1.3497 -1.1170
  926SOL    MW4 3478   3.764   2.774   1.850 -0.0565  0.8772 -0.3347
  927SOL     OW 3479   2.156   2.367   1.933  0.5662 -0.5607 -0.2565
  927SOL    HW2 3480   2.195   2.431   1.873  4.1393 -0.5160  1.8230
  927SOL    HW3 3481   2.180   2.282   1.896  0.8531 -0.5712 -0.0501
  927SOL    MW4 3482   2.164   2.364   1.920  1.0755 -0.5562  0.0451
  928SOL     OW 3483   2.128   1.929   5.423  0.0165 -0.3243 -0.0423
  928SOL    HW2 3484   2.137   1.949   5.330 -0.0684  0.0035  0.0207
  928SOL    HW3 3485   2.063   1.990   5.455  2.1228  1.5905  0.8621
  928SOL    MW4 3486   2.121   1.939   5.415  0.2832 -0.0284  0.0853
  929SOL     OW 3487   4.130   2.419   4.515  0.3233 -0.3002  0.2339
  929SOL    HW2 3488   4.090   2.439   4.600 -0.8606 -0.8956 -0.1483
  929SOL    HW3 3489   4.056   2.392   4.461  0.4659  3.3026 -2.0705
  929SOL    MW4 3490   4.115   2.418   4.519  0.1859  0.0966 -0.1205
  930SOL     OW 3491   3.055   5.573   3.256 -0.4271 -0.0246  0.4565
  930SOL    HW2 3492   3.023   5.509   3.319 -1.2484  1.4496  1.6180
  930SOL    HW3 3493   2.989   5.643   3.258  0.1417  0.6020 -1.1722
  930SOL    MW4 3494   3.042   5.574   3.265 -0.4604  0.2525  0.3949
  931SOL     OW 3495   0.578   5.250   5.037 -0.1607 -0.2809  0.1657
  931SOL    HW2 3496   0.627   5.236   5.118 -0.9367  0.0333  0.6967
  931SOL    HW3 3497   0.645   5.247   4.968  0.5369 -0.3141  0.8302
  931SOL    MW4 3498   0.593   5.247   5.039 -0.1711 -0.2439  0.3234
  932SOL     OW 3499   4.458   2.726   2.133  0.5885  0.0162 -0.6238
  932SOL    HW2 3500   4.448   2.750   2.224  0.6901  0.8041 -0.8174
  932SOL    HW3 3501   4.530   2.662   2.132 -0.0123 -0.6904 -0.0549
  932SOL    MW4 3502   4.466   2.720   2.145  0.5227  0.0269 -0.5743
  933SOL     OW 3503   3.069   2.441   3.185  0.2447 -0.0485  0.3240
  933SOL    HW2 3504   3.105   2.526   3.161  3.6876 -1.2695  0.6598
  933SOL    HW3 3505   3.089   2.431   3.278  1.4415 -1.8756 -0.0754
  933SOL    MW4 3506   3.076   2.451   3.194  0.8568 -0.4506  0.3156
  934SOL     OW 3507   3.958   4.796   2.418 -0.4332  0.1522 -0.5840
  934SOL    HW2 3508   4.007   4.714   2.414  0.0474  0.3733  0.5724
  934SOL    HW3 3509   3.885   4.778   2.476 -1.1190  0.1550 -1.4222
  934SOL    MW4 3510   3.955   4.783   2.425 -0.4602  0.1817 -0.5420
  935SOL     OW 3511   0.620   0.777   4.003 -0.1129  0.7077  0.1693
  935SOL    HW2 3512   0.560   0.851   4.009 -0.7479  0.2871 -0.8063
  935SOL    HW3 3513   0.573   0.705   4.044 -1.1313 -0.1200 -2.2992
  935SOL    MW4 3514   0.606   0.777   4.009 -0.3310  0.5430 -0.2851
  936SOL     OW 3515   4.042   3.990   0.407 -0.0493 -0.6312  0.3708
  936SOL    HW2 3516   3.951   4.012   0.385 -0.6172 -1.3289  1.8587
  936SOL    HW3 3517   4.067   3.925   0.341  0.2151  1.2655 -1.4877
  936SOL    MW4 3518   4.033   3.984   0.395 -0.0894 -0.4730  0.3219
  937SOL     OW 3519   1.566   3.027   3.460  0.0759  0.3619 -0.6317
  937SOL    HW2 3520   1.592   2.936   3.441  1.3455  0.3630  0.9424
  937SOL    HW3 3521   1.574   3.072   3.376 -0.8405 -1.0133 -1.5062
  937SOL    MW4 3522   1.570   3.021   3.446  0.1225  0.1806 -0.5394
  938SOL     OW 3523   1.423   3.428   5.246  0.0978  0.5503  0.4204
  938SOL    HW2 3524   1.431   3.424   5.150  1.9662 -0.7222  0.5751
  938SOL    HW3 3525   1.355   3.364   5.267  3.0348 -2.9598  0.1694
  938SOL    MW4 3526   1.415   3.419   5.236  0.7318 -0.0807  0.4077
  939SOL     OW 3527   5.410   4.261   0.377  0.0580 -0.1782  0.3351
  939SOL    HW2 3528   5.477   4.277   0.311  1.1683 -0.3570  1.3937
  939SOL    HW3 3529   5.377   4.349   0.399  0.9973  0.0425  0.8801
  939SOL    MW4 3530   5.414   4.275   0.371  0.3284 -0.1727  0.5467
  940SOL     OW 3531   2.583   6.326   4.214 -0.1820 -0.0501 -0.2141
  940SOL    HW2 3532   2.590   6.234   4.189  0.4379  0.6924 -3.2069
  940SOL    HW3 3533   2.547   6.369   4.136 -0.4863  2.2567  1.1042
  940SOL    MW4 3534   2.579   6.319   4.200 -0.1404  0.3522 -0.4350
  941SOL     OW 3535   5.342   6.319   4.741  0.2366  1.0468  0.4483
  941SOL    HW2 3536   5.283   6.264   4.792 -0.6212  1.3126 -0.2285
  941SOL    HW3 3537   5.310   6.311   4.651  0.1922  2.5004  0.3104
  941SOL    MW4 3538   5.330   6.311   4.735  0.1176  1.2737  0.3408
  942SOL     OW 3539   2.125   5.482   2.049 -0.0553  0.2746 -0.2903
  942SOL    HW2 3540   2.048   5.519   2.092 -0.2003 -1.3670  0.9862
  942SOL    HW3 3541   2.187   5.467   2.120  0.2310 -1.2549 -0.8235
  942SOL    MW4 3542   2.123   5.485   2.064 -0.0367 -0.1438 -0.1922
  943SOL     OW 3543   3.245   5.258   4.474  0.3593  0.0938 -0.6143
  943SOL    HW2 3544   3.177   5.210   4.425 -0.2480  1.6465 -1.3535
  943SOL    HW3 3545   3.195   5.315   4.533  1.0729 -0.3306  0.4172
  943SOL    MW4 3546   3.229   5.259   4.475  0.3734  0.2427 -0.5758
  944SOL     OW 3547   5.050   0.414   1.294  0.1927  0.8835  0.4255
  944SOL    HW2 3548   4.964   0.413   1.254  0.9227 -0.1810 -1.2214
  944SOL    HW3 3549   5.082   0.504   1.284 -0.1135  0.9078 -0.3273
  944SOL    MW4 3550   5.043   0.426   1.288  0.2486  0.7462  0.1089
  945SOL     OW 3551   5.855   2.416   2.766  0.1366  0.1168  0.4528
  945SOL    HW2 3552   5.933   2.395   2.819 -0.3635 -1.3928  0.6346
  945SOL    HW3 3553   5.788   2.439   2.830  0.0170 -0.0248  0.3790
  945SOL    MW4 3554   5.857   2.416   2.782  0.0549 -0.1011  0.4670
  946SOL     OW 3555   0.696   4.701   0.423  0.0445 -0.0837  0.2036
  946SOL    HW2 3556   0.646   4.742   0.352 -0.0841 -0.7550 -0.1073
  946SOL    HW3 3557   0.709   4.771   0.487  1.8669  1.0922 -1.3433
  946SOL    MW4 3558   0.691   4.716   0.422  0.2680 -0.0172 -0.0415
  947SOL     OW 3559   3.862   4.484   5.110  0.3809 -0.5675  0.3027
  947SOL    HW2 3560   3.826   4.520   5.191 -0.8041  2.4012 -1.3998
  947SOL    HW3 3561   3.956   4.476   5.127  0.0011 -1.5049  2.4070
  947SOL    MW4 3562   3.870   4.487   5.123  0.1745 -0.2995  0.3557
  948SOL     OW 3563   3.254   0.236   1.412 -0.2478 -0.0702 -0.4260
  948SOL    HW2 3564   3.293   0.300   1.471  0.3411  0.4690 -1.3738
  948SOL    HW3 3565   3.159   0.251   1.418 -0.2748 -0.7329  1.1548
  948SOL    MW4 3566   3.246   0.246   1.420 -0.1737 -0.0865 -0.3425
  949SOL     OW 3567   2.576   6.119   2.217  0.5396 -0.6440 -0.0245
  949SOL    HW2 3568   2.503   6.149   2.163 -0.7650 -2.7919  0.4265
  949SOL    HW3 3569   2.629   6.065   2.159  0.8617 -0.4218  0.0618
  949SOL    MW4 3570   2.573   6.116   2.202  0.4100 -0.8981  0.0464
  950SOL     OW 3571   2.526   2.803   3.060 -0.2406  0.8236 -0.0977
  950SOL    HW2 3572   2.605   2.760   3.029  0.3210  0.7231  1.3808
  950SOL    HW3 3573   2.475   2.733   3.101 -0.6600  1.0613 -0.2000
  950SOL    MW4 3574   2.530   2.788   3.062 -0.2219  0.8417  0.0839
  951SOL     OW 3575   1.884   4.227   6.360  0.3326  0.5302  0.1307
  951SOL    HW2 3576   1.872   4.160   6.293  1.6771 -0.8549  1.1888
  951SOL    HW3 3577   1.795   4.256   6.381 -0.2501 -0.5780 -0.6860
  951SOL    MW4 3578   1.871   4.222   6.354  0.4331  0.2013  0.1625
  952SOL     OW 3579   6.330   5.777   5.898  0.2974  0.6707 -0.2140
  952SOL    HW2 3580   6.275   5.699   5.901  1.7441 -0.4177 -1.0007
  952SOL    HW3 3581   6.348   5.797   5.990 -1.2909  1.0011  0.0589
  952SOL    MW4 3582   6.325   5.770   5.911  0.2787  0.5707 -0.2818
  953SOL     OW 3583   1.916   5.881   0.729  0.3173  0.6053  0.1314
  953SOL    HW2 3584   1.933   5.922   0.814  0.8869  0.8774 -0.1095
  953SOL    HW3 3585   2.003   5.858   0.696  0.0120 -0.9512  0.3378
  953SOL    MW4 3586   1.930   5.883   0.736  0.3522  0.4358  0.1269
  954SOL     OW 3587   0.717   3.992   0.141  0.5468 -0.1076  1.0267
  954SOL    HW2 3588   0.653   4.005   0.072  1.3893 -1.0574  0.0320
  954SOL    HW3 3589   0.704   4.066   0.201  0.3833  1.2194 -0.6029
  954SOL    MW4 3590   0.707   4.004   0.140  0.6364 -0.0578  0.6804
  955SOL     OW 3591   2.693   4.726   5.636 -0.0760  0.6419  0.4238
  955SOL    HW2 3592   2.709   4.777   5.556  4.2769 -1.4005 -0.3149
  955SOL    HW3 3593   2.744   4.771   5.703  1.9442 -1.3068  0.2939
  955SOL    MW4 3594   2.702   4.739   5.634  0.7648  0.1153  0.3092
  956SOL     OW 3595   1.889   4.826   2.227 -0.0254  0.3304  0.3559
  956SOL    HW2 3596   1.821   4.805   2.292 -1.7251  0.3250 -1.3507
  956SOL    HW3 3597   1.841   4.840   2.146  2.0232  0.5982 -0.8678
  956SOL    MW4 3598   1.873   4.825   2.225  0.0206  0.3651 -0.0307
  957SOL     OW 3599   2.921   3.577   3.167 -0.6503  0.0164 -0.1401
  957SOL    HW2 3600   2.954   3.646   3.224  2.8686  1.4806 -3.4865
  957SOL    HW3 3601   2.985   3.507   3.174  0.0853  0.3787 -2.3892
  957SOL    MW4 3602   2.934   3.577   3.175 -0.0890  0.2574 -0.8783
  958SOL     OW 3603   4.924   5.330   2.614 -0.1010 -0.4464  0.3010
  958SOL    HW2 3604   4.945   5.271   2.687 -0.6977  0.9815  1.6732
  958SOL    HW3 3605   4.841   5.371   2.639 -1.0643 -0.9404 -1.8545
  958SOL    MW4 3606   4.916   5.327   2.627 -0.3068 -0.3232  0.1977
  959SOL     OW 3607   4.596   2.812   4.753  0.3562  0.4776 -0.4914
  959SOL    HW2 3608   4.554   2.740   4.800  1.2645  1.2263  1.5787
  959SOL    HW3 3609   4.664   2.770   4.699  0.4487 -0.2762  0.2027
  959SOL    MW4 3610   4.600   2.797   4.752  0.4882  0.4769 -0.1267
  960SOL     OW 3611   4.579   4.155   0.237 -0.0730 -0.5385  0.2659
  960SOL    HW2 3612   4.526   4.234   0.229  1.2125  0.5063  1.4599
  960SOL    HW3 3613   4.531   4.088   0.189 -2.4304  0.3477  1.2679
  960SOL    MW4 3614   4.566   4.157   0.230 -0.2144 -0.2837  0.5556
  961SOL     OW 3615   3.752   1.083   4.173 -0.7231  0.1997  0.1660
  961SOL    HW2 3616   3.796   1.099   4.256  2.8458 -1.9494 -1.0725
  961SOL    HW3 3617   3.790   1.147   4.113  1.7271 -2.2522 -1.1404
  961SOL    MW4 3618   3.763   1.094   4.176  0.0710 -0.4073 -0.1698
  962SOL     OW 3619   4.328   0.190   1.294 -0.5229 -0.5093  0.7171
  962SOL    HW2 3620   4.348   0.109   1.342 -1.6950 -0.2746  1.6604
  962SOL    HW3 3621   4.275   0.162   1.220  0.1022 -0.7297  0.3503
  962SOL    MW4 3622   4.324   0.176   1.291 -0.5951 -0.5074  0.7931
  963SOL     OW 3623   3.454   0.942   0.948  0.0971  0.4422  0.3511
  963SOL    HW2 3624   3.472   1.028   0.911  0.6527 -0.1706 -0.8503
  963SOL    HW3 3625   3.488   0.946   1.037  0.0203  1.4855  0.3469
  963SOL    MW4 3626   3.461   0.954   0.955  0.1603  0.4990  0.1920
  964SOL     OW 3627   1.836   4.869   0.593  0.1786 -0.0053  0.2133
  964SOL    HW2 3628   1.756   4.817   0.602 -0.1428  0.4584  0.1104
  964SOL    HW3 3629   1.826   4.914   0.509  0.7997 -0.3615 -0.0496
  964SOL    MW4 3630   1.824   4.868   0.583  0.2181  0.0089  0.1650
  965SOL     OW 3631   1.685   0.029   0.360 -0.0622 -0.3672 -0.0267
  965SOL    HW2 3632   1.774   0.060   0.342 -0.8095  1.2331 -1.2154
  965SOL    HW3 3633   1.688   0.001   0.451  1.2354  1.3880  0.5445
  965SOL    MW4 3634   1.697   0.030   0.370  0.0104  0.0755 -0.1082
  966SOL     OW 3635   5.565   5.508   2.213 -0.5422  0.1217  0.2613
  966SOL    HW2 3636   5.571   5.433   2.273  0.8533 -0.1301 -0.1397
  966SOL    HW3 3637   5.477   5.543   2.226 -0.7091 -0.6981  1.5306
  966SOL    MW4 3638   5.554   5.503   2.223 -0.3801 -0.0197  0.3758
  967SOL     OW 3639   5.093   2.034   6.401  0.3987 -0.3144 -0.0674
  967SOL    HW2 3640   5.162   2.051   6.336  0.9499  0.8647  0.7931
  967SOL    HW3 3641   5.088   2.114   6.452 -1.3445 -0.5420  0.1716
  967SOL    MW4 3642   5.102   2.047   6.399  0.2414 -0.1889  0.0777
  968SOL     OW 3643   6.430   1.211   4.224 -0.6816 -0.1665 -0.6648
  968SOL    HW2 3644   6.446   1.299   4.258 -1.0831 -0.7748  1.2345
  968SOL    HW3 3645   6.511   1.186   4.180  0.8006 -0.2225  1.9556
  968SOL    MW4 3646   6.443   1.220   4.222 -0.5390 -0.2541 -0.0685
  969SOL     OW 3647   1.561   2.397   4.852  0.1688 -0.0919 -0.1925
  969SOL    HW2 3648   1.492   2.393   4.919 -0.4830 -1.9333 -0.9027
  969SOL    HW3 3649   1.595   2.486   4.859 -1.7702  0.6616  0.6997
  969SOL    MW4 3650   1.556   2.408   4.862 -0.1731 -0.2354 -0.1685
  970SOL     OW 3651   6.081   2.008   2.358 -0.2279  0.4539  0.1379
  970SOL    HW2 3652   6.086   1.932   2.300  0.9065 -0.1915  1.0452
  970SOL    HW3 3653   6.126   2.078   2.310 -2.0600  0.8607 -1.0915
  970SOL    MW4 3654   6.088   2.007   2.344 -0.3200  0.4224  0.0954
  971SOL     OW 3655   4.152   1.128   2.505 -0.0140 -0.1022 -0.4816
  971SOL    HW2 3656   4.172   1.052   2.451  0.4513 -0.6320  0.4195
  971SOL    HW3 3657   4.236   1.173   2.516 -0.2163  0.3336 -0.6875
  971SOL    MW4 3658   4.166   1.124   2.499  0.0207 -0.1146 -0.3899
  972SOL     OW 3659   5.140   3.738   4.907  0.3965 -0.2551 -0.2581
  972SOL    HW2 3660   5.140   3.768   4.816 -1.2427 -0.0042 -0.2106
  972SOL    HW3 3661   5.129   3.643   4.901  0.2582 -0.2350 -0.3256
  972SOL    MW4 3662   5.138   3.729   4.894  0.1620 -0.2194 -0.2607
  973SOL     OW 3663   6.343   1.979   1.268 -0.2717 -0.0092 -0.2124
  973SOL    HW2 3664   6.318   1.952   1.180  0.3232 -1.2418 -0.0231
  973SOL    HW3 3665   6.402   2.053   1.255 -0.0793 -0.2696 -0.8607
  973SOL    MW4 3666   6.347   1.985   1.255 -0.1679 -0.2062 -0.2729
  974SOL     OW 3667   2.577   1.333   4.051  0.4224  0.0340 -0.1743
  974SOL    HW2 3668   2.553   1.344   3.959 -0.6164 -0.0824  0.0755
  974SOL    HW3 3669   2.660   1.284   4.048  0.0969 -0.4949 -1.0314
  974SOL    MW4 3670   2.585   1.328   4.038  0.2424 -0.0511 -0.2544
  975SOL     OW 3671   4.361   5.977   2.425 -0.9680  0.6011 -0.4374
  975SOL    HW2 3672   4.267   5.970   2.441 -1.1240  1.6021 -0.8439
  975SOL    HW3 3673   4.377   6.071   2.416 -0.4793  0.3267 -3.5296
  975SOL    MW4 3674   4.351   5.989   2.426 -0.9241  0.6969 -0.8990
  976SOL     OW 3675   6.266   5.901   4.881 -0.7777 -0.3261  0.2272
  976SOL    HW2 3676   6.220   5.974   4.840  0.6558 -0.0356 -0.9388
  976SOL    HW3 3677   6.197   5.837   4.900 -2.0400  1.1899  1.0846
  976SOL    MW4 3678   6.251   5.902   4.878 -0.7551 -0.0877  0.1865
  977SOL     OW 3679   5.880   3.205   2.337 -0.2704 -0.1629  0.2549
  977SOL    HW2 3680   5.898   3.116   2.368  1.4317 -0.3172 -1.0390
  977SOL    HW3 3681   5.835   3.247   2.410  1.2921 -1.2769  1.9464
  977SOL    MW4 3682   5.876   3.199   2.351  0.1603 -0.3303  0.3074
  978SOL     OW 3683   5.076   2.684   3.260  0.3647  0.6300 -0.3949
  978SOL    HW2 3684   5.112   2.670   3.173  0.7571 -0.3477 -0.0957
  978SOL    HW3 3685   5.151   2.706   3.315  0.2330  0.4847 -0.1511
  978SOL    MW4 3686   5.090   2.685   3.256  0.3991  0.4819 -0.3232
  979SOL     OW 3687   5.389   3.737   2.393  0.0260  0.6316 -0.1590
  979SOL    HW2 3688   5.427   3.734   2.481 -0.0603 -2.2526 -0.1067
  979SOL    HW3 3689   5.296   3.716   2.407 -0.2071  1.1789 -0.8487
  979SOL    MW4 3690   5.381   3.734   2.407 -0.0162  0.3233 -0.2431
  980SOL     OW 3691   1.115   2.947   5.356 -0.7100 -1.0198 -0.5851
  980SOL    HW2 3692   1.065   3.019   5.318  0.5799 -0.4995 -1.3450
  980SOL    HW3 3693   1.155   2.904   5.281 -0.7882 -2.0220 -0.0662
  980SOL    MW4 3694   1.114   2.951   5.341 -0.5501 -1.0834 -0.6169
  981SOL     OW 3695   3.844   5.449   1.259  0.5639  0.4714  0.5923
  981SOL    HW2 3696   3.829   5.356   1.278  1.3948 -0.1446 -1.5021
  981SOL    HW3 3697   3.886   5.483   1.338  0.3907 -0.9715  1.3349
  981SOL    MW4 3698   3.847   5.441   1.272  0.6507  0.1998  0.4139
  982SOL     OW 3699   5.285   5.096   4.310  0.5419  0.3483 -0.1698
  982SOL    HW2 3700   5.334   5.028   4.263  1.1600  0.0372  0.9007
  982SOL    HW3 3701   5.249   5.151   4.241  1.7551  0.1281 -1.0078
  982SOL    MW4 3702   5.287   5.094   4.295  0.7835  0.2782 -0.1391
  983SOL     OW 3703   5.519   1.832   0.045  0.6817 -0.0439  0.1304
  983SOL    HW2 3704   5.595   1.889   0.052  0.2922  0.6967 -1.3739
  983SOL    HW3 3705   5.544   1.764  -0.017  0.9149 -1.1930  1.4281
  983SOL    MW4 3706   5.532   1.831   0.038  0.6610 -0.0978  0.1031
  984SOL     OW 3707   3.592   3.566   2.345 -0.0506  0.7546 -0.1076
  984SOL    HW2 3708   3.575   3.612   2.427  0.7539  1.1041 -0.1224
  984SOL    HW3 3709   3.637   3.486   2.371  0.1059  0.8120 -0.2016
  984SOL    MW4 3710   3.596   3.562   2.359  0.0762  0.8083 -0.1220
  985SOL     OW 3711   0.460   5.673   5.274  0.3103 -0.6678  0.2032
  985SOL    HW2 3712   0.519   5.716   5.213  3.7618 -1.5699  2.6212
  985SOL    HW3 3713   0.377   5.721   5.265  1.7757  1.6843 -2.3089
  985SOL    MW4 3714   0.457   5.685   5.265  0.9590 -0.4765  0.1908
  986SOL     OW 3715   0.676   1.217   3.065  0.5040 -0.2118  0.8551
  986SOL    HW2 3716   0.681   1.144   3.127 -3.9641 -1.8724 -0.4096
  986SOL    HW3 3717   0.609   1.275   3.102 -0.0418  0.3360 -0.9222
  986SOL    MW4 3718   0.668   1.215   3.078 -0.1575 -0.3586  0.4537
  987SOL     OW 3719   6.325   5.224   6.324  0.3388 -0.3669  0.3063
  987SOL    HW2 3720   6.305   5.211   6.417 -2.4084 -1.8046 -0.3677
  987SOL    HW3 3721   6.301   5.315   6.307 -0.9689 -0.6254  0.6481
  987SOL    MW4 3722   6.319   5.234   6.334 -0.1962 -0.5907  0.2624
  988SOL     OW 3723   0.090   3.362   3.820  0.2104  0.0309 -0.2265
  988SOL    HW2 3724   0.135   3.446   3.829  2.6697 -1.1695 -0.6376
  988SOL    HW3 3725   0.117   3.330   3.734  0.6760 -1.9157  0.6011
  988SOL    MW4 3726   0.099   3.369   3.809  0.5963 -0.3843 -0.1715
  989SOL     OW 3727   0.212   1.705   3.630 -0.2451  0.7465 -0.2556
  989SOL    HW2 3728   0.198   1.792   3.594 -0.1524  0.9504  0.1955
  989SOL    HW3 3729   0.182   1.645   3.562 -0.7698  1.1367 -0.3661
  989SOL    MW4 3730   0.206   1.708   3.616 -0.3021  0.8249 -0.2107
  990SOL     OW 3731   5.966   0.131   1.764  0.4500  0.8330 -0.1199
  990SOL    HW2 3732   6.038   0.172   1.812 -0.0057  1.4058  0.0891
  990SOL    HW3 3733   5.963   0.179   1.681  0.5453  0.5585 -0.2836
  990SOL    MW4 3734   5.975   0.143   1.760  0.4024  0.8724 -0.1139
  991SOL     OW 3735   0.508   2.411   4.275 -0.0939 -0.1597  0.1719
  991SOL    HW2 3736   0.452   2.489   4.280  1.3853  0.8385  2.2526
  991SOL    HW3 3737   0.450   2.339   4.301 -1.1338  0.4169 -0.4674
  991SOL    MW4 3738   0.493   2.412   4.279 -0.0359  0.0481  0.3621
  992SOL     OW 3739   3.024   3.030   2.508 -0.5974  0.3481 -0.1923
  992SOL    HW2 3740   2.997   3.120   2.527  1.4085  1.2414 -1.2827
  992SOL    HW3 3741   3.067   3.001   2.588 -0.3217  0.7529 -0.1889
  992SOL    MW4 3742   3.026   3.038   2.521 -0.2963  0.5193 -0.3357
  993SOL     OW 3743   4.894   6.165   3.316 -0.4874 -0.2279 -0.2355
  993SOL    HW2 3744   4.866   6.229   3.249 -1.1805  0.7629  0.9552
  993SOL    HW3 3745   4.825   6.100   3.317  0.6228 -1.5443 -2.0523
  993SOL    MW4 3746   4.881   6.165   3.307 -0.4324 -0.2708 -0.3181
  994SOL     OW 3747   5.396   5.172   1.394 -0.5557  0.4082 -0.2857
  994SOL    HW2 3748   5.441   5.245   1.436 -1.0098  0.3303  0.3532
  994SOL    HW3 3749   5.405   5.100   1.456  1.6220 -0.6958 -1.7651
  994SOL    MW4 3750   5.403   5.172   1.408 -0.3283  0.2523 -0.3966
  995SOL     OW 3751   0.273   5.810   4.865  0.2944 -0.2479  0.1859
  995SOL    HW2 3752   0.292   5.895   4.824  1.7241 -1.2265 -1.2847
  995SOL    HW3 3753   0.206   5.830   4.930  2.3405  2.4775  1.6590
  995SOL    MW4 3754   0.267   5.824   4.868  0.7530 -0.0174  0.1863
  996SOL     OW 3755   2.643   2.583   1.513  0.8607  0.4877 -0.3589
  996SOL    HW2 3756   2.671   2.640   1.585 -1.1264  1.4162 -0.2793
  996SOL    HW3 3757   2.608   2.642   1.447 -0.1001 -0.5511 -0.8131
  996SOL    MW4 3758   2.642   2.598   1.514  0.4717  0.4732 -0.4083
  997SOL     OW 3759   6.248   5.050   4.597 -0.2484  0.7203 -0.1480
  997SOL    HW2 3760   6.330   5.027   4.639  0.4259  2.1765 -0.6025
  997SOL    HW3 3761   6.193   5.082   4.669 -0.2894  0.1154  0.0960
  997SOL    MW4 3762   6.251   5.051   4.612 -0.1649  0.8327 -0.1758
  998SOL     OW 3763   5.155   0.147   3.775  0.0305 -0.5205 -1.1893
  998SOL    HW2 3764   5.181   0.216   3.713  1.5090 -0.3672 -0.4341
  998SOL    HW3 3765   5.216   0.076   3.759 -0.8363 -1.2640 -1.2444
  998SOL    MW4 3766   5.166   0.147   3.765  0.1112 -0.5984 -1.0969
  999SOL     OW 3767   1.492   3.485   0.823 -0.6925  0.3336 -0.3470
  999SOL    HW2 3768   1.559   3.499   0.756  0.1257 -0.4182  0.2972
  999SOL    HW3 3769   1.413   3.523   0.785 -0.0211  0.8142 -1.3237
  999SOL    MW4 3770   1.491   3.492   0.809 -0.4960  0.2978 -0.3909
 1000SOL     OW 3771   1.082   0.267   0.110 -0.6089  0.6487 -0.2107
 1000SOL    HW2 3772   1.150   0.330   0.084 -0.3851  0.7972  0.6830
 1000SOL    HW3 3773   1.096   0.255   0.204 -2.4153  1.4261  0.2035
 1000SOL    MW4 3774   1.093   0.274   0.119 -0.8177  0.7709 -0.0381
 1001SOL     OW 3775   1.045   1.398   3.677 -0.0586  0.0901 -0.6343
 1001SOL    HW2 3776   1.130   1.434   3.653  0.7021 -0.8165  0.6058
 1001SOL    HW3 3777   1.025   1.437   3.762  0.6877 -2.1570  0.6421
 1001SOL    MW4 3778   1.053   1.408   3.685  0.1402 -0.3260 -0.3023
 1002SOL     OW 3779   1.008   3.438   5.807  0.4379 -0.0279 -0.1340
 1002SOL    HW2 3780   1.074   3.369   5.809 -0.1614 -0.5873  0.5927
 1002SOL    HW3 3781   0.950   3.419   5.881 -0.5235  0.4687 -0.7392
 1002SOL    MW4 3782   1.009   3.426   5.817  0.2320 -0.0362 -0.1180
 1003SOL     OW 3783   2.372   2.481   3.787 -0.0988  0.5511  0.0259
 1003SOL    HW2 3784   2.466   2.467   3.784 -0.3351 -1.0527 -0.5350
 1003SOL    HW3 3785   2.363   2.576   3.794  1.5313  0.8478 -1.2503
 1003SOL    MW4 3786   2.383   2.492   3.788  0.0851  0.3786 -0.2165
 1004SOL     OW 3787   1.702   1.200   2.122 -0.5485  0.0551 -0.0453
 1004SOL    HW2 3788   1.762   1.275   2.127  1.2887 -1.1870 -1.8894
 1004SOL    HW3 3789   1.688   1.175   2.213  2.3223  0.0311  0.5050
 1004SOL    MW4 3790   1.708   1.207   2.135  0.0726 -0.1119 -0.2160
 1005SOL     OW 3791   2.633   0.566   6.227 -0.1004  0.8435 -0.1528
 1005SOL    HW2 3792   2.653   0.535   6.139  1.4775  1.3240  0.0124
 1005SOL    HW3 3793   2.657   0.493   6.285  0.6156  1.1848 -0.0034
 1005SOL    MW4 3794   2.639   0.552   6.223  0.2023  0.9519 -0.1113
 1006SOL     OW 3795   0.338   2.669   5.733 -0.1091  0.2428 -0.2244
 1006SOL    HW2 3796   0.342   2.761   5.706 -0.6925  0.3876  0.1776
 1006SOL    HW3 3797   0.319   2.622   5.652  0.0579  0.4902 -0.4091
 1006SOL    MW4 3798   0.336   2.675   5.718 -0.1641  0.2946 -0.1957
 1007SOL     OW 3799   0.426   5.024   1.682 -0.0808  0.2731  0.2173
 1007SOL    HW2 3800   0.365   4.955   1.658  0.0587  0.5862 -1.0784
 1007SOL    HW3 3801   0.412   5.094   1.618  0.9723  0.7382  0.4571
 1007SOL    MW4 3802   0.416   5.024   1.671  0.0765  0.3758  0.0780
 1008SOL     OW 3803   4.995   1.737   2.336 -0.0349  0.5374 -0.2646
 1008SOL    HW2 3804   4.900   1.750   2.332  0.0547  1.8965  1.0962
 1008SOL    HW3 3805   5.032   1.809   2.285  0.2752 -0.1072 -0.9684
 1008SOL    MW4 3806   4.987   1.748   2.329  0.0178  0.6317 -0.1779
 1009SOL     OW 3807   2.942   5.459   0.016  0.3934  0.6192  0.2897
 1009SOL    HW2 3808   2.869   5.518   0.037 -0.9938 -0.6613 -0.6955
 1009SOL    HW3 3809   2.952   5.405   0.095  1.2005  1.6512  0.9256
 1009SOL    MW4 3810   2.934   5.460   0.029  0.3169  0.5864  0.2436
 1010SOL     OW 3811   1.669   3.687   2.986  0.3486 -0.2884 -0.5197
 1010SOL    HW2 3812   1.736   3.673   2.919  0.7116 -0.8888 -0.0401
 1010SOL    HW3 3813   1.594   3.637   2.957  1.4770 -3.0415  0.9512
 1010SOL    MW4 3814   1.668   3.679   2.974  0.5454 -0.7308 -0.2624
 1011SOL     OW 3815   4.125   5.776   2.963 -0.4026  0.1999 -0.0484
 1011SOL    HW2 3816   4.167   5.852   3.004 -0.3339 -0.9696  2.2562
 1011SOL    HW3 3817   4.042   5.768   3.009  0.0497 -1.7051  0.5353
 1011SOL    MW4 3818   4.120   5.785   2.975 -0.3339 -0.2057  0.3327
 1012SOL     OW 3819   3.901   3.302   3.582  0.3849  0.2018  0.0955
 1012SOL    HW2 3820   3.819   3.352   3.571  0.8557  0.9276 -0.1881
 1012SOL    HW3 3821   3.945   3.345   3.656  0.3296 -0.4439  0.5091
 1012SOL    MW4 3822   3.896   3.315   3.591  0.4397  0.2124  0.1127
 1013SOL     OW 3823   0.745   4.211   6.235  0.9103  0.8445 -0.2139
 1013SOL    HW2 3824   0.704   4.226   6.150  1.7032 -1.2444 -1.0172
 1013SOL    HW3 3825   0.816   4.150   6.217  0.9330  0.1354  2.0063
 1013SOL    MW4 3826   0.749   4.205   6.222  1.0179  0.4753 -0.0269
 1014SOL     OW 3827   4.685   6.064   2.283 -0.0677 -0.6478  0.0366
 1014SOL    HW2 3828   4.713   5.979   2.249 -0.8321 -1.2438  0.8174
 1014SOL    HW3 3829   4.756   6.093   2.339 -0.4001 -1.4792  0.9096
 1014SOL    MW4 3830   4.698   6.056   2.286 -0.2124 -0.8361  0.2548
 1015SOL     OW 3831   3.828   6.303   2.303  0.1913 -0.0573  0.6497
 1015SOL    HW2 3832   3.890   6.258   2.246  0.4805  0.3866  0.6133
 1015SOL    HW3 3833   3.848   6.271   2.391 -0.0735 -0.5328  0.5407
 1015SOL    MW4 3834   3.839   6.293   2.307  0.1945 -0.0614  0.6305
 1016SOL     OW 3835   5.720   5.503   1.978  0.2778  0.4340  0.3554
 1016SOL    HW2 3836   5.675   5.500   2.063 -0.2525  1.6242  0.1443
 1016SOL    HW3 3837   5.728   5.412   1.951 -1.5971  0.1488  0.6370
 1016SOL    MW4 3838   5.715   5.491   1.986 -0.0396  0.5534  0.3647
 1017SOL     OW 3839   5.890   0.173   2.282 -0.1480  0.1129 -0.3457
 1017SOL    HW2 3840   5.899   0.268   2.272 -2.6012  0.4407 -0.1323
 1017SOL    HW3 3841   5.831   0.147   2.212 -0.3304 -1.0928  0.2276
 1017SOL    MW4 3842   5.883   0.182   2.272 -0.4958 -0.0029 -0.2419
 1018SOL     OW 3843   3.602   4.912   5.458 -0.2373  0.0366 -0.0218
 1018SOL    HW2 3844   3.614   4.944   5.547  1.3436  0.6285 -0.4143
 1018SOL    HW3 3845   3.518   4.865   5.460 -0.5342  0.5821  1.6017
 1018SOL    MW4 3846   3.592   4.910   5.470 -0.0679  0.1867  0.1406
 1019SOL     OW 3847   2.232   0.594   4.677  0.1517  0.7669 -0.0709
 1019SOL    HW2 3848   2.251   0.505   4.709 -3.0568 -0.3413 -0.8460
 1019SOL    HW3 3849   2.318   0.631   4.657  1.6716 -1.8987  0.9329
 1019SOL    MW4 3850   2.246   0.587   4.679 -0.0711  0.2690 -0.0408
 1020SOL     OW 3851   2.382   5.273   4.749 -0.8444  0.0862  0.2702
 1020SOL    HW2 3852   2.353   5.227   4.670  2.6691 -0.9239 -0.5697
 1020SOL    HW3 3853   2.378   5.365   4.725 -1.2913 -0.1194 -0.5036
 1020SOL    MW4 3854   2.377   5.279   4.736 -0.4398 -0.0742  0.0573
 1021SOL     OW 3855   4.388   2.078   3.903  0.4447  0.4871  0.0298
 1021SOL    HW2 3856   4.396   2.074   3.998 -1.2052 -1.2994  0.1596
 1021SOL    HW3 3857   4.421   2.164   3.879 -0.0171  1.3528  2.3229
 1021SOL    MW4 3858   4.394   2.089   3.912  0.1661  0.3656  0.3495
 1022SOL     OW 3859   6.219   0.268   0.724  0.2219  0.2931  0.2976
 1022SOL    HW2 3860   6.299   0.261   0.777  0.4609  0.1159 -0.0839
 1022SOL    HW3 3861   6.196   0.177   0.704  1.2808  0.3826 -1.6118
 1022SOL    MW4 3862   6.226   0.255   0.728  0.3931  0.2815 -0.0047
 1023SOL     OW 3863   2.887   0.167   2.271  0.2750 -0.5064  0.0533
 1023SOL    HW2 3864   2.897   0.092   2.212  0.6773 -0.8996  0.6159
 1023SOL    HW3 3865   2.842   0.131   2.347 -0.3940  0.0359 -0.0777
 1023SOL    MW4 3866   2.882   0.152   2.273  0.2398 -0.4867  0.1102
 1024SOL     OW 3867   3.963   4.950   0.980  0.0064  0.0388  0.2720
 1024SOL    HW2 3868   3.914   5.019   1.026 -0.5469 -0.5747  0.6094
 1024SOL    HW3 3869   4.049   4.989   0.963 -0.4609  0.9950  0.0154
 1024SOL    MW4 3870   3.968   4.965   0.984 -0.1282  0.0840  0.2827
 1025SOL     OW 3871   0.642   1.213   3.461 -0.0621 -0.0312  0.0346
 1025SOL    HW2 3872   0.728   1.174   3.446 -0.9768 -1.6294 -1.3761
 1025SOL    HW3 3873   0.622   1.193   3.552  0.4123 -0.9750 -0.0590
 1025SOL    MW4 3874   0.651   1.205   3.471 -0.1202 -0.3666 -0.1638
 1026SOL     OW 3875   3.316   2.531   5.030  0.0945 -0.4733 -0.2120
 1026SOL    HW2 3876   3.257   2.576   5.090  2.2601  0.9025  1.0026
 1026SOL    HW3 3877   3.298   2.438   5.045 -1.8365 -0.1251 -0.0370
 1026SOL    MW4 3878   3.306   2.525   5.040  0.1254 -0.2458 -0.0287
 1027SOL     OW 3879   3.369   1.416   4.979  0.2501 -0.0357  0.0151
 1027SOL    HW2 3880   3.325   1.353   5.036 -0.7703  2.0224  1.6127
 1027SOL    HW3 3881   3.299   1.449   4.923 -0.1898  2.5582  1.9214
 1027SOL    MW4 3882   3.354   1.412   4.979  0.0574  0.5780  0.4774
 1028SOL     OW 3883   5.839   1.032   2.985  0.3217 -0.1374 -0.4895
 1028SOL    HW2 3884   5.905   0.968   3.010 -0.9620 -1.5663 -0.5854
 1028SOL    HW3 3885   5.762   0.980   2.962 -1.1774  1.4666  0.5634
 1028SOL    MW4 3886   5.837   1.017   2.985 -0.0454 -0.1143 -0.3633
 1029SOL     OW 3887   2.312   5.068   6.180 -0.2748  0.0618  0.5588
 1029SOL    HW2 3888   2.343   5.072   6.089 -1.2001 -1.0196  0.1585
 1029SOL    HW3 3889   2.391   5.073   6.233  0.4928 -1.3767 -0.3857
 1029SOL    MW4 3890   2.327   5.069   6.175 -0.2956 -0.2706  0.3814
 1030SOL     OW 3891   5.201   1.795   3.340  0.2705  0.1572  0.1538
 1030SOL    HW2 3892   5.128   1.733   3.338  0.2128  0.2306 -1.8191
 1030SOL    HW3 3893   5.278   1.743   3.317  1.0456 -0.0780  2.9244
 1030SOL    MW4 3894   5.202   1.780   3.336  0.3652  0.1358  0.2591
 1031SOL     OW 3895   2.550   5.413   5.791 -0.2280 -0.8219  0.4745
 1031SOL    HW2 3896   2.607   5.416   5.868 -0.4703 -0.8204  0.6558
 1031SOL    HW3 3897   2.466   5.445   5.822 -0.3396 -0.8605  0.2170
 1031SOL    MW4 3898   2.547   5.417   5.805 -0.2747 -0.8268  0.4644
 1032SOL     OW 3899   4.765   2.129   4.152  0.3744 -0.1040  0.4797
 1032SOL    HW2 3900   4.734   2.158   4.237  1.7313  1.1838  0.5740
 1032SOL    HW3 3901   4.719   2.047   4.136  0.8913 -0.9632  2.9643
 1032SOL    MW4 3902   4.755   2.122   4.161  0.6216 -0.0475  0.8200
 1033SOL     OW 3903   2.204   2.043   5.804  0.3688 -0.1548 -0.6967
 1033SOL    HW2 3904   2.230   2.130   5.774 -1.8785  0.0765 -2.2663
 1033SOL    HW3 3905   2.186   2.055   5.898 -0.1563  1.1871 -0.9309
 1033SOL    MW4 3906   2.205   2.056   5.812  0.0030  0.0527 -0.9347
 1034SOL     OW 3907   4.964   5.715   2.355 -0.1955 -0.4635  0.5405
 1034SOL    HW2 3908   5.051   5.755   2.352 -0.0655 -0.8005 -0.3980
 1034SOL    HW3 3909   4.974   5.631   2.310 -1.3168  0.1167 -0.9011
 1034SOL    MW4 3910   4.977   5.709   2.349 -0.3263 -0.4314  0.2265
 1035SOL     OW 3911   5.868   4.115   5.703  0.0059 -0.7460 -0.9945
 1035SOL    HW2 3912   5.885   4.100   5.610  0.6076 -1.2056 -0.8201
 1035SOL    HW3 3913   5.949   4.087   5.746 -0.3974 -0.8610 -0.3083
 1035SOL    MW4 3914   5.881   4.109   5.696  0.0321 -0.8218 -0.8810
 1036SOL     OW 3915   4.381   1.649   6.328  0.4032 -0.2714 -0.0410
 1036SOL    HW2 3916   4.406   1.738   6.355  0.8077 -0.6643  0.9263
 1036SOL    HW3 3917   4.294   1.637   6.367  0.5324 -0.4490  0.1966
 1036SOL    MW4 3918   4.373   1.659   6.337  0.4736 -0.3467  0.1180
 1037SOL     OW 3919   4.813   1.646   4.348 -0.2183  0.1149 -0.6168
 1037SOL    HW2 3920   4.830   1.553   4.365 -0.9164 -0.5130 -2.9609
 1037SOL    HW3 3921   4.899   1.688   4.354  0.2947 -0.9008 -0.6769
 1037SOL    MW4 3922   4.827   1.639   4.351 -0.2427 -0.1019 -0.9340
 1038SOL     OW 3923   2.247   5.705   1.903 -0.1392  0.0763 -0.5856
 1038SOL    HW2 3924   2.221   5.659   1.983  0.6827  0.1588 -0.2624
 1038SOL    HW3 3925   2.268   5.636   1.841 -1.4558 -0.0030 -0.9875
 1038SOL    MW4 3926   2.246   5.690   1.906 -0.2045  0.0768 -0.5960
 1039SOL     OW 3927   2.501   4.457   2.182  0.4467  0.9805  0.4697
 1039SOL    HW2 3928   2.416   4.412   2.179  1.1523 -0.3716 -2.2492
 1039SOL    HW3 3929   2.541   4.427   2.264 -0.3875 -0.9377  0.2306
 1039SOL    MW4 3930   2.495   4.447   2.193  0.4298  0.5490  0.0794
 1040SOL     OW 3931   4.022   1.874   2.145  0.0270 -0.0329  0.3822
 1040SOL    HW2 3932   3.984   1.865   2.232 -1.6250  0.8952 -0.2022
 1040SOL    HW3 3933   4.105   1.919   2.160  0.5712 -1.3663  1.6126
 1040SOL    MW4 3934   4.028   1.879   2.159 -0.1192 -0.0864  0.4674
 1041SOL     OW 3935   5.487   2.025   4.827 -0.2967  0.0862 -0.0228
 1041SOL    HW2 3936   5.447   2.026   4.914  0.7694 -0.6597  0.5005
 1041SOL    HW3 3937   5.519   2.115   4.815 -0.7150  0.2721  0.2257
 1041SOL    MW4 3938   5.486   2.037   4.837 -0.2112  0.0123  0.0790
 1042SOL     OW 3939   0.545   3.729   3.648 -0.6480 -0.0806  0.1268
 1042SOL    HW2 3940   0.603   3.742   3.723  0.0799  0.8326 -0.5709
 1042SOL    HW3 3941   0.599   3.688   3.582 -1.6158 -2.0720  0.4980
 1042SOL    MW4 3942   0.560   3.726   3.649 -0.6797 -0.2229  0.0837
 1043SOL     OW 3943   3.893   4.405   0.644  0.0158 -0.6063 -0.0838
 1043SOL    HW2 3944   3.913   4.499   0.644 -1.3243 -0.2941  0.0153
 1043SOL    HW3 3945   3.897   4.379   0.552 -1.7684  0.0801 -0.4026
 1043SOL    MW4 3946   3.896   4.414   0.632 -0.3964 -0.4746 -0.1128
 1044SOL     OW 3947   2.906   4.963   5.385  0.8243 -0.0717 -0.1992
 1044SOL    HW2 3948   2.974   5.029   5.373  1.1251 -0.3245  0.0999
 1044SOL    HW3 3949   2.831   5.013   5.420  2.0284 -0.2852  3.0344
 1044SOL    MW4 3950   2.905   4.979   5.388  1.0229 -0.1332  0.2669
 1045SOL     OW 3951   4.266   0.836   5.604  0.1103 -0.2074  0.2172
 1045SOL    HW2 3952   4.343   0.891   5.590 -0.1794  0.1339 -0.0566
 1045SOL    HW3 3953   4.262   0.826   5.699  1.7416 -2.0561  0.1466
 1045SOL    MW4 3954   4.276   0.842   5.615  0.2873 -0.4063  0.1717
 1046SOL     OW 3955   5.263   1.162   5.638  0.7589  0.0151  0.5357
 1046SOL    HW2 3956   5.184   1.184   5.687  0.6696 -0.6510  0.6868
 1046SOL    HW3 3957   5.296   1.247   5.607 -0.4743  0.2322 -0.2509
 1046SOL    MW4 3958   5.257   1.176   5.640  0.5844 -0.0441  0.4519
 1047SOL     OW 3959   4.189   2.819   3.721  0.0519  0.1940 -0.1857
 1047SOL    HW2 3960   4.111   2.768   3.739  1.4305 -2.3672 -0.9318
 1047SOL    HW3 3961   4.260   2.770   3.762  1.3486  2.2366  0.1688
 1047SOL    MW4 3962   4.188   2.806   3.729  0.4049  0.1256 -0.2374
 1048SOL     OW 3963   1.001   2.246   2.837 -0.6329  0.4499 -0.0856
 1048SOL    HW2 3964   0.920   2.284   2.803 -0.5805  0.9471  0.3421
 1048SOL    HW3 3965   1.029   2.306   2.906 -0.1187  0.0613  0.0493
 1048SOL    MW4 3966   0.994   2.259   2.842 -0.5582  0.4643 -0.0114
 1049SOL     OW 3967   2.709   3.674   3.602 -0.1939 -0.1423  1.0345
 1049SOL    HW2 3968   2.624   3.678   3.644 -0.3439 -1.5069  0.9124
 1049SOL    HW3 3969   2.771   3.659   3.674 -0.0956  0.5026  1.0862
 1049SOL    MW4 3970   2.706   3.673   3.617 -0.2008 -0.2372  1.0252
 1050SOL     OW 3971   4.729   2.158   1.664  0.4983 -0.7714  0.0299
 1050SOL    HW2 3972   4.799   2.116   1.613  2.1695  0.8336  0.8733
 1050SOL    HW3 3973   4.686   2.216   1.601 -0.1910 -1.8204 -0.5106
 1050SOL    MW4 3974   4.733   2.160   1.649  0.6278 -0.6980  0.0699
 1051SOL     OW 3975   3.646   5.219   4.090 -0.1510  0.1244 -0.3568
 1051SOL    HW2 3976   3.703   5.172   4.030  0.4397 -2.7907  2.2710
 1051SOL    HW3 3977   3.682   5.308   4.094  3.2428 -1.1519 -0.0664
 1051SOL    MW4 3978   3.658   5.225   4.082  0.3747 -0.4286  0.0282
 1052SOL     OW 3979   4.545   2.308   5.657  0.1133 -0.0353 -0.5787
 1052SOL    HW2 3980   4.596   2.250   5.600 -1.0479 -2.3530  0.5872
 1052SOL    HW3 3981   4.558   2.272   5.745 -0.7303  1.4653  0.2067
 1052SOL    MW4 3982   4.554   2.296   5.661 -0.1512 -0.1431 -0.3212
 1053SOL     OW 3983   4.579   2.848   0.462  0.1057 -0.0931  0.4557
 1053SOL    HW2 3984   4.487   2.875   0.467  0.3212  0.8605 -0.4252
 1053SOL    HW3 3985   4.613   2.894   0.385  1.0517 -1.2565  0.1527
 1053SOL    MW4 3986   4.571   2.857   0.452  0.2589 -0.1207  0.2995
 1054SOL     OW 3987   2.228   5.217   0.063 -0.0780  0.3689 -0.3799
 1054SOL    HW2 3988   2.239   5.171   0.147  1.2260 -0.3902 -0.9391
 1054SOL    HW3 3989   2.242   5.309   0.085  0.8748  0.1134  0.1536
 1054SOL    MW4 3990   2.231   5.223   0.077  0.2197  0.2351 -0.3833
 1055SOL     OW 3991   4.031   1.598   2.730 -0.4756  0.0806  0.2316
 1055SOL    HW2 3992   4.125   1.604   2.750  0.0217 -0.2372 -1.7587
 1055SOL    HW3 3993   3.988   1.637   2.806  1.1383 -1.7546  2.2467
 1055SOL    MW4 3994   4.038   1.604   2.743 -0.1971 -0.2034  0.2349
 1056SOL     OW 3995   5.703   1.785   4.868  0.1038  0.5841  0.2941
 1056SOL    HW2 3996   5.613   1.817   4.876 -0.1968 -0.0187 -0.4952
 1056SOL    HW3 3997   5.719   1.739   4.951  0.1708  1.8137  0.9897
 1056SOL    MW4 3998   5.693   1.783   4.880  0.0730  0.6668  0.2817
 1057SOL     OW 3999   6.148   5.185   5.189  0.4913 -0.0739 -0.0859
 1057SOL    HW2 4000   6.136   5.150   5.101  0.2935  0.0053 -0.0901
 1057SOL    HW3 4001   6.067   5.164   5.235 -0.2607  1.6408 -0.5193
 1057SOL    MW4 4002   6.136   5.178   5.183  0.3660  0.1628 -0.1436
 1058SOL     OW 4003   2.808   0.076   0.931 -0.2908 -0.8349 -0.3401
 1058SOL    HW2 4004   2.775   0.165   0.923  0.7652 -0.4288 -0.3093
 1058SOL    HW3 4005   2.878   0.069   0.867  0.3117 -1.3162  0.3431
 1058SOL    MW4 4006   2.813   0.087   0.922 -0.0720 -0.8448 -0.2459
 1059SOL     OW 4007   6.043   1.150   2.706  0.0446  0.0369 -0.2692
 1059SOL    HW2 4008   6.010   1.079   2.761  1.5525 -0.8354 -0.4417
 1059SOL    HW3 4009   6.057   1.223   2.767 -3.2256  0.9064 -0.3553
 1059SOL    MW4 4010   6.041   1.150   2.722 -0.1879  0.0366 -0.3033
 1060SOL     OW 4011   1.165   2.040   0.712  0.2194  0.1369  0.3899
 1060SOL    HW2 4012   1.163   2.105   0.782  0.2560  0.0257  0.4943
 1060SOL    HW3 4013   1.258   2.023   0.699  0.2024 -0.0300  0.4877
 1060SOL    MW4 4014   1.177   2.047   0.719  0.2220  0.1003  0.4166
 1061SOL     OW 4015   2.361   3.069   4.245 -0.4461 -0.1879 -0.1946
 1061SOL    HW2 4016   2.270   3.095   4.260 -0.8442 -1.1343 -0.8853
 1061SOL    HW3 4017   2.358   2.974   4.238  0.8294 -0.3823  1.3024
 1061SOL    MW4 4018   2.349   3.060   4.246 -0.3303 -0.3384 -0.0883
 1062SOL     OW 4019   6.410   2.635   0.198  0.1904  0.5495 -0.1742
 1062SOL    HW2 4020   6.371   2.650   0.112 -0.1731 -1.2582 -0.3629
 1062SOL    HW3 4021   6.490   2.585   0.179 -0.4806 -0.8555  0.5886
 1062SOL    MW4 4022   6.416   2.631   0.184  0.0539  0.1256 -0.0985
 1063SOL     OW 4023   0.698   6.102   5.676  0.0711 -0.4463 -0.1160
 1063SOL    HW2 4024   0.655   6.017   5.682 -0.0588 -0.6094 -2.5451
 1063SOL    HW3 4025   0.786   6.082   5.645  0.3205  0.2395  0.1368
 1063SOL    MW4 4026   0.704   6.088   5.673  0.0868 -0.3774 -0.4031
 1064SOL     OW 4027   5.358   5.221   5.907  0.1438  0.0221  0.7715
 1064SOL    HW2 4028   5.408   5.292   5.948 -0.1617  0.3927  0.5087
 1064SOL    HW3 4029   5.413   5.144   5.919  0.9979  0.5000  0.0850
 1064SOL    MW4 4030   5.372   5.220   5.914  0.2161  0.1340  0.6462
 1065SOL     OW 4031   5.601   0.856   0.132  0.0447  0.9525  0.5974
 1065SOL    HW2 4032   5.555   0.821   0.208  0.6451 -0.2616  0.4183
 1065SOL    HW3 4033   5.654   0.927   0.166 -1.4227  1.9446  0.9218
 1065SOL    MW4 4034   5.602   0.861   0.146 -0.0697  0.9232  0.6166
 1066SOL     OW 4035   0.379   4.725   5.696 -0.0478  0.5323 -0.2367
 1066SOL    HW2 4036   0.472   4.731   5.671  0.1895 -0.1951  0.4171
 1066SOL    HW3 4037   0.341   4.667   5.630 -0.0334  0.7822 -0.4700
 1066SOL    MW4 4038   0.387   4.718   5.684 -0.0146  0.4693 -0.1812
 1067SOL     OW 4039   2.129   4.503   3.472  0.1843  0.0491  0.1197
 1067SOL    HW2 4040   2.193   4.444   3.512  0.8197  0.1232 -0.7728
 1067SOL    HW3 4041   2.180   4.576   3.439 -0.1946 -0.4018 -1.5714
 1067SOL    MW4 4042   2.144   4.505   3.473  0.2181 -0.0006 -0.2212
 1068SOL     OW 4043   2.149   3.240   2.357  0.0519 -0.0153 -0.4280
 1068SOL    HW2 4044   2.101   3.260   2.276  0.2677  0.9896 -0.3264
 1068SOL    HW3 4045   2.093   3.179   2.403 -1.3571  1.4170 -0.1361
 1068SOL    MW4 4046   2.136   3.235   2.352 -0.1055  0.3062 -0.3761
 1069SOL     OW 4047   2.670   4.089   4.181 -0.4874 -0.4504 -0.3794
 1069SOL    HW2 4048   2.641   4.134   4.102  1.1020 -0.3364 -0.9362
 1069SOL    HW3 4049   2.590   4.072   4.230 -1.4610 -0.1235 -1.8023
 1069SOL    MW4 4050   2.656   4.092   4.177 -0.4062 -0.3923 -0.6406
 1070SOL     OW 4051   3.653   2.299   1.457  0.2800 -0.3501 -0.6487
 1070SOL    HW2 4052   3.683   2.389   1.449  0.2827 -0.1798  0.8845
 1070SOL    HW3 4053   3.699   2.252   1.388  2.4480  0.3152  0.2645
 1070SOL    MW4 4054   3.663   2.304   1.447  0.5664 -0.2399 -0.3259
 1071SOL     OW 4055   3.870   2.970   2.005 -0.1387 -0.0620  0.1218
 1071SOL    HW2 4056   3.806   3.012   1.947  1.0903  1.4961 -0.1831
 1071SOL    HW3 4057   3.820   2.950   2.085 -1.3283 -0.2077 -0.6248
 1071SOL    MW4 4058   3.855   2.973   2.008 -0.1335  0.1243 -0.0170
 1072SOL     OW 4059   5.372   5.839   4.435  0.6600 -0.3104  0.7349
 1072SOL    HW2 4060   5.348   5.748   4.417 -0.0902 -0.1226  0.7469
 1072SOL    HW3 4061   5.427   5.865   4.361  0.1227 -0.4911  0.2661
 1072SOL    MW4 4062   5.376   5.830   4.423  0.4902 -0.3095  0.6747
 1073SOL     OW 4063   4.408   4.389   0.164  0.1688 -0.2126  0.0139
 1073SOL    HW2 4064   4.449   4.447   0.100  1.2572 -1.8617 -0.8377
 1073SOL    HW3 4065   4.315   4.410   0.158  0.5312  1.5330 -0.1492
 1073SOL    MW4 4066   4.401   4.399   0.155  0.3602 -0.1999 -0.1200
 1074SOL     OW 4067   0.785   6.371   0.052  0.1540  0.2876  0.1540
 1074SOL    HW2 4068   0.699   6.412   0.050  0.6335  1.3093 -0.4232
 1074SOL    HW3 4069   0.817   6.386   0.141  0.3309  1.2075 -0.0583
 1074SOL    MW4 4070   0.778   6.378   0.064  0.2406  0.5438  0.0499
 1075SOL     OW 4071   2.585   3.870   3.167  0.5339 -0.0499  0.1764
 1075SOL    HW2 4072   2.497   3.908   3.169  0.9394  0.9244 -0.0397
 1075SOL    HW3 4073   2.641   3.935   3.209  0.8918 -1.4312  1.9839
 1075SOL    MW4 4074   2.581   3.884   3.173  0.6346 -0.1036  0.3863
 1076SOL     OW 4075   2.934   3.276   2.555 -0.3538 -0.3634 -0.2521
 1076SOL    HW2 4076   2.841   3.291   2.543 -0.5698 -2.3329 -1.4456
 1076SOL    HW3 4077   2.976   3.328   2.486 -0.7061 -0.8342 -0.8306
 1076SOL    MW4 4078   2.928   3.285   2.545 -0.4288 -0.6854 -0.4859
 1077SOL     OW 4079   0.053   6.278   2.206 -0.1040  0.2138 -0.7076
 1077SOL    HW2 4080   0.055   6.203   2.265 -2.3404  0.3062 -0.4369
 1077SOL    HW3 4081   0.016   6.349   2.258  1.2108  1.3208 -1.2076
 1077SOL    MW4 4082   0.048   6.278   2.221 -0.2256  0.3720 -0.7379
 1078SOL     OW 4083   0.956   5.182   5.164 -0.1028  0.8251 -0.3142
 1078SOL    HW2 4084   0.938   5.099   5.208 -0.5246  0.8350 -0.4609
 1078SOL    HW3 4085   1.014   5.159   5.092  1.1389  0.8998  0.6237
 1078SOL    MW4 4086   0.961   5.168   5.160  0.0053  0.8362 -0.2098
 1079SOL     OW 4087   1.044   0.650   5.568  0.7742 -0.1317  0.1312
 1079SOL    HW2 4088   1.043   0.555   5.580  0.8336  0.0184  1.4330
 1079SOL    HW3 4089   1.036   0.686   5.656 -0.1970  1.0811 -0.4183
 1079SOL    MW4 4090   1.043   0.642   5.581  0.6539  0.0481  0.2304
 1080SOL     OW 4091   5.008   2.788   4.337 -0.3105 -0.3137 -0.0197
 1080SOL    HW2 4092   5.024   2.787   4.242  1.9227 -0.9582  0.3129
 1080SOL    HW3 4093   4.961   2.706   4.354  0.0485 -0.6198 -0.4732
 1080SOL    MW4 4094   5.004   2.777   4.327  0.0315 -0.4391 -0.0356
 1081SOL     OW 4095   3.502   4.333   0.435  0.2308 -0.1481  0.3000
 1081SOL    HW2 4096   3.570   4.290   0.487  0.1619 -0.3763  0.2011
 1081SOL    HW3 4097   3.515   4.426   0.452  1.4997 -0.0842 -0.8774
 1081SOL    MW4 4098   3.513   4.339   0.444  0.3892 -0.1698  0.1316
 1082SOL     OW 4099   2.882   4.857   0.897 -0.1809  0.3492  0.3517
 1082SOL    HW2 4100   2.918   4.944   0.917  0.2810 -0.1599  1.8406
 1082SOL    HW3 4101   2.804   4.875   0.844  0.7202  1.5992 -0.6215
 1082SOL    MW4 4102   2.877   4.871   0.892 -0.0010  0.4469  0.4197
 1083SOL     OW 4103   4.871   0.176   1.944  0.2383 -0.0562 -0.5611
 1083SOL    HW2 4104   4.824   0.178   2.027  0.7178  1.9425 -0.2979
 1083SOL    HW3 4105   4.829   0.243   1.890  0.6037 -0.6090 -1.5721
 1083SOL    MW4 4106   4.859   0.185   1.947  0.3497  0.1346 -0.6597
 1084SOL     OW 4107   4.211   0.527   4.227  0.0621  0.0317 -0.0224
 1084SOL    HW2 4108   4.191   0.494   4.314 -1.6752 -1.6679 -0.9862
 1084SOL    HW3 4109   4.144   0.488   4.171 -0.9027  3.5888 -1.6347
 1084SOL    MW4 4110   4.199   0.518   4.231 -0.2944  0.2767 -0.3623
 1085SOL     OW 4111   1.674   1.231   4.521  0.1845 -0.1504 -0.1752
 1085SOL    HW2 4112   1.741   1.300   4.527  0.6236 -0.6566  1.0155
 1085SOL    HW3 4113   1.629   1.235   4.606 -0.6946 -0.4362 -0.6179
 1085SOL    MW4 4114   1.677   1.241   4.533  0.1264 -0.2549 -0.0765
 1086SOL     OW 4115   2.501   2.538   6.064 -0.5082  0.5039  0.0404
 1086SOL    HW2 4116   2.520   2.603   6.132  1.9890 -0.1623  0.0670
 1086SOL    HW3 4117   2.510   2.585   5.982  0.7224  0.3548  0.0771
 1086SOL    MW4 4118   2.504   2.553   6.062 -0.0164  0.3964  0.0488
 1087SOL     OW 4119   4.281   6.288   4.344  0.5443  0.3006 -0.0970
 1087SOL    HW2 4120   4.291   6.382   4.329 -0.0115  0.5300  0.8963
 1087SOL    HW3 4121   4.320   6.247   4.267  0.7659  1.3456 -0.5527
 1087SOL    MW4 4122   4.287   6.295   4.332  0.5002  0.4687 -0.0261
 1088SOL     OW 4123   3.387   2.236   1.456  0.2404 -0.3896  0.0072
 1088SOL    HW2 4124   3.481   2.228   1.471  0.4633 -0.8485 -1.5459
 1088SOL    HW3 4125   3.351   2.255   1.543  1.6621 -1.0450  0.7751
 1088SOL    MW4 4126   3.395   2.237   1.470  0.4574 -0.5366 -0.0964
 1089SOL     OW 4127   4.875   5.361   5.010  0.0269 -0.0627  0.1121
 1089SOL    HW2 4128   4.952   5.409   5.039 -0.8832  0.5348  1.6475
 1089SOL    HW3 4129   4.802   5.404   5.054 -1.1303 -1.0265 -0.7920
 1089SOL    MW4 4130   4.875   5.373   5.019 -0.2459 -0.1111  0.1954
 1090SOL     OW 4131   3.299   2.284   3.128  0.1552  0.1120  0.5515
 1090SOL    HW2 4132   3.215   2.331   3.125  0.0855  0.2295  2.7470
 1090SOL    HW3 4133   3.314   2.257   3.037 -1.8240  0.8337 -0.0567
 1090SOL    MW4 4134   3.290   2.286   3.115 -0.1151  0.2227  0.7609
 1091SOL     OW 4135   4.501   0.279   5.309  0.1475  0.4125  0.4125
 1091SOL    HW2 4136   4.574   0.341   5.299  0.3702 -0.0038 -0.7741
 1091SOL    HW3 4137   4.539   0.205   5.356  0.1960  0.6542  0.7596
 1091SOL    MW4 4138   4.516   0.277   5.314  0.1832  0.3895  0.3017
 1092SOL     OW 4139   5.066   6.415   5.031 -0.3207  0.0070 -0.2270
 1092SOL    HW2 4140   5.039   6.371   4.951  0.2173  0.5771 -0.7273
 1092SOL    HW3 4141   5.103   6.499   5.002  1.5885 -0.5442  0.4613
 1092SOL    MW4 4142   5.067   6.420   5.017  0.0022  0.0095 -0.2022
 1093SOL     OW 4143   5.001   2.093   1.017 -0.3978  0.4599  0.0592
 1093SOL    HW2 4144   4.931   2.117   0.956 -1.0418 -0.2704  0.4970
 1093SOL    HW3 4145   5.000   1.998   1.018  1.3367  0.3986 -0.7573
 1093SOL    MW4 4146   4.992   2.084   1.009 -0.2540  0.3555  0.0092
 1094SOL     OW 4147   4.790   3.913   3.461 -0.6508 -0.5896 -0.0503
 1094SOL    HW2 4148   4.811   4.006   3.470 -0.9684 -0.5159 -0.0648
 1094SOL    HW3 4149   4.749   3.906   3.375  1.9171 -1.2125 -1.3359
 1094SOL    MW4 4150   4.787   3.925   3.451 -0.3539 -0.6621 -0.2218
 1095SOL     OW 4151   4.160   6.420   6.030  0.4091  0.6484 -0.5718
 1095SOL    HW2 4152   4.198   6.345   6.074 -1.0353 -0.4034 -1.0498
 1095SOL    HW3 4153   4.234   6.466   5.992  1.4101  0.0679  0.6311
 1095SOL    MW4 4154   4.174   6.416   6.031  0.3506  0.4330 -0.4762
 1096SOL     OW 4155   2.943   3.747   2.924 -0.0748 -0.2688 -0.2351
 1096SOL    HW2 4156   2.877   3.728   2.856 -0.8150 -1.0510  0.6712
 1096SOL    HW3 4157   2.920   3.689   2.996  0.0135  1.3618  1.1458
 1096SOL    MW4 4158   2.931   3.737   2.924 -0.1608 -0.1568  0.0666
 1097SOL     OW 4159   4.197   5.653   2.464 -0.6331 -0.2793 -0.9992
 1097SOL    HW2 4160   4.242   5.678   2.544  1.6655 -0.1690 -2.2498
 1097SOL    HW3 4161   4.106   5.679   2.479 -0.9495 -2.7998  2.6272
 1097SOL    MW4 4162   4.191   5.660   2.476 -0.3716 -0.5973 -0.6857
 1098SOL     OW 4163   2.619   4.605   1.456  0.3013 -0.0322  0.1094
 1098SOL    HW2 4164   2.568   4.556   1.520 -2.0296  1.5337 -0.4417
 1098SOL    HW3 4165   2.631   4.545   1.383  0.7955 -0.9920  0.9582
 1098SOL    MW4 4166   2.614   4.591   1.455  0.0590  0.0478  0.1486
 1099SOL     OW 4167   3.987   0.256   1.074  0.4668  0.3307  0.2012
 1099SOL    HW2 4168   3.958   0.184   1.130  0.3179  0.4399  0.2654
 1099SOL    HW3 4169   3.914   0.318   1.074  0.7200  0.6355  0.4076
 1099SOL    MW4 4170   3.974   0.255   1.081  0.4805  0.3853  0.2369
 1100SOL     OW 4171   3.900   2.378   4.377 -0.6658  0.1033 -0.9016
 1100SOL    HW2 4172   3.900   2.453   4.318 -1.0550  0.4691 -0.4379
 1100SOL    HW3 4173   3.816   2.382   4.421 -0.2867 -0.0429 -0.1552
 1100SOL    MW4 4174   3.889   2.388   4.375 -0.6671  0.1322 -0.7420
 1101SOL     OW 4175   1.190   3.228   0.729 -0.0594 -0.0153 -0.1845
 1101SOL    HW2 4176   1.279   3.215   0.761  0.3702  0.1284 -1.2803
 1101SOL    HW3 4177   1.164   3.313   0.766 -0.0506 -0.4111  0.7686
 1101SOL    MW4 4178   1.198   3.238   0.738 -0.0016 -0.0486 -0.2033
 1102SOL     OW 4179   3.846   0.838   5.670  0.3702  0.4983  0.0162
 1102SOL    HW2 4180   3.885   0.885   5.597 -0.3776  0.5775 -0.3428
 1102SOL    HW3 4181   3.758   0.874   5.678  0.3982  0.3988  0.8761
 1102SOL    MW4 4182   3.839   0.849   5.662  0.2752  0.4956  0.0823
 1103SOL     OW 4183   5.350   5.062   3.286 -0.1143 -0.0462 -0.2182
 1103SOL    HW2 4184   5.318   4.976   3.260  1.3537 -0.3515 -1.1635
 1103SOL    HW3 4185   5.420   5.045   3.349  1.1553  0.3255 -1.4572
 1103SOL    MW4 4186   5.355   5.048   3.291  0.2469 -0.0374 -0.5064
 1104SOL     OW 4187   2.378   4.363   2.460 -0.4614  0.0119 -0.0219
 1104SOL    HW2 4188   2.464   4.326   2.439 -0.7772  0.0054 -1.3909
 1104SOL    HW3 4189   2.395   4.423   2.532  0.5336 -0.6913  0.3580
 1104SOL    MW4 4190   2.392   4.366   2.467 -0.3718 -0.0817 -0.1524
 1105SOL     OW 4191   5.905   1.285   2.276  0.5650 -0.8682  0.2708
 1105SOL    HW2 4192   5.886   1.376   2.298  0.3794 -0.5954 -0.9945
 1105SOL    HW3 4193   5.872   1.236   2.352 -1.7391 -0.0967 -0.1464
 1105SOL    MW4 4194   5.898   1.290   2.289  0.2365 -0.7304  0.0488
 1106SOL     OW 4195   1.321   0.704   5.507  0.5504 -0.1001  0.1145
 1106SOL    HW2 4196   1.229   0.680   5.520  0.5247 -0.0903 -0.0396
 1106SOL    HW3 4197   1.328   0.792   5.542  0.8023 -0.5718  1.2987
 1106SOL    MW4 4198   1.310   0.712   5.513  0.5802 -0.1610  0.2504
 1107SOL     OW 4199   5.779   3.702   0.127 -0.7729  0.8364  0.4313
 1107SOL    HW2 4200   5.721   3.631   0.156 -0.9964  0.5248 -0.7110
 1107SOL    HW3 4201   5.780   3.694   0.032 -1.4857  2.8810  0.1878
 1107SOL    MW4 4202   5.771   3.692   0.118 -0.8964  1.0651  0.2485
 1108SOL     OW 4203   6.305   5.916   0.580 -0.3436  0.1712 -0.4867
 1108SOL    HW2 4204   6.337   5.926   0.490  2.0703 -1.8647  0.0428
 1108SOL    HW3 4205   6.327   5.826   0.603 -1.9099  0.3032  1.8001
 1108SOL    MW4 4206   6.312   5.906   0.571 -0.2317 -0.0800 -0.1151
 1109SOL     OW 4207   6.367   1.705   1.334  0.4631 -0.1319  0.1502
 1109SOL    HW2 4208   6.275   1.731   1.328  0.5647  0.1284 -0.3926
 1109SOL    HW3 4209   6.374   1.660   1.418 -0.5734 -1.7595 -0.5633
 1109SOL    MW4 4210   6.356   1.702   1.344  0.3398 -0.3123 -0.0155
 1110SOL     OW 4211   4.410   4.603   5.781 -0.9844  0.0559  0.4866
 1110SOL    HW2 4212   4.331   4.635   5.738 -0.9938  0.7082  0.9763
 1110SOL    HW3 4213   4.481   4.658   5.747 -0.6949 -0.6498 -0.0970
 1110SOL    MW4 4214   4.409   4.614   5.771 -0.9474  0.0489  0.4742
 1111SOL     OW 4215   3.193   5.711   1.684  0.7037 -0.3202  0.3718
 1111SOL    HW2 4216   3.265   5.708   1.748  1.6053 -0.1522 -0.5961
 1111SOL    HW3 4217   3.201   5.797   1.643 -1.3180  0.5280  1.6063
 1111SOL    MW4 4218   3.204   5.722   1.687  0.5559 -0.1861  0.4070
 1112SOL     OW 4219   3.859   5.596   4.275 -0.1417 -0.1732 -0.1447
 1112SOL    HW2 4220   3.917   5.670   4.257 -0.8779  0.4499 -0.0030
 1112SOL    HW3 4221   3.876   5.575   4.367  1.3081 -1.3079 -0.6311
 1112SOL    MW4 4222   3.869   5.603   4.285 -0.0476 -0.2407 -0.1902
 1113SOL     OW 4223   4.254   0.319   5.956 -0.2884  0.8213  1.1078
 1113SOL    HW2 4224   4.192   0.360   5.895 -0.1351  1.1447  1.1683
 1113SOL    HW3 4225   4.211   0.327   6.041 -0.6871  0.0136  1.0028
 1113SOL    MW4 4226   4.240   0.325   5.959 -0.3208  0.7574  1.1019
 1114SOL     OW 4227   2.711   0.375   0.017 -0.1411 -0.4635  0.1377
 1114SOL    HW2 4228   2.671   0.294  -0.013  0.0544  0.1240 -1.8464
 1114SOL    HW3 4229   2.638   0.429   0.047 -1.0359  0.6406 -3.5447
 1114SOL    MW4 4230   2.696   0.372   0.017 -0.2333 -0.2403 -0.6099
 1115SOL     OW 4231   6.319   0.957   4.327 -0.1717 -0.0124 -0.5234
 1115SOL    HW2 4232   6.252   0.981   4.390  0.4726 -3.8240  1.9629
 1115SOL    HW3 4233   6.347   1.040   4.288 -3.2459  2.1545  1.4377
 1115SOL    MW4 4234   6.314   0.971   4.330 -0.4923 -0.2294  0.0634
 1116SOL     OW 4235   2.292   4.663   3.340 -0.1517  0.1680 -0.1788
 1116SOL    HW2 4236   2.290   4.757   3.359  0.5839  0.6507 -2.2626
 1116SOL    HW3 4237   2.383   4.638   3.350 -0.5064 -0.6146  1.4422
 1116SOL    MW4 4238   2.304   4.672   3.344 -0.1015  0.1284 -0.2398
 1117SOL     OW 4239   1.855   0.534   0.624  0.0674  0.1638 -0.0547
 1117SOL    HW2 4240   1.890   0.559   0.539 -0.5297 -3.5641 -1.6214
 1117SOL    HW3 4241   1.927   0.550   0.685  1.2354  1.0618 -1.6014
 1117SOL    MW4 4242   1.869   0.539   0.621  0.1427 -0.2096 -0.4655
 1118SOL     OW 4243   2.165   4.776   0.248 -0.3474 -0.8139  0.1578
 1118SOL    HW2 4244   2.211   4.858   0.230 -0.5332 -0.7989 -0.2515
 1118SOL    HW3 4245   2.206   4.743   0.329 -0.1858 -0.3857  0.2546
 1118SOL    MW4 4246   2.176   4.783   0.257 -0.3506 -0.7554  0.1165
 1119SOL     OW 4247   2.552   1.021   3.528 -0.1046  0.2397  0.3307
 1119SOL    HW2 4248   2.627   1.048   3.580  0.4363 -0.3798 -0.1169
 1119SOL    HW3 4249   2.589   0.980   3.450 -0.9012 -0.2014  0.1648
 1119SOL    MW4 4250   2.567   1.020   3.525 -0.1383  0.0998  0.2498
 1120SOL     OW 4251   4.592   5.014   3.903  0.1523  0.3050  0.1467
 1120SOL    HW2 4252   4.499   4.999   3.886 -0.2205 -0.0422  2.2296
 1120SOL    HW3 4253   4.594   5.059   3.987  1.9219 -0.4790  0.5616
 1120SOL    MW4 4254   4.580   5.018   3.912  0.3366  0.1558  0.4763
 1121SOL     OW 4255   5.041   4.683   2.783  0.0609 -0.2839 -0.1079
 1121SOL    HW2 4256   5.129   4.659   2.810 -0.7514 -1.5349  1.5849
 1121SOL    HW3 4257   5.028   4.637   2.700  0.9070 -0.2580 -0.2604
 1121SOL    MW4 4258   5.051   4.674   2.776  0.0653 -0.4455  0.0954
 1122SOL     OW 4259   6.344   5.825   3.881  0.6184  0.4689  0.5361
 1122SOL    HW2 4260   6.271   5.873   3.841 -0.2575 -0.1148  1.3923
 1122SOL    HW3 4261   6.310   5.794   3.965  1.8596  0.1833  0.9614
 1122SOL    MW4 4262   6.330   5.827   3.887  0.6666  0.3542  0.7052
 1123SOL     OW 4263   0.486   2.408   3.508  0.6877 -0.2063  0.3500
 1123SOL    HW2 4264   0.432   2.387   3.584 -2.5496  0.3034 -1.6226
 1123SOL    HW3 4265   0.501   2.323   3.466 -2.4480 -0.0715 -1.3612
 1123SOL    MW4 4266   0.481   2.394   3.512 -0.1531 -0.1213 -0.1360
 1124SOL     OW 4267   4.825   1.481   0.874  0.1078 -0.4345  0.2610
 1124SOL    HW2 4268   4.761   1.520   0.815 -1.8880 -0.8354  2.0303
 1124SOL    HW3 4269   4.800   1.512   0.961  2.2489 -0.7483  1.0527
 1124SOL    MW4 4270   4.814   1.490   0.878  0.1270 -0.5288  0.5989
 1125SOL     OW 4271   4.434   2.733   4.461 -0.2579  0.1660  0.1263
 1125SOL    HW2 4272   4.433   2.637   4.464 -2.1521  0.1089 -0.6949
 1125SOL    HW3 4273   4.522   2.757   4.489  0.1121 -1.7946  0.8326
 1125SOL    MW4 4274   4.445   2.724   4.465 -0.4590 -0.1002  0.1111
 1126SOL     OW 4275   4.975   4.778   0.997  0.2378 -0.4922  0.4852
 1126SOL    HW2 4276   5.028   4.699   1.007  0.4790 -0.2438  1.2360
 1126SOL    HW3 4277   5.014   4.824   0.923 -0.1107 -1.2357 -0.1706
 1126SOL    MW4 4278   4.987   4.774   0.989  0.2236 -0.5575  0.4978
 1127SOL     OW 4279   4.311   4.733   5.513  0.0221  0.2159 -0.2228
 1127SOL    HW2 4280   4.370   4.682   5.458 -0.3600 -1.1066  0.5637
 1127SOL    HW3 4281   4.233   4.679   5.521 -0.2543  0.7562  0.9404
 1127SOL    MW4 4282   4.308   4.719   5.507 -0.0648  0.1127  0.0344
 1128SOL     OW 4283   0.164   4.056   2.419 -0.0392 -0.3323  0.4104
 1128SOL    HW2 4284   0.193   3.965   2.423 -0.6893 -0.5616  0.0311
 1128SOL    HW3 4285   0.211   4.093   2.344 -3.2288 -1.6613 -2.5118
 1128SOL    MW4 4286   0.174   4.049   2.409 -0.5458 -0.5379 -0.0252
 1129SOL     OW 4287   3.161   4.805   6.169 -0.2740 -0.0159  0.4767
 1129SOL    HW2 4288   3.172   4.810   6.263  0.3561  0.8358  0.3723
 1129SOL    HW3 4289   3.122   4.719   6.153  2.6287 -1.6036  1.2227
 1129SOL    MW4 4290   3.157   4.794   6.179  0.1921 -0.1130  0.5614
 1130SOL     OW 4291   1.711   0.485   0.261  0.2725  0.0842 -0.1878
 1130SOL    HW2 4292   1.658   0.407   0.273  0.0785  0.2375 -0.0514
 1130SOL    HW3 4293   1.800   0.457   0.283  0.3871 -0.3785 -1.1844
 1130SOL    MW4 4294   1.716   0.471   0.266  0.2620  0.0434 -0.3013
 1131SOL     OW 4295   4.402   5.347   1.786  0.6923  0.0348 -0.1012
 1131SOL    HW2 4296   4.412   5.317   1.876  0.7838 -1.3867 -0.5631
 1131SOL    HW3 4297   4.456   5.288   1.734 -0.1014  0.2286 -1.1985
 1131SOL    MW4 4298   4.410   5.335   1.791  0.5996 -0.1272 -0.3069
 1132SOL     OW 4299   0.465   0.102   0.699  0.2763 -0.1792  0.3396
 1132SOL    HW2 4300   0.503   0.182   0.734 -1.1532  0.9900 -0.6714
 1132SOL    HW3 4301   0.418   0.063   0.773 -1.6528  1.6093  0.1485
 1132SOL    MW4 4302   0.464   0.107   0.713 -0.1668  0.2110  0.1810
 1133SOL     OW 4303   0.474   0.232   5.104  0.2339  0.4053  0.0342
 1133SOL    HW2 4304   0.508   0.150   5.068 -0.6151  0.5014 -1.0300
 1133SOL    HW3 4305   0.459   0.214   5.197 -0.3794 -0.7880 -0.2875
 1133SOL    MW4 4306   0.477   0.219   5.111  0.0409  0.2605 -0.1486
 1134SOL     OW 4307   5.556   4.421   1.220 -0.2674  0.7430 -0.8606
 1134SOL    HW2 4308   5.550   4.409   1.126  1.4860  0.0622 -0.9122
 1134SOL    HW3 4309   5.586   4.337   1.254 -0.2477  1.1702  0.2301
 1134SOL    MW4 4310   5.559   4.409   1.212 -0.0335  0.7095 -0.7235
 1135SOL     OW 4311   0.050   0.402   4.621 -0.1580  0.2770  0.0055
 1135SOL    HW2 4312   0.004   0.362   4.696  0.7667  0.5800  0.7494
 1135SOL    HW3 4313   0.061   0.494   4.646  1.0582  0.1631 -0.0510
 1135SOL    MW4 4314   0.045   0.409   4.634  0.1245  0.3020  0.0962
 1136SOL     OW 4315   4.406   2.696   3.301 -0.1414  0.0127 -0.7260
 1136SOL    HW2 4316   4.365   2.768   3.254 -1.2210 -0.3267 -0.3311
 1136SOL    HW3 4317   4.439   2.638   3.232 -1.3568 -0.2837 -1.0715
 1136SOL    MW4 4318   4.405   2.698   3.286 -0.4442 -0.0712 -0.7195
 1137SOL     OW 4319   5.264   0.882   4.211  0.0007 -0.3450  0.5551
 1137SOL    HW2 4320   5.277   0.876   4.116  0.6160  1.6978  0.4657
 1137SOL    HW3 4321   5.171   0.865   4.223 -0.0384 -0.8946 -0.3691
 1137SOL    MW4 4322   5.253   0.879   4.200  0.0767 -0.1479  0.4214
 1138SOL     OW 4323   2.954   5.975   0.154 -0.8203 -0.7346  0.4378
 1138SOL    HW2 4324   2.945   6.069   0.138 -2.1175 -0.6748  1.3802
 1138SOL    HW3 4325   2.965   5.967   0.248  0.3451 -1.4866  0.2657
 1138SOL    MW4 4326   2.954   5.986   0.164 -0.8377 -0.8259  0.5394
 1139SOL     OW 4327   2.781   3.105   2.227  0.2136  0.0424 -0.1117
 1139SOL    HW2 4328   2.728   3.026   2.236 -0.9856  0.5091 -2.4243
 1139SOL    HW3 4329   2.776   3.147   2.313 -0.6118 -1.4785  0.6134
 1139SOL    MW4 4330   2.774   3.100   2.240 -0.0535 -0.0967 -0.3212
 1140SOL     OW 4331   5.330   5.503   4.970  0.4819  0.5306  0.1297
 1140SOL    HW2 4332   5.343   5.423   4.918 -0.2090 -0.3163  1.2069
 1140SOL    HW3 4333   5.392   5.566   4.934  1.1544 -0.5445 -0.6482
 1140SOL    MW4 4334   5.340   5.501   4.958  0.4795  0.2770  0.1692
 1141SOL     OW 4335   5.113   2.095   3.680  0.1412 -0.0449 -0.1980
 1141SOL    HW2 4336   5.104   2.069   3.588 -2.1483  0.6274 -0.2277
 1141SOL    HW3 4337   5.069   2.025   3.729 -2.1035  1.4306  0.0388
 1141SOL    MW4 4338   5.106   2.082   3.674 -0.4571  0.2385 -0.1707
 1142SOL     OW 4339   1.782   0.781   3.759 -0.2509  0.2467  0.0919
 1142SOL    HW2 4340   1.781   0.875   3.774  0.6557  0.4599 -1.0328
 1142SOL    HW3 4341   1.732   0.744   3.832 -0.6653  1.5935  0.5143
 1142SOL    MW4 4342   1.775   0.789   3.770 -0.1859  0.4525 -0.0007
 1143SOL     OW 4343   1.667   5.930   4.514 -0.0847  0.3235  0.0652
 1143SOL    HW2 4344   1.605   5.987   4.559  1.2033  0.1625  2.1730
 1143SOL    HW3 4345   1.753   5.970   4.530  0.4482  0.6135 -2.8725
 1143SOL    MW4 4346   1.670   5.943   4.522  0.1555  0.3405 -0.0443
 1144SOL     OW 4347   0.243   0.188   6.269 -0.2863 -0.2935 -0.1409
 1144SOL    HW2 4348   0.239   0.093   6.282  0.4006 -0.1568  1.1453
 1144SOL    HW3 4349   0.331   0.213   6.296 -0.6670  0.8004  0.1450
 1144SOL    MW4 4350   0.254   0.179   6.274 -0.2459 -0.1312  0.0665
 1145SOL     OW 4351   5.986   0.803   5.976 -0.1931  0.1821  0.5362
 1145SOL    HW2 4352   5.963   0.895   5.966  0.8925  0.3730 -0.3733
 1145SOL    HW3 4353   5.924   0.756   5.920  1.5446  0.6985 -1.9839
 1145SOL    MW4 4354   5.975   0.809   5.968  0.1794  0.2755  0.0837
 1146SOL     OW 4355   2.938   5.019   3.712 -0.3058 -0.5187  0.0293
 1146SOL    HW2 4356   2.869   5.086   3.719 -0.2933 -0.5237  0.2084
 1146SOL    HW3 4357   3.013   5.065   3.676 -0.1305 -0.3152  0.6506
 1146SOL    MW4 4358   2.939   5.034   3.708 -0.2811 -0.4925  0.1349
 1147SOL     OW 4359   3.222   3.523   0.018 -0.1503 -0.5175 -0.0159
 1147SOL    HW2 4360   3.262   3.444  -0.017 -0.0083 -0.6435  0.4229
 1147SOL    HW3 4361   3.258   3.594  -0.035 -0.2868 -0.7443 -0.4191
 1147SOL    MW4 4362   3.232   3.522   0.006 -0.1496 -0.5640 -0.0112
 1148SOL     OW 4363   0.869   5.071   0.711 -0.4318  0.2246  0.1620
 1148SOL    HW2 4364   0.944   5.119   0.675  0.9666 -2.1662 -0.3288
 1148SOL    HW3 4365   0.893   5.051   0.801 -0.2197 -0.9895 -0.1457
 1148SOL    MW4 4366   0.882   5.075   0.718 -0.2193 -0.2510  0.0566
 1149SOL     OW 4367   2.801   6.051   3.419  0.2323  0.1872  0.7485
 1149SOL    HW2 4368   2.712   6.054   3.452  0.4930 -0.0220  1.4857
 1149SOL    HW3 4369   2.793   6.068   3.325 -0.8419 -2.1517  0.3446
 1149SOL    MW4 4370   2.788   6.054   3.411  0.1250 -0.1490  0.7925
 1150SOL     OW 4371   4.213   1.068   2.883 -0.4746 -0.0644 -0.1129
 1150SOL    HW2 4372   4.128   1.074   2.839 -0.0400  1.6597 -0.7711
 1150SOL    HW3 4373   4.238   0.976   2.873 -1.3976 -0.1979 -1.5387
 1150SOL    MW4 4374   4.205   1.057   2.876 -0.5390  0.1454 -0.3879
 1151SOL     OW 4375   1.726   3.775   0.774  0.5819 -0.3242 -0.0080
 1151SOL    HW2 4376   1.751   3.852   0.723  0.3039  0.1073  0.4913
 1151SOL    HW3 4377   1.630   3.776   0.772  0.5696 -1.6040 -1.3883
 1151SOL    MW4 4378   1.716   3.785   0.767  0.5436 -0.4361 -0.1242
 1152SOL     OW 4379   3.566   1.676   0.774 -0.0893  0.2225 -0.5087
 1152SOL    HW2 4380   3.552   1.751   0.832 -0.5427 -1.0875  1.1855
 1152SOL    HW3 4381   3.595   1.606   0.833 -2.3996 -1.7454 -1.5252
 1152SOL    MW4 4382   3.568   1.677   0.790 -0.4540 -0.2100 -0.4193
 1153SOL     OW 4383   5.513   1.138   1.313  0.1016  0.0613 -0.3076
 1153SOL    HW2 4384   5.508   1.156   1.219  0.8804 -0.2383 -0.4138
 1153SOL    HW3 4385   5.499   1.223   1.355  4.0429  1.1495 -0.8005
 1153SOL    MW4 4386   5.510   1.151   1.306  0.7244  0.1653 -0.3866
 1154SOL     OW 4387   0.387   4.624   5.952 -0.7566  0.5627  0.3553
 1154SOL    HW2 4388   0.378   4.670   5.869  1.3872 -1.5054 -1.1678
 1154SOL    HW3 4389   0.343   4.540   5.937 -0.1335  0.0728  1.2140
 1154SOL    MW4 4390   0.380   4.619   5.939 -0.3915  0.2252  0.2677
 1155SOL     OW 4391   1.575   1.877   3.181  0.0414 -0.2546 -0.1994
 1155SOL    HW2 4392   1.652   1.833   3.144 -0.3112 -0.9153 -0.1589
 1155SOL    HW3 4393   1.529   1.808   3.230 -0.3881  0.2187  0.0750
 1155SOL    MW4 4394   1.579   1.862   3.183 -0.0618 -0.2793 -0.1579
 1156SOL     OW 4395   2.936   1.464   4.088 -0.1286 -0.0997  0.3037
 1156SOL    HW2 4396   3.027   1.477   4.118 -0.1051 -1.3122  0.8144
 1156SOL    HW3 4397   2.899   1.553   4.086  1.8150  0.7937 -2.5010
 1156SOL    MW4 4398   2.943   1.478   4.092  0.1309 -0.1418  0.0010
 1157SOL     OW 4399   4.047   2.091   4.423  0.3732 -0.7334 -0.4511
 1157SOL    HW2 4400   4.050   2.126   4.334 -2.4180  1.1167  0.0693
 1157SOL    HW3 4401   4.137   2.103   4.456  1.3902 -1.1661 -2.8432
 1157SOL    MW4 4402   4.060   2.097   4.416  0.1391 -0.5464 -0.6980
 1158SOL     OW 4403   2.662   1.781   3.127 -0.2419 -0.8695  0.4257
 1158SOL    HW2 4404   2.654   1.730   3.046 -1.0465 -0.6499  0.3604
 1158SOL    HW3 4405   2.592   1.846   3.121 -0.4431 -0.9913  1.3960
 1158SOL    MW4 4406   2.652   1.783   3.115 -0.3746 -0.8566  0.5451
 1159SOL     OW 4407   0.618   2.954   4.099 -0.4294  0.2925  0.7891
 1159SOL    HW2 4408   0.687   3.019   4.083  0.8080 -0.7267  1.7655
 1159SOL    HW3 4409   0.625   2.893   4.025  0.2781 -0.2527  1.2901
 1159SOL    MW4 4410   0.628   2.955   4.087 -0.1728  0.0861  0.9840
 1160SOL     OW 4411   6.051   3.150   6.372 -0.3950 -0.4178  0.1680
 1160SOL    HW2 4412   6.080   3.137   6.462 -0.4917 -4.4772 -0.2153
 1160SOL    HW3 4413   6.120   3.202   6.331  0.7061 -0.3661  1.9920
 1160SOL    MW4 4414   6.064   3.155   6.378 -0.2625 -0.9466  0.3581
 1161SOL     OW 4415   6.280   4.027   2.008 -0.6262 -0.4317  0.9421
 1161SOL    HW2 4416   6.217   3.958   1.986 -1.5584  0.4266  0.8112
 1161SOL    HW3 4417   6.256   4.055   2.096 -1.2187  0.7129  0.4415
 1161SOL    MW4 4418   6.268   4.021   2.016 -0.8274 -0.1675  0.8588
 1162SOL     OW 4419   3.037   3.132   1.302 -0.5432 -0.4838  0.4742
 1162SOL    HW2 4420   3.021   3.066   1.234 -2.9037 -2.2738  2.5932
 1162SOL    HW3 4421   3.132   3.134   1.311 -0.3181 -2.3290 -0.8725
 1162SOL    MW4 4422   3.048   3.123   1.294 -0.8249 -0.9634  0.5761
 1163SOL     OW 4423   5.125   5.769   3.571 -0.2512 -0.0296  0.1058
 1163SOL    HW2 4424   5.220   5.762   3.576 -0.3384 -0.7217  1.3018
 1163SOL    HW3 4425   5.094   5.738   3.657 -1.6101 -0.9725 -0.6786
 1163SOL    MW4 4426   5.133   5.764   3.583 -0.4420 -0.2453  0.1601
 1164SOL     OW 4427   4.141   1.470   4.770 -0.0850  0.6393 -0.2925
 1164SOL    HW2 4428   4.130   1.423   4.853 -0.6056 -0.7583 -1.1269
 1164SOL    HW3 4429   4.232   1.499   4.771  0.3989 -0.8290  0.0445
 1164SOL    MW4 4430   4.152   1.468   4.781 -0.0898  0.2612 -0.3581
 1165SOL     OW 4431   2.908   3.778   3.385  0.1688 -0.0809 -0.4738
 1165SOL    HW2 4432   2.998   3.773   3.419 -0.3986 -0.5199  1.0638
 1165SOL    HW3 4433   2.854   3.740   3.455 -1.2172  0.1400 -1.3829
 1165SOL    MW4 4434   2.913   3.772   3.399 -0.0889 -0.1097 -0.3909
 1166SOL     OW 4435   2.841   1.196   0.834 -0.8121 -0.0100 -0.7371
 1166SOL    HW2 4436   2.820   1.119   0.885 -0.1078  0.2423 -0.0434
 1166SOL    HW3 4437   2.769   1.257   0.851 -0.6636  0.0112 -0.1591
 1166SOL    MW4 4438   2.829   1.194   0.843 -0.6996  0.0261 -0.5693
 1167SOL     OW 4439   5.559   1.884   2.812  0.1966 -0.3214 -0.0613
 1167SOL    HW2 4440   5.537   1.963   2.862  0.2655 -0.5304  0.3084
 1167SOL    HW3 4441   5.474   1.847   2.788  0.0958  1.5811 -3.0722
 1167SOL    MW4 4442   5.545   1.889   2.816  0.1924 -0.0980 -0.4098
 1168SOL     OW 4443   4.244   4.145   5.055  0.3069 -0.0159 -0.0676
 1168SOL    HW2 4444   4.320   4.123   5.002 -0.4003  0.1329 -1.1673
 1168SOL    HW3 4445   4.234   4.240   5.044 -0.3596 -0.1201 -0.3720
 1168SOL    MW4 4446   4.253   4.155   5.047  0.1257 -0.0101 -0.2529
 1169SOL     OW 4447   5.452   4.159   5.659  0.5992 -0.0590 -0.3736
 1169SOL    HW2 4448   5.377   4.218   5.650  0.9929  0.3267 -1.2041
 1169SOL    HW3 4449   5.414   4.074   5.680 -0.0128  0.3321  0.1509
 1169SOL    MW4 4450   5.437   4.155   5.661  0.5704  0.0435 -0.4140
 1170SOL     OW 4451   3.537   6.183   2.680  0.0758  0.7174  0.1022
 1170SOL    HW2 4452   3.592   6.209   2.606 -0.0226  1.1999  0.1896
 1170SOL    HW3 4453   3.513   6.092   2.663  1.2466  0.3627  0.2719
 1170SOL    MW4 4454   3.541   6.175   2.668  0.2173  0.7342  0.1361
 1171SOL     OW 4455   3.898   2.644   3.121 -0.1298 -0.2801  0.1034
 1171SOL    HW2 4456   3.933   2.606   3.201  0.3241 -1.6349 -0.7156
 1171SOL    HW3 4457   3.965   2.705   3.092  0.4635 -1.0384 -0.1416
 1171SOL    MW4 4458   3.911   2.647   3.128  0.0083 -0.5589 -0.0370
 1172SOL     OW 4459   4.935   0.968   3.377 -0.4603  0.1092  0.3409
 1172SOL    HW2 4460   4.927   1.010   3.291 -2.3493 -1.2420 -0.2224
 1172SOL    HW3 4461   4.920   1.039   3.440 -1.9595  0.6328 -0.5370
 1172SOL    MW4 4462   4.932   0.983   3.374 -0.9073 -0.0000  0.1508
 1173SOL     OW 4463   3.483   2.668   2.192  0.5608  0.1620 -1.0591
 1173SOL    HW2 4464   3.476   2.675   2.097 -0.5167  0.0861 -0.9960
 1173SOL    HW3 4465   3.401   2.704   2.225 -0.2433 -2.1655 -0.2754
 1173SOL    MW4 4466   3.471   2.673   2.184  0.3125 -0.1551 -0.9474
 1174SOL     OW 4467   0.418   2.369   3.765 -0.3078  0.3869  0.3109
 1174SOL    HW2 4468   0.330   2.378   3.803 -1.0078 -1.1373 -0.8151
 1174SOL    HW3 4469   0.467   2.319   3.829  0.3009  2.6292  1.6962
 1174SOL    MW4 4470   0.413   2.363   3.778 -0.3198  0.4817  0.3451
 1175SOL     OW 4471   5.405   4.010   2.328 -0.7067 -0.3711 -0.2679
 1175SOL    HW2 4472   5.415   3.916   2.342  0.6439 -0.3176 -0.7559
 1175SOL    HW3 4473   5.479   4.034   2.273 -0.6661  1.1099  0.4011
 1175SOL    MW4 4474   5.416   4.001   2.323 -0.5232 -0.1686 -0.2440
 1176SOL     OW 4475   0.107   5.074   0.271 -0.2601  0.1633  0.0347
 1176SOL    HW2 4476   0.175   5.095   0.335 -0.8725  1.4737  0.2935
 1176SOL    HW3 4477   0.154   5.031   0.199  0.6622  0.0362  0.6957
 1176SOL    MW4 4478   0.122   5.071   0.270 -0.2192  0.3194  0.1561
 1177SOL     OW 4479   3.111   0.494   2.189  0.1101 -0.1350  0.1854
 1177SOL    HW2 4480   3.049   0.500   2.262  0.8296  0.7246  0.7570
 1177SOL    HW3 4481   3.197   0.485   2.232  0.6672  1.5730 -0.5127
 1177SOL    MW4 4482   3.114   0.493   2.205  0.2786  0.2038  0.1687
 1178SOL     OW 4483   5.629   5.592   5.879 -0.0365 -0.3064 -0.3002
 1178SOL    HW2 4484   5.669   5.673   5.911  0.8000 -1.2173  1.0659
 1178SOL    HW3 4485   5.544   5.588   5.924  0.1462 -0.4407  0.0356
 1178SOL    MW4 4486   5.623   5.603   5.889  0.0980 -0.4443 -0.0757
 1179SOL     OW 4487   5.830   1.156   1.790  1.2914  0.5590 -0.3847
 1179SOL    HW2 4488   5.776   1.090   1.746  2.2347  0.4245 -1.3930
 1179SOL    HW3 4489   5.866   1.110   1.866  0.8255  0.3323 -0.2987
 1179SOL    MW4 4490   5.828   1.141   1.794  1.3544  0.5113 -0.5064
 1180SOL     OW 4491   3.686   0.587   6.253  0.0838  0.5957  0.4962
 1180SOL    HW2 4492   3.619   0.656   6.254 -1.6296 -0.9706 -0.0784
 1180SOL    HW3 4493   3.679   0.549   6.165  2.0070  0.5809  0.2994
 1180SOL    MW4 4494   3.676   0.591   6.241  0.1115  0.3871  0.3944
 1181SOL     OW 4495   2.145   0.394   4.438  0.4381 -0.3140 -0.0782
 1181SOL    HW2 4496   2.164   0.464   4.376 -1.0257 -0.1739 -0.4154
 1181SOL    HW3 4497   2.191   0.418   4.518 -0.4235  1.2787 -0.0372
 1181SOL    MW4 4498   2.154   0.406   4.440  0.1313 -0.0854 -0.1173
 1182SOL     OW 4499   0.093   1.462   6.136 -0.2093  0.4251  0.0157
 1182SOL    HW2 4500  -0.003   1.468   6.138 -0.1016  2.4483  1.0224
 1182SOL    HW3 4501   0.115   1.409   6.213 -0.4824  0.6089  0.2228
 1182SOL    MW4 4502   0.083   1.455   6.146 -0.2311  0.7163  0.1758
 1183SOL     OW 4503   2.345   4.519   5.171  0.0260 -0.1456 -0.2046
 1183SOL    HW2 4504   2.333   4.607   5.134 -0.0854 -0.2388 -0.3932
 1183SOL    HW3 4505   2.354   4.462   5.094  0.5507 -0.2358 -0.0769
 1183SOL    MW4 4506   2.344   4.523   5.156  0.0805 -0.1698 -0.2126
 1184SOL     OW 4507   1.679   5.159   2.595 -0.4459 -0.1179  0.1773
 1184SOL    HW2 4508   1.691   5.228   2.660  0.2593 -0.2522  0.1906
 1184SOL    HW3 4509   1.746   5.175   2.529  0.6101 -1.5523  0.8483
 1184SOL    MW4 4510   1.689   5.170   2.595 -0.2135 -0.3248  0.2676
 1185SOL     OW 4511   5.952   4.164   3.155  0.0000  0.0943 -0.5608
 1185SOL    HW2 4512   5.914   4.083   3.122 -2.0451  0.0399  1.6561
 1185SOL    HW3 4513   6.013   4.136   3.224 -0.0274  0.3863 -0.4117
 1185SOL    MW4 4514   5.955   4.150   3.160 -0.2734  0.1256 -0.2486
 1186SOL     OW 4515   3.505   6.397   0.855  0.1874 -0.1476  0.3304
 1186SOL    HW2 4516   3.565   6.453   0.904  0.5219 -0.4286  0.2455
 1186SOL    HW3 4517   3.551   6.314   0.846 -0.3503 -0.4821  0.5558
 1186SOL    MW4 4518   3.519   6.394   0.861  0.1606 -0.2288  0.3489
 1187SOL     OW 4519   1.516   1.423   5.255  0.1356  0.2559  0.1033
 1187SOL    HW2 4520   1.510   1.365   5.331 -4.2771  0.2490  0.0382
 1187SOL    HW3 4521   1.515   1.512   5.292 -0.0984  0.2501  0.1146
 1187SOL    MW4 4522   1.515   1.427   5.270 -0.4775  0.2543  0.0962
 1188SOL     OW 4523   2.375   1.003   3.975 -0.2642 -0.0137  0.2459
 1188SOL    HW2 4524   2.322   0.931   4.010  1.8328 -1.3230  0.9259
 1188SOL    HW3 4525   2.434   1.027   4.046 -0.6217  2.1503 -0.1138
 1188SOL    MW4 4526   2.375   0.996   3.989 -0.0347  0.0991  0.2881
 1189SOL     OW 4527   1.626   2.707   3.426 -0.0253 -0.2675  0.6390
 1189SOL    HW2 4528   1.700   2.667   3.471  0.2031  2.5990  3.0778
 1189SOL    HW3 4529   1.658   2.723   3.337  1.5431 -0.9053  1.0595
 1189SOL    MW4 4530   1.640   2.704   3.420  0.2117  0.0266  1.0163
 1190SOL     OW 4531   1.785   2.059   2.871 -0.2157  0.2386 -0.8080
 1190SOL    HW2 4532   1.782   2.081   2.778  0.0421 -1.6354 -1.2875
 1190SOL    HW3 4533   1.697   2.025   2.890 -0.0711  0.0285 -0.5162
 1190SOL    MW4 4534   1.773   2.057   2.861 -0.1626 -0.0364 -0.8327
 1191SOL     OW 4535   6.147   2.865   4.772  0.5068 -0.1818  0.3754
 1191SOL    HW2 4536   6.125   2.783   4.815 -0.6534  0.0815  0.3095
 1191SOL    HW3 4537   6.136   2.848   4.679  0.9158 -0.1326  0.3140
 1191SOL    MW4 4538   6.143   2.852   4.765  0.4077 -0.1405  0.3586
 1192SOL     OW 4539   4.819   0.405   4.182  0.5431  0.0288 -0.4232
 1192SOL    HW2 4540   4.738   0.452   4.201 -1.3039 -3.0486  0.0514
 1192SOL    HW3 4541   4.801   0.359   4.100  0.8524 -2.4703  0.8148
 1192SOL    MW4 4542   4.806   0.405   4.173  0.3402 -0.7070 -0.1973
 1193SOL     OW 4543   0.402   6.004   6.075 -0.2826 -0.2278 -0.2043
 1193SOL    HW2 4544   0.433   6.083   6.119  1.6522 -0.5514 -0.9222
 1193SOL    HW3 4545   0.352   6.037   6.000  0.3974  0.3348 -0.4228
 1193SOL    MW4 4546   0.399   6.018   6.071  0.0624 -0.1963 -0.3279
 1194SOL     OW 4547   1.068   5.759   0.750  0.3218 -0.5256 -0.2554
 1194SOL    HW2 4548   0.997   5.696   0.763  0.2524 -0.0165  2.4063
 1194SOL    HW3 4549   1.144   5.720   0.793  0.4798  0.8060  0.7555
 1194SOL    MW4 4550   1.069   5.746   0.757  0.3335 -0.2827  0.2291
 1195SOL     OW 4551   5.506   5.482   3.274 -0.1796  0.3041  0.7749
 1195SOL    HW2 4552   5.436   5.469   3.338  0.2537 -0.3267  1.1297
 1195SOL    HW3 4553   5.493   5.572   3.243 -0.6492  0.4755  1.4375
 1195SOL    MW4 4554   5.495   5.492   3.279 -0.1844  0.2435  0.9091
 1196SOL     OW 4555   5.103   0.158   2.846 -0.8958  0.3685 -0.1702
 1196SOL    HW2 4556   5.007   0.159   2.838 -0.9818  2.0770  0.4407
 1196SOL    HW3 4557   5.134   0.181   2.759 -1.0192 -0.3943 -0.4237
 1196SOL    MW4 4558   5.094   0.161   2.833 -0.9234  0.4933 -0.1231
 1197SOL     OW 4559   0.283   1.934   2.343  0.7663 -0.0328 -0.5768
 1197SOL    HW2 4560   0.292   1.915   2.437  1.6249  0.7689 -0.4828
 1197SOL    HW3 4561   0.357   1.890   2.302  3.3062  3.4887 -0.2559
 1197SOL    MW4 4562   0.294   1.926   2.350  1.2147  0.5376 -0.5220
 1198SOL     OW 4563   0.676   3.829   3.147  0.1905 -0.0704 -0.0155
 1198SOL    HW2 4564   0.770   3.813   3.151  0.3762 -0.7497 -3.8072
 1198SOL    HW3 4565   0.635   3.743   3.158 -0.1788  0.3511  2.7094
 1198SOL    MW4 4566   0.683   3.816   3.149  0.1663 -0.1044 -0.1563
 1199SOL     OW 4567   4.223   0.637   0.168 -0.1907  0.0360  0.3514
 1199SOL    HW2 4568   4.254   0.632   0.077 -0.8531 -0.3686  0.1416
 1199SOL    HW3 4569   4.138   0.680   0.162 -0.0202  0.4482  0.8428
 1199SOL    MW4 4570   4.216   0.642   0.155 -0.2556  0.0370  0.3885
 1200SOL     OW 4571   4.381   0.108   0.880  0.2458 -0.5192  0.5012
 1200SOL    HW2 4572   4.386   0.193   0.836  0.2620 -0.4050  0.7204
 1200SOL    HW3 4573   4.424   0.122   0.964  3.7477 -1.7401 -0.9351
 1200SOL    MW4 4574   4.387   0.121   0.885  0.7100 -0.6652  0.3406
 1201SOL     OW 4575   1.522   1.274   5.489 -0.1354  0.2548  0.5322
 1201SOL    HW2 4576   1.604   1.322   5.487 -0.3921  0.6754 -0.0845
 1201SOL    HW3 4577   1.535   1.208   5.557  1.2858 -0.7174 -0.6040
 1201SOL    MW4 4578   1.534   1.272   5.498  0.0182  0.1820  0.3009
 1202SOL     OW 4579   0.921   4.555   5.927  0.2017 -0.0699 -0.1496
 1202SOL    HW2 4580   0.837   4.585   5.962  1.0822 -1.0676  3.2054
 1202SOL    HW3 4581   0.967   4.635   5.902 -0.7460  0.6851  0.4601
 1202SOL    MW4 4582   0.916   4.569   5.929  0.1929 -0.1019  0.3735
 1203SOL     OW 4583   3.333   2.529   5.898 -0.0562 -0.1456  0.6208
 1203SOL    HW2 4584   3.377   2.602   5.942 -1.7581  1.3621 -0.0393
 1203SOL    HW3 4585   3.282   2.487   5.967 -1.4191  1.1881  0.4771
 1203SOL    MW4 4586   3.332   2.533   5.913 -0.4606  0.2293  0.5147
 1204SOL     OW 4587   0.412   1.205   4.819 -0.0383  0.0459 -0.2480
 1204SOL    HW2 4588   0.459   1.199   4.902  0.1707 -1.8217 -0.4542
 1204SOL    HW3 4589   0.474   1.171   4.754 -0.9623 -0.6014 -0.8193
 1204SOL    MW4 4590   0.427   1.199   4.821 -0.1327 -0.2859 -0.3506
 1205SOL     OW 4591   0.826   6.187   4.629 -0.1708 -0.0619  0.1919
 1205SOL    HW2 4592   0.861   6.104   4.664  0.9830  1.0528  1.8698
 1205SOL    HW3 4593   0.880   6.254   4.671  0.2687  1.4956 -2.6735
 1205SOL    MW4 4594   0.838   6.185   4.639  0.0394  0.2906  0.0352
 1206SOL     OW 4595   3.981   2.869   5.205 -0.5264  0.3108  0.9136
 1206SOL    HW2 4596   3.901   2.843   5.159 -0.4706  1.2834  0.2338
 1206SOL    HW3 4597   3.952   2.933   5.270 -0.2275  1.2961  0.1141
 1206SOL    MW4 4598   3.967   2.874   5.207 -0.4796  0.5691  0.7185
 1207SOL     OW 4599   1.433   6.343   0.795  0.0182  0.1141  0.1340
 1207SOL    HW2 4600   1.462   6.255   0.771  0.6685  0.1564  0.7522
 1207SOL    HW3 4601   1.374   6.330   0.869 -0.5505  0.1353 -0.3085
 1207SOL    MW4 4602   1.429   6.330   0.801  0.0290  0.1225  0.1571
 1208SOL     OW 4603   6.109   3.052   4.195  0.0774 -0.0192 -0.2408
 1208SOL    HW2 4604   6.193   3.072   4.236  0.4322 -0.8464 -0.5417
 1208SOL    HW3 4605   6.112   2.958   4.178  0.2599  0.3762 -2.8465
 1208SOL    MW4 4606   6.120   3.042   4.198  0.1483 -0.0761 -0.6243
 1209SOL     OW 4607   5.823   3.091   1.638 -0.1642  0.3473  0.3125
 1209SOL    HW2 4608   5.877   3.092   1.718  1.1263 -0.6190 -0.5024
 1209SOL    HW3 4609   5.876   3.139   1.574 -0.8703  0.5057 -0.1554
 1209SOL    MW4 4610   5.837   3.098   1.640 -0.0871  0.2407  0.1432
 1210SOL     OW 4611   0.985   1.595   2.241  0.0019  0.1331 -0.0666
 1210SOL    HW2 4612   1.077   1.618   2.257  0.0951 -0.9204  1.0572
 1210SOL    HW3 4613   0.963   1.641   2.160  1.9756 -0.7771 -1.2124
 1210SOL    MW4 4614   0.994   1.604   2.233  0.2746 -0.1260 -0.0695
 1211SOL     OW 4615   3.852   0.265   6.161 -0.0137  0.2347  0.1827
 1211SOL    HW2 4616   3.760   0.261   6.136 -0.0822  1.4327  0.2249
 1211SOL    HW3 4617   3.853   0.315   6.243  0.8207  1.6416 -0.6446
 1211SOL    MW4 4618   3.840   0.271   6.169  0.0873  0.5784  0.0791
 1212SOL     OW 4619   4.452   0.256   2.937  0.0103  0.3028  0.0697
 1212SOL    HW2 4620   4.431   0.349   2.927  1.0913  0.4591 -1.0109
 1212SOL    HW3 4621   4.537   0.255   2.982 -0.5009 -0.2115  1.0727
 1212SOL    MW4 4622   4.460   0.268   2.942  0.0855  0.2556  0.0595
 1213SOL     OW 4623   5.597   3.228   2.654  0.0511 -0.2899 -0.0646
 1213SOL    HW2 4624   5.630   3.145   2.687  0.7954 -1.1269 -2.6747
 1213SOL    HW3 4625   5.502   3.222   2.664  0.0870 -1.5366 -0.3623
 1213SOL    MW4 4626   5.589   3.216   2.660  0.1541 -0.5648 -0.4482
 1214SOL     OW 4627   3.932   5.145   1.718 -0.0679  0.4033  0.3813
 1214SOL    HW2 4628   3.871   5.213   1.690  0.2712  1.2925  1.6625
 1214SOL    HW3 4629   3.948   5.165   1.810  0.3764 -1.1854  0.6799
 1214SOL    MW4 4630   3.926   5.157   1.727  0.0354  0.3110  0.5897
 1215SOL     OW 4631   5.332   3.988   6.349 -0.4243  0.1472 -0.0092
 1215SOL    HW2 4632   5.312   4.053   6.416 -0.7892 -0.3363  0.3626
 1215SOL    HW3 4633   5.270   3.917   6.365  0.3820 -0.5788  0.0126
 1215SOL    MW4 4634   5.321   3.987   6.360 -0.3661 -0.0124  0.0427
 1216SOL     OW 4635   5.533   0.147   3.566  0.3326 -0.5007 -0.6150
 1216SOL    HW2 4636   5.551   0.131   3.473  3.4125 -0.9930 -0.0408
 1216SOL    HW3 4637   5.465   0.084   3.588  0.3616 -1.1754 -2.2974
 1216SOL    MW4 4638   5.527   0.137   3.556  0.7428 -0.6547 -0.7612
 1217SOL     OW 4639   5.277   6.313   5.217  0.0356 -0.2630 -1.1061
 1217SOL    HW2 4640   5.214   6.348   5.154 -1.5700 -1.9400 -0.5271
 1217SOL    HW3 4641   5.359   6.309   5.169 -0.0038  2.7453 -1.6540
 1217SOL    MW4 4642   5.279   6.317   5.203 -0.1814 -0.0874 -1.1020
 1218SOL     OW 4643   6.207   1.264   0.935 -0.1919 -0.0243  0.2059
 1218SOL    HW2 4644   6.224   1.349   0.976  0.4813  0.3991 -0.8964
 1218SOL    HW3 4645   6.121   1.237   0.968 -0.5291  1.2098  0.3650
 1218SOL    MW4 4646   6.198   1.271   0.945 -0.1475  0.1944  0.0814
 1219SOL     OW 4647   5.382   0.175   3.316 -0.3919  0.0321  0.0929
 1219SOL    HW2 4648   5.320   0.193   3.386  0.0495 -3.9140  1.7548
 1219SOL    HW3 4649   5.361   0.086   3.287  2.2514 -0.1318 -1.7116
 1219SOL    MW4 4650   5.371   0.166   3.321  0.0151 -0.5102  0.0741
 1220SOL     OW 4651   2.819   2.851   2.503  0.1380 -0.2885 -0.2124
 1220SOL    HW2 4652   2.858   2.788   2.564  0.0807 -1.7097 -1.5947
 1220SOL    HW3 4653   2.891   2.910   2.481 -0.2389  1.3747  2.5105
 1220SOL    MW4 4654   2.833   2.851   2.508  0.0807 -0.2566 -0.0355
 1221SOL     OW 4655   4.344   1.665   1.294 -0.0964 -0.1250  0.3232
 1221SOL    HW2 4656   4.249   1.670   1.283  0.0086 -0.2584 -0.7356
 1221SOL    HW3 4657   4.374   1.616   1.218  1.0196  1.6410 -0.4358
 1221SOL    MW4 4658   4.335   1.659   1.283  0.0647  0.0904  0.0834
 1222SOL     OW 4659   1.743   1.533   6.348 -0.0268  0.2069  0.5239
 1222SOL    HW2 4660   1.662   1.581   6.364 -0.2790  0.0802 -0.3444
 1222SOL    HW3 4661   1.763   1.548   6.256  1.7301  1.4192  1.0428
 1222SOL    MW4 4662   1.735   1.541   6.338  0.1717  0.3501  0.4778
 1223SOL     OW 4663   1.211   0.716   1.925 -0.3992 -0.1371  0.3500
 1223SOL    HW2 4664   1.231   0.693   1.834 -0.9777 -2.6686  0.7982
 1223SOL    HW3 4665   1.117   0.702   1.933 -0.1383 -1.3145  1.6718
 1223SOL    MW4 4666   1.202   0.711   1.914 -0.4411 -0.6264  0.5835
 1224SOL     OW 4667   1.518   1.981   5.578  0.4174 -0.1459 -0.6573
 1224SOL    HW2 4668   1.551   1.916   5.640 -0.2208  0.4464  0.3246
 1224SOL    HW3 4669   1.583   1.983   5.508  0.3425 -1.9953 -0.8207
 1224SOL    MW4 4670   1.531   1.973   5.577  0.3233 -0.3118 -0.5493
 1225SOL     OW 4671   1.383   1.868   1.227  0.0620 -0.5746  0.1628
 1225SOL    HW2 4672   1.440   1.944   1.210  0.0752  0.8523  4.9417
 1225SOL    HW3 4673   1.294   1.901   1.214  0.1017  0.1474  1.4807
 1225SOL    MW4 4674   1.379   1.883   1.223  0.0690 -0.2911  0.9672
 1226SOL     OW 4675   2.797   6.141   4.639  0.3927  0.2854 -1.1196
 1226SOL    HW2 4676   2.854   6.065   4.656 -0.1037 -0.0242 -0.8277
 1226SOL    HW3 4677   2.721   6.104   4.595  0.1491  0.6190 -0.9755
 1226SOL    MW4 4678   2.795   6.126   4.636  0.2951  0.2886 -1.0621
 1227SOL     OW 4679   2.768   4.873   4.347  0.1257 -0.3896  0.2505
 1227SOL    HW2 4680   2.739   4.797   4.398 -1.9897 -0.8275 -1.4159
 1227SOL    HW3 4681   2.766   4.946   4.408  2.0471 -1.5857  1.8620
 1227SOL    MW4 4682   2.764   4.872   4.362  0.1001 -0.6052  0.2432
 1228SOL     OW 4683   3.773   0.024   0.414  0.5130 -0.0434 -0.2487
 1228SOL    HW2 4684   3.777  -0.010   0.504 -0.3903  0.4641 -0.0068
 1228SOL    HW3 4685   3.800  -0.050   0.360 -0.1216 -0.7499  0.3638
 1228SOL    MW4 4686   3.777   0.010   0.419  0.3101 -0.0696 -0.1360
 1229SOL     OW 4687   5.777   1.424   2.827  0.1184 -0.1625 -0.8592
 1229SOL    HW2 4688   5.813   1.364   2.892  1.8248 -0.7531 -2.2678
 1229SOL    HW3 4689   5.757   1.504   2.876  0.1357 -1.0160  0.5986
 1229SOL    MW4 4690   5.779   1.427   2.842  0.3458 -0.3531 -0.8527
 1230SOL     OW 4691   0.369   5.993   5.208  0.3647  0.4268 -0.7126
 1230SOL    HW2 4692   0.457   5.955   5.204 -0.9628 -3.1162  0.0703
 1230SOL    HW3 4693   0.347   5.991   5.302 -1.0451 -0.1704 -1.0293
 1230SOL    MW4 4694   0.378   5.988   5.220  0.0035 -0.1195 -0.6511
 1231SOL     OW 4695   3.737   3.676   0.325  0.1077  0.4316  0.2322
 1231SOL    HW2 4696   3.670   3.611   0.301  0.8792  0.0861 -1.0967
 1231SOL    HW3 4697   3.765   3.713   0.241  0.5625  1.6103  0.8877
 1231SOL    MW4 4698   3.732   3.672   0.311  0.2695  0.5415  0.1434
 1232SOL     OW 4699   1.679   2.728   0.038  0.1364 -0.0285  0.3343
 1232SOL    HW2 4700   1.638   2.643   0.056 -0.7238 -0.0377 -1.4832
 1232SOL    HW3 4701   1.764   2.705   0.000  0.1953 -0.0538  0.4788
 1232SOL    MW4 4702   1.685   2.714   0.035  0.0306 -0.0331  0.1136
 1233SOL     OW 4703   2.663   5.795   1.040 -0.1571 -0.3570 -0.4141
 1233SOL    HW2 4704   2.676   5.708   1.002  0.6029  0.5633 -2.4142
 1233SOL    HW3 4705   2.752   5.827   1.056 -0.3797  0.5068 -0.8444
 1233SOL    MW4 4706   2.677   5.788   1.037 -0.0862 -0.1216 -0.7348
 1234SOL     OW 4707   1.840   1.567   3.513  0.1813  0.3628  0.5469
 1234SOL    HW2 4708   1.898   1.491   3.511 -1.3120 -0.8272 -1.5561
 1234SOL    HW3 4709   1.789   1.555   3.593  1.0189  0.0205  1.0481
 1234SOL    MW4 4710   1.841   1.556   3.523  0.0948  0.1606  0.3356
 1235SOL     OW 4711   5.152   5.777   0.978  0.0615 -0.7159 -0.0615
 1235SOL    HW2 4712   5.165   5.751   0.887  1.2110  2.1413 -0.8300
 1235SOL    HW3 4713   5.236   5.757   1.021  0.1847 -0.3000 -0.1083
 1235SOL    MW4 4714   5.165   5.771   0.972  0.2294 -0.2840 -0.1691
 1236SOL     OW 4715   6.061   2.091   6.234  0.4315 -0.1919 -0.5737
 1236SOL    HW2 4716   5.984   2.139   6.265 -0.5917 -1.3204 -1.2656
 1236SOL    HW3 4717   6.129   2.113   6.298  0.2432  2.6554 -1.2096
 1236SOL    MW4 4718   6.060   2.100   6.247  0.2717  0.0349 -0.7489
 1237SOL     OW 4719   2.026   4.253   0.579 -0.4114  0.2125 -0.0613
 1237SOL    HW2 4720   1.939   4.267   0.617  0.0188 -0.3816  1.1825
 1237SOL    HW3 4721   2.024   4.304   0.498 -1.2040  1.9255  0.9627
 1237SOL    MW4 4722   2.014   4.262   0.573 -0.4592  0.3602  0.2379
 1238SOL     OW 4723   4.752   2.633   1.889 -0.0331  0.2433  0.2228
 1238SOL    HW2 4724   4.789   2.556   1.932  1.2079  0.7441  0.0676
 1238SOL    HW3 4725   4.821   2.664   1.831 -1.1075  0.5232 -0.9537
 1238SOL    MW4 4726   4.766   2.627   1.887 -0.0111  0.3463  0.0471
 1239SOL     OW 4727   2.644   1.402   2.857 -0.2655 -0.9578 -0.4327
 1239SOL    HW2 4728   2.636   1.447   2.941 -0.5043 -0.6008 -0.6428
 1239SOL    HW3 4729   2.688   1.320   2.877 -0.4243 -0.9220  0.0566
 1239SOL    MW4 4730   2.649   1.397   2.871 -0.3179 -0.9060 -0.3958
 1240SOL     OW 4731   5.494   5.841   2.646  0.0758 -0.4753 -1.2303
 1240SOL    HW2 4732   5.430   5.845   2.717  0.4282 -1.1989 -0.8560
 1240SOL    HW3 4733   5.442   5.837   2.566 -0.4143 -2.5013 -0.8701
 1240SOL    MW4 4734   5.479   5.841   2.645  0.0576 -0.8381 -1.1334
 1241SOL     OW 4735   4.983   5.794   4.596 -0.5409 -0.0174  0.1299
 1241SOL    HW2 4736   5.000   5.783   4.689  1.4434  2.0795  0.1194
 1241SOL    HW3 4737   5.017   5.715   4.555 -0.4695 -0.4904  1.0823
 1241SOL    MW4 4738   4.990   5.782   4.603 -0.2697  0.1968  0.2542
 1242SOL     OW 4739   4.228   5.377   0.173 -0.2593  0.5785 -0.0905
 1242SOL    HW2 4740   4.197   5.287   0.186 -0.8793  0.9707  1.3752
 1242SOL    HW3 4741   4.152   5.431   0.191  0.4916  1.4500  0.5870
 1242SOL    MW4 4742   4.214   5.372   0.177 -0.2420  0.7452  0.1923
 1243SOL     OW 4743   3.226   5.633   0.469  0.0033  0.1798 -0.3328
 1243SOL    HW2 4744   3.201   5.657   0.558  0.6624 -1.5322  0.3490
 1243SOL    HW3 4745   3.322   5.639   0.468  0.1012 -1.1970 -0.4863
 1243SOL    MW4 4746   3.235   5.637   0.481  0.1031 -0.2278 -0.2631
 1244SOL     OW 4747   5.041   2.005   4.840  0.1518 -0.7309 -0.5738
 1244SOL    HW2 4748   5.028   2.097   4.862 -1.7479 -1.2646  0.9050
 1244SOL    HW3 4749   5.042   1.961   4.925  1.3587 -2.0547 -1.2411
 1244SOL    MW4 4750   5.039   2.011   4.854  0.0604 -0.9760 -0.4667
 1245SOL     OW 4751   0.409   0.556   5.716 -0.2332  0.2374  0.0309
 1245SOL    HW2 4752   0.491   0.591   5.681 -0.5780  0.9766 -0.0570
 1245SOL    HW3 4753   0.435   0.475   5.762  0.3904 -0.1017 -0.8859
 1245SOL    MW4 4754   0.423   0.550   5.717 -0.1964  0.2902 -0.1016
 1246SOL     OW 4755   3.853   4.777   3.390  0.0700 -0.3004 -0.7659
 1246SOL    HW2 4756   3.796   4.853   3.383  0.8268  0.5459  1.4834
 1246SOL    HW3 4757   3.804   4.707   3.347 -1.5133  0.9770 -1.1603
 1246SOL    MW4 4758   3.839   4.778   3.384 -0.0391 -0.0202 -0.5212
 1247SOL     OW 4759   0.643   4.136   2.865  0.3606  0.9037  0.4136
 1247SOL    HW2 4760   0.590   4.138   2.944 -0.5565  1.7773 -0.1993
 1247SOL    HW3 4761   0.683   4.223   2.860  0.4348  0.8461 -0.0614
 1247SOL    MW4 4762   0.641   4.148   2.875  0.2494  1.0114  0.2701
 1248SOL     OW 4763   5.419   5.756   6.237  0.1773  0.8349  0.6535
 1248SOL    HW2 4764   5.348   5.720   6.184  1.7919  0.0946 -1.1394
 1248SOL    HW3 4765   5.391   5.845   6.258 -0.5631  1.1511 -1.4644
 1248SOL    MW4 4766   5.406   5.763   6.233  0.2926  0.7789  0.1376
 1249SOL     OW 4767   4.223   0.579   4.733 -0.6883  0.3072 -0.1120
 1249SOL    HW2 4768   4.241   0.665   4.770 -1.2366  0.9500 -1.3036
 1249SOL    HW3 4769   4.268   0.518   4.792 -2.0785  1.2091  2.0287
 1249SOL    MW4 4770   4.231   0.582   4.746 -0.9440  0.5110  0.0132
 1250SOL     OW 4771   2.994   2.663   6.310  0.7030 -0.3968  0.8416
 1250SOL    HW2 4772   2.937   2.591   6.284 -0.8800  0.5966  1.3842
 1250SOL    HW3 4773   2.972   2.680   6.402  0.3884  1.3066  0.4953
 1250SOL    MW4 4774   2.983   2.656   6.319  0.4526 -0.0410  0.8675
 1251SOL     OW 4775   3.586   0.243   0.376 -0.7280  0.5897  0.5942
 1251SOL    HW2 4776   3.494   0.234   0.400 -0.4031 -1.2898  1.3068
 1251SOL    HW3 4777   3.620   0.154   0.378  1.4448  1.3735  1.7117
 1251SOL    MW4 4778   3.578   0.230   0.379 -0.3985  0.4452  0.8357
 1252SOL     OW 4779   1.584   0.163   4.079 -0.4493 -0.1413 -0.7307
 1252SOL    HW2 4780   1.530   0.240   4.061 -1.2761 -0.3406  0.7494
 1252SOL    HW3 4781   1.575   0.148   4.173 -0.3860 -2.1097 -0.9828
 1252SOL    MW4 4782   1.576   0.171   4.089 -0.5501 -0.4273 -0.5687
 1253SOL     OW 4783   3.195   4.060   1.518 -0.3243 -0.5216 -0.1651
 1253SOL    HW2 4784   3.243   4.067   1.435 -0.6185  2.0007 -0.1918
 1253SOL    HW3 4785   3.249   4.108   1.581  0.3716 -3.1591  1.4261
 1253SOL    MW4 4786   3.209   4.067   1.515 -0.2713 -0.5368  0.0413
 1254SOL     OW 4787   4.845   6.384   3.111 -0.2692  0.2353 -0.2877
 1254SOL    HW2 4788   4.763   6.362   3.068 -0.1932 -2.0041  0.5965
 1254SOL    HW3 4789   4.909   6.322   3.075 -0.0679 -1.2926  2.4668
 1254SOL    MW4 4790   4.843   6.373   3.100 -0.2326 -0.2617  0.1924
 1255SOL     OW 4791   3.186   4.617   4.778  0.6528 -0.3905 -0.0463
 1255SOL    HW2 4792   3.259   4.563   4.747 -1.0746 -2.2808 -1.0457
 1255SOL    HW3 4793   3.130   4.629   4.701 -0.1028  1.0406  0.6810
 1255SOL    MW4 4794   3.188   4.611   4.764  0.3252 -0.4511 -0.0822
 1256SOL     OW 4795   1.263   4.957   0.844  0.4640  0.3447  0.5181
 1256SOL    HW2 4796   1.343   4.964   0.793 -0.0045 -0.5050 -0.3612
 1256SOL    HW3 4797   1.286   4.900   0.917  0.3755 -0.8845 -0.3841
 1256SOL    MW4 4798   1.276   4.950   0.847  0.3905  0.0704  0.2830
 1257SOL     OW 4799   1.326   5.408   3.310  0.0906 -0.0488 -0.1242
 1257SOL    HW2 4800   1.260   5.404   3.379 -0.8596 -1.7536 -1.0775
 1257SOL    HW3 4801   1.310   5.493   3.267 -2.4800 -0.9752 -1.2160
 1257SOL    MW4 4802   1.315   5.419   3.313 -0.3740 -0.3960 -0.3941
 1258SOL     OW 4803   0.785   0.394   5.805  0.7548  0.8510  0.7600
 1258SOL    HW2 4804   0.860   0.371   5.859  1.4771 -1.2878 -1.0306
 1258SOL    HW3 4805   0.747   0.310   5.779 -1.7499  1.8568  0.8532
 1258SOL    MW4 4806   0.790   0.380   5.809  0.5197  0.7015  0.5360
 1259SOL     OW 4807   3.326   4.794   4.554 -0.1799 -0.3476  0.6282
 1259SOL    HW2 4808   3.394   4.805   4.621  0.3537  0.2719 -0.0025
 1259SOL    HW3 4809   3.261   4.861   4.575 -0.3091 -0.5441  0.8699
 1259SOL    MW4 4810   3.326   4.804   4.566 -0.1266 -0.2918  0.5769
 1260SOL     OW 4811   0.239   1.639   3.038 -0.2001  0.2413 -0.1153
 1260SOL    HW2 4812   0.234   1.554   2.994 -1.9809  0.6824 -0.8602
 1260SOL    HW3 4813   0.177   1.694   2.990  1.9290  2.4067 -0.5802
 1260SOL    MW4 4814   0.230   1.635   3.026 -0.1542  0.5852 -0.2750
 1261SOL     OW 4815   4.243   1.181   5.770 -0.0105 -0.1679 -0.2795
 1261SOL    HW2 4816   4.194   1.258   5.742  0.5807  0.2243 -0.2390
 1261SOL    HW3 4817   4.193   1.148   5.845 -0.3018  0.1325 -0.3366
 1261SOL    MW4 4818   4.230   1.187   5.777  0.0291 -0.0765 -0.2817
 1262SOL     OW 4819   1.976   0.747   5.234  0.1643 -0.4554  0.0783
 1262SOL    HW2 4820   2.046   0.703   5.186 -0.0180  0.0660 -0.6910
 1262SOL    HW3 4821   1.953   0.687   5.305  0.7639 -1.0356 -0.2134
 1262SOL    MW4 4822   1.982   0.733   5.237  0.2194 -0.4631 -0.0617
 1263SOL     OW 4823   3.673   6.407   1.281 -0.4324  0.3539 -0.1425
 1263SOL    HW2 4824   3.760   6.445   1.293 -0.1362 -0.2858 -0.2496
 1263SOL    HW3 4825   3.617   6.457   1.340  0.1574  0.2408  0.5200
 1263SOL    MW4 4826   3.677   6.419   1.290 -0.3155  0.2546 -0.0693
 1264SOL     OW 4827   0.741   3.650   1.517  0.1855  0.1765  0.1432
 1264SOL    HW2 4828   0.709   3.612   1.436 -0.0547  2.6792 -1.0470
 1264SOL    HW3 4829   0.785   3.578   1.562 -0.5702 -1.5290 -1.7048
 1264SOL    MW4 4830   0.743   3.636   1.513  0.0541  0.2817 -0.2576
 1265SOL     OW 4831   6.190   2.097   2.802 -0.2866  0.2589 -0.4731
 1265SOL    HW2 4832   6.143   2.180   2.792 -0.4112  0.2523 -0.0037
 1265SOL    HW3 4833   6.264   2.103   2.742 -0.3426  0.6799 -0.5013
 1265SOL    MW4 4834   6.194   2.109   2.793 -0.3104  0.3136 -0.4149
 1266SOL     OW 4835   5.532   1.568   2.438 -0.1394  0.2274 -0.1367
 1266SOL    HW2 4836   5.544   1.635   2.370  0.3297  0.6704  0.3784
 1266SOL    HW3 4837   5.478   1.501   2.396 -0.4087  0.8107 -0.7412
 1266SOL    MW4 4838   5.526   1.568   2.424 -0.1130  0.3628 -0.1485
 1267SOL     OW 4839   4.639   2.033   1.921 -0.0992 -0.1429 -0.1849
 1267SOL    HW2 4840   4.624   1.973   1.848  1.1309  0.9595 -1.4016
 1267SOL    HW3 4841   4.599   2.115   1.895 -3.3012 -0.7458  2.2036
 1267SOL    MW4 4842   4.632   2.036   1.908 -0.3594 -0.0770 -0.0303
 1268SOL     OW 4843   1.204   3.279   5.314  0.2112 -0.4060  0.2053
 1268SOL    HW2 4844   1.240   3.288   5.402  2.9343  0.1809 -0.8749
 1268SOL    HW3 4845   1.110   3.291   5.326  0.3880 -1.1470  3.1146
 1268SOL    MW4 4846   1.196   3.282   5.327  0.5938 -0.4263  0.4466
 1269SOL     OW 4847   5.649   0.023   0.117  0.6292 -0.7163  0.2818
 1269SOL    HW2 4848   5.703  -0.014   0.187  0.3993 -1.9849 -0.1902
 1269SOL    HW3 4849   5.675  -0.026   0.038 -1.5591 -1.7431  0.1268
 1269SOL    MW4 4850   5.660   0.012   0.116  0.3102 -1.0191  0.1990
 1270SOL     OW 4851   3.146   0.204   4.302 -0.5361  0.0707 -0.4779
 1270SOL    HW2 4852   3.199   0.214   4.381  0.1953  0.8453 -1.0460
 1270SOL    HW3 4853   3.058   0.185   4.334 -0.1346 -0.1787  0.5074
 1270SOL    MW4 4854   3.142   0.203   4.316 -0.3866  0.1400 -0.4228
 1271SOL     OW 4855   5.128   3.637   2.403 -0.0374 -0.5704  0.7962
 1271SOL    HW2 4856   5.077   3.710   2.439 -1.0456 -0.6851 -0.3180
 1271SOL    HW3 4857   5.120   3.647   2.308  0.2912 -1.7974  0.6229
 1271SOL    MW4 4858   5.120   3.648   2.395 -0.1270 -0.7474  0.6264
 1272SOL     OW 4859   0.832   0.899   0.770  0.3995  0.7943 -0.1078
 1272SOL    HW2 4860   0.811   0.948   0.691 -2.4033 -1.1900 -0.7489
 1272SOL    HW3 4861   0.776   0.937   0.838 -0.9559 -0.6374 -0.3490
 1272SOL    MW4 4862   0.822   0.910   0.768 -0.1491  0.3436 -0.2242
 1273SOL     OW 4863   4.789   4.330   4.998 -0.1586  0.9203  0.1998
 1273SOL    HW2 4864   4.742   4.338   4.915 -1.0572 -1.0953  0.4709
 1273SOL    HW3 4865   4.863   4.273   4.979 -1.3884 -1.0876  1.1117
 1273SOL    MW4 4866   4.792   4.324   4.985 -0.4394  0.3894  0.3559
 1274SOL     OW 4867   0.961   0.629   4.704 -0.3828 -0.1364 -0.0236
 1274SOL    HW2 4868   0.918   0.713   4.688  1.5913  0.8307 -0.4993
 1274SOL    HW3 4869   0.924   0.599   4.788 -1.0769  1.2317  0.1804
 1274SOL    MW4 4870   0.950   0.636   4.713 -0.2139  0.1717 -0.0594
 1275SOL     OW 4871   5.746   5.543   4.072 -0.1459  0.1769  0.0671
 1275SOL    HW2 4872   5.803   5.595   4.128 -0.4681 -0.1953  0.7556
 1275SOL    HW3 4873   5.804   5.504   4.006  0.3436  0.0307  0.5865
 1275SOL    MW4 4874   5.761   5.545   4.070 -0.1238  0.1085  0.2264
 1276SOL     OW 4875   5.739   6.022   2.935  0.1819 -0.3963 -0.0850
 1276SOL    HW2 4876   5.657   6.054   2.898  0.5522 -0.4478 -0.9872
 1276SOL    HW3 4877   5.803   6.033   2.864  0.7112 -1.4016  0.2109
 1276SOL    MW4 4878   5.737   6.027   2.920  0.3006 -0.5357 -0.1650
 1277SOL     OW 4879   2.286   2.745   2.348 -0.2294 -0.6038  0.0440
 1277SOL    HW2 4880   2.237   2.803   2.291 -1.5884 -1.6414  0.1004
 1277SOL    HW3 4881   2.268   2.777   2.436 -0.3462 -0.6350  0.0319
 1277SOL    MW4 4882   2.277   2.756   2.352 -0.4241 -0.7448  0.0499
 1278SOL     OW 4883   2.744   4.212   1.439  0.5596 -0.2754  0.5545
 1278SOL    HW2 4884   2.724   4.218   1.533  1.2383 -0.5232  0.7225
 1278SOL    HW3 4885   2.830   4.255   1.430  0.7913 -0.8099  0.1554
 1278SOL    MW4 4886   2.753   4.219   1.451  0.6797 -0.3786  0.5240
 1279SOL     OW 4887   3.284   1.938   0.708  0.0560  0.3434  0.0289
 1279SOL    HW2 4888   3.238   2.016   0.739  1.9081  2.2709 -1.7490
 1279SOL    HW3 4889   3.343   1.916   0.780 -0.1104  0.9293  0.3555
 1279SOL    MW4 4890   3.286   1.946   0.722  0.2784  0.6750 -0.1626
 1280SOL     OW 4891   2.261   0.074   0.368 -0.3235 -0.0305  0.1127
 1280SOL    HW2 4892   2.291   0.001   0.314 -0.2272  0.3476 -0.3512
 1280SOL    HW3 4893   2.280   0.047   0.458  0.1092 -0.3962 -0.0852
 1280SOL    MW4 4894   2.267   0.061   0.373 -0.2537 -0.0288  0.0254
 1281SOL     OW 4895   0.928   4.175   0.613 -0.2047  0.6962 -0.4830
 1281SOL    HW2 4896   0.946   4.268   0.626  0.0282  0.6556 -0.5051
 1281SOL    HW3 4897   0.847   4.159   0.660  0.4993  0.5990  0.7301
 1281SOL    MW4 4898   0.920   4.185   0.621 -0.0811  0.6781 -0.3259
 1282SOL     OW 4899   5.335   3.007   4.715 -0.0384 -0.8653 -0.9934
 1282SOL    HW2 4900   5.354   2.957   4.794  0.4732  0.0120 -0.5519
 1282SOL    HW3 4901   5.323   2.941   4.647 -0.2560 -1.6180 -0.2336
 1282SOL    MW4 4902   5.336   2.992   4.716  0.0004 -0.8488 -0.8349
 1283SOL     OW 4903   6.317   1.968   0.389 -0.5688  0.7862 -0.7318
 1283SOL    HW2 4904   6.410   1.965   0.413 -0.2533  2.2348 -1.6391
 1283SOL    HW3 4905   6.289   1.876   0.390  0.0338  0.5061  2.5595
 1283SOL    MW4 4906   6.325   1.955   0.393 -0.4476  0.9404 -0.4173
 1284SOL     OW 4907   4.211   6.401   1.677 -0.1735 -0.6712 -0.0212
 1284SOL    HW2 4908   4.283   6.432   1.732 -0.0995 -0.2416 -0.3529
 1284SOL    HW3 4909   4.194   6.473   1.616 -1.5453 -0.3550  0.6770
 1284SOL    MW4 4910   4.218   6.415   1.676 -0.3448 -0.5728  0.0272
 1285SOL     OW 4911   1.063   0.367   1.946  0.4709 -0.2826  0.4123
 1285SOL    HW2 4912   1.101   0.280   1.960 -2.4952 -2.1141 -1.8150
 1285SOL    HW3 4913   1.078   0.386   1.854  0.9848  1.5920  0.8422
 1285SOL    MW4 4914   1.070   0.358   1.936  0.1473 -0.2769  0.1751
 1286SOL     OW 4915   6.414   6.133   5.332  0.4639 -0.1687 -0.1741
 1286SOL    HW2 4916   6.479   6.203   5.325  1.3350 -1.0146 -0.9142
 1286SOL    HW3 4917   6.427   6.096   5.419  0.9458 -0.2995 -0.2994
 1286SOL    MW4 4918   6.424   6.137   5.342  0.6424 -0.2976 -0.2883
 1287SOL     OW 4919   0.640   0.742   1.745  0.4339 -0.4976 -0.0027
 1287SOL    HW2 4920   0.564   0.788   1.711 -0.5352 -0.9147  1.5139
 1287SOL    HW3 4921   0.633   0.749   1.840  1.0265 -2.4922  0.2474
 1287SOL    MW4 4922   0.629   0.749   1.753  0.3842 -0.8158  0.2304
 1288SOL     OW 4923   5.613   1.250   5.973 -0.1194 -0.0917  0.4202
 1288SOL    HW2 4924   5.569   1.331   5.949  0.2720  0.4292  1.3974
 1288SOL    HW3 4925   5.591   1.189   5.903 -0.3408  0.8813 -0.3807
 1288SOL    MW4 4926   5.605   1.253   5.960 -0.0970  0.1054  0.4435
 1289SOL     OW 4927   1.180   5.356   2.696 -0.2445  0.0618  0.2321
 1289SOL    HW2 4928   1.149   5.276   2.654  2.0405 -0.4992 -0.5645
 1289SOL    HW3 4929   1.258   5.381   2.645 -1.4254  3.3800 -0.2105
 1289SOL    MW4 4930   1.186   5.349   2.683 -0.0988  0.4256  0.0686
 1290SOL     OW 4931   4.533   3.214   5.658  0.1762 -0.2698  0.3330
 1290SOL    HW2 4932   4.522   3.153   5.731  1.4735 -1.2155 -0.2317
 1290SOL    HW3 4933   4.570   3.161   5.587  2.2700  1.3266  0.1312
 1290SOL    MW4 4934   4.536   3.199   5.658  0.6236 -0.1840  0.2319
 1291SOL     OW 4935   1.517   4.649   5.271  0.1392  0.5387  0.6216
 1291SOL    HW2 4936   1.557   4.706   5.205 -0.0674  1.4647  1.2819
 1291SOL    HW3 4937   1.542   4.560   5.244 -0.7478  0.8158 -1.2510
 1291SOL    MW4 4938   1.526   4.645   5.259 -0.0051  0.6975  0.4616
 1292SOL     OW 4939   0.591   3.433   1.729 -0.6558  0.2396  0.5308
 1292SOL    HW2 4940   0.581   3.392   1.643 -3.3613 -0.5935  1.1483
 1292SOL    HW3 4941   0.672   3.484   1.722 -0.3342 -0.4929 -2.2051
 1292SOL    MW4 4942   0.601   3.435   1.717 -0.9703  0.0330  0.2513
 1293SOL     OW 4943   0.849   5.797   5.253  0.2857  0.9666 -0.3146
 1293SOL    HW2 4944   0.871   5.885   5.282  0.1839  1.6271 -2.1724
 1293SOL    HW3 4945   0.819   5.753   5.333  1.8026  2.1059  0.9559
 1293SOL    MW4 4946   0.848   5.802   5.268  0.4724  1.2041 -0.3921
 1294SOL     OW 4947   3.004   2.400   4.008 -0.6454 -0.1248  0.2181
 1294SOL    HW2 4948   3.067   2.400   3.936 -1.3507  0.5542 -0.4208
 1294SOL    HW3 4949   3.024   2.480   4.057 -0.0223 -0.6961  0.9347
 1294SOL    MW4 4950   3.015   2.410   4.005 -0.6563 -0.1106  0.2283
 1295SOL     OW 4951   1.085   2.593   2.095  0.0840  0.2167 -0.2172
 1295SOL    HW2 4952   1.063   2.503   2.117 -2.6017  1.0867  1.1694
 1295SOL    HW3 4953   1.072   2.599   2.000 -1.3973 -0.5005 -0.0930
 1295SOL    MW4 4954   1.080   2.582   2.085 -0.4658  0.2368 -0.0179
 1296SOL     OW 4955   4.844   0.975   1.187  0.1690  0.4270 -0.2154
 1296SOL    HW2 4956   4.853   0.937   1.274  1.8284  0.7097 -0.2416
 1296SOL    HW3 4957   4.926   0.954   1.143 -0.9848 -0.4832 -2.0453
 1296SOL    MW4 4958   4.856   0.967   1.193  0.2357  0.3442 -0.4603
 1297SOL     OW 4959   1.528   2.661   2.132  0.3530  0.4448  0.3534
 1297SOL    HW2 4960   1.522   2.740   2.185 -1.4250  0.6351 -0.0604
 1297SOL    HW3 4961   1.458   2.670   2.067 -0.6043 -1.9237  0.9450
 1297SOL    MW4 4962   1.518   2.673   2.130 -0.0079  0.1574  0.3768
 1298SOL     OW 4963   0.895   2.060   5.991 -0.1746  0.0739 -0.1412
 1298SOL    HW2 4964   0.826   2.126   5.984  0.4231  1.0176  2.1130
 1298SOL    HW3 4965   0.970   2.106   6.029  1.1894 -1.2922 -1.0286
 1298SOL    MW4 4966   0.896   2.074   5.995  0.0843  0.0182  0.0391
 1299SOL     OW 4967   5.747   3.395   1.222 -0.6414  0.3601 -0.3271
 1299SOL    HW2 4968   5.800   3.375   1.145 -0.2667  2.1642 -0.5716
 1299SOL    HW3 4969   5.716   3.309   1.252  1.0436 -0.5914 -1.1490
 1299SOL    MW4 4970   5.750   3.381   1.216 -0.3696  0.4726 -0.4678
 1300SOL     OW 4971   2.689   1.370   5.329 -0.1451  0.2765 -0.0748
 1300SOL    HW2 4972   2.650   1.449   5.292  1.7244  0.9948 -0.6161
 1300SOL    HW3 4973   2.767   1.355   5.276 -0.0695 -1.5352  0.4808
 1300SOL    MW4 4974   2.694   1.378   5.317  0.1115  0.1322 -0.0729
 1301SOL     OW 4975   1.282   1.461   6.250 -0.0786 -0.0884  0.7719
 1301SOL    HW2 4976   1.329   1.381   6.225 -1.3513 -0.3935 -0.7704
 1301SOL    HW3 4977   1.256   1.446   6.341 -1.4355 -2.0145  0.1207
 1301SOL    MW4 4978   1.285   1.448   6.259 -0.4256 -0.3828  0.4825
 1302SOL     OW 4979   2.888   0.894   2.285 -0.2861 -0.3040  0.0434
 1302SOL    HW2 4980   2.943   0.822   2.253  0.3653 -0.0780  0.6385
 1302SOL    HW3 4981   2.809   0.851   2.316  0.0437 -0.7619  0.2741
 1302SOL    MW4 4982   2.885   0.879   2.285 -0.1566 -0.3346  0.1524
 1303SOL     OW 4983   0.019   4.965   2.500  0.4292 -0.4208  0.2122
 1303SOL    HW2 4984   0.079   4.982   2.427  1.3487  0.1400  1.0778
 1303SOL    HW3 4985   0.071   4.981   2.578 -0.5475 -0.9947  1.0079
 1303SOL    MW4 4986   0.034   4.969   2.500  0.4216 -0.4225  0.4314
 1304SOL     OW 4987   3.219   0.922   3.872  0.0094 -0.4969  0.2864
 1304SOL    HW2 4988   3.308   0.956   3.862  0.3446 -1.2383  0.6948
 1304SOL    HW3 4989   3.224   0.831   3.842 -0.8680 -0.2319 -0.7532
 1304SOL    MW4 4990   3.231   0.914   3.867 -0.0621 -0.5597  0.2031
 1305SOL     OW 4991   5.733   0.088   3.074  0.3227  0.2556 -0.3807
 1305SOL    HW2 4992   5.766   0.135   2.998 -0.7897  0.9182 -0.4807
 1305SOL    HW3 4993   5.640   0.073   3.055  0.1962 -0.2308  0.5181
 1305SOL    MW4 4994   5.725   0.092   3.062  0.1592  0.2788 -0.2753
 1306SOL     OW 4995   5.808   1.905   2.699 -0.1601  0.3882  0.4288
 1306SOL    HW2 4996   5.858   1.824   2.688  0.9133  0.6796  2.5792
 1306SOL    HW3 4997   5.722   1.876   2.728 -0.2744 -0.0102 -0.2798
 1306SOL    MW4 4998   5.804   1.890   2.701 -0.0336  0.3741  0.6190
 1307SOL     OW 4999   1.627   3.454   3.435  0.4090  0.0787 -0.0289
 1307SOL    HW2 5000   1.555   3.394   3.453 -0.7849  1.3326 -0.4857
 1307SOL    HW3 5001   1.626   3.516   3.508  1.8823 -0.6397  0.6429
 1307SOL    MW4 5002   1.617   3.454   3.447  0.4459  0.1494 -0.0006
 1308SOL     OW 5003   2.014   2.584   0.541 -0.1485  0.3944  0.0588
 1308SOL    HW2 5004   2.094   2.533   0.555 -1.9296 -2.0837  2.2364
 1308SOL    HW3 5005   1.990   2.566   0.450 -0.6377 -2.7691  0.6974
 1308SOL    MW4 5006   2.022   2.575   0.531 -0.4481 -0.3500  0.4304
 1309SOL     OW 5007   0.712   3.746   2.366  0.5915  0.4192 -0.2605
 1309SOL    HW2 5008   0.687   3.793   2.286 -1.3513  1.9247  1.1378
 1309SOL    HW3 5009   0.729   3.656   2.336 -1.2850  0.6215 -2.2072
 1309SOL    MW4 5010   0.711   3.740   2.351  0.0876  0.6445 -0.3328
 1310SOL     OW 5011   4.465   2.718   1.583  0.3611 -0.4541  0.3199
 1310SOL    HW2 5012   4.424   2.750   1.502  0.2539  1.3972  1.0708
 1310SOL    HW3 5013   4.411   2.753   1.653  2.7493  1.4582  1.3321
 1310SOL    MW4 5014   4.452   2.727   1.581  0.6621  0.0425  0.5525
 1311SOL     OW 5015   0.714   5.941   2.547 -0.2047 -0.2402  0.0426
 1311SOL    HW2 5016   0.783   5.886   2.584 -1.7039 -0.2574  3.0526
 1311SOL    HW3 5017   0.635   5.888   2.552 -1.0944  1.0366  0.0166
 1311SOL    MW4 5018   0.713   5.927   2.552 -0.5199 -0.0740  0.4363
 1312SOL     OW 5019   1.820   5.158   5.714 -0.0642 -0.2572  0.6514
 1312SOL    HW2 5020   1.880   5.110   5.771  0.4445 -1.9508 -1.1927
 1312SOL    HW3 5021   1.733   5.138   5.749  0.3211  1.2177  2.6075
 1312SOL    MW4 5022   1.817   5.149   5.727  0.0537 -0.2861  0.6662
 1313SOL     OW 5023   3.854   6.245   2.561  0.5594 -0.3619  0.4290
 1313SOL    HW2 5024   3.908   6.295   2.622  1.3159  0.1465 -0.6293
 1313SOL    HW3 5025   3.868   6.153   2.586  0.9390 -0.1618  0.9513
 1313SOL    MW4 5026   3.863   6.239   2.572  0.7093 -0.2685  0.3583
 1314SOL     OW 5027   5.070   0.785   2.875 -0.3919  0.2916 -0.0222
 1314SOL    HW2 5028   5.043   0.757   2.962  0.8389  0.8535  0.5716
 1314SOL    HW3 5029   5.164   0.800   2.883 -0.2558  0.3428 -1.4565
 1314SOL    MW4 5030   5.079   0.784   2.887 -0.2116  0.3725 -0.1331
 1315SOL     OW 5031   5.575   4.107   0.547 -0.0100 -0.3754 -0.4060
 1315SOL    HW2 5032   5.518   4.140   0.477 -0.4501 -1.5844 -0.6541
 1315SOL    HW3 5033   5.562   4.012   0.544  2.2540 -0.7269 -0.6657
 1315SOL    MW4 5034   5.566   4.099   0.537  0.2307 -0.5813 -0.4730
 1316SOL     OW 5035   0.660   0.749   2.020  0.5112 -0.5387  0.2392
 1316SOL    HW2 5036   0.650   0.830   2.071 -1.1199 -0.9020  0.5320
 1316SOL    HW3 5037   0.680   0.682   2.085  2.2409 -0.3390 -0.0428
 1316SOL    MW4 5038   0.662   0.751   2.035  0.5242 -0.5602  0.2406
 1317SOL     OW 5039   6.370   4.943   5.002 -0.3117 -0.0464  0.3489
 1317SOL    HW2 5040   6.364   4.863   5.055  0.8291  0.8981  1.9679
 1317SOL    HW3 5041   6.459   4.974   5.015 -0.7921  1.6131 -0.1009
 1317SOL    MW4 5042   6.381   4.936   5.010 -0.2246  0.2971  0.5032
 1318SOL     OW 5043   3.019   3.458   5.302 -0.2424  0.2171  0.2738
 1318SOL    HW2 5044   2.978   3.383   5.258 -0.0837  0.4553 -0.2895
 1318SOL    HW3 5045   3.108   3.461   5.266 -0.7838  1.7389 -1.0660
 1318SOL    MW4 5046   3.025   3.448   5.291 -0.2929  0.4493  0.0227
 1319SOL     OW 5047   0.715   1.041   2.664 -0.8964 -0.0176 -0.4052
 1319SOL    HW2 5048   0.720   1.069   2.573 -0.1616  0.4743 -0.2175
 1319SOL    HW3 5049   0.664   1.109   2.707 -0.9125 -0.0534 -0.3676
 1319SOL    MW4 5050   0.709   1.053   2.657 -0.8016  0.0426 -0.3755
 1320SOL     OW 5051   2.609   5.043   4.173  0.1746 -0.6029  0.1532
 1320SOL    HW2 5052   2.556   4.974   4.133  0.7136  0.0206 -1.7305
 1320SOL    HW3 5053   2.687   4.996   4.205  0.0081 -1.0392 -0.0647
 1320SOL    MW4 5054   2.612   5.027   4.172  0.2237 -0.5782 -0.1241
 1321SOL     OW 5055   4.621   3.275   0.883 -0.0754 -0.0033 -0.3305
 1321SOL    HW2 5056   4.625   3.358   0.837  1.7056  0.5845  0.7662
 1321SOL    HW3 5057   4.648   3.210   0.817 -1.1134  0.2957 -1.0834
 1321SOL    MW4 5058   4.625   3.277   0.868  0.0227  0.1137 -0.2851
 1322SOL     OW 5059   4.806   1.008   0.307  0.0413  0.1145 -0.0925
 1322SOL    HW2 5060   4.783   1.025   0.215  1.9086  2.3304 -0.2308
 1322SOL    HW3 5061   4.826   1.094   0.343 -0.1995 -0.7614  2.3112
 1322SOL    MW4 5062   4.805   1.021   0.299  0.2559  0.2913  0.2064
 1323SOL     OW 5063   5.665   2.792   5.310 -0.2420  0.5316 -0.6363
 1323SOL    HW2 5064   5.750   2.751   5.325  0.2421  1.7811  0.2100
 1323SOL    HW3 5065   5.620   2.733   5.249  1.1149 -0.2840 -0.8849
 1323SOL    MW4 5066   5.670   2.779   5.304  0.0009  0.5889 -0.5575
 1324SOL     OW 5067   2.803   0.312   1.290  0.8284 -0.0341 -0.5897
 1324SOL    HW2 5068   2.721   0.353   1.318  0.0850 -1.5194 -0.4883
 1324SOL    HW3 5069   2.784   0.218   1.291  3.0981 -0.5679  1.3047
 1324SOL    MW4 5070   2.790   0.305   1.294  1.0298 -0.3005 -0.3264
 1325SOL     OW 5071   3.832   5.497   6.235  0.4384 -0.5956  0.4671
 1325SOL    HW2 5072   3.773   5.495   6.160  0.7599 -1.1716  0.2221
 1325SOL    HW3 5073   3.914   5.529   6.200  0.1086  0.8185  0.9389
 1325SOL    MW4 5074   3.835   5.501   6.221  0.4373 -0.4850  0.4970
 1326SOL     OW 5075   2.044   5.869   4.212 -0.0594  0.5117  0.4423
 1326SOL    HW2 5076   2.099   5.814   4.156  0.0941  1.0998  0.0095
 1326SOL    HW3 5077   2.085   5.863   4.298  0.8142  1.1065  0.0843
 1326SOL    MW4 5078   2.057   5.861   4.216  0.0761  0.6678  0.3379
 1327SOL     OW 5079   2.262   0.319   0.069  0.0095 -0.2642 -0.0194
 1327SOL    HW2 5080   2.341   0.289   0.114 -0.7308 -1.6418  0.4447
 1327SOL    HW3 5081   2.228   0.240   0.026 -1.2230  0.2416 -0.0170
 1327SOL    MW4 5082   2.268   0.305   0.069 -0.2507 -0.3792  0.0421
 1328SOL     OW 5083   1.726   0.246   3.556  0.1976  0.1445 -0.7677
 1328SOL    HW2 5084   1.747   0.208   3.641  0.3985 -0.4170 -1.0635
 1328SOL    HW3 5085   1.720   0.340   3.573 -1.8305 -0.1236  0.3022
 1328SOL    MW4 5086   1.728   0.254   3.569 -0.0435  0.0350 -0.6656
 1329SOL     OW 5087   1.834   0.960   3.497  0.2222  0.2161  0.5621
 1329SOL    HW2 5088   1.863   0.910   3.420 -2.3194 -1.3096  0.4638
 1329SOL    HW3 5089   1.915   0.995   3.535  1.7607 -0.7884 -1.5670
 1329SOL    MW4 5090   1.849   0.958   3.492  0.0899 -0.1177  0.2682
 1330SOL     OW 5091   0.967   0.378   5.448  0.0678  0.1185  0.1602
 1330SOL    HW2 5092   0.943   0.289   5.474 -1.3960  1.0794  2.4345
 1330SOL    HW3 5093   1.061   0.384   5.468  0.1638 -0.8841  0.0623
 1330SOL    MW4 5094   0.977   0.367   5.454 -0.1127  0.1130  0.4473
 1331SOL     OW 5095   0.848   1.656   0.853 -0.0677  0.1779  0.6111
 1331SOL    HW2 5096   0.755   1.643   0.870 -0.3272 -0.3164 -1.0811
 1331SOL    HW3 5097   0.851   1.711   0.775  1.0647 -0.3805  0.2528
 1331SOL    MW4 5098   0.836   1.662   0.845  0.0475  0.0390  0.3406
 1332SOL     OW 5099   2.633   1.389   0.887  0.5416  0.0318 -0.2843
 1332SOL    HW2 5100   2.605   1.478   0.862 -0.7795  0.1982  1.5800
 1332SOL    HW3 5101   2.551   1.343   0.906  1.3223 -0.9815  0.7130
 1332SOL    MW4 5102   2.619   1.395   0.886  0.4703 -0.0799  0.0932
 1333SOL     OW 5103   2.148   2.970   3.313 -0.0651 -0.0695 -0.4349
 1333SOL    HW2 5104   2.236   2.939   3.333  0.1830 -0.6105 -2.2182
 1333SOL    HW3 5105   2.154   3.065   3.316  0.5068 -0.1094 -0.2938
 1333SOL    MW4 5106   2.160   2.978   3.316  0.0431 -0.1461 -0.6516
 1334SOL     OW 5107   5.512   4.449   1.540 -0.3032  0.9225  0.3185
 1334SOL    HW2 5108   5.456   4.417   1.470 -0.3471 -0.5226  0.9814
 1334SOL    HW3 5109   5.599   4.414   1.519 -0.3012  0.5465  0.9307
 1334SOL    MW4 5110   5.516   4.440   1.528 -0.3087  0.6823  0.4868
 1335SOL     OW 5111   6.431   5.772   1.555 -0.4659 -0.0565 -0.8367
 1335SOL    HW2 5112   6.465   5.861   1.541  0.1957 -0.5280 -2.3663
 1335SOL    HW3 5113   6.465   5.721   1.482 -0.2838 -1.7480  0.3580
 1335SOL    MW4 5114   6.440   5.777   1.544 -0.3546 -0.3419 -0.8809
 1336SOL     OW 5115   3.702   2.326   2.095 -0.3865 -0.6497  0.3700
 1336SOL    HW2 5116   3.798   2.321   2.103 -0.2245 -1.8820 -1.5291
 1336SOL    HW3 5117   3.674   2.378   2.170  2.2251  4.2213 -1.5775
 1336SOL    MW4 5118   3.711   2.332   2.106 -0.0205 -0.1696 -0.1375
 1337SOL     OW 5119   1.452   0.889   1.323  0.6027 -0.0760  0.1551
 1337SOL    HW2 5120   1.410   0.926   1.245  1.7469  0.8044 -0.0797
 1337SOL    HW3 5121   1.429   0.949   1.394  1.0836  0.1675  0.1114
 1337SOL    MW4 5122   1.444   0.902   1.322  0.8171  0.0723  0.1184
 1338SOL     OW 5123   2.713   3.679   5.157 -0.2464  0.3341  0.3483
 1338SOL    HW2 5124   2.711   3.690   5.062  0.5268 -0.5917  0.2057
 1338SOL    HW3 5125   2.799   3.711   5.183  0.2043 -0.9609  0.5058
 1338SOL    MW4 5126   2.724   3.685   5.147 -0.0849  0.0411  0.3503
 1339SOL     OW 5127   1.280   6.154   2.697 -0.2543  0.0561 -0.3244
 1339SOL    HW2 5128   1.337   6.231   2.702  0.7086 -0.6933  0.8920
 1339SOL    HW3 5129   1.304   6.113   2.614 -0.9736  1.1824 -1.1230
 1339SOL    MW4 5130   1.291   6.159   2.687 -0.2222  0.1058 -0.2693
 1340SOL     OW 5131   3.907   3.784   6.011 -0.4481 -0.3717 -0.0868
 1340SOL    HW2 5132   3.979   3.781   5.948 -0.0416  1.6380  0.2336
 1340SOL    HW3 5133   3.878   3.875   6.011 -1.1611 -0.5564  1.8335
 1340SOL    MW4 5134   3.913   3.796   6.002 -0.4886 -0.1309  0.2089
 1341SOL     OW 5135   5.498   5.057   1.154 -0.3075  0.1489 -0.1793
 1341SOL    HW2 5136   5.471   5.097   1.237  0.7303  0.9943 -0.2260
 1341SOL    HW3 5137   5.421   5.065   1.098 -0.2005  1.9592 -0.1254
 1341SOL    MW4 5138   5.484   5.063   1.158 -0.1565  0.4993 -0.1784
 1342SOL     OW 5139   4.992   0.779   1.809 -0.3868 -0.5328  0.2045
 1342SOL    HW2 5140   4.975   0.703   1.864  1.6807 -1.7002 -0.6545
 1342SOL    HW3 5141   5.084   0.770   1.783 -0.3670  1.7285 -0.7563
 1342SOL    MW4 5142   5.002   0.768   1.813 -0.1114 -0.3885 -0.0356
 1343SOL     OW 5143   1.167   1.628   5.991 -0.7848  0.3087  0.2067
 1343SOL    HW2 5144   1.207   1.550   6.030 -1.8616 -0.6121 -0.4494
 1343SOL    HW3 5145   1.193   1.700   6.048  0.1467 -0.5425  0.8964
 1343SOL    MW4 5146   1.176   1.627   6.004 -0.8040  0.0749  0.2111
 1344SOL     OW 5147   0.024   3.814   2.064  0.6676  0.2757  0.5524
 1344SOL    HW2 5148  -0.014   3.895   2.029 -0.1180 -0.2704  0.1031
 1344SOL    HW3 5149  -0.019   3.802   2.148  0.9317  0.4307  0.7094
 1344SOL    MW4 5150   0.013   3.823   2.070  0.5988  0.2241  0.5138
 1345SOL     OW 5151   2.185   3.436   3.491  0.1047 -0.3517  0.8363
 1345SOL    HW2 5152   2.209   3.503   3.427  0.2534 -1.4296 -0.2592
 1345SOL    HW3 5153   2.267   3.418   3.538  0.0397  0.2991  1.2139
 1345SOL    MW4 5154   2.199   3.443   3.489  0.1158 -0.4081  0.7416
 1346SOL     OW 5155   2.048   2.056   2.430  0.5015  0.2607 -0.1071
 1346SOL    HW2 5156   1.993   2.068   2.353  0.0274  0.3176  0.2363
 1346SOL    HW3 5157   2.134   2.091   2.404  1.2504 -2.4821 -1.6560
 1346SOL    MW4 5158   2.052   2.062   2.416  0.5378 -0.0937 -0.2661
 1347SOL     OW 5159   2.673   4.497   0.536  0.0746 -0.1886 -0.2586
 1347SOL    HW2 5160   2.768   4.493   0.536  0.1195  0.4852  0.6108
 1347SOL    HW3 5161   2.645   4.416   0.579  0.2821 -0.0525  0.1322
 1347SOL    MW4 5162   2.682   4.486   0.542  0.1079 -0.0818 -0.0923
 1348SOL     OW 5163   3.600   3.619   1.714  0.2578 -0.0759 -0.6544
 1348SOL    HW2 5164   3.520   3.599   1.665 -0.8540  1.0456  0.6318
 1348SOL    HW3 5165   3.603   3.551   1.782 -0.0232  0.3266 -0.2367
 1348SOL    MW4 5166   3.589   3.607   1.716  0.0740  0.1252 -0.4296
 1349SOL     OW 5167   1.034   4.331   6.067  0.0735 -0.1057 -0.0199
 1349SOL    HW2 5168   0.977   4.375   6.004 -0.4790 -0.3819  0.2841
 1349SOL    HW3 5169   1.121   4.365   6.048 -0.0422 -0.3785 -1.1175
 1349SOL    MW4 5170   1.038   4.341   6.056 -0.0146 -0.1781 -0.1246
 1350SOL     OW 5171   2.418   1.759   3.914 -0.5349 -0.1476  0.3754
 1350SOL    HW2 5172   2.334   1.718   3.892 -0.9374  0.3868  0.8662
 1350SOL    HW3 5173   2.421   1.838   3.859 -0.0563 -0.5028 -0.1082
 1350SOL    MW4 5174   2.407   1.764   3.904 -0.5248 -0.1240  0.3763
 1351SOL     OW 5175   5.938   1.757   2.294 -0.8477  0.5225  0.4200
 1351SOL    HW2 5176   5.867   1.818   2.311 -0.9782  0.2529  0.8509
 1351SOL    HW3 5177   5.906   1.673   2.327 -0.5805  0.2686  0.0372
 1351SOL    MW4 5178   5.925   1.754   2.301 -0.8296  0.4534  0.4264
 1352SOL     OW 5179   0.973   1.963   2.832  0.4986 -0.3044 -0.8389
 1352SOL    HW2 5180   0.990   2.057   2.832  2.4995 -0.6089  0.5871
 1352SOL    HW3 5181   0.913   1.949   2.905 -0.1290 -0.1068 -1.3076
 1352SOL    MW4 5182   0.967   1.974   2.841  0.6798 -0.3185 -0.7126
 1353SOL     OW 5183   3.373   0.450   2.303 -0.2754  0.5368  0.4050
 1353SOL    HW2 5184   3.449   0.496   2.338  0.2629 -0.1034  0.0994
 1353SOL    HW3 5185   3.401   0.359   2.295 -1.0005  0.3314  0.0719
 1353SOL    MW4 5186   3.386   0.444   2.307 -0.3001  0.4252  0.3207
 1354SOL     OW 5187   6.033   5.005   2.056  0.2398 -0.1269  0.0517
 1354SOL    HW2 5188   6.128   4.991   2.061  0.3338  0.8605  3.2480
 1354SOL    HW3 5189   5.996   4.917   2.058  1.0645 -0.5003 -0.4069
 1354SOL    MW4 5190   6.041   4.992   2.057  0.3610 -0.0459  0.4129
 1355SOL     OW 5191   6.409   6.114   4.114 -0.2833 -0.3920 -0.4955
 1355SOL    HW2 5192   6.399   6.024   4.084 -0.8833 -0.3156 -0.5309
 1355SOL    HW3 5193   6.424   6.164   4.034 -2.4420 -0.1055 -0.7844
 1355SOL    MW4 5194   6.410   6.109   4.100 -0.6473 -0.3441 -0.5383
 1356SOL     OW 5195   4.659   5.452   2.160 -0.0111  0.2092  0.0468
 1356SOL    HW2 5196   4.751   5.435   2.176 -0.0692  1.7059  2.5980
 1356SOL    HW3 5197   4.656   5.496   2.075  1.8888  1.8353  0.7558
 1356SOL    MW4 5198   4.670   5.455   2.151  0.2319  0.6212  0.4770
 1357SOL     OW 5199   6.069   1.639   1.690  0.2610  0.1279 -0.4229
 1357SOL    HW2 5200   6.111   1.571   1.743 -0.8127 -0.1673  0.0829
 1357SOL    HW3 5201   6.067   1.602   1.602  0.8330  0.0472 -0.4067
 1357SOL    MW4 5202   6.074   1.625   1.686  0.1948  0.0783 -0.3540
 1358SOL     OW 5203   2.098   3.340   5.515 -0.5876 -0.5885 -0.1493
 1358SOL    HW2 5204   2.006   3.339   5.541 -0.4147  0.9404  0.6685
 1358SOL    HW3 5205   2.123   3.433   5.519  1.0978 -1.0116  0.0866
 1358SOL    MW4 5206   2.089   3.352   5.519 -0.3424 -0.4426 -0.0103
 1359SOL     OW 5207   4.935   4.164   0.899  0.3884  0.1564 -0.2882
 1359SOL    HW2 5208   4.885   4.243   0.878 -0.3635  0.2782  1.6856
 1359SOL    HW3 5209   4.892   4.094   0.849  0.3438  0.7917 -1.1654
 1359SOL    MW4 5210   4.923   4.165   0.890  0.2833  0.2563 -0.1435
 1360SOL     OW 5211   3.941   2.104   0.550  0.0272 -0.5666  0.5240
 1360SOL    HW2 5212   3.858   2.082   0.592  1.0195 -0.4956  2.6401
 1360SOL    HW3 5213   4.001   2.121   0.623  1.0948  2.4897 -0.9312
 1360SOL    MW4 5214   3.938   2.103   0.565  0.2990 -0.1540  0.6112
 1361SOL     OW 5215   5.501   1.050   5.781 -0.2952 -0.3118 -0.1897
 1361SOL    HW2 5216   5.430   1.096   5.737 -0.6353 -0.3936  0.2676
 1361SOL    HW3 5217   5.577   1.064   5.724 -0.0309  2.0277  0.6099
 1361SOL    MW4 5218   5.502   1.058   5.768 -0.3052 -0.0139 -0.0238
 1362SOL     OW 5219   0.531   5.005   4.490  0.3837 -0.4172  0.4293
 1362SOL    HW2 5220   0.625   5.005   4.468  0.5114  0.8187  0.8607
 1362SOL    HW3 5221   0.529   4.995   4.585  0.1456  0.7626  0.5599
 1362SOL    MW4 5222   0.543   5.004   4.499  0.3692 -0.0985  0.5035
 1363SOL     OW 5223   3.425   6.378   5.235 -0.0851 -0.2188 -0.2943
 1363SOL    HW2 5224   3.485   6.386   5.161  0.5108 -0.1711  0.1925
 1363SOL    HW3 5225   3.468   6.317   5.295 -0.6056 -0.3247 -0.0177
 1363SOL    MW4 5226   3.438   6.371   5.233 -0.0751 -0.2265 -0.1936
 1364SOL     OW 5227   0.791   2.960   1.694  0.1667 -0.3228  0.4342
 1364SOL    HW2 5228   0.861   3.025   1.699 -0.0346 -0.1545  1.2290
 1364SOL    HW3 5229   0.821   2.889   1.750  0.5285 -1.0659 -0.6800
 1364SOL    MW4 5230   0.804   2.960   1.702  0.1878 -0.3986  0.3921
 1365SOL     OW 5231   6.101   0.008   2.163  0.0762  0.1393  0.2041
 1365SOL    HW2 5232   6.072  -0.083   2.171  0.9847 -0.2038 -0.2760
 1365SOL    HW3 5233   6.031   0.059   2.204  0.3156 -0.8845  2.0054
 1365SOL    MW4 5234   6.088   0.002   2.169  0.2277 -0.0411  0.3784
 1366SOL     OW 5235   6.177   1.973   4.124  0.3254  0.5578  0.0291
 1366SOL    HW2 5236   6.156   1.932   4.209 -1.5440 -0.1353 -0.7181
 1366SOL    HW3 5237   6.269   1.995   4.131  1.1210 -2.5432  1.0423
 1366SOL    MW4 5238   6.186   1.970   4.136  0.1837  0.0572  0.0642
 1367SOL     OW 5239   0.558   0.069   1.890 -0.0324 -0.0063  0.2423
 1367SOL    HW2 5240   0.477   0.106   1.856  1.1062  3.2759  0.7453
 1367SOL    HW3 5241   0.537   0.045   1.980 -0.5986  0.2601  0.1859
 1367SOL    MW4 5242   0.545   0.070   1.898  0.0431  0.4619  0.3012
 1368SOL     OW 5243   1.398   5.379   1.620  0.6838  0.6658  0.2088
 1368SOL    HW2 5244   1.327   5.329   1.579  1.3502 -0.3830  0.3022
 1368SOL    HW3 5245   1.366   5.469   1.622 -0.5281  0.2537 -0.0001
 1368SOL    MW4 5246   1.384   5.385   1.615  0.6119  0.4730  0.1936
 1369SOL     OW 5247   4.232   4.076   3.855 -0.1417  0.2832 -0.3161
 1369SOL    HW2 5248   4.233   4.131   3.934  0.0620  0.2352 -0.2843
 1369SOL    HW3 5249   4.146   4.091   3.816 -1.2433 -1.6048  1.2402
 1369SOL    MW4 5250   4.221   4.086   3.860 -0.2602  0.0277 -0.1066
 1370SOL     OW 5251   1.059   4.895   1.753  0.1433 -0.4389 -0.2454
 1370SOL    HW2 5252   0.964   4.908   1.747  0.1227 -0.8563 -1.0469
 1370SOL    HW3 5253   1.092   4.922   1.667  0.7130 -0.5905 -0.0772
 1370SOL    MW4 5254   1.051   4.900   1.741  0.2157 -0.5140 -0.3289
 1371SOL     OW 5255   5.486   3.193   0.601  0.3305  0.4660 -0.8943
 1371SOL    HW2 5256   5.483   3.251   0.525  0.7542  1.0740 -0.4447
 1371SOL    HW3 5257   5.396   3.193   0.634  0.0406 -0.1461 -1.6421
 1371SOL    MW4 5258   5.474   3.201   0.595  0.3482  0.4654 -0.9336
 1372SOL     OW 5259   4.508   3.684   5.957  0.3028 -0.4321  0.0343
 1372SOL    HW2 5260   4.524   3.693   5.863  0.4480 -0.7782  0.0207
 1372SOL    HW3 5261   4.420   3.648   5.963  0.8975 -1.9823 -0.0474
 1372SOL    MW4 5262   4.499   3.680   5.945  0.4005 -0.6823  0.0217
 1373SOL     OW 5263   4.974   0.909   2.231 -0.2588 -0.1575  0.2421
 1373SOL    HW2 5264   4.919   0.835   2.256 -0.4593 -0.5077 -1.1415
 1373SOL    HW3 5265   5.061   0.870   2.218 -1.0031 -0.9727 -3.8294
 1373SOL    MW4 5266   4.978   0.894   2.233 -0.3835 -0.3113 -0.4777
 1374SOL     OW 5267   2.099   0.368   4.893 -0.2261  0.2190  0.1946
 1374SOL    HW2 5268   2.066   0.351   4.804  0.1308 -1.4660  0.3560
 1374SOL    HW3 5269   2.027   0.341   4.950 -0.3025  0.9299  0.4493
 1374SOL    MW4 5270   2.085   0.362   4.889 -0.1891  0.0905  0.2495
 1375SOL     OW 5271   1.242   5.779   2.572 -0.3342 -0.2801 -0.1200
 1375SOL    HW2 5272   1.263   5.718   2.501  1.0273  0.1802 -0.1259
 1375SOL    HW3 5273   1.199   5.853   2.528  0.4380 -0.0288 -0.4560
 1375SOL    MW4 5274   1.239   5.781   2.557 -0.0527 -0.1862 -0.1651
 1376SOL     OW 5275   6.153   1.335   4.657 -0.4833 -0.7014 -0.1139
 1376SOL    HW2 5276   6.068   1.306   4.691 -1.5068  1.5223 -0.6060
 1376SOL    HW3 5277   6.137   1.357   4.565  0.7043 -0.5470 -0.3056
 1376SOL    MW4 5278   6.140   1.334   4.650 -0.4616 -0.3877 -0.2041
 1377SOL     OW 5279   1.089   2.509   2.524  0.0619  0.1191 -0.3872
 1377SOL    HW2 5280   1.139   2.529   2.603 -0.9835  1.2130  0.0224
 1377SOL    HW3 5281   1.156   2.495   2.457  0.9446  1.2267  0.2143
 1377SOL    MW4 5282   1.105   2.510   2.526  0.0404  0.4095 -0.2538
 1378SOL     OW 5283   0.791   3.215   4.054  0.5567 -0.2503 -0.5297
 1378SOL    HW2 5284   0.749   3.288   4.099  0.5584 -0.1780 -0.6475
 1378SOL    HW3 5285   0.819   3.251   3.970  2.3781  0.1848  0.2069
 1378SOL    MW4 5286   0.789   3.229   4.049  0.7972 -0.1834 -0.4481
 1379SOL     OW 5287   4.937   6.336   1.926 -0.3685 -0.1518  0.1603
 1379SOL    HW2 5288   4.853   6.316   1.968 -0.7537  1.2692  0.1479
 1379SOL    HW3 5289   4.949   6.430   1.941  1.7788 -0.5129  1.1117
 1379SOL    MW4 5290   4.927   6.346   1.933 -0.1360 -0.0119  0.2842
 1380SOL     OW 5291   0.219   4.170   0.602 -0.7029  0.3241 -0.5369
 1380SOL    HW2 5292   0.157   4.243   0.609 -1.4267 -0.3937  1.0826
 1380SOL    HW3 5293   0.165   4.092   0.593 -0.0135 -0.2053 -0.2487
 1380SOL    MW4 5294   0.204   4.170   0.602 -0.7074  0.1596 -0.2852
 1381SOL     OW 5295   6.407   2.080   1.900  0.0278 -0.8034  0.5765
 1381SOL    HW2 5296   6.356   2.015   1.851  0.7200 -0.9360  0.0163
 1381SOL    HW3 5297   6.342   2.143   1.931 -0.4484 -0.8112 -0.3798
 1381SOL    MW4 5298   6.391   2.080   1.898  0.0563 -0.8219  0.3764
 1382SOL     OW 5299   5.342   2.899   0.016  0.4213 -0.4919  0.2628
 1382SOL    HW2 5300   5.273   2.953   0.056 -0.2562 -1.6915  0.7606
 1382SOL    HW3 5301   5.408   2.962  -0.013  0.2843  0.5196  2.0297
 1382SOL    MW4 5302   5.342   2.914   0.017  0.3138 -0.5167  0.5616
 1383SOL     OW 5303   5.420   3.614   0.598 -0.0319  0.2049  0.1284
 1383SOL    HW2 5304   5.497   3.581   0.551 -0.7841 -0.3080 -0.7728
 1383SOL    HW3 5305   5.407   3.551   0.669  0.3155  0.2453  0.2338
 1383SOL    MW4 5306   5.429   3.601   0.602 -0.0853  0.1425  0.0234
 1384SOL     OW 5307   6.347   2.122   2.573 -0.5384  0.0948  0.2914
 1384SOL    HW2 5308   6.310   2.158   2.493 -1.2196 -0.6987  0.2359
 1384SOL    HW3 5309   6.414   2.185   2.599 -0.2395  0.3036 -0.9517
 1384SOL    MW4 5310   6.351   2.135   2.566 -0.5888  0.0177  0.1201
 1385SOL     OW 5311   5.581   0.235   6.374  0.1652  0.1757 -0.2961
 1385SOL    HW2 5312   5.500   0.224   6.325 -0.0137  1.1346 -0.2489
 1385SOL    HW3 5313   5.591   0.154   6.423  0.2211 -0.7058 -1.7117
 1385SOL    MW4 5314   5.571   0.223   6.374  0.1490  0.1859 -0.4766
 1386SOL     OW 5315   0.122   2.294   2.597 -0.2946  0.4886  0.7423
 1386SOL    HW2 5316   0.161   2.265   2.514  1.2306  0.7724  1.3261
 1386SOL    HW3 5317   0.146   2.226   2.660  0.0486  1.1301  1.3158
 1386SOL    MW4 5318   0.130   2.281   2.594 -0.0481  0.6107  0.8950
 1387SOL     OW 5319   1.190   4.342   2.720 -0.3707  0.5535  0.2001
 1387SOL    HW2 5320   1.201   4.423   2.670  2.3038  0.6590  0.8458
 1387SOL    HW3 5321   1.161   4.278   2.654 -0.9355  1.6328 -0.6393
 1387SOL    MW4 5322   1.188   4.344   2.705 -0.0923  0.7098  0.1746
 1388SOL     OW 5323   6.036   3.408   0.521 -0.8375 -0.2737 -0.4277
 1388SOL    HW2 5324   5.979   3.331   0.511 -0.6702 -0.2434 -1.8664
 1388SOL    HW3 5325   6.076   3.419   0.434  0.5791  0.3213  0.2786
 1388SOL    MW4 5326   6.034   3.399   0.508 -0.6285 -0.1912 -0.5243
 1389SOL     OW 5327   0.565   5.561   2.346  0.2792 -0.4186  0.3389
 1389SOL    HW2 5328   0.589   5.545   2.255  0.6124  2.5273 -0.1970
 1389SOL    HW3 5329   0.620   5.634   2.373 -0.6731 -0.4316  2.5360
 1389SOL    MW4 5330   0.575   5.568   2.337  0.1975 -0.0316  0.5580
 1390SOL     OW 5331   1.715   2.949   5.495  0.2658 -0.0759 -0.6152
 1390SOL    HW2 5332   1.774   2.879   5.467  0.5096 -0.3068  0.4264
 1390SOL    HW3 5333   1.662   2.969   5.417 -2.0729 -3.6433 -0.1573
 1390SOL    MW4 5334   1.716   2.942   5.481 -0.0106 -0.5770 -0.4173
 1391SOL     OW 5335   5.802   5.319   0.021 -0.7919 -0.2426  0.4295
 1391SOL    HW2 5336   5.760   5.396   0.060  0.3945  0.8973 -0.4281
 1391SOL    HW3 5337   5.730   5.270  -0.018 -1.5355  0.6859  0.5824
 1391SOL    MW4 5338   5.787   5.323   0.021 -0.7335  0.0303  0.3365
 1392SOL     OW 5339   3.544   4.190   5.751  0.7122  0.0344  0.3232
 1392SOL    HW2 5340   3.637   4.204   5.766  0.8626 -1.8883  1.6272
 1392SOL    HW3 5341   3.535   4.095   5.742 -1.2330  0.0764  1.2814
 1392SOL    MW4 5342   3.555   4.179   5.752  0.4754 -0.2137  0.6217
 1393SOL     OW 5343   3.934   5.688   2.496 -0.0954 -0.6160 -0.9159
 1393SOL    HW2 5344   3.933   5.593   2.508  0.9276 -0.4742  0.7122
 1393SOL    HW3 5345   3.844   5.711   2.475  0.0875 -2.1788 -3.8915
 1393SOL    MW4 5346   3.922   5.679   2.495  0.0637 -0.8035 -1.0937
 1394SOL     OW 5347   3.702   3.531   5.341  0.5681 -0.1511 -0.2290
 1394SOL    HW2 5348   3.703   3.541   5.436  1.0880 -2.1011  0.0142
 1394SOL    HW3 5349   3.769   3.593   5.310 -0.1936  1.1226  0.5501
 1394SOL    MW4 5350   3.711   3.541   5.349  0.5362 -0.2403 -0.0941
 1395SOL     OW 5351   6.284   0.434   0.466  0.4772  0.3050 -0.2233
 1395SOL    HW2 5352   6.202   0.482   0.469 -0.6118 -1.4302 -0.9556
 1395SOL    HW3 5353   6.321   0.455   0.379  0.5267  0.6080 -0.1315
 1395SOL    MW4 5354   6.278   0.443   0.455  0.3400  0.1160 -0.3078
 1396SOL     OW 5355   1.524   3.561   1.313  0.2765 -0.0503  0.1078
 1396SOL    HW2 5356   1.546   3.624   1.244 -0.3307  1.1555  0.9885
 1396SOL    HW3 5357   1.431   3.543   1.300 -0.2779  1.5077  1.6217
 1396SOL    MW4 5358   1.515   3.567   1.302  0.1232  0.3144  0.4238
 1397SOL     OW 5359   1.134   5.093   2.170 -0.0359 -0.3631  0.2876
 1397SOL    HW2 5360   1.215   5.081   2.220  1.3234  0.0215 -1.7315
 1397SOL    HW3 5361   1.163   5.114   2.081 -2.3575 -0.8208 -0.6493
 1397SOL    MW4 5362   1.149   5.094   2.165 -0.1629 -0.3728 -0.1024
 1398SOL     OW 5363   6.343   4.918   3.443  0.1487 -0.0246  0.3046
 1398SOL    HW2 5364   6.431   4.888   3.421  0.8578  0.9958  1.5761
 1398SOL    HW3 5365   6.343   5.011   3.419 -0.3945  0.1105  0.8042
 1398SOL    MW4 5366   6.355   4.927   3.437  0.1706  0.1278  0.5383
 1399SOL     OW 5367   1.663   4.125   1.469  0.6358 -0.3322  0.0309
 1399SOL    HW2 5368   1.657   4.030   1.463  0.4657 -0.2837 -0.6313
 1399SOL    HW3 5369   1.753   4.145   1.445  0.4858 -0.2768 -0.4847
 1399SOL    MW4 5370   1.674   4.115   1.465  0.5936 -0.3185 -0.1245
 1400SOL     OW 5371   0.825   2.263   4.393 -0.5491  0.1196 -0.2029
 1400SOL    HW2 5372   0.773   2.211   4.332 -2.3906 -1.8348  2.7472
 1400SOL    HW3 5373   0.766   2.332   4.422  0.6544  1.6755 -1.3204
 1400SOL    MW4 5374   0.810   2.265   4.389 -0.6333  0.0670  0.0389
 1401SOL     OW 5375   5.424   4.898   4.170 -0.0757  0.2358  0.5723
 1401SOL    HW2 5376   5.394   4.854   4.249  0.8264  0.2004  0.9118
 1401SOL    HW3 5377   5.364   4.869   4.101 -0.7214  0.0779  1.1922
 1401SOL    MW4 5378   5.413   4.889   4.171 -0.0419  0.2103  0.6989
 1402SOL     OW 5379   5.341   2.909   4.990  0.3296  0.3821 -0.3747
 1402SOL    HW2 5380   5.369   2.828   5.033 -0.5994  0.1254 -0.2260
 1402SOL    HW3 5381   5.252   2.890   4.961  0.2542  1.2194 -0.6993
 1402SOL    MW4 5382   5.333   2.895   4.992  0.1971  0.4587 -0.3979
 1403SOL     OW 5383   2.246   3.948   3.865 -0.0885  0.3895 -0.6960
 1403SOL    HW2 5384   2.246   3.998   3.783  1.1079 -1.3200 -1.7940
 1403SOL    HW3 5385   2.253   3.856   3.838 -1.1462 -0.3489  1.2858
 1403SOL    MW4 5386   2.247   3.942   3.851 -0.0702  0.0665 -0.5794
 1404SOL     OW 5387   3.880   2.262   5.663 -0.0452  0.1814 -0.0771
 1404SOL    HW2 5388   3.796   2.308   5.661  1.2473  2.7613  0.4876
 1404SOL    HW3 5389   3.923   2.287   5.582  0.6762 -0.0752  0.2242
 1404SOL    MW4 5390   3.874   2.272   5.652  0.2205  0.4879  0.0372
 1405SOL     OW 5391   3.562   2.843   4.408 -0.5442  0.6388  0.7983
 1405SOL    HW2 5392   3.630   2.840   4.475 -1.6343  0.5281  1.9370
 1405SOL    HW3 5393   3.572   2.761   4.359 -0.3170  0.2821  1.4339
 1405SOL    MW4 5394   3.572   2.831   4.410 -0.6581  0.5771  1.0324
 1406SOL     OW 5395   6.130   1.860   2.702 -0.0545 -0.1675  0.6225
 1406SOL    HW2 5396   6.132   1.931   2.766 -2.7823 -0.0108  0.6577
 1406SOL    HW3 5397   6.165   1.898   2.622 -3.2877  1.9827  0.0589
 1406SOL    MW4 5398   6.135   1.874   2.700 -0.8410  0.1369  0.5528
 1407SOL     OW 5399   1.748   4.110   3.142 -0.2681 -0.6818 -0.4316
 1407SOL    HW2 5400   1.816   4.066   3.193 -1.7587  0.5442  2.9676
 1407SOL    HW3 5401   1.685   4.041   3.122 -0.4768 -0.9508  1.0069
 1407SOL    MW4 5402   1.748   4.096   3.146 -0.4923 -0.5555  0.2067
 1408SOL     OW 5403   0.427   0.974   4.005 -0.4101 -0.0599  0.1593
 1408SOL    HW2 5404   0.376   0.914   4.060  0.3655 -0.0387  0.9152
 1408SOL    HW3 5405   0.398   0.955   3.916 -2.2448  0.4258  0.6064
 1408SOL    MW4 5406   0.416   0.964   4.001 -0.5498  0.0070  0.3180
 1409SOL     OW 5407   0.095   3.724   1.816 -0.1612 -0.2334 -0.2654
 1409SOL    HW2 5408   0.125   3.634   1.806  0.0374 -0.0562 -1.4736
 1409SOL    HW3 5409   0.063   3.730   1.906  1.6682 -0.9585  0.4614
 1409SOL    MW4 5410   0.095   3.713   1.827  0.1064 -0.3057 -0.3289
 1410SOL     OW 5411   1.613   2.026   1.139  0.1546  0.2305  0.3709
 1410SOL    HW2 5412   1.618   2.120   1.120 -0.9696  0.1444 -0.4472
 1410SOL    HW3 5413   1.652   1.984   1.063 -0.1405  0.0083  0.3413
 1410SOL    MW4 5414   1.619   2.033   1.127 -0.0327  0.1898  0.2590
 1411SOL     OW 5415   6.373   3.105   4.261  0.5065 -0.0303 -0.5396
 1411SOL    HW2 5416   6.411   3.125   4.347 -1.7484  1.0990  0.2461
 1411SOL    HW3 5417   6.422   3.160   4.200  1.5950 -0.2604  0.0824
 1411SOL    MW4 5418   6.385   3.115   4.265  0.3526  0.0884 -0.3539
 1412SOL     OW 5419   1.962   2.144   4.250  0.2520 -0.1509 -0.2403
 1412SOL    HW2 5420   1.994   2.062   4.212  3.0953  0.6267  0.1982
 1412SOL    HW3 5421   1.869   2.147   4.227 -0.4658 -4.3344  1.2407
 1412SOL    MW4 5422   1.954   2.134   4.242  0.5324 -0.6003  0.0129
 1413SOL     OW 5423   4.901   1.231   4.690 -0.4505  0.0589 -0.1129
 1413SOL    HW2 5424   4.972   1.171   4.666  0.2728  0.9946 -0.3837
 1413SOL    HW3 5425   4.932   1.274   4.770 -0.8524  0.2363 -0.0520
 1413SOL    MW4 5426   4.915   1.229   4.697 -0.4081  0.2058 -0.1406
 1414SOL     OW 5427   0.687   4.450   0.668  0.5208 -0.4766  0.3646
 1414SOL    HW2 5428   0.743   4.471   0.743 -0.9901  0.2055  1.3469
 1414SOL    HW3 5429   0.705   4.520   0.605  1.0907 -0.5139  0.4771
 1414SOL    MW4 5430   0.697   4.462   0.670  0.3966 -0.3915  0.5091
 1415SOL     OW 5431   5.085   3.092   4.045 -0.0039  0.2637  0.4404
 1415SOL    HW2 5432   5.057   3.001   4.031  0.2189  0.4384 -1.3529
 1415SOL    HW3 5433   5.021   3.126   4.108 -0.5616 -0.9033  0.5455
 1415SOL    MW4 5434   5.073   3.084   4.051 -0.0481  0.1328  0.2176
 1416SOL     OW 5435   3.538   2.510   1.055  0.6192  0.2588 -0.1675
 1416SOL    HW2 5436   3.459   2.464   1.084  0.3751  0.5287 -0.3904
 1416SOL    HW3 5437   3.508   2.564   0.982  1.4771 -1.3607 -1.7978
 1416SOL    MW4 5438   3.524   2.511   1.049  0.7002  0.0808 -0.4120
 1417SOL     OW 5439   4.086   3.852   0.162 -0.5199 -0.3753  0.1501
 1417SOL    HW2 5440   4.134   3.778   0.123 -1.4724 -0.7120 -0.4068
 1417SOL    HW3 5441   3.995   3.835   0.140 -0.9802 -0.0797  1.7584
 1417SOL    MW4 5442   4.081   3.840   0.154 -0.7063 -0.3807  0.2888
 1418SOL     OW 5443   3.084   5.098   4.864 -0.2398  0.7677 -0.1871
 1418SOL    HW2 5444   2.990   5.083   4.870  0.0475 -1.1249  0.1653
 1418SOL    HW3 5445   3.111   5.050   4.785  0.4038  1.5262 -0.4486
 1418SOL    MW4 5446   3.075   5.090   4.854 -0.1170  0.6180 -0.1751
 1419SOL     OW 5447   5.185   2.487   3.517 -0.4947 -0.1478  0.3567
 1419SOL    HW2 5448   5.134   2.532   3.450 -1.2891 -1.7838 -0.1902
 1419SOL    HW3 5449   5.121   2.436   3.566  0.3785 -0.8102  0.8431
 1419SOL    MW4 5450   5.170   2.486   3.515 -0.4843 -0.4511  0.3487
 1420SOL     OW 5451   2.685   5.850   0.186  0.2155  0.0876 -0.1927
 1420SOL    HW2 5452   2.691   5.773   0.130  1.1484  0.4881 -0.6613
 1420SOL    HW3 5453   2.770   5.893   0.178 -0.2269  1.0799  0.1889
 1420SOL    MW4 5454   2.697   5.846   0.178  0.2802  0.2714 -0.2042
 1421SOL     OW 5455   1.218   2.290   6.243 -0.2539  0.2603  0.0264
 1421SOL    HW2 5456   1.312   2.304   6.248 -0.1678 -0.3668  0.1585
 1421SOL    HW3 5457   1.207   2.224   6.175 -0.6270  0.5934 -0.2431
 1421SOL    MW4 5458   1.229   2.283   6.235 -0.2918  0.2215  0.0082
 1422SOL     OW 5459   2.672   2.149   5.544 -0.1599  0.8059 -0.2036
 1422SOL    HW2 5460   2.688   2.150   5.450 -0.1939  0.3904 -0.2165
 1422SOL    HW3 5461   2.590   2.100   5.554 -0.6064  1.5785 -0.0217
 1422SOL    MW4 5462   2.663   2.142   5.533 -0.2233  0.8531 -0.1813
 1423SOL     OW 5463   6.420   4.317   4.840  0.1101  0.1282 -0.4090
 1423SOL    HW2 5464   6.352   4.259   4.875  1.3885 -2.0223 -1.2734
 1423SOL    HW3 5465   6.385   4.349   4.757 -1.6359  2.7356  1.1927
 1423SOL    MW4 5466   6.407   4.313   4.834  0.0484  0.1885 -0.3118
 1424SOL     OW 5467   4.590   1.948   0.182 -0.5934  0.1395  0.8734
 1424SOL    HW2 5468   4.589   1.862   0.224 -1.8070  0.0435  0.6849
 1424SOL    HW3 5469   4.544   1.936   0.100  0.4710  0.6708  0.1746
 1424SOL    MW4 5470   4.584   1.935   0.177 -0.6131  0.1969  0.7564
 1425SOL     OW 5471   4.145   0.201   4.585 -0.2569 -0.2715  0.1266
 1425SOL    HW2 5472   4.185   0.147   4.517  0.7249  0.0115  0.4543
 1425SOL    HW3 5473   4.117   0.280   4.540 -0.1378 -0.3341 -0.0578
 1425SOL    MW4 5474   4.147   0.204   4.570 -0.1117 -0.2424  0.1455
 1426SOL     OW 5475   6.105   3.687   5.994 -0.1212 -0.7799 -0.1593
 1426SOL    HW2 5476   6.198   3.687   5.970  0.0427 -1.5527  0.4209
 1426SOL    HW3 5477   6.092   3.603   6.037 -1.3853 -1.1808 -1.2812
 1426SOL    MW4 5478   6.116   3.676   5.997 -0.2663 -0.9348 -0.2308
 1427SOL     OW 5479   0.299   4.676   4.982 -0.8747 -0.4433  0.2775
 1427SOL    HW2 5480   0.233   4.612   4.956 -1.4415  0.2452 -0.0097
 1427SOL    HW3 5481   0.375   4.623   5.009 -1.6775 -1.2582  1.0131
 1427SOL    MW4 5482   0.301   4.661   4.982 -1.0554 -0.4600  0.3366
 1428SOL     OW 5483   0.011   1.074   5.087 -0.6062  0.4734  0.1893
 1428SOL    HW2 5484   0.042   1.123   5.011 -0.2107 -0.0404  0.0131
 1428SOL    HW3 5485   0.085   1.075   5.148  0.4709 -2.2439 -0.9340
 1428SOL    MW4 5486   0.025   1.081   5.085 -0.4119  0.0471  0.0178
 1429SOL     OW 5487   3.795   0.577   5.614  0.3258  0.3251  0.5505
 1429SOL    HW2 5488   3.700   0.581   5.600  0.1776 -0.0544  1.4177
 1429SOL    HW3 5489   3.820   0.666   5.636  0.1474  0.3936  0.4828
 1429SOL    MW4 5490   3.785   0.589   5.615  0.2827  0.2841  0.6560
 1430SOL     OW 5491   4.802   4.795   1.398  0.4631 -0.0610  0.6064
 1430SOL    HW2 5492   4.858   4.870   1.414  0.0255  0.4302 -0.0826
 1430SOL    HW3 5493   4.714   4.825   1.423  0.4336 -0.6676  1.2478
 1430SOL    MW4 5494   4.798   4.809   1.403  0.4015 -0.0762  0.6001
 1431SOL     OW 5495   1.389   3.970   0.999  0.6568  0.3847  0.4097
 1431SOL    HW2 5496   1.339   4.052   0.999  0.6337  0.3710 -0.1241
 1431SOL    HW3 5497   1.461   3.987   1.060  1.2761  1.1864 -0.5226
 1431SOL    MW4 5498   1.392   3.983   1.007  0.7354  0.4887  0.2163
 1432SOL     OW 5499   6.241   3.713   5.088  0.8046  0.0556  0.2450
 1432SOL    HW2 5500   6.293   3.789   5.062  1.9004 -0.7033  0.1127
 1432SOL    HW3 5501   6.296   3.638   5.064 -0.0484 -0.7605  0.7915
 1432SOL    MW4 5502   6.255   3.713   5.081  0.8367 -0.1522  0.2996
 1433SOL     OW 5503   3.975   1.739   4.162 -0.3025 -0.3827  0.1236
 1433SOL    HW2 5504   4.049   1.799   4.166 -1.2974  0.8513  1.1873
 1433SOL    HW3 5505   4.005   1.660   4.206  0.5124 -0.0480  0.1746
 1433SOL    MW4 5506   3.988   1.736   4.169 -0.3262 -0.1757  0.2707
 1434SOL     OW 5507   0.439   3.793   5.817 -0.2133  0.2835 -0.5793
 1434SOL    HW2 5508   0.442   3.888   5.830 -0.5162  0.1746  0.3532
 1434SOL    HW3 5509   0.531   3.768   5.806 -0.1302  0.6765 -0.8139
 1434SOL    MW4 5510   0.451   3.803   5.817 -0.2423  0.3210 -0.4872
 1435SOL     OW 5511   2.355   2.695   0.896 -0.4895 -0.6211  0.1277
 1435SOL    HW2 5512   2.372   2.789   0.908  1.3381 -0.7311 -1.3076
 1435SOL    HW3 5513   2.402   2.653   0.968  3.3389 -0.7126 -2.1785
 1435SOL    MW4 5514   2.363   2.702   0.907  0.2568 -0.6477 -0.3660
 1436SOL     OW 5515   1.326   0.142   0.640  0.3416  0.1703 -0.6961
 1436SOL    HW2 5516   1.346   0.226   0.682  0.0527  1.3302 -2.7466
 1436SOL    HW3 5517   1.382   0.079   0.686  2.4430  1.9002 -0.6905
 1436SOL    MW4 5518   1.336   0.145   0.652  0.5807  0.5516 -0.9659
 1437SOL     OW 5519   6.434   6.043   5.850  0.1037  0.2271  0.0409
 1437SOL    HW2 5520   6.392   5.960   5.872  0.5320 -0.2382 -0.8325
 1437SOL    HW3 5521   6.376   6.110   5.886 -0.1042 -0.4549  0.9891
 1437SOL    MW4 5522   6.421   6.041   5.858  0.1328  0.0757  0.0508
 1438SOL     OW 5523   4.128   5.440   5.459 -0.9166  0.2945 -0.1596
 1438SOL    HW2 5524   4.102   5.356   5.421 -0.1133 -0.8720  1.7050
 1438SOL    HW3 5525   4.110   5.504   5.391  0.8529 -1.6743 -2.6769
 1438SOL    MW4 5526   4.123   5.437   5.445 -0.5771 -0.1192 -0.2457
 1439SOL     OW 5527   5.963   4.897   1.481 -0.4460 -0.1857 -0.6202
 1439SOL    HW2 5528   5.963   4.859   1.569 -0.5405  0.0768 -0.5073
 1439SOL    HW3 5529   6.005   4.830   1.427  0.3298 -0.0315 -0.2363
 1439SOL    MW4 5530   5.969   4.883   1.486 -0.3561 -0.1307 -0.5547
 1440SOL     OW 5531   3.548   4.319   0.132  0.1423 -0.1461  0.2348
 1440SOL    HW2 5532   3.534   4.288   0.221 -1.9483  2.1947  0.8451
 1440SOL    HW3 5533   3.578   4.410   0.143  1.1024 -0.2029 -1.4662
 1440SOL    MW4 5534   3.550   4.327   0.145 -0.0069  0.1552  0.0909
 1441SOL     OW 5535   1.505   5.509   5.458  0.7461  0.1551 -0.1317
 1441SOL    HW2 5536   1.584   5.561   5.438  0.5853  0.0019 -1.2540
 1441SOL    HW3 5537   1.467   5.491   5.372  0.1334 -0.7902  0.3290
 1441SOL    MW4 5538   1.511   5.514   5.444  0.6440  0.0102 -0.2190
 1442SOL     OW 5539   0.343   3.398   4.495  0.1425 -0.2866 -0.0405
 1442SOL    HW2 5540   0.438   3.391   4.501  0.1103  0.2404  1.6571
 1442SOL    HW3 5541   0.311   3.356   4.575 -1.0567 -0.2783 -0.4899
 1442SOL    MW4 5542   0.351   3.391   4.506 -0.0200 -0.2160  0.1242
 1443SOL     OW 5543   1.363   3.943   4.938  0.2096 -0.2025  0.0894
 1443SOL    HW2 5544   1.355   3.921   4.845  0.5108 -1.3102  0.3062
 1443SOL    HW3 5545   1.407   4.028   4.939  0.1274 -0.1378 -0.7760
 1443SOL    MW4 5546   1.368   3.951   4.926  0.2385 -0.3401  0.0038
 1444SOL     OW 5547   4.814   1.841   5.334  0.0225 -0.1386  0.1007
 1444SOL    HW2 5548   4.842   1.795   5.255  1.3593 -0.0816  0.5249
 1444SOL    HW3 5549   4.742   1.897   5.304 -1.2886 -2.0438 -0.5316
 1444SOL    MW4 5550   4.808   1.842   5.320  0.0259 -0.3825  0.0733
 1445SOL     OW 5551   3.644   4.651   2.192  0.0612 -0.0340  0.1142
 1445SOL    HW2 5552   3.563   4.642   2.141 -1.9977  1.5450  2.7951
 1445SOL    HW3 5553   3.668   4.743   2.182  0.0068  0.1372  1.3529
 1445SOL    MW4 5554   3.637   4.662   2.184 -0.2176  0.1970  0.6313
 1446SOL     OW 5555   5.719   4.396   3.604  0.0184  0.0190 -0.5940
 1446SOL    HW2 5556   5.754   4.371   3.519  1.6389  0.1129  0.0100
 1446SOL    HW3 5557   5.762   4.479   3.625  2.4008 -1.6361  1.8007
 1446SOL    MW4 5558   5.730   4.403   3.596  0.5465 -0.1870 -0.1984
 1447SOL     OW 5559   3.257   5.118   0.729 -0.4214  0.3388  0.5374
 1447SOL    HW2 5560   3.313   5.048   0.694  0.0385 -0.0100  1.8877
 1447SOL    HW3 5561   3.302   5.146   0.809 -1.6630  0.7499  1.1159
 1447SOL    MW4 5562   3.270   5.112   0.735 -0.5245  0.3470  0.7919
 1448SOL     OW 5563   6.368   4.733   2.342 -0.8246  0.4043 -0.0406
 1448SOL    HW2 5564   6.375   4.801   2.408  0.8294  1.2892 -1.0770
 1448SOL    HW3 5565   6.452   4.688   2.344 -1.4315 -0.7940 -0.2680
 1448SOL    MW4 5566   6.380   4.736   2.351 -0.6865  0.3629 -0.2073
 1449SOL     OW 5567   4.313   0.833   3.818  0.2828  0.7135  0.1667
 1449SOL    HW2 5568   4.330   0.918   3.858  0.7365  0.1204  1.2961
 1449SOL    HW3 5569   4.227   0.807   3.851  0.4754  0.4059  0.4340
 1449SOL    MW4 5570   4.304   0.841   3.828  0.3681  0.5947  0.3510
 1450SOL     OW 5571   0.466   1.543   3.363  0.4007 -0.2876  0.4114
 1450SOL    HW2 5572   0.478   1.474   3.428 -0.4894 -2.1281 -1.2610
 1450SOL    HW3 5573   0.542   1.599   3.374  1.2434 -1.5976  1.7748
 1450SOL    MW4 5574   0.478   1.541   3.373  0.3944 -0.7033  0.3706
 1451SOL     OW 5575   3.575   6.403   6.331  0.0486 -0.6484  0.1499
 1451SOL    HW2 5576   3.666   6.373   6.328  0.3315 -0.0539  1.9559
 1451SOL    HW3 5577   3.524   6.323   6.341  0.2178 -1.1127 -2.0684
 1451SOL    MW4 5578   3.580   6.388   6.332  0.1082 -0.6312  0.0955
 1452SOL     OW 5579   2.117   6.131   2.312  0.6884  0.3027 -0.4241
 1452SOL    HW2 5580   2.125   6.037   2.292  1.1260 -0.1894  1.8111
 1452SOL    HW3 5581   2.081   6.169   2.232 -0.5605 -1.9442 -1.0298
 1452SOL    MW4 5582   2.113   6.124   2.299  0.5813 -0.0587 -0.2091
 1453SOL     OW 5583   2.120   4.180   1.611  0.4284 -0.3152  0.3856
 1453SOL    HW2 5584   2.076   4.097   1.628  1.4246 -1.1441 -0.8283
 1453SOL    HW3 5585   2.211   4.155   1.591  1.0557  1.1859  1.2051
 1453SOL    MW4 5586   2.126   4.166   1.610  0.6426 -0.2265  0.3336
 1454SOL     OW 5587   1.787   4.824   5.346 -0.1182  0.0023  0.4676
 1454SOL    HW2 5588   1.755   4.826   5.256 -0.0378 -0.9831  0.4043
 1454SOL    HW3 5589   1.813   4.733   5.360 -0.2585  0.1103  1.5304
 1454SOL    MW4 5590   1.786   4.812   5.336 -0.1261 -0.1135  0.5995
 1455SOL     OW 5591   0.893   2.672   2.428  0.1235 -0.2596 -0.6256
 1455SOL    HW2 5592   0.916   2.762   2.454 -2.1472  0.0900  0.3914
 1455SOL    HW3 5593   0.969   2.620   2.453  1.1019  1.2206 -0.3656
 1455SOL    MW4 5594   0.906   2.677   2.434 -0.0470 -0.0182 -0.4571
 1456SOL     OW 5595   4.907   1.425   5.206  0.5370  0.1563  0.0180
 1456SOL    HW2 5596   4.863   1.482   5.268  0.1776 -0.7826  0.6557
 1456SOL    HW3 5597   4.885   1.462   5.120  0.1731  0.8667  0.4082
 1456SOL    MW4 5598   4.898   1.437   5.203  0.4416  0.1261  0.1536
 1457SOL     OW 5599   2.298   0.321   4.672 -0.3656  0.2692  0.2906
 1457SOL    HW2 5600   2.276   0.229   4.682  1.9612 -0.1445  2.4293
 1457SOL    HW3 5601   2.363   0.323   4.602 -0.1260  0.2539  0.5150
 1457SOL    MW4 5602   2.304   0.309   4.664 -0.0270  0.2126  0.6024
 1458SOL     OW 5603   1.745   5.132   3.687  0.5133  0.2400 -0.4887
 1458SOL    HW2 5604   1.741   5.042   3.655 -1.0236  0.8956 -2.3332
 1458SOL    HW3 5605   1.672   5.177   3.644  1.2417  2.3945  0.3453
 1458SOL    MW4 5606   1.735   5.126   3.677  0.4066  0.6107 -0.6220
 1459SOL     OW 5607   4.650   0.124   0.047 -0.3271  0.8101  0.1031
 1459SOL    HW2 5608   4.613   0.039   0.067  0.5561  0.8410  2.1454
 1459SOL    HW3 5609   4.575   0.179   0.022 -1.0803 -0.1495  0.2265
 1459SOL    MW4 5610   4.636   0.120   0.046 -0.3099  0.6876  0.3888
 1460SOL     OW 5611   2.072   4.698   6.222  0.0043  0.2913  0.7541
 1460SOL    HW2 5612   2.051   4.614   6.265 -1.9339 -0.6239 -1.7412
 1460SOL    HW3 5613   2.016   4.700   6.145  1.3265  3.1155 -0.2634
 1460SOL    MW4 5614   2.062   4.687   6.218 -0.0770  0.5432  0.2907
 1461SOL     OW 5615   2.126   3.861   3.526 -0.6179 -0.2027 -0.4397
 1461SOL    HW2 5616   2.126   3.808   3.606 -2.4105 -0.7062 -0.7297
 1461SOL    HW3 5617   2.156   3.800   3.458 -0.4972 -0.1830 -0.4057
 1461SOL    MW4 5618   2.130   3.846   3.528 -0.8385 -0.2665 -0.4735
 1462SOL     OW 5619   3.963   4.103   4.595  0.1669 -0.0074  0.2016
 1462SOL    HW2 5620   3.904   4.033   4.624 -0.3947  0.3052 -0.1760
 1462SOL    HW3 5621   4.040   4.093   4.651 -0.1631 -0.5355  0.5775
 1462SOL    MW4 5622   3.966   4.092   4.606  0.0493 -0.0358  0.2014
 1463SOL     OW 5623   5.761   4.412   0.294 -0.3646  0.4169 -0.1698
 1463SOL    HW2 5624   5.770   4.407   0.198  0.6875 -0.6940 -0.0390
 1463SOL    HW3 5625   5.844   4.448   0.324 -0.1127 -0.5945  0.4095
 1463SOL    MW4 5626   5.773   4.416   0.285 -0.1926  0.1369 -0.0761
 1464SOL     OW 5627   3.089   4.979   0.512  0.7465 -0.0729  0.7295
 1464SOL    HW2 5628   3.065   5.065   0.547 -1.2368 -0.4853  0.5074
 1464SOL    HW3 5629   3.133   4.935   0.584  1.7488  1.0887  0.8589
 1464SOL    MW4 5630   3.092   4.984   0.526  0.6170  0.0259  0.7173
 1465SOL     OW 5631   4.995   5.687   5.799  0.1324 -0.0575  0.3259
 1465SOL    HW2 5632   4.916   5.634   5.804  0.4020 -0.8708 -2.2660
 1465SOL    HW3 5633   5.066   5.628   5.826  0.2897 -0.7370 -1.4201
 1465SOL    MW4 5634   4.994   5.673   5.803  0.1887 -0.2545 -0.2464
 1466SOL     OW 5635   5.884   5.420   5.734 -0.1100  0.5553  0.0120
 1466SOL    HW2 5636   5.828   5.398   5.809  1.1561 -1.6304  0.4030
 1466SOL    HW3 5637   5.878   5.516   5.727  0.0517  0.9156  3.2041
 1466SOL    MW4 5638   5.876   5.430   5.743  0.0784  0.3144  0.4847
 1467SOL     OW 5639   0.950   3.392   0.030 -0.0417  0.0365  0.2365
 1467SOL    HW2 5640   1.037   3.376  -0.004  0.1793  0.3251  0.6496
 1467SOL    HW3 5641   0.952   3.356   0.119  0.1502  1.3882  0.8056
 1467SOL    MW4 5642   0.961   3.385   0.038  0.0128  0.2529  0.3661
 1468SOL     OW 5643   4.001   5.456   3.900 -0.2765  0.1520 -0.3101
 1468SOL    HW2 5644   3.924   5.473   3.955  0.3454 -1.2271  1.0515
 1468SOL    HW3 5645   3.978   5.377   3.851 -0.2019  0.4792 -0.8887
 1468SOL    MW4 5646   3.988   5.448   3.900 -0.1846  0.0132 -0.2068
 1469SOL     OW 5647   1.837   5.302   3.908 -0.1068  0.6068  0.3167
 1469SOL    HW2 5648   1.906   5.347   3.859 -0.3497  0.6884  0.0425
 1469SOL    HW3 5649   1.788   5.254   3.841 -0.3530  0.6031  0.4990
 1469SOL    MW4 5650   1.839   5.302   3.893 -0.1713  0.6171  0.3046
 1470SOL     OW 5651   2.993   2.757   1.369 -0.0388 -0.7328 -0.2396
 1470SOL    HW2 5652   3.080   2.792   1.354 -0.4223 -0.3097 -1.5564
 1470SOL    HW3 5653   2.995   2.726   1.460  1.3549 -0.4024 -0.1413
 1470SOL    MW4 5654   3.005   2.757   1.379  0.0945 -0.6334 -0.4003
 1471SOL     OW 5655   1.898   6.126   1.453  0.0329 -0.0038 -0.3108
 1471SOL    HW2 5656   1.875   6.206   1.501 -0.2091 -0.2592 -0.0005
 1471SOL    HW3 5657   1.993   6.119   1.462  0.3298  1.2370 -1.8734
 1471SOL    MW4 5658   1.908   6.136   1.461  0.0401  0.1262 -0.4760
 1472SOL     OW 5659   2.311   4.636   2.033 -0.1983 -0.1286 -0.0894
 1472SOL    HW2 5660   2.360   4.579   2.093 -0.7044 -0.6285 -0.1391
 1472SOL    HW3 5661   2.378   4.672   1.975  0.2228 -0.1164  0.3880
 1472SOL    MW4 5662   2.327   4.633   2.033 -0.2095 -0.1929 -0.0330
 1473SOL     OW 5663   4.084   4.196   5.801  0.4166  0.4441  0.6797
 1473SOL    HW2 5664   4.031   4.131   5.754  0.3352 -0.3914  1.8842
 1473SOL    HW3 5665   4.139   4.235   5.733 -0.3269 -0.0870 -0.2586
 1473SOL    MW4 5666   4.084   4.192   5.786  0.3078  0.2638  0.7148
 1474SOL     OW 5667   3.136   1.317   1.789 -0.0850  0.2107  0.2300
 1474SOL    HW2 5668   3.104   1.391   1.737  0.8439 -0.5714 -1.5349
 1474SOL    HW3 5669   3.185   1.263   1.727 -0.2651 -1.6136  1.5851
 1474SOL    MW4 5670   3.138   1.320   1.774  0.0138 -0.1332  0.1759
 1475SOL     OW 5671   5.336   2.001   1.995  0.2075 -0.3617 -0.0091
 1475SOL    HW2 5672   5.362   2.076   1.942  1.1041 -1.1815 -0.7802
 1475SOL    HW3 5673   5.414   1.946   1.998 -0.3637 -1.1564  0.7307
 1475SOL    MW4 5674   5.349   2.004   1.988  0.2504 -0.5747 -0.0132
 1476SOL     OW 5675   5.303   5.578   0.834 -0.2119 -0.2150  0.3622
 1476SOL    HW2 5676   5.275   5.502   0.885  0.8565 -1.0937 -0.3166
 1476SOL    HW3 5677   5.250   5.576   0.755 -0.4502 -0.0222  0.5147
 1476SOL    MW4 5678   5.292   5.568   0.830 -0.1024 -0.3055  0.2928
 1477SOL     OW 5679   3.392   3.728   3.867  0.7162 -0.0894  0.1842
 1477SOL    HW2 5680   3.368   3.665   3.935  2.8973 -0.8639  0.3199
 1477SOL    HW3 5681   3.407   3.810   3.914  0.2890 -0.1015  0.3455
 1477SOL    MW4 5682   3.391   3.730   3.882  0.9476 -0.1932  0.2234
 1478SOL     OW 5683   1.740   3.088   3.993  0.1645 -0.2269  0.1990
 1478SOL    HW2 5684   1.650   3.117   4.005  0.0142 -1.3595  2.2536
 1478SOL    HW3 5685   1.755   3.094   3.899 -1.8347  0.5944 -0.1084
 1478SOL    MW4 5686   1.730   3.092   3.982 -0.1191 -0.2680  0.4295
 1479SOL     OW 5687   2.583   0.665   5.457  0.1264 -0.0058 -0.0898
 1479SOL    HW2 5688   2.660   0.626   5.416  0.6892  0.6845  0.2834
 1479SOL    HW3 5689   2.543   0.594   5.507  1.9821  0.1999  1.8280
 1479SOL    MW4 5690   2.588   0.651   5.458  0.4455  0.1124  0.2125
 1480SOL     OW 5691   5.028   1.663   0.856 -0.4832 -0.2092  0.1490
 1480SOL    HW2 5692   5.055   1.712   0.778  0.6427 -2.4334 -0.9986
 1480SOL    HW3 5693   4.974   1.592   0.822 -1.5923 -0.1369  1.6575
 1480SOL    MW4 5694   5.025   1.660   0.841 -0.4810 -0.4931  0.1966
 1481SOL     OW 5695   2.763   6.397   4.584  0.5072 -0.6714  0.2201
 1481SOL    HW2 5696   2.668   6.402   4.574  0.6072  1.0242 -0.2962
 1481SOL    HW3 5697   2.782   6.304   4.594 -1.2998 -0.9735  1.3002
 1481SOL    MW4 5698   2.753   6.386   4.584  0.2820 -0.4875  0.2945
 1482SOL     OW 5699   1.463   0.939   3.317  0.7963  0.0125 -0.0981
 1482SOL    HW2 5700   1.499   0.893   3.241  0.8065 -2.5626  1.3734
 1482SOL    HW3 5701   1.371   0.915   3.318  0.4875  1.1254 -0.0083
 1482SOL    MW4 5702   1.456   0.930   3.307  0.7569 -0.1804  0.1079
 1483SOL     OW 5703   2.117   2.894   3.046  0.1185  0.3984 -0.5532
 1483SOL    HW2 5704   2.138   2.931   3.132  0.4845  0.8015 -0.8140
 1483SOL    HW3 5705   2.199   2.898   2.997  0.5939 -2.1265 -0.1165
 1483SOL    MW4 5706   2.130   2.899   3.051  0.2295  0.1184 -0.5300
 1484SOL     OW 5707   2.272   2.115   1.144  0.2864 -0.1855 -0.2354
 1484SOL    HW2 5708   2.312   2.158   1.219 -1.5972  0.1908  0.6064
 1484SOL    HW3 5709   2.293   2.171   1.070  0.0699  0.7765  0.4207
 1484SOL    MW4 5710   2.280   2.128   1.144  0.0093 -0.0089 -0.0378
 1485SOL     OW 5711   6.070   4.073   6.433  0.4215 -0.4626  0.3804
 1485SOL    HW2 5712   6.152   4.116   6.457  0.6252 -0.9364  0.5403
 1485SOL    HW3 5713   6.020   4.140   6.387  1.0628 -0.2856 -0.0646
 1485SOL    MW4 5714   6.074   4.087   6.430  0.5330 -0.5018  0.3428
 1486SOL     OW 5715   1.962   2.546   4.232 -0.8709  0.1346  0.7596
 1486SOL    HW2 5716   1.927   2.522   4.147 -1.2559  0.8853  0.7004
 1486SOL    HW3 5717   1.923   2.484   4.293 -1.9550  0.6632  0.6278
 1486SOL    MW4 5718   1.952   2.535   4.229 -1.0648  0.3034  0.7344
 1487SOL     OW 5719   0.827   0.863   3.429 -0.3012  0.5803  0.3837
 1487SOL    HW2 5720   0.881   0.806   3.484  2.6306  1.6918 -1.1377
 1487SOL    HW3 5721   0.737   0.847   3.459  0.7848 -1.6156  2.8657
 1487SOL    MW4 5722   0.822   0.853   3.440  0.2289  0.4372  0.5104
 1488SOL     OW 5723   4.915   4.012   0.029  0.0218  0.3710  0.3821
 1488SOL    HW2 5724   4.903   4.079  -0.038  0.9942  1.1414  0.9525
 1488SOL    HW3 5725   4.888   4.056   0.111 -1.3772 -0.6225  0.4940
 1488SOL    MW4 5726   4.910   4.027   0.031 -0.0345  0.3415  0.4721
 1489SOL     OW 5727   6.252   2.640   2.134  0.5010 -0.1063  0.0235
 1489SOL    HW2 5728   6.160   2.632   2.160  0.6525 -0.9220  0.3402
 1489SOL    HW3 5729   6.300   2.646   2.216  0.7058  0.7579 -0.1478
 1489SOL    MW4 5730   6.246   2.640   2.148  0.5480 -0.0999  0.0427
 1490SOL     OW 5731   3.764   2.147   6.284  0.4801  0.2622 -0.6498
 1490SOL    HW2 5732   3.706   2.206   6.332  2.6120  0.9156  1.2929
 1490SOL    HW3 5733   3.730   2.059   6.304  0.8283  0.5525  1.5423
 1490SOL    MW4 5734   3.752   2.143   6.293  0.8073  0.3867 -0.1043
 1491SOL     OW 5735   3.693   0.339   5.805  0.1634  0.3234 -0.0707
 1491SOL    HW2 5736   3.708   0.409   5.742  0.2019  2.0995  1.8043
 1491SOL    HW3 5737   3.776   0.293   5.811 -0.3841 -1.2125 -2.7337
 1491SOL    MW4 5738   3.706   0.342   5.798  0.0962  0.3551 -0.1747
 1492SOL     OW 5739   5.192   3.931   2.871 -0.4739  0.5950  0.0634
 1492SOL    HW2 5740   5.110   3.944   2.824 -1.6089 -0.3154  1.6739
 1492SOL    HW3 5741   5.204   4.012   2.920  1.2075  1.9303 -2.3817
 1492SOL    MW4 5742   5.183   3.943   2.871 -0.4018  0.6511 -0.0467
 1493SOL     OW 5743   2.702   2.927   6.010 -0.1715  0.0947 -0.0161
 1493SOL    HW2 5744   2.730   2.934   5.919 -0.7008 -0.9249 -0.2830
 1493SOL    HW3 5745   2.783   2.919   6.060  0.1334  0.9363 -0.3663
 1493SOL    MW4 5746   2.716   2.927   6.005 -0.2011  0.0712 -0.0975
 1494SOL     OW 5747   4.259   3.868   1.540  0.7159 -0.1321  0.0525
 1494SOL    HW2 5748   4.165   3.857   1.523  0.2813  0.0268  2.0829
 1494SOL    HW3 5749   4.295   3.780   1.532  0.4734 -0.1344 -1.1229
 1494SOL    MW4 5750   4.251   3.855   1.537  0.6265 -0.1115  0.1653
 1495SOL     OW 5751   1.468   2.581   2.507 -0.1984  0.2649 -0.2227
 1495SOL    HW2 5752   1.413   2.511   2.470  2.0307 -1.6241 -0.1590
 1495SOL    HW3 5753   1.536   2.596   2.441 -1.0303  3.0336 -0.5979
 1495SOL    MW4 5754   1.469   2.574   2.493 -0.0141  0.3810 -0.2638
 1496SOL     OW 5755   4.692   5.417   4.072 -0.5619  0.0657 -0.5743
 1496SOL    HW2 5756   4.725   5.506   4.086 -0.2544 -0.2075  0.5025
 1496SOL    HW3 5757   4.603   5.418   4.106  0.5276 -0.8729  2.6734
 1496SOL    MW4 5758   4.685   5.429   4.078 -0.3775 -0.0942 -0.0037
 1497SOL     OW 5759   0.092   3.375   2.235 -0.2471 -0.3593 -0.1604
 1497SOL    HW2 5760   0.140   3.455   2.256  0.0117 -0.4573 -0.3686
 1497SOL    HW3 5761   0.160   3.311   2.211 -0.5338 -0.0667 -1.9326
 1497SOL    MW4 5762   0.107   3.377   2.234 -0.2508 -0.3336 -0.4217
 1498SOL     OW 5763   1.468   0.861   0.495 -0.5218  0.1505 -0.3000
 1498SOL    HW2 5764   1.504   0.801   0.560 -0.8433  0.8954  0.5903
 1498SOL    HW3 5765   1.543   0.885   0.440 -0.1714 -0.2002  0.0219
 1498SOL    MW4 5766   1.483   0.856   0.496 -0.5179  0.2025 -0.1401
 1499SOL     OW 5767   3.010   3.743   6.049 -0.0732  0.0285  0.6021
 1499SOL    HW2 5768   2.921   3.713   6.031  0.7228 -1.3926 -1.3741
 1499SOL    HW3 5769   3.013   3.756   6.144 -2.0846 -0.8471  0.8280
 1499SOL    MW4 5770   2.999   3.741   6.059 -0.2335 -0.2745  0.3712
 1500SOL     OW 5771   0.807   5.290   4.838  0.2882 -0.9116  0.1351
 1500SOL    HW2 5772   0.808   5.196   4.858 -3.0364 -0.9317  0.7069
 1500SOL    HW3 5773   0.766   5.296   4.752 -0.8382  0.0477  0.7169
 1500SOL    MW4 5774   0.802   5.278   4.830 -0.2990 -0.7877  0.2873
 1501SOL     OW 5775   3.805   0.468   1.010  0.4260 -0.3353  0.3520
 1501SOL    HW2 5776   3.813   0.481   0.915  0.6018 -1.6203  0.1637
 1501SOL    HW3 5777   3.778   0.553   1.044  1.5378  0.4800 -0.7037
 1501SOL    MW4 5778   3.802   0.481   1.002  0.5958 -0.3973  0.1878
 1502SOL     OW 5779   4.534   0.560   3.066 -0.0529  0.6106 -0.0231
 1502SOL    HW2 5780   4.539   0.600   2.979  1.5174 -1.2354 -0.8526
 1502SOL    HW3 5781   4.585   0.618   3.122  0.9235  0.6121 -0.8761
 1502SOL    MW4 5782   4.542   0.573   3.062  0.2831  0.3672 -0.2451
 1503SOL     OW 5783   1.647   4.943   3.914  0.2281  0.1193  0.2529
 1503SOL    HW2 5784   1.574   4.882   3.901 -0.9142  1.5843 -0.4847
 1503SOL    HW3 5785   1.716   4.910   3.857 -0.1065 -0.8729  0.3914
 1503SOL    MW4 5786   1.646   4.931   3.905  0.0332  0.1817  0.1739
 1504SOL     OW 5787   0.130   0.862   4.931  0.4022  0.5086  0.0324
 1504SOL    HW2 5788   0.165   0.806   4.999  1.8810  1.2004 -0.1262
 1504SOL    HW3 5789   0.068   0.919   4.977  0.2133 -0.0555  0.4973
 1504SOL    MW4 5790   0.126   0.862   4.946  0.5724  0.5254  0.0728
 1505SOL     OW 5791   5.259   2.767   6.222 -0.1505  0.0390 -0.2115
 1505SOL    HW2 5792   5.297   2.821   6.291 -0.9389  0.2327  0.0868
 1505SOL    HW3 5793   5.171   2.746   6.254 -0.2902 -0.4126 -0.8685
 1505SOL    MW4 5794   5.252   2.771   6.235 -0.2730  0.0050 -0.2588
 1506SOL     OW 5795   0.990   4.296   0.063 -0.0316 -0.3280  0.1761
 1506SOL    HW2 5796   0.932   4.296   0.140 -1.6417 -2.3569 -0.9221
 1506SOL    HW3 5797   0.965   4.375   0.015 -0.4386 -0.0988  0.7468
 1506SOL    MW4 5798   0.979   4.306   0.067 -0.2977 -0.5655  0.1065
 1507SOL     OW 5799   6.432   0.721   3.579  0.1643 -0.0491 -0.0635
 1507SOL    HW2 5800   6.383   0.639   3.586  1.3612 -0.6693  1.8050
 1507SOL    HW3 5801   6.521   0.695   3.556  0.4659  0.7559  0.1407
 1507SOL    MW4 5802   6.437   0.707   3.577  0.3620 -0.0247  0.2100
 1508SOL     OW 5803   3.038   3.785   2.261  0.1044 -0.7729 -1.0278
 1508SOL    HW2 5804   3.055   3.822   2.174  0.1288 -0.0077 -0.7051
 1508SOL    HW3 5805   2.975   3.715   2.245  0.0179 -0.5657 -1.6432
 1508SOL    MW4 5806   3.032   3.781   2.247  0.0962 -0.6446 -1.0665
 1509SOL     OW 5807   0.604   3.975   2.132 -0.2697  0.1719  0.8874
 1509SOL    HW2 5808   0.637   3.898   2.085 -0.4770  1.1540 -0.9785
 1509SOL    HW3 5809   0.511   3.980   2.108 -0.1406  1.2841  0.5515
 1509SOL    MW4 5810   0.596   3.965   2.123 -0.2800  0.4482  0.5969
 1510SOL     OW 5811   5.404   5.677   0.128  0.1224  0.4158 -0.2397
 1510SOL    HW2 5812   5.324   5.688   0.076 -1.6945 -0.4838  2.1694
 1510SOL    HW3 5813   5.461   5.624   0.072 -2.0036 -1.1237 -1.0939
 1510SOL    MW4 5814   5.401   5.671   0.114 -0.3978  0.0940 -0.0345
 1511SOL     OW 5815   5.729   2.925   1.839 -1.0016  0.0404 -0.1203
 1511SOL    HW2 5816   5.733   2.976   1.758  2.9786  0.9767  0.4696
 1511SOL    HW3 5817   5.713   2.989   1.907 -0.8262 -0.2262  0.1745
 1511SOL    MW4 5818   5.728   2.940   1.837 -0.4533  0.1288 -0.0036
 1512SOL     OW 5819   0.567   5.528   5.509 -0.0023 -0.0625  0.1973
 1512SOL    HW2 5820   0.489   5.494   5.553 -0.3403 -1.5999 -1.4960
 1512SOL    HW3 5821   0.533   5.593   5.447  0.1438 -0.2308 -0.0590
 1512SOL    MW4 5822   0.552   5.532   5.506 -0.0276 -0.2875 -0.0599
 1513SOL     OW 5823   5.625   3.148   1.259 -0.0364 -0.4150 -0.1661
 1513SOL    HW2 5824   5.567   3.150   1.183 -0.7155 -0.5409  0.3322
 1513SOL    HW3 5825   5.690   3.081   1.239 -0.1460 -0.3717 -0.6773
 1513SOL    MW4 5826   5.626   3.139   1.247 -0.1405 -0.4259 -0.1678
 1514SOL     OW 5827   2.061   0.536   1.173 -0.2106 -0.3802 -0.3348
 1514SOL    HW2 5828   2.038   0.614   1.224  1.3535  0.2787 -0.5801
 1514SOL    HW3 5829   1.999   0.469   1.202 -2.9060  1.4172 -1.4795
 1514SOL    MW4 5830   2.050   0.537   1.183 -0.3599 -0.0561 -0.5182
 1515SOL     OW 5831   2.310   3.175   1.452  0.3503  0.3988  0.5133
 1515SOL    HW2 5832   2.251   3.137   1.517 -1.3813  1.4030 -0.3851
 1515SOL    HW3 5833   2.305   3.269   1.467  0.0165  0.6376 -0.9354
 1515SOL    MW4 5834   2.301   3.182   1.462  0.0778  0.5628  0.2036
 1516SOL     OW 5835   2.827   4.188   6.013  0.8403  0.6269  0.6476
 1516SOL    HW2 5836   2.907   4.144   6.042  1.0905  0.2017 -0.6320
 1516SOL    HW3 5837   2.798   4.137   5.938 -0.0579  1.4058  0.4542
 1516SOL    MW4 5838   2.834   4.176   6.007  0.7548  0.6736  0.4532
 1517SOL     OW 5839   0.056   0.816   1.547  0.2203 -0.9011 -0.5185
 1517SOL    HW2 5840   0.007   0.791   1.626 -0.2373 -0.8249 -0.7778
 1517SOL    HW3 5841   0.096   0.900   1.570 -0.5852 -0.4769 -0.6558
 1517SOL    MW4 5842   0.055   0.824   1.561  0.0537 -0.8350 -0.5708
 1518SOL     OW 5843   6.067   4.469   2.774  0.5348  0.8804 -0.1512
 1518SOL    HW2 5844   6.095   4.528   2.704 -0.5469  0.5535 -0.8850
 1518SOL    HW3 5845   6.048   4.387   2.729  1.2283  0.2230  0.7474
 1518SOL    MW4 5846   6.068   4.466   2.759  0.4836  0.7505 -0.1294
 1519SOL     OW 5847   5.206   0.147   1.330 -0.0323 -0.5650 -0.0607
 1519SOL    HW2 5848   5.227   0.053   1.325 -0.0405 -0.5613 -0.1735
 1519SOL    HW3 5849   5.198   0.174   1.239  2.3036  0.0626 -0.1442
 1519SOL    MW4 5850   5.208   0.138   1.317  0.2748 -0.4817 -0.0866
 1520SOL     OW 5851   2.164   4.529   1.232 -0.3944 -0.2776 -0.0228
 1520SOL    HW2 5852   2.080   4.488   1.214 -0.0267 -1.0441 -0.0556
 1520SOL    HW3 5853   2.142   4.618   1.260 -1.2205 -0.5281  0.1597
 1520SOL    MW4 5854   2.150   4.536   1.233 -0.4549 -0.4118 -0.0031
 1521SOL     OW 5855   1.409   5.315   5.659 -0.6253  0.5694 -0.0994
 1521SOL    HW2 5856   1.414   5.324   5.754  2.8138  0.8574 -0.1875
 1521SOL    HW3 5857   1.450   5.394   5.625 -2.2566  0.7166 -1.9020
 1521SOL    MW4 5858   1.415   5.327   5.667 -0.3868  0.6269 -0.3488
 1522SOL     OW 5859   4.934   2.124   1.866 -0.5492 -0.0604 -0.4183
 1522SOL    HW2 5860   4.870   2.159   1.805  1.1698  1.1204 -1.6645
 1522SOL    HW3 5861   5.016   2.121   1.816  0.2802 -2.0111  0.9248
 1522SOL    MW4 5862   4.937   2.128   1.852 -0.2130 -0.1620 -0.4055
 1523SOL     OW 5863   5.323   6.037   1.375 -0.6640  0.6498  0.1870
 1523SOL    HW2 5864   5.240   5.989   1.371  0.3011 -1.0622 -0.9127
 1523SOL    HW3 5865   5.298   6.129   1.366 -2.4221  0.1508 -0.5872
 1523SOL    MW4 5866   5.309   6.043   1.373 -0.7686  0.3581 -0.0602
 1524SOL     OW 5867   2.518   1.363   3.760  0.1186  0.1526 -0.1482
 1524SOL    HW2 5868   2.432   1.394   3.788  0.5164  1.8563 -0.6816
 1524SOL    HW3 5869   2.560   1.441   3.723  1.7727 -0.7220 -0.1809
 1524SOL    MW4 5870   2.512   1.378   3.759  0.3893  0.2620 -0.2229
 1525SOL     OW 5871   4.755   1.142   6.205 -0.2669 -0.3344  0.0381
 1525SOL    HW2 5872   4.731   1.130   6.297  1.3199  2.4315  0.9152
 1525SOL    HW3 5873   4.835   1.091   6.194 -0.0620 -0.0943  0.4065
 1525SOL    MW4 5874   4.763   1.134   6.215 -0.0305  0.0622  0.2024
 1526SOL     OW 5875   4.860   4.127   0.277 -0.2277  0.1624  0.0873
 1526SOL    HW2 5876   4.858   4.034   0.297 -0.4939  0.0402 -0.4687
 1526SOL    HW3 5877   4.772   4.147   0.246  0.4596  0.0214 -2.1969
 1526SOL    MW4 5878   4.848   4.118   0.275 -0.1721  0.1277 -0.2875
 1527SOL     OW 5879   5.070   4.909   0.771 -0.1155 -0.2717 -0.1927
 1527SOL    HW2 5880   5.152   4.860   0.766 -1.3129 -2.3963  0.1456
 1527SOL    HW3 5881   5.012   4.866   0.709 -1.0994  1.0267 -0.2221
 1527SOL    MW4 5882   5.073   4.897   0.762 -0.4033 -0.3807 -0.1519
 1528SOL     OW 5883   4.190   1.118   0.286  0.0366 -0.2920 -0.7236
 1528SOL    HW2 5884   4.253   1.184   0.258  0.8188 -0.4080  0.6245
 1528SOL    HW3 5885   4.212   1.040   0.234  0.9116 -0.2710 -0.4125
 1528SOL    MW4 5886   4.201   1.116   0.276  0.2552 -0.3045 -0.5047
 1529SOL     OW 5887   6.361   0.887   3.355  0.0993  0.1829  0.2525
 1529SOL    HW2 5888   6.299   0.946   3.397 -0.1121  0.2382 -0.1405
 1529SOL    HW3 5889   6.404   0.843   3.428 -0.6304 -0.1007  0.5159
 1529SOL    MW4 5890   6.359   0.889   3.371 -0.0248  0.1528  0.2354
 1530SOL     OW 5891   5.063   2.954   1.405  0.3289 -0.5570 -0.3727
 1530SOL    HW2 5892   5.109   3.037   1.392  2.9817 -1.8409  0.1243
 1530SOL    HW3 5893   4.996   2.974   1.470 -0.5338  1.6362 -1.8227
 1530SOL    MW4 5894   5.061   2.967   1.412  0.5651 -0.4370 -0.4984
 1531SOL     OW 5895   6.159   1.529   2.233 -0.1860 -0.3139 -0.1424
 1531SOL    HW2 5896   6.211   1.598   2.191 -1.8578  1.3237  0.3384
 1531SOL    HW3 5897   6.186   1.449   2.188  1.6125  0.6725 -0.9464
 1531SOL    MW4 5898   6.169   1.527   2.221 -0.1693  0.0323 -0.1850
 1532SOL     OW 5899   5.610   5.987   5.648 -0.1951  0.7626 -0.6112
 1532SOL    HW2 5900   5.694   6.019   5.615  0.0611  0.3296 -0.3836
 1532SOL    HW3 5901   5.632   5.938   5.727 -0.7316  1.1708 -0.1996
 1532SOL    MW4 5902   5.624   5.985   5.654 -0.2321  0.7593 -0.5268
 1533SOL     OW 5903   1.990   0.869   4.648  0.2845  0.1980 -0.2158
 1533SOL    HW2 5904   1.939   0.923   4.709  1.2013  0.7129  0.1165
 1533SOL    HW3 5905   1.985   0.781   4.685 -2.5208 -0.3451 -1.5823
 1533SOL    MW4 5906   1.983   0.865   4.661  0.0353  0.1943 -0.3522
 1534SOL     OW 5907   2.990   0.384   5.956 -0.1839  0.5916 -0.6004
 1534SOL    HW2 5908   2.977   0.291   5.937  0.6259  0.7283 -1.9458
 1534SOL    HW3 5909   3.005   0.387   6.051  0.5989 -0.7616 -0.6522
 1534SOL    MW4 5910   2.990   0.372   5.966  0.0262  0.4311 -0.7847
 1535SOL     OW 5911   1.009   3.641   6.136 -0.0798  0.1736 -0.1718
 1535SOL    HW2 5912   1.058   3.711   6.093  0.1772  0.1315  0.0441
 1535SOL    HW3 5913   0.933   3.684   6.174  1.3493  0.8148  2.1339
 1535SOL    MW4 5914   1.006   3.656   6.135  0.1427  0.2526  0.1609
 1536SOL     OW 5915   4.862   3.377   4.106 -0.3444  0.5852  0.2428
 1536SOL    HW2 5916   4.772   3.394   4.079 -0.2731 -0.4570 -0.7165
 1536SOL    HW3 5917   4.913   3.450   4.071 -0.6850  0.7417  0.0740
 1536SOL    MW4 5918   4.857   3.389   4.098 -0.3799  0.4683  0.0940
 1537SOL     OW 5919   1.187   2.363   0.130  0.2939  0.9117 -0.2130
 1537SOL    HW2 5920   1.123   2.301   0.095  1.2111 -0.5300  0.5907
 1537SOL    HW3 5921   1.144   2.448   0.120 -0.2689  0.4143 -3.0206
 1537SOL    MW4 5922   1.173   2.366   0.124  0.3406  0.6559 -0.4774
 1538SOL     OW 5923   4.155   4.237   1.661  0.7110 -0.5296 -0.4359
 1538SOL    HW2 5924   4.155   4.308   1.726 -0.3189 -0.4029 -0.5711
 1538SOL    HW3 5925   4.088   4.176   1.691  3.0845 -2.6878  0.9726
 1538SOL    MW4 5926   4.146   4.238   1.674  0.8882 -0.7977 -0.2679
 1539SOL     OW 5927   4.961   0.054   1.403  0.2422  0.1672  0.3129
 1539SOL    HW2 5928   5.043   0.095   1.373  0.6033  0.0315  1.0860
 1539SOL    HW3 5929   4.915   0.124   1.449  0.4650 -0.0629  0.8921
 1539SOL    MW4 5930   4.966   0.069   1.405  0.3192  0.1190  0.4913
 1540SOL     OW 5931   4.821   3.701   2.267 -0.3165  0.8890 -0.0128
 1540SOL    HW2 5932   4.882   3.733   2.201  0.2655 -0.4641 -0.1472
 1540SOL    HW3 5933   4.758   3.648   2.218 -0.1458  0.2477  0.4527
 1540SOL    MW4 5934   4.820   3.698   2.252 -0.2172  0.6259  0.0309
 1541SOL     OW 5935   1.657   0.320   6.039 -0.2473  0.4036 -0.1763
 1541SOL    HW2 5936   1.655   0.247   6.100  0.1089  0.5720  0.0426
 1541SOL    HW3 5937   1.603   0.292   5.965  0.6989 -0.4852 -0.5607
 1541SOL    MW4 5938   1.650   0.307   6.037 -0.0755  0.3086 -0.1981
 1542SOL     OW 5939   5.257   1.046   0.079 -0.4549  0.1584  0.0308
 1542SOL    HW2 5940   5.166   1.020   0.066 -0.6979 -0.9009  2.8937
 1542SOL    HW3 5941   5.306   0.964   0.071  0.1814  0.6348 -0.9931
 1542SOL    MW4 5942   5.251   1.032   0.076 -0.4030  0.0815  0.2735
 1543SOL     OW 5943   1.743   5.152   1.128 -0.0941 -0.1358 -0.9286
 1543SOL    HW2 5944   1.720   5.239   1.096 -0.7062  0.1778  0.2818
 1543SOL    HW3 5945   1.677   5.133   1.195  1.0115 -0.8146  0.0112
 1543SOL    MW4 5946   1.731   5.161   1.133 -0.0290 -0.1840 -0.6449
 1544SOL     OW 5947   0.044   1.881   3.310 -0.1195  0.1220 -0.0969
 1544SOL    HW2 5948  -0.003   1.801   3.330 -0.5680  0.2046 -0.7785
 1544SOL    HW3 5949   0.128   1.851   3.275  0.1216 -0.0327  0.6152
 1544SOL    MW4 5950   0.049   1.867   3.308 -0.1468  0.1125 -0.0929
 1545SOL     OW 5951   5.332   4.583   1.868 -0.4463 -0.3587 -0.0485
 1545SOL    HW2 5952   5.384   4.602   1.946  0.9283 -1.0986 -0.7475
 1545SOL    HW3 5953   5.277   4.661   1.856 -1.4778 -0.6538  2.2261
 1545SOL    MW4 5954   5.331   4.596   1.877 -0.4010 -0.4953  0.1594
 1546SOL     OW 5955   4.615   1.120   1.475 -0.3942 -0.4165 -0.3162
 1546SOL    HW2 5956   4.601   1.041   1.424 -0.8608 -0.1811 -0.5540
 1546SOL    HW3 5957   4.674   1.174   1.422 -1.4585  0.1461 -0.9518
 1546SOL    MW4 5958   4.621   1.117   1.461 -0.5962 -0.3112 -0.4315
 1547SOL     OW 5959   1.858   4.134   3.601  0.1466  0.0991  0.8078
 1547SOL    HW2 5960   1.830   4.053   3.645  1.1020 -0.9500 -0.4361
 1547SOL    HW3 5961   1.798   4.142   3.527  1.9105 -1.1770 -0.8298
 1547SOL    MW4 5962   1.846   4.124   3.597  0.5054 -0.2077  0.4276
 1548SOL     OW 5963   6.430   4.566   5.970  0.5767 -0.0200 -0.2889
 1548SOL    HW2 5964   6.478   4.538   6.047  0.2314 -1.9442 -0.7125
 1548SOL    HW3 5965   6.411   4.485   5.922 -2.0522  0.7342 -0.7381
 1548SOL    MW4 5966   6.434   4.552   5.974  0.1843 -0.1744 -0.4041
 1549SOL     OW 5967   6.294   1.403   3.465 -0.1838 -0.1723 -0.1659
 1549SOL    HW2 5968   6.376   1.361   3.491 -0.0353 -0.6061 -1.2853
 1549SOL    HW3 5969   6.257   1.343   3.400 -0.4884  0.9308 -1.0257
 1549SOL    MW4 5970   6.300   1.389   3.460 -0.2044 -0.0840 -0.4271
 1550SOL     OW 5971   4.422   4.909   6.029  0.1630  0.0284 -0.7943
 1550SOL    HW2 5972   4.484   4.839   6.012 -0.9527 -1.0355 -0.5662
 1550SOL    HW3 5973   4.454   4.982   5.976  0.9251 -0.8679 -1.6052
 1550SOL    MW4 5974   4.434   4.910   6.020  0.1163 -0.2302 -0.8712
 1551SOL     OW 5975   2.832   6.332   2.179  0.4911 -0.4538 -0.4349
 1551SOL    HW2 5976   2.757   6.284   2.145  0.1914 -0.0452 -0.3519
 1551SOL    HW3 5977   2.857   6.285   2.258 -0.8338  0.4658  0.5758
 1551SOL    MW4 5978   2.826   6.320   2.185  0.2768 -0.2786 -0.2906
 1552SOL     OW 5979   1.833   2.530   3.555 -0.1896  0.8661 -0.1679
 1552SOL    HW2 5980   1.922   2.557   3.578 -0.1373  0.7382 -0.2189
 1552SOL    HW3 5981   1.825   2.441   3.590 -0.4199  1.0097  0.1477
 1552SOL    MW4 5982   1.844   2.522   3.562 -0.2131  0.8681 -0.1330
 1553SOL     OW 5983   3.356   1.495   6.268 -0.7723 -0.1363 -0.4444
 1553SOL    HW2 5984   3.316   1.440   6.334 -1.6031  0.8826 -0.0688
 1553SOL    HW3 5985   3.423   1.545   6.315 -0.4664 -0.3550 -0.6453
 1553SOL    MW4 5986   3.360   1.495   6.283 -0.8416 -0.0307 -0.4214
 1554SOL     OW 5987   5.117   0.332   0.459  0.0828  0.1390 -0.1234
 1554SOL    HW2 5988   5.055   0.261   0.442  0.1210  0.2328 -0.6819
 1554SOL    HW3 5989   5.075   0.385   0.527  0.2996 -0.7096  0.6895
 1554SOL    MW4 5990   5.103   0.330   0.465  0.1164  0.0394 -0.0899
 1555SOL     OW 5991   5.475   3.523   5.784  0.0394 -0.1365  0.0049
 1555SOL    HW2 5992   5.527   3.448   5.754  0.2819 -0.3387  0.8795
 1555SOL    HW3 5993   5.393   3.485   5.815  0.1639 -0.0519  0.4528
 1555SOL    MW4 5994   5.471   3.508   5.784  0.0878 -0.1520  0.1794
 1556SOL     OW 5995   0.348   2.285   6.353 -0.1286 -0.5189 -0.3544
 1556SOL    HW2 5996   0.296   2.246   6.283  0.6259 -1.8396 -0.2138
 1556SOL    HW3 5997   0.418   2.222   6.369  0.4645  0.3656  0.7072
 1556SOL    MW4 5998   0.351   2.272   6.346  0.0492 -0.5764 -0.1958
 1557SOL     OW 5999   2.182   4.714   5.483 -0.6239  0.3695 -0.3154
 1557SOL    HW2 6000   2.176   4.790   5.425  1.2462  0.6061 -0.2653
 1557SOL    HW3 6001   2.269   4.677   5.466 -1.4922 -1.7945 -0.3428
 1557SOL    MW4 6002   2.193   4.719   5.473 -0.4917  0.1152 -0.3124
 1558SOL     OW 6003   1.657   6.299   6.057  0.3138 -0.3398  0.3195
 1558SOL    HW2 6004   1.658   6.387   6.094  1.2509 -0.3913  0.4421
 1558SOL    HW3 6005   1.672   6.241   6.133 -0.3002 -0.6045  0.2424
 1558SOL    MW4 6006   1.659   6.303   6.072  0.3564 -0.3815  0.3255
 1559SOL     OW 6007   4.445   2.701   1.152 -0.4127 -0.1977 -0.0096
 1559SOL    HW2 6008   4.451   2.735   1.063 -0.8788  0.1750  0.0975
 1559SOL    HW3 6009   4.537   2.693   1.180 -0.2757  0.2279 -0.3194
 1559SOL    MW4 6010   4.458   2.705   1.144 -0.4561 -0.0924 -0.0363
 1560SOL     OW 6011   4.499   4.701   3.548 -0.0667 -0.5406 -0.2561
 1560SOL    HW2 6012   4.461   4.687   3.634 -1.1266  0.4326 -0.5493
 1560SOL    HW3 6013   4.484   4.619   3.501 -0.7720 -0.5655  0.0121
 1560SOL    MW4 6014   4.492   4.688   3.553 -0.2996 -0.4155 -0.2594
 1561SOL     OW 6015   0.645   4.510   1.241  0.2758  0.4679 -0.3486
 1561SOL    HW2 6016   0.655   4.523   1.335  1.3473  0.9409 -0.5236
 1561SOL    HW3 6017   0.562   4.555   1.220 -0.8970 -1.1297  0.6374
 1561SOL    MW4 6018   0.635   4.518   1.251  0.2624  0.3196 -0.2416
 1562SOL     OW 6019   2.557   3.029   1.502 -0.4048 -0.1289 -0.1642
 1562SOL    HW2 6020   2.613   3.072   1.566 -0.1087  1.2907 -1.3191
 1562SOL    HW3 6021   2.469   3.064   1.520 -0.2408  0.6573 -0.8038
 1562SOL    MW4 6022   2.553   3.040   1.513 -0.3441  0.1621 -0.4010
 1563SOL     OW 6023   1.318   2.239   4.571 -0.3176  0.4641  0.4256
 1563SOL    HW2 6024   1.233   2.269   4.538  0.2566  3.0410  1.0272
 1563SOL    HW3 6025   1.297   2.171   4.634 -1.8892  0.5711  0.0596
 1563SOL    MW4 6026   1.304   2.234   4.575 -0.4492  0.8182  0.4567
 1564SOL     OW 6027   0.309   6.403   0.500  0.6663  0.1291  0.5998
 1564SOL    HW2 6028   0.351   6.445   0.575 -0.0973  0.3704  0.8961
 1564SOL    HW3 6029   0.299   6.311   0.525  1.6557 -0.0924  0.2436
 1564SOL    MW4 6030   0.313   6.396   0.513  0.6961  0.1317  0.5919
 1565SOL     OW 6031   3.457   3.573   2.096  0.1861 -0.0035 -0.0691
 1565SOL    HW2 6032   3.513   3.576   2.173  1.8012  0.1585 -1.2013
 1565SOL    HW3 6033   3.475   3.656   2.051  0.4332 -0.7425 -1.3795
 1565SOL    MW4 6034   3.467   3.585   2.100  0.4318 -0.0796 -0.3914
 1566SOL     OW 6035   2.859   2.166   4.399 -0.4581  0.5599 -0.1755
 1566SOL    HW2 6036   2.791   2.139   4.337 -0.5083 -0.7617  0.4094
 1566SOL    HW3 6037   2.934   2.189   4.344 -0.2977 -1.1666 -0.7557
 1566SOL    MW4 6038   2.860   2.165   4.383 -0.4435  0.1577 -0.1749
 1567SOL     OW 6039   3.603   5.123   3.614 -0.5594  0.0708  0.2552
 1567SOL    HW2 6040   3.582   5.216   3.623  0.1617  0.3270 -0.5844
 1567SOL    HW3 6041   3.658   5.102   3.689 -1.3664  0.1113  0.8781
 1567SOL    MW4 6042   3.607   5.132   3.625 -0.5707  0.1100  0.2266
 1568SOL     OW 6043   0.537   1.215   2.804 -0.1770 -0.2701  0.0538
 1568SOL    HW2 6044   0.599   1.211   2.877 -1.1444 -0.2071  0.8941
 1568SOL    HW3 6045   0.547   1.303   2.767  1.1255 -0.6804 -0.6350
 1568SOL    MW4 6046   0.546   1.226   2.808 -0.1328 -0.3160  0.0738
 1569SOL     OW 6047   4.146   5.129   6.343  0.8210 -0.6328  0.4832
 1569SOL    HW2 6048   4.212   5.196   6.324  1.1462 -0.1251  3.0678
 1569SOL    HW3 6049   4.198   5.050   6.363  0.4859 -1.2699 -1.0451
 1569SOL    MW4 6050   4.162   5.127   6.343  0.8197 -0.6499  0.6225
 1570SOL     OW 6051   4.218   1.525   5.182 -0.1366  0.8166 -0.4921
 1570SOL    HW2 6052   4.232   1.508   5.275 -0.9828  0.7905 -0.3546
 1570SOL    HW3 6053   4.299   1.498   5.139  0.3302  1.0143  0.2595
 1570SOL    MW4 6054   4.230   1.519   5.189 -0.1866  0.8392 -0.3748
 1571SOL     OW 6055   5.761   5.294   0.494 -0.2917 -0.3870 -0.3341
 1571SOL    HW2 6056   5.778   5.262   0.583 -1.0150  0.0562 -0.0364
 1571SOL    HW3 6057   5.739   5.215   0.444 -0.3188 -0.5803 -0.0188
 1571SOL    MW4 6058   5.761   5.279   0.499 -0.3907 -0.3540 -0.2532
 1572SOL     OW 6059   5.104   4.363   0.325  0.1946 -0.2199 -0.1701
 1572SOL    HW2 6060   5.164   4.413   0.270 -1.1278 -0.1284 -1.5999
 1572SOL    HW3 6061   5.127   4.272   0.310 -1.7244 -0.3611 -2.9370
 1572SOL    MW4 6062   5.115   4.358   0.316 -0.2331 -0.2265 -0.7238
 1573SOL     OW 6063   0.398   0.170   5.367 -0.5979 -0.1982 -0.1977
 1573SOL    HW2 6064   0.460   0.216   5.425 -1.0611  2.5176 -1.6833
 1573SOL    HW3 6065   0.315   0.214   5.382 -0.9588 -0.1369 -2.1141
 1573SOL    MW4 6066   0.395   0.182   5.377 -0.7067  0.1682 -0.6465
 1574SOL     OW 6067   5.005   2.007   4.067  0.3368 -0.5096  0.2473
 1574SOL    HW2 6068   5.075   2.057   4.026  0.9059 -0.8362  0.7973
 1574SOL    HW3 6069   4.950   2.072   4.110  1.1123 -0.3476  1.0200
 1574SOL    MW4 6070   5.007   2.022   4.068  0.5142 -0.5313  0.4218
 1575SOL     OW 6071   3.121   0.614   5.859  0.3772 -0.2283  0.8495
 1575SOL    HW2 6072   3.058   0.544   5.878  0.4407 -0.2120  1.1193
 1575SOL    HW3 6073   3.077   0.694   5.889  0.2205 -0.1236  0.3578
 1575SOL    MW4 6074   3.107   0.615   5.865  0.3649 -0.2123  0.8202
 1576SOL     OW 6075   4.665   4.567   4.517 -0.1186 -0.5287 -0.1589
 1576SOL    HW2 6076   4.625   4.634   4.463  0.1903 -1.4998 -1.6597
 1576SOL    HW3 6077   4.610   4.562   4.595 -3.9777 -2.8011 -2.6868
 1576SOL    MW4 6078   4.653   4.575   4.520 -0.5870 -0.9566 -0.6904
 1577SOL     OW 6079   5.710   3.724   2.861  0.1896 -0.4739 -0.2054
 1577SOL    HW2 6080   5.686   3.638   2.827 -0.4239 -0.5115  0.3026
 1577SOL    HW3 6081   5.775   3.705   2.929 -2.2002 -0.8478  2.1286
 1577SOL    MW4 6082   5.715   3.710   2.866 -0.2067 -0.5282  0.1695
 1578SOL     OW 6083   3.189   5.295   1.884 -0.0333  0.3583 -0.4617
 1578SOL    HW2 6084   3.238   5.291   1.802 -1.5439  0.1615 -1.3864
 1578SOL    HW3 6085   3.192   5.205   1.918  0.2973  0.3628 -0.4711
 1578SOL    MW4 6086   3.196   5.282   1.878 -0.1889  0.3329 -0.5849
 1579SOL     OW 6087   2.815   4.356   3.927  0.6029 -0.5060 -0.3847
 1579SOL    HW2 6088   2.747   4.291   3.943  0.9603 -0.8226 -0.1484
 1579SOL    HW3 6089   2.815   4.411   4.005 -1.4791  1.4182 -1.6145
 1579SOL    MW4 6090   2.806   4.355   3.939  0.3753 -0.2939 -0.5158
 1580SOL     OW 6091   1.820   5.920   4.823 -0.2951  0.3022 -0.1274
 1580SOL    HW2 6092   1.910   5.907   4.851 -1.0341  0.0464  2.4122
 1580SOL    HW3 6093   1.779   5.967   4.896 -1.6751  2.5621 -2.2005
 1580SOL    MW4 6094   1.826   5.925   4.837 -0.5747  0.5666 -0.0659
 1581SOL     OW 6095   0.816   0.373   2.122 -0.0880 -0.0092  0.1219
 1581SOL    HW2 6096   0.883   0.376   2.053  1.1406 -0.3462  1.2730
 1581SOL    HW3 6097   0.734   0.362   2.074  0.7424 -0.3287 -1.2930
 1581SOL    MW4 6098   0.814   0.372   2.106  0.1837 -0.0958  0.0871
 1582SOL     OW 6099   1.373   4.063   2.570 -0.3026  0.7548  0.0781
 1582SOL    HW2 6100   1.280   4.040   2.560  0.1993 -1.6724  0.3871
 1582SOL    HW3 6101   1.384   4.140   2.515 -2.3942  0.7763 -0.4080
 1582SOL    MW4 6102   1.362   4.070   2.562 -0.5124  0.4374  0.0547
 1583SOL     OW 6103   1.470   4.287   0.254  0.3110 -0.0758 -0.5308
 1583SOL    HW2 6104   1.392   4.256   0.300  0.7660 -0.1402  0.2068
 1583SOL    HW3 6105   1.486   4.220   0.188  1.1801 -1.3792  0.9354
 1583SOL    MW4 6106   1.462   4.274   0.251  0.4857 -0.2563 -0.2400
 1584SOL     OW 6107   5.730   5.037   2.755  0.4635  0.2690 -0.2778
 1584SOL    HW2 6108   5.811   5.051   2.706  2.5585 -1.6754  2.3470
 1584SOL    HW3 6109   5.707   5.124   2.788  2.7130  0.5842  0.6366
 1584SOL    MW4 6110   5.738   5.050   2.753  1.0367  0.0540  0.1891
 1585SOL     OW 6111   6.425   0.183   5.078 -0.0547 -0.0794  0.9974
 1585SOL    HW2 6112   6.373   0.260   5.055 -0.7166 -0.9517 -0.5975
 1585SOL    HW3 6113   6.426   0.182   5.174 -2.8769  0.0504  1.1128
 1585SOL    MW4 6114   6.418   0.193   5.088 -0.5144 -0.1774  0.8022
 1586SOL     OW 6115   5.565   1.750   3.225  0.4340 -0.3244 -0.3998
 1586SOL    HW2 6116   5.583   1.843   3.207 -0.7808  0.0765  0.3025
 1586SOL    HW3 6117   5.550   1.747   3.319  0.6936 -1.2814 -0.3846
 1586SOL    MW4 6118   5.565   1.762   3.235  0.3079 -0.3978 -0.3051
 1587SOL     OW 6119   3.383   3.083   4.195 -0.4605  0.5018  0.1372
 1587SOL    HW2 6120   3.392   3.136   4.116  1.1147  0.7753  0.4623
 1587SOL    HW3 6121   3.392   2.993   4.165  1.7622  0.6510  0.1221
 1587SOL    MW4 6122   3.386   3.078   4.180  0.0406  0.5576  0.1781
 1588SOL     OW 6123   3.491   4.120   2.904  0.0025  0.0458  0.1543
 1588SOL    HW2 6124   3.428   4.166   2.849 -0.8530 -0.0127  1.0489
 1588SOL    HW3 6125   3.497   4.173   2.984 -0.5826 -1.0594  0.9723
 1588SOL    MW4 6126   3.483   4.133   2.908 -0.1876 -0.1078  0.3803
 1589SOL     OW 6127   4.102   1.418   5.756 -0.4721 -0.1270 -0.3892
 1589SOL    HW2 6128   4.067   1.452   5.673 -2.4441 -1.6457 -0.2477
 1589SOL    HW3 6129   4.141   1.495   5.798 -1.9339  1.2870 -1.4659
 1589SOL    MW4 6130   4.103   1.433   5.750 -0.9251 -0.1408 -0.5126
 1590SOL     OW 6131   0.657   5.385   1.711 -0.3383 -0.0598 -0.2230
 1590SOL    HW2 6132   0.620   5.317   1.654 -1.4071 -1.1427  1.6383
 1590SOL    HW3 6133   0.581   5.421   1.758  0.5896 -0.1606  1.4604
 1590SOL    MW4 6134   0.642   5.380   1.710 -0.3569 -0.2160  0.2447
 1591SOL     OW 6135   4.648   3.238   0.358 -0.1694  0.3893  0.3203
 1591SOL    HW2 6136   4.554   3.229   0.370 -0.2251 -0.6182 -0.7030
 1591SOL    HW3 6137   4.666   3.195   0.275  1.1555  0.8595  0.3378
 1591SOL    MW4 6138   4.638   3.231   0.349 -0.0020  0.3184  0.1876
 1592SOL     OW 6139   4.110   0.292   0.811  0.2110 -0.5741  0.1031
 1592SOL    HW2 6140   4.198   0.307   0.845  0.1893 -0.9466  0.3287
 1592SOL    HW3 6141   4.065   0.247   0.881 -0.2056 -0.2579  0.0402
 1592SOL    MW4 6142   4.116   0.288   0.825  0.1532 -0.5816  0.1245
 1593SOL     OW 6143   2.241   5.165   0.680  0.1799 -0.1034 -0.0254
 1593SOL    HW2 6144   2.205   5.177   0.592  0.7417 -0.2422 -0.2840
 1593SOL    HW3 6145   2.253   5.071   0.688 -0.1543 -0.1188  0.3222
 1593SOL    MW4 6146   2.238   5.154   0.669  0.2099 -0.1237 -0.0136
 1594SOL     OW 6147   6.379   3.664   5.963  0.2018 -0.2804 -0.1453
 1594SOL    HW2 6148   6.401   3.627   6.049  1.0648  1.3221  0.3626
 1594SOL    HW3 6149   6.439   3.621   5.902 -0.6743 -1.7173 -0.0482
 1594SOL    MW4 6150   6.390   3.653   5.966  0.2001 -0.2585 -0.0655
 1595SOL     OW 6151   0.446   5.288   3.470  0.2047 -0.4459  0.1303
 1595SOL    HW2 6152   0.366   5.269   3.422  0.1305 -1.7460  0.7151
 1595SOL    HW3 6153   0.433   5.246   3.555  1.1592  0.0733  0.5542
 1595SOL    MW4 6154   0.434   5.280   3.475  0.3208 -0.5490  0.2634
 1596SOL     OW 6155   1.387   1.621   0.234 -0.0360  0.4557  0.0248
 1596SOL    HW2 6156   1.473   1.594   0.267  0.9900  2.4604 -0.8148
 1596SOL    HW3 6157   1.355   1.545   0.186  1.3172 -0.3038  0.2602
 1596SOL    MW4 6158   1.394   1.607   0.232  0.2779  0.6200 -0.0549
 1597SOL     OW 6159   3.120   0.469   1.893 -0.3077  0.4060  0.1095
 1597SOL    HW2 6160   3.123   0.478   1.989  0.7673  0.2059  0.1113
 1597SOL    HW3 6161   3.159   0.384   1.876 -1.2932  0.0584 -0.4737
 1597SOL    MW4 6162   3.125   0.459   1.904 -0.2959  0.3337  0.0328
 1598SOL     OW 6163   2.094   2.222   0.458 -0.3914  0.3390  0.3731
 1598SOL    HW2 6164   2.145   2.141   0.463  1.8638  1.7387  1.8394
 1598SOL    HW3 6165   2.159   2.292   0.466 -2.1781  2.3548 -1.4154
 1598SOL    MW4 6166   2.109   2.220   0.460 -0.3296  0.7896  0.3306
 1599SOL     OW 6167   0.527   1.764   1.181 -0.9574  0.0990  0.5357
 1599SOL    HW2 6168   0.602   1.793   1.232  0.1999  3.5464 -2.6820
 1599SOL    HW3 6169   0.454   1.816   1.214 -0.4817  1.4003 -0.3795
 1599SOL    MW4 6170   0.527   1.775   1.192 -0.7420  0.7255 -0.0096
 1600SOL     OW 6171   1.132   4.379   3.442  0.5172  0.4416 -0.1076
 1600SOL    HW2 6172   1.163   4.468   3.426 -3.1732  1.5801 -1.8621
 1600SOL    HW3 6173   1.085   4.384   3.525  2.8026 -0.7636  1.4013
 1600SOL    MW4 6174   1.130   4.391   3.451  0.3319  0.4328 -0.1400
 1601SOL     OW 6175   1.047   0.424   2.839 -0.2091 -0.5025  0.3916
 1601SOL    HW2 6176   1.008   0.471   2.913  2.8201  0.3198  1.6002
 1601SOL    HW3 6177   1.071   0.339   2.875  0.7483 -0.3221  0.1957
 1601SOL    MW4 6178   1.045   0.419   2.853  0.3169 -0.3702  0.5252
 1602SOL     OW 6179   2.063   6.297   5.999  0.2070  0.0770  0.3536
 1602SOL    HW2 6180   2.008   6.219   5.989 -0.0371  0.3782 -0.9003
 1602SOL    HW3 6181   2.020   6.348   6.067 -0.1521 -0.4559  0.5340
 1602SOL    MW4 6182   2.050   6.293   6.006  0.1275  0.0464  0.2120
 1603SOL     OW 6183   3.151   2.723   4.789  0.0259 -0.1670 -0.2646
 1603SOL    HW2 6184   3.122   2.639   4.824 -1.5120  0.3456 -0.2300
 1603SOL    HW3 6185   3.179   2.773   4.865 -1.0571  0.0885 -0.0160
 1603SOL    MW4 6186   3.151   2.719   4.804 -0.3199 -0.0657 -0.2272
 1604SOL     OW 6187   0.282   2.969   2.385  0.0886  0.2407  0.0770
 1604SOL    HW2 6188   0.188   2.958   2.391  0.0256  0.7944  0.2117
 1604SOL    HW3 6189   0.294   3.031   2.312  0.4115 -0.6869 -0.6802
 1604SOL    MW4 6190   0.271   2.976   2.376  0.1229  0.1914 -0.0051
 1605SOL     OW 6191   1.462   3.558   3.823 -1.0199 -0.0074 -0.1453
 1605SOL    HW2 6192   1.402   3.609   3.769  0.3786 -0.1412 -1.9458
 1605SOL    HW3 6193   1.434   3.467   3.811 -0.6769 -0.0424 -0.7361
 1605SOL    MW4 6194   1.451   3.553   3.814 -0.7901 -0.0297 -0.4608
 1606SOL     OW 6195   0.270   3.110   2.618  0.4390 -0.2004 -0.5835
 1606SOL    HW2 6196   0.261   3.061   2.536 -0.4149 -1.2546  0.1055
 1606SOL    HW3 6197   0.277   3.202   2.591  0.2633 -0.5372 -1.8388
 1606SOL    MW4 6198   0.269   3.116   2.603  0.3032 -0.3840 -0.6582
 1607SOL     OW 6199   6.408   6.370   4.403  0.3532  0.2973  0.3573
 1607SOL    HW2 6200   6.462   6.422   4.343  1.3697 -1.2672 -0.1635
 1607SOL    HW3 6201   6.455   6.373   4.486  0.5065  0.0726  0.2796
 1607SOL    MW4 6202   6.422   6.377   4.406  0.5076  0.0612  0.2783
 1608SOL     OW 6203   6.430   0.165   4.005  0.4103  0.2981  0.2120
 1608SOL    HW2 6204   6.496   0.124   4.061  0.7536 -0.0641 -0.4449
 1608SOL    HW3 6205   6.480   0.217   3.942  0.0049  1.0937  0.5406
 1608SOL    MW4 6206   6.445   0.166   4.004  0.4021  0.3553  0.1687
 1609SOL     OW 6207   5.646   2.184   2.751  0.4575 -0.2827 -0.1099
 1609SOL    HW2 6208   5.707   2.142   2.811 -0.6737 -1.7468  0.0714
 1609SOL    HW3 6209   5.701   2.239   2.695  1.5925  0.9366  2.0435
 1609SOL    MW4 6210   5.661   2.186   2.752  0.4580 -0.3150  0.1981
 1610SOL     OW 6211   0.495   2.233   2.774 -0.1407 -0.2633 -0.2912
 1610SOL    HW2 6212   0.561   2.288   2.817  1.2362 -1.7471 -0.3873
 1610SOL    HW3 6213   0.487   2.269   2.686  2.8613 -1.7816 -1.3204
 1610SOL    MW4 6214   0.503   2.245   2.768  0.4370 -0.6594 -0.4396
 1611SOL     OW 6215   4.524   0.893   1.324  0.4911  0.6481 -0.8588
 1611SOL    HW2 6216   4.510   0.828   1.254  1.1686 -0.6014  0.1351
 1611SOL    HW3 6217   4.491   0.975   1.286  0.5784 -0.0397 -2.5466
 1611SOL    MW4 6218   4.517   0.895   1.310  0.5920  0.3925 -0.9503
 1612SOL     OW 6219   3.575   5.892   2.239  0.2498  0.2148  0.3797
 1612SOL    HW2 6220   3.529   5.884   2.323 -1.8349 -0.4511 -0.7531
 1612SOL    HW3 6221   3.666   5.905   2.263 -0.2885  0.0683  2.7540
 1612SOL    MW4 6222   3.581   5.893   2.253 -0.0963  0.1076  0.5435
 1613SOL     OW 6223   0.239   2.154   4.000  0.1050 -0.1433 -0.2786
 1613SOL    HW2 6224   0.159   2.140   4.052  0.8855  0.7208  1.2227
 1613SOL    HW3 6225   0.310   2.153   4.065  0.9465  3.1516 -0.9896
 1613SOL    MW4 6226   0.238   2.152   4.015  0.3190  0.4055 -0.1743
 1614SOL     OW 6227   5.828   5.234   4.408  0.1790 -0.5107 -0.4978
 1614SOL    HW2 6228   5.811   5.265   4.497  0.7065  1.0170 -0.8925
 1614SOL    HW3 6229   5.923   5.227   4.402  0.2730  1.0282 -1.4130
 1614SOL    MW4 6230   5.838   5.237   4.419  0.2610 -0.1061 -0.6707
 1615SOL     OW 6231   3.989   4.571   2.031  0.0795  0.3038 -0.9097
 1615SOL    HW2 6232   4.080   4.564   2.060  0.5296  2.3684 -1.6493
 1615SOL    HW3 6233   3.938   4.537   2.105  1.4118 -0.3191 -0.2373
 1615SOL    MW4 6234   3.994   4.566   2.044  0.3146  0.4940 -0.9186
 1616SOL     OW 6235   3.788   1.156   3.136 -0.3350 -0.3422 -0.6578
 1616SOL    HW2 6236   3.758   1.171   3.225 -1.3678  2.1658 -1.3445
 1616SOL    HW3 6237   3.714   1.183   3.080  0.3258 -1.7098 -2.2883
 1616SOL    MW4 6238   3.774   1.162   3.140 -0.3841 -0.1917 -0.9635
 1617SOL     OW 6239   2.047   2.044   5.183  0.0045 -0.7331  0.0083
 1617SOL    HW2 6240   2.094   2.041   5.100  1.3852  0.5940  0.6883
 1617SOL    HW3 6241   1.955   2.031   5.159  0.3427 -0.1698 -1.7525
 1617SOL    MW4 6242   2.041   2.042   5.169  0.2313 -0.4837 -0.1343
 1618SOL     OW 6243   3.069   4.854   3.912 -0.3304 -0.7024 -0.4726
 1618SOL    HW2 6244   3.119   4.795   3.855  2.0252 -0.7568  1.4420
 1618SOL    HW3 6245   3.024   4.914   3.853 -0.9190 -2.9292 -2.4211
 1618SOL    MW4 6246   3.070   4.854   3.897 -0.0973 -1.0034 -0.4771
 1619SOL     OW 6247   0.446   0.230   4.329 -0.0224 -0.1386  0.2968
 1619SOL    HW2 6248   0.514   0.162   4.327 -0.1737 -0.2798 -0.6219
 1619SOL    HW3 6249   0.495   0.312   4.323  0.0716 -0.2555 -0.8658
 1619SOL    MW4 6250   0.462   0.232   4.328 -0.0299 -0.1726  0.0222
 1620SOL     OW 6251   3.182   1.712   0.428 -0.3999  0.1222 -0.2216
 1620SOL    HW2 6252   3.138   1.629   0.447 -0.8338  0.4186  0.0868
 1620SOL    HW3 6253   3.254   1.715   0.491  0.2822 -0.5217 -0.9513
 1620SOL    MW4 6254   3.186   1.702   0.439 -0.3671  0.0764 -0.2772
 1621SOL     OW 6255   0.110   4.979   4.643  0.4175 -0.0543  0.7809
 1621SOL    HW2 6256   0.132   5.071   4.630  0.0909  0.1167  1.4157
 1621SOL    HW3 6257   0.153   4.956   4.726 -0.0718 -0.2868  0.9705
 1621SOL    MW4 6258   0.119   4.988   4.652  0.3098 -0.0624  0.8897
 1622SOL     OW 6259   5.786   0.923   3.986 -0.2995  0.1486  0.4819
 1622SOL    HW2 6260   5.736   1.004   4.001 -0.0021  0.5117 -0.4715
 1622SOL    HW3 6261   5.828   0.906   4.071 -1.2468  0.3690  1.0200
 1622SOL    MW4 6262   5.785   0.931   3.999 -0.3852  0.2256  0.4271
 1623SOL     OW 6263   3.859   1.836   5.836 -0.2883  0.1471 -0.2275
 1623SOL    HW2 6264   3.837   1.806   5.924  1.9478  0.5376  0.5495
 1623SOL    HW3 6265   3.776   1.866   5.798 -1.1642  0.8587  2.1072
 1623SOL    MW4 6266   3.845   1.836   5.842 -0.1088  0.2925  0.1830
 1624SOL     OW 6267   1.487   4.183   4.912 -0.1113 -0.4076 -0.0029
 1624SOL    HW2 6268   1.434   4.223   4.981  0.8149  0.5117  0.2170
 1624SOL    HW3 6269   1.572   4.227   4.920  0.4450 -1.2965 -0.8253
 1624SOL    MW4 6270   1.492   4.194   4.922  0.0843 -0.4036 -0.0824
 1625SOL     OW 6271   1.009   2.988   2.809 -0.0830 -0.2540 -0.2872
 1625SOL    HW2 6272   0.973   3.077   2.809  0.5436  0.0029 -0.8892
 1625SOL    HW3 6273   0.936   2.934   2.838 -0.4743  0.4523  0.0895
 1625SOL    MW4 6274   0.994   2.993   2.812 -0.0520 -0.1269 -0.3169
 1626SOL     OW 6275   2.538   1.181   5.461 -0.0326  0.3954 -0.3936
 1626SOL    HW2 6276   2.576   1.262   5.428 -1.2617  1.3374  0.4280
 1626SOL    HW3 6277   2.559   1.116   5.394  2.3925  0.9946 -0.2951
 1626SOL    MW4 6278   2.545   1.183   5.448  0.1252  0.5987 -0.2722
 1627SOL     OW 6279   2.941   1.299   6.014  0.7153 -0.0463  0.1024
 1627SOL    HW2 6280   2.925   1.358   5.940  0.3841  1.7044  1.4867
 1627SOL    HW3 6281   3.033   1.311   6.036  0.0097  2.4233  2.2712
 1627SOL    MW4 6282   2.951   1.309   6.007  0.5785  0.5105  0.5712
 1628SOL     OW 6283   5.453   1.948   4.077 -0.3108 -0.1277  0.3119
 1628SOL    HW2 6284   5.440   1.976   3.986 -0.3338 -1.3819 -0.0881
 1628SOL    HW3 6285   5.549   1.946   4.087 -0.3038  0.8771  0.6167
 1628SOL    MW4 6286   5.464   1.952   4.066 -0.3129 -0.1606  0.2993
 1629SOL     OW 6287   0.656   1.979   0.927 -0.3896  0.0649 -0.2395
 1629SOL    HW2 6288   0.696   2.012   0.847  2.2707 -0.7891  0.6554
 1629SOL    HW3 6289   0.629   1.889   0.905 -0.2644  0.0553 -0.3543
 1629SOL    MW4 6290   0.657   1.971   0.913 -0.0221 -0.0491 -0.1366
 1630SOL     OW 6291   5.914   6.272   3.680 -1.0447  0.4722 -0.4545
 1630SOL    HW2 6292   5.930   6.247   3.589  0.3772  1.6686 -0.5742
 1630SOL    HW3 6293   5.877   6.360   3.675 -0.8484  0.5923  0.1208
 1630SOL    MW4 6294   5.911   6.280   3.667 -0.8312  0.6459 -0.3944
 1631SOL     OW 6295   5.978   1.545   1.107  0.1982  0.4211  0.2316
 1631SOL    HW2 6296   6.005   1.636   1.094  1.5812 -0.0229 -0.2129
 1631SOL    HW3 6297   5.973   1.509   1.018  1.4651 -0.4004  0.4611
 1631SOL    MW4 6298   5.981   1.552   1.093  0.5478  0.2541  0.2032
 1632SOL     OW 6299   5.902   3.964   0.466  0.0370  0.0418  0.1369
 1632SOL    HW2 6300   5.889   3.959   0.371 -2.0004 -2.6921  0.4076
 1632SOL    HW3 6301   5.964   3.893   0.485  0.6287  0.7394  0.8435
 1632SOL    MW4 6302   5.908   3.954   0.456 -0.1537 -0.2268  0.2658
 1633SOL     OW 6303   2.645   5.279   1.740 -0.0324 -0.5257 -0.1283
 1633SOL    HW2 6304   2.645   5.187   1.765 -0.3993 -0.5184 -0.0880
 1633SOL    HW3 6305   2.662   5.326   1.822  1.1217 -0.5923 -0.3213
 1633SOL    MW4 6306   2.647   5.273   1.754  0.0715 -0.5335 -0.1485
 1634SOL     OW 6307   3.427   3.186   0.656  0.5286 -0.3186 -0.1030
 1634SOL    HW2 6308   3.418   3.277   0.685  1.2627  0.2665 -1.5910
 1634SOL    HW3 6309   3.372   3.136   0.716  0.7679  0.9926  1.2720
 1634SOL    MW4 6310   3.418   3.191   0.668  0.6570 -0.0684 -0.1179
 1635SOL     OW 6311   5.781   3.942   3.435 -0.2009  0.6969 -0.8561
 1635SOL    HW2 6312   5.860   3.915   3.389  0.4429 -1.8629  1.4751
 1635SOL    HW3 6313   5.812   3.998   3.506 -0.6230  0.7111 -0.6775
 1635SOL    MW4 6314   5.796   3.946   3.438 -0.1716  0.3610 -0.5250
 1636SOL     OW 6315   3.017   1.051   4.151 -0.2254  0.0754 -0.0636
 1636SOL    HW2 6316   2.993   1.101   4.228  1.6939  1.0267 -0.0240
 1636SOL    HW3 6317   3.074   1.109   4.100  0.4534 -1.3450 -1.0230
 1636SOL    MW4 6318   3.021   1.065   4.154  0.1174  0.0135 -0.1850
 1637SOL     OW 6319   3.444   2.542   4.545 -0.3113  0.1840  0.0112
 1637SOL    HW2 6320   3.462   2.624   4.591 -1.8481  1.1100 -0.9652
 1637SOL    HW3 6321   3.399   2.488   4.609  0.7938  0.0339  0.6896
 1637SOL    MW4 6322   3.441   2.545   4.559 -0.3683  0.2863 -0.0281
 1638SOL     OW 6323   5.416   0.301   1.375 -0.7251  0.1679 -0.2359
 1638SOL    HW2 6324   5.398   0.326   1.465  0.6260 -0.9699  0.4020
 1638SOL    HW3 6325   5.341   0.249   1.348  0.1755 -2.1379  1.3740
 1638SOL    MW4 6326   5.404   0.297   1.383 -0.4281 -0.2865  0.0607
 1639SOL     OW 6327   4.476   6.111   1.649 -0.0606  0.1357  0.1241
 1639SOL    HW2 6328   4.395   6.123   1.699 -0.4479 -0.1279 -0.4394
 1639SOL    HW3 6329   4.521   6.039   1.694 -0.2328  0.1469  0.3164
 1639SOL    MW4 6330   4.472   6.103   1.662 -0.1344  0.1024  0.0751
 1640SOL     OW 6331   0.944   6.005   5.615  0.2619 -0.5664  0.0921
 1640SOL    HW2 6332   0.989   5.921   5.625  3.0119  0.5458 -1.4708
 1640SOL    HW3 6333   0.983   6.061   5.683  0.3841  0.1063 -0.5190
 1640SOL    MW4 6334   0.955   6.001   5.625  0.6409 -0.3309 -0.1947
 1641SOL     OW 6335   5.378   4.193   2.052  0.8143 -0.2903 -0.0364
 1641SOL    HW2 6336   5.417   4.252   1.986 -0.2839 -1.6830 -2.0429
 1641SOL    HW3 6337   5.327   4.251   2.108  1.0545  0.8714 -0.9665
 1641SOL    MW4 6338   5.376   4.209   2.050  0.7011 -0.3207 -0.4239
 1642SOL     OW 6339   5.185   3.726   5.597 -0.1419  0.3514 -0.2764
 1642SOL    HW2 6340   5.252   3.779   5.641 -0.1923 -0.3602  0.6887
 1642SOL    HW3 6341   5.200   3.742   5.504  1.3999  0.1838 -0.0897
 1642SOL    MW4 6342   5.196   3.735   5.591  0.0548  0.2354 -0.1244
 1643SOL     OW 6343   0.569   5.839   1.892 -0.8167 -0.5063  0.5315
 1643SOL    HW2 6344   0.609   5.919   1.858 -1.6118 -0.2908  0.0584
 1643SOL    HW3 6345   0.642   5.780   1.909 -0.3479 -0.6354 -1.6432
 1643SOL    MW4 6346   0.584   5.842   1.890 -0.8597 -0.4949  0.1821
 1644SOL     OW 6347   1.897   0.609   2.432  0.0562  0.7071  0.0777
 1644SOL    HW2 6348   1.921   0.683   2.377  0.9252  0.9934  0.8117
 1644SOL    HW3 6349   1.840   0.646   2.499 -1.9249  0.1623 -1.2178
 1644SOL    MW4 6350   1.893   0.623   2.434 -0.0905  0.6730  0.0036
 1645SOL     OW 6351   3.554   1.048   6.369 -0.4615 -0.2472  0.1172
 1645SOL    HW2 6352   3.617   1.117   6.391  0.6127  0.0520 -3.3813
 1645SOL    HW3 6353   3.580   0.974   6.425  2.0921  0.3636 -0.1043
 1645SOL    MW4 6354   3.566   1.047   6.380  0.0171 -0.1272 -0.3736
 1646SOL     OW 6355   3.066   1.237   3.325 -0.2266 -0.3839  0.1960
 1646SOL    HW2 6356   3.012   1.316   3.331  0.8202  0.2628  1.9093
 1646SOL    HW3 6357   3.026   1.186   3.254 -0.3062  2.1474 -1.7395
 1646SOL    MW4 6358   3.053   1.241   3.316 -0.0990  0.0354  0.1666
 1647SOL     OW 6359   0.772   2.213   3.124  0.5291  0.7626 -0.0181
 1647SOL    HW2 6360   0.785   2.120   3.105  0.3199  0.7902 -0.3160
 1647SOL    HW3 6361   0.709   2.214   3.196  1.0548  0.6613  0.4487
 1647SOL    MW4 6362   0.766   2.201   3.131  0.5709  0.7529  0.0042
 1648SOL     OW 6363   5.807   4.903   3.027 -0.1395 -0.5339  0.3985
 1648SOL    HW2 6364   5.787   4.955   2.948  1.3966 -0.4861  0.0033
 1648SOL    HW3 6365   5.786   4.813   3.002  1.3211 -0.6767 -0.4930
 1648SOL    MW4 6366   5.802   4.898   3.013  0.2559 -0.5464  0.2287
 1649SOL     OW 6367   4.879   3.794   1.851  0.3149  0.0877 -0.4540
 1649SOL    HW2 6368   4.864   3.702   1.829 -0.1299  0.0421  0.0204
 1649SOL    HW3 6369   4.833   3.843   1.783 -1.4013 -0.0532  0.5487
 1649SOL    MW4 6370   4.871   3.789   1.839  0.0298  0.0631 -0.2592
 1650SOL     OW 6371   4.405   6.420   0.396 -0.0890 -0.2265 -0.4620
 1650SOL    HW2 6372   4.409   6.401   0.302  0.6211 -3.3263  0.0542
 1650SOL    HW3 6373   4.316   6.396   0.422 -1.1010  2.9000 -0.6214
 1650SOL    MW4 6374   4.394   6.414   0.387 -0.1288 -0.2230 -0.4149
 1651SOL     OW 6375   0.600   5.120   6.066  0.0302  0.2784  0.0623
 1651SOL    HW2 6376   0.644   5.131   5.982 -1.1914 -0.7004 -0.7528
 1651SOL    HW3 6377   0.669   5.130   6.131  0.7267  2.6964 -0.9470
 1651SOL    MW4 6378   0.615   5.123   6.063 -0.0391  0.4683 -0.1784
 1652SOL     OW 6379   4.100   0.901   0.478  0.1381  0.3658  0.0161
 1652SOL    HW2 6380   4.108   0.967   0.410 -2.5590 -1.6952 -2.5330
 1652SOL    HW3 6381   4.167   0.836   0.457 -0.0020  0.2329 -0.0186
 1652SOL    MW4 6382   4.110   0.901   0.466 -0.2362  0.0763 -0.3248
 1653SOL     OW 6383   6.274   2.159   5.055 -0.2119  0.3400 -0.4675
 1653SOL    HW2 6384   6.249   2.252   5.056  0.2161  0.4592 -0.7072
 1653SOL    HW3 6385   6.361   2.157   5.096 -0.7665 -0.1266  0.7421
 1653SOL    MW4 6386   6.282   2.171   5.061 -0.2286  0.2941 -0.3396
 1654SOL     OW 6387   5.585   3.506   2.739  0.4512  0.2770  0.4362
 1654SOL    HW2 6388   5.603   3.412   2.729  3.1768  0.7307  0.3728
 1654SOL    HW3 6389   5.511   3.522   2.680 -1.0566 -2.0377  1.5047
 1654SOL    MW4 6390   5.577   3.495   2.730  0.6119  0.0315  0.5688
 1655SOL     OW 6391   0.779   5.236   5.874  0.2628 -0.0583 -0.6173
 1655SOL    HW2 6392   0.714   5.297   5.840 -0.2790 -0.5549 -0.4849
 1655SOL    HW3 6393   0.789   5.170   5.805  0.1447 -0.3406 -0.3650
 1655SOL    MW4 6394   0.772   5.235   5.860  0.1758 -0.1611 -0.5665
 1656SOL     OW 6395   0.173   2.401   3.898 -0.2046  0.2099 -0.6538
 1656SOL    HW2 6396   0.169   2.471   3.964  0.3548  0.6211 -1.0461
 1656SOL    HW3 6397   0.179   2.321   3.949 -0.5224  0.4680 -0.1979
 1656SOL    MW4 6398   0.173   2.400   3.914 -0.1727  0.2982 -0.6454
 1657SOL     OW 6399   2.306   0.872   1.298 -0.5006 -0.4408  0.4560
 1657SOL    HW2 6400   2.297   0.777   1.308 -1.2271 -0.4766 -0.4226
 1657SOL    HW3 6401   2.268   0.909   1.377 -2.8049 -0.8105 -0.4006
 1657SOL    MW4 6402   2.300   0.864   1.310 -0.9005 -0.4943  0.2271
 1658SOL     OW 6403   1.955   1.901   3.250  0.2935 -0.2275 -0.8375
 1658SOL    HW2 6404   2.037   1.860   3.220 -0.1728 -1.8566 -0.0219
 1658SOL    HW3 6405   1.889   1.871   3.188 -0.1016 -0.9435 -0.0848
 1658SOL    MW4 6406   1.957   1.892   3.238  0.1798 -0.5369 -0.6306
 1659SOL     OW 6407   3.117   2.087   3.506 -0.2965 -0.2851  0.0175
 1659SOL    HW2 6408   3.151   2.059   3.420  1.0494 -0.9821  0.7513
 1659SOL    HW3 6409   3.067   2.012   3.537 -2.3653  0.6286 -0.9243
 1659SOL    MW4 6410   3.115   2.073   3.498 -0.3919 -0.2565 -0.0099
 1660SOL     OW 6411   1.132   4.212   2.985  0.2065  0.0216  0.4297
 1660SOL    HW2 6412   1.091   4.126   2.994  0.2486 -0.1802 -0.9832
 1660SOL    HW3 6413   1.106   4.242   2.897 -1.2412  2.2388  1.5189
 1660SOL    MW4 6414   1.123   4.205   2.974  0.0210  0.2875  0.3870
 1661SOL     OW 6415   3.211   6.273   0.026  0.4521  0.3450 -0.3065
 1661SOL    HW2 6416   3.199   6.204   0.090  1.6029  0.5103  0.1196
 1661SOL    HW3 6417   3.127   6.281  -0.018 -0.6322  0.7679  1.7177
 1661SOL    MW4 6418   3.198   6.265   0.028  0.4609  0.4226  0.0168
 1662SOL     OW 6419   1.079   1.779   3.656 -0.2560 -0.0646  0.2220
 1662SOL    HW2 6420   1.108   1.850   3.713 -1.4575 -0.5863  1.5299
 1662SOL    HW3 6421   0.984   1.782   3.659 -0.3458 -1.6306  0.2189
 1662SOL    MW4 6422   1.070   1.788   3.664 -0.4263 -0.3401  0.3941
 1663SOL     OW 6423   0.391   5.152   3.716  0.9278  0.6822  0.4397
 1663SOL    HW2 6424   0.300   5.183   3.711  0.9580  0.7217  0.0920
 1663SOL    HW3 6425   0.415   5.165   3.808  1.5508  3.4824 -0.0069
 1663SOL    MW4 6426   0.382   5.158   3.727  1.0140  1.0569  0.3349
 1664SOL     OW 6427   6.414   5.491   4.572  0.1666  0.4037 -0.5398
 1664SOL    HW2 6428   6.476   5.563   4.580 -0.1923  0.7472 -0.7986
 1664SOL    HW3 6429   6.383   5.496   4.481 -2.7996  2.3956  0.4138
 1664SOL    MW4 6430   6.418   5.501   4.561 -0.2721  0.7119 -0.4481
 1665SOL     OW 6431   4.662   5.515   0.381 -0.1882  0.3470 -0.1679
 1665SOL    HW2 6432   4.569   5.494   0.393 -0.1836 -0.1159 -0.8859
 1665SOL    HW3 6433   4.705   5.478   0.458 -0.6844  1.2126  0.5471
 1665SOL    MW4 6434   4.655   5.508   0.392 -0.2531  0.4001 -0.1683
 1666SOL     OW 6435   0.415   4.815   2.608 -0.1799 -0.0537 -0.0908
 1666SOL    HW2 6436   0.502   4.815   2.648  0.3859  0.0938 -1.2826
 1666SOL    HW3 6437   0.428   4.856   2.523 -1.4264 -0.0309 -0.2819
 1666SOL    MW4 6438   0.429   4.820   2.602 -0.2697 -0.0312 -0.2733
 1667SOL     OW 6439   3.300   0.568   1.371  0.4695  0.4612  0.8657
 1667SOL    HW2 6440   3.233   0.537   1.432  0.5973 -0.4674  0.5452
 1667SOL    HW3 6441   3.267   0.544   1.285  0.9986  0.4076  0.6745
 1667SOL    MW4 6442   3.287   0.561   1.368  0.5562  0.3316  0.7982
 1668SOL     OW 6443   4.889   0.785   1.404 -0.3588  0.5671 -0.1509
 1668SOL    HW2 6444   4.826   0.737   1.350 -0.4419  0.1208  0.3344
 1668SOL    HW3 6445   4.845   0.795   1.488  0.5569 -0.5663  0.4997
 1668SOL    MW4 6446   4.875   0.780   1.408 -0.2489  0.3587 -0.0011
 1669SOL     OW 6447   0.964   4.824   6.126  0.5026 -0.1024  0.2102
 1669SOL    HW2 6448   0.886   4.802   6.176  0.3055 -0.6804 -0.3465
 1669SOL    HW3 6449   0.996   4.905   6.166  0.5667 -0.7525  1.5276
 1669SOL    MW4 6450   0.958   4.832   6.138  0.4851 -0.2644  0.3106
 1670SOL     OW 6451   6.164   1.264   6.303  0.6508  0.7732 -0.6906
 1670SOL    HW2 6452   6.071   1.287   6.299  0.6808  0.8172 -1.3613
 1670SOL    HW3 6453   6.188   1.276   6.394 -0.4316 -0.8933 -0.1346
 1670SOL    MW4 6454   6.155   1.268   6.314  0.5119  0.5592 -0.7057
 1671SOL     OW 6455   0.273   4.940   4.890 -0.0707 -0.2257 -0.2027
 1671SOL    HW2 6456   0.295   4.996   4.964  1.0042 -1.5559  0.5336
 1671SOL    HW3 6457   0.304   4.853   4.915 -0.6072 -0.9267 -1.7956
 1671SOL    MW4 6458   0.280   4.936   4.903  0.0003 -0.4937 -0.3157
 1672SOL     OW 6459   2.944   5.672   1.325 -0.1186 -0.3385  0.3287
 1672SOL    HW2 6460   2.894   5.728   1.384 -2.1848  1.0715 -2.5531
 1672SOL    HW3 6461   2.884   5.601   1.303  0.8298 -1.1605  0.3065
 1672SOL    MW4 6462   2.929   5.670   1.330 -0.2661 -0.2609 -0.0544
 1673SOL     OW 6463   5.842   4.784   5.796 -0.1089  0.1050 -0.3595
 1673SOL    HW2 6464   5.886   4.868   5.788 -1.4007  0.9019  0.4590
 1673SOL    HW3 6465   5.903   4.721   5.759  1.6664  1.1546  0.6352
 1673SOL    MW4 6466   5.856   4.787   5.790 -0.0451  0.3486 -0.1203
 1674SOL     OW 6467   3.048   5.181   4.315  0.8383  0.0357 -0.2617
 1674SOL    HW2 6468   3.092   5.117   4.259  0.1614 -0.2452 -0.4799
 1674SOL    HW3 6469   3.027   5.254   4.256 -0.5426 -0.5743 -0.5684
 1674SOL    MW4 6470   3.051   5.182   4.300  0.5668 -0.0818 -0.3310
 1675SOL     OW 6471   3.985   1.650   1.953 -0.3756 -0.0024 -0.3979
 1675SOL    HW2 6472   4.034   1.692   1.883  0.1058 -0.0342 -0.0855
 1675SOL    HW3 6473   3.997   1.707   2.029 -0.5886 -0.1579 -0.2453
 1675SOL    MW4 6474   3.993   1.663   1.954 -0.3402 -0.0271 -0.3365
 1676SOL     OW 6475   0.608   2.472   1.019  0.0459  0.2627 -0.0933
 1676SOL    HW2 6476   0.645   2.553   1.054  0.0826 -0.5908  1.9965
 1676SOL    HW3 6477   0.517   2.473   1.048  0.1366 -0.5811  0.2571
 1676SOL    MW4 6478   0.601   2.483   1.027  0.0627  0.0388  0.2286
 1677SOL     OW 6479   3.887   1.221   0.290 -0.4174  0.3566  0.2245
 1677SOL    HW2 6480   3.981   1.218   0.306 -0.5121 -0.0899  0.7054
 1677SOL    HW3 6481   3.853   1.280   0.357 -0.5622  0.0377  0.4293
 1677SOL    MW4 6482   3.894   1.229   0.301 -0.4490  0.2556  0.3150
 1678SOL     OW 6483   6.262   0.300   2.608 -0.4813 -0.2912 -0.6136
 1678SOL    HW2 6484   6.291   0.367   2.547 -1.3911 -0.6697 -1.4854
 1678SOL    HW3 6485   6.311   0.318   2.688  0.3046  0.5655 -1.2633
 1678SOL    MW4 6486   6.272   0.311   2.610 -0.4977 -0.2281 -0.8143
 1679SOL     OW 6487   2.843   2.480   4.657  1.0818 -0.1071  0.4908
 1679SOL    HW2 6488   2.764   2.426   4.660  1.9513 -1.3602  2.5306
 1679SOL    HW3 6489   2.816   2.564   4.694  1.1371 -1.2755  3.4754
 1679SOL    MW4 6490   2.829   2.484   4.662  1.2038 -0.4266  1.1537
 1680SOL     OW 6491   0.187   1.493   0.197 -0.8297  0.2451 -0.1387
 1680SOL    HW2 6492   0.139   1.418   0.231  0.6452 -1.2311 -1.1362
 1680SOL    HW3 6493   0.224   1.462   0.114  0.4592  1.8296 -0.2040
 1680SOL    MW4 6494   0.186   1.479   0.190 -0.4650  0.2594 -0.2789
 1681SOL     OW 6495   3.300   1.199   2.960 -0.3332  0.6609  0.0264
 1681SOL    HW2 6496   3.291   1.254   3.038  0.7837  0.3387  0.3935
 1681SOL    HW3 6497   3.317   1.112   2.993  3.3370  1.0292 -0.4887
 1681SOL    MW4 6498   3.301   1.195   2.974  0.2984  0.6670  0.0068
 1682SOL     OW 6499   5.683   6.402   4.588  0.3181 -1.0041  0.1525
 1682SOL    HW2 6500   5.645   6.320   4.619  0.4724 -1.2789 -0.3701
 1682SOL    HW3 6501   5.776   6.382   4.574  0.0590 -1.1996 -1.4748
 1682SOL    MW4 6502   5.690   6.389   4.590  0.3043 -1.0662 -0.1311
 1683SOL     OW 6503   0.981   0.446   2.571  0.1713  0.8448 -0.1194
 1683SOL    HW2 6504   0.998   0.454   2.665 -0.8387  0.0632  0.1479
 1683SOL    HW3 6505   1.003   0.356   2.550  2.3089  1.5272 -1.0843
 1683SOL    MW4 6506   0.986   0.436   2.580  0.3200  0.8317 -0.2114
 1684SOL     OW 6507   2.190   6.375   0.855  0.2677 -0.5618 -0.5954
 1684SOL    HW2 6508   2.096   6.388   0.859  0.4033  0.1480  1.0356
 1684SOL    HW3 6509   2.205   6.290   0.895  0.2982 -0.8894 -1.2846
 1684SOL    MW4 6510   2.180   6.366   0.861  0.2896 -0.5114 -0.4711
 1685SOL     OW 6511   5.875   6.269   3.019 -0.0074 -0.2231  0.6523
 1685SOL    HW2 6512   5.828   6.191   2.989  0.3462 -1.3944  2.9193
 1685SOL    HW3 6513   5.807   6.336   3.029 -0.4703 -0.5311 -0.3561
 1685SOL    MW4 6514   5.860   6.268   3.017 -0.0218 -0.4183  0.8183
 1686SOL     OW 6515   1.532   0.160   2.459  0.5105  0.4353 -0.4284
 1686SOL    HW2 6516   1.481   0.183   2.381  0.5564 -0.8519 -0.8641
 1686SOL    HW3 6517   1.510   0.069   2.477  1.8439  0.1670  0.0028
 1686SOL    MW4 6518   1.523   0.151   2.451  0.6925  0.2301 -0.4290
 1687SOL     OW 6519   3.040   0.248   2.460  0.4034  0.4581 -0.4266
 1687SOL    HW2 6520   2.991   0.237   2.379  0.5867  0.1601 -0.4988
 1687SOL    HW3 6521   2.977   0.228   2.530  0.4061  0.1327 -0.5167
 1687SOL    MW4 6522   3.025   0.244   2.459  0.4280  0.3758 -0.4480
 1688SOL     OW 6523   0.985   3.101   3.725  0.6570  0.0563 -0.2324
 1688SOL    HW2 6524   0.945   3.032   3.777  0.1114 -0.0747 -0.8139
 1688SOL    HW3 6525   0.972   3.073   3.634 -0.9682  1.6630 -0.5450
 1688SOL    MW4 6526   0.978   3.088   3.720  0.3706  0.2510 -0.3504
 1689SOL     OW 6527   4.043   0.814   2.842  0.0729  0.5476  0.0892
 1689SOL    HW2 6528   3.998   0.873   2.783 -1.1444 -0.1916  0.2464
 1689SOL    HW3 6529   4.001   0.729   2.828  1.7475 -0.3046 -0.1143
 1689SOL    MW4 6530   4.032   0.810   2.832  0.1332  0.3376  0.0831
 1690SOL     OW 6531   2.794   2.674   3.029 -0.2046 -0.0075  0.0954
 1690SOL    HW2 6532   2.871   2.728   3.014 -1.4823  2.0450  0.5809
 1690SOL    HW3 6533   2.800   2.606   2.962  1.8903  0.2007 -0.0106
 1690SOL    MW4 6534   2.805   2.672   3.018 -0.0968  0.2907  0.1455
 1691SOL     OW 6535   4.977   3.997   4.028  0.5812  0.3560  0.4439
 1691SOL    HW2 6536   4.912   3.927   4.026 -2.1699  2.7119  0.0607
 1691SOL    HW3 6537   4.981   4.029   3.938  1.7244  0.7379  0.6162
 1691SOL    MW4 6538   4.969   3.992   4.016  0.3691  0.7172  0.4161
 1692SOL     OW 6539   4.647   1.851   4.360 -0.1574 -0.3894  0.2518
 1692SOL    HW2 6540   4.721   1.791   4.352 -0.1175 -0.2599 -0.4004
 1692SOL    HW3 6541   4.575   1.797   4.390 -0.2896 -0.9007 -0.9463
 1692SOL    MW4 6542   4.647   1.836   4.363 -0.1696 -0.4398  0.0077
 1693SOL     OW 6543   3.580   2.541   5.139  0.0701 -0.0006 -0.8442
 1693SOL    HW2 6544   3.497   2.537   5.090 -0.9204  2.2217  0.5251
 1693SOL    HW3 6545   3.558   2.505   5.225 -0.0960  2.4010  0.1986
 1693SOL    MW4 6546   3.566   2.536   5.144 -0.0825  0.6095 -0.5259
 1694SOL     OW 6547   1.065   5.183   3.180 -0.5587 -0.7760  0.3116
 1694SOL    HW2 6548   1.004   5.246   3.219 -1.0935 -0.6541 -0.6673
 1694SOL    HW3 6549   1.124   5.159   3.251 -2.4184 -1.7685  1.6247
 1694SOL    MW4 6550   1.065   5.188   3.194 -0.8746 -0.8908  0.3557
 1695SOL     OW 6551   3.526   1.278   3.354  0.3074  0.3138  0.3640
 1695SOL    HW2 6552   3.452   1.271   3.294 -0.3375 -1.4142  1.2630
 1695SOL    HW3 6553   3.497   1.340   3.421 -0.5630 -0.6806  0.9505
 1695SOL    MW4 6554   3.512   1.285   3.355  0.1075 -0.0454  0.5600
 1696SOL     OW 6555   0.889   0.671   3.608  0.0072 -0.3191  0.6585
 1696SOL    HW2 6556   0.950   0.600   3.589  0.9149  0.6085 -0.0376
 1696SOL    HW3 6557   0.802   0.632   3.600  0.4874 -1.3165  0.1804
 1696SOL    MW4 6558   0.886   0.656   3.605  0.1903 -0.3283  0.5036
 1697SOL     OW 6559   0.659   4.985   2.148  0.1129  0.2028 -0.3225
 1697SOL    HW2 6560   0.616   4.953   2.068 -2.6904  0.0624  1.1004
 1697SOL    HW3 6561   0.644   5.079   2.148  0.5869  0.2818 -0.2129
 1697SOL    MW4 6562   0.651   4.993   2.138 -0.1944  0.1947 -0.1203
 1698SOL     OW 6563   0.698   3.106   1.305  0.1790 -0.7312  0.6823
 1698SOL    HW2 6564   0.786   3.134   1.281 -0.4012 -1.0003 -2.0640
 1698SOL    HW3 6565   0.704   3.012   1.317  0.3427 -0.6836  0.9922
 1698SOL    MW4 6566   0.710   3.098   1.303  0.1241 -0.7605  0.3609
 1699SOL     OW 6567   4.262   2.280   3.382  0.3242  0.3019 -0.0982
 1699SOL    HW2 6568   4.270   2.351   3.446  0.1167  1.3344 -1.1590
 1699SOL    HW3 6569   4.282   2.323   3.298  2.5786 -1.4193 -0.5427
 1699SOL    MW4 6570   4.266   2.295   3.379  0.5943  0.2110 -0.2968
 1700SOL     OW 6571   1.966  -0.004   1.693  0.3076  0.2207 -0.0561
 1700SOL    HW2 6572   1.892   0.048   1.660 -1.1635 -1.3421  0.6429
 1700SOL    HW3 6573   1.946  -0.018   1.785  0.1101 -2.3772 -0.4215
 1700SOL    MW4 6574   1.954   0.001   1.701  0.0875 -0.3282 -0.0121
 1701SOL     OW 6575   5.878   1.796   6.088 -0.5161 -0.2549 -0.1442
 1701SOL    HW2 6576   5.903   1.797   5.995 -0.1735 -0.1834 -0.0525
 1701SOL    HW3 6577   5.787   1.825   6.088 -0.3193  0.3889 -0.4028
 1701SOL    MW4 6578   5.869   1.800   6.075 -0.4449 -0.1605 -0.1662
 1702SOL     OW 6579   4.110   5.264   0.624  0.1545 -0.0222  0.4877
 1702SOL    HW2 6580   4.041   5.323   0.592 -0.6454 -1.0983  0.1307
 1702SOL    HW3 6581   4.185   5.282   0.567 -0.1129  0.5496  0.3050
 1702SOL    MW4 6582   4.111   5.274   0.612  0.0137 -0.0887  0.4165
 1703SOL     OW 6583   1.156   2.939   1.669  0.1550  0.0807 -0.0779
 1703SOL    HW2 6584   1.114   2.961   1.586 -1.6618 -0.3403  0.6852
 1703SOL    HW3 6585   1.244   2.909   1.644 -0.2576  0.2010 -1.8151
 1703SOL    MW4 6586   1.162   2.938   1.655 -0.1391  0.0410 -0.2064
 1704SOL     OW 6587   3.190   4.867   2.266 -0.6955 -0.2026 -0.6826
 1704SOL    HW2 6588   3.277   4.882   2.304 -0.3312 -0.2530 -1.4740
 1704SOL    HW3 6589   3.133   4.855   2.341  0.1313 -0.9928 -0.1595
 1704SOL    MW4 6590   3.194   4.868   2.281 -0.5384 -0.3135 -0.7180
 1705SOL     OW 6591   5.162   3.654   2.118 -0.7913 -0.3949 -0.4289
 1705SOL    HW2 6592   5.121   3.738   2.137 -1.3453 -1.0637  1.5993
 1705SOL    HW3 6593   5.252   3.676   2.092 -0.3725  0.7735  1.7863
 1705SOL    MW4 6594   5.169   3.668   2.117 -0.8092 -0.3290  0.1310
 1706SOL     OW 6595   4.324   2.824   1.363 -0.2195 -0.5476  0.1512
 1706SOL    HW2 6596   4.385   2.895   1.344 -1.2395 -0.0108 -1.3131
 1706SOL    HW3 6597   4.335   2.763   1.290 -1.0687 -0.6617  0.1032
 1706SOL    MW4 6598   4.334   2.826   1.351 -0.4661 -0.4918 -0.0483
 1707SOL     OW 6599   6.172   0.907   0.934 -0.0544  0.3098  0.6083
 1707SOL    HW2 6600   6.132   0.981   0.980  0.1278  1.8310 -1.5278
 1707SOL    HW3 6601   6.099   0.848   0.916 -0.8244  1.5104 -0.3900
 1707SOL    MW4 6602   6.157   0.909   0.937 -0.1320  0.6689  0.1948
 1708SOL     OW 6603   1.509   2.858   2.333 -0.3499  0.3999 -0.4114
 1708SOL    HW2 6604   1.430   2.847   2.386  0.2243 -1.6224  0.0885
 1708SOL    HW3 6605   1.564   2.918   2.384 -0.3423 -0.5102  0.6845
 1708SOL    MW4 6606   1.506   2.865   2.347 -0.2732  0.0130 -0.2009
 1709SOL     OW 6607   4.724   1.778   2.279 -0.4412  0.0753  0.0255
 1709SOL    HW2 6608   4.675   1.859   2.261 -0.5339  0.0862  0.3150
 1709SOL    HW3 6609   4.726   1.732   2.195  0.4332  0.8125 -0.3767
 1709SOL    MW4 6610   4.718   1.783   2.266 -0.3381  0.1740  0.0107
 1710SOL     OW 6611   2.566   4.505   6.242 -0.2913  0.8882  0.0765
 1710SOL    HW2 6612   2.501   4.434   6.247 -1.8947  2.3544  1.8191
 1710SOL    HW3 6613   2.601   4.511   6.331  2.2015  0.2520 -0.7901
 1710SOL    MW4 6614   2.562   4.496   6.255 -0.1740  0.9977  0.1921
 1711SOL     OW 6615   2.460   3.452   2.640 -0.2313  0.8105  0.9110
 1711SOL    HW2 6616   2.454   3.381   2.703  0.6688  0.3751  0.5230
 1711SOL    HW3 6617   2.551   3.452   2.613 -1.0089 -0.5991 -2.1768
 1711SOL    MW4 6618   2.471   3.443   2.645 -0.2151  0.5671  0.4524
 1712SOL     OW 6619   1.919   1.402   2.120  0.1525  0.5227  0.4547
 1712SOL    HW2 6620   1.997   1.403   2.176 -0.7095 -0.8190  1.7562
 1712SOL    HW3 6621   1.925   1.483   2.069  2.0164  0.8017  1.0227
 1712SOL    MW4 6622   1.930   1.413   2.120  0.2847  0.3825  0.7013
 1713SOL     OW 6623   4.254   2.464   3.153  0.1624  0.3191  0.1653
 1713SOL    HW2 6624   4.251   2.533   3.219  1.1674  1.0186 -0.4928
 1713SOL    HW3 6625   4.346   2.460   3.127 -0.2654  0.2733 -1.4124
 1713SOL    MW4 6626   4.266   2.472   3.158  0.2385  0.4053 -0.1297
 1714SOL     OW 6627   0.238   2.584   1.839 -0.3744  0.3969 -0.2492
 1714SOL    HW2 6628   0.172   2.619   1.898  1.1717 -0.6900  2.2720
 1714SOL    HW3 6629   0.210   2.494   1.821  0.2704 -0.0035  0.6718
 1714SOL    MW4 6630   0.226   2.577   1.844 -0.0854  0.2006  0.2049
 1715SOL     OW 6631   5.964   2.311   4.520 -0.2894  0.8063 -0.9669
 1715SOL    HW2 6632   6.003   2.300   4.433  0.7652 -0.4189 -0.3748
 1715SOL    HW3 6633   5.960   2.223   4.556  1.2428  1.4619  1.0171
 1715SOL    MW4 6634   5.969   2.298   4.513  0.0519  0.7311 -0.6270
 1716SOL     OW 6635   1.660   1.225   0.253  0.4262 -0.1934 -0.0189
 1716SOL    HW2 6636   1.691   1.139   0.282 -0.6141 -0.4564  0.3280
 1716SOL    HW3 6637   1.660   1.219   0.158  3.8353  0.6636 -0.1964
 1716SOL    MW4 6638   1.664   1.213   0.244  0.7388 -0.1150  0.0035
 1717SOL     OW 6639   3.419   4.787   3.126 -0.3314  0.7658  0.0237
 1717SOL    HW2 6640   3.493   4.739   3.088  0.4346  1.5759  0.4592
 1717SOL    HW3 6641   3.436   4.785   3.220 -1.8848 -0.6970  0.3186
 1717SOL    MW4 6642   3.431   4.780   3.133 -0.4353  0.6797  0.1201
 1718SOL     OW 6643   5.992   2.913   5.978  0.0975  0.3124  0.2018
 1718SOL    HW2 6644   6.029   2.908   6.066 -0.2313 -1.4081  0.2748
 1718SOL    HW3 6645   5.939   2.993   5.978 -1.4170 -0.6313  2.1779
 1718SOL    MW4 6646   5.990   2.923   5.989 -0.1457 -0.0391  0.4722
 1719SOL     OW 6647   4.354   0.595   0.647  0.8509 -0.5168 -0.1044
 1719SOL    HW2 6648   4.363   0.661   0.715  0.6235 -0.0597 -0.5176
 1719SOL    HW3 6649   4.373   0.641   0.566 -1.2056 -0.4589 -0.6086
 1719SOL    MW4 6650   4.358   0.610   0.645  0.5495 -0.4489 -0.2254
 1720SOL     OW 6651   4.911   2.063   5.631 -0.2572  0.2337  0.1015
 1720SOL    HW2 6652   4.880   2.063   5.721  0.8043  1.4631  0.4961
 1720SOL    HW3 6653   4.987   2.005   5.632 -1.4081 -1.3574 -0.4751
 1720SOL    MW4 6654   4.917   2.055   5.643 -0.2690  0.1860  0.0775
 1721SOL     OW 6655   5.184   2.260   1.136  0.3918 -0.6154 -0.0471
 1721SOL    HW2 6656   5.126   2.197   1.095 -0.6451  0.1066  0.2702
 1721SOL    HW3 6657   5.168   2.342   1.089  0.5235 -0.2086  0.6011
 1721SOL    MW4 6658   5.174   2.263   1.125  0.2724 -0.4665  0.0803
 1722SOL     OW 6659   4.475   4.494   0.503 -0.8291  0.5423 -0.4876
 1722SOL    HW2 6660   4.395   4.445   0.486 -0.9869 -0.0452  1.6305
 1722SOL    HW3 6661   4.544   4.443   0.462 -1.2784 -0.1050 -0.4528
 1722SOL    MW4 6662   4.473   4.481   0.495 -0.9092  0.3794 -0.2036
 1723SOL     OW 6663   3.335   0.249   1.054  0.5280 -0.6249 -0.1065
 1723SOL    HW2 6664   3.424   0.270   1.080  0.9749 -1.7221 -0.6712
 1723SOL    HW3 6665   3.336   0.253   0.958 -0.3074  0.3551 -0.0982
 1723SOL    MW4 6666   3.347   0.252   1.044  0.4767 -0.6404 -0.1799
 1724SOL     OW 6667   2.155   1.927   0.009  0.0211  0.3280 -0.0384
 1724SOL    HW2 6668   2.112   1.881   0.081 -0.5606  0.1860 -0.4760
 1724SOL    HW3 6669   2.201   1.858  -0.040 -0.5877  0.2492 -0.5080
 1724SOL    MW4 6670   2.155   1.911   0.012 -0.1360  0.2989 -0.1581
 1725SOL     OW 6671   0.752   5.209   6.297 -0.1425  0.8127  0.1664
 1725SOL    HW2 6672   0.809   5.266   6.247 -0.2034  1.2342  0.5722
 1725SOL    HW3 6673   0.670   5.258   6.306 -1.3607 -0.5944 -2.1777
 1725SOL    MW4 6674   0.749   5.223   6.292 -0.3112  0.6826 -0.0893
 1726SOL     OW 6675   4.656   5.374   3.093 -0.1551 -0.6841  0.3469
 1726SOL    HW2 6676   4.569   5.412   3.083 -0.8242 -2.0881  0.5849
 1726SOL    HW3 6677   4.670   5.370   3.187  0.7140  0.6436  0.3132
 1726SOL    MW4 6678   4.646   5.379   3.104 -0.1287 -0.6942  0.3739
 1727SOL     OW 6679   4.517   1.519   5.850 -0.2390  0.6502 -0.0301
 1727SOL    HW2 6680   4.514   1.605   5.892 -4.0712  1.3759 -1.4387
 1727SOL    HW3 6681   4.475   1.460   5.912  0.2682  0.2501 -0.0556
 1727SOL    MW4 6682   4.511   1.522   5.863 -0.6777  0.6932 -0.2193
 1728SOL     OW 6683   5.163   3.292   3.556 -0.4106  0.1731 -0.4842
 1728SOL    HW2 6684   5.182   3.200   3.538 -0.3786 -0.4122  2.1446
 1728SOL    HW3 6685   5.232   3.320   3.617 -1.0777  1.5865 -0.3295
 1728SOL    MW4 6686   5.175   3.284   3.562 -0.4944  0.2824 -0.1169
 1729SOL     OW 6687   4.517   3.459   2.647 -0.0926  0.6432 -0.0530
 1729SOL    HW2 6688   4.587   3.412   2.602 -0.5806  0.7015 -0.8874
 1729SOL    HW3 6689   4.503   3.538   2.594 -1.2729  0.2812 -0.2956
 1729SOL    MW4 6690   4.524   3.464   2.634 -0.3128  0.6031 -0.1951
 1730SOL     OW 6691   2.732   1.235   6.187 -0.1602  0.1803 -0.3520
 1730SOL    HW2 6692   2.807   1.269   6.139  0.5346  0.3990  0.8590
 1730SOL    HW3 6693   2.657   1.286   6.155  0.5111  1.2944 -0.1955
 1730SOL    MW4 6694   2.732   1.246   6.177  0.0201  0.3561 -0.1716
 1731SOL     OW 6695   2.598   2.475   0.799 -0.2419  0.1043  0.8270
 1731SOL    HW2 6696   2.590   2.388   0.761  0.6784  0.1243  0.5620
 1731SOL    HW3 6697   2.521   2.522   0.767  1.1082  0.5131 -2.1195
 1731SOL    MW4 6698   2.586   2.470   0.790  0.0577  0.1609  0.4033
 1732SOL     OW 6699   0.902   1.046   1.161  0.0359 -0.4626  0.6287
 1732SOL    HW2 6700   0.877   1.125   1.210  0.3553 -0.9585  1.6291
 1732SOL    HW3 6701   0.822   1.020   1.115  0.0409  0.6744 -0.0618
 1732SOL    MW4 6702   0.888   1.053   1.162  0.0787 -0.3780  0.6696
 1733SOL     OW 6703   4.434   1.363   0.316  0.1828 -0.0115 -0.3076
 1733SOL    HW2 6704   4.480   1.338   0.396 -0.4294  1.9097  0.6856
 1733SOL    HW3 6705   4.502   1.366   0.249  0.6848 -1.7170  0.0736
 1733SOL    MW4 6706   4.449   1.360   0.318  0.1682  0.0169 -0.1263
 1734SOL     OW 6707   1.646   3.742   4.756  0.4509 -0.1357  0.3663
 1734SOL    HW2 6708   1.644   3.725   4.662  0.3465 -0.1152  0.3645
 1734SOL    HW3 6709   1.705   3.818   4.765  0.1970  0.0723  0.2848
 1734SOL    MW4 6710   1.654   3.750   4.745  0.4036 -0.1055  0.3553
 1735SOL     OW 6711   2.802   1.234   1.841 -0.3815  0.3007  0.6914
 1735SOL    HW2 6712   2.747   1.306   1.870 -0.2362 -0.0933  1.9989
 1735SOL    HW3 6713   2.765   1.157   1.883  0.2405 -0.2025  0.3453
 1735SOL    MW4 6714   2.790   1.233   1.850 -0.2803  0.1823  0.8182
 1736SOL     OW 6715   6.375   2.309   3.468  0.0918 -0.3945 -0.1390
 1736SOL    HW2 6716   6.411   2.294   3.555 -1.8654  2.0240  1.2478
 1736SOL    HW3 6717   6.311   2.239   3.456  1.0551 -1.3047 -0.0951
 1736SOL    MW4 6718   6.371   2.298   3.478 -0.0393 -0.1955  0.0497
 1737SOL     OW 6719   5.572   0.998   4.725 -0.3308  0.3701 -0.1011
 1737SOL    HW2 6720   5.581   0.976   4.818  1.0815  1.0351 -0.0539
 1737SOL    HW3 6721   5.527   1.082   4.724 -0.0393  0.5298  0.0097
 1737SOL    MW4 6722   5.567   1.006   4.737 -0.1060  0.4789 -0.0802
 1738SOL     OW 6723   0.443   1.285   0.792 -0.6644 -0.2556  0.1096
 1738SOL    HW2 6724   0.349   1.271   0.810 -0.3422 -0.6581  1.7174
 1738SOL    HW3 6725   0.466   1.213   0.733 -1.0746 -1.0634  0.8847
 1738SOL    MW4 6726   0.433   1.273   0.787 -0.6760 -0.4153  0.4240
 1739SOL     OW 6727   0.886   5.954   4.770 -0.2861  0.2492  0.1236
 1739SOL    HW2 6728   0.807   5.957   4.823 -0.8513  0.0302 -0.6799
 1739SOL    HW3 6729   0.950   6.007   4.818 -1.5295  2.1294 -0.1875
 1739SOL    MW4 6730   0.884   5.961   4.783 -0.5247  0.4684 -0.0234
 1740SOL     OW 6731   0.037   4.572   3.540 -0.0758  0.0974  0.3042
 1740SOL    HW2 6732   0.073   4.632   3.475 -0.0464  0.3724  0.5723
 1740SOL    HW3 6733   0.057   4.485   3.506  2.1701  0.2168  1.1450
 1740SOL    MW4 6734   0.044   4.569   3.527  0.2244  0.1494  0.4505
 1741SOL     OW 6735   2.322   3.289   5.063 -0.1800  0.3104 -0.5876
 1741SOL    HW2 6736   2.341   3.312   5.154  1.4562  0.8889 -1.0429
 1741SOL    HW3 6737   2.229   3.310   5.052 -0.0949  1.4072  0.5960
 1741SOL    MW4 6738   2.312   3.295   5.074  0.0471  0.5315 -0.4915
 1742SOL     OW 6739   4.559   5.807   0.495 -0.1469 -0.1726  0.7158
 1742SOL    HW2 6740   4.479   5.859   0.503  1.1011  2.2973 -1.4280
 1742SOL    HW3 6741   4.562   5.782   0.402  1.7107  0.0708  0.6732
 1742SOL    MW4 6742   4.549   5.810   0.484  0.2628  0.1854  0.4273
 1743SOL     OW 6743   2.107   0.679   6.187 -0.4914 -0.4045 -0.2260
 1743SOL    HW2 6744   2.065   0.631   6.258 -2.4654  1.1007 -0.2848
 1743SOL    HW3 6745   2.185   0.628   6.166 -0.4843 -1.5438  2.1929
 1743SOL    MW4 6746   2.112   0.666   6.194 -0.7509 -0.3563  0.0854
 1744SOL     OW 6747   4.639   1.063   1.744  0.1384  0.5284 -0.3539
 1744SOL    HW2 6748   4.706   1.107   1.796  1.3765 -0.5737 -0.9460
 1744SOL    HW3 6749   4.641   1.106   1.659  1.0471 -0.3269 -0.7926
 1744SOL    MW4 6750   4.648   1.074   1.740  0.4217  0.2701 -0.4899
 1745SOL     OW 6751   6.149   2.150   3.367  0.0357  0.1453 -0.2614
 1745SOL    HW2 6752   6.067   2.104   3.350  0.8329 -1.0923 -0.9193
 1745SOL    HW3 6753   6.178   2.179   3.280  1.1904 -1.0378 -0.2991
 1745SOL    MW4 6754   6.142   2.148   3.353  0.2932 -0.1741 -0.3532
 1746SOL     OW 6755   3.227   4.003   1.949  0.2044  0.4663  0.2496
 1746SOL    HW2 6756   3.299   3.953   1.911  0.3815  0.5446  0.4792
 1746SOL    HW3 6757   3.165   3.936   1.979 -0.1728  0.4130 -0.6195
 1746SOL    MW4 6758   3.228   3.988   1.948  0.1780  0.4696  0.1652
 1747SOL     OW 6759   2.962   6.255   2.393  1.3368 -0.4270 -0.3403
 1747SOL    HW2 6760   2.909   6.320   2.439  2.1399  0.6230 -0.8572
 1747SOL    HW3 6761   3.039   6.245   2.448  2.5423  1.2086 -1.6117
 1747SOL    MW4 6762   2.965   6.263   2.406  1.6018 -0.0727 -0.5763
 1748SOL     OW 6763   5.491   1.160   1.660  0.5490  0.5467 -0.0890
 1748SOL    HW2 6764   5.482   1.238   1.605 -0.1055 -0.5441 -1.6042
 1748SOL    HW3 6765   5.566   1.114   1.624  0.9151  0.4501  0.7860
 1748SOL    MW4 6766   5.499   1.165   1.648  0.5109  0.3900 -0.1735
 1749SOL     OW 6767   3.705   0.640   3.977 -0.1246  0.0377 -0.5634
 1749SOL    HW2 6768   3.692   0.733   3.958 -0.7058 -0.2259 -1.5435
 1749SOL    HW3 6769   3.764   0.610   3.909  1.0790 -0.0562  0.4892
 1749SOL    MW4 6770   3.711   0.648   3.966 -0.0425 -0.0095 -0.5538
 1750SOL     OW 6771   5.198   1.884   6.137  0.6122 -0.1115  0.4544
 1750SOL    HW2 6772   5.217   1.976   6.156  0.8789  0.1145 -0.7951
 1750SOL    HW3 6773   5.281   1.847   6.108  0.6542 -0.9310  1.5709
 1750SOL    MW4 6774   5.211   1.891   6.136  0.6529 -0.1898  0.4368
 1751SOL     OW 6775   1.826   4.551   5.137  0.5719 -0.1531 -0.1202
 1751SOL    HW2 6776   1.771   4.497   5.193 -0.0644 -0.4152 -0.9672
 1751SOL    HW3 6777   1.763   4.598   5.081  1.1958 -0.4352 -1.0816
 1751SOL    MW4 6778   1.810   4.550   5.137  0.5703 -0.2249 -0.3588
 1752SOL     OW 6779   6.143   0.160   6.170  0.0814  0.2791  0.3525
 1752SOL    HW2 6780   6.104   0.163   6.083  1.8726 -0.4150 -0.5267
 1752SOL    HW3 6781   6.173   0.250   6.186  1.4255  0.0383 -0.6036
 1752SOL    MW4 6782   6.142   0.172   6.161  0.4950  0.1557  0.1104
 1753SOL     OW 6783   1.139   5.489   4.635 -0.3277 -0.1609 -0.6937
 1753SOL    HW2 6784   1.227   5.497   4.598  0.6934 -3.4459  0.6536
 1753SOL    HW3 6785   1.085   5.462   4.561 -0.5034  2.6784 -1.7185
 1753SOL    MW4 6786   1.144   5.486   4.620 -0.2162 -0.2197 -0.6512
 1754SOL     OW 6787   2.566   2.289   0.260  0.9510  0.2525 -0.0679
 1754SOL    HW2 6788   2.647   2.261   0.218  0.6015 -3.2349  1.2249
 1754SOL    HW3 6789   2.532   2.210   0.301 -3.1734  1.5013 -0.5796
 1754SOL    MW4 6790   2.572   2.275   0.260  0.3607 -0.0429  0.0351
 1755SOL     OW 6791   0.853   4.980   4.485  0.5194 -0.2980  0.2322
 1755SOL    HW2 6792   0.855   4.940   4.572 -1.0491  0.0449  0.4583
 1755SOL    HW3 6793   0.868   4.908   4.425 -1.9428 -1.2712  0.6494
 1755SOL    MW4 6794   0.855   4.966   4.489 -0.0124 -0.3812  0.3171
 1756SOL     OW 6795   2.607   4.625   4.212 -0.3163 -0.3784 -0.0926
 1756SOL    HW2 6796   2.692   4.669   4.202 -1.3885  2.1227  1.1239
 1756SOL    HW3 6797   2.584   4.599   4.123  1.3964 -0.5344 -0.5366
 1756SOL    MW4 6798   2.615   4.627   4.199 -0.2318 -0.0690  0.0093
 1757SOL     OW 6799   0.561   1.657   1.818 -0.6352  0.0627  0.0372
 1757SOL    HW2 6800   0.473   1.632   1.848  0.0732 -0.8393  1.5127
 1757SOL    HW3 6801   0.560   1.753   1.819 -0.9840  0.0877  2.1411
 1757SOL    MW4 6802   0.549   1.667   1.822 -0.5877 -0.0530  0.5094
 1758SOL     OW 6803   4.864   4.340   4.586  0.3115 -0.2234  0.0780
 1758SOL    HW2 6804   4.862   4.265   4.527  1.5705 -0.2004 -0.0217
 1758SOL    HW3 6805   4.796   4.398   4.553  0.9765 -0.2171 -1.3500
 1758SOL    MW4 6806   4.854   4.338   4.574  0.5654 -0.2195 -0.1236
 1759SOL     OW 6807   2.522   3.054   5.111 -0.3249  0.0756  0.0737
 1759SOL    HW2 6808   2.463   3.126   5.089 -1.1378 -0.1995  1.2600
 1759SOL    HW3 6809   2.566   3.033   5.028 -0.6851  1.3692 -0.4697
 1759SOL    MW4 6810   2.520   3.061   5.097 -0.4797  0.2100  0.1585
 1760SOL     OW 6811   4.546   2.018   4.889 -0.2130 -0.4076 -0.3479
 1760SOL    HW2 6812   4.476   1.954   4.905  0.0716 -0.5092  0.5615
 1760SOL    HW3 6813   4.549   2.070   4.970 -1.0977  1.4091 -1.4170
 1760SOL    MW4 6814   4.537   2.017   4.902 -0.2922 -0.1813 -0.3689
 1761SOL     OW 6815   4.619   2.573   0.502  0.2461  0.3027 -0.3389
 1761SOL    HW2 6816   4.606   2.663   0.473 -2.4501  0.1137  0.0393
 1761SOL    HW3 6817   4.606   2.577   0.597  1.3412 -0.3058 -0.1526
 1761SOL    MW4 6818   4.615   2.586   0.511  0.0349  0.1975 -0.2644
 1762SOL     OW 6819   4.372   6.222   2.916  0.1398 -0.5243  0.2072
 1762SOL    HW2 6820   4.329   6.156   2.971  0.5678 -0.4571  0.6259
 1762SOL    HW3 6821   4.334   6.305   2.946 -0.6029 -0.5932 -0.5073
 1762SOL    MW4 6822   4.361   6.224   2.927  0.0983 -0.5245  0.1682
 1763SOL     OW 6823   2.132   0.092   5.827  0.4624 -0.0798 -0.0393
 1763SOL    HW2 6824   2.132   0.002   5.860 -0.0266 -0.2834 -0.5714
 1763SOL    HW3 6825   2.043   0.123   5.842  0.5652  0.2352 -0.0745
 1763SOL    MW4 6826   2.120   0.084   5.833  0.4114 -0.0651 -0.1141
 1764SOL     OW 6827   3.558   0.363   0.696  0.4325  0.0408 -0.7795
 1764SOL    HW2 6828   3.638   0.407   0.724 -0.5109  0.0936  2.1525
 1764SOL    HW3 6829   3.516   0.425   0.637  0.1175  2.3496  1.6684
 1764SOL    MW4 6830   3.563   0.377   0.692  0.2665  0.3524 -0.0697
 1765SOL     OW 6831   4.529   2.278   1.897  0.3035 -0.1378 -0.4329
 1765SOL    HW2 6832   4.458   2.319   1.946 -0.5325  0.2214 -1.8919
 1765SOL    HW3 6833   4.551   2.340   1.828  1.8231 -0.3922 -0.2334
 1765SOL    MW4 6834   4.523   2.291   1.895  0.3937 -0.1239 -0.5991
 1766SOL     OW 6835   2.597   1.471   1.256 -0.6213 -0.5204 -0.1033
 1766SOL    HW2 6836   2.584   1.528   1.331 -1.6018  1.3251 -1.5862
 1766SOL    HW3 6837   2.510   1.437   1.236 -0.1640 -2.0371  0.3235
 1766SOL    MW4 6838   2.584   1.474   1.263 -0.6903 -0.4770 -0.2426
 1767SOL     OW 6839   1.444   3.804   2.199 -0.2917 -0.2828  0.1399
 1767SOL    HW2 6840   1.440   3.725   2.254 -0.5531 -1.4164 -1.4353
 1767SOL    HW3 6841   1.504   3.862   2.245 -0.5161 -1.1686  1.6251
 1767SOL    MW4 6842   1.451   3.801   2.212 -0.3558 -0.5492  0.1280
 1768SOL     OW 6843   1.339   5.814   3.557  0.7312  0.1458  0.2149
 1768SOL    HW2 6844   1.356   5.891   3.503  1.0569 -2.1547 -3.2803
 1768SOL    HW3 6845   1.246   5.822   3.582  0.9742  2.0121  0.6558
 1768SOL    MW4 6846   1.329   5.825   3.553  0.8062  0.0885 -0.1881
 1769SOL     OW 6847   6.016   0.618   2.389  0.4635 -0.2216  0.1571
 1769SOL    HW2 6848   6.006   0.710   2.412  0.0668  0.3088 -1.9485
 1769SOL    HW3 6849   6.109   0.600   2.405  0.1586 -0.0946  2.5239
 1769SOL    MW4 6850   6.027   0.628   2.394  0.3710 -0.1349  0.1916
 1770SOL     OW 6851   2.565   3.987   2.527  0.2011  0.6009  0.1491
 1770SOL    HW2 6852   2.543   4.044   2.454  1.2073 -0.1228 -0.7568
 1770SOL    HW3 6853   2.578   4.046   2.601  2.0043  1.6559 -0.9461
 1770SOL    MW4 6854   2.564   4.002   2.527  0.5718  0.6446 -0.1149
 1771SOL     OW 6855   2.281   2.716   5.746 -0.1078 -0.5449  0.3721
 1771SOL    HW2 6856   2.326   2.718   5.662 -0.6782 -0.6413  0.0651
 1771SOL    HW3 6857   2.212   2.782   5.738 -1.3307 -1.8153  0.1036
 1771SOL    MW4 6858   2.278   2.725   5.734 -0.3444 -0.7253  0.2962
 1772SOL     OW 6859   0.251   1.861   0.191 -0.3011  0.6348  0.4781
 1772SOL    HW2 6860   0.176   1.804   0.173  1.0238 -0.5005 -1.9483
 1772SOL    HW3 6861   0.232   1.942   0.145  0.1491  0.1350 -0.6380
 1772SOL    MW4 6862   0.239   1.864   0.183 -0.0669  0.4190  0.0107
 1773SOL     OW 6863   3.202   0.233   1.752 -0.1839  0.0301 -0.1228
 1773SOL    HW2 6864   3.108   0.214   1.742 -0.2095 -0.5787  1.0382
 1773SOL    HW3 6865   3.242   0.147   1.767  0.1089  0.5340  2.4241
 1773SOL    MW4 6866   3.195   0.219   1.753 -0.1486  0.0163  0.3664
 1774SOL     OW 6867   0.849   5.462   3.023 -0.8628 -0.0765 -0.0542
 1774SOL    HW2 6868   0.857   5.402   2.949  0.5575 -2.0075  1.5466
 1774SOL    HW3 6869   0.880   5.546   2.989 -0.4352 -0.8516 -1.7025
 1774SOL    MW4 6870   0.855   5.465   3.009 -0.6190 -0.4335 -0.0605
 1775SOL     OW 6871   0.040   4.869   0.067 -0.2359  0.2860 -0.0021
 1775SOL    HW2 6872   0.040   4.855  -0.027  2.6046  0.9134 -0.1725
 1775SOL    HW3 6873  -0.052   4.857   0.093 -0.9433 -0.7812 -2.6693
 1775SOL    MW4 6874   0.028   4.865   0.058  0.0456  0.2279 -0.3765
 1776SOL     OW 6875   2.515   4.241   3.082 -0.6889  0.0862 -0.1867
 1776SOL    HW2 6876   2.589   4.292   3.048 -0.0033 -0.8165 -0.0875
 1776SOL    HW3 6877   2.438   4.278   3.038  0.0286 -0.2008 -1.7804
 1776SOL    MW4 6878   2.514   4.253   3.072 -0.5038 -0.0708 -0.3839
 1777SOL     OW 6879   3.491   3.271   3.936  0.5261 -0.6387  0.4306
 1777SOL    HW2 6880   3.487   3.195   3.878 -0.9182 -0.6406  0.4862
 1777SOL    HW3 6881   3.466   3.345   3.881 -0.5093 -0.5889  0.9449
 1777SOL    MW4 6882   3.487   3.270   3.921  0.1989 -0.6324  0.5058
 1778SOL     OW 6883   1.504   4.956   2.607  0.0022 -0.4795  0.5071
 1778SOL    HW2 6884   1.551   5.039   2.607 -1.2114  0.2465  1.5972
 1778SOL    HW3 6885   1.517   4.921   2.695  0.6016 -1.5274  0.0239
 1778SOL    MW4 6886   1.512   4.963   2.619 -0.0788 -0.5220  0.5872
 1779SOL     OW 6887   5.125   6.246   2.078 -0.9600 -0.4167 -0.3320
 1779SOL    HW2 6888   5.069   6.300   2.022 -0.4768  2.6398  1.8821
 1779SOL    HW3 6889   5.214   6.266   2.049 -0.7939 -0.6107  0.0348
 1779SOL    MW4 6890   5.130   6.256   2.066 -0.8743 -0.0390  0.0085
 1780SOL     OW 6891   5.469   2.080   3.042 -0.1211 -0.2335 -0.1020
 1780SOL    HW2 6892   5.438   2.165   3.075  0.6376  0.2191 -0.5087
 1780SOL    HW3 6893   5.396   2.021   3.055 -0.4010  0.3052  0.9157
 1780SOL    MW4 6894   5.455   2.084   3.048 -0.0580 -0.1027 -0.0214
 1781SOL     OW 6895   5.260   2.128   1.390 -0.2712 -0.6508  0.2429
 1781SOL    HW2 6896   5.211   2.191   1.337 -3.1226 -0.7444  2.4965
 1781SOL    HW3 6897   5.212   2.046   1.379 -1.5198 -0.4824  3.4262
 1781SOL    MW4 6898   5.247   2.126   1.381 -0.8121 -0.6409  0.9602
 1782SOL     OW 6899   3.760   4.722   2.588 -0.1087  0.5233  0.0548
 1782SOL    HW2 6900   3.796   4.634   2.577 -1.6405 -0.0218 -0.9957
 1782SOL    HW3 6901   3.797   4.753   2.670  1.7226 -0.4581 -0.3471
 1782SOL    MW4 6902   3.770   4.714   2.597 -0.0692  0.3219 -0.1368
 1783SOL     OW 6903   2.856   5.234   2.719  1.0534  0.2129 -0.3292
 1783SOL    HW2 6904   2.794   5.245   2.647  0.5944 -0.5186 -0.0551
 1783SOL    HW3 6905   2.901   5.151   2.700  0.3309 -0.4267  0.6556
 1783SOL    MW4 6906   2.854   5.225   2.707  0.8975  0.0320 -0.1631
 1784SOL     OW 6907   3.912   5.876   1.038  0.1883 -0.1345 -0.1416
 1784SOL    HW2 6908   3.834   5.820   1.030 -0.0649  0.2691 -0.5672
 1784SOL    HW3 6909   3.877   5.959   1.070  0.6061 -0.3162  0.8110
 1784SOL    MW4 6910   3.897   5.879   1.041  0.2100 -0.1052 -0.0721
 1785SOL     OW 6911   2.319   3.903   2.582  0.2331 -0.1907 -0.0651
 1785SOL    HW2 6912   2.410   3.931   2.574 -0.2290  1.1109 -0.9288
 1785SOL    HW3 6913   2.275   3.975   2.627 -0.6056 -0.2810 -0.7098
 1785SOL    MW4 6914   2.325   3.916   2.587  0.0615 -0.0309 -0.2641
 1786SOL     OW 6915   6.114   4.568   2.489  0.0694  0.1703 -0.4752
 1786SOL    HW2 6916   6.056   4.643   2.501 -0.4743 -0.2599 -0.3668
 1786SOL    HW3 6917   6.196   4.594   2.531 -0.6457  0.0789  1.0827
 1786SOL    MW4 6918   6.117   4.581   2.496 -0.0967  0.1015 -0.2553
 1787SOL     OW 6919   4.385   4.989   0.968  0.1214  0.3139 -0.3805
 1787SOL    HW2 6920   4.475   4.989   0.935  0.1264  0.3579 -0.3682
 1787SOL    HW3 6921   4.356   5.080   0.958  1.1672  1.0722  2.6175
 1787SOL    MW4 6922   4.393   5.001   0.962  0.2601  0.4197  0.0167
 1788SOL     OW 6923   3.296   3.613   6.051 -0.2584 -0.3069 -0.1087
 1788SOL    HW2 6924   3.329   3.690   6.097  1.9339 -0.0357 -1.9216
 1788SOL    HW3 6925   3.208   3.637   6.024 -0.1665  0.9753  0.6784
 1788SOL    MW4 6926   3.289   3.626   6.053  0.0430 -0.1019 -0.2441
 1789SOL     OW 6927   4.936   5.710   5.518 -0.1335  0.1028  0.2680
 1789SOL    HW2 6928   4.966   5.700   5.609  2.4440  1.0933 -0.3880
 1789SOL    HW3 6929   5.001   5.768   5.478 -1.6340  0.3078 -2.0344
 1789SOL    MW4 6930   4.948   5.716   5.525  0.0086  0.2605 -0.1223
 1790SOL     OW 6931   3.662   4.192   0.686 -0.5135 -0.2098  0.2936
 1790SOL    HW2 6932   3.610   4.197   0.766 -0.4096 -2.3484  0.5761
 1790SOL    HW3 6933   3.694   4.281   0.672  1.2622 -0.1180  3.8560
 1790SOL    MW4 6934   3.659   4.204   0.694 -0.2655 -0.4798  0.8009
 1791SOL     OW 6935   0.750   1.586   2.023 -0.0852  0.1134 -0.0065
 1791SOL    HW2 6936   0.691   1.634   1.965 -1.6827 -0.9026  0.7089
 1791SOL    HW3 6937   0.712   1.499   2.030  1.6182 -0.6524  0.3602
 1791SOL    MW4 6938   0.738   1.581   2.016 -0.0713 -0.1217  0.1363
 1792SOL     OW 6939   1.885   5.141   2.390 -0.1251  0.3610  0.4057
 1792SOL    HW2 6940   1.909   5.049   2.400  1.4646  0.4540 -1.8653
 1792SOL    HW3 6941   1.822   5.142   2.318 -0.0906  1.0787  0.3769
 1792SOL    MW4 6942   1.880   5.129   2.382  0.0892  0.4680  0.1023
 1793SOL     OW 6943   3.585   2.624   4.228 -0.0703 -0.7299  0.2225
 1793SOL    HW2 6944   3.552   2.535   4.211 -1.7558 -0.3476  1.2348
 1793SOL    HW3 6945   3.673   2.624   4.192 -1.4552 -1.5146 -3.6117
 1793SOL    MW4 6946   3.592   2.612   4.221 -0.4754 -0.7830 -0.1498
 1794SOL     OW 6947   3.904   4.359   4.791 -0.0451 -0.3363  1.0137
 1794SOL    HW2 6948   3.911   4.276   4.744 -0.6774  0.7792 -1.1584
 1794SOL    HW3 6949   3.858   4.337   4.872  0.4063 -2.1959  0.8005
 1794SOL    MW4 6950   3.899   4.345   4.796 -0.0689 -0.4344  0.6990
 1795SOL     OW 6951   3.218   5.482   4.268 -0.1829  0.6039 -0.4314
 1795SOL    HW2 6952   3.262   5.436   4.339 -1.7264  2.0209  1.5830
 1795SOL    HW3 6953   3.262   5.567   4.264  0.0597  0.4474 -1.3918
 1795SOL    MW4 6954   3.230   5.488   4.277 -0.3545  0.7702 -0.2923
 1796SOL     OW 6955   1.320   2.389   5.001  0.0802 -0.2458  0.2855
 1796SOL    HW2 6956   1.338   2.483   5.009 -1.2035  0.2539 -1.6848
 1796SOL    HW3 6957   1.288   2.379   4.911 -2.0493 -2.1817  1.1531
 1796SOL    MW4 6958   1.318   2.400   4.990 -0.3701 -0.4353  0.1400
 1797SOL     OW 6959   5.517   5.137   2.244  0.0967  0.2159 -0.0217
 1797SOL    HW2 6960   5.477   5.052   2.223  0.4015  0.0761 -0.0424
 1797SOL    HW3 6961   5.610   5.126   2.223  0.5836 -0.1845  2.0792
 1797SOL    MW4 6962   5.524   5.124   2.239  0.2012  0.1447  0.2528
 1798SOL     OW 6963   1.671   0.123   0.837  0.8577 -0.5143 -0.3309
 1798SOL    HW2 6964   1.694   0.180   0.764 -1.0440  1.8310  0.7559
 1798SOL    HW3 6965   1.619   0.053   0.798 -0.2765  0.7951 -1.2496
 1798SOL    MW4 6966   1.667   0.121   0.823  0.4571 -0.0321 -0.3087
 1799SOL     OW 6967   3.769   6.247   3.754  0.2666  0.0223  0.2092
 1799SOL    HW2 6968   3.799   6.334   3.783 -1.3178  0.6568  0.0871
 1799SOL    HW3 6969   3.776   6.193   3.832  2.0878 -0.0004  0.0737
 1799SOL    MW4 6970   3.774   6.252   3.768  0.2978  0.1030  0.1752
 1800SOL     OW 6971   6.082   1.377   3.715  0.1659  0.5900 -0.3982
 1800SOL    HW2 6972   6.114   1.406   3.800 -2.4720  1.1417  0.5005
 1800SOL    HW3 6973   6.161   1.364   3.662  2.0266 -1.2731  2.5515
 1800SOL    MW4 6974   6.097   1.379   3.719  0.0633  0.4170  0.1095
 1801SOL     OW 6975   4.677   4.943   0.771  0.0796  0.4261 -0.2907
 1801SOL    HW2 6976   4.617   4.896   0.714  0.1979 -0.4492  0.2976
 1801SOL    HW3 6977   4.678   4.893   0.852 -0.5721  1.9836  0.7408
 1801SOL    MW4 6978   4.669   4.931   0.774  0.0093  0.5161 -0.0770
 1802SOL     OW 6979   1.665   5.054   1.502  0.3570  0.4462 -0.0534
 1802SOL    HW2 6980   1.720   4.993   1.453  0.0573 -0.2833  0.4966
 1802SOL    HW3 6981   1.586   5.063   1.449  0.2072 -0.0159  0.0857
 1802SOL    MW4 6982   1.662   5.048   1.489  0.2977  0.2890  0.0375
 1803SOL     OW 6983   0.988   5.616   3.288  0.2507 -0.2319  0.1608
 1803SOL    HW2 6984   0.951   5.703   3.272  0.2287 -0.1660  0.5566
 1803SOL    HW3 6985   0.915   5.555   3.273  0.2482 -0.1781 -0.0477
 1803SOL    MW4 6986   0.974   5.619   3.284  0.2475 -0.2161  0.1855
 1804SOL     OW 6987   5.929   0.985   1.419 -0.0109 -0.7156 -0.0713
 1804SOL    HW2 6988   5.967   1.062   1.376 -1.0593 -1.0436 -1.7038
 1804SOL    HW3 6989   5.990   0.963   1.488 -0.2585  2.3214  1.2939
 1804SOL    MW4 6990   5.942   0.992   1.422 -0.1819 -0.3582 -0.1065
 1805SOL     OW 6991   5.850   5.748   2.025 -0.3346 -0.4612 -0.2414
 1805SOL    HW2 6992   5.822   5.658   2.037 -0.3979 -0.3263  0.7000
 1805SOL    HW3 6993   5.777   5.801   2.057 -0.0524 -0.0785 -0.2105
 1805SOL    MW4 6994   5.837   5.743   2.031 -0.3057 -0.3929 -0.1131
 1806SOL     OW 6995   5.517   6.376   6.190 -0.1194 -0.2134  0.1487
 1806SOL    HW2 6996   5.539   6.370   6.097 -0.5795  1.3885 -0.0944
 1806SOL    HW3 6997   5.599   6.357   6.235  0.5129  0.6238 -0.6243
 1806SOL    MW4 6998   5.530   6.373   6.184 -0.0966  0.1084  0.0147
 1807SOL     OW 6999   3.684   1.403   1.791 -0.3728  0.1408  0.3087
 1807SOL    HW2 7000   3.716   1.487   1.761 -2.3306  0.1036 -2.2516
 1807SOL    HW3 7001   3.592   1.418   1.813 -0.3523 -1.0086  1.3248
 1807SOL    MW4 7002   3.676   1.416   1.790 -0.6284 -0.0158  0.1050
 1808SOL     OW 7003   2.237   1.731   5.595 -0.3182 -0.2986 -0.0976
 1808SOL    HW2 7004   2.210   1.773   5.676  2.4267  0.6279  0.4228
 1808SOL    HW3 7005   2.194   1.781   5.526 -0.0475  1.0125  0.6649
 1808SOL    MW4 7006   2.227   1.743   5.597  0.0797 -0.0034  0.0717
 1809SOL     OW 7007   2.346   1.782   2.362  0.0815  0.2230  0.2088
 1809SOL    HW2 7008   2.252   1.773   2.378  0.1337 -0.3844  0.2153
 1809SOL    HW3 7009   2.378   1.835   2.435  0.1405 -1.6336  1.6247
 1809SOL    MW4 7010   2.338   1.788   2.374  0.0962 -0.1021  0.3965
 1810SOL     OW 7011   6.307   4.351   2.382 -0.9305 -0.7040 -0.4233
 1810SOL    HW2 7012   6.261   4.387   2.458  0.3675  2.1942 -0.9055
 1810SOL    HW3 7013   6.255   4.379   2.307 -0.7819 -1.3155 -0.7672
 1810SOL    MW4 7014   6.294   4.359   2.382 -0.7396 -0.4023 -0.5323
 1811SOL     OW 7015   3.377   6.324   3.119 -0.1871  0.8543 -0.4996
 1811SOL    HW2 7016   3.423   6.338   3.202 -1.5459 -0.2691  0.4875
 1811SOL    HW3 7017   3.307   6.388   3.118  1.5836  2.9286 -2.2541
 1811SOL    MW4 7018   3.374   6.334   3.129 -0.1327  0.9797 -0.6009
 1812SOL     OW 7019   1.517   6.298   4.388  0.5837  0.1440  0.0556
 1812SOL    HW2 7020   1.527   6.242   4.465 -1.1756 -2.6406 -1.5543
 1812SOL    HW3 7021   1.601   6.291   4.342  1.1355  0.6555  0.9706
 1812SOL    MW4 7022   1.530   6.290   4.392  0.4244 -0.1559 -0.0361
 1813SOL     OW 7023   5.269   5.082   0.976 -0.5133 -0.2147  0.3329
 1813SOL    HW2 7024   5.210   5.152   1.003 -1.3091 -0.4047 -0.8476
 1813SOL    HW3 7025   5.303   5.110   0.891 -0.8655 -1.2626 -0.1712
 1813SOL    MW4 7026   5.266   5.095   0.968 -0.6648 -0.3781  0.1106
 1814SOL     OW 7027   5.008   2.745   1.743 -0.0132  0.3971  0.2964
 1814SOL    HW2 7028   5.076   2.766   1.808 -0.1892 -0.5693  0.8294
 1814SOL    HW3 7029   4.981   2.829   1.708  0.5991  0.8932  0.9705
 1814SOL    MW4 7030   5.014   2.759   1.747  0.0443  0.3351  0.4557
 1815SOL     OW 7031   1.376   2.435   0.827 -0.4266  0.2228  0.2657
 1815SOL    HW2 7032   1.422   2.449   0.910 -0.5772 -0.6211  0.5046
 1815SOL    HW3 7033   1.369   2.522   0.788  3.3099  0.1553 -0.8611
 1815SOL    MW4 7034   1.381   2.448   0.833  0.0465  0.1025  0.1486
 1816SOL     OW 7035   2.555   2.420   2.358  0.3546  0.1996 -0.3484
 1816SOL    HW2 7036   2.573   2.513   2.374 -0.5398  0.4299 -0.6270
 1816SOL    HW3 7037   2.480   2.420   2.298 -0.4600 -0.7159  0.6450
 1816SOL    MW4 7038   2.548   2.433   2.352  0.1292  0.1092 -0.2541
 1817SOL     OW 7039   6.252   3.091   1.709 -0.8065 -0.5155  0.1936
 1817SOL    HW2 7040   6.245   3.171   1.761 -1.3296 -0.7868  0.5514
 1817SOL    HW3 7041   6.322   3.109   1.646 -2.5080  1.1226 -1.3610
 1817SOL    MW4 7042   6.261   3.104   1.708 -1.1000 -0.3352  0.0357
 1818SOL     OW 7043   3.243   4.915   5.840  0.1888 -0.3914 -0.0864
 1818SOL    HW2 7044   3.329   4.914   5.881  0.8112 -0.2957 -1.3514
 1818SOL    HW3 7045   3.194   4.982   5.887  0.5584 -0.9208  1.0956
 1818SOL    MW4 7046   3.248   4.924   5.851  0.3197 -0.4486 -0.0973
 1819SOL     OW 7047   5.437   6.355   5.450  0.4662  0.1427  0.1074
 1819SOL    HW2 7048   5.411   6.290   5.514  0.5350  0.7170  0.7276
 1819SOL    HW3 7049   5.400   6.323   5.367 -1.5693  0.5292  0.8054
 1819SOL    MW4 7050   5.429   6.342   5.447  0.2067  0.2695  0.2813
 1820SOL     OW 7051   2.957   5.414   3.470 -0.2421 -0.0123  0.5486
 1820SOL    HW2 7052   2.862   5.406   3.463 -0.2288  0.1707  0.1594
 1820SOL    HW3 7053   2.985   5.331   3.507 -0.6503  0.3000  1.6066
 1820SOL    MW4 7054   2.948   5.402   3.474 -0.2942  0.0530  0.6368
 1821SOL     OW 7055   0.943   1.787   4.139  0.2128  0.1965  0.3986
 1821SOL    HW2 7056   0.914   1.829   4.220  1.9482 -0.6657  1.5277
 1821SOL    HW3 7057   0.972   1.700   4.166  2.5581  0.5270 -0.8168
 1821SOL    MW4 7058   0.943   1.781   4.153  0.7512  0.1264  0.3872
 1822SOL     OW 7059   5.629   1.315   5.265  0.0372  0.5850 -0.1212
 1822SOL    HW2 7060   5.711   1.316   5.314 -0.7614 -0.5679  1.3251
 1822SOL    HW3 7061   5.569   1.263   5.319 -1.1759  0.0296 -1.9057
 1822SOL    MW4 7062   5.632   1.308   5.279 -0.2282  0.3596 -0.1658
 1823SOL     OW 7063   2.069   5.129   2.651 -0.5142  0.2869  0.4757
 1823SOL    HW2 7064   1.979   5.095   2.653 -0.4517 -0.2494 -2.3261
 1823SOL    HW3 7065   2.123   5.051   2.634  0.0145  1.1686 -2.1860
 1823SOL    MW4 7066   2.064   5.114   2.649 -0.4362  0.3325 -0.2451
 1824SOL     OW 7067   6.031   2.591   1.307 -0.8441  0.0010 -0.9932
 1824SOL    HW2 7068   5.948   2.631   1.282 -1.4719 -0.1931  0.6606
 1824SOL    HW3 7069   6.010   2.535   1.381  0.4505 -1.5054 -1.6811
 1824SOL    MW4 7070   6.017   2.588   1.313 -0.7561 -0.2234 -0.8658
 1825SOL     OW 7071   5.869   0.175   4.423  0.1148 -0.0432  0.0257
 1825SOL    HW2 7072   5.888   0.235   4.495  1.5695 -2.3208  1.6814
 1825SOL    HW3 7073   5.954   0.133   4.405 -1.2650 -3.5052  0.8375
 1825SOL    MW4 7074   5.883   0.177   4.430  0.1247 -0.8004  0.3512
 1826SOL     OW 7075   0.901   1.605   4.523 -0.5438  0.3486 -0.1839
 1826SOL    HW2 7076   0.874   1.518   4.551 -0.5405 -0.1322 -1.5966
 1826SOL    HW3 7077   0.985   1.619   4.566 -1.2030  0.2630  1.1864
 1826SOL    MW4 7078   0.909   1.595   4.532 -0.6303  0.2739 -0.1895
 1827SOL     OW 7079   2.819   0.524   3.100 -0.0511 -0.6765  0.0969
 1827SOL    HW2 7080   2.849   0.462   3.167 -3.4923 -2.0891  0.5289
 1827SOL    HW3 7081   2.756   0.580   3.145 -0.4676  0.0910 -1.3770
 1827SOL    MW4 7082   2.815   0.523   3.115 -0.5600 -0.7616 -0.0405
 1828SOL     OW 7083   5.756   3.798   5.051 -0.7167  0.7406 -0.4931
 1828SOL    HW2 7084   5.690   3.863   5.076 -1.6839 -0.8686  1.3691
 1828SOL    HW3 7085   5.809   3.787   5.130  0.1455  0.0776 -1.1481
 1828SOL    MW4 7086   5.754   3.805   5.065 -0.7305  0.4408 -0.3338
 1829SOL     OW 7087   1.433   1.621   1.126 -0.4989 -0.4835  0.2725
 1829SOL    HW2 7088   1.420   1.706   1.169  0.3143 -1.1090  1.8349
 1829SOL    HW3 7089   1.404   1.557   1.191  0.9545 -1.4758 -0.0193
 1829SOL    MW4 7090   1.428   1.624   1.140 -0.1998 -0.6969  0.4401
 1830SOL     OW 7091   4.241   2.877   5.543  0.3538 -0.4790 -0.2613
 1830SOL    HW2 7092   4.153   2.842   5.531 -0.4024  1.4378 -0.5751
 1830SOL    HW3 7093   4.230   2.972   5.546  1.9922 -0.2357  2.8670
 1830SOL    MW4 7094   4.228   2.885   5.542  0.4702 -0.1940  0.1101
 1831SOL     OW 7095   5.516   3.022   5.926  0.2742  0.3886  0.5123
 1831SOL    HW2 7096   5.474   3.099   5.965  0.3283 -0.1777  1.7617
 1831SOL    HW3 7097   5.554   2.975   6.001  3.0617  0.7949 -0.5437
 1831SOL    MW4 7098   5.515   3.026   5.941  0.6491  0.3675  0.5378
 1832SOL     OW 7099   4.007   2.656   2.092 -0.1100  0.2222 -0.0628
 1832SOL    HW2 7100   3.919   2.687   2.114  0.3449  0.7770  1.0518
 1832SOL    HW3 7101   4.063   2.732   2.107  0.7640 -0.5679  0.7805
 1832SOL    MW4 7102   4.003   2.670   2.097  0.0654  0.1911  0.1955
 1833SOL     OW 7103   0.271   5.295   0.002 -0.6056  0.2114 -0.0951
 1833SOL    HW2 7104   0.295   5.206   0.026  1.5345  0.1794 -2.0698
 1833SOL    HW3 7105   0.234   5.288  -0.086 -1.1187  1.2118  0.0188
 1833SOL    MW4 7106   0.269   5.283  -0.006 -0.3910  0.3391 -0.3406
 1834SOL     OW 7107   1.017   1.814   5.226  0.0208  0.0531  0.0292
 1834SOL    HW2 7108   1.092   1.858   5.187 -0.2955  1.1237  0.5552
 1834SOL    HW3 7109   0.947   1.824   5.162 -0.0060  0.1820  0.0777
 1834SOL    MW4 7110   1.017   1.821   5.213 -0.0245  0.2113  0.1050
 1835SOL     OW 7111   3.421   5.454   0.106  0.0637 -0.0900 -0.1756
 1835SOL    HW2 7112   3.434   5.493   0.192  0.2370  1.7539 -0.9866
 1835SOL    HW3 7113   3.445   5.362   0.117  1.1198  0.3480  1.4765
 1835SOL    MW4 7114   3.425   5.447   0.119  0.2259  0.2111 -0.0647
 1836SOL     OW 7115   1.947   2.161   1.485 -0.0916 -0.0591 -0.0807
 1836SOL    HW2 7116   2.042   2.169   1.488 -0.2107  2.0154 -0.4040
 1836SOL    HW3 7117   1.931   2.092   1.421  1.1818 -1.3593  0.9208
 1836SOL    MW4 7118   1.957   2.153   1.477  0.0607  0.0431  0.0088
 1837SOL     OW 7119   5.236   1.509   0.442 -0.1435  0.0252 -0.1498
 1837SOL    HW2 7120   5.327   1.488   0.422  0.7898  1.4640  2.1811
 1837SOL    HW3 7121   5.204   1.555   0.364  1.3174  0.0421 -0.7659
 1837SOL    MW4 7122   5.244   1.512   0.429  0.1724  0.2172  0.0764
 1838SOL     OW 7123   5.274   0.718   5.821  0.2807 -0.4446  0.0739
 1838SOL    HW2 7124   5.295   0.636   5.866 -0.2317 -0.7903 -0.3039
 1838SOL    HW3 7125   5.229   0.691   5.741  0.7681  0.1852 -0.4168
 1838SOL    MW4 7126   5.271   0.704   5.816  0.2774 -0.4071 -0.0407
 1839SOL     OW 7127   4.262   0.968   3.448  0.0403 -0.0914 -0.1929
 1839SOL    HW2 7128   4.176   0.977   3.407 -0.1365 -1.8326 -0.2553
 1839SOL    HW3 7129   4.323   0.961   3.376  0.5703  3.1243 -0.2093
 1839SOL    MW4 7130   4.259   0.968   3.433  0.0869  0.1031 -0.2033
 1840SOL     OW 7131   2.220   0.786   0.290 -0.4399  0.3405 -0.3012
 1840SOL    HW2 7132   2.293   0.848   0.288 -0.8060  0.7713 -1.3602
 1840SOL    HW3 7133   2.222   0.744   0.203 -0.2962 -1.0328  0.3349
 1840SOL    MW4 7134   2.230   0.789   0.278 -0.4692  0.2162 -0.3570
 1841SOL     OW 7135   2.510   2.566   5.146  0.1300  0.0463 -0.1432
 1841SOL    HW2 7136   2.507   2.519   5.063  1.7043 -1.7525  0.7345
 1841SOL    HW3 7137   2.552   2.649   5.126  0.6094 -0.4211 -1.1382
 1841SOL    MW4 7138   2.515   2.571   5.133  0.4010 -0.2527 -0.1587
 1842SOL     OW 7139   2.370   4.329   4.945  0.5564 -0.5058  0.0154
 1842SOL    HW2 7140   2.288   4.283   4.926  1.7840 -1.7908 -2.7545
 1842SOL    HW3 7141   2.381   4.389   4.872  0.7706  1.7061  1.7813
 1842SOL    MW4 7142   2.361   4.330   4.933  0.7467 -0.3835 -0.1170
 1843SOL     OW 7143   6.224   2.283   1.933  0.3696 -0.7100  0.2359
 1843SOL    HW2 7144   6.280   2.331   1.994  1.7573 -0.9868 -0.7627
 1843SOL    HW3 7145   6.143   2.267   1.982  0.4897  1.1834  1.1440
 1843SOL    MW4 7146   6.221   2.287   1.947  0.5685 -0.4967  0.2239
 1844SOL     OW 7147   4.237   6.053   3.361 -0.1898  0.8887  0.3516
 1844SOL    HW2 7148   4.292   6.029   3.436  0.0754  0.4986  0.0315
 1844SOL    HW3 7149   4.150   6.019   3.384  0.5135 -1.9028 -0.8136
 1844SOL    MW4 7150   4.232   6.046   3.374 -0.0620  0.4689  0.1557
 1845SOL     OW 7151   3.012   1.596   5.000 -0.1992 -0.4386 -0.7782
 1845SOL    HW2 7152   3.039   1.572   5.089  0.4351 -1.1251 -1.1408
 1845SOL    HW3 7153   2.923   1.630   5.010 -0.3272 -0.9815  0.0547
 1845SOL    MW4 7154   3.004   1.597   5.013 -0.1324 -0.6008 -0.7162
 1846SOL     OW 7155   5.610   0.489   5.217  0.0001 -0.0790 -0.4827
 1846SOL    HW2 7156   5.608   0.498   5.312  1.4344 -1.1586 -0.3106
 1846SOL    HW3 7157   5.649   0.403   5.202 -1.5509 -0.5844 -2.0486
 1846SOL    MW4 7158   5.615   0.479   5.228 -0.0153 -0.2881 -0.6666
 1847SOL     OW 7159   5.692   2.260   3.394 -0.0216 -0.6824 -0.2167
 1847SOL    HW2 7160   5.741   2.178   3.399  0.2919 -0.4206  1.7491
 1847SOL    HW3 7161   5.639   2.261   3.474 -0.1894  0.9202 -0.3110
 1847SOL    MW4 7162   5.691   2.249   3.405 -0.0024 -0.4364  0.0302
 1848SOL     OW 7163   2.237   3.575   1.147 -0.3818 -0.0063  0.3988
 1848SOL    HW2 7164   2.190   3.500   1.184  1.0824 -1.0629  0.1578
 1848SOL    HW3 7165   2.182   3.604   1.074 -0.6308 -1.2708  0.0660
 1848SOL    MW4 7166   2.223   3.569   1.142 -0.2215 -0.3126  0.3231
 1849SOL     OW 7167   1.394   4.149   2.823 -0.1654 -0.6934  0.2305
 1849SOL    HW2 7168   1.315   4.194   2.853 -1.0723 -2.1682  0.1606
 1849SOL    HW3 7169   1.375   4.123   2.733  0.8164 -0.1718 -0.1478
 1849SOL    MW4 7170   1.381   4.152   2.815 -0.1555 -0.8191  0.1714
 1850SOL     OW 7171   2.210   2.468   6.100  0.1745 -0.0533  0.2649
 1850SOL    HW2 7172   2.301   2.483   6.072  0.4620  1.1730  1.7115
 1850SOL    HW3 7173   2.160   2.538   6.059 -0.2966 -1.1801 -1.1654
 1850SOL    MW4 7174   2.216   2.479   6.091  0.1503 -0.0401  0.2670
 1851SOL     OW 7175   4.991   3.230   0.649  0.3222 -0.0412 -0.7054
 1851SOL    HW2 7176   4.968   3.302   0.707 -1.7267 -0.7922 -0.4969
 1851SOL    HW3 7177   4.971   3.263   0.561 -0.1897 -0.1799 -0.6463
 1851SOL    MW4 7178   4.985   3.244   0.645 -0.0156 -0.1586 -0.6701
 1852SOL     OW 7179   0.210   6.328   5.331  0.3855 -0.0291 -0.5771
 1852SOL    HW2 7180   0.248   6.305   5.246  1.5234  0.4211 -0.2109
 1852SOL    HW3 7181   0.276   6.301   5.395 -0.5083 -0.4770  0.1799
 1852SOL    MW4 7182   0.224   6.321   5.328  0.4177 -0.0288 -0.4289
 1853SOL     OW 7183   2.897   0.224   5.443  0.1960  0.4594  0.0366
 1853SOL    HW2 7184   2.892   0.150   5.382  2.6098 -0.3262  0.6576
 1853SOL    HW3 7185   2.870   0.188   5.527  0.0212  0.6622  0.0674
 1853SOL    MW4 7186   2.893   0.210   5.446  0.4914  0.3825  0.1226
 1854SOL     OW 7187   0.952   0.877   6.321 -0.3382 -0.1420 -0.4397
 1854SOL    HW2 7188   0.924   0.933   6.394 -2.0784 -0.1308 -1.0720
 1854SOL    HW3 7189   0.972   0.938   6.251 -0.0230 -0.2124 -0.4095
 1854SOL    MW4 7190   0.951   0.892   6.322 -0.5262 -0.1498 -0.5191
 1855SOL     OW 7191   4.420   5.380   0.940 -0.2603 -0.3556  0.2582
 1855SOL    HW2 7192   4.346   5.326   0.911 -0.3696 -0.5958  0.9575
 1855SOL    HW3 7193   4.380   5.464   0.963 -0.4250 -0.6950  1.2572
 1855SOL    MW4 7194   4.405   5.384   0.939 -0.2964 -0.4321  0.4823
 1856SOL     OW 7195   2.405   5.291   2.656  0.1326 -0.2528 -0.0498
 1856SOL    HW2 7196   2.317   5.329   2.653  0.5925  0.8281 -0.2045
 1856SOL    HW3 7197   2.421   5.260   2.567 -0.8333 -2.2454  0.4169
 1856SOL    MW4 7198   2.396   5.292   2.644  0.0658 -0.3731 -0.0086
 1857SOL     OW 7199   5.363   2.504   2.551  0.4751 -0.1825  0.3353
 1857SOL    HW2 7200   5.327   2.417   2.536  1.9742 -0.4714 -2.1475
 1857SOL    HW3 7201   5.294   2.564   2.523  0.3231 -0.6387 -0.2780
 1857SOL    MW4 7202   5.349   2.501   2.546  0.6528 -0.2808 -0.0732
 1858SOL     OW 7203   5.597   1.907   1.295  0.0611 -0.2326 -0.5770
 1858SOL    HW2 7204   5.683   1.872   1.317  0.7769  1.7670 -0.0066
 1858SOL    HW3 7205   5.538   1.870   1.360  0.6596 -0.8607 -0.3834
 1858SOL    MW4 7206   5.600   1.897   1.306  0.2345 -0.0516 -0.4762
 1859SOL     OW 7207   5.180   2.951   5.956  0.4616 -0.4727  0.3663
 1859SOL    HW2 7208   5.177   2.883   5.888  1.3731  0.2604 -0.4441
 1859SOL    HW3 7209   5.196   2.903   6.037  1.4564 -1.2321 -0.2463
 1859SOL    MW4 7210   5.182   2.936   5.958  0.7131 -0.4762  0.1785
 1860SOL     OW 7211   1.741   3.235   2.168 -0.2203 -0.2446  0.0683
 1860SOL    HW2 7212   1.734   3.140   2.159  1.1242 -0.4382  0.7852
 1860SOL    HW3 7213   1.834   3.254   2.159 -0.3339  0.8830  0.9342
 1860SOL    MW4 7214   1.752   3.225   2.166 -0.0579 -0.1214  0.2771
 1861SOL     OW 7215   2.884   4.780   5.856 -0.7288  0.0987 -0.2961
 1861SOL    HW2 7216   2.873   4.732   5.938  1.9290  0.6648  0.4650
 1861SOL    HW3 7217   2.962   4.742   5.815  0.1178  2.1943 -0.7685
 1861SOL    MW4 7218   2.893   4.769   5.861 -0.2664  0.4499 -0.2580
 1862SOL     OW 7219   3.466   5.931   4.409  0.0064 -0.4824 -0.1547
 1862SOL    HW2 7220   3.373   5.942   4.389  0.2595  1.2638 -0.4918
 1862SOL    HW3 7221   3.474   5.958   4.501  0.3466  0.4421 -0.4486
 1862SOL    MW4 7222   3.454   5.936   4.419  0.0847 -0.1300 -0.2380
 1863SOL     OW 7223   2.132   4.838   5.719 -0.1972  0.2403 -0.2824
 1863SOL    HW2 7224   2.204   4.794   5.765  1.3569  3.0480  0.1972
 1863SOL    HW3 7225   2.143   4.812   5.627 -0.2252 -1.4257  0.1540
 1863SOL    MW4 7226   2.143   4.829   5.713  0.0042  0.3910 -0.1616
 1864SOL     OW 7227   2.701   3.218   3.901 -0.4014  0.6119 -0.5304
 1864SOL    HW2 7228   2.679   3.278   3.830 -1.8164  1.3709  0.5059
 1864SOL    HW3 7229   2.617   3.187   3.933  0.2608 -0.7529 -0.0349
 1864SOL    MW4 7230   2.687   3.222   3.896 -0.5007  0.5320 -0.3283
 1865SOL     OW 7231   2.647   2.981   5.483  0.6183 -0.3095 -0.4283
 1865SOL    HW2 7232   2.686   3.001   5.568  2.8329 -1.0799 -1.1618
 1865SOL    HW3 7233   2.583   2.913   5.500  1.4700 -0.8842  0.5800
 1865SOL    MW4 7234   2.644   2.975   5.496  1.0229 -0.4870 -0.3920
 1866SOL     OW 7235   5.702   4.328   5.610  0.2260  0.1198 -0.6039
 1866SOL    HW2 7236   5.624   4.289   5.651  1.9011  0.3134  3.2846
 1866SOL    HW3 7237   5.771   4.264   5.626  1.4965  1.3219 -1.0816
 1866SOL    MW4 7238   5.701   4.314   5.618  0.6146  0.3039 -0.1539
 1867SOL     OW 7239   5.248   4.995   2.010  0.3084 -0.1603 -0.5323
 1867SOL    HW2 7240   5.318   4.999   1.946 -1.2098  1.5108 -2.2138
 1867SOL    HW3 7241   5.190   4.926   1.977  0.7742 -1.0626  0.4768
 1867SOL    MW4 7242   5.249   4.987   1.997  0.1695 -0.0589 -0.6210
 1868SOL     OW 7243   5.872   0.321   5.599 -0.1846  0.3165 -0.1507
 1868SOL    HW2 7244   5.907   0.387   5.659 -1.0651  2.8051 -2.1907
 1868SOL    HW3 7245   5.784   0.304   5.632 -0.2946  0.8896 -0.1252
 1868SOL    MW4 7246   5.865   0.328   5.611 -0.3153  0.7205 -0.4165
 1869SOL     OW 7247   0.464   3.658   2.958 -0.1860  0.0338 -0.1737
 1869SOL    HW2 7248   0.479   3.749   2.929 -1.0360  0.3598  0.3588
 1869SOL    HW3 7249   0.519   3.605   2.901 -0.4039  0.8143 -1.1431
 1869SOL    MW4 7250   0.473   3.663   2.946 -0.3269  0.1798 -0.2313
 1870SOL     OW 7251   3.807   0.598   5.238 -0.2036 -0.3513  0.2587
 1870SOL    HW2 7252   3.886   0.573   5.286  0.1510 -0.8001 -0.5411
 1870SOL    HW3 7253   3.836   0.664   5.176 -0.9187  1.2704  1.5542
 1870SOL    MW4 7254   3.821   0.603   5.237 -0.2512 -0.1966  0.3241
 1871SOL     OW 7255   0.426   3.096   1.974 -0.1926  0.4911 -0.3600
 1871SOL    HW2 7256   0.364   3.078   1.903 -0.1553 -0.9210 -0.0573
 1871SOL    HW3 7257   0.505   3.127   1.930 -0.7524  1.3199 -0.8115
 1871SOL    MW4 7258   0.428   3.098   1.959 -0.2616  0.4141 -0.3796
 1872SOL     OW 7259   6.052   0.650   0.917 -0.2216  0.1711  0.6349
 1872SOL    HW2 7260   6.137   0.614   0.891 -1.4227 -2.3533 -0.1249
 1872SOL    HW3 7261   5.988   0.589   0.881 -2.6931  4.0716 -2.4307
 1872SOL    MW4 7262   6.055   0.637   0.909 -0.7061  0.3526  0.1302
 1873SOL     OW 7263   3.857   3.256   0.893  0.1734  0.2323 -0.6469
 1873SOL    HW2 7264   3.818   3.326   0.944 -1.4529 -0.2769 -1.1438
 1873SOL    HW3 7265   3.810   3.258   0.809  0.9561 -0.6527 -1.1326
 1873SOL    MW4 7266   3.846   3.265   0.888  0.0621  0.0484 -0.7766
 1874SOL     OW 7267   4.740   1.846   4.677 -0.0126  0.0046 -0.1133
 1874SOL    HW2 7268   4.700   1.899   4.747  0.4071 -0.1222  0.2259
 1874SOL    HW3 7269   4.667   1.826   4.618 -0.4426 -0.1676  0.4614
 1874SOL    MW4 7270   4.725   1.851   4.679 -0.0140 -0.0348  0.0073
 1875SOL     OW 7271   4.096   5.157   0.231 -0.2454  0.0073 -0.1127
 1875SOL    HW2 7272   4.043   5.146   0.152  0.6739 -1.9597 -0.5246
 1875SOL    HW3 7273   4.156   5.083   0.230  1.2843  1.1476  1.3061
 1875SOL    MW4 7274   4.097   5.146   0.220  0.0777 -0.1018  0.0201
 1876SOL     OW 7275   1.000   1.337   0.060  0.0229 -0.2857  0.4644
 1876SOL    HW2 7276   0.966   1.365   0.144 -1.1993  0.5549 -0.2817
 1876SOL    HW3 7277   0.943   1.264   0.034 -0.3897  0.2584 -0.1837
 1876SOL    MW4 7278   0.988   1.331   0.067 -0.1928 -0.1030  0.2805
 1877SOL     OW 7279   1.145   5.247   5.597 -0.4713 -0.1967 -0.5440
 1877SOL    HW2 7280   1.238   5.253   5.616 -0.4920 -0.7222 -0.2580
 1877SOL    HW3 7281   1.102   5.276   5.677 -0.5615  0.8855 -0.9672
 1877SOL    MW4 7282   1.152   5.251   5.610 -0.4859 -0.1232 -0.5621
 1878SOL     OW 7283   3.684   5.892   1.297 -0.0562 -0.1762  0.2862
 1878SOL    HW2 7284   3.642   5.823   1.245  0.2785 -0.5772  0.5427
 1878SOL    HW3 7285   3.637   5.972   1.273 -1.1584 -0.6571  0.7847
 1878SOL    MW4 7286   3.673   5.894   1.287 -0.1575 -0.2926  0.3858
 1879SOL     OW 7287   2.704   1.840   3.807  0.5068 -0.1654  0.3591
 1879SOL    HW2 7288   2.697   1.758   3.759 -0.6740  0.4322 -0.5528
 1879SOL    HW3 7289   2.750   1.899   3.747 -1.5511  0.7832 -0.4206
 1879SOL    MW4 7290   2.709   1.837   3.792  0.0795  0.0386  0.1359
 1880SOL     OW 7291   2.110   1.080   2.432 -0.0413 -0.5730 -0.5378
 1880SOL    HW2 7292   2.198   1.045   2.438  0.1091 -0.0982  0.1974
 1880SOL    HW3 7293   2.097   1.098   2.339  1.7372  2.0947 -0.3653
 1880SOL    MW4 7294   2.120   1.078   2.421  0.2132 -0.1584 -0.4180
 1881SOL     OW 7295   5.577   4.171   3.585  0.0140  0.0747  0.4934
 1881SOL    HW2 7296   5.637   4.116   3.635  1.0996  1.0669  0.3205
 1881SOL    HW3 7297   5.607   4.261   3.600 -1.4843  0.6150  0.4667
 1881SOL    MW4 7298   5.589   4.176   3.593 -0.0405  0.2769  0.4671
 1882SOL     OW 7299   1.970   6.300   3.036 -0.2279  0.4449 -0.3081
 1882SOL    HW2 7300   1.906   6.366   3.060  0.0283  0.7045 -0.3238
 1882SOL    HW3 7301   1.961   6.291   2.941 -0.6156  0.0817 -0.2370
 1882SOL    MW4 7302   1.961   6.308   3.026 -0.2452  0.4313 -0.3008
 1883SOL     OW 7303   5.568   0.298   1.692  0.1979  0.1998  0.0642
 1883SOL    HW2 7304   5.614   0.357   1.633 -0.0152  0.2930 -0.0096
 1883SOL    HW3 7305   5.613   0.214   1.682 -1.0086 -0.2897 -1.6507
 1883SOL    MW4 7306   5.580   0.295   1.683  0.0106  0.1475 -0.1718
 1884SOL     OW 7307   2.373   0.255   5.860  0.4796 -0.1190 -0.1098
 1884SOL    HW2 7308   2.294   0.207   5.886  0.1785 -0.8754 -2.1804
 1884SOL    HW3 7309   2.444   0.212   5.908 -0.1514 -0.6419  0.3712
 1884SOL    MW4 7310   2.372   0.243   5.870  0.3566 -0.2878 -0.3196
 1885SOL     OW 7311   2.792   4.447   0.845 -0.3122 -0.6533  0.8359
 1885SOL    HW2 7312   2.877   4.447   0.802  0.1291  0.2350  1.6562
 1885SOL    HW3 7313   2.812   4.438   0.938 -1.1769 -1.3891  0.9665
 1885SOL    MW4 7314   2.806   4.446   0.851 -0.3680 -0.6332  0.9613
 1886SOL     OW 7315   5.564   6.308   3.889  0.5585  0.1233 -0.5248
 1886SOL    HW2 7316   5.638   6.248   3.880 -0.1769 -0.6872 -1.3172
 1886SOL    HW3 7317   5.603   6.389   3.923  1.6955 -0.5136 -0.2670
 1886SOL    MW4 7318   5.579   6.311   3.892  0.6115 -0.0676 -0.5953
 1887SOL     OW 7319   5.220   1.092   2.321 -0.3782  0.6528 -0.1909
 1887SOL    HW2 7320   5.264   1.053   2.397  0.8080  0.5488 -0.8958
 1887SOL    HW3 7321   5.258   1.179   2.314 -2.6145  1.8249  1.0376
 1887SOL    MW4 7322   5.231   1.098   2.330 -0.5167  0.7937 -0.1218
 1888SOL     OW 7323   3.616   0.874   4.903 -0.0633 -0.4981  0.8749
 1888SOL    HW2 7324   3.535   0.822   4.905  0.5627 -1.4980  1.0617
 1888SOL    HW3 7325   3.666   0.837   4.831 -0.2625  0.9017 -0.0030
 1888SOL    MW4 7326   3.611   0.862   4.894 -0.0070 -0.4453  0.7837
 1889SOL     OW 7327   6.214   6.405   0.679  0.0582 -0.8969  0.4584
 1889SOL    HW2 7328   6.171   6.319   0.668  0.0727 -0.7849 -0.6012
 1889SOL    HW3 7329   6.293   6.399   0.626  0.3046 -0.3849  0.7618
 1889SOL    MW4 7330   6.219   6.393   0.671  0.0927 -0.8146  0.3587
 1890SOL     OW 7331   2.605   6.088   5.184 -0.1534  0.2273 -0.0688
 1890SOL    HW2 7332   2.559   6.133   5.114  0.1920  1.6378  0.5663
 1890SOL    HW3 7333   2.574   6.131   5.264 -1.3209 -2.0083  0.7780
 1890SOL    MW4 7334   2.594   6.100   5.186 -0.2619  0.1184  0.1267
 1891SOL     OW 7335   4.598   5.695   0.752 -0.3834  0.3794 -0.1749
 1891SOL    HW2 7336   4.666   5.627   0.748 -1.2884 -0.5002 -1.7720
 1891SOL    HW3 7337   4.566   5.701   0.662 -1.8109  1.4158  0.3726
 1891SOL    MW4 7338   4.603   5.686   0.739 -0.6911  0.4001 -0.3134
 1892SOL     OW 7339   1.549   1.736   2.765  0.4191 -0.2199  0.2750
 1892SOL    HW2 7340   1.637   1.747   2.727 -0.2798  1.0766 -1.0662
 1892SOL    HW3 7341   1.538   1.813   2.821 -0.1987  0.1134 -0.2910
 1892SOL    MW4 7342   1.559   1.748   2.768  0.2454 -0.0049  0.0234
 1893SOL     OW 7343   3.172   0.028   1.196 -0.0913 -0.0104  0.4088
 1893SOL    HW2 7344   3.204   0.118   1.195  1.2610 -0.4501 -1.2177
 1893SOL    HW3 7345   3.077   0.036   1.190  0.1029  1.3530 -2.4162
 1893SOL    MW4 7346   3.164   0.041   1.195  0.1127  0.1115 -0.1785
 1894SOL     OW 7347   4.947   2.334   3.643 -0.4627 -0.3577  0.0541
 1894SOL    HW2 7348   4.977   2.246   3.667  1.7969  0.3718  0.1291
 1894SOL    HW3 7349   4.868   2.347   3.694 -0.2162 -1.9263  0.9002
 1894SOL    MW4 7350   4.941   2.324   3.653 -0.1321 -0.4684  0.1756
 1895SOL     OW 7351   4.152   6.038   0.085  0.3835 -0.1131  0.0395
 1895SOL    HW2 7352   4.122   6.035  -0.006 -2.4764  0.2499  0.8783
 1895SOL    HW3 7353   4.167   6.131   0.102  0.8689 -0.1759 -0.0338
 1895SOL    MW4 7354   4.150   6.050   0.075  0.0702 -0.0735  0.1405
 1896SOL     OW 7355   4.255   2.567   5.948 -0.3396  0.5435 -0.1733
 1896SOL    HW2 7356   4.261   2.488   6.000  1.5165  0.7653  0.0099
 1896SOL    HW3 7357   4.208   2.540   5.868 -1.6964 -0.1741  0.8225
 1896SOL    MW4 7358   4.249   2.553   5.944 -0.2737  0.4781 -0.0178
 1897SOL     OW 7359   6.072   0.786   1.941  0.0843 -0.2997 -0.5357
 1897SOL    HW2 7360   6.039   0.697   1.952  0.8667 -0.8431 -2.3026
 1897SOL    HW3 7361   6.015   0.840   1.997 -1.9011 -1.5759 -1.2398
 1897SOL    MW4 7362   6.060   0.781   1.950 -0.0744 -0.5398 -0.8617
 1898SOL     OW 7363   0.197   5.284   1.172  0.4338  0.0947  0.0209
 1898SOL    HW2 7364   0.200   5.214   1.237 -1.3164  1.2251  1.4300
 1898SOL    HW3 7365   0.178   5.241   1.089  0.4435 -1.1742  0.6680
 1898SOL    MW4 7366   0.195   5.269   1.170  0.2042  0.0764  0.2922
 1899SOL     OW 7367   2.427   2.903   5.927  0.1792  0.3307  0.0504
 1899SOL    HW2 7368   2.513   2.888   5.966 -0.2247  0.0403  0.8434
 1899SOL    HW3 7369   2.416   2.832   5.863  1.1838  1.2698 -1.2123
 1899SOL    MW4 7370   2.437   2.891   5.923  0.2585  0.4163 -0.0116
 1900SOL     OW 7371   0.161   1.663   4.093 -0.2382  0.4106  0.5221
 1900SOL    HW2 7372   0.107   1.681   4.016  0.7233  0.8016 -0.0806
 1900SOL    HW3 7373   0.102   1.675   4.167 -1.6782 -1.8016 -0.1945
 1900SOL    MW4 7374   0.146   1.667   4.092 -0.3013  0.1703  0.3480
 1901SOL     OW 7375   4.502   4.501   2.485 -0.1497 -0.3480 -0.4084
 1901SOL    HW2 7376   4.523   4.487   2.578 -2.1968 -0.4646  0.0804
 1901SOL    HW3 7377   4.501   4.596   2.475  2.5010 -0.2947 -0.9727
 1901SOL    MW4 7378   4.505   4.511   2.496 -0.0701 -0.3564 -0.4184
 1902SOL     OW 7379   2.489   5.529   1.888 -0.1400  0.6065  0.2702
 1902SOL    HW2 7380   2.483   5.451   1.944  0.9307 -0.4614 -1.0544
 1902SOL    HW3 7381   2.423   5.515   1.820  0.6015  0.4607 -0.4295
 1902SOL    MW4 7382   2.479   5.517   1.887  0.0991  0.4463  0.0031
 1903SOL     OW 7383   0.140   3.220   5.961  0.1184 -0.0993 -0.1139
 1903SOL    HW2 7384   0.130   3.294   6.021  0.0541 -1.3508  1.5139
 1903SOL    HW3 7385   0.085   3.242   5.886  0.4069  1.6583  0.1462
 1903SOL    MW4 7386   0.131   3.232   5.959  0.1480 -0.0325  0.1352
 1904SOL     OW 7387   2.071   2.794   4.125 -0.3384  0.3294  0.3945
 1904SOL    HW2 7388   2.061   2.705   4.158  1.5361  0.2102  0.7290
 1904SOL    HW3 7389   2.151   2.826   4.166  0.8104  1.0054 -2.1953
 1904SOL    MW4 7390   2.080   2.786   4.135  0.0605  0.4029  0.0969
 1905SOL     OW 7391   2.746   2.046   4.637 -0.3858  0.0382 -1.0392
 1905SOL    HW2 7392   2.722   1.958   4.609 -1.0459  0.2784 -1.2366
 1905SOL    HW3 7393   2.798   2.080   4.564 -0.0292 -0.2250 -0.9127
 1905SOL    MW4 7394   2.750   2.039   4.624 -0.4258  0.0351 -1.0485
 1906SOL     OW 7395   3.198   1.220   1.262 -0.4018  0.3102  0.2722
 1906SOL    HW2 7396   3.109   1.210   1.228 -0.4225  0.7658  0.1891
 1906SOL    HW3 7397   3.214   1.140   1.312 -0.9624  0.3583  0.5314
 1906SOL    MW4 7398   3.188   1.208   1.264 -0.4785  0.3767  0.2954
 1907SOL     OW 7399   2.743   5.524   0.937  0.1344 -0.3292 -0.3000
 1907SOL    HW2 7400   2.824   5.480   0.914 -0.6821 -0.9867 -2.0960
 1907SOL    HW3 7401   2.684   5.453   0.964  0.0968  0.1312  0.8980
 1907SOL    MW4 7402   2.746   5.509   0.938  0.0217 -0.3552 -0.3789
 1908SOL     OW 7403   1.428   2.804   5.309  0.3283 -0.2237 -0.1573
 1908SOL    HW2 7404   1.343   2.808   5.266 -0.2646  2.0091  1.0493
 1908SOL    HW3 7405   1.419   2.862   5.385  3.0567  0.4236 -0.2324
 1908SOL    MW4 7406   1.415   2.812   5.313  0.6101  0.1563 -0.0080
 1909SOL     OW 7407   0.118   5.057   5.345 -0.1902 -0.1564  0.2786
 1909SOL    HW2 7408   0.034   5.026   5.312  0.4550 -0.7018 -0.8979
 1909SOL    HW3 7409   0.118   5.031   5.438 -0.2563 -2.4545 -0.3133
 1909SOL    MW4 7410   0.107   5.050   5.353 -0.1138 -0.5315  0.0453
 1910SOL     OW 7411   4.594   2.217   2.350 -0.0693 -0.5127  0.0918
 1910SOL    HW2 7412   4.540   2.296   2.340  0.2183 -0.3289 -0.0283
 1910SOL    HW3 7413   4.643   2.211   2.268 -0.0813 -0.8122  0.1059
 1910SOL    MW4 7414   4.593   2.227   2.338 -0.0330 -0.5279  0.0778
 1911SOL     OW 7415   4.903   4.332   5.346  0.1897  0.0634  0.7454
 1911SOL    HW2 7416   4.817   4.365   5.321 -0.4625 -2.1356 -0.2006
 1911SOL    HW3 7417   4.958   4.345   5.269  1.2770  2.9866  1.8857
 1911SOL    MW4 7418   4.899   4.338   5.333  0.2471  0.1589  0.7711
 1912SOL     OW 7419   0.423   4.372   0.776  0.0899 -0.0023 -0.1330
 1912SOL    HW2 7420   0.502   4.407   0.735 -1.3208  1.5389 -1.6968
 1912SOL    HW3 7421   0.434   4.390   0.869  0.3567  2.8606 -0.6359
 1912SOL    MW4 7422   0.435   4.379   0.783 -0.0610  0.5787 -0.4057
 1913SOL     OW 7423   2.616   2.748   4.194  0.5184  0.9228  0.2421
 1913SOL    HW2 7424   2.529   2.771   4.226 -0.0664 -0.8999  0.0633
 1913SOL    HW3 7425   2.676   2.772   4.265 -0.3330  0.5558  1.0992
 1913SOL    MW4 7426   2.613   2.754   4.207  0.3289  0.6339  0.3316
 1914SOL     OW 7427   5.005   3.873   3.289 -0.1295  0.1308 -0.1280
 1914SOL    HW2 7428   4.975   3.804   3.230  0.3179 -0.0620 -0.1412
 1914SOL    HW3 7429   4.942   3.871   3.362  1.0331 -1.7703  0.9343
 1914SOL    MW4 7430   4.993   3.863   3.291  0.0829 -0.1455  0.0104
 1915SOL     OW 7431   5.827   2.961   4.611 -1.0851 -0.4361  0.4226
 1915SOL    HW2 7432   5.735   2.985   4.609 -0.9886 -0.1196 -0.1544
 1915SOL    HW3 7433   5.835   2.904   4.688 -1.8391 -0.7953  0.2432
 1915SOL    MW4 7434   5.816   2.957   4.621 -1.1719 -0.4418  0.3228
 1916SOL     OW 7435   3.039   4.383   0.743  0.2625 -0.5043  0.1303
 1916SOL    HW2 7436   3.084   4.299   0.739 -0.6704 -0.9729 -1.0811
 1916SOL    HW3 7437   3.082   4.430   0.814  3.9876 -0.1965 -2.0366
 1916SOL    MW4 7438   3.051   4.378   0.752  0.6309 -0.5255 -0.3154
 1917SOL     OW 7439   4.394   5.950   1.444 -0.3222  0.1399  0.2859
 1917SOL    HW2 7440   4.420   6.024   1.498  2.1049 -0.5570  0.1921
 1917SOL    HW3 7441   4.476   5.913   1.412 -1.5923 -0.4141 -2.6670
 1917SOL    MW4 7442   4.408   5.955   1.447 -0.1695 -0.0252 -0.1161
 1918SOL     OW 7443   0.419   1.786   2.169  0.5162 -0.0247 -0.3821
 1918SOL    HW2 7444   0.355   1.830   2.113  0.6336 -0.7576 -1.1060
 1918SOL    HW3 7445   0.504   1.820   2.140  0.7775 -2.0066 -2.2216
 1918SOL    MW4 7446   0.422   1.796   2.157  0.5662 -0.3829 -0.7203
 1919SOL     OW 7447   0.414   2.778   3.515  0.7183  0.3287 -0.3221
 1919SOL    HW2 7448   0.487   2.762   3.456 -0.4218 -0.4592 -1.5713
 1919SOL    HW3 7449   0.336   2.774   3.459 -0.3171  0.7449  1.0302
 1919SOL    MW4 7450   0.413   2.775   3.500  0.4313  0.2797 -0.3085
 1920SOL     OW 7451   2.304   0.583   1.313  0.1830 -0.9725 -0.0625
 1920SOL    HW2 7452   2.275   0.560   1.401  1.1854 -0.0764  0.5298
 1920SOL    HW3 7453   2.245   0.535   1.255 -2.2189  0.3983  1.0511
 1920SOL    MW4 7454   2.292   0.574   1.317 -0.0016 -0.6734  0.1626
 1921SOL     OW 7455   0.163   4.633   1.401  0.0835  0.1495  0.3768
 1921SOL    HW2 7456   0.219   4.555   1.395  0.0202  0.1107  0.2813
 1921SOL    HW3 7457   0.213   4.695   1.454  0.6236  0.4667 -0.4807
 1921SOL    MW4 7458   0.177   4.631   1.407  0.1464  0.1862  0.2511
 1922SOL     OW 7459   2.048   4.161   1.167  0.7357  0.2650  0.3905
 1922SOL    HW2 7460   2.051   4.222   1.094 -1.4333 -0.3503 -0.2807
 1922SOL    HW3 7461   2.025   4.077   1.127 -0.3536 -0.1144  1.7404
 1922SOL    MW4 7462   2.045   4.158   1.152  0.3058  0.1338  0.4801
 1923SOL     OW 7463   3.082   2.273   5.694  0.5487  0.2566  0.4053
 1923SOL    HW2 7464   3.043   2.190   5.669  1.3761  0.4163 -1.5990
 1923SOL    HW3 7465   3.116   2.259   5.783  0.5676 -1.4861  0.1471
 1923SOL    MW4 7466   3.081   2.260   5.703  0.6604  0.0478  0.1068
 1924SOL     OW 7467   0.677   1.164   2.435  0.2112 -0.0307  0.5201
 1924SOL    HW2 7468   0.588   1.176   2.469 -0.5348  1.1264 -1.6476
 1924SOL    HW3 7469   0.724   1.244   2.461  0.1062  0.1336  0.2095
 1924SOL    MW4 7470   0.671   1.176   2.443  0.0989  0.1436  0.1931
 1925SOL     OW 7471   1.523   2.199   5.239  0.1120  0.2448  0.2880
 1925SOL    HW2 7472   1.590   2.213   5.172  0.8044  0.8399  1.0954
 1925SOL    HW3 7473   1.559   2.132   5.296 -0.8867 -0.9778 -0.4396
 1925SOL    MW4 7474   1.536   2.192   5.238  0.0716  0.1620  0.2985
 1926SOL     OW 7475   5.771   0.726   4.307 -0.0436  0.0336 -0.4822
 1926SOL    HW2 7476   5.697   0.748   4.250  0.9679  0.9919 -1.4914
 1926SOL    HW3 7477   5.838   0.790   4.283  1.0649 -0.7325  0.5046
 1926SOL    MW4 7478   5.770   0.738   4.296  0.2361  0.0590 -0.4851
 1927SOL     OW 7479   0.115   0.659   4.674  0.1894 -0.0707 -0.0169
 1927SOL    HW2 7480   0.056   0.732   4.691 -1.2125 -1.4149  1.2146
 1927SOL    HW3 7481   0.195   0.700   4.641 -0.2461  2.0567  1.3805
 1927SOL    MW4 7482   0.118   0.674   4.672 -0.0530  0.0327  0.3299
 1928SOL     OW 7483   3.300   4.144   2.185  0.5156 -0.4006  0.2588
 1928SOL    HW2 7484   3.218   4.185   2.209  1.0134  1.5028 -0.9977
 1928SOL    HW3 7485   3.278   4.088   2.111  0.2304 -0.3907  0.3372
 1928SOL    MW4 7486   3.287   4.142   2.178  0.5437 -0.1481  0.1034
 1929SOL     OW 7487   2.409   1.107   3.172 -0.1152  0.2117 -0.1400
 1929SOL    HW2 7488   2.361   1.070   3.246  1.1711 -1.7713 -0.2158
 1929SOL    HW3 7489   2.471   1.038   3.148  0.0666  1.1345 -2.5396
 1929SOL    MW4 7490   2.411   1.093   3.179  0.0785  0.0718 -0.4666
 1930SOL     OW 7491   1.995   3.320   2.127  0.1116 -0.4879  0.7094
 1930SOL    HW2 7492   2.047   3.268   2.066  0.0732 -0.2076  0.4413
 1930SOL    HW3 7493   2.017   3.411   2.108 -0.7183 -0.3506  0.3744
 1930SOL    MW4 7494   2.005   3.325   2.117 -0.0030 -0.4328  0.6299
 1931SOL     OW 7495   6.376   3.709   0.603  0.0086  0.1901 -0.0969
 1931SOL    HW2 7496   6.410   3.798   0.615 -1.5715  1.0596 -1.4493
 1931SOL    HW3 7497   6.407   3.684   0.516  0.1155 -0.4188  0.1182
 1931SOL    MW4 7498   6.384   3.718   0.593 -0.1857  0.2245 -0.2469
 1932SOL     OW 7499   2.830   5.068   6.247 -0.0214 -0.1759  0.1157
 1932SOL    HW2 7500   2.817   5.022   6.164 -1.0977 -2.6644  1.5767
 1932SOL    HW3 7501   2.908   5.028   6.285 -1.4500 -1.4888  1.7926
 1932SOL    MW4 7502   2.839   5.057   6.241 -0.3519 -0.6774  0.5297
 1933SOL     OW 7503   2.189   1.454   2.626  0.0897 -0.3288  0.1747
 1933SOL    HW2 7504   2.223   1.410   2.704  0.6275  0.5740  0.4567
 1933SOL    HW3 7505   2.173   1.544   2.653  0.6632  0.1011 -0.8556
 1933SOL    MW4 7506   2.192   1.460   2.640  0.2363 -0.1530  0.0759
 1934SOL     OW 7507   1.880   3.029   0.591  0.5008 -0.2484 -0.2772
 1934SOL    HW2 7508   1.786   3.047   0.598  0.4840 -0.1685 -0.6957
 1934SOL    HW3 7509   1.888   2.976   0.512  0.8406 -0.0419 -0.3823
 1934SOL    MW4 7510   1.868   3.024   0.582  0.5434 -0.2106 -0.3463
 1935SOL     OW 7511   0.509   2.743   2.702  0.3928 -0.5544 -0.1576
 1935SOL    HW2 7512   0.496   2.729   2.608  0.0662  0.4682 -0.2787
 1935SOL    HW3 7513   0.444   2.687   2.744  0.2290 -0.6689 -0.5571
 1935SOL    MW4 7514   0.499   2.734   2.695  0.3281 -0.4346 -0.2263
 1936SOL     OW 7515   2.685   1.905   6.282 -0.2449 -0.3348  0.0683
 1936SOL    HW2 7516   2.643   1.974   6.333 -1.2804  0.0498 -1.2649
 1936SOL    HW3 7517   2.622   1.833   6.283 -0.5544 -0.0998 -1.1486
 1936SOL    MW4 7518   2.671   1.905   6.289 -0.4223 -0.2530 -0.2682
 1937SOL     OW 7519   4.144   1.814   4.490 -0.0397  0.3622  0.4538
 1937SOL    HW2 7520   4.161   1.744   4.426  1.2456 -0.5455  1.7156
 1937SOL    HW3 7521   4.106   1.885   4.438 -0.7891 -1.0089 -0.9927
 1937SOL    MW4 7522   4.141   1.814   4.474  0.0310  0.0615  0.4294
 1938SOL     OW 7523   2.648   2.201   3.726 -0.3870 -0.2704 -0.1048
 1938SOL    HW2 7524   2.669   2.261   3.798  0.5155 -0.9904  0.2454
 1938SOL    HW3 7525   2.607   2.257   3.660  0.2814  0.7109  0.2870
 1938SOL    MW4 7526   2.646   2.217   3.727 -0.1797 -0.2360 -0.0069
 1939SOL     OW 7527   0.634   4.952   3.338  0.3300 -0.1417 -0.1666
 1939SOL    HW2 7528   0.726   4.930   3.327 -0.2362 -1.6641 -2.5685
 1939SOL    HW3 7529   0.611   5.001   3.259 -0.5586  1.8502  1.2170
 1939SOL    MW4 7530   0.643   4.956   3.326  0.1381 -0.0797 -0.3009
 1940SOL     OW 7531   0.846   1.989   4.703 -0.2898 -0.1159 -0.2200
 1940SOL    HW2 7532   0.840   1.956   4.613  1.2278  0.0268 -0.4032
 1940SOL    HW3 7533   0.856   2.083   4.693  0.5349 -0.1698  0.0647
 1940SOL    MW4 7534   0.847   1.997   4.690  0.0192 -0.1042 -0.2066
 1941SOL     OW 7535   1.223   4.249   0.379 -0.7288  0.2823 -0.0724
 1941SOL    HW2 7536   1.174   4.173   0.348  0.6824 -0.2844 -1.0738
 1941SOL    HW3 7537   1.187   4.323   0.331 -2.7615  0.4719  1.5993
 1941SOL    MW4 7538   1.212   4.249   0.369 -0.8108  0.2325  0.0161
 1942SOL     OW 7539   5.183   1.090   0.454 -0.0072  0.3816  0.6557
 1942SOL    HW2 7540   5.270   1.123   0.433 -0.0887  0.1037 -0.1507
 1942SOL    HW3 7541   5.142   1.159   0.505  0.5411  0.6873  0.6808
 1942SOL    MW4 7542   5.189   1.103   0.458  0.0544  0.3853  0.5526
 1943SOL     OW 7543   4.810   6.154   5.431  0.2947 -0.2090 -0.2626
 1943SOL    HW2 7544   4.890   6.155   5.378  0.4254 -0.0369 -0.0582
 1943SOL    HW3 7545   4.740   6.177   5.369  0.4260 -0.1828 -0.4001
 1943SOL    MW4 7546   4.811   6.157   5.416  0.3293 -0.1829 -0.2538
 1944SOL     OW 7547   2.732   3.956   4.654 -0.2330 -0.4385 -0.0935
 1944SOL    HW2 7548   2.740   4.051   4.651  0.3587 -0.4345  1.2220
 1944SOL    HW3 7549   2.806   3.927   4.708  1.7108 -1.9360 -3.2247
 1944SOL    MW4 7550   2.743   3.965   4.660  0.1016 -0.6356 -0.3331
 1945SOL     OW 7551   3.434   0.612   2.939  0.6645  0.2996 -0.3065
 1945SOL    HW2 7552   3.470   0.563   2.865  1.1965 -0.0401  0.1702
 1945SOL    HW3 7553   3.467   0.701   2.927  1.9717 -0.0736  0.2938
 1945SOL    MW4 7554   3.443   0.618   2.928  0.9071  0.2055 -0.1644
 1946SOL     OW 7555   3.657   5.038   6.320 -0.2534 -0.5196  0.2742
 1946SOL    HW2 7556   3.603   5.080   6.254  1.5790  2.3039  0.4339
 1946SOL    HW3 7557   3.747   5.050   6.289  0.5119 -1.3958  2.0295
 1946SOL    MW4 7558   3.661   5.045   6.307  0.0893 -0.2627  0.5268
 1947SOL     OW 7559   0.746   3.825   1.223 -0.4817  0.0342  0.0873
 1947SOL    HW2 7560   0.818   3.819   1.286 -0.2407  0.9702 -0.0836
 1947SOL    HW3 7561   0.772   3.896   1.164 -1.1749 -0.1596 -0.4609
 1947SOL    MW4 7562   0.759   3.833   1.223 -0.5414  0.1321 -0.0076
 1948SOL     OW 7563   0.525   2.077   6.264  0.1221  0.3155 -0.1056
 1948SOL    HW2 7564   0.559   2.000   6.310  0.8952  0.3596 -0.5827
 1948SOL    HW3 7565   0.598   2.138   6.262 -0.6037  1.2374  0.6189
 1948SOL    MW4 7566   0.539   2.075   6.269  0.1284  0.4430 -0.0729
 1949SOL     OW 7567   1.372   3.527   0.409 -0.4837  0.0429 -0.0335
 1949SOL    HW2 7568   1.333   3.475   0.479 -3.1747  0.7804 -0.8689
 1949SOL    HW3 7569   1.316   3.512   0.334 -0.5578  3.0284 -0.6935
 1949SOL    MW4 7570   1.360   3.518   0.409 -0.8486  0.5341 -0.2308
 1950SOL     OW 7571   5.764   4.456   3.950  0.1596 -0.5152 -0.5143
 1950SOL    HW2 7572   5.794   4.368   3.973  0.4909 -0.0343  1.0346
 1950SOL    HW3 7573   5.679   4.463   3.994  0.7504  0.3941  0.5379
 1950SOL    MW4 7574   5.757   4.445   3.959  0.2813 -0.3318 -0.1711
 1951SOL     OW 7575   2.367   0.532   5.895 -0.0177 -0.3418  0.5795
 1951SOL    HW2 7576   2.317   0.569   5.822  0.5563  0.3488  0.5232
 1951SOL    HW3 7577   2.372   0.439   5.876  0.3413 -0.1345 -0.4058
 1951SOL    MW4 7578   2.361   0.525   5.883  0.1054 -0.2233  0.4421
 1952SOL     OW 7579   3.117   3.726   1.712  0.1364  0.8972  0.1095
 1952SOL    HW2 7580   3.143   3.635   1.727  1.2705  0.8994 -1.5266
 1952SOL    HW3 7581   3.196   3.777   1.730 -0.4899  1.5758  1.0013
 1952SOL    MW4 7582   3.131   3.721   1.716  0.2034  0.9870  0.0113
 1953SOL     OW 7583   0.711   2.487   6.407 -0.4665 -0.3045  0.0986
 1953SOL    HW2 7584   0.729   2.560   6.467  0.0532 -0.0078 -0.4115
 1953SOL    HW3 7585   0.790   2.480   6.353 -0.4013 -1.4283  0.3172
 1953SOL    MW4 7586   0.724   2.496   6.408 -0.3893 -0.4136  0.0601
 1954SOL     OW 7587   3.048   4.417   2.204 -0.4566  0.8090 -0.2528
 1954SOL    HW2 7588   3.016   4.440   2.117 -2.9804  3.3669  1.1885
 1954SOL    HW3 7589   3.013   4.330   2.220 -1.4587  1.0162 -1.1616
 1954SOL    MW4 7590   3.039   4.409   2.194 -0.9218  1.1738 -0.1825
 1955SOL     OW 7591   4.777   3.511   1.771 -0.2262 -0.3533 -0.1549
 1955SOL    HW2 7592   4.830   3.454   1.826  1.2781 -0.0724 -1.2451
 1955SOL    HW3 7593   4.691   3.469   1.769 -0.2650 -0.4731  2.1732
 1955SOL    MW4 7594   4.772   3.498   1.778 -0.0328 -0.3321  0.0084
 1956SOL     OW 7595   5.211   1.004   5.307  0.0604 -0.0528 -0.7072
 1956SOL    HW2 7596   5.148   0.953   5.256  0.7150  0.0212 -1.6102
 1956SOL    HW3 7597   5.170   1.090   5.316 -1.1056 -0.7183  0.9334
 1956SOL    MW4 7598   5.197   1.009   5.302 -0.0071 -0.1308 -0.6099
 1957SOL     OW 7599   3.186   4.758   5.137 -0.4694 -0.3884  0.3232
 1957SOL    HW2 7600   3.133   4.742   5.059  0.5745 -0.1068 -0.4497
 1957SOL    HW3 7601   3.198   4.853   5.140 -2.6026 -0.0902  2.2490
 1957SOL    MW4 7602   3.181   4.768   5.127 -0.6131 -0.3119  0.4753
 1958SOL     OW 7603   5.757   1.970   0.041 -0.6041  0.0996  0.3377
 1958SOL    HW2 7604   5.833   1.912   0.032  0.5981  1.6265  0.2937
 1958SOL    HW3 7605   5.781   2.028   0.114 -1.8296  0.4804  0.4467
 1958SOL    MW4 7606   5.771   1.970   0.050 -0.6071  0.3513  0.3463
 1959SOL     OW 7607   5.729   4.163   1.067  0.1464 -0.2169 -0.0137
 1959SOL    HW2 7608   5.661   4.110   1.024 -1.4147  2.0578 -0.5281
 1959SOL    HW3 7609   5.734   4.129   1.156 -2.1124 -0.1058  0.2101
 1959SOL    MW4 7610   5.721   4.151   1.073 -0.3576  0.0978 -0.0521
 1960SOL     OW 7611   4.021   1.501   5.504  0.2502 -0.8090  0.5019
 1960SOL    HW2 7612   3.986   1.426   5.457 -0.3587 -1.5427  2.0443
 1960SOL    HW3 7613   3.945   1.558   5.519  0.3354 -0.8287  1.0261
 1960SOL    MW4 7614   4.006   1.499   5.500  0.1811 -0.9084  0.7745
 1961SOL     OW 7615   5.666   5.686   1.774  0.2085 -0.5929  0.5815
 1961SOL    HW2 7616   5.744   5.678   1.828  0.5723  1.9816  0.5663
 1961SOL    HW3 7617   5.694   5.656   1.687  0.9420 -0.5134  0.7832
 1961SOL    MW4 7618   5.680   5.681   1.769  0.3533 -0.2427  0.6061
 1962SOL     OW 7619   0.769   1.787   3.930  0.4566 -0.0558 -0.3644
 1962SOL    HW2 7620   0.810   1.806   4.014 -0.3450  0.2585 -0.0363
 1962SOL    HW3 7621   0.819   1.837   3.866  1.1024 -0.3400 -0.0877
 1962SOL    MW4 7622   0.781   1.796   3.932  0.4360 -0.0518 -0.2846
 1963SOL     OW 7623   2.604   4.630   4.880  0.0416 -0.2402  0.3351
 1963SOL    HW2 7624   2.538   4.567   4.852 -0.2324  0.6693 -1.1419
 1963SOL    HW3 7625   2.682   4.577   4.899 -0.7739 -1.2067  1.0982
 1963SOL    MW4 7626   2.606   4.614   4.879 -0.1021 -0.2477  0.2409
 1964SOL     OW 7627   6.022   3.208   5.236 -0.1153  0.4819 -0.5106
 1964SOL    HW2 7628   6.116   3.226   5.237 -0.2858  1.4073 -0.1475
 1964SOL    HW3 7629   5.981   3.294   5.227 -0.9322  0.1070 -0.4562
 1964SOL    MW4 7630   6.029   3.222   5.235 -0.2456  0.5546 -0.4555
 1965SOL     OW 7631   1.522   6.388   3.610 -0.3242  0.4311 -0.3275
 1965SOL    HW2 7632   1.576   6.435   3.674  0.2031  0.7610 -0.9977
 1965SOL    HW3 7633   1.572   6.309   3.590 -1.6854 -0.9934  1.5676
 1965SOL    MW4 7634   1.536   6.384   3.615 -0.4342  0.2867 -0.1659
 1966SOL     OW 7635   5.775   1.105   4.555  0.4174 -0.3990  0.6767
 1966SOL    HW2 7636   5.781   1.042   4.484 -0.3888 -0.7564  0.9106
 1966SOL    HW3 7637   5.734   1.056   4.627  2.4053 -0.4389  1.8601
 1966SOL    MW4 7638   5.770   1.090   4.555  0.5733 -0.4514  0.8637
 1967SOL     OW 7639   1.497   1.037   3.968  0.1722  0.2480  0.2662
 1967SOL    HW2 7640   1.454   0.978   4.029  0.3502 -1.3272 -1.0446
 1967SOL    HW3 7641   1.484   1.125   4.005  1.3116 -0.6723  3.1858
 1967SOL    MW4 7642   1.490   1.041   3.981  0.3460 -0.0812  0.4785
 1968SOL     OW 7643   3.967   2.671   1.183  0.2617 -0.0361 -0.0639
 1968SOL    HW2 7644   3.988   2.655   1.275 -0.9867  0.3265  0.3026
 1968SOL    HW3 7645   3.936   2.586   1.151 -0.8307  0.2027  0.3068
 1968SOL    MW4 7646   3.966   2.657   1.191 -0.0472  0.0432  0.0334
 1969SOL     OW 7647   0.918   0.014   5.778 -0.3515  0.2175  0.8221
 1969SOL    HW2 7648   0.968  -0.067   5.789  1.4816  1.1501 -0.1809
 1969SOL    HW3 7649   0.980   0.084   5.799 -0.8200  1.4769 -1.5307
 1969SOL    MW4 7650   0.933   0.013   5.782 -0.1715  0.5067  0.3794
 1970SOL     OW 7651   3.848   3.621   4.728 -0.1652  0.4375  0.1034
 1970SOL    HW2 7652   3.902   3.542   4.722  0.7394  1.0876 -0.5486
 1970SOL    HW3 7653   3.762   3.589   4.754  0.5685 -0.6041  1.3412
 1970SOL    MW4 7654   3.843   3.606   4.731  0.0510  0.3859  0.1807
 1971SOL     OW 7655   0.524   4.302   4.504 -0.2108  0.1818 -0.3198
 1971SOL    HW2 7656   0.494   4.213   4.488 -0.2695  0.4880 -2.1457
 1971SOL    HW3 7657   0.453   4.343   4.554 -0.4823 -0.5924 -0.0628
 1971SOL    MW4 7658   0.510   4.296   4.508 -0.2544  0.1201 -0.5268
 1972SOL     OW 7659   5.653   5.888   6.165 -0.7695  0.0227  0.2606
 1972SOL    HW2 7660   5.568   5.845   6.164  0.0081 -1.5839 -0.1835
 1972SOL    HW3 7661   5.707   5.833   6.222  0.3819  0.1442 -0.6642
 1972SOL    MW4 7662   5.649   5.875   6.172 -0.5150 -0.1732  0.0800
 1973SOL     OW 7663   1.522   2.487   0.045 -1.0017 -0.4796  0.0991
 1973SOL    HW2 7664   1.552   2.416   0.101 -0.2214 -1.0487 -0.9998
 1973SOL    HW3 7665   1.447   2.450  -0.002  0.1506 -1.0180 -1.3685
 1973SOL    MW4 7666   1.516   2.473   0.046 -0.7467 -0.6257 -0.2395
 1974SOL     OW 7667   3.514   1.213   5.176 -0.1303  0.2966 -0.1411
 1974SOL    HW2 7668   3.447   1.163   5.130  0.1587 -0.9135  0.7320
 1974SOL    HW3 7669   3.521   1.172   5.262  1.1730  0.8914  0.0613
 1974SOL    MW4 7670   3.506   1.201   5.181  0.0798  0.2154  0.0008
 1975SOL     OW 7671   6.318   5.395   1.702 -0.3663 -0.0095  0.2437
 1975SOL    HW2 7672   6.265   5.321   1.673  0.4230 -0.0470 -1.1692
 1975SOL    HW3 7673   6.254   5.461   1.729 -1.0860 -0.7735  0.4498
 1975SOL    MW4 7674   6.302   5.394   1.702 -0.3571 -0.1152  0.0845
 1976SOL     OW 7675   2.461   3.706   3.714 -0.5987 -0.3514  0.0487
 1976SOL    HW2 7676   2.477   3.742   3.801 -2.5085 -1.2838  0.8462
 1976SOL    HW3 7677   2.427   3.781   3.664 -1.5444 -0.2691  0.7713
 1976SOL    MW4 7678   2.458   3.721   3.719 -0.9754 -0.4636  0.2493
 1977SOL     OW 7679   2.726   3.691   2.787 -0.3022 -0.7003  0.0482
 1977SOL    HW2 7680   2.632   3.701   2.804 -0.4215 -2.0052  0.2891
 1977SOL    HW3 7681   2.730   3.642   2.705  0.2058  0.5881 -0.7190
 1977SOL    MW4 7682   2.714   3.686   2.778 -0.2509 -0.7025 -0.0212
 1978SOL     OW 7683   4.310   2.978   0.724  0.4245  0.4078  0.0363
 1978SOL    HW2 7684   4.319   2.914   0.653 -1.0721 -0.4364  0.5645
 1978SOL    HW3 7685   4.222   3.014   0.712  0.4987  0.9015  0.9357
 1978SOL    MW4 7686   4.300   2.974   0.713  0.2368  0.3615  0.2247
 1979SOL     OW 7687   5.349   5.678   1.155 -0.4512  0.0107 -0.2579
 1979SOL    HW2 7688   5.271   5.651   1.202 -0.0769  0.1304  0.4451
 1979SOL    HW3 7689   5.385   5.596   1.120 -0.6655 -0.0940 -0.2359
 1979SOL    MW4 7690   5.344   5.664   1.156 -0.4301  0.0127 -0.1623
 1980SOL     OW 7691   0.507   4.750   4.735  0.1667  0.0740  0.1483
 1980SOL    HW2 7692   0.439   4.709   4.788  0.9285 -0.2335  0.9053
 1980SOL    HW3 7693   0.500   4.843   4.756  1.2370 -0.1647  1.7419
 1980SOL    MW4 7694   0.497   4.757   4.745  0.4084  0.0020  0.4584
 1981SOL     OW 7695   0.741   1.050   1.933  0.1534  0.1583  0.0515
 1981SOL    HW2 7696   0.825   1.055   1.887  0.4286 -3.2100 -0.0793
 1981SOL    HW3 7697   0.763   1.013   2.019 -1.0055  1.0998  0.7874
 1981SOL    MW4 7698   0.755   1.046   1.939  0.0368 -0.1619  0.1313
 1982SOL     OW 7699   1.789   0.947   0.790  0.6524 -0.4296 -0.5192
 1982SOL    HW2 7700   1.740   1.029   0.794  0.5736 -0.4720 -0.5985
 1982SOL    HW3 7701   1.836   0.942   0.873  0.3173 -0.5158 -0.3324
 1982SOL    MW4 7702   1.789   0.957   0.802  0.5978 -0.4465 -0.5051
 1983SOL     OW 7703   6.376   3.793   6.232  0.0190  0.1315  0.1596
 1983SOL    HW2 7704   6.316   3.769   6.303  0.5547 -1.7315  0.0510
 1983SOL    HW3 7705   6.456   3.743   6.252 -0.0052 -0.9007 -2.0289
 1983SOL    MW4 7706   6.379   3.783   6.244  0.0865 -0.2505 -0.1434
 1984SOL     OW 7707   5.201   1.195   4.304  0.1258  0.5699 -0.2421
 1984SOL    HW2 7708   5.157   1.175   4.386  0.4069  0.2016 -0.1749
 1984SOL    HW3 7709   5.288   1.154   4.313 -0.1546 -0.2529 -1.0637
 1984SOL    MW4 7710   5.207   1.187   4.316  0.1259  0.4127 -0.3416
 1985SOL     OW 7711   2.576   2.890   3.544  0.0904 -0.1181 -0.0530
 1985SOL    HW2 7712   2.650   2.917   3.598 -0.1085  0.9876 -0.3113
 1985SOL    HW3 7713   2.500   2.898   3.602 -0.0723  0.6782 -0.3674
 1985SOL    MW4 7714   2.575   2.895   3.559  0.0427  0.1328 -0.1285
 1986SOL     OW 7715   2.433   5.218   2.290 -0.1912  0.4250 -0.2125
 1986SOL    HW2 7716   2.435   5.312   2.309  0.8294  0.0481  1.9077
 1986SOL    HW3 7717   2.341   5.194   2.297 -0.2288  0.9127  1.5027
 1986SOL    MW4 7718   2.421   5.227   2.293 -0.0615  0.4396  0.2935
 1987SOL     OW 7719   6.423   2.961   2.394 -0.1707 -0.4600  0.0421
 1987SOL    HW2 7720   6.413   2.867   2.403 -1.7530 -0.1674  1.9618
 1987SOL    HW3 7721   6.381   2.998   2.472 -0.9240  1.8966 -1.3690
 1987SOL    MW4 7722   6.416   2.954   2.405 -0.4789 -0.1105  0.1092
 1988SOL     OW 7723   1.274   3.282   4.183  0.2114 -0.0640  0.3624
 1988SOL    HW2 7724   1.299   3.282   4.275 -1.0213 -2.1836  0.7705
 1988SOL    HW3 7725   1.228   3.365   4.170  0.1465  0.1356  1.7525
 1988SOL    MW4 7726   1.271   3.293   4.193  0.0402 -0.3173  0.5997
 1989SOL     OW 7727   4.829   5.184   0.778  0.2799  0.3368  0.0786
 1989SOL    HW2 7728   4.852   5.188   0.871 -1.9506  2.5643  0.6547
 1989SOL    HW3 7729   4.802   5.093   0.764  0.3409  0.0373  1.6903
 1989SOL    MW4 7730   4.829   5.172   0.789 -0.0064  0.5912  0.3672
 1990SOL     OW 7731   3.790   2.796   4.560 -0.0957 -0.0082 -0.2279
 1990SOL    HW2 7732   3.805   2.779   4.653  0.7959  3.5712  0.4158
 1990SOL    HW3 7733   3.856   2.742   4.515 -0.3309 -1.5510  1.1796
 1990SOL    MW4 7734   3.801   2.786   4.566 -0.0091  0.2605  0.0427
 1991SOL     OW 7735   1.805   6.171   1.847 -0.0402 -0.1450  0.1380
 1991SOL    HW2 7736   1.745   6.236   1.812  0.1211 -0.1653 -0.1828
 1991SOL    HW3 7737   1.759   6.087   1.835  0.4135 -0.2610 -0.9470
 1991SOL    MW4 7738   1.791   6.168   1.841  0.0410 -0.1630 -0.0475
 1992SOL     OW 7739   5.062   5.396   0.015 -0.1715  0.2195  0.1482
 1992SOL    HW2 7740   5.049   5.390   0.110  0.3753  1.5435  0.3253
 1992SOL    HW3 7741   4.980   5.433  -0.018 -0.0468  0.5654  0.2188
 1992SOL    MW4 7742   5.050   5.400   0.023 -0.0829  0.4398  0.1808
 1993SOL     OW 7743   6.166   1.156   1.667 -0.8410  0.3708 -0.0627
 1993SOL    HW2 7744   6.098   1.176   1.602 -1.1635 -0.1468  0.1043
 1993SOL    HW3 7745   6.151   1.219   1.737 -0.3139  1.1174 -0.6086
 1993SOL    MW4 7746   6.155   1.167   1.667 -0.8140  0.4010 -0.1127
 1994SOL     OW 7747   0.633   6.328   1.687  0.4542  0.5217 -0.2320
 1994SOL    HW2 7748   0.559   6.311   1.629  0.1679  0.2975  0.1917
 1994SOL    HW3 7749   0.594   6.370   1.764  0.3696 -1.8418  1.1157
 1994SOL    MW4 7750   0.618   6.331   1.689  0.4053  0.1803  0.0017
 1995SOL     OW 7751   3.066   1.857   2.666 -0.6227 -0.6811 -0.1215
 1995SOL    HW2 7752   3.114   1.937   2.645  1.6824 -1.9965 -0.2211
 1995SOL    HW3 7753   2.996   1.886   2.724  1.4790  1.1857  1.7084
 1995SOL    MW4 7754   3.063   1.872   2.671 -0.0413 -0.6083  0.1068
 1996SOL     OW 7755   1.280   3.656   5.685  0.1455  0.2493  0.5059
 1996SOL    HW2 7756   1.323   3.630   5.604 -0.7808  0.8551 -0.2058
 1996SOL    HW3 7757   1.275   3.576   5.737  0.1304 -0.3058 -0.3337
 1996SOL    MW4 7758   1.285   3.642   5.681  0.0213  0.2560  0.3013
 1997SOL     OW 7759   4.062   1.808   5.667  0.0999  0.2311 -0.5781
 1997SOL    HW2 7760   3.999   1.805   5.739 -0.5106  0.2608 -1.0931
 1997SOL    HW3 7761   4.138   1.760   5.699 -0.0329  0.5366  0.2053
 1997SOL    MW4 7762   4.064   1.801   5.680  0.0018  0.2753 -0.5427
 1998SOL     OW 7763   0.154   4.503   0.281 -0.2530 -0.3962  0.3331
 1998SOL    HW2 7764   0.186   4.590   0.259  0.4457 -0.7549 -0.1318
 1998SOL    HW3 7765   0.186   4.486   0.369  1.2498 -0.9066 -0.2685
 1998SOL    MW4 7766   0.162   4.512   0.289  0.0375 -0.5109  0.1924
 1999SOL     OW 7767   3.650   5.736   0.981 -0.5620 -0.2031 -0.1424
 1999SOL    HW2 7768   3.622   5.688   1.059 -0.0771 -0.9922 -0.4407
 1999SOL    HW3 7769   3.688   5.669   0.924  0.5041  0.5930 -0.3966
 1999SOL    MW4 7770   3.652   5.720   0.984 -0.3573 -0.2022 -0.2153
 2000SOL     OW 7771   4.024   3.361   3.838  0.0566  0.1531  0.1773
 2000SOL    HW2 7772   4.020   3.413   3.919  0.4571 -0.8641  0.8683
 2000SOL    HW3 7773   4.097   3.301   3.852  0.5084  0.3467 -1.1926
 2000SOL    MW4 7774   4.033   3.360   3.851  0.1691  0.0445  0.0877
 2001SOL     OW 7775   0.775   4.335   3.144  0.7919 -0.3297 -0.6511
 2001SOL    HW2 7776   0.775   4.252   3.191 -1.5557  1.2148  2.4246
 2001SOL    HW3 7777   0.862   4.372   3.161  1.0590 -1.1703 -0.1210
 2001SOL    MW4 7778   0.787   4.329   3.152  0.5174 -0.2368 -0.1754
 2002SOL     OW 7779   0.935   3.697   5.865 -0.4487  0.3913  0.3390
 2002SOL    HW2 7780   0.933   3.659   5.952 -1.1484  0.9640  0.5834
 2002SOL    HW3 7781   0.965   3.626   5.808  0.9803  0.2912  1.1700
 2002SOL    MW4 7782   0.939   3.683   5.869 -0.3525  0.4537  0.4809
 2003SOL     OW 7783   1.412   5.109   3.736 -0.0567 -0.5039 -0.2668
 2003SOL    HW2 7784   1.381   5.031   3.689  1.4810  0.1567 -2.5237
 2003SOL    HW3 7785   1.488   5.078   3.786 -0.7856 -0.8897  0.6282
 2003SOL    MW4 7786   1.418   5.094   3.736  0.0500 -0.4677 -0.4465
 2004SOL     OW 7787   1.889   6.293   0.832  0.8365  0.5178  0.0160
 2004SOL    HW2 7788   1.906   6.209   0.874 -1.7361  0.1950  0.5726
 2004SOL    HW3 7789   1.862   6.351   0.904 -0.1260  0.9992 -0.7071
 2004SOL    MW4 7790   1.888   6.290   0.847  0.3701  0.5387 -0.0060
 2005SOL     OW 7791   4.720   2.775   4.509 -0.5832  0.3842 -0.2814
 2005SOL    HW2 7792   4.771   2.845   4.549 -0.6029  0.7127 -0.8155
 2005SOL    HW3 7793   4.786   2.711   4.480 -0.5726  0.1250  0.3053
 2005SOL    MW4 7794   4.736   2.776   4.510 -0.5844  0.3933 -0.2745
 2006SOL     OW 7795   3.497   2.968   5.518 -0.1182  0.1368 -0.5118
 2006SOL    HW2 7796   3.562   2.949   5.585 -1.0803  0.3131  0.4966
 2006SOL    HW3 7797   3.447   3.041   5.553 -0.7505  0.1268 -1.3526
 2006SOL    MW4 7798   3.499   2.975   5.531 -0.3285  0.1587 -0.4897
 2007SOL     OW 7799   2.726   6.080   3.152 -0.1477 -0.1289  0.4723
 2007SOL    HW2 7800   2.686   6.126   3.079  0.1609  1.1266  1.0739
 2007SOL    HW3 7801   2.662   6.013   3.176  0.1290 -1.1943 -1.5156
 2007SOL    MW4 7802   2.712   6.077   3.145 -0.0705 -0.1038  0.2894
 2008SOL     OW 7803   2.976   6.329   3.184  0.3344 -0.0386 -0.4638
 2008SOL    HW2 7804   2.960   6.325   3.278 -2.7629  0.8389 -0.8375
 2008SOL    HW3 7805   2.987   6.238   3.157  0.0585 -0.3882  0.5700
 2008SOL    MW4 7806   2.975   6.317   3.193 -0.1107  0.0310 -0.3767
 2009SOL     OW 7807   3.940   1.434   3.105  0.0355 -0.1338 -0.1197
 2009SOL    HW2 7808   3.857   1.409   3.145 -0.6572  0.2631 -1.2806
 2009SOL    HW3 7809   3.993   1.466   3.179 -0.7115 -0.6807  0.6771
 2009SOL    MW4 7810   3.936   1.434   3.120 -0.1544 -0.1536 -0.1677
 2010SOL     OW 7811   3.347   0.333   2.843 -0.5774  0.3227  0.1378
 2010SOL    HW2 7812   3.392   0.255   2.875 -0.3564  0.5834  0.4603
 2010SOL    HW3 7813   3.256   0.306   2.833 -0.5502  0.1000  0.5005
 2010SOL    MW4 7814   3.341   0.319   2.846 -0.5447  0.3278  0.2282
 2011SOL     OW 7815   1.502   2.882   0.596 -0.2181  0.0386  0.0992
 2011SOL    HW2 7816   1.568   2.894   0.665 -1.1324 -1.4882  1.3055
 2011SOL    HW3 7817   1.535   2.809   0.544 -1.8383 -2.2010  1.9826
 2011SOL    MW4 7818   1.515   2.874   0.599 -0.5525 -0.4584  0.5068
 2012SOL     OW 7819   4.510   4.703   4.814 -0.1501  0.0857 -0.0893
 2012SOL    HW2 7820   4.527   4.649   4.891  2.2337  0.3728 -0.3301
 2012SOL    HW3 7821   4.588   4.757   4.805 -0.4676  0.2517 -2.5414
 2012SOL    MW4 7822   4.522   4.703   4.823  0.1225  0.1455 -0.4446
 2013SOL     OW 7823   2.041   3.407   1.298  0.2289 -0.4073  0.4172
 2013SOL    HW2 7824   2.076   3.421   1.386 -1.2035 -0.9491  1.1155
 2013SOL    HW3 7825   1.983   3.331   1.307 -0.8773  0.2605 -0.7310
 2013SOL    MW4 7826   2.038   3.399   1.311 -0.1060 -0.3907  0.3578
 2014SOL     OW 7827   0.514   0.015   3.861  0.1101  0.1663  0.0428
 2014SOL    HW2 7828   0.572  -0.032   3.921 -1.1834 -0.2565  1.0129
 2014SOL    HW3 7829   0.426  -0.006   3.892 -0.5363  2.4777 -0.0811
 2014SOL    MW4 7830   0.510   0.006   3.873 -0.1459  0.4154  0.1544
 2015SOL     OW 7831   1.191   4.574   2.540  0.2593  0.3235  0.2052
 2015SOL    HW2 7832   1.122   4.638   2.524 -0.1036 -0.2174 -0.4432
 2015SOL    HW3 7833   1.189   4.517   2.463  1.5962  0.4503  0.0543
 2015SOL    MW4 7834   1.182   4.575   2.527  0.3878  0.2688  0.0998
 2016SOL     OW 7835   4.548   3.799   1.628 -0.5035  0.4849  0.5587
 2016SOL    HW2 7836   4.601   3.829   1.554 -0.6748 -1.2882 -0.3328
 2016SOL    HW3 7837   4.516   3.880   1.669  2.4873  1.6420  0.8863
 2016SOL    MW4 7838   4.551   3.814   1.623 -0.1315  0.4036  0.4843
 2017SOL     OW 7839   5.706   2.022   1.044  0.1650 -0.1517 -0.3401
 2017SOL    HW2 7840   5.629   2.055   0.999  0.2052 -1.6429 -1.5750
 2017SOL    HW3 7841   5.680   2.016   1.136 -0.2896  1.8314 -0.2793
 2017SOL    MW4 7842   5.693   2.026   1.050  0.1103 -0.0868 -0.4950
 2018SOL     OW 7843   0.238   1.202   0.492 -0.3535 -0.1345  0.4703
 2018SOL    HW2 7844   0.320   1.200   0.444 -0.8630  1.0309 -0.4916
 2018SOL    HW3 7845   0.250   1.139   0.563  1.0136 -0.6750 -0.2112
 2018SOL    MW4 7846   0.250   1.193   0.495 -0.2404 -0.0520  0.2534
 2019SOL     OW 7847   1.287   0.379   0.397  0.0796 -0.7525 -0.4549
 2019SOL    HW2 7848   1.252   0.450   0.344 -0.3708 -0.0570  0.7347
 2019SOL    HW3 7849   1.379   0.372   0.371 -0.2909 -0.8787 -1.7808
 2019SOL    MW4 7850   1.295   0.387   0.387 -0.0287 -0.6774 -0.4729
 2020SOL     OW 7851   3.088   1.994   4.873 -0.3098 -0.5528  0.0700
 2020SOL    HW2 7852   3.151   1.925   4.892  1.2446  0.2818 -1.6514
 2020SOL    HW3 7853   3.090   2.002   4.777 -1.6982  0.7443  0.1074
 2020SOL    MW4 7854   3.096   1.986   4.863 -0.2879 -0.2716 -0.1522
 2021SOL     OW 7855   5.983   5.060   1.060  0.1352  0.5040 -0.1265
 2021SOL    HW2 7856   5.983   4.999   0.986  1.2061  0.5356 -0.1567
 2021SOL    HW3 7857   6.006   5.145   1.022  2.9327  0.1306  0.5114
 2021SOL    MW4 7858   5.986   5.063   1.045  0.6456  0.4589 -0.0463
 2022SOL     OW 7859   2.188   2.107   1.852  0.5150  0.0008  0.8204
 2022SOL    HW2 7860   2.101   2.074   1.829  1.0032 -1.5285  1.0344
 2022SOL    HW3 7861   2.247   2.036   1.827  1.6867  0.9354  0.8789
 2022SOL    MW4 7862   2.184   2.093   1.846  0.7340 -0.0777  0.8563
 2023SOL     OW 7863   3.325   0.650   1.738  0.3930  0.4159 -0.2247
 2023SOL    HW2 7864   3.380   0.725   1.761 -0.4609  0.9335  0.1680
 2023SOL    HW3 7865   3.270   0.635   1.815 -0.2701  0.1356 -0.7407
 2023SOL    MW4 7866   3.325   0.658   1.751  0.1928  0.4472 -0.2410
 2024SOL     OW 7867   5.961   4.210   2.166 -0.1379  0.1472  0.0540
 2024SOL    HW2 7868   5.897   4.146   2.135 -0.9107  0.5676  0.7714
 2024SOL    HW3 7869   6.044   4.162   2.166 -0.4154 -0.3702 -0.9719
 2024SOL    MW4 7870   5.964   4.195   2.162 -0.2765  0.1344  0.0133
 2025SOL     OW 7871   4.348   1.680   3.650 -0.5390 -0.0553  0.4121
 2025SOL    HW2 7872   4.333   1.727   3.733 -1.0003 -1.6249  1.2513
 2025SOL    HW3 7873   4.263   1.681   3.607 -0.4785  0.1054  0.2932
 2025SOL    MW4 7874   4.335   1.687   3.655 -0.5919 -0.2412  0.5071
 2026SOL     OW 7875   0.328   6.096   1.598  0.0646  0.4103 -0.2056
 2026SOL    HW2 7876   0.393   6.027   1.584  1.0664  1.4044 -0.5551
 2026SOL    HW3 7877   0.324   6.106   1.693  1.7841  1.5760 -0.2191
 2026SOL    MW4 7878   0.336   6.088   1.609  0.4237  0.6952 -0.2535
 2027SOL     OW 7879   1.430   0.741   4.752  0.0494 -0.2205 -0.1065
 2027SOL    HW2 7880   1.386   0.819   4.788 -0.0870  0.2580 -1.2560
 2027SOL    HW3 7881   1.359   0.680   4.734 -0.2282  0.5785 -2.0273
 2027SOL    MW4 7882   1.415   0.743   4.755 -0.0052 -0.0520 -0.5116
 2028SOL     OW 7883   6.234   0.452   5.780 -0.0002  0.0924 -0.0360
 2028SOL    HW2 7884   6.241   0.537   5.737 -0.6260  1.5364  2.5271
 2028SOL    HW3 7885   6.141   0.430   5.775 -0.1481  0.4659  0.8524
 2028SOL    MW4 7886   6.223   0.460   5.774 -0.1023  0.3322  0.4194
 2029SOL     OW 7887   0.953   4.644   0.328 -0.2759  0.4835  0.4385
 2029SOL    HW2 7888   0.864   4.659   0.361 -0.8338  1.0512 -1.2243
 2029SOL    HW3 7889   0.950   4.674   0.238  1.7451  0.9246  0.4793
 2029SOL    MW4 7890   0.941   4.650   0.321 -0.0828  0.6166  0.2245
 2030SOL     OW 7891   0.039   5.455   1.340 -0.0963 -0.2745 -0.0724
 2030SOL    HW2 7892   0.104   5.428   1.275 -0.3754 -1.0371 -0.0534
 2030SOL    HW3 7893   0.081   5.437   1.424  0.1613  0.4597 -0.0360
 2030SOL    MW4 7894   0.053   5.449   1.343 -0.0991 -0.2783 -0.0651
 2031SOL     OW 7895   4.818   1.228   1.874  0.5334 -0.6709  0.5065
 2031SOL    HW2 7896   4.856   1.145   1.901  2.3176  0.0021  0.1963
 2031SOL    HW3 7897   4.863   1.250   1.792 -0.8178 -0.0015 -0.0930
 2031SOL    MW4 7898   4.829   1.220   1.867  0.5905 -0.4938  0.3865
 2032SOL     OW 7899   1.435   5.689   4.734  0.9553 -0.0365 -0.2096
 2032SOL    HW2 7900   1.445   5.609   4.787  3.1230  1.0122  1.1085
 2032SOL    HW3 7901   1.524   5.712   4.707  0.1562  0.8247 -2.3518
 2032SOL    MW4 7902   1.448   5.681   4.738  1.1358  0.2155 -0.3184
 2033SOL     OW 7903   5.990   5.261   3.049  0.0038 -0.6052  0.2140
 2033SOL    HW2 7904   5.923   5.208   3.092 -1.1405  0.8752  0.3581
 2033SOL    HW3 7905   6.036   5.304   3.121  1.6344 -2.1363  0.1553
 2033SOL    MW4 7906   5.987   5.260   3.064  0.0680 -0.6119  0.2253
 2034SOL     OW 7907   2.466   4.618   5.509 -0.7875  0.9157 -0.2168
 2034SOL    HW2 7908   2.522   4.650   5.581 -1.4180  0.6369  0.4104
 2034SOL    HW3 7909   2.526   4.567   5.454 -0.2680  1.2316  0.0414
 2034SOL    MW4 7910   2.481   4.615   5.511 -0.8021  0.9206 -0.1000
 2035SOL     OW 7911   0.663   6.350   0.595  0.4794  0.6218  0.1504
 2035SOL    HW2 7912   0.675   6.282   0.662  1.1004 -0.1856 -0.7503
 2035SOL    HW3 7913   0.600   6.411   0.633  0.0505 -0.3633  1.0553
 2035SOL    MW4 7914   0.656   6.349   0.609  0.5047  0.3853  0.1510
 2036SOL     OW 7915   3.652   5.344   4.439  0.6369  0.0903 -0.2110
 2036SOL    HW2 7916   3.596   5.416   4.407  0.3245  0.9865  2.1222
 2036SOL    HW3 7917   3.713   5.328   4.367 -1.2659  0.5057 -2.0478
 2036SOL    MW4 7918   3.653   5.352   4.425  0.3446  0.2633 -0.1455
 2037SOL     OW 7919   6.014   5.100   0.127  0.0495  0.2334 -0.3125
 2037SOL    HW2 7920   5.923   5.075   0.117 -0.2282  0.4504  1.3697
 2037SOL    HW3 7921   6.042   5.058   0.208  1.4856  0.0722 -0.8645
 2037SOL    MW4 7922   6.006   5.091   0.137  0.2023  0.2408 -0.1634
 2038SOL     OW 7923   3.026   1.620   1.178  0.0615  1.0585  0.1393
 2038SOL    HW2 7924   3.080   1.603   1.254 -2.0211  3.1540  2.2692
 2038SOL    HW3 7925   2.960   1.551   1.179  1.4641 -0.3803 -1.3373
 2038SOL    MW4 7926   3.024   1.609   1.188 -0.0282  1.1451  0.2255
 2039SOL     OW 7927   2.764   4.849   4.785 -0.3021 -0.2257  0.1107
 2039SOL    HW2 7928   2.723   4.777   4.832  1.4367 -1.4058 -0.1003
 2039SOL    HW3 7929   2.696   4.878   4.723 -0.4130 -3.0816 -1.2815
 2039SOL    MW4 7930   2.749   4.843   4.783 -0.0873 -0.7582 -0.1008
 2040SOL     OW 7931   2.676   1.341   4.383 -0.1658  0.5408 -0.2595
 2040SOL    HW2 7932   2.612   1.315   4.449 -0.1954  1.0184 -0.0973
 2040SOL    HW3 7933   2.634   1.411   4.334  0.5186  1.4079  0.3573
 2040SOL    MW4 7934   2.662   1.347   4.385 -0.0794  0.7182 -0.1567
 2041SOL     OW 7935   4.248   3.037   3.481  0.8653 -0.0754 -0.0809
 2041SOL    HW2 7936   4.186   3.106   3.458 -0.5104 -1.0421  0.6050
 2041SOL    HW3 7937   4.328   3.085   3.506 -0.1832  1.3146  0.7982
 2041SOL    MW4 7938   4.250   3.052   3.481  0.5454 -0.0196  0.1255
 2042SOL     OW 7939   5.096   5.235   6.019 -0.0900  0.2350 -0.4649
 2042SOL    HW2 7940   5.084   5.206   6.110 -0.4628  0.4830 -0.4336
 2042SOL    HW3 7941   5.190   5.226   6.004  0.1528  1.2452  0.3162
 2042SOL    MW4 7942   5.107   5.230   6.029 -0.1071  0.4010 -0.3577
 2043SOL     OW 7943   3.683   1.722   1.965 -0.5039 -0.2764  0.4565
 2043SOL    HW2 7944   3.696   1.707   1.872 -0.6326  1.8335  0.0375
 2043SOL    HW3 7945   3.766   1.699   2.006 -0.2420 -0.6066 -0.2555
 2043SOL    MW4 7946   3.695   1.717   1.958 -0.4863 -0.0416  0.3073
 2044SOL     OW 7947   3.095   4.010   2.862  0.3804 -0.2921  0.1465
 2044SOL    HW2 7948   3.110   4.080   2.925  1.4918 -1.2206  0.9555
 2044SOL    HW3 7949   3.027   3.956   2.902 -0.8298  0.5495 -0.6987
 2044SOL    MW4 7950   3.088   4.012   2.875  0.3674 -0.3036  0.1417
 2045SOL     OW 7951   2.092   0.775   5.849  0.1847 -0.2563  0.4529
 2045SOL    HW2 7952   2.139   0.733   5.777 -1.3251 -0.2083 -0.5927
 2045SOL    HW3 7953   2.026   0.711   5.875  0.9024 -0.4097  2.0535
 2045SOL    MW4 7954   2.090   0.761   5.843  0.0802 -0.2702  0.5262
 2046SOL     OW 7955   3.978   0.780   1.138 -0.1471 -0.3292 -0.1493
 2046SOL    HW2 7956   4.027   0.717   1.085 -0.4374 -0.6460 -0.0430
 2046SOL    HW3 7957   4.043   0.845   1.165 -0.0650  0.0505 -1.2132
 2046SOL    MW4 7958   3.993   0.780   1.134 -0.1746 -0.3209 -0.2757
 2047SOL     OW 7959   1.117   5.428   0.570  0.1911 -0.7276 -0.1970
 2047SOL    HW2 7960   1.172   5.444   0.647 -1.0406  1.6991  0.2818
 2047SOL    HW3 7961   1.142   5.496   0.508 -1.8696  0.1671 -0.1416
 2047SOL    MW4 7962   1.128   5.439   0.572 -0.2433 -0.2894 -0.1265
 2048SOL     OW 7963   4.970   4.877   3.211 -0.1170 -0.2230 -0.4128
 2048SOL    HW2 7964   5.004   4.818   3.278 -1.2682  0.9875  1.3090
 2048SOL    HW3 7965   4.936   4.818   3.143 -0.6357 -1.5399  0.9270
 2048SOL    MW4 7966   4.970   4.861   3.211 -0.3373 -0.2370 -0.0089
 2049SOL     OW 7967   4.289   4.957   1.823  0.1643  0.2045  0.1275
 2049SOL    HW2 7968   4.355   4.911   1.772  1.0252  1.0594  0.4511
 2049SOL    HW3 7969   4.207   4.911   1.803  0.9223 -1.1970  0.1335
 2049SOL    MW4 7970   4.287   4.945   1.813  0.3779  0.1324  0.1710
 2050SOL     OW 7971   4.957   4.518   4.782  0.5903 -0.4521 -0.0990
 2050SOL    HW2 7972   4.963   4.573   4.704  0.1262 -1.1333 -0.6261
 2050SOL    HW3 7973   4.911   4.439   4.752  3.3682 -2.2737 -0.0253
 2050SOL    MW4 7974   4.952   4.515   4.767  0.8956 -0.7823 -0.1588
 2051SOL     OW 7975   2.626   0.259   3.405 -0.2738 -0.2496  0.0688
 2051SOL    HW2 7976   2.566   0.241   3.332  0.5606 -1.3593 -0.3883
 2051SOL    HW3 7977   2.581   0.324   3.458 -1.3470 -0.1618 -0.9041
 2051SOL    MW4 7978   2.612   0.265   3.403 -0.3053 -0.3844 -0.1199
 2052SOL     OW 7979   3.995   0.630   2.509  0.3182  0.4199 -0.1973
 2052SOL    HW2 7980   4.068   0.584   2.468  0.2277  0.0256  0.0768
 2052SOL    HW3 7981   3.992   0.596   2.599  1.3961  2.2873  0.5959
 2052SOL    MW4 7982   4.004   0.620   2.516  0.4485  0.6143 -0.0565
 2053SOL     OW 7983   3.681   4.794   0.531 -0.3915 -0.1108  0.5109
 2053SOL    HW2 7984   3.753   4.794   0.594 -0.1060  0.6926  0.1944
 2053SOL    HW3 7985   3.670   4.885   0.507 -0.7540 -0.3668 -0.3198
 2053SOL    MW4 7986   3.689   4.806   0.536 -0.4016 -0.0386  0.3595
 2054SOL     OW 7987   5.457   5.182   3.058  0.0224 -0.6158 -0.1829
 2054SOL    HW2 7988   5.419   5.144   3.137 -2.2843  0.1026 -0.8523
 2054SOL    HW3 7989   5.447   5.276   3.069  2.7226 -0.2726  0.0440
 2054SOL    MW4 7990   5.451   5.189   3.070  0.0743 -0.4758 -0.2413
 2055SOL     OW 7991   6.391   5.280   5.555  0.4669 -0.2378  0.2666
 2055SOL    HW2 7992   6.435   5.304   5.473  0.6773 -0.7972  0.2044
 2055SOL    HW3 7993   6.301   5.261   5.530 -0.2030  2.2273  0.6073
 2055SOL    MW4 7994   6.385   5.280   5.541  0.4063  0.0136  0.3033
 2056SOL     OW 7995   1.749   3.497   3.182  0.2679 -0.3000 -0.4807
 2056SOL    HW2 7996   1.719   3.567   3.125 -0.0605 -0.8706 -1.0252
 2056SOL    HW3 7997   1.692   3.502   3.259  0.6277  0.3877 -0.2551
 2056SOL    MW4 7998   1.738   3.507   3.185  0.2721 -0.2846 -0.5228
 2057SOL     OW 7999   5.318   2.263   3.218  0.3091  0.5758  0.2331
 2057SOL    HW2 8000   5.359   2.334   3.267  0.0230 -0.6178  2.3615
 2057SOL    HW3 8001   5.319   2.189   3.279  1.3580 -1.5136 -2.1715
 2057SOL    MW4 8002   5.323   2.262   3.233  0.4097  0.1426  0.1966
 2058SOL     OW 8003   1.172   1.978   4.080  0.0989  0.6297 -1.3097
 2058SOL    HW2 8004   1.186   2.058   4.131  0.1678  0.4921 -1.1134
 2058SOL    HW3 8005   1.079   1.958   4.093  0.6691 -0.9275  1.0095
 2058SOL    MW4 8006   1.161   1.986   4.089  0.1832  0.4061 -0.9778
 2059SOL     OW 8007   3.802   4.522   6.053  0.1222  0.8913 -0.8418
 2059SOL    HW2 8008   3.809   4.552   5.963 -0.0981  1.3578 -0.7048
 2059SOL    HW3 8009   3.880   4.557   6.096  1.8456 -1.8065 -1.5216
 2059SOL    MW4 8010   3.813   4.531   6.047  0.3205  0.5969 -0.9134
 2060SOL     OW 8011   3.756   2.785   2.232 -0.1704 -0.5516 -0.2371
 2060SOL    HW2 8012   3.673   2.765   2.189 -0.9907  2.2738 -0.1272
 2060SOL    HW3 8013   3.732   2.819   2.318  1.2108 -1.2494  0.4607
 2060SOL    MW4 8014   3.742   2.787   2.237 -0.0964 -0.2709 -0.1305
 2061SOL     OW 8015   2.574   4.637   3.300 -0.1971  0.1364  0.1923
 2061SOL    HW2 8016   2.618   4.581   3.364 -0.7297 -1.0829 -0.4568
 2061SOL    HW3 8017   2.608   4.725   3.316  1.9584 -0.6337  0.1776
 2061SOL    MW4 8018   2.584   4.641   3.310  0.0171 -0.1261  0.1047
 2062SOL     OW 8019   4.667   3.037   1.044  0.3192  0.3725 -0.3098
 2062SOL    HW2 8020   4.754   3.037   1.084  0.2838  1.5845 -0.1721
 2062SOL    HW3 8021   4.661   3.124   1.003 -0.6206  0.0967 -0.7644
 2062SOL    MW4 8022   4.678   3.049   1.044  0.1905  0.4960 -0.3516
 2063SOL     OW 8023   3.109   3.422   5.845 -0.3917  0.1150 -0.6574
 2063SOL    HW2 8024   3.158   3.340   5.855  1.3875  1.1899 -0.2681
 2063SOL    HW3 8025   3.108   3.438   5.751  0.2357  0.2107 -0.6506
 2063SOL    MW4 8026   3.115   3.413   5.834 -0.0742  0.2695 -0.6051
 2064SOL     OW 8027   0.449   3.509   1.126 -0.0348 -0.2275  0.4607
 2064SOL    HW2 8028   0.467   3.415   1.133 -0.4968 -0.2965  0.7438
 2064SOL    HW3 8029   0.486   3.533   1.041 -0.1471 -0.7200  0.2655
 2064SOL    MW4 8030   0.456   3.500   1.116 -0.1105 -0.3016  0.4723
 2065SOL     OW 8031   1.855   4.677   6.043 -0.3501 -0.2287 -0.2763
 2065SOL    HW2 8032   1.869   4.684   5.948  0.5250 -0.2797 -0.1574
 2065SOL    HW3 8033   1.787   4.611   6.052  0.0731 -0.7588 -0.8461
 2065SOL    MW4 8034   1.848   4.670   6.032 -0.1788 -0.3054 -0.3358
 2066SOL     OW 8035   2.528   1.693   6.361 -0.3029 -0.1626  0.1465
 2066SOL    HW2 8036   2.495   1.730   6.443 -0.7640 -0.5987  0.1697
 2066SOL    HW3 8037   2.581   1.618   6.388  1.4393  1.0213  0.1529
 2066SOL    MW4 8038   2.530   1.688   6.375 -0.1339 -0.0639  0.1504
 2067SOL     OW 8039   4.005   4.954   1.451 -0.0146  0.5018  0.0210
 2067SOL    HW2 8040   4.094   4.920   1.446 -0.1439  0.1041  0.3621
 2067SOL    HW3 8041   3.997   4.989   1.540  0.3454  2.0944 -0.5436
 2067SOL    MW4 8042   4.016   4.954   1.462  0.0158  0.6594 -0.0085
 2068SOL     OW 8043   0.073   5.610   6.380  0.2876  0.3137  0.1224
 2068SOL    HW2 8044   0.108   5.663   6.452  0.3849  1.7448 -0.9304
 2068SOL    HW3 8045   0.150   5.589   6.327 -0.0674  1.3769 -0.8645
 2068SOL    MW4 8046   0.088   5.614   6.383  0.2536  0.6428 -0.1467
 2069SOL     OW 8047   3.934   2.802   0.722  0.3993 -0.2101  0.5956
 2069SOL    HW2 8048   3.843   2.831   0.735  0.4398 -0.7608  2.3805
 2069SOL    HW3 8049   3.982   2.883   0.707 -0.4761  0.0306 -1.1578
 2069SOL    MW4 8050   3.928   2.817   0.722  0.2891 -0.2510  0.5997
 2070SOL     OW 8051   1.898   2.860   3.691  0.3736  0.1495 -0.2700
 2070SOL    HW2 8052   1.914   2.851   3.597  1.7925  1.7171 -0.2299
 2070SOL    HW3 8053   1.850   2.942   3.700 -1.1512 -0.7690  0.2780
 2070SOL    MW4 8054   1.894   2.869   3.680  0.3596  0.2352 -0.1924
 2071SOL     OW 8055   4.964   0.349   4.409  0.0601  0.5711  0.3200
 2071SOL    HW2 8056   5.007   0.263   4.415  0.3737  0.5538 -1.6324
 2071SOL    HW3 8057   4.923   0.349   4.323 -3.6444  0.7418  1.9177
 2071SOL    MW4 8058   4.964   0.338   4.398 -0.3873  0.5913  0.2732
 2072SOL     OW 8059   0.602   2.359   0.766  0.5202 -0.3462  0.6690
 2072SOL    HW2 8060   0.605   2.385   0.858 -0.1600 -0.4449  0.7246
 2072SOL    HW3 8061   0.536   2.416   0.727 -0.7758 -1.7306  0.7229
 2072SOL    MW4 8062   0.593   2.370   0.773  0.2594 -0.5418  0.6834
 2073SOL     OW 8063   5.116   3.330   1.699 -0.2339  0.0613 -0.2495
 2073SOL    HW2 8064   5.061   3.338   1.777 -1.3486 -2.3993 -0.6800
 2073SOL    HW3 8065   5.176   3.258   1.719 -0.2037 -0.2723 -1.4527
 2073SOL    MW4 8066   5.116   3.322   1.712 -0.3770 -0.3074 -0.4651
 2074SOL     OW 8067   3.689   4.150   6.378  0.3838  0.1043 -0.5809
 2074SOL    HW2 8068   3.671   4.204   6.301  1.2072 -1.4372 -1.9307
 2074SOL    HW3 8069   3.645   4.195   6.450  0.0927  1.9269 -1.8301
 2074SOL    MW4 8070   3.681   4.163   6.377  0.4540  0.1414 -0.9238
 2075SOL     OW 8071   5.524   0.077   0.809  0.0481 -0.1675  0.1127
 2075SOL    HW2 8072   5.499  -0.008   0.847  1.3881 -1.0674 -0.9215
 2075SOL    HW3 8073   5.480   0.142   0.865 -0.7034 -1.5207  1.1615
 2075SOL    MW4 8074   5.515   0.074   0.822  0.1257 -0.4648  0.1146
 2076SOL     OW 8075   6.080   0.458   3.342 -0.3099 -0.0541 -0.3775
 2076SOL    HW2 8076   6.097   0.427   3.253  2.5749  1.7921 -0.6194
 2076SOL    HW3 8077   5.985   0.463   3.348 -0.6063  0.5089 -3.6553
 2076SOL    MW4 8078   6.070   0.455   3.331  0.0316  0.2638 -0.8419
 2077SOL     OW 8079   4.161   0.890   2.312  0.1001  0.4754  0.1318
 2077SOL    HW2 8080   4.220   0.934   2.251  0.0445 -0.5755 -0.6951
 2077SOL    HW3 8081   4.073   0.917   2.284  0.0620 -0.2148 -0.4293
 2077SOL    MW4 8082   4.157   0.900   2.300  0.0878  0.2457 -0.0513
 2078SOL     OW 8083   0.460   4.699   2.317  0.9050 -0.2469 -0.0543
 2078SOL    HW2 8084   0.476   4.793   2.324 -2.3560  0.4626 -0.7701
 2078SOL    HW3 8085   0.461   4.668   2.408  2.6813  0.2673  0.1505
 2078SOL    MW4 8086   0.462   4.707   2.330  0.7091 -0.0854 -0.1217
 2079SOL     OW 8087   1.173   4.830   3.212 -0.3321 -0.1023 -0.8369
 2079SOL    HW2 8088   1.144   4.781   3.135 -1.1507  0.2091 -0.7323
 2079SOL    HW3 8089   1.093   4.868   3.248 -0.2742 -1.7742  1.2853
 2079SOL    MW4 8090   1.159   4.828   3.207 -0.4324 -0.2818 -0.5431
 2080SOL     OW 8091   5.945   0.458   5.837 -0.3043 -0.2216  0.7524
 2080SOL    HW2 8092   5.866   0.511   5.825  1.2789  2.4520  1.4556
 2080SOL    HW3 8093   5.965   0.467   5.930  1.6682  0.4669  0.3009
 2080SOL    MW4 8094   5.937   0.466   5.848  0.1648  0.2220  0.7856
 2081SOL     OW 8095   4.485   2.833   4.035 -0.2390 -0.1776 -0.2402
 2081SOL    HW2 8096   4.419   2.901   4.044 -0.0369  0.4891 -2.9525
 2081SOL    HW3 8097   4.554   2.858   4.097 -1.5163  0.3113  1.0473
 2081SOL    MW4 8098   4.485   2.845   4.044 -0.3809 -0.0251 -0.4282
 2082SOL     OW 8099   0.395   0.603   2.250  0.7949  0.5048 -0.1352
 2082SOL    HW2 8100   0.420   0.694   2.268  0.5160  0.2378  1.7768
 2082SOL    HW3 8101   0.424   0.555   2.327 -0.0327 -0.8604 -0.6519
 2082SOL    MW4 8102   0.402   0.609   2.262  0.6489  0.2894  0.0489
 2083SOL     OW 8103   1.920   0.759   4.123 -0.1443 -0.3554  0.5708
 2083SOL    HW2 8104   1.883   0.697   4.061  0.8164 -0.2188 -0.1659
 2083SOL    HW3 8105   1.987   0.710   4.171 -0.3172 -0.2441  0.9343
 2083SOL    MW4 8106   1.924   0.745   4.121 -0.0404 -0.3227  0.5216
 2084SOL     OW 8107   3.064   1.853   5.283 -0.4605 -0.4700  0.2019
 2084SOL    HW2 8108   2.974   1.843   5.253 -0.7026  2.2197 -0.2560
 2084SOL    HW3 8109   3.081   1.947   5.277  2.2538 -0.8355  0.6697
 2084SOL    MW4 8110   3.055   1.864   5.278 -0.1343 -0.1633  0.2032
 2085SOL     OW 8111   4.117   4.479   1.779 -0.5724  0.0487 -0.1602
 2085SOL    HW2 8112   4.082   4.483   1.868 -1.3798  0.5797 -0.4882
 2085SOL    HW3 8113   4.212   4.485   1.790 -0.6798  0.3319  0.6567
 2085SOL    MW4 8114   4.125   4.480   1.792 -0.6931  0.1561 -0.0957
 2086SOL     OW 8115   1.215   4.081   1.563 -0.4342  0.4499  0.0325
 2086SOL    HW2 8116   1.250   4.002   1.521 -1.7712 -0.6771  0.9513
 2086SOL    HW3 8117   1.292   4.131   1.589  0.4836 -1.1429  0.4969
 2086SOL    MW4 8118   1.230   4.077   1.561 -0.4895  0.0911  0.2150
 2087SOL     OW 8119   4.157   2.749   4.861 -0.2737 -0.0647 -0.3882
 2087SOL    HW2 8120   4.251   2.727   4.861 -0.1476  0.4484 -1.0087
 2087SOL    HW3 8121   4.120   2.695   4.792 -0.0342  1.2912 -1.6389
 2087SOL    MW4 8122   4.165   2.739   4.852 -0.2255  0.1819 -0.6351
 2088SOL     OW 8123   6.333   4.148   2.682  0.1498 -0.0668 -0.0516
 2088SOL    HW2 8124   6.335   4.056   2.656 -0.2577 -0.1853  0.3323
 2088SOL    HW3 8125   6.274   4.190   2.620 -0.0047 -0.1475  0.0413
 2088SOL    MW4 8126   6.326   4.142   2.670  0.0756 -0.0931  0.0113
 2089SOL     OW 8127   5.576   2.642   5.828  0.1390  0.4552  0.3307
 2089SOL    HW2 8128   5.527   2.657   5.909 -2.0839 -3.2437 -0.0806
 2089SOL    HW3 8129   5.655   2.596   5.856  0.3653  0.9450  0.5158
 2089SOL    MW4 8130   5.580   2.638   5.843 -0.1244  0.0318  0.3008
 2090SOL     OW 8131   6.224   0.954   4.921  0.1579  0.1474  0.4376
 2090SOL    HW2 8132   6.131   0.935   4.909  0.5206 -1.0770 -0.7037
 2090SOL    HW3 8133   6.227   1.045   4.951 -1.3589  0.4228 -0.1783
 2090SOL    MW4 8134   6.212   0.964   4.923  0.0056  0.0222  0.2057
 2091SOL     OW 8135   6.075   0.054   5.006  0.4388  0.1970 -0.0430
 2091SOL    HW2 8136   5.980   0.053   5.019  0.5744 -1.1660  1.0157
 2091SOL    HW3 8137   6.111   0.088   5.088  0.9141 -0.4582  0.0301
 2091SOL    MW4 8138   6.067   0.058   5.018  0.5194 -0.0693  0.1063
 2092SOL     OW 8139   1.284   1.414   3.317 -0.2921 -0.3053  0.0180
 2092SOL    HW2 8140   1.189   1.412   3.317 -0.3179  0.5986 -0.1891
 2092SOL    HW3 8141   1.308   1.424   3.409 -0.3944 -0.4620  0.0626
 2092SOL    MW4 8142   1.275   1.415   3.329 -0.3090 -0.2067 -0.0035
 2093SOL     OW 8143   5.137   4.705   5.434 -0.2458  0.0034 -0.0282
 2093SOL    HW2 8144   5.175   4.744   5.513 -0.4301  1.1691 -0.4847
 2093SOL    HW3 8145   5.199   4.728   5.365  0.7022 -2.3138 -0.0172
 2093SOL    MW4 8146   5.150   4.713   5.435 -0.1451 -0.1485 -0.0870
 2094SOL     OW 8147   4.770   3.860   5.171 -0.2950  0.2514  0.1486
 2094SOL    HW2 8148   4.808   3.834   5.256  0.0445 -0.9048 -0.3379
 2094SOL    HW3 8149   4.730   3.945   5.188  0.5844  0.4701  1.2429
 2094SOL    MW4 8150   4.770   3.868   5.185 -0.1342  0.1277  0.2288
 2095SOL     OW 8151   4.965   6.327   5.853  0.0559  0.3823 -0.1278
 2095SOL    HW2 8152   5.032   6.363   5.796 -0.4430  1.7059  0.0813
 2095SOL    HW3 8153   5.002   6.334   5.941 -0.5484  1.6835  0.0544
 2095SOL    MW4 8154   4.978   6.333   5.857 -0.0896  0.7286 -0.0762
 2096SOL     OW 8155   2.510   3.574   2.337 -0.3543 -0.1515 -0.5744
 2096SOL    HW2 8156   2.451   3.637   2.378  0.0496 -0.1618  0.0347
 2096SOL    HW3 8157   2.459   3.493   2.333 -0.7982  0.1502 -1.1638
 2096SOL    MW4 8158   2.496   3.572   2.342 -0.3596 -0.1131 -0.5718
 2097SOL     OW 8159   2.395   4.510   4.716 -0.3790  0.5704  0.1124
 2097SOL    HW2 8160   2.353   4.587   4.755 -0.2478  0.1478  1.1142
 2097SOL    HW3 8161   2.339   4.488   4.642 -0.8489  1.1683  0.2754
 2097SOL    MW4 8162   2.382   4.518   4.712 -0.4237  0.5935  0.2661
 2098SOL     OW 8163   2.732   2.940   4.895 -0.2830  0.0698 -0.0390
 2098SOL    HW2 8164   2.791   2.884   4.845  0.9551 -1.2812  2.7266
 2098SOL    HW3 8165   2.646   2.925   4.855  0.7771  0.0255 -2.4597
 2098SOL    MW4 8166   2.728   2.930   4.883  0.0202 -0.1143  0.0065
 2099SOL     OW 8167   0.829   4.668   4.531 -0.1551 -0.2315  0.1453
 2099SOL    HW2 8168   0.766   4.601   4.504  0.1586  0.1145 -1.5431
 2099SOL    HW3 8169   0.909   4.646   4.485  0.7152 -0.1137  1.5317
 2099SOL    MW4 8170   0.831   4.656   4.522  0.0011 -0.1703  0.1054
 2100SOL     OW 8171   5.103   2.186   4.425  0.1034 -0.1837 -0.4625
 2100SOL    HW2 8172   5.171   2.128   4.391  2.0615  1.1706  1.0033
 2100SOL    HW3 8173   5.038   2.126   4.462  1.7559 -1.4920  0.4529
 2100SOL    MW4 8174   5.103   2.170   4.425  0.5797 -0.1776 -0.1484
 2101SOL     OW 8175   3.661   2.438   5.632 -0.5339  0.0523  0.0773
 2101SOL    HW2 8176   3.665   2.476   5.720  0.3572  0.1410  0.0036
 2101SOL    HW3 8177   3.701   2.504   5.575 -0.7677 -0.1621 -0.3432
 2101SOL    MW4 8178   3.667   2.452   5.636 -0.4471  0.0357  0.0121
 2102SOL     OW 8179   4.999   3.236   4.283 -0.1568 -0.1112 -0.2988
 2102SOL    HW2 8180   4.930   3.208   4.344 -0.1196 -0.7599 -0.5522
 2102SOL    HW3 8181   4.954   3.290   4.219 -0.4004 -0.3671 -0.3467
 2102SOL    MW4 8182   4.984   3.239   4.283 -0.1841 -0.2305 -0.3386
 2103SOL     OW 8183   6.096   5.037   4.937  0.4677  0.6154 -0.0983
 2103SOL    HW2 8184   6.159   4.986   4.987  1.2233  1.0115 -0.6267
 2103SOL    HW3 8185   6.026   4.975   4.916 -0.5581  0.7532  2.5715
 2103SOL    MW4 8186   6.095   5.022   4.941  0.4321  0.6858  0.1842
 2104SOL     OW 8187   4.587   3.555   2.228 -0.8700  0.1697  0.1945
 2104SOL    HW2 8188   4.550   3.515   2.149 -1.8788 -0.4206  0.9470
 2104SOL    HW3 8189   4.637   3.486   2.269  0.5287  0.7688 -0.4405
 2104SOL    MW4 8190   4.588   3.541   2.223 -0.8186  0.1708  0.2100
 2105SOL     OW 8191   1.508   2.303   6.205  0.3111  0.5846 -0.3814
 2105SOL    HW2 8192   1.498   2.257   6.122  0.9835  1.1104 -0.7643
 2105SOL    HW3 8193   1.597   2.281   6.235 -0.0809  0.0388  0.4288
 2105SOL    MW4 8194   1.518   2.294   6.198  0.3481  0.5820 -0.3250
 2106SOL     OW 8195   6.320   3.719   2.303 -0.3787 -0.2213  0.2937
 2106SOL    HW2 8196   6.320   3.640   2.357 -1.2925 -0.5413 -0.1581
 2106SOL    HW3 8197   6.277   3.692   2.221  1.2872  0.1475 -0.7553
 2106SOL    MW4 8198   6.314   3.705   2.299 -0.2795 -0.2149  0.0957
 2107SOL     OW 8199   1.311   0.927   4.900  0.5499  0.4786 -0.5210
 2107SOL    HW2 8200   1.307   1.006   4.955 -0.2637  0.0678  0.0295
 2107SOL    HW3 8201   1.270   0.859   4.953  0.2943 -0.0734 -1.4087
 2107SOL    MW4 8202   1.305   0.929   4.915  0.4088  0.3515 -0.5655
 2108SOL     OW 8203   1.550   1.669   5.404 -0.1567 -0.4036  0.3910
 2108SOL    HW2 8204   1.462   1.658   5.440  0.2643 -2.1357  0.9894
 2108SOL    HW3 8205   1.608   1.638   5.474  0.9997  1.4950  0.3380
 2108SOL    MW4 8206   1.546   1.663   5.418  0.0514 -0.3817  0.4630
 2109SOL     OW 8207   4.464   3.749   2.592  0.1463  0.4089 -0.0725
 2109SOL    HW2 8208   4.491   3.763   2.682 -1.0751  0.2008  0.3441
 2109SOL    HW3 8209   4.372   3.722   2.598 -0.6476  2.4993 -1.4667
 2109SOL    MW4 8210   4.455   3.748   2.604 -0.1196  0.6572 -0.2015
 2110SOL     OW 8211   2.697   5.477   0.480  0.1443  0.5009  0.3602
 2110SOL    HW2 8212   2.713   5.552   0.423 -0.5894 -0.7232 -1.5464
 2110SOL    HW3 8213   2.716   5.510   0.568 -0.2781  2.9344 -0.3806
 2110SOL    MW4 8214   2.702   5.491   0.484 -0.0082  0.6605  0.0109
 2111SOL     OW 8215   4.511   0.425   5.740 -0.0921  0.4006 -0.1979
 2111SOL    HW2 8216   4.575   0.362   5.707 -1.6225 -1.5226  0.3083
 2111SOL    HW3 8217   4.523   0.426   5.835  0.5066  1.5917 -0.2635
 2111SOL    MW4 8218   4.521   0.417   5.748 -0.2150  0.3040 -0.1397
 2112SOL     OW 8219   2.718   5.710   4.905  0.0401  0.2237 -0.1649
 2112SOL    HW2 8220   2.731   5.797   4.944  2.3821 -0.5335  0.9196
 2112SOL    HW3 8221   2.651   5.669   4.960  0.1452  0.7405  0.3616
 2112SOL    MW4 8222   2.710   5.716   4.918  0.3630  0.1920  0.0477
 2113SOL     OW 8223   2.078   5.611   5.534  0.6067  0.0417  0.3215
 2113SOL    HW2 8224   1.999   5.559   5.526  0.8136 -0.0978 -0.9762
 2113SOL    HW3 8225   2.051   5.700   5.513  1.1053 -0.2846 -1.8818
 2113SOL    MW4 8226   2.064   5.616   5.530  0.6998 -0.0197 -0.1404
 2114SOL     OW 8227   5.777   6.312   0.312  0.5109 -0.4087 -0.0200
 2114SOL    HW2 8228   5.861   6.342   0.347  0.8595  0.9567 -1.8390
 2114SOL    HW3 8229   5.797   6.230   0.268  0.5451 -0.8926  0.8658
 2114SOL    MW4 8230   5.791   6.305   0.311  0.5614 -0.2924 -0.1431
 2115SOL     OW 8231   2.619   1.873   0.408  0.1942 -0.3374  0.5177
 2115SOL    HW2 8232   2.657   1.831   0.485  2.4391  1.1826  0.3601
 2115SOL    HW3 8233   2.693   1.917   0.366 -1.5727  1.8443 -0.5379
 2115SOL    MW4 8234   2.634   1.874   0.413  0.2572  0.1510  0.3577
 2116SOL     OW 8235   5.233   5.155   2.859  0.4055 -0.1754 -0.5728
 2116SOL    HW2 8236   5.317   5.168   2.904  0.6218  0.3352 -1.1116
 2116SOL    HW3 8237   5.170   5.206   2.909 -0.3698 -3.3149  1.9887
 2116SOL    MW4 8238   5.236   5.163   2.872  0.3317 -0.5222 -0.3059
 2117SOL     OW 8239   0.721   2.281   6.015 -0.0546 -0.3385 -0.2250
 2117SOL    HW2 8240   0.630   2.296   6.043  0.2842  2.2910 -0.2589
 2117SOL    HW3 8241   0.731   2.336   5.937  1.2614 -1.4751 -0.8785
 2117SOL    MW4 8242   0.710   2.290   6.009  0.1637 -0.1416 -0.3157
 2118SOL     OW 8243   0.530   1.903   3.023  0.1395  0.6525  0.2513
 2118SOL    HW2 8244   0.513   1.926   2.932 -0.4133 -1.9773 -0.4092
 2118SOL    HW3 8245   0.480   1.967   3.074 -0.3991  1.5262 -1.3038
 2118SOL    MW4 8246   0.521   1.914   3.017 -0.0045  0.4208 -0.0410
 2119SOL     OW 8247   6.082   1.342   2.891  0.1554  0.3042  0.3663
 2119SOL    HW2 8248   6.066   1.436   2.877 -2.8446 -0.2952 -0.9616
 2119SOL    HW3 8249   6.021   1.318   2.960 -0.2394 -0.9550 -0.3997
 2119SOL    MW4 8250   6.072   1.351   2.898 -0.2925  0.0590  0.0900
 2120SOL     OW 8251   5.491   4.504   3.498 -0.3644 -0.7284  0.2566
 2120SOL    HW2 8252   5.570   4.478   3.546  0.5978  1.1894 -0.1719
 2120SOL    HW3 8253   5.480   4.597   3.519 -0.8682 -0.2566 -1.9007
 2120SOL    MW4 8254   5.500   4.513   3.507 -0.3039 -0.4131 -0.0846
 2121SOL     OW 8255   1.189   1.411   1.982 -0.2097  0.3232  0.2400
 2121SOL    HW2 8256   1.113   1.452   1.941 -0.5639 -0.4146  0.1431
 2121SOL    HW3 8257   1.156   1.372   2.063  0.0795  0.0642  0.2376
 2121SOL    MW4 8258   1.175   1.411   1.987 -0.2182  0.1917  0.2269
 2122SOL     OW 8259   2.675   0.313   2.545  0.5615 -0.1716  0.6673
 2122SOL    HW2 8260   2.617   0.237   2.556 -0.1532  0.0722 -1.1907
 2122SOL    HW3 8261   2.758   0.284   2.582 -0.5324 -0.7204  2.9125
 2122SOL    MW4 8262   2.678   0.299   2.551  0.3229 -0.2118  0.7184
 2123SOL     OW 8263   1.445   6.230   5.125 -0.1197 -0.0051  0.1923
 2123SOL    HW2 8264   1.374   6.290   5.103  1.2283  1.5317 -0.0841
 2123SOL    HW3 8265   1.410   6.178   5.198 -1.7241  0.3121 -0.3164
 2123SOL    MW4 8266   1.431   6.231   5.132 -0.1535  0.2395  0.0887
 2124SOL     OW 8267   4.164   5.246   2.643 -0.3035 -0.1147 -0.2640
 2124SOL    HW2 8268   4.191   5.172   2.589  2.2319 -0.3800  1.1998
 2124SOL    HW3 8269   4.230   5.313   2.627  1.4540 -0.7262  3.4041
 2124SOL    MW4 8270   4.176   5.245   2.634  0.2629 -0.2304  0.4131
 2125SOL     OW 8271   0.161   5.268   4.672  0.0187  0.0882 -0.3151
 2125SOL    HW2 8272   0.098   5.337   4.649  0.7328  1.5080  1.7298
 2125SOL    HW3 8273   0.232   5.314   4.717  0.9670 -1.8835  0.3067
 2125SOL    MW4 8274   0.162   5.283   4.675  0.2380  0.0154  0.0368
 2126SOL     OW 8275   2.798   5.383   1.969 -0.6350  0.4109  0.0339
 2126SOL    HW2 8276   2.855   5.385   2.046 -0.3927  2.2240 -0.1375
 2126SOL    HW3 8277   2.737   5.455   1.982 -1.7279 -0.3676 -0.6551
 2126SOL    MW4 8278   2.798   5.393   1.981 -0.7472  0.5474 -0.0796
 2127SOL     OW 8279   2.049   2.646   0.889  0.2277 -0.6232  0.0272
 2127SOL    HW2 8280   2.019   2.728   0.852 -1.0662 -1.3274 -0.5675
 2127SOL    HW3 8281   2.144   2.648   0.881  0.2000  0.7425 -0.0978
 2127SOL    MW4 8282   2.057   2.657   0.883  0.0533 -0.5359 -0.0678
 2128SOL     OW 8283   1.296   0.184   2.299 -0.0429  0.3030  0.2972
 2128SOL    HW2 8284   1.239   0.159   2.372 -1.6979  0.2842 -0.9328
 2128SOL    HW3 8285   1.274   0.276   2.282  0.3443  0.3125 -0.1672
 2128SOL    MW4 8286   1.286   0.193   2.306 -0.2102  0.3018  0.0737
 2129SOL     OW 8287   4.445   5.256   2.051  0.0771 -0.2223  0.6619
 2129SOL    HW2 8288   4.473   5.337   2.093  1.1531 -1.3563  2.2031
 2129SOL    HW3 8289   4.522   5.199   2.055 -1.0806 -1.8180  0.8863
 2129SOL    MW4 8290   4.459   5.259   2.057  0.0663 -0.5825  0.8949
 2130SOL     OW 8291   5.102   3.426   4.581  0.6588  0.2356  0.1961
 2130SOL    HW2 8292   5.185   3.423   4.534  0.9209 -2.6555  0.6322
 2130SOL    HW3 8293   5.126   3.453   4.670  0.9539  0.5689  0.0155
 2130SOL    MW4 8294   5.116   3.429   4.587  0.7323 -0.1019  0.2298
 2131SOL     OW 8295   6.305   3.061   2.153  0.0989 -0.0585 -0.0253
 2131SOL    HW2 8296   6.258   3.139   2.185  1.9599  1.7380 -1.3976
 2131SOL    HW3 8297   6.363   3.037   2.226  0.9658  1.1309 -0.2915
 2131SOL    MW4 8298   6.306   3.068   2.167  0.4588  0.3354 -0.2415
 2132SOL     OW 8299   5.225   3.589   0.422 -0.7178  0.1338 -0.3256
 2132SOL    HW2 8300   5.295   3.627   0.476 -0.4417 -1.0729  0.2201
 2132SOL    HW3 8301   5.246   3.495   0.418 -0.8239  0.1502 -2.4290
 2132SOL    MW4 8302   5.237   3.581   0.429 -0.6954 -0.0232 -0.5311
 2133SOL     OW 8303   5.516   6.105   2.138 -0.2807 -0.1670 -0.0584
 2133SOL    HW2 8304   5.591   6.158   2.165  0.2942 -1.0642  0.1710
 2133SOL    HW3 8305   5.468   6.160   2.076 -0.2727  0.9998  0.9346
 2133SOL    MW4 8306   5.520   6.119   2.133 -0.2038 -0.1314  0.1029
 2134SOL     OW 8307   2.035   5.044   5.882  0.4495 -0.6340 -0.0434
 2134SOL    HW2 8308   2.072   4.969   5.835  1.4510  0.0194 -0.3279
 2134SOL    HW3 8309   2.101   5.112   5.874 -0.9919  0.7421 -0.9803
 2134SOL    MW4 8310   2.048   5.043   5.874  0.3914 -0.3662 -0.2045
 2135SOL     OW 8311   1.203   0.074   4.827 -0.1112  0.2597 -0.1161
 2135SOL    HW2 8312   1.290   0.035   4.815 -1.1361 -1.9358 -0.9703
 2135SOL    HW3 8313   1.186   0.065   4.921  0.3864  0.2954 -0.0171
 2135SOL    MW4 8314   1.213   0.068   4.838 -0.1808 -0.0252 -0.2158
 2136SOL     OW 8315   2.782   1.232   4.918  0.2698 -0.2810 -0.1135
 2136SOL    HW2 8316   2.735   1.164   4.965  0.5571  0.8283  1.8980
 2136SOL    HW3 8317   2.717   1.301   4.905  0.9869  0.8309  1.7711
 2136SOL    MW4 8318   2.767   1.232   4.923  0.4023  0.0121  0.4005
 2137SOL     OW 8319   3.666   3.443   3.540 -0.1330  0.7002 -0.2550
 2137SOL    HW2 8320   3.660   3.490   3.623 -0.5494 -0.6708  0.5143
 2137SOL    HW3 8321   3.680   3.512   3.475  0.3191  1.7931  0.9508
 2137SOL    MW4 8322   3.667   3.458   3.543 -0.1283  0.6635  0.0056
 2138SOL     OW 8323   0.768   3.085   0.955 -0.5779  0.3076 -0.2639
 2138SOL    HW2 8324   0.685   3.051   0.987 -0.3992  0.2999  0.2019
 2138SOL    HW3 8325   0.832   3.019   0.980 -0.6008 -0.3148 -1.7673
 2138SOL    MW4 8326   0.766   3.072   0.963 -0.5573  0.2245 -0.4008
 2139SOL     OW 8327   0.767   2.691   1.083  0.3255 -0.0660  0.9226
 2139SOL    HW2 8328   0.719   2.715   1.004 -2.3492 -3.1051  1.3651
 2139SOL    HW3 8329   0.733   2.750   1.150  2.4006  2.3388  0.0172
 2139SOL    MW4 8330   0.756   2.702   1.081  0.2463 -0.1497  0.8615
 2140SOL     OW 8331   0.805   4.873   5.891 -0.3665  0.3168 -0.4658
 2140SOL    HW2 8332   0.863   4.871   5.967 -0.6177 -0.4785 -0.2844
 2140SOL    HW3 8333   0.723   4.836   5.922 -0.7244  0.7218 -0.9239
 2140SOL    MW4 8334   0.802   4.868   5.905 -0.4469  0.2653 -0.5023
 2141SOL     OW 8335   1.241   2.844   4.001  0.7755 -0.6461  0.1129
 2141SOL    HW2 8336   1.151   2.854   4.031  0.1219 -1.5765 -1.3965
 2141SOL    HW3 8337   1.247   2.901   3.924  1.3373 -0.9192 -0.0489
 2141SOL    MW4 8338   1.230   2.853   3.994  0.7634 -0.8049 -0.1076
 2142SOL     OW 8339   4.382   5.425   5.012 -0.1617  0.1849  0.6365
 2142SOL    HW2 8340   4.398   5.512   5.050 -0.4515  1.2703 -1.5650
 2142SOL    HW3 8341   4.287   5.418   5.009 -0.1696  0.6356 -0.8993
 2142SOL    MW4 8342   4.372   5.436   5.017 -0.2010  0.3876  0.1434
 2143SOL     OW 8343   3.513   4.243   3.159 -0.1745  0.4517 -0.5527
 2143SOL    HW2 8344   3.486   4.328   3.192  0.9947 -0.4400  3.3047
 2143SOL    HW3 8345   3.478   4.180   3.223  0.8698 -1.7644 -2.0142
 2143SOL    MW4 8346   3.505   4.246   3.172  0.1175  0.0417 -0.2366
 2144SOL     OW 8347   6.270   0.204   1.570  0.3906 -0.0788 -0.8020
 2144SOL    HW2 8348   6.354   0.216   1.525  0.3658  1.2580 -0.5148
 2144SOL    HW3 8349   6.256   0.109   1.568  0.9961 -0.1823 -2.5084
 2144SOL    MW4 8350   6.280   0.193   1.564  0.4672  0.0839 -0.9893
 2145SOL     OW 8351   0.971   5.567   1.116  0.3138 -0.8526  0.0826
 2145SOL    HW2 8352   0.943   5.490   1.066 -0.4418 -1.6407  1.6652
 2145SOL    HW3 8353   0.916   5.638   1.083 -2.4404 -1.9997  1.8750
 2145SOL    MW4 8354   0.960   5.566   1.105 -0.1493 -1.1079  0.5279
 2146SOL     OW 8355   4.725   3.326   2.543 -0.2153 -0.2116  0.1246
 2146SOL    HW2 8356   4.818   3.331   2.562  0.2462 -0.2281 -1.8737
 2146SOL    HW3 8357   4.696   3.243   2.581 -0.1111  1.0776  3.2412
 2146SOL    MW4 8358   4.733   3.315   2.550 -0.1406 -0.0437  0.2721
 2147SOL     OW 8359   4.119   1.703   3.450  0.3517  0.1070 -0.5110
 2147SOL    HW2 8360   4.131   1.633   3.386 -0.8540 -1.2203  0.6199
 2147SOL    HW3 8361   4.036   1.682   3.492  0.3765  1.7805  0.4428
 2147SOL    MW4 8362   4.110   1.691   3.447  0.1959  0.1527 -0.2359
 2148SOL     OW 8363   0.697   5.933   5.999  0.1943 -0.1800 -0.5877
 2148SOL    HW2 8364   0.607   5.963   6.013  0.0514 -0.3138 -1.1811
 2148SOL    HW3 8365   0.750   6.013   6.003 -0.1858  0.1954 -2.1842
 2148SOL    MW4 8366   0.692   5.947   6.001  0.1253 -0.1481 -0.8766
 2149SOL     OW 8367   1.064   6.217   5.779  0.5224 -0.5383  0.2061
 2149SOL    HW2 8368   1.092   6.191   5.866 -0.8075  1.7937  1.4186
 2149SOL    HW3 8369   1.146   6.234   5.732  1.2541  0.6056  1.8137
 2149SOL    MW4 8370   1.079   6.216   5.784  0.4435 -0.0797  0.5781
 2150SOL     OW 8371   3.688   1.754   4.473 -0.0556  0.0009  1.0546
 2150SOL    HW2 8372   3.674   1.796   4.388  1.7223 -1.0866  0.1772
 2150SOL    HW3 8373   3.770   1.791   4.505  0.7922 -1.6870  0.9341
 2150SOL    MW4 8374   3.697   1.764   4.466  0.2908 -0.3653  0.9229
 2151SOL     OW 8375   4.212   0.219   3.295 -0.1247 -0.1963 -0.0087
 2151SOL    HW2 8376   4.226   0.163   3.372 -0.1517  0.9469  0.8525
 2151SOL    HW3 8377   4.278   0.288   3.304 -1.9945  1.6118  0.5934
 2151SOL    MW4 8378   4.223   0.220   3.306 -0.3750  0.1931  0.1843
 2152SOL     OW 8379   6.279   2.253   0.957  0.3838 -0.4869 -0.3629
 2152SOL    HW2 8380   6.282   2.232   0.863 -1.2892 -0.2848 -0.4933
 2152SOL    HW3 8381   6.338   2.190   0.998  2.1822  0.2588 -1.6781
 2152SOL    MW4 8382   6.287   2.242   0.950  0.4003 -0.3619 -0.5536
 2153SOL     OW 8383   0.946   2.965   5.624 -0.3758  0.1182  0.1652
 2153SOL    HW2 8384   1.038   2.960   5.650  0.3883 -1.6732 -2.5192
 2153SOL    HW3 8385   0.935   3.055   5.593  0.7309  0.1081 -0.3095
 2153SOL    MW4 8386   0.957   2.976   5.623 -0.1290 -0.1195 -0.2516
 2154SOL     OW 8387   3.531   6.179   5.033  0.2101 -0.1989 -0.7064
 2154SOL    HW2 8388   3.456   6.136   4.992  1.2407 -0.8148 -2.0253
 2154SOL    HW3 8389   3.589   6.200   4.960  0.5373  1.9248  0.0817
 2154SOL    MW4 8390   3.528   6.176   5.018  0.3892  0.0000 -0.7764
 2155SOL     OW 8391   3.952   1.337   6.092  0.2990 -0.2271 -0.0564
 2155SOL    HW2 8392   3.935   1.402   6.023 -1.5807  0.9405  1.4012
 2155SOL    HW3 8393   3.998   1.266   6.047  0.3101  1.0513 -2.2238
 2155SOL    MW4 8394   3.956   1.336   6.077  0.0524  0.0956 -0.1500
 2156SOL     OW 8395   6.083   5.253   0.860 -0.5896  1.0903 -0.0036
 2156SOL    HW2 8396   6.076   5.209   0.776  1.3366  0.2222  0.2280
 2156SOL    HW3 8397   6.071   5.346   0.840 -0.0679  0.9009 -1.2590
 2156SOL    MW4 8398   6.080   5.259   0.847 -0.2666  0.9508 -0.1387
 2157SOL     OW 8399   2.501   6.084   1.720 -0.0213 -0.3815 -0.0984
 2157SOL    HW2 8400   2.439   6.125   1.780 -0.2924 -2.1286  0.8938
 2157SOL    HW3 8401   2.493   5.990   1.738  2.3294 -0.7223 -0.5079
 2157SOL    MW4 8402   2.492   6.077   1.731  0.2531 -0.6569 -0.0216
 2158SOL     OW 8403   5.663   4.184   3.228  0.7083  0.5535  0.1191
 2158SOL    HW2 8404   5.758   4.193   3.230  0.8819 -0.5375 -1.3252
 2158SOL    HW3 8405   5.643   4.124   3.300  1.4845 -1.5359 -1.3130
 2158SOL    MW4 8406   5.673   4.177   3.238  0.8336  0.1338 -0.2604
 2159SOL     OW 8407   5.800   2.832   4.866 -0.1600 -0.1223  0.5258
 2159SOL    HW2 8408   5.820   2.763   4.930  0.4041  1.4168  2.0875
 2159SOL    HW3 8409   5.749   2.896   4.915  0.8948  1.4541 -0.3315
 2159SOL    MW4 8410   5.796   2.831   4.881  0.0536  0.2887  0.6187
 2160SOL     OW 8411   4.898   2.204   6.197 -0.4744 -0.3217 -0.2888
 2160SOL    HW2 8412   4.976   2.168   6.239  0.2830 -0.0427 -1.4093
 2160SOL    HW3 8413   4.926   2.222   6.107 -1.0665  2.1734 -0.0353
 2160SOL    MW4 8414   4.912   2.202   6.191 -0.4526  0.0443 -0.4032
 2161SOL     OW 8415   0.016   2.984   3.471 -0.3308 -0.9678  0.4561
 2161SOL    HW2 8416  -0.075   2.972   3.445  0.0601 -0.6416 -1.1613
 2161SOL    HW3 8417   0.019   2.955   3.562 -1.7713 -2.1938  0.1460
 2161SOL    MW4 8418   0.005   2.979   3.479 -0.4693 -1.0865  0.2018
 2162SOL     OW 8419   6.130   3.769   0.541  0.6016 -0.2012  0.3342
 2162SOL    HW2 8420   6.102   3.700   0.481  0.7812 -1.0890  1.2496
 2162SOL    HW3 8421   6.219   3.745   0.566  0.5397  0.1701  0.9358
 2162SOL    MW4 8422   6.138   3.757   0.537  0.6171 -0.2694  0.5344
 2163SOL     OW 8423   2.869   4.793   6.369  0.4475 -0.4992  0.1499
 2163SOL    HW2 8424   2.824   4.837   6.441  2.0034  3.1947 -0.8950
 2163SOL    HW3 8425   2.811   4.805   6.294  1.3168  0.7632 -0.3506
 2163SOL    MW4 8426   2.855   4.801   6.369  0.7675  0.1547 -0.0540
 2164SOL     OW 8427   1.387   3.597   2.827  0.1147  0.0890 -0.2216
 2164SOL    HW2 8428   1.457   3.531   2.831  1.0010  0.9928 -0.3005
 2164SOL    HW3 8429   1.364   3.602   2.734  0.7076  0.5344 -0.3559
 2164SOL    MW4 8430   1.393   3.589   2.815  0.3099  0.2670 -0.2497
 2165SOL     OW 8431   5.216   4.877   3.623  0.4192  0.4322  0.3343
 2165SOL    HW2 8432   5.306   4.847   3.609  0.7856  1.4526  0.3812
 2165SOL    HW3 8433   5.219   4.971   3.605 -0.7513  0.3979 -0.1762
 2165SOL    MW4 8434   5.228   4.885   3.618  0.3131  0.5623  0.2731
 2166SOL     OW 8435   4.182   4.355   3.603 -0.5561 -0.2723 -0.2582
 2166SOL    HW2 8436   4.112   4.418   3.587 -1.3155 -1.0657 -0.1096
 2166SOL    HW3 8437   4.137   4.274   3.629  0.3454 -1.1854 -1.4194
 2166SOL    MW4 8438   4.167   4.353   3.605 -0.5374 -0.4974 -0.3918
 2167SOL     OW 8439   4.949   3.155   5.135  0.2710  0.2392  0.0002
 2167SOL    HW2 8440   4.956   3.168   5.040  2.9318  1.4364  0.2656
 2167SOL    HW3 8441   4.919   3.240   5.168 -0.7479 -0.2070  0.2643
 2167SOL    MW4 8442   4.946   3.168   5.127  0.4876  0.3383  0.0700
 2168SOL     OW 8443   4.381   0.823   0.859  0.3089  0.3020 -0.4099
 2168SOL    HW2 8444   4.445   0.783   0.918  0.9735 -0.2949 -1.4960
 2168SOL    HW3 8445   4.296   0.800   0.897  0.7202  0.2348  0.4968
 2168SOL    MW4 8446   4.378   0.815   0.872  0.4508  0.2144 -0.4336
 2169SOL     OW 8447   4.161   5.993   2.643 -0.3655  0.2465  0.2892
 2169SOL    HW2 8448   4.216   5.955   2.712  2.1509  0.4332 -1.4796
 2169SOL    HW3 8449   4.160   6.087   2.662  1.1750  0.4416 -0.3971
 2169SOL    MW4 8450   4.168   6.000   2.655  0.1697  0.2969 -0.0347
 2170SOL     OW 8451   2.779   3.739   1.378 -0.5155 -0.1469  0.4550
 2170SOL    HW2 8452   2.861   3.690   1.369 -0.5622 -1.2289  4.3269
 2170SOL    HW3 8453   2.806   3.825   1.410 -0.8132 -0.0459  0.4328
 2170SOL    MW4 8454   2.793   3.744   1.381 -0.5610 -0.2763  0.9630
 2171SOL     OW 8455   6.102   3.590   5.588 -0.4212 -0.1269 -0.1108
 2171SOL    HW2 8456   6.124   3.645   5.513  0.8969  1.3813  1.3336
 2171SOL    HW3 8457   6.037   3.640   5.637 -1.7201 -1.3610 -0.4772
 2171SOL    MW4 8458   6.096   3.604   5.584 -0.4187 -0.0908  0.0314
 2172SOL     OW 8459   4.733   2.746   1.528 -0.3389  0.0496  0.0795
 2172SOL    HW2 8460   4.645   2.753   1.564 -0.5725  0.9456 -0.6243
 2172SOL    HW3 8461   4.762   2.658   1.552 -1.8801 -0.7152 -0.7321
 2172SOL    MW4 8462   4.725   2.735   1.536 -0.5731  0.0669 -0.1204
 2173SOL     OW 8463   5.444   3.496   5.441 -0.4595 -0.0883  0.5031
 2173SOL    HW2 8464   5.489   3.482   5.357 -0.5749  0.8518  0.2763
 2173SOL    HW3 8465   5.497   3.561   5.486 -1.0747  0.3353  0.6263
 2173SOL    MW4 8466   5.457   3.503   5.436 -0.5559  0.0916  0.4894
 2174SOL     OW 8467   5.432   6.397   1.102 -0.0387  0.0815  0.0109
 2174SOL    HW2 8468   5.477   6.317   1.076 -1.5844 -1.7168  2.4312
 2174SOL    HW3 8469   5.499   6.465   1.099  1.7862 -1.6561 -0.3955
 2174SOL    MW4 8470   5.446   6.395   1.098 -0.0019 -0.3850  0.2766
 2175SOL     OW 8471   0.053   1.033   2.769  0.5395  0.4501 -0.2835
 2175SOL    HW2 8472   0.030   1.119   2.805  1.6317  1.2666 -1.4427
 2175SOL    HW3 8473   0.149   1.033   2.768  0.5388 -0.4977 -0.9642
 2175SOL    MW4 8474   0.063   1.044   2.774  0.6835  0.4327 -0.5262
 2176SOL     OW 8475   4.682   5.504   5.138  0.3124 -0.3407 -0.1347
 2176SOL    HW2 8476   4.740   5.498   5.213 -0.5781  0.6073  0.6687
 2176SOL    HW3 8477   4.603   5.456   5.164 -1.4212  2.7897  1.0358
 2176SOL    MW4 8478   4.679   5.497   5.151 -0.0338  0.1974  0.1257
 2177SOL     OW 8479   6.047   5.146   6.289  0.1360  0.4484 -0.0983
 2177SOL    HW2 8480   6.143   5.147   6.296  0.1677 -0.2662 -0.3383
 2177SOL    HW3 8481   6.017   5.163   6.379  0.4889  0.7722 -0.0411
 2177SOL    MW4 8482   6.056   5.148   6.302  0.1867  0.3968 -0.1224
 2178SOL     OW 8483   4.486   1.799   0.764 -0.9219 -0.3701  0.3787
 2178SOL    HW2 8484   4.511   1.872   0.821 -1.5844  0.3619 -0.2480
 2178SOL    HW3 8485   4.548   1.804   0.691 -1.8534  0.4562 -0.3730
 2178SOL    MW4 8486   4.498   1.809   0.762 -1.1322 -0.1645  0.1968
 2179SOL     OW 8487   3.015   1.586   3.053  0.2487 -0.6709  0.2024
 2179SOL    HW2 8488   2.986   1.534   3.129  0.4066 -0.5787  0.3271
 2179SOL    HW3 8489   3.107   1.560   3.041  0.2918 -0.5135  0.1883
 2179SOL    MW4 8490   3.023   1.575   3.062  0.2752 -0.6380  0.2170
 2180SOL     OW 8491   1.003   6.384   0.278 -0.5529  0.8054  0.0909
 2180SOL    HW2 8492   1.006   6.475   0.305 -0.2142  0.4518  1.3066
 2180SOL    HW3 8493   0.963   6.338   0.352  0.4879 -0.2172  0.0448
 2180SOL    MW4 8494   0.998   6.390   0.292 -0.3709  0.6238  0.2452
 2181SOL     OW 8495   3.160   2.852   4.324 -0.3149  0.4662  0.3190
 2181SOL    HW2 8496   3.207   2.887   4.248  0.6786  0.8154  1.0647
 2181SOL    HW3 8497   3.068   2.861   4.302 -0.0667  1.9994 -0.2243
 2181SOL    MW4 8498   3.154   2.858   4.311 -0.1511  0.7146  0.3457
 2182SOL     OW 8499   5.618   1.669   0.235 -0.3869 -0.2689 -0.1470
 2182SOL    HW2 8500   5.708   1.696   0.255 -0.0613 -0.4181 -1.3243
 2182SOL    HW3 8501   5.585   1.739   0.178 -0.3251 -1.1758 -1.3320
 2182SOL    MW4 8502   5.626   1.682   0.230 -0.3358 -0.4082 -0.4587
 2183SOL     OW 8503   3.484   4.824   4.037  0.3287 -0.5812 -0.2147
 2183SOL    HW2 8504   3.567   4.787   4.068 -0.2683 -1.0205  0.9133
 2183SOL    HW3 8505   3.423   4.809   4.109 -0.7378 -0.2629 -1.0354
 2183SOL    MW4 8506   3.487   4.817   4.051  0.1093 -0.5972 -0.1742
 2184SOL     OW 8507   2.295   2.645   5.289  0.0190 -0.1114  0.5718
 2184SOL    HW2 8508   2.373   2.613   5.244  0.4590  0.6556  0.7833
 2184SOL    HW3 8509   2.277   2.729   5.247 -1.5907 -0.9428 -0.5356
 2184SOL    MW4 8510   2.303   2.652   5.277 -0.1354 -0.1199  0.4536
 2185SOL     OW 8511   0.631   1.092   4.693  0.1481  0.1855 -0.3007
 2185SOL    HW2 8512   0.655   1.159   4.630 -0.2749 -0.1551 -0.8284
 2185SOL    HW3 8513   0.671   1.012   4.659  1.3435  0.2932  0.7452
 2185SOL    MW4 8514   0.640   1.090   4.681  0.2501  0.1547 -0.2323
 2186SOL     OW 8515   4.651   3.943   5.480  0.3815  0.4647 -0.2568
 2186SOL    HW2 8516   4.578   3.978   5.429 -2.2586  0.4482  3.1162
 2186SOL    HW3 8517   4.659   4.003   5.555  2.7349 -0.5080  0.3534
 2186SOL    MW4 8518   4.642   3.956   5.483  0.3437  0.3342  0.2687
 2187SOL     OW 8519   4.660   1.191   1.092  0.0928 -0.8432 -1.0498
 2187SOL    HW2 8520   4.682   1.199   1.000  0.3789  0.0142 -0.9155
 2187SOL    HW3 8521   4.734   1.143   1.130  0.6492  0.0194 -1.0213
 2187SOL    MW4 8522   4.673   1.185   1.085  0.2040 -0.6163 -1.0284
 2188SOL     OW 8523   3.034   4.002   0.106  0.0159  0.2568  0.1743
 2188SOL    HW2 8524   3.074   4.055   0.175 -1.1176 -0.5594  1.5172
 2188SOL    HW3 8525   3.049   4.052   0.026  3.5945  0.0731  0.5507
 2188SOL    MW4 8526   3.041   4.016   0.105  0.3385  0.1249  0.4011
 2189SOL     OW 8527   5.857   0.355   4.641  0.2908  0.1788 -0.1263
 2189SOL    HW2 8528   5.884   0.447   4.641  0.0798  0.2866 -2.1568
 2189SOL    HW3 8529   5.932   0.309   4.679  1.4870  0.9538 -1.4251
 2189SOL    MW4 8530   5.871   0.361   4.646  0.4208  0.2953 -0.5656
 2190SOL     OW 8531   5.189   0.281   3.543 -0.0342 -0.3069  0.4954
 2190SOL    HW2 8532   5.227   0.351   3.596 -1.8439  0.7821  0.4508
 2190SOL    HW3 8533   5.121   0.325   3.491  0.5743 -1.6494 -1.5136
 2190SOL    MW4 8534   5.185   0.296   3.543 -0.1927 -0.3404  0.2245
 2191SOL     OW 8535   2.794   0.482   5.357 -0.4649  0.3612 -0.6365
 2191SOL    HW2 8536   2.837   0.409   5.401 -2.1846  0.6273  1.6900
 2191SOL    HW3 8537   2.748   0.441   5.283  0.5688 -0.5019 -0.8182
 2191SOL    MW4 8538   2.793   0.467   5.353 -0.5554  0.2824 -0.3535
 2192SOL     OW 8539   0.531   1.618   6.013  0.6013  0.0712  0.4326
 2192SOL    HW2 8540   0.625   1.616   5.993  0.2722 -1.2877 -1.3074
 2192SOL    HW3 8541   0.509   1.711   6.018  1.4093  0.5658 -2.7788
 2192SOL    MW4 8542   0.541   1.630   6.011  0.6645 -0.0429 -0.2207
 2193SOL     OW 8543   2.619   3.465   6.325  0.0513  0.2038  0.2230
 2193SOL    HW2 8544   2.650   3.374   6.329  1.2330  0.5623 -0.4640
 2193SOL    HW3 8545   2.529   3.460   6.359 -0.4649 -1.4774 -1.1906
 2193SOL    MW4 8546   2.611   3.452   6.330  0.1391  0.0293 -0.0541
 2194SOL     OW 8547   6.212   0.362   5.311 -0.6249  0.1355  0.4712
 2194SOL    HW2 8548   6.245   0.389   5.397 -0.4068 -1.1973  0.8437
 2194SOL    HW3 8549   6.141   0.301   5.331 -1.9804  1.3765 -0.3236
 2194SOL    MW4 8550   6.207   0.357   5.325 -0.7750  0.1234  0.4155
 2195SOL     OW 8551   0.913   0.241   3.316 -0.2477  0.1374 -0.3709
 2195SOL    HW2 8552   0.912   0.149   3.290 -1.1226 -0.9368  3.0435
 2195SOL    HW3 8553   1.000   0.253   3.355 -0.3996  0.5833 -0.1712
 2195SOL    MW4 8554   0.924   0.230   3.318 -0.3832  0.0545  0.1059
 2196SOL     OW 8555   2.507   3.913   4.482  0.0927 -0.3294  0.1368
 2196SOL    HW2 8556   2.579   3.947   4.536  0.9569  0.0159 -1.1938
 2196SOL    HW3 8557   2.470   3.842   4.534 -0.0666  0.9297  1.8326
 2196SOL    MW4 8558   2.512   3.908   4.496  0.1857 -0.1177  0.1850
 2197SOL     OW 8559   5.649   3.837   0.461  0.6149  0.0296  0.4601
 2197SOL    HW2 8560   5.720   3.899   0.447  0.1368  0.2544 -1.2052
 2197SOL    HW3 8561   5.580   3.864   0.400  0.2515 -1.9043 -0.0838
 2197SOL    MW4 8562   5.649   3.848   0.451  0.5039 -0.1959  0.1686
 2198SOL     OW 8563   0.202   2.636   1.388 -0.2495 -0.5769  0.3256
 2198SOL    HW2 8564   0.193   2.685   1.307  0.1202  0.7318  1.0413
 2198SOL    HW3 8565   0.120   2.650   1.435  0.6445  1.2684  1.4958
 2198SOL    MW4 8566   0.190   2.644   1.384 -0.0828 -0.1607  0.5744
 2199SOL     OW 8567   2.791   2.576   3.289  0.1585 -0.6527  0.2076
 2199SOL    HW2 8568   2.800   2.595   3.195 -0.6168 -1.3052 -0.0100
 2199SOL    HW3 8569   2.801   2.481   3.295 -0.2844 -0.6661  0.7280
 2199SOL    MW4 8570   2.794   2.566   3.277 -0.0022 -0.7405  0.2476
 2200SOL     OW 8571   2.547   0.301   3.849  0.5501  0.4663  0.0579
 2200SOL    HW2 8572   2.641   0.310   3.833  0.4207 -0.3476 -1.2763
 2200SOL    HW3 8573   2.506   0.369   3.796  0.3473  0.3630  0.0783
 2200SOL    MW4 8574   2.554   0.311   3.840  0.5063  0.3453 -0.1155
 2201SOL     OW 8575   5.053   1.359   5.592  0.5709  0.0373  0.3764
 2201SOL    HW2 8576   5.061   1.316   5.507 -0.4736 -2.0987  1.2753
 2201SOL    HW3 8577   4.965   1.337   5.622  2.2789 -3.2554  3.9379
 2201SOL    MW4 8578   5.042   1.350   5.585  0.6585 -0.6790  0.9649
 2202SOL     OW 8579   2.935   2.370   5.359 -0.2222 -0.2602 -0.1908
 2202SOL    HW2 8580   2.927   2.451   5.308  2.3766  0.2223  0.0456
 2202SOL    HW3 8581   2.960   2.399   5.447  1.6003 -1.3218 -0.3180
 2202SOL    MW4 8582   2.937   2.384   5.364  0.3611 -0.3366 -0.1764
 2203SOL     OW 8583   2.739   4.457   1.791 -0.3582 -0.3173  0.5471
 2203SOL    HW2 8584   2.669   4.449   1.726 -0.9010 -0.4839  1.1523
 2203SOL    HW3 8585   2.757   4.551   1.794 -1.8665 -0.0310  1.7501
 2203SOL    MW4 8586   2.732   4.468   1.783 -0.6288 -0.3015  0.7857
 2204SOL     OW 8587   0.176   6.132   3.480  0.2282  0.4942 -0.1890
 2204SOL    HW2 8588   0.233   6.102   3.409  0.2224 -0.5777  0.2317
 2204SOL    HW3 8589   0.118   6.058   3.496 -0.3420  1.0516  0.3498
 2204SOL    MW4 8590   0.176   6.118   3.473  0.1522  0.4264 -0.0624
 2205SOL     OW 8591   4.865   0.989   0.748 -0.1935 -0.1080  0.3469
 2205SOL    HW2 8592   4.942   1.040   0.773  0.6661 -1.4666  0.5452
 2205SOL    HW3 8593   4.794   1.053   0.745  1.0819  1.3348 -0.6462
 2205SOL    MW4 8594   4.866   1.004   0.751  0.0882 -0.0969  0.2420
 2206SOL     OW 8595   5.863   3.450   5.528 -0.7790 -0.3637  0.0114
 2206SOL    HW2 8596   5.946   3.492   5.550 -0.2033 -2.3024  1.9409
 2206SOL    HW3 8597   5.852   3.465   5.434  1.1960  0.8683 -0.0746
 2206SOL    MW4 8598   5.873   3.457   5.519 -0.4425 -0.4569  0.2546
 2207SOL     OW 8599   0.244   1.948   2.017  0.5999  0.2219  0.2588
 2207SOL    HW2 8600   0.288   2.032   2.031 -0.4278  1.4607 -2.9953
 2207SOL    HW3 8601   0.151   1.968   2.028  0.2378 -0.0749 -1.8304
 2207SOL    MW4 8602   0.238   1.962   2.020  0.4166  0.3462 -0.4462
 2208SOL     OW 8603   6.034   4.209   1.551  0.4673  0.0918  0.5442
 2208SOL    HW2 8604   6.111   4.266   1.543  1.4147 -1.3360 -1.6651
 2208SOL    HW3 8605   6.028   4.166   1.465 -2.8120  0.1105  0.6576
 2208SOL    MW4 8606   6.044   4.211   1.538  0.1596 -0.0941  0.2677
 2209SOL     OW 8607   3.311   0.712   2.533 -0.2097  0.4835  0.2867
 2209SOL    HW2 8608   3.403   0.700   2.508 -0.3125  0.7320 -0.2323
 2209SOL    HW3 8609   3.308   0.801   2.569 -0.6355  1.3163 -1.6647
 2209SOL    MW4 8610   3.323   0.722   2.534 -0.2794  0.6262 -0.0393
 2210SOL     OW 8611   1.761   3.609   2.139 -0.3049 -0.1969  0.5028
 2210SOL    HW2 8612   1.760   3.633   2.232 -0.5485  0.1524  0.4114
 2210SOL    HW3 8613   1.846   3.565   2.127  0.6681  1.5957  0.4372
 2210SOL    MW4 8614   1.772   3.606   2.150 -0.2087  0.0857  0.4821
 2211SOL     OW 8615   3.987   0.570   6.048 -0.6867 -0.3484  0.0215
 2211SOL    HW2 8616   3.980   0.655   6.006  1.9745 -0.4165 -0.7201
 2211SOL    HW3 8617   3.989   0.507   5.975  0.9233 -0.7070  0.3328
 2211SOL    MW4 8618   3.986   0.573   6.033 -0.1232 -0.4047 -0.0352
 2212SOL     OW 8619   1.910   1.978   4.504  0.0746  0.3440 -0.3039
 2212SOL    HW2 8620   1.871   2.031   4.573 -0.0138 -0.3079  0.1483
 2212SOL    HW3 8621   1.956   2.042   4.448 -0.2875  0.9278  0.0589
 2212SOL    MW4 8622   1.911   1.993   4.505  0.0151  0.3350 -0.1963
 2213SOL     OW 8623   5.287   5.555   0.401 -0.3234  0.5417 -0.3584
 2213SOL    HW2 8624   5.324   5.575   0.315  1.0062  0.2719  0.1216
 2213SOL    HW3 8625   5.351   5.496   0.442 -0.7281  0.9795  0.9660
 2213SOL    MW4 8626   5.300   5.550   0.395 -0.2014  0.5639 -0.1203
 2214SOL     OW 8627   5.854   6.018   4.070  0.1816 -0.2250 -0.4392
 2214SOL    HW2 8628   5.819   6.044   3.985 -0.4316 -0.7692 -0.3640
 2214SOL    HW3 8629   5.946   6.044   4.068  0.0121  0.3325 -1.0260
 2214SOL    MW4 8630   5.862   6.025   4.059  0.0784 -0.2232 -0.5067
 2215SOL     OW 8631   4.722   5.903   5.525 -0.1236  0.0436 -0.6362
 2215SOL    HW2 8632   4.727   5.992   5.492 -1.8735  0.1575 -0.6634
 2215SOL    HW3 8633   4.812   5.870   5.520  0.3395  1.4125 -1.6698
 2215SOL    MW4 8634   4.735   5.910   5.520 -0.2934  0.2392 -0.7761
 2216SOL     OW 8635   5.519   6.280   3.103  0.0130 -0.3848 -0.4324
 2216SOL    HW2 8636   5.510   6.235   3.019 -1.7172 -0.8992 -0.0022
 2216SOL    HW3 8637   5.437   6.328   3.113 -0.0854 -0.8571  1.2599
 2216SOL    MW4 8638   5.507   6.281   3.093 -0.2283 -0.5150 -0.1524
 2217SOL     OW 8639   1.305   1.237   4.081  0.4238  0.6474  0.0519
 2217SOL    HW2 8640   1.301   1.332   4.071  0.5611  0.6981  0.4570
 2217SOL    HW3 8641   1.229   1.204   4.034  0.9105  0.8923 -0.9391
 2217SOL    MW4 8642   1.295   1.245   4.073  0.5061  0.6864 -0.0254
 2218SOL     OW 8643   0.435   2.129   5.912  0.6153  0.1507 -0.1269
 2218SOL    HW2 8644   0.471   2.055   5.962 -0.1154 -0.9572 -1.2132
 2218SOL    HW3 8645   0.377   2.174   5.974  1.3225  0.0252  0.6401
 2218SOL    MW4 8646   0.432   2.125   5.927  0.6122 -0.0120 -0.1690
 2219SOL     OW 8647   5.798   2.308   3.138 -0.7401  0.0265  0.2943
 2219SOL    HW2 8648   5.843   2.226   3.121  2.5357  1.6375  0.5141
 2219SOL    HW3 8649   5.741   2.289   3.213 -1.2356 -2.3596 -0.6083
 2219SOL    MW4 8650   5.796   2.295   3.146 -0.3733 -0.0757  0.2042
 2220SOL     OW 8651   2.924   1.934   3.639  0.7172 -0.6335  0.0031
 2220SOL    HW2 8652   2.964   1.859   3.683  1.6227 -0.2387 -0.1301
 2220SOL    HW3 8653   2.870   1.895   3.570  0.3836 -1.1959  0.5759
 2220SOL    MW4 8654   2.922   1.919   3.636  0.7926 -0.6556  0.0611
 2221SOL     OW 8655   1.684   5.626   4.560 -0.5087  0.0795  0.4402
 2221SOL    HW2 8656   1.750   5.686   4.526 -0.1093  0.0785  1.2114
 2221SOL    HW3 8657   1.708   5.612   4.651 -0.5120 -1.3822  0.2251
 2221SOL    MW4 8658   1.696   5.632   4.568 -0.4564 -0.1135  0.5136
 2222SOL     OW 8659   5.830   1.389   4.617  0.3930  0.0734 -0.4514
 2222SOL    HW2 8660   5.779   1.470   4.622 -0.6682 -0.6408  1.2622
 2222SOL    HW3 8661   5.764   1.320   4.606  1.0628 -0.7464  0.4610
 2222SOL    MW4 8662   5.815   1.390   4.616  0.3414 -0.1290 -0.1049
 2223SOL     OW 8663   5.380   1.678   3.999  0.0128  0.1601 -0.0030
 2223SOL    HW2 8664   5.396   1.757   4.050  0.8345  0.7596 -1.1572
 2223SOL    HW3 8665   5.466   1.637   3.990  0.2671  1.0607 -2.4664
 2223SOL    MW4 8666   5.393   1.683   4.004  0.1548  0.3581 -0.4803
 2224SOL     OW 8667   1.552   4.908   2.873 -0.1486 -0.0131  0.2781
 2224SOL    HW2 8668   1.486   4.931   2.939  0.1070 -2.0099  1.3241
 2224SOL    HW3 8669   1.583   4.822   2.901  1.2162 -0.1460 -1.5282
 2224SOL    MW4 8670   1.547   4.900   2.886  0.0652 -0.2941  0.1778
 2225SOL     OW 8671   4.186   0.979   1.167  0.0163 -0.3389 -0.0080
 2225SOL    HW2 8672   4.278   1.004   1.177  0.1527  0.2285 -2.0981
 2225SOL    HW3 8673   4.139   1.062   1.167  0.2017  0.0114 -4.4897
 2225SOL    MW4 8674   4.192   0.993   1.168  0.0587 -0.2178 -0.8750
 2226SOL     OW 8675   1.614   3.609   4.234  0.0240  0.1057 -0.5880
 2226SOL    HW2 8676   1.633   3.515   4.232 -0.2572  0.0530 -0.7914
 2226SOL    HW3 8677   1.544   3.621   4.170  1.6154  0.8049 -2.2736
 2226SOL    MW4 8678   1.607   3.598   4.225  0.1969  0.1910 -0.8372
 2227SOL     OW 8679   1.316   0.624   0.234  0.0677  0.6559 -0.2730
 2227SOL    HW2 8680   1.262   0.680   0.290 -0.2948 -0.1228  0.1700
 2227SOL    HW3 8681   1.390   0.680   0.209 -0.5751  1.5053 -0.3056
 2227SOL    MW4 8682   1.319   0.639   0.238 -0.0649  0.6653 -0.2189
 2228SOL     OW 8683   2.054   3.663   0.935 -0.3620  0.0001 -1.2895
 2228SOL    HW2 8684   2.037   3.755   0.956 -1.6196 -0.4771 -0.0385
 2228SOL    HW3 8685   1.969   3.620   0.945  0.7670 -1.8688  1.3629
 2228SOL    MW4 8686   2.040   3.669   0.939 -0.3789 -0.3094 -0.7745
 2229SOL     OW 8687   3.459   6.132   6.401  0.3104  0.2329 -0.1364
 2229SOL    HW2 8688   3.380   6.184   6.388 -1.8967 -2.8900 -0.3308
 2229SOL    HW3 8689   3.496   6.124   6.313  0.6460  1.3414 -0.1124
 2229SOL    MW4 8690   3.454   6.138   6.387  0.0635 -0.0329 -0.1589
 2230SOL     OW 8691   4.263   3.331   4.036 -0.5017  0.3139 -0.3833
 2230SOL    HW2 8692   4.184   3.312   4.088 -0.5222 -0.3602 -0.6452
 2230SOL    HW3 8693   4.290   3.418   4.064 -1.0700  0.3555  0.0570
 2230SOL    MW4 8694   4.256   3.340   4.047 -0.5794  0.2305 -0.3597
 2231SOL     OW 8695   5.531   3.771   5.538 -0.2661 -0.1650 -0.1367
 2231SOL    HW2 8696   5.517   3.858   5.500  0.4746 -0.5477 -1.3437
 2231SOL    HW3 8697   5.502   3.779   5.628  1.5219  1.8912  0.3436
 2231SOL    MW4 8698   5.526   3.784   5.545  0.0676  0.0558 -0.2326
 2232SOL     OW 8699   2.151   2.948   3.790 -0.3960  0.2966 -0.0141
 2232SOL    HW2 8700   2.072   2.913   3.749 -0.6224  1.0481 -0.2200
 2232SOL    HW3 8701   2.120   2.999   3.864 -0.2229  1.6938 -0.8549
 2232SOL    MW4 8702   2.137   2.950   3.794 -0.4030  0.5801 -0.1522
 2233SOL     OW 8703   5.324   2.539   4.419 -0.0399 -0.3788  0.2468
 2233SOL    HW2 8704   5.248   2.534   4.361 -1.6817 -1.4144  2.3103
 2233SOL    HW3 8705   5.346   2.448   4.438 -0.7616 -0.1506  2.5932
 2233SOL    MW4 8706   5.317   2.526   4.414 -0.3518 -0.4854  0.8286
 2234SOL     OW 8707   1.807   1.733   2.610 -0.2083  0.2945 -0.0955
 2234SOL    HW2 8708   1.829   1.646   2.644 -3.5071  0.0448  1.7581
 2234SOL    HW3 8709   1.759   1.716   2.529  1.8989  0.6302 -1.4956
 2234SOL    MW4 8710   1.804   1.719   2.604 -0.3655  0.3059 -0.0356
 2235SOL     OW 8711   3.975   0.136   3.071  0.6149  0.0098  0.0179
 2235SOL    HW2 8712   3.894   0.172   3.107  0.9526  0.2355  0.5519
 2235SOL    HW3 8713   3.953   0.117   2.979  0.0644  0.3969  0.0619
 2235SOL    MW4 8714   3.961   0.138   3.063  0.5868  0.0907  0.0941
 2236SOL     OW 8715   5.811   2.021   3.688  0.1346 -0.6047  0.2342
 2236SOL    HW2 8716   5.852   1.985   3.767 -1.4204 -0.0845  1.3090
 2236SOL    HW3 8717   5.795   2.113   3.708  0.4160 -0.2684 -0.9935
 2236SOL    MW4 8718   5.814   2.028   3.701 -0.0334 -0.4917  0.2140
 2237SOL     OW 8719   0.222   1.019   4.486 -0.1871 -0.0194  0.1721
 2237SOL    HW2 8720   0.263   1.016   4.572  0.8290  1.6624 -0.2100
 2237SOL    HW3 8721   0.151   1.083   4.496  0.8867  1.3276 -0.5892
 2237SOL    MW4 8722   0.218   1.027   4.499  0.0886  0.3802  0.0213
 2238SOL     OW 8723   5.827   0.633   4.791 -0.3614  0.0903 -0.0696
 2238SOL    HW2 8724   5.860   0.716   4.826 -2.5750  0.1081  2.2634
 2238SOL    HW3 8725   5.852   0.567   4.855  1.8944 -1.2791 -2.1798
 2238SOL    MW4 8726   5.834   0.635   4.804 -0.3558 -0.0881 -0.0402
 2239SOL     OW 8727   1.100   3.234   2.388  0.4380  0.0729 -0.5748
 2239SOL    HW2 8728   1.018   3.189   2.366  0.6371 -0.4899 -0.1580
 2239SOL    HW3 8729   1.128   3.273   2.305  0.3582 -0.7112 -0.9746
 2239SOL    MW4 8730   1.093   3.233   2.374  0.4537 -0.1048 -0.5726
 2240SOL     OW 8731   4.995   5.342   1.628 -0.1170  0.1664  0.3914
 2240SOL    HW2 8732   4.919   5.391   1.660 -0.3600 -0.3862  0.6783
 2240SOL    HW3 8733   5.069   5.401   1.643 -0.7054  1.5518 -1.7634
 2240SOL    MW4 8734   4.995   5.357   1.635 -0.2267  0.2763  0.1449
 2241SOL     OW 8735   6.172   6.133   0.889 -0.1169  0.1189 -0.3307
 2241SOL    HW2 8736   6.256   6.134   0.844  0.6969 -0.0215  1.0979
 2241SOL    HW3 8737   6.116   6.077   0.836  1.5731 -2.1567  0.1419
 2241SOL    MW4 8738   6.175   6.126   0.876  0.2135 -0.1999 -0.0798
 2242SOL     OW 8739   5.898   4.683   0.620  0.5514  0.1826 -0.3060
 2242SOL    HW2 8740   5.833   4.640   0.677  0.8554  0.7020  0.4473
 2242SOL    HW3 8741   5.928   4.613   0.562  1.8777 -0.9809  1.6217
 2242SOL    MW4 8742   5.893   4.668   0.620  0.7665  0.0976  0.0477
 2243SOL     OW 8743   1.291   5.017   6.071  0.0348  0.5904  0.2059
 2243SOL    HW2 8744   1.358   5.013   6.139  0.8992  1.5480 -0.5512
 2243SOL    HW3 8745   1.327   5.076   6.005 -1.2901  0.6319 -0.5287
 2243SOL    MW4 8746   1.304   5.025   6.071 -0.0260  0.7222  0.0091
 2244SOL     OW 8747   3.074   5.435   5.373 -1.0650  0.2334 -0.4590
 2244SOL    HW2 8748   3.144   5.470   5.318 -0.3112 -0.9381 -0.3007
 2244SOL    HW3 8749   3.064   5.344   5.343 -3.3128  0.6608 -1.2476
 2244SOL    MW4 8750   3.082   5.427   5.362 -1.2622  0.1352 -0.5422
 2245SOL     OW 8751   4.961   4.367   3.928 -0.4617  0.3040  0.2834
 2245SOL    HW2 8752   4.961   4.297   3.864 -0.2830 -0.9893  1.6572
 2245SOL    HW3 8753   4.874   4.408   3.919 -0.4605  0.1065 -0.7107
 2245SOL    MW4 8754   4.949   4.363   3.918 -0.4379  0.1073  0.3335
 2246SOL     OW 8755   2.752   1.818   4.333  0.2189  0.5114 -0.4766
 2246SOL    HW2 8756   2.720   1.905   4.308 -0.0779  0.3036 -0.8410
 2246SOL    HW3 8757   2.691   1.789   4.401  0.9157  1.0000  0.3668
 2246SOL    MW4 8758   2.739   1.826   4.338  0.2717  0.5485 -0.4134
 2247SOL     OW 8759   5.623   1.432   4.277 -0.2021  0.1025 -0.3738
 2247SOL    HW2 8760   5.586   1.432   4.365 -0.5227  2.6277 -0.4318
 2247SOL    HW3 8761   5.652   1.342   4.263  0.8378 -0.1346  2.6866
 2247SOL    MW4 8762   5.622   1.420   4.287 -0.1072  0.4044  0.0223
 2248SOL     OW 8763   4.954   4.850   3.784 -0.0342  0.1756  0.0315
 2248SOL    HW2 8764   5.023   4.839   3.720 -0.3708  1.6373 -0.6105
 2248SOL    HW3 8765   4.911   4.764   3.787 -2.1877  0.8016 -4.2914
 2248SOL    MW4 8766   4.957   4.837   3.776 -0.3627  0.4511 -0.6236
 2249SOL     OW 8767   4.532   4.404   3.139  0.1511 -0.4443 -0.1896
 2249SOL    HW2 8768   4.590   4.475   3.167 -0.8387 -0.2320  1.4803
 2249SOL    HW3 8769   4.592   4.334   3.113  1.1471  0.3480 -0.1078
 2249SOL    MW4 8770   4.548   4.404   3.139  0.1519 -0.3117  0.0415
 2250SOL     OW 8771   3.377   3.216   0.390 -0.0348  0.2546 -0.0982
 2250SOL    HW2 8772   3.403   3.139   0.339 -1.4907 -0.6482  0.4384
 2250SOL    HW3 8773   3.373   3.184   0.480  0.7340  1.3517  0.3382
 2250SOL    MW4 8774   3.380   3.202   0.395 -0.1255  0.2802  0.0302
 2251SOL     OW 8775   4.096   2.697   0.155 -0.1511 -0.1500  0.5069
 2251SOL    HW2 8776   4.089   2.631   0.224  3.9176  0.3218  1.6438
 2251SOL    HW3 8777   4.173   2.749   0.179 -0.2467  1.9024 -2.9093
 2251SOL    MW4 8778   4.106   2.695   0.167  0.3731  0.1830  0.2061
 2252SOL     OW 8779   2.327   5.469   2.258 -0.0844  0.2932  0.6078
 2252SOL    HW2 8780   2.283   5.500   2.337  0.5919  1.5182  0.5303
 2252SOL    HW3 8781   2.343   5.548   2.207  1.7912 -0.1502  0.4310
 2252SOL    MW4 8782   2.323   5.483   2.261  0.2523  0.3963  0.5742
 2253SOL     OW 8783   0.299   2.049   4.788 -0.2549 -0.0741  0.1238
 2253SOL    HW2 8784   0.334   2.081   4.871  1.2026 -0.7197 -0.2248
 2253SOL    HW3 8785   0.263   2.127   4.746  1.2424  0.7222  0.2746
 2253SOL    MW4 8786   0.299   2.064   4.793  0.1350 -0.0542  0.0977
 2254SOL     OW 8787   2.569   2.280   4.323  0.0134 -0.5004  0.3488
 2254SOL    HW2 8788   2.487   2.284   4.372 -1.3030 -3.1549 -1.4400
 2254SOL    HW3 8789   2.564   2.355   4.263 -1.2274 -0.7535  0.1041
 2254SOL    MW4 8790   2.557   2.290   4.321 -0.3240 -0.8840  0.0805
 2255SOL     OW 8791   3.671   6.217   5.651 -0.5202 -0.0633 -0.1876
 2255SOL    HW2 8792   3.667   6.256   5.738 -1.5195 -1.6057  0.4954
 2255SOL    HW3 8793   3.582   6.221   5.618 -0.5730 -1.4238 -0.2440
 2255SOL    MW4 8794   3.659   6.223   5.658 -0.6590 -0.4463 -0.1049
 2256SOL     OW 8795   5.268   4.507   5.914 -0.1783  0.2091 -0.0942
 2256SOL    HW2 8796   5.275   4.597   5.881  0.2346  0.6538  1.1766
 2256SOL    HW3 8797   5.248   4.455   5.836  1.0246  1.1993 -1.1078
 2256SOL    MW4 8798   5.266   4.512   5.899  0.0349  0.3984 -0.0602
 2257SOL     OW 8799   3.378   1.503   5.474 -0.2578 -0.3575 -0.1666
 2257SOL    HW2 8800   3.389   1.588   5.432 -1.4453  0.8369  1.7276
 2257SOL    HW3 8801   3.466   1.467   5.481  0.2242  0.5502 -1.3475
 2257SOL    MW4 8802   3.391   1.510   5.470 -0.3509 -0.0801 -0.0725
 2258SOL     OW 8803   6.148   1.731   3.912  0.1056 -0.0483  0.0606
 2258SOL    HW2 8804   6.207   1.661   3.939 -0.6820 -0.7776 -0.0612
 2258SOL    HW3 8805   6.163   1.801   3.975  1.9968  0.2852 -0.7037
 2258SOL    MW4 8806   6.157   1.731   3.924  0.2512 -0.1005 -0.0563
 2259SOL     OW 8807   4.258   6.021   0.464  0.2089  0.3610 -0.4134
 2259SOL    HW2 8808   4.274   6.021   0.558 -0.3417  1.5259 -0.3048
 2259SOL    HW3 8809   4.167   6.051   0.456 -0.2782 -1.1929 -1.2513
 2259SOL    MW4 8810   4.248   6.025   0.476  0.0720  0.3096 -0.5096
 2260SOL     OW 8811   4.590   4.236   4.321 -0.0374  0.4743  0.0620
 2260SOL    HW2 8812   4.642   4.188   4.256  1.4552  0.5021  1.1985
 2260SOL    HW3 8813   4.605   4.328   4.301  0.4652  0.4828  0.4840
 2260SOL    MW4 8814   4.599   4.242   4.310  0.2258  0.4791  0.2676
 2261SOL     OW 8815   4.094   4.610   6.111 -0.5449  0.7384 -0.1426
 2261SOL    HW2 8816   4.151   4.623   6.187  0.2822  3.1534 -1.0768
 2261SOL    HW3 8817   4.105   4.518   6.088  0.5255  0.3860  1.6261
 2261SOL    MW4 8818   4.103   4.600   6.118 -0.2946  1.0106 -0.0325
 2262SOL     OW 8819   3.505   5.609   1.480 -0.1409 -0.4315 -0.1873
 2262SOL    HW2 8820   3.538   5.685   1.528 -0.4920 -1.1643  1.2695
 2262SOL    HW3 8821   3.421   5.638   1.444 -1.5779 -0.8542  2.5670
 2262SOL    MW4 8822   3.499   5.623   1.482 -0.3769 -0.5839  0.3683
 2263SOL     OW 8823   3.979   2.533   3.357 -0.1188 -0.0373  0.4530
 2263SOL    HW2 8824   3.903   2.515   3.413 -0.1827 -0.2803  0.2901
 2263SOL    HW3 8825   4.035   2.589   3.410  0.2002 -0.9133  1.0724
 2263SOL    MW4 8826   3.976   2.538   3.371 -0.0851 -0.1850  0.5132
 2264SOL     OW 8827   3.371   3.202   5.257  0.5865  0.0033 -0.0041
 2264SOL    HW2 8828   3.294   3.161   5.219  0.5706 -1.8093  1.8169
 2264SOL    HW3 8829   3.443   3.175   5.199  0.1317  0.0907 -0.6201
 2264SOL    MW4 8830   3.371   3.193   5.244  0.5244 -0.2243  0.1549
 2265SOL     OW 8831   4.525   5.301   4.772  0.5240 -0.4074 -0.0774
 2265SOL    HW2 8832   4.615   5.332   4.762  0.5340 -0.6536 -0.8712
 2265SOL    HW3 8833   4.482   5.368   4.824  0.8068  0.4282 -0.8821
 2265SOL    MW4 8834   4.532   5.314   4.778  0.5626 -0.3296 -0.2883
 2266SOL     OW 8835   0.125   0.601   2.355  0.3743 -0.2458  0.3468
 2266SOL    HW2 8836   0.074   0.616   2.276 -0.3025  1.9562  1.1305
 2266SOL    HW3 8837   0.215   0.596   2.325  0.1780  1.1014 -0.5443
 2266SOL    MW4 8838   0.130   0.602   2.341  0.2591  0.2224  0.3326
 2267SOL     OW 8839   4.768   5.516   2.816 -0.1753  0.3694 -0.5836
 2267SOL    HW2 8840   4.676   5.532   2.797 -0.8200 -1.3544  0.8195
 2267SOL    HW3 8841   4.768   5.480   2.905  1.8896  0.6560 -0.4284
 2267SOL    MW4 8842   4.756   5.513   2.826  0.0120  0.1798 -0.3780
 2268SOL     OW 8843   4.443   6.250   4.095 -0.1416 -0.1672 -0.3494
 2268SOL    HW2 8844   4.458   6.296   4.013 -1.2635 -0.1294 -0.5504
 2268SOL    HW3 8845   4.513   6.281   4.153 -0.7075  1.6110 -0.5598
 2268SOL    MW4 8846   4.454   6.260   4.092 -0.3643  0.0724 -0.4037
 2269SOL     OW 8847   2.495   3.886   3.942  0.4996 -0.2548  0.2635
 2269SOL    HW2 8848   2.413   3.927   3.915 -0.2446 -0.9259  1.4007
 2269SOL    HW3 8849   2.476   3.851   4.029  1.1328 -2.8160 -0.5398
 2269SOL    MW4 8850   2.481   3.887   3.950  0.4850 -0.6813  0.3075
 2270SOL     OW 8851   5.413   5.879   0.501 -0.1848 -0.0177 -0.8948
 2270SOL    HW2 8852   5.354   5.902   0.572 -0.3781  2.0724 -1.6789
 2270SOL    HW3 8853   5.361   5.823   0.443 -1.3402  1.5814 -1.4409
 2270SOL    MW4 8854   5.399   5.874   0.503 -0.3627  0.4691 -1.0703
 2271SOL     OW 8855   3.695   6.292   2.902 -0.2366 -0.1927  0.0328
 2271SOL    HW2 8856   3.638   6.237   2.848 -2.6187 -0.4568  2.5986
 2271SOL    HW3 8857   3.729   6.233   2.969 -0.3740  0.8234  1.0266
 2271SOL    MW4 8858   3.692   6.277   2.904 -0.5690 -0.0935  0.5024
 2272SOL     OW 8859   4.251   2.887   5.823  0.3815 -0.3025 -0.5029
 2272SOL    HW2 8860   4.270   2.895   5.730  3.9485 -0.1103  0.1118
 2272SOL    HW3 8861   4.262   2.793   5.841  0.9990 -0.1490 -0.0623
 2272SOL    MW4 8862   4.255   2.875   5.813  0.9336 -0.2569 -0.3636
 2273SOL     OW 8863   6.071   0.621   1.560 -0.7702  0.2920 -0.3405
 2273SOL    HW2 8864   6.073   0.690   1.626 -1.0046 -0.0374  0.0199
 2273SOL    HW3 8865   5.978   0.603   1.547 -0.8175  1.4563 -1.9488
 2273SOL    MW4 8866   6.059   0.628   1.567 -0.8074  0.4021 -0.5051
 2274SOL     OW 8867   4.818   5.097   3.741  0.3647 -0.1225  0.4673
 2274SOL    HW2 8868   4.861   5.014   3.760  0.0375 -0.7187 -1.2120
 2274SOL    HW3 8869   4.741   5.097   3.798  1.3342 -0.0846  1.8334
 2274SOL    MW4 8870   4.813   5.086   3.751  0.4494 -0.1961  0.4260
 2275SOL     OW 8871   5.049   5.268   3.039 -0.5339  0.0452  0.3964
 2275SOL    HW2 8872   5.005   5.353   3.046  0.0524  0.4008 -0.0952
 2275SOL    HW3 8873   5.066   5.242   3.130 -0.0289  0.8245  0.5342
 2275SOL    MW4 8874   5.046   5.276   3.052 -0.3899  0.1949  0.3497
 2276SOL     OW 8875   5.605   0.350   0.629  0.7717 -0.2420  0.4172
 2276SOL    HW2 8876   5.625   0.333   0.721 -2.1785 -1.8754  0.8692
 2276SOL    HW3 8877   5.619   0.266   0.586 -0.8846 -0.3197 -0.0071
 2276SOL    MW4 8878   5.610   0.337   0.635  0.1639 -0.4678  0.4208
 2277SOL     OW 8879   4.929   0.455   3.048 -0.1872 -0.2579 -0.0239
 2277SOL    HW2 8880   4.965   0.472   2.960 -1.7623 -1.4039 -0.9415
 2277SOL    HW3 8881   4.850   0.404   3.032 -1.9893  1.6988  1.9190
 2277SOL    MW4 8882   4.923   0.451   3.034 -0.6328 -0.1509  0.1113
 2278SOL     OW 8883   3.779   5.306   4.927  0.1042  0.0354 -0.3586
 2278SOL    HW2 8884   3.833   5.272   4.999 -0.7427 -0.2528  0.1446
 2278SOL    HW3 8885   3.783   5.238   4.860  1.7449  0.7447 -1.0514
 2278SOL    MW4 8886   3.787   5.292   4.928  0.2089  0.0910 -0.3836
 2279SOL     OW 8887   1.818   1.750   3.023  0.4998 -0.0896 -0.3381
 2279SOL    HW2 8888   1.881   1.680   3.041  1.4751  0.6833 -0.6727
 2279SOL    HW3 8889   1.844   1.784   2.937 -0.7390 -0.1375 -0.7534
 2279SOL    MW4 8890   1.830   1.745   3.014  0.4650  0.0060 -0.4370
 2280SOL     OW 8891   0.079   0.933   5.429  0.2513  0.0782  0.2099
 2280SOL    HW2 8892   0.081   0.932   5.525 -1.4717  0.9865  0.3030
 2280SOL    HW3 8893   0.034   0.852   5.405 -0.6630  0.5439  0.2768
 2280SOL    MW4 8894   0.073   0.922   5.438 -0.0967  0.2594  0.2310
 2281SOL     OW 8895   2.437   0.626   5.119  0.2988  0.1214 -0.1344
 2281SOL    HW2 8896   2.342   0.635   5.115  0.1826 -1.0445 -0.3595
 2281SOL    HW3 8897   2.452   0.556   5.182  1.0986  1.3565  1.1058
 2281SOL    MW4 8898   2.426   0.618   5.127  0.3890  0.1305 -0.0005
 2282SOL     OW 8899   1.891   0.785   0.138 -0.3034  0.6547  0.2435
 2282SOL    HW2 8900   1.796   0.788   0.128 -0.2822 -1.5587 -1.6546
 2282SOL    HW3 8901   1.924   0.853   0.080 -0.7149  0.9861  0.3963
 2282SOL    MW4 8902   1.883   0.794   0.129 -0.3549  0.4064  0.0132
 2283SOL     OW 8903   4.601   0.735   2.831  0.4641  0.2506 -0.6767
 2283SOL    HW2 8904   4.611   0.660   2.772  0.9477  3.1183 -4.6239
 2283SOL    HW3 8905   4.516   0.773   2.807  0.5655  1.4229  0.6751
 2283SOL    MW4 8906   4.591   0.730   2.820  0.5413  0.7836 -1.0191
 2284SOL     OW 8907   0.161   0.341   5.703 -0.1839  0.5181 -0.2291
 2284SOL    HW2 8908   0.102   0.268   5.719  0.4927 -0.6883 -2.6835
 2284SOL    HW3 8909   0.165   0.348   5.607  1.6624  2.2163 -0.0994
 2284SOL    MW4 8910   0.154   0.332   5.692  0.1490  0.5830 -0.5358
 2285SOL     OW 8911   4.760   3.745   4.268 -0.0720  0.0067  0.1770
 2285SOL    HW2 8912   4.801   3.681   4.326  0.3652 -0.7180 -0.8973
 2285SOL    HW3 8913   4.809   3.738   4.187  1.0432  2.8656  0.5091
 2285SOL    MW4 8914   4.772   3.735   4.265  0.1328  0.2883  0.0791
 2286SOL     OW 8915   1.048   2.433   0.417 -0.2679  0.0153  0.8735
 2286SOL    HW2 8916   0.989   2.410   0.345 -0.8388  1.9226  0.6721
 2286SOL    HW3 8917   1.008   2.509   0.458  0.7220 -0.2416  2.4276
 2286SOL    MW4 8918   1.035   2.440   0.413 -0.2126  0.2330  1.0519
 2287SOL     OW 8919   6.037   1.402   4.414 -0.2015 -0.0659  0.2440
 2287SOL    HW2 8920   5.956   1.417   4.463 -1.3375  0.2239 -1.6372
 2287SOL    HW3 8921   6.014   1.335   4.350  1.1853 -0.2918 -0.0444
 2287SOL    MW4 8922   6.023   1.395   4.412 -0.1684 -0.0575 -0.0422
 2288SOL     OW 8923   0.983   2.062   5.533  0.4709  0.5330  0.2121
 2288SOL    HW2 8924   0.965   2.015   5.614  0.8917  1.0699  0.6199
 2288SOL    HW3 8925   1.002   2.151   5.560  0.4000  0.7700 -0.4988
 2288SOL    MW4 8926   0.983   2.067   5.547  0.5171  0.6351  0.1721
 2289SOL     OW 8927   0.110   0.566   5.856  0.0860  0.0629  0.0442
 2289SOL    HW2 8928   0.118   0.497   5.790 -1.1107  0.2435 -0.3125
 2289SOL    HW3 8929   0.176   0.544   5.921  0.9667 -0.3932 -0.9619
 2289SOL    MW4 8930   0.120   0.554   5.856  0.0443  0.0266 -0.1356
 2290SOL     OW 8931   4.767   2.313   3.922  0.3047 -0.9006 -0.1099
 2290SOL    HW2 8932   4.695   2.373   3.941 -1.0164 -2.3735 -0.2610
 2290SOL    HW3 8933   4.763   2.248   3.993  1.4407 -1.0533 -0.1667
 2290SOL    MW4 8934   4.757   2.312   3.934  0.2803 -1.1151 -0.1373
 2291SOL     OW 8935   3.613   4.830   4.957  0.2877  0.1026 -0.5973
 2291SOL    HW2 8936   3.542   4.782   4.999  0.5931  1.2461  1.3621
 2291SOL    HW3 8937   3.685   4.768   4.954 -0.0301 -0.2889 -0.2625
 2291SOL    MW4 8938   3.613   4.816   4.962  0.2861  0.2018 -0.2946
 2292SOL     OW 8939   3.690   1.401   0.429 -0.4019 -0.1078  0.6696
 2292SOL    HW2 8940   3.649   1.320   0.397 -1.7116  0.6059  0.5114
 2292SOL    HW3 8941   3.666   1.406   0.521 -1.8644  1.0175  0.2480
 2292SOL    MW4 8942   3.682   1.391   0.437 -0.7677  0.1348  0.5931
 2293SOL     OW 8943   0.501   3.806   2.530 -0.2429 -0.0881 -0.4049
 2293SOL    HW2 8944   0.553   3.753   2.469 -0.6371  0.6738 -1.4354
 2293SOL    HW3 8945   0.423   3.752   2.547 -1.2817  0.6257 -2.4961
 2293SOL    MW4 8946   0.497   3.792   2.524 -0.4320  0.1066 -0.8168
 2294SOL     OW 8947   1.602   6.406   1.759  0.1105 -0.3667  0.7127
 2294SOL    HW2 8948   1.641   6.478   1.807  1.0766 -1.4479  1.5953
 2294SOL    HW3 8949   1.633   6.418   1.669 -0.9067  1.0968  0.5120
 2294SOL    MW4 8950   1.611   6.417   1.753  0.1037 -0.3163  0.8027
 2295SOL     OW 8951   4.916   3.358   1.958 -0.3848 -0.1336  0.0736
 2295SOL    HW2 8952   4.951   3.383   2.044 -0.3833  2.1764 -0.5143
 2295SOL    HW3 8953   4.910   3.263   1.961  2.7939 -0.4400  1.4270
 2295SOL    MW4 8954   4.920   3.349   1.969  0.0348  0.1307  0.1746
 2296SOL     OW 8955   4.403   3.872   1.321 -0.1275  0.0576 -0.0931
 2296SOL    HW2 8956   4.343   3.886   1.394 -0.3988 -0.0296 -0.2989
 2296SOL    HW3 8957   4.352   3.822   1.257 -0.0908  0.6651 -0.6084
 2296SOL    MW4 8958   4.388   3.867   1.322 -0.1584  0.1262 -0.1882
 2297SOL     OW 8959   5.694   0.164   4.776 -0.4189  1.0469 -0.0425
 2297SOL    HW2 8960   5.680   0.090   4.716 -0.9512 -1.7660  3.2009
 2297SOL    HW3 8961   5.773   0.207   4.743  0.1782 -1.2323 -1.9193
 2297SOL    MW4 8962   5.703   0.160   4.764 -0.4104  0.3751  0.1378
 2298SOL     OW 8963   3.690   1.992   2.036  0.7073  0.4204  0.3103
 2298SOL    HW2 8964   3.641   2.006   2.117  0.1978 -0.2389  0.1263
 2298SOL    HW3 8965   3.694   1.897   2.026 -0.7771  0.4704 -1.3221
 2298SOL    MW4 8966   3.684   1.982   2.045  0.4443  0.3400  0.0707
 2299SOL     OW 8967   6.136   5.488   0.510  0.2579 -0.5508  0.6577
 2299SOL    HW2 8968   6.053   5.517   0.471 -0.1061 -1.8562  0.4052
 2299SOL    HW3 8969   6.151   5.549   0.582 -1.5142 -0.9675  1.4270
 2299SOL    MW4 8970   6.127   5.500   0.514 -0.0240 -0.7780  0.7259
 2300SOL     OW 8971   3.575   5.349   1.937 -0.3041  0.1256  0.2322
 2300SOL    HW2 8972   3.633   5.399   1.995  2.7404 -0.6276 -1.9497
 2300SOL    HW3 8973   3.517   5.415   1.899  0.7523  1.3456  0.6734
 2300SOL    MW4 8974   3.575   5.365   1.940  0.2370  0.1872  0.0025
 2301SOL     OW 8975   5.836   6.300   2.487 -0.3241  0.0530  0.6262
 2301SOL    HW2 8976   5.786   6.339   2.558  0.0379  0.8386  0.4676
 2301SOL    HW3 8977   5.925   6.291   2.523 -0.3654 -0.4577  0.5995
 2301SOL    MW4 8978   5.841   6.304   2.501 -0.2818  0.0892  0.6017
 2302SOL     OW 8979   2.725   2.209   2.439  0.8602  0.0378  0.1734
 2302SOL    HW2 8980   2.666   2.135   2.453  1.4530 -0.7865 -1.3914
 2302SOL    HW3 8981   2.669   2.286   2.443 -0.1388 -0.6574 -0.2202
 2302SOL    MW4 8982   2.710   2.209   2.441  0.8066 -0.1627 -0.0850
 2303SOL     OW 8983   4.074   4.798   1.712 -0.4337 -0.3576  0.0441
 2303SOL    HW2 8984   3.987   4.794   1.672  0.1412 -1.5676 -1.1658
 2303SOL    HW3 8985   4.112   4.712   1.695  1.1360  0.2674  0.2439
 2303SOL    MW4 8986   4.067   4.786   1.704 -0.1508 -0.4348 -0.0892
 2304SOL     OW 8987   1.196   2.955   5.750 -0.6396  0.2272  0.2730
 2304SOL    HW2 8988   1.175   3.047   5.766 -0.5059  0.4057 -0.5225
 2304SOL    HW3 8989   1.250   2.956   5.671 -0.7626 -0.5447  0.1657
 2304SOL    MW4 8990   1.200   2.967   5.741 -0.6382  0.1489  0.1539
 2305SOL     OW 8991   4.095   2.113   3.862  0.5987 -0.0513  0.0093
 2305SOL    HW2 8992   4.176   2.102   3.912 -0.2649 -2.2248  1.0228
 2305SOL    HW3 8993   4.110   2.064   3.781  1.1997  1.7110 -1.0091
 2305SOL    MW4 8994   4.108   2.105   3.858  0.5640 -0.1055  0.0087
 2306SOL     OW 8995   3.512   3.356   4.398  0.2320  0.3509 -0.0645
 2306SOL    HW2 8996   3.539   3.384   4.311 -1.3935 -2.3397 -1.5789
 2306SOL    HW3 8997   3.418   3.338   4.390  0.1508 -0.5145  2.0697
 2306SOL    MW4 8998   3.503   3.357   4.386  0.0068 -0.1183  0.0172
 2307SOL     OW 8999   0.570   4.295   5.093 -0.3171  0.1617 -0.1110
 2307SOL    HW2 9000   0.474   4.293   5.089 -0.2801 -1.1443 -0.9513
 2307SOL    HW3 9001   0.598   4.234   5.025  1.1216  0.3428  0.2884
 2307SOL    MW4 9002   0.561   4.287   5.083 -0.1224  0.0133 -0.1692
 2308SOL     OW 9003   2.049   1.137   3.604 -0.3068  0.4006  0.0852
 2308SOL    HW2 9004   2.084   1.146   3.693  1.1840  0.2511 -0.4475
 2308SOL    HW3 9005   2.040   1.226   3.572 -0.8249  0.4535  0.3800
 2308SOL    MW4 9006   2.052   1.150   3.611 -0.1784  0.3879  0.0538
 2309SOL     OW 9007   5.603   6.383   2.316  0.0027  0.0026 -0.7603
 2309SOL    HW2 9008   5.630   6.362   2.227 -0.3020 -0.4460 -0.7466
 2309SOL    HW3 9009   5.670   6.342   2.371  0.2697  0.4007 -0.7853
 2309SOL    MW4 9010   5.616   6.375   2.312 -0.0023 -0.0041 -0.7618
 2310SOL     OW 9011   0.154   3.259   0.313  0.2056 -0.3844 -0.1274
 2310SOL    HW2 9012   0.218   3.238   0.245  1.4180 -2.2745  1.4803
 2310SOL    HW3 9013   0.080   3.200   0.296  1.1072 -1.8849  0.9441
 2310SOL    MW4 9014   0.152   3.249   0.302  0.4845 -0.8318  0.2261
 2311SOL     OW 9015   6.355   5.528   3.317 -0.3160  0.1503  1.1515
 2311SOL    HW2 9016   6.360   5.591   3.245  0.1443  0.1671  1.1961
 2311SOL    HW3 9017   6.275   5.479   3.300 -1.1584  1.3261  1.5962
 2311SOL    MW4 9018   6.345   5.530   3.305 -0.3664  0.3076  1.2160
 2312SOL     OW 9019   1.580   2.674   4.471 -0.6433 -0.0953  0.0083
 2312SOL    HW2 9020   1.512   2.609   4.486 -1.5329  0.9809  0.8227
 2312SOL    HW3 9021   1.613   2.656   4.383 -1.4946 -1.0695 -0.1179
 2312SOL    MW4 9022   1.576   2.663   4.461 -0.8730 -0.0818  0.0991
 2313SOL     OW 9023   5.151   2.395   2.815 -0.0913 -0.0531  0.1239
 2313SOL    HW2 9024   5.217   2.450   2.857  1.0945 -0.3239 -1.3227
 2313SOL    HW3 9025   5.197   2.314   2.794 -0.6629  0.0183 -1.5471
 2313SOL    MW4 9026   5.165   2.391   2.818 -0.0103 -0.0794 -0.2874
 2314SOL     OW 9027   4.281   5.026   3.240  0.9647 -0.3026  0.5172
 2314SOL    HW2 9028   4.258   4.934   3.229 -0.6794  0.2307 -0.9477
 2314SOL    HW3 9029   4.363   5.035   3.191  0.1218 -0.6267 -1.0496
 2314SOL    MW4 9030   4.289   5.015   3.232  0.6366 -0.2750  0.1172
 2315SOL     OW 9031   5.701   0.959   0.626  0.3982 -0.5440 -0.1893
 2315SOL    HW2 9032   5.758   1.006   0.686  1.7828  0.1225 -1.9154
 2315SOL    HW3 9033   5.617   0.951   0.672  1.4048 -0.1528  1.8017
 2315SOL    MW4 9034   5.697   0.964   0.640  0.7137 -0.4045 -0.1543
 2316SOL     OW 9035   6.153   4.824   0.580 -0.4070 -0.1042 -0.1369
 2316SOL    HW2 9036   6.122   4.865   0.499 -0.5885  0.6412  0.3021
 2316SOL    HW3 9037   6.086   4.759   0.601  0.0257 -0.8466 -0.9900
 2316SOL    MW4 9038   6.140   4.821   0.572 -0.3739 -0.1038 -0.1915
 2317SOL     OW 9039   3.278   1.799   0.178  0.5704 -0.0186 -0.1367
 2317SOL    HW2 9040   3.339   1.726   0.186 -0.1596 -0.6892 -0.5980
 2317SOL    HW3 9041   3.246   1.813   0.267  0.8040 -0.1743 -0.0262
 2317SOL    MW4 9042   3.282   1.792   0.191  0.5049 -0.1276 -0.1830
 2318SOL     OW 9043   5.703   1.452   1.403  0.2175 -0.1438 -0.6133
 2318SOL    HW2 9044   5.770   1.419   1.463  0.9887  0.6049 -1.0493
 2318SOL    HW3 9045   5.727   1.543   1.387 -1.7145  0.6007  0.3414
 2318SOL    MW4 9046   5.715   1.459   1.409  0.0643  0.0532 -0.5449
 2319SOL     OW 9047   2.474   4.712   0.080 -0.3244 -0.1022  0.3247
 2319SOL    HW2 9048   2.425   4.744   0.003  0.8129 -0.3135 -0.5140
 2319SOL    HW3 9049   2.416   4.648   0.120 -1.2383  0.5354  0.0722
 2319SOL    MW4 9050   2.460   4.708   0.075 -0.2949 -0.0459  0.1808
 2320SOL     OW 9051   3.458   0.050   3.982  0.0085  0.2982  0.3537
 2320SOL    HW2 9052   3.451  -0.045   3.990 -2.6125  0.4524  0.5722
 2320SOL    HW3 9053   3.420   0.070   3.896  0.8457  1.1354  0.1566
 2320SOL    MW4 9054   3.452   0.040   3.972 -0.2269  0.4290  0.3565
 2321SOL     OW 9055   0.747   4.741   2.292  0.6426 -0.6592 -0.3153
 2321SOL    HW2 9056   0.654   4.728   2.310  0.5603 -0.7748 -0.8136
 2321SOL    HW3 9057   0.751   4.828   2.252  0.5794 -1.1906 -1.5065
 2321SOL    MW4 9058   0.735   4.751   2.289  0.6234 -0.7446 -0.5383
 2322SOL     OW 9059   2.113   5.881   5.754 -0.2478 -0.2550  0.1689
 2322SOL    HW2 9060   2.099   5.788   5.766 -0.5518  0.0474  2.6808
 2322SOL    HW3 9061   2.207   5.890   5.737 -0.4864 -1.0890 -1.9645
 2322SOL    MW4 9062   2.123   5.870   5.753 -0.3194 -0.3251  0.2188
 2323SOL     OW 9063   5.331   1.643   1.188 -0.3803  0.3892 -0.2312
 2323SOL    HW2 9064   5.337   1.671   1.096 -0.0030  1.8298  0.2096
 2323SOL    HW3 9065   5.421   1.647   1.220 -0.4631 -0.4256  0.1287
 2323SOL    MW4 9066   5.344   1.648   1.180 -0.3414  0.4718 -0.1255
 2324SOL     OW 9067   5.634   2.646   0.207  0.2875  0.4274  0.3380
 2324SOL    HW2 9068   5.697   2.671   0.275  2.7063 -1.2371 -1.1101
 2324SOL    HW3 9069   5.568   2.594   0.252 -0.2655  2.4307  1.9616
 2324SOL    MW4 9070   5.634   2.642   0.222  0.5337  0.4721  0.3611
 2325SOL     OW 9071   5.692   2.472   5.187  0.1439  0.2152 -0.0393
 2325SOL    HW2 9072   5.655   2.397   5.140  2.3256 -0.3602 -0.9831
 2325SOL    HW3 9073   5.770   2.437   5.229  0.3792  1.6366  0.7517
 2325SOL    MW4 9074   5.698   2.458   5.186  0.4628  0.3268 -0.0595
 2326SOL     OW 9075   4.178   6.007   5.672  0.1997 -1.0430  0.2563
 2326SOL    HW2 9076   4.106   5.945   5.663 -0.2413 -0.6011  0.6817
 2326SOL    HW3 9077   4.149   6.085   5.627  0.0522 -0.5682  1.1462
 2326SOL    MW4 9078   4.165   6.009   5.665  0.1220 -0.9221  0.4298
 2327SOL     OW 9079   2.487   2.801   4.737  0.0015  0.1997  0.2961
 2327SOL    HW2 9080   2.394   2.827   4.739 -0.0365  0.0883 -0.0098
 2327SOL    HW3 9081   2.485   2.705   4.735  0.1406  0.1505  1.4399
 2327SOL    MW4 9082   2.474   2.792   4.737  0.0148  0.1785  0.4067
 2328SOL     OW 9083   6.245   2.087   3.698  0.3154 -0.6585  0.2478
 2328SOL    HW2 9084   6.322   2.143   3.710  0.1100 -0.0193 -1.2623
 2328SOL    HW3 9085   6.178   2.145   3.663 -0.2648 -1.6118 -0.2576
 2328SOL    MW4 9086   6.246   2.102   3.695  0.2117 -0.7000 -0.0181
 2329SOL     OW 9087   0.041   3.225   0.595  0.1387 -0.2621  0.2021
 2329SOL    HW2 9088  -0.018   3.300   0.598  0.5399  0.0208  2.0153
 2329SOL    HW3 9089   0.045   3.202   0.502 -2.2716  0.1245 -0.0741
 2329SOL    MW4 9090   0.034   3.232   0.583 -0.1264 -0.1738  0.4049
 2330SOL     OW 9091   2.773   2.991   3.736 -0.1842  0.3349  0.1608
 2330SOL    HW2 9092   2.776   3.074   3.783  1.9150  0.7222 -0.5451
 2330SOL    HW3 9093   2.741   2.928   3.801  0.8842  1.1757  1.5572
 2330SOL    MW4 9094   2.769   2.994   3.751  0.2337  0.4969  0.2519
 2331SOL     OW 9095   3.966   0.733   0.147 -0.0178 -0.1675 -0.1325
 2331SOL    HW2 9096   3.956   0.742   0.052 -1.7835  0.1633  0.0444
 2331SOL    HW3 9097   3.951   0.822   0.181  0.9176 -0.2140  0.4539
 2331SOL    MW4 9098   3.963   0.746   0.139 -0.1273 -0.1300 -0.0318
 2332SOL     OW 9099   1.463   4.149   6.209  0.3129  0.1443  0.0283
 2332SOL    HW2 9100   1.410   4.085   6.256 -0.6550  0.3987 -0.6806
 2332SOL    HW3 9101   1.522   4.097   6.154  0.3069 -0.1335  0.2805
 2332SOL    MW4 9102   1.464   4.134   6.208  0.1844  0.1412 -0.0320
 2333SOL     OW 9103   0.775   0.143   5.378 -0.0329 -0.0562 -0.0595
 2333SOL    HW2 9104   0.775   0.133   5.283  0.2031 -0.3469 -0.0311
 2333SOL    HW3 9105   0.716   0.216   5.395  0.8894  0.8221 -0.5159
 2333SOL    MW4 9106   0.767   0.151   5.368  0.1200  0.0213 -0.1160
 2334SOL     OW 9107   1.356   3.979   3.552 -0.4382 -0.4301 -0.3007
 2334SOL    HW2 9108   1.299   4.012   3.482 -1.2130 -0.4118  0.3209
 2334SOL    HW3 9109   1.432   3.943   3.507 -0.3921  0.6108 -1.0895
 2334SOL    MW4 9110   1.358   3.978   3.537 -0.5343 -0.2903 -0.3228
 2335SOL     OW 9111   4.676   3.836   6.401 -0.2474  0.7910  0.0285
 2335SOL    HW2 9112   4.748   3.897   6.412  1.6611 -1.3256 -0.1188
 2335SOL    HW3 9113   4.676   3.815   6.307 -1.0716  0.7722  0.0214
 2335SOL    MW4 9114   4.685   3.841   6.390 -0.1044  0.5093  0.0081
 2336SOL     OW 9115   5.300   2.681   3.680  0.1469  0.3528  0.1609
 2336SOL    HW2 9116   5.259   2.608   3.633  0.6842 -0.1176  0.4129
 2336SOL    HW3 9117   5.227   2.724   3.725  0.0804 -1.3244  1.7573
 2336SOL    MW4 9118   5.285   2.677   3.679  0.2090  0.0694  0.4048
 2337SOL     OW 9119   3.033   5.255   0.197  0.3718 -0.2351 -0.0184
 2337SOL    HW2 9120   2.943   5.249   0.230  0.7421 -2.1685  0.7679
 2337SOL    HW3 9121   3.080   5.306   0.263  0.3364 -1.1917  0.7738
 2337SOL    MW4 9122   3.027   5.261   0.210  0.4160 -0.6164  0.1899
 2338SOL     OW 9123   4.249   3.823   1.948  0.2484 -0.1023 -0.2435
 2338SOL    HW2 9124   4.281   3.753   1.891  0.6115  0.1230 -0.3236
 2338SOL    HW3 9125   4.285   3.801   2.034  2.6681  1.3858 -0.7649
 2338SOL    MW4 9126   4.258   3.811   1.952  0.6156  0.1238 -0.3228
 2339SOL     OW 9127   3.933   1.789   0.517  0.3782  0.3974 -0.4601
 2339SOL    HW2 9128   3.993   1.863   0.508  0.2917  0.5416  0.0679
 2339SOL    HW3 9129   3.935   1.745   0.432  1.2343  0.3992 -0.4526
 2339SOL    MW4 9130   3.941   1.793   0.505  0.4798  0.4166 -0.3895
 2340SOL     OW 9131   2.530   4.975   0.397  0.2582  0.2761  0.0853
 2340SOL    HW2 9132   2.553   4.884   0.413  1.8180  0.1568 -2.3123
 2340SOL    HW3 9133   2.589   5.025   0.454  1.6361 -0.2110 -0.8513
 2340SOL    MW4 9134   2.541   4.970   0.407  0.6458  0.1961 -0.3546
 2341SOL     OW 9135   5.889   3.187   5.487  0.0951 -0.1081  0.3378
 2341SOL    HW2 9136   5.941   3.183   5.407 -0.0995 -1.6101  0.2668
 2341SOL    HW3 9137   5.874   3.281   5.501  1.3527  0.2513 -0.5759
 2341SOL    MW4 9138   5.894   3.199   5.478  0.2353 -0.2589  0.2079
 2342SOL     OW 9139   1.493   0.691   3.904 -0.2419 -0.1466  0.1886
 2342SOL    HW2 9140   1.560   0.652   3.961  0.8700 -0.1422 -1.0553
 2342SOL    HW3 9141   1.542   0.719   3.826 -1.1480  2.7967  0.5473
 2342SOL    MW4 9142   1.509   0.690   3.901 -0.2147  0.2423  0.0718
 2343SOL     OW 9143   1.136   0.636   4.279 -0.1511 -0.7563  0.3410
 2343SOL    HW2 9144   1.099   0.680   4.202 -0.2896 -0.4540  0.5798
 2343SOL    HW3 9145   1.085   0.556   4.288 -0.4166 -0.5842  0.3718
 2343SOL    MW4 9146   1.125   0.631   4.270 -0.2044 -0.6937  0.3765
 2344SOL     OW 9147   2.803   4.603   3.800 -0.1508  0.4547  0.1197
 2344SOL    HW2 9148   2.889   4.592   3.759 -0.1859 -1.1276  0.3846
 2344SOL    HW3 9149   2.770   4.513   3.809 -1.0645  0.9175  1.6394
 2344SOL    MW4 9150   2.810   4.590   3.796 -0.2760  0.3070  0.3552
 2345SOL     OW 9151   0.819   3.938   0.966  0.3855  0.1956  0.1249
 2345SOL    HW2 9152   0.755   3.930   0.895 -0.5130 -0.1641  0.9610
 2345SOL    HW3 9153   0.898   3.897   0.930 -0.0880 -0.0877 -0.6320
 2345SOL    MW4 9154   0.821   3.931   0.952  0.2045  0.1108  0.1353
 2346SOL     OW 9155   0.839   0.517   4.940 -0.2913  0.7512 -0.0646
 2346SOL    HW2 9156   0.758   0.514   4.991 -1.5378  2.0467 -1.8601
 2346SOL    HW3 9157   0.833   0.442   4.881 -0.6377  1.3924 -0.8462
 2346SOL    MW4 9158   0.827   0.506   4.939 -0.5014  1.0067 -0.4046
 2347SOL     OW 9159   0.399   6.250   5.519 -0.0593 -0.5474 -0.3371
 2347SOL    HW2 9160   0.355   6.306   5.582 -0.3591 -1.3740  0.2030
 2347SOL    HW3 9161   0.492   6.269   5.531 -0.1232 -0.6033  0.2617
 2347SOL    MW4 9162   0.406   6.260   5.529 -0.1073 -0.6639 -0.1868
 2348SOL     OW 9163   2.975   0.325   6.231  0.5578 -1.0548  0.5469
 2348SOL    HW2 9164   2.933   0.247   6.268  0.0796 -0.6638  0.8428
 2348SOL    HW3 9165   2.961   0.393   6.297  0.2437 -0.5035 -0.0774
 2348SOL    MW4 9166   2.968   0.323   6.245  0.4532 -0.9304  0.5036
 2349SOL     OW 9167   2.517   4.922   3.858  0.0095 -0.5826  0.0958
 2349SOL    HW2 9168   2.596   4.879   3.891  0.8238  0.8320  0.0907
 2349SOL    HW3 9169   2.484   4.865   3.789  0.8304 -1.3675  0.3421
 2349SOL    MW4 9170   2.523   4.909   3.854  0.2253 -0.4995  0.1276
 2350SOL     OW 9171   2.063   2.883   5.660 -0.5002 -0.6752  0.1815
 2350SOL    HW2 9172   2.029   2.965   5.695 -1.5091 -0.6652 -0.7566
 2350SOL    HW3 9173   1.992   2.819   5.674 -0.3094 -1.0266 -0.3962
 2350SOL    MW4 9174   2.049   2.885   5.666 -0.6082 -0.7202 -0.0185
 2351SOL     OW 9175   1.618   0.451   1.776  0.6536 -0.0252  0.5065
 2351SOL    HW2 9176   1.558   0.515   1.739  1.0894 -0.7456 -1.6122
 2351SOL    HW3 9177   1.565   0.399   1.836 -0.5422  0.1682 -0.3603
 2351SOL    MW4 9178   1.603   0.453   1.779  0.5533 -0.0948  0.1126
 2352SOL     OW 9179   1.397   1.545   1.862  0.0377  0.1400  0.4589
 2352SOL    HW2 9180   1.345   1.588   1.794  0.1614 -1.7677 -0.9247
 2352SOL    HW3 9181   1.333   1.510   1.924 -0.0573  2.4645  1.7882
 2352SOL    MW4 9182   1.382   1.546   1.861  0.0415  0.1950  0.4517
 2353SOL     OW 9183   3.663   4.061   2.460 -0.7086 -0.4080 -0.4911
 2353SOL    HW2 9184   3.641   4.135   2.516 -0.2010 -0.8961  0.3872
 2353SOL    HW3 9185   3.605   3.991   2.489 -0.0390 -0.8382 -0.1613
 2353SOL    MW4 9186   3.653   4.061   2.471 -0.5533 -0.5291 -0.3317
 2354SOL     OW 9187   1.634   2.359   0.617 -0.2351 -0.3886  0.0737
 2354SOL    HW2 9188   1.669   2.419   0.683  0.0977 -1.3140  0.7737
 2354SOL    HW3 9189   1.588   2.292   0.668 -0.0162 -1.0986 -0.6346
 2354SOL    MW4 9190   1.632   2.358   0.632 -0.1623 -0.6044  0.0726
 2355SOL     OW 9191   2.466   6.243   4.755 -0.4813 -0.2099  0.3218
 2355SOL    HW2 9192   2.540   6.267   4.810 -1.1372  0.3362  0.9869
 2355SOL    HW3 9193   2.500   6.176   4.696  0.2168 -0.8623  1.4443
 2355SOL    MW4 9194   2.480   6.238   4.754 -0.4757 -0.2239  0.5577
 2356SOL     OW 9195   0.374   6.257   2.555  0.4578  0.4163 -0.6449
 2356SOL    HW2 9196   0.391   6.218   2.469  0.3396  0.1681 -0.5568
 2356SOL    HW3 9197   0.346   6.183   2.609  1.9412  0.2951  0.0142
 2356SOL    MW4 9198   0.373   6.242   2.550  0.6379  0.3675 -0.5463
 2357SOL     OW 9199   5.209   2.868   2.911  0.2751 -0.0969  0.3123
 2357SOL    HW2 9200   5.142   2.899   2.971  0.8978  2.3897 -0.1637
 2357SOL    HW3 9201   5.267   2.814   2.965 -0.3800  0.2954  1.4372
 2357SOL    MW4 9202   5.208   2.865   2.926  0.2708  0.2830  0.3979
 2358SOL     OW 9203   1.702   4.936   4.203 -0.1145 -0.0547  0.4342
 2358SOL    HW2 9204   1.797   4.942   4.194  0.0223 -1.1396  0.9889
 2358SOL    HW3 9205   1.668   4.943   4.114  0.5712 -0.8656  0.0987
 2358SOL    MW4 9206   1.710   4.938   4.190 -0.0060 -0.3048  0.4631
 2359SOL     OW 9207   1.148   1.647   4.650  0.6096 -0.1551  0.0703
 2359SOL    HW2 9208   1.148   1.677   4.740  0.3085  1.2339 -0.3643
 2359SOL    HW3 9209   1.239   1.624   4.632  0.5675 -1.0095  0.8897
 2359SOL    MW4 9210   1.160   1.648   4.659  0.5643 -0.0846  0.1211
 2360SOL     OW 9211   0.955   1.353   1.273  0.1371 -0.1275  0.3029
 2360SOL    HW2 9212   0.977   1.442   1.245 -1.6829 -0.1515 -1.4092
 2360SOL    HW3 9213   0.903   1.365   1.353  1.4072  0.2038  1.1114
 2360SOL    MW4 9214   0.951   1.366   1.280  0.0645 -0.0869  0.1837
 2361SOL     OW 9215   2.639   6.011   3.889  0.0109  0.2803 -0.6085
 2361SOL    HW2 9216   2.671   6.083   3.835 -0.0960  0.7747 -0.0276
 2361SOL    HW3 9217   2.700   5.939   3.873 -0.8697 -0.0942 -2.5247
 2361SOL    MW4 9218   2.651   6.011   3.880 -0.1194  0.2961 -0.7847
 2362SOL     OW 9219   5.485   6.321   2.702  0.0376 -0.3330 -0.3392
 2362SOL    HW2 9220   5.420   6.356   2.764  0.6136  0.6823 -0.2760
 2362SOL    HW3 9221   5.562   6.376   2.716  0.4182 -0.5620 -1.4578
 2362SOL    MW4 9222   5.487   6.333   2.712  0.1638 -0.2293 -0.4784
 2363SOL     OW 9223   3.240   0.483   1.118 -0.0499 -0.3613  0.6280
 2363SOL    HW2 9224   3.253   0.392   1.090 -2.0994 -0.2104 -1.0199
 2363SOL    HW3 9225   3.295   0.534   1.058 -0.0922 -0.4214  0.5369
 2363SOL    MW4 9226   3.249   0.477   1.106 -0.3258 -0.3494  0.3985
 2364SOL     OW 9227   1.075   2.603   5.598 -0.7144  0.6421  0.3279
 2364SOL    HW2 9228   1.089   2.601   5.503 -1.8674 -2.3130  0.1046
 2364SOL    HW3 9229   0.987   2.639   5.608 -0.3973  1.4346  0.3442
 2364SOL    MW4 9230   1.065   2.608   5.587 -0.8247  0.3568  0.3006
 2365SOL     OW 9231   6.159   4.265   4.655 -0.1952  0.9259 -0.6996
 2365SOL    HW2 9232   6.102   4.257   4.578 -0.0980 -1.0602 -0.6181
 2365SOL    HW3 9233   6.227   4.199   4.641 -0.1082  0.6013  1.0376
 2365SOL    MW4 9234   6.161   4.255   4.643 -0.1709  0.6210 -0.4596
 2366SOL     OW 9235   1.025   5.200   0.257 -0.2312 -0.1447 -0.4181
 2366SOL    HW2 9236   1.009   5.148   0.178 -1.8423  0.0253 -0.2296
 2366SOL    HW3 9237   1.112   5.238   0.243  0.1200 -1.2555 -1.4595
 2366SOL    MW4 9238   1.034   5.198   0.245 -0.3974 -0.2688 -0.5306
 2367SOL     OW 9239   3.327   4.838   1.864  0.1104  0.4202  0.0815
 2367SOL    HW2 9240   3.253   4.814   1.808  1.6239 -0.8585 -1.4634
 2367SOL    HW3 9241   3.360   4.919   1.825  0.4199  0.1826 -0.1578
 2367SOL    MW4 9242   3.322   4.846   1.851  0.3509  0.2201 -0.1539
 2368SOL     OW 9243   0.880   0.103   5.108  0.6952 -0.0216  0.4804
 2368SOL    HW2 9244   0.923   0.188   5.115  4.1258 -1.3849 -1.6056
 2368SOL    HW3 9245   0.825   0.110   5.030 -0.1249  0.6192  1.0906
 2368SOL    MW4 9246   0.878   0.115   5.099  1.0396 -0.1169  0.2856
 2369SOL     OW 9247   5.934   4.566   1.034  0.1189  0.7499  0.3650
 2369SOL    HW2 9248   6.001   4.626   1.003  0.4477 -0.1368 -0.6768
 2369SOL    HW3 9249   5.876   4.552   0.959 -0.5000  0.5066  0.8714
 2369SOL    MW4 9250   5.935   4.572   1.020  0.0806  0.6008  0.2944
 2370SOL     OW 9251   1.312   2.441   0.493 -0.3907 -0.2216 -0.0956
 2370SOL    HW2 9252   1.217   2.441   0.498 -0.3463  0.2900  0.8916
 2370SOL    HW3 9253   1.341   2.418   0.581  0.4075  1.2251  0.0507
 2370SOL    MW4 9254   1.303   2.438   0.505 -0.2796  0.0368  0.0540
 2371SOL     OW 9255   5.294   0.892   3.947  0.1322 -0.0729  0.3884
 2371SOL    HW2 9256   5.251   0.806   3.948 -0.7661  0.3576 -0.3831
 2371SOL    HW3 9257   5.381   0.875   3.911  0.0107 -0.6834  0.3718
 2371SOL    MW4 9258   5.300   0.878   3.943 -0.0024 -0.0967  0.2844
 2372SOL     OW 9259   0.297   6.220   5.082  0.1139  0.1663  0.1653
 2372SOL    HW2 9260   0.209   6.217   5.043  0.7406 -0.4849 -1.2779
 2372SOL    HW3 9261   0.308   6.133   5.121  0.2563  0.1153  0.0119
 2372SOL    MW4 9262   0.287   6.208   5.082  0.2153  0.0737 -0.0454
 2373SOL     OW 9263   6.368   5.100   0.620 -0.1251  0.1227  0.0285
 2373SOL    HW2 9264   6.391   5.015   0.583  1.6795 -0.1710  1.6850
 2373SOL    HW3 9265   6.358   5.083   0.714  0.0871  1.7130  0.3624
 2373SOL    MW4 9266   6.369   5.087   0.628  0.1410  0.2938  0.2911
 2374SOL     OW 9267   3.432   6.144   1.887  0.3454  0.2302 -0.1017
 2374SOL    HW2 9268   3.483   6.224   1.901  0.9744 -0.5445  2.6870
 2374SOL    HW3 9269   3.498   6.074   1.881 -0.2137 -0.2088 -1.9972
 2374SOL    MW4 9270   3.447   6.145   1.888  0.3546  0.0700  0.0162
 2375SOL     OW 9271   5.650   2.721   3.317  0.1578 -0.8105  0.5504
 2375SOL    HW2 9272   5.709   2.663   3.366 -0.3164 -1.1608  0.7073
 2375SOL    HW3 9273   5.682   2.715   3.226 -0.6695 -2.3394  0.3255
 2375SOL    MW4 9274   5.662   2.713   3.311 -0.0140 -1.0584  0.5414
 2376SOL     OW 9275   3.160   0.099   0.380 -0.2538  0.1189  0.6112
 2376SOL    HW2 9276   3.175   0.009   0.408  1.9067  1.1261  3.0609
 2376SOL    HW3 9277   3.068   0.101   0.356 -0.6785 -2.4552  1.6790
 2376SOL    MW4 9278   3.150   0.088   0.380 -0.0248 -0.0878  1.0753
 2377SOL     OW 9279   3.860   4.483   2.266  0.0341 -0.2081 -0.3349
 2377SOL    HW2 9280   3.784   4.536   2.241 -0.4655 -1.3033 -1.2634
 2377SOL    HW3 9281   3.841   4.396   2.230  1.1057 -0.8635  0.6108
 2377SOL    MW4 9282   3.848   4.479   2.258  0.1096 -0.4390 -0.3326
 2378SOL     OW 9283   2.920   2.402   2.365 -0.0590 -0.1729 -0.1252
 2378SOL    HW2 9284   2.892   2.312   2.384  0.5544 -1.1764 -3.2827
 2378SOL    HW3 9285   3.009   2.407   2.399  0.2976 -1.1605 -0.8685
 2378SOL    MW4 9286   2.928   2.391   2.372  0.0689 -0.4356 -0.6399
 2379SOL     OW 9287   0.111   5.369   5.992  0.3158 -0.4031  0.0576
 2379SOL    HW2 9288   0.204   5.378   6.016  0.7533  0.5701 -1.8614
 2379SOL    HW3 9289   0.111   5.310   5.917 -0.6822 -0.6892  0.2647
 2379SOL    MW4 9290   0.123   5.362   5.986  0.2419 -0.3124 -0.1682
 2380SOL     OW 9291   2.059   3.980   4.465  0.0987 -0.3140  0.5204
 2380SOL    HW2 9292   1.977   3.932   4.456  0.1730 -0.2707 -0.5333
 2380SOL    HW3 9293   2.078   4.011   4.376  1.2597 -0.3387  0.7473
 2380SOL    MW4 9294   2.051   3.978   4.452  0.2617 -0.3116  0.4113
 2381SOL     OW 9295   4.528   3.622   4.151  0.9044 -0.7471 -0.4679
 2381SOL    HW2 9296   4.601   3.665   4.196  0.2647 -0.5496  0.3966
 2381SOL    HW3 9297   4.492   3.690   4.094  1.1519 -0.7345 -0.6130
 2381SOL    MW4 9298   4.533   3.637   4.149  0.8526 -0.7194 -0.3730
 2382SOL     OW 9299   0.135   3.737   0.925 -0.4247 -0.0221  0.1386
 2382SOL    HW2 9300   0.162   3.829   0.924 -2.3747  0.6092 -1.1114
 2382SOL    HW3 9301   0.185   3.697   0.854  0.3802  0.0729  0.6395
 2382SOL    MW4 9302   0.145   3.744   0.915 -0.5758  0.0738  0.0398
 2383SOL     OW 9303   1.133   3.181   6.146  0.5812 -0.0314  0.0493
 2383SOL    HW2 9304   1.077   3.243   6.098  0.5851 -0.7940 -0.9639
 2383SOL    HW3 9305   1.073   3.139   6.208  0.0463 -0.6966 -0.8874
 2383SOL    MW4 9306   1.117   3.184   6.148  0.5112 -0.2197 -0.2079
 2384SOL     OW 9307   4.491   4.209   2.529  0.1558  0.0498 -0.2097
 2384SOL    HW2 9308   4.486   4.303   2.510  0.3093 -0.2748 -2.0075
 2384SOL    HW3 9309   4.584   4.189   2.524  0.0881 -0.2742 -0.1631
 2384SOL    MW4 9310   4.503   4.219   2.526  0.1671 -0.0358 -0.4407
 2385SOL     OW 9311   2.126   0.660   2.634 -0.5959 -0.5709  0.3080
 2385SOL    HW2 9312   2.186   0.733   2.622 -1.6482  0.4381  1.0107
 2385SOL    HW3 9313   2.160   0.613   2.710 -1.1143  0.4480  1.1849
 2385SOL    MW4 9314   2.139   0.663   2.642 -0.8032 -0.3033  0.5164
 2386SOL     OW 9315   3.647   2.173   0.813 -0.0427 -0.2915 -0.2414
 2386SOL    HW2 9316   3.659   2.085   0.777  0.0124 -0.6731  0.6947
 2386SOL    HW3 9317   3.592   2.160   0.890  1.8515  0.1844  1.2449
 2386SOL    MW4 9318   3.641   2.160   0.818  0.2145 -0.2791  0.0782
 2387SOL     OW 9319   4.436   1.426   4.170 -0.4337 -0.1895 -0.0658
 2387SOL    HW2 9320   4.456   1.332   4.177  0.5410 -0.0936 -1.2457
 2387SOL    HW3 9321   4.408   1.451   4.257  0.6638 -1.2855  0.6337
 2387SOL    MW4 9322   4.435   1.417   4.182 -0.1603 -0.3215 -0.1292
 2388SOL     OW 9323   1.796   4.116   5.036  0.3289 -0.3806 -0.2886
 2388SOL    HW2 9324   1.794   4.207   5.004 -0.6841  0.9012  2.9943
 2388SOL    HW3 9325   1.884   4.106   5.071  0.4705 -0.7292 -0.7366
 2388SOL    MW4 9326   1.807   4.127   5.036  0.2139 -0.2575  0.0854
 2389SOL     OW 9327   4.655   4.122   3.218 -0.2396  0.2225 -0.3463
 2389SOL    HW2 9328   4.647   4.133   3.123 -0.4268  1.2708 -0.2134
 2389SOL    HW3 9329   4.567   4.138   3.252 -0.1214  0.0824  0.0337
 2389SOL    MW4 9330   4.642   4.125   3.210 -0.2487  0.3423 -0.2786
 2390SOL     OW 9331   3.778   3.360   2.463 -0.5454  0.1919  0.1441
 2390SOL    HW2 9332   3.866   3.392   2.447 -1.0561  1.4029 -0.3144
 2390SOL    HW3 9333   3.753   3.399   2.547 -0.1959 -1.1808  0.9308
 2390SOL    MW4 9334   3.786   3.369   2.472 -0.5666  0.1706  0.1874
 2391SOL     OW 9335   0.783   5.635   0.705 -0.1308 -0.0495 -0.6403
 2391SOL    HW2 9336   0.727   5.560   0.684 -1.4728  0.6330  0.3305
 2391SOL    HW3 9337   0.761   5.700   0.638 -0.7999  0.3481 -0.0524
 2391SOL    MW4 9338   0.773   5.633   0.693 -0.3961  0.0930 -0.4347
 2392SOL     OW 9339   4.069   5.508   1.768  0.5139  0.9728 -0.9534
 2392SOL    HW2 9340   4.041   5.453   1.841  1.0275  1.2443 -0.5427
 2392SOL    HW3 9341   4.124   5.451   1.715  0.1269  0.7699 -1.1435
 2392SOL    MW4 9342   4.073   5.493   1.770  0.5306  0.9818 -0.9243
 2393SOL     OW 9343   1.820   6.063   0.076  0.1001 -0.1189  0.6290
 2393SOL    HW2 9344   1.859   6.150   0.090 -0.1921 -0.0610  1.1210
 2393SOL    HW3 9345   1.759   6.053   0.149 -0.5224 -0.3641  0.0783
 2393SOL    MW4 9346   1.817   6.073   0.087 -0.0206 -0.1436  0.6212
 2394SOL     OW 9347   0.264   4.797   1.608 -0.0978 -0.5356  0.4937
 2394SOL    HW2 9348   0.190   4.845   1.646  0.9092 -0.7963  3.0204
 2394SOL    HW3 9349   0.305   4.754   1.683  2.3076 -0.8437 -0.8999
 2394SOL    MW4 9350   0.260   4.797   1.623  0.3524 -0.6106  0.6432
 2395SOL     OW 9351   0.542   2.170   0.353  0.4596 -0.0726 -0.3237
 2395SOL    HW2 9352   0.570   2.079   0.346  0.9262  0.1611 -1.6672
 2395SOL    HW3 9353   0.623   2.220   0.345  0.1188  0.4810 -0.3210
 2395SOL    MW4 9354   0.557   2.164   0.351  0.4762  0.0313 -0.5006
 2396SOL     OW 9355   1.789   2.249   0.093 -0.4573  0.1911 -0.4240
 2396SOL    HW2 9356   1.774   2.162   0.130  0.6882 -0.6602 -1.8504
 2396SOL    HW3 9357   1.872   2.277   0.131 -0.6761  0.5339 -0.1977
 2396SOL    MW4 9358   1.798   2.241   0.102 -0.3351  0.1240 -0.5823
 2397SOL     OW 9359   6.303   5.712   3.530 -0.2692  0.3080  0.2985
 2397SOL    HW2 9360   6.234   5.661   3.488  0.2487 -0.7470  0.6947
 2397SOL    HW3 9361   6.381   5.696   3.477  0.3695 -0.9614  1.5673
 2397SOL    MW4 9362   6.304   5.704   3.517 -0.1166  0.0013  0.5181
 2398SOL     OW 9363   0.975   0.117   0.954  0.6023 -0.2192 -0.2699
 2398SOL    HW2 9364   1.012   0.042   1.000 -0.1921  0.2908  1.2473
 2398SOL    HW3 9365   1.016   0.114   0.867  1.0698 -2.0125 -0.0238
 2398SOL    MW4 9366   0.986   0.107   0.949  0.5592 -0.3885 -0.0373
 2399SOL     OW 9367   1.015   5.425   4.395  0.4571  0.4524  0.0639
 2399SOL    HW2 9368   0.948   5.357   4.393  0.1100  0.7957 -0.1562
 2399SOL    HW3 9369   1.073   5.405   4.322  0.1866  0.5571 -0.1822
 2399SOL    MW4 9370   1.014   5.414   4.385  0.3756  0.5115  0.0024
 2400SOL     OW 9371   4.355   3.980   6.277  0.2204  0.2935  0.1887
 2400SOL    HW2 9372   4.365   4.015   6.189  2.6714  0.9790  0.6595
 2400SOL    HW3 9373   4.432   4.013   6.325 -2.4965  2.6177  3.4818
 2400SOL    MW4 9374   4.367   3.989   6.272  0.1853  0.6906  0.6853
 2401SOL     OW 9375   4.708   0.894   5.915 -0.4041  0.1361 -0.1804
 2401SOL    HW2 9376   4.667   0.966   5.962 -0.3838  0.0552 -0.0366
 2401SOL    HW3 9377   4.696   0.818   5.972  0.9051  0.3311  0.3824
 2401SOL    MW4 9378   4.701   0.893   5.928 -0.2287  0.1512 -0.0871
 2402SOL     OW 9379   3.521   3.580   0.543 -0.5368 -0.2518  0.1479
 2402SOL    HW2 9380   3.524   3.658   0.487  1.2107 -0.7759 -0.5670
 2402SOL    HW3 9381   3.507   3.508   0.482  0.1373 -0.7093  0.5264
 2402SOL    MW4 9382   3.520   3.581   0.528 -0.2173 -0.3813  0.1035
 2403SOL     OW 9383   1.750   3.849   3.464  0.2561 -0.0186 -0.0947
 2403SOL    HW2 9384   1.814   3.802   3.411 -2.3952 -1.5833 -2.1408
 2403SOL    HW3 9385   1.723   3.787   3.531 -0.8636 -0.3099 -0.7819
 2403SOL    MW4 9386   1.755   3.835   3.466 -0.2414 -0.2635 -0.4553
 2404SOL     OW 9387   6.195   3.753   5.376  0.0897 -0.0571  0.9976
 2404SOL    HW2 9388   6.214   3.726   5.286  0.0777 -1.9058  1.5065
 2404SOL    HW3 9389   6.257   3.824   5.393  0.4723 -0.0591 -0.2769
 2404SOL    MW4 9390   6.206   3.759   5.367  0.1386 -0.3013  0.8966
 2405SOL     OW 9391   2.842   2.045   1.345 -0.3034  0.3159  0.7924
 2405SOL    HW2 9392   2.888   2.096   1.412 -0.3835  1.2189  0.1761
 2405SOL    HW3 9393   2.753   2.038   1.378 -0.1289 -0.0188  1.2050
 2405SOL    MW4 9394   2.837   2.051   1.358 -0.2909  0.3909  0.7655
 2406SOL     OW 9395   0.726   2.928   5.336 -0.3233 -0.3146 -0.1291
 2406SOL    HW2 9396   0.746   2.864   5.404 -1.2794 -0.8034 -0.2893
 2406SOL    HW3 9397   0.649   2.974   5.370  0.3412  0.7452 -0.0236
 2406SOL    MW4 9398   0.718   2.926   5.350 -0.3618 -0.2392 -0.1363
 2407SOL     OW 9399   4.159   3.907   0.935  0.2288  0.3516 -0.2606
 2407SOL    HW2 9400   4.218   3.982   0.943  0.5815  0.0642 -0.1340
 2407SOL    HW3 9401   4.119   3.918   0.849 -0.7082  1.3833  0.2760
 2407SOL    MW4 9402   4.161   3.919   0.925  0.1517  0.4498 -0.1731
 2408SOL     OW 9403   5.660   1.979   5.559 -0.0385  0.6164  0.1156
 2408SOL    HW2 9404   5.610   2.058   5.541 -0.3890  0.1580 -1.0189
 2408SOL    HW3 9405   5.705   1.959   5.476 -2.1182 -1.8821 -0.5365
 2408SOL    MW4 9406   5.660   1.987   5.546 -0.3591  0.2262 -0.1201
 2409SOL     OW 9407   1.038   4.437   3.191 -0.1756 -0.3372  0.0832
 2409SOL    HW2 9408   1.092   4.404   3.119  0.9410 -1.3996  1.3539
 2409SOL    HW3 9409   1.077   4.399   3.269 -1.7386  0.2824  1.2101
 2409SOL    MW4 9410   1.050   4.428   3.192 -0.2345 -0.3956  0.3995
 2410SOL     OW 9411   3.624   5.693   5.889  0.3065  0.1315 -0.0055
 2410SOL    HW2 9412   3.567   5.684   5.966 -0.7286 -1.0062 -0.8806
 2410SOL    HW3 9413   3.672   5.774   5.905 -1.2339  0.9001  0.9711
 2410SOL    MW4 9414   3.623   5.703   5.902 -0.0333  0.0828  0.0079
 2411SOL     OW 9415   4.839   1.726   1.260  0.3216  0.0206 -0.1211
 2411SOL    HW2 9416   4.846   1.743   1.354  2.1089  1.2340 -0.4355
 2411SOL    HW3 9417   4.909   1.778   1.221  1.0289 -2.1299 -1.9268
 2411SOL    MW4 9418   4.849   1.735   1.267  0.6507 -0.1030 -0.4008
 2412SOL     OW 9419   5.237   2.261   4.687  0.3494 -0.4465  0.3058
 2412SOL    HW2 9420   5.174   2.330   4.704  0.6741 -0.3273  1.0690
 2412SOL    HW3 9421   5.204   2.216   4.609 -0.1291  0.2444  0.1086
 2412SOL    MW4 9422   5.224   2.264   4.679  0.3291 -0.3396  0.3805
 2413SOL     OW 9423   2.812   5.095   4.907 -0.6768  0.0275  0.0841
 2413SOL    HW2 9424   2.818   5.063   4.997 -2.6913 -0.0620  0.2293
 2413SOL    HW3 9425   2.775   5.021   4.858 -0.1954  0.2929 -0.6921
 2413SOL    MW4 9426   2.808   5.081   4.912 -0.8791  0.0507  0.0008
 2414SOL     OW 9427   6.285   4.511   3.849 -0.6171 -0.6140  0.2013
 2414SOL    HW2 9428   6.348   4.580   3.870  0.1552 -1.5235  0.9600
 2414SOL    HW3 9429   6.215   4.556   3.802 -0.5598  0.8583  1.4500
 2414SOL    MW4 9430   6.284   4.526   3.846 -0.5077 -0.5397  0.4661
 2415SOL     OW 9431   4.835   3.581   1.486  0.2833  0.0524 -0.3706
 2415SOL    HW2 9432   4.800   3.552   1.570 -1.8763  0.6444 -1.0221
 2415SOL    HW3 9433   4.769   3.640   1.450  2.2772  1.8214 -1.3877
 2415SOL    MW4 9434   4.822   3.585   1.492  0.2614  0.3639 -0.5908
 2416SOL     OW 9435   0.494   6.188   2.305 -0.0375  0.1242 -0.1209
 2416SOL    HW2 9436   0.570   6.158   2.356 -0.2361  0.5165  0.4067
 2416SOL    HW3 9437   0.501   6.140   2.223 -0.1527 -1.1209  0.5731
 2416SOL    MW4 9438   0.505   6.177   2.301 -0.0789  0.0117  0.0403
 2417SOL     OW 9439   0.145   2.337   1.810 -0.6326 -0.1934  0.0593
 2417SOL    HW2 9440   0.092   2.323   1.731 -0.5171  0.6094 -0.1698
 2417SOL    HW3 9441   0.110   2.274   1.873 -0.3206 -1.2738 -0.8112
 2417SOL    MW4 9442   0.133   2.327   1.808 -0.5762 -0.2300 -0.0858
 2418SOL     OW 9443   3.075   2.462   1.315 -0.4956 -0.6174  0.5387
 2418SOL    HW2 9444   2.994   2.441   1.361 -1.1192  0.4894 -0.0107
 2418SOL    HW3 9445   3.068   2.556   1.295  0.8441 -0.5344  0.3334
 2418SOL    MW4 9446   3.064   2.472   1.318 -0.4011 -0.4604  0.4391
 2419SOL     OW 9447   3.300   5.400   3.465  0.6218  0.5233  0.0856
 2419SOL    HW2 9448   3.235   5.334   3.489  0.7154 -0.1434 -1.3731
 2419SOL    HW3 9449   3.356   5.408   3.541  0.1912 -0.5835  0.5346
 2419SOL    MW4 9450   3.298   5.393   3.478  0.5774  0.2893 -0.0476
 2420SOL     OW 9451   4.948   0.212   6.085 -0.0064 -0.2472  0.1719
 2420SOL    HW2 9452   4.853   0.212   6.074 -0.0473  0.6415  0.4254
 2420SOL    HW3 9453   4.982   0.241   6.001 -0.0114  0.3390  0.3669
 2420SOL    MW4 9454   4.940   0.216   6.073 -0.0124 -0.0526  0.2311
 2421SOL     OW 9455   6.125   4.489   2.216 -0.6965  0.2911  0.1358
 2421SOL    HW2 9456   6.136   4.535   2.299  1.3611 -0.4325  0.3389
 2421SOL    HW3 9457   6.035   4.506   2.191 -1.0167  1.5457  1.9014
 2421SOL    MW4 9458   6.115   4.498   2.224 -0.4672  0.3612  0.3955
 2422SOL     OW 9459   5.836   3.292   4.894 -0.1886  0.5527  0.0022
 2422SOL    HW2 9460   5.905   3.225   4.893  0.5614  1.3199 -0.6780
 2422SOL    HW3 9461   5.774   3.261   4.960  0.9564 -0.0003  0.8464
 2422SOL    MW4 9462   5.837   3.279   4.902  0.0614  0.5810  0.0238
 2423SOL     OW 9463   1.174   3.116   1.890  0.0780 -0.3086 -0.5283
 2423SOL    HW2 9464   1.259   3.150   1.860  0.0190  0.6791  0.3582
 2423SOL    HW3 9465   1.158   3.040   1.834  0.7889  0.4267 -1.7826
 2423SOL    MW4 9466   1.183   3.110   1.878  0.1640 -0.0812 -0.5768
 2424SOL     OW 9467   1.939   3.815   0.173  0.4871  0.1289  0.3451
 2424SOL    HW2 9468   1.921   3.722   0.186  0.6710 -0.0623 -0.6579
 2424SOL    HW3 9469   2.016   3.833   0.227  1.8190 -0.8469 -1.1252
 2424SOL    MW4 9470   1.947   3.805   0.181  0.6871 -0.0251  0.0188
 2425SOL     OW 9471   0.830   4.590   3.740  0.4287 -0.3020  0.5198
 2425SOL    HW2 9472   0.805   4.618   3.827  0.8666 -0.8048  0.8173
 2425SOL    HW3 9473   0.798   4.659   3.682 -0.7710 -0.4560  0.9647
 2425SOL    MW4 9474   0.823   4.603   3.744  0.3282 -0.3886  0.6177
 2426SOL     OW 9475   4.983   5.069   5.019 -0.3442  0.4243 -0.3260
 2426SOL    HW2 9476   4.948   5.145   4.973 -1.0504  0.4563  0.2429
 2426SOL    HW3 9477   4.973   5.090   5.112  0.9113  0.2919 -0.1508
 2426SOL    MW4 9478   4.977   5.082   5.025 -0.2717  0.4110 -0.2279
 2427SOL     OW 9479   4.481   1.179   5.639 -0.1356  0.1109  0.1394
 2427SOL    HW2 9480   4.483   1.259   5.586 -0.6581 -1.1230 -1.8456
 2427SOL    HW3 9481   4.402   1.187   5.692  1.0727  1.9641  1.8270
 2427SOL    MW4 9482   4.471   1.190   5.639 -0.0451  0.1926  0.1002
 2428SOL     OW 9483   3.154   2.990   2.277 -0.6180  0.4188  0.5406
 2428SOL    HW2 9484   3.100   3.028   2.346 -0.9852 -0.4172  0.7166
 2428SOL    HW3 9485   3.091   2.963   2.209 -0.2433  1.5661 -0.3055
 2428SOL    MW4 9486   3.138   2.992   2.277 -0.6170  0.4599  0.4522
 2429SOL     OW 9487   2.829   0.421   1.855 -0.1418 -0.2056  0.2562
 2429SOL    HW2 9488   2.920   0.449   1.870  0.1386 -1.1647  0.4151
 2429SOL    HW3 9489   2.796   0.399   1.942 -1.1464  1.8391  0.4647
 2429SOL    MW4 9490   2.837   0.422   1.869 -0.2374 -0.0624  0.3046
 2430SOL     OW 9491   5.775   5.853   3.151  0.6377  0.0246 -0.2409
 2430SOL    HW2 9492   5.832   5.899   3.212  1.2296 -0.7427 -0.2085
 2430SOL    HW3 9493   5.759   5.917   3.081  0.2640  0.7730  0.5144
 2430SOL    MW4 9494   5.780   5.868   3.150  0.6665  0.0221 -0.1370
 2431SOL     OW 9495   4.495   1.125   4.148  0.3861  0.5686 -0.4099
 2431SOL    HW2 9496   4.552   1.089   4.079 -1.2200 -2.0171 -0.5364
 2431SOL    HW3 9497   4.430   1.056   4.164 -0.5050  1.8829  2.3223
 2431SOL    MW4 9498   4.494   1.111   4.141  0.0566  0.4009 -0.0661
 2432SOL     OW 9499   3.286   3.461   2.417 -0.4399 -0.4877 -0.2942
 2432SOL    HW2 9500   3.368   3.450   2.368  0.5187  2.3421  0.4426
 2432SOL    HW3 9501   3.309   3.440   2.507 -0.1187  1.3806  0.1131
 2432SOL    MW4 9502   3.300   3.457   2.422 -0.2711  0.1322 -0.1433
 2433SOL     OW 9503   5.231   1.743   0.628  0.1672 -0.6555 -0.4131
 2433SOL    HW2 9504   5.240   1.802   0.553 -1.1963  0.8452  0.5368
 2433SOL    HW3 9505   5.189   1.664   0.592 -0.6496  0.1228 -1.2122
 2433SOL    MW4 9506   5.226   1.740   0.613 -0.1205 -0.3548 -0.3932
 2434SOL     OW 9507   1.152   4.005   5.493  0.9249 -0.5721 -0.3060
 2434SOL    HW2 9508   1.239   3.986   5.458  1.1992 -0.8104  0.4682
 2434SOL    HW3 9509   1.168   4.046   5.578  0.2871  0.5955 -0.7344
 2434SOL    MW4 9510   1.165   4.008   5.500  0.8770 -0.4495 -0.2603
 2435SOL     OW 9511   0.063   3.945   5.937 -0.2086 -0.3305  0.0857
 2435SOL    HW2 9512   0.022   3.863   5.964 -2.4880  1.3155  2.1355
 2435SOL    HW3 9513   0.123   3.967   6.008  0.9445 -0.5437 -0.8015
 2435SOL    MW4 9514   0.065   3.937   5.950 -0.3572 -0.1415  0.2391
 2436SOL     OW 9515   1.300   5.249   1.126  0.2809  0.1568 -0.2638
 2436SOL    HW2 9516   1.236   5.284   1.187  0.0972 -0.3793 -0.1472
 2436SOL    HW3 9517   1.371   5.314   1.126 -0.8154  1.4110 -1.3790
 2436SOL    MW4 9518   1.301   5.263   1.134  0.1120  0.2516 -0.3956
 2437SOL     OW 9519   1.268   0.197   2.812 -0.0487  0.4607 -0.0780
 2437SOL    HW2 9520   1.297   0.276   2.766 -2.3601  2.8891  2.3164
 2437SOL    HW3 9521   1.334   0.183   2.880  0.2773  0.3901 -0.4024
 2437SOL    MW4 9522   1.281   0.205   2.815 -0.3106  0.7718  0.1951
 2438SOL     OW 9523   5.286   1.819   2.804  0.5173  0.1606 -0.1484
 2438SOL    HW2 9524   5.203   1.775   2.784  0.4971 -0.4955  1.2673
 2438SOL    HW3 9525   5.275   1.854   2.892  1.4713  0.7738 -0.2483
 2438SOL    MW4 9526   5.274   1.818   2.813  0.6405  0.1550  0.0252
 2439SOL     OW 9527   4.662   0.477   0.741  0.0049  0.2731  0.4270
 2439SOL    HW2 9528   4.683   0.401   0.687 -1.9083 -0.6606  0.9063
 2439SOL    HW3 9529   4.630   0.543   0.678  0.8082  0.3868  0.1159
 2439SOL    MW4 9530   4.661   0.476   0.725 -0.1415  0.1649  0.4492
 2440SOL     OW 9531   3.937   0.161   5.012 -0.2415 -0.1381  0.3984
 2440SOL    HW2 9532   4.024   0.143   5.048  0.1819 -1.3691 -1.1597
 2440SOL    HW3 9533   3.920   0.252   5.037  0.1957 -0.7308  3.2518
 2440SOL    MW4 9534   3.946   0.171   5.020 -0.1279 -0.3787  0.5693
 2441SOL     OW 9535   3.040   4.043   6.088 -0.1949 -0.1216 -0.1117
 2441SOL    HW2 9536   3.002   3.955   6.089 -0.3391 -0.0698  1.1723
 2441SOL    HW3 9537   3.107   4.040   6.020  0.8917 -1.7207  0.9616
 2441SOL    MW4 9538   3.044   4.031   6.080 -0.0706 -0.3257  0.1993
 2442SOL     OW 9539   4.127   0.721   5.136 -0.0927  0.2416  0.2744
 2442SOL    HW2 9540   4.048   0.767   5.110  1.2689  2.3459 -0.3946
 2442SOL    HW3 9541   4.188   0.734   5.064  0.7325 -1.7762  0.5355
 2442SOL    MW4 9542   4.125   0.729   5.123  0.1958  0.2530  0.2206
 2443SOL     OW 9543   3.023   3.400   2.318  0.0881 -0.3311 -0.3575
 2443SOL    HW2 9544   3.115   3.419   2.336  0.3003 -0.1152 -1.5723
 2443SOL    HW3 9545   2.986   3.485   2.293 -0.9212 -0.0323  1.8970
 2443SOL    MW4 9546   3.030   3.414   2.317 -0.0171 -0.2632 -0.2203
 2444SOL     OW 9547   5.307   6.382   4.230 -0.4910  0.6353  0.0650
 2444SOL    HW2 9548   5.397   6.401   4.256 -0.0077 -1.0850 -0.2326
 2444SOL    HW3 9549   5.271   6.467   4.202  1.5213  1.1051 -1.3071
 2444SOL    MW4 9550   5.314   6.396   4.230 -0.1617  0.4703 -0.1553
 2445SOL     OW 9551   4.486   5.873   3.074 -0.0715 -0.1738  0.0918
 2445SOL    HW2 9552   4.538   5.793   3.080  0.3173  0.1156  0.6606
 2445SOL    HW3 9553   4.521   5.918   2.997 -0.1616 -0.4529 -0.1150
 2445SOL    MW4 9554   4.497   5.868   3.064 -0.0321 -0.1725  0.1396
 2446SOL     OW 9555   4.105   4.886   4.915 -0.4792  0.4979 -0.4468
 2446SOL    HW2 9556   4.032   4.824   4.903  0.3574 -0.8277  0.9172
 2446SOL    HW3 9557   4.177   4.846   4.866 -0.3365  1.1909 -0.8065
 2446SOL    MW4 9558   4.105   4.872   4.907 -0.3500  0.4144 -0.3143
 2447SOL     OW 9559   3.228   0.817   2.192 -0.6017 -0.2964  0.2627
 2447SOL    HW2 9560   3.290   0.751   2.222 -0.6927 -0.6636 -0.3432
 2447SOL    HW3 9561   3.236   0.888   2.256  2.2601  0.7669 -1.0772
 2447SOL    MW4 9562   3.237   0.818   2.205 -0.2361 -0.2045  0.0059
 2448SOL     OW 9563   4.634   3.847   3.240 -0.4235  0.0270  0.1311
 2448SOL    HW2 9564   4.540   3.836   3.229 -1.0276  2.3411  2.0107
 2448SOL    HW3 9565   4.653   3.934   3.205  0.9693 -0.2652  0.0845
 2448SOL    MW4 9566   4.624   3.857   3.234 -0.3194  0.2938  0.3730
 2449SOL     OW 9567   6.258   0.599   1.341 -0.4297 -0.4864 -0.0903
 2449SOL    HW2 9568   6.211   0.640   1.268 -0.8020 -0.8627 -0.0625
 2449SOL    HW3 9569   6.204   0.617   1.418 -0.4736 -0.8316 -0.0409
 2449SOL    MW4 9570   6.245   0.607   1.342 -0.4846 -0.5816 -0.0801
 2450SOL     OW 9571   3.300   2.248   5.525 -0.2208  0.2796 -0.2072
 2450SOL    HW2 9572   3.339   2.163   5.547  0.1075 -0.0523 -1.9070
 2450SOL    HW3 9573   3.230   2.259   5.589 -1.4653 -2.1457 -1.0155
 2450SOL    MW4 9574   3.296   2.238   5.536 -0.3417 -0.0841 -0.5381
 2451SOL     OW 9575   0.529   4.066   3.119 -0.6604 -0.0735 -0.0797
 2451SOL    HW2 9576   0.441   4.057   3.155 -1.0137 -1.8585 -1.2605
 2451SOL    HW3 9577   0.559   3.976   3.105  0.8722  0.5111 -0.8131
 2451SOL    MW4 9578   0.521   4.053   3.122 -0.5048 -0.2319 -0.3323
 2452SOL     OW 9579   1.916   0.391   4.634 -0.2644  0.4621  0.3990
 2452SOL    HW2 9580   1.971   0.395   4.556 -0.8703  1.0610 -0.0088
 2452SOL    HW3 9581   1.855   0.319   4.616  1.4605 -1.4168  1.6027
 2452SOL    MW4 9582   1.915   0.382   4.621 -0.1168  0.2932  0.5040
 2453SOL     OW 9583   5.504   2.004   3.609 -0.3823 -0.3610 -0.5693
 2453SOL    HW2 9584   5.432   1.964   3.658 -0.6278 -0.3063 -0.8855
 2453SOL    HW3 9585   5.578   2.002   3.670 -0.5959 -0.6031 -0.3159
 2453SOL    MW4 9586   5.504   1.999   3.624 -0.4429 -0.3858 -0.5776
 2454SOL     OW 9587   3.593   6.394   1.662  0.1124 -0.0382  0.5700
 2454SOL    HW2 9588   3.578   6.451   1.586  0.9538  0.2300  0.5891
 2454SOL    HW3 9589   3.543   6.315   1.642 -0.3905  0.3718  0.1478
 2454SOL    MW4 9590   3.584   6.391   1.649  0.1571  0.0513  0.5168
 2455SOL     OW 9591   0.196   1.468   5.016 -0.8857  0.1995 -0.4006
 2455SOL    HW2 9592   0.140   1.540   5.044 -0.2828  0.6808 -0.4023
 2455SOL    HW3 9593   0.270   1.511   4.973 -0.7685 -0.4449 -0.8610
 2455SOL    MW4 9594   0.198   1.483   5.014 -0.7907  0.1780 -0.4615
 2456SOL     OW 9595   4.526   2.306   1.449  0.7250 -0.1212  1.1361
 2456SOL    HW2 9596   4.486   2.226   1.483  1.1071 -0.6564  0.3445
 2456SOL    HW3 9597   4.515   2.370   1.520  0.8009 -0.9892  1.9506
 2456SOL    MW4 9598   4.519   2.304   1.463  0.7854 -0.3064  1.1391
 2457SOL     OW 9599   5.146   4.746   5.002 -0.0792  0.0271 -0.2611
 2457SOL    HW2 9600   5.198   4.817   4.963 -0.9157  0.5635 -0.4274
 2457SOL    HW3 9601   5.055   4.775   4.993 -0.3334  0.1879  2.1195
 2457SOL    MW4 9602   5.141   4.759   4.996 -0.2231  0.1191  0.0311
 2458SOL     OW 9603   3.608   2.541   6.180  0.1984 -0.2817 -0.5699
 2458SOL    HW2 9604   3.550   2.537   6.256  0.9576 -2.2385 -0.0469
 2458SOL    HW3 9605   3.679   2.599   6.207 -0.5535  0.6625 -0.5572
 2458SOL    MW4 9606   3.609   2.548   6.193  0.1994 -0.4153 -0.4992
 2459SOL     OW 9607   4.420   3.585   5.295 -0.2215  0.1170 -0.8278
 2459SOL    HW2 9608   4.331   3.618   5.289 -0.6962 -1.2093 -1.6122
 2459SOL    HW3 9609   4.437   3.578   5.389 -2.0011 -2.1433 -0.5730
 2459SOL    MW4 9610   4.411   3.588   5.307 -0.5189 -0.3562 -0.8977
 2460SOL     OW 9611   1.031   3.572   4.642 -0.0368  0.3260  0.0274
 2460SOL    HW2 9612   0.964   3.513   4.608  0.8092 -0.5691 -0.1543
 2460SOL    HW3 9613   1.101   3.513   4.671 -0.6955  0.9853  3.3752
 2460SOL    MW4 9614   1.031   3.556   4.642 -0.0121  0.2949  0.4451
 2461SOL     OW 9615   6.368   5.961   0.316 -0.3379 -0.2178  0.0200
 2461SOL    HW2 9616   6.442   6.019   0.300  0.7852 -1.9095 -1.2190
 2461SOL    HW3 9617   6.292   6.010   0.283  0.3094  1.2034  0.5513
 2461SOL    MW4 9618   6.368   5.975   0.309 -0.1043 -0.2535 -0.0733
 2462SOL     OW 9619   4.798   2.412   2.420 -0.0040 -0.8199 -0.1645
 2462SOL    HW2 9620   4.870   2.354   2.442  1.6882  1.1943 -0.0898
 2462SOL    HW3 9621   4.724   2.353   2.405  1.8111 -3.0526 -1.0699
 2462SOL    MW4 9622   4.798   2.397   2.421  0.4588 -0.8487 -0.2741
 2463SOL     OW 9623   0.666   6.325   5.514  0.1582 -0.2637  0.0319
 2463SOL    HW2 9624   0.667   6.405   5.566 -3.0106 -0.1659  0.1061
 2463SOL    HW3 9625   0.667   6.254   5.579 -0.1088 -0.2277  0.0736
 2463SOL    MW4 9626   0.667   6.326   5.529 -0.2951 -0.2460  0.0472
 2464SOL     OW 9627   0.783   4.001   3.697  0.1494 -0.2465 -0.2578
 2464SOL    HW2 9628   0.872   3.996   3.662  0.8459  0.4685  1.3057
 2464SOL    HW3 9629   0.776   3.924   3.754  0.0145  0.0698  0.1560
 2464SOL    MW4 9630   0.794   3.990   3.700  0.2235 -0.1104  0.0031
 2465SOL     OW 9631   2.994   1.515   1.620 -0.6047 -0.0614  0.5521
 2465SOL    HW2 9632   2.913   1.467   1.602  0.0203 -1.5931  1.6715
 2465SOL    HW3 9633   2.984   1.598   1.572 -2.6884 -0.3454  0.4271
 2465SOL    MW4 9634   2.982   1.520   1.611 -0.7972 -0.3009  0.6833
 2466SOL     OW 9635   6.105   5.139   2.828 -0.3583 -0.0844 -0.2237
 2466SOL    HW2 9636   6.144   5.055   2.852  0.4517  0.1687 -0.6372
 2466SOL    HW3 9637   6.069   5.172   2.910  1.2100  0.1546  0.4106
 2466SOL    MW4 9638   6.105   5.132   2.842 -0.0445 -0.0195 -0.1946
 2467SOL     OW 9639   1.281   1.413   1.587  0.7216  0.3584 -0.6695
 2467SOL    HW2 9640   1.211   1.353   1.562 -1.2471  2.0176  0.5458
 2467SOL    HW3 9641   1.341   1.360   1.640 -0.6320 -0.6780 -0.1203
 2467SOL    MW4 9642   1.279   1.398   1.590  0.2832  0.4406 -0.4367
 2468SOL     OW 9643   0.349   2.629   6.024  0.1013 -0.5164  0.3301
 2468SOL    HW2 9644   0.399   2.553   6.052 -1.5202 -2.2940 -1.3161
 2468SOL    HW3 9645   0.374   2.641   5.932 -1.4417 -0.6071 -0.1238
 2468SOL    MW4 9646   0.359   2.621   6.016 -0.3162 -0.7629  0.0530
 2469SOL     OW 9647   0.916   0.736   0.466  0.1370 -0.6431  0.2477
 2469SOL    HW2 9648   0.878   0.705   0.384 -0.3398 -0.4284  0.3833
 2469SOL    HW3 9649   1.008   0.754   0.444 -0.5153  1.7753 -0.9273
 2469SOL    MW4 9650   0.923   0.735   0.452 -0.0120 -0.2957  0.1105
 2470SOL     OW 9651   3.195   0.758   5.512 -0.6315 -0.1943 -0.0027
 2470SOL    HW2 9652   3.245   0.785   5.435  0.4248 -0.2309  0.6523
 2470SOL    HW3 9653   3.104   0.775   5.489 -0.1247  3.1253  0.0398
 2470SOL    MW4 9654   3.190   0.764   5.499 -0.4253  0.2388  0.0893
 2471SOL     OW 9655   6.125   4.378   5.156 -0.1464  0.5734 -0.0489
 2471SOL    HW2 9656   6.140   4.355   5.064 -0.7328 -0.2358  0.0418
 2471SOL    HW3 9657   6.195   4.440   5.177 -0.4871  1.3961 -1.2606
 2471SOL    MW4 9658   6.136   4.383   5.147 -0.2688  0.5752 -0.1968
 2472SOL     OW 9659   5.982   6.410   3.443 -0.2126  0.3927 -0.1548
 2472SOL    HW2 9660   5.910   6.473   3.435  0.0776  0.7058 -0.3117
 2472SOL    HW3 9661   6.056   6.462   3.473  0.4583  0.4307 -1.7682
 2472SOL    MW4 9662   5.982   6.425   3.446 -0.0858  0.4390 -0.3883
 2473SOL     OW 9663   1.326   1.664   2.599  0.5898  0.0250 -0.1689
 2473SOL    HW2 9664   1.379   1.696   2.672  0.8592 -1.8747  0.5369
 2473SOL    HW3 9665   1.351   1.572   2.590  0.1832  0.0828 -2.3496
 2473SOL    MW4 9666   1.336   1.656   2.608  0.5717 -0.2180 -0.3635
 2474SOL     OW 9667   3.940   3.766   3.295 -0.5708 -0.0673 -0.4641
 2474SOL    HW2 9668   4.009   3.819   3.334  1.8983 -2.2043 -1.5749
 2474SOL    HW3 9669   3.929   3.803   3.207 -0.2886 -0.1832 -0.5488
 2474SOL    MW4 9670   3.948   3.778   3.288 -0.2078 -0.3646 -0.6218
 2475SOL     OW 9671   3.652   4.588   3.209  0.6654 -0.8004 -0.0721
 2475SOL    HW2 9672   3.688   4.501   3.228 -2.2395 -1.6966  2.1389
 2475SOL    HW3 9673   3.560   4.581   3.233 -0.3114  2.2060 -2.3088
 2475SOL    MW4 9674   3.645   4.576   3.215  0.1532 -0.5220 -0.0755
 2476SOL     OW 9675   4.069   5.063   4.150  0.0325 -0.4613 -0.0738
 2476SOL    HW2 9676   4.013   4.994   4.113  0.2609 -0.9336  0.4558
 2476SOL    HW3 9677   4.145   5.017   4.183 -0.1141 -0.0296  0.8866
 2476SOL    MW4 9678   4.072   5.048   4.149  0.0433 -0.4667  0.1228
 2477SOL     OW 9679   6.228   4.360   4.103  0.1843 -0.2046  0.0300
 2477SOL    HW2 9680   6.214   4.287   4.043 -2.0803  1.8568 -2.1981
 2477SOL    HW3 9681   6.298   4.411   4.062  1.6382 -0.9233  1.4896
 2477SOL    MW4 9682   6.236   4.357   4.089  0.0773 -0.0274 -0.0714
 2478SOL     OW 9683   0.322   1.027   2.799  0.4433 -1.1740 -0.1859
 2478SOL    HW2 9684   0.306   0.986   2.884 -0.7757 -1.8070 -0.7065
 2478SOL    HW3 9685   0.396   1.086   2.815 -0.3017 -0.6269  1.5317
 2478SOL    MW4 9686   0.330   1.029   2.813  0.1842 -1.1853 -0.0280
 2479SOL     OW 9687   4.753   5.759   3.077  0.4947  0.9181  0.0053
 2479SOL    HW2 9688   4.813   5.793   3.142 -0.2085  1.4915  0.3740
 2479SOL    HW3 9689   4.764   5.664   3.081 -0.5776  0.8033  2.0469
 2479SOL    MW4 9690   4.762   5.751   3.086  0.2605  0.9786  0.3233
 2480SOL     OW 9691   4.163   6.203   5.223  0.1822 -0.7284 -0.3908
 2480SOL    HW2 9692   4.116   6.121   5.209 -0.7689 -0.1930 -0.4058
 2480SOL    HW3 9693   4.247   6.191   5.179 -1.1975 -0.4953 -3.3251
 2480SOL    MW4 9694   4.168   6.191   5.215 -0.1253 -0.6270 -0.7799
 2481SOL     OW 9695   3.314   2.395   0.781  0.4224  0.5886  0.7505
 2481SOL    HW2 9696   3.378   2.354   0.722  0.0386  0.1462  0.6288
 2481SOL    HW3 9697   3.291   2.477   0.738 -0.5422 -0.1437 -0.2126
 2481SOL    MW4 9698   3.319   2.400   0.768  0.2445  0.4336  0.6074
 2482SOL     OW 9699   3.478   3.660   5.760  0.2143  0.1130  0.4114
 2482SOL    HW2 9700   3.520   3.662   5.846  0.0717  0.4501  0.4755
 2482SOL    HW3 9701   3.388   3.632   5.778 -0.0230  0.8810  0.4656
 2482SOL    MW4 9702   3.472   3.656   5.774  0.1642  0.2588  0.4270
 2483SOL     OW 9703   3.884   3.919   1.005 -0.2185  0.0335  0.1655
 2483SOL    HW2 9704   3.882   3.968   1.087  0.2245  0.9018 -0.3351
 2483SOL    HW3 9705   3.974   3.928   0.974  0.1290 -1.8570  0.5094
 2483SOL    MW4 9706   3.896   3.926   1.012 -0.1142 -0.1013  0.1448
 2484SOL     OW 9707   4.200   4.770   5.893  0.1065 -0.2750  0.0470
 2484SOL    HW2 9708   4.283   4.805   5.925  0.6676 -1.7281  0.3031
 2484SOL    HW3 9709   4.167   4.718   5.966 -1.6982  1.2912  0.4023
 2484SOL    MW4 9710   4.207   4.767   5.907 -0.0576 -0.2600  0.1277
 2485SOL     OW 9711   5.441   3.264   0.143 -0.7922 -0.1730 -0.2773
 2485SOL    HW2 9712   5.478   3.194   0.089 -1.3202 -1.8101  1.3676
 2485SOL    HW3 9713   5.505   3.335   0.137  0.0148 -0.9730 -1.6248
 2485SOL    MW4 9714   5.454   3.264   0.135 -0.7554 -0.4946 -0.2380
 2486SOL     OW 9715   0.395   1.832   4.124  0.0059  0.0915  0.6445
 2486SOL    HW2 9716   0.436   1.839   4.038 -0.0352  1.1641  0.7027
 2486SOL    HW3 9717   0.312   1.787   4.107  0.0736  0.1463  0.1466
 2486SOL    MW4 9718   0.390   1.827   4.110  0.0094  0.2402  0.5865
 2487SOL     OW 9719   4.671   4.499   4.200 -0.4474 -0.1319  0.1949
 2487SOL    HW2 9720   4.754   4.455   4.217 -0.4631 -0.9133 -1.5157
 2487SOL    HW3 9721   4.669   4.511   4.105 -1.9745  0.5391  0.2754
 2487SOL    MW4 9722   4.682   4.495   4.189 -0.6510 -0.1464 -0.0202
 2488SOL     OW 9723   5.794   5.482   3.200 -0.1541  0.5327  0.2388
 2488SOL    HW2 9724   5.707   5.440   3.201  0.0847  0.0351  0.3420
 2488SOL    HW3 9725   5.854   5.412   3.225  0.3275  0.7643 -0.2552
 2488SOL    MW4 9726   5.790   5.467   3.203 -0.0590  0.4976  0.1872
 2489SOL     OW 9727   6.128   1.006   5.606  0.6781 -0.3831  0.5072
 2489SOL    HW2 9728   6.082   1.090   5.600 -2.0462 -1.4864  3.1818
 2489SOL    HW3 9729   6.207   1.025   5.657 -0.2139  0.5321  1.6155
 2489SOL    MW4 9730   6.132   1.019   5.612  0.2010 -0.4079  1.0063
 2490SOL     OW 9731   5.560   5.241   4.132 -0.0026 -0.0101 -0.0868
 2490SOL    HW2 9732   5.655   5.230   4.135 -0.1163 -0.8680  0.9117
 2490SOL    HW3 9733   5.540   5.252   4.039  0.8644 -1.8156 -0.5238
 2490SOL    MW4 9734   5.570   5.241   4.120  0.0968 -0.3615 -0.0127
 2491SOL     OW 9735   5.725   4.547   2.719  0.4664  0.0091 -0.2403
 2491SOL    HW2 9736   5.664   4.475   2.704  0.9158 -0.7421  1.3247
 2491SOL    HW3 9737   5.722   4.562   2.813  1.3450  1.1773 -0.3789
 2491SOL    MW4 9738   5.717   4.539   2.729  0.6417  0.0641 -0.0521
 2492SOL     OW 9739   3.676   1.802   2.953  0.0574 -0.2283  0.3913
 2492SOL    HW2 9740   3.758   1.760   2.980 -0.3015 -0.9734  0.3380
 2492SOL    HW3 9741   3.654   1.859   3.026 -0.1370 -1.1280  1.0541
 2492SOL    MW4 9742   3.684   1.804   2.966 -0.0156 -0.4453  0.4717
 2493SOL     OW 9743   1.871   0.474   1.493  0.1695  0.3705  0.0239
 2493SOL    HW2 9744   1.860   0.402   1.556 -1.1294  1.3634  0.9944
 2493SOL    HW3 9745   1.920   0.541   1.542  1.6482  0.0788 -0.9712
 2493SOL    MW4 9746   1.876   0.473   1.508  0.1933  0.4630  0.0207
 2494SOL     OW 9747   3.767   5.051   3.850 -0.3062 -0.6095  0.5430
 2494SOL    HW2 9748   3.798   4.976   3.799 -1.0520 -0.7018  0.2040
 2494SOL    HW3 9749   3.825   5.123   3.824  0.1114 -0.9542  0.5081
 2494SOL    MW4 9750   3.779   5.050   3.840 -0.3495 -0.6672  0.4937
 2495SOL     OW 9751   4.643   4.310   4.767 -0.1614  0.1191  0.4268
 2495SOL    HW2 9752   4.568   4.333   4.711 -0.4053  0.7678  1.0015
 2495SOL    HW3 9753   4.705   4.267   4.708 -0.8623 -0.1537 -0.1171
 2495SOL    MW4 9754   4.641   4.308   4.752 -0.2860  0.1687  0.4308
 2496SOL     OW 9755   2.714   4.371   2.381  0.8485  0.2985  0.4376
 2496SOL    HW2 9756   2.761   4.345   2.461 -0.3525 -0.2677  0.9797
 2496SOL    HW3 9757   2.767   4.442   2.345  0.8262  1.3579  2.3570
 2496SOL    MW4 9758   2.727   4.377   2.387  0.6871  0.3636  0.7623
 2497SOL     OW 9759   1.625   2.416   5.386  0.1265 -0.1785  0.0949
 2497SOL    HW2 9760   1.600   2.340   5.333 -1.5561 -0.8507  1.7302
 2497SOL    HW3 9761   1.679   2.379   5.456 -0.7385  0.1088  0.9287
 2497SOL    MW4 9762   1.629   2.401   5.388 -0.2096 -0.2293  0.4206
 2498SOL     OW 9763   5.142   4.093   1.072  0.3017  0.2771  0.5387
 2498SOL    HW2 9764   5.057   4.080   1.031  1.7097 -0.4928 -2.3590
 2498SOL    HW3 9765   5.162   4.185   1.057  0.5065  0.1658  0.1233
 2498SOL    MW4 9766   5.133   4.103   1.065  0.5145  0.1608  0.1016
 2499SOL     OW 9767   3.985   2.754   1.725  0.4001 -0.4352 -0.2371
 2499SOL    HW2 9768   4.053   2.811   1.690  0.2737 -0.7704 -1.0348
 2499SOL    HW3 9769   4.032   2.689   1.777  0.4991  0.8109  1.3334
 2499SOL    MW4 9770   4.000   2.753   1.727  0.3965 -0.3150 -0.1351
 2500SOL     OW 9771   5.676   2.762   4.066 -0.6240  0.4309  0.0971
 2500SOL    HW2 9772   5.719   2.692   4.016 -0.0034  0.9531 -0.1037
 2500SOL    HW3 9773   5.624   2.715   4.132  0.8273 -0.1983  0.8330
 2500SOL    MW4 9774   5.675   2.746   4.068 -0.3506  0.4168  0.1677
 2501SOL     OW 9775   1.436   5.759   1.006 -0.3514 -0.0232 -0.1809
 2501SOL    HW2 9776   1.350   5.765   1.046 -0.5382 -0.4820 -0.5012
 2501SOL    HW3 9777   1.455   5.848   0.976 -0.0160  0.4223  1.3006
 2501SOL    MW4 9778   1.427   5.771   1.007 -0.3318 -0.0250 -0.0277
 2502SOL     OW 9779   2.147   6.366   2.695 -0.0047 -0.3117  0.6848
 2502SOL    HW2 9780   2.155   6.462   2.693 -0.1936 -0.3136 -0.3224
 2502SOL    HW3 9781   2.206   6.340   2.766  2.1334  0.3588 -0.7484
 2502SOL    MW4 9782   2.156   6.376   2.704  0.2524 -0.2235  0.3628
 2503SOL     OW 9783   2.529   3.917   1.602  0.4800 -0.0147  0.7959
 2503SOL    HW2 9784   2.530   3.843   1.663 -1.2412 -0.5562  0.2248
 2503SOL    HW3 9785   2.543   3.877   1.516  0.6538  0.4616  0.5999
 2503SOL    MW4 9786   2.531   3.902   1.599  0.2758 -0.0233  0.6947
 2504SOL     OW 9787   2.378   1.672   5.022 -0.4058  0.4031 -1.0406
 2504SOL    HW2 9788   2.412   1.756   4.991 -2.6015  1.7227 -0.0809
 2504SOL    HW3 9789   2.290   1.692   5.055  0.6103 -1.2778  3.5173
 2504SOL    MW4 9790   2.371   1.686   5.022 -0.5614  0.3554 -0.3127
 2505SOL     OW 9791   2.965   2.033   3.243  0.0350  0.6151  0.5790
 2505SOL    HW2 9792   2.929   1.959   3.291 -2.3978  0.3301 -1.4360
 2505SOL    HW3 9793   2.937   2.110   3.293 -0.4262  0.2586  0.8735
 2505SOL    MW4 9794   2.956   2.034   3.256 -0.3468  0.5305  0.3520
 2506SOL     OW 9795   1.883   4.540   2.669 -0.9900 -0.3246  0.2938
 2506SOL    HW2 9796   1.942   4.500   2.733  0.0472 -1.9110 -1.5605
 2506SOL    HW3 9797   1.810   4.572   2.721  0.2584 -0.6726  2.3745
 2506SOL    MW4 9798   1.881   4.539   2.684 -0.6885 -0.5798  0.3237
 2507SOL     OW 9799   0.915   3.829   2.537  0.0904 -0.4142 -0.3755
 2507SOL    HW2 9800   0.848   3.817   2.469  0.9948 -1.9306 -1.0745
 2507SOL    HW3 9801   0.887   3.906   2.585 -2.8686 -1.7188  0.2129
 2507SOL    MW4 9802   0.902   3.837   2.534 -0.1807 -0.7864 -0.3901
 2508SOL     OW 9803   0.507   4.647   3.024  0.4585 -0.4295 -0.2090
 2508SOL    HW2 9804   0.485   4.577   3.086 -1.0219  0.9105  0.8797
 2508SOL    HW3 9805   0.503   4.605   2.938 -0.2620 -1.7260  0.4213
 2508SOL    MW4 9806   0.503   4.632   3.021  0.1682 -0.4237  0.0178
 2509SOL     OW 9807   2.391   5.333   5.539 -0.2618 -0.5836 -0.0732
 2509SOL    HW2 9808   2.366   5.241   5.541 -3.4052  0.1826  1.2624
 2509SOL    HW3 9809   2.443   5.345   5.619 -0.8053 -0.9939  0.3522
 2509SOL    MW4 9810   2.395   5.323   5.550 -0.7483 -0.5366  0.1591
 2510SOL     OW 9811   1.175   3.851   6.083 -0.5219  0.0668  0.3505
 2510SOL    HW2 9812   1.218   3.851   6.168 -1.7537  0.9237  0.9973
 2510SOL    HW3 9813   1.134   3.937   6.077  0.4218  0.4422 -1.5779
 2510SOL    MW4 9814   1.176   3.863   6.093 -0.5599  0.2294  0.1814
 2511SOL     OW 9815   3.821   4.169   5.456 -0.2435  0.1953  0.8693
 2511SOL    HW2 9816   3.741   4.218   5.442  1.2258  2.2985 -0.7396
 2511SOL    HW3 9817   3.891   4.234   5.452  1.7235 -1.8110  0.1610
 2511SOL    MW4 9818   3.820   4.184   5.454  0.2099  0.2081  0.5636
 2512SOL     OW 9819   5.234   3.665   2.946 -0.1891  0.1253  0.2551
 2512SOL    HW2 9820   5.213   3.758   2.932 -0.0375  0.3841  1.6139
 2512SOL    HW3 9821   5.155   3.628   2.984 -0.1311 -0.2369  0.0270
 2512SOL    MW4 9822   5.221   3.673   2.949 -0.1615  0.1116  0.4043
 2513SOL     OW 9823   0.023   6.137   6.294  0.4408  0.0420 -0.0733
 2513SOL    HW2 9824   0.083   6.065   6.276 -0.6910 -0.7554 -0.8329
 2513SOL    HW3 9825  -0.064   6.098   6.283 -0.1904  1.5785 -0.7748
 2513SOL    MW4 9826   0.019   6.122   6.290  0.2082  0.1395 -0.2661
 2514SOL     OW 9827   2.299   5.659   5.330 -0.0672  0.0135  0.0905
 2514SOL    HW2 9828   2.376   5.603   5.329 -1.8267 -2.5607 -0.6113
 2514SOL    HW3 9829   2.245   5.626   5.401 -1.5491  0.2337 -0.8824
 2514SOL    MW4 9830   2.302   5.647   5.339 -0.4949 -0.2970 -0.1304
 2515SOL     OW 9831   6.244   0.250   3.732  0.1940  0.0562 -0.1417
 2515SOL    HW2 9832   6.277   0.337   3.708  0.2616 -0.2866 -1.3304
 2515SOL    HW3 9833   6.159   0.267   3.773  0.3883  0.7032  0.0088
 2515SOL    MW4 9834   6.237   0.264   3.734  0.2285  0.0963 -0.2787
 2516SOL     OW 9835   0.940   4.942   3.337 -0.4938  0.3328 -0.2265
 2516SOL    HW2 9836   0.929   4.926   3.431  1.8746 -0.2633  0.0241
 2516SOL    HW3 9837   0.928   5.036   3.326  1.1410  0.7315  1.0472
 2516SOL    MW4 9838   0.937   4.952   3.348  0.0344  0.3068 -0.0254
 2517SOL     OW 9839   2.366   1.261   0.941 -0.5050 -0.7800  0.3140
 2517SOL    HW2 9840   2.393   1.197   1.007 -1.1195 -1.3986 -0.0135
 2517SOL    HW3 9841   2.280   1.292   0.970 -1.0310 -1.4587 -0.4391
 2517SOL    MW4 9842   2.358   1.256   0.953 -0.6554 -0.9512  0.1714
 2518SOL     OW 9843   3.107   5.989   6.128 -0.1498  0.2675 -0.5735
 2518SOL    HW2 9844   3.188   5.950   6.096 -0.4219  0.0893 -1.0584
 2518SOL    HW3 9845   3.091   5.945   6.211  0.1808  0.2049 -0.5423
 2518SOL    MW4 9846   3.115   5.978   6.135 -0.1421  0.2357 -0.6333
 2519SOL     OW 9847   0.759   0.174   4.311 -0.9090 -0.4409 -0.0527
 2519SOL    HW2 9848   0.749   0.247   4.250 -0.8594  1.1171  1.7050
 2519SOL    HW3 9849   0.780   0.099   4.256  1.8114  1.4089 -1.7649
 2519SOL    MW4 9850   0.760   0.174   4.296 -0.5435  0.0087 -0.0467
 2520SOL     OW 9851   0.733   0.062   3.111 -0.2995  0.0438  0.0133
 2520SOL    HW2 9852   0.677   0.029   3.181  2.2689 -0.7409  1.8454
 2520SOL    HW3 9853   0.678   0.061   3.033 -2.9143 -0.2380  1.7516
 2520SOL    MW4 9854   0.718   0.058   3.110 -0.3057 -0.0969  0.4844
 2521SOL     OW 9855   3.949   0.122   0.642  0.0567 -0.2858  0.4651
 2521SOL    HW2 9856   4.000   0.188   0.690 -0.1979 -0.1301  0.5230
 2521SOL    HW3 9857   3.906   0.171   0.572  0.3649 -0.5003  0.1220
 2521SOL    MW4 9858   3.950   0.137   0.639  0.0638 -0.2935  0.4274
 2522SOL     OW 9859   3.257   2.741   2.375 -0.5613 -0.0351 -0.0784
 2522SOL    HW2 9860   3.213   2.689   2.307 -1.0091  0.7165 -0.3714
 2522SOL    HW3 9861   3.223   2.830   2.363 -0.2736  0.2032  0.8239
 2522SOL    MW4 9862   3.247   2.746   2.364 -0.5825  0.0955  0.0020
 2523SOL     OW 9863   0.241   4.262   2.583 -0.1501 -0.3449 -0.0255
 2523SOL    HW2 9864   0.327   4.245   2.622  0.3488  0.6366 -0.6668
 2523SOL    HW3 9865   0.233   4.198   2.512  0.0526 -0.4139  0.0147
 2523SOL    MW4 9866   0.251   4.251   2.579 -0.0575 -0.2245 -0.1048
 2524SOL     OW 9867   4.814   2.198   0.193  0.7610 -0.1328 -0.0434
 2524SOL    HW2 9868   4.724   2.225   0.176  0.0397 -1.6313  1.1408
 2524SOL    HW3 9869   4.867   2.270   0.159 -0.8778  0.9603 -0.4326
 2524SOL    MW4 9870   4.809   2.211   0.186  0.4496 -0.1863  0.0615
 2525SOL     OW 9871   2.635   2.569   3.780  0.0372 -0.1711  0.0195
 2525SOL    HW2 9872   2.719   2.524   3.782  0.5133  0.6961  0.2125
 2525SOL    HW3 9873   2.614   2.577   3.687  0.3904 -0.0092 -0.0482
 2525SOL    MW4 9874   2.644   2.564   3.768  0.1466 -0.0354  0.0360
 2526SOL     OW 9875   0.694   4.646   1.912  0.2026 -0.8620  0.0947
 2526SOL    HW2 9876   0.761   4.646   1.981  0.1214  0.8320  0.2005
 2526SOL    HW3 9877   0.655   4.733   1.916 -0.5780 -1.1194 -1.3654
 2526SOL    MW4 9878   0.698   4.657   1.922  0.0889 -0.6724 -0.0840
 2527SOL     OW 9879   5.553   0.458   2.417  0.2640  0.2157  0.5054
 2527SOL    HW2 9880   5.542   0.363   2.428 -0.7853  0.2529 -0.1246
 2527SOL    HW3 9881   5.553   0.471   2.322  1.3665  0.7590  0.5592
 2527SOL    MW4 9882   5.552   0.447   2.406  0.2710  0.2923  0.4294
 2528SOL     OW 9883   5.320   1.190   3.093  0.1819  0.0584 -0.2028
 2528SOL    HW2 9884   5.233   1.226   3.074  0.1967  0.1584 -0.0837
 2528SOL    HW3 9885   5.360   1.179   3.007 -0.1301 -0.4539 -0.2883
 2528SOL    MW4 9886   5.313   1.194   3.079  0.1427  0.0040 -0.1984
 2529SOL     OW 9887   0.766   4.999   0.069  0.3412  0.3928  0.4431
 2529SOL    HW2 9888   0.762   5.079   0.017 -0.4396  0.5337  0.7115
 2529SOL    HW3 9889   0.707   4.938   0.024  1.4398 -0.2710 -0.1403
 2529SOL    MW4 9890   0.758   5.002   0.056  0.3831  0.3238  0.4015
 2530SOL     OW 9891   5.546   1.829   1.963 -0.3461 -0.0093  0.0922
 2530SOL    HW2 9892   5.505   1.773   1.897  0.4392 -1.2385  0.6052
 2530SOL    HW3 9893   5.607   1.884   1.915  1.0939 -1.7164 -0.1096
 2530SOL    MW4 9894   5.549   1.829   1.948 -0.0525 -0.3967  0.1333
 2531SOL     OW 9895   6.219   1.225   4.918 -0.2602 -0.4293 -0.4541
 2531SOL    HW2 9896   6.179   1.212   4.832  0.3574 -0.5626 -0.7244
 2531SOL    HW3 9897   6.284   1.294   4.904  0.6732 -1.2646 -0.3683
 2531SOL    MW4 9898   6.222   1.232   4.905 -0.0555 -0.5571 -0.4784
 2532SOL     OW 9899   3.123   0.826   2.968  0.0985  0.1985  0.2558
 2532SOL    HW2 9900   3.084   0.854   2.886 -1.2094 -2.0889  0.0101
 2532SOL    HW3 9901   3.146   0.735   2.954 -0.5029 -0.3735  2.5087
 2532SOL    MW4 9902   3.121   0.818   2.956 -0.1534 -0.1787  0.5207
 2533SOL     OW 9903   5.513   6.091   3.504  0.3270 -0.4549  0.0228
 2533SOL    HW2 9904   5.594   6.142   3.507  0.9024 -1.3516  0.0699
 2533SOL    HW3 9905   5.515   6.038   3.584 -1.3285  0.9978  1.1131
 2533SOL    MW4 9906   5.524   6.091   3.515  0.1845 -0.3816  0.1729
 2534SOL     OW 9907   2.457   3.290   3.157  0.6241  0.2118 -0.6326
 2534SOL    HW2 9908   2.523   3.222   3.148  0.7620  0.3219 -0.4652
 2534SOL    HW3 9909   2.507   3.372   3.156  0.3854  0.3526 -1.6480
 2534SOL    MW4 9910   2.472   3.292   3.156  0.6108  0.2449 -0.7445
 2535SOL     OW 9911   3.713   1.682   4.856 -0.0923  0.3888 -0.0631
 2535SOL    HW2 9912   3.627   1.648   4.879  0.1358  1.0260  1.9074
 2535SOL    HW3 9913   3.700   1.725   4.772 -1.9463  1.2792  0.6357
 2535SOL    MW4 9914   3.700   1.683   4.848 -0.3069  0.5903  0.2891
 2536SOL     OW 9915   4.661   0.761   3.214  0.1244 -0.9388 -0.2773
 2536SOL    HW2 9916   4.597   0.827   3.187  0.7241 -0.9068 -1.7695
 2536SOL    HW3 9917   4.734   0.773   3.152  1.8265 -0.6117  1.6961
 2536SOL    MW4 9918   4.662   0.771   3.202  0.4281 -0.8914 -0.2138
 2537SOL     OW 9919   0.239   6.170   1.228  0.1186 -0.7045  0.3730
 2537SOL    HW2 9920   0.231   6.237   1.296 -0.7574  1.0173 -1.3103
 2537SOL    HW3 9921   0.168   6.108   1.247 -0.2559 -0.1249  0.8918
 2537SOL    MW4 9922   0.228   6.171   1.240 -0.0464 -0.4009  0.2194
 2538SOL     OW 9923   0.600   2.624   1.517 -0.0964 -0.1565  0.1121
 2538SOL    HW2 9924   0.525   2.666   1.560  0.9687  1.0832  0.8233
 2538SOL    HW3 9925   0.564   2.588   1.436 -1.7373 -0.7896  1.0645
 2538SOL    MW4 9926   0.585   2.625   1.512 -0.1724 -0.0765  0.3316
 2539SOL     OW 9927   1.242   3.401   4.737  0.1961  0.0755  0.2116
 2539SOL    HW2 9928   1.226   3.329   4.675  0.8984  0.6419 -0.6633
 2539SOL    HW3 9929   1.301   3.460   4.689  0.8341  0.4873  1.4692
 2539SOL    MW4 9930   1.248   3.399   4.722  0.3729  0.2046  0.2621
 2540SOL     OW 9931   6.304   5.787   2.616  0.4329  0.0969 -0.1571
 2540SOL    HW2 9932   6.258   5.717   2.663  1.0974 -0.4214 -0.2680
 2540SOL    HW3 9933   6.346   5.838   2.685 -0.6522  0.8465 -0.0184
 2540SOL    MW4 9934   6.303   5.785   2.631  0.3774  0.1274 -0.1534
 2541SOL     OW 9935   5.628   0.540   2.145 -0.1747  0.4233 -0.4121
 2541SOL    HW2 9936   5.722   0.525   2.159 -0.2828 -0.1115 -0.2282
 2541SOL    HW3 9937   5.606   0.484   2.070 -0.5663 -0.2696  0.2120
 2541SOL    MW4 9938   5.637   0.530   2.137 -0.2407  0.2614 -0.3055
 2542SOL     OW 9939   5.327   4.568   4.703 -0.2705  0.3950  0.3907
 2542SOL    HW2 9940   5.288   4.531   4.782 -0.6522  0.3580  0.1824
 2542SOL    HW3 9941   5.303   4.508   4.633  2.9694 -1.5746  0.7228
 2542SOL    MW4 9942   5.319   4.555   4.705  0.1066  0.1302  0.4070
 2543SOL     OW 9943   0.840   2.791   2.902 -0.3808 -0.0322 -0.4425
 2543SOL    HW2 9944   0.855   2.726   2.970 -1.0608 -0.0353 -0.2930
 2543SOL    HW3 9945   0.820   2.740   2.823 -0.6323 -0.0112 -0.3928
 2543SOL    MW4 9946   0.839   2.776   2.900 -0.5037 -0.0298 -0.4162
 2544SOL     OW 9947   1.785   0.636   3.334  0.6801  0.4599 -0.0687
 2544SOL    HW2 9948   1.822   0.700   3.273  2.4504 -2.1754 -1.9891
 2544SOL    HW3 9949   1.828   0.554   3.312 -1.0315 -1.3463  2.6428
 2544SOL    MW4 9950   1.796   0.634   3.323  0.6878 -0.1261  0.0357
 2545SOL     OW 9951   0.017   3.377   2.965  0.2836 -0.1663 -0.2748
 2545SOL    HW2 9952   0.102   3.399   3.001  0.5929  0.3692 -1.2881
 2545SOL    HW3 9953   0.029   3.290   2.927  0.9877  0.7175 -2.2000
 2545SOL    MW4 9954   0.030   3.368   2.965  0.4173  0.0209 -0.6625
 2546SOL     OW 9955   5.896   3.424   3.887  0.0834 -0.1075  0.7740
 2546SOL    HW2 9956   5.980   3.468   3.885  0.3332 -0.6123 -0.3571
 2546SOL    HW3 9957   5.832   3.495   3.891  0.5445  0.2849  3.7173
 2546SOL    MW4 9958   5.898   3.439   3.887  0.1772 -0.1223  1.0131
 2547SOL     OW 9959   4.640   4.095   5.136 -0.4806  0.2419 -0.3807
 2547SOL    HW2 9960   4.677   4.182   5.148 -0.9932  0.3728  0.2900
 2547SOL    HW3 9961   4.606   4.095   5.047  0.6442  0.2933 -0.8281
 2547SOL    MW4 9962   4.640   4.106   5.126 -0.3999  0.2659 -0.3512
 2548SOL     OW 9963   2.217   2.079   3.551 -0.0406  0.1521  0.5180
 2548SOL    HW2 9964   2.308   2.053   3.540  0.3294  0.7192  1.9584
 2548SOL    HW3 9965   2.221   2.151   3.614 -1.5082 -0.0368  0.8578
 2548SOL    MW4 9966   2.230   2.085   3.558 -0.1854  0.2020  0.7529
 2549SOL     OW 9967   5.587   0.357   3.308  0.1975  0.5723  0.0397
 2549SOL    HW2 9968   5.614   0.409   3.232 -0.4972  1.4890  0.3910
 2549SOL    HW3 9969   5.507   0.313   3.280 -0.6710  1.7550  0.5382
 2549SOL    MW4 9970   5.580   0.358   3.294 -0.0088  0.8493  0.1518
 2550SOL     OW 9971   4.620   0.584   1.649 -0.3964  0.5759  0.1730
 2550SOL    HW2 9972   4.526   0.598   1.659 -0.9809 -1.2679 -2.0453
 2550SOL    HW3 9973   4.658   0.671   1.663 -2.4203  1.4229  0.8787
 2550SOL    MW4 9974   4.613   0.597   1.653 -0.7406  0.4444 -0.0266
 2551SOL     OW 9975   0.922   6.306   6.121 -0.3703  0.4071  0.2536
 2551SOL    HW2 9976   0.848   6.292   6.062 -0.4777 -1.7470  0.8087
 2551SOL    HW3 9977   0.921   6.230   6.179  2.0223  0.5175  0.5464
 2551SOL    MW4 9978   0.913   6.294   6.121 -0.0688  0.1375  0.3655
 2552SOL     OW 9979   2.482   2.095   0.816  0.3519  0.1594 -0.2929
 2552SOL    HW2 9980   2.422   2.164   0.845  2.2345  2.2529 -1.1114
 2552SOL    HW3 9981   2.526   2.132   0.740  2.8576 -1.1471  0.4230
 2552SOL    MW4 9982   2.480   2.109   0.810  0.9309  0.2633 -0.3064
 2553SOL     OW 9983   1.904   4.391   5.740  0.4578  0.3526 -0.9093
 2553SOL    HW2 9984   1.998   4.386   5.758  0.4771 -0.3439 -1.1864
 2553SOL    HW3 9985   1.862   4.370   5.823  0.5462 -0.0451 -0.9659
 2553SOL    MW4 9986   1.911   4.388   5.753  0.4720  0.2082 -0.9533
 2554SOL     OW 9987   5.665   3.709   1.742 -0.1869  0.2546  0.2417
 2554SOL    HW2 9988   5.652   3.739   1.652 -0.2637  0.3956  0.2996
 2554SOL    HW3 9989   5.607   3.634   1.751 -0.4396  0.4565  0.2840
 2554SOL    MW4 9990   5.656   3.703   1.731 -0.2304  0.2998  0.2549
 2555SOL     OW 9991   3.997   0.688   4.265  0.0039  0.1369  0.1139
 2555SOL    HW2 9992   4.072   0.629   4.267  0.8195  1.1304 -0.2859
 2555SOL    HW3 9993   3.921   0.630   4.266  0.7574 -0.8839  0.9166
 2555SOL    MW4 9994   3.997   0.673   4.265  0.2110  0.1333  0.1671
 2556SOL     OW 9995   3.217   5.094   2.848 -0.4491 -0.2822  0.7903
 2556SOL    HW2 9996   3.169   5.050   2.777  2.2799 -3.6368  0.7442
 2556SOL    HW3 9997   3.292   5.134   2.805  0.1258 -0.5516  1.5172
 2556SOL    MW4 9998   3.220   5.094   2.833 -0.0132 -0.7603  0.8801
 2557SOL     OW 9999   4.425   1.201   2.499 -0.0387 -0.0237  0.3020
 2557SOL    HW210000   4.417   1.262   2.426  1.0083  2.0140  1.8123
 2557SOL    HW310001   4.476   1.128   2.463  0.4039  0.9048 -1.0161
 2557SOL    MW410002   4.431   1.199   2.485  0.1578  0.3677  0.3273
 2558SOL     OW10003   4.045   1.735   5.154 -0.3195  0.6746 -0.3623
 2558SOL    HW210004   4.027   1.736   5.060 -2.8426 -0.5998  0.0266
 2558SOL    HW310005   4.110   1.665   5.165 -0.0575  0.7836 -1.1239
 2558SOL    MW410006   4.051   1.726   5.143 -0.6178  0.5208 -0.4115
 2559SOL     OW10007   0.433   5.781   2.597  0.2237 -0.2223 -0.1127
 2559SOL    HW210008   0.488   5.703   2.602 -0.3122 -0.6080 -0.1040
 2559SOL    HW310009   0.396   5.778   2.509  0.3917  0.1591 -0.1995
 2559SOL    MW410010   0.435   5.771   2.586  0.1752 -0.2229 -0.1230
 2560SOL     OW10011   1.502   5.809   4.316  0.3509  0.7438  0.0445
 2560SOL    HW210012   1.559   5.831   4.390 -0.2238 -1.1100  1.1141
 2560SOL    HW310013   1.486   5.893   4.272  1.9530  1.6640  1.1017
 2560SOL    MW410014   1.508   5.823   4.320  0.4864  0.6206  0.3251
 2561SOL     OW10015   4.393   1.575   4.798  0.4897 -0.0850 -0.4190
 2561SOL    HW210016   4.445   1.582   4.878 -0.5011 -1.4396  0.3918
 2561SOL    HW310017   4.457   1.554   4.730  1.3090  0.7726  0.0631
 2561SOL    MW410018   4.409   1.573   4.800  0.4671 -0.1506 -0.2484
 2562SOL     OW10019   6.150   3.533   3.907 -0.2756  0.1495 -0.3490
 2562SOL    HW210020   6.187   3.480   3.836 -1.0710  1.0993 -1.5213
 2562SOL    HW310021   6.220   3.593   3.931  0.2616 -0.6836  0.2345
 2562SOL    MW410022   6.164   3.534   3.901 -0.3097  0.1649 -0.4267
 2563SOL     OW10023   1.780   5.096   0.754 -0.0432 -0.1166 -0.2735
 2563SOL    HW210024   1.861   5.140   0.780  0.1834 -0.8854  0.3665
 2563SOL    HW310025   1.807   5.037   0.683  0.0449 -0.6607  0.2042
 2563SOL    MW410026   1.794   5.094   0.748 -0.0017 -0.2898 -0.1260
 2564SOL     OW10027   3.590   4.913   4.406 -0.2511  0.3784 -0.1035
 2564SOL    HW210028   3.547   4.991   4.369  1.7711  0.8935 -1.5929
 2564SOL    HW310029   3.579   4.922   4.500 -0.6343  2.1530 -0.2722
 2564SOL    MW410030   3.583   4.925   4.413 -0.0349  0.6805 -0.3223
 2565SOL     OW10031   4.722   0.734   5.495  0.4983 -0.4442  0.1423
 2565SOL    HW210032   4.666   0.788   5.552  0.6777 -0.0704 -0.0283
 2565SOL    HW310033   4.790   0.794   5.465 -0.0057 -0.4399 -1.0447
 2565SOL    MW410034   4.723   0.749   5.498  0.4555 -0.3943 -0.0369
 2566SOL     OW10035   4.020   5.706   0.017  0.0107 -0.1800  0.1086
 2566SOL    HW210036   3.961   5.782   0.024  2.0632  1.5525 -0.2981
 2566SOL    HW310037   4.015   5.682  -0.076 -1.2433 -1.1180  0.3864
 2566SOL    MW410038   4.011   5.713   0.005  0.1161 -0.0752  0.0916
 2567SOL     OW10039   4.686   2.982   0.185  0.0804 -0.1484 -0.0368
 2567SOL    HW210040   4.665   2.892   0.160 -1.9113  0.0052  0.9432
 2567SOL    HW310041   4.744   3.012   0.115  0.6710 -2.1096 -0.4762
 2567SOL    MW410042   4.691   2.974   0.172 -0.1045 -0.3869  0.0345
 2568SOL     OW10043   5.659   3.571   3.851 -0.2171 -0.0780  0.2179
 2568SOL    HW210044   5.620   3.541   3.769  0.3764  2.1119 -0.9209
 2568SOL    HW310045   5.615   3.518   3.919 -1.0758 -1.5878 -1.4359
 2568SOL    MW410046   5.648   3.560   3.849 -0.2521  0.0117 -0.1506
 2569SOL     OW10047   6.167   4.611   6.042 -0.2715 -0.1112  0.2131
 2569SOL    HW210048   6.108   4.578   5.975  0.9930  0.0396 -1.0074
 2569SOL    HW310049   6.255   4.588   6.011  0.5524  2.5350  0.3333
 2569SOL    MW410050   6.171   4.604   6.029  0.0041  0.2579  0.0680
 2570SOL     OW10051   1.979   1.884   2.134 -0.0066 -0.0183 -0.2174
 2570SOL    HW210052   1.952   1.975   2.132 -0.8698 -0.2713 -1.0982
 2570SOL    HW310053   2.072   1.885   2.111 -0.0846  0.6125 -0.5030
 2570SOL    MW410054   1.988   1.896   2.131 -0.1308  0.0315 -0.3713
 2571SOL     OW10055   3.781   0.799   2.441  0.0452 -0.2794 -0.2895
 2571SOL    HW210056   3.861   0.753   2.465  1.3917  2.0975  0.0722
 2571SOL    HW310057   3.775   0.871   2.504 -2.1119 -0.0697 -0.6493
 2571SOL    MW410058   3.791   0.802   2.452 -0.0617  0.0618 -0.2892
 2572SOL     OW10059   3.838   5.817   4.060 -0.1699 -0.8194 -0.2371
 2572SOL    HW210060   3.767   5.809   4.124  0.7481 -2.0443  0.6822
 2572SOL    HW310061   3.900   5.879   4.101 -0.2753 -0.4499 -0.6287
 2572SOL    MW410062   3.837   5.824   4.074 -0.0627 -0.9323 -0.1675
 2573SOL     OW10063   3.079   2.003   6.388 -0.4601  0.0046 -0.7925
 2573SOL    HW210064   3.071   1.987   6.294  1.3551 -0.3862 -0.9235
 2573SOL    HW310065   3.174   2.001   6.404 -0.6812  1.0113  0.8816
 2573SOL    MW410066   3.091   2.001   6.378 -0.2498  0.0859 -0.5889
 2574SOL     OW10067   1.284   3.820   2.995 -0.1631  0.0521  0.4182
 2574SOL    HW210068   1.312   3.754   2.931  0.2063  0.2469  0.3746
 2574SOL    HW310069   1.355   3.884   2.996 -1.3021  1.4322 -0.9105
 2574SOL    MW410070   1.297   3.820   2.986 -0.2646  0.2599  0.2371
 2575SOL     OW10071   4.787   3.196   6.170 -0.3554 -0.3129 -0.2597
 2575SOL    HW210072   4.830   3.281   6.178  1.1657 -1.1942  1.9465
 2575SOL    HW310073   4.847   3.143   6.117  1.1935 -1.3609  2.3285
 2575SOL    MW410074   4.800   3.200   6.164  0.0497 -0.5675  0.3729
 2576SOL     OW10075   1.079   6.038   1.697  0.4879 -0.5475 -0.3026
 2576SOL    HW210076   1.024   6.032   1.619  0.8166 -0.7073 -0.5247
 2576SOL    HW310077   1.094   5.947   1.722 -1.1485 -0.4796  1.0376
 2576SOL    MW410078   1.074   6.025   1.690  0.3154 -0.5596 -0.1551
 2577SOL     OW10079   4.712   3.332   5.298 -0.3036  0.0851  0.3705
 2577SOL    HW210080   4.709   3.247   5.342 -0.8652 -0.0350  0.1103
 2577SOL    HW310081   4.721   3.395   5.369 -1.6836 -0.0722  0.7115
 2577SOL    MW410082   4.713   3.329   5.313 -0.5598  0.0485  0.3811
 2578SOL     OW10083   6.291   4.037   5.265 -0.0185  0.2684  0.4340
 2578SOL    HW210084   6.355   4.026   5.335 -1.3732 -0.6525  1.5667
 2578SOL    HW310085   6.222   4.091   5.304 -0.1078  0.9917 -0.6733
 2578SOL    MW410086   6.290   4.043   5.279 -0.2090  0.2423  0.4374
 2579SOL     OW10087   5.810   4.388   5.878  0.2930  1.1364 -0.1665
 2579SOL    HW210088   5.752   4.397   5.802  0.1564  3.0619  0.1183
 2579SOL    HW310089   5.786   4.304   5.916 -0.1621  0.4735 -1.8131
 2579SOL    MW410090   5.799   4.378   5.873  0.2149  1.3030 -0.3462
 2580SOL     OW10091   0.740   0.268   2.751 -0.2399  0.1231  0.2040
 2580SOL    HW210092   0.690   0.346   2.777 -0.0708  0.0838  0.6586
 2580SOL    HW310093   0.829   0.286   2.782 -0.1916 -0.2345  0.2731
 2580SOL    MW410094   0.745   0.281   2.758 -0.2112  0.0707  0.2731
 2581SOL     OW10095   4.187   5.218   0.886 -0.2267 -0.3217 -0.5473
 2581SOL    HW210096   4.176   5.249   0.796  0.2570  0.4866 -0.3393
 2581SOL    HW310097   4.130   5.274   0.938  2.5262  2.0923  0.1796
 2581SOL    MW410098   4.178   5.229   0.881  0.2003  0.1035 -0.4239
 2582SOL     OW10099   2.896   0.859   5.150 -0.0219  0.1773 -0.6240
 2582SOL    HW210100   2.980   0.882   5.109 -0.0691  0.5170 -0.5296
 2582SOL    HW310101   2.919   0.829   5.238 -0.1788  2.4837  0.2656
 2582SOL    MW410102   2.910   0.858   5.156 -0.0488  0.5264 -0.4942
 2583SOL     OW10103   4.813   5.233   5.774 -0.1370  0.4077 -0.3465
 2583SOL    HW210104   4.757   5.158   5.753  0.1206  0.3898 -0.9980
 2583SOL    HW310105   4.894   5.216   5.726 -0.2053  1.2706 -0.7830
 2583SOL    MW410106   4.816   5.221   5.765 -0.1120  0.5192 -0.4901
 2584SOL     OW10107   4.030   5.170   5.433 -0.1825 -0.3663 -0.1989
 2584SOL    HW210108   4.020   5.159   5.528 -2.9180  1.7268 -0.1323
 2584SOL    HW310109   4.022   5.081   5.398  1.1629 -1.2181  1.4848
 2584SOL    MW410110   4.028   5.157   5.441 -0.3659 -0.2025  0.0321
 2585SOL     OW10111   0.355   5.116   5.091  0.7374 -0.3036 -0.5547
 2585SOL    HW210112   0.277   5.166   5.069  1.5839  1.2071 -0.2896
 2585SOL    HW310113   0.427   5.165   5.049  1.6411 -1.0572  0.0694
 2585SOL    MW410114   0.354   5.129   5.083  0.9683 -0.2037 -0.4373
 2586SOL     OW10115   2.803   0.681   2.093  0.5969  0.5578 -0.6423
 2586SOL    HW210116   2.831   0.637   2.173  0.5325 -1.4302 -1.6634
 2586SOL    HW310117   2.883   0.691   2.041  0.0540 -2.5553 -2.3336
 2586SOL    MW410118   2.817   0.677   2.097  0.5168 -0.1152 -1.0002
 2587SOL     OW10119   5.757   3.551   4.312 -0.5587 -0.4351  0.4336
 2587SOL    HW210120   5.687   3.512   4.259 -1.4534 -0.1020  1.3336
 2587SOL    HW310121   5.743   3.645   4.305  0.3509 -0.3324 -0.0933
 2587SOL    MW410122   5.746   3.558   4.304 -0.5567 -0.3776  0.4829
 2588SOL     OW10123   1.620   6.292   2.875  0.6088 -0.3544 -0.5172
 2588SOL    HW210124   1.710   6.270   2.852  1.5241  0.3193  2.0798
 2588SOL    HW310125   1.573   6.209   2.872  1.0868 -0.6166 -2.5265
 2588SOL    MW410126   1.626   6.278   2.871  0.7927 -0.3001 -0.4396
 2589SOL     OW10127   4.061   3.028   4.938 -0.1644  0.1041  0.2205
 2589SOL    HW210128   4.142   3.044   4.890  0.5409 -0.8375  1.0524
 2589SOL    HW310129   4.079   2.949   4.990 -2.2827 -1.3601 -1.1097
 2589SOL    MW410130   4.074   3.020   4.939 -0.3508 -0.2133  0.1548
 2590SOL     OW10131   5.052   3.302   5.420 -0.6722  0.4086 -0.3021
 2590SOL    HW210132   5.138   3.262   5.433 -0.9690  0.0193  0.5729
 2590SOL    HW310133   4.990   3.239   5.457 -1.5614 -0.3369 -2.8764
 2590SOL    MW410134   5.055   3.288   5.427 -0.8287  0.2589 -0.5263
 2591SOL     OW10135   1.180   0.470   5.023  0.0991  0.5565 -0.6685
 2591SOL    HW210136   1.116   0.428   5.081  0.8071  2.0372  1.2844
 2591SOL    HW310137   1.263   0.460   5.068  1.0245  0.1030 -2.3847
 2591SOL    MW410138   1.182   0.463   5.036  0.3146  0.6921 -0.6373
 2592SOL     OW10139   1.318   0.956   5.589 -0.2049 -0.1548 -0.2798
 2592SOL    HW210140   1.259   0.998   5.527 -0.0927  1.0811  0.4199
 2592SOL    HW310141   1.280   0.975   5.675 -0.0731 -1.3901  0.0650
 2592SOL    MW410142   1.306   0.964   5.592 -0.1727 -0.1547 -0.1420
 2593SOL     OW10143   3.219   1.797   4.273  0.4441 -0.4786 -0.3436
 2593SOL    HW210144   3.178   1.849   4.203  0.3922  0.6871  0.5211
 2593SOL    HW310145   3.152   1.791   4.341 -0.2934 -3.4368 -1.1945
 2593SOL    MW410146   3.205   1.803   4.273  0.3400 -0.7151 -0.3418
 2594SOL     OW10147   5.361   3.914   1.107 -0.0969 -0.0916 -0.5747
 2594SOL    HW210148   5.288   3.975   1.115  0.3947  0.5481 -0.9069
 2594SOL    HW310149   5.378   3.885   1.197  0.7667  1.5851 -0.1599
 2594SOL    MW410150   5.354   3.918   1.120  0.0819  0.2140 -0.5638
 2595SOL     OW10151   3.497   6.127   1.313  0.4866  0.2921 -0.2504
 2595SOL    HW210152   3.514   6.210   1.268  2.7039  0.0166 -0.0541
 2595SOL    HW310153   3.517   6.145   1.405 -0.3915 -0.1146  0.0312
 2595SOL    MW410154   3.502   6.140   1.319  0.6633  0.2021 -0.1874
 2596SOL     OW10155   0.275   0.947   2.495 -0.3080 -0.4596  0.2456
 2596SOL    HW210156   0.286   0.952   2.590 -2.8974 -0.2869  0.5997
 2596SOL    HW310157   0.328   0.871   2.469  1.7111  0.4186  1.5327
 2596SOL    MW410158   0.284   0.937   2.504 -0.3832 -0.3209  0.4621
 2597SOL     OW10159   3.980   3.325   2.187  0.9713 -0.7239  0.2301
 2597SOL    HW210160   3.926   3.255   2.225 -1.6723  1.7790  1.4444
 2597SOL    HW310161   4.033   3.357   2.260  0.9158 -0.3472  0.1047
 2597SOL    MW410162   3.980   3.320   2.202  0.6152 -0.3440  0.3738
 2598SOL     OW10163   4.517   3.794   2.885  0.4511 -0.3472  0.0362
 2598SOL    HW210164   4.592   3.853   2.884 -0.4199  0.7988 -0.3216
 2598SOL    HW310165   4.541   3.726   2.948  1.1175  0.9026  1.1822
 2598SOL    MW410166   4.530   3.793   2.893  0.4241 -0.0311  0.1402
 2599SOL     OW10167   2.975   1.347   2.340  0.0399 -0.8229  0.2780
 2599SOL    HW210168   2.977   1.321   2.432  0.0266  2.3732  1.2813
 2599SOL    HW310169   3.061   1.383   2.323  0.0490 -1.3960 -1.0045
 2599SOL    MW410170   2.986   1.348   2.350  0.0394 -0.4768  0.2412
 2600SOL     OW10171   0.162   2.456   0.064  0.1229  0.0294  0.2358
 2600SOL    HW210172   0.199   2.483  -0.020  1.6565 -0.0880  0.8302
 2600SOL    HW310173   0.193   2.366   0.075 -0.5054 -0.1337  0.6841
 2600SOL    MW410174   0.171   2.447   0.055  0.2423 -0.0076  0.3733
 2601SOL     OW10175   2.439   3.507   1.625 -0.3847  0.7377  0.4637
 2601SOL    HW210176   2.380   3.578   1.599 -0.2624  0.8412  0.4728
 2601SOL    HW310177   2.482   3.480   1.544 -0.2222  0.8625  0.5086
 2601SOL    MW410178   2.437   3.513   1.611 -0.3471  0.7678  0.4708
 2602SOL     OW10179   5.418   5.447   6.058 -0.4229  0.3939  0.0888
 2602SOL    HW210180   5.393   5.460   6.150  0.5005  5.6321 -0.0800
 2602SOL    HW310181   5.338   5.461   6.009 -0.7582 -1.6820 -0.0547
 2602SOL    MW410182   5.404   5.450   6.064 -0.3453  0.8111  0.0476
 2603SOL     OW10183   2.990   3.217   3.420 -0.0581 -0.2879  0.5867
 2603SOL    HW210184   3.038   3.295   3.447 -0.1192 -0.1210  0.2184
 2603SOL    HW310185   2.899   3.246   3.413  0.2134  0.1605 -1.6340
 2603SOL    MW410186   2.984   3.231   3.423 -0.0303 -0.2067  0.2451
 2604SOL     OW10187   5.053   5.618   3.820  0.4611  0.3681  0.1910
 2604SOL    HW210188   4.957   5.620   3.814  0.3346  2.9141  1.8251
 2604SOL    HW310189   5.071   5.574   3.904  0.8957 -2.0161 -1.0476
 2604SOL    MW410190   5.043   5.612   3.830  0.5017  0.3894  0.2432
 2605SOL     OW10191   1.889   2.356   4.431  0.1623  0.2583 -0.3975
 2605SOL    HW210192   1.799   2.348   4.463  0.5323  0.3285  0.7064
 2605SOL    HW310193   1.909   2.271   4.392 -0.2182  0.0743 -0.1914
 2605SOL    MW410194   1.880   2.344   4.430  0.1609  0.2433 -0.2247
 2606SOL     OW10195   6.142   6.128   4.731  0.3516 -0.4820 -0.0777
 2606SOL    HW210196   6.055   6.166   4.724 -0.1767 -1.2378  1.8597
 2606SOL    HW310197   6.185   6.152   4.649 -1.5860  0.1006 -0.9794
 2606SOL    MW410198   6.136   6.136   4.719  0.0262 -0.5049  0.0590
 2607SOL     OW10199   3.724   2.133   4.105 -0.2877 -0.3924 -0.4890
 2607SOL    HW210200   3.810   2.159   4.137 -1.2118  1.5181  0.6638
 2607SOL    HW310201   3.729   2.147   4.010 -0.5451  4.0999 -0.0598
 2607SOL    MW410202   3.736   2.138   4.097 -0.4436  0.4524 -0.2803
 2608SOL     OW10203   3.661   4.622   1.448  0.5895 -0.2565 -0.1077
 2608SOL    HW210204   3.741   4.673   1.436 -0.4011  1.2306 -0.5868
 2608SOL    HW310205   3.592   4.687   1.459 -0.2321 -1.4360  3.0170
 2608SOL    MW410206   3.662   4.637   1.448  0.3504 -0.2159  0.2413
 2609SOL     OW10207   4.388   2.995   4.794 -0.4001 -0.0672  0.2375
 2609SOL    HW210208   4.392   2.995   4.890 -1.3243  0.0984  0.2863
 2609SOL    HW310209   4.453   2.930   4.767  0.5310  0.5378  0.9379
 2609SOL    MW410210   4.397   2.986   4.803 -0.3992  0.0345  0.3364
 2610SOL     OW10211   4.480   3.386   1.455 -0.0751  0.1175  0.4625
 2610SOL    HW210212   4.522   3.462   1.413 -0.7114  0.3654  0.2642
 2610SOL    HW310213   4.481   3.318   1.388 -2.8481  1.1078 -0.7111
 2610SOL    MW410214   4.486   3.387   1.440 -0.5249  0.2809  0.2815
 2611SOL     OW10215   3.244   5.053   5.531  0.5584  0.1941 -0.2185
 2611SOL    HW210216   3.292   5.135   5.519 -0.0095  0.4579 -0.7656
 2611SOL    HW310217   3.209   5.059   5.620  1.8795 -0.2000  0.3551
 2611SOL    MW410218   3.246   5.064   5.542  0.6578  0.1769 -0.2150
 2612SOL     OW10219   1.602   0.715   0.142  0.3931  0.5777  0.2393
 2612SOL    HW210220   1.623   0.630   0.181 -0.4866  0.6623  0.9397
 2612SOL    HW310221   1.570   0.694   0.054  0.5002  0.2106  0.2871
 2612SOL    MW410222   1.601   0.701   0.136  0.2912  0.5404  0.3380
 2613SOL     OW10223   2.111   3.535   5.976 -0.0787  0.3130 -0.5709
 2613SOL    HW210224   2.045   3.585   5.929  0.4266 -0.4014 -2.1121
 2613SOL    HW310225   2.124   3.456   5.923  0.5827 -0.5090  0.7384
 2613SOL    MW410226   2.104   3.531   5.963  0.0752  0.1103 -0.6015
 2614SOL     OW10227   4.133   4.323   6.070 -0.7624  0.1198  0.5017
 2614SOL    HW210228   4.079   4.286   6.140  0.5732 -2.0584  0.4843
 2614SOL    HW310229   4.125   4.259   5.999  1.1748  0.1651  0.2094
 2614SOL    MW410230   4.125   4.309   6.070 -0.3306 -0.1616  0.4608
 2615SOL     OW10231   1.090   4.106   2.582 -0.6722  0.0828  0.1117
 2615SOL    HW210232   1.015   4.126   2.525 -0.4426 -0.8809 -0.5479
 2615SOL    HW310233   1.051   4.062   2.658 -0.8304  0.0451  0.0112
 2615SOL    MW410234   1.075   4.103   2.584 -0.6628 -0.0493  0.0114
 2616SOL     OW10235   2.425   1.781   0.166 -0.3295 -0.0765 -0.0920
 2616SOL    HW210236   2.478   1.791   0.245  0.9867  2.1343 -1.1577
 2616SOL    HW310237   2.394   1.869   0.147 -1.5200 -0.7502 -1.4690
 2616SOL    MW410238   2.428   1.794   0.174 -0.3129  0.1263 -0.4143
 2617SOL     OW10239   4.737   4.120   4.102  0.0252 -0.0656 -0.1613
 2617SOL    HW210240   4.820   4.074   4.092 -0.4863 -1.1005  0.1384
 2617SOL    HW310241   4.674   4.067   4.053 -0.2282  1.4416 -1.5607
 2617SOL    MW410242   4.739   4.107   4.094 -0.0757 -0.0033 -0.3064
 2618SOL     OW10243   4.429   2.656   5.463 -0.3400 -0.2993 -0.2199
 2618SOL    HW210244   4.447   2.674   5.371 -0.3317  0.2825 -0.1064
 2618SOL    HW310245   4.380   2.732   5.494 -0.4679 -0.5549  0.2211
 2618SOL    MW410246   4.425   2.668   5.455 -0.3558 -0.2563 -0.1467
 2619SOL     OW10247   5.266   2.178   5.685 -0.6554 -0.6168  0.4224
 2619SOL    HW210248   5.309   2.131   5.615  0.6820  0.0848  0.7330
 2619SOL    HW310249   5.299   2.268   5.678 -0.0280 -0.6460  2.2564
 2619SOL    MW410250   5.276   2.184   5.675 -0.3962 -0.5281  0.7054
 2620SOL     OW10251   0.219   5.854   1.274  0.4794 -0.3132 -0.0989
 2620SOL    HW210252   0.244   5.833   1.184 -0.2909  0.3563 -0.4841
 2620SOL    HW310253   0.132   5.815   1.285 -0.5677  1.7399 -0.5258
 2620SOL    MW410254   0.211   5.846   1.263  0.2396  0.0460 -0.2061
 2621SOL     OW10255   4.448   0.872   1.793  0.1689  0.2435  0.0198
 2621SOL    HW210256   4.416   0.871   1.703 -0.7105 -0.0306  0.3337
 2621SOL    HW310257   4.494   0.956   1.801 -3.0132  2.1024  0.4447
 2621SOL    MW410258   4.450   0.883   1.782 -0.3670  0.4526  0.1173
 2622SOL     OW10259   1.088   5.967   2.804 -0.2411 -0.0332 -0.2069
 2622SOL    HW210260   1.050   6.031   2.863 -0.1876 -1.1605  1.1044
 2622SOL    HW310261   1.133   6.019   2.737 -0.4016  1.2750  0.6769
 2622SOL    MW410262   1.089   5.982   2.803 -0.2553 -0.0093  0.0827
 2623SOL     OW10263   2.515   2.936   0.899  0.2827 -0.3998 -0.0922
 2623SOL    HW210264   2.572   2.943   0.822  0.2467 -1.8978 -0.2820
 2623SOL    HW310265   2.488   3.026   0.916  1.3246  0.1283 -1.0455
 2623SOL    MW410266   2.519   2.949   0.891  0.4154 -0.5278 -0.2430
 2624SOL     OW10267   2.155   0.066   6.418 -0.4631  0.9469  0.9557
 2624SOL    HW210268   2.082   0.044   6.360 -0.2260 -1.6529  1.4894
 2624SOL    HW310269   2.129   0.029   6.503  2.0505 -1.5391  0.7811
 2624SOL    MW410270   2.142   0.058   6.421 -0.1002  0.2759  1.0031
 2625SOL     OW10271   0.947   2.044   0.307 -0.1085  0.1732 -0.0730
 2625SOL    HW210272   0.949   2.115   0.243 -1.5829  1.0487  0.7947
 2625SOL    HW310273   0.943   2.088   0.392  0.4903 -0.9650  0.5701
 2625SOL    MW410274   0.947   2.059   0.310 -0.2240  0.1386  0.1263
 2626SOL     OW10275   1.901   3.511   4.414 -0.0747 -0.0131  0.3629
 2626SOL    HW210276   1.864   3.539   4.330  2.1797 -0.6955 -0.9448
 2626SOL    HW310277   1.831   3.461   4.455 -0.5550 -1.6282 -2.1630
 2626SOL    MW410278   1.886   3.508   4.408  0.1594 -0.3162 -0.1429
 2627SOL     OW10279   3.144   0.555   2.901 -0.1115  0.3942  0.0450
 2627SOL    HW210280   3.239   0.549   2.913 -0.1076  1.4750  0.7296
 2627SOL    HW310281   3.129   0.527   2.811  0.8460  0.1273 -0.0410
 2627SOL    MW410282   3.155   0.550   2.891  0.0153  0.5016  0.1240
 2628SOL     OW10283   1.931   0.942   5.691 -0.0946  0.4778  0.0800
 2628SOL    HW210284   1.982   0.878   5.740  0.2953  0.6407 -0.1138
 2628SOL    HW310285   1.981   1.024   5.698  1.0924  0.0518 -2.3465
 2628SOL    MW410286   1.944   0.945   5.699  0.1134  0.4431 -0.2657
 2629SOL     OW10287   2.111   0.278   2.134  0.4807  0.1759 -0.3132
 2629SOL    HW210288   2.112   0.340   2.061 -2.0309  1.1713  0.3992
 2629SOL    HW310289   2.069   0.326   2.206 -1.9035 -2.3932  0.1761
 2629SOL    MW410290   2.106   0.293   2.134 -0.1653 -0.0317 -0.1546
 2630SOL     OW10291   3.095   4.828   1.718  0.0200 -0.4039 -0.3256
 2630SOL    HW210292   3.016   4.776   1.707  0.4747 -1.1738 -0.0385
 2630SOL    HW310293   3.067   4.903   1.771 -0.7375 -0.0965 -1.1299
 2630SOL    MW410294   3.081   4.831   1.724 -0.0199 -0.4649 -0.3938
 2631SOL     OW10295   1.075   0.854   4.068  0.3175 -0.1712  0.2862
 2631SOL    HW210296   0.990   0.861   4.112  0.3428  0.5241  0.2376
 2631SOL    HW310297   1.055   0.811   3.985  0.2109 -1.1493  0.8109
 2631SOL    MW410298   1.061   0.850   4.063  0.3068 -0.2085  0.3490
 2632SOL     OW10299   5.009   2.037   0.319  0.5202 -0.8254 -0.6509
 2632SOL    HW210300   4.946   2.088   0.267 -0.8237  0.0695  1.7372
 2632SOL    HW310301   5.093   2.077   0.300 -0.4748  2.4062  1.0977
 2632SOL    MW410302   5.011   2.049   0.309  0.2116 -0.2809 -0.1051
 2633SOL     OW10303   0.349   0.175   3.601  0.1814  0.1829 -0.1762
 2633SOL    HW210304   0.288   0.171   3.674  1.6363 -0.9138  1.0515
 2633SOL    HW310305   0.316   0.109   3.539  0.9452 -1.6082  1.2164
 2633SOL    MW410306   0.337   0.166   3.603  0.4741 -0.1981  0.1695
 2634SOL     OW10307   2.541   1.306   1.701 -0.5077 -0.8641 -0.5330
 2634SOL    HW210308   2.461   1.303   1.648 -0.5048 -1.6489 -0.5159
 2634SOL    HW310309   2.611   1.325   1.638 -0.6400 -0.7430 -0.6423
 2634SOL    MW410310   2.540   1.308   1.685 -0.5248 -0.9517 -0.5452
 2635SOL     OW10311   5.499   1.801   5.716  0.0104  0.6036  0.3232
 2635SOL    HW210312   5.558   1.836   5.650  0.4023 -1.2281 -0.3746
 2635SOL    HW310313   5.552   1.737   5.764 -1.1416 -0.4532  0.2476
 2635SOL    MW410314   5.513   1.797   5.713 -0.0899  0.2225  0.2212
 2636SOL     OW10315   3.067   4.802   5.546 -0.1774  0.0372  0.0555
 2636SOL    HW210316   3.118   4.855   5.607  3.1285 -0.2417 -2.2448
 2636SOL    HW310317   3.011   4.864   5.500 -0.1250  0.7241  0.9024
 2636SOL    MW410318   3.066   4.817   5.548  0.2657  0.0910 -0.1363
 2637SOL     OW10319   4.399   4.033   1.703  0.4960  0.0459 -0.0842
 2637SOL    HW210320   4.335   3.985   1.650  1.4365  0.6863 -1.9082
 2637SOL    HW310321   4.350   4.061   1.780 -0.6213 -1.9820  0.0113
 2637SOL    MW410322   4.384   4.031   1.706  0.4727 -0.1371 -0.3122
 2638SOL     OW10323   6.431   0.306   6.419  0.2355 -0.1406 -0.4156
 2638SOL    HW210324   6.386   0.231   6.456 -0.7363 -0.1997 -1.6339
 2638SOL    HW310325   6.514   0.272   6.388  0.1865 -0.5162 -0.1310
 2638SOL    MW410326   6.436   0.292   6.419  0.1008 -0.1980 -0.5388
 2639SOL     OW10327   1.091   5.900   0.483 -0.1454  0.7383 -0.1472
 2639SOL    HW210328   1.180   5.915   0.452 -0.4200 -1.3404 -2.1801
 2639SOL    HW310329   1.103   5.860   0.569  0.8764  0.4889 -0.3904
 2639SOL    MW410330   1.105   5.897   0.491 -0.0468  0.4311 -0.4475
 2640SOL     OW10331   3.809   0.964   0.231  0.0210  0.2280  0.3959
 2640SOL    HW210332   3.793   0.935   0.320 -1.7774  1.4472  0.5205
 2640SOL    HW310333   3.849   1.051   0.240 -1.7214  1.1074  0.0662
 2640SOL    MW410334   3.812   0.972   0.244 -0.4461  0.5049  0.3689
 2641SOL     OW10335   3.815   0.420   4.572 -0.4815 -0.3880  0.0614
 2641SOL    HW210336   3.764   0.501   4.564 -0.3521 -0.4434 -1.9155
 2641SOL    HW310337   3.759   0.361   4.622 -0.8547  0.6983  0.9602
 2641SOL    MW410338   3.801   0.423   4.577 -0.5137 -0.2520 -0.0809
 2642SOL     OW10339   0.774   2.102   0.709 -0.3947 -0.4034 -0.0434
 2642SOL    HW210340   0.848   2.141   0.664 -1.0145  0.5001 -0.3088
 2642SOL    HW310341   0.705   2.168   0.704 -0.8891 -0.7995  1.1103
 2642SOL    MW410342   0.775   2.116   0.702 -0.5417 -0.3365  0.0738
 2643SOL     OW10343   2.546   5.866   2.358 -0.2278  0.3776  0.4793
 2643SOL    HW210344   2.621   5.849   2.415  0.2372  0.2942 -0.1468
 2643SOL    HW310345   2.559   5.956   2.328  0.5816 -0.2018 -1.0152
 2643SOL    MW410346   2.558   5.876   2.362 -0.0596  0.2902  0.1995
 2644SOL     OW10347   2.299   0.577   1.619  0.2605  0.2007 -0.5888
 2644SOL    HW210348   2.341   0.517   1.681  1.5977  0.3189 -1.3276
 2644SOL    HW310349   2.357   0.653   1.616  0.0909  0.3036 -1.7779
 2644SOL    MW410350   2.312   0.579   1.627  0.4145  0.2298 -0.8431
 2645SOL     OW10351   5.735   4.782   1.364 -0.0032  0.2288  0.7044
 2645SOL    HW210352   5.777   4.699   1.344 -1.1740 -0.5980  1.5028
 2645SOL    HW310353   5.805   4.837   1.398  0.8990 -0.2245 -0.3799
 2645SOL    MW410354   5.750   4.778   1.366 -0.0386  0.0599  0.6666
 2646SOL     OW10355   4.747   0.276   3.319 -0.2908  0.4933  0.4292
 2646SOL    HW210356   4.724   0.185   3.338  1.2638  0.1008  0.5454
 2646SOL    HW310357   4.708   0.326   3.391 -0.8692 -0.1041  0.5482
 2646SOL    MW410358   4.739   0.271   3.331 -0.1620  0.3627  0.4603
 2647SOL     OW10359   2.498   3.697   1.381  0.3740  0.0197  0.4773
 2647SOL    HW210360   2.470   3.737   1.299  0.8172 -0.2852  0.1749
 2647SOL    HW310361   2.593   3.702   1.379  0.4110 -0.5540  0.6806
 2647SOL    MW410362   2.507   3.703   1.370  0.4374 -0.0962  0.4643
 2648SOL     OW10363   6.031   5.590   4.223 -0.6151 -0.2807  0.0476
 2648SOL    HW210364   5.982   5.579   4.304 -0.2770 -0.3600  0.2455
 2648SOL    HW310365   6.043   5.501   4.190 -2.1504 -0.1524 -0.9487
 2648SOL    MW410366   6.026   5.577   4.229 -0.7730 -0.2742 -0.0577
 2649SOL     OW10367   3.261   3.238   4.877  0.0801  0.3029  0.1839
 2649SOL    HW210368   3.249   3.332   4.865  2.0203  0.5333 -0.4028
 2649SOL    HW310369   3.268   3.203   4.788  1.7421  0.0014  0.3987
 2649SOL    MW410370   3.261   3.246   4.864  0.5553  0.2935  0.1348
 2650SOL     OW10371   4.695   2.343   3.510  0.8111  0.1056  0.6354
 2650SOL    HW210372   4.653   2.308   3.432 -0.0053  0.7497  0.7810
 2650SOL    HW310373   4.788   2.347   3.486  0.3700  2.1370 -1.0496
 2650SOL    MW410374   4.702   2.339   3.496  0.6452  0.4586  0.4323
 2651SOL     OW10375   0.779   0.993   0.527  0.2928 -0.4019 -0.2068
 2651SOL    HW210376   0.748   1.045   0.452  0.6943  0.6005  0.3104
 2651SOL    HW310377   0.825   0.919   0.487  1.3230  0.6163 -0.9665
 2651SOL    MW410378   0.781   0.990   0.512  0.4817 -0.1353 -0.2388
 2652SOL     OW10379   5.624   1.582   4.050  0.0870  0.3684 -0.3589
 2652SOL    HW210380   5.707   1.561   4.006 -0.4594  0.0103 -1.2310
 2652SOL    HW310381   5.620   1.522   4.124  1.0485  1.0249  0.2548
 2652SOL    MW410382   5.635   1.571   4.054  0.1418  0.4078 -0.3930
 2653SOL     OW10383   1.938   1.316   1.468  0.1151  0.5430 -0.1161
 2653SOL    HW210384   1.865   1.282   1.519 -1.4631  2.3956 -0.9933
 2653SOL    HW310385   2.000   1.348   1.533 -0.3363 -0.0987  0.6447
 2653SOL    MW410386   1.936   1.316   1.483 -0.1527  0.7027 -0.1315
 2654SOL     OW10387   2.413   3.730   6.129 -0.0779  0.4707 -0.7406
 2654SOL    HW210388   2.483   3.718   6.193  0.0702  0.2869 -0.9327
 2654SOL    HW310389   2.337   3.686   6.167 -0.1471  0.8560 -0.4345
 2654SOL    MW410390   2.413   3.723   6.142 -0.0675  0.4973 -0.7256
 2655SOL     OW10391   2.840   2.375   5.044  0.3634 -0.1077 -0.0390
 2655SOL    HW210392   2.754   2.388   5.005  0.0830 -1.0039  0.2692
 2655SOL    HW310393   2.865   2.462   5.076 -0.8590 -0.0237  0.7461
 2655SOL    MW410394   2.832   2.388   5.043  0.1651 -0.2149  0.1052
 2656SOL     OW10395   0.168   0.689   6.405  0.2545 -0.0255 -0.0140
 2656SOL    HW210396   0.136   0.775   6.378 -0.0616  0.0527  0.5927
 2656SOL    HW310397   0.205   0.651   6.325  0.7049  0.8115 -0.2122
 2656SOL    MW410398   0.169   0.695   6.391  0.2722  0.0953  0.0399
 2657SOL     OW10399   1.796   2.009   0.239  0.4570  0.5890 -0.0299
 2657SOL    HW210400   1.880   1.963   0.240 -0.5519 -1.3980 -0.8244
 2657SOL    HW310401   1.767   2.008   0.330 -0.6233 -2.6545 -0.2653
 2657SOL    MW410402   1.803   2.002   0.251  0.1814 -0.1011 -0.1658
 2658SOL     OW10403   6.254   0.047   0.980  0.4712  0.3059  0.3957
 2658SOL    HW210404   6.181   0.109   0.994  0.6933  0.3803  1.3107
 2658SOL    HW310405   6.251   0.028   0.886  0.3518  1.6581  0.0959
 2658SOL    MW410406   6.244   0.053   0.970  0.4847  0.4941  0.4769
 2659SOL     OW10407   5.960   0.647   6.215 -0.1945 -0.4874 -0.2456
 2659SOL    HW210408   5.930   0.694   6.293  1.4845  1.1193 -0.4862
 2659SOL    HW310409   5.975   0.716   6.150  0.6730 -1.5366 -1.2016
 2659SOL    MW410410   5.958   0.662   6.217  0.1414 -0.4138 -0.4035
 2660SOL     OW10411   3.269   6.355   2.667 -0.0607  0.1401  0.5072
 2660SOL    HW210412   3.260   6.415   2.593 -1.0339 -0.7848 -0.1501
 2660SOL    HW310413   3.363   6.346   2.680  0.1147  0.5466 -0.4233
 2660SOL    MW410414   3.280   6.362   2.659 -0.1660  0.0717  0.2977
 2661SOL     OW10415   5.864   3.948   0.188 -0.3967  0.6379 -0.3861
 2661SOL    HW210416   5.841   3.865   0.145  0.3035 -0.0414  0.5100
 2661SOL    HW310417   5.929   3.987   0.130  0.0969  0.0156 -0.2693
 2661SOL    MW410418   5.869   3.942   0.174 -0.2392  0.4662 -0.2525
 2662SOL     OW10419   1.701   5.587   2.576  0.2137 -0.5522  0.0838
 2662SOL    HW210420   1.747   5.568   2.494  0.9510 -1.5373  0.7174
 2662SOL    HW310421   1.764   5.569   2.645 -0.6950 -0.6205  0.9240
 2662SOL    MW410422   1.715   5.582   2.574  0.1911 -0.6912  0.2782
 2663SOL     OW10423   5.965   1.004   5.131 -0.4176  0.1136 -0.4380
 2663SOL    HW210424   6.042   1.000   5.187 -0.7633 -0.3685  0.0111
 2663SOL    HW310425   5.893   0.974   5.187 -1.0913  1.4116 -0.5799
 2663SOL    MW410426   5.966   0.999   5.146 -0.5521  0.2212 -0.3975
 2664SOL     OW10427   5.099   0.163   0.064 -0.1802 -0.1806 -0.1436
 2664SOL    HW210428   5.153   0.224   0.113 -1.9998  2.2106 -0.9154
 2664SOL    HW310429   5.078   0.094   0.127  1.4909  0.2269  0.9345
 2664SOL    MW410430   5.103   0.162   0.079 -0.1998  0.1886 -0.1032
 2665SOL     OW10431   0.503   6.063   2.903  0.0899 -0.1108 -0.4045
 2665SOL    HW210432   0.464   6.149   2.919 -0.8822 -0.7388  0.7378
 2665SOL    HW310433   0.432   6.012   2.864 -0.0251 -1.0285  0.9387
 2665SOL    MW410434   0.488   6.067   2.900 -0.0535 -0.3147 -0.0766
 2666SOL     OW10435   2.265   1.163   4.258 -0.1235 -0.1383  0.4239
 2666SOL    HW210436   2.239   1.091   4.200 -0.9279  1.5110 -1.3848
 2666SOL    HW310437   2.183   1.196   4.294  0.2574 -0.2418  1.4185
 2666SOL    MW410438   2.251   1.158   4.255 -0.1794  0.0656  0.3165
 2667SOL     OW10439   6.325   5.568   2.166 -0.0431  0.2705 -0.6988
 2667SOL    HW210440   6.280   5.570   2.250  1.6870 -0.7952  0.3186
 2667SOL    HW310441   6.416   5.550   2.188  0.4527 -0.0999 -2.8173
 2667SOL    MW410442   6.331   5.566   2.180  0.2506  0.0810 -0.8441
 2668SOL     OW10443   4.538   2.236   3.305  0.2871 -0.2323 -0.2019
 2668SOL    HW210444   4.552   2.142   3.320 -1.8170 -0.6769 -0.6076
 2668SOL    HW310445   4.453   2.253   3.345  0.2794  1.3301 -0.8382
 2668SOL    MW410446   4.528   2.226   3.312  0.0085 -0.0848 -0.3394
 2669SOL     OW10447   1.765   5.889   4.165  0.4997  0.2046  0.0438
 2669SOL    HW210448   1.857   5.869   4.181  1.0602  0.2711 -2.6481
 2669SOL    HW310449   1.717   5.817   4.207  1.8591 -0.7447  0.0365
 2669SOL    MW410450   1.770   5.877   4.173  0.7530  0.0881 -0.3123
 2670SOL     OW10451   5.510   5.432   1.173  0.4100 -0.1643 -0.2957
 2670SOL    HW210452   5.601   5.446   1.150 -0.1087  2.7719 -0.9937
 2670SOL    HW310453   5.507   5.444   1.268  0.2904  4.0538 -0.6420
 2670SOL    MW410454   5.522   5.436   1.183  0.3258  0.7797 -0.4335
 2671SOL     OW10455   0.386   3.080   3.584  0.2771  0.6393  0.0919
 2671SOL    HW210456   0.357   2.992   3.560 -0.5784  0.7621  0.6349
 2671SOL    HW310457   0.454   3.102   3.519 -1.0671  0.4711 -1.4435
 2671SOL    MW410458   0.391   3.072   3.572 -0.0131  0.6333 -0.0391
 2672SOL     OW10459   4.323   4.590   1.517 -0.0724 -0.5937  0.1895
 2672SOL    HW210460   4.301   4.511   1.468 -3.0271  0.4424 -0.3732
 2672SOL    HW310461   4.316   4.563   1.609 -1.9942 -0.8575  0.0141
 2672SOL    MW410462   4.319   4.576   1.523 -0.7158 -0.4918  0.0921
 2673SOL     OW10463   4.463   3.155   0.576 -0.1580  0.0073 -0.2556
 2673SOL    HW210464   4.411   3.104   0.638  0.3871 -0.1679  0.0647
 2673SOL    HW310465   4.553   3.140   0.603  0.0212  1.0571 -0.2220
 2673SOL    MW410466   4.468   3.147   0.588 -0.0625  0.1227 -0.2089
 2674SOL     OW10467   2.252   3.833   5.376  0.0253 -0.6279 -0.3357
 2674SOL    HW210468   2.195   3.796   5.308  0.5020 -0.7564 -0.6703
 2674SOL    HW310469   2.315   3.887   5.328  0.1581 -0.4499  0.0345
 2674SOL    MW410470   2.253   3.835   5.360  0.1057 -0.6214 -0.3310
 2675SOL     OW10471   1.620   5.837   2.752 -0.8010 -0.4560 -0.1364
 2675SOL    HW210472   1.549   5.811   2.811 -1.5409 -1.0869 -1.2724
 2675SOL    HW310473   1.637   5.759   2.700 -0.0449  0.0480 -0.6603
 2675SOL    MW410474   1.613   5.823   2.753 -0.7989 -0.4727 -0.3554
 2676SOL     OW10475   0.496   1.434   3.981 -0.7029 -0.9036 -0.6849
 2676SOL    HW210476   0.460   1.509   3.935  0.3394 -0.7111 -1.2132
 2676SOL    HW310477   0.438   1.422   4.056  0.3146  1.7551  0.6355
 2676SOL    MW410478   0.484   1.442   3.985 -0.4311 -0.5274 -0.5804
 2677SOL     OW10479   6.022   0.690   1.197 -0.4065  0.3457  0.4932
 2677SOL    HW210480   6.027   0.660   1.106  0.3280 -0.2792  0.7286
 2677SOL    HW310481   5.963   0.765   1.194 -0.3065  0.3985 -0.5159
 2677SOL    MW410482   6.015   0.696   1.184 -0.2964  0.2702  0.3911
 2678SOL     OW10483   1.366   6.360   1.911  0.1029  0.1193  0.1041
 2678SOL    HW210484   1.454   6.387   1.883  0.4626  1.1176  1.9719
 2678SOL    HW310485   1.332   6.308   1.839  3.3538 -2.7611  0.4086
 2678SOL    MW410486   1.373   6.357   1.898  0.5793 -0.1290  0.3907
 2679SOL     OW10487   4.463   6.275   0.783  0.4338  0.1987  0.8966
 2679SOL    HW210488   4.483   6.234   0.868  0.0187  2.6344  2.2803
 2679SOL    HW310489   4.452   6.368   0.804 -2.3780  0.5188 -1.4016
 2679SOL    MW410490   4.464   6.282   0.797  0.0081  0.5623  0.7759
 2680SOL     OW10491   1.729   5.197   2.164 -0.5488  0.0491 -0.3463
 2680SOL    HW210492   1.811   5.219   2.120 -0.0920 -0.3153  0.3082
 2680SOL    HW310493   1.698   5.118   2.119  0.9014 -1.4584  1.1885
 2680SOL    MW410494   1.736   5.189   2.152 -0.2972 -0.1978 -0.0575
 2681SOL     OW10495   3.536   4.136   3.589 -0.4231  0.2759 -0.1059
 2681SOL    HW210496   3.617   4.182   3.568  1.2746 -2.8567 -1.2165
 2681SOL    HW310497   3.557   4.088   3.669 -0.4057 -1.9816 -1.3699
 2681SOL    MW410498   3.550   4.136   3.597 -0.1968 -0.4352 -0.4192
 2682SOL     OW10499   5.751   4.487   1.797 -0.1786 -0.1862 -0.2175
 2682SOL    HW210500   5.782   4.453   1.881  1.0296  1.2420 -0.0649
 2682SOL    HW310501   5.704   4.567   1.820 -1.1145 -0.5501 -0.7939
 2682SOL    MW410502   5.749   4.493   1.811 -0.1427 -0.0458 -0.2734
 2683SOL     OW10503   3.008   0.864   5.923  0.3482 -0.0911 -0.0951
 2683SOL    HW210504   2.940   0.921   5.888 -0.5739 -0.1362  1.5610
 2683SOL    HW310505   3.084   0.921   5.934  0.1288  0.2906 -0.5245
 2683SOL    MW410506   3.009   0.879   5.920  0.1976 -0.0467  0.0667
 2684SOL     OW10507   3.464   0.922   0.368 -0.6302  0.0235 -0.4784
 2684SOL    HW210508   3.451   0.850   0.430 -1.1801  1.4263  1.1368
 2684SOL    HW310509   3.408   0.900   0.293 -1.0017 -1.0949  0.1020
 2684SOL    MW410510   3.455   0.910   0.366 -0.7518  0.0610 -0.1887
 2685SOL     OW10511   1.237   3.379   2.944 -0.3663 -0.0508 -0.1211
 2685SOL    HW210512   1.264   3.454   2.891 -1.6835  0.5097 -0.0427
 2685SOL    HW310513   1.270   3.303   2.896 -1.7561  0.4174 -1.9622
 2685SOL    MW410514   1.245   3.379   2.931 -0.7235  0.0849 -0.3536
 2686SOL     OW10515   3.126   3.382   3.136  0.0289 -0.3854  0.1769
 2686SOL    HW210516   3.186   3.413   3.204  0.7814 -1.2398 -0.0742
 2686SOL    HW310517   3.157   3.423   3.055 -1.9004  2.0212  0.5411
 2686SOL    MW410518   3.138   3.392   3.134 -0.1264 -0.1806  0.1918
 2687SOL     OW10519   4.387   0.451   3.492 -0.3512  0.2010 -0.3415
 2687SOL    HW210520   4.339   0.529   3.465 -0.1639  0.6385  0.5389
 2687SOL    HW310521   4.339   0.418   3.567  0.3969  0.3278  0.2114
 2687SOL    MW410522   4.375   0.457   3.498 -0.2278  0.2754 -0.1524
 2688SOL     OW10523   2.480   2.304   3.530  0.3026  0.0605  0.3276
 2688SOL    HW210524   2.481   2.324   3.436 -0.1899 -1.1488  0.0514
 2688SOL    HW310525   2.395   2.336   3.560 -0.7434 -2.0010 -0.2364
 2688SOL    MW410526   2.469   2.311   3.521  0.0996 -0.3711  0.2167
 2689SOL     OW10527   4.614   3.521   0.263 -0.2086  0.1829 -0.5375
 2689SOL    HW210528   4.582   3.482   0.344 -1.8496 -0.3936 -1.4306
 2689SOL    HW310529   4.604   3.453   0.198  1.3213  0.5580 -1.2137
 2689SOL    MW410530   4.609   3.507   0.265 -0.2233  0.1563 -0.7445
 2690SOL     OW10531   3.509   3.485   3.057 -0.2290  0.3082 -0.7107
 2690SOL    HW210532   3.508   3.390   3.051  0.3970  0.2345  0.1786
 2690SOL    HW310533   3.601   3.509   3.063 -0.4354  0.7906  1.2117
 2690SOL    MW410534   3.521   3.476   3.057 -0.1736  0.3621 -0.3398
 2691SOL     OW10535   3.518   2.129   1.078 -0.1649 -0.2354  0.8916
 2691SOL    HW210536   3.443   2.187   1.096  0.2915  0.6514  0.0163
 2691SOL    HW310537   3.584   2.156   1.142  0.6848  1.4654 -0.6067
 2691SOL    MW410538   3.517   2.140   1.089  0.0075  0.1060  0.5785
 2692SOL     OW10539   5.281   3.417   4.919 -0.4660  0.0829 -0.6895
 2692SOL    HW210540   5.358   3.367   4.893  0.1367  0.4169  0.3776
 2692SOL    HW310541   5.239   3.365   4.987 -0.1759  0.7181 -0.0048
 2692SOL    MW410542   5.286   3.404   4.925 -0.3482  0.2108 -0.4583
 2693SOL     OW10543   3.439   4.632   2.022 -0.1522  0.3163 -0.4398
 2693SOL    HW210544   3.407   4.701   1.963 -1.2440 -1.5563 -2.1730
 2693SOL    HW310545   3.376   4.631   2.094 -0.0620  1.1796 -0.3358
 2693SOL    MW410546   3.427   4.641   2.024 -0.2843  0.1831 -0.6547
 2694SOL     OW10547   1.802   4.412   0.713  0.5554  0.1452 -0.0353
 2694SOL    HW210548   1.843   4.484   0.666  0.4929 -0.2791 -0.7566
 2694SOL    HW310549   1.715   4.404   0.674 -0.0611  0.7201  1.1460
 2694SOL    MW410550   1.796   4.420   0.702  0.4658  0.1651  0.0254
 2695SOL     OW10551   2.379   4.849   4.104  0.4057 -0.2069 -0.6005
 2695SOL    HW210552   2.291   4.886   4.095  0.3717 -0.1166  0.0538
 2695SOL    HW310553   2.419   4.861   4.018 -0.4759 -0.9168 -1.1282
 2695SOL    MW410554   2.372   4.856   4.091  0.2849 -0.2886 -0.5838
 2696SOL     OW10555   0.536   5.094   1.257  0.4073  0.1394 -0.1035
 2696SOL    HW210556   0.569   5.012   1.293 -0.7910 -1.4812 -2.4809
 2696SOL    HW310557   0.589   5.110   1.179 -0.6431  0.5609 -0.7530
 2696SOL    MW410558   0.547   5.085   1.251  0.1106 -0.0188 -0.5029
 2697SOL     OW10559   0.991   2.466   4.041 -0.1141 -0.1866  0.0441
 2697SOL    HW210560   0.986   2.524   3.966  0.3632  0.0327  0.1807
 2697SOL    HW310561   0.944   2.387   4.014  1.4849 -0.7984 -1.1190
 2697SOL    MW410562   0.984   2.463   4.028  0.1598 -0.2384 -0.0913
 2698SOL     OW10563   0.632   4.677   5.595 -0.1666  0.1505  0.0388
 2698SOL    HW210564   0.599   4.646   5.510 -0.7546  1.7075 -0.3331
 2698SOL    HW310565   0.724   4.699   5.578  0.4807 -1.9785  0.4924
 2698SOL    MW410566   0.640   4.676   5.581 -0.1588  0.0750  0.0496
 2699SOL     OW10567   0.926   3.638   2.726 -0.4779  0.5191  0.0978
 2699SOL    HW210568   0.916   3.715   2.670 -0.1337 -0.1970 -0.9734
 2699SOL    HW310569   0.965   3.572   2.669  1.0906  0.1685  1.5167
 2699SOL    MW410570   0.930   3.639   2.711 -0.2256  0.3784  0.1437
 2700SOL     OW10571   5.069   1.247   1.280  0.0879  0.4517  0.0198
 2700SOL    HW210572   5.092   1.327   1.328 -1.1287  1.5430 -1.1419
 2700SOL    HW310573   5.128   1.180   1.316  0.5315  1.6472  1.6540
 2700SOL    MW410574   5.080   1.248   1.291 -0.0141  0.7534  0.0821
 2701SOL     OW10575   6.353   3.231   1.394  0.0375  0.7040  0.0888
 2701SOL    HW210576   6.342   3.177   1.316 -0.0171  1.4821 -0.4482
 2701SOL    HW310577   6.431   3.196   1.437 -2.3582 -2.8217  2.2356
 2701SOL    MW410578   6.362   3.219   1.390 -0.2858  0.3415  0.3012
 2702SOL     OW10579   4.947   5.039   1.403 -0.2321 -0.5943 -0.0793
 2702SOL    HW210580   5.010   5.012   1.336  1.4786  0.1091  1.1816
 2702SOL    HW310581   4.902   5.114   1.365  0.6371 -0.2679 -0.4927
 2702SOL    MW410582   4.949   5.045   1.389  0.1083 -0.4585  0.0325
 2703SOL     OW10583   4.228   1.280   0.650 -0.3864 -0.1344  0.0074
 2703SOL    HW210584   4.140   1.243   0.654 -0.8537  0.7627 -1.1341
 2703SOL    HW310585   4.266   1.243   0.571 -0.2173  0.4480 -0.1893
 2703SOL    MW410586   4.221   1.271   0.640 -0.4257  0.0608 -0.1691
 2704SOL     OW10587   2.169   0.520   2.337 -0.1040 -0.0882  0.0646
 2704SOL    HW210588   2.082   0.548   2.367 -0.3366  0.3103 -0.9672
 2704SOL    HW310589   2.216   0.602   2.320 -0.3196 -0.2808 -1.6219
 2704SOL    MW410590   2.163   0.534   2.339 -0.1631 -0.0611 -0.2941
 2705SOL     OW10591   0.732   3.629   4.937 -0.2370 -0.3982  0.2969
 2705SOL    HW210592   0.810   3.574   4.944 -1.0799 -1.4605  2.1094
 2705SOL    HW310593   0.736   3.685   5.014 -1.9462 -1.4596  1.2123
 2705SOL    MW410594   0.743   3.629   4.948 -0.5737 -0.6784  0.6568
 2706SOL     OW10595   2.339   2.569   3.427 -0.5299  0.7488 -0.3537
 2706SOL    HW210596   2.430   2.575   3.455 -0.3065  0.4609 -0.9937
 2706SOL    HW310597   2.339   2.606   3.338 -1.3085  2.1323  0.1791
 2706SOL    MW410598   2.351   2.575   3.419 -0.6032  0.8934 -0.3679
 2707SOL     OW10599   2.873   6.343   4.161  0.1973  0.0304  0.4019
 2707SOL    HW210600   2.881   6.396   4.240 -1.1706  0.3655  0.3345
 2707SOL    HW310601   2.779   6.338   4.144  0.2791 -2.2445  0.2652
 2707SOL    MW410602   2.862   6.349   4.169  0.0276 -0.2255  0.3750
 2708SOL     OW10603   4.203   4.702   4.103 -0.4463  0.7699  0.3698
 2708SOL    HW210604   4.243   4.787   4.087  0.6311  0.5999  1.9331
 2708SOL    HW310605   4.125   4.722   4.155 -0.0658  0.7946  0.9376
 2708SOL    MW410606   4.198   4.716   4.107 -0.2539  0.7508  0.6510
 2709SOL     OW10607   1.719   2.691   1.615  0.3571  0.4270 -0.2037
 2709SOL    HW210608   1.706   2.681   1.710  0.1454  2.4965  0.0264
 2709SOL    HW310609   1.638   2.658   1.577  0.3871 -0.3000  0.3392
 2709SOL    MW410610   1.707   2.685   1.623  0.3331  0.6042 -0.1017
 2710SOL     OW10611   3.249   6.402   1.773 -0.1989  0.2844 -0.3305
 2710SOL    HW210612   3.263   6.399   1.678  2.3132 -1.6783 -0.0175
 2710SOL    HW310613   3.191   6.328   1.790  0.5195 -0.2738 -0.2360
 2710SOL    MW410614   3.243   6.392   1.763  0.2273 -0.0482 -0.2768
 2711SOL     OW10615   4.349   5.715   6.263 -0.0183 -0.1802 -0.2394
 2711SOL    HW210616   4.399   5.699   6.183  0.9575 -2.1172  0.6956
 2711SOL    HW310617   4.394   5.788   6.306  1.4598 -1.2548  0.0994
 2711SOL    MW410618   4.361   5.722   6.258  0.3054 -0.5775 -0.0713
 2712SOL     OW10619   2.698   4.104   1.725  0.5483  0.2868 -0.0568
 2712SOL    HW210620   2.643   4.043   1.677 -0.4645  0.0307  1.3942
 2712SOL    HW310621   2.787   4.070   1.713  0.2216 -0.3205 -0.9046
 2712SOL    MW410622   2.703   4.092   1.717  0.3716  0.1729  0.0228
 2713SOL     OW10623   1.895   1.730   5.330  0.1039 -0.9411  0.0641
 2713SOL    HW210624   1.913   1.671   5.403 -0.1594  0.4082  1.2786
 2713SOL    HW310625   1.947   1.808   5.349 -0.8943 -0.1008 -0.5528
 2713SOL    MW410626   1.904   1.733   5.342 -0.0625 -0.6522  0.1429
 2714SOL     OW10627   3.952   0.205   3.585  0.2844 -0.1854  0.2923
 2714SOL    HW210628   4.027   0.255   3.616 -1.0942  2.7948 -0.7738
 2714SOL    HW310629   3.903   0.182   3.664  1.1217 -0.1130  0.8384
 2714SOL    MW410630   3.955   0.209   3.599  0.2130  0.2174  0.2237
 2715SOL     OW10631   1.590   3.872   2.576 -0.0836 -0.3235  0.3232
 2715SOL    HW210632   1.604   3.884   2.670  1.8404 -0.6942  0.1195
 2715SOL    HW310633   1.519   3.932   2.554  2.2067  2.9530  1.2316
 2715SOL    MW410634   1.583   3.881   2.586  0.4725  0.0599  0.4162
 2716SOL     OW10635   4.365   1.289   2.768  0.3544 -0.3465 -0.1607
 2716SOL    HW210636   4.403   1.239   2.696  0.7314  1.0893 -0.9998
 2716SOL    HW310637   4.303   1.229   2.809  0.8561 -1.5198 -1.0574
 2716SOL    MW410638   4.362   1.275   2.764  0.4704 -0.3118 -0.3897
 2717SOL     OW10639   3.344   1.357   0.315 -0.2493 -0.3055 -0.3574
 2717SOL    HW210640   3.415   1.293   0.318  1.6031  1.6683  0.3734
 2717SOL    HW310641   3.322   1.373   0.407 -1.9124 -1.1050 -0.5746
 2717SOL    MW410642   3.350   1.351   0.327 -0.2243 -0.1506 -0.2897
 2718SOL     OW10643   4.720  -0.002   0.844  0.2789  0.3672  0.3130
 2718SOL    HW210644   4.755  -0.049   0.768 -0.2891  0.2851  0.0996
 2718SOL    HW310645   4.796   0.044   0.880  0.5331  0.5055 -0.3773
 2718SOL    MW410646   4.735  -0.002   0.839  0.2375  0.3746  0.1937
 2719SOL     OW10647   4.300   3.284   2.649  0.6870 -0.1735  0.3449
 2719SOL    HW210648   4.358   3.359   2.666  2.2479 -1.4025  0.6339
 2719SOL    HW310649   4.297   3.277   2.554  0.5486  0.2328  0.3165
 2719SOL    MW410650   4.307   3.293   2.639  0.8747 -0.2820  0.3793
 2720SOL     OW10651   5.477   2.016   1.655 -0.3567 -0.3986 -0.1439
 2720SOL    HW210652   5.553   2.008   1.712 -1.2249  0.0983  1.1312
 2720SOL    HW310653   5.501   2.085   1.593  0.3145 -0.4317  0.0694
 2720SOL    MW410654   5.490   2.024   1.654 -0.3827 -0.3374  0.0525
 2721SOL     OW10655   5.565   4.680   0.116  0.0974 -0.1067 -0.1447
 2721SOL    HW210656   5.659   4.689   0.131  0.1972  0.0057 -0.7984
 2721SOL    HW310657   5.557   4.671   0.021 -0.6026  0.5421 -0.1537
 2721SOL    MW410658   5.576   4.680   0.105  0.0182 -0.0063 -0.2321
 2722SOL     OW10659   5.091   2.753   2.167 -0.2343  0.0019 -0.3573
 2722SOL    HW210660   5.112   2.660   2.155 -0.6383  0.1215 -2.2644
 2722SOL    HW310661   5.105   2.768   2.261  0.8876 -1.7042 -0.1943
 2722SOL    MW410662   5.096   2.742   2.178 -0.1396 -0.2074 -0.5874
 2723SOL     OW10663   0.347   1.841   4.596  0.2358  0.3950  0.2411
 2723SOL    HW210664   0.353   1.920   4.649  0.5902 -0.3075  1.2616
 2723SOL    HW310665   0.433   1.833   4.555 -0.4542  1.6907 -1.5803
 2723SOL    MW410666   0.359   1.850   4.597  0.1915  0.4732  0.1354
 2724SOL     OW10667   1.514   2.067   1.740 -0.0711 -0.1600 -0.8279
 2724SOL    HW210668   1.600   2.103   1.719  0.4556 -0.4791  0.6423
 2724SOL    HW310669   1.468   2.064   1.656  0.9445  1.0566 -1.4668
 2724SOL    MW410670   1.520   2.071   1.726  0.1324 -0.0416 -0.7183
 2725SOL     OW10671   4.568   1.587   5.041 -0.6101  0.2452  0.1043
 2725SOL    HW210672   4.552   1.638   5.120 -2.0650 -0.5778  0.3702
 2725SOL    HW310673   4.560   1.496   5.068  0.3312 -0.1122 -0.7049
 2725SOL    MW410674   4.565   1.582   5.055 -0.6779  0.0894  0.0326
 2726SOL     OW10675   1.955   3.758   4.220  0.1988  0.0099 -0.9150
 2726SOL    HW210676   1.897   3.805   4.280  0.0283 -0.4533 -0.7131
 2726SOL    HW310677   2.033   3.738   4.273  0.9207  1.3707 -1.4183
 2726SOL    MW410678   1.958   3.762   4.235  0.2716  0.1283 -0.9548
 2727SOL     OW10679   5.213   2.288   2.416  0.1875  0.4208  0.4577
 2727SOL    HW210680   5.225   2.250   2.503 -1.3238  1.7294  1.2890
 2727SOL    HW310681   5.146   2.233   2.375 -0.0989  0.6252  0.6511
 2727SOL    MW410682   5.206   2.275   2.422 -0.0497  0.6204  0.5929
 2728SOL     OW10683   1.512   4.142   4.074  0.0896  0.1711  0.1136
 2728SOL    HW210684   1.476   4.110   4.156 -0.8415  1.8056  0.3883
 2728SOL    HW310685   1.605   4.118   4.077 -0.0399 -0.2448  1.3926
 2728SOL    MW410686   1.520   4.134   4.085 -0.0503  0.3318  0.3186
 2729SOL     OW10687   4.710   4.748   3.973  0.2592  0.3523 -0.0353
 2729SOL    HW210688   4.755   4.752   4.057  0.0728 -0.4967  0.1093
 2729SOL    HW310689   4.674   4.836   3.961 -0.9400  0.0836  1.4389
 2729SOL    MW410690   4.711   4.760   3.982  0.0764  0.2048  0.1783
 2730SOL     OW10691   4.286   2.901   4.305 -0.2466 -0.2807  0.2750
 2730SOL    HW210692   4.350   2.969   4.285  0.2053 -0.6660  0.3784
 2730SOL    HW310693   4.327   2.849   4.374 -0.3306 -0.9992 -0.2004
 2730SOL    MW410694   4.300   2.903   4.311 -0.1981 -0.4263  0.2259
 2731SOL     OW10695   4.326   1.322   6.270  0.1895  0.2860  0.4344
 2731SOL    HW210696   4.395   1.379   6.306  0.1975  1.2488 -1.0385
 2731SOL    HW310697   4.318   1.350   6.179  0.5047 -2.3861 -0.4752
 2731SOL    MW410698   4.334   1.334   6.263  0.2322  0.0605  0.1201
 2732SOL     OW10699   0.919   5.948   0.031 -0.2328 -0.6777 -0.2805
 2732SOL    HW210700   0.862   5.892   0.084 -1.6400 -1.5879 -2.5800
 2732SOL    HW310701   0.957   5.888  -0.034  0.8246  0.4956 -0.7707
 2732SOL    MW410702   0.916   5.932   0.029 -0.2789 -0.6430 -0.6486
 2733SOL     OW10703   3.368   6.166   5.721  0.5007 -0.2154  0.2003
 2733SOL    HW210704   3.376   6.166   5.626 -0.9197 -0.4559  0.0573
 2733SOL    HW310705   3.355   6.074   5.744  1.0070 -0.1799  0.6479
 2733SOL    MW410706   3.367   6.154   5.712  0.3801 -0.2424  0.2405
 2734SOL     OW10707   1.663   1.745   0.488 -0.5148  0.3798 -0.1383
 2734SOL    HW210708   1.678   1.839   0.497  0.7650  0.2877 -1.0968
 2734SOL    HW310709   1.603   1.724   0.560  1.2491  1.4386  1.7543
 2734SOL    MW410710   1.657   1.755   0.499 -0.1132  0.5074 -0.0150
 2735SOL     OW10711   0.842   6.375   4.194  0.2466  0.0473  0.0339
 2735SOL    HW210712   0.921   6.352   4.145 -0.6165  0.4581 -1.6258
 2735SOL    HW310713   0.832   6.305   4.258  1.8245 -0.1213  0.1497
 2735SOL    MW410714   0.851   6.363   4.196  0.3409  0.0793 -0.1698
 2736SOL     OW10715   4.434   4.403   4.623 -0.3948 -0.4439 -0.1030
 2736SOL    HW210716   4.366   4.471   4.630  0.3575  0.2235  0.9448
 2736SOL    HW310717   4.415   4.359   4.540 -2.2094 -0.3806  0.2327
 2736SOL    MW410718   4.422   4.406   4.613 -0.5350 -0.3475  0.0795
 2737SOL     OW10719   4.000   2.615   1.493  0.5803 -0.4720  0.2579
 2737SOL    HW210720   4.005   2.523   1.520  0.4803 -0.6139 -0.1971
 2737SOL    HW310721   3.986   2.663   1.574  0.3515 -0.8878  0.4691
 2737SOL    MW410722   3.999   2.609   1.507  0.5369 -0.5456  0.2258
 2738SOL     OW10723   0.717   1.299   2.075  0.1496  0.0981  0.1859
 2738SOL    HW210724   0.701   1.218   2.027  0.8354  0.1185 -0.0923
 2738SOL    HW310725   0.654   1.297   2.147  0.0938 -0.6383  0.1275
 2738SOL    MW410726   0.706   1.288   2.078  0.2327  0.0037  0.1415
 2739SOL     OW10727   4.927   2.041   4.588 -0.4905 -0.2190  0.3274
 2739SOL    HW210728   4.987   2.036   4.663 -0.4908 -3.5408  0.2659
 2739SOL    HW310729   4.863   1.971   4.604 -0.9503 -0.5098 -2.3514
 2739SOL    MW410730   4.927   2.031   4.600 -0.5512 -0.6957 -0.0341
 2740SOL     OW10731   5.789   2.432   0.146 -0.7121  0.1554 -0.2171
 2740SOL    HW210732   5.857   2.404   0.207 -1.2699 -2.1916 -0.5660
 2740SOL    HW310733   5.772   2.523   0.170  2.0900  0.6604  0.2653
 2740SOL    MW410734   5.796   2.440   0.157 -0.4160 -0.0876 -0.1995
 2741SOL     OW10735   2.578   1.139   2.317  0.1037  0.1288  0.5682
 2741SOL    HW210736   2.607   1.189   2.393 -1.6307  0.0180  1.3691
 2741SOL    HW310737   2.530   1.203   2.264 -0.0813 -0.1521  0.3946
 2741SOL    MW410738   2.575   1.154   2.320 -0.1495  0.0771  0.6510
 2742SOL     OW10739   5.909   3.602   2.201  0.3750 -0.2300 -0.0359
 2742SOL    HW210740   5.920   3.615   2.295  2.0471  2.5343 -0.4925
 2742SOL    HW310741   5.995   3.623   2.164 -0.0500 -1.9341 -2.1689
 2742SOL    MW410742   5.922   3.607   2.208  0.5395 -0.0901 -0.3776
 2743SOL     OW10743   3.755   6.186   5.197  0.0073  0.3409  0.0628
 2743SOL    HW210744   3.676   6.196   5.145  0.9188  0.0694 -1.4384
 2743SOL    HW310745   3.770   6.091   5.201  0.9422  0.4214 -0.8186
 2743SOL    MW410746   3.747   6.174   5.191  0.2509  0.3157 -0.2516
 2744SOL     OW10747   4.727   0.967   4.031 -0.1075 -0.3255 -0.2130
 2744SOL    HW210748   4.767   0.997   4.112  0.7439 -1.9026 -0.0062
 2744SOL    HW310749   4.728   0.872   4.038 -1.2843 -0.4532 -1.4831
 2744SOL    MW410750   4.733   0.959   4.042 -0.1505 -0.5504 -0.3533
 2745SOL     OW10751   1.336   0.449   1.488  0.1647  0.1544 -0.0757
 2745SOL    HW210752   1.292   0.534   1.480 -1.3794 -0.7367 -2.1057
 2745SOL    HW310753   1.423   0.463   1.453  0.1610  1.0434  0.2497
 2745SOL    MW410754   1.341   0.462   1.483 -0.0395  0.1541 -0.3006
 2746SOL     OW10755   1.909   0.322   2.531 -0.0476 -0.0202  0.3103
 2746SOL    HW210756   1.902   0.416   2.517  0.2926  0.1144  1.0434
 2746SOL    HW310757   1.839   0.302   2.593 -2.3392 -0.8111 -2.3139
 2746SOL    MW410758   1.898   0.331   2.537 -0.3051 -0.1067  0.0608
 2747SOL     OW10759   0.193   1.007   0.762 -0.4416  0.4174  0.2830
 2747SOL    HW210760   0.223   0.916   0.757 -1.2398  0.1956 -1.3649
 2747SOL    HW310761   0.100   1.003   0.739 -0.9211  1.4829  1.8589
 2747SOL    MW410762   0.185   0.994   0.758 -0.6102  0.5287  0.2735
 2748SOL     OW10763   4.893   0.471   0.290  1.1832  0.4434  0.0984
 2748SOL    HW210764   4.809   0.516   0.295  1.3965  1.5190 -3.3200
 2748SOL    HW310765   4.871   0.380   0.270  0.8069  0.6907 -0.6408
 2748SOL    MW410766   4.879   0.465   0.288  1.1617  0.6180 -0.4501
 2749SOL     OW10767   0.992   2.184   0.065  0.1678  0.5386  0.1089
 2749SOL    HW210768   1.017   2.093   0.047 -0.1488  0.5603 -0.4769
 2749SOL    HW310769   0.943   2.211  -0.013 -1.0635  0.7199  0.9317
 2749SOL    MW410770   0.989   2.175   0.052 -0.0364  0.5654  0.1402
 2750SOL     OW10771   3.354   5.313   5.499 -0.1458 -0.5570 -0.0560
 2750SOL    HW210772   3.400   5.389   5.463 -0.0592 -1.6977 -2.5356
 2750SOL    HW310773   3.421   5.266   5.550 -0.3158  1.1642  1.9067
 2750SOL    MW410774   3.369   5.317   5.501 -0.1568 -0.4804 -0.1242
 2751SOL     OW10775   4.571   0.211   0.457  0.3924 -0.3871  0.1282
 2751SOL    HW210776   4.635   0.195   0.527  0.3830 -0.8704  0.0280
 2751SOL    HW310777   4.514   0.134   0.457  0.6199 -0.5701 -0.6550
 2751SOL    MW410778   4.572   0.199   0.466  0.4212 -0.4750  0.0117
 2752SOL     OW10779   2.288   4.262   1.292 -0.0386 -0.5999 -0.2441
 2752SOL    HW210780   2.206   4.229   1.255 -0.8972 -1.1419  2.0139
 2752SOL    HW310781   2.276   4.357   1.296 -0.2528 -0.6097 -0.5518
 2752SOL    MW410782   2.275   4.270   1.287 -0.1801 -0.6727  0.0132
 2753SOL     OW10783   5.109   5.253   1.937 -0.0324  0.5363  0.1172
 2753SOL    HW210784   5.112   5.201   2.018  1.0894 -1.4971 -1.1429
 2753SOL    HW310785   5.016   5.263   1.918 -0.3584  1.9621  2.1581
 2753SOL    MW410786   5.097   5.248   1.945  0.0726  0.4561  0.2202
 2754SOL     OW10787   5.199   6.067   3.050 -0.2140 -0.1398  0.4872
 2754SOL    HW210788   5.249   6.140   3.088  1.3708 -0.4239 -0.8877
 2754SOL    HW310789   5.130   6.110   2.999 -1.0932  0.2844  1.9942
 2754SOL    MW410790   5.197   6.083   3.048 -0.1209 -0.1214  0.5046
 2755SOL     OW10791   2.738   4.351   2.066 -0.3185 -0.4094  0.3238
 2755SOL    HW210792   2.652   4.378   2.098 -0.2973 -1.3325  1.2147
 2755SOL    HW310793   2.746   4.392   1.980 -0.5891  1.7355  1.2613
 2755SOL    MW410794   2.728   4.360   2.059 -0.3514 -0.2482  0.5650
 2756SOL     OW10795   1.304   3.719   3.686  0.4910  0.3720  0.0302
 2756SOL    HW210796   1.321   3.807   3.652 -1.0962  0.2089 -1.3178
 2756SOL    HW310797   1.218   3.726   3.727  0.6756 -0.3857  0.5614
 2756SOL    MW410798   1.295   3.731   3.687  0.3060  0.2505 -0.0776
 2757SOL     OW10799   4.112   5.583   1.357 -0.1273 -0.1510  0.2647
 2757SOL    HW210800   4.184   5.637   1.390  0.9664  0.1695 -2.3291
 2757SOL    HW310801   4.154   5.524   1.293 -1.7957 -1.8084  0.5970
 2757SOL    MW410802   4.127   5.582   1.353 -0.2031 -0.3274 -0.0337
 2758SOL     OW10803   5.305   4.767   3.188 -0.4250 -0.7076 -0.5072
 2758SOL    HW210804   5.312   4.674   3.165  0.4523 -0.5760 -0.8151
 2758SOL    HW310805   5.259   4.807   3.115 -1.6928 -1.0491  0.0685
 2758SOL    MW410806   5.300   4.760   3.176 -0.4765 -0.7353 -0.4719
 2759SOL     OW10807   3.552   2.864   1.658 -0.0596 -0.0100 -0.5077
 2759SOL    HW210808   3.504   2.782   1.650 -0.9636  0.1164  2.4681
 2759SOL    HW310809   3.636   2.839   1.697  0.3520  0.3097 -1.1774
 2759SOL    MW410810   3.557   2.850   1.662 -0.1246  0.0488 -0.2035
 2760SOL     OW10811   1.508   3.454   1.576 -0.2395  0.4464 -0.3424
 2760SOL    HW210812   1.504   3.360   1.563 -1.3639  0.3328  0.6663
 2760SOL    HW310813   1.527   3.490   1.490  1.9271 -0.7831 -0.4398
 2760SOL    MW410814   1.510   3.447   1.563 -0.1020  0.2692 -0.2222
 2761SOL     OW10815   6.126   5.185   5.496 -0.7571 -0.1052 -0.4784
 2761SOL    HW210816   6.077   5.267   5.497 -0.2699  0.1851 -0.4559
 2761SOL    HW310817   6.063   5.121   5.463 -1.0104  0.3521 -0.9029
 2761SOL    MW410818   6.111   5.187   5.492 -0.7263 -0.0066 -0.5314
 2762SOL     OW10819   1.197   3.084   3.183  0.1441  0.5193 -0.5132
 2762SOL    HW210820   1.191   3.037   3.266 -2.5506  1.2078 -0.2015
 2762SOL    HW310821   1.204   3.016   3.116  2.4565 -0.0385  0.2296
 2762SOL    MW410822   1.197   3.069   3.185  0.0936  0.5365 -0.3740
 2763SOL     OW10823   6.297   3.908   4.190 -0.8518  0.1384  0.1862
 2763SOL    HW210824   6.362   3.861   4.137  0.0273 -1.0037  2.1780
 2763SOL    HW310825   6.257   3.970   4.128 -0.5470 -1.7213 -2.0305
 2763SOL    MW410826   6.300   3.910   4.175 -0.6956 -0.2576  0.1565
 2764SOL     OW10827   4.204   0.036   1.091 -0.0544 -0.0377 -0.9307
 2764SOL    HW210828   4.112   0.056   1.072  0.2908  0.6353 -1.9908
 2764SOL    HW310829   4.251   0.064   1.012  1.1868  0.6521  0.0222
 2764SOL    MW410830   4.198   0.042   1.078  0.1549  0.1421 -0.9448
 2765SOL     OW10831   5.617   3.487   3.336  0.2435  0.2161  0.3017
 2765SOL    HW210832   5.611   3.576   3.370 -0.1206  0.9816 -1.6342
 2765SOL    HW310833   5.618   3.432   3.414  0.7719  1.9142  1.5562
 2765SOL    MW410834   5.616   3.492   3.351  0.2652  0.5412  0.2118
 2766SOL     OW10835   6.153   5.643   0.222  0.3782  1.0013 -0.1960
 2766SOL    HW210836   6.239   5.606   0.243  0.6446  1.6711 -0.0744
 2766SOL    HW310837   6.092   5.596   0.279  0.7472  0.9412  0.1549
 2766SOL    MW410838   6.156   5.632   0.232  0.4620  1.0817 -0.1337
 2767SOL     OW10839   0.351   1.015   6.234 -0.2762  0.3126  0.1243
 2767SOL    HW210840   0.264   0.981   6.256 -0.0599  0.7841  1.8295
 2767SOL    HW310841   0.358   1.002   6.140 -1.7421 -0.7803  0.1253
 2767SOL    MW410842   0.340   1.008   6.225 -0.4411  0.2306  0.3494
 2768SOL     OW10843   1.265   4.258   4.420  0.3373  0.7073 -0.3302
 2768SOL    HW210844   1.314   4.266   4.502  0.3685 -1.7428 -0.0208
 2768SOL    HW310845   1.315   4.194   4.369 -1.1636  0.0897 -1.0808
 2768SOL    MW410846   1.278   4.250   4.424  0.1434  0.3025 -0.3884
 2769SOL     OW10847   1.773   2.600   0.674  0.0858  0.1309  0.7666
 2769SOL    HW210848   1.862   2.582   0.646  0.1364  0.3028  0.8141
 2769SOL    HW310849   1.727   2.629   0.595 -0.0527 -0.4162  0.6471
 2769SOL    MW410850   1.779   2.602   0.660  0.0742  0.0814  0.7571
 2770SOL     OW10851   1.979   0.811   2.256 -0.2616 -0.2162  0.1921
 2770SOL    HW210852   1.975   0.784   2.164 -1.3229  0.0877  0.1363
 2770SOL    HW310853   2.073   0.814   2.276 -0.0504 -1.8415 -0.4062
 2770SOL    MW410854   1.991   0.808   2.246 -0.3738 -0.3906  0.1058
 2771SOL     OW10855   0.879   4.451   0.859 -0.3190  0.3267  0.0610
 2771SOL    HW210856   0.875   4.484   0.949 -0.0514 -0.7342  0.4749
 2771SOL    HW310857   0.890   4.356   0.868 -0.9405  0.1160 -1.0917
 2771SOL    MW410858   0.880   4.443   0.872 -0.3657  0.1589 -0.0365
 2772SOL     OW10859   0.667   5.555   5.942  0.3323 -0.7858 -0.2418
 2772SOL    HW210860   0.573   5.556   5.924  0.1580 -1.1341  0.6230
 2772SOL    HW310861   0.704   5.617   5.879 -0.5827  0.0363  0.0158
 2772SOL    MW410862   0.659   5.563   5.931  0.1885 -0.7233 -0.0937
 2773SOL     OW10863   4.539   1.733   3.168  0.1968  0.2973  0.6351
 2773SOL    HW210864   4.603   1.663   3.183  1.5829  1.8512  2.4125
 2773SOL    HW310865   4.459   1.686   3.143  1.8738 -1.7351 -1.3849
 2773SOL    MW410866   4.537   1.717   3.167  0.6010  0.2342  0.6031
 2774SOL     OW10867   1.097   0.959   3.569  0.7368 -0.3513  0.6203
 2774SOL    HW210868   1.182   0.984   3.604  0.0842  0.8023  1.4737
 2774SOL    HW310869   1.115   0.928   3.480  2.0867 -0.5934  0.9581
 2774SOL    MW410870   1.110   0.958   3.562  0.8288 -0.2310  0.7775
 2775SOL     OW10871   5.076   1.810   1.096  0.1683  0.3962 -0.1739
 2775SOL    HW210872   5.161   1.853   1.093 -0.1796  1.0632 -0.5914
 2775SOL    HW310873   5.063   1.774   1.009  0.9370 -1.5488  0.4535
 2775SOL    MW410874   5.085   1.811   1.084  0.2238  0.2276 -0.1462
 2776SOL     OW10875   4.884   5.708   6.397  0.2998 -0.1505 -0.2487
 2776SOL    HW210876   4.881   5.719   6.492  1.8942 -2.2224  0.1172
 2776SOL    HW310877   4.816   5.768   6.363  0.7484  1.7888  2.0400
 2776SOL    MW410878   4.874   5.717   6.405  0.5693 -0.1679  0.1015
 2777SOL     OW10879   5.361   0.570   4.113  0.8733 -0.6298 -0.5780
 2777SOL    HW210880   5.426   0.640   4.120  2.3159 -2.1080  1.9585
 2777SOL    HW310881   5.311   0.575   4.194 -1.8086 -0.0467 -2.1226
 2777SOL    MW410882   5.363   0.580   4.124  0.7098 -0.7479 -0.4471
 2778SOL     OW10883   2.383   4.720   5.846  0.4896  0.1041 -0.0139
 2778SOL    HW210884   2.423   4.795   5.802 -1.5091  0.6828 -0.9421
 2778SOL    HW310885   2.424   4.719   5.932  1.2656  1.6752 -0.3188
 2778SOL    MW410886   2.394   4.730   5.851  0.3282  0.3877 -0.1766
 2779SOL     OW10887   2.798   5.637   0.687 -0.6898  0.4104 -0.0828
 2779SOL    HW210888   2.888   5.606   0.681 -1.2278 -0.9475 -2.0171
 2779SOL    HW310889   2.769   5.610   0.774  0.5219  0.2146  0.2788
 2779SOL    MW410890   2.806   5.629   0.698 -0.6009  0.2054 -0.2903
 2780SOL     OW10891   5.101   5.445   5.142  0.2285  0.3585 -0.0785
 2780SOL    HW210892   5.151   5.368   5.168 -0.2882  0.0739  0.0933
 2780SOL    HW310893   5.159   5.493   5.082 -0.5210 -1.7235 -2.6954
 2780SOL    MW410894   5.115   5.441   5.137  0.0614  0.0463 -0.4011
 2781SOL     OW10895   5.894   3.689   3.045  0.3335  0.2753  0.0185
 2781SOL    HW210896   5.907   3.599   3.076 -0.6088  0.3981  0.8380
 2781SOL    HW310897   5.974   3.710   2.997  0.7214 -0.8687  0.1267
 2781SOL    MW410898   5.906   3.680   3.042  0.2604  0.1405  0.1409
 2782SOL     OW10899   5.132   5.965   2.689 -0.1644  0.6989  0.0538
 2782SOL    HW210900   5.040   5.938   2.692  0.4286 -1.9368 -1.8285
 2782SOL    HW310901   5.167   5.940   2.775 -0.8822  0.4051  0.2717
 2782SOL    MW410902   5.124   5.958   2.701 -0.1808  0.3124 -0.1658
 2783SOL     OW10903   0.707   4.189   1.638  0.3859 -0.2287 -0.2145
 2783SOL    HW210904   0.756   4.136   1.702  0.2776  0.1997  0.2288
 2783SOL    HW310905   0.710   4.278   1.674 -0.2294 -0.0989 -0.4757
 2783SOL    MW410906   0.714   4.194   1.651  0.2905 -0.1550 -0.1905
 2784SOL     OW10907   5.265   2.145   6.224 -0.1460 -0.3636  0.0852
 2784SOL    HW210908   5.255   2.229   6.178 -0.4114 -0.7638 -0.5955
 2784SOL    HW310909   5.337   2.161   6.285  1.6283 -0.3760 -1.8455
 2784SOL    MW410910   5.273   2.158   6.226  0.0531 -0.4180 -0.2593
 2785SOL     OW10911   2.444   0.413   5.606 -0.4177  0.1506  0.8639
 2785SOL    HW210912   2.392   0.338   5.633 -1.6131  0.4554 -0.4609
 2785SOL    HW310913   2.523   0.409   5.660 -0.8530 -1.5455  1.4198
 2785SOL    MW410914   2.448   0.402   5.617 -0.6329 -0.0330  0.7624
 2786SOL     OW10915   0.664   5.197   1.030  0.1717  0.3129 -0.1483
 2786SOL    HW210916   0.619   5.281   1.038  0.9906  1.0231 -2.3172
 2786SOL    HW310917   0.606   5.145   0.974  1.2745  0.7059 -1.7085
 2786SOL    MW410918   0.650   5.201   1.023  0.4252  0.4584 -0.6403
 2787SOL     OW10919   5.366   6.300   1.656  0.2507 -0.5764  0.0693
 2787SOL    HW210920   5.382   6.206   1.661 -0.5853 -0.6850  1.1809
 2787SOL    HW310921   5.271   6.308   1.652  0.3493  0.1906 -1.2834
 2787SOL    MW410922   5.356   6.289   1.656  0.1534 -0.4895  0.0375
 2788SOL     OW10923   4.565   4.602   1.193 -0.0289  0.7707 -0.0516
 2788SOL    HW210924   4.564   4.567   1.282 -2.1284  1.1091  0.1294
 2788SOL    HW310925   4.495   4.668   1.193  1.7651  2.7783 -1.2168
 2788SOL    MW410926   4.555   4.606   1.205 -0.0692  1.0802 -0.1815
 2789SOL     OW10927   0.057   2.238   3.692  0.2537  0.3876 -0.2038
 2789SOL    HW210928   0.096   2.302   3.753 -1.5454 -0.1019  1.5486
 2789SOL    HW310929   0.102   2.156   3.712  0.1070  0.3612  0.0181
 2789SOL    MW410930   0.068   2.236   3.702 -0.0030  0.3195  0.0567
 2790SOL     OW10931   6.360   2.015   3.102 -0.2032 -0.2736  0.3214
 2790SOL    HW210932   6.358   1.947   3.035  0.6765 -0.8569  0.8789
 2790SOL    HW310933   6.388   1.971   3.182 -1.2663  0.4028  1.1071
 2790SOL    MW410934   6.363   2.000   3.104 -0.2274 -0.2613  0.4987
 2791SOL     OW10935   4.108   5.136   4.794 -0.5287  0.1457  0.1805
 2791SOL    HW210936   4.150   5.136   4.708  1.0097  1.2573  0.9026
 2791SOL    HW310937   4.116   5.045   4.824 -0.8123 -0.1871 -0.6944
 2791SOL    MW410938   4.114   5.124   4.786 -0.3632  0.2485  0.1604
 2792SOL     OW10939   3.333   1.498   3.895 -0.0525 -0.1160  0.0763
 2792SOL    HW210940   3.422   1.465   3.904  0.2722  1.0355  1.5287
 2792SOL    HW310941   3.343   1.592   3.881 -1.0286  0.4163  2.4381
 2792SOL    MW410942   3.346   1.506   3.894 -0.1385  0.1062  0.5795
 2793SOL     OW10943   4.783   2.153   1.192 -0.0427 -0.4153 -0.0281
 2793SOL    HW210944   4.856   2.138   1.132  0.4607 -1.4236  0.8115
 2793SOL    HW310945   4.727   2.216   1.146  1.2451  0.2326 -0.7611
 2793SOL    MW410946   4.785   2.160   1.178  0.1936 -0.4629 -0.0141
 2794SOL     OW10947   3.601   1.081   0.729 -0.1966 -0.1475  0.0320
 2794SOL    HW210948   3.523   1.075   0.675  0.0980 -0.0212 -0.4143
 2794SOL    HW310949   3.626   0.989   0.744 -0.5391 -0.1919  0.3419
 2794SOL    MW410950   3.594   1.068   0.724 -0.2029 -0.1367  0.0140
 2795SOL     OW10951   2.464   0.242   4.170  0.1393  0.8560  0.0512
 2795SOL    HW210952   2.413   0.163   4.188  0.4365  0.5385 -0.4917
 2795SOL    HW310953   2.477   0.242   4.075  2.0464  0.3819  0.2770
 2795SOL    MW410954   2.459   0.232   4.160  0.4301  0.7516  0.0093
 2796SOL     OW10955   2.922   5.924   5.202  0.0808 -0.2707  0.0949
 2796SOL    HW210956   2.879   5.964   5.127 -1.5333  2.3532  2.2543
 2796SOL    HW310957   2.855   5.866   5.240  0.0862  0.1591  0.7738
 2796SOL    MW410958   2.907   5.922   5.197 -0.1315  0.1322  0.4694
 2797SOL     OW10959   0.281   0.643   3.576 -0.1515  0.5228  0.1933
 2797SOL    HW210960   0.312   0.662   3.664 -0.7582  2.2696  0.0551
 2797SOL    HW310961   0.281   0.547   3.571  1.6433  0.4114  1.4368
 2797SOL    MW410962   0.285   0.633   3.587  0.0052  0.7386  0.3391
 2798SOL     OW10963   1.406   3.266   5.559  0.4098  0.1748 -0.4821
 2798SOL    HW210964   1.479   3.299   5.507 -0.9912  1.8948 -1.4582
 2798SOL    HW310965   1.444   3.247   5.645  1.8770  1.5954 -0.7755
 2798SOL    MW410966   1.421   3.268   5.563  0.4185  0.5891 -0.6496
 2799SOL     OW10967   3.310   0.570   6.048  0.3515  0.7933  0.4289
 2799SOL    HW210968   3.245   0.591   5.981  2.6653  0.0832 -2.2307
 2799SOL    HW310969   3.311   0.474   6.050 -0.2675  0.7869  2.1825
 2799SOL    MW410970   3.301   0.560   6.039  0.5751  0.6988  0.3094
 2800SOL     OW10971   1.502   5.391   3.014 -0.8391 -0.4210 -0.3254
 2800SOL    HW210972   1.413   5.368   2.987 -0.9837  0.4623 -0.6167
 2800SOL    HW310973   1.497   5.483   3.038  0.0226 -0.3456 -0.4138
 2800SOL    MW410974   1.490   5.400   3.014 -0.7445 -0.2945 -0.3755
 2801SOL     OW10975   0.083   4.341   5.149  0.0339 -1.0990  0.1012
 2801SOL    HW210976   0.161   4.383   5.185 -0.4195 -0.7254  0.6891
 2801SOL    HW310977   0.091   4.351   5.054 -0.0922  0.4181  0.2167
 2801SOL    MW410978   0.094   4.348   5.141 -0.0425 -0.8495  0.1940
 2802SOL     OW10979   4.931   5.419   4.341  0.4107 -0.3116  0.2235
 2802SOL    HW210980   5.019   5.403   4.374  0.8263  1.2146 -0.0480
 2802SOL    HW310981   4.879   5.345   4.372  1.1801  0.1104  2.7431
 2802SOL    MW410982   4.935   5.407   4.350  0.5670 -0.0545  0.5201
 2803SOL     OW10983   5.818   2.345   5.573  1.0753 -0.5894 -0.1489
 2803SOL    HW210984   5.731   2.313   5.550  0.6856 -0.8886  1.6070
 2803SOL    HW310985   5.866   2.346   5.490 -0.8072  0.3022 -1.3063
 2803SOL    MW410986   5.813   2.341   5.559  0.7755 -0.5112 -0.0699
 2804SOL     OW10987   5.884   0.205   0.242  0.0715 -0.2995  0.3430
 2804SOL    HW210988   5.865   0.156   0.162 -0.3660 -0.1626  0.3629
 2804SOL    HW310989   5.942   0.276   0.213 -1.1425  0.5464 -0.0998
 2804SOL    MW410990   5.889   0.208   0.228 -0.1464 -0.1698  0.2872
 2805SOL     OW10991   0.063   6.160   3.019 -0.1413 -0.1219  0.0431
 2805SOL    HW210992   0.153   6.187   3.035  0.1815 -1.7700  1.1660
 2805SOL    HW310993   0.013   6.199   3.091 -0.0350 -0.7058  0.4310
 2805SOL    MW410994   0.068   6.169   3.030 -0.0847 -0.4164  0.2424
 2806SOL     OW10995   1.900   1.640   0.318  0.2470  0.0663  0.4879
 2806SOL    HW210996   1.935   1.553   0.299 -0.0977  0.0549 -0.1289
 2806SOL    HW310997   1.806   1.626   0.330  0.1402  0.3937  0.0756
 2806SOL    MW410998   1.892   1.627   0.317  0.1874  0.1080  0.3521
 2807SOL     OW10999   2.685   1.012   5.074  0.2263 -0.4077 -0.2725
 2807SOL    HW211000   2.761   0.970   5.113 -0.0754 -0.0125  0.7909
 2807SOL    HW311001   2.613   0.991   5.133 -0.0034  1.2352  0.0876
 2807SOL    MW411002   2.685   1.004   5.087  0.1562 -0.1388 -0.0847
 2808SOL     OW11003   4.797   1.196   5.007 -0.1977  0.3963  0.5222
 2808SOL    HW211004   4.817   1.285   4.978 -0.7995  0.3197 -0.1449
 2808SOL    HW311005   4.853   1.140   4.954 -1.0173  0.2807 -0.2418
 2808SOL    MW411006   4.807   1.200   4.996 -0.3852  0.3710  0.3334
 2809SOL     OW11007   3.145   4.052   4.103  0.6222  0.0714 -0.1151
 2809SOL    HW211008   3.093   4.116   4.152  1.7579 -0.2222  1.5434
 2809SOL    HW311009   3.157   4.092   4.017  0.6136  1.7342  0.6177
 2809SOL    MW411010   3.140   4.066   4.098  0.7709  0.2521  0.2004
 2810SOL     OW11011   2.949   4.863   2.467 -0.3352  0.1274 -0.2133
 2810SOL    HW211012   2.892   4.788   2.452  0.4517 -0.3266 -1.0633
 2810SOL    HW311013   2.925   4.925   2.398 -0.6245  0.4469  0.1694
 2810SOL    MW411014   2.938   4.861   2.456 -0.2696  0.1096 -0.2750
 2811SOL     OW11015   5.261   6.133   0.925  0.0422 -0.3313 -0.7120
 2811SOL    HW211016   5.339   6.169   0.883  0.4136  1.0569  1.0558
 2811SOL    HW311017   5.288   6.048   0.958  0.1124 -0.8664 -2.0749
 2811SOL    MW411018   5.275   6.127   0.924  0.1004 -0.2187 -0.6586
 2812SOL     OW11019   5.144   5.702   3.301 -0.1150  0.2827  0.5467
 2812SOL    HW211020   5.082   5.764   3.261 -0.1731  0.1175  0.3805
 2812SOL    HW311021   5.149   5.730   3.392  0.9839  1.4614  0.1601
 2812SOL    MW411022   5.136   5.714   3.308  0.0223  0.4164  0.4738
 2813SOL     OW11023   4.447   1.783   4.576  0.6331  0.7575 -0.1737
 2813SOL    HW211024   4.380   1.725   4.541  1.7161 -0.2448 -0.6639
 2813SOL    HW311025   4.436   1.778   4.671  2.3039 -2.3828 -0.0067
 2813SOL    MW411026   4.437   1.774   4.584  0.9964  0.2110 -0.2163
 2814SOL     OW11027   2.323   1.327   1.526 -0.2016 -0.1046  0.3764
 2814SOL    HW211028   2.305   1.362   1.439  0.2555 -0.0684  0.2925
 2814SOL    HW311029   2.295   1.235   1.520 -0.1420 -0.1118  0.1792
 2814SOL    MW411030   2.317   1.319   1.513 -0.1334 -0.1008  0.3393
 2815SOL     OW11031   1.634   4.906   3.418  0.0143  0.2968  0.5075
 2815SOL    HW211032   1.554   4.937   3.376  0.2313 -0.1583 -0.2662
 2815SOL    HW311033   1.669   4.841   3.357  1.8867  1.7080 -0.0454
 2815SOL    MW411034   1.628   4.902   3.404  0.2900  0.4229  0.3325
 2816SOL     OW11035   5.469   4.772   3.582 -0.1162 -0.0472  0.2666
 2816SOL    HW211036   5.508   4.845   3.534 -2.1315  1.1919  0.4190
 2816SOL    HW311037   5.502   4.781   3.672  0.7393 -0.1898 -0.0232
 2816SOL    MW411038   5.478   4.783   3.588 -0.2692  0.0974  0.2485
 2817SOL     OW11039   0.679   3.492   2.868  0.0866 -0.1479  0.0178
 2817SOL    HW211040   0.766   3.520   2.841 -0.2775 -1.5636 -2.9868
 2817SOL    HW311041   0.671   3.402   2.836 -1.8522 -0.7267  1.8421
 2817SOL    MW411042   0.689   3.484   2.861 -0.2172 -0.4110 -0.1379
 2818SOL     OW11043   2.784   3.483   0.161  0.5360  0.4605  0.1396
 2818SOL    HW211044   2.850   3.489   0.091 -0.8830 -0.8833 -1.3895
 2818SOL    HW311045   2.702   3.507   0.119 -0.5751 -1.6484  0.9614
 2818SOL    MW411046   2.782   3.487   0.146  0.2022  0.0049  0.0463
 2819SOL     OW11047   4.594   3.561   3.099 -0.1682  0.5456  0.4185
 2819SOL    HW211048   4.549   3.591   3.178 -2.1857  1.6856 -1.0921
 2819SOL    HW311049   4.532   3.500   3.058  1.1065 -0.5128 -0.0144
 2819SOL    MW411050   4.580   3.557   3.104 -0.2662  0.5563  0.1620
 2820SOL     OW11051   3.473   2.566   3.008 -0.1145 -0.5901 -0.2373
 2820SOL    HW211052   3.540   2.500   3.024  1.8912  1.4706  0.4119
 2820SOL    HW311053   3.472   2.577   2.913 -2.5154 -3.4272 -0.6844
 2820SOL    MW411054   3.481   2.559   2.998 -0.1667 -0.6925 -0.2106
 2821SOL     OW11055   3.269   5.467   1.125 -0.1602  0.1744 -0.3875
 2821SOL    HW211056   3.239   5.512   1.204  0.4254 -0.1708  0.0347
 2821SOL    HW311057   3.197   5.409   1.102 -0.3065  0.2309 -0.0750
 2821SOL    MW411058   3.255   5.465   1.132 -0.1022  0.1363 -0.2906
 2822SOL     OW11059   5.891   4.051   0.830  0.5070  0.6157 -0.3924
 2822SOL    HW211060   5.888   4.129   0.775 -0.4988  1.0035  0.1812
 2822SOL    HW311061   5.857   4.080   0.915  0.1507 -0.4385 -0.1573
 2822SOL    MW411062   5.886   4.065   0.834  0.3273  0.5278 -0.2857
 2823SOL     OW11063   2.592   4.388   1.265  0.8692  0.0923  0.2467
 2823SOL    HW211064   2.517   4.348   1.220  2.1036 -1.1183 -0.8044
 2823SOL    HW311065   2.628   4.318   1.319  2.0857  0.2576 -0.3396
 2823SOL    MW411066   2.587   4.373   1.266  1.1926 -0.0456  0.0306
 2824SOL     OW11067   5.150   0.267   1.094  0.2773  0.0160  0.7211
 2824SOL    HW211068   5.105   0.330   1.150 -1.4819 -0.5957  0.0729
 2824SOL    HW311069   5.079   0.216   1.053  1.5819 -1.2272 -0.0994
 2824SOL    MW411070   5.135   0.268   1.096  0.2173 -0.2287  0.5273
 2825SOL     OW11071   2.029   4.207   2.071 -0.1915  0.3177 -0.1158
 2825SOL    HW211072   2.103   4.229   2.128 -0.4112 -0.7985  0.6507
 2825SOL    HW311073   2.029   4.111   2.070 -1.7339  0.2996  0.0643
 2825SOL    MW411074   2.039   4.197   2.079 -0.4240  0.1680  0.0091
 2826SOL     OW11075   0.151   0.565   5.335  0.3092 -0.5530  0.2665
 2826SOL    HW211076   0.179   0.582   5.425  0.0137 -1.3816  0.5187
 2826SOL    HW311077   0.197   0.631   5.283  0.9446 -0.4495  0.9478
 2826SOL    MW411078   0.161   0.576   5.340  0.3540 -0.6487  0.3896
 2827SOL     OW11079   4.125   2.042   0.158 -0.0770  0.4437  0.7964
 2827SOL    HW211080   4.208   2.047   0.205  1.7048 -2.1837 -1.7054
 2827SOL    HW311081   4.081   1.966   0.195 -0.5966  0.8422  1.0041
 2827SOL    MW411082   4.130   2.032   0.169  0.0895  0.1496  0.4937
 2828SOL     OW11083   0.838   2.490   5.367  0.7064  0.8980  0.0718
 2828SOL    HW211084   0.894   2.455   5.437 -0.1165  2.1536  1.4400
 2828SOL    HW311085   0.824   2.581   5.392 -0.9109  0.9552 -0.8997
 2828SOL    MW411086   0.844   2.497   5.380  0.3844  1.0712  0.1241
 2829SOL     OW11087   1.839   6.404   6.423  0.1447  0.4016  0.3504
 2829SOL    HW211088   1.907   6.366   6.479  2.0288  1.0642 -1.3274
 2829SOL    HW311089   1.820   6.489   6.463  1.5986  0.9518 -0.0410
 2829SOL    MW411090   1.846   6.410   6.436  0.5851  0.5616  0.0774
 2830SOL     OW11091   1.179   3.779   2.414 -0.0639 -0.4114 -0.2365
 2830SOL    HW211092   1.212   3.861   2.376 -0.6736  0.7020  1.4928
 2830SOL    HW311093   1.101   3.806   2.463  0.5788 -1.7489  1.6250
 2830SOL    MW411094   1.173   3.794   2.415 -0.0595 -0.4409  0.2373
 2831SOL     OW11095   5.677   2.121   6.253  0.5398 -0.8724  0.2495
 2831SOL    HW211096   5.710   2.082   6.334  2.7285 -2.0436 -1.1255
 2831SOL    HW311097   5.725   2.204   6.245 -2.1590  1.0012  1.7881
 2831SOL    MW411098   5.688   2.127   6.262  0.4725 -0.7797  0.2711
 2832SOL     OW11099   4.133   5.832   1.196  0.3716 -0.0625  0.1155
 2832SOL    HW211100   4.061   5.842   1.134  0.6032 -0.4831 -0.2285
 2832SOL    HW311101   4.107   5.758   1.252 -0.2031  0.8142  1.0491
 2832SOL    MW411102   4.120   5.823   1.196  0.3263 -0.0023  0.1933
 2833SOL     OW11103   6.289   5.864   5.266  0.4190 -0.1484  0.0021
 2833SOL    HW211104   6.199   5.897   5.264 -0.1980 -1.7440 -1.3261
 2833SOL    HW311105   6.343   5.940   5.287 -1.2578  0.7674  1.1772
 2833SOL    MW411106   6.284   5.878   5.268  0.1164 -0.2381 -0.0181
 2834SOL     OW11107   0.550   4.068   4.005  0.6390  0.1000 -0.0497
 2834SOL    HW211108   0.497   4.086   4.082  0.7724  0.1170  0.0384
 2834SOL    HW311109   0.607   4.144   3.996 -1.7116  1.7753 -2.1795
 2834SOL    MW411110   0.550   4.080   4.014  0.3465  0.3233 -0.3191
 2835SOL     OW11111   3.887   5.769   1.435 -0.3505  0.3346 -0.4830
 2835SOL    HW211112   3.946   5.734   1.368  0.7231 -0.5108  0.8499
 2835SOL    HW311113   3.823   5.819   1.386  1.3310  1.0945 -2.0281
 2835SOL    MW411114   3.887   5.771   1.419  0.0130  0.3233 -0.5110
 2836SOL     OW11115   2.706   0.349   4.611 -0.2652 -0.4308 -0.9329
 2836SOL    HW211116   2.680   0.309   4.694 -0.6651  1.1860 -0.2334
 2836SOL    HW311117   2.628   0.345   4.557  0.1071 -1.8505 -1.4285
 2836SOL    MW411118   2.692   0.343   4.615 -0.2688 -0.4048 -0.9060
 2837SOL     OW11119   5.896   1.352   1.983 -0.1306 -0.0010  0.0087
 2837SOL    HW211120   5.875   1.294   1.910  0.3472  1.6107 -1.4970
 2837SOL    HW311121   5.927   1.294   2.052 -0.2430 -1.5666 -1.2063
 2837SOL    MW411122   5.898   1.337   1.982 -0.0824  0.0051 -0.3503
 2838SOL     OW11123   5.441   3.838   0.251 -0.2123 -0.1529 -0.6870
 2838SOL    HW211124   5.482   3.908   0.199  0.9926 -1.2548 -1.2835
 2838SOL    HW311125   5.364   3.879   0.290  0.4145  1.4854 -1.0859
 2838SOL    MW411126   5.437   3.853   0.249  0.0294 -0.0821 -0.8184
 2839SOL     OW11127   3.388   0.391   1.610  0.1682  0.0675  0.1162
 2839SOL    HW211128   3.321   0.342   1.658  0.7818 -0.3259  0.5953
 2839SOL    HW311129   3.375   0.482   1.637 -1.9975  0.4747 -1.9791
 2839SOL    MW411130   3.377   0.396   1.620 -0.0366  0.0693 -0.0971
 2840SOL     OW11131   2.851   3.485   0.615 -0.1215 -0.4257 -0.1508
 2840SOL    HW211132   2.823   3.408   0.665  0.0076 -0.2299  0.2331
 2840SOL    HW311133   2.893   3.450   0.537  1.4197 -0.7993  0.8027
 2840SOL    MW411134   2.853   3.470   0.611  0.0989 -0.4491  0.0257
 2841SOL     OW11135   5.391   6.346   0.208  0.2318 -0.2873 -0.2502
 2841SOL    HW211136   5.454   6.417   0.223 -0.3973  0.6469 -1.7616
 2841SOL    HW311137   5.431   6.269   0.248  1.1773  0.8057  0.9779
 2841SOL    MW411138   5.405   6.345   0.215  0.2736 -0.0198 -0.2876
 2842SOL     OW11139   5.236   0.857   4.634 -0.1047  0.0706 -0.3577
 2842SOL    HW211140   5.247   0.866   4.728 -2.6547 -1.6829  0.2187
 2842SOL    HW311141   5.325   0.853   4.599  0.8964  0.0292  2.0427
 2842SOL    MW411142   5.250   0.858   4.641 -0.3090 -0.1662  0.0351
 2843SOL     OW11143   1.399   3.577   4.633  0.4315  0.4566  0.1014
 2843SOL    HW211144   1.359   3.657   4.667  1.2175  0.8794  0.0630
 2843SOL    HW311145   1.489   3.602   4.614  1.2556 -0.9287  1.8850
 2843SOL    MW411146   1.406   3.591   4.635  0.6439  0.3296  0.3317
 2844SOL     OW11147   3.876   2.577   3.914  0.2433  0.0188  0.1228
 2844SOL    HW211148   3.881   2.671   3.898  0.5682  0.1567  0.9861
 2844SOL    HW311149   3.893   2.537   3.828 -2.1654  0.7396 -0.7565
 2844SOL    MW411150   3.879   2.584   3.900 -0.0317  0.1321  0.1207
 2845SOL     OW11151   2.195   0.844   1.027 -0.1965  0.1230 -0.1491
 2845SOL    HW211152   2.135   0.779   0.992 -0.5108  0.3862 -0.1066
 2845SOL    HW311153   2.239   0.799   1.100  1.8889 -1.0830 -2.0301
 2845SOL    MW411154   2.193   0.829   1.032  0.0372 -0.0014 -0.3917
 2846SOL     OW11155   5.121   1.301   4.847  0.1044  0.1091  0.2275
 2846SOL    HW211156   5.106   1.207   4.859 -1.8206  0.4837  1.1306
 2846SOL    HW311157   5.191   1.322   4.907 -0.6290 -0.4567  1.3214
 2846SOL    MW411158   5.128   1.291   4.856 -0.2463  0.0839  0.4910
 2847SOL     OW11159   4.163   4.231   3.143 -0.2830  0.0281 -1.0569
 2847SOL    HW211160   4.185   4.241   3.050 -1.1243  0.4325 -1.2232
 2847SOL    HW311161   4.123   4.315   3.166  0.3271  0.0915 -0.2068
 2847SOL    MW411162   4.161   4.244   3.133 -0.3135  0.0898 -0.9667
 2848SOL     OW11163   0.238   1.420   1.293  0.2710 -0.2865 -0.2839
 2848SOL    HW211164   0.302   1.360   1.332 -1.6809 -3.1582 -1.1890
 2848SOL    HW311165   0.273   1.437   1.205  0.4268 -0.7838 -0.3227
 2848SOL    MW411166   0.251   1.415   1.286  0.0340 -0.7310 -0.4084
 2849SOL     OW11167   0.519   5.041   4.759 -0.3902  0.6409 -0.4408
 2849SOL    HW211168   0.430   5.063   4.788 -0.2817  0.5452 -0.0180
 2849SOL    HW311169   0.569   5.034   4.841 -0.8214 -3.0040 -0.3093
 2849SOL    MW411170   0.514   5.043   4.774 -0.4328  0.1474 -0.3677
 2850SOL     OW11171   0.441   4.062   0.753  0.0380  0.0395  0.5478
 2850SOL    HW211172   0.381   4.124   0.710  1.9695  0.8497 -1.1474
 2850SOL    HW311173   0.450   4.095   0.843 -1.8855 -0.0369  0.8087
 2850SOL    MW411174   0.434   4.075   0.759  0.0390  0.1363  0.3586
 2851SOL     OW11175   4.322   1.856   4.824  0.0623 -0.0143  0.2506
 2851SOL    HW211176   4.244   1.874   4.877 -1.0271  0.3525 -1.3841
 2851SOL    HW311177   4.327   1.761   4.818 -0.1676 -0.0404  0.4921
 2851SOL    MW411178   4.312   1.846   4.830 -0.1118  0.0306  0.0668
 2852SOL     OW11179   4.519   3.247   3.899 -0.3561 -0.0366 -0.7758
 2852SOL    HW211180   4.433   3.225   3.933 -0.2269 -0.0933 -0.4799
 2852SOL    HW311181   4.513   3.340   3.878  0.3806  0.7521  2.0432
 2852SOL    MW411182   4.507   3.256   3.901 -0.2418  0.0600 -0.3648
 2853SOL     OW11183   4.132   0.366   2.796  0.2052 -0.2716 -0.3518
 2853SOL    HW211184   4.139   0.343   2.888  2.2122  0.7078 -0.2012
 2853SOL    HW311185   4.144   0.284   2.749  0.7429 -0.5389  0.2450
 2853SOL    MW411186   4.134   0.352   2.802  0.5409 -0.1777 -0.2532
 2854SOL     OW11187   1.263   1.633   2.325  0.3086  0.3354 -0.5761
 2854SOL    HW211188   1.271   1.652   2.418 -1.3216 -2.5339  0.2479
 2854SOL    HW311189   1.349   1.599   2.300  0.7046  0.9678 -0.1183
 2854SOL    MW411190   1.275   1.631   2.334  0.1458  0.0403 -0.4070
 2855SOL     OW11191   2.757   4.384   4.883  0.1948 -0.6473 -0.0699
 2855SOL    HW211192   2.741   4.311   4.943 -0.0071  0.4914  1.3257
 2855SOL    HW311193   2.852   4.390   4.877  0.3284  0.7316  2.1687
 2855SOL    MW411194   2.767   4.375   4.890  0.1858 -0.3151  0.4096
 2856SOL     OW11195   6.120   4.075   3.349 -0.1774  0.3663 -0.1000
 2856SOL    HW211196   6.167   4.061   3.432 -0.5702 -2.2596 -0.2407
 2856SOL    HW311197   6.070   3.994   3.336 -2.8041  2.0629 -1.2192
 2856SOL    MW411198   6.120   4.062   3.359 -0.5758  0.2437 -0.2662
 2857SOL     OW11199   2.730   6.280   3.807  0.9384 -0.0712  0.5947
 2857SOL    HW211200   2.826   6.280   3.809  0.9505  0.7363  0.3502
 2857SOL    HW311201   2.708   6.296   3.715  0.5584 -1.2483  0.4675
 2857SOL    MW411202   2.740   6.282   3.795  0.8898 -0.1199  0.5456
 2858SOL     OW11203   2.708   1.566   3.690 -0.1548 -0.4317 -0.3558
 2858SOL    HW211204   2.778   1.512   3.726  0.4892  0.7451  0.2036
 2858SOL    HW311205   2.725   1.568   3.596  2.1940  2.0221  0.0336
 2858SOL    MW411206   2.719   1.559   3.682  0.2400  0.0473 -0.2306
 2859SOL     OW11207   5.190   1.612   5.165 -0.7498 -0.2384  0.0987
 2859SOL    HW211208   5.209   1.535   5.111  1.2895 -0.2778  0.7747
 2859SOL    HW311209   5.150   1.576   5.244 -1.1882 -0.4615 -0.2238
 2859SOL    MW411210   5.188   1.597   5.168 -0.5386 -0.2731  0.1453
 2860SOL     OW11211   1.942   2.695   6.342  0.9536  0.3577 -0.5740
 2860SOL    HW211212   1.914   2.654   6.260  1.2141 -0.8137 -0.0953
 2860SOL    HW311213   1.956   2.787   6.319 -0.4354  0.3795 -1.4910
 2860SOL    MW411214   1.940   2.702   6.328  0.8047  0.2060 -0.6318
 2861SOL     OW11215   5.035   5.978   2.155  0.4460  0.4432  0.1113
 2861SOL    HW211216   5.103   5.916   2.131 -0.2805 -0.1704 -0.4255
 2861SOL    HW311217   5.060   6.060   2.111  0.9360  0.2804  0.0876
 2861SOL    MW411218   5.047   5.981   2.146  0.4148  0.3408  0.0373
 2862SOL     OW11219   4.231   2.456   5.413  0.4971  0.5779 -0.2899
 2862SOL    HW211220   4.300   2.520   5.431 -1.0036  1.5113  2.8044
 2862SOL    HW311221   4.272   2.372   5.433  1.1128  0.9908  0.2476
 2862SOL    MW411222   4.246   2.453   5.418  0.3803  0.7556  0.1893
 2863SOL     OW11223   5.182   4.625   2.342 -0.6385 -0.0883 -0.6118
 2863SOL    HW211224   5.156   4.716   2.324 -1.4043  0.2728  1.8819
 2863SOL    HW311225   5.270   4.634   2.379 -0.7227 -0.3512 -0.3495
 2863SOL    MW411226   5.190   4.638   2.344 -0.7506 -0.0754 -0.2482
 2864SOL     OW11227   2.746   4.820   3.981 -0.3982  0.0628 -0.2457
 2864SOL    HW211228   2.802   4.895   3.960  0.0425 -0.1849  0.0242
 2864SOL    HW311229   2.782   4.748   3.929 -0.7191 -0.0005 -0.3816
 2864SOL    MW411230   2.758   4.820   3.971 -0.3824  0.0218 -0.2280
 2865SOL     OW11231   4.421   5.409   4.153 -0.2772 -0.4708 -0.5246
 2865SOL    HW211232   4.422   5.486   4.211  0.4229 -0.2259 -0.8489
 2865SOL    HW311233   4.329   5.398   4.130 -0.2890  0.8090 -1.1749
 2865SOL    MW411234   4.409   5.418   4.158 -0.1864 -0.2696 -0.6532
 2866SOL     OW11235   0.104   4.349   1.723  0.2186  0.2827 -0.0451
 2866SOL    HW211236   0.092   4.258   1.748 -2.1127  0.3930 -0.5646
 2866SOL    HW311237   0.097   4.349   1.627  2.4463  0.7524 -0.2641
 2866SOL    MW411238   0.102   4.337   1.713  0.2049  0.3592 -0.1425
 2867SOL     OW11239   3.967   2.122   2.684  0.1380  0.4086  0.5428
 2867SOL    HW211240   3.883   2.088   2.653  0.2824 -0.7642  1.3594
 2867SOL    HW311241   3.970   2.212   2.653 -0.9724  0.1535 -0.3632
 2867SOL    MW411242   3.956   2.129   2.676  0.0106  0.2202  0.5310
 2868SOL     OW11243   0.644   5.097   2.840  0.2057  0.2716  0.2867
 2868SOL    HW211244   0.614   5.114   2.929  0.1189  1.3988  0.0496
 2868SOL    HW311245   0.571   5.122   2.783  0.6891  0.6949 -0.1612
 2868SOL    MW411246   0.631   5.102   2.844  0.2580  0.4762  0.1964
 2869SOL     OW11247   2.482   1.355   2.172  0.5375 -0.3563  0.1781
 2869SOL    HW211248   2.469   1.436   2.221 -1.3258 -0.8212  0.5351
 2869SOL    HW311249   2.395   1.332   2.140  1.1249 -1.9194 -0.4020
 2869SOL    MW411250   2.469   1.362   2.174  0.3692 -0.6239  0.1487
 2870SOL     OW11251   3.862   4.601   5.801 -0.0164 -0.0691  0.5687
 2870SOL    HW211252   3.776   4.594   5.759 -0.3190  0.7769  1.0125
 2870SOL    HW311253   3.881   4.695   5.801 -1.2850  0.4050  4.7041
 2870SOL    MW411254   3.853   4.613   5.795 -0.2237  0.1051  1.1729
 2871SOL     OW11255   5.354   4.072   1.515  0.2710  0.3686  0.6360
 2871SOL    HW211256   5.281   4.054   1.575  1.8989 -2.3574  1.9493
 2871SOL    HW311257   5.432   4.065   1.569  1.6378  2.8193 -0.8275
 2871SOL    MW411258   5.354   4.069   1.530  0.6661  0.3323  0.6162
 2872SOL     OW11259   4.646   5.369   3.792  0.1449 -0.4140  0.3311
 2872SOL    HW211260   4.677   5.368   3.883  0.5141 -1.9744  0.2129
 2872SOL    HW311261   4.651   5.461   3.767 -0.5232  0.1494  2.0724
 2872SOL    MW411262   4.651   5.381   3.801  0.1054 -0.5455  0.5453
 2873SOL     OW11263   2.634   0.258   4.906  0.1346 -0.1053  0.1718
 2873SOL    HW211264   2.566   0.194   4.927  0.0486  0.4123  1.6065
 2873SOL    HW311265   2.586   0.337   4.883  0.2520 -0.0695  0.0489
 2873SOL    MW411266   2.618   0.260   4.906  0.1388 -0.0323  0.3449
 2874SOL     OW11267   2.418   3.589   5.255  0.2205  0.4528 -0.2547
 2874SOL    HW211268   2.456   3.676   5.266 -0.7744  1.1425 -1.8863
 2874SOL    HW311269   2.351   3.583   5.323  1.7607  0.0486  1.2903
 2874SOL    MW411270   2.414   3.600   5.265  0.2925  0.4905 -0.2661
 2875SOL     OW11271   2.374   0.983   2.379 -0.0711  0.3023 -0.1861
 2875SOL    HW211272   2.450   1.041   2.384 -0.4975  0.7906  1.1060
 2875SOL    HW311273   2.383   0.926   2.456  0.0267 -0.9711 -1.1103
 2875SOL    MW411274   2.385   0.983   2.390 -0.1145  0.1987 -0.1376
 2876SOL     OW11275   1.142   2.039   1.120 -0.3132  0.2922  0.0719
 2876SOL    HW211276   1.157   2.112   1.059  0.6803  0.7172  0.7910
 2876SOL    HW311277   1.047   2.030   1.124 -0.4759  1.7238  0.1398
 2876SOL    MW411278   1.131   2.048   1.113 -0.2036  0.5372  0.1757
 2877SOL     OW11279   5.714   5.010   1.740 -0.2857  0.7574 -0.4146
 2877SOL    HW211280   5.800   4.969   1.729 -0.8573 -0.0772 -2.0667
 2877SOL    HW311281   5.715   5.085   1.681  0.0327  1.9962  1.1195
 2877SOL    MW411282   5.725   5.014   1.731 -0.3191  0.8107 -0.4301
 2878SOL     OW11283   4.178   5.384   5.964  0.1158 -0.0020  0.0179
 2878SOL    HW211284   4.117   5.376   5.890 -2.8401  1.8628  2.0036
 2878SOL    HW311285   4.176   5.299   6.007  0.1395 -0.4372 -0.8373
 2878SOL    MW411286   4.170   5.372   5.960 -0.2710  0.1866  0.1671
 2879SOL     OW11287   5.989   0.447   0.698 -0.3279  0.2735 -0.6478
 2879SOL    HW211288   6.009   0.519   0.639 -0.8228  0.5463 -0.4811
 2879SOL    HW311289   6.067   0.391   0.695  0.1938  0.9862 -0.5112
 2879SOL    MW411290   6.002   0.449   0.690 -0.3243  0.4035 -0.6078
 2880SOL     OW11291   5.352   0.890   0.599  0.3155  0.2710 -0.4112
 2880SOL    HW211292   5.316   0.960   0.545  0.8123 -0.3946 -1.6542
 2880SOL    HW311293   5.382   0.825   0.536  3.7196  0.7724  0.4987
 2880SOL    MW411294   5.351   0.891   0.584  0.8302  0.2493 -0.4552
 2881SOL     OW11295   5.628   4.473   3.261 -0.0209 -0.7131  0.0160
 2881SOL    HW211296   5.577   4.495   3.339  1.1508 -0.9202  0.8729
 2881SOL    HW311297   5.623   4.378   3.254  0.6323 -0.7809  0.3917
 2881SOL    MW411298   5.621   4.464   3.270  0.2199 -0.7494  0.1786
 2882SOL     OW11299   2.045   4.210   2.405 -0.0996 -0.0377  0.3554
 2882SOL    HW211300   2.072   4.234   2.316 -0.5159  0.1128  0.2677
 2882SOL    HW311301   1.983   4.279   2.430 -0.9377 -0.7474  0.2832
 2882SOL    MW411302   2.040   4.222   2.396 -0.2651 -0.1115  0.3343
 2883SOL     OW11303   0.606   5.766   3.890  0.4347  0.0127  0.0406
 2883SOL    HW211304   0.520   5.789   3.926  1.2025  0.2808  1.7987
 2883SOL    HW311305   0.640   5.699   3.950  1.4508 -0.0806 -0.6235
 2883SOL    MW411306   0.599   5.760   3.903  0.6700  0.0358  0.1850
 2884SOL     OW11307   1.401   6.062   4.235  0.2269  0.2696 -0.0698
 2884SOL    HW211308   1.381   6.060   4.328  0.9500  2.5605  0.1863
 2884SOL    HW311309   1.345   6.131   4.199 -1.0118 -1.4231 -1.6506
 2884SOL    MW411310   1.391   6.071   4.242  0.1589  0.3485 -0.2446
 2885SOL     OW11311   2.448   4.276   6.066 -0.2209 -0.1251  0.0709
 2885SOL    HW211312   2.384   4.307   6.131  1.3629 -1.0303  2.2013
 2885SOL    HW311313   2.452   4.181   6.080  1.6057 -0.0835  0.0600
 2885SOL    MW411314   2.440   4.267   6.077  0.2291 -0.2390  0.3506
 2886SOL     OW11315   5.289   0.254   1.753 -0.1587 -0.2687  0.0507
 2886SOL    HW211316   5.247   0.304   1.683 -1.6213 -0.8495  0.4875
 2886SOL    HW311317   5.382   0.255   1.730 -0.0933  2.6653  0.0526
 2886SOL    MW411318   5.296   0.261   1.741 -0.3430  0.0418  0.1086
 2887SOL     OW11319   3.564   1.870   2.698  0.7042  0.3847 -1.1748
 2887SOL    HW211320   3.608   1.953   2.683  0.2791  0.8779  0.1350
 2887SOL    HW311321   3.608   1.834   2.775 -0.2754  0.2422 -0.6682
 2887SOL    MW411322   3.576   1.876   2.706  0.5188  0.4309 -0.9352
 2888SOL     OW11323   4.333   0.374   3.926 -0.2750 -0.2702  0.6643
 2888SOL    HW211324   4.303   0.286   3.903  0.0776  0.1072 -1.4382
 2888SOL    HW311325   4.415   0.385   3.878  0.1551  0.9038  1.6110
 2888SOL    MW411326   4.340   0.364   3.917 -0.1717 -0.0655  0.5118
 2889SOL     OW11327   1.253   1.310   5.966 -0.2561 -0.0237 -0.5774
 2889SOL    HW211328   1.172   1.303   5.915  0.1693 -1.5377 -1.1012
 2889SOL    HW311329   1.319   1.338   5.902  0.1709 -1.4209 -0.7808
 2889SOL    MW411330   1.251   1.313   5.951 -0.1436 -0.4078 -0.6733
 2890SOL     OW11331   2.333   1.881   1.704 -0.0275 -0.4139  0.0989
 2890SOL    HW211332   2.325   1.823   1.779 -0.5612 -0.5788 -0.0791
 2890SOL    HW311333   2.287   1.836   1.633  1.6492 -0.9253 -0.7287
 2890SOL    MW411334   2.326   1.868   1.704  0.1233 -0.5031 -0.0337
 2891SOL     OW11335   5.879   4.833   6.186 -0.1526 -0.3804 -0.0795
 2891SOL    HW211336   5.865   4.746   6.148 -0.3315 -0.5999  0.4653
 2891SOL    HW311337   5.878   4.893   6.112 -0.5378 -0.7923 -0.4129
 2891SOL    MW411338   5.877   4.829   6.171 -0.2270 -0.4637 -0.0516
 2892SOL     OW11339   1.189   4.107   4.710 -0.0110 -0.2405  0.1137
 2892SOL    HW211340   1.119   4.136   4.768  0.8379  0.2869  0.9005
 2892SOL    HW311341   1.256   4.175   4.717 -0.0487  0.0480 -1.7978
 2892SOL    MW411342   1.189   4.120   4.718  0.0961 -0.1329 -0.0347
 2893SOL     OW11343   2.156   1.645   0.510 -0.2921  0.0564  0.0435
 2893SOL    HW211344   2.111   1.632   0.426  0.3757  0.6016 -0.4111
 2893SOL    HW311345   2.085   1.666   0.572 -0.9622 -1.9066 -0.0111
 2893SOL    MW411346   2.140   1.646   0.507 -0.2924 -0.1307 -0.0237
 2894SOL     OW11347   6.336   0.833   2.651  0.3560 -0.9659  0.2512
 2894SOL    HW211348   6.401   0.763   2.654  0.0315 -1.3011  3.3804
 2894SOL    HW311349   6.377   0.905   2.699 -1.3196 -1.0406  1.9166
 2894SOL    MW411350   6.350   0.833   2.658  0.0921 -1.0200  0.8838
 2895SOL     OW11351   3.485   0.878   4.593  0.0786  0.1818 -0.6018
 2895SOL    HW211352   3.460   0.940   4.524 -1.4036 -0.6311 -0.8536
 2895SOL    HW311353   3.450   0.794   4.562  0.7602 -0.4881  0.4154
 2895SOL    MW411354   3.477   0.875   4.580 -0.0270 -0.0138 -0.5008
 2896SOL     OW11355   4.339   3.571   3.598 -0.0571 -0.0603 -0.0784
 2896SOL    HW211356   4.333   3.476   3.590 -0.9619  0.1150 -1.8490
 2896SOL    HW311357   4.373   3.600   3.514 -1.1780  1.3018 -0.0879
 2896SOL    MW411358   4.343   3.562   3.586 -0.3244  0.1425 -0.3133
 2897SOL     OW11359   2.042   0.069   5.443  0.5334 -0.3009  0.6946
 2897SOL    HW211360   1.966   0.086   5.499  1.5736  0.6582  1.8790
 2897SOL    HW311361   2.113   0.051   5.504  1.5689  0.1208 -0.3515
 2897SOL    MW411362   2.041   0.069   5.458  0.8072 -0.1187  0.7129
 2898SOL     OW11363   5.277   0.250   5.602  0.2239  0.1570  0.2167
 2898SOL    HW211364   5.278   0.248   5.506  0.2015  0.2081  0.2152
 2898SOL    HW311365   5.220   0.324   5.623  2.0610  1.6340  0.2607
 2898SOL    MW411366   5.269   0.259   5.592  0.4633  0.3586  0.2223
 2899SOL     OW11367   0.654   5.380   3.803  0.2870  0.3569  0.0587
 2899SOL    HW211368   0.659   5.299   3.753 -2.0915  0.7184 -0.9083
 2899SOL    HW311369   0.626   5.353   3.890 -1.0826  0.1462 -0.4267
 2899SOL    MW411370   0.651   5.366   3.808 -0.2075  0.3768 -0.1330
 2900SOL     OW11371   2.194   6.042   6.230  0.7811  0.5320  0.2863
 2900SOL    HW211372   2.126   6.021   6.166  0.8418  2.0042 -0.3139
 2900SOL    HW311373   2.254   6.100   6.182  1.7826  0.2672  1.1766
 2900SOL    MW411374   2.193   6.047   6.215  0.9212  0.6913  0.3246
 2901SOL     OW11375   2.210   5.240   1.822  0.0517  0.0235 -0.3533
 2901SOL    HW211376   2.284   5.219   1.879  0.1010 -0.6964 -0.6815
 2901SOL    HW311377   2.233   5.326   1.785  0.0880  0.4275  0.5742
 2901SOL    MW411378   2.223   5.249   1.825  0.0630 -0.0182 -0.2742
 2902SOL     OW11379   3.997   2.059   1.436 -0.5908 -0.0843 -0.1778
 2902SOL    HW211380   4.013   2.130   1.374 -0.6988  0.1514  0.0592
 2902SOL    HW311381   4.044   1.984   1.400  0.2292  0.3305  0.0116
 2902SOL    MW411382   4.005   2.058   1.423 -0.4969  0.0015 -0.1216
 2903SOL     OW11383   0.487   3.192   3.108  0.8368  0.0266 -0.0520
 2903SOL    HW211384   0.459   3.280   3.130  0.1661 -0.3321  0.5769
 2903SOL    HW311385   0.539   3.202   3.028 -0.9343  0.7740 -1.1722
 2903SOL    MW411386   0.490   3.205   3.100  0.5146  0.0779 -0.1168
 2904SOL     OW11387   1.668   4.907   4.476 -0.0157  0.9007 -0.0103
 2904SOL    HW211388   1.679   4.928   4.383  0.3376  1.0959  0.0730
 2904SOL    HW311389   1.680   4.990   4.521  0.3027  0.7182  0.2455
 2904SOL    MW411390   1.671   4.920   4.469  0.0729  0.9024  0.0345
 2905SOL     OW11391   4.970   1.430   0.149 -0.7697 -0.1108  0.2226
 2905SOL    HW211392   4.952   1.426   0.055  1.1463  1.1790 -0.2664
 2905SOL    HW311393   5.041   1.494   0.157 -1.4208  0.4034  2.6426
 2905SOL    MW411394   4.977   1.438   0.137 -0.6028  0.1272  0.4774
 2906SOL     OW11395   3.974   0.029   6.270 -0.7915 -0.2535  0.4847
 2906SOL    HW211396   4.013   0.020   6.183  0.4069 -0.4115  1.0264
 2906SOL    HW311397   3.921   0.109   6.264  1.5032  1.3378  0.4193
 2906SOL    MW411398   3.972   0.038   6.258 -0.3306 -0.0644  0.5475
 2907SOL     OW11399   5.648   2.403   4.516  0.4853  0.4038  0.0499
 2907SOL    HW211400   5.741   2.396   4.539  0.5467  2.0551  0.4290
 2907SOL    HW311401   5.631   2.497   4.515 -1.2963  0.1099  0.3760
 2907SOL    MW411402   5.658   2.415   4.519  0.2583  0.5829  0.1430
 2908SOL     OW11403   6.313   6.406   5.600 -0.1372 -0.3237 -0.3466
 2908SOL    HW211404   6.240   6.448   5.645  0.1156 -0.9266  0.6663
 2908SOL    HW311405   6.285   6.315   5.588  0.9508 -0.9332  1.3216
 2908SOL    MW411406   6.299   6.400   5.605  0.0397 -0.4837  0.0071
 2909SOL     OW11407   3.243   2.311   2.404 -0.0571 -0.0866 -0.6186
 2909SOL    HW211408   3.226   2.236   2.348 -0.1406 -2.0683  1.8731
 2909SOL    HW311409   3.337   2.309   2.420 -0.2581 -0.6666  0.6672
 2909SOL    MW411410   3.253   2.301   2.399 -0.0947 -0.4246 -0.1202
 2910SOL     OW11411   3.827   3.717   2.041  0.2255 -0.3311 -0.1832
 2910SOL    HW211412   3.822   3.623   2.025 -1.2586 -0.0995 -1.3479
 2910SOL    HW311413   3.879   3.751   1.969 -1.8922  0.0658 -1.6211
 2910SOL    MW411414   3.833   3.709   2.029 -0.2497 -0.2482 -0.5265
 2911SOL     OW11415   1.267   0.449   0.030 -0.3394  0.0603  0.3379
 2911SOL    HW211416   1.223   0.493  -0.042 -0.7632  0.5604  0.8905
 2911SOL    HW311417   1.279   0.517   0.096  2.0365  0.1609 -0.1023
 2911SOL    MW411418   1.263   0.464   0.029 -0.0819  0.1395  0.3527
 2912SOL     OW11419   2.183   5.122   4.957  0.4744  1.0161 -0.1118
 2912SOL    HW211420   2.262   5.073   4.933 -0.3446 -1.0536  1.2128
 2912SOL    HW311421   2.119   5.099   4.891  0.8711  2.5972 -1.1116
 2912SOL    MW411422   2.185   5.113   4.945  0.4187  0.9516 -0.0689
 2913SOL     OW11423   2.239   3.892   1.808  0.0447 -0.3236  0.6284
 2913SOL    HW211424   2.319   3.939   1.833 -0.4024  0.2566  0.9950
 2913SOL    HW311425   2.171   3.931   1.862 -0.5003 -0.7860  0.2835
 2913SOL    MW411426   2.241   3.903   1.819 -0.0862 -0.3081  0.6313
 2914SOL     OW11427   1.340   3.039   6.389 -0.0361 -0.0581  0.6635
 2914SOL    HW211428   1.355   3.011   6.299 -2.1725  1.1053 -0.1214
 2914SOL    HW311429   1.403   3.109   6.404  0.3352 -0.2686  0.1076
 2914SOL    MW411430   1.350   3.044   6.379 -0.2689  0.0676  0.4866
 2915SOL     OW11431   0.514   6.124   2.041  0.0972 -0.3548  0.1012
 2915SOL    HW211432   0.428   6.117   1.998  0.1326 -0.9895  0.1240
 2915SOL    HW311433   0.576   6.130   1.969  0.1005 -0.7502  0.0671
 2915SOL    MW411434   0.511   6.124   2.026  0.1023 -0.4907  0.0997
 2916SOL     OW11435   2.115   5.737   2.442 -0.1073  0.5050  0.6725
 2916SOL    HW211436   2.202   5.703   2.467 -0.8775 -1.9045  0.3420
 2916SOL    HW311437   2.065   5.659   2.418 -1.2456  2.1209 -2.8009
 2916SOL    MW411438   2.120   5.722   2.442 -0.3591  0.4003  0.1706
 2917SOL     OW11439   4.198   3.627   5.582 -0.7257 -0.0318 -0.3235
 2917SOL    HW211440   4.131   3.570   5.543 -0.6409 -0.1821 -0.2520
 2917SOL    HW311441   4.280   3.579   5.570 -0.3324  1.0262 -2.1433
 2917SOL    MW411442   4.200   3.613   5.576 -0.6626  0.0879 -0.5542
 2918SOL     OW11443   5.021   3.495   5.615  0.1471  0.1974  0.1067
 2918SOL    HW211444   5.082   3.568   5.608  0.1729  0.1397 -0.2585
 2918SOL    HW311445   5.042   3.439   5.541 -1.2930  0.8889 -0.8613
 2918SOL    MW411446   5.032   3.497   5.605 -0.0395  0.2810 -0.0692
 2919SOL     OW11447   6.268   3.029   2.625  0.1476 -0.5111  0.2509
 2919SOL    HW211448   6.265   3.103   2.564  2.8200 -2.1887 -2.1345
 2919SOL    HW311449   6.339   3.050   2.685  1.7015 -1.5474 -1.1502
 2919SOL    MW411450   6.277   3.042   2.625  0.7052 -0.8692 -0.2487
 2920SOL     OW11451   0.443   0.267   2.976  0.4131  0.2966  0.3143
 2920SOL    HW211452   0.353   0.273   2.942  1.0338  0.0673 -1.4980
 2920SOL    HW311453   0.436   0.294   3.067 -1.5046  0.2463  0.2288
 2920SOL    MW411454   0.430   0.271   2.983  0.2420  0.2597  0.0639
 2921SOL     OW11455   3.976   2.251   3.364  0.1068 -0.2313  0.1489
 2921SOL    HW211456   3.985   2.346   3.360  0.4146 -0.2325  0.6510
 2921SOL    HW311457   4.066   2.220   3.372 -0.0541 -0.4964  1.0981
 2921SOL    MW411458   3.989   2.260   3.365  0.1261 -0.2665  0.3404
 2922SOL     OW11459   2.292   1.365   1.255 -0.7886  0.5086 -0.2299
 2922SOL    HW211460   2.226   1.296   1.247 -1.2625  1.0919 -1.6054
 2922SOL    HW311461   2.243   1.446   1.240  0.1718  0.9706 -0.9320
 2922SOL    MW411462   2.277   1.367   1.252 -0.7244  0.6465 -0.5040
 2923SOL     OW11463   5.495   3.698   3.055 -0.1070  0.1205  0.2931
 2923SOL    HW211464   5.543   3.720   2.975  0.8049 -0.5029  0.6539
 2923SOL    HW311465   5.404   3.687   3.025 -0.4824  3.2865 -0.0653
 2923SOL    MW411466   5.489   3.699   3.040 -0.0362  0.4559  0.2934
 2924SOL     OW11467   3.816   5.540   3.639 -0.0402 -0.3089 -1.0150
 2924SOL    HW211468   3.853   5.457   3.611 -0.4759 -0.8748  0.0339
 2924SOL    HW311469   3.775   5.521   3.723  1.4893  1.3831  0.1776
 2924SOL    MW411470   3.815   5.527   3.646  0.1041 -0.1603 -0.7192
 2925SOL     OW11471   0.147   6.366   6.236  0.0596 -0.1451  0.2573
 2925SOL    HW211472   0.087   6.411   6.176  0.6936  1.8447  1.0073
 2925SOL    HW311473   0.105   6.282   6.254 -1.1263  0.0506 -1.3689
 2925SOL    MW411474   0.134   6.361   6.230 -0.0132  0.1432  0.1417
 2926SOL     OW11475   0.692   4.236   0.301  0.1170  0.2396 -0.1077
 2926SOL    HW211476   0.623   4.301   0.284  0.1791  0.4380  0.4003
 2926SOL    HW311477   0.767   4.288   0.330 -0.2061 -0.1525  1.4759
 2926SOL    MW411478   0.693   4.252   0.302  0.0826  0.2141  0.1683
 2927SOL     OW11479   0.185   1.154   5.607  0.7487 -0.0962 -0.4176
 2927SOL    HW211480   0.274   1.146   5.571  1.3258  0.1967  0.8759
 2927SOL    HW311481   0.199   1.187   5.696 -0.7219  1.1101 -0.5926
 2927SOL    MW411482   0.199   1.158   5.614  0.6308  0.1016 -0.2701
 2928SOL     OW11483   3.192   4.385   2.494  0.5625 -0.3651  0.1663
 2928SOL    HW211484   3.109   4.377   2.446  0.1621  2.4482  0.1732
 2928SOL    HW311485   3.256   4.406   2.426  1.4140 -2.8539  0.1212
 2928SOL    MW411486   3.189   4.387   2.478  0.6220 -0.3223  0.1613
 2929SOL     OW11487   0.222   3.088   1.787 -0.0306 -0.0141  1.2079
 2929SOL    HW211488   0.160   3.020   1.814 -2.6026  1.6940  0.0044
 2929SOL    HW311489   0.214   3.092   1.692  0.7295  1.3512  1.1708
 2929SOL    MW411490   0.213   3.080   1.778 -0.2697  0.3914  1.0442
 2930SOL     OW11491   3.299   2.786   3.851 -0.0903 -0.1822  0.3462
 2930SOL    HW211492   3.255   2.871   3.858  2.8505  1.3961  1.2787
 2930SOL    HW311493   3.370   2.801   3.789  1.3373 -1.5364  1.5567
 2930SOL    MW411494   3.302   2.799   3.844  0.4860 -0.1527  0.6290
 2931SOL     OW11495   1.492   5.319   4.118  0.2432 -0.7130 -0.7416
 2931SOL    HW211496   1.401   5.315   4.146  0.5422 -1.1476  0.1949
 2931SOL    HW311497   1.541   5.272   4.186  1.4425  1.4492 -0.0155
 2931SOL    MW411498   1.486   5.312   4.130  0.4409 -0.4851 -0.5222
 2932SOL     OW11499   3.138   1.939   1.130  0.3553 -0.2210  0.2745
 2932SOL    HW211500   3.142   2.033   1.116  1.8233 -0.3450 -0.3866
 2932SOL    HW311501   3.046   1.916   1.117 -0.0194  1.1093  0.4577
 2932SOL    MW411502   3.126   1.948   1.127  0.4995 -0.0618  0.2114
 2933SOL     OW11503   4.309   2.115   5.248  0.5075 -0.2067 -0.1870
 2933SOL    HW211504   4.242   2.167   5.294 -0.0392 -1.5727  0.6281
 2933SOL    HW311505   4.329   2.044   5.308  1.1237 -1.0302 -1.3359
 2933SOL    MW411506   4.303   2.113   5.262  0.5167 -0.4956 -0.2311
 2934SOL     OW11507   3.230   0.359   3.677 -0.4536  1.1800  0.5198
 2934SOL    HW211508   3.257   0.292   3.740 -0.3141  2.3170  1.7222
 2934SOL    HW311509   3.312   0.384   3.633 -0.6244  0.0331 -0.5299
 2934SOL    MW411510   3.245   0.353   3.679 -0.4577  1.1787  0.5399
 2935SOL     OW11511   4.502   2.184   5.935 -0.0382  0.2940  0.5050
 2935SOL    HW211512   4.549   2.119   5.988 -0.7142 -0.6895 -0.0851
 2935SOL    HW311513   4.445   2.229   5.997  0.0580 -0.0241  0.8255
 2935SOL    MW411514   4.501   2.182   5.950 -0.1147  0.1223  0.4694
 2936SOL     OW11515   2.437   4.095   5.224  0.3979  0.2051  0.4419
 2936SOL    HW211516   2.468   4.128   5.139  0.9051 -0.8436  0.1991
 2936SOL    HW311517   2.495   4.020   5.242  0.4656  0.5795  1.8395
 2936SOL    MW411518   2.449   4.089   5.215  0.4737  0.1162  0.5943
 2937SOL     OW11519   2.675   2.063   4.195  0.2380 -0.1667  0.2909
 2937SOL    HW211520   2.604   2.122   4.219 -1.7497 -1.8567 -1.1317
 2937SOL    HW311521   2.705   2.094   4.109  0.2741 -0.2741  0.2641
 2937SOL    MW411522   2.670   2.075   4.187 -0.0195 -0.4039  0.0997
 2938SOL     OW11523   5.815   0.089   5.037  0.5723 -0.1116  0.0919
 2938SOL    HW211524   5.829   0.168   5.089  0.8120 -0.8777  1.2461
 2938SOL    HW311525   5.769   0.119   4.959  0.7128  1.1669  0.4768
 2938SOL    MW411526   5.811   0.103   5.034  0.6224 -0.0440  0.2950
 2939SOL     OW11527   3.917   5.295   2.211 -0.1410  0.1282 -0.3031
 2939SOL    HW211528   3.915   5.211   2.258  0.9076 -0.6932 -1.6747
 2939SOL    HW311529   3.988   5.344   2.252 -0.5592  0.2581  0.2966
 2939SOL    MW411530   3.926   5.290   2.223 -0.0578  0.0370 -0.4049
 2940SOL     OW11531   3.253   2.635   3.160 -0.5729 -0.2093  0.2977
 2940SOL    HW211532   3.329   2.599   3.115 -1.0637 -0.7650 -0.0965
 2940SOL    HW311533   3.273   2.728   3.170  0.4843 -0.4920  0.8751
 2940SOL    MW411534   3.266   2.643   3.155 -0.4982 -0.3199  0.3219
 2941SOL     OW11535   5.001   4.263   1.760 -0.1925 -0.6552 -0.6182
 2941SOL    HW211536   5.032   4.177   1.788  1.5129  0.2358  0.3866
 2941SOL    HW311537   5.080   4.311   1.737 -0.6034  1.9314  2.5984
 2941SOL    MW411538   5.016   4.258   1.761 -0.0217 -0.1964 -0.0613
 2942SOL     OW11539   6.199   4.898   6.025  0.8674  0.1653  0.3144
 2942SOL    HW211540   6.124   4.940   6.066  1.4982 -0.3246  2.0463
 2942SOL    HW311541   6.185   4.804   6.036  1.3566  0.0446 -0.0241
 2942SOL    MW411542   6.187   4.891   6.032  1.0152  0.0848  0.4982
 2943SOL     OW11543   4.976   0.858   5.165  0.8748  0.1629 -0.2391
 2943SOL    HW211544   4.928   0.908   5.231  0.2746  0.8501 -1.1775
 2943SOL    HW311545   4.971   0.767   5.195  1.2239  0.5349  1.0265
 2943SOL    MW411546   4.969   0.853   5.178  0.8417  0.3027 -0.1959
 2944SOL     OW11547   3.819   4.293   5.772  0.2447  0.0853 -0.0497
 2944SOL    HW211548   3.910   4.301   5.801  0.6132 -1.0559 -0.8115
 2944SOL    HW311549   3.807   4.367   5.712  0.6409  0.3061  0.1362
 2944SOL    MW411550   3.830   4.304   5.768  0.3456 -0.0361 -0.1257
 2945SOL     OW11551   0.156   5.545   2.167 -0.2733  0.4753  0.3946
 2945SOL    HW211552   0.203   5.465   2.189  1.3833  0.7788 -1.6897
 2945SOL    HW311553   0.178   5.606   2.237  0.3963 -0.1748  0.7638
 2945SOL    MW411554   0.165   5.543   2.179  0.0336  0.4295  0.1683
 2946SOL     OW11555   2.426   4.580   2.647  0.5699  0.2895  0.8416
 2946SOL    HW211556   2.504   4.623   2.681  0.0292  3.3228 -1.3116
 2946SOL    HW311557   2.354   4.618   2.697  0.2061  0.3972  0.2402
 2946SOL    MW411558   2.427   4.590   2.658  0.4506  0.7039  0.4781
 2947SOL     OW11559   4.772   2.770   3.005  0.4423 -0.5489  0.2871
 2947SOL    HW211560   4.806   2.693   2.961  2.0315 -1.2165  2.4870
 2947SOL    HW311561   4.846   2.831   3.008 -1.0820  1.6953 -2.4569
 2947SOL    MW411562   4.786   2.768   3.000  0.4509 -0.3409  0.2153
 2948SOL     OW11563   1.873   5.607   2.064  0.3630  0.2875  0.1166
 2948SOL    HW211564   1.821   5.609   1.984  1.0802  0.0254 -0.3592
 2948SOL    HW311565   1.903   5.697   2.076  0.4159  0.2855 -0.0090
 2948SOL    MW411566   1.870   5.620   2.055  0.4646  0.2526  0.0373
 2949SOL     OW11567   4.079   3.231   2.932 -0.6223 -0.7347  0.4490
 2949SOL    HW211568   4.132   3.262   2.858 -1.8648 -1.0131 -0.5875
 2949SOL    HW311569   4.144   3.199   2.995  0.4683 -0.6537 -0.5843
 2949SOL    MW411570   4.095   3.231   2.931 -0.6423 -0.7607  0.1759
 2950SOL     OW11571   3.662   5.693   3.477 -0.2511  0.0364 -0.4177
 2950SOL    HW211572   3.701   5.648   3.551 -1.5399 -1.8426 -0.8202
 2950SOL    HW311573   3.616   5.625   3.428 -2.2813  1.7603 -1.0804
 2950SOL    MW411574   3.661   5.678   3.480 -0.6890  0.0159 -0.5582
 2951SOL     OW11575   2.674   4.501   3.519  0.2482 -0.1011  0.3353
 2951SOL    HW211576   2.715   4.571   3.570  2.6362 -1.6773  0.7756
 2951SOL    HW311577   2.614   4.459   3.580  0.3739  0.2833  0.7307
 2951SOL    MW411578   2.672   4.505   3.534  0.5799 -0.2583  0.4456
 2952SOL     OW11579   4.893   6.179   4.805  0.3350 -0.6316  0.0520
 2952SOL    HW211580   4.886   6.139   4.718  2.6865 -1.6795  0.2730
 2952SOL    HW311581   4.875   6.272   4.791 -0.8927 -1.0416 -1.2553
 2952SOL    MW411582   4.890   6.186   4.792  0.4833 -0.8239 -0.0913
 2953SOL     OW11583   2.241   4.360   0.710 -0.1239 -0.3846  0.4470
 2953SOL    HW211584   2.322   4.339   0.663 -0.4147  1.9315 -1.3066
 2953SOL    HW311585   2.176   4.299   0.676  0.7794 -2.2277  1.8267
 2953SOL    MW411586   2.243   4.350   0.699 -0.0431 -0.3222  0.3977
 2954SOL     OW11587   1.913   5.549   3.066  0.0250 -0.5907 -0.0393
 2954SOL    HW211588   1.926   5.455   3.063 -0.4707 -0.6557 -0.1708
 2954SOL    HW311589   1.841   5.562   3.128  0.4648 -0.2580  0.4191
 2954SOL    MW411590   1.905   5.539   3.074  0.0176 -0.5554  0.0038
 2955SOL     OW11591   5.068   2.618   4.025 -0.0684 -0.2186 -0.2531
 2955SOL    HW211592   5.050   2.540   3.973 -1.3117  0.3274 -0.6868
 2955SOL    HW311593   5.064   2.690   3.962 -0.4960  0.3401  0.3936
 2955SOL    MW411594   5.065   2.617   4.010 -0.2889 -0.0728 -0.2250
 2956SOL     OW11595   0.340   4.431   4.212 -0.0803 -0.2341  0.2166
 2956SOL    HW211596   0.407   4.492   4.182 -0.1112 -0.5948 -0.6231
 2956SOL    HW311597   0.274   4.486   4.254 -0.3003  0.3758 -0.8780
 2956SOL    MW411598   0.340   4.446   4.213 -0.1134 -0.2012 -0.0386
 2957SOL     OW11599   5.937   5.762   2.856  0.2655 -0.3759  0.3510
 2957SOL    HW211600   5.925   5.793   2.766  0.5571 -0.3423  0.3222
 2957SOL    HW311601   5.986   5.831   2.899  1.5419 -1.0863  0.0939
 2957SOL    MW411602   5.942   5.775   2.850  0.4724 -0.4652  0.3133
 2958SOL     OW11603   4.001   5.514   0.481  0.4426  0.3143 -0.5419
 2958SOL    HW211604   4.088   5.555   0.489  0.9449 -0.8799  0.4333
 2958SOL    HW311605   3.991   5.499   0.387  1.3686  0.3389 -0.6616
 2958SOL    MW411606   4.011   5.517   0.470  0.6311  0.1600 -0.4290
 2959SOL     OW11607   0.758   4.580   4.825  0.2103  0.2101 -0.2878
 2959SOL    HW211608   0.727   4.642   4.760 -0.9543 -1.1645 -1.1047
 2959SOL    HW311609   0.768   4.498   4.777 -0.7227 -0.8545  1.2486
 2959SOL    MW411610   0.755   4.577   4.810 -0.0665 -0.1117 -0.1929
 2960SOL     OW11611   3.625   1.859   5.697 -0.0777 -0.1098  0.9273
 2960SOL    HW211612   3.594   1.910   5.622  0.5380 -1.1577 -0.0680
 2960SOL    HW311613   3.545   1.821   5.734 -0.4049  0.5236  0.8875
 2960SOL    MW411614   3.610   1.861   5.692 -0.0397 -0.1645  0.7908
 2961SOL     OW11615   2.901   2.322   0.715 -0.5185  0.0673 -0.2976
 2961SOL    HW211616   2.820   2.274   0.697 -0.3385  0.1075 -1.2773
 2961SOL    HW311617   2.874   2.398   0.766 -0.9582 -0.4632  0.2735
 2961SOL    MW411618   2.887   2.326   0.720 -0.5527  0.0026 -0.3515
 2962SOL     OW11619   3.874   1.514   5.898 -0.0930  0.6390 -0.5749
 2962SOL    HW211620   3.896   1.458   5.823  0.4991  0.9271 -0.6232
 2962SOL    HW311621   3.781   1.532   5.888 -0.3504 -0.5559 -0.4100
 2962SOL    MW411622   3.865   1.509   5.887 -0.0489  0.5194 -0.5595
 2963SOL     OW11623   0.843   3.894   0.446  0.7656 -0.3628 -0.0202
 2963SOL    HW211624   0.784   3.821   0.427  2.6592 -2.1105  0.4783
 2963SOL    HW311625   0.789   3.957   0.494 -1.4946 -0.3719 -2.3621
 2963SOL    MW411626   0.828   3.892   0.450  0.7172 -0.5946 -0.2634
 2964SOL     OW11627   4.563   1.751   6.010  0.2720 -0.1591 -0.1463
 2964SOL    HW211628   4.497   1.767   6.078 -0.0348  0.1368 -0.5136
 2964SOL    HW311629   4.646   1.754   6.057 -0.0237 -1.6496  0.5269
 2964SOL    MW411630   4.565   1.753   6.025  0.1925 -0.3167 -0.1060
 2965SOL     OW11631   0.208   6.363   0.202  0.0307 -0.0701 -0.4589
 2965SOL    HW211632   0.283   6.408   0.241  0.8901 -0.5779 -1.4676
 2965SOL    HW311633   0.245   6.316   0.127 -0.5954 -3.2714  1.0684
 2965SOL    MW411634   0.223   6.363   0.198  0.0615 -0.5594 -0.3905
 2966SOL     OW11635   1.672   5.541   0.678  0.1019 -0.4531  0.7060
 2966SOL    HW211636   1.753   5.515   0.723  0.1778 -0.2864  0.6671
 2966SOL    HW311637   1.624   5.459   0.665  0.2807 -0.5569  0.6986
 2966SOL    MW411638   1.676   5.527   0.682  0.1355 -0.4448  0.6999
 2967SOL     OW11639   0.752   2.831   1.331 -0.1294 -0.5243 -0.5202
 2967SOL    HW211640   0.714   2.804   1.414 -0.0345  0.6245 -0.0894
 2967SOL    HW311641   0.841   2.858   1.352  0.9653 -2.9981 -1.4903
 2967SOL    MW411642   0.759   2.831   1.345  0.0276 -0.6991 -0.5913
 2968SOL     OW11643   5.522   5.917   4.707  0.2980 -0.1136 -0.5480
 2968SOL    HW211644   5.483   5.891   4.623  1.6154  0.3553 -1.3435
 2968SOL    HW311645   5.609   5.878   4.706 -0.1899 -1.4103  1.3333
 2968SOL    MW411646   5.528   5.908   4.695  0.4074 -0.2228 -0.4047
 2969SOL     OW11647   3.992   6.183   0.445 -0.3897 -0.1321 -0.2636
 2969SOL    HW211648   3.963   6.140   0.364 -0.8141 -0.8238  0.2481
 2969SOL    HW311649   3.911   6.198   0.494 -0.2457  1.2295 -0.4066
 2969SOL    MW411650   3.977   6.179   0.441 -0.4267 -0.0437 -0.2150
 2970SOL     OW11651   0.452   1.047   2.138 -0.0891 -0.2025  0.1229
 2970SOL    HW211652   0.469   1.139   2.157 -0.8515 -0.5441  2.9302
 2970SOL    HW311653   0.360   1.044   2.112  0.2466 -0.0602 -1.1306
 2970SOL    MW411654   0.442   1.059   2.137 -0.1454 -0.2288  0.3279
 2971SOL     OW11655   2.022   5.855   6.051  0.0442 -0.1302  0.2309
 2971SOL    HW211656   2.049   5.780   6.103 -1.3136 -0.5201  0.4096
 2971SOL    HW311657   2.087   5.861   5.981  0.3526 -1.2741  0.4087
 2971SOL    MW411658   2.034   5.846   6.049 -0.0943 -0.3326  0.2779
 2972SOL     OW11659   0.245   3.834   5.589  0.5552 -0.3574  0.3807
 2972SOL    HW211660   0.265   3.785   5.669  1.0487 -0.7785  0.0054
 2972SOL    HW311661   0.311   3.805   5.526  0.4596  0.3180 -0.0429
 2972SOL    MW411662   0.257   3.824   5.591  0.6077 -0.3238  0.2753
 2973SOL     OW11663   1.657   6.154   4.153  0.4272 -0.3286 -0.3260
 2973SOL    HW211664   1.702   6.071   4.167 -1.0976 -1.2131 -0.4624
 2973SOL    HW311665   1.566   6.137   4.179  0.1141  1.3456 -0.1875
 2973SOL    MW411666   1.651   6.141   4.159  0.1847 -0.2244 -0.3257
 2974SOL     OW11667   2.612   3.374   5.257  0.6801 -0.0008 -0.3060
 2974SOL    HW211668   2.540   3.325   5.298  1.0478  0.0802  0.4620
 2974SOL    HW311669   2.576   3.462   5.244  0.3800 -0.1730 -0.6777
 2974SOL    MW411670   2.598   3.379   5.261  0.6890 -0.0128 -0.2537
 2975SOL     OW11671   0.264   6.105   5.871 -0.0638 -0.0366 -0.4272
 2975SOL    HW211672   0.174   6.073   5.867  0.4664 -2.0068  1.3415
 2975SOL    HW311673   0.257   6.195   5.902 -1.4002 -0.6014  1.0203
 2975SOL    MW411674   0.251   6.112   5.875 -0.1702 -0.3711 -0.0028
 2976SOL     OW11675   3.012   3.592   1.328  0.2438  0.3205 -0.0511
 2976SOL    HW211676   3.014   3.590   1.232  1.1008 -1.5775 -0.0414
 2976SOL    HW311677   3.094   3.636   1.353  0.3813  0.1417 -0.1865
 2976SOL    MW411678   3.023   3.598   1.319  0.3750  0.0465 -0.0677
 2977SOL     OW11679   2.360   3.658   4.994  0.7499  0.3550  0.5370
 2977SOL    HW211680   2.348   3.587   4.931  1.2692  1.2153 -0.5660
 2977SOL    HW311681   2.396   3.615   5.072  1.2480 -0.5625 -0.1818
 2977SOL    MW411682   2.363   3.643   4.996  0.8842  0.3475  0.2966
 2978SOL     OW11683   5.742   2.518   3.936 -0.4542  0.5797 -0.1875
 2978SOL    HW211684   5.736   2.423   3.942 -2.0772  0.7098  1.0583
 2978SOL    HW311685   5.694   2.541   3.857  2.5120  0.2571 -2.2781
 2978SOL    MW411686   5.735   2.508   3.926 -0.2770  0.5543 -0.2990
 2979SOL     OW11687   2.592   0.048   5.192  0.0183  0.1258 -0.2014
 2979SOL    HW211688   2.685   0.032   5.211  0.1452  0.2494 -0.6988
 2979SOL    HW311689   2.546   0.014   5.269  0.5224  0.7670  0.4096
 2979SOL    MW411690   2.598   0.041   5.205  0.1016  0.2267 -0.1864
 2980SOL     OW11691   0.743   0.494   1.727  0.2877 -0.4177  0.6082
 2980SOL    HW211692   0.690   0.447   1.663  0.2941 -1.0566  1.0693
 2980SOL    HW311693   0.699   0.578   1.738  0.5026 -0.1399 -0.5328
 2980SOL    MW411694   0.731   0.499   1.720  0.3169 -0.4653  0.5185
 2981SOL     OW11695   6.384   0.570   0.916  0.1782  0.1717 -0.8237
 2981SOL    HW211696   6.393   0.636   0.985  2.6449  0.9865 -1.8164
 2981SOL    HW311697   6.464   0.518   0.922 -0.5325 -1.0726 -1.7479
 2981SOL    MW411698   6.396   0.572   0.926  0.4099  0.1150 -1.0766
 2982SOL     OW11699   4.015   1.462   0.920  0.3628  0.0527 -0.2199
 2982SOL    HW211700   3.961   1.384   0.910  0.8320 -0.4308  0.8669
 2982SOL    HW311701   4.105   1.428   0.919  0.7841  0.9618 -3.3025
 2982SOL    MW411702   4.020   1.447   0.919  0.4803  0.1088 -0.4832
 2983SOL     OW11703   0.622   1.625   2.959 -0.0213  0.0861 -0.3315
 2983SOL    HW211704   0.711   1.655   2.942  0.3567 -1.2162 -0.7838
 2983SOL    HW311705   0.574   1.704   2.980  1.5288  0.6747  1.2149
 2983SOL    MW411706   0.628   1.639   2.959  0.2331 -0.0081 -0.1872
 2984SOL     OW11707   0.547   1.603   5.630  0.3575 -0.1361  0.0782
 2984SOL    HW211708   0.496   1.659   5.689 -1.1785 -1.1293 -0.2524
 2984SOL    HW311709   0.541   1.647   5.545 -1.0488 -0.8751 -0.2337
 2984SOL    MW411710   0.539   1.616   5.627 -0.0307 -0.3647 -0.0066
 2985SOL     OW11711   1.784   5.519   5.136  0.1099  0.0257 -0.4713
 2985SOL    HW211712   1.873   5.485   5.131  0.1988  0.0722  0.5794
 2985SOL    HW311713   1.730   5.443   5.155  0.0752  0.1742  0.0356
 2985SOL    MW411714   1.789   5.505   5.138  0.1171  0.0514 -0.2658
 2986SOL     OW11715   3.717   2.738   0.439 -0.0112  0.0520  0.6277
 2986SOL    HW211716   3.797   2.722   0.390  0.6356  0.0078  1.6635
 2986SOL    HW311717   3.660   2.786   0.378  0.1228 -1.3790 -0.6922
 2986SOL    MW411718   3.720   2.743   0.425  0.0918 -0.1426  0.5902
 2987SOL     OW11719   1.951   2.917   1.227  0.2718  0.0947  0.1819
 2987SOL    HW211720   1.962   2.832   1.185 -0.6286  0.0182  0.0734
 2987SOL    HW311721   2.026   2.968   1.198  0.0811 -0.2123 -0.8911
 2987SOL    MW411722   1.962   2.913   1.218  0.1279  0.0441  0.0261
 2988SOL     OW11723   0.226   4.354   3.160  0.5272  0.4351 -0.3385
 2988SOL    HW211724   0.310   4.393   3.184  0.7380 -1.6369  2.8424
 2988SOL    HW311725   0.181   4.340   3.243 -1.9645 -0.7484 -1.7629
 2988SOL    MW411726   0.231   4.358   3.174  0.2263  0.0056 -0.1068
 2989SOL     OW11727   2.985   4.120   3.482  0.1007 -0.4164  0.4117
 2989SOL    HW211728   3.028   4.157   3.558 -0.6541  0.9898  0.1847
 2989SOL    HW311729   3.050   4.125   3.412  0.4159 -0.6826  0.6820
 2989SOL    MW411730   2.999   4.126   3.483  0.0427 -0.2660  0.4174
 2990SOL     OW11731   4.598   3.092   3.252 -0.2652  0.1304 -0.0802
 2990SOL    HW211732   4.609   2.999   3.270  0.1238  0.3001  0.5920
 2990SOL    HW311733   4.684   3.130   3.268 -0.3469  0.5635 -0.6421
 2990SOL    MW411734   4.611   3.085   3.256 -0.2247  0.2099 -0.0657
 2991SOL     OW11735   5.657   5.867   3.429 -0.0143  0.0585 -0.3449
 2991SOL    HW211736   5.648   5.960   3.447  0.2888 -0.1114  0.7697
 2991SOL    HW311737   5.676   5.862   3.335  1.1312  1.2004 -0.1977
 2991SOL    MW411738   5.658   5.878   3.419  0.1768  0.1867 -0.1784
 2992SOL     OW11739   0.862   1.161   4.139  0.2015 -0.7720  0.4901
 2992SOL    HW211740   0.919   1.190   4.068 -2.5200  2.6993 -0.5478
 2992SOL    HW311741   0.915   1.172   4.218  0.7422  3.8757 -0.2405
 2992SOL    MW411742   0.877   1.167   4.141 -0.0862  0.2992  0.2567
 2993SOL     OW11743   6.046   4.323   1.131 -0.2787 -0.0058  0.0243
 2993SOL    HW211744   6.014   4.387   1.067 -0.3048 -0.5594 -0.5295
 2993SOL    HW311745   6.110   4.270   1.082 -1.8464 -1.8160 -0.1969
 2993SOL    MW411746   6.050   4.324   1.116 -0.4890 -0.3177 -0.0779
 2994SOL     OW11747   0.496   6.065   3.566  0.0108 -0.2789  0.5052
 2994SOL    HW211748   0.426   6.080   3.629  0.6953 -0.2829  1.2698
 2994SOL    HW311749   0.450   6.053   3.482 -0.8164  3.5843  0.1808
 2994SOL    MW411750   0.481   6.066   3.563 -0.0081  0.2303  0.5633
 2995SOL     OW11751   2.196   2.504   2.692  0.2823  0.5553  0.9242
 2995SOL    HW211752   2.199   2.536   2.782 -1.8824  0.6836  1.0082
 2995SOL    HW311753   2.134   2.431   2.694  1.3596 -0.4392 -0.2014
 2995SOL    MW411754   2.188   2.499   2.704  0.1388  0.4410  0.7868
 2996SOL     OW11755   5.068   1.324   0.572  0.1393 -0.4331  0.2732
 2996SOL    HW211756   5.064   1.357   0.662 -2.6237  2.6018 -0.7747
 2996SOL    HW311757   5.120   1.389   0.525 -1.5010  0.0625 -0.9582
 2996SOL    MW411758   5.074   1.337   0.577 -0.4416  0.0327 -0.0276
 2997SOL     OW11759   3.322   4.116   4.970 -0.3429  0.0178  0.1776
 2997SOL    HW211760   3.268   4.069   5.034 -2.3335  0.2103 -1.2825
 2997SOL    HW311761   3.400   4.062   4.961 -0.4598 -0.5348  1.9845
 2997SOL    MW411762   3.325   4.103   4.977 -0.6209 -0.0297  0.2233
 2998SOL     OW11763   6.143   4.738   3.247 -0.0709 -0.0008 -0.3597
 2998SOL    HW211764   6.178   4.734   3.336 -0.4980 -0.5027 -0.2094
 2998SOL    HW311765   6.112   4.649   3.230 -1.1906  0.4188 -0.5263
 2998SOL    MW411766   6.144   4.725   3.256 -0.2750 -0.0117 -0.3618
 2999SOL     OW11767   1.169   4.626   6.084 -0.2645  0.3142 -0.2661
 2999SOL    HW211768   1.088   4.673   6.064 -0.3485 -0.2645 -1.3749
 2999SOL    HW311769   1.206   4.606   5.998 -0.2982 -1.7449  0.1519
 2999SOL    MW411770   1.163   4.630   6.070 -0.2801 -0.0338 -0.3572
 3000SOL     OW11771   2.167   0.621   5.047 -0.0916  0.3332  0.2523
 3000SOL    HW211772   2.161   0.708   5.007  4.9086  0.4600 -0.8526
 3000SOL    HW311773   2.143   0.561   4.977  0.3108  0.7853 -0.2825
 3000SOL    MW411774   2.163   0.625   5.032  0.6212  0.4096  0.0359
 3001SOL     OW11775   5.281   1.952   2.548  0.3332  0.3808  0.5825
 3001SOL    HW211776   5.289   1.898   2.627 -0.5415  0.7974  0.9757
 3001SOL    HW311777   5.312   1.895   2.478 -1.3328 -0.9872  0.8670
 3001SOL    MW411778   5.286   1.937   2.550 -0.0020  0.2552  0.6719
 3002SOL     OW11779   2.260   1.860   2.121  0.0467  0.3804  0.2201
 3002SOL    HW211780   2.293   1.815   2.198 -1.6811 -0.4486  0.5254
 3002SOL    HW311781   2.316   1.937   2.112  0.2133  0.5636  2.3629
 3002SOL    MW411782   2.272   1.864   2.130 -0.1592  0.2952  0.5431
 3003SOL     OW11783   2.284   5.051   0.297 -0.5565 -0.9172 -0.2212
 3003SOL    HW211784   2.366   5.047   0.348 -0.3842  1.6471 -0.1667
 3003SOL    HW311785   2.218   5.077   0.360 -0.4573  1.7020 -1.0773
 3003SOL    MW411786   2.286   5.054   0.312 -0.5207 -0.2333 -0.3269
 3004SOL     OW11787   1.407   5.720   0.285  0.0957  0.0754  0.1978
 3004SOL    HW211788   1.473   5.652   0.293  0.6160  0.6529  0.9188
 3004SOL    HW311789   1.399   5.756   0.374 -0.6433  0.5115 -0.0388
 3004SOL    MW411790   1.414   5.716   0.298  0.0668  0.2092  0.2617
 3005SOL     OW11791   1.815   2.412   1.389 -0.1217 -0.4236  0.7801
 3005SOL    HW211792   1.853   2.327   1.410 -0.2036 -0.3020  1.4542
 3005SOL    HW311793   1.810   2.413   1.293  1.1156 -0.6347  0.6898
 3005SOL    MW411794   1.819   2.401   1.379  0.0307 -0.4354  0.8571
 3006SOL     OW11795   0.693   0.372   1.133 -0.3652 -0.0379 -0.2451
 3006SOL    HW211796   0.660   0.462   1.137  0.1487  0.1181  1.1011
 3006SOL    HW311797   0.786   0.379   1.157 -0.3387 -0.9265 -0.0425
 3006SOL    MW411798   0.701   0.385   1.137 -0.2939 -0.1345 -0.0408
 3007SOL     OW11799   3.686   3.103   4.615  0.1940 -0.2065  0.0569
 3007SOL    HW211800   3.762   3.045   4.605 -1.0978 -1.8596 -0.7781
 3007SOL    HW311801   3.673   3.140   4.528 -0.0653 -0.0916  0.1461
 3007SOL    MW411802   3.695   3.100   4.602 -0.0106 -0.4095 -0.0415
 3008SOL     OW11803   4.646   5.621   1.927 -0.6465  0.0685 -0.1888
 3008SOL    HW211804   4.672   5.688   1.991 -1.2236  1.0065 -0.9291
 3008SOL    HW311805   4.587   5.665   1.867 -0.3058 -0.8631 -1.2534
 3008SOL    MW411806   4.642   5.636   1.928 -0.6777  0.0693 -0.4270
 3009SOL     OW11807   1.083   2.630   4.447 -0.0637  0.1038  0.0193
 3009SOL    HW211808   1.121   2.718   4.449  0.6341 -0.2053  1.4960
 3009SOL    HW311809   1.047   2.618   4.535 -0.4598 -0.9630 -0.2765
 3009SOL    MW411810   1.083   2.640   4.459 -0.0239 -0.0777  0.1751
 3010SOL     OW11811   2.415   5.144   1.261 -0.2142  0.2475 -0.7280
 3010SOL    HW211812   2.449   5.057   1.281  0.4441  0.4960 -0.7135
 3010SOL    HW311813   2.458   5.168   1.179  0.3870  0.9595 -0.2184
 3010SOL    MW411814   2.425   5.136   1.253 -0.0480  0.3742 -0.6589
 3011SOL     OW11815   5.668   1.975   4.377 -0.5482  0.0144  0.4437
 3011SOL    HW211816   5.640   1.884   4.390 -2.5319  0.3110 -1.1873
 3011SOL    HW311817   5.668   2.013   4.465  1.8706 -1.9044  1.3782
 3011SOL    MW411818   5.664   1.968   4.390 -0.4908 -0.1996  0.3518
 3012SOL     OW11819   0.634   5.293   5.379 -0.4184  0.4748 -0.3872
 3012SOL    HW211820   0.723   5.320   5.357 -0.4389  0.7048 -0.1946
 3012SOL    HW311821   0.592   5.373   5.412 -0.8282  0.4747 -0.8759
 3012SOL    MW411822   0.640   5.307   5.380 -0.4751  0.5052 -0.4262
 3013SOL     OW11823   4.713   1.905   3.633  0.0681 -0.0662  0.3720
 3013SOL    HW211824   4.674   1.822   3.607 -3.2927  1.2921  0.5265
 3013SOL    HW311825   4.739   1.892   3.724 -0.7893 -0.8541  0.5159
 3013SOL    MW411826   4.711   1.892   3.642 -0.4884  0.0091  0.4114
 3014SOL     OW11827   1.442   2.613   1.543  0.2926 -0.2585 -0.7884
 3014SOL    HW211828   1.359   2.575   1.572 -0.2983  1.3902 -0.2298
 3014SOL    HW311829   1.425   2.647   1.456 -0.0836  1.3821 -0.1126
 3014SOL    MW411830   1.429   2.612   1.536  0.1650  0.1755 -0.6255
 3015SOL     OW11831   2.815   1.894   5.191 -0.1643  0.4038  0.0920
 3015SOL    HW211832   2.792   1.873   5.100 -1.3508  0.2445  0.4083
 3015SOL    HW311833   2.842   1.985   5.188  2.1299 -0.2352 -0.7984
 3015SOL    MW411834   2.815   1.903   5.178 -0.0182  0.2985  0.0163
 3016SOL     OW11835   2.462   6.295   5.865  0.4776 -0.8498  0.2458
 3016SOL    HW211836   2.418   6.284   5.949  1.2796 -3.8886  0.3805
 3016SOL    HW311837   2.545   6.248   5.875  1.8332  1.0362 -1.3980
 3016SOL    MW411838   2.467   6.287   5.878  0.7623 -1.0019  0.0467
 3017SOL     OW11839   2.722   0.825   5.646 -0.1503  0.4443  0.0455
 3017SOL    HW211840   2.675   0.785   5.572 -1.4768 -0.1332  1.1528
 3017SOL    HW311841   2.738   0.915   5.618  0.6174 -0.1375 -1.4845
 3017SOL    MW411842   2.718   0.831   5.632 -0.2240  0.2913 -0.0102
 3018SOL     OW11843   4.749   0.227   0.679  0.1064  0.3709 -0.0276
 3018SOL    HW211844   4.815   0.190   0.621  0.3387  0.9195 -0.1169
 3018SOL    HW311845   4.733   0.159   0.744  0.6834  0.1961 -0.0659
 3018SOL    MW411846   4.755   0.213   0.680  0.2132  0.4202 -0.0444
 3019SOL     OW11847   2.923   5.631   2.571  0.6070  0.3048 -0.3538
 3019SOL    HW211848   2.956   5.541   2.572  0.6060  0.2839  1.3762
 3019SOL    HW311849   2.977   5.676   2.506  2.1733 -0.4049  0.4110
 3019SOL    MW411850   2.934   5.625   2.563  0.8135  0.2084 -0.0246
 3020SOL     OW11851   2.855   4.236   2.592  0.1946  0.2127 -0.2958
 3020SOL    HW211852   2.768   4.217   2.627  0.3239  1.4660  0.7798
 3020SOL    HW311853   2.898   4.150   2.588 -1.1330 -0.4421 -1.0249
 3020SOL    MW411854   2.849   4.222   2.596  0.0365  0.2916 -0.2501
 3021SOL     OW11855   5.625   4.682   4.622 -0.4434  0.4473 -0.0432
 3021SOL    HW211856   5.583   4.767   4.612 -3.4925 -0.7841  0.9330
 3021SOL    HW311857   5.561   4.630   4.671  1.1328 -2.5243 -0.9115
 3021SOL    MW411858   5.611   4.686   4.627 -0.6377 -0.1072 -0.0290
 3022SOL     OW11859   4.024   3.980   3.070  0.0733  0.0375  0.1533
 3022SOL    HW211860   4.098   3.949   3.018  0.0926 -0.1383  0.2863
 3022SOL    HW311861   4.048   4.069   3.096  0.3698 -0.1321  0.4551
 3022SOL    MW411862   4.037   3.988   3.067  0.1150 -0.0080  0.2107
 3023SOL     OW11863   1.001   4.265   1.524 -0.8880  0.0116 -0.1715
 3023SOL    HW211864   0.932   4.226   1.470  0.3420  0.4989 -2.1852
 3023SOL    HW311865   1.068   4.198   1.530 -0.2537  0.5702 -0.7772
 3023SOL    MW411866   1.001   4.251   1.518 -0.6420  0.1496 -0.5171
 3024SOL     OW11867   4.978   3.607   2.675  0.4943 -0.6340  0.3464
 3024SOL    HW211868   4.896   3.621   2.628  0.1473 -3.5436 -0.0748
 3024SOL    HW311869   5.032   3.682   2.652 -1.6605  0.8635 -0.1518
 3024SOL    MW411870   4.974   3.619   2.666  0.1642 -0.8203  0.2251
 3025SOL     OW11871   0.460   1.853   5.752 -0.4946 -0.0508  0.0469
 3025SOL    HW211872   0.383   1.859   5.808 -0.0285  0.3823  0.6484
 3025SOL    HW311873   0.439   1.907   5.676 -1.6746 -1.7289 -0.8669
 3025SOL    MW411874   0.447   1.861   5.749 -0.5888 -0.2151  0.0057
 3026SOL     OW11875   0.133   5.212   6.203  0.5098 -0.2051  0.1741
 3026SOL    HW211876   0.047   5.202   6.244  0.2814 -0.8738 -0.4397
 3026SOL    HW311877   0.115   5.259   6.122  1.0009  1.3761  0.9357
 3026SOL    MW411878   0.119   5.217   6.198  0.5445 -0.0847  0.1936
 3027SOL     OW11879   2.930   1.039   0.081 -0.5034 -0.2990 -0.4847
 3027SOL    HW211880   2.951   1.101   0.151 -0.3464 -1.8726  0.9309
 3027SOL    HW311881   2.928   0.954   0.125 -0.7778 -1.2956 -2.3459
 3027SOL    MW411882   2.933   1.036   0.096 -0.5189 -0.6381 -0.5435
 3028SOL     OW11883   0.634   3.228   2.811 -0.3426 -0.4427 -0.0233
 3028SOL    HW211884   0.729   3.217   2.809 -0.3881 -0.7907 -1.5322
 3028SOL    HW311885   0.600   3.158   2.754 -1.5816 -0.9570  1.2789
 3028SOL    MW411886   0.642   3.217   2.803 -0.5121 -0.5565 -0.0506
 3029SOL     OW11887   3.167   4.484   5.566 -0.1928 -0.2875 -0.3536
 3029SOL    HW211888   3.160   4.536   5.486  1.2422 -0.4584 -0.6034
 3029SOL    HW311889   3.171   4.549   5.636  1.5793 -0.0073 -0.6614
 3029SOL    MW411890   3.166   4.499   5.565  0.2304 -0.2731 -0.4272
 3030SOL     OW11891   5.455   5.433   3.910 -0.1256  0.4857 -0.5736
 3030SOL    HW211892   5.360   5.445   3.905 -0.1980  0.5693  0.6580
 3030SOL    HW311893   5.488   5.517   3.943  0.6493  1.2506 -3.0399
 3030SOL    MW411894   5.447   5.446   3.914 -0.0329  0.5976 -0.7365
 3031SOL     OW11895   0.929   1.128   5.348  0.0548  0.1933  0.1657
 3031SOL    HW211896   0.842   1.114   5.387 -0.0994  0.0979 -0.2095
 3031SOL    HW311897   0.915   1.121   5.254  0.6666 -0.9435  0.1432
 3031SOL    MW411898   0.916   1.125   5.341  0.1151  0.0307  0.1132
 3032SOL     OW11899   2.359   0.269   5.283 -0.5897  0.0130 -0.3355
 3032SOL    HW211900   2.356   0.294   5.191  0.0026 -0.9972 -0.6447
 3032SOL    HW311901   2.450   0.281   5.309 -0.4194 -1.1842 -0.3268
 3032SOL    MW411902   2.371   0.274   5.274 -0.4890 -0.2782 -0.3751
 3033SOL     OW11903   2.767   5.679   2.896  0.0181  0.1498  0.1969
 3033SOL    HW211904   2.741   5.602   2.845  0.5437 -0.3779  0.7053
 3033SOL    HW311905   2.690   5.735   2.896 -0.7387 -0.8636  0.7158
 3033SOL    MW411906   2.754   5.676   2.889 -0.0124 -0.0536  0.3324
 3034SOL     OW11907   4.279   5.263   2.282  0.0781 -0.4565  0.4317
 3034SOL    HW211908   4.361   5.305   2.309  0.7875 -1.9042  0.6699
 3034SOL    HW311909   4.296   5.232   2.193  0.1549 -1.6219  0.8383
 3034SOL    MW411910   4.292   5.264   2.274  0.1818 -0.8012  0.5168
 3035SOL     OW11911   2.835   5.859   3.784  0.0535  0.2452 -0.2884
 3035SOL    HW211912   2.902   5.920   3.817 -0.1394  0.6176 -0.5682
 3035SOL    HW311913   2.836   5.787   3.846 -1.1612  1.4895  1.2544
 3035SOL    MW411914   2.844   5.858   3.797 -0.1322  0.4585 -0.1218
 3036SOL     OW11915   3.424   4.759   1.491 -0.0655  0.0179  0.6044
 3036SOL    HW211916   3.386   4.674   1.513  0.6282 -0.4643  0.0105
 3036SOL    HW311917   3.349   4.817   1.480 -0.6092 -0.7639  0.0269
 3036SOL    MW411918   3.409   4.755   1.492 -0.0457 -0.1489  0.4499
 3037SOL     OW11919   4.613   3.822   4.553 -0.2054 -0.3357  0.4972
 3037SOL    HW211920   4.680   3.783   4.609  0.3188  0.7982  0.6926
 3037SOL    HW311921   4.570   3.747   4.512  0.9947 -1.1013  0.5796
 3037SOL    MW411922   4.616   3.807   4.555  0.0221 -0.2871  0.5339
 3038SOL     OW11923   3.833   1.460   1.219  0.4534 -0.1402  0.4753
 3038SOL    HW211924   3.769   1.471   1.149  0.0200 -1.0218  0.7185
 3038SOL    HW311925   3.903   1.408   1.181  0.4664 -0.1801  0.5539
 3038SOL    MW411926   3.834   1.455   1.205  0.3979 -0.2618  0.5178
 3039SOL     OW11927   1.567   1.049   5.657  0.2575  0.2648  0.0747
 3039SOL    HW211928   1.478   1.019   5.639  0.7769 -1.0945 -0.3273
 3039SOL    HW311929   1.585   1.019   5.747  0.6377 -0.3141 -0.1873
 3039SOL    MW411930   1.558   1.041   5.667  0.3762  0.0091 -0.0129
 3040SOL     OW11931   6.374   0.985   1.341  0.3969  0.5783  0.2158
 3040SOL    HW211932   6.379   0.909   1.399 -1.8640  1.4394  1.6915
 3040SOL    HW311933   6.439   1.046   1.377 -1.2357  1.2544  2.2282
 3040SOL    MW411934   6.383   0.983   1.354 -0.1168  0.7811  0.6760
 3041SOL     OW11935   3.513   2.576   2.732 -0.2429  0.1082 -0.1744
 3041SOL    HW211936   3.459   2.650   2.706 -0.2781 -0.1071 -0.7299
 3041SOL    HW311937   3.603   2.610   2.734 -0.1637 -0.0114 -1.1655
 3041SOL    MW411938   3.518   2.590   2.729 -0.2371  0.0640 -0.3785
 3042SOL     OW11939   4.864   6.151   0.881 -0.1592 -0.6539  0.4786
 3042SOL    HW211940   4.784   6.164   0.931  0.7180  0.7592  1.5974
 3042SOL    HW311941   4.928   6.207   0.924  0.8757 -0.0712 -1.6926
 3042SOL    MW411942   4.862   6.160   0.893  0.0931 -0.3906  0.3397
 3043SOL     OW11943   2.012   6.281   0.153  0.0587 -0.5781 -0.5465
 3043SOL    HW211944   1.988   6.283   0.246  3.3010  0.4198  0.3878
 3043SOL    HW311945   2.058   6.198   0.142  0.7223 -0.1587 -0.9661
 3043SOL    MW411946   2.015   6.271   0.164  0.5740 -0.3911 -0.4786
 3044SOL     OW11947   3.012   3.630   4.338  0.1878 -0.1556  0.2398
 3044SOL    HW211948   2.992   3.619   4.431 -1.0451  0.3075  0.0512
 3044SOL    HW311949   3.036   3.723   4.329  0.5161 -0.2505  0.1352
 3044SOL    MW411950   3.012   3.641   4.349  0.0684 -0.1070  0.2011
 3045SOL     OW11951   1.035   3.957   2.963 -0.1467  0.1773  0.0838
 3045SOL    HW211952   0.995   3.968   3.050  1.2127 -0.1308  0.7784
 3045SOL    HW311953   1.116   3.909   2.980  0.7275  1.1203 -1.2177
 3045SOL    MW411954   1.040   3.952   2.977  0.1480  0.2611  0.0037
 3046SOL     OW11955   5.374   4.233   5.264 -0.0814 -1.0331 -0.7160
 3046SOL    HW211956   5.420   4.287   5.199  0.4824  0.3041  0.7180
 3046SOL    HW311957   5.314   4.294   5.307 -0.3177 -1.8557  0.1434
 3046SOL    MW411958   5.372   4.248   5.261 -0.0382 -0.9652 -0.4134
 3047SOL     OW11959   2.072   3.129   4.005 -0.0923  0.3328  0.3498
 3047SOL    HW211960   2.113   3.211   4.032 -1.1065  1.2881 -0.8065
 3047SOL    HW311961   1.979   3.142   4.024 -0.1160 -1.0422  1.2504
 3047SOL    MW411962   2.065   3.142   4.011 -0.2293  0.2774  0.3161
 3048SOL     OW11963   0.122   4.766   2.019  0.0278  0.2031 -0.1873
 3048SOL    HW211964   0.142   4.714   2.097  1.0138  2.2842  1.0474
 3048SOL    HW311965   0.070   4.708   1.964 -1.0898 -1.2170  2.2111
 3048SOL    MW411966   0.118   4.751   2.022  0.0104  0.2903  0.2920
 3049SOL     OW11967   5.006   5.655   2.809 -0.5546 -0.3921 -0.3857
 3049SOL    HW211968   4.915   5.629   2.823 -0.3140 -0.8972  0.2735
 3049SOL    HW311969   5.022   5.635   2.716 -0.8819 -1.0238 -0.3130
 3049SOL    MW411970   4.996   5.649   2.798 -0.5661 -0.5421 -0.2891
 3050SOL     OW11971   1.894   2.198   0.646 -0.0641 -0.3823 -0.2654
 3050SOL    HW211972   1.812   2.240   0.620  0.8819  1.0380 -1.1200
 3050SOL    HW311973   1.956   2.223   0.578  2.3705  2.9481  2.7838
 3050SOL    MW411974   1.891   2.207   0.634  0.3819  0.2445  0.0242
 3051SOL     OW11975   4.616   3.050   2.590 -0.0034  0.3109  0.3896
 3051SOL    HW211976   4.534   3.052   2.542 -0.1880  0.1700  0.7007
 3051SOL    HW311977   4.601   2.989   2.662  0.4688  0.0579  0.2747
 3051SOL    MW411978   4.603   3.043   2.594  0.0345  0.2589  0.4155
 3052SOL     OW11979   0.444   0.117   0.289  0.4158  0.4585 -0.5605
 3052SOL    HW211980   0.387   0.112   0.365  0.6733  0.0946 -0.3887
 3052SOL    HW311981   0.512   0.180   0.313 -0.6646  1.9318 -1.2747
 3052SOL    MW411982   0.446   0.124   0.302  0.3073  0.6049 -0.6320
 3053SOL     OW11983   2.509   0.622   4.594 -0.4708  0.3947 -0.0993
 3053SOL    HW211984   2.572   0.593   4.527 -1.7062 -0.1826 -1.0408
 3053SOL    HW311985   2.518   0.558   4.665 -0.1639  0.1816 -0.3272
 3053SOL    MW411986   2.519   0.610   4.594 -0.5933  0.2904 -0.2536
 3054SOL     OW11987   3.498   1.068   2.417  0.1200  0.2925  0.5197
 3054SOL    HW211988   3.412   1.092   2.383  0.3951  0.3829 -0.1171
 3054SOL    HW311989   3.492   1.086   2.511 -0.3829  0.8044  0.3964
 3054SOL    MW411990   3.486   1.074   2.425  0.0899  0.3720  0.4194
 3055SOL     OW11991   1.721   0.884   5.870 -0.4369 -0.1165 -0.1179
 3055SOL    HW211992   1.784   0.913   5.804  0.8439 -1.4151  0.4928
 3055SOL    HW311993   1.697   0.795   5.844 -1.7260  0.1926 -0.0971
 3055SOL    MW411994   1.726   0.876   5.858 -0.4380 -0.2471 -0.0346
 3056SOL     OW11995   5.532   6.327   5.112  0.3824  0.2807 -0.3274
 3056SOL    HW211996   5.576   6.244   5.090 -0.9821 -0.6032  0.1389
 3056SOL    HW311997   5.534   6.377   5.031  0.7620 -0.4309 -0.7738
 3056SOL    MW411998   5.538   6.322   5.099  0.2525  0.0702 -0.3248
 3057SOL     OW11999   4.898   2.963   6.041  0.4409 -0.1386  0.3536
 3057SOL    HW212000   4.901   2.909   6.119  0.6410  0.1132  0.5237
 3057SOL    HW312001   4.990   2.974   6.016  0.3315 -0.9620 -0.4376
 3057SOL    MW412002   4.910   2.957   6.048  0.4529 -0.2140  0.2716
 3058SOL     OW12003   1.924   0.880   6.112  0.2142  0.3937  0.2771
 3058SOL    HW212004   1.883   0.850   6.031  2.2116 -1.3295 -0.1723
 3058SOL    HW312005   1.977   0.806   6.141  1.6892  1.9163  1.6921
 3058SOL    MW412006   1.926   0.866   6.105  0.6723  0.3672  0.4045
 3059SOL     OW12007   3.854   5.861   0.596 -0.3682 -0.3624 -0.4604
 3059SOL    HW212008   3.911   5.853   0.520  0.0278 -0.9115 -0.1117
 3059SOL    HW312009   3.913   5.868   0.670 -0.7397 -1.2980 -0.0551
 3059SOL    MW412010   3.869   5.861   0.596 -0.3649 -0.5583 -0.3609
 3060SOL     OW12011   1.640   4.502   6.107 -0.3490  0.2883  0.0299
 3060SOL    HW212012   1.566   4.544   6.062  0.2627  2.0518  0.5706
 3060SOL    HW312013   1.611   4.494   6.198  0.3249  1.5855  0.3824
 3060SOL    MW412014   1.626   4.506   6.113 -0.1794  0.6921  0.1477
 3061SOL     OW12015   4.649   6.338   6.106 -0.4682 -0.1985 -0.2516
 3061SOL    HW212016   4.671   6.263   6.051  0.1246  0.6356 -1.1927
 3061SOL    HW312017   4.725   6.351   6.161  0.7364  1.4819 -2.1500
 3061SOL    MW412018   4.662   6.330   6.106 -0.2310  0.1332 -0.6262
 3062SOL     OW12019   4.196   0.144   2.619  0.2490 -0.1829  0.4058
 3062SOL    HW212020   4.284   0.164   2.587  1.0795 -0.9220  2.1097
 3062SOL    HW312021   4.200   0.053   2.646 -1.3603 -0.5338 -0.4447
 3062SOL    MW412022   4.208   0.135   2.618  0.1463 -0.3267  0.5184
 3063SOL     OW12023   5.544   1.325   2.671 -0.4864 -0.4509 -0.0322
 3063SOL    HW212024   5.631   1.351   2.701  0.7593  0.5690 -3.9347
 3063SOL    HW312025   5.490   1.404   2.682 -0.3472 -0.4133  0.3935
 3063SOL    MW412026   5.548   1.339   2.676 -0.3037 -0.3113 -0.4910
 3064SOL     OW12027   3.700   0.761   0.715 -0.0156  0.3004  0.4714
 3064SOL    HW212028   3.751   0.791   0.640 -0.1844 -0.0126  0.2279
 3064SOL    HW312029   3.609   0.767   0.685 -0.0194 -1.4074  0.0452
 3064SOL    MW412030   3.695   0.766   0.701 -0.0384  0.0337  0.3831
 3065SOL     OW12031   5.455   3.529   1.751 -0.0984  0.2015  0.0055
 3065SOL    HW212032   5.369   3.570   1.752  0.4034  1.3546 -1.4087
 3065SOL    HW312033   5.437   3.438   1.725 -0.9502  0.1656  0.6454
 3065SOL    MW412034   5.441   3.522   1.748 -0.1446  0.3489 -0.0967
 3066SOL     OW12035   3.867   3.331   1.738 -0.1776 -0.5146  0.2323
 3066SOL    HW212036   3.853   3.371   1.824  1.2503 -1.5229  0.9735
 3066SOL    HW312037   3.934   3.264   1.754  0.7655 -0.1243 -1.8236
 3066SOL    MW412038   3.874   3.328   1.752  0.1352 -0.5962  0.0589
 3067SOL     OW12039   2.036   3.758   5.649 -0.0314  0.3703  0.1277
 3067SOL    HW212040   2.108   3.696   5.646 -1.1908 -1.0039 -1.2108
 3067SOL    HW312041   1.984   3.739   5.570 -2.4004  0.6015  1.5192
 3067SOL    MW412042   2.038   3.747   5.638 -0.4970  0.2195  0.1347
 3068SOL     OW12043   4.286   4.944   0.202  0.4765  0.9315 -0.2772
 3068SOL    HW212044   4.326   4.895   0.274  0.0648 -0.6934 -1.0975
 3068SOL    HW312045   4.358   4.993   0.163  1.0037  0.5940  0.2623
 3068SOL    MW412046   4.301   4.944   0.206  0.4917  0.6726 -0.3143
 3069SOL     OW12047   4.413   0.209   2.461 -0.1573  0.2152 -0.4050
 3069SOL    HW212048   4.448   0.171   2.380  0.6156 -0.5389  0.2598
 3069SOL    HW312049   4.441   0.300   2.458 -1.4183  0.5988 -1.6825
 3069SOL    MW412050   4.422   0.216   2.450 -0.2217  0.1663 -0.4858
 3070SOL     OW12051   4.299   2.647   4.161 -0.4280  0.1653 -0.4664
 3070SOL    HW212052   4.383   2.666   4.119 -0.2093  0.6939  0.1938
 3070SOL    HW312053   4.284   2.720   4.221 -0.1768 -1.0587  1.1942
 3070SOL    MW412054   4.308   2.659   4.164 -0.3660  0.0736 -0.1602
 3071SOL     OW12055   1.995   3.793   4.885  0.3534  0.1082  0.2009
 3071SOL    HW212056   1.944   3.866   4.851  0.2286  0.8052  1.7605
 3071SOL    HW312057   1.989   3.725   4.818 -1.8563  0.4975 -0.0586
 3071SOL    MW412058   1.988   3.794   4.872  0.0454  0.2515  0.3724
 3072SOL     OW12059   4.619   3.161   2.976  0.2315 -0.2979 -0.6754
 3072SOL    HW212060   4.612   3.132   3.067 -1.7070 -0.8687 -0.9543
 3072SOL    HW312061   4.712   3.160   2.957  0.5819 -1.3689  0.9327
 3072SOL    MW412062   4.630   3.157   2.986  0.0220 -0.5145 -0.5000
 3073SOL     OW12063   2.440   1.833   0.915 -0.4250 -0.6345 -0.0571
 3073SOL    HW212064   2.377   1.826   0.986 -0.9365  0.0303 -0.4380
 3073SOL    HW312065   2.449   1.927   0.899  1.4171 -0.6535  0.6489
 3073SOL    MW412066   2.433   1.844   0.922 -0.2494 -0.5493 -0.0142
 3074SOL     OW12067   6.228   4.174   4.309  0.0856  0.1302 -0.2825
 3074SOL    HW212068   6.235   4.253   4.256 -0.7087  1.0923  0.9947
 3074SOL    HW312069   6.140   4.178   4.347  0.9531  0.0038  1.8771
 3074SOL    MW412070   6.217   4.185   4.307  0.0953  0.2404  0.1709
 3075SOL     OW12071   4.239   5.675   0.502  0.2474  0.1769  0.3286
 3075SOL    HW212072   4.235   5.720   0.418 -2.0959 -1.5293 -0.5430
 3075SOL    HW312073   4.297   5.601   0.488 -2.3297 -1.7768 -0.7513
 3075SOL    MW412074   4.246   5.671   0.489 -0.4018 -0.3060  0.0712
 3076SOL     OW12075   3.379   5.435   3.001 -0.0931 -0.2792 -0.6136
 3076SOL    HW212076   3.345   5.366   3.059  0.3220  0.2952  0.3203
 3076SOL    HW312077   3.362   5.401   2.913 -1.8389 -0.6425 -0.1906
 3076SOL    MW412078   3.372   5.421   2.997 -0.2687 -0.2513 -0.4345
 3077SOL     OW12079   0.977   2.492   3.364 -0.4610 -0.0656 -0.1365
 3077SOL    HW212080   0.882   2.478   3.367 -0.6492  1.1156  0.2300
 3077SOL    HW312081   1.008   2.464   3.451 -0.3088 -1.3821 -0.5932
 3077SOL    MW412082   0.969   2.487   3.376 -0.4658 -0.0834 -0.1484
 3078SOL     OW12083   6.244   3.920   2.535  0.9673 -0.2552  0.3972
 3078SOL    HW212084   6.254   3.833   2.496 -0.2882 -0.0808 -0.3721
 3078SOL    HW312085   6.151   3.928   2.553  0.9327  1.2096 -0.2671
 3078SOL    MW412086   6.233   3.910   2.532  0.7971 -0.0389  0.2081
 3079SOL     OW12087   1.040   2.180   2.401 -0.6941 -0.0300 -0.3597
 3079SOL    HW212088   1.083   2.211   2.481 -0.0814 -2.2957  0.2583
 3079SOL    HW312089   0.957   2.144   2.430 -0.5254 -0.7516 -0.7331
 3079SOL    MW412090   1.035   2.179   2.415 -0.5910 -0.4241 -0.3274
 3080SOL     OW12091   5.771   4.017   3.726 -0.2748 -0.6151 -0.4303
 3080SOL    HW212092   5.843   4.076   3.747 -1.1631  1.3378 -2.5008
 3080SOL    HW312093   5.813   3.932   3.712  1.4703  0.2291 -0.5651
 3080SOL    MW412094   5.786   4.014   3.727 -0.1618 -0.2460 -0.7213
 3081SOL     OW12095   2.996   4.346   1.726 -1.1035 -0.1225 -0.3379
 3081SOL    HW212096   3.079   4.389   1.746 -0.6811  0.0290 -2.1992
 3081SOL    HW312097   2.932   4.391   1.780 -0.1422  0.5428  0.2720
 3081SOL    MW412098   2.999   4.357   1.736 -0.9209 -0.0148 -0.5030
 3082SOL     OW12099   3.925   1.822   4.658 -0.0077 -0.3172  0.3326
 3082SOL    HW212100   3.993   1.815   4.591  0.2055  0.2095  0.4940
 3082SOL    HW312101   3.964   1.779   4.735  0.4521  0.6601  0.6597
 3082SOL    MW412102   3.939   1.815   4.660  0.0811 -0.1188  0.3970
 3083SOL     OW12103   2.160   2.315   4.157  0.1590  0.2198  0.0269
 3083SOL    HW212104   2.093   2.249   4.175  0.4350 -0.6218 -1.8365
 3083SOL    HW312105   2.217   2.274   4.093  0.6643  2.0806 -0.7583
 3083SOL    MW412106   2.159   2.301   4.151  0.2621  0.3543 -0.3226
 3084SOL     OW12107   5.544   4.010   0.928  0.1538 -0.2010 -0.0219
 3084SOL    HW212108   5.459   3.984   0.963  0.2840 -1.6932 -0.7450
 3084SOL    HW312109   5.535   4.003   0.833  1.0566 -0.3443 -0.1111
 3084SOL    MW412110   5.532   4.006   0.920  0.2901 -0.4168 -0.1291
 3085SOL     OW12111   4.691   4.888   1.972  0.4083  0.2261 -0.6649
 3085SOL    HW212112   4.775   4.841   1.980  1.1003  1.5677  0.4300
 3085SOL    HW312113   4.689   4.947   2.048 -1.7544 -0.0861 -0.4149
 3085SOL    MW412114   4.702   4.890   1.983  0.2143  0.3619 -0.4874
 3086SOL     OW12115   4.738   1.430   2.890  0.3174 -0.3254 -0.5069
 3086SOL    HW212116   4.822   1.416   2.847  0.4724 -0.1427 -0.2634
 3086SOL    HW312117   4.694   1.496   2.837  0.1974 -0.6484 -0.8126
 3086SOL    MW412118   4.743   1.437   2.877  0.3220 -0.3439 -0.5151
 3087SOL     OW12119   3.595   5.619   1.226  0.4001 -0.0555 -0.0861
 3087SOL    HW212120   3.652   5.542   1.226 -1.6237 -1.6701 -1.6946
 3087SOL    HW312121   3.559   5.621   1.315 -0.2102 -1.5636 -0.2651
 3087SOL    MW412122   3.598   5.609   1.238  0.0526 -0.4675 -0.3220
 3088SOL     OW12123   0.181   5.448   1.593  0.1330 -0.1111 -0.2223
 3088SOL    HW212124   0.238   5.520   1.620 -0.0085 -0.4414  1.0053
 3088SOL    HW312125   0.123   5.434   1.668 -0.1257 -1.2182 -0.6202
 3088SOL    MW412126   0.181   5.456   1.607  0.0802 -0.3008 -0.1128
 3089SOL     OW12127   0.421   1.630   3.800 -0.5077 -0.3408  0.5973
 3089SOL    HW212128   0.337   1.657   3.763 -0.3756 -0.0927  0.4752
 3089SOL    HW312129   0.463   1.711   3.827  1.2609  0.0079 -2.6242
 3089SOL    MW412130   0.415   1.644   3.798 -0.2569 -0.2621  0.1562
 3090SOL     OW12131   0.740   5.934   3.601  0.4421 -0.2604  0.3166
 3090SOL    HW212132   0.651   5.967   3.600  0.3494 -0.5104  0.1622
 3090SOL    HW312133   0.730   5.838   3.599  0.6857 -0.3267  1.5696
 3090SOL    MW412134   0.727   5.925   3.600  0.4620 -0.3021  0.4616
 3091SOL     OW12135   4.688   0.655   6.064 -0.5022 -0.2360 -0.5598
 3091SOL    HW212136   4.633   0.618   5.995  0.0714 -1.2673 -0.4756
 3091SOL    HW312137   4.777   0.649   6.030 -0.0152 -2.3777  0.9273
 3091SOL    MW412138   4.692   0.649   6.050 -0.3622 -0.6546 -0.3525
 3092SOL     OW12139   5.594   5.072   5.994 -0.2044  0.1659 -0.6942
 3092SOL    HW212140   5.600   5.031   6.081 -0.8063 -3.8551 -2.3207
 3092SOL    HW312141   5.655   5.145   5.998  0.5360 -0.4456  2.8025
 3092SOL    MW412142   5.602   5.076   6.006 -0.1862 -0.4453 -0.4475
 3093SOL     OW12143   4.801   4.582   5.511  0.3065  0.1905  0.4241
 3093SOL    HW212144   4.885   4.539   5.497  0.4023 -0.1674  1.9300
 3093SOL    HW312145   4.805   4.615   5.600 -0.3951  1.9460 -0.1557
 3093SOL    MW412146   4.813   4.581   5.521  0.2266  0.3749  0.5463
 3094SOL     OW12147   3.727   4.265   6.102 -0.2744 -0.1886 -0.3069
 3094SOL    HW212148   3.638   4.268   6.066  0.7656 -0.5097 -3.1153
 3094SOL    HW312149   3.762   4.353   6.087  0.3351 -0.4623 -0.5154
 3094SOL    MW412150   3.720   4.277   6.095 -0.0568 -0.2671 -0.7049
 3095SOL     OW12151   5.501   1.431   3.751 -0.4953 -0.6278 -0.2262
 3095SOL    HW212152   5.437   1.407   3.818 -0.7707 -2.3281 -1.0384
 3095SOL    HW312153   5.451   1.430   3.669  0.5684 -2.1305 -0.8909
 3095SOL    MW412154   5.486   1.428   3.749 -0.3913 -1.0504 -0.4211
 3096SOL     OW12155   4.689   4.603   3.264  0.3016  0.4443  0.3910
 3096SOL    HW212156   4.664   4.691   3.290 -0.5125  0.6314 -0.8983
 3096SOL    HW312157   4.760   4.615   3.201  0.6078  0.1393  0.6717
 3096SOL    MW412158   4.695   4.616   3.259  0.2346  0.4287  0.2579
 3097SOL     OW12159   3.619   0.323   1.126  0.5043 -0.4702  0.1015
 3097SOL    HW212160   3.670   0.392   1.084 -1.8383  0.2265 -1.8185
 3097SOL    HW312161   3.609   0.352   1.217  2.1790  0.1095  0.1217
 3097SOL    MW412162   3.624   0.336   1.133  0.4162 -0.3018 -0.1492
 3098SOL     OW12163   6.062   0.413   0.135 -0.5232  0.1131 -0.6609
 3098SOL    HW212164   6.143   0.460   0.152  0.2288 -0.7282 -1.8010
 3098SOL    HW312165   5.993   0.471   0.167  0.5432  0.5187  1.0191
 3098SOL    MW412166   6.063   0.427   0.142 -0.2833  0.0556 -0.5896
 3099SOL     OW12167   6.399   6.016   1.872  0.1962  0.4091  0.2003
 3099SOL    HW212168   6.397   5.926   1.906 -0.1375  0.9285  1.6113
 3099SOL    HW312169   6.327   6.019   1.809 -1.0876  0.2179  1.6026
 3099SOL    MW412170   6.390   6.005   1.868 -0.0172  0.4524  0.5715
 3100SOL     OW12171   4.947   1.643   3.353 -0.4747  0.0226  0.3892
 3100SOL    HW212172   4.903   1.577   3.299  2.2653 -0.8135 -1.0013
 3100SOL    HW312173   4.913   1.630   3.441 -0.2705 -3.0773  0.0893
 3100SOL    MW412174   4.937   1.633   3.357 -0.0863 -0.4967  0.1662
 3101SOL     OW12175   0.407   6.327   4.457 -0.6716 -0.3551  0.1195
 3101SOL    HW212176   0.352   6.375   4.518 -1.3617 -0.2562 -0.5670
 3101SOL    HW312177   0.346   6.291   4.392 -0.0070 -0.8665 -0.2370
 3101SOL    MW412178   0.392   6.328   4.456 -0.6750 -0.4095 -0.0181
 3102SOL     OW12179   0.273   1.392   2.634 -0.2619 -0.2775 -0.0263
 3102SOL    HW212180   0.298   1.418   2.723  0.8067 -1.5058  0.0629
 3102SOL    HW312181   0.327   1.446   2.577 -0.9734  0.5373  0.0464
 3102SOL    MW412182   0.283   1.403   2.638 -0.2148 -0.3320 -0.0049
 3103SOL     OW12183   5.240   5.012   4.946  0.2390 -0.4751 -0.1006
 3103SOL    HW212184   5.154   5.048   4.966 -0.6437 -1.6704 -1.5258
 3103SOL    HW312185   5.284   5.081   4.896  0.6536  0.6485  1.7237
 3103SOL    MW412186   5.235   5.026   4.942  0.1773 -0.4845 -0.0479
 3104SOL     OW12187   1.754   4.529   4.127 -0.4122  0.1155 -0.1581
 3104SOL    HW212188   1.815   4.496   4.062 -1.2420 -0.2806 -0.7569
 3104SOL    HW312189   1.667   4.513   4.089 -0.8866  0.8083  0.5954
 3104SOL    MW412190   1.750   4.522   4.113 -0.5843  0.1546 -0.1377
 3105SOL     OW12191   5.526   5.956   3.773  0.2466 -0.1939  0.0011
 3105SOL    HW212192   5.441   5.987   3.806  0.0454  0.1411 -0.8180
 3105SOL    HW312193   5.546   5.880   3.827 -0.2221  0.1600  0.6923
 3105SOL    MW412194   5.517   5.950   3.785  0.1582 -0.1030 -0.0158
 3106SOL     OW12195   4.217   2.306   1.923  0.3666  0.1060 -0.7319
 3106SOL    HW212196   4.183   2.255   1.850 -0.5600 -1.7114  0.8791
 3106SOL    HW312197   4.207   2.397   1.896 -0.5949 -0.5100 -2.5752
 3106SOL    MW412198   4.211   2.311   1.910  0.1175 -0.2150 -0.7625
 3107SOL     OW12199   3.896   4.828   0.689  0.2653 -0.1863 -0.6300
 3107SOL    HW212200   3.932   4.898   0.635  0.0395 -0.5531 -1.2661
 3107SOL    HW312201   3.896   4.863   0.778 -1.2028  1.1989 -1.1281
 3107SOL    MW412202   3.900   4.842   0.694  0.0418 -0.0519 -0.7796
 3108SOL     OW12203   0.044   1.308   2.468 -0.3100  0.4222 -0.5892
 3108SOL    HW212204   0.125   1.320   2.518 -1.1494 -0.0922  0.9750
 3108SOL    HW312205   0.038   1.214   2.454  0.0034  0.5824 -1.8384
 3108SOL    MW412206   0.054   1.297   2.473 -0.3794  0.3754 -0.5476
 3109SOL     OW12207   2.585   3.992   2.094 -0.2232 -0.4728 -0.2732
 3109SOL    HW212208   2.543   4.039   2.022  0.0043 -0.7435 -0.5858
 3109SOL    HW312209   2.676   4.022   2.093 -0.2401 -0.4094 -0.0406
 3109SOL    MW412210   2.592   4.002   2.085 -0.1954 -0.5001 -0.2837
 3110SOL     OW12211   5.323   0.980   3.450  0.1230  0.0128  0.7031
 3110SOL    HW212212   5.271   0.994   3.529  0.8395  0.9743  1.0160
 3110SOL    HW312213   5.347   1.067   3.421 -0.2807 -0.3234 -0.6951
 3110SOL    MW412214   5.319   0.993   3.457  0.1643  0.0953  0.5599
 3111SOL     OW12215   3.835   0.441   6.428  0.1289 -0.6346  0.1714
 3111SOL    HW212216   3.768   0.382   6.460  0.2144 -0.1997  1.1856
 3111SOL    HW312217   3.789   0.500   6.367 -0.1493 -1.1093 -0.0776
 3111SOL    MW412218   3.820   0.441   6.424  0.1035 -0.6399  0.2723
 3112SOL     OW12219   5.262   6.350   3.231 -0.0232 -0.0699  0.5177
 3112SOL    HW212220   5.257   6.302   3.313 -1.5003 -1.3257 -0.2492
 3112SOL    HW312221   5.186   6.408   3.231  0.2433  0.2896  0.2527
 3112SOL    MW412222   5.252   6.351   3.242 -0.1829 -0.1881  0.3815
 3113SOL     OW12223   5.934   4.760   2.731 -0.4365  0.1391  0.2711
 3113SOL    HW212224   5.887   4.678   2.716  0.3247 -0.0622 -1.1922
 3113SOL    HW312225   5.949   4.796   2.644  2.2868  0.0834  0.6138
 3113SOL    MW412226   5.930   4.754   2.718  0.0232  0.1052  0.1232
 3114SOL     OW12227   3.025   5.596   3.676 -0.8307 -0.1761 -0.4019
 3114SOL    HW212228   2.999   5.544   3.600 -1.1709  0.7307 -0.9210
 3114SOL    HW312229   3.109   5.633   3.651 -0.6563 -0.3591 -0.0900
 3114SOL    MW412230   3.033   5.594   3.662 -0.8526 -0.0806 -0.4292
 3115SOL     OW12231   6.205   5.581   3.796 -0.0657  0.7919  0.4801
 3115SOL    HW212232   6.227   5.649   3.732  0.1973 -0.6439 -1.0230
 3115SOL    HW312233   6.278   5.581   3.857  0.8517  0.6410 -0.5747
 3115SOL    MW412234   6.217   5.590   3.795  0.0900  0.5826  0.1426
 3116SOL     OW12235   3.225   3.506   4.931  0.0537  0.1167 -0.1906
 3116SOL    HW212236   3.297   3.557   4.894  0.8488 -0.9693 -0.2072
 3116SOL    HW312237   3.260   3.472   5.014 -0.8339  0.4781  0.3399
 3116SOL    MW412238   3.239   3.508   4.937  0.0415  0.0211 -0.1228
 3117SOL     OW12239   2.757   5.027   1.340 -0.8691 -0.6456  0.2514
 3117SOL    HW212240   2.793   5.045   1.427  1.8871 -2.5541 -0.3238
 3117SOL    HW312241   2.684   4.967   1.355 -0.9438 -0.3022  1.2798
 3117SOL    MW412242   2.752   5.021   1.353 -0.5153 -0.8521  0.3112
 3118SOL     OW12243   0.686   5.158   3.672  0.1073  0.1466 -0.5952
 3118SOL    HW212244   0.590   5.154   3.670  0.0723  0.9198 -1.0263
 3118SOL    HW312245   0.711   5.098   3.742 -0.8202  1.7470  1.2089
 3118SOL    MW412246   0.677   5.150   3.681 -0.0197  0.4598 -0.4140
 3119SOL     OW12247   0.271   6.158   1.892  0.2012 -0.0574  0.6090
 3119SOL    HW212248   0.283   6.243   1.934 -0.0419  0.2568  0.0534
 3119SOL    HW312249   0.194   6.121   1.935 -0.9447  0.8975 -0.5412
 3119SOL    MW412250   0.262   6.164   1.903  0.0179  0.1100  0.3840
 3120SOL     OW12251   6.101   5.380   3.274 -0.5220  0.3834  0.1183
 3120SOL    HW212252   6.060   5.383   3.361  0.2139  1.2100  0.4641
 3120SOL    HW312253   6.090   5.469   3.240 -1.9341 -0.2512 -1.2056
 3120SOL    MW412254   6.094   5.392   3.281 -0.6112  0.4087 -0.0108
 3121SOL     OW12255   5.343   0.946   2.539  0.0599 -0.3161 -0.7832
 3121SOL    HW212256   5.423   0.991   2.512  0.5887 -0.7917 -0.0499
 3121SOL    HW312257   5.303   1.006   2.602  0.1245 -0.3229 -0.7355
 3121SOL    MW412258   5.348   0.960   2.544  0.1382 -0.3797 -0.6801
 3122SOL     OW12259   3.951   5.061   0.535 -0.5624 -0.4695  0.3747
 3122SOL    HW212260   4.026   5.114   0.563  1.0796 -1.4636 -1.8599
 3122SOL    HW312261   3.948   5.072   0.440 -1.2827 -2.9066  0.0472
 3122SOL    MW412262   3.961   5.069   0.526 -0.4408 -0.9222  0.0367
 3123SOL     OW12263   6.419   6.087   0.759  0.4848  0.3260  0.2660
 3123SOL    HW212264   6.393   6.027   0.689 -0.1884 -1.3533  1.8786
 3123SOL    HW312265   6.430   6.031   0.835  1.9685  2.0004  1.3422
 3123SOL    MW412266   6.417   6.072   0.760  0.5917  0.3253  0.6207
 3124SOL     OW12267   3.501   6.082   3.352 -0.1879  0.2518 -0.2504
 3124SOL    HW212268   3.415   6.088   3.309 -0.3973 -0.7639 -0.0058
 3124SOL    HW312269   3.485   6.025   3.428  0.6552  0.2528 -0.0696
 3124SOL    MW412270   3.487   6.075   3.356 -0.1043  0.1179 -0.1943
 3125SOL     OW12271   4.878   4.125   0.580 -0.4791 -0.2688  0.2487
 3125SOL    HW212272   4.860   4.147   0.489 -0.3442 -0.8358  0.0798
 3125SOL    HW312273   4.798   4.148   0.627 -0.3535  0.5470  0.0842
 3125SOL    MW412274   4.865   4.131   0.574 -0.4447 -0.2360  0.2047
 3126SOL     OW12275   1.283   5.571   2.393 -0.3066  0.6903 -0.1683
 3126SOL    HW212276   1.194   5.536   2.399 -0.0014 -0.2685 -0.9856
 3126SOL    HW312277   1.333   5.520   2.458 -0.6337  2.2744  1.4201
 3126SOL    MW412278   1.278   5.560   2.403 -0.3095  0.7728 -0.0665
 3127SOL     OW12279   2.020   2.045   6.225 -0.2653  0.0565  0.2317
 3127SOL    HW212280   2.063   2.018   6.307 -1.7554  0.8270  1.3175
 3127SOL    HW312281   1.933   2.007   6.231 -0.2185 -0.3375 -1.2941
 3127SOL    MW412282   2.014   2.037   6.237 -0.4557  0.1062  0.1736
 3128SOL     OW12283   3.401   1.357   0.596 -0.1176  0.0848  0.0874
 3128SOL    HW212284   3.488   1.373   0.634 -0.5137  1.6616  0.3924
 3128SOL    HW312285   3.386   1.263   0.611  2.3977 -0.7459 -1.8318
 3128SOL    MW412286   3.411   1.347   0.603  0.1620  0.1832 -0.1256
 3129SOL     OW12287   6.094   5.068   3.630  0.0914 -0.3688 -0.4908
 3129SOL    HW212288   6.089   5.153   3.675 -0.1243 -0.3506 -0.5500
 3129SOL    HW312289   6.144   5.087   3.550  0.0095 -0.2898 -0.5238
 3129SOL    MW412290   6.100   5.082   3.626  0.0521 -0.3560 -0.5030
 3130SOL     OW12291   5.435   1.561   2.695  0.2079  0.0499  0.5311
 3130SOL    HW212292   5.498   1.573   2.623  1.2748  1.1364  1.5985
 3130SOL    HW312293   5.352   1.591   2.658  0.7699  0.7384 -0.2214
 3130SOL    MW412294   5.432   1.567   2.680  0.4228  0.2841  0.5727
 3131SOL     OW12295   3.227   5.036   2.028 -0.3341  0.0330 -0.4639
 3131SOL    HW212296   3.273   4.968   1.979  0.9346 -0.1545  0.9268
 3131SOL    HW312297   3.208   4.995   2.113 -1.7680  0.6140 -0.4843
 3131SOL    MW412298   3.230   5.021   2.033 -0.3559  0.0849 -0.2831
 3132SOL     OW12299   6.350   3.708   3.989 -0.2294 -0.2401  0.2989
 3132SOL    HW212300   6.381   3.717   3.899  0.8525 -0.9111  0.5901
 3132SOL    HW312301   6.426   3.678   4.038 -1.1939 -1.4602  1.1403
 3132SOL    MW412302   6.364   3.705   3.984 -0.2139 -0.4896  0.4484
 3133SOL     OW12303   1.344   2.979   5.527  0.3154 -0.1414 -0.3150
 3133SOL    HW212304   1.389   3.062   5.514  0.2807 -0.2288 -1.0284
 3133SOL    HW312305   1.264   2.987   5.475 -0.0142 -0.3644  0.1541
 3133SOL    MW412306   1.339   2.991   5.518  0.2673 -0.1824 -0.3472
 3134SOL     OW12307   0.209   2.898   0.156  0.7989  0.2724  0.6238
 3134SOL    HW212308   0.131   2.900   0.101 -0.6161  0.1575  2.5139
 3134SOL    HW312309   0.266   2.833   0.114 -0.4888 -0.2903 -0.3275
 3134SOL    MW412310   0.206   2.889   0.143  0.4423  0.1830  0.7477
 3135SOL     OW12311   3.782   1.843   3.776  0.4329 -0.2360  0.0776
 3135SOL    HW212312   3.720   1.800   3.835  1.1418 -0.6059  0.5630
 3135SOL    HW312313   3.792   1.931   3.814 -0.8066  0.3033 -0.7626
 3135SOL    MW412314   3.775   1.849   3.789  0.3629 -0.2136  0.0308
 3136SOL     OW12315   0.330   3.139   0.157  0.1513  0.3343 -0.1024
 3136SOL    HW212316   0.279   3.058   0.152 -1.7430  1.4697 -0.0136
 3136SOL    HW312317   0.316   3.182   0.072  0.4754  0.9520  0.1494
 3136SOL    MW412318   0.322   3.134   0.145 -0.0558  0.5656 -0.0575
 3137SOL     OW12319   1.876   3.698   5.448  0.0739  0.2994  0.0620
 3137SOL    HW212320   1.873   3.609   5.411  1.0022  0.1980  0.2256
 3137SOL    HW312321   1.901   3.754   5.374 -2.9121  0.8225 -0.7003
 3137SOL    MW412322   1.879   3.694   5.433 -0.1976  0.3551 -0.0170
 3138SOL     OW12323   1.197   0.819   0.410  0.3023  0.0843 -0.4548
 3138SOL    HW212324   1.285   0.842   0.441  0.1613 -0.0853  0.0808
 3138SOL    HW312325   1.160   0.902   0.379 -0.5656  0.8536  2.3480
 3138SOL    MW412326   1.204   0.833   0.410  0.1692  0.1634 -0.0143
 3139SOL     OW12327   2.619   0.920   3.199  0.0392  0.2398  0.3230
 3139SOL    HW212328   2.697   0.960   3.236  0.0621 -0.1334  0.6804
 3139SOL    HW312329   2.627   0.827   3.219  0.3979 -0.0922 -1.2170
 3139SOL    MW412330   2.630   0.913   3.206  0.0896  0.1467  0.1670
 3140SOL     OW12331   1.966   0.448   3.784 -0.7506 -0.0753 -0.3745
 3140SOL    HW212332   1.950   0.503   3.708  1.2171  0.7573 -0.2515
 3140SOL    HW312333   2.039   0.491   3.830  0.1438 -2.1831  0.3068
 3140SOL    MW412334   1.974   0.461   3.780 -0.3730 -0.2435 -0.2684
 3141SOL     OW12335   2.777   4.272   3.373 -0.3642 -0.3930 -0.2418
 3141SOL    HW212336   2.751   4.358   3.406  0.0903 -0.6813  0.9185
 3141SOL    HW312337   2.860   4.253   3.416 -0.6249 -1.5612 -0.2115
 3141SOL    MW412338   2.784   4.281   3.383 -0.3386 -0.5852 -0.0847
 3142SOL     OW12339   2.863   1.534   0.676 -0.2885 -0.0039  0.5005
 3142SOL    HW212340   2.937   1.531   0.737  0.5486  0.0795 -0.4936
 3142SOL    HW312341   2.902   1.534   0.589 -1.4644 -0.0636 -0.0576
 3142SOL    MW412342   2.878   1.534   0.673 -0.3332 -0.0008  0.2957
 3143SOL     OW12343   1.470   2.728   1.284  0.1072 -0.5052  0.4971
 3143SOL    HW212344   1.521   2.805   1.261  1.4415 -1.4078  0.3150
 3143SOL    HW312345   1.467   2.677   1.203  1.8676 -2.0504  1.3246
 3143SOL    MW412346   1.477   2.731   1.270  0.5155 -0.8281  0.5822
 3144SOL     OW12347   4.947   2.606   4.907  0.1195  0.1041 -0.4082
 3144SOL    HW212348   4.996   2.568   4.980 -0.9762  0.2558  0.4255
 3144SOL    HW312349   4.987   2.692   4.894  0.4830 -0.0232 -0.1484
 3144SOL    MW412350   4.959   2.613   4.915  0.0229  0.1073 -0.2639
 3145SOL     OW12351   3.052   1.721   3.731  0.8597  0.1976  0.3006
 3145SOL    HW212352   3.097   1.757   3.807  0.7191  0.4728  0.2545
 3145SOL    HW312353   3.020   1.636   3.761  1.1975  0.1035  0.4078
 3145SOL    MW412354   3.054   1.714   3.745  0.8857  0.2215  0.3087
 3146SOL     OW12355   2.024   2.624   5.951 -0.4448 -0.7032 -0.0754
 3146SOL    HW212356   2.037   2.718   5.940 -1.5133 -0.6994 -1.7503
 3146SOL    HW312357   1.969   2.616   6.029  0.6111 -0.0529  0.7675
 3146SOL    MW412358   2.018   2.636   5.960 -0.4464 -0.6169 -0.1852
 3147SOL     OW12359   6.203   6.151   2.866 -0.2692 -0.2375  0.2514
 3147SOL    HW212360   6.207   6.193   2.780  0.5514  0.3958  0.5907
 3147SOL    HW312361   6.179   6.221   2.926  2.0676  0.0418  0.9668
 3147SOL    MW412362   6.200   6.165   2.863  0.1474 -0.1171  0.3905
 3148SOL     OW12363   1.062   3.026   6.390 -0.0901 -0.4026 -0.0092
 3148SOL    HW212364   1.042   2.933   6.390  0.9471 -0.6694 -1.4963
 3148SOL    HW312365   1.158   3.029   6.399 -0.1096  0.5028 -0.0500
 3148SOL    MW412366   1.072   3.014   6.391  0.0441 -0.3184 -0.2108
 3149SOL     OW12367   6.139   6.108   4.048 -0.0358  0.3308 -0.7825
 3149SOL    HW212368   6.086   6.186   4.034 -2.2101 -0.6748  1.0949
 3149SOL    HW312369   6.227   6.141   4.062 -0.9616  2.5392  0.3889
 3149SOL    MW412370   6.143   6.122   4.048 -0.4448  0.4895 -0.3802
 3150SOL     OW12371   2.620   6.374   3.261  0.0205 -0.0185 -0.2216
 3150SOL    HW212372   2.677   6.415   3.196 -1.0098 -0.7021 -1.5839
 3150SOL    HW312373   2.586   6.296   3.219  1.1885 -1.8525  1.9941
 3150SOL    MW412374   2.623   6.369   3.247  0.0387 -0.3507 -0.1090
 3151SOL     OW12375   3.246   3.734   2.440 -0.6297  0.1793 -0.2973
 3151SOL    HW212376   3.176   3.761   2.380 -1.9478 -0.9132  0.6906
 3151SOL    HW312377   3.260   3.642   2.419  0.5633  0.3949 -0.5019
 3151SOL    MW412378   3.238   3.726   2.429 -0.6462  0.0636 -0.1940
 3152SOL     OW12379   0.777   1.463   3.571  0.8190  0.3506 -0.0287
 3152SOL    HW212380   0.770   1.408   3.493  0.5540 -0.1726  0.3582
 3152SOL    HW312381   0.865   1.446   3.604  1.1049  0.9349 -0.4759
 3152SOL    MW412382   0.787   1.453   3.565  0.8217  0.3587 -0.0366
 3153SOL     OW12383   2.645   1.808   4.579 -0.5398  0.2686  0.3011
 3153SOL    HW212384   2.553   1.787   4.594 -0.5864  1.2134  1.4693
 3153SOL    HW312385   2.691   1.725   4.597 -1.2095 -0.4676 -1.2249
 3153SOL    MW412386   2.639   1.794   4.583 -0.6343  0.2961  0.2539
 3154SOL     OW12387   5.326   1.966   1.112  0.1222  0.0370  0.0346
 3154SOL    HW212388   5.296   2.045   1.157 -1.9415 -2.1279  2.8475
 3154SOL    HW312389   5.389   1.927   1.172  0.0748 -1.1088 -0.6253
 3154SOL    MW412390   5.330   1.971   1.126 -0.1563 -0.3998  0.3187
 3155SOL     OW12391   2.188   3.480   2.510 -0.6477 -0.4976  0.3384
 3155SOL    HW212392   2.188   3.412   2.442 -2.3470  0.9003 -1.1807
 3155SOL    HW312393   2.252   3.450   2.574  0.5413 -2.2583 -1.5323
 3155SOL    MW412394   2.197   3.467   2.509 -0.7151 -0.5455 -0.1088
 3156SOL     OW12395   2.038   5.502   0.003 -0.2528  0.1790  0.0119
 3156SOL    HW212396   2.034   5.589   0.044  1.9007  0.7113 -0.7293
 3156SOL    HW312397   1.974   5.450   0.050 -0.3273  1.6924  1.7059
 3156SOL    MW412398   2.029   5.507   0.015  0.0215  0.4489  0.1376
 3157SOL     OW12399   1.710   4.932   2.028  0.2094 -0.3278 -0.5911
 3157SOL    HW212400   1.705   4.958   1.936 -0.2446  1.5054 -0.0982
 3157SOL    HW312401   1.624   4.895   2.047 -0.3002  0.8441 -0.5084
 3157SOL    MW412402   1.698   4.931   2.018  0.0823  0.0687 -0.5151
 3158SOL     OW12403   1.072   2.860   4.695  0.2642 -0.3395 -0.4186
 3158SOL    HW212404   1.078   2.850   4.790 -1.3637 -0.7999 -0.3278
 3158SOL    HW312405   1.010   2.932   4.682  2.1618  1.2357 -1.1531
 3158SOL    MW412406   1.064   2.868   4.706  0.2998 -0.1924 -0.5035
 3159SOL     OW12407   3.825   1.140   4.835 -0.0960  0.8561  0.1614
 3159SOL    HW212408   3.775   1.065   4.802 -1.0542  0.3334  2.6382
 3159SOL    HW312409   3.759   1.200   4.869  0.8407  1.2606  1.3297
 3159SOL    MW412410   3.810   1.138   4.835 -0.0989  0.8405  0.6423
 3160SOL     OW12411   2.190   0.221   1.141 -0.0306  0.1584  0.8485
 3160SOL    HW212412   2.122   0.155   1.158  0.8157 -1.1938 -0.6636
 3160SOL    HW312413   2.158   0.269   1.065  0.9185 -0.8806 -0.2456
 3160SOL    MW412414   2.177   0.218   1.133  0.2063 -0.1571  0.5047
 3161SOL     OW12415   1.733   1.958   0.900 -0.2518 -0.5586  0.5952
 3161SOL    HW212416   1.820   1.993   0.881  0.1036 -1.4043  0.5827
 3161SOL    HW312417   1.745   1.863   0.896 -0.7986 -0.7273  2.2785
 3161SOL    MW412418   1.746   1.950   0.897 -0.2770 -0.6924  0.8157
 3162SOL     OW12419   4.724   6.008   3.874  0.3186 -0.6039 -0.0923
 3162SOL    HW212420   4.764   6.045   3.953 -0.8450  2.1451 -0.6837
 3162SOL    HW312421   4.655   5.951   3.906  0.9810 -0.8951  0.8621
 3162SOL    MW412422   4.720   6.005   3.888  0.2524 -0.2796 -0.0444
 3163SOL     OW12423   4.993   3.861   2.097 -0.4112 -0.1265  0.3180
 3163SOL    HW212424   4.958   3.816   2.020 -0.6025 -1.3631  1.0975
 3163SOL    HW312425   5.059   3.921   2.061  0.9676 -2.1125 -0.7066
 3163SOL    MW412426   4.997   3.863   2.082 -0.2546 -0.5517  0.2857
 3164SOL     OW12427   5.137   0.156   1.989 -0.2614  0.1010 -0.1737
 3164SOL    HW212428   5.181   0.177   1.907 -1.5971  0.5270 -0.7890
 3164SOL    HW312429   5.044   0.168   1.972 -0.7214 -1.5367  0.8824
 3164SOL    MW412430   5.131   0.160   1.976 -0.4983 -0.0589 -0.1155
 3165SOL     OW12431   4.858   3.762   4.014 -0.7096  0.4334  0.1938
 3165SOL    HW212432   4.941   3.725   3.983 -1.2694 -0.1242 -0.6844
 3165SOL    HW312433   4.795   3.742   3.945 -2.0605 -0.9924  1.7611
 3165SOL    MW412434   4.861   3.755   4.001 -0.9617  0.1717  0.2847
 3166SOL     OW12435   1.236   1.983   5.783  0.2391  0.0637 -0.1291
 3166SOL    HW212436   1.318   1.936   5.796 -0.2417 -0.5280  0.8571
 3166SOL    HW312437   1.175   1.917   5.750  0.5970  0.8792 -2.6948
 3166SOL    MW412438   1.239   1.968   5.780  0.2229  0.0932 -0.3375
 3167SOL     OW12439   5.004   0.388   3.858  0.0744  0.4345 -0.5461
 3167SOL    HW212440   5.077   0.326   3.854  0.4223  0.5685  1.9200
 3167SOL    HW312441   4.930   0.335   3.887 -0.4127  0.6060 -1.4600
 3167SOL    MW412442   5.004   0.372   3.861  0.0560  0.4748 -0.3413
 3168SOL     OW12443   2.714   2.226   2.730 -0.5226 -0.0503  0.1143
 3168SOL    HW212444   2.744   2.300   2.783 -2.4381  0.5605  0.4443
 3168SOL    HW312445   2.765   2.231   2.649  1.8581 -0.4886  1.5067
 3168SOL    MW412446   2.725   2.237   2.726 -0.4612 -0.0276  0.3416
 3169SOL     OW12447   0.469   5.211   3.988 -0.2686 -0.5408  0.7356
 3169SOL    HW212448   0.546   5.202   4.044  0.1648  0.5589  0.3434
 3169SOL    HW312449   0.401   5.245   4.046 -0.2788 -0.8826  0.9311
 3169SOL    MW412450   0.471   5.214   4.003 -0.2127 -0.4408  0.7096
 3170SOL     OW12451   3.393   5.254   0.947 -0.5171 -0.5378 -0.5745
 3170SOL    HW212452   3.389   5.350   0.946  1.6303 -0.3835  0.8130
 3170SOL    HW312453   3.407   5.232   1.039  0.1649 -2.1199 -1.0333
 3170SOL    MW412454   3.394   5.264   0.959 -0.1438 -0.7261 -0.4520
 3171SOL     OW12455   3.796   2.906   2.506  0.0541  0.7138  0.5513
 3171SOL    HW212456   3.837   2.884   2.589  0.3070  3.9625  1.4232
 3171SOL    HW312457   3.722   2.962   2.529  0.3365  1.9951 -1.3913
 3171SOL    MW412458   3.791   2.910   2.520  0.1247  1.3115  0.4101
 3172SOL     OW12459   4.522   4.816   1.747 -0.0391  0.1721 -0.0578
 3172SOL    HW212460   4.499   4.727   1.773 -1.0140  0.4002 -0.1014
 3172SOL    HW312461   4.580   4.846   1.817 -1.0570  0.0808  0.8516
 3172SOL    MW412462   4.527   4.808   1.760 -0.3020  0.1901  0.0565
 3173SOL     OW12463   4.778   0.832   1.658 -0.0708  0.1363  0.2225
 3173SOL    HW212464   4.733   0.903   1.704 -0.5278  0.2353 -0.3594
 3173SOL    HW312465   4.860   0.820   1.706  0.1098  1.2044  0.1998
 3173SOL    MW412466   4.782   0.840   1.671 -0.1073  0.2903  0.1427
 3174SOL     OW12467   5.470   4.415   6.087 -0.0123  0.4277 -0.1623
 3174SOL    HW212468   5.415   4.463   6.025 -2.0276 -2.8270 -1.0998
 3174SOL    HW312469   5.514   4.349   6.034  1.3497  0.1011  1.3060
 3174SOL    MW412470   5.469   4.413   6.072 -0.0985 -0.0448 -0.0922
 3175SOL     OW12471   2.184   1.520   5.248  0.2973  0.2874 -0.0967
 3175SOL    HW212472   2.121   1.466   5.200  0.2070  0.6362 -0.3733
 3175SOL    HW312473   2.227   1.459   5.308  0.4513 -0.1676 -0.6610
 3175SOL    MW412474   2.181   1.505   5.249  0.3057  0.2734 -0.2077
 3176SOL     OW12475   6.249   3.225   4.990 -0.0475  0.5113  0.2999
 3176SOL    HW212476   6.273   3.236   5.082  0.4927  0.4848  0.1687
 3176SOL    HW312477   6.253   3.314   4.953 -1.9719  0.7998  0.6832
 3176SOL    MW412478   6.253   3.239   4.997 -0.2301  0.5459  0.3331
 3177SOL     OW12479   1.531   5.449   6.069 -0.1574  0.5043  0.4572
 3177SOL    HW212480   1.505   5.508   5.998 -0.2902  0.3228  0.3548
 3177SOL    HW312481   1.608   5.490   6.107  1.9920 -1.0222 -1.9195
 3177SOL    MW412482   1.538   5.462   6.065  0.1087  0.2789  0.1301
 3178SOL     OW12483   0.878   0.537   1.417  0.2597  0.1220  0.1068
 3178SOL    HW212484   0.928   0.515   1.339  1.3455 -0.7838  1.0102
 3178SOL    HW312485   0.810   0.470   1.422  1.1533 -0.7739  0.7454
 3178SOL    MW412486   0.876   0.525   1.408  0.5209 -0.1157  0.3103
 3179SOL     OW12487   4.664   3.530   0.789  0.6489  0.1830  0.2863
 3179SOL    HW212488   4.744   3.543   0.738 -0.6544 -0.9947 -2.2189
 3179SOL    HW312489   4.596   3.576   0.739 -0.8894 -1.8940  0.3498
 3179SOL    MW412490   4.665   3.538   0.776  0.2740 -0.2464 -0.0359
 3180SOL     OW12491   5.079   1.880   5.348  0.4877 -0.2837  0.1418
 3180SOL    HW212492   4.989   1.912   5.352  0.9236  1.0489 -0.3196
 3180SOL    HW312493   5.070   1.784   5.349 -0.9393 -0.1795 -0.2666
 3180SOL    MW412494   5.066   1.871   5.349  0.3569 -0.0942  0.0271
 3181SOL     OW12495   0.827   5.035   5.670  0.4933 -0.0635 -0.5212
 3181SOL    HW212496   0.805   4.966   5.732 -0.2141 -1.0081 -1.7645
 3181SOL    HW312497   0.911   5.008   5.632  1.2033  0.7977  0.4025
 3181SOL    MW412498   0.835   5.022   5.673  0.4936 -0.0745 -0.5634
 3182SOL     OW12499   2.856   0.396   0.258 -0.6308  0.3201 -0.1642
 3182SOL    HW212500   2.949   0.409   0.241 -0.2354 -2.8114 -0.9958
 3182SOL    HW312501   2.812   0.433   0.182 -0.1474  2.0096  0.3310
 3182SOL    MW412502   2.862   0.403   0.246 -0.5149  0.1298 -0.2085
 3183SOL     OW12503   0.410   3.795   0.180 -0.1863  0.1310 -0.3996
 3183SOL    HW212504   0.504   3.803   0.200 -0.0521  1.7724 -1.5188
 3183SOL    HW312505   0.408   3.751   0.095 -0.4007  0.6860 -0.6821
 3183SOL    MW412506   0.422   3.790   0.171 -0.1969  0.4208 -0.5846
 3184SOL     OW12507   2.970   4.661   4.595 -0.3391 -0.0200 -0.1528
 3184SOL    HW212508   2.968   4.602   4.520  1.2202  0.7422 -0.8414
 3184SOL    HW312509   2.881   4.697   4.600 -1.0870 -1.7555 -0.2198
 3184SOL    MW412510   2.958   4.658   4.586 -0.2321 -0.1484 -0.2525
 3185SOL     OW12511   5.864   6.008   0.523  0.1639 -0.6345 -0.1639
 3185SOL    HW212512   5.939   5.987   0.578 -0.5488  0.4845  1.3192
 3185SOL    HW312513   5.800   5.938   0.542  0.0744 -0.4760  0.1219
 3185SOL    MW412514   5.865   5.996   0.533  0.0581 -0.4660  0.0695
 3186SOL     OW12515   6.280   2.407   6.352  0.5528  0.0799 -0.3067
 3186SOL    HW212516   6.222   2.467   6.304 -0.2636 -0.1388  0.3727
 3186SOL    HW312517   6.335   2.465   6.404  0.9730  0.2935 -0.9811
 3186SOL    MW412518   6.279   2.423   6.352  0.5005  0.0792 -0.3060
 3187SOL     OW12519   3.818   0.403   2.396 -0.4427 -0.1625 -0.0538
 3187SOL    HW212520   3.913   0.413   2.405 -0.5534  0.0305  0.9204
 3187SOL    HW312521   3.808   0.322   2.346  0.2077 -1.1006  1.2709
 3187SOL    MW412522   3.829   0.394   2.390 -0.3715 -0.2608  0.2495
 3188SOL     OW12523   1.781   0.674   2.970 -0.4207 -0.3157 -0.0915
 3188SOL    HW212524   1.846   0.616   3.009 -0.3676 -0.5580 -0.5278
 3188SOL    HW312525   1.815   0.692   2.882 -0.2121  0.7442  0.2006
 3188SOL    MW412526   1.794   0.669   2.963 -0.3861 -0.2078 -0.1105
 3189SOL     OW12527   4.730   1.561   5.394  0.3780 -0.0995  0.0951
 3189SOL    HW212528   4.671   1.627   5.358 -1.3906 -1.5186  0.2316
 3189SOL    HW312529   4.675   1.510   5.454  1.8394 -1.2793  0.4980
 3189SOL    MW412530   4.715   1.563   5.397  0.3374 -0.4424  0.1663
 3190SOL     OW12531   6.418   3.010   0.033 -0.1443  0.0216 -0.6206
 3190SOL    HW212532   6.383   3.099   0.028 -2.3153 -0.7771 -1.0067
 3190SOL    HW312533   6.391   2.969  -0.049  0.6802 -1.0471 -0.3804
 3190SOL    MW412534   6.410   3.016   0.021 -0.3220 -0.2248 -0.6398
 3191SOL     OW12535   0.470   0.895   0.460 -0.2897 -0.1798 -0.0007
 3191SOL    HW212536   0.477   0.970   0.520 -1.0003 -0.9029  1.0266
 3191SOL    HW312537   0.543   0.839   0.484 -0.0850 -0.0772 -0.3870
 3191SOL    MW412538   0.480   0.898   0.471 -0.3565 -0.2617  0.0838
 3192SOL     OW12539   2.034   2.845   1.487  0.0733 -0.3243  0.2935
 3192SOL    HW212540   2.011   2.888   1.405  2.6018 -0.8442 -0.7949
 3192SOL    HW312541   2.045   2.753   1.464  0.4640 -0.5466  1.3051
 3192SOL    MW412542   2.033   2.838   1.473  0.4584 -0.4223  0.2834
 3193SOL     OW12543   2.650   0.771   2.386 -0.4879  0.1236  0.1368
 3193SOL    HW212544   2.622   0.680   2.377  0.1757 -0.1118  0.4450
 3193SOL    HW312545   2.650   0.787   2.481 -0.2257  0.3230  0.1039
 3193SOL    MW412546   2.646   0.761   2.397 -0.3658  0.1188  0.1731
 3194SOL     OW12547   0.344   2.251   4.406 -0.5536  0.7973 -0.3103
 3194SOL    HW212548   0.254   2.272   4.428 -0.1585  2.0024  0.2355
 3194SOL    HW312549   0.384   2.225   4.489 -0.3656  0.3765 -0.5282
 3194SOL    MW412550   0.338   2.250   4.420 -0.4767  0.9008 -0.2670
 3195SOL     OW12551   5.402   1.811   1.504  0.4708 -0.7629  0.6253
 3195SOL    HW212552   5.439   1.876   1.564 -0.6770  0.2362  0.2788
 3195SOL    HW312553   5.338   1.763   1.556 -0.0586 -0.3289  0.3804
 3195SOL    MW412554   5.399   1.813   1.518  0.2495 -0.5738  0.5472
 3196SOL     OW12555   4.091   3.392   5.872 -0.1555  0.1893 -0.5617
 3196SOL    HW212556   4.065   3.300   5.877 -2.0129  0.7187  3.2185
 3196SOL    HW312557   4.186   3.391   5.886 -0.0342 -1.1414 -1.2747
 3196SOL    MW412558   4.100   3.380   5.875 -0.3846  0.0836 -0.1570
 3197SOL     OW12559   5.484   1.225   1.050 -0.1747 -0.3217  0.1532
 3197SOL    HW212560   5.408   1.280   1.067 -0.3797 -0.4987 -0.1669
 3197SOL    HW312561   5.448   1.148   1.006  0.1612 -0.5107  0.2037
 3197SOL    MW412562   5.470   1.222   1.047 -0.1574 -0.3700  0.1177
 3198SOL     OW12563   1.646   5.314   3.252 -0.3551 -0.1143  0.0565
 3198SOL    HW212564   1.610   5.350   3.171  1.1928  1.1245 -0.1370
 3198SOL    HW312565   1.698   5.239   3.224 -0.8197 -0.4389  0.0556
 3198SOL    MW412566   1.648   5.309   3.238 -0.2122  0.0063  0.0309
 3199SOL     OW12567   0.529   0.840   3.703 -0.0869  0.0912 -0.6126
 3199SOL    HW212568   0.592   0.912   3.697  0.1027 -0.0155  0.0076
 3199SOL    HW312569   0.444   0.882   3.709  0.1489  0.3489  1.6381
 3199SOL    MW412570   0.526   0.855   3.703 -0.0308  0.1111 -0.2338
 3200SOL     OW12571   1.858   0.934   0.507 -0.4917  0.4542 -0.3896
 3200SOL    HW212572   1.854   0.929   0.602  1.5771  1.7392 -0.1612
 3200SOL    HW312573   1.921   0.867   0.482  0.2279  1.2125 -0.6649
 3200SOL    MW412574   1.866   0.925   0.516 -0.1238  0.7238 -0.3958
 3201SOL     OW12575   4.114   1.932   3.647  0.1246  0.6939  0.3237
 3201SOL    HW212576   4.105   1.869   3.718  0.3839  0.6964  0.3595
 3201SOL    HW312577   4.035   1.921   3.595  0.7387 -0.5769 -0.4048
 3201SOL    MW412578   4.103   1.922   3.649  0.2399  0.5266  0.2323
 3202SOL     OW12579   4.303   2.208   2.746 -0.2514  0.2338  0.4231
 3202SOL    HW212580   4.347   2.123   2.753  1.2621  0.9435 -0.1223
 3202SOL    HW312581   4.253   2.202   2.664 -2.2259 -1.0073  1.6369
 3202SOL    MW412582   4.302   2.196   2.736 -0.3122  0.1637  0.5113
 3203SOL     OW12583   3.408   5.551   2.558 -0.0120 -0.2315 -0.2698
 3203SOL    HW212584   3.354   5.555   2.637  0.0864  1.1087 -0.2550
 3203SOL    HW312585   3.352   5.586   2.489  0.3483 -0.1881 -0.5430
 3203SOL    MW412586   3.393   5.556   2.559  0.0485 -0.0490 -0.3039
 3204SOL     OW12587   0.638   4.188   3.550  0.0038  0.0233  0.1424
 3204SOL    HW212588   0.685   4.172   3.468  2.3202  1.5673  1.0874
 3204SOL    HW312589   0.670   4.120   3.609  0.1629  0.3813  0.4662
 3204SOL    MW412590   0.648   4.177   3.547  0.3304  0.2742  0.3098
 3205SOL     OW12591   0.222   3.299   4.736  0.4106  0.4475  0.4060
 3205SOL    HW212592   0.148   3.274   4.680  1.5991  1.0700 -1.5449
 3205SOL    HW312593   0.280   3.223   4.734  0.0313  0.0994  1.6412
 3205SOL    MW412594   0.220   3.285   4.728  0.5174  0.4837  0.3116
 3206SOL     OW12595   4.214   4.387   4.354  0.0294 -0.1246 -0.3184
 3206SOL    HW212596   4.271   4.378   4.278 -1.2458  1.2908 -1.5261
 3206SOL    HW312597   4.153   4.314   4.348  0.2939 -0.3452 -0.3227
 3206SOL    MW412598   4.213   4.376   4.344 -0.1040  0.0331 -0.4783
 3207SOL     OW12599   4.187   5.612   4.032  0.0297 -0.3378 -0.0194
 3207SOL    HW212600   4.162   5.575   4.116 -0.6874  0.1859  0.0022
 3207SOL    HW312601   4.133   5.567   3.968  1.7101 -1.9257 -0.4280
 3207SOL    MW412602   4.177   5.602   4.035  0.1568 -0.4782 -0.0704
 3208SOL     OW12603   0.868   2.432   0.757  0.0334  0.1432 -0.2319
 3208SOL    HW212604   0.774   2.440   0.741  0.3563  2.0336 -1.5699
 3208SOL    HW312605   0.895   2.358   0.703 -0.5647  0.0645 -0.4294
 3208SOL    MW412606   0.860   2.423   0.748 -0.0029  0.3822 -0.4345
 3209SOL     OW12607   5.518   6.395   1.430  0.2433 -0.3760 -0.6768
 3209SOL    HW212608   5.474   6.402   1.515  0.1223 -2.1345 -0.5527
 3209SOL    HW312609   5.586   6.461   1.433 -0.1088 -0.0407  0.5831
 3209SOL    MW412610   5.521   6.404   1.442  0.1809 -0.5637 -0.4942
 3210SOL     OW12611   3.248   1.072   5.350 -0.3603  0.1852 -0.0533
 3210SOL    HW212612   3.264   0.991   5.301 -0.7187  0.3925 -0.5238
 3210SOL    HW312613   3.320   1.077   5.412 -1.1872 -1.3261  1.0940
 3210SOL    MW412614   3.259   1.062   5.351 -0.5167  0.0132  0.0360
 3211SOL     OW12615   0.487   1.405   3.096  0.1515 -0.1042 -0.2438
 3211SOL    HW212616   0.543   1.469   3.052 -0.9309  0.5488 -0.7304
 3211SOL    HW312617   0.474   1.441   3.184 -0.7309  0.5450 -0.6253
 3211SOL    MW412618   0.492   1.419   3.102 -0.1078  0.0676 -0.3583
 3212SOL     OW12619   2.084   1.940   4.124  0.2556  0.2633  0.0804
 3212SOL    HW212620   2.147   1.967   4.058 -0.3803 -1.8355 -1.5059
 3212SOL    HW312621   2.137   1.902   4.194  0.9096  2.1681  0.6940
 3212SOL    MW412622   2.099   1.939   4.125  0.2580  0.2377 -0.0480
 3213SOL     OW12623   3.708   5.769   0.232 -0.0001  0.3663  0.0830
 3213SOL    HW212624   3.678   5.844   0.180  0.0088  1.1590  1.1863
 3213SOL    HW312625   3.719   5.699   0.168 -1.1397  0.9610 -0.8185
 3213SOL    MW412626   3.705   5.769   0.217 -0.1493  0.5494  0.1096
 3214SOL     OW12627   2.157   5.068   1.273 -0.2218  0.1678  0.5899
 3214SOL    HW212628   2.130   5.121   1.348 -0.7404  1.2768 -0.3543
 3214SOL    HW312629   2.245   5.100   1.252 -0.7736  1.1143 -0.3585
 3214SOL    MW412630   2.165   5.080   1.280 -0.3630  0.4390  0.3402
 3215SOL     OW12631   1.450   1.832   4.032  0.0337  0.4077 -0.3996
 3215SOL    HW212632   1.395   1.774   3.980  1.4023 -1.2301 -0.1089
 3215SOL    HW312633   1.425   1.814   4.123  1.0408 -0.4168 -0.2592
 3215SOL    MW412634   1.440   1.822   4.037  0.3471  0.0828 -0.3427
 3216SOL     OW12635   5.239   4.340   5.684 -0.2494  0.2985  0.3030
 3216SOL    HW212636   5.147   4.321   5.670  0.0876 -1.3181  0.1380
 3216SOL    HW312637   5.263   4.395   5.608 -0.5404 -1.1882 -0.9145
 3216SOL    MW412638   5.230   4.345   5.672 -0.2433 -0.1109  0.1206
 3217SOL     OW12639   4.018   6.168   0.923 -0.1770 -0.1370  0.2115
 3217SOL    HW212640   4.028   6.116   0.843 -0.5498 -0.0944  0.1367
 3217SOL    HW312641   4.007   6.258   0.893  3.1583  0.4649  0.3928
 3217SOL    MW412642   4.018   6.173   0.908  0.2139 -0.0520  0.2255
 3218SOL     OW12643   1.443   4.135   3.748 -0.1635  0.5144 -0.1888
 3218SOL    HW212644   1.498   4.086   3.809 -1.2521  0.9825  1.2299
 3218SOL    HW312645   1.421   4.071   3.680 -1.7530 -1.1254  1.7400
 3218SOL    MW412646   1.447   4.120   3.747 -0.5168  0.3598  0.2529
 3219SOL     OW12647   1.557   0.636   6.291  0.4208 -0.5806  0.4230
 3219SOL    HW212648   1.504   0.574   6.240  1.3930  0.2547 -1.7248
 3219SOL    HW312649   1.532   0.722   6.257  1.9491 -0.0664  0.5451
 3219SOL    MW412650   1.546   0.639   6.280  0.7507 -0.4025  0.1558
 3220SOL     OW12651   0.637   2.301   5.367  0.2394 -0.0055  0.0143
 3220SOL    HW212652   0.693   2.378   5.356 -0.6342  0.4948 -1.2381
 3220SOL    HW312653   0.612   2.302   5.460 -1.5146  2.5549 -0.3660
 3220SOL    MW412654   0.641   2.311   5.378 -0.1072  0.3983 -0.2011
 3221SOL     OW12655   2.408   5.017   2.773 -0.1124  0.1957  0.1818
 3221SOL    HW212656   2.411   5.110   2.751  1.6678  1.2213  3.9581
 3221SOL    HW312657   2.498   4.997   2.801 -1.2501 -1.6007  2.9541
 3221SOL    MW412658   2.421   5.027   2.774 -0.0276  0.0940  1.0458
 3222SOL     OW12659   5.921   2.691   5.251  0.2726  0.3457 -0.2562
 3222SOL    HW212660   5.966   2.670   5.332 -0.0333  1.5588  0.2461
 3222SOL    HW312661   5.960   2.774   5.222 -1.5495  1.4000  0.1589
 3222SOL    MW412662   5.932   2.699   5.258 -0.0082  0.6449 -0.1351
 3223SOL     OW12663   0.872   2.902   3.220  0.3801 -0.2967 -0.1131
 3223SOL    HW212664   0.860   2.987   3.178  0.5160 -0.4954 -0.5547
 3223SOL    HW312665   0.955   2.870   3.187  1.6537  0.5477  2.0456
 3223SOL    MW412666   0.881   2.909   3.210  0.5661 -0.2115  0.1134
 3224SOL     OW12667   1.215   0.066   3.111  0.1744  0.7372  0.1377
 3224SOL    HW212668   1.139   0.114   3.077 -0.1872 -0.1809 -0.3837
 3224SOL    HW312669   1.229   0.103   3.198 -1.7307  0.0055  0.8061
 3224SOL    MW412670   1.207   0.078   3.118 -0.1247  0.5196  0.1571
 3225SOL     OW12671   5.730   3.075   5.676 -0.5008 -0.0726 -0.2785
 3225SOL    HW212672   5.792   3.109   5.612  0.9794 -0.1253  1.0551
 3225SOL    HW312673   5.712   2.986   5.647  0.6894 -0.3334 -0.2730
 3225SOL    MW412674   5.736   3.068   5.664 -0.1485 -0.1140 -0.1018
 3226SOL     OW12675   2.227   3.707   1.579  0.2244 -0.0147  0.4287
 3226SOL    HW212676   2.224   3.749   1.493 -1.4006 -0.3004  0.3030
 3226SOL    HW312677   2.208   3.777   1.641  0.6635  0.0507  0.4881
 3226SOL    MW412678   2.224   3.722   1.576  0.0679 -0.0437  0.4200
 3227SOL     OW12679   1.591   3.952   5.177  0.5740  0.0338  0.4169
 3227SOL    HW212680   1.573   3.892   5.105  0.2198 -0.2526  0.7384
 3227SOL    HW312681   1.628   4.029   5.136  1.9570 -0.7753  0.0819
 3227SOL    MW412682   1.593   3.954   5.162  0.7097 -0.1107  0.4151
 3228SOL     OW12683   1.716   5.285   2.854 -0.4315 -0.1623  0.3471
 3228SOL    HW212684   1.799   5.333   2.851  0.5292 -1.7613  0.4724
 3228SOL    HW312685   1.656   5.344   2.900  0.8926  0.6419  1.0869
 3228SOL    MW412686   1.719   5.299   2.860 -0.1300 -0.2671  0.4612
 3229SOL     OW12687   0.181   0.026   3.131  0.2132 -0.1405 -0.0083
 3229SOL    HW212688   0.099  -0.010   3.165  0.1904 -2.3234 -2.0997
 3229SOL    HW312689   0.154   0.102   3.079 -0.3181 -0.0021  0.4635
 3229SOL    MW412690   0.167   0.031   3.129  0.1401 -0.4102 -0.2220
 3230SOL     OW12691   3.701   0.229   3.109  0.3685  0.3496  0.3499
 3230SOL    HW212692   3.643   0.217   3.035  0.9068 -0.1741  0.0011
 3230SOL    HW312693   3.701   0.324   3.125  1.5888  0.7138 -1.4447
 3230SOL    MW412694   3.693   0.240   3.102  0.6005  0.3285  0.0671
 3231SOL     OW12695   5.700   3.371   2.450 -0.1956  0.1758  0.1142
 3231SOL    HW212696   5.648   3.321   2.513 -0.6187 -0.2865 -0.5898
 3231SOL    HW312697   5.639   3.393   2.380 -0.2659  2.5164  0.8313
 3231SOL    MW412698   5.685   3.368   2.449 -0.2607  0.4236  0.1160
 3232SOL     OW12699   5.555   6.391   4.326  0.2324  0.6954  0.6666
 3232SOL    HW212700   5.589   6.399   4.415  1.2473  0.5254  0.3140
 3232SOL    HW312701   5.632   6.372   4.273 -0.5500 -0.6417 -0.0499
 3232SOL    MW412702   5.570   6.390   4.330  0.2631  0.4965  0.5255
 3233SOL     OW12703   0.300   5.440   5.587  0.2747  0.0617  0.3263
 3233SOL    HW212704   0.249   5.400   5.517 -3.5204  0.5876  2.4845
 3233SOL    HW312705   0.341   5.366   5.631 -1.5596 -0.8966  0.5477
 3233SOL    MW412706   0.298   5.425   5.584 -0.4680  0.0047  0.6403
 3234SOL     OW12707   4.922   1.173   3.572 -0.3745 -0.1766  0.7620
 3234SOL    HW212708   4.984   1.234   3.612 -0.6892  1.4793 -1.1133
 3234SOL    HW312709   4.872   1.137   3.646  2.4498 -1.2445  2.2946
 3234SOL    MW412710   4.923   1.176   3.587 -0.0434 -0.0991  0.7168
 3235SOL     OW12711   2.260   5.487   3.613  1.2893 -0.2296  0.4822
 3235SOL    HW212712   2.184   5.489   3.671  1.1133  0.2564  0.2369
 3235SOL    HW312713   2.232   5.536   3.536  0.3932 -3.4560 -1.4209
 3235SOL    MW412714   2.246   5.494   3.611  1.1478 -0.5912  0.1988
 3236SOL     OW12715   3.904   1.486   2.496 -0.2884 -0.4125  0.1230
 3236SOL    HW212716   3.970   1.462   2.431  0.6503  0.0433  0.8734
 3236SOL    HW312717   3.954   1.526   2.568 -1.4385  0.5266  0.4486
 3236SOL    MW412718   3.919   1.488   2.497 -0.3163 -0.2285  0.2650
 3237SOL     OW12719   0.025   5.777   6.162  0.0377  0.0567 -0.1931
 3237SOL    HW212720   0.014   5.702   6.220 -0.0817  0.7426  0.6794
 3237SOL    HW312721   0.098   5.825   6.198 -0.3149  0.7251 -0.3546
 3237SOL    MW412722   0.033   5.773   6.174 -0.0245  0.2353 -0.0993
 3238SOL     OW12723   4.340   2.811   1.811 -0.6119 -0.3466 -0.0405
 3238SOL    HW212724   4.343   2.828   1.905 -1.4489  0.0885 -0.0862
 3238SOL    HW312725   4.279   2.876   1.776 -0.7151 -0.8382 -0.8103
 3238SOL    MW412726   4.332   2.822   1.819 -0.7359 -0.3540 -0.1481
 3239SOL     OW12727   4.962   3.488   0.786 -1.0661  0.1527  0.4544
 3239SOL    HW212728   5.007   3.460   0.866  0.0545 -0.2272 -0.2896
 3239SOL    HW312729   5.001   3.573   0.766 -1.3192  0.2309  0.2899
 3239SOL    MW412730   4.973   3.496   0.794 -0.9516  0.1129  0.3345
 3240SOL     OW12731   0.925   1.526   5.649 -0.5680 -0.0228  0.4608
 3240SOL    HW212732   0.841   1.493   5.683 -1.1614 -0.2738 -1.1563
 3240SOL    HW312733   0.900   1.597   5.590  0.3944  0.1352  0.2321
 3240SOL    MW412734   0.910   1.531   5.645 -0.5193 -0.0351  0.2173
 3241SOL     OW12735   3.419   5.691   4.561 -0.3637 -0.2545  0.9111
 3241SOL    HW212736   3.491   5.670   4.620  0.0402 -0.6987  0.2711
 3241SOL    HW312737   3.450   5.767   4.511  0.0163 -0.9672  0.0417
 3241SOL    MW412738   3.433   5.698   4.562 -0.2602 -0.4072  0.7120
 3242SOL     OW12739   2.445   2.559   4.459  0.3278 -0.0193 -0.4268
 3242SOL    HW212740   2.388   2.483   4.442 -1.7149  1.2818  0.3207
 3242SOL    HW312741   2.529   2.534   4.420 -1.5331 -0.7967 -4.5253
 3242SOL    MW412742   2.449   2.545   4.451 -0.1872  0.0498 -0.8689
 3243SOL     OW12743   6.003   1.112   4.710  0.3132 -0.6245 -0.1467
 3243SOL    HW212744   5.938   1.133   4.643  1.6568  1.2150 -0.9852
 3243SOL    HW312745   6.065   1.053   4.666 -0.1827 -1.4794  0.2959
 3243SOL    MW412746   6.003   1.107   4.695  0.4251 -0.4946 -0.1989
 3244SOL     OW12747   5.123   5.179   0.659  0.4309  0.1276 -0.1932
 3244SOL    HW212748   5.068   5.115   0.704 -0.1384 -0.2624 -1.4042
 3244SOL    HW312749   5.205   5.132   0.641  0.7709  0.3707  0.6387
 3244SOL    MW412750   5.127   5.164   0.663  0.4006  0.1082 -0.2432
 3245SOL     OW12751   5.878   0.094   0.929 -0.4119  0.1293 -0.3464
 3245SOL    HW212752   5.943   0.139   0.983 -1.3636  0.3516  0.6442
 3245SOL    HW312753   5.899   0.002   0.938 -0.2807  0.1962  0.0448
 3245SOL    MW412754   5.889   0.088   0.937 -0.5202  0.1674 -0.1641
 3246SOL     OW12755   0.035   6.170   5.022 -0.1685  0.0751 -0.4408
 3246SOL    HW212756   0.046   6.076   5.036 -3.1482 -0.4341 -0.7084
 3246SOL    HW312757  -0.031   6.196   5.087 -0.6449  1.5934 -1.4687
 3246SOL    MW412758   0.028   6.161   5.033 -0.6245  0.2082 -0.6117
 3247SOL     OW12759   3.587   3.804   1.392 -0.5574  0.4724  0.1301
 3247SOL    HW212760   3.667   3.752   1.394  0.9961  2.7644  1.4732
 3247SOL    HW312761   3.533   3.761   1.325  2.2590 -0.4581 -1.7346
 3247SOL    MW412762   3.590   3.791   1.383  0.0192  0.6520  0.0613
 3248SOL     OW12763   0.243   0.751   3.334  0.0602 -0.5099  0.1052
 3248SOL    HW212764   0.259   0.693   3.260 -1.9481  0.1364 -0.9036
 3248SOL    HW312765   0.276   0.702   3.410  0.3962 -2.0207 -0.9642
 3248SOL    MW412766   0.250   0.737   3.334 -0.1604 -0.6240 -0.1690
 3249SOL     OW12767   3.163   2.280   2.029  0.1540  0.1883 -0.1757
 3249SOL    HW212768   3.214   2.317   1.957 -1.0439  0.8766 -0.6983
 3249SOL    HW312769   3.084   2.248   1.988  0.1695 -0.9178  0.6171
 3249SOL    MW412770   3.160   2.281   2.014 -0.0020  0.1332 -0.1401
 3250SOL     OW12771   1.666   0.954   1.635  0.2611 -0.7762 -0.0429
 3250SOL    HW212772   1.700   1.044   1.638  0.3240 -0.8269  1.8564
 3250SOL    HW312773   1.671   0.930   1.542  1.0020  0.8847 -0.4754
 3250SOL    MW412774   1.671   0.963   1.623  0.3671 -0.5638  0.1506
 3251SOL     OW12775   5.747   1.612   1.725 -0.0009 -0.1542  0.1573
 3251SOL    HW212776   5.786   1.659   1.799  0.7944 -0.6554  0.0653
 3251SOL    HW312777   5.653   1.615   1.742  0.2240 -0.9973  1.6349
 3251SOL    MW412778   5.740   1.619   1.737  0.1337 -0.3316  0.3401
 3252SOL     OW12779   1.607   3.952   6.088  0.8432  0.0078 -0.0652
 3252SOL    HW212780   1.601   3.972   5.994  0.7051 -1.5067 -0.4140
 3252SOL    HW312781   1.698   3.968   6.111  1.8305 -2.9872 -1.3620
 3252SOL    MW412782   1.618   3.957   6.078  0.9553 -0.5871 -0.2823
 3253SOL     OW12783   5.767   0.117   3.696  0.5754  0.7856  0.0426
 3253SOL    HW212784   5.727   0.139   3.780  2.0922  2.1386  0.4662
 3253SOL    HW312785   5.693   0.105   3.637 -0.4953  1.0689  1.2720
 3253SOL    MW412786   5.752   0.119   3.699  0.6343  1.0015  0.2607
 3254SOL     OW12787   1.251   1.977   3.103  0.1627  0.2300  0.1744
 3254SOL    HW212788   1.255   1.905   3.166  1.4696  1.0390  1.0622
 3254SOL    HW312789   1.170   2.024   3.124 -1.3351 -1.5921 -1.1689
 3254SOL    MW412790   1.241   1.974   3.114  0.1375  0.0963  0.1143
 3255SOL     OW12791   0.965   0.030   3.816 -0.3552  0.4170 -0.4708
 3255SOL    HW212792   0.974  -0.036   3.747  2.3153  1.0879 -0.8680
 3255SOL    HW312793   0.985  -0.016   3.897 -0.5462  0.2850 -0.4993
 3255SOL    MW412794   0.969   0.016   3.817 -0.0280  0.4881 -0.5270
 3256SOL     OW12795   2.938   0.779   1.224 -0.2901 -0.8420  0.3358
 3256SOL    HW212796   2.986   0.831   1.159  0.3141 -0.7749  0.8326
 3256SOL    HW312797   2.966   0.689   1.208 -0.9827 -0.9654 -0.2176
 3256SOL    MW412798   2.948   0.774   1.213 -0.3017 -0.8495  0.3283
 3257SOL     OW12799   2.521   5.458   5.336 -0.0247 -0.3974  0.2409
 3257SOL    HW212800   2.508   5.404   5.414  1.0067 -0.3394  0.4656
 3257SOL    HW312801   2.616   5.462   5.325 -0.1657 -0.6898 -1.2219
 3257SOL    MW412802   2.532   5.452   5.345  0.0928 -0.4283  0.0775
 3258SOL     OW12803   0.932   3.350   0.310 -0.5891 -0.2078 -0.9027
 3258SOL    HW212804   0.961   3.259   0.304  0.5285  0.1110 -0.6437
 3258SOL    HW312805   1.013   3.401   0.318 -1.2502  0.6506  1.0542
 3258SOL    MW412806   0.947   3.345   0.310 -0.5288 -0.0525 -0.6103
 3259SOL     OW12807   1.984   5.597   4.417 -1.6718  0.3857  0.4486
 3259SOL    HW212808   1.913   5.595   4.353 -3.0836  3.8117  1.6544
 3259SOL    HW312809   2.050   5.656   4.379 -0.5432 -0.8934  0.3706
 3259SOL    MW412810   1.983   5.605   4.404 -1.7092  0.6690  0.5974
 3260SOL     OW12811   5.243   0.343   0.230 -0.2706  0.5924 -0.2069
 3260SOL    HW212812   5.328   0.303   0.250 -1.9544 -3.1526  0.2640
 3260SOL    HW312813   5.197   0.344   0.314 -1.6299 -0.0285 -0.9129
 3260SOL    MW412814   5.248   0.338   0.244 -0.6721  0.0164 -0.2379
 3261SOL     OW12815   1.310   0.118   1.232  0.3289  0.0223 -0.0928
 3261SOL    HW212816   1.253   0.132   1.307 -0.6108  0.9827 -0.9445
 3261SOL    HW312817   1.321   0.205   1.194  1.7810 -0.2581 -0.3814
 3261SOL    MW412818   1.304   0.131   1.237  0.3965  0.1120 -0.2433
 3262SOL     OW12819   6.098   1.649   4.574 -0.7249  0.0836  0.1498
 3262SOL    HW212820   6.058   1.710   4.636 -0.9939  0.3207 -0.2530
 3262SOL    HW312821   6.103   1.566   4.622  1.0453  0.7740  1.2405
 3262SOL    MW412822   6.093   1.646   4.588 -0.5269  0.2060  0.2406
 3263SOL     OW12823   0.785   1.811   0.239 -0.2162 -0.1468  0.9807
 3263SOL    HW212824   0.840   1.885   0.211 -0.9059 -0.2133 -0.6456
 3263SOL    HW312825   0.846   1.751   0.282  1.0228 -0.2620 -0.8472
 3263SOL    MW412826   0.800   1.813   0.241 -0.1437 -0.1708  0.5250
 3264SOL     OW12827   2.337   0.953   3.697 -0.1906 -0.1722  0.1327
 3264SOL    HW212828   2.405   0.993   3.643  1.4364 -1.6205  1.0019
 3264SOL    HW312829   2.367   0.967   3.787 -1.2978 -0.4241  0.5509
 3264SOL    MW412830   2.350   0.960   3.702 -0.1220 -0.3965  0.3026
 3265SOL     OW12831   3.570   5.772   5.167  0.1195  0.3803 -0.1448
 3265SOL    HW212832   3.588   5.771   5.261 -0.6889 -2.6401  0.0911
 3265SOL    HW312833   3.655   5.784   5.127  0.7836 -0.2893  0.9976
 3265SOL    MW412834   3.583   5.773   5.174  0.1005 -0.1066  0.0371
 3266SOL     OW12835   2.679   1.537   2.578 -0.0260 -0.0390  0.2877
 3266SOL    HW212836   2.701   1.522   2.670  2.4695 -2.6353 -0.5885
 3266SOL    HW312837   2.716   1.623   2.558 -0.2480  0.3844  1.5610
 3266SOL    MW412838   2.687   1.546   2.588  0.2739 -0.3257  0.3401
 3267SOL     OW12839   5.974   1.071   0.247 -0.7627 -0.4739 -0.2016
 3267SOL    HW212840   5.911   1.022   0.195  0.3169  0.6642 -2.7315
 3267SOL    HW312841   6.052   1.015   0.250 -0.3817  0.0047 -0.9515
 3267SOL    MW412842   5.976   1.057   0.241 -0.5700 -0.2606 -0.6343
 3268SOL     OW12843   4.372   4.064   1.082 -0.3113 -0.4510 -0.2025
 3268SOL    HW212844   4.368   3.995   1.148  0.7720 -0.3983 -0.0643
 3268SOL    HW312845   4.464   4.089   1.079 -0.7026  1.0699 -0.1673
 3268SOL    MW412846   4.384   4.058   1.090 -0.2200 -0.2434 -0.1796
 3269SOL     OW12847   5.094   3.698   1.380  0.0674 -0.6064 -0.2261
 3269SOL    HW212848   5.013   3.686   1.429  0.1657  0.3252  0.2031
 3269SOL    HW312849   5.142   3.617   1.392 -0.5121 -0.9116  0.0796
 3269SOL    MW412850   5.090   3.686   1.388  0.0039 -0.5237 -0.1292
 3270SOL     OW12851   0.677   2.794   6.009  0.2290  0.4957  0.0197
 3270SOL    HW212852   0.686   2.889   5.998 -0.4159  0.4801 -0.7279
 3270SOL    HW312853   0.635   2.783   6.095 -0.5927  0.9421 -0.3133
 3270SOL    MW412854   0.673   2.805   6.019  0.0355  0.5525 -0.1229
 3271SOL     OW12855   2.922   2.191   1.939  0.1892  0.2643 -0.3544
 3271SOL    HW212856   2.914   2.109   1.891 -1.4051  1.1448 -1.7064
 3271SOL    HW312857   2.859   2.183   2.011 -0.0143  0.3236 -0.5253
 3271SOL    MW412858   2.913   2.179   1.942 -0.0480  0.3883 -0.5553
 3272SOL     OW12859   4.325   2.053   4.532  0.1890 -0.1973  0.3095
 3272SOL    HW212860   4.394   2.107   4.571 -1.0520  2.6590 -1.1226
 3272SOL    HW312861   4.361   1.964   4.533  2.7645  0.7251  1.9861
 3272SOL    MW412862   4.339   2.048   4.538  0.3651  0.3012  0.3417
 3273SOL     OW12863   2.160   5.026   2.956 -0.0441  0.0026  0.0883
 3273SOL    HW212864   2.225   5.025   2.886 -0.2841  0.1508 -0.1412
 3273SOL    HW312865   2.203   4.984   3.030 -0.1398 -1.1210 -0.4766
 3273SOL    MW412866   2.174   5.020   2.956 -0.0884 -0.1261 -0.0165
 3274SOL     OW12867   4.500   4.377   5.627  0.1559 -0.1866  0.6754
 3274SOL    HW212868   4.419   4.327   5.624  0.5335 -1.1418  3.4186
 3274SOL    HW312869   4.479   4.454   5.680  1.0304 -0.5065  1.5188
 3274SOL    MW412870   4.487   4.381   5.634  0.3211 -0.3548  1.1486
 3275SOL     OW12871   1.764   5.613   4.250  0.2442  0.6884  0.9092
 3275SOL    HW212872   1.693   5.594   4.311 -0.2751 -1.4052 -0.2346
 3275SOL    HW312873   1.744   5.559   4.173  2.6120  0.7040  0.2159
 3275SOL    MW412874   1.752   5.603   4.248  0.4881  0.4142  0.6668
 3276SOL     OW12875   5.055   3.973   5.455 -0.2259  0.3298  0.3590
 3276SOL    HW212876   5.096   3.955   5.370 -1.0278 -0.8551  0.1884
 3276SOL    HW312877   5.049   4.068   5.459  0.1815  0.4220 -0.7456
 3276SOL    MW412878   5.059   3.983   5.444 -0.2780  0.1857  0.1907
 3277SOL     OW12879   1.607   4.638   3.126 -0.3430  0.1252 -0.2471
 3277SOL    HW212880   1.523   4.602   3.097  0.2983 -1.5148 -0.1706
 3277SOL    HW312881   1.646   4.569   3.179 -0.3603  2.0988  2.5153
 3277SOL    MW412882   1.601   4.625   3.129 -0.2606  0.1692  0.1275
 3278SOL     OW12883   4.441   3.987   6.003  0.5733  0.0161 -0.1730
 3278SOL    HW212884   4.466   3.897   5.983  0.8342 -0.1581  0.8966
 3278SOL    HW312885   4.512   4.040   5.967  0.3953 -0.1961 -0.8490
 3278SOL    MW412886   4.454   3.982   5.995  0.5843 -0.0349 -0.1211
 3279SOL     OW12887   4.082   1.358   2.346  0.5405 -0.3076 -0.5204
 3279SOL    HW212888   4.046   1.346   2.258  1.2652 -0.9512 -0.7442
 3279SOL    HW312889   4.084   1.269   2.383  1.1801 -0.1782 -0.2325
 3279SOL    MW412890   4.077   1.344   2.340  0.7205 -0.3755 -0.5120
 3280SOL     OW12891   1.604   0.518   1.386  0.0990  0.2382  0.3581
 3280SOL    HW212892   1.626   0.492   1.297  1.1057  0.1328  0.6178
 3280SOL    HW312893   1.687   0.510   1.434 -0.0649  1.7851  0.9532
 3280SOL    MW412894   1.618   0.514   1.381  0.2102  0.4284  0.4709
 3281SOL     OW12895   1.046   6.025   1.421 -0.0629 -0.1830  0.1271
 3281SOL    HW212896   1.062   6.118   1.404  0.0924 -0.3952 -0.9582
 3281SOL    HW312897   1.010   5.992   1.339  1.9925 -1.5530 -0.2978
 3281SOL    MW412898   1.043   6.033   1.408  0.2288 -0.3918 -0.0722
 3282SOL     OW12899   3.911   3.413   1.255 -0.4024 -0.0085 -0.0690
 3282SOL    HW212900   3.865   3.437   1.174 -1.1055 -0.0997  0.2999
 3282SOL    HW312901   3.843   3.409   1.321  0.3853  1.7457  0.9310
 3282SOL    MW412902   3.896   3.416   1.253 -0.3912  0.2109  0.1116
 3283SOL     OW12903   2.774   5.025   5.946 -0.3615  0.2288 -0.0595
 3283SOL    HW212904   2.810   4.939   5.922  1.0483  0.5312  0.8280
 3283SOL    HW312905   2.779   5.076   5.865  1.5690  0.3418  0.0771
 3283SOL    MW412906   2.780   5.021   5.932  0.0792  0.2836  0.0756
 3284SOL     OW12907   4.542   2.055   2.821 -0.2538 -0.2382  0.0323
 3284SOL    HW212908   4.638   2.053   2.824 -0.2208 -0.4355 -0.9561
 3284SOL    HW312909   4.517   2.102   2.901  0.7820  2.3855 -1.0861
 3284SOL    MW412910   4.551   2.061   2.832 -0.1128  0.0819 -0.2456
 3285SOL     OW12911   5.916   1.357   5.323  0.2281 -0.3310 -0.1535
 3285SOL    HW212912   5.938   1.444   5.356 -1.8915  0.0215  0.4881
 3285SOL    HW312913   5.975   1.344   5.248  0.4610  1.7396 -0.3972
 3285SOL    MW412914   5.926   1.367   5.317 -0.0208 -0.0113 -0.1010
 3286SOL     OW12915   1.096   6.336   2.855  0.6227 -0.0267 -0.2003
 3286SOL    HW212916   1.028   6.289   2.904  0.3369 -1.5656 -1.9776
 3286SOL    HW312917   1.111   6.416   2.906 -1.1738 -0.5364  1.2300
 3286SOL    MW412918   1.089   6.341   2.868  0.3480 -0.2970 -0.2461
 3287SOL     OW12919   0.318   1.521   2.158  1.0026  0.4732  0.7697
 3287SOL    HW212920   0.349   1.607   2.188 -1.1400  1.1948  1.1235
 3287SOL    HW312921   0.233   1.511   2.200  0.4027 -1.0418 -0.7002
 3287SOL    MW412922   0.311   1.531   2.168  0.6408  0.3685  0.6225
 3288SOL     OW12923   2.342   2.281   5.720 -0.3888 -0.2739  0.1699
 3288SOL    HW212924   2.354   2.262   5.627 -0.9238  2.0753 -0.4437
 3288SOL    HW312925   2.429   2.302   5.753 -0.0905 -1.7826  0.4058
 3288SOL    MW412926   2.355   2.281   5.712 -0.4201 -0.1630  0.1201
 3289SOL     OW12927   4.767   3.523   5.491 -0.1870 -0.0242 -0.3500
 3289SOL    HW212928   4.853   3.506   5.530 -0.4538  0.0779  0.2934
 3289SOL    HW312929   4.772   3.615   5.463  0.5045 -0.4893 -1.8932
 3289SOL    MW412930   4.779   3.533   5.492 -0.1310 -0.0721 -0.4687
 3290SOL     OW12931   3.379   4.806   5.546  0.1071  0.7263  0.5152
 3290SOL    HW212932   3.325   4.883   5.530  0.4424  0.6549 -1.2389
 3290SOL    HW312933   3.337   4.737   5.494  1.3086  0.4188 -0.0742
 3290SOL    MW412934   3.366   4.807   5.537  0.3098  0.6763  0.2060
 3291SOL     OW12935   1.527   5.072   0.291  0.5523  0.1386  0.2823
 3291SOL    HW212936   1.458   5.030   0.342 -0.9711  2.8515  0.6037
 3291SOL    HW312937   1.528   5.024   0.208 -0.7009 -0.8742  0.8185
 3291SOL    MW412938   1.518   5.060   0.287  0.1859  0.3629  0.3954
 3292SOL     OW12939   3.133   5.188   3.559 -0.0976 -0.3353  0.7039
 3292SOL    HW212940   3.147   5.132   3.483 -1.0696 -1.0385  1.0217
 3292SOL    HW312941   3.201   5.162   3.621 -0.4420 -1.0700  0.7834
 3292SOL    MW412942   3.144   5.177   3.557 -0.2713 -0.5250  0.7563
 3293SOL     OW12943   4.374   1.316   5.991  0.0433 -0.5361  0.0630
 3293SOL    HW212944   4.319   1.295   5.916  1.2285  0.5471 -1.1675
 3293SOL    HW312945   4.426   1.236   6.005 -0.1185 -0.7182 -0.3506
 3293SOL    MW412946   4.374   1.302   5.983  0.1783 -0.4172 -0.1539
 3294SOL     OW12947   1.479   5.662   5.888  0.3142 -0.1228  0.7504
 3294SOL    HW212948   1.411   5.630   5.830  1.1718 -0.9220  0.1551
 3294SOL    HW312949   1.557   5.669   5.833  0.3826  2.2912  1.0300
 3294SOL    MW412950   1.481   5.659   5.873  0.4364  0.0902  0.7088
 3295SOL     OW12951   1.062   5.744   5.723  0.2199 -0.0863  0.5252
 3295SOL    HW212952   1.143   5.700   5.695  1.4186  1.6744  1.0805
 3295SOL    HW312953   1.000   5.726   5.653  1.2868 -0.9617 -0.2249
 3295SOL    MW412954   1.065   5.736   5.710  0.5188  0.0305  0.4995
 3296SOL     OW12955   4.670   0.548   2.635  0.2456  0.6114 -0.7960
 3296SOL    HW212956   4.611   0.527   2.563  0.0359 -0.2857 -0.3715
 3296SOL    HW312957   4.722   0.469   2.648 -1.2275 -0.1019  1.4738
 3296SOL    MW412958   4.669   0.535   2.627  0.0236  0.3989 -0.4405
 3297SOL     OW12959   1.654   2.697   0.440 -0.2971  0.0330 -0.6601
 3297SOL    HW212960   1.655   2.625   0.377 -0.6790  1.0646 -1.8725
 3297SOL    HW312961   1.709   2.765   0.401 -1.8982  1.3477 -0.7322
 3297SOL    MW412962   1.661   2.696   0.427 -0.5588  0.3426 -0.8296
 3298SOL     OW12963   5.379   5.458   2.617 -0.4163 -0.2077  0.9284
 3298SOL    HW212964   5.291   5.483   2.589 -1.0545 -1.8858  1.3276
 3298SOL    HW312965   5.387   5.366   2.593  1.5828  0.1325  0.0902
 3298SOL    MW412966   5.368   5.449   2.610 -0.2368 -0.3842  0.8705
 3299SOL     OW12967   4.512   3.407   5.103  0.6936 -0.3696  0.5752
 3299SOL    HW212968   4.576   3.368   5.162  1.8039  0.2299 -0.1890
 3299SOL    HW312969   4.466   3.472   5.156  0.8308 -0.6852  1.0840
 3299SOL    MW412970   4.514   3.410   5.118  0.8582 -0.3321  0.5415
 3300SOL     OW12971   5.968   1.173   0.506 -0.5458  0.3502 -0.4880
 3300SOL    HW212972   5.966   1.151   0.412 -3.1524  1.2644 -0.7185
 3300SOL    HW312973   5.968   1.268   0.508 -0.2019  0.3374  0.4715
 3300SOL    MW412974   5.968   1.183   0.494 -0.8444  0.4691 -0.3918
 3301SOL     OW12975   3.193   2.600   1.036  0.2039  0.2409  0.6423
 3301SOL    HW212976   3.269   2.641   0.996 -0.5826 -0.5087 -1.7482
 3301SOL    HW312977   3.228   2.527   1.087  1.0220 -1.7141 -2.4739
 3301SOL    MW412978   3.208   2.596   1.038  0.2081 -0.1159 -0.0842
 3302SOL     OW12979   0.428   4.695   4.444 -0.3715  0.5011 -0.1405
 3302SOL    HW212980   0.493   4.628   4.422 -1.6395 -0.9851  0.4057
 3302SOL    HW312981   0.452   4.724   4.532 -2.3248 -2.6513  1.6417
 3302SOL    MW412982   0.440   4.690   4.453 -0.7965 -0.1109  0.1667
 3303SOL     OW12983   0.389   6.322   2.947  0.2004  0.3258 -0.0440
 3303SOL    HW212984   0.335   6.392   2.985  0.3967 -0.6144  2.1607
 3303SOL    HW312985   0.451   6.367   2.891 -0.2006  1.8369  0.6743
 3303SOL    MW412986   0.390   6.337   2.945  0.1734  0.4011  0.3417
 3304SOL     OW12987   0.350   1.776   0.427 -0.3482 -0.2832  0.0708
 3304SOL    HW212988   0.308   1.814   0.350 -1.0493  0.5507  0.8453
 3304SOL    HW312989   0.301   1.696   0.444 -2.0799  0.9844  1.3253
 3304SOL    MW412990   0.338   1.771   0.419 -0.6692 -0.0059  0.3385
 3305SOL     OW12991   5.412   0.669   1.870 -0.5311 -0.1989 -0.0068
 3305SOL    HW212992   5.366   0.704   1.794 -2.0901 -0.5883  0.7249
 3305SOL    HW312993   5.403   0.736   1.938 -0.1089 -0.3324  0.1873
 3305SOL    MW412994   5.405   0.682   1.869 -0.6811 -0.2679  0.1154
 3306SOL     OW12995   5.656   6.321   3.347 -0.5325  0.3875 -0.7556
 3306SOL    HW212996   5.603   6.305   3.269  1.3455  0.4972 -2.1242
 3306SOL    HW312997   5.704   6.402   3.327  0.0523  0.3650  0.4761
 3306SOL    MW412998   5.655   6.330   3.334 -0.2076  0.3990 -0.7736
 3307SOL     OW12999   5.944   2.358   2.301  0.7012 -0.4632 -0.0828
 3307SOL    HW213000   5.923   2.280   2.352 -0.1034 -0.0785  0.1925
 3307SOL    HW313001   5.922   2.431   2.358 -0.6551 -0.0179 -1.1366
 3307SOL    MW413002   5.939   2.357   2.315  0.4161 -0.3537 -0.1855
 3308SOL     OW13003   1.369   1.100   1.495  0.2803 -0.0565  0.0471
 3308SOL    HW213004   1.294   1.153   1.468 -0.2273 -0.3381  0.8821
 3308SOL    HW313005   1.342   1.060   1.578  1.5359  0.2405  0.6248
 3308SOL    MW413006   1.356   1.102   1.502  0.3790 -0.0545  0.2335
 3309SOL     OW13007   0.728   3.481   0.699 -0.3999  0.5904  0.5713
 3309SOL    HW213008   0.795   3.429   0.743  0.7477  0.9780 -0.6533
 3309SOL    HW313009   0.766   3.567   0.689 -0.4414  0.4144 -1.4965
 3309SOL    MW413010   0.742   3.485   0.703 -0.2539  0.6183  0.1369
 3310SOL     OW13011   2.559   2.785   1.361 -0.0529  0.0423 -0.0499
 3310SOL    HW213012   2.492   2.796   1.293  2.4829  0.9618 -2.5987
 3310SOL    HW313013   2.548   2.861   1.418 -2.0374 -0.5769  0.4708
 3310SOL    MW413014   2.549   2.796   1.359  0.0198  0.0819 -0.3175
 3311SOL     OW13015   4.434   4.797   0.381  0.0842 -0.4375 -0.2608
 3311SOL    HW213016   4.512   4.800   0.325  0.8650 -0.1017  0.8060
 3311SOL    HW313017   4.457   4.736   0.451 -0.2218  0.4114  0.6024
 3311SOL    MW413018   4.448   4.790   0.383  0.1468 -0.2812 -0.0061
 3312SOL     OW13019   1.328   0.207   1.639 -0.7904  0.3208 -0.1990
 3312SOL    HW213020   1.321   0.277   1.575 -2.9637  0.6222  0.2937
 3312SOL    HW313021   1.369   0.248   1.715 -1.7930  1.0414 -0.0145
 3312SOL    MW413022   1.332   0.221   1.641 -1.2094  0.4556 -0.1097
 3313SOL     OW13023   6.318   2.461   1.299 -0.1451  0.3069  0.0496
 3313SOL    HW213024   6.380   2.390   1.282 -1.0389 -0.4072 -0.3470
 3313SOL    HW313025   6.362   2.517   1.362  0.1562 -1.2194  1.2739
 3313SOL    MW413026   6.332   2.459   1.305 -0.2233  0.0113  0.1588
 3314SOL     OW13027   0.286   3.589   4.816  0.6112 -0.8299  0.0146
 3314SOL    HW213028   0.292   3.502   4.777 -0.8263  0.0000 -2.3105
 3314SOL    HW313029   0.371   3.629   4.800  1.3646 -1.8398  1.3133
 3314SOL    MW413030   0.298   3.583   4.808  0.5209 -0.8537 -0.1209
 3315SOL     OW13031   1.899   2.311   5.833  0.0067 -0.2341 -0.4240
 3315SOL    HW213032   1.893   2.273   5.921 -0.3790  1.0811  0.1431
 3315SOL    HW313033   1.978   2.366   5.837  0.2565 -0.5383 -1.0594
 3315SOL    MW413034   1.909   2.313   5.845 -0.0112 -0.1007 -0.4330
 3316SOL     OW13035   0.557   1.058   0.678 -0.4844 -0.1133 -0.2170
 3316SOL    HW213036   0.577   1.061   0.771  0.0536 -0.5063 -0.3125
 3316SOL    HW313037   0.634   1.017   0.638  0.2230  1.9882 -1.1185
 3316SOL    MW413038   0.569   1.053   0.685 -0.3201  0.1121 -0.3485
 3317SOL     OW13039   1.450   2.931   6.144  0.2566  0.1494 -0.2709
 3317SOL    HW213040   1.533   2.921   6.190  1.3105  0.0460 -2.0746
 3317SOL    HW313041   1.412   2.843   6.144  0.0800  0.2143  0.6279
 3317SOL    MW413042   1.456   2.918   6.150  0.3724  0.1444 -0.3903
 3318SOL     OW13043   4.417   3.043   5.096  0.5424 -0.0777  0.2866
 3318SOL    HW213044   4.444   3.106   5.162  0.8180 -0.3291  0.4159
 3318SOL    HW313045   4.364   2.980   5.143  0.1902  0.1074  0.1387
 3318SOL    MW413046   4.414   3.043   5.111  0.5323 -0.0865  0.2842
 3319SOL     OW13047   6.194   0.967   5.297  0.0123  0.1183  0.4953
 3319SOL    HW213048   6.256   1.035   5.269 -1.8065  1.9010  0.5416
 3319SOL    HW313049   6.181   0.983   5.391  0.7879 -1.3783  0.8869
 3319SOL    MW413050   6.200   0.978   5.306 -0.1253  0.1560  0.5531
 3320SOL     OW13051   2.686   4.079   6.220  0.2940 -0.2360 -0.0704
 3320SOL    HW213052   2.615   4.042   6.167  0.6588 -1.4448  0.2565
 3320SOL    HW313053   2.742   4.124   6.157 -1.4585  1.9637 -0.1798
 3320SOL    MW413054   2.684   4.080   6.205  0.1109 -0.1053 -0.0417
 3321SOL     OW13055   4.218   4.581   4.557  0.3760 -0.4174 -0.3241
 3321SOL    HW213056   4.255   4.651   4.503 -0.1538 -0.8298 -1.2569
 3321SOL    HW313057   4.203   4.509   4.496 -0.0556 -0.9746  0.4166
 3321SOL    MW413058   4.221   4.581   4.542  0.2491 -0.5453 -0.3494
 3322SOL     OW13059   3.879   0.879   1.542  0.0347  0.5635 -0.1768
 3322SOL    HW213060   3.871   0.967   1.504 -1.9390  1.2508  1.6946
 3322SOL    HW313061   3.789   0.849   1.553  0.6630 -1.4165 -0.0449
 3322SOL    MW413062   3.866   0.886   1.538 -0.1428  0.3930  0.0875
 3323SOL     OW13063   6.100   2.827   4.499  0.4037  0.1582 -0.3734
 3323SOL    HW213064   6.021   2.855   4.453 -1.4376 -1.7167  1.4110
 3323SOL    HW313065   6.128   2.748   4.453  0.7182  0.3099 -0.4483
 3323SOL    MW413066   6.093   2.820   4.487  0.2023 -0.0691 -0.1479
 3324SOL     OW13067   6.288   3.316   0.043  0.1123 -0.1113 -0.2903
 3324SOL    HW213068   6.262   3.327  -0.048  0.7760  1.7539 -0.3094
 3324SOL    HW313069   6.376   3.355   0.048 -0.3138  0.7619  1.3273
 3324SOL    MW413070   6.296   3.323   0.032  0.1437  0.2500 -0.0794
 3325SOL     OW13071   1.719   5.621   1.836  0.1298  0.2524  0.3677
 3325SOL    HW213072   1.771   5.621   1.755  0.4429 -0.6723  0.5537
 3325SOL    HW313073   1.672   5.537   1.834  2.0187 -0.9534  2.2930
 3325SOL    MW413074   1.720   5.610   1.825  0.4203 -0.0287  0.6463
 3326SOL     OW13075   0.752   1.271   4.500 -0.1249 -0.1846 -0.2212
 3326SOL    HW213076   0.777   1.317   4.580 -0.5435 -0.3748  0.0243
 3326SOL    HW313077   0.835   1.251   4.456  0.1729 -1.0595  0.7138
 3326SOL    MW413078   0.766   1.274   4.505 -0.1408 -0.3251 -0.0655
 3327SOL     OW13079   4.534   4.554   6.378 -0.2169  0.3168 -0.6549
 3327SOL    HW213080   4.562   4.505   6.300  0.7178 -0.2906  0.0375
 3327SOL    HW313081   4.566   4.643   6.363  1.2849 -0.1396 -0.3236
 3327SOL    MW413082   4.542   4.559   6.366  0.1046  0.1764 -0.5198
 3328SOL     OW13083   5.005   0.998   6.418  0.5405 -0.7280  0.1557
 3328SOL    HW213084   4.952   1.074   6.444 -0.0866 -0.0091 -2.8150
 3328SOL    HW313085   4.945   0.923   6.427  0.3976 -0.5460  0.8176
 3328SOL    MW413086   4.990   0.998   6.423  0.4389 -0.6091 -0.1489
 3329SOL     OW13087   3.030   1.096   3.077 -0.6890 -0.0033 -0.5788
 3329SOL    HW213088   3.097   1.140   3.024 -0.1005  1.1439  1.0294
 3329SOL    HW313089   3.052   1.003   3.071  1.4815  0.3608  0.3632
 3329SOL    MW413090   3.042   1.090   3.069 -0.3250  0.1961 -0.2423
 3330SOL     OW13091   5.011   0.664   0.167 -0.0822  0.4680  0.6154
 3330SOL    HW213092   4.973   0.588   0.211 -0.4282  0.4543  0.2910
 3330SOL    HW313093   5.028   0.726   0.238  2.0675 -0.6517  1.1842
 3330SOL    MW413094   5.008   0.662   0.182  0.1558  0.3185  0.6477
 3331SOL     OW13095   6.184   0.323   4.513 -0.6757  0.3683 -0.0273
 3331SOL    HW213096   6.149   0.400   4.468 -1.7853 -0.8217 -1.2798
 3331SOL    HW313097   6.269   0.352   4.547  0.0873  1.4702 -2.6128
 3331SOL    MW413098   6.191   0.337   4.512 -0.7214  0.3567 -0.5337
 3332SOL     OW13099   2.160   1.156   3.841  0.5393  0.2457  0.1335
 3332SOL    HW213100   2.236   1.100   3.826  0.0573 -0.2740 -0.4371
 3332SOL    HW313101   2.122   1.123   3.922  0.8742  0.4534  0.3763
 3332SOL    MW413102   2.165   1.144   3.850  0.5199  0.2045  0.0903
 3333SOL     OW13103   5.100   1.866   5.627 -0.1901 -0.4397  0.1017
 3333SOL    HW213104   5.165   1.936   5.635 -0.8618  0.4289 -1.5420
 3333SOL    HW313105   5.080   1.862   5.533 -2.4753 -0.6958  0.5290
 3333SOL    MW413106   5.106   1.874   5.616 -0.5803 -0.3589 -0.0588
 3334SOL     OW13107   2.004   5.070   4.335 -0.1135  0.3513  0.5619
 3334SOL    HW213108   2.044   5.123   4.405  3.5337  0.1035 -1.0859
 3334SOL    HW313109   1.980   5.134   4.268 -0.2394  0.3067  0.5654
 3334SOL    MW413110   2.006   5.086   4.335  0.3511  0.3127  0.3450
 3335SOL     OW13111   0.901   6.296   3.196  0.2956 -0.7485 -0.4615
 3335SOL    HW213112   0.834   6.346   3.150  0.5258 -1.2461 -1.3414
 3335SOL    HW313113   0.852   6.245   3.261 -0.1417 -0.8689 -0.8854
 3335SOL    MW413114   0.885   6.296   3.199  0.2683 -0.8301 -0.6335
 3336SOL     OW13115   3.602   0.808   5.382 -0.0624 -0.5747  0.1907
 3336SOL    HW213116   3.676   0.762   5.343  1.0562  0.3693  1.1134
 3336SOL    HW313117   3.596   0.775   5.471  1.6545  1.8941  1.3529
 3336SOL    MW413118   3.611   0.798   5.388  0.3117 -0.1244  0.4658
 3337SOL     OW13119   0.085   4.580   3.097  0.2994  0.1307  1.0094
 3337SOL    HW213120   0.128   4.498   3.118  0.9372  0.2612  0.2687
 3337SOL    HW313121  -0.001   4.555   3.063  0.3827 -0.2179  1.0585
 3337SOL    MW413122   0.079   4.566   3.095  0.3945  0.1019  0.9181
 3338SOL     OW13123   6.336   1.797   4.541 -0.5623  0.5795  0.7531
 3338SOL    HW213124   6.266   1.736   4.563  0.4119 -0.5117  0.9119
 3338SOL    HW313125   6.415   1.758   4.579  0.0003  2.2259  1.3538
 3338SOL    MW413126   6.338   1.784   4.549 -0.3595  0.6528  0.8533
 3339SOL     OW13127   3.031   2.130   3.937  0.7627  0.3786  0.1197
 3339SOL    HW213128   3.022   2.218   3.973 -1.9583  0.2181  0.0032
 3339SOL    HW313129   3.112   2.133   3.887  1.4412  2.3955  1.2349
 3339SOL    MW413130   3.041   2.142   3.935  0.4932  0.6235  0.2514
 3340SOL     OW13131   6.000   4.505   0.411  0.0252  0.3336  0.3750
 3340SOL    HW213132   6.069   4.533   0.351 -1.0410  0.2829 -0.9318
 3340SOL    HW313133   6.010   4.410   0.416 -0.8476  0.1239 -1.0553
 3340SOL    MW413134   6.011   4.496   0.404 -0.2306  0.2992  0.0138
 3341SOL     OW13135   5.772   1.631   5.106  0.5189  0.4512  0.2707
 3341SOL    HW213136   5.715   1.620   5.182 -1.7689  2.5507 -0.9585
 3341SOL    HW313137   5.760   1.552   5.054 -1.9412  1.0711 -0.2530
 3341SOL    MW413138   5.763   1.619   5.109 -0.1075  0.8100  0.0395
 3342SOL     OW13139   6.040   4.179   3.774  0.2667  0.3285  0.0108
 3342SOL    HW213140   5.994   4.215   3.850 -1.0978 -0.5785 -0.3450
 3342SOL    HW313141   6.038   4.249   3.709  0.7687  0.8418  0.5377
 3342SOL    MW413142   6.033   4.193   3.776  0.1529  0.2765  0.0334
 3343SOL     OW13143   1.979   2.316   2.736 -0.5187 -0.0078  0.4687
 3343SOL    HW213144   1.932   2.260   2.675 -0.6155 -0.5821  1.0592
 3343SOL    HW313145   1.924   2.317   2.815  1.2076 -2.0759  1.8193
 3343SOL    MW413146   1.965   2.309   2.738 -0.3037 -0.3565  0.7248
 3344SOL     OW13147   5.718   5.542   5.384  0.2836  0.1384 -0.6593
 3344SOL    HW213148   5.662   5.595   5.441 -1.3621 -0.6153 -1.5091
 3344SOL    HW313149   5.714   5.585   5.299  0.6564 -0.1586 -0.8301
 3344SOL    MW413150   5.710   5.555   5.380  0.1157 -0.0002 -0.7939
 3345SOL     OW13151   4.263   1.908   3.308 -0.3496 -0.4753  0.2808
 3345SOL    HW213152   4.348   1.929   3.346 -1.4720  0.9020  2.2297
 3345SOL    HW313153   4.215   1.865   3.379 -2.2416  1.3778  0.2178
 3345SOL    MW413154   4.268   1.905   3.322 -0.7473 -0.0491  0.5296
 3346SOL     OW13155   3.610   0.531   5.987 -0.1286  0.3384 -0.1483
 3346SOL    HW213156   3.632   0.464   5.922  0.5600  1.4820 -1.1393
 3346SOL    HW313157   3.517   0.517   6.006 -0.2138 -0.3361 -1.0049
 3346SOL    MW413158   3.601   0.520   5.980 -0.0490  0.4003 -0.3920
 3347SOL     OW13159   4.048   3.633   1.329  0.4777  0.2519 -0.6566
 3347SOL    HW213160   4.006   3.550   1.304 -2.2964  1.5619 -0.6799
 3347SOL    HW313161   4.116   3.647   1.263  1.8042 -2.4748 -0.0288
 3347SOL    MW413162   4.052   3.624   1.317  0.2867  0.0650 -0.5768
 3348SOL     OW13163   4.888   2.974   1.642 -0.0245 -0.5117  0.3347
 3348SOL    HW213164   4.859   3.065   1.652  2.0311  0.0304  1.9328
 3348SOL    HW313165   4.815   2.931   1.597 -1.4247  1.7065  0.3224
 3348SOL    MW413166   4.875   2.980   1.637  0.0619 -0.1475  0.5439
 3349SOL     OW13167   2.066   3.617   2.145  0.3094 -0.1721 -0.4125
 3349SOL    HW213168   2.153   3.627   2.106  0.6299 -1.1399  0.0227
 3349SOL    HW313169   2.042   3.705   2.172  0.9021  0.2015 -1.0583
 3349SOL    MW413170   2.074   3.630   2.143  0.4299 -0.2505 -0.4403
 3350SOL     OW13171   6.092   6.357   3.163  0.2209 -0.4588 -0.6106
 3350SOL    HW213172   6.017   6.355   3.103  0.4019 -0.7453 -0.8287
 3350SOL    HW313173   6.052   6.357   3.250 -0.0634  0.9773 -0.7181
 3350SOL    MW413174   6.077   6.357   3.167  0.2073 -0.3071 -0.6535
 3351SOL     OW13175   1.989   3.082   5.846  0.8869 -0.0258 -0.0392
 3351SOL    HW213176   2.034   3.162   5.820  1.6919  0.5171  2.6795
 3351SOL    HW313177   1.897   3.098   5.825  1.1489  1.2821 -0.2620
 3351SOL    MW413178   1.983   3.095   5.840  1.0277  0.2184  0.2901
 3352SOL     OW13179   3.454   2.614   1.549  0.3712 -0.0310 -0.6263
 3352SOL    HW213180   3.434   2.665   1.470  0.5741  0.1278 -0.5755
 3352SOL    HW313181   3.547   2.594   1.541  0.8033  1.4445  0.4066
 3352SOL    MW413182   3.464   2.618   1.537  0.4550  0.1846 -0.4834
 3353SOL     OW13183   5.006   5.756   4.862 -0.0716  0.1207 -0.0238
 3353SOL    HW213184   5.090   5.788   4.895  0.4341 -1.1118 -0.0565
 3353SOL    HW313185   4.941   5.800   4.917  0.6635 -0.1766  1.1419
 3353SOL    MW413186   5.008   5.766   4.874  0.0921 -0.0811  0.1257
 3354SOL     OW13187   0.386   3.679   6.372 -0.0534  0.1257  0.0755
 3354SOL    HW213188   0.431   3.598   6.348  0.1380 -0.0342  0.9489
 3354SOL    HW313189   0.415   3.743   6.307  1.5700  0.0629  0.6990
 3354SOL    MW413190   0.396   3.677   6.360  0.1861  0.0963  0.2730
 3355SOL     OW13191   5.237   3.198   0.752  0.3079  0.1957 -0.3336
 3355SOL    HW213192   5.270   3.281   0.785 -1.6941  0.3572  1.4526
 3355SOL    HW313193   5.162   3.222   0.697 -1.3845 -0.3893  1.5688
 3355SOL    MW413194   5.231   3.212   0.749 -0.1795  0.1398  0.1531
 3356SOL     OW13195   2.580   0.976   1.362  0.6378 -0.1555 -0.8050
 3356SOL    HW213196   2.561   1.022   1.281  2.0570  0.6075 -0.7325
 3356SOL    HW313197   2.675   0.964   1.361  0.7039  0.0603  0.8412
 3356SOL    MW413198   2.590   0.980   1.351  0.8338 -0.0264 -0.5782
 3357SOL     OW13199   5.594   0.409   5.956 -0.2676  0.0068  0.1365
 3357SOL    HW213200   5.505   0.412   5.990 -0.8094  0.4104 -1.2425
 3357SOL    HW313201   5.634   0.491   5.987 -1.0315  0.7958 -0.8986
 3357SOL    MW413202   5.588   0.421   5.965 -0.4399  0.1642 -0.1820
 3358SOL     OW13203   2.125   6.348   1.478  0.5154  0.6848  0.4346
 3358SOL    HW213204   2.169   6.429   1.452  2.0950 -0.3118 -0.1180
 3358SOL    HW313205   2.083   6.370   1.561  0.4035  2.2328  0.0092
 3358SOL    MW413206   2.125   6.362   1.486  0.7090  0.7575  0.3056
 3359SOL     OW13207   3.437   0.180   2.131 -0.2582  0.4960  0.1683
 3359SOL    HW213208   3.345   0.199   2.110 -0.7106 -0.6382  1.0200
 3359SOL    HW313209   3.469   0.133   2.054 -0.4295  0.7539 -0.0652
 3359SOL    MW413210   3.429   0.176   2.118 -0.3405  0.3804  0.2499
 3360SOL     OW13211   0.158   2.015   3.779 -0.1805 -0.0367  0.0812
 3360SOL    HW213212   0.130   1.931   3.816  0.7476 -0.7972 -0.8958
 3360SOL    HW313213   0.193   2.064   3.854  2.5840 -1.9352  0.1972
 3360SOL    MW413214   0.159   2.011   3.794  0.3067 -0.3875 -0.0324
 3361SOL     OW13215   3.378   0.691   6.285 -0.1840 -0.4189 -0.5386
 3361SOL    HW213216   3.361   0.782   6.261 -0.0791 -0.3951 -0.5207
 3361SOL    HW313217   3.357   0.641   6.206  0.4913 -0.3088 -0.7911
 3361SOL    MW413218   3.373   0.697   6.272 -0.0810 -0.4012 -0.5696
 3362SOL     OW13219   5.240   5.773   1.690  0.1285  0.2800 -0.2579
 3362SOL    HW213220   5.221   5.863   1.661 -0.3017  0.2507 -0.0684
 3362SOL    HW313221   5.309   5.784   1.756  0.0578  0.4765 -0.2137
 3362SOL    MW413222   5.247   5.786   1.695  0.0624  0.3021 -0.2271
 3363SOL     OW13223   4.962   1.808   5.993  0.1764  0.3374  0.4852
 3363SOL    HW213224   5.039   1.824   6.048  0.5716  0.9162 -0.2178
 3363SOL    HW313225   4.997   1.763   5.916 -0.2726  0.1068  0.4169
 3363SOL    MW413226   4.977   1.804   5.990  0.1693  0.3833  0.3834
 3364SOL     OW13227   4.671   3.056   5.447  0.0547 -0.2916  0.1383
 3364SOL    HW213228   4.702   3.021   5.531  0.9854 -0.1118 -0.1295
 3364SOL    HW313229   4.671   2.980   5.389 -1.4039 -0.6049  0.5017
 3364SOL    MW413230   4.675   3.041   5.451 -0.0150 -0.3092  0.1509
 3365SOL     OW13231   2.692   5.760   5.917  0.0208 -0.0126 -0.2317
 3365SOL    HW213232   2.603   5.780   5.947 -0.0134  1.6134 -1.3044
 3365SOL    HW313233   2.745   5.834   5.947  1.0197 -0.9371  0.3524
 3365SOL    MW413234   2.687   5.772   5.925  0.1481  0.0800 -0.2962
 3366SOL     OW13235   0.527   4.518   2.521  0.4329 -0.2361  0.1399
 3366SOL    HW213236   0.486   4.443   2.479  1.0867  0.7466 -2.4306
 3366SOL    HW313237   0.620   4.508   2.501  0.5270  1.2479 -0.2658
 3366SOL    MW413238   0.534   4.507   2.513  0.5316  0.0894 -0.2528
 3367SOL     OW13239   1.259   0.580   3.757  0.5633 -0.3725  0.0386
 3367SOL    HW213240   1.273   0.486   3.760  0.4296 -0.3738  0.6799
 3367SOL    HW313241   1.310   0.615   3.830 -4.4732 -0.6166  4.2372
 3367SOL    MW413242   1.267   0.572   3.767 -0.1188 -0.4049  0.6772
 3368SOL     OW13243   3.872   0.814   6.299 -0.3725  1.2128  0.2220
 3368SOL    HW213244   3.842   0.727   6.271 -1.9490  2.2101 -1.3434
 3368SOL    HW313245   3.804   0.846   6.358 -0.4830  1.9306 -0.2834
 3368SOL    MW413246   3.859   0.807   6.303 -0.5951  1.4391 -0.0512
 3369SOL     OW13247   4.714   4.803   1.041 -0.2544 -0.3856 -0.4263
 3369SOL    HW213248   4.686   4.734   1.101 -0.1291 -0.1743 -0.1244
 3369SOL    HW313249   4.810   4.802   1.046 -0.1935 -1.1095 -1.4606
 3369SOL    MW413250   4.723   4.794   1.050 -0.2299 -0.4533 -0.5229
 3370SOL     OW13251   5.174   0.744   6.103  0.0871 -0.1707  0.3565
 3370SOL    HW213252   5.204   0.762   6.014  0.1624 -0.8919  0.2306
 3370SOL    HW313253   5.112   0.815   6.122  0.7762  0.5277  0.0925
 3370SOL    MW413254   5.170   0.756   6.094  0.1879 -0.1737  0.3050
 3371SOL     OW13255   0.899   4.850   4.740 -0.5436 -0.2174 -0.4363
 3371SOL    HW213256   0.930   4.798   4.814 -0.9430 -0.6121 -0.5384
 3371SOL    HW313257   0.885   4.785   4.670  2.2900  0.4172 -1.7201
 3371SOL    MW413258   0.901   4.834   4.740 -0.2225 -0.1857 -0.6192
 3372SOL     OW13259   2.032   6.346   4.913 -0.2215  0.2545 -0.4251
 3372SOL    HW213260   1.939   6.330   4.901 -0.1762 -0.2332 -0.1447
 3372SOL    HW313261   2.045   6.345   5.008  0.0947  0.1768 -0.4675
 3372SOL    MW413262   2.022   6.344   4.924 -0.1738  0.1799 -0.3937
 3373SOL     OW13263   1.411   4.993   4.870 -0.4787  0.3117 -0.1878
 3373SOL    HW213264   1.380   4.917   4.821  1.8996 -1.3055  0.6504
 3373SOL    HW313265   1.479   5.031   4.814 -1.8035  2.0631 -0.7119
 3373SOL    MW413266   1.416   4.988   4.856 -0.3397  0.3294 -0.1463
 3374SOL     OW13267   0.125   4.330   5.602 -0.1160  0.0024  0.0892
 3374SOL    HW213268   0.192   4.273   5.640  0.9170 -0.7221 -2.6028
 3374SOL    HW313269   0.059   4.270   5.568 -1.0254  0.6215  0.7306
 3374SOL    MW413270   0.125   4.315   5.602 -0.0997 -0.0115 -0.1813
 3375SOL     OW13271   5.302   2.901   4.350 -0.2017 -0.2679  0.0387
 3375SOL    HW213272   5.218   2.869   4.384 -0.4870 -0.4828 -0.8164
 3375SOL    HW313273   5.292   2.996   4.346 -0.4957 -0.3093 -0.2737
 3375SOL    MW413274   5.289   2.909   4.354 -0.2782 -0.3017 -0.1153
 3376SOL     OW13275   5.260   4.351   1.091  0.3271 -0.0296  0.1468
 3376SOL    HW213276   5.297   4.363   1.179  0.5166  0.7374 -0.0312
 3376SOL    HW313277   5.336   4.345   1.034  0.2113 -0.9871  0.0822
 3376SOL    MW413278   5.274   4.352   1.095  0.3368 -0.0547  0.1148
 3377SOL     OW13279   3.674   3.628   6.314 -0.2239 -0.5722  0.2816
 3377SOL    HW213280   3.767   3.633   6.336  0.9885 -0.1244 -3.9938
 3377SOL    HW313281   3.641   3.716   6.331  0.1375 -0.6734  1.6171
 3377SOL    MW413282   3.682   3.640   6.319 -0.0162 -0.5265 -0.1063
 3378SOL     OW13283   3.042   0.250   4.949 -0.4314 -0.2393 -0.3758
 3378SOL    HW213284   3.031   0.271   4.857 -2.3701 -1.1078 -0.3937
 3378SOL    HW313285   3.022   0.332   4.995  1.4426  0.4582 -0.6914
 3378SOL    MW413286   3.038   0.264   4.943 -0.4399 -0.2619 -0.4198
 3379SOL     OW13287   4.921   4.244   2.312 -0.1377 -0.0812 -0.4877
 3379SOL    HW213288   4.896   4.211   2.226 -1.1402 -2.2049  0.5367
 3379SOL    HW313289   5.016   4.239   2.314 -0.1226 -0.2724 -1.3862
 3379SOL    MW413290   4.930   4.239   2.301 -0.2679 -0.3866 -0.4711
 3380SOL     OW13291   6.063   0.625   0.491  0.1163 -0.5421  0.0838
 3380SOL    HW213292   6.102   0.689   0.432 -0.1886 -0.9595 -0.5821
 3380SOL    HW313293   5.969   0.637   0.480  0.0279  0.0738  1.2575
 3380SOL    MW413294   6.056   0.635   0.482  0.0644 -0.5159  0.1508
 3381SOL     OW13295   3.406   1.919   0.450 -0.3807 -0.4641  0.7423
 3381SOL    HW213296   3.472   1.849   0.455 -0.5115 -0.7202 -0.7443
 3381SOL    HW313297   3.367   1.921   0.538  1.1144 -0.7725  1.4427
 3381SOL    MW413298   3.409   1.910   0.463 -0.2007 -0.5386  0.6386
 3382SOL     OW13299   4.130   5.809   1.736  0.3176  0.1357 -0.2928
 3382SOL    HW213300   4.050   5.852   1.705 -1.4370 -1.6491  1.4406
 3382SOL    HW313301   4.099   5.727   1.776  3.0514 -0.6993  0.3137
 3382SOL    MW413302   4.116   5.804   1.737  0.4468 -0.2099  0.0159
 3383SOL     OW13303   0.067   1.014   3.140 -0.6055 -0.2018  0.7097
 3383SOL    HW213304  -0.013   1.047   3.100 -0.3450  1.3994  1.4367
 3383SOL    HW313305   0.039   0.970   3.220 -0.7555  0.7980  1.2302
 3383SOL    MW413306   0.053   1.013   3.145 -0.5909  0.1414  0.8743
 3384SOL     OW13307   0.570   0.938   5.724  0.1268  0.1753 -0.2394
 3384SOL    HW213308   0.510   0.911   5.654 -1.1095 -0.9213  1.1907
 3384SOL    HW313309   0.551   0.878   5.796  2.2941  0.4268  0.6041
 3384SOL    MW413310   0.560   0.926   5.724  0.2496  0.0638  0.0606
 3385SOL     OW13311   5.906   5.536   0.358 -0.6508  0.6670  0.0965
 3385SOL    HW213312   5.857   5.456   0.378 -1.3409  0.8750 -0.7045
 3385SOL    HW313313   5.846   5.589   0.306  0.2603  1.1528 -0.4884
 3385SOL    MW413314   5.891   5.532   0.354 -0.6217  0.7585 -0.0864
 3386SOL     OW13315   3.481   2.816   3.645 -0.2922 -0.0735  0.0369
 3386SOL    HW213316   3.435   2.766   3.578  0.7055  0.2094 -0.8923
 3386SOL    HW313317   3.551   2.758   3.675  0.3369  0.4290 -0.4309
 3386SOL    MW413318   3.484   2.802   3.640 -0.0775  0.0301 -0.1474
 3387SOL     OW13319   3.442   5.386   3.694 -0.2292 -0.1297 -0.2797
 3387SOL    HW213320   3.416   5.357   3.781 -0.5859 -1.4825 -0.8142
 3387SOL    HW313321   3.469   5.477   3.706  0.7111 -0.5867  1.4271
 3387SOL    MW413322   3.442   5.394   3.707 -0.1522 -0.3684 -0.1250
 3388SOL     OW13323   1.090   4.969   5.566  0.2763 -0.3379 -0.0329
 3388SOL    HW213324   1.143   4.949   5.488  1.6154 -0.4508  0.8685
 3388SOL    HW313325   1.107   5.061   5.583 -0.1686 -0.2638  0.0168
 3388SOL    MW413326   1.099   4.978   5.558  0.3943 -0.3430  0.0926
 3389SOL     OW13327   1.134   6.279   4.509  0.2291 -0.5471  0.0196
 3389SOL    HW213328   1.084   6.341   4.457 -1.4157 -0.0028  2.0788
 3389SOL    HW313329   1.196   6.332   4.559 -1.4102 -0.3803  2.0406
 3389SOL    MW413330   1.136   6.294   4.509 -0.2042 -0.4533  0.5580
 3390SOL     OW13331   5.891   4.866   4.856  0.3965 -1.0904  0.0940
 3390SOL    HW213332   5.946   4.845   4.780  1.4582  1.5553  0.0179
 3390SOL    HW313333   5.824   4.924   4.821 -1.3460 -2.7202  0.5829
 3390SOL    MW413334   5.890   4.871   4.841  0.3066 -0.9564  0.1485
 3391SOL     OW13335   1.566   3.435   2.080 -0.0632  0.3591 -0.2666
 3391SOL    HW213336   1.631   3.503   2.096 -0.9377  1.5289 -1.4021
 3391SOL    HW313337   1.613   3.352   2.092  1.4112  1.1665 -0.2864
 3391SOL    MW413338   1.581   3.433   2.083  0.0160  0.6199 -0.4190
 3392SOL     OW13339   2.103   0.557   4.206  0.0556  0.2968 -0.5465
 3392SOL    HW213340   2.023   0.508   4.223  0.7668 -0.6092  0.3563
 3392SOL    HW313341   2.133   0.526   4.120 -0.4309  0.4705 -0.7800
 3392SOL    MW413342   2.097   0.546   4.197  0.0853  0.2002 -0.4582
 3393SOL     OW13343   3.218   1.201   2.685  1.0648  0.1399 -0.1609
 3393SOL    HW213344   3.263   1.237   2.761  0.1862 -1.2047  1.0343
 3393SOL    HW313345   3.141   1.256   2.675  1.9757  1.3190 -1.1143
 3393SOL    MW413346   3.214   1.213   2.693  1.0690  0.1180 -0.1290
 3394SOL     OW13347   4.116   5.924   2.002  0.0703  0.4248 -0.7504
 3394SOL    HW213348   4.110   5.924   1.906  2.3347 -0.4771 -0.9542
 3394SOL    HW313349   4.143   5.835   2.025 -1.1881  0.4024  0.8181
 3394SOL    MW413350   4.119   5.912   1.992  0.2030  0.3029 -0.5703
 3395SOL     OW13351   3.582   1.800   1.576  0.2580 -0.1859 -0.3887
 3395SOL    HW213352   3.590   1.884   1.621  0.1465 -0.4191  0.0754
 3395SOL    HW313353   3.501   1.807   1.527 -0.5473 -0.5702  0.8516
 3395SOL    MW413354   3.573   1.812   1.575  0.1370 -0.2674 -0.1639
 3396SOL     OW13355   5.558   5.631   0.778  0.7760 -0.3029  0.0440
 3396SOL    HW213356   5.585   5.648   0.688  0.5583 -0.1626  0.0037
 3396SOL    HW313357   5.463   5.619   0.773  0.4530  1.7074  0.5207
 3396SOL    MW413358   5.549   5.632   0.766  0.7047 -0.0191  0.1016
 3397SOL     OW13359   2.656   1.546   3.399  0.0672 -0.6094 -0.0824
 3397SOL    HW213360   2.610   1.462   3.408 -1.1029  0.0595  0.5120
 3397SOL    HW313361   2.592   1.611   3.430  1.9853  0.2569  2.4173
 3397SOL    MW413362   2.641   1.544   3.404  0.1659 -0.4068  0.3258
 3398SOL     OW13363   5.940   0.327   3.754 -0.0389 -0.2103 -0.1054
 3398SOL    HW213364   5.903   0.360   3.836 -0.5795  0.9235 -0.7805
 3398SOL    HW313365   5.879   0.259   3.726 -2.4372  2.4210 -1.8088
 3398SOL    MW413366   5.928   0.323   3.761 -0.4267  0.2865 -0.4193
 3399SOL     OW13367   1.878   3.429   5.326  0.0463  0.7358 -0.3930
 3399SOL    HW213368   1.864   3.462   5.237 -1.0778 -0.4609 -0.6942
 3399SOL    HW313369   1.796   3.386   5.348  0.3671  0.8863  1.1880
 3399SOL    MW413370   1.865   3.428   5.317 -0.0597  0.5978 -0.2242
 3400SOL     OW13371   1.032   5.727   6.319  0.2807  0.3118  0.2930
 3400SOL    HW213372   1.034   5.675   6.399 -1.4552 -1.2556 -0.6082
 3400SOL    HW313373   1.123   5.730   6.290  0.9111  0.7002  2.1421
 3400SOL    MW413374   1.044   5.721   6.326  0.1349  0.1563  0.4181
 3401SOL     OW13375   4.153   4.590   2.727  0.4886 -0.2182  0.0626
 3401SOL    HW213376   4.227   4.553   2.776  0.5743  0.7711  0.7039
 3401SOL    HW313377   4.165   4.557   2.638 -0.4727 -3.2529  0.9475
 3401SOL    MW413378   4.164   4.581   2.721  0.3731 -0.4881  0.2639
 3402SOL     OW13379   4.683   4.438   3.903 -0.1919 -0.1942  0.0911
 3402SOL    HW213380   4.691   4.512   3.843  0.4184 -1.0302 -0.9112
 3402SOL    HW313381   4.591   4.412   3.897 -1.5413  2.8763  3.5162
 3402SOL    MW413382   4.672   4.444   3.894 -0.2894  0.1006  0.4108
 3403SOL     OW13383   1.001   0.963   1.411  0.3748  0.1518 -0.3985
 3403SOL    HW213384   0.945   0.888   1.429  1.2858 -0.2812  0.8329
 3403SOL    HW313385   0.973   0.995   1.325 -0.8905 -0.7963 -0.3617
 3403SOL    MW413386   0.990   0.957   1.402  0.3281 -0.0304 -0.2312
 3404SOL     OW13387   3.236   0.507   0.808 -0.3862 -0.0626 -0.3171
 3404SOL    HW213388   3.251   0.414   0.791  1.4306  0.2200 -0.4182
 3404SOL    HW313389   3.323   0.544   0.823 -1.2374  1.2207  1.9681
 3404SOL    MW413390   3.250   0.500   0.807 -0.2588  0.1440 -0.0289
 3405SOL     OW13391   1.092   3.089   4.267 -0.6318  0.1443 -0.5652
 3405SOL    HW213392   1.166   3.131   4.222  0.0690 -1.0148 -0.5685
 3405SOL    HW313393   1.049   3.038   4.198 -2.2174  1.7903 -0.8322
 3405SOL    MW413394   1.096   3.088   4.252 -0.7485  0.2086 -0.6009
 3406SOL     OW13395   3.708   5.475   2.183 -0.2047  0.2645 -0.3195
 3406SOL    HW213396   3.781   5.418   2.208 -0.8221 -0.3389  0.1510
 3406SOL    HW313397   3.733   5.562   2.214  0.6016  0.1942 -0.7467
 3406SOL    MW413398   3.721   5.479   2.190 -0.1798  0.1756 -0.3138
 3407SOL     OW13399   3.517   4.744   2.434 -0.5090  0.1114  0.6719
 3407SOL    HW213400   3.589   4.721   2.492  0.5565 -0.5119 -0.8135
 3407SOL    HW313401   3.543   4.707   2.349 -2.7005 -0.3735  0.1445
 3407SOL    MW413402   3.530   4.736   2.430 -0.6576 -0.0348  0.4063
 3408SOL     OW13403   1.767   2.931   2.099  0.0307 -0.5648  0.0963
 3408SOL    HW213404   1.818   2.855   2.069  0.1717 -0.2088 -0.5896
 3408SOL    HW313405   1.683   2.921   2.055 -0.0617 -0.4973  0.2605
 3408SOL    MW413406   1.763   2.919   2.089  0.0371 -0.5089  0.0274
 3409SOL     OW13407   4.730   4.396   0.426 -0.1668  0.3135 -0.1623
 3409SOL    HW213408   4.751   4.442   0.345  1.3006  1.8221  1.0063
 3409SOL    HW313409   4.813   4.390   0.473 -0.9508 -0.6261  1.1776
 3409SOL    MW413410   4.744   4.402   0.422 -0.0766  0.3886  0.1687
 3410SOL     OW13411   1.149   6.063   0.821  0.1107 -0.0537 -0.2236
 3410SOL    HW213412   1.142   5.976   0.783  2.1073 -0.7645  0.8570
 3410SOL    HW313413   1.062   6.081   0.856 -0.3167 -1.6540 -0.3728
 3410SOL    MW413414   1.137   6.054   0.821  0.3178 -0.3586 -0.1007
 3411SOL     OW13415   5.194   3.380   0.030  0.1025 -0.5455  0.3227
 3411SOL    HW213416   5.275   3.339   0.061  1.9103  1.7255 -1.0324
 3411SOL    HW313417   5.200   3.471   0.060 -1.2260  0.0560 -1.0764
 3411SOL    MW413418   5.205   3.387   0.038  0.1658 -0.1665 -0.0407
 3412SOL     OW13419   2.960   4.571   3.387 -0.2629 -0.1481  0.0491
 3412SOL    HW213420   3.001   4.574   3.301  2.0150 -0.8047  1.0501
 3412SOL    HW313421   2.940   4.663   3.407  1.6129  0.3293 -0.1026
 3412SOL    MW413422   2.962   4.584   3.379  0.2851 -0.1717  0.1612
 3413SOL     OW13423   5.590   3.742   3.464 -0.6091 -0.3485 -0.2020
 3413SOL    HW213424   5.526   3.753   3.534 -1.0145 -1.6338 -0.3315
 3413SOL    HW313425   5.654   3.812   3.477 -1.5302  0.3768  0.5000
 3413SOL    MW413426   5.590   3.752   3.475 -0.7841 -0.4224 -0.1264
 3414SOL     OW13427   3.798   0.347   3.383  0.1887 -0.4261 -0.2277
 3414SOL    HW213428   3.868   0.310   3.437  0.8983  0.7893 -0.2922
 3414SOL    HW313429   3.727   0.283   3.390  0.2997 -0.3721  2.0400
 3414SOL    MW413430   3.798   0.334   3.391  0.2969 -0.2586  0.0630
 3415SOL     OW13431   0.766   2.158   2.482 -0.6573  0.2943  0.2261
 3415SOL    HW213432   0.810   2.228   2.529  0.7503  0.1339 -0.7781
 3415SOL    HW313433   0.773   2.082   2.540 -0.3337  0.4850  0.4401
 3415SOL    MW413434   0.773   2.157   2.496 -0.4289  0.2983  0.1219
 3416SOL     OW13435   0.567   2.396   4.876  0.5473 -0.2714 -0.1808
 3416SOL    HW213436   0.662   2.395   4.869  0.6052 -0.1967  0.5261
 3416SOL    HW313437   0.549   2.362   4.964 -0.1319 -1.7244 -0.8417
 3416SOL    MW413438   0.577   2.391   4.887  0.4653 -0.4532 -0.1747
 3417SOL     OW13439   1.264   1.414   0.080  0.1643 -0.0057  0.0740
 3417SOL    HW213440   1.316   1.336   0.061  0.3866  0.4854 -1.4261
 3417SOL    HW313441   1.174   1.383   0.082  0.3865 -0.6868  1.7429
 3417SOL    MW413442   1.259   1.399   0.078  0.2229 -0.0308  0.0963
 3418SOL     OW13443   1.497   6.301   0.231  0.0736  0.4189  0.8660
 3418SOL    HW213444   1.561   6.362   0.269 -0.3419  0.9273  0.7654
 3418SOL    HW313445   1.413   6.326   0.270 -0.2911  0.6641 -0.0272
 3418SOL    MW413446   1.494   6.313   0.241 -0.0293  0.5183  0.7349
 3419SOL     OW13447   0.748   6.025   3.877  0.0025  0.3304 -0.2444
 3419SOL    HW213448   0.801   6.045   3.800  2.0753  0.4529  1.1265
 3419SOL    HW313449   0.695   5.950   3.850  2.2250 -1.0225 -1.2048
 3419SOL    MW413450   0.748   6.018   3.863  0.5692  0.1681 -0.1903
 3420SOL     OW13451   6.230   0.314   1.287 -0.4244 -0.1077  0.3121
 3420SOL    HW213452   6.234   0.404   1.321 -1.0314 -0.1783  0.5732
 3420SOL    HW313453   6.213   0.260   1.364 -0.0479 -0.4544  0.1566
 3420SOL    MW413454   6.229   0.319   1.302 -0.4548 -0.1628  0.3260
 3421SOL     OW13455   4.748   0.649   5.080  0.1830 -0.0874 -0.2554
 3421SOL    HW213456   4.812   0.603   5.136  0.8727  0.2391 -0.7593
 3421SOL    HW313457   4.684   0.683   5.142  0.8311  0.1030  0.3325
 3421SOL    MW413458   4.748   0.647   5.096  0.3595 -0.0192 -0.2443
 3422SOL     OW13459   4.088   1.095   6.007  0.1038  0.0698  0.3704
 3422SOL    HW213460   4.022   1.028   5.990  0.8365 -0.9744  1.4227
 3422SOL    HW313461   4.138   1.060   6.081 -0.0640  2.2134  1.5789
 3422SOL    MW413462   4.086   1.081   6.015  0.1783  0.2148  0.6687
 3423SOL     OW13463   0.652   4.038   2.449 -0.1557  0.4763  0.0390
 3423SOL    HW213464   0.601   3.958   2.461  0.5416 -0.3631 -2.1857
 3423SOL    HW313465   0.627   4.070   2.362 -0.0263  2.4178  0.6596
 3423SOL    MW413466   0.642   4.032   2.439 -0.0466  0.6217 -0.1726
 3424SOL     OW13467   1.743   1.773   1.483 -0.1156 -0.2028 -0.5997
 3424SOL    HW213468   1.784   1.758   1.568  0.8037 -0.1834 -1.0290
 3424SOL    HW313469   1.735   1.685   1.445 -4.1027 -0.7662  1.0460
 3424SOL    MW413470   1.747   1.759   1.489 -0.5203 -0.2746 -0.4392
 3425SOL     OW13471   2.609   4.129   4.973  0.1696  0.2272 -0.4136
 3425SOL    HW213472   2.551   4.197   4.937 -0.1632  0.2583  0.1724
 3425SOL    HW313473   2.561   4.048   4.958  0.0758  0.2304 -0.1311
 3425SOL    MW413474   2.595   4.128   4.966  0.1133  0.2317 -0.2990
 3426SOL     OW13475   0.226   0.707   1.101  0.5251 -0.0773 -0.3358
 3426SOL    HW213476   0.176   0.774   1.053  0.1305 -1.1079 -1.3985
 3426SOL    HW313477   0.170   0.685   1.176 -0.3171 -0.6838 -1.1119
 3426SOL    MW413478   0.212   0.713   1.104  0.3619 -0.2933 -0.5784
 3427SOL     OW13479   4.573   1.839   1.307 -0.5144  0.2837  0.3074
 3427SOL    HW213480   4.659   1.809   1.277 -0.3157  0.7184  0.4304
 3427SOL    HW313481   4.513   1.769   1.283 -0.3179  0.4822 -0.8191
 3427SOL    MW413482   4.576   1.826   1.300 -0.4622  0.3672  0.1750
 3428SOL     OW13483   2.303   3.658   2.023  0.5536  0.2275 -0.2202
 3428SOL    HW213484   2.282   3.747   1.995  0.5172  0.6592  1.1147
 3428SOL    HW313485   2.398   3.659   2.034  0.3087  1.0494  2.6968
 3428SOL    MW413486   2.313   3.670   2.021  0.5165  0.3929  0.3408
 3429SOL     OW13487   3.474   5.828   0.429  0.4452  0.0992  0.3267
 3429SOL    HW213488   3.539   5.772   0.387  1.2284  1.0694  0.2225
 3429SOL    HW313489   3.524   5.880   0.492 -0.4724 -0.2324  1.3715
 3429SOL    MW413490   3.489   5.827   0.432  0.4275  0.1834  0.4508
 3430SOL     OW13491   2.046   4.036   5.127 -0.7201 -0.8403 -0.0620
 3430SOL    HW213492   1.981   3.972   5.158  0.4897 -1.4688  1.2869
 3430SOL    HW313493   2.092   4.064   5.206  1.2103 -1.0418 -1.0423
 3430SOL    MW413494   2.043   4.031   5.142 -0.3058 -0.9498 -0.0134
 3431SOL     OW13495   0.187   1.077   2.078 -0.4015 -0.3026 -0.2940
 3431SOL    HW213496   0.141   1.082   2.162  1.0474 -0.2892  0.5143
 3431SOL    HW313497   0.170   0.988   2.047 -1.5212 -0.0869 -0.3454
 3431SOL    MW413498   0.178   1.066   2.085 -0.3581 -0.2724 -0.1941
 3432SOL     OW13499   2.000   3.259   6.104 -0.6102 -0.4115  0.2736
 3432SOL    HW213500   1.997   3.253   6.200  0.0320  1.1353  0.4239
 3432SOL    HW313501   1.996   3.169   6.074 -1.0770 -0.9131  1.7563
 3432SOL    MW413502   1.999   3.247   6.113 -0.5871 -0.2736  0.4891
 3433SOL     OW13503   5.921   3.298   3.396 -0.2168 -0.1281  0.0692
 3433SOL    HW213504   6.014   3.285   3.413 -0.0829  0.1132 -0.4947
 3433SOL    HW313505   5.882   3.212   3.414  0.2234 -0.4470 -0.4672
 3433SOL    MW413506   5.928   3.285   3.401 -0.1411 -0.1383 -0.0759
 3434SOL     OW13507   4.524   2.214   5.095  0.2110  0.1504 -0.1023
 3434SOL    HW213508   4.583   2.266   5.150  0.1824  1.7932 -1.5107
 3434SOL    HW313509   4.439   2.222   5.137  0.2828  0.9771 -0.0926
 3434SOL    MW413510   4.521   2.222   5.108  0.2167  0.4762 -0.2868
 3435SOL     OW13511   2.151   3.496   1.856  0.0903  0.1690 -0.9466
 3435SOL    HW213512   2.213   3.562   1.888 -0.7208  0.5968 -0.2061
 3435SOL    HW313513   2.076   3.547   1.825  0.0554 -0.3458 -1.7081
 3435SOL    MW413514   2.149   3.511   1.856 -0.0213  0.1575 -0.9494
 3436SOL     OW13515   0.767   5.791   6.246  0.3159 -0.1059  0.2352
 3436SOL    HW213516   0.753   5.809   6.153 -0.1169 -2.3356 -0.1780
 3436SOL    HW313517   0.856   5.757   6.251  0.5786  0.6266  0.7675
 3436SOL    MW413518   0.777   5.789   6.235  0.2935 -0.3034  0.2509
 3437SOL     OW13519   3.734   3.902   5.436  0.3574 -0.0273  0.4733
 3437SOL    HW213520   3.645   3.921   5.406 -0.6885  0.2255  3.4591
 3437SOL    HW313521   3.777   3.988   5.441 -0.4349  0.2917  2.4158
 3437SOL    MW413522   3.728   3.916   5.433  0.1148  0.0481  1.1235
 3438SOL     OW13523   3.400   1.708   5.772  0.0905  0.2569  0.0058
 3438SOL    HW213524   3.393   1.669   5.685 -1.9641 -2.2569  1.1595
 3438SOL    HW313525   3.321   1.760   5.781 -0.4251 -0.6343  0.8307
 3438SOL    MW413526   3.389   1.710   5.762 -0.2486 -0.1924  0.2668
 3439SOL     OW13527   6.321   2.165   0.708 -0.1317  0.5209  0.6597
 3439SOL    HW213528   6.355   2.173   0.619 -1.0932  2.9452  0.4480
 3439SOL    HW313529   6.340   2.074   0.732  1.0699  0.0862 -1.6126
 3439SOL    MW413530   6.328   2.154   0.699 -0.1000  0.7834  0.3320
 3440SOL     OW13531   6.412   0.125   1.177  0.4227  0.4846 -0.3923
 3440SOL    HW213532   6.354   0.192   1.211  1.7185  2.4378 -1.7866
 3440SOL    HW313533   6.363   0.083   1.106 -0.5744 -0.4377  0.8059
 3440SOL    MW413534   6.398   0.128   1.172  0.4621  0.6206 -0.4182
 3441SOL     OW13535   0.468   0.541   4.043 -0.2346  0.4302 -0.0827
 3441SOL    HW213536   0.441   0.536   4.134  1.0203 -1.2803  0.2458
 3441SOL    HW313537   0.452   0.453   4.008  0.4761  0.6995 -1.1515
 3441SOL    MW413538   0.463   0.529   4.050  0.0247  0.2401 -0.1803
 3442SOL     OW13539   3.270   4.758   3.703 -0.3092  0.2357  0.4593
 3442SOL    HW213540   3.295   4.848   3.721  0.2505  0.0922  0.4291
 3442SOL    HW313541   3.344   4.706   3.735  0.0950 -0.1165 -0.9752
 3442SOL    MW413542   3.283   4.763   3.710 -0.1820  0.1703  0.2661
 3443SOL     OW13543   0.429   5.901   0.529  0.3209  0.0931 -0.1709
 3443SOL    HW213544   0.521   5.904   0.555  1.1227 -1.4752 -2.4856
 3443SOL    HW313545   0.389   5.838   0.589  0.5377  1.3114  1.3051
 3443SOL    MW413546   0.436   5.893   0.540  0.4553  0.0469 -0.2815
 3444SOL     OW13547   6.215   4.451   1.532 -0.1365  0.0492  0.2985
 3444SOL    HW213548   6.264   4.533   1.529 -0.3028  0.1816  0.9701
 3444SOL    HW313549   6.169   4.453   1.616  1.3377 -1.5637  1.2266
 3444SOL    MW413550   6.216   4.462   1.543  0.0360 -0.1461  0.5096
 3445SOL     OW13551   5.330   0.489   6.431  0.5885  0.3100 -0.5250
 3445SOL    HW213552   5.295   0.450   6.512  2.7227  0.3097  0.4514
 3445SOL    HW313553   5.424   0.474   6.435  0.9425  1.6625 -2.2948
 3445SOL    MW413554   5.338   0.482   6.442  0.9168  0.4884 -0.6297
 3446SOL     OW13555   0.787   5.646   3.560 -0.3620  0.6326  0.1972
 3446SOL    HW213556   0.800   5.608   3.647  1.9105  0.2279 -0.2605
 3446SOL    HW313557   0.725   5.586   3.518 -1.3071  0.7047  1.4304
 3446SOL    MW413558   0.780   5.633   3.566 -0.1869  0.5887  0.2995
 3447SOL     OW13559   2.838   5.723   3.274 -0.2896 -0.0788 -0.8299
 3447SOL    HW213560   2.763   5.677   3.237 -1.3666 -0.8457  2.0809
 3447SOL    HW313561   2.808   5.754   3.359  1.7241  2.4706 -0.9255
 3447SOL    MW413562   2.824   5.721   3.280 -0.1660  0.1563 -0.4585
 3448SOL     OW13563   5.148   3.924   1.680 -0.5932  0.3611 -0.0084
 3448SOL    HW213564   5.175   3.835   1.701 -0.2939 -0.1428 -2.3060
 3448SOL    HW313565   5.061   3.914   1.642  0.4406  0.6636 -2.6618
 3448SOL    MW413566   5.140   3.911   1.678 -0.4173  0.3346 -0.6617
 3449SOL     OW13567   6.147   0.206   3.486  0.1484  0.5211  0.4356
 3449SOL    HW213568   6.171   0.246   3.570 -1.2377  1.8393  0.2736
 3449SOL    HW313569   6.123   0.281   3.431  3.5414 -0.0434 -2.0862
 3449SOL    MW413570   6.147   0.221   3.490  0.4132  0.6205  0.0815
 3450SOL     OW13571   3.681   0.462   2.690  0.6748  0.5152 -0.2665
 3450SOL    HW213572   3.720   0.374   2.690  0.5931  0.3973  2.1903
 3450SOL    HW313573   3.692   0.493   2.601  0.2590 -2.1717 -1.3540
 3450SOL    MW413574   3.688   0.455   2.678  0.6092  0.1451 -0.0858
 3451SOL     OW13575   1.480   4.461   5.482  0.5449  0.1976  0.4131
 3451SOL    HW213576   1.503   4.539   5.431 -0.0415 -0.3609 -0.7387
 3451SOL    HW313577   1.540   4.394   5.452  0.5386 -0.0062  0.8449
 3451SOL    MW413578   1.491   4.463   5.472  0.4667  0.0970  0.3181
 3452SOL     OW13579   0.138   4.956   5.609 -0.8923  0.0222 -0.2089
 3452SOL    HW213580   0.113   5.036   5.655 -0.8371 -0.0955  0.0254
 3452SOL    HW313581   0.128   4.886   5.674  0.0674 -0.0297 -0.0884
 3452SOL    MW413582   0.134   4.957   5.624 -0.7584 -0.0002 -0.1621
 3453SOL     OW13583   5.797   0.685   5.782  0.2849 -0.0202 -0.2065
 3453SOL    HW213584   5.831   0.725   5.702 -0.9316  3.3224  0.7638
 3453SOL    HW313585   5.705   0.712   5.784 -0.3590 -2.0950  1.1398
 3453SOL    MW413586   5.789   0.694   5.772  0.0394  0.1471  0.0991
 3454SOL     OW13587   3.260   1.992   1.360 -0.1764  0.5358  0.3925
 3454SOL    HW213588   3.212   2.006   1.278  0.6759  0.4569 -0.1355
 3454SOL    HW313589   3.299   2.078   1.379 -0.2598  0.5188  0.6354
 3454SOL    MW413590   3.259   2.005   1.352 -0.0749  0.5232  0.3549
 3455SOL     OW13591   2.948   2.983   0.869  0.2404  0.2015 -0.0714
 3455SOL    HW213592   2.972   3.050   0.804 -1.0272  0.8219  0.0612
 3455SOL    HW313593   2.895   3.030   0.933 -0.4658 -0.8811  0.1650
 3455SOL    MW413594   2.944   2.998   0.869 -0.0200  0.1405 -0.0227
 3456SOL     OW13595   2.330   3.960   6.398 -0.4811 -0.5156 -0.0512
 3456SOL    HW213596   2.328   3.888   6.460  0.8428 -0.7642 -0.2636
 3456SOL    HW313597   2.287   3.926   6.320 -0.0946 -0.9973 -0.0593
 3456SOL    MW413598   2.324   3.946   6.396 -0.2555 -0.6120 -0.0803
 3457SOL     OW13599   4.687   0.203   6.101 -0.0721 -0.6223  0.9761
 3457SOL    HW213600   4.630   0.126   6.097 -0.5989 -0.1906 -0.8452
 3457SOL    HW313601   4.637   0.267   6.151 -0.4193 -0.8646  0.9473
 3457SOL    MW413602   4.673   0.201   6.107 -0.1874 -0.5973  0.7320
 3458SOL     OW13603   6.282   4.492   6.406  0.1834 -0.6085 -0.3575
 3458SOL    HW213604   6.207   4.552   6.416  1.7597  1.3567  0.3086
 3458SOL    HW313605   6.261   4.441   6.327 -0.9635  1.2546 -1.3312
 3458SOL    MW413606   6.269   4.493   6.396  0.2401 -0.1034 -0.3981
 3459SOL     OW13607   2.466   2.063   4.673  0.1452 -0.2129  0.0854
 3459SOL    HW213608   2.559   2.057   4.649  0.2744  0.1550  0.4849
 3459SOL    HW313609   2.460   2.017   4.756  0.0183 -0.0034  0.1912
 3459SOL    MW413610   2.478   2.056   4.680  0.1455 -0.1367  0.1521
 3460SOL     OW13611   4.733   0.617   1.258 -0.1010 -0.4076 -0.0738
 3460SOL    HW213612   4.650   0.650   1.223 -0.4167 -0.4460  0.6221
 3460SOL    HW313613   4.737   0.527   1.227 -0.0378 -0.2302 -0.5912
 3460SOL    MW413614   4.723   0.609   1.249 -0.1344 -0.3892 -0.0503
 3461SOL     OW13615   0.984   5.346   3.948 -0.7242 -0.6343 -0.1725
 3461SOL    HW213616   1.076   5.362   3.926 -0.7982 -0.6694 -0.5183
 3461SOL    HW313617   0.935   5.404   3.889 -0.8501  1.3948  1.8124
 3461SOL    MW413618   0.989   5.356   3.937 -0.7506 -0.3712  0.0437
 3462SOL     OW13619   4.656   5.797   6.252  0.1645  0.1202 -0.2038
 3462SOL    HW213620   4.599   5.860   6.295  1.4400  1.1114  0.1000
 3462SOL    HW313621   4.650   5.819   6.159 -0.9437 -0.6489 -0.3400
 3462SOL    MW413622   4.648   5.808   6.245  0.1865  0.1495 -0.1817
 3463SOL     OW13623   2.465   0.476   4.857 -0.0122 -0.3477  0.6330
 3463SOL    HW213624   2.396   0.412   4.840  1.3393 -1.6263 -0.3142
 3463SOL    HW313625   2.438   0.520   4.939 -1.8463 -0.8707  0.3531
 3463SOL    MW413626   2.452   0.474   4.866 -0.0759 -0.5854  0.4711
 3464SOL     OW13627   1.295   2.394   2.357  0.2169 -0.2702  0.2895
 3464SOL    HW213628   1.292   2.309   2.401 -1.6960 -1.1152 -1.3000
 3464SOL    HW313629   1.355   2.381   2.283  1.1631  0.2768  0.9381
 3464SOL    MW413630   1.303   2.381   2.353  0.0894 -0.3095  0.1653
 3465SOL     OW13631   3.562   1.626   6.421 -0.6183  0.0123  0.1216
 3465SOL    HW213632   3.544   1.611   6.514  1.2271  0.3770  0.5696
 3465SOL    HW313633   3.631   1.563   6.399  1.3574  2.1122 -0.0911
 3465SOL    MW413634   3.569   1.616   6.431 -0.1141  0.3375  0.1526
 3466SOL     OW13635   0.668   3.492   1.314 -0.1672  0.1494  0.3279
 3466SOL    HW213636   0.590   3.520   1.267  0.1489  0.2588 -0.1416
 3466SOL    HW313637   0.736   3.485   1.246  0.1566 -0.2236  0.6816
 3466SOL    MW413638   0.667   3.495   1.299 -0.0828  0.1146  0.3126
 3467SOL     OW13639   3.781   4.152   3.136  0.0093  0.1100 -0.4097
 3467SOL    HW213640   3.781   4.147   3.040 -0.8782 -1.8258 -0.3424
 3467SOL    HW313641   3.694   4.186   3.158  0.5291  1.4263 -0.2874
 3467SOL    MW413642   3.770   4.156   3.126 -0.0392  0.0283 -0.3847
 3468SOL     OW13643   4.014   1.018   3.352  0.5137 -0.0320 -0.6291
 3468SOL    HW213644   4.036   1.061   3.270  1.0631  1.0748  0.0670
 3468SOL    HW313645   3.950   1.076   3.393  3.1875  1.6957  1.5456
 3468SOL    MW413646   4.009   1.031   3.347  0.9390  0.3420 -0.2503
 3469SOL     OW13647   2.529   6.273   0.503  0.2952  0.1572  0.6331
 3469SOL    HW213648   2.500   6.335   0.569  1.2026 -0.2989  1.5020
 3469SOL    HW313649   2.599   6.223   0.546  0.2735 -0.7867 -0.3625
 3469SOL    MW413650   2.535   6.274   0.517  0.4121 -0.0275  0.6164
 3470SOL     OW13651   0.449   3.047   0.456  0.6231 -0.4582  0.3817
 3470SOL    HW213652   0.369   3.013   0.497  0.8324 -1.3570  0.0753
 3470SOL    HW313653   0.468   2.985   0.386  2.6762 -1.4076  1.6730
 3470SOL    MW413654   0.441   3.034   0.453  0.9216 -0.7021  0.5116
 3471SOL     OW13655   1.144   5.073   4.991  0.4720  0.1108 -0.3959
 3471SOL    HW213656   1.084   5.063   4.917  0.0461  2.1284 -0.3686
 3471SOL    HW313657   1.226   5.034   4.960  0.6323  1.8494 -2.3866
 3471SOL    MW413658   1.147   5.066   4.977  0.4369  0.6064 -0.6550
 3472SOL     OW13659   0.288   0.994   3.725  0.0396  0.3973  0.3397
 3472SOL    HW213660   0.294   1.085   3.757 -1.9858  0.3813  0.9071
 3472SOL    HW313661   0.288   1.003   3.630  2.5668  0.7195  0.2775
 3472SOL    MW413662   0.289   1.007   3.717  0.1058  0.4377  0.4063
 3473SOL     OW13663   2.942   1.292   2.651  0.0618  0.0059 -0.2196
 3473SOL    HW213664   2.906   1.371   2.693 -0.9660 -0.6547  0.1832
 3473SOL    HW313665   2.865   1.249   2.614  0.3342 -1.7449  1.1316
 3473SOL    MW413666   2.927   1.297   2.652 -0.0379 -0.3122  0.0118
 3474SOL     OW13667   4.119   1.207   1.781  0.7955 -0.3901  0.2146
 3474SOL    HW213668   4.169   1.140   1.828  2.1710 -0.3810 -1.1848
 3474SOL    HW313669   4.164   1.289   1.801  0.2272 -0.1152  0.4095
 3474SOL    MW413670   4.131   1.209   1.790  0.9020 -0.3527  0.0557
 3475SOL     OW13671   1.787   6.338   2.131  0.8453  0.3612 -0.4163
 3475SOL    HW213672   1.814   6.415   2.183  1.3316  0.1821 -0.3975
 3475SOL    HW313673   1.705   6.365   2.090  0.3539  0.4427  0.5938
 3475SOL    MW413674   1.780   6.352   2.133  0.8446  0.3483 -0.2805
 3476SOL     OW13675   0.639   5.765   2.879 -0.0156  0.2076  0.1913
 3476SOL    HW213676   0.630   5.853   2.843 -1.2267  0.1021  0.2230
 3476SOL    HW313677   0.725   5.766   2.922 -0.0243  1.3794  0.2073
 3476SOL    MW413678   0.649   5.777   2.880 -0.1766  0.3483  0.1976
 3477SOL     OW13679   2.186   2.285   3.736 -0.2318 -0.3613 -0.2150
 3477SOL    HW213680   2.105   2.331   3.756  0.0733 -0.0211  0.2774
 3477SOL    HW313681   2.255   2.349   3.755  0.1671 -0.7982 -0.1718
 3477SOL    MW413682   2.185   2.299   3.741 -0.1389 -0.3741 -0.1443
 3478SOL     OW13683   0.836   5.780   1.576 -0.1675  0.7441  0.4409
 3478SOL    HW213684   0.804   5.857   1.528  0.3411  0.4404 -0.4031
 3478SOL    HW313685   0.782   5.708   1.544 -0.1629  0.6312  0.6916
 3478SOL    MW413686   0.825   5.781   1.565 -0.0998  0.6892  0.3626
 3479SOL     OW13687   5.418   2.678   4.657  0.7517 -0.6059  0.0128
 3479SOL    HW213688   5.390   2.615   4.590  0.2502  1.0268 -1.3849
 3479SOL    HW313689   5.378   2.647   4.738  0.1190 -1.7957 -0.7371
 3479SOL    MW413690   5.409   2.666   4.659  0.6021 -0.5475 -0.2706
 3480SOL     OW13691   1.009   6.039   3.736  0.4315 -0.6463  0.1950
 3480SOL    HW213692   1.005   5.947   3.711  1.5265  0.1244 -3.3923
 3480SOL    HW313693   1.097   6.051   3.771  1.2932 -0.5482 -1.8381
 3480SOL    MW413694   1.020   6.029   3.737  0.6897 -0.5317 -0.5466
 3481SOL     OW13695   2.778   2.551   4.385 -0.2215 -0.1030 -0.0278
 3481SOL    HW213696   2.809   2.528   4.473 -0.4618  0.6679  0.2712
 3481SOL    HW313697   2.854   2.538   4.328  1.0140  2.6366  0.8220
 3481SOL    MW413698   2.792   2.547   4.389 -0.0902  0.3601  0.1237
 3482SOL     OW13699   3.861   5.295   3.483  0.3144 -0.7311 -0.0835
 3482SOL    HW213700   3.808   5.307   3.404 -0.7503  1.4377  0.8800
 3482SOL    HW313701   3.947   5.269   3.450 -0.8358 -2.7592 -1.7719
 3482SOL    MW413702   3.865   5.293   3.468  0.0221 -0.7125 -0.1792
 3483SOL     OW13703   2.287   3.269   6.082  0.0679 -0.1907  0.0589
 3483SOL    HW213704   2.191   3.268   6.085  0.0890 -0.1394  1.0479
 3483SOL    HW313705   2.309   3.361   6.067 -0.0248 -0.0471  0.7798
 3483SOL    MW413706   2.277   3.281   6.080  0.0584 -0.1650  0.2845
 3484SOL     OW13707   0.266   5.999   2.747 -0.0670  0.3529  0.3468
 3484SOL    HW213708   0.174   5.983   2.771 -0.1579  0.8259  0.3317
 3484SOL    HW313709   0.278   5.951   2.666 -0.2193  0.0505  0.5005
 3484SOL    MW413710   0.255   5.991   2.740 -0.0991  0.3754  0.3651
 3485SOL     OW13711   2.484   2.236   6.179  0.0726 -0.1137 -0.0281
 3485SOL    HW213712   2.405   2.190   6.149  0.2128 -0.4314  0.0794
 3485SOL    HW313713   2.463   2.329   6.171  1.0235 -0.0662 -3.7425
 3485SOL    MW413714   2.471   2.242   6.174  0.2166 -0.1494 -0.5040
 3486SOL     OW13715   4.560   4.833   2.642 -0.5412 -0.6396  0.7239
 3486SOL    HW213716   4.528   4.921   2.660 -0.1176 -0.6054  1.3739
 3486SOL    HW313717   4.511   4.777   2.703 -0.5676 -0.8031  0.5522
 3486SOL    MW413718   4.550   4.837   2.653 -0.4888 -0.6566  0.7870
 3487SOL     OW13719   4.331   0.540   2.720 -0.1233 -0.3255  0.3434
 3487SOL    HW213720   4.254   0.488   2.746 -0.1429 -0.8669 -0.7666
 3487SOL    HW313721   4.318   0.625   2.763 -1.1787 -0.5188  0.4323
 3487SOL    MW413722   4.319   0.544   2.729 -0.2651 -0.4224  0.2087
 3488SOL     OW13723   0.254   3.422   4.243  0.3895 -0.1118 -0.0645
 3488SOL    HW213724   0.298   3.396   4.323 -0.0253  1.1638  0.6057
 3488SOL    HW313725   0.317   3.404   4.173  1.4384  0.3959  0.7265
 3488SOL    MW413726   0.268   3.416   4.244  0.4731  0.1235  0.1283
 3489SOL     OW13727   5.086   3.142   2.713 -0.3224 -0.1423 -0.1565
 3489SOL    HW213728   5.008   3.111   2.668 -1.7985 -1.6959  3.1128
 3489SOL    HW313729   5.152   3.074   2.698  0.3262  0.8939 -2.4385
 3489SOL    MW413730   5.085   3.129   2.705 -0.4316 -0.2106 -0.0262
 3490SOL     OW13731   1.615   1.800   2.391  0.0351  0.1933  0.2355
 3490SOL    HW213732   1.566   1.825   2.469 -1.2537 -0.5746 -0.2983
 3490SOL    HW313733   1.662   1.879   2.366 -0.7707  0.9018  0.8906
 3490SOL    MW413734   1.615   1.814   2.398 -0.2413  0.1855  0.2515
 3491SOL     OW13735   0.386   5.080   5.711 -0.6056 -0.1031  0.3584
 3491SOL    HW213736   0.459   5.061   5.652 -0.0332  0.8849  0.7153
 3491SOL    HW313737   0.312   5.030   5.676  0.1736 -0.8962 -0.1685
 3491SOL    MW413738   0.386   5.071   5.698 -0.4273 -0.0774  0.3360
 3492SOL     OW13739   4.104   1.828   0.831 -0.6021 -0.0028  0.1278
 3492SOL    HW213740   4.109   1.840   0.737  1.6313  1.0493  0.3195
 3492SOL    HW313741   4.011   1.814   0.849 -1.2961  1.3656 -2.0512
 3492SOL    MW413742   4.092   1.828   0.821 -0.3990  0.3166 -0.1344
 3493SOL     OW13743   1.864   3.856   6.317 -0.2443 -0.0751 -0.4130
 3493SOL    HW213744   1.917   3.894   6.246 -0.2312 -1.4205 -1.1549
 3493SOL    HW313745   1.918   3.867   6.395  0.2369  0.4260 -0.8077
 3493SOL    MW413746   1.878   3.862   6.318 -0.1791 -0.1865 -0.5630
 3494SOL     OW13747   0.236   6.371   5.971  0.3682 -0.1567  0.4287
 3494SOL    HW213748   0.158   6.417   5.939  0.5628  0.5269  0.9106
 3494SOL    HW313749   0.221   6.362   6.065  0.7192 -0.3317  0.4684
 3494SOL    MW413750   0.223   6.376   5.979  0.4402 -0.0896  0.4975
 3495SOL     OW13751   3.173   2.934   2.739  0.3557 -0.0105  0.4822
 3495SOL    HW213752   3.194   3.018   2.780 -3.9435  1.0594  0.9467
 3495SOL    HW313753   3.121   2.887   2.805 -1.3160 -0.9622 -1.3966
 3495SOL    MW413754   3.169   2.939   2.753 -0.4321  0.0051  0.2956
 3496SOL     OW13755   5.902   3.467   3.615  0.4546  0.3537  0.8873
 3496SOL    HW213756   5.908   3.393   3.553 -0.7321 -0.1495  1.3532
 3496SOL    HW313757   5.913   3.427   3.701  1.8511  1.0239  1.0606
 3496SOL    MW413758   5.905   3.452   3.618  0.4823  0.3757  0.9717
 3497SOL     OW13759   0.269   0.672   3.878  0.2957 -0.5558  0.2577
 3497SOL    HW213760   0.342   0.644   3.933 -0.7514 -1.4418  1.2592
 3497SOL    HW313761   0.193   0.627   3.915 -0.6847 -0.0257 -1.0387
 3497SOL    MW413762   0.268   0.662   3.890  0.0282 -0.6028  0.2188
 3498SOL     OW13763   6.313   5.288   1.034 -0.1205  0.4678 -0.1117
 3498SOL    HW213764   6.235   5.272   0.980  0.3545  0.0625 -0.6791
 3498SOL    HW313765   6.279   5.290   1.124 -0.6440 -0.6781 -0.2681
 3498SOL    MW413766   6.298   5.286   1.039 -0.1269  0.2632 -0.2072
 3499SOL     OW13767   0.077   0.200   1.456  0.4003  0.1128 -0.1638
 3499SOL    HW213768   0.124   0.261   1.399 -0.1376  1.4976  0.8053
 3499SOL    HW313769   0.119   0.115   1.440  0.3375  0.4591 -2.4891
 3499SOL    MW413770   0.089   0.197   1.447  0.3211  0.3412 -0.3427
 3500SOL     OW13771   0.069   2.843   3.734 -0.0038  0.3057 -0.2659
 3500SOL    HW213772   0.129   2.874   3.801 -0.4203 -0.7500  0.6227
 3500SOL    HW313773   0.068   2.747   3.744  1.2845 -0.0721 -2.9459
 3500SOL    MW413774   0.076   2.834   3.744  0.1112  0.1166 -0.5023
 3501SOL     OW13775   4.343   3.266   0.943 -0.7955  0.2493 -0.2667
 3501SOL    HW213776   4.432   3.248   0.912  0.3491 -0.4384  2.9786
 3501SOL    HW313777   4.312   3.181   0.976 -1.2706  1.1368  1.7133
 3501SOL    MW413778   4.351   3.252   0.943 -0.7072  0.2757  0.4227
 3502SOL     OW13779   4.008   1.262   5.346  0.2674 -0.1606 -0.0859
 3502SOL    HW213780   4.000   1.198   5.418 -0.7205 -0.3542 -0.3466
 3502SOL    HW313781   3.942   1.234   5.282  1.0380  0.0925 -1.0130
 3502SOL    MW413782   3.998   1.250   5.347  0.2388 -0.1527 -0.2426
 3503SOL     OW13783   5.080   4.857   2.239  0.2201 -0.4916 -0.1755
 3503SOL    HW213784   4.991   4.827   2.258  0.2707 -0.5281  0.0026
 3503SOL    HW313785   5.071   4.951   2.224  0.2046 -0.4364  0.1817
 3503SOL    MW413786   5.067   4.865   2.239  0.2247 -0.4891 -0.1049
 3504SOL     OW13787   4.282   4.340   1.129 -0.1509  0.6713  0.0163
 3504SOL    HW213788   4.302   4.247   1.115 -3.0803 -0.1956  0.7695
 3504SOL    HW313789   4.332   4.364   1.207 -0.1009 -0.5613  0.3787
 3504SOL    MW413790   4.291   4.331   1.137 -0.5308  0.3943  0.1635
 3505SOL     OW13791   2.361   6.029   5.813 -0.3528 -0.2350 -0.2934
 3505SOL    HW213792   2.388   6.026   5.721 -1.6940 -0.4836 -0.7154
 3505SOL    HW313793   2.357   6.122   5.834 -2.1634 -0.0513 -1.2056
 3505SOL    MW413794   2.364   6.041   5.803 -0.7686 -0.2436 -0.4694
 3506SOL     OW13795   3.693   4.518   4.569 -0.2445 -0.2055 -0.0161
 3506SOL    HW213796   3.635   4.553   4.501  0.2580  1.2691  0.2828
 3506SOL    HW313797   3.647   4.537   4.651 -0.4975 -1.3146  0.1199
 3506SOL    MW413798   3.679   4.525   4.571 -0.2116 -0.1573  0.0413
 3507SOL     OW13799   3.498   2.546   0.452  0.1340 -0.1520  0.1774
 3507SOL    HW213800   3.503   2.462   0.498  1.5931  0.9253  2.1475
 3507SOL    HW313801   3.589   2.573   0.441 -0.1548 -0.1246 -3.0971
 3507SOL    MW413802   3.510   2.538   0.457  0.2884 -0.0063  0.0053
 3508SOL     OW13803   3.218   1.336   0.062  0.4883  0.4205  0.2700
 3508SOL    HW213804   3.124   1.341   0.079  0.8656 -0.4568  3.0107
 3508SOL    HW313805   3.259   1.365   0.143  2.6468  1.6003 -1.1358
 3508SOL    MW413806   3.211   1.340   0.075  0.8229  0.4604  0.4461
 3509SOL     OW13807   5.642   0.042   5.620 -0.3130  0.2424 -0.1660
 3509SOL    HW213808   5.573  -0.010   5.579 -0.3068 -1.8308  2.2206
 3509SOL    HW313809   5.602   0.128   5.635 -1.2528  0.1122 -1.7238
 3509SOL    MW413810   5.628   0.046   5.616 -0.4362 -0.0483 -0.0566
 3510SOL     OW13811   3.843   0.164   2.238  0.1711  0.0680  0.4969
 3510SOL    HW213812   3.840   0.076   2.275 -0.0619 -0.2114 -0.1803
 3510SOL    HW313813   3.840   0.151   2.143 -0.6420  0.8306  0.4057
 3510SOL    MW413814   3.842   0.151   2.230  0.0331  0.1318  0.3955
 3511SOL     OW13815   1.419   0.320   1.930  0.4736  0.3416  0.5383
 3511SOL    HW213816   1.413   0.396   1.987 -0.2537 -0.7640  2.0134
 3511SOL    HW313817   1.357   0.257   1.967  1.3104 -1.1082 -0.4096
 3511SOL    MW413818   1.410   0.321   1.942  0.4880  0.0044  0.6079
 3512SOL     OW13819   6.151   1.284   0.162  0.6083  0.1630 -0.1696
 3512SOL    HW213820   6.078   1.230   0.191 -0.6317  1.4602 -0.7719
 3512SOL    HW313821   6.155   1.356   0.226 -1.3991  2.3986 -2.3621
 3512SOL    MW413822   6.142   1.287   0.174  0.1798  0.6291 -0.5384
 3513SOL     OW13823   1.816   3.533   0.919  0.1394 -0.4655 -0.4781
 3513SOL    HW213824   1.827   3.455   0.865  0.5381 -0.4747 -0.3915
 3513SOL    HW313825   1.819   3.606   0.858  0.9814 -0.4541 -0.4302
 3513SOL    MW413826   1.818   3.532   0.904  0.3031 -0.4652 -0.4604
 3514SOL     OW13827   2.501   4.378   3.745  0.0919  0.1886  0.2744
 3514SOL    HW213828   2.431   4.353   3.684 -0.2018  0.3192  0.5545
 3514SOL    HW313829   2.535   4.295   3.778  2.5676 -0.1292 -2.5687
 3514SOL    MW413830   2.496   4.364   3.741  0.3798  0.1639 -0.0638
 3515SOL     OW13831   3.463   3.206   5.726 -0.4304 -0.3523 -0.1539
 3515SOL    HW213832   3.414   3.244   5.653  0.8630  2.7248  0.3877
 3515SOL    HW313833   3.547   3.252   5.725  0.7887 -2.3573  1.5167
 3515SOL    MW413834   3.468   3.217   5.717 -0.0989 -0.2109  0.1379
 3516SOL     OW13835   2.168   3.651   6.230 -0.0746  0.3114 -0.1630
 3516SOL    HW213836   2.115   3.604   6.295  0.5219 -0.5036 -0.2463
 3516SOL    HW313837   2.128   3.629   6.146  0.7963 -0.9041 -0.2913
 3516SOL    MW413838   2.156   3.642   6.228  0.1191  0.0435 -0.1909
 3517SOL     OW13839   1.281   1.818   4.271  0.2727 -0.2394 -0.5329
 3517SOL    HW213840   1.230   1.825   4.191  0.0347 -0.6217 -0.4157
 3517SOL    HW313841   1.314   1.907   4.286  1.0164 -0.3310 -1.5083
 3517SOL    MW413842   1.279   1.831   4.263  0.3394 -0.3019 -0.6461
 3518SOL     OW13843   1.115   1.225   1.460 -0.6284 -0.1877 -0.1695
 3518SOL    HW213844   1.096   1.268   1.377 -0.6424 -1.9480 -1.1371
 3518SOL    HW313845   1.079   1.137   1.450  0.9449 -1.0244  1.0081
 3518SOL    MW413846   1.108   1.219   1.448 -0.4227 -0.5303 -0.1418
 3519SOL     OW13847   2.939   2.414   1.771  0.5166  0.0465  0.4916
 3519SOL    HW213848   2.936   2.333   1.823 -0.0944 -0.2437  0.0279
 3519SOL    HW313849   2.861   2.408   1.715  1.8024 -0.2576 -1.3489
 3519SOL    MW413850   2.928   2.402   1.771  0.6056 -0.0319  0.1876
 3520SOL     OW13851   5.196   1.018   3.709  0.2006 -0.4915  0.3071
 3520SOL    HW213852   5.183   1.112   3.717  0.3882 -0.2577 -1.6105
 3520SOL    HW313853   5.238   0.992   3.792 -0.4203  0.9799  1.1167
 3520SOL    MW413854   5.200   1.027   3.721  0.1434 -0.2665  0.1609
 3521SOL     OW13855   3.050   3.484   4.098  0.4191 -0.1782  0.2907
 3521SOL    HW213856   3.042   3.389   4.112 -0.8427 -0.1470 -0.1138
 3521SOL    HW313857   3.035   3.522   4.184  0.1618 -0.3162  0.3087
 3521SOL    MW413858   3.047   3.476   4.111  0.2187 -0.1923  0.2397
 3522SOL     OW13859   3.144   4.546   4.110 -0.0431 -0.2789  0.0619
 3522SOL    HW213860   3.085   4.617   4.135 -1.6096 -0.6186 -2.3244
 3522SOL    HW313861   3.155   4.495   4.190 -1.5221  0.8241  1.0276
 3522SOL    MW413862   3.137   4.549   4.124 -0.4450 -0.1782 -0.1255
 3523SOL     OW13863   5.332   2.771   4.083  0.2076  0.3965 -0.0492
 3523SOL    HW213864   5.247   2.728   4.090 -1.3518  2.7941 -2.2189
 3523SOL    HW313865   5.354   2.795   4.173  1.7606 -5.4299  1.5399
 3523SOL    MW413866   5.323   2.769   4.096  0.2068 -0.0559 -0.1258
 3524SOL     OW13867   4.010   3.381   4.775  0.1316  0.0252  0.1203
 3524SOL    HW213868   3.938   3.382   4.839  0.7707 -0.0352  0.8657
 3524SOL    HW313869   4.088   3.403   4.827  0.6113  0.3613 -0.7227
 3524SOL    MW413870   4.011   3.384   4.791  0.2792  0.0615  0.1074
 3525SOL     OW13871   4.628   1.100   4.384 -0.1909  0.7606 -0.3104
 3525SOL    HW213872   4.581   1.118   4.303 -0.4542 -0.6685 -0.4879
 3525SOL    HW313873   4.599   1.013   4.411 -0.9699  1.6381  1.9363
 3525SOL    MW413874   4.618   1.091   4.377 -0.3284  0.6878 -0.0374
 3526SOL     OW13875   1.098   0.886   0.821  0.1645 -0.0786 -0.0227
 3526SOL    HW213876   1.008   0.884   0.788  0.5583 -1.3667 -1.1361
 3526SOL    HW313877   1.137   0.961   0.777  0.4311 -1.2604 -1.9459
 3526SOL    MW413878   1.091   0.895   0.811  0.2516 -0.4045 -0.4233
 3527SOL     OW13879   0.303   1.783   3.246 -0.2392 -0.5706  0.2812
 3527SOL    HW213880   0.300   1.726   3.168  1.8288 -0.4326  0.0387
 3527SOL    HW313881   0.337   1.727   3.315  1.4958  0.2403  0.1259
 3527SOL    MW413882   0.307   1.768   3.245  0.2625 -0.4454  0.2287
 3528SOL     OW13883   1.368   6.326   3.941  0.0037 -0.0653 -0.5751
 3528SOL    HW213884   1.317   6.248   3.919 -0.1592 -0.4016  0.8973
 3528SOL    HW313885   1.370   6.327   4.037  1.4728  0.7875 -0.5893
 3528SOL    MW413886   1.362   6.316   3.951  0.1760  0.0029 -0.3827
 3529SOL     OW13887   3.213   4.533   1.782  0.2584 -0.1647 -0.0645
 3529SOL    HW213888   3.280   4.465   1.793  0.1021 -0.3558 -0.3028
 3529SOL    HW313889   3.227   4.567   1.694  1.4549  1.3172  0.6580
 3529SOL    MW413890   3.224   4.529   1.772  0.3956  0.0056 -0.0006
 3530SOL     OW13891   3.951   5.222   3.744  0.2065  0.0243 -0.7491
 3530SOL    HW213892   4.029   5.167   3.733  0.3297  0.2273 -0.8893
 3530SOL    HW313893   3.914   5.229   3.656  0.1747  0.1445 -0.7263
 3530SOL    MW413894   3.957   5.215   3.731  0.2186  0.0670 -0.7646
 3531SOL     OW13895   2.755   3.975   2.953  0.3639  0.4323 -0.1181
 3531SOL    HW213896   2.680   3.929   2.993  0.7733  1.2111  1.6380
 3531SOL    HW313897   2.820   3.906   2.941 -0.2355 -0.0555 -0.6508
 3531SOL    MW413898   2.754   3.960   2.957  0.3388  0.4707  0.0433
 3532SOL     OW13899   0.380   5.415   2.726 -0.0494  0.4296  0.2880
 3532SOL    HW213900   0.457   5.461   2.691 -0.9293  1.3097 -0.5582
 3532SOL    HW313901   0.389   5.326   2.692  0.3908  0.6296 -0.1404
 3532SOL    MW413902   0.392   5.409   2.717 -0.1074  0.5721  0.1198
 3533SOL     OW13903   1.012   4.095   2.170  0.5280 -0.2242  0.5405
 3533SOL    HW213904   1.001   4.009   2.129  0.2734  0.4776 -0.9122
 3533SOL    HW313905   1.065   4.145   2.108  0.4091  0.7760  1.2212
 3533SOL    MW413906   1.017   4.090   2.156  0.4788  0.0004  0.4386
 3534SOL     OW13907   4.907   3.847   0.297 -0.0819 -0.1226  0.3179
 3534SOL    HW213908   4.876   3.774   0.244  0.1263  0.3618 -0.4758
 3534SOL    HW313909   4.869   3.830   0.384  1.2065 -2.0006  0.5925
 3534SOL    MW413910   4.898   3.835   0.302  0.1155 -0.3065  0.2494
 3535SOL     OW13911   4.245   1.652   5.803  0.2724  0.1945 -0.0740
 3535SOL    HW213912   4.252   1.667   5.897  0.9005 -0.1322 -0.0591
 3535SOL    HW313913   4.330   1.614   5.779 -0.1172 -0.3125 -0.6609
 3535SOL    MW413914   4.257   1.649   5.812  0.3039  0.0845 -0.1495
 3536SOL     OW13915   5.926   0.480   5.035  0.4454 -0.1412  0.8841
 3536SOL    HW213916   5.999   0.427   5.003 -0.4555 -2.0670  1.8367
 3536SOL    HW313917   5.899   0.436   5.116 -0.6047  1.5924  1.5134
 3536SOL    MW413918   5.932   0.467   5.041  0.1880 -0.1666  1.0928
 3537SOL     OW13919   4.282   0.557   5.442 -0.0274  0.4215  0.7087
 3537SOL    HW213920   4.317   0.643   5.463  0.4624  0.4149 -0.0269
 3537SOL    HW313921   4.298   0.547   5.348 -1.1970  0.0350  0.5304
 3537SOL    MW413922   4.289   0.567   5.432 -0.1170  0.3697  0.5881
 3538SOL     OW13923   2.190   5.247   5.814 -0.5490  0.5992  0.1157
 3538SOL    HW213924   2.159   5.329   5.851 -2.4655  0.2519 -0.6018
 3538SOL    HW313925   2.180   5.257   5.720  0.9436  0.1834 -0.1235
 3538SOL    MW413926   2.185   5.259   5.807 -0.6049  0.4985 -0.0105
 3539SOL     OW13927   0.068   5.400   0.621  0.4033  0.2055  0.2504
 3539SOL    HW213928   0.153   5.383   0.660 -0.0830  0.3777  1.4155
 3539SOL    HW313929   0.024   5.315   0.619  0.7000  0.0659 -0.6101
 3539SOL    MW413930   0.073   5.387   0.626  0.3783  0.2098  0.2906
 3540SOL     OW13931   4.395   5.694   5.109  0.3909 -0.0136 -0.6987
 3540SOL    HW213932   4.395   5.778   5.063 -1.5315  0.8016  0.6427
 3540SOL    HW313933   4.437   5.712   5.193 -0.3161 -0.2673 -0.2742
 3540SOL    MW413934   4.400   5.708   5.114  0.0440  0.0605 -0.4657
 3541SOL     OW13935   1.683   5.791   0.581  0.2911  0.2765 -0.0669
 3541SOL    HW213936   1.679   5.701   0.612  1.8105  0.0053 -0.5897
 3541SOL    HW313937   1.753   5.832   0.632 -1.2974  1.6024  1.1609
 3541SOL    MW413938   1.692   5.785   0.592  0.2820  0.4157  0.0261
 3542SOL     OW13939   2.212   0.249   6.122  0.0572  0.0977  0.0951
 3542SOL    HW213940   2.300   0.282   6.139 -0.9601  3.4870 -0.5155
 3542SOL    HW313941   2.175   0.311   6.059 -3.0347 -0.7139  0.9682
 3542SOL    MW413942   2.219   0.262   6.116 -0.4850  0.4378  0.1297
 3543SOL     OW13943   1.856   5.108   3.341 -0.1197 -0.0176  0.8072
 3543SOL    HW213944   1.768   5.083   3.370 -1.1843  1.3380 -1.0976
 3543SOL    HW313945   1.880   5.040   3.278 -0.7702  0.8030 -0.3516
 3543SOL    MW413946   1.847   5.095   3.337 -0.3460  0.2695  0.4030
 3544SOL     OW13947   3.639   1.351   4.273  0.1072 -0.5363  0.0454
 3544SOL    HW213948   3.564   1.406   4.294 -0.0424 -0.0468 -1.5734
 3544SOL    HW313949   3.614   1.263   4.299 -0.5668 -0.1883  0.5808
 3544SOL    MW413950   3.626   1.347   4.279 -0.0014 -0.4258 -0.0975
 3545SOL     OW13951   5.174   0.420   1.561  0.4292  0.6152  0.3544
 3545SOL    HW213952   5.157   0.395   1.471  0.3385 -1.6192  0.9228
 3545SOL    HW313953   5.088   0.444   1.596  0.1612 -0.2289  0.3031
 3545SOL    MW413954   5.160   0.420   1.554  0.3819  0.2090  0.4226
 3546SOL     OW13955   1.168   1.139   0.713  0.1465 -0.0573 -0.3221
 3546SOL    HW213956   1.128   1.135   0.800 -2.6960  0.4858 -1.4651
 3546SOL    HW313957   1.166   1.232   0.691  0.3602 -0.2497 -1.1716
 3546SOL    MW413958   1.162   1.151   0.722 -0.2004 -0.0110 -0.5850
 3547SOL     OW13959   4.550   5.876   1.791 -0.2152  0.5073 -0.1812
 3547SOL    HW213960   4.502   5.909   1.867 -0.7215 -1.0840  0.2257
 3547SOL    HW313961   4.493   5.809   1.754  0.7192  0.1728 -1.0548
 3547SOL    MW413962   4.536   5.872   1.796 -0.1587  0.2532 -0.2428
 3548SOL     OW13963   1.478   1.044   4.690 -0.0507 -0.2702 -0.6019
 3548SOL    HW213964   1.433   1.000   4.762  1.9553 -0.2768  0.6902
 3548SOL    HW313965   1.463   0.986   4.615 -2.3171 -0.1712 -0.3167
 3548SOL    MW413966   1.470   1.030   4.689 -0.0850 -0.2580 -0.3938
 3549SOL     OW13967   0.277   3.624   0.740  0.4772 -0.2998  0.7177
 3549SOL    HW213968   0.260   3.531   0.724  1.3873 -0.3614 -0.0049
 3549SOL    HW313969   0.366   3.626   0.777  0.9964  0.3589 -0.4986
 3549SOL    MW413970   0.287   3.612   0.743  0.6658 -0.2210  0.4619
 3550SOL     OW13971   5.019   6.127   5.240 -0.0411 -0.7992 -0.1431
 3550SOL    HW213972   5.090   6.184   5.210 -0.8363 -1.1846 -3.1259
 3550SOL    HW313973   4.982   6.091   5.159 -3.6893 -0.5476  1.2428
 3550SOL    MW413974   5.023   6.130   5.225 -0.6274 -0.8169 -0.3538
 3551SOL     OW13975   0.943   3.215   1.756 -0.3593  0.2204  0.3132
 3551SOL    HW213976   0.982   3.220   1.669 -1.8710 -0.4928 -0.4410
 3551SOL    HW313977   1.017   3.203   1.816  0.6372  0.0159 -0.9363
 3551SOL    MW413978   0.958   3.214   1.753 -0.4273  0.0993  0.0489
 3552SOL     OW13979   0.488   5.832   0.260 -0.5882  0.0446 -0.1900
 3552SOL    HW213980   0.433   5.892   0.208  1.1956  2.2997  0.3568
 3552SOL    HW313981   0.476   5.862   0.350  0.6478 -0.1601  0.0502
 3552SOL    MW413982   0.479   5.844   0.265 -0.1897  0.3151 -0.0862
 3553SOL     OW13983   4.936   0.210   5.612  0.4056  0.3270 -0.3637
 3553SOL    HW213984   4.898   0.122   5.606  1.1611  0.1060 -2.3029
 3553SOL    HW313985   4.888   0.251   5.684  1.2106 -2.2184  1.7941
 3553SOL    MW413986   4.924   0.203   5.621  0.6115 -0.0380 -0.3348
 3554SOL     OW13987   2.544   3.649   3.367  0.2891 -0.3172  0.1222
 3554SOL    HW213988   2.569   3.724   3.313 -0.5085 -0.4622 -0.4834
 3554SOL    HW313989   2.591   3.661   3.449 -0.3797  1.2443  0.3217
 3554SOL    MW413990   2.553   3.661   3.370  0.0957 -0.1303  0.0686
 3555SOL     OW13991   2.906   1.164   3.592 -0.6658 -0.3931  0.3562
 3555SOL    HW213992   2.943   1.083   3.628 -0.5743 -0.5149 -0.0044
 3555SOL    HW313993   2.844   1.194   3.658  0.4992  0.1295  1.2683
 3555SOL    MW413994   2.903   1.157   3.606 -0.5000 -0.3402  0.4290
 3556SOL     OW13995   1.412   4.680   6.223 -0.1558  0.0039  0.4596
 3556SOL    HW213996   1.339   4.692   6.163 -0.3812  0.7229  0.8576
 3556SOL    HW313997   1.416   4.586   6.239  0.1794 -0.2587 -1.0041
 3556SOL    MW413998   1.403   4.669   6.218 -0.1413  0.0641  0.3190
 3557SOL     OW13999   1.539   4.343   2.932  0.1220 -0.2306  0.3500
 3557SOL    HW214000   1.632   4.324   2.924 -0.0794 -2.2050  1.9697
 3557SOL    HW314001   1.496   4.269   2.890 -0.7699  0.9305 -0.8891
 3557SOL    MW414002   1.545   4.331   2.925 -0.0222 -0.3379  0.4002
 3558SOL     OW14003   5.987   2.418   0.367  0.5920  0.1298 -0.0171
 3558SOL    HW214004   5.995   2.359   0.442 -1.1103  1.0381  0.9377
 3558SOL    HW314005   6.077   2.433   0.339  1.2400 -0.6476  1.5129
 3558SOL    MW414006   6.000   2.412   0.373  0.4529  0.1471  0.3107
 3559SOL     OW14007   3.311   5.237   1.639 -0.0985  0.2718 -0.0854
 3559SOL    HW214008   3.382   5.276   1.587  0.3919 -0.7155 -0.1807
 3559SOL    HW314009   3.234   5.241   1.581  0.0160  0.8192 -0.2028
 3559SOL    MW414010   3.310   5.243   1.624 -0.0187  0.2137 -0.1135
 3560SOL     OW14011   2.596   0.139   6.307 -0.2555 -0.2554 -0.4495
 3560SOL    HW214012   2.528   0.077   6.332 -0.8199  0.2619 -0.6828
 3560SOL    HW314013   2.574   0.165   6.217 -0.4489  0.8166 -0.1149
 3560SOL    MW414014   2.584   0.134   6.298 -0.3555 -0.0457 -0.4361
 3561SOL     OW14015   2.371   3.266   5.369 -0.0654 -0.6511 -0.1110
 3561SOL    HW214016   2.438   3.262   5.437 -1.1343  2.3372  1.3270
 3561SOL    HW314017   2.299   3.313   5.411 -0.6409  1.6788 -3.3610
 3561SOL    MW414018   2.371   3.272   5.384 -0.2824  0.0506 -0.3501
 3562SOL     OW14019   2.520   2.959   4.501  0.0001 -0.0864  0.2928
 3562SOL    HW214020   2.430   2.972   4.470  0.1322 -0.8160 -0.4350
 3562SOL    HW314021   2.514   2.885   4.562  0.2139 -0.6165 -0.3203
 3562SOL    MW414022   2.507   2.951   4.505  0.0458 -0.2526  0.1159
 3563SOL     OW14023   1.648   4.586   2.845  0.2108 -0.6310 -0.0830
 3563SOL    HW214024   1.566   4.588   2.795 -0.3587 -1.2748  0.7987
 3563SOL    HW314025   1.642   4.507   2.899  1.0383 -0.2370  0.6136
 3563SOL    MW414026   1.636   4.576   2.845  0.2448 -0.6640  0.1253
 3564SOL     OW14027   1.922   2.144   3.868  0.4555  0.1996 -0.6863
 3564SOL    HW214028   1.971   2.087   3.807 -0.3954 -0.8722 -0.4105
 3564SOL    HW314029   1.860   2.190   3.812  0.5393  0.1715 -0.8034
 3564SOL    MW414030   1.921   2.142   3.852  0.3543  0.0545 -0.6654
 3565SOL     OW14031   1.143   4.002   0.658  0.0711 -0.1705  0.2377
 3565SOL    HW214032   1.066   4.051   0.630  0.1524 -0.5005 -0.5749
 3565SOL    HW314033   1.211   4.028   0.596  0.3677 -0.5926  0.3891
 3565SOL    MW414034   1.142   4.012   0.646  0.1210 -0.2697  0.1505
 3566SOL     OW14035   2.876   5.007   1.595 -0.3793  0.6503  0.3751
 3566SOL    HW214036   2.945   5.062   1.633 -0.9634  2.4263 -0.9605
 3566SOL    HW314037   2.921   4.927   1.567  0.9267  1.2777  0.5831
 3566SOL    MW414038   2.891   5.004   1.596 -0.2841  0.9674  0.2264
 3567SOL     OW14039   2.011   1.820   1.090  0.6077  0.0042  0.2733
 3567SOL    HW214040   2.099   1.856   1.090  0.4241  0.4786 -0.1017
 3567SOL    HW314041   1.963   1.872   1.155  0.6335 -0.3297  0.5620
 3567SOL    MW414042   2.016   1.832   1.098  0.5869  0.0227  0.2619
 3568SOL     OW14043   4.643   0.667   0.533 -0.2496  0.1107 -0.9690
 3568SOL    HW214044   4.735   0.694   0.539  0.8161 -3.4164  0.8285
 3568SOL    HW314045   4.634   0.632   0.444  0.7825 -1.3704 -0.5220
 3568SOL    MW414046   4.654   0.666   0.522  0.0272 -0.5501 -0.6729
 3569SOL     OW14047   4.013   0.203   4.227 -0.1931 -0.1564 -0.1637
 3569SOL    HW214048   4.015   0.271   4.159 -0.2908  0.7583  0.7305
 3569SOL    HW314049   3.922   0.199   4.255 -0.1738 -0.6123 -0.1520
 3569SOL    MW414050   4.001   0.211   4.222 -0.2035 -0.0959 -0.0442
 3570SOL     OW14051   5.320   4.801   5.209 -0.0851  0.0829 -0.0270
 3570SOL    HW214052   5.411   4.807   5.179  0.5758  0.7235  1.9773
 3570SOL    HW314053   5.270   4.791   5.128  1.7990 -0.9645 -1.1546
 3570SOL    MW414054   5.326   4.800   5.194  0.2507  0.0292  0.0887
 3571SOL     OW14055   0.741   1.177   0.321 -0.2191  0.1116 -0.2531
 3571SOL    HW214056   0.780   1.226   0.394 -2.3291  0.1595  0.9371
 3571SOL    HW314057   0.648   1.201   0.324 -0.8384 -1.9476 -1.2942
 3571SOL    MW414058   0.733   1.187   0.331 -0.5792 -0.1538 -0.2334
 3572SOL     OW14059   3.256   0.154   5.888  0.5412  0.4146  0.6080
 3572SOL    HW214060   3.327   0.162   5.825 -0.0718 -0.0771 -0.1506
 3572SOL    HW314061   3.176   0.148   5.836 -0.4195  3.6096  1.4335
 3572SOL    MW414062   3.255   0.154   5.873  0.3336  0.7713  0.6168
 3573SOL     OW14063   6.148   0.630   4.114  0.0863 -0.6027  0.9117
 3573SOL    HW214064   6.064   0.596   4.084 -0.5015  1.4777  0.0083
 3573SOL    HW314065   6.188   0.668   4.036  1.9239 -1.5584  1.3200
 3573SOL    MW414066   6.142   0.630   4.100  0.2512 -0.4543  0.8463
 3574SOL     OW14067   3.662   2.891   5.732 -0.3014  0.3035 -0.1545
 3574SOL    HW214068   3.729   2.830   5.764  0.4244  0.7619 -0.7712
 3574SOL    HW314069   3.620   2.923   5.812 -0.1197 -0.3633  0.2165
 3574SOL    MW414070   3.665   2.887   5.747 -0.1817  0.2760 -0.1869
 3575SOL     OW14071   3.320   3.682   5.445  0.3505 -0.0701 -0.2324
 3575SOL    HW214072   3.303   3.769   5.481 -1.0473 -0.0094 -0.9934
 3575SOL    HW314073   3.256   3.626   5.487  0.3805 -0.4823 -0.7307
 3575SOL    MW414074   3.310   3.686   5.456  0.1701 -0.1165 -0.3986
 3576SOL     OW14075   2.803   5.486   5.331 -0.3464  0.2833 -0.3173
 3576SOL    HW214076   2.803   5.443   5.246  0.4008 -0.2687 -0.0447
 3576SOL    HW314077   2.895   5.486   5.359 -0.4712  1.1434  0.1499
 3576SOL    MW414078   2.815   5.481   5.323 -0.2643  0.3239 -0.2197
 3577SOL     OW14079   3.938   4.511   6.357 -0.7595  0.0287 -0.7469
 3577SOL    HW214080   3.960   4.418   6.343  3.0560  0.5376  0.7226
 3577SOL    HW314081   3.851   4.509   6.397 -0.4659 -2.9817 -0.0035
 3577SOL    MW414082   3.930   4.498   6.360 -0.2174 -0.3013 -0.4550
 3578SOL     OW14083   5.525   4.891   0.635  0.4119 -0.3390 -0.0528
 3578SOL    HW214084   5.509   4.953   0.565  1.4064 -0.0210 -0.0184
 3578SOL    HW314085   5.438   4.860   0.661  0.0485 -0.6223 -1.5531
 3578SOL    MW414086   5.511   4.895   0.629  0.4952 -0.3344 -0.2462
 3579SOL     OW14087   4.730   6.138   5.917  0.0042 -0.2245  0.1132
 3579SOL    HW214088   4.690   6.150   5.831  0.9093  1.8159 -0.1033
 3579SOL    HW314089   4.821   6.165   5.904 -0.2989  2.0440  2.0970
 3579SOL    MW414090   4.737   6.143   5.904  0.0836  0.3440  0.3464
 3580SOL     OW14091   5.716   3.700   1.227  0.1345  0.1760 -0.3366
 3580SOL    HW214092   5.687   3.608   1.230 -0.7534  0.4266 -0.7358
 3580SOL    HW314093   5.703   3.725   1.135 -2.8468  1.6718  0.3730
 3580SOL    MW414094   5.710   3.691   1.215 -0.3760  0.4064 -0.2956
 3581SOL     OW14095   1.817   1.315   5.997 -0.9023  0.3588  0.2942
 3581SOL    HW214096   1.893   1.259   6.011 -1.8726 -1.3494 -0.9629
 3581SOL    HW314097   1.843   1.400   6.034  2.0003  0.1587 -1.0039
 3581SOL    MW414098   1.831   1.319   6.004 -0.6474  0.1070 -0.0429
 3582SOL     OW14099   3.166   3.036   3.883 -0.4303 -0.7103  0.1964
 3582SOL    HW214100   3.127   3.057   3.798 -1.0804 -3.2641 -0.2013
 3582SOL    HW314101   3.091   3.014   3.938  0.0288  0.4396  1.3506
 3582SOL    MW414102   3.151   3.036   3.879 -0.4555 -0.8955  0.2962
 3583SOL     OW14103   1.005   2.524   1.360  0.3380 -0.4203  0.4228
 3583SOL    HW214104   0.984   2.463   1.289  0.1108  0.0720  0.0607
 3583SOL    HW314105   0.948   2.599   1.345  0.1486 -0.3869  1.2462
 3583SOL    MW414106   0.995   2.526   1.349  0.2830 -0.3509  0.4837
 3584SOL     OW14107   0.552   2.632   4.712  0.4808  0.0605 -0.0092
 3584SOL    HW214108   0.579   2.561   4.769 -2.3980  0.3251  1.9304
 3584SOL    HW314109   0.552   2.709   4.769  0.2348  0.9226 -1.1454
 3584SOL    MW414110   0.555   2.633   4.727  0.0685  0.2091  0.0968
 3585SOL     OW14111   2.240   2.063   6.071  0.5621 -0.3023 -0.2574
 3585SOL    HW214112   2.272   1.977   6.045 -0.7062 -0.4678 -1.4143
 3585SOL    HW314113   2.165   2.045   6.127 -0.8913 -0.0394 -2.0037
 3585SOL    MW414114   2.234   2.049   6.075  0.2030 -0.2895 -0.6405
 3586SOL     OW14115   6.073   0.867   3.003 -0.1316  0.1404 -0.1257
 3586SOL    HW214116   6.094   0.821   3.084 -0.4688  1.5528  0.8038
 3586SOL    HW314117   6.104   0.809   2.934  0.4549 -0.9581  1.0141
 3586SOL    MW414118   6.080   0.853   3.005 -0.0987  0.1818  0.1473
 3587SOL     OW14119   5.355   1.351   3.964 -0.0073  0.1291 -0.1487
 3587SOL    HW214120   5.328   1.413   4.031  0.6397  0.1307  0.1166
 3587SOL    HW314121   5.288   1.282   3.966 -0.6195  0.7123 -0.3111
 3587SOL    MW414122   5.342   1.350   3.973 -0.0027  0.2062 -0.1351
 3588SOL     OW14123   0.765   2.645   2.677  0.1719  0.4852  0.1063
 3588SOL    HW214124   0.784   2.658   2.585 -0.2477 -1.2420 -0.2716
 3588SOL    HW314125   0.671   2.662   2.685 -0.0674 -0.6461 -0.0860
 3588SOL    MW414126   0.755   2.649   2.666  0.0850  0.1080  0.0310
 3589SOL     OW14127   2.538   3.207   2.859 -1.0107 -0.3537  0.4094
 3589SOL    HW214128   2.589   3.125   2.851 -0.9013 -0.4926  2.1121
 3589SOL    HW314129   2.605   3.275   2.865 -1.0968  0.0769 -2.2781
 3589SOL    MW414130   2.554   3.205   2.859 -1.0076 -0.3152  0.2795
 3590SOL     OW14131   5.602   3.463   1.980  0.3832  0.2575  0.2541
 3590SOL    HW214132   5.566   3.470   1.892 -1.7179  0.7840  1.0788
 3590SOL    HW314133   5.696   3.455   1.968  0.1754  0.7093 -2.0034
 3590SOL    MW414134   5.609   3.463   1.967  0.0786  0.3866  0.0650
 3591SOL     OW14135   2.961   4.840   3.467 -0.4821  0.2787  0.6000
 3591SOL    HW214136   2.946   4.906   3.534 -0.7033  0.9084 -0.0593
 3591SOL    HW314137   3.050   4.858   3.435  0.0801 -0.7475  1.5106
 3591SOL    MW414138   2.971   4.851   3.472 -0.4371  0.2263  0.6331
 3592SOL     OW14139   2.848   5.499   4.750  0.0798 -0.2326 -0.0838
 3592SOL    HW214140   2.788   5.431   4.781 -0.8554 -0.4612 -2.2143
 3592SOL    HW314141   2.819   5.579   4.794 -1.1033 -0.5650 -0.2144
 3592SOL    MW414142   2.836   5.500   4.760 -0.1997 -0.3066 -0.3821
 3593SOL     OW14143   1.546   5.298   3.561  0.2901 -0.0009  0.1224
 3593SOL    HW214144   1.521   5.352   3.486  1.5891 -1.1930 -1.2391
 3593SOL    HW314145   1.482   5.227   3.562  0.6383 -0.3212 -0.2460
 3593SOL    MW414146   1.534   5.296   3.551  0.5074 -0.2004 -0.1058
 3594SOL     OW14147   0.618   3.704   4.274 -0.0727 -0.3621  0.1697
 3594SOL    HW214148   0.628   3.775   4.337  0.5746 -0.2516 -0.0539
 3594SOL    HW314149   0.524   3.684   4.275 -0.6416  1.8749 -1.2684
 3594SOL    MW414150   0.607   3.711   4.282 -0.0624 -0.0524 -0.0495
 3595SOL     OW14151   1.641   5.790   1.200 -0.4300 -0.0997  0.6003
 3595SOL    HW214152   1.566   5.789   1.141 -0.6252 -2.2237  0.8006
 3595SOL    HW314153   1.608   5.753   1.282  0.8428 -1.2502  0.6292
 3595SOL    MW414154   1.627   5.785   1.203 -0.2878 -0.5318  0.6305
 3596SOL     OW14155   0.914   0.294   6.077 -0.1408  0.7485 -0.2278
 3596SOL    HW214156   0.937   0.236   6.149  0.8222  1.8393  0.3824
 3596SOL    HW314157   0.978   0.275   6.009 -3.0781 -2.7891 -2.3628
 3596SOL    MW414158   0.925   0.284   6.077 -0.4013  0.4257 -0.4289
 3597SOL     OW14159   5.111   3.530   4.168  0.0847 -0.0800 -0.4118
 3597SOL    HW214160   5.149   3.442   4.178 -0.9632 -0.3800  1.3359
 3597SOL    HW314161   5.062   3.544   4.249 -0.3667  1.8434 -0.9738
 3597SOL    MW414162   5.110   3.520   4.180 -0.1131  0.1342 -0.2554
 3598SOL     OW14163   2.197   5.341   1.060 -0.1814 -0.1177 -0.4423
 3598SOL    HW214164   2.169   5.252   1.039 -2.3641 -0.2567  2.3730
 3598SOL    HW314165   2.129   5.374   1.119  2.0630  2.3348  1.0088
 3598SOL    MW414166   2.184   5.334   1.065 -0.1733  0.1876  0.1206
 3599SOL     OW14167   1.297   3.097   2.531  0.0793  0.0504 -0.2745
 3599SOL    HW214168   1.214   3.111   2.486 -0.2729  2.0737  0.8997
 3599SOL    HW314169   1.312   3.002   2.523 -2.7975 -0.5518  0.2676
 3599SOL    MW414170   1.288   3.086   2.524 -0.3468  0.2379 -0.0481
 3600SOL     OW14171   3.976   0.806   1.818 -0.0956  0.3727  0.0977
 3600SOL    HW214172   3.930   0.818   1.902 -0.0260  1.1196  0.0357
 3600SOL    HW314173   3.929   0.863   1.757  0.5453  0.6942 -0.1059
 3600SOL    MW414174   3.963   0.815   1.821 -0.0019  0.5137  0.0627
 3601SOL     OW14175   2.729   3.416   2.900  0.5826 -0.1404 -0.6738
 3601SOL    HW214176   2.688   3.444   2.982  3.1151  0.8973  0.3583
 3601SOL    HW314177   2.738   3.497   2.849  0.6424 -0.4693 -1.1906
 3601SOL    MW414178   2.725   3.431   2.904  0.9246 -0.0469 -0.6058
 3602SOL     OW14179   4.796   5.070   0.477  0.5637 -0.0883 -0.8572
 3602SOL    HW214180   4.819   5.154   0.515  0.2285 -0.3068 -0.1465
 3602SOL    HW314181   4.701   5.074   0.465  0.7654  0.3222 -2.5529
 3602SOL    MW414182   4.786   5.081   0.481  0.5461 -0.0630 -0.9872
 3603SOL     OW14183   3.163   5.947   4.362  0.3363  0.4674 -0.6476
 3603SOL    HW214184   3.117   5.892   4.426 -0.3873 -0.1504 -1.6732
 3603SOL    HW314185   3.095   6.004   4.327  0.9385  1.5210 -0.1329
 3603SOL    MW414186   3.148   5.947   4.366  0.3203  0.5249 -0.7150
 3604SOL     OW14187   1.933   5.452   6.013  0.0018 -0.5553 -0.0016
 3604SOL    HW214188   1.885   5.372   5.993 -0.2966 -0.0707 -1.2924
 3604SOL    HW314189   1.876   5.499   6.074 -1.6429  0.4004 -2.1368
 3604SOL    MW414190   1.919   5.448   6.018 -0.2545 -0.3653 -0.4536
 3605SOL     OW14191   0.990   1.326   2.155  0.1651  0.3562 -0.2103
 3605SOL    HW214192   0.898   1.306   2.141  0.2619 -1.4419  1.2235
 3605SOL    HW314193   0.990   1.401   2.214 -0.3764  0.4894 -0.3764
 3605SOL    MW414194   0.978   1.333   2.161  0.1064  0.1366 -0.0430
 3606SOL     OW14195   4.281   0.932   4.206 -0.0683  0.4395  0.1598
 3606SOL    HW214196   4.193   0.919   4.170  0.0587 -0.5914  0.1709
 3606SOL    HW314197   4.267   0.941   4.301 -0.0233 -2.1774  0.4993
 3606SOL    MW414198   4.267   0.931   4.214 -0.0456 -0.0418  0.2060
 3607SOL     OW14199   6.041   5.283   4.835  0.8330 -0.4135  0.6715
 3607SOL    HW214200   6.110   5.347   4.820 -0.1749  0.1127 -2.5786
 3607SOL    HW314201   6.087   5.205   4.868  2.9123  0.1220 -0.7556
 3607SOL    MW414202   6.056   5.281   4.837  0.9744 -0.2734  0.0544
 3608SOL     OW14203   1.920   1.695   0.656  0.0430 -0.4100  0.2809
 3608SOL    HW214204   1.851   1.722   0.596  1.4277 -0.0606 -1.1994
 3608SOL    HW314205   1.881   1.707   0.743 -0.6467  3.0080 -0.3621
 3608SOL    MW414206   1.906   1.700   0.660  0.1347  0.0871  0.0007
 3609SOL     OW14207   5.157   2.472   2.166 -0.0501  0.1806 -0.0771
 3609SOL    HW214208   5.088   2.434   2.112 -1.4040  0.1704  1.5713
 3609SOL    HW314209   5.153   2.423   2.248  1.7193  0.4050  0.1687
 3609SOL    MW414210   5.147   2.461   2.170  0.0047  0.2088  0.1728
 3610SOL     OW14211   6.407   4.302   3.727  0.2841 -0.3677  0.2252
 3610SOL    HW214212   6.369   4.382   3.765 -0.0387 -0.5568  0.3035
 3610SOL    HW314213   6.502   4.316   3.731  0.2159  0.5029 -0.8237
 3610SOL    MW414214   6.414   4.314   3.733  0.2325 -0.2778  0.0971
 3611SOL     OW14215   3.989   6.424   3.388  0.6129  0.0027 -1.0897
 3611SOL    HW214216   3.980   6.510   3.428  0.6966  0.8525 -2.7739
 3611SOL    HW314217   3.979   6.362   3.460 -0.5104  1.3861  0.0053
 3611SOL    MW414218   3.986   6.427   3.402  0.4757  0.2973 -1.1675
 3612SOL     OW14219   1.813   0.974   3.022  0.5725 -0.8372 -0.3165
 3612SOL    HW214220   1.820   0.929   2.938  0.4483 -0.3558 -0.5872
 3612SOL    HW314221   1.719   0.991   3.032  0.8089  1.3083 -1.2692
 3612SOL    MW414222   1.801   0.970   3.012  0.5873 -0.4906 -0.4779
 3613SOL     OW14223   0.781   6.106   3.368  0.1792  0.2059  0.3569
 3613SOL    HW214224   0.769   6.055   3.448  0.9582  0.4540  0.6374
 3613SOL    HW314225   0.721   6.065   3.305  2.5847 -2.7698 -0.2247
 3613SOL    MW414226   0.771   6.094   3.370  0.5994 -0.1540  0.3172
 3614SOL     OW14227   0.760   5.031   4.894 -0.1873 -0.5140  0.4617
 3614SOL    HW214228   0.719   4.978   4.963  0.6406 -0.8961  0.6669
 3614SOL    HW314229   0.801   4.967   4.836  2.5607 -0.1025  1.7808
 3614SOL    MW414230   0.760   5.015   4.896  0.2845 -0.5102  0.6628
 3615SOL     OW14231   2.674   6.257   0.081 -0.4269 -0.0425 -0.1788
 3615SOL    HW214232   2.762   6.252   0.119 -0.6830  0.5295  0.5273
 3615SOL    HW314233   2.688   6.257  -0.013  0.3433  0.1729 -0.0718
 3615SOL    MW414234   2.687   6.257   0.074 -0.3590  0.0614 -0.0715
 3616SOL     OW14235   0.511   3.349   2.215 -0.3167 -0.0142  0.3408
 3616SOL    HW214236   0.539   3.399   2.292 -1.1189 -0.2442  0.7886
 3616SOL    HW314237   0.592   3.309   2.183 -0.0554 -0.3412  1.3740
 3616SOL    MW414238   0.526   3.351   2.221 -0.3881 -0.0877  0.5362
 3617SOL     OW14239   0.560   4.516   2.114 -0.3843 -0.6089 -0.1509
 3617SOL    HW214240   0.598   4.552   2.035 -0.7091  1.2042  0.4787
 3617SOL    HW314241   0.539   4.592   2.168  0.1033 -1.7955  1.8174
 3617SOL    MW414242   0.562   4.530   2.111 -0.3628 -0.5262  0.1918
 3618SOL     OW14243   3.155   2.170   0.802  0.3889  0.6723  0.0455
 3618SOL    HW214244   3.213   2.245   0.803  0.5008  0.7912 -3.1224
 3618SOL    HW314245   3.082   2.197   0.746 -0.2532 -1.0922 -0.0430
 3618SOL    MW414246   3.153   2.183   0.795  0.3189  0.4552 -0.3842
 3619SOL     OW14247   3.502   6.009   3.827 -0.1676 -0.1012  0.1291
 3619SOL    HW214248   3.499   5.965   3.742  1.7963  1.3455 -0.7892
 3619SOL    HW314249   3.590   5.990   3.861 -0.0381  1.3092  0.6787
 3619SOL    MW414250   3.513   6.001   3.820  0.1086  0.2757  0.0804
 3620SOL     OW14251   4.824   2.477   1.584  0.3463 -0.0608  0.6003
 3620SOL    HW214252   4.877   2.426   1.645  0.1750 -1.6929 -0.5424
 3620SOL    HW314253   4.855   2.449   1.497 -0.3075  1.2250 -0.0702
 3620SOL    MW414254   4.835   2.466   1.580  0.2375 -0.1065  0.3611
 3621SOL     OW14255   3.413   5.894   2.750  0.3525 -0.1316 -0.1845
 3621SOL    HW214256   3.347   5.906   2.818 -0.5939 -1.9624 -0.7276
 3621SOL    HW314257   3.486   5.851   2.794  1.3718  2.0788  0.4638
 3621SOL    MW414258   3.414   5.890   2.764  0.3621 -0.0815 -0.1707
 3622SOL     OW14259   4.122   5.430   4.257 -0.1634 -0.6193 -0.3101
 3622SOL    HW214260   4.037   5.397   4.288  0.2152 -0.7242  0.6364
 3622SOL    HW314261   4.137   5.509   4.309 -0.0753 -0.1182 -1.0814
 3622SOL    MW414262   4.112   5.436   4.268 -0.1018 -0.5671 -0.2870
 3623SOL     OW14263   0.050   2.704   4.595  0.0081 -0.1546 -0.6464
 3623SOL    HW214264   0.131   2.658   4.618 -0.2522 -0.9786 -1.3411
 3623SOL    HW314265  -0.020   2.642   4.615 -0.4562  0.5256 -0.1182
 3623SOL    MW414266   0.051   2.690   4.601 -0.0875 -0.1736 -0.6684
 3624SOL     OW14267   2.591   6.242   5.432  0.4110 -0.5365 -0.3427
 3624SOL    HW214268   2.598   6.312   5.497  0.0232 -0.0700 -0.7996
 3624SOL    HW314269   2.682   6.227   5.404  0.2943  1.7797 -2.3207
 3624SOL    MW414270   2.604   6.250   5.437  0.3444 -0.1694 -0.6640
 3625SOL     OW14271   3.526   1.311   1.482  0.6197 -0.1093 -0.0794
 3625SOL    HW214272   3.612   1.314   1.525  0.9721  0.6540 -0.7986
 3625SOL    HW314273   3.485   1.394   1.506 -0.2280 -0.7673  0.8358
 3625SOL    MW414274   3.532   1.322   1.491  0.5543 -0.0954 -0.0536
 3626SOL     OW14275   4.791   5.395   4.754 -0.1797 -0.2415 -0.1421
 3626SOL    HW214276   4.770   5.489   4.758 -1.2448 -0.4337 -0.7657
 3626SOL    HW314277   4.804   5.369   4.845 -1.8342  0.1096  0.2361
 3626SOL    MW414278   4.790   5.404   4.767 -0.5385 -0.2205 -0.1745
 3627SOL     OW14279   4.245   1.763   6.047  0.0850  0.0369 -0.1181
 3627SOL    HW214280   4.223   1.765   6.140  0.1426 -2.9196  0.0417
 3627SOL    HW314281   4.253   1.855   6.023  1.0346  0.9012  2.9995
 3627SOL    MW414282   4.243   1.775   6.056  0.2179 -0.2391  0.3143
 3628SOL     OW14283   3.785   1.269   4.589  0.3102  0.3831  0.1055
 3628SOL    HW214284   3.824   1.273   4.676  1.5058 -0.1406 -0.3845
 3628SOL    HW314285   3.793   1.358   4.555 -2.6710  1.3162  1.5279
 3628SOL    MW414286   3.791   1.281   4.596  0.0746  0.4371  0.2285
 3629SOL     OW14287   5.049   5.887   3.900 -0.4590 -0.0461  0.0454
 3629SOL    HW214288   5.058   5.794   3.878  2.5904 -0.1099  1.0226
 3629SOL    HW314289   4.957   5.907   3.882 -1.4343 -3.4042  0.4894
 3629SOL    MW414290   5.038   5.877   3.895 -0.1854 -0.4975  0.2329
 3630SOL     OW14291   2.971   4.617   0.094 -1.1488 -0.5508 -0.5496
 3630SOL    HW214292   2.937   4.676   0.026 -0.7019 -1.1531 -1.3155
 3630SOL    HW314293   3.004   4.542   0.045 -0.6280 -0.9039  0.3336
 3630SOL    MW414294   2.971   4.615   0.078 -1.0211 -0.6768 -0.5341
 3631SOL     OW14295   0.223   5.902   4.417  0.6749  0.5947 -0.6484
 3631SOL    HW214296   0.250   5.981   4.369 -0.6377  1.3547 -0.1704
 3631SOL    HW314297   0.139   5.925   4.457 -0.7717 -1.7153 -2.1442
 3631SOL    MW414298   0.216   5.916   4.416  0.3108  0.3902 -0.7827
 3632SOL     OW14299   3.523   5.563   4.335  0.0289 -0.1283 -0.1530
 3632SOL    HW214300   3.482   5.598   4.415  0.1894 -3.1003  1.3455
 3632SOL    HW314301   3.600   5.618   4.322 -1.0557  1.6641  0.5431
 3632SOL    MW414302   3.528   5.575   4.344 -0.0930 -0.2840  0.1366
 3633SOL     OW14303   0.871   1.865   1.742 -0.3795  0.2969  0.3954
 3633SOL    HW214304   0.808   1.914   1.690  0.8284  0.8377 -0.6173
 3633SOL    HW314305   0.877   1.780   1.699 -2.7523 -1.0220  2.3629
 3633SOL    MW414306   0.863   1.860   1.730 -0.5332  0.1942  0.5214
 3634SOL     OW14307   0.008   2.972   1.909 -0.2954 -0.1964  0.1215
 3634SOL    HW214308  -0.031   2.995   1.993 -1.0783  0.3798 -0.3897
 3634SOL    HW314309  -0.058   2.994   1.844  1.0002  1.1775 -0.8058
 3634SOL    MW414310  -0.006   2.978   1.911 -0.2278  0.0609 -0.0683
 3635SOL     OW14311   5.585   3.733   0.936  0.2974 -0.2337  0.4830
 3635SOL    HW214312   5.644   3.740   0.862  1.3608 -3.4931  0.8771
 3635SOL    HW314313   5.545   3.820   0.944  1.2793  0.6466 -2.8950
 3635SOL    MW414314   5.587   3.745   0.927  0.5672 -0.5476  0.0893
 3636SOL     OW14315   2.270   1.337   5.455 -0.5475  0.0971  0.4842
 3636SOL    HW214316   2.312   1.378   5.531  2.2998 -0.4176 -0.6937
 3636SOL    HW314317   2.341   1.292   5.409 -2.6928 -2.1898 -0.8649
 3636SOL    MW414318   2.285   1.337   5.459 -0.4549 -0.2725  0.1508
 3637SOL     OW14319   1.705   3.336   4.202 -0.1465  0.2899 -0.1212
 3637SOL    HW214320   1.662   3.294   4.127  1.2304 -0.7519 -0.3536
 3637SOL    HW314321   1.777   3.278   4.224  0.5218  1.4761  0.9283
 3637SOL    MW414322   1.709   3.323   4.195  0.1233  0.3089 -0.0134
 3638SOL     OW14323   2.371   3.752   4.638 -0.1774 -0.2684 -0.2347
 3638SOL    HW214324   2.397   3.794   4.719 -1.2431 -2.3965  1.3301
 3638SOL    HW314325   2.283   3.718   4.656  0.4250 -2.7171 -1.4424
 3638SOL    MW414326   2.362   3.753   4.651 -0.2385 -0.8722 -0.1876
 3639SOL     OW14327   4.985   4.148   5.983  0.4767 -0.3236  0.4058
 3639SOL    HW214328   5.067   4.114   6.018 -0.7893 -4.2090  0.0916
 3639SOL    HW314329   4.986   4.123   5.891 -0.7634  0.2156  0.2227
 3639SOL    MW414330   4.996   4.140   5.976  0.1460 -0.7651  0.3402
 3640SOL     OW14331   4.530   5.057   0.394 -0.2596 -0.0841  0.2218
 3640SOL    HW214332   4.527   5.071   0.299 -1.7715  1.3093  0.4379
 3640SOL    HW314333   4.516   4.963   0.404 -2.1495  0.0231 -0.8998
 3640SOL    MW414334   4.527   5.046   0.382 -0.7084  0.1138  0.1024
 3641SOL     OW14335   6.005   5.709   3.921  0.5128  0.1138 -0.1755
 3641SOL    HW214336   6.055   5.641   3.877  1.1420 -0.2522  1.0779
 3641SOL    HW314337   6.016   5.692   4.014 -0.0748  1.3843  0.1587
 3641SOL    MW414338   6.013   5.698   3.927  0.5183  0.2332  0.0340
 3642SOL     OW14339   1.902   6.340   4.523  0.1507 -0.2268 -0.2355
 3642SOL    HW214340   1.995   6.341   4.500 -0.1561 -1.6814 -1.7273
 3642SOL    HW314341   1.898   6.378   4.610  2.1888 -0.4849  0.0075
 3642SOL    MW414342   1.914   6.346   4.531  0.3791 -0.4528 -0.4002
 3643SOL     OW14343   1.088   3.373   2.616 -0.5246 -0.3311  0.2187
 3643SOL    HW214344   1.162   3.433   2.611 -1.5512  0.9857  0.3282
 3643SOL    HW314345   1.097   3.317   2.539 -0.0148  0.5329 -0.3601
 3643SOL    MW414346   1.099   3.374   2.605 -0.5928 -0.0434  0.1568
 3644SOL     OW14347   2.785   4.008   3.272  0.2719  0.2889 -0.0553
 3644SOL    HW214348   2.809   4.077   3.334  0.5226  0.7212 -0.6297
 3644SOL    HW314349   2.831   3.930   3.305 -0.6469  0.1774  1.0496
 3644SOL    MW414350   2.794   4.007   3.285  0.1837  0.3312  0.0147
 3645SOL     OW14351   0.286   6.123   3.736 -0.5929 -0.1342 -0.5080
 3645SOL    HW214352   0.245   6.157   3.656 -0.4264  1.5128  0.0738
 3645SOL    HW314353   0.251   6.035   3.745 -0.3089 -0.5165 -2.6174
 3645SOL    MW414354   0.276   6.116   3.726 -0.5334  0.0327 -0.7095
 3646SOL     OW14355   5.201   2.471   1.389 -0.5097  0.3273 -0.5459
 3646SOL    HW214356   5.220   2.497   1.299  1.5672  0.5423 -0.1044
 3646SOL    HW314357   5.193   2.554   1.436  1.0607  0.2541 -0.0824
 3646SOL    MW414358   5.203   2.486   1.383 -0.0285  0.3460 -0.4265
 3647SOL     OW14359   6.236   1.089   3.048  0.6744 -0.1350 -0.5461
 3647SOL    HW214360   6.165   1.027   3.034  0.0599 -0.2743  2.4277
 3647SOL    HW314361   6.196   1.162   3.095  1.5858  2.1547 -3.0907
 3647SOL    MW414362   6.221   1.091   3.053  0.7135  0.1487 -0.4894
 3648SOL     OW14363   2.225   2.971   4.891 -0.4669  0.1033 -0.0823
 3648SOL    HW214364   2.191   2.892   4.848 -0.0285 -0.1981  0.1208
 3648SOL    HW314365   2.218   2.951   4.985  0.3521  0.0012 -0.0381
 3648SOL    MW414366   2.219   2.958   4.898 -0.3010  0.0501 -0.0497
 3649SOL     OW14367   5.459   3.948   4.099 -0.1441 -0.2289 -0.1726
 3649SOL    HW214368   5.423   4.026   4.057  0.9077  0.8902  0.9207
 3649SOL    HW314369   5.519   3.911   4.034  1.8696  1.7755  0.4066
 3649SOL    MW414370   5.462   3.953   4.085  0.2604  0.1832  0.0480
 3650SOL     OW14371   2.131   0.243   3.738 -0.2784  0.4833 -0.0852
 3650SOL    HW214372   2.080   0.177   3.784 -0.1120  0.6467  0.3366
 3650SOL    HW314373   2.088   0.326   3.758  0.3153  0.6546  0.5053
 3650SOL    MW414374   2.118   0.245   3.747 -0.1781  0.5274  0.0484
 3651SOL     OW14375   0.274   4.036   6.105 -0.0491  0.0545 -0.0827
 3651SOL    HW214376   0.309   4.039   6.015  0.3877 -0.8029  0.0549
 3651SOL    HW314377   0.300   4.120   6.143 -1.0886  0.8614 -1.0575
 3651SOL    MW414378   0.282   4.047   6.098 -0.1286  0.0479 -0.1932
 3652SOL     OW14379   0.598   5.500   3.153  0.0008  0.6346 -0.0491
 3652SOL    HW214380   0.680   5.490   3.104 -0.3198 -0.9741 -0.3170
 3652SOL    HW314381   0.620   5.475   3.242 -0.0520  0.8923  0.0379
 3652SOL    MW414382   0.612   5.495   3.158 -0.0485  0.4564 -0.0730
 3653SOL     OW14383   2.097   2.126   2.904  0.1558  0.3012  0.2598
 3653SOL    HW214384   2.012   2.082   2.906  0.5246 -0.4058  0.6557
 3653SOL    HW314385   2.083   2.202   2.848 -0.5645 -0.1669 -0.2133
 3653SOL    MW414386   2.084   2.130   2.897  0.1094  0.1462  0.2496
 3654SOL     OW14387   2.229   1.142   2.972  0.5161  0.2140 -0.1495
 3654SOL    HW214388   2.287   1.135   3.048  0.5575  2.3945  0.0665
 3654SOL    HW314389   2.279   1.192   2.908 -0.2583  0.0655 -0.8848
 3654SOL    MW414390   2.244   1.147   2.973  0.4194  0.4821 -0.2180
 3655SOL     OW14391   2.051   2.354   0.838 -0.9726 -0.4733  0.4096
 3655SOL    HW214392   1.987   2.311   0.782 -1.1437  1.1583 -0.7123
 3655SOL    HW314393   2.023   2.445   0.842  1.1811  0.2738 -0.0334
 3655SOL    MW414394   2.039   2.360   0.831 -0.7110 -0.1594  0.2031
 3656SOL     OW14395   5.552   4.022   4.355 -0.3356 -0.3069 -0.5551
 3656SOL    HW214396   5.517   4.021   4.266 -1.3916  1.3526 -0.2031
 3656SOL    HW314397   5.477   4.000   4.411 -0.0921  0.2874  0.0212
 3656SOL    MW414398   5.537   4.019   4.351 -0.4428 -0.0095 -0.4326
 3657SOL     OW14399   3.830   5.913   6.374 -0.2237  0.1914 -0.4495
 3657SOL    HW214400   3.855   5.876   6.290 -1.8409  2.1794 -1.9073
 3657SOL    HW314401   3.735   5.897   6.380 -0.8176  3.0361 -0.7251
 3657SOL    MW414402   3.821   5.906   6.364 -0.5154  0.8290 -0.6782
 3658SOL     OW14403   4.687   6.317   5.215  0.1561 -0.1997 -0.2031
 3658SOL    HW214404   4.749   6.390   5.213 -0.2673  0.2111  0.8718
 3658SOL    HW314405   4.609   6.351   5.173  0.3927 -0.4814 -0.8947
 3658SOL    MW414406   4.685   6.331   5.209  0.1315 -0.1827 -0.1526
 3659SOL     OW14407   1.391   0.416   6.138  0.5136 -0.0918 -0.4058
 3659SOL    HW214408   1.459   0.362   6.099  1.2562  0.5475 -0.0403
 3659SOL    HW314409   1.331   0.354   6.179  1.3311 -0.6411 -0.0207
 3659SOL    MW414410   1.392   0.401   6.138  0.7194 -0.0799 -0.3067
 3660SOL     OW14411   2.437   1.188   4.913  0.5196  0.1220  0.1634
 3660SOL    HW214412   2.452   1.093   4.916  1.3391  0.2745  1.1949
 3660SOL    HW314413   2.349   1.197   4.875  0.7524 -1.0106 -0.7032
 3660SOL    MW414414   2.427   1.177   4.908  0.6584 -0.0073  0.1851
 3661SOL     OW14415   0.240   4.084   5.703  0.1003  0.1682  0.0336
 3661SOL    HW214416   0.166   4.067   5.762 -1.0741  1.5125 -0.9728
 3661SOL    HW314417   0.253   4.002   5.656 -2.7821  0.6921 -1.8994
 3661SOL    MW414418   0.232   4.071   5.705 -0.4350  0.4147 -0.3542
 3662SOL     OW14419   4.619   3.321   4.637  0.4170 -0.2537 -0.0903
 3662SOL    HW214420   4.532   3.284   4.652 -0.9372  2.5388 -0.4106
 3662SOL    HW314421   4.652   3.340   4.725  0.1792 -0.2406 -0.0033
 3662SOL    MW414422   4.611   3.319   4.651  0.2070  0.1165 -0.1211
 3663SOL     OW14423   0.327   5.327   0.661 -0.1485 -0.4712  0.1420
 3663SOL    HW214424   0.365   5.411   0.637 -0.2359 -0.6197 -0.5503
 3663SOL    HW314425   0.312   5.283   0.577 -2.2428 -0.2546  0.3406
 3663SOL    MW414426   0.330   5.332   0.647 -0.4364 -0.4622  0.0769
 3664SOL     OW14427   4.285   3.246   5.315 -0.1637 -0.4219  0.3724
 3664SOL    HW214428   4.345   3.316   5.290  1.4263 -1.7044  0.4070
 3664SOL    HW314429   4.221   3.243   5.244  0.1032  0.6320  0.0620
 3664SOL    MW414430   4.284   3.255   5.302  0.0813 -0.4520  0.3360
 3665SOL     OW14431   2.379   5.519   0.921 -0.1835  0.3401 -0.3858
 3665SOL    HW214432   2.327   5.448   0.959  0.1071 -0.0881 -0.7902
 3665SOL    HW314433   2.424   5.558   0.996  0.7302 -0.7838 -0.3290
 3665SOL    MW414434   2.378   5.515   0.936 -0.0246  0.1353 -0.4317
 3666SOL     OW14435   4.851   4.642   5.048  0.0512  0.1067  0.1886
 3666SOL    HW214436   4.860   4.548   5.031  0.4823  0.0810  0.5461
 3666SOL    HW314437   4.861   4.682   4.962  1.2412 -0.0902  0.2070
 3666SOL    MW414438   4.854   4.635   5.034  0.2651  0.0773  0.2382
 3667SOL     OW14439   2.148   2.440   5.410 -0.3370 -0.3501 -0.1180
 3667SOL    HW214440   2.191   2.520   5.378 -3.5470  0.9790 -1.5525
 3667SOL    HW314441   2.130   2.458   5.502  2.1333 -1.0229  0.5804
 3667SOL    MW414442   2.151   2.453   5.417 -0.4346 -0.2635 -0.2151
 3668SOL     OW14443   2.574   2.759   6.241 -0.4148 -0.7981 -0.0239
 3668SOL    HW214444   2.485   2.794   6.241 -0.4830 -0.9317  1.2023
 3668SOL    HW314445   2.615   2.798   6.164 -1.6164 -0.9790 -0.7810
 3668SOL    MW414446   2.568   2.769   6.231 -0.5823 -0.8396  0.0380
 3669SOL     OW14447   1.495   0.862   1.822  0.0128  0.4926 -0.3190
 3669SOL    HW214448   1.558   0.890   1.756  0.8415  1.7694  0.9521
 3669SOL    HW314449   1.493   0.934   1.885 -0.0544 -1.0729  1.5450
 3669SOL    MW414450   1.503   0.876   1.822  0.1133  0.4545  0.0946
 3670SOL     OW14451   5.046   3.740   0.733 -0.3358  0.3083 -0.0473
 3670SOL    HW214452   4.977   3.790   0.777  1.0187  1.7879  0.4978
 3670SOL    HW314453   5.119   3.739   0.794  0.4680 -0.4111 -0.9760
 3670SOL    MW414454   5.046   3.747   0.747 -0.0511  0.4086 -0.0979
 3671SOL     OW14455   1.746   4.124   2.453 -0.1019 -0.9042 -0.0672
 3671SOL    HW214456   1.731   4.097   2.544 -1.8196  0.3788  0.0909
 3671SOL    HW314457   1.841   4.119   2.442  0.3095  0.2160  2.2415
 3671SOL    MW414458   1.757   4.120   2.464 -0.2743 -0.5871  0.2582
 3672SOL     OW14459   4.310   0.037   3.043  0.4668  0.2812  0.0732
 3672SOL    HW214460   4.351   0.017   3.128 -0.3308  0.7467  0.5843
 3672SOL    HW314461   4.345   0.122   3.018  1.7633 -0.4759 -0.7569
 3672SOL    MW414462   4.320   0.045   3.051  0.5326  0.2427  0.0311
 3673SOL     OW14463   3.056   5.259   1.178  0.0801 -0.1202  0.2041
 3673SOL    HW214464   3.067   5.166   1.193  0.4416  0.2259  2.4367
 3673SOL    HW314465   2.961   5.271   1.171  0.0559 -0.6950 -0.6600
 3673SOL    MW414466   3.045   5.249   1.179  0.1246 -0.1504  0.3847
 3674SOL     OW14467   1.300   5.138   0.021 -0.1449  0.4501  0.1113
 3674SOL    HW214468   1.312   5.043   0.020 -0.1819  0.4489 -0.5778
 3674SOL    HW314469   1.314   5.163   0.112  0.8668 -0.0891  0.1179
 3674SOL    MW414470   1.303   5.129   0.033 -0.0163  0.3788  0.0212
 3675SOL     OW14471   2.027   5.579   3.382  0.1400 -0.6100  0.2209
 3675SOL    HW214472   1.952   5.523   3.399 -0.8220  0.1325 -1.3698
 3675SOL    HW314473   2.063   5.547   3.298  0.3550  0.3154 -0.0556
 3675SOL    MW414474   2.022   5.568   3.373  0.0414 -0.3899 -0.0255
 3676SOL     OW14475   0.645   4.525   6.012  0.0164  0.2828  0.1266
 3676SOL    HW214476   0.568   4.578   5.992  0.2143  0.2920 -0.6462
 3676SOL    HW314477   0.645   4.518   6.108  0.2609  2.0726  0.2894
 3676SOL    MW414478   0.635   4.531   6.022  0.0747  0.5201  0.0461
 3677SOL     OW14479   0.052   1.685   5.107  0.1809  0.6887 -0.6781
 3677SOL    HW214480   0.067   1.737   5.027 -1.3937  0.8981 -0.8641
 3677SOL    HW314481  -0.035   1.711   5.137 -0.4517 -1.4407 -0.4691
 3677SOL    MW414482   0.043   1.695   5.100 -0.1103  0.4354 -0.6751
 3678SOL     OW14483   6.317   4.536   0.785 -0.4143  0.0849 -0.7039
 3678SOL    HW214484   6.252   4.581   0.839 -0.1843  0.5069 -0.7731
 3678SOL    HW314485   6.401   4.561   0.823 -0.2913 -0.5037 -0.5811
 3678SOL    MW414486   6.320   4.545   0.797 -0.3677  0.0629 -0.6968
 3679SOL     OW14487   0.844   3.094   0.610  0.3819  0.2717  0.4054
 3679SOL    HW214488   0.828   3.077   0.517  1.8153  0.3804  0.1115
 3679SOL    HW314489   0.919   3.038   0.632 -0.0076  0.1602  1.5378
 3679SOL    MW414490   0.852   3.084   0.601  0.5196  0.2713  0.5160
 3680SOL     OW14491   4.161   0.241   1.804  0.4453 -0.6948 -0.0981
 3680SOL    HW214492   4.237   0.259   1.749 -0.2514  0.7868 -0.6259
 3680SOL    HW314493   4.194   0.244   1.893  0.9834  0.0757 -0.3168
 3680SOL    MW414494   4.176   0.244   1.808  0.4244 -0.3977 -0.1966
 3681SOL     OW14495   2.961   2.895   6.123  0.6459 -0.0408  0.1314
 3681SOL    HW214496   3.038   2.899   6.066 -0.2626 -0.9458 -1.2143
 3681SOL    HW314497   2.971   2.813   6.171  0.1273 -0.5716 -0.6514
 3681SOL    MW414498   2.972   2.885   6.122  0.4576 -0.2303 -0.1495
 3682SOL     OW14499   4.976   0.548   1.934 -0.0320 -0.4419 -0.0527
 3682SOL    HW214500   4.959   0.501   1.853 -1.3153 -2.4079  1.2714
 3682SOL    HW314501   5.068   0.529   1.955 -0.1788 -1.3405 -0.1954
 3682SOL    MW414502   4.986   0.539   1.926 -0.2207 -0.8199  0.1032
 3683SOL     OW14503   6.070   1.547   3.259  0.3227 -0.3531  0.1469
 3683SOL    HW214504   6.145   1.594   3.295  0.2085  0.5954 -0.8062
 3683SOL    HW314505   6.030   1.609   3.198 -0.8983 -1.0558  0.2083
 3683SOL    MW414506   6.075   1.561   3.256  0.1465 -0.3207  0.0292
 3684SOL     OW14507   2.910   3.643   3.792  0.0573 -0.0165 -0.1275
 3684SOL    HW214508   2.936   3.734   3.804 -1.6385  0.4394  0.4142
 3684SOL    HW314509   2.895   3.611   3.881  1.0940 -0.9969 -0.2791
 3684SOL    MW414510   2.912   3.651   3.805 -0.0297 -0.0857 -0.0760
 3685SOL     OW14511   3.304   5.733   5.028 -0.1309 -0.3410  0.7349
 3685SOL    HW214512   3.395   5.761   5.036 -0.6845  1.7029  0.2836
 3685SOL    HW314513   3.252   5.804   5.066 -1.6936  0.1539 -2.0318
 3685SOL    MW414514   3.309   5.746   5.034 -0.4101 -0.0061  0.3103
 3686SOL     OW14515   3.986   3.836   1.837  0.0191 -0.3893 -0.1209
 3686SOL    HW214516   3.983   3.766   1.771  1.0807  0.8859 -1.5870
 3686SOL    HW314517   4.078   3.841   1.862 -0.3384 -0.7037  1.3547
 3686SOL    MW414518   3.998   3.827   1.832  0.1120 -0.2625 -0.1197
 3687SOL     OW14519   5.319   2.879   0.439  0.7323  0.2270 -0.5164
 3687SOL    HW214520   5.330   2.827   0.519  0.1112  1.3875  0.3438
 3687SOL    HW314521   5.406   2.879   0.399  1.3860  0.7414  0.8539
 3687SOL    MW414522   5.332   2.872   0.445  0.7366  0.4480 -0.2221
 3688SOL     OW14523   1.458  -0.003   5.492  0.4481 -0.2564  0.2115
 3688SOL    HW214524   1.528   0.060   5.475  1.4373 -1.8951 -2.3313
 3688SOL    HW314525   1.388   0.023   5.432  1.3575 -2.2166 -1.8187
 3688SOL    MW414526   1.458   0.009   5.482  0.6986 -0.7312 -0.3919
 3689SOL     OW14527   5.127   3.609   0.167 -0.0595  0.4896  0.3675
 3689SOL    HW214528   5.034   3.602   0.190 -0.6171  1.5903 -1.3377
 3689SOL    HW314529   5.172   3.612   0.252 -1.5763  0.0747  1.2379
 3689SOL    MW414530   5.121   3.609   0.182 -0.3332  0.5801  0.2574
 3690SOL     OW14531   2.697   0.458   5.989  0.1700  0.3803 -0.6796
 3690SOL    HW214532   2.793   0.468   5.989  0.4328 -1.5829 -0.5588
 3690SOL    HW314533   2.665   0.530   5.936  1.6793  1.3912 -0.2777
 3690SOL    MW414534   2.706   0.469   5.982  0.4038  0.2547 -0.6107
 3691SOL     OW14535   3.062   1.167   5.686 -0.0821 -0.1022  0.0069
 3691SOL    HW214536   3.057   1.142   5.593 -0.3807 -0.1384  0.0318
 3691SOL    HW314537   3.098   1.255   5.685  0.1292 -0.1879 -0.1310
 3691SOL    MW414538   3.067   1.175   5.673 -0.0936 -0.1183 -0.0080
 3692SOL     OW14539   4.810   3.926   0.786  0.2318  0.7808 -0.7387
 3692SOL    HW214540   4.733   3.897   0.835  0.7782 -0.6455 -0.7084
 3692SOL    HW314541   4.805   3.879   0.703  0.7613  1.1351 -0.9764
 3692SOL    MW414542   4.799   3.916   0.781  0.3737  0.6394 -0.7661
 3693SOL     OW14543   0.446   1.236   1.263 -0.5258  0.4507  0.2143
 3693SOL    HW214544   0.538   1.234   1.290 -0.4686 -1.4591  0.0220
 3693SOL    HW314545   0.449   1.253   1.169 -0.2835 -0.5110  0.0315
 3693SOL    MW414546   0.458   1.238   1.254 -0.4863  0.0718  0.1648
 3694SOL     OW14547   2.904   5.600   1.621  0.1578 -0.0246  1.0345
 3694SOL    HW214548   2.999   5.610   1.628  0.2810  0.4486 -0.8292
 3694SOL    HW314549   2.889   5.506   1.624  0.5069 -0.0555  2.8845
 3694SOL    MW414550   2.914   5.589   1.623  0.2201  0.0338  1.0327
 3695SOL     OW14551   0.889   3.482   1.678 -0.3487 -0.2992 -0.2308
 3695SOL    HW214552   0.932   3.544   1.737  1.6025 -1.0078 -0.8249
 3695SOL    HW314553   0.917   3.396   1.708  0.2479 -0.7057 -1.8287
 3695SOL    MW414554   0.898   3.479   1.690 -0.0125 -0.4463 -0.5200
 3696SOL     OW14555   6.376   0.029   1.899 -0.0603 -0.5795 -0.4962
 3696SOL    HW214556   6.364  -0.058   1.937 -0.1703  0.1212  1.1521
 3696SOL    HW314557   6.462   0.057   1.931  1.0853 -1.0114 -2.9900
 3696SOL    MW414558   6.385   0.021   1.908  0.0763 -0.5440 -0.6078
 3697SOL     OW14559   1.252   5.255   2.937  0.3252  0.1368 -0.5573
 3697SOL    HW214560   1.232   5.309   2.860 -1.3474 -0.4526 -0.5735
 3697SOL    HW314561   1.174   5.260   2.991 -0.7360 -3.7004 -1.4401
 3697SOL    MW414562   1.239   5.263   2.934 -0.0355 -0.4473 -0.6759
 3698SOL     OW14563   3.361   1.767   3.808 -0.2713 -0.1256  0.3789
 3698SOL    HW214564   3.391   1.772   3.718 -1.6681  1.6926 -0.0386
 3698SOL    HW314565   3.439   1.781   3.861  0.4943 -0.8297 -0.5309
 3698SOL    MW414566   3.375   1.769   3.803 -0.3546  0.0214  0.2038
 3699SOL     OW14567   3.662   0.344   3.687  0.2057  0.4718  0.0513
 3699SOL    HW214568   3.601   0.408   3.724 -0.6979 -0.2599 -0.1349
 3699SOL    HW314569   3.631   0.330   3.597  1.8555  1.5795 -0.7609
 3699SOL    MW414570   3.650   0.351   3.680  0.3042  0.5214 -0.0805
 3700SOL     OW14571   0.158   3.632   6.248 -0.1121 -0.2823 -0.1456
 3700SOL    HW214572   0.236   3.651   6.300 -0.7586 -0.0879  0.7775
 3700SOL    HW314573   0.186   3.643   6.157  1.0388 -0.6213  0.1545
 3700SOL    MW414574   0.172   3.636   6.243 -0.0455 -0.3014  0.0158
 3701SOL     OW14575   5.972   1.803   4.775 -0.0302  0.3668 -0.2892
 3701SOL    HW214576   6.005   1.893   4.780 -1.3087  0.9113 -1.1097
 3701SOL    HW314577   5.881   1.809   4.807 -0.6175 -0.3330 -1.7462
 3701SOL    MW414578   5.964   1.816   4.780 -0.2764  0.3463 -0.5897
 3702SOL     OW14579   1.855   3.196   1.309 -0.3059  0.2201 -0.1752
 3702SOL    HW214580   1.797   3.246   1.252 -1.1183  0.4318  0.7987
 3702SOL    HW314581   1.882   3.121   1.257 -0.2982  0.8827 -1.1349
 3702SOL    MW414582   1.851   3.192   1.295 -0.4121  0.3354 -0.1733
 3703SOL     OW14583   2.842   2.419   6.236 -0.0763 -0.1458  0.0783
 3703SOL    HW214584   2.759   2.440   6.279  0.1475  0.5367  0.1932
 3703SOL    HW314585   2.816   2.372   6.157 -0.5555 -0.2603  0.2962
 3703SOL    MW414586   2.827   2.415   6.231 -0.1100 -0.0709  0.1222
 3704SOL     OW14587   4.698   0.416   1.869 -0.1894 -0.4139  0.9730
 3704SOL    HW214588   4.694   0.474   1.945  3.0627  2.6285 -0.9061
 3704SOL    HW314589   4.699   0.474   1.793  2.0423 -2.9272 -1.1532
 3704SOL    MW414590   4.697   0.431   1.869  0.5341 -0.3441  0.4446
 3705SOL     OW14591   5.031   6.308   1.044  0.0701 -0.2115  0.5225
 3705SOL    HW214592   5.110   6.267   1.008  1.4184  0.4584  2.5316
 3705SOL    HW314593   5.011   6.257   1.122 -0.2284  0.8956  1.1854
 3705SOL    MW414594   5.039   6.296   1.049  0.2086  0.0229  0.8750
 3706SOL     OW14595   6.119   1.716   5.757  0.0035 -0.3592  0.4291
 3706SOL    HW214596   6.061   1.782   5.719 -0.0103 -0.9890 -0.7014
 3706SOL    HW314597   6.207   1.747   5.737 -0.0148 -1.1762 -1.0356
 3706SOL    MW414598   6.123   1.729   5.749 -0.0007 -0.5501  0.0867
 3707SOL     OW14599   3.642   0.301   0.108  0.5449  0.4562 -0.0165
 3707SOL    HW214600   3.609   0.294   0.197  0.4480  0.5721 -0.0434
 3707SOL    HW314601   3.578   0.355   0.063  0.3662  0.0422 -0.2679
 3707SOL    MW414602   3.629   0.307   0.114  0.5085  0.4169 -0.0532
 3708SOL     OW14603   4.090   3.236   1.547 -0.6288 -0.2015 -0.1342
 3708SOL    HW214604   4.002   3.210   1.518 -0.0988  0.4149 -2.5679
 3708SOL    HW314605   4.139   3.247   1.465  1.0883  1.6523  1.0682
 3708SOL    MW414606   4.085   3.234   1.532 -0.3324  0.1244 -0.2967
 3709SOL     OW14607   2.475   1.349   6.077 -0.1156 -0.4520  0.0026
 3709SOL    HW214608   2.467   1.435   6.038 -0.1844 -0.7526 -0.6606
 3709SOL    HW314609   2.458   1.288   6.005  1.1327 -1.0286  0.1733
 3709SOL    MW414610   2.472   1.352   6.063  0.0400 -0.5677 -0.0624
 3710SOL     OW14611   1.694   4.031   1.783  0.2991  0.8622  0.6006
 3710SOL    HW214612   1.620   3.979   1.751  1.5458 -0.0787 -0.9017
 3710SOL    HW314613   1.683   4.117   1.742 -0.5148  1.0620  1.2263
 3710SOL    MW414614   1.683   4.035   1.773  0.3562  0.7644  0.4850
 3711SOL     OW14615   5.435   3.618   0.061 -0.3813 -0.3743  0.4176
 3711SOL    HW214616   5.512   3.567   0.088  0.0381 -0.1054 -0.2289
 3711SOL    HW314617   5.426   3.685   0.129  0.9555  0.6033 -0.2997
 3711SOL    MW414618   5.444   3.620   0.074 -0.1496 -0.2099  0.2377
 3712SOL     OW14619   4.865   2.948   0.400 -0.0754 -0.3335 -0.1632
 3712SOL    HW214620   4.830   2.985   0.480  0.4300 -2.6497  1.2383
 3712SOL    HW314621   4.811   2.985   0.330 -0.8647  1.3524  1.2632
 3712SOL    MW414622   4.853   2.958   0.401 -0.1129 -0.4167  0.2099
 3713SOL     OW14623   6.071   4.050   2.859  0.1007 -0.1939 -0.6490
 3713SOL    HW214624   6.004   4.106   2.820  1.1185  1.6508  0.1048
 3713SOL    HW314625   6.154   4.093   2.838  0.8168 -0.3843  1.4831
 3713SOL    MW414626   6.073   4.063   2.851  0.3294  0.0244 -0.2682
 3714SOL     OW14627   6.413   5.123   3.209  0.1188  0.0773 -0.3734
 3714SOL    HW214628   6.361   5.161   3.279  2.3921  1.5752  0.6213
 3714SOL    HW314629   6.450   5.198   3.162 -0.3723 -0.8988 -2.4622
 3714SOL    MW414630   6.411   5.138   3.212  0.3539  0.1462 -0.5177
 3715SOL     OW14631   4.611   4.003   2.259 -0.0271 -0.2429  0.4522
 3715SOL    HW214632   4.558   3.926   2.239  1.8229 -1.5924  0.5097
 3715SOL    HW314633   4.678   4.005   2.191  0.6972  0.6050  1.1552
 3715SOL    MW414634   4.613   3.993   2.247  0.3126 -0.3091  0.5525
 3716SOL     OW14635   3.818   3.753   3.902  0.5570 -0.0940 -0.9792
 3716SOL    HW214636   3.886   3.696   3.938  0.9275  0.8543 -0.1068
 3716SOL    HW314637   3.858   3.794   3.826  1.8426  2.1226  0.7448
 3716SOL    MW414638   3.832   3.751   3.897  0.7755  0.3235 -0.6366
 3717SOL     OW14639   2.686   5.804   5.500  0.7423  0.0436  0.0088
 3717SOL    HW214640   2.662   5.784   5.410  0.1914  0.4225  0.0751
 3717SOL    HW314641   2.677   5.720   5.546 -0.7716  0.2364  0.1042
 3717SOL    MW414642   2.682   5.790   5.494  0.4699  0.1190  0.0301
 3718SOL     OW14643   4.182   5.637   4.436  0.3115  0.1032  0.1579
 3718SOL    HW214644   4.260   5.687   4.461  0.5693 -0.1252 -0.1783
 3718SOL    HW314645   4.118   5.656   4.504  0.4156  0.8699  0.0425
 3718SOL    MW414646   4.184   5.646   4.448  0.3593  0.1742  0.0983
 3719SOL     OW14647   3.874   6.116   0.197 -0.0549  0.1726  0.2787
 3719SOL    HW214648   3.930   6.042   0.174 -0.9529 -0.2632 -0.5856
 3719SOL    HW314649   3.914   6.191   0.153  1.0626  0.3108  1.4480
 3719SOL    MW414650   3.887   6.116   0.188 -0.0259  0.1333  0.3189
 3720SOL     OW14651   4.790   2.256   5.233 -0.3291 -0.4374 -0.3083
 3720SOL    HW214652   4.791   2.351   5.236 -0.5613 -0.3705 -1.7727
 3720SOL    HW314653   4.881   2.231   5.216 -0.3291 -0.4591 -0.2769
 3720SOL    MW414654   4.802   2.265   5.231 -0.3598 -0.4315 -0.4974
 3721SOL     OW14655   0.975   2.893   4.133 -0.7117  0.0954 -0.2023
 3721SOL    HW214656   0.943   2.807   4.159  0.4086 -0.1841  0.3395
 3721SOL    HW314657   0.917   2.920   4.062 -0.0540 -1.9114 -1.6061
 3721SOL    MW414658   0.963   2.885   4.127 -0.4771 -0.2062 -0.3161
 3722SOL     OW14659   0.846   6.193   1.275  0.2705 -0.0062  0.9936
 3722SOL    HW214660   0.751   6.207   1.271  0.2487 -0.1943  0.8349
 3722SOL    HW314661   0.865   6.179   1.368  0.1586  0.1274  1.0377
 3722SOL    MW414662   0.836   6.193   1.287  0.2528 -0.0134  0.9784
 3723SOL     OW14663   3.040   4.131   5.193  0.2569  0.1391  0.0489
 3723SOL    HW214664   2.977   4.124   5.265  1.8965  2.4195  1.8579
 3723SOL    HW314665   2.987   4.122   5.114 -1.9678 -0.2401  1.4877
 3723SOL    MW414666   3.025   4.129   5.192  0.1797  0.3900  0.4774
 3724SOL     OW14667   5.345   4.804   5.837  0.0540 -0.4671 -0.1107
 3724SOL    HW214668   5.281   4.867   5.804 -0.3049 -1.0087 -0.4689
 3724SOL    HW314669   5.430   4.838   5.806  0.2955  1.6910  2.5510
 3724SOL    MW414670   5.348   4.817   5.828  0.0385 -0.2538  0.1932
 3725SOL     OW14671   1.201   0.140   1.965  0.0867  0.5189  0.0663
 3725SOL    HW214672   1.132   0.100   2.017 -0.8604  0.8321 -0.9241
 3725SOL    HW314673   1.259   0.067   1.942 -1.1878 -0.1871 -1.0427
 3725SOL    MW414674   1.200   0.125   1.969 -0.2064  0.4671 -0.2107
 3726SOL     OW14675   1.432   2.570   5.497  0.1700  0.4227 -0.3984
 3726SOL    HW214676   1.464   2.656   5.524 -0.9935  2.1723 -3.8852
 3726SOL    HW314677   1.509   2.524   5.464  0.8503 -0.0611  1.7656
 3726SOL    MW414678   1.446   2.575   5.496  0.1062  0.5897 -0.5730
 3727SOL     OW14679   2.290   6.248   3.195 -0.0580  0.0109 -0.5605
 3727SOL    HW214680   2.223   6.209   3.251  0.5583 -0.0679  0.1523
 3727SOL    HW314681   2.296   6.338   3.225 -0.2267  0.1601 -0.9847
 3727SOL    MW414682   2.282   6.254   3.207  0.0010  0.0202 -0.5224
 3728SOL     OW14683   3.988   2.839   6.193 -0.1747  0.0775 -0.0811
 3728SOL    HW214684   3.955   2.926   6.217  0.4048  1.3826 -3.4391
 3728SOL    HW314685   4.068   2.828   6.244 -0.5330  1.2770  0.7702
 3728SOL    MW414686   3.994   2.849   6.203 -0.1455  0.4080 -0.4118
 3729SOL     OW14687   0.340   3.541   1.810 -0.3635 -0.2428 -0.5763
 3729SOL    HW214688   0.279   3.469   1.829 -0.5688  0.0685 -0.0529
 3729SOL    HW314689   0.411   3.499   1.763 -1.7369 -0.3518 -2.6913
 3729SOL    MW414690   0.341   3.526   1.806 -0.5718 -0.2161 -0.7863
 3730SOL     OW14691   4.735   4.242   1.582  0.1575 -0.5162  0.0889
 3730SOL    HW214692   4.730   4.299   1.505 -0.5749 -2.3619 -1.2884
 3730SOL    HW314693   4.821   4.200   1.576 -0.1591 -1.1503 -0.0892
 3730SOL    MW414694   4.746   4.244   1.571  0.0191 -0.8434 -0.1163
 3731SOL     OW14695   4.433   3.415   0.449  0.4279 -0.0097  0.1516
 3731SOL    HW214696   4.372   3.413   0.376  1.6340 -0.0532 -0.8773
 3731SOL    HW314697   4.423   3.329   0.491  0.3967 -0.3364 -0.5201
 3731SOL    MW414698   4.423   3.403   0.445  0.5829 -0.0585 -0.0728
 3732SOL     OW14699   0.480   2.513   1.299 -0.1416  0.1628 -0.6854
 3732SOL    HW214700   0.438   2.427   1.302 -1.1625  0.6686  0.2986
 3732SOL    HW314701   0.427   2.564   1.238  0.8696 -0.0880 -1.8071
 3732SOL    MW414702   0.467   2.508   1.291 -0.1429  0.1964 -0.7036
 3733SOL     OW14703   4.339   3.831   3.198  0.0352  0.2999  0.7312
 3733SOL    HW214704   4.314   3.760   3.140  1.3137 -0.6712  1.3296
 3733SOL    HW314705   4.256   3.866   3.231 -0.6089 -1.5116  1.1337
 3733SOL    MW414706   4.325   3.827   3.195  0.1189 -0.0673  0.8633
 3734SOL     OW14707   2.321   3.756   0.152 -0.2897  0.1211 -0.1663
 3734SOL    HW214708   2.396   3.795   0.197 -0.0401  1.1518 -1.3998
 3734SOL    HW314709   2.246   3.775   0.208 -0.0825  1.9156 -0.4162
 3734SOL    MW414710   2.321   3.764   0.165 -0.2295  0.4938 -0.3620
 3735SOL     OW14711   1.889   4.946   4.965  0.5483 -0.5954  0.0099
 3735SOL    HW214712   1.821   4.908   5.021 -1.8050  0.5769 -1.8560
 3735SOL    HW314713   1.926   5.017   5.018 -1.4672  0.3545  0.2705
 3735SOL    MW414714   1.885   4.950   4.979 -0.0281 -0.3154 -0.2019
 3736SOL     OW14715   3.678   3.431   2.720 -1.0815  0.1603 -0.0678
 3736SOL    HW214716   3.660   3.344   2.756  1.6846 -0.2140  0.6541
 3736SOL    HW314717   3.722   3.478   2.790 -3.0484  2.4685 -0.2233
 3736SOL    MW414718   3.681   3.426   2.734 -0.9761  0.4154  0.0069
 3737SOL     OW14719   6.359   5.678   5.554  0.1999  0.0196 -0.0348
 3737SOL    HW214720   6.290   5.633   5.603  0.0616 -2.0437 -1.9767
 3737SOL    HW314721   6.318   5.702   5.471  1.0889  1.2685 -0.1420
 3737SOL    MW414722   6.345   5.675   5.550  0.2989 -0.0879 -0.3051
 3738SOL     OW14723   2.176   4.123   4.665  0.1469  0.0011  0.4920
 3738SOL    HW214724   2.266   4.119   4.633  0.2910 -0.0807  0.9040
 3738SOL    HW314725   2.125   4.072   4.602  0.1722  1.1449 -0.4817
 3738SOL    MW414726   2.181   4.116   4.653  0.1692  0.1412  0.4179
 3739SOL     OW14727   4.055   2.401   2.545  0.2723 -0.1441  0.1784
 3739SOL    HW214728   4.108   2.456   2.602  1.2257 -0.9514  0.0950
 3739SOL    HW314729   3.990   2.461   2.508  1.0076  0.8305  0.4248
 3739SOL    MW414730   4.053   2.416   2.547  0.4951 -0.1220  0.1999
 3740SOL     OW14731   4.561   5.539   5.598  0.0668 -0.1151  0.1610
 3740SOL    HW214732   4.633   5.486   5.563  0.4951  0.1995  0.5443
 3740SOL    HW314733   4.505   5.477   5.644  1.0084 -0.1502  1.3318
 3740SOL    MW414734   4.563   5.524   5.600  0.2475 -0.0783  0.3661
 3741SOL     OW14735   1.422   0.394   3.128  0.0520  0.3404  0.2750
 3741SOL    HW214736   1.482   0.392   3.203  2.1324  1.0031 -1.3011
 3741SOL    HW314737   1.431   0.307   3.089 -0.1159  0.4065  0.0904
 3741SOL    MW414738   1.431   0.382   3.133  0.3044  0.4365  0.0427
 3742SOL     OW14739   4.377   5.303   3.799  0.3059  0.3646  0.5865
 3742SOL    HW214740   4.471   5.305   3.816  0.5549 -1.2251 -0.3656
 3742SOL    HW314741   4.336   5.300   3.886  1.0793  1.5932  1.0190
 3742SOL    MW414742   4.384   5.303   3.813  0.4408  0.3169  0.5180
 3743SOL     OW14743   0.765   0.854   5.271  0.2081  0.0221  0.4108
 3743SOL    HW214744   0.678   0.815   5.268  0.3856 -0.3630  0.2915
 3743SOL    HW314745   0.784   0.878   5.181  0.5874 -0.6898  0.2989
 3743SOL    MW414746   0.756   0.852   5.259  0.2816 -0.1226  0.3803
 3744SOL     OW14747   5.934   3.721   5.786  0.0486 -0.2811 -0.1411
 3744SOL    HW214748   6.001   3.702   5.852  0.2348 -0.3942 -0.3609
 3744SOL    HW314749   5.851   3.712   5.832  0.2064  1.2594  0.5091
 3744SOL    MW414750   5.932   3.717   5.801  0.0940 -0.0928 -0.0843
 3745SOL     OW14751   5.441   1.485   5.946 -0.4070  0.0150 -0.3838
 3745SOL    HW214752   5.434   1.579   5.965  0.7047  0.0734 -0.1999
 3745SOL    HW314753   5.351   1.457   5.933 -1.2836  0.2472  3.6637
 3745SOL    MW414754   5.428   1.494   5.947 -0.3760  0.0533  0.1745
 3746SOL     OW14755   4.540   2.451   1.682 -0.1350  0.0962 -0.2443
 3746SOL    HW214756   4.629   2.472   1.655 -0.8116  1.6059 -1.4268
 3746SOL    HW314757   4.488   2.527   1.656 -2.4706 -2.2860 -3.3013
 3746SOL    MW414758   4.545   2.464   1.675 -0.5324 -0.0189 -0.8037
 3747SOL     OW14759   1.637   0.189   5.421  0.7084  0.0872  0.0552
 3747SOL    HW214760   1.592   0.272   5.436  0.1697 -0.1115 -0.4178
 3747SOL    HW314761   1.659   0.189   5.328  0.4195 -0.4373 -0.0194
 3747SOL    MW414762   1.634   0.200   5.411  0.5992 -0.0082 -0.0171
 3748SOL     OW14763   2.043   2.336   0.164 -0.1830  0.5596  0.5800
 3748SOL    HW214764   2.079   2.294   0.243  0.2518  0.9092  0.5689
 3748SOL    HW314765   2.118   2.348   0.107 -0.0604  2.5067  1.0893
 3748SOL    MW414766   2.057   2.332   0.167 -0.1095  0.8626  0.6457
 3749SOL     OW14767   4.792   4.107   2.065  0.6192 -0.2620  0.9430
 3749SOL    HW214768   4.861   4.045   2.043  1.6158  0.7110  1.2004
 3749SOL    HW314769   4.749   4.127   1.982  0.1348 -1.4507  0.8967
 3749SOL    MW414770   4.795   4.102   2.051  0.6868 -0.2905  0.9709
 3750SOL     OW14771   0.392   4.009   1.823 -0.2623  0.3614 -0.3741
 3750SOL    HW214772   0.397   3.928   1.773 -1.8658 -0.1426  0.2172
 3750SOL    HW314773   0.371   3.982   1.912 -1.7681  1.4278 -0.3541
 3750SOL    MW414774   0.390   3.995   1.828 -0.6726  0.4356 -0.2935
 3751SOL     OW14775   2.631   1.449   4.825 -0.7716 -0.0410  0.1191
 3751SOL    HW214776   2.539   1.474   4.823 -1.5197 -2.5326 -1.4591
 3751SOL    HW314777   2.661   1.463   4.735 -0.3738 -1.6514 -0.0271
 3751SOL    MW414778   2.623   1.455   4.812 -0.8178 -0.5822 -0.1084
 3752SOL     OW14779   0.692   3.372   0.457 -0.3030  0.5584 -0.5056
 3752SOL    HW214780   0.774   3.377   0.408 -0.3348  1.4716 -0.4727
 3752SOL    HW314781   0.717   3.389   0.548 -0.4056 -0.0480 -0.3586
 3752SOL    MW414782   0.706   3.375   0.462 -0.3208  0.5989 -0.4819
 3753SOL     OW14783   5.751   4.081   6.080 -0.3779  0.3586  0.5571
 3753SOL    HW214784   5.681   4.037   6.127 -1.9846  2.1716 -0.0381
 3753SOL    HW314785   5.755   4.036   5.995 -0.9422  0.3532  0.5322
 3753SOL    MW414786   5.742   4.069   6.075 -0.6644  0.5971  0.4753
 3754SOL     OW14787   6.403   2.393   5.817 -0.3438 -0.4213 -0.5616
 3754SOL    HW214788   6.314   2.400   5.852  0.4832  0.3378  1.6088
 3754SOL    HW314789   6.424   2.300   5.824 -0.4298 -0.3804  0.4784
 3754SOL    MW414790   6.394   2.382   5.823 -0.2460 -0.3157 -0.1381
 3755SOL     OW14791   4.864   4.542   1.260 -0.2142 -0.3684  0.1697
 3755SOL    HW214792   4.779   4.510   1.289 -1.1713  2.1138  0.3697
 3755SOL    HW314793   4.873   4.628   1.302  1.8287 -0.0155 -0.8435
 3755SOL    MW414794   4.854   4.549   1.270 -0.0709  0.0056  0.0624
 3756SOL     OW14795   2.008   0.071   1.984  0.0322  0.3929  0.3873
 3756SOL    HW214796   2.038  -0.007   2.031  1.3156  1.3047  1.1478
 3756SOL    HW314797   2.046   0.144   2.033  0.3328  1.4304 -1.3263
 3756SOL    MW414798   2.017   0.070   1.997  0.2412  0.6501  0.2616
 3757SOL     OW14799   4.605   5.341   0.710 -0.1797 -0.2708 -0.2800
 3757SOL    HW214800   4.571   5.387   0.787 -0.4445  0.7850 -1.0047
 3757SOL    HW314801   4.676   5.286   0.744  0.8881  1.4857  0.4930
 3757SOL    MW414802   4.610   5.340   0.725 -0.0738  0.1002 -0.2736
 3758SOL     OW14803   4.431   2.109   1.618 -0.9579 -0.0695 -0.0663
 3758SOL    HW214804   4.365   2.152   1.672 -0.6117 -0.1330  0.4089
 3758SOL    HW314805   4.475   2.048   1.677 -0.1339  0.3378 -0.2544
 3758SOL    MW414806   4.428   2.107   1.633 -0.8035 -0.0241 -0.0284
 3759SOL     OW14807   6.179   4.865   2.821  0.4587  0.1388  0.2652
 3759SOL    HW214808   6.092   4.831   2.800 -0.4784  1.5401  1.6681
 3759SOL    HW314809   6.185   4.857   2.916  2.1358 -0.4709  0.1487
 3759SOL    MW414810   6.168   4.859   2.831  0.5563  0.2432  0.4349
 3760SOL     OW14811   5.616   5.902   5.367  0.2592 -0.2618 -0.2411
 3760SOL    HW214812   5.591   5.885   5.458  1.4343 -0.9020 -0.0183
 3760SOL    HW314813   5.541   5.873   5.315 -1.2139  1.7704  0.5700
 3760SOL    MW414814   5.603   5.896   5.372  0.2199 -0.0781 -0.1047
 3761SOL     OW14815   5.425   1.221   4.724  0.1539  0.0493  0.8573
 3761SOL    HW214816   5.438   1.282   4.796  0.6361 -0.8114  1.5231
 3761SOL    HW314817   5.437   1.274   4.645 -2.5906  1.5201  1.3130
 3761SOL    MW414818   5.429   1.236   4.723 -0.1446  0.1298  1.0052
 3762SOL     OW14819   0.974   0.863   2.359  0.2549 -0.0082 -0.4436
 3762SOL    HW214820   1.002   0.771   2.366 -0.8143 -0.3699 -0.7052
 3762SOL    HW314821   1.034   0.911   2.416 -0.1096 -1.0695  0.8789
 3762SOL    MW414822   0.986   0.857   2.367  0.0657 -0.1960 -0.3036
 3763SOL     OW14823   0.478   5.434   0.911  0.2122 -0.2914 -0.7263
 3763SOL    HW214824   0.388   5.464   0.904  0.2308 -0.4327 -1.6492
 3763SOL    HW314825   0.501   5.403   0.824  0.9830 -0.7542 -0.3785
 3763SOL    MW414826   0.469   5.434   0.899  0.3163 -0.3711 -0.8022
 3764SOL     OW14827   6.030   1.898   5.369  0.4730 -0.3857  0.0991
 3764SOL    HW214828   6.041   1.934   5.457  0.4596  2.3386 -0.9311
 3764SOL    HW314829   5.943   1.926   5.341  0.8138 -0.4325 -1.0998
 3764SOL    MW414830   6.020   1.906   5.377  0.5162 -0.0325 -0.1950
 3765SOL     OW14831   1.612   4.651   4.334 -0.7194  0.1205 -0.1550
 3765SOL    HW214832   1.671   4.606   4.273 -1.6925  0.1171 -1.1182
 3765SOL    HW314833   1.645   4.740   4.338 -1.5729  0.5839 -2.0099
 3765SOL    MW414834   1.624   4.657   4.326 -0.9604  0.1812 -0.5268
 3766SOL     OW14835   3.433   4.375   2.345  0.3102 -0.2595  0.3955
 3766SOL    HW214836   3.456   4.452   2.293  1.0511 -0.2848  0.6755
 3766SOL    HW314837   3.407   4.309   2.281 -0.4374  0.2472  0.1585
 3766SOL    MW414838   3.432   4.376   2.330  0.3093 -0.1960  0.4011
 3767SOL     OW14839   6.262   0.426   5.047 -0.0578  0.5112  0.3822
 3767SOL    HW214840   6.292   0.514   5.025 -0.6586  0.5081 -0.4942
 3767SOL    HW314841   6.250   0.428   5.142  0.3698  1.2364  0.4299
 3767SOL    MW414842   6.264   0.438   5.057 -0.0806  0.6064  0.2728
 3768SOL     OW14843   1.303   4.883   3.578  0.5784 -0.5014  0.1536
 3768SOL    HW214844   1.372   4.817   3.579  0.0036 -1.1849 -1.7126
 3768SOL    HW314845   1.224   4.834   3.556 -0.1101  0.6068  0.0824
 3768SOL    MW414846   1.302   4.868   3.575  0.4117 -0.4454 -0.1021
 3769SOL     OW14847   0.228   0.571   0.430  0.8439 -0.4940 -0.5382
 3769SOL    HW214848   0.195   0.482   0.444 -0.7805  0.5615  4.3164
 3769SOL    HW314849   0.321   0.564   0.450  0.4912 -0.9604  1.0912
 3769SOL    MW414850   0.236   0.558   0.434  0.5831 -0.4163  0.3173
 3770SOL     OW14851   1.221   2.304   3.430 -0.3576  0.3160 -0.3935
 3770SOL    HW214852   1.289   2.237   3.437 -1.2361 -0.7629 -1.5470
 3770SOL    HW314853   1.261   2.384   3.464  0.8682 -0.6931  0.6294
 3770SOL    MW414854   1.235   2.306   3.435 -0.3117  0.0405 -0.4108
 3771SOL     OW14855   2.088   5.221   5.509 -0.1539  0.2492  0.2867
 3771SOL    HW214856   2.113   5.250   5.421 -0.6442  0.7758  0.3083
 3771SOL    HW314857   2.003   5.263   5.524 -0.5248 -0.6004  0.6384
 3771SOL    MW414858   2.080   5.231   5.499 -0.2675  0.2066  0.3359
 3772SOL     OW14859   3.524   1.110   2.703  0.2852 -0.0286 -0.6132
 3772SOL    HW214860   3.538   1.203   2.721 -3.9889  1.1554 -2.2252
 3772SOL    HW314861   3.519   1.070   2.790  0.2342  1.6482  0.2042
 3772SOL    MW414862   3.525   1.117   2.717 -0.2854  0.3488 -0.7180
 3773SOL     OW14863   4.011   4.126   3.683 -0.3279  0.1989  0.1579
 3773SOL    HW214864   3.973   4.038   3.689  1.6061 -0.6043  1.5224
 3773SOL    HW314865   3.943   4.183   3.718 -0.7424 -1.0425  1.4907
 3773SOL    MW414866   3.997   4.122   3.688 -0.1274 -0.0708  0.5138
 3774SOL     OW14867   2.142   3.932   6.194  0.3769 -0.3700 -0.5230
 3774SOL    HW214868   2.136   3.842   6.226 -0.2998 -0.0179  0.4034
 3774SOL    HW314869   2.159   3.923   6.100 -1.1817 -1.4937 -0.7400
 3774SOL    MW414870   2.143   3.919   6.186  0.0820 -0.4718 -0.4294
 3775SOL     OW14871   4.634   6.262   4.548  0.8414  0.5279 -0.0992
 3775SOL    HW214872   4.665   6.342   4.590 -0.8526  1.0115  0.3258
 3775SOL    HW314873   4.542   6.256   4.574 -0.2273  0.6196 -3.3414
 3775SOL    MW414874   4.626   6.272   4.557  0.4769  0.6038 -0.4709
 3776SOL     OW14875   4.311   4.100   1.952  0.1062  0.9535 -0.0059
 3776SOL    HW214876   4.309   4.006   1.931  2.2249  0.9662 -0.5584
 3776SOL    HW314877   4.221   4.122   1.975 -0.9285 -0.7057 -2.1456
 3776SOL    MW414878   4.299   4.090   1.952  0.2492  0.7362 -0.3611
 3777SOL     OW14879   3.403   4.456   4.002 -0.4274 -0.1169 -0.0436
 3777SOL    HW214880   3.438   4.419   4.083 -0.9709 -0.5085  0.0144
 3777SOL    HW314881   3.320   4.497   4.027 -0.8703 -0.7142 -0.4919
 3777SOL    MW414882   3.397   4.457   4.016 -0.5576 -0.2474 -0.0951
 3778SOL     OW14883   1.606   5.177   4.313 -0.5691  0.0677 -0.5780
 3778SOL    HW214884   1.676   5.242   4.301 -0.9014  0.2973 -1.3292
 3778SOL    HW314885   1.635   5.102   4.261 -0.0013 -0.5476  0.5943
 3778SOL    MW414886   1.619   5.176   4.304 -0.5380  0.0168 -0.5225
 3779SOL     OW14887   4.171   1.104   1.531 -0.0159 -0.2832  0.5196
 3779SOL    HW214888   4.087   1.099   1.484 -1.3170 -1.0763  2.7699
 3779SOL    HW314889   4.149   1.146   1.614  1.9471 -0.0227  0.9433
 3779SOL    MW414890   4.157   1.109   1.536  0.0714 -0.3535  0.8724
 3780SOL     OW14891   1.088   2.448   3.015  0.2544 -0.4194  0.7988
 3780SOL    HW214892   1.072   2.387   3.087 -0.1363 -0.8754  0.3398
 3780SOL    HW314893   1.159   2.503   3.045 -0.0847 -0.4266  1.6456
 3780SOL    MW414894   1.095   2.447   3.029  0.1581 -0.4805  0.8500
 3781SOL     OW14895   1.476   1.611   0.660 -0.1563  0.3661 -0.0919
 3781SOL    HW214896   1.439   1.588   0.745 -0.8148 -0.9616 -0.7028
 3781SOL    HW314897   1.403   1.600   0.599  0.4226  0.8522 -0.8829
 3781SOL    MW414898   1.461   1.606   0.663 -0.1668  0.2551 -0.2769
 3782SOL     OW14899   1.179   4.293   4.034  0.1041 -0.0370 -0.0899
 3782SOL    HW214900   1.237   4.351   4.084  1.2306  0.3879 -1.8010
 3782SOL    HW314901   1.091   4.328   4.051  0.5801  0.9459  0.4810
 3782SOL    MW414902   1.175   4.305   4.043  0.3156  0.1488 -0.2403
 3783SOL     OW14903   4.863   3.085   3.416 -0.4501  0.3234  0.1452
 3783SOL    HW214904   4.875   3.027   3.491  2.0074  0.0879 -0.3535
 3783SOL    HW314905   4.949   3.088   3.374 -1.3615  1.7055 -1.7606
 3783SOL    MW414906   4.876   3.078   3.420 -0.2461  0.4747 -0.1720
 3784SOL     OW14907   4.975   4.389   0.568 -0.0984  0.9910 -0.6036
 3784SOL    HW214908   5.013   4.392   0.481  0.0358  1.9520 -0.5219
 3784SOL    HW314909   4.964   4.296   0.587  2.2210  0.6636 -0.6139
 3784SOL    MW414910   4.978   4.377   0.559  0.2254  1.0746 -0.5942
 3785SOL     OW14911   0.773   2.061   5.342  0.0161 -0.1807  0.3238
 3785SOL    HW214912   0.845   2.070   5.404  0.3719 -1.2007  0.0827
 3785SOL    HW314913   0.723   2.142   5.351  1.8132  1.0600 -0.3011
 3785SOL    MW414914   0.776   2.073   5.351  0.3002 -0.1516  0.2095
 3786SOL     OW14915   4.576   6.260   0.538 -0.2174  0.4705 -0.4891
 3786SOL    HW214916   4.510   6.307   0.487  0.0310  0.1869 -1.0824
 3786SOL    HW314917   4.537   6.252   0.626 -0.2084  1.8933 -0.3235
 3786SOL    MW414918   4.562   6.265   0.543 -0.1834  0.6208 -0.5456
 3787SOL     OW14919   2.444   3.163   0.635  0.5514  0.1662 -0.3450
 3787SOL    HW214920   2.406   3.251   0.639  1.8740  0.7331  0.5915
 3787SOL    HW314921   2.370   3.105   0.654 -0.7801  0.8953 -2.8221
 3787SOL    MW414922   2.429   3.167   0.638  0.5502  0.3372 -0.5482
 3788SOL     OW14923   2.202   1.593   0.218 -0.2860 -0.1382 -0.4628
 3788SOL    HW214924   2.270   1.658   0.201 -1.0636  0.8645  0.1143
 3788SOL    HW314925   2.156   1.586   0.134  0.3767 -0.6525 -0.7905
 3788SOL    MW414926   2.205   1.601   0.204 -0.3011 -0.0738 -0.4299
 3789SOL     OW14927   1.230   4.037   2.298  0.4457  0.1936 -0.5382
 3789SOL    HW214928   1.150   4.060   2.251  0.1326  1.1851  0.4217
 3789SOL    HW314929   1.300   4.049   2.233 -0.1893 -1.0540 -1.4939
 3789SOL    MW414930   1.229   4.042   2.283  0.3206  0.1598 -0.5376
 3790SOL     OW14931   4.620   2.987   3.811  0.2449  0.3826 -0.6466
 3790SOL    HW214932   4.598   2.949   3.896  0.0221  0.9260 -0.4576
 3790SOL    HW314933   4.613   3.082   3.824 -0.5406  0.4557 -1.4659
 3790SOL    MW414934   4.616   2.995   3.824  0.1119  0.4639 -0.7297
 3791SOL     OW14935   6.282   3.414   0.662  0.2198  0.1350  0.2103
 3791SOL    HW214936   6.306   3.507   0.668  0.3576  0.0431  1.1899
 3791SOL    HW314937   6.197   3.415   0.619 -0.5029  0.8437  1.5755
 3791SOL    MW414938   6.274   3.427   0.657  0.1426  0.2164  0.5197
 3792SOL     OW14939   5.776   3.105   6.288  0.0971  0.2608 -0.2240
 3792SOL    HW214940   5.866   3.107   6.322 -0.2292 -1.7227  0.8850
 3792SOL    HW314941   5.781   3.151   6.204  2.1330  0.2297 -0.1637
 3792SOL    MW414942   5.789   3.111   6.282  0.3227 -0.0050 -0.0697
 3793SOL     OW14943   5.482   3.212   4.116 -0.3896 -0.1706 -0.1631
 3793SOL    HW214944   5.495   3.164   4.035 -0.2803 -0.2599 -0.0941
 3793SOL    HW314945   5.404   3.173   4.155 -0.8494  0.3354 -0.5592
 3793SOL    MW414946   5.474   3.201   4.111 -0.4358 -0.1156 -0.2063
 3794SOL     OW14947   5.312   5.575   4.336  0.2594  0.7439 -0.5059
 3794SOL    HW214948   5.293   5.506   4.400 -2.9316 -1.2275 -3.2420
 3794SOL    HW314949   5.391   5.546   4.291 -0.0422 -0.2429 -0.4247
 3794SOL    MW414950   5.320   5.562   4.339 -0.2014  0.3536 -0.8562
 3795SOL     OW14951   0.921   5.316   1.019 -0.2033 -0.2303  0.2353
 3795SOL    HW214952   0.836   5.278   0.997  0.5029 -0.9137 -1.5132
 3795SOL    HW314953   0.981   5.282   0.952  1.0123  1.8933  0.1566
 3795SOL    MW414954   0.918   5.306   1.007  0.0502 -0.0403 -0.0057
 3796SOL     OW14955   6.089   5.933   3.803 -0.4563  0.0377  0.3023
 3796SOL    HW214956   6.079   6.006   3.865 -1.1725  0.4215 -0.2595
 3796SOL    HW314957   6.050   5.858   3.848 -2.4305  0.6522 -0.2811
 3796SOL    MW414958   6.083   5.933   3.817 -0.8113  0.1694  0.1512
 3797SOL     OW14959   0.010   3.321   3.362  0.4411  0.2328  0.5336
 3797SOL    HW214960   0.006   3.247   3.302  1.4166 -1.1035  2.0089
 3797SOL    HW314961   0.082   3.298   3.422 -0.2550  1.6537  1.9738
 3797SOL    MW414962   0.019   3.308   3.362  0.4780  0.2440  0.9183
 3798SOL     OW14963   1.227   1.941   5.464  0.2625  0.1202 -0.2519
 3798SOL    HW214964   1.138   1.974   5.455  0.5686  1.5640  1.4936
 3798SOL    HW314965   1.272   2.007   5.516  1.7663 -1.6502  0.8132
 3798SOL    MW414966   1.222   1.954   5.469  0.5013  0.0771  0.1189
 3799SOL     OW14967   3.350   5.397   4.041  0.3413 -0.2101 -0.1740
 3799SOL    HW214968   3.373   5.305   4.028  0.3166 -0.0757 -1.2603
 3799SOL    HW314969   3.288   5.397   4.114  0.9119 -0.9735  0.3137
 3799SOL    MW414970   3.345   5.385   4.048  0.4133 -0.2931 -0.2530
 3800SOL     OW14971   1.282   4.298   0.663 -0.0606 -0.6327  0.1565
 3800SOL    HW214972   1.259   4.298   0.570  1.6525 -1.2656 -0.3076
 3800SOL    HW314973   1.378   4.299   0.664  0.0074  2.2475  1.9596
 3800SOL    MW414974   1.291   4.298   0.651  0.1744 -0.3362  0.3331
 3801SOL     OW14975   4.102   3.453   1.955  0.1895 -0.0251 -0.1541
 3801SOL    HW214976   4.157   3.515   2.003 -0.2019  0.7155 -0.6582
 3801SOL    HW314977   4.047   3.414   2.023 -0.1649  0.8108  0.0485
 3801SOL    MW414978   4.102   3.456   1.971  0.0911  0.1829 -0.1939
 3802SOL     OW14979   1.764   0.567   3.994  0.6984 -0.0288 -0.9984
 3802SOL    HW214980   1.777   0.519   4.076 -0.7476 -1.5991 -1.6418
 3802SOL    HW314981   1.786   0.504   3.926 -1.7175 -0.0191 -1.8840
 3802SOL    MW414982   1.769   0.552   3.996  0.1888 -0.2347 -1.2001
 3803SOL     OW14983   1.672   1.960   5.346  0.1502  0.1297 -0.1557
 3803SOL    HW214984   1.726   1.956   5.267  2.2217 -1.2239  1.2081
 3803SOL    HW314985   1.653   1.869   5.367  1.7986  0.2235  2.1918
 3803SOL    MW414986   1.677   1.947   5.338  0.6410 -0.0365  0.3340
 3804SOL     OW14987   1.679   4.889   0.913 -0.0635  0.7361  0.2898
 3804SOL    HW214988   1.724   4.966   0.878  0.6109  0.6119  0.8547
 3804SOL    HW314989   1.619   4.862   0.844 -0.2243  1.7014  0.0389
 3804SOL    MW414990   1.677   4.896   0.899  0.0042  0.8471  0.3312
 3805SOL     OW14991   3.815   0.408   5.008 -0.6392  0.3534 -0.7190
 3805SOL    HW214992   3.872   0.461   4.952  2.8738 -0.9667  1.3003
 3805SOL    HW314993   3.814   0.455   5.092  0.4715 -1.3620  0.3228
 3805SOL    MW414994   3.822   0.421   5.012 -0.0292 -0.0471 -0.3151
 3806SOL     OW14995   1.672   5.543   0.021  0.1163  0.5959  0.8425
 3806SOL    HW214996   1.691   5.450   0.014  1.1466  0.7859  0.9326
 3806SOL    HW314997   1.576   5.549   0.016  0.1439 -0.1598 -2.6105
 3806SOL    MW414998   1.662   5.532   0.020  0.2559  0.5213  0.3988
 3807SOL     OW14999   5.568   4.059   1.704 -0.1453  0.1555  0.1817
 3807SOL    HW215000   5.616   3.977   1.688 -0.1975  0.0547  0.5360
 3807SOL    HW315001   5.519   4.042   1.784  1.2847  1.1649  1.3135
 3807SOL    MW415002   5.568   4.046   1.712  0.0365  0.2754  0.3778
 3808SOL     OW15003   2.673   4.887   0.719 -0.1168 -0.2288  0.3201
 3808SOL    HW215004   2.640   4.799   0.736  1.1788 -0.4113  2.2078
 3808SOL    HW315005   2.739   4.875   0.651  2.5552 -1.3979  2.8902
 3808SOL    MW415006   2.678   4.874   0.712  0.4067 -0.4071  0.9083
 3809SOL     OW15007   0.976   5.783   2.386  0.6729 -0.0586  0.0263
 3809SOL    HW215008   0.888   5.789   2.351  1.0110 -2.5046 -1.5041
 3809SOL    HW315009   0.964   5.782   2.481 -0.6017  2.8544 -0.0249
 3809SOL    MW415010   0.963   5.783   2.394  0.5493  0.0030 -0.1824
 3810SOL     OW15011   3.527   0.883   2.910 -0.5175  0.0217 -0.4243
 3810SOL    HW215012   3.620   0.895   2.931 -0.6001  0.1141 -0.1027
 3810SOL    HW315013   3.483   0.891   2.995 -0.9807  1.5705 -0.7835
 3810SOL    MW415014   3.534   0.886   2.924 -0.5895  0.2383 -0.4292
 3811SOL     OW15015   6.218   3.717   3.138  0.5276 -0.0143  0.4520
 3811SOL    HW215016   6.267   3.758   3.209 -0.0142  0.0957  0.7707
 3811SOL    HW315017   6.214   3.624   3.161 -0.2510  0.1318  0.9326
 3811SOL    MW415018   6.224   3.710   3.150  0.3534  0.0195  0.5575
 3812SOL     OW15019   0.825   5.226   4.357  0.0635 -0.2524  0.0144
 3812SOL    HW215020   0.854   5.140   4.386  1.1006 -0.4467 -1.4954
 3812SOL    HW315021   0.766   5.256   4.426 -1.9932 -3.0288 -0.3683
 3812SOL    MW415022   0.821   5.219   4.370 -0.0710 -0.6444 -0.2353
 3813SOL     OW15023   6.382   2.394   2.146  0.3501 -0.0627 -0.3546
 3813SOL    HW215024   6.350   2.477   2.112  2.5268  0.3152 -1.7215
 3813SOL    HW315025   6.476   2.409   2.160  0.4655 -1.7754  1.0739
 3813SOL    MW415026   6.390   2.407   2.144  0.6525 -0.2388 -0.3465
 3814SOL     OW15027   3.006   1.467   4.497  0.4979 -0.2099 -0.1020
 3814SOL    HW215028   3.010   1.401   4.566  0.7668 -0.4401 -0.3305
 3814SOL    HW315029   2.986   1.417   4.418  0.5203  0.0061 -0.2461
 3814SOL    MW415030   3.004   1.452   4.495  0.5364 -0.2118 -0.1512
 3815SOL     OW15031   2.390   4.976   5.709 -0.6755  0.2585  0.3327
 3815SOL    HW215032   2.295   4.970   5.701 -0.6634 -0.7135  0.6961
 3815SOL    HW315033   2.404   5.033   5.784 -1.0150 -0.4843  0.9856
 3815SOL    MW415034   2.379   4.982   5.718 -0.7187  0.0323  0.4668
 3816SOL     OW15035   3.033   4.399   4.875 -0.4211 -0.3724 -0.1375
 3816SOL    HW215036   3.097   4.462   4.844 -0.6008  0.1635  0.5612
 3816SOL    HW315037   3.047   4.395   4.969 -1.2155 -0.4688 -0.0179
 3816SOL    MW415038   3.043   4.407   4.883 -0.5496 -0.3144 -0.0295
 3817SOL     OW15039   3.705   2.536   5.908  0.5405  0.3738 -0.0171
 3817SOL    HW215040   3.670   2.544   5.997  0.5532  0.3733 -0.0121
 3817SOL    HW315041   3.750   2.452   5.907  0.8461  0.5345  0.0822
 3817SOL    MW415042   3.706   2.526   5.920  0.5825  0.3950 -0.0034
 3818SOL     OW15043   0.676   1.175   5.456  0.0100  0.3394  0.0276
 3818SOL    HW215044   0.678   1.238   5.528  1.4554  0.4502 -0.0877
 3818SOL    HW315045   0.649   1.227   5.380 -1.7526  0.1735  0.4861
 3818SOL    MW415046   0.673   1.190   5.455 -0.0319  0.3321  0.0729
 3819SOL     OW15047   3.575   2.555   3.516 -0.1067 -0.2664 -0.0890
 3819SOL    HW215048   3.541   2.499   3.445 -1.8202  0.3423  0.2059
 3819SOL    HW315049   3.568   2.501   3.594 -1.3550  0.1713  0.1253
 3819SOL    MW415050   3.570   2.540   3.517 -0.4974 -0.1284 -0.0218
 3820SOL     OW15051   4.061   3.246   4.541 -0.1654 -0.0721 -0.4454
 3820SOL    HW215052   4.048   3.279   4.630  1.0782  1.1450 -0.6717
 3820SOL    HW315053   4.034   3.155   4.544 -0.8084  0.1502  1.0063
 3820SOL    MW415054   4.056   3.238   4.553 -0.0861  0.1178 -0.2837
 3821SOL     OW15055   6.312   0.297   5.562 -0.2691  0.0991  0.0620
 3821SOL    HW215056   6.244   0.231   5.577 -1.9458  1.5609 -0.7803
 3821SOL    HW315057   6.290   0.368   5.621  1.6512 -0.1042  1.1182
 3821SOL    MW415058   6.300   0.297   5.572 -0.2369  0.2652  0.0902
 3822SOL     OW15059   0.522   5.385   6.324  0.3877 -0.3457 -0.0779
 3822SOL    HW215060   0.462   5.338   6.381 -0.7795  1.5671  0.3514
 3822SOL    HW315061   0.477   5.467   6.303  1.9653  0.2241 -1.4808
 3822SOL    MW415062   0.508   5.390   6.329  0.4419 -0.0182 -0.2063
 3823SOL     OW15063   4.780   2.145   0.828  0.5779 -0.2302  0.3637
 3823SOL    HW215064   4.777   2.240   0.837  2.3551 -0.0882 -0.1495
 3823SOL    HW315065   4.841   2.130   0.756 -0.7946 -1.7399 -0.5470
 3823SOL    MW415066   4.788   2.155   0.820  0.6313 -0.4107  0.1759
 3824SOL     OW15067   3.317   1.472   5.940  0.1785  1.2624 -0.4831
 3824SOL    HW215068   3.307   1.392   5.992  1.3598  0.7789 -0.9447
 3824SOL    HW315069   3.304   1.543   6.002  0.9309  0.6994  0.3517
 3824SOL    MW415070   3.314   1.471   5.955  0.4337  1.1243 -0.4338
 3825SOL     OW15071   2.463   2.710   2.111  0.2151  0.1578 -0.2591
 3825SOL    HW215072   2.404   2.721   2.186 -1.2850 -1.4979 -1.1084
 3825SOL    HW315073   2.548   2.741   2.142 -0.4367 -0.1542  2.0078
 3825SOL    MW415074   2.466   2.716   2.125 -0.0688 -0.1018 -0.0720
 3826SOL     OW15075   6.163   2.343   1.676  0.6279  1.2399 -0.3112
 3826SOL    HW215076   6.202   2.429   1.662  0.3495  1.4849  0.3839
 3826SOL    HW315077   6.171   2.327   1.770 -2.2886  2.0038  0.1908
 3826SOL    MW415078   6.169   2.352   1.686  0.2064  1.3730 -0.1532
 3827SOL     OW15079   5.346   4.608   3.986 -0.3856  0.4586 -0.5699
 3827SOL    HW215080   5.348   4.562   3.901  0.8632  0.1280 -0.3830
 3827SOL    HW315081   5.293   4.686   3.970 -0.0028  0.5012 -1.7193
 3827SOL    MW415082   5.339   4.612   3.972 -0.1704  0.4206 -0.6969
 3828SOL     OW15083   5.958   2.277   5.795 -0.1213  0.4657  0.3596
 3828SOL    HW215084   6.031   2.219   5.773  1.1827  2.2057 -0.1094
 3828SOL    HW315085   5.914   2.295   5.712  0.7449  1.7382  0.1437
 3828SOL    MW415086   5.962   2.272   5.781  0.1650  0.8632  0.2692
 3829SOL     OW15087   3.628   3.610   3.769  0.2777  0.5585  0.2967
 3829SOL    HW215088   3.707   3.639   3.816  0.2125 -0.4534  1.0819
 3829SOL    HW315089   3.557   3.662   3.807  0.5053  1.1856 -0.1266
 3829SOL    MW415090   3.629   3.620   3.780  0.2991  0.5077  0.3445
 3830SOL     OW15091   3.266   2.080   2.222  0.3731 -0.4695 -0.0647
 3830SOL    HW215092   3.359   2.063   2.232  0.3342 -1.1389 -0.7523
 3830SOL    HW315093   3.259   2.133   2.143  0.4031  2.0401  1.5254
 3830SOL    MW415094   3.277   2.085   2.212  0.3719 -0.2267  0.0543
 3831SOL     OW15095   4.403   4.447   3.443 -0.1776 -0.3447  0.2078
 3831SOL    HW215096   4.347   4.382   3.485 -0.1628 -0.4970 -0.0078
 3831SOL    HW315097   4.421   4.412   3.356  2.1500 -1.4237  1.0483
 3831SOL    MW415098   4.398   4.434   3.437  0.1314 -0.5072  0.2903
 3832SOL     OW15099   4.451   0.683   2.019  0.4882  0.9685  0.0533
 3832SOL    HW215100   4.440   0.746   1.948 -1.9542  1.9965  1.1981
 3832SOL    HW315101   4.386   0.615   2.001  0.9616  0.4045  0.4596
 3832SOL    MW415102   4.441   0.682   2.008  0.2284  1.0297  0.2579
 3833SOL     OW15103   1.642   1.235   4.249 -0.0401  0.0141  0.2148
 3833SOL    HW215104   1.674   1.244   4.339  1.3432 -0.4173 -0.1993
 3833SOL    HW315105   1.668   1.147   4.223  0.9850  0.6651 -1.1077
 3833SOL    MW415106   1.650   1.225   4.257  0.2777  0.0431 -0.0143
 3834SOL     OW15107   4.534   2.563   0.779  0.6052  0.2108  0.1930
 3834SOL    HW215108   4.562   2.503   0.848  0.6469 -1.2066 -0.9914
 3834SOL    HW315109   4.441   2.578   0.795  0.7930  0.5603  1.0076
 3834SOL    MW415110   4.526   2.557   0.790  0.6355  0.0699  0.1442
 3835SOL     OW15111   3.193   4.133   5.443 -0.2639  0.0149  0.0811
 3835SOL    HW215112   3.258   4.198   5.469 -0.0937 -0.8959  2.1667
 3835SOL    HW315113   3.140   4.177   5.376  0.6119  1.8271  0.5143
 3835SOL    MW415114   3.194   4.147   5.438 -0.1259  0.1338  0.4134
 3836SOL     OW15115   5.675   0.722   3.100 -0.0519  0.3979 -0.0833
 3836SOL    HW215116   5.699   0.733   3.192  1.5985 -0.2683 -0.4055
 3836SOL    HW315117   5.581   0.704   3.102  0.2722 -1.4654  1.6558
 3836SOL    MW415118   5.666   0.721   3.112  0.2086  0.0642  0.1036
 3837SOL     OW15119   0.924   6.130   2.967  0.4145 -0.8293  0.0056
 3837SOL    HW215120   0.839   6.133   2.924  0.5013  0.6540 -0.1261
 3837SOL    HW315121   0.908   6.165   3.055  0.8149 -0.8888  0.1054
 3837SOL    MW415122   0.911   6.135   2.973  0.4788 -0.6415  0.0014
 3838SOL     OW15123   1.106   6.354   2.576 -0.0746  0.0756  0.0806
 3838SOL    HW215124   1.102   6.346   2.671 -3.0226  1.0108  0.1481
 3838SOL    HW315125   1.130   6.266   2.545  1.6373 -0.0675  1.6544
 3838SOL    MW415126   1.108   6.341   2.585 -0.2377  0.1801  0.2971
 3839SOL     OW15127   4.531   1.348   3.468 -0.1095 -0.1720 -0.1733
 3839SOL    HW215128   4.522   1.285   3.539 -0.5377  1.0991  0.9441
 3839SOL    HW315129   4.489   1.306   3.393  1.1813 -1.9372  0.0382
 3839SOL    MW415130   4.524   1.334   3.467  0.0043 -0.2372  0.0020
 3840SOL     OW15131   3.904   1.549   0.672  0.0777  0.2073 -0.3707
 3840SOL    HW215132   3.926   1.539   0.765  0.1350 -0.4190 -0.4520
 3840SOL    HW315133   3.929   1.639   0.652  1.0592  0.0166 -0.0485
 3840SOL    MW415134   3.910   1.560   0.682  0.2148  0.0995 -0.3389
 3841SOL     OW15135   1.195   2.095   6.030 -0.1989  0.0019 -0.4023
 3841SOL    HW215136   1.242   2.025   6.076 -0.2043 -0.7126 -1.4427
 3841SOL    HW315137   1.187   2.063   5.940 -0.0753  1.4063 -0.9430
 3841SOL    MW415138   1.200   2.082   6.024 -0.1833  0.0929 -0.6109
 3842SOL     OW15139   0.332   2.530   1.058  0.3346 -0.1139 -0.3896
 3842SOL    HW215140   0.315   2.463   0.993 -0.9394 -1.2219  1.0120
 3842SOL    HW315141   0.246   2.567   1.078  0.8210  0.8287  0.0074
 3842SOL    MW415142   0.319   2.526   1.052  0.2307 -0.1357 -0.1523
 3843SOL     OW15143   0.464   6.299   1.441  0.2456  0.4496 -0.4944
 3843SOL    HW215144   0.419   6.216   1.457  1.4753  0.0414  1.0277
 3843SOL    HW315145   0.397   6.355   1.401 -1.0521 -0.7556 -0.0913
 3843SOL    MW415146   0.449   6.296   1.438  0.2366  0.2367 -0.2404
 3844SOL     OW15147   1.046   2.687   0.794 -0.2619  0.0625 -0.4297
 3844SOL    HW215148   1.008   2.602   0.775  0.2094  0.1775 -2.0129
 3844SOL    HW315149   1.134   2.683   0.758  0.3339  0.6968  0.8750
 3844SOL    MW415150   1.053   2.676   0.787 -0.1211  0.1614 -0.4664
 3845SOL     OW15151   2.408   3.153   4.772 -0.2774  0.4311 -0.5000
 3845SOL    HW215152   2.334   3.103   4.806  1.4952 -0.1214  2.9205
 3845SOL    HW315153   2.443   3.100   4.701 -1.3826 -0.7311 -0.2057
 3845SOL    MW415154   2.403   3.140   4.767 -0.1893  0.2049 -0.0099
 3846SOL     OW15155   1.530   2.561   6.071  0.3103  0.2624  0.1040
 3846SOL    HW215156   1.517   2.482   6.122 -0.2083 -0.1530 -0.6481
 3846SOL    HW315157   1.536   2.531   5.980 -0.1156  1.0965 -0.2155
 3846SOL    MW415158   1.529   2.547   6.065  0.1857  0.3177 -0.0374
 3847SOL     OW15159   0.574   6.071   0.091  0.3011  0.4120 -0.0209
 3847SOL    HW215160   0.596   6.068   0.184 -0.1713 -0.9202  0.0671
 3847SOL    HW315161   0.659   6.072   0.047  0.5355  1.7476  0.4169
 3847SOL    MW415162   0.588   6.071   0.098  0.2697  0.4124  0.0484
 3848SOL     OW15163   0.558   0.725   0.077  0.3705  0.1123 -0.1556
 3848SOL    HW215164   0.505   0.792   0.120 -1.6682 -0.9601 -0.8698
 3848SOL    HW315165   0.514   0.643   0.097  0.2837 -0.5900 -2.8545
 3848SOL    MW415166   0.545   0.723   0.085  0.0901 -0.1219 -0.6059
 3849SOL     OW15167   3.514   6.263   3.642  0.2722 -0.3767 -0.8102
 3849SOL    HW215168   3.501   6.188   3.701  0.5480  0.5776  0.4992
 3849SOL    HW315169   3.607   6.260   3.619  0.2659 -0.4685 -0.8259
 3849SOL    MW415170   3.524   6.253   3.647  0.3077 -0.2629 -0.6395
 3850SOL     OW15171   6.318   2.499   2.818 -0.6292  0.4182 -0.0145
 3850SOL    HW215172   6.335   2.580   2.866 -0.9706  0.4224  0.1011
 3850SOL    HW315173   6.303   2.527   2.728 -0.7069  0.4768  0.0172
 3850SOL    MW415174   6.319   2.513   2.812 -0.6845  0.4265  0.0049
 3851SOL     OW15175   0.663   6.253   4.014 -0.1270  0.0439  0.1662
 3851SOL    HW215176   0.707   6.189   3.958  1.3892  0.4136  0.8945
 3851SOL    HW315177   0.732   6.288   4.070 -0.9775  2.0446  0.0654
 3851SOL    MW415178   0.678   6.249   4.014 -0.0392  0.3567  0.2490
 3852SOL     OW15179   0.974   3.844   2.076  0.0465  0.1739 -0.7877
 3852SOL    HW215180   1.027   3.772   2.111 -0.5504 -0.6378 -1.4799
 3852SOL    HW315181   0.888   3.805   2.061 -0.4429  1.1820 -0.6841
 3852SOL    MW415182   0.970   3.829   2.078 -0.0968  0.1998 -0.8654
 3853SOL     OW15183   5.029   4.276   6.309  0.2163  0.0794 -0.0943
 3853SOL    HW215184   5.031   4.311   6.220  1.4980 -2.0114 -0.9722
 3853SOL    HW315185   5.116   4.297   6.345  1.8322 -3.5783 -1.3539
 3853SOL    MW415186   5.041   4.283   6.302  0.5986 -0.6790 -0.3763
 3854SOL     OW15187   2.713   4.486   0.106 -0.1581  0.3268 -0.4753
 3854SOL    HW215188   2.756   4.403   0.089  1.0386  1.0620 -1.2046
 3854SOL    HW315189   2.784   4.550   0.106 -1.1218  1.4311 -0.5275
 3854SOL    MW415190   2.728   4.484   0.104 -0.1273  0.5695 -0.5784
 3855SOL     OW15191   3.671   0.566   1.769 -0.0454  0.4679  0.0622
 3855SOL    HW215192   3.592   0.515   1.791  0.1984  0.8323  1.8461
 3855SOL    HW315193   3.695   0.610   1.850  3.4055 -1.4842  0.3041
 3855SOL    MW415194   3.664   0.565   1.782  0.4421  0.2584  0.3295
 3856SOL     OW15195   1.029   3.224   4.980  0.2947 -0.2865 -0.0093
 3856SOL    HW215196   1.108   3.180   4.948 -1.4809 -2.9343 -1.1682
 3856SOL    HW315197   0.988   3.160   5.038 -1.0044  1.0088  0.5697
 3856SOL    MW415198   1.034   3.210   4.983 -0.1110 -0.4649 -0.0858
 3857SOL     OW15199   1.065   5.165   2.508 -0.1133  0.2219 -0.3644
 3857SOL    HW215200   1.144   5.184   2.457 -0.3989 -0.0397 -0.9136
 3857SOL    HW315201   1.092   5.096   2.569  0.0986  0.1844 -0.5015
 3857SOL    MW415202   1.079   5.158   2.509 -0.1230  0.1824 -0.4550
 3858SOL     OW15203   4.408   2.645   4.944  0.1651  0.1469  0.3381
 3858SOL    HW215204   4.406   2.552   4.922 -2.5259  0.4363 -1.0422
 3858SOL    HW315205   4.442   2.648   5.034 -0.4601 -2.2378  0.7173
 3858SOL    MW415206   4.413   2.634   4.953 -0.2724 -0.1296  0.2060
 3859SOL     OW15207   4.901   5.238   3.990 -0.1700  0.4433 -0.3152
 3859SOL    HW215208   4.849   5.309   4.029  0.2877  1.3547 -1.3049
 3859SOL    HW315209   4.871   5.235   3.899  0.0458 -0.4348 -0.3602
 3859SOL    MW415210   4.890   5.247   3.983 -0.0812  0.4477 -0.4517
 3860SOL     OW15211   6.353   0.435   2.838  0.2268  0.0625  0.1232
 3860SOL    HW215212   6.402   0.501   2.789 -2.1139  1.5919 -0.3147
 3860SOL    HW315213   6.338   0.474   2.924 -1.7489  0.4809 -0.3554
 3860SOL    MW415214   6.357   0.449   2.843 -0.3427  0.3195  0.0023
 3861SOL     OW15215   1.426   4.219   1.613 -0.6990  0.2947  0.6032
 3861SOL    HW215216   1.501   4.190   1.562 -0.3025  0.4332  1.0930
 3861SOL    HW315217   1.465   4.258   1.692 -1.2784  0.5250  0.7794
 3861SOL    MW415218   1.441   4.221   1.617 -0.7231  0.3433  0.6910
 3862SOL     OW15219   0.299   4.931   5.931 -0.7875  0.3473 -0.2929
 3862SOL    HW215220   0.251   4.860   5.888  0.4161 -0.9260  0.4079
 3862SOL    HW315221   0.347   4.974   5.860  0.1509 -0.9004 -0.4333
 3862SOL    MW415222   0.299   4.927   5.916 -0.5049  0.0147 -0.2189
 3863SOL     OW15223   4.970   0.826   3.751  0.1735  0.0576  0.4072
 3863SOL    HW215224   4.902   0.886   3.781  1.4729  1.6912  0.1764
 3863SOL    HW315225   5.040   0.882   3.718  1.1416 -1.5913 -0.5111
 3863SOL    MW415226   4.970   0.841   3.750  0.4726  0.0556  0.2556
 3864SOL     OW15227   5.784   1.731   1.413  0.4984 -0.8375 -0.2305
 3864SOL    HW215228   5.744   1.736   1.499  0.6125  1.2994 -0.2360
 3864SOL    HW315229   5.856   1.794   1.416  0.3234 -0.4880 -1.9636
 3864SOL    MW415230   5.788   1.740   1.425  0.4903 -0.5095 -0.4599
 3865SOL     OW15231   3.127   3.527   3.662 -0.5254 -0.1269 -0.2338
 3865SOL    HW215232   3.129   3.605   3.606  0.2266 -0.2578 -0.4036
 3865SOL    HW315233   3.055   3.543   3.722  0.9623  1.7213  1.1803
 3865SOL    MW415234   3.118   3.540   3.662 -0.2299  0.0997 -0.0696
 3866SOL     OW15235   3.971   5.802   6.156  0.8284  0.1496  0.0371
 3866SOL    HW215236   3.969   5.870   6.088  1.3082  2.4812  2.2201
 3866SOL    HW315237   4.028   5.734   6.119  1.7192  1.6708 -1.5962
 3866SOL    MW415238   3.978   5.802   6.142  1.0092  0.6580  0.1096
 3867SOL     OW15239   5.321   2.477   1.857  0.1536  0.3976  0.9096
 3867SOL    HW215240   5.373   2.525   1.793  2.6264 -2.0248  0.9360
 3867SOL    HW315241   5.313   2.537   1.932  1.9350  1.2825  0.4327
 3867SOL    MW415242   5.327   2.492   1.859  0.7149  0.1947  0.8502
 3868SOL     OW15243   1.416   3.734   0.077 -0.0813 -0.0360  0.4941
 3868SOL    HW215244   1.396   3.736   0.170 -1.1036  0.6390  0.2727
 3868SOL    HW315245   1.359   3.666   0.041  2.1117 -2.1449  0.7194
 3868SOL    MW415246   1.406   3.725   0.084  0.0731 -0.2252  0.4946
 3869SOL     OW15247   4.125   4.379   3.977 -0.1744  0.0411  0.0557
 3869SOL    HW215248   4.093   4.429   4.053  0.4696 -1.3248  1.2802
 3869SOL    HW315249   4.074   4.297   3.980 -0.5894  0.2255 -1.3876
 3869SOL    MW415250   4.114   4.374   3.988 -0.1442 -0.1148  0.0268
 3870SOL     OW15251   1.199   0.606   3.403  0.2175  0.2595 -0.0872
 3870SOL    HW215252   1.281   0.628   3.448 -0.7185  1.9662  0.8685
 3870SOL    HW315253   1.172   0.523   3.442  0.4262  0.7395  1.1199
 3870SOL    MW415254   1.206   0.598   3.414  0.1215  0.5480  0.1982
 3871SOL     OW15255   4.108   0.310   6.434  0.0236 -0.3790  0.1834
 3871SOL    HW215256   4.073   0.221   6.440  0.8880 -0.7620 -0.2610
 3871SOL    HW315257   4.032   0.367   6.444 -0.2715 -1.0884  2.9649
 3871SOL    MW415258   4.093   0.306   6.436  0.0987 -0.5231  0.4918
 3872SOL     OW15259   4.508   1.738   5.280  0.8703  0.1014  0.4524
 3872SOL    HW215260   4.526   1.832   5.278  1.0326  0.0670  0.2978
 3872SOL    HW315261   4.443   1.727   5.350  2.3709  0.0769  1.9182
 3872SOL    MW415262   4.502   1.749   5.289  1.0897  0.0936  0.6254
 3873SOL     OW15263   0.617   0.344   1.922 -0.2453  0.2393  0.1924
 3873SOL    HW215264   0.617   0.252   1.896  0.2092  0.3371 -0.1537
 3873SOL    HW315265   0.668   0.389   1.855 -1.3228  0.9077 -0.2136
 3873SOL    MW415266   0.624   0.338   1.910 -0.3275  0.3404  0.0932
 3874SOL     OW15267   2.926   1.649   1.862 -0.4645  0.0270 -0.2352
 3874SOL    HW215268   2.958   1.618   1.778 -1.8976  0.8484 -1.1197
 3874SOL    HW315269   2.940   1.576   1.922  0.0845 -0.7625 -1.3020
 3874SOL    MW415270   2.932   1.635   1.859 -0.5811  0.0312 -0.4927
 3875SOL     OW15271   4.418   3.801   2.193 -0.3062 -0.3704 -0.9506
 3875SOL    HW215272   4.489   3.738   2.202  1.5319  1.3370 -2.4886
 3875SOL    HW315273   4.400   3.831   2.282 -1.5384 -3.2590 -0.1153
 3875SOL    MW415274   4.425   3.797   2.206 -0.2262 -0.5262 -1.0433
 3876SOL     OW15275   5.758   4.476   0.809  0.0429 -0.3745 -0.3333
 3876SOL    HW215276   5.811   4.403   0.776  0.3806 -1.1423  1.7227
 3876SOL    HW315277   5.668   4.450   0.790  0.1911 -1.0910 -0.1193
 3876SOL    MW415278   5.754   4.463   0.802  0.1070 -0.5703 -0.0338
 3877SOL     OW15279   0.400   3.792   1.670 -0.0259 -0.0304  0.4286
 3877SOL    HW215280   0.361   3.714   1.711  0.3803  0.2739  1.4130
 3877SOL    HW315281   0.367   3.790   1.580  0.0482 -1.3997  0.3965
 3877SOL    MW415282   0.391   3.781   1.663  0.0374 -0.1709  0.5543
 3878SOL     OW15283   2.947   5.901   5.542 -0.3385 -0.0077  0.7810
 3878SOL    HW215284   2.854   5.881   5.535 -0.1646 -0.7291  0.4682
 3878SOL    HW315285   2.980   5.844   5.611 -0.5184  1.7021  2.3431
 3878SOL    MW415286   2.939   5.891   5.550 -0.3393  0.1227  0.9458
 3879SOL     OW15287   3.796   3.498   4.185  0.0809  0.2972 -0.2591
 3879SOL    HW215288   3.711   3.483   4.142 -0.9321  1.6859  1.1669
 3879SOL    HW315289   3.798   3.434   4.256  0.0271  0.5787 -0.0061
 3879SOL    MW415290   3.785   3.487   4.188 -0.0598  0.5175 -0.0375
 3880SOL     OW15291   0.050   1.951   0.793  0.0171 -0.0687 -0.9551
 3880SOL    HW215292   0.144   1.945   0.810 -0.4005 -1.2580  1.3243
 3880SOL    HW315293   0.014   1.870   0.828 -1.7945 -0.0145 -2.5434
 3880SOL    MW415294   0.058   1.939   0.800 -0.2770 -0.2184 -0.8640
 3881SOL     OW15295   1.076   1.771   1.005 -0.4972 -0.1319 -0.2417
 3881SOL    HW215296   1.001   1.781   0.947  0.7502 -1.8866 -2.3056
 3881SOL    HW315297   1.114   1.859   1.010 -1.1066  0.2206 -1.4328
 3881SOL    MW415298   1.071   1.784   0.998 -0.4130 -0.3169 -0.6712
 3882SOL     OW15299   2.664   3.439   4.786  0.1165 -0.3048  0.3365
 3882SOL    HW215300   2.577   3.444   4.827  0.6514  1.0110  1.3811
 3882SOL    HW315301   2.696   3.351   4.808 -0.5778 -0.4647  0.7469
 3882SOL    MW415302   2.657   3.428   4.795  0.0954 -0.1523  0.5285
 3883SOL     OW15303   6.144   2.615   2.608 -0.1182 -0.6564  0.3232
 3883SOL    HW215304   6.062   2.578   2.577  0.4413 -2.3924  0.8301
 3883SOL    HW315305   6.133   2.710   2.597 -0.9785 -1.0118 -2.4777
 3883SOL    MW415306   6.131   2.623   2.603 -0.1579 -0.9324  0.0206
 3884SOL     OW15307   3.027   6.013   1.301  0.0571 -0.5104 -0.6121
 3884SOL    HW215308   2.989   6.093   1.339 -0.5437 -0.6110 -0.9743
 3884SOL    HW315309   2.967   5.943   1.329  1.4070 -1.0972  1.0002
 3884SOL    MW415310   3.014   6.014   1.310  0.1559 -0.6011 -0.4472
 3885SOL     OW15311   4.985   0.713   3.133  0.3832  0.3197  0.3314
 3885SOL    HW215312   5.038   0.722   3.212 -0.3591  0.6611  0.8015
 3885SOL    HW315313   4.973   0.618   3.122 -2.0767  0.2712  2.4203
 3885SOL    MW415314   4.990   0.701   3.142 -0.0393  0.3583  0.6690
 3886SOL     OW15315   0.148   3.572   1.355 -0.0192  0.3488  0.0523
 3886SOL    HW215316   0.191   3.657   1.368 -1.0178  0.5784  2.5867
 3886SOL    HW315317   0.143   3.561   1.260  1.3855  2.4647 -0.3280
 3886SOL    MW415318   0.153   3.582   1.344  0.0344  0.6583  0.3365
 3887SOL     OW15319   2.053   0.909   6.371  0.1394  0.3458 -0.2318
 3887SOL    HW215320   2.126   0.850   6.355  0.3889  0.0721  1.6895
 3887SOL    HW315321   2.024   0.936   6.283  0.6831 -1.7858 -1.1331
 3887SOL    MW415322   2.058   0.905   6.357  0.2441  0.0285 -0.0972
 3888SOL     OW15323   2.428   2.078   2.135 -0.0586 -0.1260  0.2127
 3888SOL    HW215324   2.501   2.034   2.179  0.3051  1.1939  0.9782
 3888SOL    HW315325   2.381   2.123   2.205 -0.5346  0.5341 -0.5168
 3888SOL    MW415326   2.432   2.078   2.150 -0.0734  0.1352  0.2175
 3889SOL     OW15327   5.665   1.009   1.522 -0.1200 -0.3021 -0.1162
 3889SOL    HW215328   5.756   1.007   1.492  0.2301  1.6807  0.6451
 3889SOL    HW315329   5.619   1.060   1.456 -0.0496  1.1010  0.8499
 3889SOL    MW415330   5.671   1.016   1.510 -0.0645  0.1446  0.1117
 3890SOL     OW15331   1.475   0.264   0.030 -0.4939  0.2622  0.3445
 3890SOL    HW215332   1.416   0.338   0.020 -0.2357  0.2790 -1.4686
 3890SOL    HW315333   1.426   0.189  -0.004  0.2369  0.1384 -0.4759
 3890SOL    MW415334   1.461   0.264   0.024 -0.3634  0.2481 -0.0029
 3891SOL     OW15335   3.158   2.263   4.506  0.5181 -0.1306 -0.0821
 3891SOL    HW215336   3.096   2.335   4.495 -0.7335 -0.8798  1.6333
 3891SOL    HW315337   3.221   2.294   4.571  0.9358 -0.0122 -0.5356
 3891SOL    MW415338   3.158   2.276   4.513  0.4081 -0.2138  0.0844
 3892SOL     OW15339   5.500   2.895   0.235 -0.1937  0.3861 -0.0206
 3892SOL    HW215340   5.435   2.900   0.165  0.6716  1.7036 -0.7797
 3892SOL    HW315341   5.561   2.827   0.207  1.1452  2.1125 -1.4863
 3892SOL    MW415342   5.500   2.887   0.222  0.0971  0.7877 -0.3141
 3893SOL     OW15343   5.677   1.304   5.633  0.0275 -0.1989 -0.5562
 3893SOL    HW215344   5.668   1.396   5.611  0.8766  0.2176  0.6988
 3893SOL    HW315345   5.745   1.302   5.701  1.8276 -1.9976 -2.2853
 3893SOL    MW415346   5.685   1.316   5.639  0.3770 -0.3812 -0.6188
 3894SOL     OW15347   4.677   2.426   6.279  0.2897  0.0706 -0.0735
 3894SOL    HW215348   4.683   2.397   6.188 -1.0793 -1.5764  0.3192
 3894SOL    HW315349   4.761   2.400   6.317 -0.1577 -1.7224 -0.2243
 3894SOL    MW415350   4.689   2.419   6.272  0.0501 -0.3833 -0.0416
 3895SOL     OW15351   2.908   3.339   1.667 -0.3021  0.4270  0.3918
 3895SOL    HW215352   2.854   3.413   1.697  0.7301  1.6265 -0.5703
 3895SOL    HW315353   2.914   3.351   1.572  1.3696  0.1507  0.4363
 3895SOL    MW415354   2.902   3.351   1.658  0.0547  0.5488  0.2707
 3896SOL     OW15355   1.931   5.655   0.371 -0.1264 -0.7444 -0.3784
 3896SOL    HW215356   1.949   5.730   0.428 -0.7762 -1.1298  0.3628
 3896SOL    HW315357   1.926   5.692   0.283  2.4688 -0.3722 -0.4448
 3896SOL    MW415358   1.932   5.670   0.367  0.1303 -0.7462 -0.2894
 3897SOL     OW15359   5.346   4.473   3.741 -0.1641 -0.2780 -0.3353
 3897SOL    HW215360   5.407   4.476   3.668 -0.6867 -0.8622 -0.8132
 3897SOL    HW315361   5.327   4.380   3.753 -0.2876 -0.1689  0.3747
 3897SOL    MW415362   5.351   4.461   3.733 -0.2493 -0.3407 -0.3046
 3898SOL     OW15363   3.221   5.935   0.488 -0.1939 -0.2417 -0.3183
 3898SOL    HW215364   3.299   5.888   0.460 -0.1612 -0.3136 -0.1074
 3898SOL    HW315365   3.202   5.996   0.416 -1.3713 -1.9140 -1.4975
 3898SOL    MW415366   3.228   5.937   0.475 -0.3449 -0.4718 -0.4461
 3899SOL     OW15367   3.556   4.370   1.864  0.1162 -0.2466  0.0947
 3899SOL    HW215368   3.618   4.363   1.791 -0.6732 -0.2849 -0.5901
 3899SOL    HW315369   3.565   4.460   1.894  1.9279 -0.7834  1.3205
 3899SOL    MW415370   3.565   4.381   1.858  0.2511 -0.3225  0.1661
 3900SOL     OW15371   5.546   5.486   4.254 -0.3266 -0.1996  0.3111
 3900SOL    HW215372   5.547   5.400   4.211  1.9895 -0.9465  1.6302
 3900SOL    HW315373   5.619   5.533   4.213  1.3580 -0.6085  2.6002
 3900SOL    MW415374   5.556   5.481   4.243  0.2013 -0.3521  0.7871
 3901SOL     OW15375   5.022   0.504   0.651  0.1850 -0.3129  0.5393
 3901SOL    HW215376   4.997   0.571   0.588 -0.6635  0.7391  1.9400
 3901SOL    HW315377   4.981   0.531   0.733 -1.9196 -3.5804  0.7556
 3901SOL    MW415378   5.014   0.516   0.654 -0.2047 -0.6052  0.7527
 3902SOL     OW15379   1.374   5.607   0.014 -0.7329  0.1036 -0.3155
 3902SOL    HW215380   1.370   5.666  -0.061  1.2350  1.3611  0.5185
 3902SOL    HW315381   1.368   5.663   0.090  1.6770 -0.6320  0.5142
 3902SOL    MW415382   1.372   5.622   0.014 -0.1553  0.1725 -0.0960
 3903SOL     OW15383   4.881   0.818   4.480  0.6616  0.1047  0.8301
 3903SOL    HW215384   4.906   0.835   4.390  1.8481  0.7941  1.2725
 3903SOL    HW315385   4.853   0.726   4.480 -0.9618  0.5505 -0.5537
 3903SOL    MW415386   4.880   0.808   4.468  0.6039  0.2545  0.7059
 3904SOL     OW15387   2.864   4.800   0.498 -0.0597 -0.1200  0.5992
 3904SOL    HW215388   2.944   4.852   0.495 -0.2714  0.2115 -2.4180
 3904SOL    HW315389   2.887   4.719   0.452 -1.6671  0.4505 -1.3658
 3904SOL    MW415390   2.878   4.796   0.491 -0.2997 -0.0010 -0.0581
 3905SOL     OW15391   0.272   0.646   1.797 -0.0356  0.2785 -0.3852
 3905SOL    HW215392   0.213   0.584   1.756  0.7291  0.0820 -1.2405
 3905SOL    HW315393   0.334   0.593   1.847  0.3146  0.3747 -0.7080
 3905SOL    MW415394   0.273   0.631   1.798  0.1115  0.2653 -0.5406
 3906SOL     OW15395   6.380   0.044   6.060  0.4190 -0.2027 -0.2774
 3906SOL    HW215396   6.384   0.113   5.994 -1.1761  0.4699  0.2847
 3906SOL    HW315397   6.306   0.068   6.116 -0.3569 -2.4942 -0.2128
 3906SOL    MW415398   6.371   0.056   6.059  0.1062 -0.4163 -0.1947
 3907SOL     OW15399   3.586   0.437   1.374  0.4993 -0.0742 -0.5516
 3907SOL    HW215400   3.629   0.423   1.458  1.7957  1.3413 -0.9385
 3907SOL    HW315401   3.492   0.430   1.393  0.7642  0.2501  1.0046
 3907SOL    MW415402   3.579   0.434   1.387  0.7053  0.1553 -0.3974
 3908SOL     OW15403   2.165   3.221   2.722 -0.1601 -0.2523 -0.1757
 3908SOL    HW215404   2.085   3.177   2.694 -0.3146  0.1841 -0.4294
 3908SOL    HW315405   2.234   3.181   2.669 -0.2760 -0.3035 -0.2885
 3908SOL    MW415406   2.164   3.210   2.712 -0.1958 -0.2015 -0.2240
 3909SOL     OW15407   2.834   2.912   1.885 -0.2704  0.4159 -0.2209
 3909SOL    HW215408   2.841   2.976   1.815 -1.3991  1.9893  1.0178
 3909SOL    HW315409   2.915   2.922   1.936 -0.6494  1.2436  0.2428
 3909SOL    MW415410   2.846   2.922   1.883 -0.4693  0.7327  0.0037
 3910SOL     OW15411   5.097   3.810   6.385 -0.8219  0.0833  0.3957
 3910SOL    HW215412   5.048   3.886   6.416  0.4377  1.3964 -0.6385
 3910SOL    HW315413   5.116   3.759   6.463 -0.9549  1.3157  1.2608
 3910SOL    MW415414   5.093   3.813   6.399 -0.6733  0.4191  0.3734
 3911SOL     OW15415   2.743   3.522   2.551  0.3987 -0.3365  0.1527
 3911SOL    HW215416   2.708   3.502   2.464  1.6760  1.4361 -0.8444
 3911SOL    HW315417   2.837   3.527   2.538  0.7622 -1.4651  1.9977
 3911SOL    MW415418   2.751   3.520   2.538  0.6152 -0.2516  0.2646
 3912SOL     OW15419   5.969   1.137   1.035  0.3720  0.3130  0.1064
 3912SOL    HW215420   5.910   1.201   1.076 -1.8179 -1.8049  0.4476
 3912SOL    HW315421   5.941   1.134   0.944  1.5690  0.9730 -0.3091
 3912SOL    MW415422   5.957   1.145   1.029  0.2410  0.1206  0.0966
 3913SOL     OW15423   2.625   0.459   0.375 -0.0622  0.4272 -0.0495
 3913SOL    HW215424   2.710   0.426   0.349  0.7756  2.2863  0.1411
 3913SOL    HW315425   2.564   0.387   0.358  1.3935 -0.6078 -1.0681
 3913SOL    MW415426   2.628   0.445   0.369  0.2404  0.5360 -0.1587
 3914SOL     OW15427   2.285   0.767   2.244  0.0772  0.1073  0.1505
 3914SOL    HW215428   2.323   0.734   2.162  0.3404 -1.4493  0.8654
 3914SOL    HW315429   2.327   0.852   2.257 -0.1949  0.5221 -1.4722
 3914SOL    MW415430   2.296   0.773   2.235  0.0760 -0.0434  0.0307
 3915SOL     OW15431   4.693   2.175   5.484  0.4816 -0.3471  0.1880
 3915SOL    HW215432   4.740   2.214   5.410 -1.1690 -0.9500 -1.2597
 3915SOL    HW315433   4.758   2.121   5.529  1.3674 -0.5596 -1.2891
 3915SOL    MW415434   4.708   2.173   5.480  0.3807 -0.4547 -0.1979
 3916SOL     OW15435   0.173   0.238   2.918  0.8294  0.4512  0.0715
 3916SOL    HW215436   0.155   0.231   2.825 -1.3788 -0.4975  0.4982
 3916SOL    HW315437   0.121   0.314   2.947 -0.5141 -0.7085  0.8861
 3916SOL    MW415438   0.163   0.247   2.910  0.3608  0.1730  0.2353
 3917SOL     OW15439   6.183   4.405   5.547  0.1256 -0.0370  0.1879
 3917SOL    HW215440   6.244   4.447   5.487 -0.1796  0.8939  0.5143
 3917SOL    HW315441   6.138   4.340   5.494  0.2696  0.3720 -0.4437
 3917SOL    MW415442   6.185   4.402   5.532  0.1043  0.1398  0.1476
 3918SOL     OW15443   5.932   5.394   5.469  0.9851 -0.3755 -0.1742
 3918SOL    HW215444   5.851   5.432   5.434  0.9924  0.6127  0.7985
 3918SOL    HW315445   5.911   5.376   5.561  1.8099 -0.2892  0.0344
 3918SOL    MW415446   5.919   5.397   5.477  1.0949 -0.2338 -0.0183
 3919SOL     OW15447   0.231   4.398   5.908  0.0893 -0.6905  0.3899
 3919SOL    HW215448   0.182   4.350   5.976  0.7114 -1.2684  0.4467
 3919SOL    HW315449   0.175   4.393   5.831 -0.4557 -0.3600  0.7532
 3919SOL    MW415450   0.217   4.391   5.907  0.0995 -0.7232  0.4453
 3920SOL     OW15451   5.183   4.488   4.937  0.3019 -0.1300 -0.1742
 3920SOL    HW215452   5.182   4.576   4.975 -1.7636 -1.2286  2.6598
 3920SOL    HW315453   5.104   4.483   4.884 -0.5618 -0.7747  1.1200
 3920SOL    MW415454   5.173   4.499   4.935 -0.0846 -0.3600  0.3705
 3921SOL     OW15455   3.636   0.763   4.286 -0.2209  0.4040  0.2236
 3921SOL    HW215456   3.686   0.830   4.239 -0.3139 -0.8668 -1.8244
 3921SOL    HW315457   3.545   0.788   4.274 -0.2545 -0.0485 -0.5178
 3921SOL    MW415458   3.631   0.775   4.278 -0.2376  0.1767 -0.1445
 3922SOL     OW15459   0.103   3.051   4.982 -0.0251 -0.5593  0.4036
 3922SOL    HW215460   0.041   3.039   4.911  0.8585  0.5141 -0.5896
 3922SOL    HW315461   0.105   3.145   4.997  0.1934 -0.7264  1.4919
 3922SOL    MW415462   0.095   3.062   4.975  0.1203 -0.4397  0.4161
 3923SOL     OW15463   0.424   3.413   3.265 -0.1226  0.3250  0.0225
 3923SOL    HW215464   0.395   3.432   3.355  0.0468 -0.9353  0.3659
 3923SOL    HW315465   0.496   3.474   3.250 -1.4422  1.9351 -0.0106
 3923SOL    MW415466   0.429   3.423   3.275 -0.2744  0.3711  0.0634
 3924SOL     OW15467   6.378   3.444   2.022 -0.0660 -0.0305 -0.1942
 3924SOL    HW215468   6.441   3.431   1.951 -0.3830 -0.2737 -0.4270
 3924SOL    HW315469   6.423   3.409   2.099 -0.6146 -1.9039 -0.6697
 3924SOL    MW415470   6.393   3.438   2.023 -0.1802 -0.3098 -0.2877
 3925SOL     OW15471   1.010   3.513   1.386 -0.0427 -0.4144 -0.0584
 3925SOL    HW215472   1.005   3.431   1.434 -0.0852 -0.6857 -0.5287
 3925SOL    HW315473   1.025   3.579   1.454  0.3018 -0.8427  0.2869
 3925SOL    MW415474   1.012   3.511   1.401 -0.0028 -0.5067 -0.0749
 3926SOL     OW15475   3.883   2.015   3.500  0.0426 -0.7718  0.2106
 3926SOL    HW215476   3.918   2.099   3.469  0.8278 -0.6759  1.2986
 3926SOL    HW315477   3.883   1.959   3.422  0.7814 -0.1648 -0.2378
 3926SOL    MW415478   3.888   2.019   3.486  0.2436 -0.6791  0.2950
 3927SOL     OW15479   1.013   3.624   3.751 -0.1250  0.7084  0.0634
 3927SOL    HW215480   0.987   3.539   3.787  1.4517 -0.1368 -0.6790
 3927SOL    HW315481   1.030   3.679   3.828 -0.7978  0.2424  0.5519
 3927SOL    MW415482   1.012   3.620   3.766 -0.0057  0.5354  0.0299
 3928SOL     OW15483   3.017   3.467   4.694 -0.5416 -0.0897 -0.2475
 3928SOL    HW215484   3.023   3.521   4.773 -1.7488 -0.3540  0.0542
 3928SOL    HW315485   2.937   3.499   4.650 -0.1894 -0.3248 -1.0700
 3928SOL    MW415486   3.007   3.479   4.698 -0.6544 -0.1556 -0.3162
 3929SOL     OW15487   6.065   0.764   3.280 -0.1960  0.6258 -0.2085
 3929SOL    HW215488   6.095   0.825   3.347  0.8539  1.2799 -1.2339
 3929SOL    HW315489   6.121   0.686   3.291 -0.7513  0.2990  0.3525
 3929SOL    MW415490   6.077   0.762   3.290 -0.1308  0.6690 -0.2698
 3930SOL     OW15491   1.137   0.928   5.371 -1.0124  0.8679  0.2405
 3930SOL    HW215492   1.076   0.997   5.347 -1.7817  0.2861  0.4747
 3930SOL    HW315493   1.085   0.866   5.422 -0.0186  0.7896  1.2074
 3930SOL    MW415494   1.122   0.929   5.374 -0.9828  0.7808  0.3990
 3931SOL     OW15495   6.231   3.431   4.181 -0.0311  0.6773 -0.5036
 3931SOL    HW215496   6.307   3.421   4.124  0.1695  1.1181 -0.3189
 3931SOL    HW315497   6.163   3.377   4.141  0.7974 -0.8601  0.0941
 3931SOL    MW415498   6.232   3.423   4.168  0.1047  0.5326 -0.4004
 3932SOL     OW15499   4.343   5.237   5.515 -0.2905 -0.3254  0.3576
 3932SOL    HW215500   4.270   5.300   5.516 -0.5390 -0.6138  0.3875
 3932SOL    HW315501   4.309   5.162   5.466  0.3723 -0.0059 -0.6382
 3932SOL    MW415502   4.329   5.236   5.508 -0.2358 -0.3213  0.2301
 3933SOL     OW15503   0.887   3.831   6.407  0.1781  0.0876  0.2046
 3933SOL    HW215504   0.841   3.894   6.462 -0.6606 -0.4841  0.1705
 3933SOL    HW315505   0.833   3.823   6.328 -0.2029 -1.3246  0.5815
 3933SOL    MW415506   0.874   3.838   6.404  0.0172 -0.1741  0.2498
 3934SOL     OW15507   0.321   2.957   4.863  0.6625  0.4449 -0.1121
 3934SOL    HW215508   0.324   2.872   4.908  0.5856 -0.5073 -1.8411
 3934SOL    HW315509   0.254   3.006   4.911  1.9870  0.2670  2.0841
 3934SOL    MW415510   0.313   2.952   4.875  0.8271  0.2958 -0.0505
 3935SOL     OW15511   4.321   4.803   2.944 -0.1711 -0.4076 -0.1510
 3935SOL    HW215512   4.280   4.738   2.887  0.9016 -0.7274 -0.5715
 3935SOL    HW315513   4.292   4.887   2.908 -0.5340 -0.6301 -0.3863
 3935SOL    MW415514   4.311   4.805   2.932 -0.0775 -0.4792 -0.2375
 3936SOL     OW15515   2.556   1.490   0.301  0.0170  0.1275  0.1926
 3936SOL    HW215516   2.600   1.409   0.328  0.7135  0.0789 -1.0186
 3936SOL    HW315517   2.512   1.521   0.380 -0.2077 -1.3913  0.6956
 3936SOL    MW415518   2.556   1.483   0.315  0.0792 -0.0793  0.0992
 3937SOL     OW15519   0.903   0.286   3.714  0.2370  0.1436 -0.2075
 3937SOL    HW215520   0.809   0.278   3.697  0.2293  1.1315 -0.7358
 3937SOL    HW315521   0.927   0.205   3.759 -1.0083  0.1945  0.5847
 3937SOL    MW415522   0.894   0.274   3.718  0.0717  0.2806 -0.1727
 3938SOL     OW15523   0.117   5.065   2.237 -0.0318 -0.3379 -0.5590
 3938SOL    HW215524   0.186   5.021   2.187  0.8089  0.0140  0.2888
 3938SOL    HW315525   0.157   5.146   2.268 -0.7434 -0.2536  0.1636
 3938SOL    MW415526   0.131   5.070   2.234 -0.0147 -0.2803 -0.3518
 3939SOL     OW15527   5.455   4.633   0.950  0.3028 -0.2711 -0.0337
 3939SOL    HW215528   5.507   4.668   1.021 -0.6081  0.7618  0.1530
 3939SOL    HW315529   5.505   4.558   0.918  1.1249 -0.2482  1.1411
 3939SOL    MW415530   5.468   4.628   0.955  0.2910 -0.1318  0.1459
 3940SOL     OW15531   3.223   5.200   2.421  0.4809  0.4244  1.1327
 3940SOL    HW215532   3.280   5.128   2.449 -1.3024 -0.9675  1.3451
 3940SOL    HW315533   3.254   5.222   2.334 -0.9235 -2.9365 -0.3999
 3940SOL    MW415534   3.235   5.193   2.413  0.0603 -0.2027  0.9585
 3941SOL     OW15535   2.628   3.669   4.397  0.1248 -0.8550  0.6515
 3941SOL    HW215536   2.596   3.747   4.441  0.1122 -1.0258  0.9445
 3941SOL    HW315537   2.562   3.602   4.414 -0.5969 -0.5554 -0.8055
 3941SOL    MW415538   2.615   3.671   4.405  0.0279 -0.8380  0.4979
 3942SOL     OW15539   3.772   1.650   1.698  0.2798 -0.1284 -0.4582
 3942SOL    HW215540   3.846   1.711   1.702  1.0505 -1.0835  0.7431
 3942SOL    HW315541   3.706   1.695   1.646  2.2564  0.1300 -2.9100
 3942SOL    MW415542   3.773   1.664   1.692  0.6423 -0.2203 -0.6232
 3943SOL     OW15543   1.644   4.664   0.605 -0.4914  0.5063  0.1104
 3943SOL    HW215544   1.558   4.644   0.643  0.2468 -2.0010  0.6945
 3943SOL    HW315545   1.636   4.637   0.514 -0.8410  2.0432 -0.3389
 3943SOL    MW415546   1.632   4.658   0.598 -0.4401  0.3782  0.1282
 3944SOL     OW15547   6.030   3.149   0.845  0.0499 -0.2442 -1.2036
 3944SOL    HW215548   6.125   3.154   0.861 -0.1033 -0.4562 -0.1439
 3944SOL    HW315549   5.996   3.232   0.878 -0.1265 -0.1298 -1.6715
 3944SOL    MW415550   6.038   3.160   0.852  0.0064 -0.2571 -1.1255
 3945SOL     OW15551   0.177   5.451   3.420 -0.3387  0.4283 -0.1013
 3945SOL    HW215552   0.087   5.465   3.391 -0.4157 -1.4302 -0.9029
 3945SOL    HW315553   0.192   5.357   3.408  0.9354  0.2347  2.2643
 3945SOL    MW415554   0.167   5.440   3.415 -0.1808  0.1576  0.1050
 3946SOL     OW15555   5.050   2.308   0.082  0.1948 -0.1969 -0.0237
 3946SOL    HW215556   5.070   2.339  -0.006 -0.5453  0.0111 -0.1226
 3946SOL    HW315557   5.127   2.334   0.134 -0.3355  1.7655 -0.1264
 3946SOL    MW415558   5.063   2.316   0.077  0.0272  0.0895 -0.0503
 3947SOL     OW15559   4.222   3.465   4.441 -0.5000  0.0037 -0.3854
 3947SOL    HW215560   4.207   3.541   4.496 -2.8124  0.9769 -2.2073
 3947SOL    HW315561   4.170   3.395   4.482  0.1918 -0.1301  0.2869
 3947SOL    MW415562   4.213   3.466   4.454 -0.7138  0.1144 -0.5371
 3948SOL     OW15563   0.935   2.089   1.452 -0.2386  0.4933 -0.1195
 3948SOL    HW215564   0.990   2.011   1.447 -1.4156 -0.2931 -1.9943
 3948SOL    HW315565   0.848   2.055   1.470 -0.2618  1.6766  2.2732
 3948SOL    MW415566   0.931   2.074   1.453 -0.3970  0.5456 -0.0512
 3949SOL     OW15567   1.701   5.649   5.713 -0.1995 -0.3574  0.3019
 3949SOL    HW215568   1.683   5.683   5.625  1.3585  1.8679  0.7628
 3949SOL    HW315569   1.741   5.723   5.760  0.3227 -1.9058  2.4547
 3949SOL    MW415570   1.704   5.663   5.708  0.0749 -0.2681  0.6468
 3950SOL     OW15571   1.571   4.383   5.203 -0.3592  0.4654 -0.3282
 3950SOL    HW215572   1.604   4.306   5.248  0.0750  1.7282  1.6514
 3950SOL    HW315573   1.489   4.354   5.162 -1.5547 -0.5003  2.4745
 3950SOL    MW415574   1.564   4.369   5.204 -0.4597  0.5046  0.3028
 3951SOL     OW15575   4.928   4.963   4.022 -0.1258 -0.4716 -0.0723
 3951SOL    HW215576   4.911   5.056   4.009  0.1568 -0.5685 -1.2464
 3951SOL    HW315577   4.945   4.929   3.934  2.6469 -1.0739  0.6173
 3951SOL    MW415578   4.928   4.971   4.009  0.2773 -0.5638 -0.1362
 3952SOL     OW15579   6.307   5.246   0.188 -0.0772 -0.0239 -0.1214
 3952SOL    HW215580   6.377   5.182   0.204  0.8499  0.2215 -2.6329
 3952SOL    HW315581   6.226   5.197   0.201  0.5883 -1.0711  0.1973
 3952SOL    MW415582   6.306   5.231   0.192  0.1330 -0.1297 -0.4107
 3953SOL     OW15583   3.153   6.063   5.406 -0.0299 -0.1778  0.1039
 3953SOL    HW215584   3.080   6.002   5.419  0.8277 -0.9970  1.2675
 3953SOL    HW315585   3.114   6.150   5.413 -0.8463 -0.6093  1.0477
 3953SOL    MW415586   3.138   6.066   5.409 -0.0244 -0.3428  0.3819
 3954SOL     OW15587   2.819   1.209   4.006  0.1167 -0.4036  0.2096
 3954SOL    HW215588   2.876   1.146   4.049  0.0465 -0.9588 -0.4918
 3954SOL    HW315589   2.870   1.290   4.002  0.3419 -0.5178  0.7979
 3954SOL    MW415590   2.833   1.212   4.011  0.1372 -0.4919  0.1947
 3955SOL     OW15591   5.046   1.479   2.821  0.6324 -0.1912 -0.0477
 3955SOL    HW215592   5.063   1.423   2.746 -0.2295  0.2132 -0.5553
 3955SOL    HW315593   5.062   1.422   2.897 -0.9667 -1.3823 -0.5509
 3955SOL    MW415594   5.050   1.464   2.821  0.3077 -0.2950 -0.1811
 3956SOL     OW15595   2.990   4.342   1.438  0.6521 -0.3745 -0.2136
 3956SOL    HW215596   3.005   4.424   1.391 -1.2455 -0.4528 -1.0300
 3956SOL    HW315597   2.998   4.366   1.530  0.0655  0.7668 -0.4328
 3956SOL    MW415598   2.993   4.356   1.444  0.3244 -0.2343 -0.3503
 3957SOL     OW15599   6.007   1.531   5.934 -0.1376 -0.0372  0.4658
 3957SOL    HW215600   6.055   1.591   5.878 -0.5625 -0.6140 -0.5608
 3957SOL    HW315601   6.068   1.510   6.005  0.4527  0.6359  0.1725
 3957SOL    MW415602   6.021   1.536   5.936 -0.1157 -0.0245  0.2917
 3958SOL     OW15603   3.437   3.649   4.827 -0.6145 -0.2906 -0.2132
 3958SOL    HW215604   3.499   3.697   4.882  0.0121 -0.1835 -0.9785
 3958SOL    HW315605   3.493   3.595   4.771 -1.1713  0.2324 -1.3207
 3958SOL    MW415606   3.453   3.648   4.827 -0.6053 -0.2074 -0.4603
 3959SOL     OW15607   5.874   0.825   4.543 -0.2691  0.3392 -0.2687
 3959SOL    HW215608   5.834   0.805   4.628  0.0382 -2.5860 -0.7235
 3959SOL    HW315609   5.827   0.770   4.480  1.3053  0.3944 -1.5719
 3959SOL    MW415610   5.862   0.815   4.546 -0.0208 -0.0394 -0.5006
 3960SOL     OW15611   5.013   6.208   3.580 -0.2375 -0.0285 -0.1290
 3960SOL    HW215612   5.007   6.303   3.580 -1.2542 -0.0854 -0.0720
 3960SOL    HW315613   4.960   6.181   3.505 -0.7459 -0.5885  0.4220
 3960SOL    MW415614   5.005   6.217   3.570 -0.4387 -0.1099 -0.0488
 3961SOL     OW15615   2.874   4.108   5.410  0.3421  0.0829  0.2337
 3961SOL    HW215616   2.914   4.185   5.450 -2.0835  1.1956  0.7321
 3961SOL    HW315617   2.789   4.138   5.379  0.1720 -1.9231 -1.5148
 3961SOL    MW415618   2.868   4.122   5.411 -0.0004 -0.0350  0.0688
 3962SOL     OW15619   3.842   4.578   0.950 -0.3639  0.0562  0.1635
 3962SOL    HW215620   3.907   4.568   0.881 -0.7244 -0.6433 -0.0855
 3962SOL    HW315621   3.819   4.488   0.975 -1.0480  0.2918  0.4219
 3962SOL    MW415622   3.847   4.565   0.944 -0.5017 -0.0050  0.1647
 3963SOL     OW15623   3.495   3.142   6.421  0.4582 -0.4223  0.3853
 3963SOL    HW215624   3.416   3.187   6.392  0.9111 -0.5834 -1.2143
 3963SOL    HW315625   3.562   3.210   6.423  1.3247 -1.0028 -2.7632
 3963SOL    MW415626   3.493   3.157   6.417  0.6323 -0.5201 -0.2412
 3964SOL     OW15627   2.041   5.467   5.121  0.2347  0.2763 -0.3842
 3964SOL    HW215628   2.076   5.553   5.098  1.2466 -0.3133 -1.1451
 3964SOL    HW315629   2.015   5.428   5.038  0.2782 -0.3555 -0.1147
 3964SOL    MW415630   2.043   5.473   5.107  0.3740  0.1152 -0.4490
 3965SOL     OW15631   5.444   2.440   6.243 -0.1244 -0.0240 -0.0234
 3965SOL    HW215632   5.449   2.535   6.236 -0.2683  0.0889  1.1507
 3965SOL    HW315633   5.364   2.417   6.196  0.1113  0.3850 -0.6433
 3965SOL    MW415634   5.434   2.450   6.236 -0.1122  0.0448  0.0497
 3966SOL     OW15635   1.438   1.573   4.832 -0.1615  0.3082 -0.7077
 3966SOL    HW215636   1.386   1.529   4.899 -1.1270 -0.5636 -1.9707
 3966SOL    HW315637   1.503   1.508   4.805  1.6193  1.3536  0.7907
 3966SOL    MW415638   1.440   1.559   4.837 -0.0539  0.3311 -0.6766
 3967SOL     OW15639   0.526   2.992   1.603 -0.1290  0.0350 -0.0990
 3967SOL    HW215640   0.599   2.968   1.660 -1.2738 -2.7388  0.3557
 3967SOL    HW315641   0.455   2.933   1.628 -0.9148 -0.9406 -3.9578
 3967SOL    MW415642   0.526   2.981   1.614 -0.3837 -0.4597 -0.5481
 3968SOL     OW15643   5.946   0.223   1.487  0.0653  0.4919  0.1996
 3968SOL    HW215644   5.937   0.315   1.465 -0.8791  0.4746  0.4281
 3968SOL    HW315645   5.873   0.180   1.442  1.3007 -0.3686 -1.0403
 3968SOL    MW415646   5.935   0.229   1.478  0.1037  0.3761  0.0661
 3969SOL     OW15647   0.149   3.673   4.153  0.0673 -0.5750  1.2285
 3969SOL    HW215648   0.210   3.687   4.082  0.3734  2.1861  1.9092
 3969SOL    HW315649   0.171   3.586   4.188 -0.2102 -2.0879 -2.0277
 3969SOL    MW415650   0.160   3.663   4.148  0.0710 -0.4103  0.8887
 3970SOL     OW15651   0.139   4.612   0.917  0.0102  0.1051  0.3420
 3970SOL    HW215652   0.207   4.650   0.862 -2.2836  1.7954 -1.4968
 3970SOL    HW315653   0.148   4.658   1.001 -0.0339  1.6988 -0.4964
 3970SOL    MW415654   0.149   4.623   0.921 -0.2982  0.5384 -0.0112
 3971SOL     OW15655   6.127   5.650   4.616  0.5985 -0.0207  0.6861
 3971SOL    HW215656   6.164   5.625   4.700  1.3790 -0.2431  0.2785
 3971SOL    HW315657   6.061   5.716   4.638 -0.7284 -1.5850  1.6680
 3971SOL    MW415658   6.123   5.655   4.630  0.5264 -0.2564  0.7619
 3972SOL     OW15659   0.714   3.820   3.896 -0.0695  0.7362 -0.2340
 3972SOL    HW215660   0.776   3.813   3.969 -0.8331 -1.4108  0.2922
 3972SOL    HW315661   0.650   3.885   3.925 -0.9701 -0.8370  1.5753
 3972SOL    MW415662   0.714   3.828   3.910 -0.2890  0.2454  0.0741
 3973SOL     OW15663   1.197   2.667   3.281 -0.0590 -0.3562 -0.4820
 3973SOL    HW215664   1.118   2.626   3.316  1.0744 -0.4954  2.1090
 3973SOL    HW315665   1.190   2.759   3.308  0.2932 -0.1850 -0.9585
 3973SOL    MW415666   1.185   2.674   3.289  0.1370 -0.3520 -0.2030
 3974SOL     OW15667   2.855   4.618   2.320  0.1304 -0.6079  0.1788
 3974SOL    HW215668   2.906   4.583   2.247  1.6453 -0.6311  1.2191
 3974SOL    HW315669   2.787   4.671   2.278  1.0574 -0.4925 -1.2465
 3974SOL    MW415670   2.853   4.621   2.305  0.4526 -0.5957  0.1280
 3975SOL     OW15671   3.621   0.814   0.056  0.2880 -0.2832  0.8116
 3975SOL    HW215672   3.681   0.860   0.114 -0.8069 -0.5290  2.2057
 3975SOL    HW315673   3.601   0.732   0.101 -2.1556  0.3970  1.1566
 3975SOL    MW415674   3.626   0.809   0.069 -0.1789 -0.2259  1.0411
 3976SOL     OW15675   0.728   2.491   1.992  0.5671  0.3748  0.5249
 3976SOL    HW215676   0.635   2.514   1.988  0.6605  0.6934  0.0824
 3976SOL    HW315677   0.755   2.513   2.081 -0.1680 -1.2621  1.2028
 3976SOL    MW415678   0.719   2.497   2.003  0.4825  0.2009  0.5560
 3977SOL     OW15679   4.006   5.980   4.182  0.4461  0.0904  0.7807
 3977SOL    HW215680   4.006   6.073   4.205  0.2772  1.2183 -3.1153
 3977SOL    HW315681   4.087   5.967   4.132 -0.6591 -1.2108 -0.7933
 3977SOL    MW415682   4.017   5.990   4.178  0.2780  0.0676  0.0590
 3978SOL     OW15683   4.940   6.113   2.390 -0.0651  0.3308  0.1564
 3978SOL    HW215684   4.979   6.067   2.315 -0.8778  2.0025 -1.3550
 3978SOL    HW315685   4.991   6.193   2.398  1.5723 -0.8399  3.0019
 3978SOL    MW415686   4.952   6.117   2.381  0.0437  0.3969  0.3324
 3979SOL     OW15687   1.646   1.843   6.054  0.1137 -0.3201  0.3730
 3979SOL    HW215688   1.593   1.879   6.125  0.2289 -1.2824  0.9705
 3979SOL    HW315689   1.697   1.917   6.021  0.2454  0.0938  1.4675
 3979SOL    MW415690   1.646   1.857   6.059  0.1463 -0.3924  0.5962
 3980SOL     OW15691   0.987   4.575   6.326  0.3188 -0.7323  0.7937
 3980SOL    HW215692   1.007   4.659   6.369 -1.1153 -0.1256  0.3439
 3980SOL    HW315693   1.037   4.578   6.244 -1.0439  0.5020 -0.0475
 3980SOL    MW415694   0.996   4.587   6.321 -0.0502 -0.4894  0.6234
 3981SOL     OW15695   5.089   1.250   6.103 -0.2523 -0.9735  0.5565
 3981SOL    HW215696   5.178   1.233   6.132  0.0160 -0.9456 -0.2195
 3981SOL    HW315697   5.052   1.307   6.170  0.0619 -1.5898  1.2662
 3981SOL    MW415698   5.096   1.255   6.116 -0.1754 -1.0511  0.5477
 3982SOL     OW15699   0.387   3.743   3.980  0.4773  0.1122  0.0252
 3982SOL    HW215700   0.470   3.741   3.931 -0.4699 -0.1977 -1.6291
 3982SOL    HW315701   0.400   3.813   4.044  1.9149  0.2841 -0.3961
 3982SOL    MW415702   0.400   3.752   3.982  0.5420  0.0940 -0.2486
 3983SOL     OW15703   0.595   1.900   0.434  0.0013  0.8294 -0.1714
 3983SOL    HW215704   0.522   1.839   0.428  0.5582  0.0286  0.8887
 3983SOL    HW315705   0.651   1.878   0.360 -0.1179  0.4829 -0.1595
 3983SOL    MW415706   0.593   1.889   0.424  0.0590  0.6781 -0.0300
 3984SOL     OW15707   1.717   2.114   2.017  0.5200 -0.3635 -0.2841
 3984SOL    HW215708   1.698   2.204   1.991 -1.4949 -0.7019 -0.1276
 3984SOL    HW315709   1.635   2.067   2.002  1.5078 -2.1575 -0.2683
 3984SOL    MW415710   1.704   2.120   2.012  0.3845 -0.6448 -0.2613
 3985SOL     OW15711   0.256   2.880   3.932  0.6767  0.6470 -0.7613
 3985SOL    HW215712   0.190   2.853   3.994 -0.3285  0.7493 -1.7496
 3985SOL    HW315713   0.296   2.799   3.901  1.0217  0.5864 -0.1600
 3985SOL    MW415714   0.253   2.866   3.936  0.5896  0.6525 -0.8123
 3986SOL     OW15715   2.988   0.912   3.699  0.0401 -0.4604 -0.4123
 3986SOL    HW215716   2.917   0.882   3.755 -0.0812 -1.1837 -0.9430
 3986SOL    HW315717   3.053   0.947   3.760 -0.8589  0.4315  0.0611
 3986SOL    MW415718   2.988   0.913   3.714 -0.0945 -0.4382 -0.4199
 3987SOL     OW15719   3.714   4.665   4.100 -0.1867  0.2937 -0.4258
 3987SOL    HW215720   3.727   4.586   4.047  0.3676 -1.2822  1.8855
 3987SOL    HW315721   3.674   4.633   4.180  2.4935  1.8780  1.7274
 3987SOL    MW415722   3.711   4.650   4.103  0.2401  0.2948  0.1633
 3988SOL     OW15723   2.923   3.349   0.389 -0.4701 -0.3027 -0.1120
 3988SOL    HW215724   2.871   3.367   0.311  2.0291  0.0291 -1.7937
 3988SOL    HW315725   3.012   3.373   0.366  0.4118 -0.2563  2.8440
 3988SOL    MW415726   2.928   3.354   0.376 -0.0240 -0.2528  0.0561
 3989SOL     OW15727   4.285   6.007   0.754 -0.1015  0.0898  0.5950
 3989SOL    HW215728   4.272   6.100   0.732  0.8049 -0.3724 -2.3699
 3989SOL    HW315729   4.198   5.974   0.773 -0.6145  1.2333  0.3243
 3989SOL    MW415730   4.272   6.015   0.754 -0.0496  0.1797  0.1681
 3990SOL     OW15731   2.916   5.335   1.681  0.9838 -0.3870  0.1949
 3990SOL    HW215732   2.972   5.316   1.756  0.4873  0.2071  0.7308
 3990SOL    HW315733   2.827   5.317   1.713  0.7691 -0.0875 -0.2271
 3990SOL    MW415734   2.912   5.330   1.695  0.8900 -0.2691  0.2099
 3991SOL     OW15735   2.336   1.094   5.645  0.1082 -0.0914 -0.2796
 3991SOL    HW215736   2.391   1.144   5.585  1.1002 -0.7587  0.0532
 3991SOL    HW315737   2.383   1.096   5.728 -2.2986  2.7691  1.2299
 3991SOL    MW415738   2.349   1.101   5.648 -0.0784  0.1980 -0.0365
 3992SOL     OW15739   0.247   1.534   5.942 -0.4125 -0.0773  0.0662
 3992SOL    HW215740   0.336   1.553   5.970 -0.6746  1.6340 -0.1506
 3992SOL    HW315741   0.200   1.513   6.023 -0.7307  2.9934  0.7829
 3992SOL    MW415742   0.252   1.534   5.956 -0.4890  0.5536  0.1321
 3993SOL     OW15743   1.760   2.354   2.924  0.4912  0.1314  0.2274
 3993SOL    HW215744   1.683   2.368   2.869  0.3903 -2.1505 -0.3262
 3993SOL    HW315745   1.768   2.259   2.930  3.1260  0.2860  0.4548
 3993SOL    MW415746   1.751   2.343   2.917  0.8255 -0.1493  0.1843
 3994SOL     OW15747   5.557   4.019   5.396 -0.1079 -0.4128 -0.3358
 3994SOL    HW215748   5.581   4.058   5.312 -0.8633 -2.1405 -1.4184
 3994SOL    HW315749   5.522   4.091   5.448  2.1463  1.0785 -0.7407
 3994SOL    MW415750   5.556   4.034   5.392  0.0899 -0.4440 -0.5321
 3995SOL     OW15751   0.613   3.838   0.796  0.2201  0.0310  0.2843
 3995SOL    HW215752   0.626   3.801   0.708  1.2835  1.0138 -0.0005
 3995SOL    HW315753   0.543   3.902   0.785  0.3468  0.1472  0.1473
 3995SOL    MW415754   0.605   3.841   0.783  0.3771  0.1760  0.2287
 3996SOL     OW15755   3.786   4.268   4.278  0.8466  0.5162 -0.1916
 3996SOL    HW215756   3.848   4.195   4.278  0.1292 -0.1029  0.2023
 3996SOL    HW315757   3.842   4.346   4.272  1.6282 -0.0479 -0.5049
 3996SOL    MW415758   3.802   4.269   4.277  0.8551  0.3601 -0.1810
 3997SOL     OW15759   6.408   1.978   1.528 -0.3171  0.4336 -0.0836
 3997SOL    HW215760   6.385   1.972   1.435  1.6460 -0.7732 -0.5331
 3997SOL    HW315761   6.503   1.983   1.530 -0.0089 -2.7135  1.9094
 3997SOL    MW415762   6.417   1.978   1.516 -0.0174 -0.1408  0.1200
 3998SOL     OW15763   2.796   1.776   2.459  0.0487 -0.2069  0.0350
 3998SOL    HW215764   2.865   1.813   2.513 -0.3495  0.0017  0.4147
 3998SOL    HW315765   2.840   1.747   2.379  0.2874  1.6845 -0.5756
 3998SOL    MW415766   2.811   1.777   2.455  0.0276  0.0702  0.0045
 3999SOL     OW15767   1.587   3.724   4.485 -0.1158 -0.1603 -0.7054
 3999SOL    HW215768   1.579   3.685   4.399 -1.5781 -0.9521 -0.2392
 3999SOL    HW315769   1.515   3.787   4.491 -1.5854 -1.8297  0.7512
 3999SOL    MW415770   1.577   3.727   4.475 -0.5026 -0.4851 -0.4517
 4000SOL     OW15771   4.284   5.518   2.985  0.2319  0.0638 -0.2118
 4000SOL    HW215772   4.196   5.514   2.947  0.5966  0.0927 -1.0604
 4000SOL    HW315773   4.280   5.594   3.044 -0.4818 -0.2854  0.2099
 4000SOL    MW415774   4.272   5.528   2.988  0.1859  0.0215 -0.2681
 4001SOL     OW15775   4.668   0.188   4.302  0.5127  0.2784 -0.2147
 4001SOL    HW215776   4.600   0.236   4.255  0.2710  1.1981  1.0406
 4001SOL    HW315777   4.747   0.240   4.291  0.9362 -0.5357 -1.2503
 4001SOL    MW415778   4.669   0.201   4.294  0.5367  0.2924 -0.1857
 4002SOL     OW15779   2.590   5.464   2.760  0.0064 -0.9410 -0.5575
 4002SOL    HW215780   2.545   5.394   2.712 -2.0638 -0.6014  0.7530
 4002SOL    HW315781   2.521   5.527   2.780  0.9115 -0.6778  2.1073
 4002SOL    MW415782   2.575   5.463   2.756 -0.1473 -0.8615 -0.0330
 4003SOL     OW15783   0.868   4.953   1.268 -0.3886 -0.2976  0.5665
 4003SOL    HW215784   0.789   4.900   1.278 -1.2944  0.7749 -0.6736
 4003SOL    HW315785   0.852   5.031   1.321 -2.2121  2.0649 -2.9946
 4003SOL    MW415786   0.856   4.956   1.276 -0.7487  0.1556 -0.0669
 4004SOL     OW15787   2.235   4.174   2.614 -0.1626  0.0946  0.0773
 4004SOL    HW215788   2.160   4.166   2.555  1.2516 -0.7948 -1.7063
 4004SOL    HW315789   2.290   4.241   2.574  2.0628 -2.3012 -1.1638
 4004SOL    MW415790   2.232   4.182   2.601  0.3176 -0.3388 -0.3217
 4005SOL     OW15791   0.469   4.491   2.807 -0.5902  0.1074  0.2493
 4005SOL    HW215792   0.554   4.455   2.832 -0.4537  0.7910  0.8084
 4005SOL    HW315793   0.479   4.514   2.714 -0.5869 -0.9848 -0.0296
 4005SOL    MW415794   0.481   4.489   2.798 -0.5718  0.0535  0.2863
 4006SOL     OW15795   5.072   5.249   5.704  0.1463  0.0714 -0.3752
 4006SOL    HW215796   5.106   5.172   5.748 -1.8093  0.9099  2.9563
 4006SOL    HW315797   5.080   5.319   5.769 -2.7424  1.4818 -1.3851
 4006SOL    MW415798   5.078   5.248   5.718 -0.4928  0.3681 -0.0689
 4007SOL     OW15799   1.428   2.282   1.241 -0.5466  0.2843 -0.0734
 4007SOL    HW215800   1.334   2.275   1.258 -0.5350 -1.1761 -0.5227
 4007SOL    HW315801   1.466   2.300   1.327 -1.1275 -0.3276  0.3203
 4007SOL    MW415802   1.420   2.283   1.255 -0.6217  0.0109 -0.0807
 4008SOL     OW15803   4.380   4.491   4.151  0.1455 -0.3231 -0.5952
 4008SOL    HW215804   4.352   4.583   4.150  0.8890  0.0135  2.0355
 4008SOL    HW315805   4.472   4.495   4.177 -0.3181 -1.8723  1.5268
 4008SOL    MW415806   4.389   4.504   4.154  0.1824 -0.4831  0.0319
 4009SOL     OW15807   5.137   6.159   4.132 -0.4531 -0.0715 -0.8737
 4009SOL    HW215808   5.132   6.108   4.212 -0.6124  1.6679  0.2890
 4009SOL    HW315809   5.184   6.238   4.157  1.8634 -0.6071 -3.1570
 4009SOL    MW415810   5.142   6.163   4.145 -0.1685  0.0873 -1.0215
 4010SOL     OW15811   0.613   6.388   4.619 -0.0043 -0.2176  0.1106
 4010SOL    HW215812   0.684   6.324   4.625  0.7494  0.4517 -1.2627
 4010SOL    HW315813   0.550   6.349   4.559  0.5587  0.3683 -0.9039
 4010SOL    MW415814   0.614   6.375   4.612  0.1694 -0.0520 -0.2044
 4011SOL     OW15815   2.741   6.410   6.047  0.3800 -0.5972  0.2270
 4011SOL    HW215816   2.709   6.367   6.126 -3.6514 -1.5519 -1.6801
 4011SOL    HW315817   2.750   6.339   5.983 -0.4041  0.5958 -1.2606
 4011SOL    MW415818   2.738   6.395   6.049 -0.2554 -0.5657 -0.2209
 4012SOL     OW15819   5.856   6.208   4.837  0.1432  0.5694  0.5336
 4012SOL    HW215820   5.765   6.214   4.809  0.0936 -1.2429  0.1819
 4012SOL    HW315821   5.861   6.125   4.884  1.6603  0.5327  0.3532
 4012SOL    MW415822   5.845   6.198   4.839  0.3368  0.3254  0.4634
 4013SOL     OW15823   1.809   5.651   1.507 -0.0533 -0.6965 -0.4488
 4013SOL    HW215824   1.859   5.570   1.498  0.4251 -0.4009 -0.5529
 4013SOL    HW315825   1.723   5.632   1.470  0.4308 -0.8215 -1.5414
 4013SOL    MW415826   1.805   5.638   1.501  0.0737 -0.6740 -0.6067
 4014SOL     OW15827   0.500   0.473   2.458 -0.0958  0.3410 -0.0016
 4014SOL    HW215828   0.587   0.513   2.462  0.4334 -0.7185 -0.5292
 4014SOL    HW315829   0.513   0.393   2.408 -1.4634  0.3721 -0.4383
 4014SOL    MW415830   0.513   0.468   2.452 -0.2064  0.2053 -0.1288
 4015SOL     OW15831   3.244   2.305   0.134 -0.0374 -0.0834 -0.1479
 4015SOL    HW215832   3.206   2.261   0.210 -0.9562 -0.7124 -0.9525
 4015SOL    HW315833   3.185   2.284   0.062  0.2445  1.3583 -0.8414
 4015SOL    MW415834   3.231   2.296   0.135 -0.1215  0.0238 -0.3456
 4016SOL     OW15835   5.429   4.646   2.490  0.0705  0.6795 -0.2853
 4016SOL    HW215836   5.465   4.726   2.528  1.4011 -0.0955  0.1633
 4016SOL    HW315837   5.506   4.593   2.469 -0.7758 -0.3539 -0.8527
 4016SOL    MW415838   5.444   4.649   2.492  0.1344  0.4409 -0.3010
 4017SOL     OW15839   2.710   4.887   3.326  0.2293  0.1796  0.2024
 4017SOL    HW215840   2.786   4.864   3.379  0.8373 -0.0795 -0.7500
 4017SOL    HW315841   2.693   4.979   3.346 -0.7479 -0.3743  2.2533
 4017SOL    MW415842   2.718   4.896   3.335  0.1806  0.0723  0.3473
 4018SOL     OW15843   1.961   2.169   2.143 -0.4555  0.2202 -0.0577
 4018SOL    HW215844   2.002   2.212   2.068 -0.9449 -0.6537 -0.8453
 4018SOL    HW315845   1.870   2.154   2.116 -0.8780  0.6499  1.0348
 4018SOL    MW415846   1.954   2.173   2.130 -0.5758  0.1616 -0.0175
 4019SOL     OW15847   5.387   3.370   3.723 -0.3747  0.3051 -0.1131
 4019SOL    HW215848   5.466   3.337   3.680 -0.8684  0.8815 -1.5277
 4019SOL    HW315849   5.357   3.298   3.778  0.7885 -0.1345 -0.0372
 4019SOL    MW415850   5.393   3.356   3.724 -0.2863  0.3232 -0.2897
 4020SOL     OW15851   0.970   3.563   5.210 -0.0361 -0.3049 -0.1604
 4020SOL    HW215852   0.979   3.522   5.124  1.3334 -0.9535  0.2496
 4020SOL    HW315853   0.937   3.492   5.266 -1.9217  0.3874 -0.3258
 4020SOL    MW415854   0.967   3.548   5.206 -0.1042 -0.2991 -0.1281
 4021SOL     OW15855   4.244   4.240   5.593 -0.2362 -0.1720 -0.5501
 4021SOL    HW215856   4.167   4.285   5.558 -0.4009 -1.4704 -1.9965
 4021SOL    HW315857   4.273   4.183   5.522  2.1342  0.3163 -0.0724
 4021SOL    MW415858   4.238   4.238   5.579  0.0548 -0.2788 -0.6779
 4022SOL     OW15859   3.086   1.565   5.276  0.0719 -0.1268 -0.2510
 4022SOL    HW215860   3.048   1.544   5.362  1.9418  1.4815  1.0647
 4022SOL    HW315861   3.085   1.660   5.272  1.3934 -0.1293 -1.3494
 4022SOL    MW415862   3.081   1.575   5.287  0.4930  0.0851 -0.2223
 4023SOL     OW15863   5.653   5.293   2.829  0.4842 -0.3658  0.2779
 4023SOL    HW215864   5.570   5.326   2.864 -0.9937 -0.0233 -3.1662
 4023SOL    HW315865   5.712   5.368   2.830 -0.3182  0.2810 -0.2317
 4023SOL    MW415866   5.650   5.307   2.834  0.1833 -0.2353 -0.2438
 4024SOL     OW15867   5.488   0.317   4.041 -0.2811  0.4116 -0.2704
 4024SOL    HW215868   5.470   0.410   4.054  0.5860  0.6611 -0.7565
 4024SOL    HW315869   5.402   0.276   4.044 -0.7077  1.2653 -0.3374
 4024SOL    MW415870   5.475   0.324   4.043 -0.2229  0.5571 -0.3434
 4025SOL     OW15871   4.913   4.704   1.970  0.0693 -0.1503 -0.5250
 4025SOL    HW215872   4.929   4.611   1.956 -2.3101 -0.6593 -0.2502
 4025SOL    HW315873   4.890   4.711   2.062  0.7591  0.8216 -0.4115
 4025SOL    MW415874   4.912   4.693   1.980 -0.1536 -0.0892 -0.4738
 4026SOL     OW15875   0.459   4.647   5.335 -0.3675  0.1856  0.3033
 4026SOL    HW215876   0.545   4.651   5.293  0.8735  0.2348  2.6473
 4026SOL    HW315877   0.430   4.738   5.338 -0.3631  0.2068 -0.1929
 4026SOL    MW415878   0.466   4.660   5.330 -0.2032  0.1949  0.5471
 4027SOL     OW15879   5.989   1.264   5.070  0.0773 -0.4533  0.2442
 4027SOL    HW215880   6.080   1.266   5.040 -0.4543 -2.1016 -1.6880
 4027SOL    HW315881   5.972   1.172   5.091 -0.9996 -0.0846  1.0901
 4027SOL    MW415882   5.999   1.252   5.069 -0.1349 -0.6222  0.1009
 4028SOL     OW15883   4.396   2.377   4.880  0.0005  0.1027 -0.3812
 4028SOL    HW215884   4.313   2.336   4.904 -0.4436  1.7276  1.0633
 4028SOL    HW315885   4.461   2.335   4.936  0.3272 -1.6258 -1.9591
 4028SOL    MW415886   4.394   2.366   4.890 -0.0150  0.0890 -0.3988
 4029SOL     OW15887   2.375   4.491   1.048 -0.3968 -0.1024 -0.6867
 4029SOL    HW215888   2.345   4.522   0.962 -0.2226  1.7191 -0.1363
 4029SOL    HW315889   2.300   4.504   1.106 -0.4137 -1.0407 -0.4776
 4029SOL    MW415890   2.361   4.497   1.044 -0.3761  0.0141 -0.5865
 4030SOL     OW15891   1.882   1.740   4.081  0.2148  0.6782 -0.1991
 4030SOL    HW215892   1.822   1.775   4.015 -1.3706 -0.0531  0.7861
 4030SOL    HW315893   1.944   1.812   4.097 -1.5457  2.2310  0.1041
 4030SOL    MW415894   1.882   1.754   4.074 -0.2266  0.7866 -0.0291
 4031SOL     OW15895   0.247   2.370   1.484  0.1034  0.1726 -0.2181
 4031SOL    HW215896   0.242   2.458   1.446  0.1847  1.4338  2.4438
 4031SOL    HW315897   0.157   2.349   1.509  0.3594  0.5172  1.1227
 4031SOL    MW415898   0.234   2.379   1.483  0.1479  0.3844  0.3100
 4032SOL     OW15899   3.980   1.396   2.087  0.3797  0.6551 -0.0657
 4032SOL    HW215900   3.988   1.470   2.026 -0.4198  0.6159 -0.2307
 4032SOL    HW315901   3.889   1.368   2.078  0.4624  0.1608  0.5940
 4032SOL    MW415902   3.969   1.402   2.078  0.2851  0.5847 -0.0004
 4033SOL     OW15903   3.225   1.034   5.892 -0.4210  0.1433 -0.3547
 4033SOL    HW215904   3.286   0.969   5.857  1.3810  1.1939  0.6721
 4033SOL    HW315905   3.195   1.082   5.815  1.2875  0.6028 -0.7844
 4033SOL    MW415906   3.229   1.031   5.877  0.0422  0.3425 -0.2759
 4034SOL     OW15907   2.961   0.708   2.632 -0.2625  0.3787  0.3874
 4034SOL    HW215908   2.917   0.647   2.691  1.3751 -0.9613  0.3173
 4034SOL    HW315909   3.049   0.671   2.622  0.1242  1.6668 -1.3126
 4034SOL    MW415910   2.967   0.695   2.639  0.0046  0.3718  0.1538
 4035SOL     OW15911   1.707   5.276   4.877 -0.0971  0.5880  0.2725
 4035SOL    HW215912   1.799   5.276   4.852  0.4234  0.8696  2.0574
 4035SOL    HW315913   1.708   5.258   4.971 -1.8112  1.3933  0.4746
 4035SOL    MW415914   1.719   5.274   4.886 -0.2546  0.7314  0.5346
 4036SOL     OW15915   4.203   3.235   1.819 -0.0899  0.3856  0.3141
 4036SOL    HW215916   4.179   3.320   1.857 -5.0343 -1.1365  1.3417
 4036SOL    HW315917   4.167   3.238   1.731 -1.7882 -1.0865  0.9076
 4036SOL    MW415918   4.195   3.247   1.812 -0.9663 -0.0094  0.5280
 4037SOL     OW15919   5.374   1.725   0.861  0.3820  0.8743 -0.4828
 4037SOL    HW215920   5.316   1.733   0.785 -0.6280  1.3593  0.3147
 4037SOL    HW315921   5.443   1.789   0.846  0.3106  0.8144 -1.0868
 4037SOL    MW415922   5.375   1.734   0.849  0.2393  0.9304 -0.4572
 4038SOL     OW15923   2.975   4.392   5.904 -0.5847  0.0677  0.7965
 4038SOL    HW215924   2.929   4.313   5.934 -0.3005 -0.5904 -0.4045
 4038SOL    HW315925   2.913   4.433   5.843 -0.6818  0.7202  1.3231
 4038SOL    MW415926   2.961   4.387   5.900 -0.5600  0.0670  0.7075
 4039SOL     OW15927   3.894   2.469   2.911  0.4594  0.0514  0.6345
 4039SOL    HW215928   3.975   2.418   2.910  0.7295  0.4849  0.0059
 4039SOL    HW315929   3.900   2.521   2.992  0.4321 -0.5021  0.9982
 4039SOL    MW415930   3.906   2.469   2.922  0.4915  0.0355  0.5996
 4040SOL     OW15931   1.877   1.914   4.838  0.6757  0.3205 -0.7364
 4040SOL    HW215932   1.818   1.981   4.805  0.6440 -0.2170 -1.7927
 4040SOL    HW315933   1.834   1.831   4.818  0.4185 -0.0328  1.1085
 4040SOL    MW415934   1.864   1.912   4.831  0.6376  0.2029 -0.6323
 4041SOL     OW15935   3.246   1.656   4.657 -0.3682 -0.1505  0.1912
 4041SOL    HW215936   3.261   1.715   4.731  0.7564  0.9762 -0.8888
 4041SOL    HW315937   3.203   1.580   4.696  0.1022  0.4419  1.9896
 4041SOL    MW415938   3.243   1.653   4.672 -0.1578  0.0763  0.2860
 4042SOL     OW15939   0.520   4.767   0.219 -0.2288  0.3886  0.7000
 4042SOL    HW215940   0.518   4.691   0.160  1.4269  0.8991 -0.0522
 4042SOL    HW315941   0.428   4.779   0.244 -0.8833 -0.3079 -1.1833
 4042SOL    MW415942   0.507   4.759   0.215 -0.0967  0.3641  0.3522
 4043SOL     OW15943   1.865   5.555   1.072  0.1752 -0.0961 -0.5155
 4043SOL    HW215944   1.915   5.498   1.130 -0.3451 -1.2290 -1.1445
 4043SOL    HW315945   1.854   5.637   1.122 -0.8168 -1.2484  1.2766
 4043SOL    MW415946   1.870   5.559   1.087 -0.0243 -0.3976 -0.3620
 4044SOL     OW15947   1.792   3.890   4.397  0.4841  0.1776  0.2155
 4044SOL    HW215948   1.727   3.830   4.433  3.0089 -0.9741  3.3723
 4044SOL    HW315949   1.763   3.977   4.428 -0.0280 -0.1979  0.8196
 4044SOL    MW415950   1.780   3.894   4.406  0.7496 -0.0239  0.7117
 4045SOL     OW15951   6.172   5.272   2.150 -0.5084  0.1436 -0.2303
 4045SOL    HW215952   6.234   5.299   2.082 -1.4650 -0.7152 -1.4942
 4045SOL    HW315953   6.120   5.203   2.109 -1.7221  0.2319  1.0886
 4045SOL    MW415954   6.174   5.266   2.136 -0.7948  0.0420 -0.2230
 4046SOL     OW15955   5.071   0.594   2.433 -0.2900 -0.4604 -0.0374
 4046SOL    HW215956   5.157   0.578   2.471 -0.8098 -1.3208  0.8399
 4046SOL    HW315957   5.057   0.520   2.373  0.0201  0.2502 -1.0098
 4046SOL    MW415958   5.080   0.582   2.430 -0.3177 -0.4802 -0.0500
 4047SOL     OW15959   5.003   2.441   4.693  0.0664 -0.2458 -0.1794
 4047SOL    HW215960   4.911   2.435   4.667 -0.1804 -2.4232  0.9992
 4047SOL    HW315961   5.004   2.504   4.765 -0.9350 -1.8470  1.3167
 4047SOL    MW415962   4.991   2.448   4.699 -0.0983 -0.7443  0.1735
 4048SOL     OW15963   4.519   0.857   4.518 -0.2103 -0.3039 -0.2296
 4048SOL    HW215964   4.507   0.762   4.519 -0.4094 -0.2775 -0.1794
 4048SOL    HW315965   4.539   0.879   4.609  1.3311 -0.4900 -0.4880
 4048SOL    MW415966   4.520   0.847   4.530 -0.0332 -0.3250 -0.2570
 4049SOL     OW15967   2.316   2.731   3.882  0.2249 -0.0208  0.5010
 4049SOL    HW215968   2.374   2.799   3.917 -1.0583  0.1244  2.5200
 4049SOL    HW315969   2.230   2.772   3.880 -0.0945 -0.7267 -0.9309
 4049SOL    MW415970   2.312   2.745   3.887  0.0134 -0.0948  0.5785
 4050SOL     OW15971   3.820   3.275   0.383 -0.2754  0.3403 -0.1416
 4050SOL    HW215972   3.888   3.332   0.421 -0.6015  0.5961  0.0605
 4050SOL    HW315973   3.870   3.208   0.336  0.1748  2.6172 -3.2476
 4050SOL    MW415974   3.836   3.274   0.382 -0.2590  0.6745 -0.5247
 4051SOL     OW15975   6.317   5.175   1.465 -0.4827  0.6344 -0.0698
 4051SOL    HW215976   6.310   5.087   1.429 -2.1585  0.4061  0.7219
 4051SOL    HW315977   6.303   5.233   1.390  2.0384  0.3196 -0.8812
 4051SOL    MW415978   6.315   5.171   1.451 -0.3712  0.5627 -0.0724
 4052SOL     OW15979   1.170   5.074   4.126  0.0785  0.0061  0.0427
 4052SOL    HW215980   1.093   5.023   4.153  0.1034 -1.3686 -2.2508
 4052SOL    HW315981   1.228   5.071   4.202 -2.4424  1.9543  2.2511
 4052SOL    MW415982   1.167   5.067   4.140 -0.2508  0.0817  0.0315
 4053SOL     OW15983   1.344   5.257   5.036 -0.3754  0.1389  0.0807
 4053SOL    HW215984   1.257   5.218   5.042  0.1339 -0.8925  0.9153
 4053SOL    HW315985   1.345   5.301   4.951 -1.0587 -1.4536 -0.7835
 4053SOL    MW415986   1.333   5.258   5.025 -0.3983 -0.2073  0.0768
 4054SOL     OW15987   5.205   4.388   2.162 -0.2077 -0.5624  0.6005
 4054SOL    HW215988   5.233   4.475   2.192  0.4614 -0.3590 -0.5433
 4054SOL    HW315989   5.127   4.404   2.109 -0.6962 -0.7820  1.2491
 4054SOL    MW415990   5.199   4.401   2.159 -0.1839 -0.5645  0.5352
 4055SOL     OW15991   1.598   2.960   1.206  0.2880  0.4387  0.2663
 4055SOL    HW215992   1.566   2.965   1.116  0.8378 -2.3260 -0.1432
 4055SOL    HW315993   1.693   2.964   1.198  0.3595 -0.3119  0.6754
 4055SOL    MW415994   1.606   2.961   1.193  0.3700 -0.0251  0.2663
 4056SOL     OW15995   5.204   0.647   3.574  0.2177 -0.1466 -0.3631
 4056SOL    HW215996   5.117   0.629   3.609 -0.0754 -0.1673 -1.0832
 4056SOL    HW315997   5.188   0.700   3.496  0.8992  0.5191 -0.0559
 4056SOL    MW415998   5.191   0.651   3.568  0.2689 -0.0615 -0.4176
 4057SOL     OW15999   4.536   4.552   5.056  0.3474 -0.1201 -0.0459
 4057SOL    HW216000   4.514   4.596   5.138 -1.7100 -0.1659 -0.5361
 4057SOL    HW316001   4.615   4.502   5.076  0.7873  1.1021  1.4552
 4057SOL    MW416002   4.544   4.552   5.069  0.1340  0.0351  0.0875
 4058SOL     OW16003   6.126   0.989   3.486 -0.1276  0.2137  0.1078
 4058SOL    HW216004   6.103   0.980   3.579 -0.7129 -0.5011 -0.0975
 4058SOL    HW316005   6.067   1.056   3.453 -0.1127  0.2636  0.1816
 4058SOL    MW416006   6.116   0.997   3.494 -0.2029  0.1260  0.0905
 4059SOL     OW16007   2.343   0.057   3.614 -0.4856 -0.0405 -0.0536
 4059SOL    HW216008   2.301   0.041   3.529 -0.2375  0.8787 -0.3552
 4059SOL    HW316009   2.325   0.148   3.634  1.0367  0.2821 -0.0187
 4059SOL    MW416010   2.335   0.067   3.605 -0.2520  0.1233 -0.0888
 4060SOL     OW16011   0.145   0.778   0.232 -0.2237  0.1293  0.0195
 4060SOL    HW216012   0.129   0.733   0.149 -0.6811 -0.5974  0.4859
 4060SOL    HW316013   0.155   0.707   0.296 -2.3531  0.6668  1.0343
 4060SOL    MW416014   0.144   0.762   0.230 -0.5650  0.1043  0.2149
 4061SOL     OW16015   3.190   0.953   6.207  0.0642  0.1264 -0.3044
 4061SOL    HW216016   3.201   0.983   6.297 -1.9963  1.3919 -0.4067
 4061SOL    HW316017   3.096   0.941   6.197  0.3294 -0.8181 -2.0546
 4061SOL    MW416018   3.179   0.956   6.217 -0.1726  0.1688 -0.5488
 4062SOL     OW16019   2.087   0.506   1.971  0.3106  0.2895 -0.2810
 4062SOL    HW216020   2.044   0.592   1.971  1.1462  0.7242 -1.2649
 4062SOL    HW316021   2.095   0.484   1.878  2.1004  0.1592 -0.1160
 4062SOL    MW416022   2.082   0.515   1.959  0.6570  0.3297 -0.3891
 4063SOL     OW16023   0.580   0.476   2.855 -0.0153  0.3250 -0.0907
 4063SOL    HW216024   0.515   0.542   2.832  0.8879  1.3446  0.1932
 4063SOL    HW316025   0.529   0.401   2.884 -1.0709  1.1174  0.1698
 4063SOL    MW416026   0.565   0.475   2.856 -0.0354  0.5641 -0.0188
 4064SOL     OW16027   4.290   5.921   5.406  0.1589  0.6477  0.0066
 4064SOL    HW216028   4.362   5.858   5.402  0.9969  1.5453  0.5790
 4064SOL    HW316029   4.277   5.936   5.500  0.4373  1.8442 -0.1341
 4064SOL    MW416030   4.298   5.915   5.418  0.3062  0.9240  0.0635
 4065SOL     OW16031   2.237   1.812   4.335 -0.0512  0.4695  0.3304
 4065SOL    HW216032   2.318   1.812   4.283  0.1957 -1.2397  0.6410
 4065SOL    HW316033   2.226   1.721   4.361 -1.3162  0.9327  1.5191
 4065SOL    MW416034   2.246   1.800   4.331 -0.1855  0.3051  0.5283
 4066SOL     OW16035   5.944   4.813   1.751  0.3560  0.4949 -0.0377
 4066SOL    HW216036   6.031   4.840   1.780  0.6531 -1.7138  1.4075
 4066SOL    HW316037   5.953   4.720   1.732 -1.3467  0.5693 -1.4458
 4066SOL    MW416038   5.956   4.805   1.753  0.1706  0.2133 -0.0328
 4067SOL     OW16039   4.071   5.655   3.697 -0.5351 -0.1202  0.1465
 4067SOL    HW216040   4.007   5.584   3.701 -1.8454  1.0656  1.3180
 4067SOL    HW316041   4.156   5.612   3.708 -1.2442 -1.5731  0.0805
 4067SOL    MW416042   4.074   5.640   3.699 -0.8015 -0.1554  0.2924
 4068SOL     OW16043   5.024   5.221   4.746  0.1096  0.1615  0.0537
 4068SOL    HW216044   4.971   5.301   4.753  0.4698  0.5425 -1.3278
 4068SOL    HW316045   5.000   5.184   4.661  1.0021 -0.4357  0.0573
 4068SOL    MW416046   5.014   5.227   4.736  0.2749  0.1330 -0.1281
 4069SOL     OW16047   2.025   1.900   2.669  0.1997 -0.0239 -0.5779
 4069SOL    HW216048   1.950   1.845   2.646  0.4621 -0.5352 -0.2277
 4069SOL    HW316049   2.025   1.969   2.602 -1.1951  0.5981  0.0213
 4069SOL    MW416050   2.015   1.902   2.657  0.0503 -0.0093 -0.4526
 4070SOL     OW16051   5.609   5.844   2.145  0.2780  0.3329 -0.0370
 4070SOL    HW216052   5.620   5.817   2.237  0.4545 -0.5823 -0.3102
 4070SOL    HW316053   5.561   5.926   2.149  2.0738  1.3870  0.9743
 4070SOL    MW416054   5.604   5.851   2.158  0.5382  0.3512  0.0604
 4071SOL     OW16055   5.386   5.349   5.669 -0.2912  0.4210 -0.2129
 4071SOL    HW216056   5.457   5.296   5.633 -0.2869  0.8081 -0.7831
 4071SOL    HW316057   5.367   5.309   5.754  1.2655  0.8817  0.3959
 4071SOL    MW416058   5.393   5.337   5.675 -0.0852  0.5329 -0.2078
 4072SOL     OW16059   4.523   1.059   6.044 -0.1165  0.0989  0.1015
 4072SOL    HW216060   4.461   0.996   6.080 -0.3948  0.3158  0.0031
 4072SOL    HW316061   4.582   1.079   6.116 -0.1435 -0.1284  0.1871
 4072SOL    MW416062   4.523   1.053   6.058 -0.1568  0.0975  0.0998
 4073SOL     OW16063   1.260   1.684   3.873 -1.1241  0.2898  0.1202
 4073SOL    HW216064   1.251   1.629   3.951 -2.2661  1.1552  0.6189
 4073SOL    HW316065   1.173   1.685   3.834 -1.4818  2.7814  0.8454
 4073SOL    MW416066   1.248   1.677   3.878 -1.3220  0.7327  0.2817
 4074SOL     OW16067   5.069   5.387   0.295  0.5693 -0.3120 -0.0945
 4074SOL    HW216068   5.082   5.293   0.306  1.4093 -0.1199  0.6759
 4074SOL    HW316069   5.152   5.426   0.320  0.5203  0.5977 -1.2458
 4074SOL    MW416070   5.081   5.380   0.300  0.6737 -0.1667 -0.1447
 4075SOL     OW16071   0.935   4.210   0.966 -0.6108 -0.5821  1.0906
 4075SOL    HW216072   0.899   4.124   0.947 -0.1241 -0.3280 -1.3643
 4075SOL    HW316073   1.030   4.199   0.957 -0.4958  0.0479  1.4523
 4075SOL    MW416074   0.943   4.197   0.962 -0.5314 -0.4654  0.8144
 4076SOL     OW16075   4.817   0.722   2.458  0.0169  0.6337 -0.0186
 4076SOL    HW216076   4.902   0.680   2.447 -0.9149 -0.9770 -1.8409
 4076SOL    HW316077   4.758   0.651   2.483 -0.9794  1.5226  0.2432
 4076SOL    MW416078   4.820   0.707   2.460 -0.2375  0.5384 -0.2245
 4077SOL     OW16079   3.496   5.538   5.423  0.0982  0.1895 -0.4957
 4077SOL    HW216080   3.589   5.531   5.402  0.6924  0.6084  1.7284
 4077SOL    HW316081   3.493   5.593   5.501 -1.6735 -2.5271  1.5810
 4077SOL    MW416082   3.508   5.544   5.431 -0.0571 -0.1136  0.0717
 4078SOL     OW16083   3.579   4.807   6.403  0.3176 -0.1945 -0.2439
 4078SOL    HW216084   3.485   4.805   6.389 -0.2030  1.0269  2.6062
 4078SOL    HW316085   3.607   4.892   6.371  0.5366 -0.6290 -1.2636
 4078SOL    MW416086   3.570   4.818   6.397  0.2778 -0.0907 -0.0024
 4079SOL     OW16087   2.197   3.222   1.907  0.3435  0.0261  0.5410
 4079SOL    HW216088   2.290   3.215   1.885  0.8091  0.8505  2.0727
 4079SOL    HW316089   2.175   3.313   1.888  0.2529  0.2227  1.5376
 4079SOL    MW416090   2.207   3.233   1.902  0.3929  0.1608  0.8746
 4080SOL     OW16091   4.891   2.741   2.495  0.0506 -0.3219 -0.2332
 4080SOL    HW216092   4.815   2.753   2.438 -0.4846 -1.4119  0.2205
 4080SOL    HW316093   4.858   2.689   2.568  1.4408 -1.7047 -0.5282
 4080SOL    MW416094   4.877   2.736   2.497  0.1634 -0.6482 -0.2123
 4081SOL     OW16095   5.735   0.591   1.802 -0.4328  0.1066 -0.3709
 4081SOL    HW216096   5.708   0.553   1.719 -0.8345 -0.4122 -0.0066
 4081SOL    HW316097   5.670   0.659   1.820  1.1483  2.1715 -1.8110
 4081SOL    MW416098   5.723   0.595   1.793 -0.2772  0.3106 -0.5128
 4082SOL     OW16099   5.443   4.087   3.093 -0.2112 -0.3543  0.4951
 4082SOL    HW216100   5.463   4.003   3.133  1.8751 -0.8640 -1.3877
 4082SOL    HW316101   5.521   4.141   3.109 -0.6435  0.4777 -0.1105
 4082SOL    MW416102   5.456   4.083   3.100  0.0070 -0.3118  0.1668
 4083SOL     OW16103   0.394   5.457   1.332  0.5223  0.5816  0.6877
 4083SOL    HW216104   0.333   5.422   1.268  0.3205  0.6123  0.8625
 4083SOL    HW316105   0.459   5.504   1.280 -0.7541  2.3452  0.5958
 4083SOL    MW416106   0.394   5.459   1.317  0.3273  0.8183  0.6987
 4084SOL     OW16107   5.734   0.440   3.062  0.7869  0.0808  0.0765
 4084SOL    HW216108   5.731   0.529   3.096 -0.6001  0.2552 -0.4258
 4084SOL    HW316109   5.680   0.443   2.983  0.2807 -1.3167  0.3439
 4084SOL    MW416110   5.727   0.452   3.056  0.5371 -0.0806  0.0455
 4085SOL     OW16111   3.365   1.063   4.402  0.1397  0.0243  0.3380
 4085SOL    HW216112   3.333   1.014   4.326 -1.2585 -0.3479  1.1285
 4085SOL    HW316113   3.289   1.072   4.459  1.3239 -0.4187  2.0831
 4085SOL    MW416114   3.351   1.058   4.399  0.1115 -0.0832  0.6725
 4086SOL     OW16115   5.927   3.355   1.005  0.1037  0.2968  0.0771
 4086SOL    HW216116   5.920   3.444   0.969 -2.2152  0.8861  1.7539
 4086SOL    HW316117   6.010   3.354   1.052 -0.3022  1.9292  0.8827
 4086SOL    MW416118   5.937   3.367   1.006 -0.2558  0.5899  0.4046
 4087SOL     OW16119   5.322   5.880   2.872 -0.1519  0.1915  0.1044
 4087SOL    HW216120   5.292   5.949   2.931 -0.5830  1.4045 -1.4552
 4087SOL    HW316121   5.317   5.800   2.924 -0.0125  1.2678  1.8498
 4087SOL    MW416122   5.317   5.878   2.887 -0.1904  0.4936  0.1289
 4088SOL     OW16123   3.501   4.660   3.817  0.2885 -0.2752  0.6836
 4088SOL    HW216124   3.519   4.728   3.882  0.0101 -1.0681  1.6250
 4088SOL    HW316125   3.489   4.580   3.869 -0.3975 -0.8463 -0.3092
 4088SOL    MW416126   3.502   4.658   3.833  0.1613 -0.4552  0.6768
 4089SOL     OW16127   1.298   3.502   1.992  0.4196 -0.2969  0.5435
 4089SOL    HW216128   1.312   3.594   1.972  0.3029 -0.4423 -0.2314
 4089SOL    HW316129   1.385   3.469   2.017  0.7255 -0.2832 -0.4612
 4089SOL    MW416130   1.311   3.510   1.993  0.4446 -0.3143  0.3087
 4090SOL     OW16131   1.523   1.305   1.415 -0.0381 -0.0876 -0.2684
 4090SOL    HW216132   1.590   1.276   1.353 -0.5750  1.6109 -1.7493
 4090SOL    HW316133   1.484   1.224   1.448  3.1125 -1.1691  1.1737
 4090SOL    MW416134   1.527   1.290   1.411  0.3067 -0.0062 -0.2735
 4091SOL     OW16135   1.335   1.360   2.788  0.3505  0.2092  0.3570
 4091SOL    HW216136   1.375   1.286   2.742 -1.1686 -0.4224 -0.0112
 4091SOL    HW316137   1.337   1.333   2.880  1.3725  0.5023  0.4401
 4091SOL    MW416138   1.341   1.347   2.794  0.2849  0.1645  0.3194
 4092SOL     OW16139   5.127   4.430   4.506 -0.2494 -0.4894 -0.5283
 4092SOL    HW216140   5.196   4.363   4.498  0.1844 -0.3394  1.3934
 4092SOL    HW316141   5.050   4.381   4.536  0.0345 -0.1786  0.7566
 4092SOL    MW416142   5.126   4.414   4.509 -0.1547 -0.4286 -0.1052
 4093SOL     OW16143   4.568   3.892   3.619  0.5744 -0.0201 -0.4409
 4093SOL    HW216144   4.646   3.893   3.563 -0.8379  2.0310 -2.6029
 4093SOL    HW316145   4.568   3.978   3.662 -0.0320 -0.3371  0.2069
 4093SOL    MW416146   4.578   3.904   3.617  0.3081  0.2087 -0.6406
 4094SOL     OW16147   0.694   2.487   3.713 -0.4361  0.0919  0.2012
 4094SOL    HW216148   0.606   2.450   3.702 -1.5169  2.3489  0.6740
 4094SOL    HW316149   0.699   2.509   3.806  1.6577 -2.2844  0.7573
 4094SOL    MW416150   0.683   2.485   3.724 -0.3025  0.0762  0.3370
 4095SOL     OW16151   1.730   1.690   4.795  0.0495 -0.0117 -0.0681
 4095SOL    HW216152   1.743   1.691   4.890 -2.0775 -0.1203  0.2806
 4095SOL    HW316153   1.637   1.711   4.784 -0.0981 -1.4807 -2.0581
 4095SOL    MW416154   1.720   1.693   4.806 -0.2506 -0.2199 -0.2847
 4096SOL     OW16155   2.990   2.701   1.652 -0.2043  0.0794  0.4685
 4096SOL    HW216156   3.017   2.609   1.659 -0.7839 -0.5420 -3.1639
 4096SOL    HW316157   2.897   2.700   1.678 -0.0597 -0.2284  0.9985
 4096SOL    MW416158   2.981   2.689   1.656 -0.2617 -0.0432  0.0592
 4097SOL     OW16159   5.387   6.058   0.273 -0.6537 -0.3008  0.0493
 4097SOL    HW216160   5.423   6.022   0.355 -0.7863 -0.5114  0.0156
 4097SOL    HW316161   5.297   6.026   0.271 -0.5282 -0.6324 -0.3809
 4097SOL    MW416162   5.380   6.049   0.284 -0.6546 -0.3724 -0.0119
 4098SOL     OW16163   6.388   1.263   2.878  0.0600  0.1810  0.5148
 4098SOL    HW216164   6.303   1.223   2.896  0.0432  0.6841  1.6065
 4098SOL    HW316165   6.372   1.316   2.800 -0.3678 -0.5039  0.1232
 4098SOL    MW416166   6.375   1.265   2.870  0.0013  0.1570  0.6072
 4099SOL     OW16167   0.167   5.769   3.519 -0.4867  0.2349 -0.2154
 4099SOL    HW216168   0.176   5.820   3.600 -1.3367  0.9260 -0.5375
 4099SOL    HW316169   0.254   5.732   3.505  0.5274  2.5353 -0.5797
 4099SOL    MW416170   0.179   5.771   3.528 -0.4650  0.6296 -0.3060
 4100SOL     OW16171   3.735   3.365   6.047  0.5768  0.0747 -0.0783
 4100SOL    HW216172   3.798   3.304   6.085  0.7057  0.9193  1.1348
 4100SOL    HW316173   3.771   3.452   6.065  0.6407  0.5306 -2.2070
 4100SOL    MW416174   3.748   3.368   6.055  0.6022  0.2463 -0.1991
 4101SOL     OW16175   1.150   5.210   0.897 -0.1619  0.2354 -0.1595
 4101SOL    HW216176   1.160   5.117   0.877  0.8067  0.5678 -1.2804
 4101SOL    HW316177   1.205   5.225   0.974 -0.2894 -0.0911 -0.0017
 4101SOL    MW416178   1.158   5.200   0.905 -0.0510  0.2362 -0.2866
 4102SOL     OW16179   6.094   6.237   2.613  0.3107 -0.3460  0.2760
 4102SOL    HW216180   6.157   6.305   2.589  0.7750 -0.9343 -0.2017
 4102SOL    HW316181   6.114   6.164   2.555 -1.3147 -0.2757 -0.4384
 4102SOL    MW416182   6.105   6.236   2.602  0.1575 -0.4143  0.1187
 4103SOL     OW16183   5.072   1.659   5.797  0.2514 -0.0851  0.9520
 4103SOL    HW216184   5.001   1.616   5.750  0.3426  0.4529  0.2970
 4103SOL    HW316185   5.095   1.733   5.741  1.7128 -0.5765  0.8719
 4103SOL    MW416186   5.066   1.663   5.783  0.4563 -0.0789  0.8550
 4104SOL     OW16187   6.317   5.047   3.898 -0.8890  0.6193 -0.3356
 4104SOL    HW216188   6.369   5.106   3.952  0.5394 -0.2404 -0.6997
 4104SOL    HW316189   6.246   5.101   3.864 -1.4236  1.3513  1.8017
 4104SOL    MW416190   6.315   5.062   3.901 -0.7711  0.6024 -0.1017
 4105SOL     OW16191   3.063   4.474   4.395 -0.0211 -0.8223 -0.1304
 4105SOL    HW216192   3.154   4.505   4.392  0.8729 -3.1776 -3.7089
 4105SOL    HW316193   3.063   4.407   4.464  0.8956 -0.5903  0.1073
 4105SOL    MW416194   3.075   4.469   4.404  0.2178 -1.1024 -0.5712
 4106SOL     OW16195   4.904   3.175   2.955  0.0575  0.6469 -0.0561
 4106SOL    HW216196   4.898   3.243   3.022  1.9024 -0.0336  0.8826
 4106SOL    HW316197   4.961   3.213   2.888  1.7876 -0.2219  0.8704
 4106SOL    MW416198   4.911   3.189   2.955  0.5292  0.4425  0.1900
 4107SOL     OW16199   5.867   1.101   0.781 -0.4654  0.0296  0.6152
 4107SOL    HW216200   5.922   1.090   0.703 -0.4771  0.7704  0.5013
 4107SOL    HW316201   5.826   1.186   0.769 -2.3270 -0.8667  0.2691
 4107SOL    MW416202   5.869   1.111   0.769 -0.7126  0.0091  0.5545
 4108SOL     OW16203   5.197   4.204   2.382 -0.6261 -0.0758 -0.6203
 4108SOL    HW216204   5.233   4.121   2.351 -2.3879 -0.4991 -1.7335
 4108SOL    HW316205   5.213   4.265   2.310 -2.4496 -0.4025 -1.3724
 4108SOL    MW416206   5.204   4.201   2.368 -1.0991 -0.1748 -0.8664
 4109SOL     OW16207   1.919   4.617   5.495 -0.4814  0.6214  0.1853
 4109SOL    HW216208   1.921   4.522   5.485  0.8711  0.7914 -1.7555
 4109SOL    HW316209   2.012   4.643   5.493 -0.8645  2.0617 -0.6217
 4109SOL    MW416210   1.932   4.608   5.493 -0.3535  0.8339 -0.1772
 4110SOL     OW16211   3.016   3.846   5.778 -0.2121 -0.5855  0.6961
 4110SOL    HW216212   3.102   3.888   5.773  0.6544 -2.1534  1.5391
 4110SOL    HW316213   3.018   3.800   5.862 -1.2172 -2.0567 -0.0615
 4110SOL    MW416214   3.027   3.846   5.789 -0.2304 -0.9865  0.7074
 4111SOL     OW16215   3.133   1.995   4.605  0.4006  0.3204  0.1774
 4111SOL    HW216216   3.116   2.086   4.584  1.4826  0.0249 -2.2785
 4111SOL    HW316217   3.068   1.946   4.554 -0.3589 -0.3113  1.6875
 4111SOL    MW416218   3.122   2.000   4.595  0.4431  0.1980  0.0526
 4112SOL     OW16219   4.950   2.235   0.538 -0.1103 -0.6815  0.3777
 4112SOL    HW216220   5.032   2.256   0.583  0.3846 -0.4242 -0.6177
 4112SOL    HW316221   4.977   2.190   0.458 -0.8262  0.9508 -0.8358
 4112SOL    MW416222   4.965   2.232   0.533 -0.1394 -0.4322  0.0863
 4113SOL     OW16223   2.604   2.043   3.009  0.0722 -0.1627  0.1281
 4113SOL    HW216224   2.665   2.032   2.936 -0.7794 -0.6635 -0.5227
 4113SOL    HW316225   2.518   2.052   2.968 -0.4400 -0.5579  1.0713
 4113SOL    MW416226   2.601   2.043   2.994 -0.1078 -0.2809  0.1667
 4114SOL     OW16227   0.694   3.727   0.290  0.1338 -0.4364 -0.4172
 4114SOL    HW216228   0.707   3.650   0.234 -0.9657  0.6306 -2.2063
 4114SOL    HW316229   0.729   3.800   0.239  2.0810  0.1981  1.6663
 4114SOL    MW416230   0.700   3.726   0.276  0.2456 -0.2119 -0.3783
 4115SOL     OW16231   3.350   5.801   0.162 -0.9224  0.1249  0.6119
 4115SOL    HW216232   3.278   5.738   0.169 -0.5730 -0.1412  1.9737
 4115SOL    HW316233   3.390   5.802   0.249 -0.1607  1.3286  0.2696
 4115SOL    MW416234   3.346   5.792   0.174 -0.7758  0.2486  0.7464
 4116SOL     OW16235   2.557   4.691   0.388  0.1538  0.1474  0.3738
 4116SOL    HW216236   2.553   4.675   0.294  0.5074  0.6107  0.2736
 4116SOL    HW316237   2.596   4.611   0.424 -1.3846 -0.6691  0.3230
 4116SOL    MW416238   2.562   4.678   0.380 -0.0025  0.1008  0.3539
 4117SOL     OW16239   5.583   1.875   0.561 -0.3826 -0.1270  0.0102
 4117SOL    HW216240   5.561   1.934   0.634  0.4465  1.0712 -0.6727
 4117SOL    HW316241   5.673   1.847   0.580  0.0200  0.5872 -0.7828
 4117SOL    MW416242   5.592   1.879   0.573 -0.2201  0.1253 -0.1845
 4118SOL     OW16243   5.397   0.015   0.524  0.3306 -0.1209 -0.0346
 4118SOL    HW216244   5.321  -0.044   0.522 -1.1575  1.7171 -0.9590
 4118SOL    HW316245   5.423   0.018   0.616 -1.1890 -0.2601  0.4230
 4118SOL    MW416246   5.390   0.008   0.536 -0.0663  0.1032 -0.0962
 4119SOL     OW16247   4.367   4.394   3.797  0.5087  0.6049 -0.1820
 4119SOL    HW216248   4.304   4.377   3.726  1.6019 -1.2876 -0.7948
 4119SOL    HW316249   4.319   4.373   3.877  1.2952 -5.2915 -0.7689
 4119SOL    MW416250   4.352   4.389   3.798  0.7567 -0.4227 -0.3403
 4120SOL     OW16251   1.206   3.418   0.205  0.5449  0.0796  0.2428
 4120SOL    HW216252   1.228   3.388   0.117  1.5554  1.2551  0.0715
 4120SOL    HW316253   1.209   3.339   0.259 -0.4300 -0.7124 -0.8159
 4120SOL    MW416254   1.209   3.403   0.201  0.5496  0.1302  0.0805
 4121SOL     OW16255   0.959   0.191   3.004 -0.4249  0.4418  0.5972
 4121SOL    HW216256   0.880   0.137   3.013 -1.7834  1.7034 -2.3404
 4121SOL    HW316257   0.929   0.280   3.023  0.1100  1.0004 -0.9842
 4121SOL    MW416258   0.944   0.196   3.008 -0.5336  0.6820  0.0010
 4122SOL     OW16259   0.433   4.040   4.457  0.1936 -0.1645  0.3230
 4122SOL    HW216260   0.377   4.027   4.533  1.0839  0.2702  1.0784
 4122SOL    HW316261   0.502   3.974   4.466 -0.0494 -0.5412 -0.4664
 4122SOL    MW416262   0.435   4.029   4.468  0.2790 -0.1569  0.3185
 4123SOL     OW16263   5.228   2.058   0.768 -0.3833  0.0381  0.2395
 4123SOL    HW216264   5.225   2.063   0.864  0.0845 -0.4974  0.2871
 4123SOL    HW316265   5.182   1.977   0.747 -0.6540  0.2521 -0.0058
 4123SOL    MW416266   5.221   2.048   0.778 -0.3573 -0.0043  0.2135
 4124SOL     OW16267   4.236   2.797   5.171 -0.2138  0.5877  0.0170
 4124SOL    HW216268   4.151   2.820   5.208 -0.5708 -1.9333  0.9303
 4124SOL    HW316269   4.215   2.751   5.090  0.0391 -2.3860  1.5159
 4124SOL    MW416270   4.222   2.794   5.165 -0.2276 -0.1373  0.3353
 4125SOL     OW16271   0.260   1.208   5.899 -0.1051  0.2157  0.4340
 4125SOL    HW216272   0.254   1.299   5.925 -3.0671 -0.1253  1.3237
 4125SOL    HW316273   0.216   1.160   5.970  0.1366 -1.7583 -0.6759
 4125SOL    MW416274   0.253   1.213   5.912 -0.4640 -0.0897  0.4050
 4126SOL     OW16275   1.571   3.697   1.048  0.6870  0.3773  0.0082
 4126SOL    HW216276   1.666   3.709   1.059  1.0377 -0.4910 -1.6830
 4126SOL    HW316277   1.564   3.626   0.984 -1.1396 -0.7938  1.4298
 4126SOL    MW416278   1.583   3.689   1.041  0.4923  0.1082 -0.0274
 4127SOL     OW16279   3.721   1.868   4.209 -0.2841 -0.4361  0.5446
 4127SOL    HW216280   3.731   1.962   4.201  0.9229 -0.4345  1.7943
 4127SOL    HW316281   3.806   1.832   4.180 -1.8232 -1.4026 -3.3656
 4127SOL    MW416282   3.734   1.875   4.204 -0.3279 -0.5634  0.1936
 4128SOL     OW16283   5.036   5.142   2.219 -0.5384 -0.1593 -0.3790
 4128SOL    HW216284   4.964   5.176   2.271 -0.1069  0.4652 -0.1851
 4128SOL    HW316285   5.115   5.166   2.267 -0.1777 -0.5104 -0.7774
 4128SOL    MW416286   5.037   5.149   2.232 -0.4339 -0.1233 -0.4060
 4129SOL     OW16287   5.210   5.854   2.420 -0.1467  0.2099 -0.2803
 4129SOL    HW216288   5.262   5.933   2.404 -0.0055 -0.2036 -2.0351
 4129SOL    HW316289   5.184   5.861   2.512 -0.3975  2.4621 -0.4571
 4129SOL    MW416290   5.213   5.866   2.430 -0.1611  0.4525 -0.5352
 4130SOL     OW16291   6.089   6.295   5.766  0.5103 -0.2379  0.1622
 4130SOL    HW216292   6.107   6.208   5.731  0.3910 -0.9012  1.6749
 4130SOL    HW316293   6.003   6.288   5.806  0.5103  0.5783  0.3332
 4130SOL    MW416294   6.080   6.283   5.767  0.4946 -0.2178  0.3843
 4131SOL     OW16295   5.483   1.640   1.773 -0.0460 -0.3532  0.2177
 4131SOL    HW216296   5.444   1.589   1.844  0.5126  1.0585  1.6102
 4131SOL    HW316297   5.424   1.627   1.699 -1.9171 -0.0904  1.5796
 4131SOL    MW416298   5.470   1.631   1.773 -0.2191 -0.1323  0.5811
 4132SOL     OW16299   4.278   3.862   3.682 -0.0002 -0.1947  0.9740
 4132SOL    HW216300   4.366   3.899   3.686 -0.1621  0.2590  0.5170
 4132SOL    HW316301   4.225   3.920   3.738 -0.6041  1.3399 -1.0418
 4132SOL    MW416302   4.282   3.875   3.690 -0.1012  0.0676  0.6478
 4133SOL     OW16303   5.980   2.519   3.130 -1.1013 -0.0804  0.1257
 4133SOL    HW216304   6.028   2.488   3.053  0.7221 -0.0384  1.1775
 4133SOL    HW316305   5.914   2.451   3.147 -0.3957 -0.9350 -0.4771
 4133SOL    MW416306   5.978   2.506   3.122 -0.7677 -0.1876  0.1850
 4134SOL     OW16307   3.336   3.154   2.152  0.0499  0.0826 -0.3955
 4134SOL    HW216308   3.270   3.100   2.194 -0.0646  1.3547  1.1198
 4134SOL    HW316309   3.420   3.115   2.178 -0.0129  0.9567  1.2349
 4134SOL    MW416310   3.339   3.142   2.161  0.0265  0.3657  0.0195
 4135SOL     OW16311   2.651   4.764   2.715  0.4278  0.1639  0.0229
 4135SOL    HW216312   2.665   4.849   2.756  0.3057  0.7447 -1.0953
 4135SOL    HW316313   2.734   4.718   2.727  1.1243  1.1201 -0.8888
 4135SOL    MW416314   2.664   4.769   2.722  0.5036  0.3667 -0.2449
 4136SOL     OW16315   1.179   0.803   6.064  0.2951  0.3491 -0.3586
 4136SOL    HW216316   1.086   0.788   6.047  0.1823  1.5261 -0.9282
 4136SOL    HW316317   1.189   0.785   6.158 -0.3488 -0.5020 -0.4441
 4136SOL    MW416318   1.168   0.799   6.074  0.1952  0.3921 -0.4450
 4137SOL     OW16319   0.137   4.355   2.334  0.0298  0.0026  0.4213
 4137SOL    HW216320   0.177   4.338   2.419  0.7558 -2.5689 -0.3478
 4137SOL    HW316321   0.043   4.350   2.351  0.1641 -0.3968  1.1051
 4137SOL    MW416322   0.130   4.352   2.348  0.1433 -0.3893  0.4100
 4138SOL     OW16323   2.842   1.418   1.123 -0.0396  0.1266  0.4179
 4138SOL    HW216324   2.810   1.430   1.034 -0.4193 -2.5286  0.1197
 4138SOL    HW316325   2.765   1.395   1.174  0.4145  0.0890  1.1115
 4138SOL    MW416326   2.828   1.417   1.118 -0.0298 -0.2287  0.4701
 4139SOL     OW16327   2.452   1.830   1.374 -0.0984 -0.1914 -0.0884
 4139SOL    HW216328   2.380   1.815   1.436 -0.5473  0.4902 -0.4297
 4139SOL    HW316329   2.521   1.770   1.402 -0.4336 -0.1566  0.8495
 4139SOL    MW416330   2.452   1.820   1.386 -0.2018 -0.0969 -0.0097
 4140SOL     OW16331   4.737   2.432   4.593  0.1626 -0.4422  0.5995
 4140SOL    HW216332   4.735   2.342   4.561  0.7282 -0.3458  0.2875
 4140SOL    HW316333   4.774   2.483   4.521 -0.7871  0.1527  0.5114
 4140SOL    MW416334   4.741   2.427   4.580  0.1119 -0.3510  0.5467
 4141SOL     OW16335   1.325   0.389   4.551  0.0493 -0.1240 -0.0764
 4141SOL    HW216336   1.415   0.379   4.585  0.1397  1.4367  0.2243
 4141SOL    HW316337   1.283   0.448   4.613 -1.1858 -0.7825 -0.2600
 4141SOL    MW416338   1.332   0.395   4.564 -0.1017 -0.0050 -0.0609
 4142SOL     OW16339   0.436   4.050   5.884  0.6238 -0.0014  0.5228
 4142SOL    HW216340   0.380   4.093   5.820  0.6034 -1.0320 -0.1879
 4142SOL    HW316341   0.516   4.103   5.885  0.5910  0.0901 -0.2985
 4142SOL    MW416342   0.440   4.062   5.875  0.6168 -0.1253  0.3207
 4143SOL     OW16343   3.963   3.451   0.532 -0.3382 -0.7226 -0.3499
 4143SOL    HW216344   3.944   3.544   0.544 -1.0952 -0.7195 -1.3250
 4143SOL    HW316345   4.024   3.428   0.601  0.1077  0.5838 -0.2998
 4143SOL    MW416346   3.968   3.460   0.542 -0.3793 -0.5498 -0.4719
 4144SOL     OW16347   2.305   6.089   0.363  0.0893  0.2573  0.1140
 4144SOL    HW216348   2.370   6.020   0.370  0.1317  0.3561  0.8569
 4144SOL    HW316349   2.224   6.044   0.340  0.2757  0.0555 -0.1555
 4144SOL    MW416350   2.303   6.074   0.361  0.1195  0.2437  0.1764
 4145SOL     OW16351   4.358   5.430   2.611 -0.1498 -0.1696 -0.3699
 4145SOL    HW216352   4.402   5.490   2.672 -0.0356  0.3728 -0.9817
 4145SOL    HW316353   4.350   5.480   2.530 -0.3226 -0.8851 -0.7966
 4145SOL    MW416354   4.363   5.445   2.609 -0.1575 -0.1924 -0.5069
 4146SOL     OW16355   3.496   4.588   0.563 -0.3004 -0.3219 -0.2874
 4146SOL    HW216356   3.571   4.646   0.573  0.5455 -1.0811 -1.8037
 4146SOL    HW316357   3.462   4.608   0.476  0.5712 -2.6426 -1.2500
 4146SOL    MW416358   3.502   4.598   0.553 -0.0738 -0.7283 -0.6145
 4147SOL     OW16359   3.615   5.156   5.303 -0.1574  0.0401  0.0793
 4147SOL    HW216360   3.608   5.074   5.351  1.7599  0.3831  1.0762
 4147SOL    HW316361   3.528   5.171   5.267 -0.4925 -2.5405 -0.3708
 4147SOL    MW416362   3.603   5.147   5.305  0.0513 -0.2551  0.1514
 4148SOL     OW16363   2.265   0.828   5.499 -0.2596  0.3263  0.0917
 4148SOL    HW216364   2.272   0.875   5.416  2.3034  0.7126  0.4457
 4148SOL    HW316365   2.268   0.896   5.566  2.9675 -0.1771  0.5956
 4148SOL    MW416366   2.266   0.843   5.497  0.5043  0.3109  0.2049
 4149SOL     OW16367   2.874   0.998   6.230 -0.4636 -0.1777  0.5951
 4149SOL    HW216368   2.837   1.075   6.188 -1.6469 -0.3156  1.3372
 4149SOL    HW316369   2.874   1.020   6.324  0.9332 -0.3666  0.6586
 4149SOL    MW416370   2.869   1.011   6.237 -0.4354 -0.2208  0.7014
 4150SOL     OW16371   4.055   1.599   1.168  0.2411 -0.1799 -0.6473
 4150SOL    HW216372   4.051   1.597   1.072  1.6085  0.3601 -0.7391
 4150SOL    HW316373   3.964   1.594   1.196 -0.3701  1.7274 -2.0477
 4150SOL    MW416374   4.042   1.598   1.159  0.3409  0.1430 -0.8442
 4151SOL     OW16375   5.024   1.846   4.344  0.1820  0.3361  0.1591
 4151SOL    HW216376   5.116   1.832   4.368 -0.0901  1.1911  1.7609
 4151SOL    HW316377   5.028   1.910   4.273  0.9826 -2.1564 -2.2658
 4151SOL    MW416378   5.037   1.852   4.337  0.2517  0.1201  0.0505
 4152SOL     OW16379   3.651   1.601   1.030  0.0368  0.1669  0.4338
 4152SOL    HW216380   3.598   1.522   1.042  0.4863 -0.2135 -0.0279
 4152SOL    HW316381   3.628   1.657   1.104  1.0964 -1.1810  1.8273
 4152SOL    MW416382   3.641   1.598   1.041  0.2359 -0.0611  0.5568
 4153SOL     OW16383   1.491   1.937   1.982  0.3216 -0.3348  0.1062
 4153SOL    HW216384   1.541   1.855   1.992 -2.1826 -2.0253 -0.2930
 4153SOL    HW316385   1.502   1.960   1.889  1.3347  0.0271  0.3011
 4153SOL    MW416386   1.499   1.929   1.971  0.1249 -0.5101  0.0793
 4154SOL     OW16387   2.504   4.124   3.334 -0.3668 -0.1936  0.3238
 4154SOL    HW216388   2.482   4.144   3.243 -0.3229  1.4128  0.6449
 4154SOL    HW316389   2.592   4.160   3.347  0.0208 -1.2325  0.7630
 4154SOL    MW416390   2.513   4.131   3.324 -0.3099 -0.1188  0.4241
 4155SOL     OW16391   5.384   1.499   1.980  0.2971  0.5358  0.3349
 4155SOL    HW216392   5.458   1.500   2.041 -0.8050 -0.5969  1.7500
 4155SOL    HW316393   5.311   1.535   2.030 -0.4688  0.2727 -0.5611
 4155SOL    MW416394   5.384   1.504   1.995  0.0506  0.3517  0.4034
 4156SOL     OW16395   2.534   0.920   5.290 -0.4086  0.0759 -0.2532
 4156SOL    HW216396   2.439   0.913   5.283 -0.6932  1.0425  1.9924
 4156SOL    HW316397   2.561   0.843   5.341 -0.1070  0.3458 -0.0011
 4156SOL    MW416398   2.525   0.909   5.296 -0.4064  0.2390  0.0764
 4157SOL     OW16399   1.346   3.664   3.222 -0.1332 -0.2315 -0.0370
 4157SOL    HW216400   1.317   3.707   3.141 -1.3170  0.6641  0.8191
 4157SOL    HW316401   1.367   3.575   3.195 -2.1410 -0.4667 -1.0667
 4157SOL    MW416402   1.345   3.658   3.207 -0.5543 -0.1444 -0.0599
 4158SOL     OW16403   0.295   3.519   0.211 -0.5422  0.4741 -0.1346
 4158SOL    HW216404   0.361   3.586   0.230  3.7637 -2.2758 -3.4814
 4158SOL    HW316405   0.313   3.450   0.275 -0.3355 -0.1812 -0.8901
 4158SOL    MW416406   0.306   3.519   0.222  0.0532  0.0248 -0.6759
 4159SOL     OW16407   4.421   5.368   5.794  0.2262  0.5282  0.7430
 4159SOL    HW216408   4.360   5.380   5.867 -0.7592  0.3213 -0.0266
 4159SOL    HW316409   4.421   5.274   5.778 -1.0325  0.7352 -0.7181
 4159SOL    MW416410   4.413   5.358   5.802 -0.0699  0.5282  0.4487
 4160SOL     OW16411   2.541   5.869   2.897 -0.0197  0.4256  0.0093
 4160SOL    HW216412   2.481   5.805   2.860  0.6049 -0.4298  0.4485
 4160SOL    HW316413   2.488   5.949   2.905 -0.7632  0.0201 -0.6805
 4160SOL    MW416414   2.526   5.871   2.893 -0.0354  0.2592 -0.0237
 4161SOL     OW16415   1.335   2.238   2.970  0.0481 -0.2060 -0.1564
 4161SOL    HW216416   1.279   2.209   3.042 -0.3052  0.2709 -0.2374
 4161SOL    HW316417   1.386   2.310   3.006 -0.8407  0.6928 -0.6615
 4161SOL    MW416418   1.335   2.244   2.984 -0.1158 -0.0245 -0.2338
 4162SOL     OW16419   1.236   1.887   2.832 -0.5693 -0.4838 -0.6202
 4162SOL    HW216420   1.142   1.887   2.814 -0.7431 -1.0681  0.2356
 4162SOL    HW316421   1.244   1.928   2.918 -0.0310 -0.3991 -0.7094
 4162SOL    MW416422   1.224   1.892   2.841 -0.5212 -0.5497 -0.5191
 4163SOL     OW16423   2.701   3.409   3.680 -0.7224  0.1600 -0.0294
 4163SOL    HW216424   2.715   3.503   3.679 -1.9738  0.3662 -0.7445
 4163SOL    HW316425   2.718   3.381   3.590  1.0245 -0.5595  0.4690
 4163SOL    MW416426   2.705   3.418   3.668 -0.6570  0.0923 -0.0580
 4164SOL     OW16427   0.693   0.102   2.516 -0.0483 -0.4477  0.9108
 4164SOL    HW216428   0.717   0.168   2.581 -0.1870 -1.2106  1.7533
 4164SOL    HW316429   0.752   0.028   2.534 -0.1693 -0.7092  0.2465
 4164SOL    MW416430   0.704   0.101   2.527 -0.0826 -0.5829  0.9343
 4165SOL     OW16431   6.156   4.716   0.946 -0.4504  0.7346  0.3758
 4165SOL    HW216432   6.218   4.768   0.998 -0.1483  1.3006 -0.5261
 4165SOL    HW316433   6.121   4.777   0.881  0.1047 -0.2222 -0.8792
 4165SOL    MW416434   6.160   4.731   0.944 -0.3373  0.6830  0.0912
 4166SOL     OW16435   4.705   0.592   2.139 -0.2142  0.1323 -0.1182
 4166SOL    HW216436   4.618   0.603   2.101 -0.5630  0.9790  0.8643
 4166SOL    HW316437   4.688   0.585   2.234  0.7025 -0.8114 -0.0009
 4166SOL    MW416438   4.691   0.592   2.147 -0.1393  0.1195  0.0269
 4167SOL     OW16439   3.924   4.704   4.610 -0.0046  0.3570 -0.1503
 4167SOL    HW216440   3.989   4.661   4.555  0.1319 -1.6325  1.4570
 4167SOL    HW316441   3.840   4.676   4.575  0.0813 -0.7110  0.4505
 4167SOL    MW416442   3.922   4.695   4.598  0.0247 -0.0464  0.1410
 4168SOL     OW16443   3.557   4.239   1.465 -0.4669 -0.3865 -0.2571
 4168SOL    HW216444   3.616   4.293   1.518 -0.8948  0.9029 -1.0786
 4168SOL    HW316445   3.485   4.297   1.442 -1.0184 -1.3561 -1.0305
 4168SOL    MW416446   3.555   4.253   1.469 -0.5961 -0.3443 -0.4676
 4169SOL     OW16447   1.860   5.242   1.814  0.1641 -0.1092  0.0809
 4169SOL    HW216448   1.774   5.280   1.834 -0.5436 -2.1295  1.1983
 4169SOL    HW316449   1.899   5.226   1.900  0.6421 -1.3525 -0.3377
 4169SOL    MW416450   1.854   5.245   1.828  0.1338 -0.5398  0.1731
 4170SOL     OW16451   1.046   6.065   4.232  0.2221  0.1038  0.1644
 4170SOL    HW216452   0.972   6.096   4.284  0.3178 -0.1500  0.4518
 4170SOL    HW316453   1.080   5.990   4.280  0.0199 -0.4287 -0.5013
 4170SOL    MW416454   1.040   6.059   4.245  0.2080  0.0000  0.1145
 4171SOL     OW16455   5.584   5.020   5.508  0.2512  0.3235  0.2291
 4171SOL    HW216456   5.591   4.998   5.601 -0.2122  1.5708  0.5852
 4171SOL    HW316457   5.632   5.102   5.500  1.1471 -0.2805 -0.8508
 4171SOL    MW416458   5.591   5.028   5.519  0.3083  0.4084  0.1336
 4172SOL     OW16459   1.404   3.674   4.067  0.3034  0.1319 -0.1831
 4172SOL    HW216460   1.320   3.636   4.091  0.9092 -0.3615  1.2325
 4172SOL    HW316461   1.428   3.630   3.985 -0.1192 -0.8176  0.1909
 4172SOL    MW416462   1.396   3.663   4.059  0.3276 -0.0585  0.0530
 4173SOL     OW16463   5.328   1.926   0.437 -0.6287  0.5883  0.8309
 4173SOL    HW216464   5.411   1.879   0.445  0.0434  1.4530 -0.6002
 4173SOL    HW316465   5.304   1.916   0.345 -3.1859 -1.3365  1.6106
 4173SOL    MW416466   5.336   1.919   0.426 -0.8774  0.4485  0.7450
 4174SOL     OW16467   1.514   1.484   2.251  0.4433 -0.1425 -0.2569
 4174SOL    HW216468   1.591   1.496   2.306 -0.0445  0.2212  0.3674
 4174SOL    HW316469   1.501   1.389   2.248  0.3499 -0.1591  0.4457
 4174SOL    MW416470   1.522   1.473   2.258  0.3666 -0.0967 -0.0818
 4175SOL     OW16471   3.103   3.726   0.711 -0.2834  0.3242  0.2147
 4175SOL    HW216472   3.089   3.734   0.617  0.8726 -0.1913 -0.0212
 4175SOL    HW316473   3.197   3.735   0.722  0.0124 -2.5854  0.9554
 4175SOL    MW416474   3.113   3.728   0.700 -0.0918 -0.1277  0.2813
 4176SOL     OW16475   1.193   3.292   2.144  0.4646 -0.4595  0.4887
 4176SOL    HW216476   1.137   3.236   2.090 -0.3510  0.4672  0.3620
 4176SOL    HW316477   1.226   3.358   2.084 -2.0341  1.7939  1.4174
 4176SOL    MW416478   1.190   3.293   2.129  0.0273 -0.0400  0.5945
 4177SOL     OW16479   2.627   0.904   6.304 -0.2002  0.0773 -0.4251
 4177SOL    HW216480   2.714   0.928   6.270 -0.6169 -0.6816 -2.1627
 4177SOL    HW316481   2.584   0.988   6.321  0.5488  0.4748 -0.4645
 4177SOL    MW416482   2.633   0.919   6.302 -0.1563  0.0296 -0.6595
 4178SOL     OW16483   2.322   4.722   3.054  0.3031  0.3052 -0.3946
 4178SOL    HW216484   2.290   4.659   3.119 -0.0432 -1.0234 -1.7935
 4178SOL    HW316485   2.408   4.688   3.029 -0.1935 -0.0330 -1.6816
 4178SOL    MW416486   2.329   4.709   3.060  0.1919  0.0853 -0.7489
 4179SOL     OW16487   6.103   3.782   2.896 -0.3475  0.0112 -0.5147
 4179SOL    HW216488   6.088   3.876   2.886  0.3479 -0.0519 -2.9101
 4179SOL    HW316489   6.181   3.775   2.950  0.3955  0.8843 -1.4358
 4179SOL    MW416490   6.111   3.794   2.902 -0.1577  0.1181 -0.9523
 4180SOL     OW16491   5.449   0.186   0.317  0.2839 -0.3425 -0.1013
 4180SOL    HW216492   5.402   0.147   0.390  0.4681 -1.0336 -0.3394
 4180SOL    HW316493   5.541   0.184   0.344  0.1838  1.1645  0.4377
 4180SOL    MW416494   5.455   0.181   0.330  0.2950 -0.2349 -0.0616
 4181SOL     OW16495   4.239   0.094   3.920  0.3786 -0.2884 -0.1118
 4181SOL    HW216496   4.226   0.045   3.840 -0.3701  1.1342 -0.9113
 4181SOL    HW316497   4.189   0.047   3.986 -1.7601  0.2729 -1.2332
 4181SOL    MW416498   4.230   0.082   3.918 -0.0024 -0.0267 -0.3652
 4182SOL     OW16499   5.620   3.851   3.893 -0.0287 -0.0851 -0.7520
 4182SOL    HW216500   5.655   3.912   3.827 -1.4159  1.6283  0.0175
 4182SOL    HW316501   5.655   3.766   3.867  2.1883  1.0399 -1.7515
 4182SOL    MW416502   5.629   3.848   3.881  0.0808  0.2894 -0.7823
 4183SOL     OW16503   5.248   3.138   1.094 -0.8430  0.4919  0.4711
 4183SOL    HW216504   5.249   3.042   1.097 -2.1053  0.4518  0.2245
 4183SOL    HW316505   5.334   3.161   1.058 -0.4918 -0.5343  0.5986
 4183SOL    MW416506   5.260   3.128   1.089 -0.9632  0.3512  0.4554
 4184SOL     OW16507   3.513   1.659   2.224 -0.1329  0.4362  0.2937
 4184SOL    HW216508   3.475   1.723   2.284  0.7697  1.8769 -0.6084
 4184SOL    HW316509   3.477   1.683   2.138  0.7179  0.1418 -0.1520
 4184SOL    MW416510   3.503   1.670   2.221  0.0985  0.5874  0.1159
 4185SOL     OW16511   0.599   0.125   1.216 -0.3623  0.9102 -0.2137
 4185SOL    HW216512   0.618   0.212   1.183  1.8925  0.5423 -0.0514
 4185SOL    HW316513   0.685   0.084   1.227 -1.3218 -1.0816  0.3953
 4185SOL    MW416514   0.613   0.131   1.213 -0.1914  0.5989 -0.1119
 4186SOL     OW16515   5.741   1.780   0.907  0.0199 -0.2078 -0.5573
 4186SOL    HW216516   5.721   1.710   0.969 -0.7943 -0.1484 -0.7344
 4186SOL    HW316517   5.720   1.861   0.955  0.8410 -0.0794 -0.3943
 4186SOL    MW416518   5.735   1.782   0.922  0.0208 -0.1830 -0.5592
 4187SOL     OW16519   3.612   5.119   0.802  0.2284  0.1695 -0.4297
 4187SOL    HW216520   3.564   5.193   0.840  0.2825  0.0684 -0.1649
 4187SOL    HW316521   3.631   5.062   0.876 -0.0842 -0.2637 -0.6795
 4187SOL    MW416522   3.608   5.121   0.816  0.1943  0.0990 -0.4277
 4188SOL     OW16523   5.785   2.533   3.434  0.3255  0.4741  0.2720
 4188SOL    HW216524   5.774   2.441   3.410  0.5832  0.5920 -0.3404
 4188SOL    HW316525   5.841   2.531   3.511  2.1593  0.1773 -0.9899
 4188SOL    MW416526   5.791   2.521   3.441  0.6014  0.4505  0.0247
 4189SOL     OW16527   1.046   4.060   1.229  0.2719 -0.2460  0.5390
 4189SOL    HW216528   1.003   4.079   1.312  0.6072  0.1326  0.6280
 4189SOL    HW316529   0.991   4.105   1.164  1.1202  1.1734  0.7580
 4189SOL    MW416530   1.033   4.069   1.231  0.4281 -0.0088  0.5797
 4190SOL     OW16531   1.080   6.292   4.038 -0.2563  0.0187 -0.2638
 4190SOL    HW216532   1.051   6.206   4.067  0.8425 -0.3488 -0.1857
 4190SOL    HW316533   1.161   6.308   4.087 -0.4044  1.0613 -0.3370
 4190SOL    MW416534   1.087   6.283   4.048 -0.1309  0.1078 -0.2632
 4191SOL     OW16535   2.643   0.734   1.217 -0.0657  0.1567 -0.0697
 4191SOL    HW216536   2.595   0.798   1.269  0.6441 -0.3344  1.2560
 4191SOL    HW316537   2.735   0.750   1.239  0.2759  0.0347 -1.3275
 4191SOL    MW416538   2.649   0.745   1.227  0.0731  0.0758 -0.0607
 4192SOL     OW16539   4.843   1.900   0.039  0.7128  0.2272  0.4013
 4192SOL    HW216540   4.920   1.956   0.043  0.2850  0.8013  0.6565
 4192SOL    HW316541   4.775   1.947   0.087  0.5548 -0.8494  1.2684
 4192SOL    MW416542   4.844   1.914   0.046  0.6355  0.1609  0.5494
 4193SOL     OW16543   2.736   2.142   0.917 -0.5525 -0.4122  0.1964
 4193SOL    HW216544   2.767   2.065   0.966 -0.4473  0.7038  1.9665
 4193SOL    HW316545   2.644   2.124   0.899 -0.3919 -1.1806  0.1195
 4193SOL    MW416546   2.728   2.129   0.921 -0.5174 -0.3663  0.4198
 4194SOL     OW16547   4.942   2.967   1.166 -0.2025 -0.3190 -0.2211
 4194SOL    HW216548   5.007   2.981   1.234  1.1003 -2.3343 -0.9376
 4194SOL    HW316549   4.987   2.912   1.102 -1.1763  1.9191 -3.0226
 4194SOL    MW416550   4.956   2.961   1.166 -0.1591 -0.2896 -0.6853
 4195SOL     OW16551   3.810   5.333   5.624 -0.3953 -0.1703 -0.0819
 4195SOL    HW216552   3.842   5.279   5.552 -2.1087 -0.2952 -0.7925
 4195SOL    HW316553   3.725   5.296   5.646 -0.4085  0.5766  1.2618
 4195SOL    MW416554   3.803   5.321   5.618 -0.6231 -0.0882  0.0016
 4196SOL     OW16555   3.773   1.218   3.810 -0.6824 -0.0859 -0.2063
 4196SOL    HW216556   3.823   1.259   3.880 -1.3627  0.7870 -0.2176
 4196SOL    HW316557   3.814   1.132   3.799  0.9826  0.6760 -0.3865
 4196SOL    MW416558   3.785   1.212   3.818 -0.5525  0.1298 -0.2316
 4197SOL     OW16559   0.436   0.801   5.512 -0.2226 -0.9543 -0.1884
 4197SOL    HW216560   0.416   0.882   5.465 -0.0407 -1.1089 -0.5303
 4197SOL    HW316561   0.350   0.763   5.531 -0.2710 -1.5110 -1.4667
 4197SOL    MW416562   0.422   0.807   5.508 -0.2050 -1.0481 -0.4022
 4198SOL     OW16563   6.059   0.414   2.761 -0.3331 -0.1710 -0.0566
 4198SOL    HW216564   6.123   0.379   2.699 -0.6290  0.3785 -0.6902
 4198SOL    HW316565   6.099   0.495   2.794 -0.6725  0.1412 -0.4085
 4198SOL    MW416566   6.073   0.420   2.757 -0.4169 -0.0573 -0.1866
 4199SOL     OW16567   5.518   4.283   2.394  0.2934 -0.5207  0.0696
 4199SOL    HW216568   5.519   4.305   2.487 -1.2733 -0.1995  0.0266
 4199SOL    HW316569   5.433   4.242   2.380 -0.0488  0.6519 -1.4936
 4199SOL    MW416570   5.507   4.281   2.405  0.0416 -0.3236 -0.1423
 4200SOL     OW16571   0.581   5.107   0.331  0.0557 -0.4354 -0.1282
 4200SOL    HW216572   0.631   5.038   0.286  0.2221 -1.7935  1.9640
 4200SOL    HW316573   0.623   5.189   0.304  0.7209 -1.2265 -1.6391
 4200SOL    MW416574   0.593   5.109   0.321  0.1654 -0.7189 -0.0515
 4201SOL     OW16575   3.801   1.224   0.970 -0.1441  0.2623 -0.4159
 4201SOL    HW216576   3.802   1.152   0.908 -0.4742 -0.4435  0.3808
 4201SOL    HW316577   3.730   1.204   1.030 -1.3512  2.1095 -1.1404
 4201SOL    MW416578   3.792   1.212   0.970 -0.3469  0.4129 -0.4063
 4202SOL     OW16579   1.442   5.447   2.593 -0.0565 -0.3725  0.4062
 4202SOL    HW216580   1.453   5.363   2.549  1.2892  0.3928 -0.8274
 4202SOL    HW316581   1.525   5.493   2.579 -0.8297  1.2489  0.8315
 4202SOL    MW416582   1.454   5.442   2.585  0.0190 -0.0576  0.2995
 4203SOL     OW16583   0.473   3.590   2.087 -0.4832  0.1283 -0.1050
 4203SOL    HW216584   0.492   3.505   2.127 -0.1842  0.4572  0.4540
 4203SOL    HW316585   0.461   3.570   1.994  0.6901 -0.3802 -0.1624
 4203SOL    MW416586   0.474   3.576   2.080 -0.2889  0.1046 -0.0388
 4204SOL     OW16587   3.877   5.651   3.064  0.3215 -0.1555 -0.0665
 4204SOL    HW216588   3.803   5.637   3.005  1.5405  1.0342 -1.9945
 4204SOL    HW316589   3.838   5.690   3.143 -1.2348 -0.8029 -0.4727
 4204SOL    MW416590   3.862   5.654   3.067  0.2770 -0.0839 -0.3745
 4205SOL     OW16591   1.507   3.194   4.836 -0.2026  0.3978  0.5016
 4205SOL    HW216592   1.432   3.135   4.847  0.0105 -0.0064 -0.2038
 4205SOL    HW316593   1.478   3.276   4.877 -0.5776 -0.1168  1.3135
 4205SOL    MW416594   1.493   3.197   4.843 -0.2239  0.2766  0.5156
 4206SOL     OW16595   3.885   3.994   5.671  0.0796  0.6555 -0.2214
 4206SOL    HW216596   3.938   3.924   5.634 -0.2547  0.3904 -0.1997
 4206SOL    HW316597   3.868   4.052   5.597 -1.2668 -0.2907 -0.6875
 4206SOL    MW416598   3.890   3.993   5.656 -0.1422  0.4957 -0.2800
 4207SOL     OW16599   4.174   4.294   2.845 -0.1747 -0.3562  0.0914
 4207SOL    HW216600   4.242   4.239   2.806  0.6688  0.9817 -0.3554
 4207SOL    HW316601   4.107   4.302   2.777  1.9831  3.2700 -1.9110
 4207SOL    MW416602   4.174   4.288   2.831  0.2213  0.2988 -0.2318
 4208SOL     OW16603   3.079   5.835   6.366  0.2333 -0.6271 -0.2400
 4208SOL    HW216604   3.145   5.771   6.394  0.1453 -1.1282 -1.1482
 4208SOL    HW316605   3.043   5.868   6.448  0.6590 -1.3481  0.2600
 4208SOL    MW416606   3.083   5.831   6.381  0.2779 -0.7883 -0.2938
 4209SOL     OW16607   1.947   1.420   1.178 -0.1305  0.0186 -0.2171
 4209SOL    HW216608   2.004   1.399   1.104 -0.5650 -2.6738  0.1284
 4209SOL    HW316609   1.862   1.441   1.138 -0.3440 -1.3518 -0.5075
 4209SOL    MW416610   1.943   1.420   1.163 -0.2160 -0.5174 -0.2098
 4210SOL     OW16611   3.581   2.351   1.827 -0.3810 -0.1671  0.7437
 4210SOL    HW216612   3.597   2.341   1.921 -0.0692 -0.9545  0.6170
 4210SOL    HW316613   3.657   2.311   1.786 -0.2704  0.6471  0.1537
 4210SOL    MW416614   3.593   2.344   1.834 -0.3253 -0.1636  0.6491
 4211SOL     OW16615   1.986   5.242   2.062 -0.5256  0.4993 -0.1257
 4211SOL    HW216616   2.045   5.317   2.065 -1.6334  1.3817  0.4484
 4211SOL    HW316617   2.042   5.166   2.078  0.5874  1.2058 -0.5408
 4211SOL    MW416618   2.001   5.241   2.064 -0.5249  0.7089 -0.1047
 4212SOL     OW16619   2.716   0.316   4.262 -0.0228  0.0511 -0.3559
 4212SOL    HW216620   2.627   0.285   4.247 -0.2668  0.3516  0.4400
 4212SOL    HW316621   2.709   0.374   4.338  0.9431 -0.3700  0.0657
 4212SOL    MW416622   2.703   0.320   4.270  0.0724  0.0352 -0.1953
 4213SOL     OW16623   4.631   4.133   1.804  0.3892  0.6189  0.3054
 4213SOL    HW216624   4.549   4.096   1.774 -0.1792  0.5529  1.8289
 4213SOL    HW316625   4.682   4.149   1.725  0.3339 -2.5628 -0.4947
 4213SOL    MW416626   4.627   4.131   1.790  0.3069  0.1904  0.4009
 4214SOL     OW16627   3.763   6.023   4.664  0.2903 -0.6149 -0.1647
 4214SOL    HW216628   3.804   6.000   4.581  1.8134  0.5171  0.2298
 4214SOL    HW316629   3.836   6.036   4.724 -0.5790  1.9764  0.4467
 4214SOL    MW416630   3.778   6.022   4.661  0.3766 -0.1236 -0.0320
 4215SOL     OW16631   2.057   3.242   0.585  0.1225 -0.5060 -0.3188
 4215SOL    HW216632   1.980   3.187   0.569  1.7662 -2.6698 -1.3905
 4215SOL    HW316633   2.069   3.291   0.504 -1.1422  1.2785  0.5149
 4215SOL    MW416634   2.048   3.241   0.572  0.1725 -0.5560 -0.3502
 4216SOL     OW16635   3.149   6.331   3.578 -0.7085 -0.2505  0.1085
 4216SOL    HW216636   3.064   6.346   3.536 -1.1123 -0.0796  0.9587
 4216SOL    HW316637   3.176   6.244   3.549 -0.3958  0.3268 -1.4554
 4216SOL    MW416638   3.141   6.322   3.569 -0.7205 -0.1518  0.0143
 4217SOL     OW16639   0.914   2.596   5.992 -0.3174  0.2654  0.0417
 4217SOL    HW216640   0.979   2.632   5.932 -1.2930  0.7522 -0.7517
 4217SOL    HW316641   0.860   2.671   6.018 -2.3385 -0.5362 -1.5914
 4217SOL    MW416642   0.915   2.611   5.988 -0.7128  0.2239 -0.2785
 4218SOL     OW16643   5.706   2.063   4.638 -0.0945  0.0344  0.3592
 4218SOL    HW216644   5.800   2.044   4.634 -0.0139  0.6293 -1.6002
 4218SOL    HW316645   5.677   2.024   4.721  1.4441 -2.0567 -0.0052
 4218SOL    MW416646   5.715   2.056   4.649  0.1191 -0.1630  0.0526
 4219SOL     OW16647   4.821   1.510   4.961  0.5211 -0.0991  0.1319
 4219SOL    HW216648   4.833   1.526   4.868 -1.0247  2.5500  0.2911
 4219SOL    HW316649   4.734   1.546   4.980  1.2227  0.3800  2.7788
 4219SOL    MW416650   4.811   1.517   4.951  0.4097  0.3136  0.5021
 4220SOL     OW16651   1.020   0.681   3.843  0.2689  0.3365 -0.3752
 4220SOL    HW216652   0.988   0.719   3.761 -2.2109 -0.6602  0.0553
 4220SOL    HW316653   1.101   0.637   3.819  1.5101  3.0143 -1.5259
 4220SOL    MW416654   1.026   0.680   3.829  0.1055  0.5583 -0.4702
 4221SOL     OW16655   1.403   3.205   2.293 -0.4348  0.4679 -0.0689
 4221SOL    HW216656   1.363   3.192   2.379 -0.7299 -1.2368 -0.4274
 4221SOL    HW316657   1.334   3.249   2.242 -0.7520  0.2763  0.1861
 4221SOL    MW416658   1.388   3.210   2.297 -0.5156  0.2177 -0.0825
 4222SOL     OW16659   3.437   4.229   0.892 -0.3161 -0.4624  0.2780
 4222SOL    HW216660   3.452   4.323   0.879  0.0946 -0.4969  0.4914
 4222SOL    HW316661   3.441   4.218   0.987  2.0397 -1.0871  0.1581
 4222SOL    MW416662   3.440   4.240   0.903  0.0489 -0.5494  0.2904
 4223SOL     OW16663   5.978   0.167   6.392 -0.5068  0.1468  0.2940
 4223SOL    HW216664   6.034   0.157   6.315 -1.9497  0.1551 -0.8080
 4223SOL    HW316665   5.976   0.262   6.408 -0.5556  0.1843  0.0668
 4223SOL    MW416666   5.985   0.178   6.384 -0.7036  0.1529  0.1186
 4224SOL     OW16667   3.493   5.537   3.317  0.5030 -0.1273 -0.0072
 4224SOL    HW216668   3.442   5.611   3.282  2.2117  0.8935 -0.4449
 4224SOL    HW316669   3.430   5.488   3.370 -0.3874  2.4607  1.5189
 4224SOL    MW416670   3.478   5.540   3.320  0.6110  0.3488  0.1364
 4225SOL     OW16671   2.022   4.305   3.294 -0.1865 -1.0082  0.4632
 4225SOL    HW216672   1.933   4.320   3.264  0.1270 -0.5732 -0.3001
 4225SOL    HW316673   2.039   4.375   3.357 -0.4181 -1.1582  0.6936
 4225SOL    MW416674   2.013   4.317   3.298 -0.1757 -0.9706  0.3929
 4226SOL     OW16675   0.697   4.268   1.139 -0.2132 -0.4736  0.1588
 4226SOL    HW216676   0.667   4.355   1.166  0.7868 -0.9419  3.2755
 4226SOL    HW316677   0.778   4.284   1.091 -0.2259  0.3505  0.3949
 4226SOL    MW416678   0.704   4.281   1.137 -0.0829 -0.4267  0.6012
 4227SOL     OW16679   3.756   5.478   4.057  0.4001 -0.5103 -0.0673
 4227SOL    HW216680   3.791   5.517   4.137  0.6766  0.2412 -0.5430
 4227SOL    HW316681   3.674   5.524   4.041  0.1777 -0.8946 -0.0300
 4227SOL    MW416682   3.750   5.489   4.066  0.4072 -0.4618 -0.1251
 4228SOL     OW16683   1.157   1.646   5.733  0.0108 -0.0315 -0.1034
 4228SOL    HW216684   1.073   1.610   5.704  0.4830 -1.5997  0.4052
 4228SOL    HW316685   1.157   1.635   5.828  0.2690  1.1612  0.0520
 4228SOL    MW416686   1.146   1.640   5.741  0.1072 -0.0810 -0.0158
 4229SOL     OW16687   3.501   4.004   1.592 -0.2035  0.3103  0.2394
 4229SOL    HW216688   3.523   4.093   1.562 -0.4110  0.0161 -0.8331
 4229SOL    HW316689   3.544   3.946   1.529  0.8601 -0.4017  1.5653
 4229SOL    MW416690   3.509   4.008   1.580 -0.0906  0.1776  0.2729
 4230SOL     OW16691   4.553   5.205   1.591  0.4384 -0.4991  0.2728
 4230SOL    HW216692   4.526   5.161   1.510  3.5903  1.4715 -2.0953
 4230SOL    HW316693   4.605   5.140   1.638 -2.9152 -2.2632  1.7940
 4230SOL    MW416694   4.557   5.191   1.586  0.4118 -0.4719  0.1611
 4231SOL     OW16695   3.955   5.863   0.334  0.1068  0.4621  0.3904
 4231SOL    HW216696   3.875   5.829   0.293  0.2249  1.5126 -0.7985
 4231SOL    HW316697   4.018   5.792   0.327 -0.5813 -0.2180  0.9244
 4231SOL    MW416698   3.952   5.849   0.328  0.0316  0.5110  0.3040
 4232SOL     OW16699   1.805   2.569   6.117  0.0252  0.2064  0.3023
 4232SOL    HW216700   1.709   2.567   6.116  0.0157  0.6605 -0.0239
 4232SOL    HW316701   1.831   2.478   6.103 -0.3578  0.1949 -0.3539
 4232SOL    MW416702   1.796   2.557   6.115 -0.0266  0.2648  0.1727
 4233SOL     OW16703   0.355   4.890   3.316  0.0326  0.3856  0.7103
 4233SOL    HW216704   0.354   4.880   3.220  0.2422 -0.3146  0.7684
 4233SOL    HW316705   0.447   4.908   3.337 -0.1472  1.3437  0.7183
 4233SOL    MW416706   0.367   4.891   3.306  0.0365  0.4196  0.7190
 4234SOL     OW16707   0.899   3.300   0.834 -0.2577  0.0693  0.2547
 4234SOL    HW216708   0.846   3.237   0.882 -0.8978  0.1349 -0.3585
 4234SOL    HW316709   0.927   3.252   0.756  3.2223 -1.0591  1.9625
 4234SOL    MW416710   0.896   3.285   0.830  0.1170 -0.0709  0.3991
 4235SOL     OW16711   5.798   3.784   5.523 -0.6278  0.4518  0.2889
 4235SOL    HW216712   5.837   3.798   5.609 -1.2588  0.4678  0.5776
 4235SOL    HW316713   5.705   3.769   5.540 -0.9586  1.4980 -0.4589
 4235SOL    MW416714   5.791   3.784   5.536 -0.7547  0.5920  0.2284
 4236SOL     OW16715   6.327   0.698   5.030  0.1296 -0.2683  0.1841
 4236SOL    HW216716   6.396   0.674   4.968 -0.6940  0.4971 -1.0577
 4236SOL    HW316717   6.295   0.782   4.999 -0.2935  0.1414  1.6751
 4236SOL    MW416718   6.332   0.706   5.018 -0.0349 -0.1133  0.2170
 4237SOL     OW16719   5.096   1.448   1.861 -0.0619  0.3598  0.2087
 4237SOL    HW216720   5.170   1.426   1.918  1.3121  1.2638 -1.1258
 4237SOL    HW316721   5.028   1.479   1.920  0.0804 -1.7854  1.5971
 4237SOL    MW416722   5.097   1.449   1.876  0.1381  0.1960  0.2158
 4238SOL     OW16723   5.348   1.527   3.514  0.7731  0.3474 -0.6375
 4238SOL    HW216724   5.397   1.610   3.515  0.7541  0.3613 -0.9538
 4238SOL    HW316725   5.303   1.527   3.430 -2.5804  1.9550  0.9892
 4238SOL    MW416726   5.349   1.538   3.503  0.3282  0.5613 -0.4646
 4239SOL     OW16727   1.523   2.414   3.122 -0.4033 -0.3724 -0.6032
 4239SOL    HW216728   1.541   2.336   3.175  0.8191  0.9007  0.9655
 4239SOL    HW316729   1.576   2.402   3.044  0.2158 -0.8635 -0.1232
 4239SOL    MW416730   1.533   2.402   3.119 -0.1603 -0.2692 -0.3329
 4240SOL     OW16731   3.820   5.436   2.530 -0.2705  0.5357  0.7713
 4240SOL    HW216732   3.727   5.431   2.507 -0.0355 -1.2852  0.0869
 4240SOL    HW316733   3.840   5.351   2.569  1.3467  0.4730 -0.0949
 4240SOL    MW416734   3.811   5.424   2.532 -0.0261  0.2872  0.5667
 4241SOL     OW16735   2.032   6.144   5.652 -0.3561 -0.5334 -0.1612
 4241SOL    HW216736   1.968   6.147   5.723  0.5953  0.4328  0.6818
 4241SOL    HW316737   2.098   6.082   5.681  0.4502  0.4569  0.1863
 4241SOL    MW416738   2.032   6.136   5.665 -0.1242 -0.2753 -0.0041
 4242SOL     OW16739   5.625   1.272   3.451  0.2914  0.0788  0.2134
 4242SOL    HW216740   5.634   1.316   3.366  0.3973  0.8057  0.5969
 4242SOL    HW316741   5.676   1.191   3.441  0.7964  0.4437 -0.2167
 4242SOL    MW416742   5.633   1.267   3.438  0.3720  0.2229  0.2072
 4243SOL     OW16743   0.696   4.163   0.764  0.0578 -0.7647 -0.1016
 4243SOL    HW216744   0.695   4.252   0.727  0.1380 -0.6060  0.2747
 4243SOL    HW316745   0.623   4.119   0.721  1.3837 -1.2298 -2.0120
 4243SOL    MW416746   0.686   4.169   0.753  0.2433 -0.8052 -0.3040
 4244SOL     OW16747   2.283   1.744   6.251 -0.2057 -0.0708 -0.2384
 4244SOL    HW216748   2.372   1.719   6.278  1.0264  2.8875 -1.1519
 4244SOL    HW316749   2.292   1.774   6.161 -1.8890  1.3901  0.0157
 4244SOL    MW416750   2.296   1.744   6.243 -0.2652  0.5122 -0.3254
 4245SOL     OW16751   4.845   6.109   4.190  0.0575 -0.0153 -0.4907
 4245SOL    HW216752   4.931   6.141   4.163 -0.4504  1.5731 -0.3297
 4245SOL    HW316753   4.789   6.187   4.190 -1.2782 -0.9331 -0.1488
 4245SOL    MW416754   4.849   6.124   4.186 -0.1858  0.0732 -0.4244
 4246SOL     OW16755   4.391   3.308   3.328 -0.0577 -0.0044  0.1640
 4246SOL    HW216756   4.306   3.289   3.368 -0.1811  0.4505  0.1284
 4246SOL    HW316757   4.440   3.226   3.334 -0.8247 -0.5361 -0.6376
 4246SOL    MW416758   4.386   3.295   3.334 -0.1752 -0.0145  0.0536
 4247SOL     OW16759   5.347   3.683   4.047  0.1124 -0.0624 -0.0622
 4247SOL    HW216760   5.270   3.665   4.102  1.1218  0.4183  1.5823
 4247SOL    HW316761   5.384   3.763   4.084  0.9599  0.1657 -1.3432
 4247SOL    MW416762   5.341   3.691   4.059  0.3574  0.0311 -0.0143
 4248SOL     OW16763   6.333   5.626   0.713 -0.2430  0.1158 -0.0517
 4248SOL    HW216764   6.332   5.603   0.806  1.5049  1.1048  0.2435
 4248SOL    HW316765   6.390   5.560   0.674 -0.1830  0.2966 -0.2643
 4248SOL    MW416766   6.340   5.614   0.720 -0.0044  0.2701 -0.0408
 4249SOL     OW16767   2.430   5.628   3.784 -0.6845  0.3502 -0.1808
 4249SOL    HW216768   2.516   5.611   3.747  0.5508 -1.3711  3.0673
 4249SOL    HW316769   2.370   5.576   3.731  0.9111 -1.7323 -0.0469
 4249SOL    MW416770   2.433   5.619   3.772 -0.3110 -0.1517  0.2654
 4250SOL     OW16771   5.680   3.818   2.564 -0.3974  0.0538  0.2181
 4250SOL    HW216772   5.703   3.797   2.654  0.1179  0.1561  0.1157
 4250SOL    HW316773   5.691   3.913   2.558 -2.1011  0.2988  0.5087
 4250SOL    MW416774   5.685   3.828   2.575 -0.5542  0.0997  0.2429
 4251SOL     OW16775   2.003   3.922   2.840  0.1176 -0.4589  0.5672
 4251SOL    HW216776   2.067   3.951   2.905 -1.5146 -0.6811  2.3694
 4251SOL    HW316777   1.988   3.830   2.861  0.6111 -0.9488 -1.0887
 4251SOL    MW416778   2.009   3.914   2.852 -0.0327 -0.5529  0.5865
 4252SOL     OW16779   2.137   0.203   3.444  0.2802  0.3528  0.0439
 4252SOL    HW216780   2.140   0.237   3.533 -2.3500  1.5444 -0.2455
 4252SOL    HW316781   2.121   0.109   3.454 -0.9117  0.6308  0.8350
 4252SOL    MW416782   2.135   0.195   3.457 -0.2241  0.5467  0.1101
 4253SOL     OW16783   3.643   2.791   3.102  0.3196 -0.2261  0.2027
 4253SOL    HW216784   3.582   2.721   3.078  0.4034  0.1147 -1.0703
 4253SOL    HW316785   3.719   2.745   3.136  0.1071 -0.7345  0.0098
 4253SOL    MW416786   3.645   2.775   3.103  0.3026 -0.2482  0.0093
 4254SOL     OW16787   5.533   4.326   2.701  0.7277  0.2636 -0.0376
 4254SOL    HW216788   5.543   4.307   2.794  1.4604 -0.4428 -0.2434
 4254SOL    HW316789   5.440   4.313   2.684  1.0294 -2.6760  0.0009
 4254SOL    MW416790   5.522   4.322   2.711  0.8642 -0.2175 -0.0596
 4255SOL     OW16791   3.432   2.969   4.816  0.4862 -0.2274 -0.1895
 4255SOL    HW216792   3.454   2.877   4.833 -1.1813 -0.5750  0.2839
 4255SOL    HW316793   3.409   2.971   4.724 -1.7908 -0.8359  0.3103
 4255SOL    MW416794   3.432   2.957   4.806 -0.0342 -0.3535 -0.0611
 4256SOL     OW16795   5.971   2.044   0.719  0.9173 -0.2242  0.2944
 4256SOL    HW216796   5.986   2.116   0.658  1.6360  1.3311  2.2104
 4256SOL    HW316797   6.043   2.049   0.782  1.1986 -2.8777  0.3238
 4256SOL    MW416798   5.982   2.054   0.719  1.0492 -0.3691  0.5511
 4257SOL     OW16799   4.342   3.150   4.545 -0.1453 -0.4798 -0.4957
 4257SOL    HW216800   4.371   3.104   4.624  0.5869 -1.2378 -1.1832
 4257SOL    HW316801   4.256   3.185   4.568 -0.4094 -1.5786  0.2931
 4257SOL    MW416802   4.335   3.149   4.559 -0.0835 -0.7248 -0.4823
 4258SOL     OW16803   1.724   4.512   1.000  0.0803  0.0222 -0.5876
 4258SOL    HW216804   1.768   4.579   1.054 -2.3549  0.3415  1.1409
 4258SOL    HW316805   1.731   4.546   0.911 -0.0508  2.0006  0.1042
 4258SOL    MW416806   1.731   4.525   0.996 -0.2583  0.3253 -0.2683
 4259SOL     OW16807   0.118   6.368   4.651  0.1684  0.3398  0.1876
 4259SOL    HW216808   0.069   6.378   4.733  0.7006  0.8264  0.4570
 4259SOL    HW316809   0.174   6.446   4.647  1.9780 -0.8566  0.6354
 4259SOL    MW416810   0.119   6.379   4.661  0.4774  0.2462  0.2823
 4260SOL     OW16811   1.880   4.676   3.072  0.3247  0.0847 -0.8970
 4260SOL    HW216812   1.879   4.739   3.000  0.0194  2.0378  0.7331
 4260SOL    HW316813   1.788   4.650   3.083 -0.3014  2.7143  1.1168
 4260SOL    MW416814   1.868   4.681   3.064  0.2018  0.6893 -0.4162
 4261SOL     OW16815   0.321   4.443   4.617 -0.0083 -0.2977 -0.3471
 4261SOL    HW216816   0.240   4.411   4.577  0.3842  0.4886 -1.8373
 4261SOL    HW316817   0.326   4.535   4.591  0.0809  0.3768  1.8698
 4261SOL    MW416818   0.311   4.451   4.608  0.0553 -0.1049 -0.2512
 4262SOL     OW16819   3.960   0.408   2.006  0.2144 -0.2542 -0.4815
 4262SOL    HW216820   3.982   0.421   1.914  1.2642 -0.5868 -0.3040
 4262SOL    HW316821   3.995   0.321   2.027  0.6722  0.1199  0.4086
 4262SOL    MW416822   3.968   0.398   1.997  0.4133 -0.2487 -0.3406
 4263SOL     OW16823   5.269   4.996   0.468  0.0484 -0.1600 -0.1430
 4263SOL    HW216824   5.247   4.907   0.441  0.8783  0.0658 -1.7094
 4263SOL    HW316825   5.187   5.044   0.460 -0.2106 -0.5959 -0.1435
 4263SOL    MW416826   5.255   4.991   0.463  0.1238 -0.1877 -0.3498
 4264SOL     OW16827   0.174   4.643   4.345  0.2438 -0.4640  0.3180
 4264SOL    HW216828   0.098   4.699   4.364 -0.6573 -1.2411 -0.8581
 4264SOL    HW316829   0.249   4.694   4.375 -0.6446  0.8856  0.3441
 4264SOL    MW416830   0.174   4.657   4.351  0.0077 -0.3884  0.1663
 4265SOL     OW16831   5.030   5.116   0.323 -0.1307 -0.1140 -0.6415
 4265SOL    HW216832   5.041   5.042   0.264 -0.8603  0.1411 -1.1265
 4265SOL    HW316833   4.951   5.096   0.373  0.6364 -0.4574  0.4690
 4265SOL    MW416834   5.021   5.104   0.322 -0.1258 -0.1257 -0.5590
 4266SOL     OW16835   3.131   6.349   5.440 -0.0632  0.1392  0.1513
 4266SOL    HW216836   3.125   6.387   5.352  0.4478 -0.5323 -0.1807
 4266SOL    HW316837   3.145   6.425   5.497  0.3334  0.5168 -0.4331
 4266SOL    MW416838   3.132   6.364   5.436  0.0565  0.1004  0.0304
 4267SOL     OW16839   4.421   6.253   2.076  0.2943  0.4745  0.0564
 4267SOL    HW216840   4.462   6.296   2.001  1.6514 -1.3170 -0.2860
 4267SOL    HW316841   4.413   6.161   2.050  0.1210 -0.0513  1.8256
 4267SOL    MW416842   4.425   6.247   2.063  0.4505  0.1688  0.2446
 4268SOL     OW16843   0.048   0.863   5.781 -0.6079 -0.5506 -0.4892
 4268SOL    HW216844  -0.018   0.794   5.781 -0.1048 -1.0471 -1.0403
 4268SOL    HW316845   0.000   0.943   5.760 -1.3738 -0.5367  1.2168
 4268SOL    MW416846   0.033   0.864   5.778 -0.6426 -0.6143 -0.3368
 4269SOL     OW16847   4.084   4.619   0.660 -0.4521  0.0124  0.2600
 4269SOL    HW216848   4.029   4.695   0.681 -0.6258 -0.6513  2.4387
 4269SOL    HW316849   4.165   4.634   0.710 -0.1119 -0.7645 -0.0511
 4269SOL    MW416850   4.088   4.631   0.670 -0.4302 -0.1776  0.5064
 4270SOL     OW16851   4.534   1.959   3.366  0.5150 -0.1699 -0.4061
 4270SOL    HW216852   4.578   1.947   3.450  1.0565 -0.2779 -0.7000
 4270SOL    HW316853   4.530   1.871   3.328 -0.0569 -0.1779 -0.3355
 4270SOL    MW416854   4.540   1.946   3.372  0.5110 -0.1852 -0.4355
 4271SOL     OW16855   1.000   1.127   4.371  0.0498 -0.4739  0.4330
 4271SOL    HW216856   0.996   1.042   4.416  0.9734 -0.4638  0.5461
 4271SOL    HW316857   1.093   1.145   4.361 -0.0801 -0.8082 -2.1118
 4271SOL    MW416858   1.012   1.118   4.376  0.1545 -0.5167  0.1122
 4272SOL     OW16859   5.183   6.230   2.671  0.1855  0.0698 -0.4707
 4272SOL    HW216860   5.156   6.272   2.589  0.3743  0.2904 -0.4197
 4272SOL    HW316861   5.168   6.137   2.655  2.4415 -0.1566 -1.6535
 4272SOL    MW416862   5.178   6.223   2.658  0.5081  0.0690 -0.6201
 4273SOL     OW16863   5.874   4.039   5.446  0.2870  0.1161 -0.1511
 4273SOL    HW216864   5.823   3.962   5.472  1.4158 -0.7213 -0.3320
 4273SOL    HW316865   5.821   4.081   5.378 -0.5391 -0.2552  0.2496
 4273SOL    MW416866   5.860   4.034   5.440  0.3269 -0.0434 -0.1221
 4274SOL     OW16867   5.032   0.076   3.296  0.4630 -0.5434  0.4549
 4274SOL    HW216868   4.951   0.045   3.256  0.4086  0.0612  0.0830
 4274SOL    HW316869   5.061   0.148   3.240  0.3565  0.3515  1.5061
 4274SOL    MW416870   5.025   0.082   3.284  0.4418 -0.3456  0.5445
 4275SOL     OW16871   3.034   1.728   2.287  0.2372  0.4230 -0.0936
 4275SOL    HW216872   3.014   1.814   2.324  1.4256  0.3183  0.8386
 4275SOL    HW316873   3.051   1.746   2.194  0.0662  1.1268  0.0013
 4275SOL    MW416874   3.033   1.742   2.279  0.3714  0.5021  0.0419
 4276SOL     OW16875   0.426   0.267   3.969  0.0483  0.6972  0.4041
 4276SOL    HW216876   0.489   0.221   3.915  1.0780  0.7945  1.4874
 4276SOL    HW316877   0.424   0.218   4.051 -1.1589  0.7985  0.4500
 4276SOL    MW416878   0.434   0.255   3.973  0.0249  0.7234  0.5531
 4277SOL     OW16879   4.710   4.164   5.657 -0.6365  0.1533 -0.0793
 4277SOL    HW216880   4.705   4.255   5.627 -0.7268  0.2447  0.2155
 4277SOL    HW316881   4.695   4.168   5.751  0.6194 -0.0221  0.1497
 4277SOL    MW416882   4.708   4.177   5.665 -0.4827  0.1422 -0.0102
 4278SOL     OW16883   5.557   2.180   1.456  1.1254 -0.6348 -0.2095
 4278SOL    HW216884   5.509   2.139   1.385 -0.3588  0.0906  0.3282
 4278SOL    HW316885   5.498   2.248   1.488  1.7220 -0.9989  1.7713
 4278SOL    MW416886   5.543   2.184   1.451  1.0083 -0.5871  0.1228
 4279SOL     OW16887   2.876   0.478   4.104  0.6573 -0.2966  0.1127
 4279SOL    HW216888   2.812   0.423   4.149 -0.1885  0.3034 -0.3311
 4279SOL    HW316889   2.944   0.493   4.169  0.3079 -0.8689  0.6290
 4279SOL    MW416890   2.876   0.473   4.118  0.4996 -0.2930  0.1223
 4280SOL     OW16891   0.530   4.474   0.349  0.1326  0.2085  0.3182
 4280SOL    HW216892   0.569   4.554   0.385  0.6601  0.2460 -0.3227
 4280SOL    HW316893   0.497   4.500   0.263 -1.3656  0.1815  0.8564
 4280SOL    MW416894   0.531   4.488   0.343  0.0045  0.2099  0.3047
 4281SOL     OW16895   0.232   1.261   3.185  0.1283 -0.2819  0.8789
 4281SOL    HW216896   0.170   1.333   3.195  0.0770 -0.4261  1.6654
 4281SOL    HW316897   0.177   1.185   3.167  0.1317 -0.2502  0.7385
 4281SOL    MW416898   0.216   1.261   3.184  0.1220 -0.2967  0.9641
 4282SOL     OW16899   1.272   1.315   4.695  0.0530 -0.2917 -0.1907
 4282SOL    HW216900   1.332   1.323   4.621  1.0370  0.5500  0.6710
 4282SOL    HW316901   1.249   1.406   4.717 -1.1352 -0.5769 -0.1628
 4282SOL    MW416902   1.277   1.328   4.688  0.0260 -0.2183 -0.0733
 4283SOL     OW16903   4.818   2.982   4.937 -0.1001 -0.0705 -0.9864
 4283SOL    HW216904   4.829   3.077   4.940  0.4209 -0.1467  0.8518
 4283SOL    HW316905   4.774   2.965   4.853 -1.7278  1.9243 -0.6012
 4283SOL    MW416906   4.814   2.992   4.926 -0.2462  0.1827 -0.6930
 4284SOL     OW16907   0.337   4.553   6.250  0.0121  0.0055 -0.0835
 4284SOL    HW216908   0.242   4.545   6.260  0.0875  0.1702  0.8073
 4284SOL    HW316909   0.348   4.607   6.172 -0.6172 -0.1997 -0.3256
 4284SOL    MW416910   0.326   4.559   6.241 -0.0610  0.0001  0.0021
 4285SOL     OW16911   5.297   1.804   4.405 -0.0410  0.3818 -0.1194
 4285SOL    HW216912   5.313   1.877   4.346 -1.6340 -0.4308 -1.6590
 4285SOL    HW316913   5.259   1.844   4.483 -1.2960  1.1889 -1.1066
 4285SOL    MW416914   5.294   1.819   4.407 -0.4168  0.3811 -0.4528
 4286SOL     OW16915   1.564   1.933   6.336 -0.3833 -0.4314  0.2884
 4286SOL    HW216916   1.483   1.972   6.368 -1.1056 -2.1861  0.6872
 4286SOL    HW316917   1.557   1.840   6.358  1.4286 -0.7515 -0.3022
 4286SOL    MW416918   1.553   1.926   6.343 -0.2395 -0.7051  0.2631
 4287SOL     OW16919   2.620   4.165   2.739  0.0834 -0.0432 -0.4579
 4287SOL    HW216920   2.639   4.245   2.788 -1.7656 -0.0105  0.3075
 4287SOL    HW316921   2.639   4.095   2.801 -0.3509 -0.0971 -0.3864
 4287SOL    MW416922   2.625   4.166   2.754 -0.2178 -0.0460 -0.3474
 4288SOL     OW16923   6.073   3.706   4.841 -0.5028  0.0677  0.9190
 4288SOL    HW216924   5.984   3.677   4.861 -0.9324  0.5577 -0.1715
 4288SOL    HW316925   6.119   3.704   4.925 -1.4271 -0.5707  1.4289
 4288SOL    MW416926   6.067   3.702   4.854 -0.6814  0.0481  0.8424
 4289SOL     OW16927   1.673   4.247   5.990 -0.0935 -0.1855  0.0640
 4289SOL    HW216928   1.633   4.269   5.906 -1.0508  0.2108  0.6119
 4289SOL    HW316929   1.670   4.329   6.040  1.1160 -0.2270  0.2441
 4289SOL    MW416930   1.668   4.261   5.986 -0.0602 -0.1387  0.1600
 4290SOL     OW16931   2.247   3.347   0.044 -0.2456 -0.2561  0.3517
 4290SOL    HW216932   2.165   3.391   0.022  0.9934  1.5207 -0.9216
 4290SOL    HW316933   2.307   3.417   0.068  1.1324 -1.4676  0.5787
 4290SOL    MW416934   2.244   3.362   0.044  0.0997 -0.1815  0.2136
 4291SOL     OW16935   2.592   6.368   1.936 -0.2118 -0.0776 -0.4149
 4291SOL    HW216936   2.666   6.358   1.876 -0.5197  1.2856 -1.0490
 4291SOL    HW316937   2.619   6.438   1.995 -0.7510  0.0008 -0.2593
 4291SOL    MW416938   2.605   6.376   1.936 -0.3236  0.1126 -0.4781
 4292SOL     OW16939   1.977   5.272   3.028  0.3413 -0.8450  0.3496
 4292SOL    HW216940   2.051   5.225   2.989 -0.7257 -0.8132 -1.8705
 4292SOL    HW316941   1.926   5.204   3.073  2.0693 -0.7463  2.6255
 4292SOL    MW416942   1.980   5.257   3.028  0.4285 -0.8278  0.3570
 4293SOL     OW16943   3.942   1.885   1.677  0.4658 -0.4072  0.3502
 4293SOL    HW216944   3.955   1.940   1.600 -0.7877  0.9362  1.0513
 4293SOL    HW316945   4.024   1.893   1.726  0.1767  1.2182  0.6417
 4293SOL    MW416946   3.954   1.893   1.673  0.2623 -0.0155  0.4812
 4294SOL     OW16947   1.373   4.577   0.691 -0.0189  0.3209 -0.1024
 4294SOL    HW216948   1.296   4.633   0.682 -0.8457 -0.8861 -0.9616
 4294SOL    HW316949   1.340   4.489   0.674  1.3036 -0.3951  0.8809
 4294SOL    MW416950   1.358   4.573   0.687  0.0465  0.0672 -0.0861
 4295SOL     OW16951   3.199   0.930   0.247  0.3964 -0.2946  0.9596
 4295SOL    HW216952   3.188   0.856   0.187 -0.0375 -0.9927  1.8743
 4295SOL    HW316953   3.223   1.003   0.191 -1.9431 -0.4286 -0.3465
 4295SOL    MW416954   3.201   0.930   0.232  0.0305 -0.4044  0.9080
 4296SOL     OW16955   0.943   6.185   1.896 -0.6994  0.3859 -0.3276
 4296SOL    HW216956   0.954   6.274   1.863 -1.1043  1.5844  2.4391
 4296SOL    HW316957   0.996   6.130   1.838  0.5299  2.5831 -1.3947
 4296SOL    MW416958   0.951   6.189   1.884 -0.5907  0.8339 -0.1034
 4297SOL     OW16959   5.955   1.995   3.946 -0.0392 -0.3536 -0.4466
 4297SOL    HW216960   5.877   1.972   3.996 -0.0825  1.4877  0.4172
 4297SOL    HW316961   6.023   2.010   4.011  0.5583 -0.2385 -1.0796
 4297SOL    MW416962   5.954   1.994   3.961  0.0339 -0.0955 -0.4161
 4298SOL     OW16963   2.079   3.524   3.056  0.1926  0.0339  0.1073
 4298SOL    HW216964   2.157   3.471   3.043  0.2192 -0.1929  1.1525
 4298SOL    HW316965   2.085   3.555   3.146  0.0749  1.6542 -0.4136
 4298SOL    MW416966   2.090   3.521   3.066  0.1806  0.2178  0.1764
 4299SOL     OW16967   4.210   0.961   1.909  0.7179 -0.0824 -0.0544
 4299SOL    HW216968   4.137   0.900   1.899  0.4157 -0.1033  1.8782
 4299SOL    HW316969   4.282   0.921   1.860  0.0089 -1.0497 -0.3348
 4299SOL    MW416970   4.210   0.948   1.901  0.5845 -0.2128  0.1636
 4300SOL     OW16971   2.424   1.546   0.549 -0.1096 -0.1186  0.3312
 4300SOL    HW216972   2.331   1.567   0.554  0.2033  1.8624 -0.9689
 4300SOL    HW316973   2.459   1.568   0.636 -0.5810  0.6748  0.3252
 4300SOL    MW416974   2.416   1.552   0.561 -0.1305  0.2474  0.1589
 4301SOL     OW16975   5.010   0.457   2.210  0.3210 -0.0672 -0.3418
 4301SOL    HW216976   4.943   0.493   2.152 -1.0179 -2.2626 -0.2719
 4301SOL    HW316977   5.090   0.458   2.158 -0.0792  1.1666 -0.9757
 4301SOL    MW416978   5.011   0.462   2.196  0.0915 -0.1941 -0.4162
 4302SOL     OW16979   5.455   2.529   3.301  0.2726  0.1198 -0.2062
 4302SOL    HW216980   5.389   2.569   3.357 -0.4054 -1.6596  0.3133
 4302SOL    HW316981   5.533   2.585   3.313 -0.8635  1.7829 -0.2226
 4302SOL    MW416982   5.457   2.542   3.310  0.0332  0.1045 -0.1398
 4303SOL     OW16983   4.988   2.840   5.569  0.0948  0.3683 -0.1822
 4303SOL    HW216984   4.965   2.747   5.581 -0.5261  0.6036  0.5380
 4303SOL    HW316985   4.919   2.887   5.615 -0.5090  1.2542 -1.9058
 4303SOL    MW416986   4.976   2.834   5.577 -0.0668  0.5162 -0.3146
 4304SOL     OW16987   5.495   1.110   5.378 -0.6372  0.4847 -0.3560
 4304SOL    HW216988   5.573   1.095   5.431 -0.3112  0.5470 -0.8068
 4304SOL    HW316989   5.422   1.093   5.437 -0.2909 -1.0085 -0.3148
 4304SOL    MW416990   5.496   1.106   5.392 -0.5485  0.2959 -0.4100
 4305SOL     OW16991   6.407   1.042   6.026  0.0711 -0.2202  0.2605
 4305SOL    HW216992   6.395   0.956   5.987 -0.2488  0.4630 -1.2388
 4305SOL    HW316993   6.319   1.076   6.039  0.0721  1.4246 -2.9180
 4305SOL    MW416994   6.394   1.035   6.022  0.0291  0.0870 -0.3567
 4306SOL     OW16995   4.379   4.172   4.095  0.0746 -0.1218 -0.4146
 4306SOL    HW216996   4.438   4.103   4.066  1.2723  0.5052  0.4181
 4306SOL    HW316997   4.425   4.214   4.169 -1.8356 -0.2380  0.9283
 4306SOL    MW416998   4.392   4.169   4.101 -0.0194 -0.0544 -0.1276
 4307SOL     OW16999   4.521   0.926   3.570  0.2759 -0.7197 -0.7527
 4307SOL    HW217000   4.428   0.913   3.553  0.0081  0.3893 -0.2200
 4307SOL    HW317001   4.564   0.858   3.519 -0.8138 -1.1724 -1.1079
 4307SOL    MW417002   4.514   0.915   3.561  0.0968 -0.6331 -0.7293
 4308SOL     OW17003   1.734   6.382   1.504 -0.0157 -0.0680  0.0519
 4308SOL    HW217004   1.677   6.357   1.431 -0.7108  0.2860  0.4577
 4308SOL    HW317005   1.742   6.477   1.497  2.1606 -0.2907 -1.1514
 4308SOL    MW417006   1.727   6.391   1.493  0.1797 -0.0507 -0.0533
 4309SOL     OW17007   5.083   1.943   2.140  0.5048 -0.2401 -0.0779
 4309SOL    HW217008   5.029   2.018   2.165  0.3278 -0.6663  0.8550
 4309SOL    HW317009   5.138   1.976   2.069 -2.0609 -0.1991 -2.2193
 4309SOL    MW417010   5.083   1.957   2.134  0.1429 -0.2909 -0.2374
 4310SOL     OW17011   6.323   1.780   6.311  0.1373 -0.2090 -0.8021
 4310SOL    HW217012   6.320   1.778   6.216  1.8354 -1.2469 -0.8793
 4310SOL    HW317013   6.300   1.871   6.334  0.7206  0.3332 -2.2586
 4310SOL    MW417014   6.320   1.792   6.302  0.4383 -0.2744 -1.0045
 4311SOL     OW17015   6.231   4.317   3.371  0.2056  0.6887  0.0581
 4311SOL    HW217016   6.192   4.338   3.456  0.2437  0.0230  0.2478
 4311SOL    HW317017   6.208   4.225   3.357  2.0249  0.1576  0.3571
 4311SOL    MW417018   6.222   4.308   3.381  0.4506  0.5308  0.1226
 4312SOL     OW17019   3.045   1.992   0.485  0.2401  0.2736  0.2509
 4312SOL    HW217020   3.080   1.904   0.478 -0.6482 -0.1353  0.7299
 4312SOL    HW317021   3.005   1.995   0.573 -0.0987  1.0094  0.0839
 4312SOL    MW417022   3.044   1.981   0.496  0.0782  0.3168  0.2921
 4313SOL     OW17023   0.999   4.364   3.677 -0.1739  0.2503 -0.4372
 4313SOL    HW217024   0.948   4.437   3.711 -0.6467  0.2489 -1.1309
 4313SOL    HW317025   0.938   4.290   3.675 -0.3569  0.4122 -1.9033
 4313SOL    MW417026   0.984   4.364   3.682 -0.2605  0.2715 -0.7222
 4314SOL     OW17027   1.724   0.847   4.948  0.2455 -0.2255  0.6683
 4314SOL    HW217028   1.778   0.777   4.985 -0.9691 -1.0770  0.8942
 4314SOL    HW317029   1.691   0.895   5.024  0.5830  0.2188  0.5364
 4314SOL    MW417030   1.727   0.844   4.963  0.1298 -0.2792  0.6807
 4315SOL     OW17031   3.358   1.729   1.397 -0.2438 -0.4213 -0.0719
 4315SOL    HW217032   3.305   1.806   1.378  0.3862 -0.0968 -0.5499
 4315SOL    HW317033   3.295   1.656   1.401 -0.8189  0.0838  0.2133
 4315SOL    MW417034   3.343   1.729   1.395 -0.2366 -0.3118 -0.0973
 4316SOL     OW17035   2.111   3.123   4.358 -0.2726  0.5682 -0.4596
 4316SOL    HW217036   2.133   3.215   4.371 -1.5325  0.8624 -0.2948
 4316SOL    HW317037   2.016   3.122   4.347 -0.3977 -0.8223  0.5022
 4316SOL    MW417038   2.101   3.135   4.358 -0.4553  0.4236 -0.3109
 4317SOL     OW17039   6.322   3.077   4.774  0.7116 -0.4212 -0.0588
 4317SOL    HW217040   6.298   3.122   4.855 -0.8324 -0.2528 -0.5724
 4317SOL    HW317041   6.262   3.002   4.770 -0.4628  0.5520 -1.9012
 4317SOL    MW417042   6.311   3.073   4.784  0.3529 -0.2706 -0.3696
 4318SOL     OW17043   0.240   1.554   1.831  0.5482  0.2003  0.1490
 4318SOL    HW217044   0.229   1.521   1.921  1.0553 -0.7753 -0.1342
 4318SOL    HW317045   0.261   1.476   1.780 -0.1238  0.6843 -0.8952
 4318SOL    MW417046   0.241   1.539   1.836  0.5264  0.1354 -0.0262
 4319SOL     OW17047   0.316   0.152   1.731 -0.5656 -0.2451  0.0066
 4319SOL    HW217048   0.269   0.071   1.708 -2.4144  1.2925 -2.0407
 4319SOL    HW317049   0.359   0.178   1.649  3.4263 -1.1555  1.6073
 4319SOL    MW417050   0.315   0.144   1.717 -0.2829 -0.1623 -0.0523
 4320SOL     OW17051   3.445   4.653   5.051  0.0196  0.2553 -0.0898
 4320SOL    HW217052   3.444   4.564   5.087 -0.4649  1.4542  3.2394
 4320SOL    HW317053   3.353   4.680   5.055  0.4090  1.5209  0.7957
 4320SOL    MW417054   3.433   4.645   5.056  0.0070  0.5804  0.4662
 4321SOL     OW17055   3.244   0.531   4.010 -0.2177  0.1214 -0.1091
 4321SOL    HW217056   3.269   0.493   4.094  1.2858 -3.1315 -1.8334
 4321SOL    HW317057   3.153   0.503   3.998 -0.7244  1.3314  0.7581
 4321SOL    MW417058   3.235   0.522   4.019 -0.0862 -0.1481 -0.2222
 4322SOL     OW17059   4.461   6.264   2.393 -0.1966  0.3793  0.1764
 4322SOL    HW217060   4.521   6.196   2.361  0.5050  0.6175  0.9354
 4322SOL    HW317061   4.405   6.284   2.319  1.4902  1.0559 -0.9710
 4322SOL    MW417062   4.462   6.258   2.379  0.1185  0.5000  0.1251
 4323SOL     OW17063   3.053   3.790   6.344 -0.0362 -0.0937  0.4777
 4323SOL    HW217064   3.016   3.704   6.364  1.4379 -0.6801  0.7981
 4323SOL    HW317065   3.059   3.834   6.429  3.5701 -1.5115  1.1426
 4323SOL    MW417066   3.049   3.784   6.358  0.6341 -0.3581  0.6077
 4324SOL     OW17067   3.440   2.446   3.310  0.3086 -0.3979  0.8181
 4324SOL    HW217068   3.513   2.396   3.274 -0.3407 -2.4079  2.0879
 4324SOL    HW317069   3.366   2.424   3.255 -0.0662 -1.2193  1.6154
 4324SOL    MW417070   3.440   2.436   3.298  0.1735 -0.7714  1.0908
 4325SOL     OW17071   3.987   4.196   2.664 -0.1759  0.3846 -0.4711
 4325SOL    HW217072   4.024   4.144   2.592  0.2980  0.4679 -0.2902
 4325SOL    HW317073   3.956   4.131   2.727  2.1315  0.2774  0.6458
 4325SOL    MW417074   3.988   4.180   2.663  0.1911  0.3814 -0.2999
 4326SOL     OW17075   4.371   0.294   1.599  0.1056  0.4474 -0.3086
 4326SOL    HW217076   4.447   0.288   1.541  1.5644 -0.4918  1.6016
 4326SOL    HW317077   4.357   0.388   1.611  1.8764  0.6458  0.4088
 4326SOL    MW417078   4.379   0.306   1.593  0.5317  0.3497  0.0381
 4327SOL     OW17079   4.126   1.946   4.995  0.3246 -0.3686 -0.3475
 4327SOL    HW217080   4.111   1.903   5.079 -2.6311 -0.4359 -0.7882
 4327SOL    HW317081   4.160   2.032   5.018  0.1908 -0.6286  0.8915
 4327SOL    MW417082   4.129   1.952   5.009 -0.0830 -0.4118 -0.2422
 4328SOL     OW17083   3.660   3.914   6.283  0.0375  0.4615 -0.2849
 4328SOL    HW217084   3.595   3.928   6.213 -0.6216  0.8018  0.3822
 4328SOL    HW317085   3.662   3.997   6.330 -1.7712 -0.6437  1.9572
 4328SOL    MW417086   3.652   3.927   6.280 -0.2881  0.3606  0.0989
 4329SOL     OW17087   3.680   1.411   2.066 -0.1766  0.0936 -0.3039
 4329SOL    HW217088   3.621   1.481   2.094 -1.3434 -0.4018 -1.4195
 4329SOL    HW317089   3.683   1.418   1.971  1.1248 -0.2663 -0.3046
 4329SOL    MW417090   3.672   1.421   2.057 -0.1588 -0.0193 -0.4512
 4330SOL     OW17091   2.608   4.219   5.384  0.0645  0.2010 -0.2012
 4330SOL    HW217092   2.546   4.177   5.325  0.5710 -2.4653  0.9676
 4330SOL    HW317093   2.590   4.179   5.469  1.2467  1.7753  0.8459
 4330SOL    MW417094   2.598   4.208   5.388  0.2873  0.0569  0.0911
 4331SOL     OW17095   6.370   5.329   3.610  0.0395  0.4229  0.2710
 4331SOL    HW217096   6.418   5.410   3.594  2.2460 -1.1932 -2.1418
 4331SOL    HW317097   6.434   5.272   3.654 -1.2097 -0.2835  1.2232
 4331SOL    MW417098   6.385   5.332   3.614  0.1658  0.1164  0.0783
 4332SOL     OW17099   2.990   0.302   1.486  0.0477  0.8935 -0.0461
 4332SOL    HW217100   3.005   0.392   1.513 -2.4898  1.3711 -0.0538
 4332SOL    HW317101   2.913   0.305   1.430  1.2463 -1.0031 -1.9924
 4332SOL    MW417102   2.982   0.314   1.482 -0.1290  0.7063 -0.3039
 4333SOL     OW17103   2.603   3.481   0.887  0.2783 -0.0830  0.4895
 4333SOL    HW217104   2.674   3.536   0.854 -0.6481  0.4686 -0.6826
 4333SOL    HW317105   2.591   3.508   0.978  1.7064 -0.3614  0.7910
 4333SOL    MW417106   2.611   3.491   0.895  0.3445 -0.0470  0.3746
 4334SOL     OW17107   3.891   5.709   2.143 -0.1304 -0.7842  0.1628
 4334SOL    HW217108   3.921   5.620   2.161  0.3402 -0.6496  0.0720
 4334SOL    HW317109   3.891   5.715   2.047  0.7829 -0.3778  0.1842
 4334SOL    MW417110   3.895   5.698   2.133  0.0522 -0.7128  0.1537
 4335SOL     OW17111   4.683   3.406   1.116 -0.8257 -0.5650  0.0211
 4335SOL    HW217112   4.588   3.414   1.128 -1.1446 -3.4616  0.3473
 4335SOL    HW317113   4.692   3.374   1.026 -0.2233 -0.9699  0.2231
 4335SOL    MW417114   4.672   3.403   1.106 -0.7883 -1.0006  0.0908
 4336SOL     OW17115   2.666   5.038   2.853 -0.2204 -0.4425 -0.5215
 4336SOL    HW217116   2.742   5.095   2.843  1.1859 -2.3696 -1.3628
 4336SOL    HW317117   2.672   5.005   2.942  0.1834 -0.8960 -0.7102
 4336SOL    MW417118   2.677   5.041   2.863  0.0184 -0.7566 -0.6574
 4337SOL     OW17119   2.620   3.759   5.587 -0.0331 -0.8671  0.2685
 4337SOL    HW217120   2.550   3.695   5.592  0.1889 -1.0514  1.0701
 4337SOL    HW317121   2.619   3.804   5.671  0.6933 -0.7517  0.2232
 4337SOL    MW417122   2.611   3.757   5.599  0.0920 -0.8762  0.3683
 4338SOL     OW17123   0.580   3.060   0.709  0.7586  0.2779 -0.2963
 4338SOL    HW217124   0.671   3.082   0.690  0.3273  1.8576 -0.7105
 4338SOL    HW317125   0.535   3.069   0.625  0.2524 -0.7817 -0.1608
 4338SOL    MW417126   0.586   3.064   0.696  0.6349  0.3465 -0.3331
 4339SOL     OW17127   3.958   5.993   1.617 -0.0126  0.1058 -0.5145
 4339SOL    HW217128   3.921   6.072   1.576  0.4380 -0.2327 -1.6303
 4339SOL    HW317129   3.947   5.925   1.550 -2.7367 -1.4713  1.3575
 4339SOL    MW417130   3.952   5.995   1.602 -0.3126 -0.1469 -0.4147
 4340SOL     OW17131   1.813   1.061   3.845 -0.0373  0.5440 -0.5212
 4340SOL    HW217132   1.722   1.082   3.867 -0.5111 -0.7810 -1.1024
 4340SOL    HW317133   1.852   1.146   3.822 -0.5564  1.4106  1.5978
 4340SOL    MW417134   1.806   1.075   3.845 -0.1683  0.4835 -0.3183
 4341SOL     OW17135   2.742   0.428   5.718 -0.3383 -0.4203  0.1771
 4341SOL    HW217136   2.804   0.495   5.690 -0.9164 -0.7968 -2.1730
 4341SOL    HW317137   2.751   0.426   5.813  2.2966  0.4421  0.0283
 4341SOL    MW417138   2.751   0.437   5.727 -0.0669 -0.3562 -0.1526
 4342SOL     OW17139   5.431   2.294   4.372  0.4526 -0.5144  0.5962
 4342SOL    HW217140   5.517   2.304   4.414  0.5536 -1.8751  0.7324
 4342SOL    HW317141   5.442   2.336   4.286  2.0397 -2.7905 -0.4024
 4342SOL    MW417142   5.444   2.301   4.366  0.6753 -0.9942  0.4824
 4343SOL     OW17143   3.027   4.005   2.595 -0.0485  0.1476 -0.1239
 4343SOL    HW217144   3.109   4.020   2.547 -0.3884  1.2735 -0.3955
 4343SOL    HW317145   3.055   3.976   2.682  0.6875  1.4100  0.0952
 4343SOL    MW417146   3.042   4.003   2.600  0.0038  0.4627 -0.1309
 4344SOL     OW17147   0.205   2.059   5.725 -0.4121  0.6662  0.3317
 4344SOL    HW217148   0.112   2.080   5.728 -0.5157  0.2811 -0.2190
 4344SOL    HW317149   0.240   2.093   5.808 -1.1681  0.1721  0.8536
 4344SOL    MW417150   0.198   2.067   5.736 -0.5255  0.5502  0.3279
 4345SOL     OW17151   5.771   2.319   1.138  0.0819 -0.5229  0.0812
 4345SOL    HW217152   5.751   2.242   1.085 -0.7507 -0.0309 -0.3592
 4345SOL    HW317153   5.862   2.340   1.117  0.4385 -1.5850  0.4880
 4345SOL    MW417154   5.780   2.312   1.128  0.0191 -0.5981  0.0768
 4346SOL     OW17155   3.007   1.651   6.220  0.2998 -0.1678 -0.3948
 4346SOL    HW217156   3.069   1.708   6.267  0.5390  0.0132 -0.9239
 4346SOL    HW317157   3.032   1.659   6.128 -0.1673 -0.5219 -0.5560
 4346SOL    MW417158   3.019   1.660   6.214  0.2697 -0.1906 -0.4859
 4347SOL     OW17159   3.107   2.119   5.351 -0.3911  0.1952 -0.4838
 4347SOL    HW217160   3.069   2.179   5.287 -1.0467  0.3355  0.0217
 4347SOL    HW317161   3.183   2.167   5.386 -0.9548  0.7837 -0.0284
 4347SOL    MW417162   3.112   2.133   5.347 -0.5520  0.2913 -0.3570
 4348SOL     OW17163   4.763   5.483   1.714 -0.9466 -0.0818  0.0866
 4348SOL    HW217164   4.772   5.546   1.786 -0.8757 -2.5271  2.3692
 4348SOL    HW317165   4.725   5.534   1.642  1.6484  3.2102  0.7799
 4348SOL    MW417166   4.759   5.498   1.714 -0.5949  0.0299  0.4793
 4349SOL     OW17167   3.826   3.725   2.329 -0.6860 -0.1821  0.3054
 4349SOL    HW217168   3.823   3.753   2.238  1.0568  1.0061  0.5520
 4349SOL    HW317169   3.755   3.662   2.338  0.1330 -1.5773 -2.2821
 4349SOL    MW417170   3.816   3.721   2.318 -0.3480 -0.2094 -0.0035
 4350SOL     OW17171   6.226   2.532   3.388 -0.4054  0.3845  0.2860
 4350SOL    HW217172   6.141   2.499   3.358 -0.1980 -0.1510  0.2855
 4350SOL    HW317173   6.273   2.454   3.417 -0.1838  0.7707  0.9699
 4350SOL    MW417174   6.221   2.518   3.388 -0.3488  0.3648  0.3762
 4351SOL     OW17175   6.305   4.040   1.613  0.4938  0.5462  0.0404
 4351SOL    HW217176   6.292   4.062   1.520 -0.0989  1.6587  0.3723
 4351SOL    HW317177   6.218   4.012   1.642  0.9746 -1.2471 -0.0726
 4351SOL    MW417178   6.292   4.039   1.604  0.4790  0.4564  0.0693
 4352SOL     OW17179   2.545   5.201   1.010 -0.6938 -0.0955 -0.1296
 4352SOL    HW217180   2.540   5.109   0.984  1.2526 -0.1535 -0.4272
 4352SOL    HW317181   2.522   5.250   0.931  0.5312 -0.3163 -0.6345
 4352SOL    MW417182   2.541   5.195   0.997 -0.2754 -0.1323 -0.2355
 4353SOL     OW17183   2.107   6.156   4.144  0.3227 -0.0591 -0.2648
 4353SOL    HW217184   2.060   6.073   4.142 -0.0297  0.1437 -0.3152
 4353SOL    HW317185   2.043   6.220   4.176  0.4926  0.2589 -0.5523
 4353SOL    MW417186   2.093   6.153   4.148  0.2986  0.0096 -0.3094
 4354SOL     OW17187   6.075   5.953   4.299  0.4299 -0.0009  0.4039
 4354SOL    HW217188   6.096   5.982   4.210 -0.7766 -1.2385 -0.3247
 4354SOL    HW317189   6.133   5.878   4.313 -0.3803 -0.7109  0.0701
 4354SOL    MW417190   6.086   5.947   4.289  0.1638 -0.2578  0.2638
 4355SOL     OW17191   1.746   0.219   4.520  0.6043  0.0517  0.0680
 4355SOL    HW217192   1.661   0.222   4.476  1.4258  0.5657 -1.5549
 4355SOL    HW317193   1.807   0.189   4.452  2.0379  1.5070  0.6548
 4355SOL    MW417194   1.743   0.215   4.505  0.9018  0.3115 -0.0687
 4356SOL     OW17195   1.514   2.222   5.688 -0.3300  0.0692  0.1871
 4356SOL    HW217196   1.513   2.128   5.669  0.3324  0.2083 -0.5903
 4356SOL    HW317197   1.437   2.257   5.642 -0.8875 -0.1619  0.9227
 4356SOL    MW417198   1.504   2.214   5.679 -0.3161  0.0570  0.1816
 4357SOL     OW17199   5.609   3.430   3.047 -0.2926  0.3681 -0.1400
 4357SOL    HW217200   5.543   3.470   2.990 -1.4372 -3.2327 -1.5935
 4357SOL    HW317201   5.592   3.467   3.133 -4.2222 -0.2790 -0.4695
 4357SOL    MW417202   5.598   3.440   3.051 -0.9621 -0.1923 -0.3752
 4358SOL     OW17203   3.266   2.749   1.285 -0.0656 -0.1294 -0.0791
 4358SOL    HW217204   3.354   2.719   1.263  0.0282  0.2751 -0.2644
 4358SOL    HW317205   3.279   2.836   1.322 -0.3979 -0.0141 -0.2319
 4358SOL    MW417206   3.279   2.756   1.287 -0.0971 -0.0608 -0.1237
 4359SOL     OW17207   1.249   4.414   5.323  0.0746  0.1285  0.1894
 4359SOL    HW217208   1.285   4.359   5.254 -0.3582 -1.5426  1.2516
 4359SOL    HW317209   1.321   4.429   5.383  0.2350  0.9098 -0.1751
 4359SOL    MW417210   1.263   4.409   5.322  0.0387  0.0111  0.2814
 4360SOL     OW17211   5.660   3.365   1.578  0.4802  0.2106 -0.0626
 4360SOL    HW217212   5.601   3.301   1.617 -0.8008  1.3273 -0.1162
 4360SOL    HW317213   5.611   3.404   1.506  1.4029  0.9193 -0.3406
 4360SOL    MW417214   5.646   3.362   1.574  0.4329  0.4514 -0.1063
 4361SOL     OW17215   1.900   3.260   3.176  0.0599  0.4961 -0.3661
 4361SOL    HW217216   1.994   3.270   3.188  0.2753 -0.5144 -1.0913
 4361SOL    HW317217   1.865   3.348   3.186  1.1321  0.9560 -0.5510
 4361SOL    MW417218   1.908   3.273   3.179  0.2298  0.4235 -0.4862
 4362SOL     OW17219   1.319   1.245   1.055 -0.0999  0.0771 -0.0771
 4362SOL    HW217220   1.229   1.252   1.025 -0.6802 -0.8517  1.3392
 4362SOL    HW317221   1.329   1.153   1.081  0.9305  0.4038  0.7711
 4362SOL    MW417222   1.309   1.234   1.054 -0.0405 -0.0023  0.2217
 4363SOL     OW17223   0.464   3.913   2.813  0.3563 -0.2062 -0.2837
 4363SOL    HW217224   0.531   3.980   2.817  0.6040 -0.4088 -0.8310
 4363SOL    HW317225   0.481   3.867   2.730 -0.0501 -0.6817 -0.1119
 4363SOL    MW417226   0.475   3.916   2.802  0.3354 -0.2956 -0.3332
 4364SOL     OW17227   4.506   4.955   3.100  0.3238 -0.5689  0.1041
 4364SOL    HW217228   4.480   4.884   3.042  0.7726 -0.9938  0.4135
 4364SOL    HW317229   4.557   4.912   3.169 -2.6193 -0.5453  2.5119
 4364SOL    MW417230   4.510   4.940   3.101 -0.0053 -0.6218  0.4626
 4365SOL     OW17231   3.477   2.301   6.182 -0.5484  0.2256  0.1647
 4365SOL    HW217232   3.525   2.382   6.162 -0.7525  0.1208 -0.8032
 4365SOL    HW317233   3.482   2.293   6.277  0.7071  0.6131  0.1437
 4365SOL    MW417234   3.484   2.311   6.192 -0.4097  0.2629  0.0342
 4366SOL     OW17235   4.185   0.113   5.424  0.4912  0.4222  0.1688
 4366SOL    HW217236   4.113   0.105   5.487  1.7608  2.2920  1.9924
 4366SOL    HW317237   4.236   0.187   5.456  2.5803 -0.1067 -1.7286
 4366SOL    MW417238   4.182   0.122   5.437  0.9343  0.5991  0.1590
 4367SOL     OW17239   5.868   1.302   3.057 -0.1126 -0.0472  0.6584
 4367SOL    HW217240   5.784   1.325   3.095 -0.9452  0.8951 -1.6176
 4367SOL    HW317241   5.864   1.207   3.045 -1.9292  0.2507 -1.6908
 4367SOL    MW417242   5.857   1.292   3.061 -0.4622  0.1164  0.0482
 4368SOL     OW17243   4.416   0.693   4.097 -0.4295 -0.5180  0.0556
 4368SOL    HW217244   4.391   0.776   4.136 -2.9032 -0.9529 -0.4485
 4368SOL    HW317245   4.342   0.634   4.114  0.3895 -2.0446 -1.2825
 4368SOL    MW417246   4.403   0.696   4.104 -0.6479 -0.7768 -0.1874
 4369SOL     OW17247   3.377   6.294   5.987  0.0253  0.3190 -0.3233
 4369SOL    HW217248   3.357   6.388   5.985 -1.9314 -0.0628 -0.3188
 4369SOL    HW317249   3.369   6.267   5.895  0.4922  0.1194 -0.3082
 4369SOL    MW417250   3.373   6.303   5.974 -0.1713  0.2423 -0.3207
 4370SOL     OW17251   5.380   4.905   0.045 -0.0513 -0.5649  0.2320
 4370SOL    HW217252   5.399   4.952   0.126  1.6912 -0.2861 -0.3031
 4370SOL    HW317253   5.432   4.825   0.050  0.5147 -0.2793 -0.8448
 4370SOL    MW417254   5.389   4.901   0.057  0.2533 -0.4904  0.0193
 4371SOL     OW17255   2.099   4.585   2.260 -0.3063  0.2407 -0.5693
 4371SOL    HW217256   2.098   4.636   2.341  3.5336  0.1291 -0.2479
 4371SOL    HW317257   2.077   4.649   2.192 -0.3221  1.1439  0.2588
 4371SOL    MW417258   2.096   4.600   2.262  0.1983  0.3451 -0.4177
 4372SOL     OW17259   5.117   3.084   0.402  0.2568 -0.4282  0.5499
 4372SOL    HW217260   5.041   3.027   0.393 -0.1754  0.1927  0.1689
 4372SOL    HW317261   5.189   3.025   0.424  0.0230 -1.2452 -0.7568
 4372SOL    MW417262   5.116   3.069   0.403  0.1689 -0.4541  0.3272
 4373SOL     OW17263   3.282   3.059   0.845  0.0987  0.1392 -0.1243
 4373SOL    HW217264   3.237   3.104   0.917 -0.8977 -0.8501 -0.0959
 4373SOL    HW317265   3.213   3.043   0.780 -0.0456 -2.9066  0.6412
 4373SOL    MW417266   3.267   3.063   0.846 -0.0518 -0.3932 -0.0195
 4374SOL     OW17267   0.907   0.100   6.267  1.0406  0.3194  0.0567
 4374SOL    HW217268   0.918   0.027   6.205  2.9357 -0.3155  1.0699
 4374SOL    HW317269   0.890   0.057   6.351  2.0066  1.0471  0.6342
 4374SOL    MW417270   0.906   0.084   6.270  1.4181  0.3316  0.2666
 4375SOL     OW17271   2.672   5.139   3.358  0.4237 -0.1987  0.0258
 4375SOL    HW217272   2.669   5.158   3.452  0.2720  0.9193 -0.1899
 4375SOL    HW317273   2.585   5.163   3.326  0.5857 -0.2374 -0.4542
 4375SOL    MW417274   2.660   5.145   3.366  0.4251 -0.0563 -0.0660
 4376SOL     OW17275   1.587   4.332   4.396 -0.1958 -0.2117  0.3994
 4376SOL    HW217276   1.543   4.414   4.372 -1.1074 -0.5005  1.0622
 4376SOL    HW317277   1.529   4.263   4.364  1.4157 -0.6586 -1.7742
 4376SOL    MW417278   1.574   4.334   4.389 -0.1035 -0.3087  0.2001
 4377SOL     OW17279   3.175   4.264   5.778  0.0819 -0.2394  0.1680
 4377SOL    HW217280   3.106   4.311   5.825  0.1300 -0.4275  0.4283
 4377SOL    HW317281   3.137   4.245   5.692 -0.0627 -0.0305  0.1871
 4377SOL    MW417282   3.161   4.267   5.772  0.0691 -0.2367  0.2049
 4378SOL     OW17283   5.593   6.198   4.763  0.5404 -0.0334  0.2157
 4378SOL    HW217284   5.502   6.224   4.757  0.1890 -0.3943  2.9018
 4378SOL    HW317285   5.593   6.105   4.738 -0.1644 -0.5233  1.9287
 4378SOL    MW417286   5.581   6.189   4.759  0.4011 -0.1456  0.7961
 4379SOL     OW17287   2.698   4.897   0.114 -0.4184 -0.2441 -0.2669
 4379SOL    HW217288   2.720   4.927   0.202  0.9421  0.3070 -0.7557
 4379SOL    HW317289   2.630   4.831   0.127 -1.4348  1.0112  1.0619
 4379SOL    MW417290   2.692   4.892   0.127 -0.3730 -0.0057 -0.1561
 4380SOL     OW17291   3.273   3.966   1.249  0.3857 -0.6377 -0.0208
 4380SOL    HW217292   3.344   4.013   1.205  1.2871 -0.5798  1.4209
 4380SOL    HW317293   3.200   3.970   1.188  0.7096  1.8530 -0.3589
 4380SOL    MW417294   3.273   3.973   1.235  0.5474 -0.3014  0.1248
 4381SOL     OW17295   0.186   1.836   1.305  0.3963 -0.1374 -0.0014
 4381SOL    HW217296   0.226   1.780   1.373  1.1991 -0.1094 -0.4386
 4381SOL    HW317297   0.092   1.829   1.321  0.0835 -4.5219 -2.1782
 4381SOL    MW417298   0.179   1.828   1.316  0.4609 -0.7122 -0.3463
 4382SOL     OW17299   3.868   5.556   0.855  0.2538  0.2825 -0.0338
 4382SOL    HW217300   3.948   5.597   0.821  1.0791 -0.1193  1.3677
 4382SOL    HW317301   3.866   5.469   0.814  0.7968  0.1111  0.3014
 4382SOL    MW417302   3.878   5.550   0.845  0.4343  0.2068  0.1953
 4383SOL     OW17303   5.152   1.512   5.999  0.6405  0.0982 -0.3787
 4383SOL    HW217304   5.115   1.560   5.926 -0.5615 -0.4178 -0.1295
 4383SOL    HW317305   5.101   1.431   6.003  1.4623 -0.4040  0.3011
 4383SOL    MW417306   5.141   1.508   5.990  0.5903 -0.0361 -0.2562
 4384SOL     OW17307   2.427   3.340   0.374  0.2199 -0.0099 -0.1153
 4384SOL    HW217308   2.380   3.369   0.453 -0.7682  0.8712 -0.9978
 4384SOL    HW317309   2.445   3.247   0.390 -0.3770  0.0349  0.9457
 4384SOL    MW417310   2.423   3.331   0.387  0.0108  0.1122 -0.0917
 4385SOL     OW17311   5.634   4.825   1.106 -0.4163  0.5103 -0.1781
 4385SOL    HW217312   5.584   4.904   1.126 -1.5165  0.4782 -2.5158
 4385SOL    HW317313   5.679   4.804   1.188 -2.1401  2.0540  1.2494
 4385SOL    MW417314   5.633   4.833   1.120 -0.7889  0.7097 -0.2982
 4386SOL     OW17315   4.276   4.651   6.334  1.0123  0.5159 -0.1520
 4386SOL    HW217316   4.233   4.620   6.414  0.8519  0.0247 -0.4260
 4386SOL    HW317317   4.364   4.613   6.337  0.8407  0.0874 -0.4510
 4386SOL    MW417318   4.282   4.642   6.345  0.9685  0.3946 -0.2276
 4387SOL     OW17319   2.137   0.725   3.134 -0.0436 -0.1965  0.0268
 4387SOL    HW217320   2.154   0.779   3.057 -0.1114 -0.6834 -0.3337
 4387SOL    HW317321   2.124   0.637   3.099 -1.5077 -0.1737  0.4563
 4387SOL    MW417322   2.138   0.721   3.119 -0.2457 -0.2577  0.0359
 4388SOL     OW17323   0.859   3.496   2.318 -0.4317  0.2100 -0.5041
 4388SOL    HW217324   0.933   3.547   2.285  0.4663 -0.2717  0.6802
 4388SOL    HW317325   0.849   3.424   2.256  1.5052 -0.9359  0.4010
 4388SOL    MW417326   0.867   3.493   2.305 -0.0577 -0.0048 -0.2285
 4389SOL     OW17327   4.866   1.513   1.489  0.1290  0.1261 -0.3593
 4389SOL    HW217328   4.795   1.551   1.540 -1.5011 -1.1981 -1.4907
 4389SOL    HW317329   4.922   1.470   1.553 -0.0578  1.2264  0.5677
 4389SOL    MW417330   4.864   1.512   1.504 -0.1107  0.0966 -0.3863
 4390SOL     OW17331   4.816   1.830   2.593  0.0143  0.3617 -0.0704
 4390SOL    HW217332   4.738   1.882   2.573 -0.4870 -0.9883 -1.8416
 4390SOL    HW317333   4.886   1.870   2.543 -0.2691 -0.3488 -1.0572
 4390SOL    MW417334   4.815   1.842   2.584 -0.0892  0.0899 -0.4343
 4391SOL     OW17335   5.421   3.962   1.912 -0.4759  0.6799 -0.5306
 4391SOL    HW217336   5.425   4.031   1.978 -2.2836  0.8859 -0.5899
 4391SOL    HW317337   5.420   3.880   1.962  0.7260  0.7016 -0.4312
 4391SOL    MW417338   5.422   3.960   1.928 -0.5558  0.7100 -0.5253
 4392SOL     OW17339   4.321   1.627   0.381 -0.6017  0.0857 -0.0911
 4392SOL    HW217340   4.323   1.539   0.343 -3.6683 -0.0105 -0.2587
 4392SOL    HW317341   4.288   1.614   0.470  0.1871  0.9784  0.3587
 4392SOL    MW417342   4.317   1.614   0.388 -0.9022  0.1908 -0.0539
 4393SOL     OW17343   2.092   6.115   3.367 -0.2365 -0.0811 -0.6182
 4393SOL    HW217344   2.109   6.088   3.457 -1.4655  0.7935 -0.0832
 4393SOL    HW317345   2.119   6.041   3.314  2.1222  0.0059  0.3094
 4393SOL    MW417346   2.098   6.102   3.372 -0.0875  0.0458 -0.4252
 4394SOL     OW17347   0.904   5.868   3.208  0.1795 -0.3093  0.0848
 4394SOL    HW217348   0.985   5.906   3.239 -0.5511 -0.1661  1.9359
 4394SOL    HW317349   0.842   5.941   3.204 -0.9444 -1.0192  2.6728
 4394SOL    MW417350   0.906   5.882   3.211 -0.0652 -0.3841  0.6705
 4395SOL     OW17351   2.186   2.706   4.788 -0.1821 -0.4191  0.2582
 4395SOL    HW217352   2.149   2.674   4.705 -0.3832 -1.0010  0.5654
 4395SOL    HW317353   2.133   2.663   4.855 -0.5403  0.6565  0.6924
 4395SOL    MW417354   2.174   2.696   4.786 -0.2559 -0.3540  0.3560
 4396SOL     OW17355   0.320   0.931   4.732  0.2967 -0.6258 -0.4341
 4396SOL    HW217356   0.366   1.005   4.770 -0.3451  0.1924 -1.1967
 4396SOL    HW317357   0.240   0.923   4.785  0.4415 -0.8684 -0.2541
 4396SOL    MW417358   0.315   0.940   4.744  0.2311 -0.5499 -0.5110
 4397SOL     OW17359   5.367   3.897   4.862 -0.3140 -0.0961 -0.2520
 4397SOL    HW217360   5.307   3.963   4.896  0.4363  0.3170  0.2753
 4397SOL    HW317361   5.319   3.814   4.871 -0.0988 -0.0236  1.9601
 4397SOL    MW417362   5.353   3.895   4.867 -0.1866 -0.0320  0.1094
 4398SOL     OW17363   3.008   3.856   5.458 -0.3529  0.0836 -0.2795
 4398SOL    HW217364   3.083   3.861   5.516 -0.2898 -1.1316 -0.2313
 4398SOL    HW317365   2.993   3.947   5.430  0.4061  0.4953  0.6065
 4398SOL    MW417366   3.016   3.869   5.462 -0.2444 -0.0224 -0.1562
 4399SOL     OW17367   5.383   1.221   6.163 -0.5198  0.1506  0.5314
 4399SOL    HW217368   5.438   1.255   6.092  0.2090 -0.1984  0.9121
 4399SOL    HW317369   5.426   1.140   6.190 -1.6657 -0.5560  0.3170
 4399SOL    MW417370   5.396   1.214   6.157 -0.5748  0.0114  0.5534
 4400SOL     OW17371   5.151   1.109   4.583  0.2103 -0.4019  0.2730
 4400SOL    HW217372   5.209   1.168   4.630 -0.9410  1.7345 -0.8337
 4400SOL    HW317373   5.182   1.021   4.606 -0.6607  0.3593  5.4570
 4400SOL    MW417374   5.163   1.105   4.592 -0.0565 -0.0196  0.8110
 4401SOL     OW17375   2.146   0.201   2.786  0.0096  0.0490 -0.1473
 4401SOL    HW217376   2.161   0.202   2.880 -0.7191  2.1597  0.0050
 4401SOL    HW317377   2.206   0.267   2.751 -0.1759 -0.2542 -1.0798
 4401SOL    MW417378   2.156   0.210   2.794 -0.1110  0.2875 -0.2503
 4402SOL     OW17379   3.575   1.226   2.987 -0.2318 -0.6556  0.0867
 4402SOL    HW217380   3.611   1.292   2.928  2.9286 -1.1686  1.2654
 4402SOL    HW317381   3.482   1.248   2.993  0.3938  2.8023 -0.6879
 4402SOL    MW417382   3.567   1.237   2.980  0.2677 -0.2671  0.1400
 4403SOL     OW17383   2.216   0.079   1.811 -0.2643  0.0464 -0.6097
 4403SOL    HW217384   2.251  -0.007   1.787 -0.2635 -0.9958  2.6761
 4403SOL    HW317385   2.134   0.060   1.857  0.3651  1.6688  1.3013
 4403SOL    MW417386   2.210   0.065   1.814 -0.1812  0.1229  0.0760
 4404SOL     OW17387   4.876   5.319   1.380  0.1886 -0.5355 -0.1342
 4404SOL    HW217388   4.905   5.328   1.470  0.0334 -0.5424 -0.0836
 4404SOL    HW317389   4.787   5.356   1.379  0.4222  0.0367 -0.4146
 4404SOL    MW417390   4.868   5.325   1.392  0.1990 -0.4609 -0.1645
 4405SOL     OW17391   1.583   1.218   1.021  0.2347 -0.2424  0.0569
 4405SOL    HW217392   1.488   1.229   1.021  0.2949  0.2985 -0.0694
 4405SOL    HW317393   1.608   1.224   0.929  0.2133 -2.0642 -0.1006
 4405SOL    MW417394   1.574   1.221   1.009  0.2398 -0.4114  0.0194
 4406SOL     OW17395   2.647   1.848   1.682  0.2318  1.0376  0.5224
 4406SOL    HW217396   2.729   1.895   1.699  1.0045  0.7805 -2.1145
 4406SOL    HW317397   2.588   1.915   1.648  0.6223  0.5881 -1.1417
 4406SOL    MW417398   2.650   1.863   1.680  0.3853  0.9443 -0.0451
 4407SOL     OW17399   4.464   2.435   2.870  0.0183  0.3009  0.0234
 4407SOL    HW217400   4.431   2.346   2.865  1.0031 -0.2371  1.9952
 4407SOL    HW317401   4.538   2.437   2.809  0.7501 -0.6132  0.8575
 4407SOL    MW417402   4.469   2.424   2.861  0.2448  0.1093  0.3936
 4408SOL     OW17403   0.441   2.097   4.193 -0.6399  0.1117 -0.1558
 4408SOL    HW217404   0.409   2.007   4.179  2.5261 -1.0924 -0.3269
 4408SOL    HW317405   0.411   2.119   4.282 -1.6964 -0.9623 -0.2155
 4408SOL    MW417406   0.433   2.088   4.203 -0.3616 -0.1888 -0.1863
 4409SOL     OW17407   1.236   0.353   5.481  0.2730 -0.1376  0.2700
 4409SOL    HW217408   1.325   0.368   5.450  0.3715 -0.2200  0.5084
 4409SOL    HW317409   1.242   0.363   5.576 -0.3189  1.7169  0.1686
 4409SOL    MW417410   1.248   0.357   5.489  0.2079  0.0962  0.2881
 4410SOL     OW17411   5.966   0.513   1.938  0.2023  0.5768  0.8906
 4410SOL    HW217412   5.890   0.540   1.887 -0.3662 -0.7109  1.0326
 4410SOL    HW317413   6.017   0.458   1.878  0.8475  1.1418  0.9098
 4410SOL    MW417414   5.963   0.509   1.923  0.2124  0.4815  0.9119
 4411SOL     OW17415   3.722   3.343   5.759  0.0365 -0.1536 -0.1385
 4411SOL    HW217416   3.787   3.276   5.742 -1.0670 -1.1455 -0.5837
 4411SOL    HW317417   3.723   3.354   5.854  0.6488 -0.3678 -0.1208
 4411SOL    MW417418   3.730   3.336   5.770 -0.0283 -0.3127 -0.1949
 4412SOL     OW17419   5.341   0.810   2.928 -0.1002  0.0347 -0.2838
 4412SOL    HW217420   5.365   0.738   2.987 -0.4941 -0.7924 -1.0904
 4412SOL    HW317421   5.423   0.857   2.914  0.0542  0.0792  0.6943
 4412SOL    MW417422   5.355   0.806   2.934 -0.1318 -0.0686 -0.2612
 4413SOL     OW17423   2.508   1.153   0.018 -0.1760 -0.5993  0.1763
 4413SOL    HW217424   2.554   1.235   0.000 -2.2341  0.4025 -0.8759
 4413SOL    HW317425   2.418   1.170  -0.011 -1.6587 -1.8921  3.5589
 4413SOL    MW417426   2.502   1.166   0.011 -0.6431 -0.6377  0.4837
 4414SOL     OW17427   1.856   2.393   3.981 -0.1325 -0.2017  0.1817
 4414SOL    HW217428   1.903   2.310   3.982 -0.3823 -0.3606 -0.4884
 4414SOL    HW317429   1.914   2.453   3.933  0.9064  0.5581  2.2810
 4414SOL    MW417430   1.870   2.390   3.975 -0.0284 -0.1224  0.3703
 4415SOL     OW17431   3.962   2.968   3.350  0.3630 -0.2167  0.1284
 4415SOL    HW217432   3.900   2.962   3.278 -0.1912  0.5076  0.5333
 4415SOL    HW317433   4.025   2.898   3.334 -0.7740 -1.2176 -0.0925
 4415SOL    MW417434   3.962   2.958   3.339  0.1398 -0.2532  0.1527
 4416SOL     OW17435   3.551   2.327   0.604  0.1991  0.2679 -0.0975
 4416SOL    HW217436   3.585   2.263   0.666  1.3315 -0.7887 -1.7477
 4416SOL    HW317437   3.516   2.275   0.532 -3.5417  1.3497  0.6896
 4416SOL    MW417438   3.551   2.312   0.603 -0.1451  0.2712 -0.2114
 4417SOL     OW17439   3.389   3.518   1.551  0.6205 -0.2822  0.7553
 4417SOL    HW217440   3.328   3.589   1.529 -0.3641 -1.5848 -0.9111
 4417SOL    HW317441   3.345   3.471   1.622  1.2446  0.6836  1.8187
 4417SOL    MW417442   3.375   3.521   1.557  0.5729 -0.3266  0.6757
 4418SOL     OW17443   6.276   1.738   2.080 -0.4160 -0.0910  0.5206
 4418SOL    HW217444   6.202   1.797   2.091  0.5430  1.3547 -0.4886
 4418SOL    HW317445   6.345   1.775   2.134  1.0056  1.2590 -1.9987
 4418SOL    MW417446   6.275   1.750   2.088 -0.1019  0.2779  0.0550
 4419SOL     OW17447   5.880   0.482   1.357 -0.2945 -0.2516  0.4830
 4419SOL    HW217448   5.923   0.549   1.304 -0.1522  0.7247  1.7984
 4419SOL    HW317449   5.814   0.445   1.299  1.5015 -0.9736 -1.2059
 4419SOL    MW417450   5.877   0.486   1.342 -0.0388 -0.2181  0.4338
 4420SOL     OW17451   3.466   6.204   0.324 -0.4007  0.6147  0.0518
 4420SOL    HW217452   3.482   6.292   0.290  2.3471  0.6984  1.3052
 4420SOL    HW317453   3.532   6.150   0.280 -0.7817 -0.4294  0.7431
 4420SOL    MW417454   3.477   6.209   0.313 -0.0885  0.4880  0.3084
 4421SOL     OW17455   1.027   4.690   4.345  0.0779  0.4199 -0.0668
 4421SOL    HW217456   0.967   4.630   4.302 -0.2988  0.5390  0.2903
 4421SOL    HW317457   1.114   4.661   4.317 -0.1563  0.5235 -0.9448
 4421SOL    MW417458   1.031   4.678   4.336 -0.0027  0.4493 -0.1355
 4422SOL     OW17459   0.320   5.705   1.495 -0.2237 -0.4964  0.3210
 4422SOL    HW217460   0.284   5.764   1.428  0.7770 -0.2032  0.0266
 4422SOL    HW317461   0.356   5.632   1.446 -0.8847 -1.0519  0.6504
 4422SOL    MW417462   0.320   5.703   1.480 -0.1789 -0.5310  0.3256
 4423SOL     OW17463   0.216   3.004   0.655  0.5053 -0.5077 -0.0261
 4423SOL    HW217464   0.165   2.933   0.616  1.7782 -1.1220 -0.6244
 4423SOL    HW317465   0.152   3.073   0.673 -0.5379 -1.2847 -0.6921
 4423SOL    MW417466   0.201   3.004   0.652  0.5356 -0.6913 -0.1929
 4424SOL     OW17467   0.934   3.453   1.134 -0.0468  0.0023  0.5384
 4424SOL    HW217468   0.878   3.518   1.091 -0.7860  0.4337  2.0549
 4424SOL    HW317469   0.959   3.495   1.217  0.3549 -1.2323  1.0590
 4424SOL    MW417470   0.930   3.467   1.140 -0.0913 -0.1037  0.8072
 4425SOL     OW17471   2.959   4.755   4.181  0.0049  0.0261 -0.1777
 4425SOL    HW217472   2.921   4.795   4.103 -0.5557 -0.3304 -0.0964
 4425SOL    HW317473   2.915   4.798   4.254 -1.5376 -1.5446 -0.0933
 4425SOL    MW417474   2.948   4.766   4.180 -0.2726 -0.2282 -0.1559
 4426SOL     OW17475   5.239   0.179   2.598  0.6300 -0.1569 -0.2026
 4426SOL    HW217476   5.315   0.165   2.542  1.1032 -0.5076  0.5196
 4426SOL    HW317477   5.164   0.166   2.539  1.0837 -1.9928 -0.4487
 4426SOL    MW417478   5.239   0.175   2.583  0.7523 -0.4454 -0.1398
 4427SOL     OW17479   1.755   3.686   2.413  0.2460 -0.2699  0.1555
 4427SOL    HW217480   1.710   3.742   2.476 -1.8233 -2.1702  0.4612
 4427SOL    HW317481   1.814   3.632   2.466  1.0534  0.4585  0.0308
 4427SOL    MW417482   1.757   3.686   2.428  0.0795 -0.4245  0.1794
 4428SOL     OW17483   2.011   5.605   4.705 -0.0250 -0.0172  0.0650
 4428SOL    HW217484   1.998   5.586   4.612  0.1910 -0.1133  0.0527
 4428SOL    HW317485   2.035   5.698   4.706  1.6821 -0.4187 -0.1541
 4428SOL    MW417486   2.013   5.615   4.693  0.2287 -0.0829  0.0345
 4429SOL     OW17487   1.259   0.696   1.405  0.1732  0.5720 -0.7369
 4429SOL    HW217488   1.327   0.760   1.383  0.3820  0.8782  0.6902
 4429SOL    HW317489   1.215   0.733   1.482  0.7934 -1.3048  0.6007
 4429SOL    MW417490   1.262   0.710   1.413  0.2825  0.3648 -0.3721
 4430SOL     OW17491   2.051   2.973   5.366  0.1230  0.0695 -0.0035
 4430SOL    HW217492   2.005   2.890   5.353 -2.9550  1.5200  0.6805
 4430SOL    HW317493   2.090   2.965   5.453  2.3029 -1.6244 -1.0500
 4430SOL    MW417494   2.050   2.961   5.376  0.0045  0.0374 -0.0513
 4431SOL     OW17495   1.090   3.616   2.184  0.3136 -0.0095 -0.6704
 4431SOL    HW217496   1.168   3.623   2.129 -0.5917 -0.9775 -2.1453
 4431SOL    HW317497   1.106   3.677   2.256  1.0419  2.2013 -2.5868
 4431SOL    MW417498   1.102   3.625   2.186  0.2902  0.1545 -1.1179
 4432SOL     OW17499   4.892   4.081   4.815 -0.0152  0.3986  0.3379
 4432SOL    HW217500   4.850   3.997   4.835 -0.0439  0.5488  0.9384
 4432SOL    HW317501   4.871   4.097   4.723  0.5240 -0.5545  0.0372
 4432SOL    MW417502   4.884   4.072   4.806  0.0521  0.2927  0.3775
 4433SOL     OW17503   6.133   0.078   2.497 -0.4645  0.3094  0.0527
 4433SOL    HW217504   6.074   0.099   2.426  0.6500  1.8910 -0.4666
 4433SOL    HW317505   6.157   0.163   2.534  1.3577 -0.2742  0.3170
 4433SOL    MW417506   6.129   0.092   2.493 -0.0771  0.4410  0.0190
 4434SOL     OW17507   2.509   3.386   2.052  0.1147 -0.3098 -0.6631
 4434SOL    HW217508   2.474   3.364   1.966 -1.5967  1.0881 -0.3813
 4434SOL    HW317509   2.581   3.447   2.033 -1.4012  1.4314 -1.1055
 4434SOL    MW417510   2.514   3.391   2.038 -0.3111  0.1044 -0.6843
 4435SOL     OW17511   3.174   4.530   6.089 -0.1822 -0.0068  0.3432
 4435SOL    HW217512   3.233   4.509   6.161 -0.0528 -0.7431  0.0275
 4435SOL    HW317513   3.093   4.482   6.109  0.2169 -1.0896 -0.5336
 4435SOL    MW417514   3.171   4.521   6.101 -0.1125 -0.2468  0.1859
 4436SOL     OW17515   0.304   5.178   0.409  0.4390  0.2491  0.0816
 4436SOL    HW217516   0.393   5.176   0.374 -0.1805  1.2989 -1.6986
 4436SOL    HW317517   0.262   5.252   0.365 -1.0862  0.3000  1.4923
 4436SOL    MW417518   0.310   5.188   0.398  0.1560  0.3944  0.0329
 4437SOL     OW17519   4.520   4.147   3.733  0.3074 -0.0882 -0.2194
 4437SOL    HW217520   4.446   4.194   3.773  0.3572  0.1290 -0.3786
 4437SOL    HW317521   4.582   4.216   3.711  0.9988 -0.3597  0.8220
 4437SOL    MW417522   4.518   4.163   3.736  0.4052 -0.0954 -0.1030
 4438SOL     OW17523   1.161   3.240   5.707 -0.0265 -0.2694  0.3715
 4438SOL    HW217524   1.080   3.249   5.657 -0.0341  0.8150  0.5543
 4438SOL    HW317525   1.231   3.251   5.642 -0.0294 -0.6035  0.3123
 4438SOL    MW417526   1.160   3.243   5.692 -0.0279 -0.1704  0.3878
 4439SOL     OW17527   4.764   5.516   5.803  0.0801  0.3827  0.2977
 4439SOL    HW217528   4.688   5.528   5.747  0.8827  1.0403 -0.6952
 4439SOL    HW317529   4.783   5.423   5.801 -1.2660  0.0520  1.3583
 4439SOL    MW417530   4.757   5.506   5.796  0.0084  0.4259  0.3067
 4440SOL     OW17531   1.554   4.599   1.923  0.1853 -0.1176 -0.1930
 4440SOL    HW217532   1.615   4.569   1.990  1.4739  0.2004 -1.1789
 4440SOL    HW317533   1.502   4.666   1.966  0.0690 -0.8516  0.8557
 4440SOL    MW417534   1.555   4.604   1.938  0.3400 -0.1725 -0.1847
 4441SOL     OW17535   2.791   4.035   5.776  0.3909  0.3886 -0.6015
 4441SOL    HW217536   2.771   4.050   5.684 -1.5660 -2.2163 -0.7353
 4441SOL    HW317537   2.860   3.968   5.775  0.4072  0.3973 -0.1723
 4441SOL    MW417538   2.798   4.028   5.764  0.1349  0.0461 -0.5625
 4442SOL     OW17539   6.087   2.830   0.675  0.5090 -0.0932 -0.3759
 4442SOL    HW217540   6.152   2.897   0.656  0.8519  0.2425  1.6952
 4442SOL    HW317541   6.093   2.817   0.770  0.1657 -2.7682 -0.6392
 4442SOL    MW417542   6.096   2.837   0.685  0.5090 -0.4019 -0.1374
 4443SOL     OW17543   3.879   2.585   2.427  0.4845  0.4446  0.0211
 4443SOL    HW217544   3.854   2.610   2.516 -1.1052  1.7044 -0.7323
 4443SOL    HW317545   3.933   2.658   2.397 -0.1398  0.6902 -0.5186
 4443SOL    MW417546   3.883   2.598   2.435  0.1924  0.6432 -0.1495
 4444SOL     OW17547   5.276   1.522   1.616  0.0886 -0.1525  0.4806
 4444SOL    HW217548   5.219   1.496   1.689 -0.6483  2.9621  1.1891
 4444SOL    HW317549   5.216   1.543   1.545  0.5369  0.3749  0.2464
 4444SOL    MW417550   5.261   1.522   1.616  0.0505  0.3280  0.5431
 4445SOL     OW17551   1.246   4.446   5.689 -0.1787 -0.2029  0.3957
 4445SOL    HW217552   1.302   4.417   5.761  0.5169 -1.1224 -0.4804
 4445SOL    HW317553   1.301   4.437   5.611 -0.9289  0.7182 -0.2684
 4445SOL    MW417554   1.261   4.441   5.688 -0.1859 -0.2027  0.1925
 4446SOL     OW17555   4.834   1.854   3.899 -0.1634  0.3278 -0.1335
 4446SOL    HW217556   4.826   1.769   3.944 -0.4818 -0.0826 -0.9394
 4446SOL    HW317557   4.881   1.909   3.960 -0.1674 -0.3651  0.5104
 4446SOL    MW417558   4.839   1.850   3.913 -0.2060  0.1822 -0.1549
 4447SOL     OW17559   2.202   2.461   2.393 -0.4108 -0.1955 -0.1961
 4447SOL    HW217560   2.210   2.475   2.487 -0.2773 -1.4769 -0.0037
 4447SOL    HW317561   2.245   2.537   2.354 -1.6542  1.0573  0.7434
 4447SOL    MW417562   2.209   2.473   2.400 -0.5572 -0.1993 -0.0467
 4448SOL     OW17563   1.814   0.081   5.605  0.3483 -0.4037  0.3189
 4448SOL    HW217564   1.759   0.128   5.542 -0.9872 -1.2757  0.8064
 4448SOL    HW317565   1.785  -0.010   5.600  2.0420 -0.9882  0.2995
 4448SOL    MW417566   1.803   0.075   5.596  0.3956 -0.5959  0.3806
 4449SOL     OW17567   4.390   0.368   0.816  0.2301  0.2318  0.1361
 4449SOL    HW217568   4.428   0.400   0.897  1.2047 -0.8972  0.1584
 4449SOL    HW317569   4.398   0.441   0.754  0.0373  0.8846  0.8758
 4449SOL    MW417570   4.396   0.382   0.818  0.3332  0.1690  0.2366
 4450SOL     OW17571   1.917   5.467   0.819  0.2755 -0.5279  0.4298
 4450SOL    HW217572   1.986   5.524   0.783  0.2235 -0.4072  0.5179
 4450SOL    HW317573   1.883   5.517   0.894 -0.1777 -0.4124  0.1516
 4450SOL    MW417574   1.922   5.481   0.825  0.2088 -0.4968  0.4047
 4451SOL     OW17575   3.481   6.424   1.914  0.1402 -0.1071 -0.1090
 4451SOL    HW217576   3.395   6.431   1.873  0.5108  1.2664 -0.6912
 4451SOL    HW317577   3.543   6.422   1.841  0.6654  0.0686  0.3215
 4451SOL    MW417578   3.478   6.425   1.899  0.2584  0.0973 -0.1290
 4452SOL     OW17579   5.776   3.022   4.041  0.1366  0.0510 -0.2605
 4452SOL    HW217580   5.720   3.050   3.969  0.6758  0.7117 -0.4277
 4452SOL    HW317581   5.744   2.935   4.064  0.5154 -0.5483 -1.8797
 4452SOL    MW417582   5.765   3.014   4.035  0.2577  0.0591 -0.4962
 4453SOL     OW17583   5.269   2.189   0.363 -0.0162  0.2858 -0.2505
 4453SOL    HW217584   5.341   2.207   0.303  0.1689  1.2669  0.2459
 4453SOL    HW317585   5.300   2.116   0.417  0.5468  0.5988 -0.1417
 4453SOL    MW417586   5.282   2.182   0.362  0.0825  0.4566 -0.1707
 4454SOL     OW17587   3.540   1.082   5.427  0.4115 -0.1308 -0.1037
 4454SOL    HW217588   3.564   0.989   5.420 -0.9392 -0.5596  0.6604
 4454SOL    HW317589   3.548   1.101   5.520  0.0696  0.3448 -0.1719
 4454SOL    MW417590   3.544   1.072   5.438  0.1882 -0.1246 -0.0119
 4455SOL     OW17591   1.137   1.937   2.376 -0.0926 -0.0683  0.1989
 4455SOL    HW217592   1.110   2.026   2.356 -1.4906 -0.4944  0.0896
 4455SOL    HW317593   1.225   1.929   2.339  0.1779  1.3414  0.4762
 4455SOL    MW417594   1.145   1.948   2.369 -0.2414  0.0615  0.2211
 4456SOL     OW17595   3.330   0.465   4.269 -0.4141 -0.1136  0.0436
 4456SOL    HW217596   3.404   0.409   4.246 -0.2474  0.6728 -1.4196
 4456SOL    HW317597   3.300   0.432   4.354 -0.7647 -2.8600 -1.0609
 4456SOL    MW417598   3.336   0.454   4.278 -0.4384 -0.3722 -0.2952
 4457SOL     OW17599   1.413   2.175   3.757  0.1095  0.5850 -0.0165
 4457SOL    HW217600   1.380   2.265   3.767 -0.9302  0.0944  1.2615
 4457SOL    HW317601   1.465   2.161   3.836 -0.0039 -0.0335 -0.0502
 4457SOL    MW417602   1.415   2.185   3.769 -0.0426  0.4387  0.1477
 4458SOL     OW17603   5.192   3.445   1.463  1.1562  0.1741 -0.0918
 4458SOL    HW217604   5.169   3.411   1.549 -1.4257 -1.3689 -1.2837
 4458SOL    HW317605   5.196   3.367   1.407 -1.1657  1.4003 -2.1512
 4458SOL    MW417606   5.190   3.430   1.467  0.5092  0.1323 -0.5208
 4459SOL     OW17607   6.431   3.574   0.347 -0.0016 -0.2670 -0.3678
 4459SOL    HW217608   6.401   3.528   0.269  0.3122  0.3860 -0.8854
 4459SOL    HW317609   6.525   3.558   0.349  0.0058 -0.2009 -0.1840
 4459SOL    MW417610   6.439   3.566   0.337  0.0408 -0.1721 -0.4118
 4460SOL     OW17611   0.625   2.169   3.834 -0.2667  0.7759  0.0278
 4460SOL    HW217612   0.686   2.165   3.907 -0.0837  0.0861 -0.1620
 4460SOL    HW317613   0.664   2.115   3.766 -0.8943  0.6543 -0.2429
 4460SOL    MW417614   0.638   2.162   3.835 -0.3253  0.6689 -0.0330
 4461SOL     OW17615   5.190   1.290   3.611 -0.3176 -0.5300  0.1090
 4461SOL    HW217616   5.218   1.377   3.641 -2.6744  0.2471  0.2256
 4461SOL    HW317617   5.248   1.271   3.537 -0.6450  1.7873 -0.8393
 4461SOL    MW417618   5.202   1.299   3.605 -0.6718 -0.1218 -0.0008
 4462SOL     OW17619   1.205   3.824   1.146  0.4833 -0.0427 -0.4659
 4462SOL    HW217620   1.267   3.873   1.092  1.7320  1.0089  1.7794
 4462SOL    HW317621   1.141   3.890   1.175  0.0224 -0.5111 -0.4134
 4462SOL    MW417622   1.205   3.839   1.143  0.5873  0.0343 -0.1627
 4463SOL     OW17623   5.041   0.516   2.803 -0.5341 -0.3284  0.1952
 4463SOL    HW217624   5.046   0.612   2.800  0.4894 -0.3783  0.0160
 4463SOL    HW317625   5.118   0.487   2.754 -1.3664 -1.2500 -0.5994
 4463SOL    MW417626   5.052   0.525   2.796 -0.5089 -0.4566  0.0667
 4464SOL     OW17627   4.822   0.269   1.550  0.5387 -0.2456  0.0355
 4464SOL    HW217628   4.744   0.308   1.510  1.1626  0.1753 -0.8008
 4464SOL    HW317629   4.788   0.194   1.599 -0.4929  0.4425  0.4171
 4464SOL    MW417630   4.807   0.264   1.551  0.4849 -0.0993 -0.0245
 4465SOL     OW17631   6.056   5.753   3.367 -0.1359  0.1256 -0.1836
 4465SOL    HW217632   5.985   5.718   3.421  1.9749 -3.9061  0.3439
 4465SOL    HW317633   6.077   5.837   3.407 -0.4936 -1.4318  3.6502
 4465SOL    MW417634   6.049   5.760   3.379  0.0954 -0.6118  0.3918
 4466SOL     OW17635   0.050   3.113   2.808 -0.1829 -0.4342  0.6387
 4466SOL    HW217636   0.067   3.043   2.870 -1.5804 -0.4723  1.0230
 4466SOL    HW317637   0.130   3.120   2.756  0.6064 -1.1347  1.7251
 4466SOL    MW417638   0.063   3.105   2.809 -0.2632 -0.5317  0.8327
 4467SOL     OW17639   2.425   1.010   0.258  0.5012  0.9613  0.4068
 4467SOL    HW217640   2.428   1.051   0.171  1.2011 -0.9771 -0.5554
 4467SOL    HW317641   2.513   0.973   0.269 -0.5403 -1.6617  0.4531
 4467SOL    MW417642   2.437   1.011   0.248  0.4561  0.3595  0.2859
 4468SOL     OW17643   1.329   4.707   4.379  0.3428 -0.3970  0.5163
 4468SOL    HW217644   1.419   4.688   4.352  0.5699  0.0352  0.9441
 4468SOL    HW317645   1.295   4.764   4.310 -0.0599 -1.6179 -0.3340
 4468SOL    MW417646   1.337   4.712   4.366  0.3196 -0.5011  0.4606
 4469SOL     OW17647   3.778   1.718   5.248  0.1342 -0.2075  0.2013
 4469SOL    HW217648   3.868   1.700   5.221  0.5090 -0.4784  1.5589
 4469SOL    HW317649   3.748   1.786   5.188  0.4380 -1.7133 -1.7642
 4469SOL    MW417650   3.786   1.725   5.236  0.2237 -0.4419  0.1211
 4470SOL     OW17651   1.674   1.435   0.601  0.0328  0.0193 -0.6257
 4470SOL    HW217652   1.587   1.474   0.612 -0.8600 -1.3577 -2.4014
 4470SOL    HW317653   1.729   1.483   0.663 -1.9876  0.8712  0.6242
 4470SOL    MW417654   1.670   1.446   0.611 -0.3516 -0.0500 -0.6951
 4471SOL     OW17655   5.668   5.754   0.536 -0.0537  1.0211 -0.8109
 4471SOL    HW217656   5.581   5.793   0.525 -0.8187 -0.7181 -1.3288
 4471SOL    HW317657   5.693   5.726   0.447  0.5921  0.6220 -0.5127
 4471SOL    MW417658   5.660   5.755   0.523 -0.0694  0.7390 -0.8399
 4472SOL     OW17659   4.409   5.700   4.699  0.2614 -0.2630  0.4365
 4472SOL    HW217660   4.339   5.704   4.765 -2.2922 -0.4501 -2.0288
 4472SOL    HW317661   4.389   5.622   4.648  0.2944  1.3590 -2.2937
 4472SOL    MW417662   4.397   5.690   4.701 -0.0711 -0.0737 -0.2490
 4473SOL     OW17663   6.218   0.758   5.770  0.2680  0.1197  0.4670
 4473SOL    HW217664   6.153   0.800   5.825  0.6970  3.5546 -1.4168
 4473SOL    HW317665   6.173   0.740   5.688  1.0450  0.2929 -0.0141
 4473SOL    MW417666   6.204   0.761   5.766  0.4271  0.5958  0.1550
 4474SOL     OW17667   5.339   3.902   5.735  0.2675 -0.3189  0.5854
 4474SOL    HW217668   5.246   3.918   5.748  0.0702 -0.9172 -0.0118
 4474SOL    HW317669   5.369   3.867   5.819 -0.5001 -2.0175  0.2050
 4474SOL    MW417670   5.331   3.899   5.748  0.1402 -0.6219  0.4564
 4475SOL     OW17671   1.174   1.995   3.795 -0.2186  0.3098 -0.5445
 4475SOL    HW217672   1.256   2.039   3.774 -0.3679  0.5653 -0.5906
 4475SOL    HW317673   1.180   1.975   3.888 -0.6953  1.5764 -0.2242
 4475SOL    MW417674   1.186   1.998   3.804 -0.3012  0.5106 -0.5083
 4476SOL     OW17675   5.962   3.626   0.929 -0.1547  0.1229 -0.4073
 4476SOL    HW217676   5.948   3.673   1.011 -0.4672 -0.3227 -0.1979
 4476SOL    HW317677   6.051   3.648   0.903  0.2422 -0.3682  0.4811
 4476SOL    MW417678   5.972   3.635   0.936 -0.1436 -0.0007 -0.2624
 4477SOL     OW17679   3.382   1.432   1.828 -0.4881 -0.3299 -0.0275
 4477SOL    HW217680   3.382   1.504   1.891 -0.7630 -1.4898  1.3576
 4477SOL    HW317681   3.296   1.391   1.838 -0.0772 -1.2787 -0.2840
 4477SOL    MW417682   3.371   1.436   1.838 -0.4702 -0.6081  0.1214
 4478SOL     OW17683   5.487   6.119   2.872  0.4029  0.5928 -0.4707
 4478SOL    HW217684   5.475   6.170   2.792 -0.1070  1.1505 -0.0468
 4478SOL    HW317685   5.416   6.054   2.870 -0.0127  1.0282 -0.1575
 4478SOL    MW417686   5.476   6.117   2.861  0.2808  0.7238 -0.3735
 4479SOL     OW17687   5.507   0.414   2.891  0.0110  0.6496  0.0064
 4479SOL    HW217688   5.449   0.424   2.816 -0.3410  0.3137  0.2333
 4479SOL    HW317689   5.511   0.319   2.906  0.2979  0.6979  0.2404
 4479SOL    MW417690   5.500   0.403   2.883  0.0024  0.6117  0.0672
 4480SOL     OW17691   4.497   4.765   0.664 -0.2600  0.0992 -0.2442
 4480SOL    HW217692   4.568   4.701   0.663 -0.6051 -0.2893 -1.1628
 4480SOL    HW317693   4.435   4.732   0.730  1.3334  1.5224  2.1133
 4480SOL    MW417694   4.498   4.752   0.672 -0.0953  0.2357 -0.0543
 4481SOL     OW17695   5.399   6.168   5.661  0.0040 -0.1711 -0.2365
 4481SOL    HW217696   5.473   6.108   5.651 -0.2330 -0.2375 -1.9104
 4481SOL    HW317697   5.323   6.117   5.631 -0.5966  0.1672  0.6840
 4481SOL    MW417698   5.398   6.153   5.656 -0.1065 -0.1352 -0.3359
 4482SOL     OW17699   5.227   4.895   2.920 -0.1010  0.3062 -0.0658
 4482SOL    HW217700   5.222   4.986   2.891 -1.0787  0.8974  1.8001
 4482SOL    HW317701   5.136   4.865   2.921  0.2136 -0.7057 -0.6805
 4482SOL    MW417702   5.214   4.903   2.917 -0.1885  0.2507  0.0993
 4483SOL     OW17703   1.153   0.763   5.061  0.2902 -0.1392 -0.1280
 4483SOL    HW217704   1.150   0.670   5.037 -1.7273 -0.1385 -0.0869
 4483SOL    HW317705   1.102   0.768   5.142  0.5160  0.9829 -0.0428
 4483SOL    MW417706   1.146   0.751   5.069  0.0538  0.0090 -0.1114
 4484SOL     OW17707   1.914   0.377   3.335 -0.2387  0.4334 -0.4925
 4484SOL    HW217708   1.998   0.343   3.364 -0.9216 -0.5437  0.4041
 4484SOL    HW317709   1.849   0.324   3.381 -1.3503  1.3208 -0.9844
 4484SOL    MW417710   1.916   0.366   3.345 -0.4755  0.4216 -0.4391
 4485SOL     OW17711   1.615   1.018   2.393  0.4074  0.2295 -0.5543
 4485SOL    HW217712   1.611   0.950   2.326  1.6653 -0.5352  0.1029
 4485SOL    HW317713   1.545   1.079   2.370  0.7137 -0.0705 -2.4959
 4485SOL    MW417714   1.605   1.017   2.381  0.6138  0.0890 -0.7238
 4486SOL     OW17715   2.359   2.572   3.163  0.4797  0.1125 -0.0836
 4486SOL    HW217716   2.270   2.565   3.130 -0.0912  0.9757  1.1841
 4486SOL    HW317717   2.377   2.486   3.202 -0.1870  0.2616  0.5646
 4486SOL    MW417718   2.350   2.559   3.164  0.3164  0.2461  0.1692
 4487SOL     OW17719   1.387   0.538   4.315  0.4219 -0.3331 -0.0534
 4487SOL    HW217720   1.362   0.493   4.396 -0.1734 -0.9488 -0.5784
 4487SOL    HW317721   1.307   0.579   4.284  0.5877 -0.3412 -0.4961
 4487SOL    MW417722   1.373   0.538   4.322  0.3652 -0.4154 -0.1811
 4488SOL     OW17723   5.306   4.707   4.357  1.0433 -0.5474  0.2815
 4488SOL    HW217724   5.231   4.651   4.336 -0.2004  0.7385  1.1043
 4488SOL    HW317725   5.280   4.754   4.436  2.9791 -0.4851  0.9523
 4488SOL    MW417726   5.293   4.705   4.365  1.1346 -0.3695  0.4786
 4489SOL     OW17727   0.980   6.316   4.806  0.0394 -0.2713 -0.3739
 4489SOL    HW217728   1.008   6.237   4.851  0.3411  0.0076 -0.0630
 4489SOL    HW317729   1.060   6.369   4.799 -0.3604  0.4393  0.3291
 4489SOL    MW417730   0.995   6.313   4.811  0.0265 -0.1408 -0.2401
 4490SOL     OW17731   3.704   1.773   6.065  0.0240 -0.0232  0.2070
 4490SOL    HW217732   3.637   1.839   6.085 -0.4155 -0.4158  0.0437
 4490SOL    HW317733   3.657   1.706   6.015  0.1475 -1.1284  1.5139
 4490SOL    MW417734   3.689   1.773   6.061 -0.0177 -0.2208  0.3579
 4491SOL     OW17735   0.500   4.167   2.634 -0.1083  0.1707  0.1952
 4491SOL    HW217736   0.550   4.121   2.567  0.7211  1.3129 -0.0011
 4491SOL    HW317737   0.547   4.150   2.715  0.1460  0.5871  0.1369
 4491SOL    MW417738   0.512   4.159   2.636  0.0347  0.3763  0.1616
 4492SOL     OW17739   0.831   5.446   6.141  0.3476  1.5131 -0.3379
 4492SOL    HW217740   0.779   5.466   6.064 -0.6054  1.0176  0.1610
 4492SOL    HW317741   0.786   5.491   6.213 -0.6199 -0.5505  0.4516
 4492SOL    MW417742   0.818   5.455   6.141  0.0943  1.1755 -0.1679
 4493SOL     OW17743   4.042   1.424   0.464  0.7569  0.8472 -0.1693
 4493SOL    HW217744   4.000   1.462   0.541 -0.3238 -1.3468  0.4059
 4493SOL    HW317745   4.127   1.393   0.496  0.3653  0.0614  0.1548
 4493SOL    MW417746   4.048   1.425   0.478  0.5626  0.4540 -0.0507
 4494SOL     OW17747   5.206   2.872   1.938  0.3962 -0.6532  0.0028
 4494SOL    HW217748   5.286   2.822   1.920 -0.0414 -0.9961 -1.1242
 4494SOL    HW317749   5.171   2.834   2.018  1.9978  0.3346  1.2171
 4494SOL    MW417750   5.212   2.860   1.946  0.5498 -0.5681  0.0143
 4495SOL     OW17751   2.835   3.603   2.245 -0.6355 -0.0634  0.0983
 4495SOL    HW217752   2.806   3.576   2.158  3.0796  0.4076 -1.4710
 4495SOL    HW317753   2.769   3.666   2.274 -1.4103  0.6090 -2.8706
 4495SOL    MW417754   2.822   3.608   2.238 -0.2475  0.0875 -0.5005
 4496SOL     OW17755   1.205   5.147   3.430 -0.6450 -0.4965 -0.5553
 4496SOL    HW217756   1.290   5.163   3.389  0.3153  0.0087  1.5264
 4496SOL    HW317757   1.208   5.055   3.454 -0.8560 -0.5744 -0.8209
 4496SOL    MW417758   1.217   5.137   3.428 -0.5462 -0.4401 -0.3157
 4497SOL     OW17759   4.906   1.269   4.042  0.3982 -0.1808  0.3293
 4497SOL    HW217760   4.895   1.228   4.128  2.2736  1.9500  1.6845
 4497SOL    HW317761   4.997   1.250   4.017  0.0344 -0.3401 -0.9856
 4497SOL    MW417762   4.917   1.261   4.050  0.5976  0.0794  0.3346
 4498SOL     OW17763   5.777   4.983   0.064  0.0217 -0.3330  0.3406
 4498SOL    HW217764   5.737   4.982  -0.023 -1.7220  0.5273  1.0910
 4498SOL    HW317765   5.794   4.891   0.084  1.0723 -0.5086 -1.1411
 4498SOL    MW417766   5.774   4.971   0.055 -0.0698 -0.2427  0.2441
 4499SOL     OW17767   3.826   0.838   0.463  0.2573  0.0035 -0.5106
 4499SOL    HW217768   3.919   0.818   0.473  0.5107  0.6667 -1.3938
 4499SOL    HW317769   3.789   0.760   0.421  0.2517 -0.5637  0.5106
 4499SOL    MW417770   3.833   0.825   0.459  0.2900  0.0162 -0.4924
 4500SOL     OW17771   5.555   5.711   3.948  0.4614  0.0098  0.6110
 4500SOL    HW217772   5.530   5.749   4.032 -0.1164 -1.9965  1.4138
 4500SOL    HW317773   5.639   5.668   3.965  1.3304  1.2460 -0.3870
 4500SOL    MW417774   5.563   5.710   3.961  0.4998 -0.0918  0.5852
 4501SOL     OW17775   2.594   2.059   1.456 -0.8493 -0.1473  0.0062
 4501SOL    HW217776   2.553   2.131   1.408 -0.0879 -0.4735 -1.1907
 4501SOL    HW317777   2.547   1.981   1.426 -0.2205 -0.3781 -0.4092
 4501SOL    MW417778   2.582   2.058   1.446 -0.6659 -0.2208 -0.2065
 4502SOL     OW17779   0.141   1.231   4.866  0.5640 -0.6334  0.2945
 4502SOL    HW217780   0.129   1.325   4.881  1.1237 -0.5454  0.2198
 4502SOL    HW317781   0.236   1.221   4.854  0.7198 -1.4516  1.9931
 4502SOL    MW417782   0.152   1.242   4.866  0.6584 -0.7298  0.5088
 4503SOL     OW17783   4.410   3.457   1.160 -0.6460  0.2701 -0.4665
 4503SOL    HW217784   4.360   3.442   1.240  0.2093 -2.3106 -0.3196
 4503SOL    HW317785   4.367   3.402   1.094  0.1768  0.3824 -1.1100
 4503SOL    MW417786   4.398   3.448   1.162 -0.4246 -0.0556 -0.5320
 4504SOL     OW17787   1.098   3.663   0.068  0.0415 -0.4799 -0.1554
 4504SOL    HW217788   1.052   3.730   0.018  0.0598 -0.8260 -0.6326
 4504SOL    HW317789   1.036   3.590   0.073  0.5938 -1.0025 -0.9262
 4504SOL    MW417790   1.083   3.663   0.062  0.1168 -0.5945 -0.3201
 4505SOL     OW17791   5.560   1.652   6.273  0.3037  0.0632  0.1024
 4505SOL    HW217792   5.502   1.580   6.298  1.6015 -0.1069  3.0209
 4505SOL    HW317793   5.637   1.610   6.236  0.7444 -0.0368  1.1099
 4505SOL    MW417794   5.562   1.637   6.271  0.5331  0.0275  0.6204
 4506SOL     OW17795   5.334   5.039   5.383  0.1215 -0.0980  0.0818
 4506SOL    HW217796   5.346   4.978   5.311  1.1181  0.9314 -0.6610
 4506SOL    HW317797   5.420   5.042   5.426  0.2369  1.1011 -0.1827
 4506SOL    MW417798   5.347   5.031   5.379  0.2682  0.1960 -0.0511
 4507SOL     OW17799   0.333   3.939   3.580  0.2068  0.8331  0.4121
 4507SOL    HW217800   0.333   3.995   3.658 -0.8427  1.2189  0.1472
 4507SOL    HW317801   0.405   3.877   3.595  0.7681  1.6383  1.1475
 4507SOL    MW417802   0.343   3.938   3.592  0.1424  0.9902  0.4742
 4508SOL     OW17803   2.482   0.240   0.287 -0.2685  0.0640  0.2419
 4508SOL    HW217804   2.547   0.169   0.281 -0.1134  0.1397  0.9607
 4508SOL    HW317805   2.399   0.196   0.301 -0.3495 -0.0236 -0.4666
 4508SOL    MW417806   2.480   0.225   0.288 -0.2587  0.0624  0.2433
 4509SOL     OW17807   6.068   1.633   2.858  0.1712 -0.3385 -0.0954
 4509SOL    HW217808   6.160   1.618   2.880  0.0869  0.2688  0.7225
 4509SOL    HW317809   6.068   1.713   2.806  0.1266 -0.4522 -0.2710
 4509SOL    MW417810   6.080   1.642   2.854  0.1542 -0.2734 -0.0106
 4510SOL     OW17811   0.341   1.934   0.843  0.2638  0.3201 -0.3131
 4510SOL    HW217812   0.415   1.874   0.850  0.0701  0.0780 -0.3280
 4510SOL    HW317813   0.349   1.991   0.919  0.2315  0.0289 -0.0903
 4510SOL    MW417814   0.352   1.934   0.854  0.2340  0.2497 -0.2856
 4511SOL     OW17815   3.084   1.939   6.100  0.1454 -0.2748 -0.2872
 4511SOL    HW217816   3.155   1.878   6.116  0.5886  0.3508  0.2386
 4511SOL    HW317817   3.115   1.995   6.029  0.2485  0.0825  0.0306
 4511SOL    MW417818   3.097   1.939   6.093  0.2174 -0.1451 -0.1759
 4512SOL     OW17819   3.477   2.684   1.905 -0.6871  0.7260  0.3059
 4512SOL    HW217820   3.567   2.707   1.883 -1.5808  3.1197 -1.2897
 4512SOL    HW317821   3.469   2.592   1.881  1.3722  0.4013  0.7248
 4512SOL    MW417822   3.488   2.675   1.899 -0.5333  0.9990  0.1506
 4513SOL     OW17823   5.308   1.846   2.287 -0.3236  0.3095  0.1774
 4513SOL    HW217824   5.294   1.904   2.212 -0.0854  2.0270  1.3885
 4513SOL    HW317825   5.395   1.807   2.272 -0.7967 -0.3179 -1.0102
 4513SOL    MW417826   5.318   1.849   2.275 -0.3546  0.4534  0.1805
 4514SOL     OW17827   1.374   4.999   3.055  0.6177  0.4659 -0.7433
 4514SOL    HW217828   1.327   5.071   3.013  2.4884  1.2093 -1.6856
 4514SOL    HW317829   1.306   4.938   3.082 -0.9670  2.2640 -0.5410
 4514SOL    MW417830   1.359   5.000   3.053  0.6555  0.8012 -0.8409
 4515SOL     OW17831   1.860   3.131   0.996 -0.3066  0.3369 -0.0086
 4515SOL    HW217832   1.828   3.198   1.056 -0.4758 -0.5241  0.8722
 4515SOL    HW317833   1.855   3.173   0.910  1.5822  2.2092  0.7170
 4515SOL    MW417834   1.855   3.146   0.992 -0.0797  0.4703  0.2033
 4516SOL     OW17835   2.336   4.873   2.169 -0.6144 -0.3679  0.0087
 4516SOL    HW217836   2.312   4.793   2.122 -1.8435  0.8510 -1.5424
 4516SOL    HW317837   2.313   4.855   2.260 -0.4102 -1.9390 -0.2196
 4516SOL    MW417838   2.330   4.860   2.175 -0.7497 -0.4143 -0.2260
 4517SOL     OW17839   4.621   2.580   4.249 -0.4405 -0.2781 -0.4030
 4517SOL    HW217840   4.555   2.530   4.298 -0.1540 -0.7081 -0.4495
 4517SOL    HW317841   4.586   2.585   4.160 -0.8539  0.3074 -0.2136
 4517SOL    MW417842   4.608   2.574   4.244 -0.4572 -0.2576 -0.3842
 4518SOL     OW17843   4.810   2.821   2.135  0.7992  0.0613 -0.4288
 4518SOL    HW217844   4.905   2.817   2.148  1.0036 -1.2623 -1.9635
 4518SOL    HW317845   4.797   2.781   2.049 -1.2286 -0.5370  0.1217
 4518SOL    MW417846   4.821   2.815   2.125  0.5586 -0.1923 -0.5587
 4519SOL     OW17847   0.458   1.890   6.059 -0.1743  0.0481 -0.6123
 4519SOL    HW217848   0.367   1.887   6.030 -0.2859  1.6732 -0.4870
 4519SOL    HW317849   0.456   1.940   6.140  0.6476 -1.2355  0.2361
 4519SOL    MW417850   0.446   1.896   6.066 -0.0806  0.0931 -0.4838
 4520SOL     OW17851   4.789   4.313   6.424  0.0121  0.2877  0.3674
 4520SOL    HW217852   4.740   4.360   6.357  0.8645  1.6198  0.6503
 4520SOL    HW317853   4.873   4.293   6.383 -0.3999 -1.2001  0.1871
 4520SOL    MW417854   4.794   4.316   6.410  0.0702  0.2672  0.3809
 4521SOL     OW17855   1.285   1.579   0.900 -0.3739 -0.1130  0.1543
 4521SOL    HW217856   1.334   1.563   0.980 -0.3099 -1.6107 -0.1547
 4521SOL    HW317857   1.222   1.647   0.923  0.2520  0.1208  1.2143
 4521SOL    MW417858   1.283   1.586   0.913 -0.2828 -0.2798  0.2534
 4522SOL     OW17859   2.522   0.713   3.635  0.4076 -0.0005  0.2711
 4522SOL    HW217860   2.476   0.796   3.643 -0.3358 -0.3963  0.1453
 4522SOL    HW317861   2.612   0.733   3.661 -0.0710  0.5591  1.5730
 4522SOL    MW417862   2.528   0.726   3.640  0.2464  0.0211  0.4263
 4523SOL     OW17863   0.328   5.584   6.218  0.6510 -0.4308  0.0327
 4523SOL    HW217864   0.388   5.645   6.261 -1.1243  1.0625  0.5431
 4523SOL    HW317865   0.317   5.620   6.130  0.9083 -1.0104 -0.2432
 4523SOL    MW417866   0.334   5.597   6.212  0.4507 -0.3103  0.0636
 4524SOL     OW17867   2.889   5.726   1.877  0.4853  0.1330  0.1080
 4524SOL    HW217868   2.875   5.689   1.790  1.8795 -1.4606  0.5152
 4524SOL    HW317869   2.981   5.752   1.878  0.4083  0.4296  1.0163
 4524SOL    MW417870   2.900   5.725   1.866  0.6591 -0.0381  0.2815
 4525SOL     OW17871   1.982   3.931   3.969  0.0453 -0.3833  0.2678
 4525SOL    HW217872   1.982   3.853   4.024  0.3597  0.0389  0.8743
 4525SOL    HW317873   2.070   3.933   3.931  1.1301  1.3297  2.6633
 4525SOL    MW417874   1.994   3.921   3.971  0.2299 -0.1016  0.6638
 4526SOL     OW17875   3.609   2.320   0.010 -0.2146 -0.1330  0.5109
 4526SOL    HW217876   3.620   2.264   0.087  0.2436 -1.2705 -0.3382
 4526SOL    HW317877   3.607   2.409   0.044  0.8183 -0.5573  1.7653
 4526SOL    MW417878   3.611   2.324   0.025 -0.0178 -0.3391  0.5644
 4527SOL     OW17879   3.454   1.424   3.575 -0.4912  0.4393 -0.2314
 4527SOL    HW217880   3.385   1.395   3.634 -0.3413  0.3208 -0.1120
 4527SOL    HW317881   3.428   1.512   3.549 -0.9223  0.2198 -0.5527
 4527SOL    MW417882   3.441   1.432   3.579 -0.5283  0.3947 -0.2581
 4528SOL     OW17883   4.866   3.082   1.999 -0.0637 -0.0213 -0.7334
 4528SOL    HW217884   4.873   3.037   2.083  0.0496  0.3863 -0.5248
 4528SOL    HW317885   4.791   3.040   1.956 -0.7435  0.4402 -0.0240
 4528SOL    MW417886   4.857   3.070   2.004 -0.1384  0.0934 -0.6122
 4529SOL     OW17887   5.176   2.514   1.044 -0.0233 -0.2007  0.2542
 4529SOL    HW217888   5.102   2.569   1.018 -1.5030 -1.6654  1.1188
 4529SOL    HW317889   5.228   2.504   0.964 -1.6163 -0.3762 -0.8048
 4529SOL    MW417890   5.173   2.520   1.030 -0.4287 -0.4171  0.2286
 4530SOL     OW17891   5.600   6.156   1.068 -0.4435 -0.5771  0.2238
 4530SOL    HW217892   5.603   6.062   1.082  3.4077 -1.0024 -1.8544
 4530SOL    HW317893   5.629   6.193   1.152 -0.5103 -1.3646  0.6058
 4530SOL    MW417894   5.604   6.149   1.081  0.0558 -0.7371 -0.0000
 4531SOL     OW17895   0.250   0.996   5.229 -0.0070  0.4050 -0.3798
 4531SOL    HW217896   0.190   0.989   5.303  0.8073  1.2088  0.3933
 4531SOL    HW317897   0.231   0.921   5.174  1.5108 -2.1039  2.2479
 4531SOL    MW417898   0.240   0.985   5.231  0.3007  0.1801  0.0689
 4532SOL     OW17899   3.945   4.939   5.304  0.1841  0.6003  0.1729
 4532SOL    HW217900   4.021   4.892   5.269 -0.4641 -0.8550  0.6449
 4532SOL    HW317901   3.893   4.959   5.226  0.8262  1.2489 -0.1102
 4532SOL    MW417902   3.948   4.935   5.289  0.1833  0.4939  0.1978
 4533SOL     OW17903   1.896   5.543   2.778  0.0842 -0.1417 -0.0655
 4533SOL    HW217904   1.947   5.619   2.753  1.7742 -0.8873  0.9393
 4533SOL    HW317905   1.886   5.551   2.873 -1.0322 -0.4050 -0.1483
 4533SOL    MW417906   1.901   5.554   2.787  0.1599 -0.2748  0.0562
 4534SOL     OW17907   4.519   0.720   1.083  0.0688  0.6011 -0.0463
 4534SOL    HW217908   4.596   0.764   1.046 -0.7585  0.3646 -2.2054
 4534SOL    HW317909   4.535   0.627   1.066 -0.8088  0.5756 -0.8502
 4534SOL    MW417910   4.531   0.713   1.076 -0.1561  0.5666 -0.4372
 4535SOL     OW17911   4.717   2.901   5.209 -0.0277  0.3605 -0.4342
 4535SOL    HW217912   4.811   2.891   5.220  0.2212  1.7592 -1.0875
 4535SOL    HW317913   4.706   2.941   5.123 -1.3565 -1.6248 -1.2584
 4535SOL    MW417914   4.728   2.905   5.199 -0.1702  0.2831 -0.6291
 4536SOL     OW17915   4.373   5.633   1.795 -0.4289 -0.3628  0.5935
 4536SOL    HW217916   4.387   5.538   1.799 -2.5533 -0.7407  0.2496
 4536SOL    HW317917   4.305   5.650   1.860  1.3196  1.2812  2.1008
 4536SOL    MW417918   4.366   5.623   1.804 -0.4785 -0.1958  0.7470
 4537SOL     OW17919   2.109   2.462   4.592  0.1047 -0.1075  0.0060
 4537SOL    HW217920   2.027   2.425   4.559  0.6004 -3.6957  2.2290
 4537SOL    HW317921   2.177   2.411   4.547  1.0500  1.1394 -0.0226
 4537SOL    MW417922   2.107   2.450   4.581  0.2948 -0.4164  0.2955
 4538SOL     OW17923   5.541   3.490   4.094  0.4557  0.3766  0.2121
 4538SOL    HW217924   5.489   3.410   4.093  1.1516 -0.0938 -0.9197
 4538SOL    HW317925   5.478   3.561   4.080  0.0085 -0.1046 -0.2472
 4538SOL    MW417926   5.526   3.489   4.092  0.4885  0.2511  0.0022
 4539SOL     OW17927   2.006   1.577   5.540 -0.5633  0.8238 -0.4224
 4539SOL    HW217928   2.007   1.511   5.610  1.3819 -1.0331 -2.0580
 4539SOL    HW317929   2.097   1.605   5.533 -0.3133 -0.3367 -3.2544
 4539SOL    MW417930   2.018   1.572   5.548 -0.2737  0.4257 -1.0118
 4540SOL     OW17931   4.048   5.905   0.795  0.0753 -0.3467  0.3609
 4540SOL    HW217932   4.011   5.916   0.883  3.3210  2.8147  1.5869
 4540SOL    HW317933   4.093   5.820   0.799  0.0519 -0.3257  1.7195
 4540SOL    MW417934   4.049   5.895   0.807  0.5004  0.0732  0.7019
 4541SOL     OW17935   0.972   1.486   1.821 -0.1311  0.5083 -0.3437
 4541SOL    HW217936   0.974   1.549   1.749 -2.2964 -0.6844 -1.5463
 4541SOL    HW317937   0.899   1.515   1.876  0.1763  0.2075  0.2241
 4541SOL    MW417938   0.963   1.498   1.819 -0.3762  0.3112 -0.4275
 4542SOL     OW17939   4.165   4.871   4.447 -0.1843  0.1587 -0.0844
 4542SOL    HW217940   4.240   4.898   4.394  0.6176 -1.8570 -0.0909
 4542SOL    HW317941   4.204   4.848   4.532 -0.8821 -0.3343  0.1071
 4542SOL    MW417942   4.180   4.871   4.451 -0.1706 -0.1723 -0.0600
 4543SOL     OW17943   1.312   0.448   2.729  0.0609 -0.7955  0.2533
 4543SOL    HW217944   1.224   0.468   2.763 -0.2238  1.6986 -1.6385
 4543SOL    HW317945   1.371   0.496   2.787 -0.3926  3.0264 -2.0603
 4543SOL    MW417946   1.308   0.457   2.741 -0.0365  0.0378 -0.3016
 4544SOL     OW17947   5.892   2.605   2.115  0.5748  0.2856  0.4501
 4544SOL    HW217948   5.840   2.663   2.170 -1.6163 -0.9137 -0.2212
 4544SOL    HW317949   5.851   2.519   2.126  2.6863 -0.8276  0.1522
 4544SOL    MW417950   5.880   2.601   2.124  0.5643 -0.0195  0.3222
 4545SOL     OW17951   0.616   2.718   4.257  0.3608 -0.8743  0.2758
 4545SOL    HW217952   0.617   2.806   4.219  0.1041 -1.4337 -1.0780
 4545SOL    HW317953   0.708   2.694   4.262  0.4183 -0.6363  0.3961
 4545SOL    MW417954   0.628   2.727   4.253  0.3345 -0.9167  0.1131
 4546SOL     OW17955   5.913   0.532   4.004 -0.6108  0.0376  0.6901
 4546SOL    HW217956   5.876   0.451   4.041  0.3211 -0.8520 -0.2665
 4546SOL    HW317957   5.837   0.580   3.973 -1.0735 -1.3985 -0.5244
 4546SOL    MW417958   5.898   0.527   4.005 -0.5489 -0.2692  0.4036
 4547SOL     OW17959   5.803   2.747   2.747  0.1943  0.4192 -0.2292
 4547SOL    HW217960   5.820   2.658   2.718 -0.1855  1.3566 -3.8015
 4547SOL    HW317961   5.876   2.798   2.711 -0.3514  1.7638  0.5033
 4547SOL    MW417962   5.815   2.742   2.739  0.0722  0.7203 -0.6039
 4548SOL     OW17963   3.012   0.480   5.082  0.2777  0.5615  0.1674
 4548SOL    HW217964   2.961   0.515   5.010 -1.2196  0.4742  1.1327
 4548SOL    HW317965   2.954   0.485   5.158  1.3373 -0.5172  1.1168
 4548SOL    MW417966   2.998   0.485   5.083  0.2200  0.4077  0.4201
 4549SOL     OW17967   5.209   5.659   6.093 -0.1616 -0.0715  0.5689
 4549SOL    HW217968   5.147   5.587   6.102  2.1414 -2.0473  1.6158
 4549SOL    HW317969   5.153   5.737   6.082 -2.7693 -1.7988  0.6290
 4549SOL    MW417970   5.193   5.660   6.093 -0.2018 -0.5601  0.7150
 4550SOL     OW17971   5.408   4.254   4.970 -0.0125 -0.1764  0.3570
 4550SOL    HW217972   5.445   4.336   4.938 -1.2117  1.0409  1.9307
 4550SOL    HW317973   5.317   4.276   4.993 -0.4383 -2.0072  0.5719
 4550SOL    MW417974   5.401   4.268   4.969 -0.2269 -0.2574  0.5930
 4551SOL     OW17975   1.512   4.821   5.522  0.3207  0.2443 -0.0305
 4551SOL    HW217976   1.578   4.803   5.455  2.0427  2.1935  1.0122
 4551SOL    HW317977   1.541   4.903   5.561 -1.5071 -0.0269  2.0391
 4551SOL    MW417978   1.525   4.830   5.518  0.3068  0.4657  0.3802
 4552SOL     OW17979   2.807   1.995   6.006  0.0018 -0.2093 -0.5076
 4552SOL    HW217980   2.899   1.971   6.014  0.1424  0.6846  0.7696
 4552SOL    HW317981   2.767   1.964   6.088 -0.5251  0.7462 -0.3953
 4552SOL    MW417982   2.814   1.988   6.018 -0.0491  0.0347 -0.3243
 4553SOL     OW17983   3.275   3.918   5.594  0.1025 -0.1294 -0.4149
 4553SOL    HW217984   3.255   3.991   5.537  0.6195 -0.7407 -1.4177
 4553SOL    HW317985   3.369   3.926   5.611  0.3398 -1.0064 -1.2184
 4553SOL    MW417986   3.285   3.928   5.589  0.2020 -0.3258 -0.6532
 4554SOL     OW17987   2.854   3.645   5.533  0.3022 -0.5278  0.5737
 4554SOL    HW217988   2.925   3.709   5.532  0.3035 -0.5220 -0.8388
 4554SOL    HW317989   2.775   3.697   5.543  0.1350 -0.0565 -2.4157
 4554SOL    MW417990   2.853   3.660   5.534  0.2803 -0.4648 -0.0071
 4555SOL     OW17991   0.981   2.435   3.676  0.4779 -0.2058  0.4909
 4555SOL    HW217992   0.982   2.355   3.728 -0.1789  0.4758  1.5902
 4555SOL    HW317993   0.890   2.464   3.678  0.0856 -0.9419 -2.3171
 4555SOL    MW417994   0.969   2.428   3.683  0.3395 -0.2130  0.2655
 4556SOL     OW17995   6.372   1.804   5.355  0.3392 -0.0060  0.7637
 4556SOL    HW217996   6.279   1.827   5.350  0.3817 -0.0066 -0.3333
 4556SOL    HW317997   6.373   1.709   5.362  0.2591 -0.0434  0.3088
 4556SOL    MW417998   6.360   1.795   5.355  0.3342 -0.0110  0.5589
 4557SOL     OW17999   2.397   0.240   1.965 -0.4001  1.0710  0.3054
 4557SOL    HW218000   2.337   0.200   1.901 -1.8419  2.0104  1.0017
 4557SOL    HW318001   2.445   0.306   1.915  1.2087 -0.7056 -0.6020
 4557SOL    MW418002   2.395   0.244   1.950 -0.3780  0.9605  0.2775
 4558SOL     OW18003   3.576   4.664   5.737 -0.1169  0.1009 -0.1756
 4558SOL    HW218004   3.538   4.684   5.651  0.9308  0.0574 -0.6659
 4558SOL    HW318005   3.517   4.599   5.775  0.8633 -2.0172 -2.0592
 4558SOL    MW418006   3.563   4.658   5.730  0.1507 -0.1843 -0.4888
 4559SOL     OW18007   2.292   4.356   5.392  0.0820 -0.2856  0.2782
 4559SOL    HW218008   2.293   4.428   5.329 -1.2905  0.2328  0.8045
 4559SOL    HW318009   2.382   4.324   5.393  0.1810 -0.2583 -1.8710
 4559SOL    MW418010   2.304   4.361   5.384 -0.0860 -0.2136  0.0641
 4560SOL     OW18011   0.667   0.278   0.342  0.0082  0.2596 -0.0641
 4560SOL    HW218012   0.732   0.229   0.392 -2.0346 -2.5741  0.1100
 4560SOL    HW318013   0.701   0.277   0.252 -0.4276 -2.7737 -0.3327
 4560SOL    MW418014   0.680   0.271   0.336 -0.3188 -0.5145 -0.0766
 4561SOL     OW18015   0.868   4.352   5.718 -0.2067 -0.5628  0.7499
 4561SOL    HW218016   0.924   4.376   5.644 -0.6329 -0.3052  0.5076
 4561SOL    HW318017   0.867   4.429   5.773 -1.2377 -0.1508  0.1812
 4561SOL    MW418018   0.875   4.365   5.715 -0.3989 -0.4745  0.6429
 4562SOL     OW18019   3.110   5.368   4.965  0.9274 -0.2785 -0.5509
 4562SOL    HW218020   3.166   5.428   4.915  2.1188  0.3693  1.4670
 4562SOL    HW318021   3.121   5.283   4.922  1.7204  0.2884 -1.5076
 4562SOL    MW418022   3.119   5.365   4.952  1.1892 -0.1182 -0.4109
 4563SOL     OW18023   5.453   6.029   1.818  0.5035 -0.5405  0.9384
 4563SOL    HW218024   5.490   5.988   1.739 -1.3014 -0.0371 -0.2405
 4563SOL    HW318025   5.449   5.958   1.882  2.1584 -0.9308  0.6534
 4563SOL    MW418026   5.457   6.014   1.816  0.4837 -0.5255  0.7453
 4564SOL     OW18027   3.265   3.249   5.518 -0.2287 -0.2302 -0.3766
 4564SOL    HW218028   3.310   3.240   5.434  3.2473 -1.3364  1.4350
 4564SOL    HW318029   3.183   3.202   5.506 -0.2719  0.3643 -3.3441
 4564SOL    MW418030   3.260   3.242   5.505  0.2242 -0.2977 -0.5291
 4565SOL     OW18031   1.092   5.147   0.518 -0.1950  0.2669 -0.8819
 4565SOL    HW218032   1.113   5.238   0.539 -1.0253  0.2435  0.1216
 4565SOL    HW318033   1.061   5.151   0.427 -2.0679  1.3289 -0.2696
 4565SOL    MW418034   1.091   5.160   0.509 -0.5517  0.4039 -0.6687
 4566SOL     OW18035   6.022   0.132   5.915  0.1718  0.1778 -0.6508
 4566SOL    HW218036   5.967   0.211   5.918  0.9239  0.6812  0.2949
 4566SOL    HW318037   5.960   0.060   5.915 -0.5007  0.7386  0.2414
 4566SOL    MW418038   6.007   0.133   5.915  0.1823  0.3182 -0.4083
 4567SOL     OW18039   2.576   0.116   2.143  0.6626 -0.5429  0.3852
 4567SOL    HW218040   2.503   0.144   2.088  0.7006  0.0140  0.6093
 4567SOL    HW318041   2.632   0.193   2.150  0.1176 -0.2472  2.0762
 4567SOL    MW418042   2.574   0.130   2.137  0.5957 -0.4304  0.6379
 4568SOL     OW18043   1.820   1.004   4.458 -0.2257 -0.4696 -0.2239
 4568SOL    HW218044   1.785   1.075   4.512  0.6370  0.1273 -0.4194
 4568SOL    HW318045   1.868   0.949   4.519  0.1998 -0.1527 -0.2618
 4568SOL    MW418046   1.822   1.006   4.473 -0.0558 -0.3491 -0.2547
 4569SOL     OW18047   3.071   6.274   4.845 -0.3032 -0.6262 -0.4063
 4569SOL    HW218048   2.976   6.264   4.844 -0.4362  0.4758 -1.1150
 4569SOL    HW318049   3.089   6.339   4.777  0.6780  1.3755  1.6199
 4569SOL    MW418050   3.061   6.282   4.836 -0.1913 -0.2167 -0.2325
 4570SOL     OW18051   1.682   0.939   0.276  0.1410 -0.5310  0.0499
 4570SOL    HW218052   1.624   0.883   0.225  0.0148  0.3948 -0.8721
 4570SOL    HW318053   1.753   0.882   0.304  1.6495 -0.6316 -3.4171
 4570SOL    MW418054   1.684   0.924   0.273  0.3234 -0.4221 -0.5291
 4571SOL     OW18055   3.503   0.118   1.460  0.2416  0.5991 -0.1281
 4571SOL    HW218056   3.408   0.123   1.448  0.4440  2.7056 -1.5318
 4571SOL    HW318057   3.524   0.194   1.514  1.1421  0.1599  0.1570
 4571SOL    MW418058   3.493   0.129   1.465  0.3871  0.8191 -0.2757
 4572SOL     OW18059   2.834   3.086   0.432  0.1616 -0.1826  0.2068
 4572SOL    HW218060   2.857   3.022   0.365 -0.2690 -0.5813  0.4346
 4572SOL    HW318061   2.856   3.171   0.393 -0.9518 -0.3323 -0.8050
 4572SOL    MW418062   2.840   3.089   0.418 -0.0421 -0.2549  0.1034
 4573SOL     OW18063   4.498   5.977   4.086  0.6070 -0.1885  0.6157
 4573SOL    HW218064   4.457   5.958   4.170 -1.8441  0.5581 -0.3296
 4573SOL    HW318065   4.507   6.073   4.084  0.4980 -0.1842 -0.0245
 4573SOL    MW418066   4.494   5.987   4.096  0.2692 -0.0894  0.4065
 4574SOL     OW18067   1.692   0.657   2.642  0.3266 -0.0165 -0.2816
 4574SOL    HW218068   1.634   0.588   2.608  0.4961 -0.4582  0.3267
 4574SOL    HW318069   1.634   0.731   2.657 -0.4847 -1.0693  2.2126
 4574SOL    MW418070   1.677   0.658   2.639  0.2419 -0.2136  0.1277
 4575SOL     OW18071   1.315   4.829   1.309 -0.1507 -0.1023  0.0641
 4575SOL    HW218072   1.358   4.822   1.224 -1.0294 -0.3782 -0.3681
 4575SOL    HW318073   1.369   4.774   1.367  0.6895  0.4163 -0.1976
 4575SOL    MW418074   1.328   4.821   1.305 -0.1558 -0.0703 -0.0275
 4576SOL     OW18075   0.067   1.814   2.220 -0.4291  0.1327 -0.0485
 4576SOL    HW218076   0.078   1.721   2.241  0.5406  0.3272  0.3686
 4576SOL    HW318077   0.140   1.857   2.264 -2.8391  1.5973  2.9732
 4576SOL    MW418078   0.078   1.807   2.229 -0.6191  0.3516  0.4052
 4577SOL     OW18079   1.344   0.917   0.096  0.2513 -0.1297  0.3640
 4577SOL    HW218080   1.408   0.984   0.072  0.6715 -0.8942 -0.7918
 4577SOL    HW318081   1.277   0.963   0.147  2.1487  0.5288  2.3850
 4577SOL    MW418082   1.343   0.932   0.099  0.5571 -0.1437  0.4781
 4578SOL     OW18083   3.842   2.652   6.318  1.0990 -0.1256  0.2050
 4578SOL    HW218084   3.882   2.567   6.299  0.6521  0.0621 -1.7104
 4578SOL    HW318085   3.894   2.715   6.269 -0.5575  0.3061 -1.0771
 4578SOL    MW418086   3.854   2.649   6.309  0.8215 -0.0439 -0.2169
 4579SOL     OW18087   4.418   1.760   2.016 -0.1776 -0.2709  0.4800
 4579SOL    HW218088   4.419   1.681   2.071  0.5216  0.3220  1.3470
 4579SOL    HW318089   4.441   1.831   2.076  1.2714  0.3214 -0.7099
 4579SOL    MW418090   4.421   1.759   2.032  0.1058 -0.1145  0.4374
 4580SOL     OW18091   4.637   4.333   3.586 -0.1669 -0.0227 -0.0091
 4580SOL    HW218092   4.664   4.411   3.634  1.6675  0.1459 -1.1812
 4580SOL    HW318093   4.553   4.357   3.546 -1.4832 -0.0046  2.5818
 4580SOL    MW418094   4.630   4.346   3.587 -0.0986  0.0020  0.1781
 4581SOL     OW18095   5.070   4.311   5.126 -0.0927 -0.0090 -0.0952
 4581SOL    HW218096   5.114   4.230   5.099  0.7114 -0.4420  2.2386
 4581SOL    HW318097   5.108   4.379   5.071  1.7966 -0.7453  0.2245
 4581SOL    MW418098   5.081   4.309   5.115  0.2627 -0.1633  0.2549
 4582SOL     OW18099   1.337   5.649   0.793 -0.4581  0.0792  0.2580
 4582SOL    HW218100   1.333   5.554   0.811  0.3514  0.1047  0.5863
 4582SOL    HW318101   1.381   5.686   0.870 -0.0019  0.6196 -0.2573
 4582SOL    MW418102   1.342   5.641   0.806 -0.2911  0.1539  0.2333
 4583SOL     OW18103   3.359   4.367   1.326 -0.1515  0.1160 -0.0454
 4583SOL    HW218104   3.276   4.377   1.278 -0.4608  0.1392  0.4897
 4583SOL    HW318105   3.415   4.435   1.290  0.2479 -1.0105 -1.6796
 4583SOL    MW418106   3.355   4.378   1.315 -0.1396 -0.0295 -0.1904
 4584SOL     OW18107   0.247   4.963   6.180 -0.0604 -0.4889  0.4508
 4584SOL    HW218108   0.272   4.938   6.091  0.5941 -1.0836  0.7917
 4584SOL    HW318109   0.197   5.044   6.168  1.5407  0.4591 -0.3441
 4584SOL    MW418110   0.244   4.971   6.166  0.2372 -0.4423  0.3909
 4585SOL     OW18111   3.123   0.407   0.166 -0.3179 -0.0213 -0.3423
 4585SOL    HW218112   3.137   0.496   0.132 -0.1894  0.0733 -0.0512
 4585SOL    HW318113   3.203   0.360   0.144 -0.5029 -0.1517 -0.7549
 4585SOL    MW418114   3.135   0.413   0.159 -0.3254 -0.0260 -0.3583
 4586SOL     OW18115   2.110   2.872   2.162  0.2979 -0.0479 -0.4477
 4586SOL    HW218116   2.059   2.918   2.228  1.6549  0.3720  0.3464
 4586SOL    HW318117   2.119   2.936   2.091  0.4999  0.2092 -0.1937
 4586SOL    MW418118   2.105   2.887   2.161  0.5036  0.0414 -0.3094
 4587SOL     OW18119   4.740   5.797   2.157  0.0138  0.4647 -0.1440
 4587SOL    HW218120   4.792   5.829   2.083  1.0325  0.2905  0.4733
 4587SOL    HW318121   4.805   5.772   2.223 -0.8042 -1.1904  0.0847
 4587SOL    MW418122   4.755   5.798   2.156  0.0403  0.2233 -0.0324
 4588SOL     OW18123   2.251   1.061   1.521  0.5930  0.0706  0.4773
 4588SOL    HW218124   2.186   1.064   1.592 -0.0181 -1.8358  0.0678
 4588SOL    HW318125   2.313   0.993   1.549  0.0094 -1.1358 -1.0539
 4588SOL    MW418126   2.251   1.052   1.534  0.4354 -0.3401  0.2213
 4589SOL     OW18127   4.156   2.575   1.875 -1.0626  0.1042  0.0326
 4589SOL    HW218128   4.208   2.654   1.866 -2.3924  0.8894 -1.1511
 4589SOL    HW318129   4.091   2.596   1.943  0.4358 -1.0712  1.9369
 4589SOL    MW418130   4.154   2.588   1.883 -1.0403  0.0527  0.1276
 4590SOL     OW18131   1.331   0.323   3.648  0.5675 -0.0776  0.5919
 4590SOL    HW218132   1.420   0.344   3.674  1.0382  0.4420 -1.2370
 4590SOL    HW318133   1.303   0.255   3.708  2.3765 -0.5916  0.9099
 4590SOL    MW418134   1.339   0.317   3.659  0.8683 -0.0769  0.3926
 4591SOL     OW18135   4.948   4.022   2.676 -0.1533 -0.0200  0.0957
 4591SOL    HW218136   4.976   4.113   2.686 -0.2770  0.0877 -0.5298
 4591SOL    HW318137   4.879   4.025   2.611 -2.2317 -0.1789  2.1500
 4591SOL    MW418138   4.943   4.035   2.669 -0.4438 -0.0268  0.2842
 4592SOL     OW18139   0.237   5.723   5.968 -0.2144 -0.7158  0.0082
 4592SOL    HW218140   0.198   5.668   5.900  0.1082 -0.5561 -0.3051
 4592SOL    HW318141   0.162   5.752   6.020 -0.3901 -1.4414  0.1721
 4592SOL    MW418142   0.222   5.719   5.966 -0.1950 -0.7904 -0.0115
 4593SOL     OW18143   4.988   3.481   2.942 -0.6187  0.4533  0.2248
 4593SOL    HW218144   4.934   3.534   3.001  2.4744  1.8466  2.0820
 4593SOL    HW318145   4.983   3.526   2.858 -0.5087  1.9534  0.9806
 4593SOL    MW418146   4.980   3.494   2.939 -0.1961  0.8351  0.5695
 4594SOL     OW18147   2.823   4.232   0.097  0.2924  0.4182 -0.4648
 4594SOL    HW218148   2.851   4.246   0.188  0.0871  0.3325 -0.3875
 4594SOL    HW318149   2.837   4.138   0.082  1.4673  0.6483 -0.9140
 4594SOL    MW418150   2.829   4.221   0.107  0.4203  0.4372 -0.5139
 4595SOL     OW18151   4.877   0.868   4.757  0.4596 -0.2667 -0.0589
 4595SOL    HW218152   4.919   0.794   4.802  1.5858 -0.7226 -1.7688
 4595SOL    HW318153   4.887   0.848   4.664 -2.5343  0.2216 -0.5781
 4595SOL    MW418154   4.884   0.855   4.751  0.2132 -0.2625 -0.3530
 4596SOL     OW18155   1.432   6.028   0.344  0.1008  0.2454 -0.0773
 4596SOL    HW218156   1.442   6.113   0.302 -0.8216 -0.4109 -1.7110
 4596SOL    HW318157   1.383   6.047   0.424 -1.7984  1.0710 -1.3667
 4596SOL    MW418158   1.427   6.042   0.349 -0.2715  0.2678 -0.4630
 4597SOL     OW18159   3.623   6.031   0.166  0.5797 -0.3349  0.1362
 4597SOL    HW218160   3.577   6.058   0.087 -0.7219 -0.7598  0.7278
 4597SOL    HW318161   3.710   6.071   0.158 -0.0868  1.0027 -0.7145
 4597SOL    MW418162   3.629   6.040   0.155  0.3200 -0.2144  0.1020
 4598SOL     OW18163   5.066   5.032   1.746 -0.2922 -0.1161  0.1122
 4598SOL    HW218164   5.089   5.042   1.654 -1.2713  0.4452 -0.0902
 4598SOL    HW318165   5.110   5.105   1.790 -1.9718  1.2288 -0.3418
 4598SOL    MW418166   5.075   5.043   1.740 -0.6430  0.1354  0.0256
 4599SOL     OW18167   3.015   0.851   1.474  0.4390 -0.3652 -0.1097
 4599SOL    HW218168   3.008   0.824   1.382 -0.0852 -0.0180 -0.1738
 4599SOL    HW318169   3.094   0.905   1.477 -0.2052  0.6194 -0.6001
 4599SOL    MW418170   3.025   0.854   1.462  0.2849 -0.1895 -0.1828
 4600SOL     OW18171   6.306   1.942   4.886  0.6342 -0.0432 -0.1085
 4600SOL    HW218172   6.296   1.980   4.799 -0.5243 -0.3292 -0.1309
 4600SOL    HW318173   6.278   2.011   4.946 -1.8390 -0.8659 -0.1681
 4600SOL    MW418174   6.301   1.956   4.883  0.1550 -0.1895 -0.1193
 4601SOL     OW18175   3.489   5.313   4.885 -0.1454 -0.2371 -0.4835
 4601SOL    HW218176   3.580   5.334   4.907 -0.1232  0.7989 -1.4833
 4601SOL    HW318177   3.495   5.276   4.797 -0.6797 -0.2748 -0.5016
 4601SOL    MW418178   3.502   5.311   4.876 -0.2130 -0.1054 -0.6178
 4602SOL     OW18179   1.932   3.628   1.754  0.2239 -0.6085 -0.5859
 4602SOL    HW218180   1.843   3.609   1.783  0.5823 -1.5016 -0.0120
 4602SOL    HW318181   1.940   3.724   1.760 -1.0269 -0.4152 -1.6827
 4602SOL    MW418182   1.921   3.638   1.759  0.1062 -0.7008 -0.6549
 4603SOL     OW18183   0.778   5.371   2.025 -0.5318  0.5499 -0.2216
 4603SOL    HW218184   0.801   5.383   1.933 -2.1901 -2.4806 -1.1689
 4603SOL    HW318185   0.859   5.342   2.066 -0.0811  0.6082 -1.0396
 4603SOL    MW418186   0.792   5.369   2.018 -0.6911  0.1578 -0.4545
 4604SOL     OW18187   3.867   3.421   5.009  0.3868 -0.0043 -0.1223
 4604SOL    HW218188   3.807   3.355   5.044  0.7651 -0.0772  0.3939
 4604SOL    HW318189   3.819   3.503   5.016  0.5273  0.0101  0.7562
 4604SOL    MW418190   3.853   3.423   5.015  0.4553 -0.0120  0.0617
 4605SOL     OW18191   3.739   5.849   3.263  0.1456  0.1570  0.9611
 4605SOL    HW218192   3.660   5.873   3.215 -0.7491 -0.3675  2.1335
 4605SOL    HW318193   3.707   5.810   3.344  1.6114 -0.2045  1.3919
 4605SOL    MW418194   3.724   5.847   3.267  0.2210  0.0401  1.1726
 4606SOL     OW18195   3.358   3.869   2.953  0.3760 -0.3893 -0.3704
 4606SOL    HW218196   3.372   3.962   2.972 -0.2431 -0.6910  1.9003
 4606SOL    HW318197   3.296   3.869   2.880 -1.4806  1.0795  1.0685
 4606SOL    MW418198   3.351   3.882   2.946  0.0494 -0.2353  0.1190
 4607SOL     OW18199   0.231   4.907   0.485  0.3038 -0.1884  0.4606
 4607SOL    HW218200   0.299   4.971   0.467 -1.1605  1.4317  0.4507
 4607SOL    HW318201   0.264   4.855   0.558  2.3168 -0.7092 -0.7494
 4607SOL    MW418202   0.244   4.908   0.492  0.3762 -0.0434  0.2996
 4608SOL     OW18203   2.831   2.877   3.314 -0.3957 -0.3109 -0.1269
 4608SOL    HW218204   2.803   2.791   3.284 -0.4931  0.0278 -1.0165
 4608SOL    HW318205   2.906   2.859   3.371 -0.2334 -0.9583 -0.5328
 4608SOL    MW418206   2.837   2.863   3.318 -0.3871 -0.3516 -0.2978
 4609SOL     OW18207   3.693   4.893   3.008 -0.5778  0.1468  0.5553
 4609SOL    HW218208   3.780   4.871   3.042  0.8150  1.5517 -1.8146
 4609SOL    HW318209   3.653   4.946   3.076 -0.5783 -2.3442  2.6622
 4609SOL    MW418210   3.699   4.897   3.021 -0.3941  0.0035  0.5206
 4610SOL     OW18211   6.262   1.456   5.544  0.2021 -0.1376 -0.4308
 4610SOL    HW218212   6.271   1.496   5.458  0.0585  1.4413  0.2429
 4610SOL    HW318213   6.352   1.446   5.575  0.2217  1.3636  0.0978
 4610SOL    MW418214   6.275   1.460   5.537  0.1858  0.2687 -0.2722
 4611SOL     OW18215   2.360   4.249   0.411 -0.5915  0.4031  0.2549
 4611SOL    HW218216   2.293   4.203   0.361 -0.6534  2.0257 -1.2890
 4611SOL    HW318217   2.437   4.248   0.353 -0.7551  2.5978 -0.0793
 4611SOL    MW418218   2.361   4.243   0.396 -0.6213  0.9068  0.0071
 4612SOL     OW18219   0.812   4.687   3.330 -0.5654  0.0629 -0.2322
 4612SOL    HW218220   0.900   4.669   3.364  0.2192  2.1342 -1.0024
 4612SOL    HW318221   0.756   4.623   3.374  0.9133  0.4184  2.3715
 4612SOL    MW418222   0.816   4.676   3.341 -0.2668  0.3831  0.0097
 4613SOL     OW18223   0.694   2.765   0.595 -0.0167  0.2579 -0.4143
 4613SOL    HW218224   0.782   2.727   0.596  0.5471  1.4030  1.7287
 4613SOL    HW318225   0.667   2.764   0.687 -2.1538  0.2078 -0.9855
 4613SOL    MW418226   0.702   2.760   0.608 -0.2243  0.4024 -0.2070
 4614SOL     OW18227   4.903   2.623   3.611  0.1749 -0.4720  0.1348
 4614SOL    HW218228   4.862   2.632   3.525 -2.8335 -1.2612  1.3415
 4614SOL    HW318229   4.928   2.531   3.616  0.3342 -0.4298  0.1294
 4614SOL    MW418230   4.901   2.612   3.600 -0.2010 -0.5706  0.2933
 4615SOL     OW18231   2.029   3.513   0.022  0.1737 -0.0622  0.1157
 4615SOL    HW218232   1.996   3.516   0.111 -0.3920 -0.7306 -0.0681
 4615SOL    HW318233   1.956   3.479  -0.030  0.0072  1.5831 -0.8319
 4615SOL    MW418234   2.015   3.509   0.027  0.0771  0.0667 -0.0336
 4616SOL     OW18235   2.621   1.860   2.196 -0.7853 -0.2755  0.0344
 4616SOL    HW218236   2.627   1.839   2.103 -0.7216 -0.9797  0.1917
 4616SOL    HW318237   2.617   1.775   2.240  1.5968 -0.0270  0.8497
 4616SOL    MW418238   2.621   1.846   2.190 -0.4626 -0.3356  0.1627
 4617SOL     OW18239   0.159   6.109   0.322  0.9642 -0.2268  0.3477
 4617SOL    HW218240   0.177   6.193   0.280  0.2066  0.3792  1.1938
 4617SOL    HW318241   0.185   6.122   0.413 -1.3200 -0.1040  1.0487
 4617SOL    MW418242   0.165   6.122   0.328  0.5629 -0.1306  0.5518
 4618SOL     OW18243   2.813   5.107   4.485  0.2735 -0.3827  0.3397
 4618SOL    HW218244   2.741   5.170   4.493  0.8656  0.4203 -0.3451
 4618SOL    HW318245   2.877   5.152   4.429  1.2289 -1.1446  0.7896
 4618SOL    MW418246   2.812   5.121   4.478  0.4777 -0.3773  0.3087
 4619SOL     OW18247   1.121   5.761   3.852 -0.1394 -0.4724 -0.0875
 4619SOL    HW218248   1.064   5.805   3.915 -0.1825 -0.9956  0.2516
 4619SOL    HW318249   1.177   5.705   3.906  1.4782  0.8461 -0.3006
 4619SOL    MW418250   1.121   5.759   3.867  0.0684 -0.3675 -0.0709
 4620SOL     OW18251   4.947   5.704   1.735 -0.6631  0.0441  0.8781
 4620SOL    HW218252   4.912   5.683   1.649 -0.5567 -0.6002  0.9845
 4620SOL    HW318253   5.034   5.741   1.718  0.1594 -1.8297  0.7756
 4620SOL    MW418254   4.954   5.706   1.722 -0.5405 -0.2882  0.8786
 4621SOL     OW18255   4.417   0.960   5.282 -0.7235 -0.0221 -0.1040
 4621SOL    HW218256   4.483   1.028   5.273 -1.5810  0.6564 -1.5036
 4621SOL    HW318257   4.334   1.006   5.289 -1.1659 -0.8916  0.8277
 4621SOL    MW418258   4.415   0.975   5.282 -0.8950 -0.0473 -0.1658
 4622SOL     OW18259   0.514   3.435   6.335  0.0649  0.0725  0.8677
 4622SOL    HW218260   0.581   3.399   6.392  2.3415  3.9949  0.9921
 4622SOL    HW318261   0.559   3.454   6.253 -1.5817  0.2573 -0.0348
 4622SOL    MW418262   0.528   3.433   6.332  0.1480  0.6144  0.7650
 4623SOL     OW18263   2.469   4.953   0.912 -0.5290 -0.2558  0.2794
 4623SOL    HW218264   2.375   4.939   0.922 -1.1892  1.8896 -1.8409
 4623SOL    HW318265   2.482   4.959   0.818  1.3782  1.3854  0.5743
 4623SOL    MW418266   2.458   4.952   0.901 -0.3644  0.2438  0.0385
 4624SOL     OW18267   2.394   5.612   4.318  0.2472  0.0412  0.5986
 4624SOL    HW218268   2.460   5.549   4.346  0.7842  0.3555  0.0530
 4624SOL    HW318269   2.328   5.559   4.273  0.7161 -0.1255  0.1068
 4624SOL    MW418270   2.394   5.597   4.316  0.3799  0.0607  0.4617
 4625SOL     OW18271   0.695   1.228   6.141 -0.2872  0.0449  0.1105
 4625SOL    HW218272   0.702   1.277   6.059 -1.3048 -0.4765 -0.2932
 4625SOL    HW318273   0.647   1.149   6.118  0.7200 -0.8296  0.9024
 4625SOL    MW418274   0.690   1.224   6.127 -0.2886 -0.1393  0.1617
 4626SOL     OW18275   6.441   3.032   1.161  0.4897  0.3015  0.2138
 4626SOL    HW218276   6.516   2.975   1.179 -0.1510 -0.9793 -1.0272
 4626SOL    HW318277   6.480   3.111   1.125  1.2990 -0.0224  0.3465
 4626SOL    MW418278   6.456   3.035   1.159  0.5119  0.0898  0.0676
 4627SOL     OW18279   5.309   2.060   4.287  0.0530 -0.3587 -0.2378
 4627SOL    HW218280   5.376   2.122   4.314  1.2408 -1.5269 -0.3598
 4627SOL    HW318281   5.347   2.015   4.212  1.0678 -4.0213  2.1880
 4627SOL    MW418282   5.322   2.062   4.281  0.3436 -0.9961  0.0662
 4628SOL     OW18283   3.852   4.993   0.285  0.2750  0.7643 -0.0283
 4628SOL    HW218284   3.830   5.084   0.268 -0.4063  0.1626 -2.7116
 4628SOL    HW318285   3.769   4.946   0.279  0.8960 -0.2839 -0.6919
 4628SOL    MW418286   3.838   4.999   0.282  0.2670  0.5466 -0.4699
 4629SOL     OW18287   4.721   4.598   0.675  0.0889  0.0341  0.2665
 4629SOL    HW218288   4.767   4.532   0.726 -1.7786 -0.4312  1.4408
 4629SOL    HW318289   4.707   4.556   0.589 -2.3365 -1.8099  1.4226
 4629SOL    MW418290   4.725   4.584   0.670 -0.4775 -0.2706  0.5740
 4630SOL     OW18291   5.540   5.194   3.741 -0.1805 -0.0975  0.7538
 4630SOL    HW218292   5.524   5.280   3.780 -0.7382 -0.1380  0.6342
 4630SOL    HW318293   5.630   5.173   3.763 -0.5624 -0.2488  2.2768
 4630SOL    MW418294   5.550   5.202   3.749 -0.3045 -0.1228  0.9389
 4631SOL     OW18295   5.393   2.942   5.671  0.2170  0.7290 -0.2407
 4631SOL    HW218296   5.433   2.960   5.757  1.8866 -1.8893 -0.3681
 4631SOL    HW318297   5.467   2.922   5.614 -1.0518 -0.6429 -1.4793
 4631SOL    MW418298   5.408   2.942   5.675  0.2699  0.2025 -0.4209
 4632SOL     OW18299   1.885   4.851   6.345  0.4119 -0.2200 -0.4804
 4632SOL    HW218300   1.958   4.798   6.311  2.2141 -0.0874  2.8014
 4632SOL    HW318301   1.874   4.920   6.281  1.9462 -1.2837 -1.9929
 4632SOL    MW418302   1.893   4.853   6.332  0.8521 -0.3428 -0.2469
 4633SOL     OW18303   3.814   1.148   1.758  0.3452 -0.0399  0.3537
 4633SOL    HW218304   3.763   1.229   1.749  0.4261 -0.0097  0.1854
 4633SOL    HW318305   3.903   1.177   1.776  0.6508 -0.0777 -1.0448
 4633SOL    MW418306   3.819   1.162   1.759  0.3962 -0.0409  0.1470
 4634SOL     OW18307   2.758   0.027   3.007  0.8268  0.0895 -0.1244
 4634SOL    HW218308   2.834   0.009   3.062  0.7821  1.8664  0.5976
 4634SOL    HW318309   2.787   0.006   2.918  1.1607 -2.0682  0.4556
 4634SOL    MW418310   2.772   0.022   3.002  0.8650  0.0393  0.0474
 4635SOL     OW18311   5.918   1.876   1.708  0.1194  0.3439  0.1495
 4635SOL    HW218312   5.980   1.930   1.658  1.3125 -1.3250 -0.2591
 4635SOL    HW318313   5.963   1.793   1.720 -1.7877 -0.6982  0.4569
 4635SOL    MW418314   5.932   1.873   1.703  0.0252 -0.0138  0.1362
 4636SOL     OW18315   1.669   4.120   0.515  0.0675  0.4343  0.4588
 4636SOL    HW218316   1.686   4.043   0.461 -2.8865  0.2750 -0.4753
 4636SOL    HW318317   1.701   4.194   0.462  1.7875 -0.0109  0.8179
 4636SOL    MW418318   1.675   4.120   0.501 -0.0953  0.3545  0.3830
 4637SOL     OW18319   3.108   4.397   5.141  0.0159 -0.0432 -0.4817
 4637SOL    HW218320   3.096   4.305   5.168  0.9250 -0.0648 -0.0966
 4637SOL    HW318321   3.049   4.446   5.198 -0.5799 -0.4026 -0.7820
 4637SOL    MW418322   3.099   4.391   5.152  0.0572 -0.0934 -0.4705
 4638SOL     OW18323   4.893   5.884   2.569  0.5017  0.1946  0.5004
 4638SOL    HW218324   4.901   5.974   2.536  0.9079  0.1779  0.5562
 4638SOL    HW318325   4.937   5.830   2.503  0.9722  0.1224  0.8722
 4638SOL    MW418326   4.899   5.889   2.556  0.6173  0.1829  0.5568
 4639SOL     OW18327   5.147   3.836   4.196 -0.4067 -0.0350 -0.1532
 4639SOL    HW218328   5.163   3.924   4.230 -0.6429 -0.4379  1.0731
 4639SOL    HW318329   5.120   3.849   4.105 -0.1069  1.1312 -0.0846
 4639SOL    MW418330   5.145   3.849   4.189 -0.3983  0.0657  0.0177
 4640SOL     OW18331   0.054   4.589   6.248 -0.2780  0.0172  0.2307
 4640SOL    HW218332   0.006   4.549   6.320 -0.5680  0.0743  0.0682
 4640SOL    HW318333   0.019   4.677   6.242  0.4878  0.3721  0.7108
 4640SOL    MW418334   0.043   4.595   6.257 -0.2152  0.0716  0.2726
 4641SOL     OW18335   1.605   5.780   3.624 -0.1158  0.2708  0.2353
 4641SOL    HW218336   1.513   5.785   3.598 -0.0591  0.9191  0.1304
 4641SOL    HW318337   1.613   5.697   3.671 -0.8993  0.5105  0.8032
 4641SOL    MW418338   1.594   5.770   3.627 -0.2117  0.3880  0.2964
 4642SOL     OW18339   2.497   1.935   4.941 -0.1456 -0.5527  0.1952
 4642SOL    HW218340   2.481   2.010   4.999 -0.6430 -0.3365 -0.2154
 4642SOL    HW318341   2.585   1.906   4.965 -0.8456 -1.3317  2.0035
 4642SOL    MW418342   2.507   1.941   4.952 -0.3035 -0.6269  0.3796
 4643SOL     OW18343   3.889   0.101   4.743 -0.4908 -0.5020  0.2783
 4643SOL    HW218344   3.891   0.158   4.820  1.1386  0.3560 -0.3594
 4643SOL    HW318345   3.961   0.132   4.688  0.3529 -3.0616 -0.1995
 4643SOL    MW418346   3.899   0.113   4.746 -0.1645 -0.7265  0.1311
 4644SOL     OW18347   3.242   5.761   3.668  0.1461 -0.3177  0.5338
 4644SOL    HW218348   3.165   5.799   3.625  0.6293  1.3324  1.0631
 4644SOL    HW318349   3.240   5.797   3.756  1.0351 -0.9806  0.8361
 4644SOL    MW418350   3.231   5.771   3.674  0.3271 -0.1874  0.6435
 4645SOL     OW18351   0.679   4.811   3.599 -0.7687 -0.5188  0.0513
 4645SOL    HW218352   0.677   4.839   3.507 -1.5498  0.8293  0.4554
 4645SOL    HW318353   0.587   4.814   3.627 -0.4090  0.1990  1.2013
 4645SOL    MW418354   0.666   4.815   3.590 -0.8243 -0.2462  0.2563
 4646SOL     OW18355   0.322   4.109   3.813 -0.1076  0.3006 -0.3266
 4646SOL    HW218356   0.394   4.102   3.875 -0.1851  0.7780 -0.1757
 4646SOL    HW318357   0.322   4.201   3.786 -1.4973  0.6531  0.7144
 4646SOL    MW418358   0.331   4.120   3.818 -0.3012  0.4101 -0.1693
 4647SOL     OW18359   3.911   3.759   4.310  0.2535 -0.1613 -0.3177
 4647SOL    HW218360   3.980   3.779   4.246  1.2433 -1.5933  0.2456
 4647SOL    HW318361   3.882   3.671   4.287 -1.5398  0.4631 -0.6204
 4647SOL    MW418362   3.917   3.750   4.298  0.1475 -0.2679 -0.2833
 4648SOL     OW18363   1.025   5.569   5.159  0.0508 -0.4836  0.3892
 4648SOL    HW218364   0.979   5.633   5.212 -0.0442 -1.5259  1.5964
 4648SOL    HW318365   1.044   5.497   5.219  0.9811 -1.1831 -0.7075
 4648SOL    MW418366   1.022   5.568   5.174  0.1610 -0.7134  0.4038
 4649SOL     OW18367   3.697   5.552   0.043 -0.4434 -0.8472 -0.1973
 4649SOL    HW218368   3.738   5.516  -0.036 -0.1611 -2.1684  0.5312
 4649SOL    HW318369   3.611   5.510   0.046 -1.3295  0.8357 -0.9446
 4649SOL    MW418370   3.691   5.542   0.033 -0.5230 -0.7995 -0.1998
 4650SOL     OW18371   1.096   0.247   4.620 -0.0912 -0.2121  0.4219
 4650SOL    HW218372   1.124   0.208   4.702 -0.3731  0.3243  0.7789
 4650SOL    HW318373   1.177   0.280   4.580 -0.1358  0.8884  1.2104
 4650SOL    MW418374   1.111   0.246   4.625 -0.1343  0.0039  0.5730
 4651SOL     OW18375   4.687   6.250   1.544  0.1360  0.2739 -0.2092
 4651SOL    HW218376   4.618   6.215   1.601 -0.9217  1.7118 -0.5647
 4651SOL    HW318377   4.743   6.175   1.527  0.3506 -0.3016  2.4993
 4651SOL    MW418378   4.685   6.235   1.549  0.0248  0.3877  0.1013
 4652SOL     OW18379   6.344   3.492   4.929 -0.2225  0.2032  0.4528
 4652SOL    HW218380   6.431   3.470   4.963 -0.3997 -1.7710 -0.2381
 4652SOL    HW318381   6.362   3.538   4.847  0.2332 -1.8899 -0.6923
 4652SOL    MW418382   6.358   3.495   4.923 -0.1857 -0.3334  0.2105
 4653SOL     OW18383   0.287   0.726   5.123  0.4241  0.2986  0.1435
 4653SOL    HW218384   0.251   0.647   5.082  0.9434  0.3484 -0.4186
 4653SOL    HW318385   0.380   0.724   5.102  0.4637  1.0018  0.2226
 4653SOL    MW418386   0.295   0.715   5.115  0.4978  0.3979  0.0798
 4654SOL     OW18387   5.206   5.637   3.031  0.0460  0.0043  0.8113
 4654SOL    HW218388   5.182   5.652   3.123 -0.5646 -2.2719  1.0741
 4654SOL    HW318389   5.122   5.635   2.985  0.1700 -1.0771  0.6022
 4654SOL    MW418390   5.191   5.639   3.037 -0.0182 -0.4387  0.8184
 4655SOL     OW18391   0.158   2.120   3.383  0.0239 -0.0854 -0.2370
 4655SOL    HW218392   0.091   2.166   3.435  1.5566  1.3906  0.5552
 4655SOL    HW318393   0.115   2.041   3.352 -2.2032  1.0089 -0.1096
 4655SOL    MW418394   0.144   2.116   3.386 -0.0677  0.2538 -0.1156
 4656SOL     OW18395   3.238   5.522   2.778  0.2898 -0.4240 -0.3094
 4656SOL    HW218396   3.173   5.558   2.839  0.4130 -2.4816  1.1554
 4656SOL    HW318397   3.187   5.465   2.720  0.4557 -0.0320 -0.8452
 4656SOL    MW418398   3.222   5.519   2.779  0.3279 -0.6438 -0.1868
 4657SOL     OW18399   5.661   2.678   0.566 -0.3341 -0.4782  0.0955
 4657SOL    HW218400   5.588   2.628   0.529 -0.0323 -0.2774 -0.7859
 4657SOL    HW318401   5.633   2.769   0.561  0.5836 -0.2532 -1.7139
 4657SOL    MW418402   5.648   2.683   0.560 -0.1732 -0.4220 -0.2595
 4658SOL     OW18403   4.443   2.033   1.146  0.3684 -0.3251 -0.0454
 4658SOL    HW218404   4.495   1.978   1.205  0.8826  1.0076  0.7839
 4658SOL    HW318405   4.449   2.121   1.183 -0.8891  0.2085 -1.0335
 4658SOL    MW418406   4.451   2.037   1.159  0.2703 -0.0789 -0.0663
 4659SOL     OW18407   2.197   1.701   2.762 -0.0084 -0.7753  0.2855
 4659SOL    HW218408   2.164   1.789   2.744  0.2871 -0.8281 -0.5644
 4659SOL    HW318409   2.291   1.713   2.775  0.1866 -1.0764 -0.7655
 4659SOL    MW418410   2.205   1.714   2.761  0.0563 -0.8220  0.0347
 4660SOL     OW18411   4.522   0.157   3.613  0.2672 -0.0566 -0.3466
 4660SOL    HW218412   4.538   0.249   3.590  0.6520 -0.2325 -0.7976
 4660SOL    HW318413   4.602   0.112   3.587  0.1088 -0.5094 -0.0525
 4660SOL    MW418414   4.535   0.163   3.606  0.2971 -0.1396 -0.3673
 4661SOL     OW18415   3.193   3.010   6.430  0.3037  0.0296 -0.2546
 4661SOL    HW218416   3.177   3.057   6.347 -0.6094 -0.6894 -0.5013
 4661SOL    HW318417   3.120   3.035   6.486  0.7928  0.3216  0.2650
 4661SOL    MW418418   3.181   3.020   6.426  0.2477 -0.0268 -0.2186
 4662SOL     OW18419   4.321   2.092   3.596 -0.4069  0.3453 -0.0829
 4662SOL    HW218420   4.303   2.136   3.513  0.2703  0.6329 -0.0911
 4662SOL    HW318421   4.257   2.022   3.601  0.3985 -0.5538 -1.5232
 4662SOL    MW418422   4.310   2.088   3.585 -0.2113  0.2646 -0.2740
 4663SOL     OW18423   3.695   0.723   3.261  0.1293  0.0166 -0.5218
 4663SOL    HW218424   3.653   0.642   3.232 -0.7614  0.0591  0.5530
 4663SOL    HW318425   3.729   0.763   3.181 -0.2107 -0.9810 -1.1802
 4663SOL    MW418426   3.694   0.718   3.247 -0.0331 -0.1094 -0.4668
 4664SOL     OW18427   5.923   1.313   3.996  0.4031  0.4775  0.1930
 4664SOL    HW218428   5.926   1.268   3.911  1.3512  2.3201 -0.8020
 4664SOL    HW318429   5.912   1.405   3.974 -0.4924  0.8810  2.1444
 4664SOL    MW418430   5.922   1.319   3.982  0.4100  0.7739  0.3192
 4665SOL     OW18431   0.591   5.948   4.352 -0.0380  0.2546 -0.1439
 4665SOL    HW218432   0.552   5.954   4.439 -2.4889  1.6325 -1.2513
 4665SOL    HW318433   0.567   5.861   4.321  1.4659 -0.5285  0.7738
 4665SOL    MW418434   0.583   5.937   4.359 -0.1629  0.3331 -0.1689
 4666SOL     OW18435   2.004   2.964   6.251 -0.2103 -0.2071 -0.7297
 4666SOL    HW218436   2.046   2.937   6.170  0.0044  0.7166 -0.9363
 4666SOL    HW318437   2.067   3.022   6.293  0.0222 -1.3307  0.5154
 4666SOL    MW418438   2.018   2.968   6.246 -0.1513 -0.2335 -0.5927
 4667SOL     OW18439   4.389   0.092   5.880 -0.0286 -0.0965 -0.1773
 4667SOL    HW218440   4.333   0.170   5.882  1.5211  1.1387 -1.6045
 4667SOL    HW318441   4.375   0.056   5.793 -0.4523 -1.2456  0.3499
 4667SOL    MW418442   4.380   0.098   5.869  0.1200 -0.0851 -0.2960
 4668SOL     OW18443   3.536   0.857   2.222 -0.5319  0.1604  0.0426
 4668SOL    HW218444   3.630   0.838   2.223 -0.6209 -0.2617  0.7216
 4668SOL    HW318445   3.528   0.938   2.273 -0.3629  1.0889 -1.3518
 4668SOL    MW418446   3.548   0.865   2.229 -0.5213  0.2272 -0.0518
 4669SOL     OW18447   3.048   0.835   4.724 -0.3686  0.4189  0.5805
 4669SOL    HW218448   3.099   0.911   4.696  0.9087 -0.0787  1.4353
 4669SOL    HW318449   2.958   0.854   4.696  0.3756  1.0162 -1.6328
 4669SOL    MW418450   3.043   0.847   4.717 -0.1019  0.4320  0.4012
 4670SOL     OW18451   4.339   3.928   0.663 -0.0486 -0.0973 -0.0657
 4670SOL    HW218452   4.381   3.963   0.585  1.5760 -0.2278  0.7176
 4670SOL    HW318453   4.294   3.849   0.633 -1.0140  0.8540 -1.2020
 4670SOL    MW418454   4.338   3.922   0.649  0.0384  0.0110 -0.1123
 4671SOL     OW18455   6.358   4.776   4.769  0.2966 -0.0959  0.2514
 4671SOL    HW218456   6.368   4.844   4.837 -0.6735 -0.5590  0.8853
 4671SOL    HW318457   6.263   4.760   4.766  0.4716 -1.0699 -0.2434
 4671SOL    MW418458   6.346   4.783   4.778  0.1917 -0.2855  0.2698
 4672SOL     OW18459   6.420   5.708   1.257  0.6220  0.4954  0.4075
 4672SOL    HW218460   6.334   5.739   1.284  1.3951  2.4548  0.8272
 4672SOL    HW318461   6.427   5.621   1.294 -1.5090 -0.0785 -0.3867
 4672SOL    MW418462   6.410   5.701   1.266  0.4428  0.6782  0.3581
 4673SOL     OW18463   0.423   2.821   2.103  0.3261  0.3882  0.5719
 4673SOL    HW218464   0.489   2.835   2.171  0.6382  0.7672  0.1908
 4673SOL    HW318465   0.424   2.901   2.051 -0.8064  0.6266  0.8744
 4673SOL    MW418466   0.432   2.834   2.105  0.2179  0.4697  0.5615
 4674SOL     OW18467   2.312   3.011   5.525  0.6137 -1.0344 -0.2999
 4674SOL    HW218468   2.363   2.930   5.525  0.1142 -1.3549  0.0534
 4674SOL    HW318469   2.314   3.041   5.434  0.9835 -1.3305 -0.3888
 4674SOL    MW418470   2.319   3.005   5.513  0.5966 -1.1158 -0.2650
 4675SOL     OW18471   3.230   3.929   5.156 -0.1568 -0.0122 -0.7797
 4675SOL    HW218472   3.165   3.989   5.191 -0.8892 -0.5546 -1.1784
 4675SOL    HW318473   3.182   3.847   5.141  0.2784 -0.0230 -2.3749
 4675SOL    MW418474   3.215   3.926   5.158 -0.1960 -0.0852 -1.0428
 4676SOL     OW18475   4.567   3.028   1.612 -0.2687 -0.2669  0.1520
 4676SOL    HW218476   4.578   3.001   1.704  1.2870  1.0994  0.4286
 4676SOL    HW318477   4.556   3.123   1.616  0.4419 -0.1101 -1.1064
 4676SOL    MW418478   4.567   3.037   1.625  0.0303 -0.0659  0.0225
 4677SOL     OW18479   1.209   4.770   2.252  0.5142 -0.5540 -0.2101
 4677SOL    HW218480   1.178   4.770   2.161 -0.3067  0.1632  0.0564
 4677SOL    HW318481   1.129   4.770   2.305  0.8364 -5.1954  0.6511
 4677SOL    MW418482   1.194   4.770   2.247  0.4484 -1.0718 -0.0613
 4678SOL     OW18483   4.039   1.227   1.161  0.3110  0.6658  0.1633
 4678SOL    HW218484   4.103   1.283   1.116 -0.1383 -0.1646 -1.5830
 4678SOL    HW318485   3.963   1.226   1.103 -0.4910 -0.0454  1.2002
 4678SOL    MW418486   4.038   1.234   1.147  0.1459  0.4624  0.0697
 4679SOL     OW18487   1.740   4.391   3.226  0.0208 -0.1608 -0.0886
 4679SOL    HW218488   1.718   4.424   3.313  0.6553  0.0540 -0.0028
 4679SOL    HW318489   1.742   4.296   3.236  0.1463 -0.1340  0.1446
 4679SOL    MW418490   1.737   4.383   3.239  0.1211 -0.1289 -0.0465
 4680SOL     OW18491   1.749   0.169   1.913 -0.7034 -0.1046 -0.6734
 4680SOL    HW218492   1.827   0.135   1.956  0.2787  0.7329 -1.7624
 4680SOL    HW318493   1.710   0.228   1.978 -0.5756 -0.6986 -0.0477
 4680SOL    MW418494   1.754   0.172   1.928 -0.5569 -0.0725 -0.7345
 4681SOL     OW18495   5.863   5.928   1.007 -0.2761  0.1972  0.3388
 4681SOL    HW218496   5.821   5.904   1.089 -0.5106 -0.4729  0.0349
 4681SOL    HW318497   5.790   5.937   0.945 -0.2262  2.0425  0.5102
 4681SOL    MW418498   5.848   5.926   1.009 -0.3005  0.3522  0.3213
 4682SOL     OW18499   1.644   0.763   4.523  0.4523 -0.0979 -0.0999
 4682SOL    HW218500   1.666   0.854   4.543 -2.8089  0.5761  1.1011
 4682SOL    HW318501   1.606   0.730   4.604 -2.1021 -1.2098 -1.6414
 4682SOL    MW418502   1.642   0.771   4.536 -0.3150 -0.1557 -0.1448
 4683SOL     OW18503   4.811   2.008   2.837  0.0540  0.3679 -0.2677
 4683SOL    HW218504   4.869   1.996   2.913 -2.1205 -2.1891  1.1487
 4683SOL    HW318505   4.825   1.929   2.784 -2.0183 -0.2863  0.0917
 4683SOL    MW418506   4.821   1.996   2.840 -0.5063 -0.0558 -0.0334
 4684SOL     OW18507   3.923   0.560   3.196 -0.8797 -0.0760 -0.0256
 4684SOL    HW218508   3.867   0.636   3.214  1.1548  1.2397  1.0957
 4684SOL    HW318509   3.876   0.486   3.234 -2.0370  0.8938  0.5102
 4684SOL    MW418510   3.909   0.560   3.203 -0.7640  0.2255  0.1930
 4685SOL     OW18511   0.159   2.842   0.429 -0.1887 -0.2546 -0.3236
 4685SOL    HW218512   0.217   2.771   0.456  0.8130  0.7633  0.2886
 4685SOL    HW318513   0.173   2.851   0.335  0.4565 -0.1882 -0.2218
 4685SOL    MW418514   0.168   2.834   0.420  0.0286 -0.1115 -0.2294
 4686SOL     OW18515   4.778   4.805   2.827  0.2862  0.0331 -0.3668
 4686SOL    HW218516   4.711   4.834   2.765  0.2285  0.4609 -0.1023
 4686SOL    HW318517   4.856   4.790   2.773 -0.3299 -1.6409 -0.8786
 4686SOL    MW418518   4.779   4.807   2.811  0.1973 -0.1313 -0.3994
 4687SOL     OW18519   0.752   3.214   6.397 -0.1513  0.5364  0.0061
 4687SOL    HW218520   0.738   3.210   6.492 -0.1948  0.7265  0.0064
 4687SOL    HW318521   0.831   3.267   6.387  0.2745 -0.0918 -0.0240
 4687SOL    MW418522   0.761   3.220   6.408 -0.1009  0.4786  0.0021
 4688SOL     OW18523   4.127   0.686   0.874 -0.8444 -0.1280 -0.3147
 4688SOL    HW218524   4.148   0.613   0.933 -0.2214  0.5288  0.2912
 4688SOL    HW318525   4.124   0.646   0.788  0.7455 -0.6823 -0.1585
 4688SOL    MW418526   4.129   0.671   0.871 -0.5524 -0.1145 -0.2141
 4689SOL     OW18527   2.065   5.757   2.707 -0.0295 -0.1787 -0.8536
 4689SOL    HW218528   2.010   5.831   2.737  1.4201  0.5507  0.1409
 4689SOL    HW318529   2.090   5.781   2.618 -2.4712 -1.2347 -1.9085
 4689SOL    MW418530   2.061   5.770   2.700 -0.1604 -0.2218 -0.8616
 4690SOL     OW18531   3.611   4.718   0.838 -0.5367 -0.2205 -0.0708
 4690SOL    HW218532   3.558   4.638   0.834 -0.9506  0.0695 -0.5721
 4690SOL    HW318533   3.698   4.687   0.863 -0.6463 -0.8513 -0.4250
 4690SOL    MW418534   3.615   4.703   0.841 -0.6058 -0.2655 -0.1837
 4691SOL     OW18535   0.947   2.921   2.541  0.1876  0.7922 -0.2013
 4691SOL    HW218536   0.990   2.958   2.617 -1.5980  0.2060  1.1551
 4691SOL    HW318537   0.874   2.980   2.523 -2.6400 -1.7490  1.9195
 4691SOL    MW418538   0.943   2.933   2.548 -0.4210  0.3796  0.2574
 4692SOL     OW18539   2.826   1.023   3.358  0.1750 -0.0883 -0.4274
 4692SOL    HW218540   2.889   0.951   3.362 -0.1677 -0.3394  1.3841
 4692SOL    HW318541   2.839   1.071   3.440  1.0427  2.5298 -1.9765
 4692SOL    MW418542   2.836   1.019   3.370  0.2443  0.2240 -0.3928
 4693SOL     OW18543   4.521   4.696   2.062  0.4783  0.5932 -0.6415
 4693SOL    HW218544   4.581   4.626   2.086  1.4305  1.4316 -0.4932
 4693SOL    HW318545   4.577   4.766   2.030 -0.0960  2.4900  2.0446
 4693SOL    MW418546   4.536   4.696   2.061  0.5282  0.9541 -0.2676
 4694SOL     OW18547   5.732   0.648   6.416 -0.5817 -0.2430 -0.7363
 4694SOL    HW218548   5.703   0.733   6.447  0.4905 -0.0967 -0.0911
 4694SOL    HW318549   5.731   0.655   6.320 -3.5523 -0.5716 -0.8044
 4694SOL    MW418550   5.728   0.660   6.407 -0.8321 -0.2671 -0.6601
 4695SOL     OW18551   5.422   0.649   0.442 -0.3012  0.3688  0.4687
 4695SOL    HW218552   5.503   0.605   0.416 -0.1034  0.9205  0.1467
 4695SOL    HW318553   5.370   0.652   0.362 -1.2435 -1.2234  0.9609
 4695SOL    MW418554   5.426   0.643   0.428 -0.3994  0.2315  0.4912
 4696SOL     OW18555   2.616   0.641   3.271  0.7419  0.2958 -0.7319
 4696SOL    HW218556   2.659   0.619   3.354 -0.5104 -0.5320 -0.2790
 4696SOL    HW318557   2.523   0.633   3.289  0.4432  0.1661 -2.2091
 4696SOL    MW418558   2.610   0.637   3.285  0.5373  0.1695 -0.8671
 4697SOL     OW18559   5.786   5.270   4.674  0.1004 -0.6473 -0.0041
 4697SOL    HW218560   5.755   5.361   4.676 -0.2300 -0.6683 -2.2893
 4697SOL    HW318561   5.876   5.275   4.706 -0.8757 -0.0297  2.9694
 4697SOL    MW418562   5.793   5.283   4.679 -0.0720 -0.5686  0.0867
 4698SOL     OW18563   3.373   5.527   0.858 -0.2448  0.1789  0.5634
 4698SOL    HW218564   3.321   5.526   0.938 -0.9931 -1.4270  0.0989
 4698SOL    HW318565   3.387   5.620   0.839  0.4064  0.5898  2.8228
 4698SOL    MW418566   3.368   5.539   0.866 -0.2576  0.0212  0.8002
 4699SOL     OW18567   0.324   6.400   0.909 -0.7267  0.0571 -0.2190
 4699SOL    HW218568   0.238   6.365   0.890 -0.7968  0.7221 -1.1908
 4699SOL    HW318569   0.307   6.472   0.971 -0.7141 -0.7159  0.7028
 4699SOL    MW418570   0.311   6.405   0.915 -0.7343  0.0429 -0.2256
 4700SOL     OW18571   1.903   4.791   0.181 -0.1122 -0.5667  0.6811
 4700SOL    HW218572   1.899   4.798   0.085 -0.5702 -0.8152  0.6824
 4700SOL    HW318573   1.997   4.788   0.200  0.0477  1.2948  0.3697
 4700SOL    MW418574   1.915   4.792   0.171 -0.1515 -0.3539  0.6402
 4701SOL     OW18575   5.977   3.468   1.415  0.1966 -0.2184  0.1529
 4701SOL    HW218576   5.932   3.479   1.499 -0.4159  2.7238 -0.4565
 4701SOL    HW318577   5.913   3.424   1.359  0.3947 -1.6531  0.9970
 4701SOL    MW418578   5.962   3.464   1.419  0.1419 -0.0195  0.1839
 4702SOL     OW18579   4.935   3.323   0.091  0.0014  0.1571 -0.0085
 4702SOL    HW218580   5.010   3.367   0.052  0.1264  1.1204  1.2498
 4702SOL    HW318581   4.866   3.390   0.091 -0.2459 -0.0883  0.6365
 4702SOL    MW418582   4.935   3.338   0.086 -0.0147  0.2518  0.2426
 4703SOL     OW18583   3.879   2.507   0.310 -0.4792  0.0314  0.0726
 4703SOL    HW218584   3.940   2.436   0.289  0.9572  0.3525  2.7388
 4703SOL    HW318585   3.821   2.512   0.233  1.0550 -2.1776 -1.3614
 4703SOL    MW418586   3.879   2.498   0.297 -0.0873 -0.2177  0.2352
 4704SOL     OW18587   6.280   4.805   4.172  0.1625 -0.4205  0.0548
 4704SOL    HW218588   6.273   4.719   4.213  0.7345 -0.9294 -0.8762
 4704SOL    HW318589   6.339   4.792   4.098  1.1320  1.0173  0.5261
 4704SOL    MW418590   6.287   4.792   4.167  0.3659 -0.2979 -0.0058
 4705SOL     OW18591   2.298   5.745   0.059 -0.0796  0.1471 -0.0704
 4705SOL    HW218592   2.296   5.830   0.102  0.8951 -0.7531  1.8973
 4705SOL    HW318593   2.363   5.754  -0.010 -0.1144  1.0376  0.0020
 4705SOL    MW418594   2.306   5.757   0.055  0.0444  0.1458  0.1988
 4706SOL     OW18595   4.839   3.076   6.422  0.1277 -0.2022  0.0698
 4706SOL    HW218596   4.810   3.086   6.331  2.1734  0.4160 -0.5866
 4706SOL    HW318597   4.879   3.160   6.443  1.0569 -0.8548  0.9914
 4706SOL    MW418598   4.841   3.088   6.413  0.5202 -0.2067  0.1048
 4707SOL     OW18599   5.893   1.609   2.629 -0.2136  0.0557  0.2388
 4707SOL    HW218600   5.989   1.609   2.620 -0.1825  1.2230  0.4396
 4707SOL    HW318601   5.875   1.541   2.694  0.3531 -1.2186 -0.8847
 4707SOL    MW418602   5.904   1.600   2.636 -0.1347  0.0416  0.1171
 4708SOL     OW18603   5.810   2.041   5.814 -0.4750 -0.3489  0.1516
 4708SOL    HW218604   5.847   2.129   5.814  0.1779 -0.5991  1.5997
 4708SOL    HW318605   5.738   2.045   5.752 -1.3057  1.5757  1.1750
 4708SOL    MW418606   5.805   2.053   5.806 -0.4985 -0.1280  0.4777
 4709SOL     OW18607   3.798   6.363   4.398 -0.0580 -0.0284  0.2547
 4709SOL    HW218608   3.735   6.334   4.464 -0.0193 -0.6725  0.0133
 4709SOL    HW318609   3.788   6.459   4.396 -1.9526 -0.2071 -0.7126
 4709SOL    MW418610   3.788   6.372   4.407 -0.3029 -0.1370  0.0952
 4710SOL     OW18611   4.921   1.739   5.085  0.5064  0.1126  0.0362
 4710SOL    HW218612   4.891   1.682   5.013  1.1396 -0.1728 -0.0087
 4710SOL    HW318613   5.010   1.708   5.104  1.1891  1.6377 -0.5532
 4710SOL    MW418614   4.929   1.727   5.078  0.6800  0.2762 -0.0475
 4711SOL     OW18615   4.048   6.218   3.067  0.1309  0.6859 -0.7218
 4711SOL    HW218616   4.112   6.150   3.048  0.9775  1.6086 -1.3010
 4711SOL    HW318617   3.963   6.177   3.051  0.6371 -0.1255 -1.4024
 4711SOL    MW418618   4.045   6.204   3.063  0.3094  0.7006 -0.8880
 4712SOL     OW18619   4.590   6.171   3.440  0.2263 -0.1424 -0.0445
 4712SOL    HW218620   4.647   6.162   3.517  0.2186  0.2504  0.0096
 4712SOL    HW318621   4.508   6.131   3.467  0.4917 -0.7658 -0.1427
 4712SOL    MW418622   4.587   6.165   3.454  0.2603 -0.1728 -0.0503
 4713SOL     OW18623   0.295   3.641   2.692 -0.1435 -0.0681  0.2338
 4713SOL    HW218624   0.348   3.656   2.771 -1.6542  3.9977  0.7227
 4713SOL    HW318625   0.205   3.642   2.724 -0.7340 -0.4520 -1.3485
 4713SOL    MW418626   0.290   3.643   2.707 -0.4208  0.4177  0.0896
 4714SOL     OW18627   6.082   4.510   4.829 -0.6915 -0.0556  0.1510
 4714SOL    HW218628   6.070   4.436   4.770 -2.4243  0.6009 -0.3887
 4714SOL    HW318629   5.995   4.526   4.866  0.5806 -1.5892  4.4039
 4714SOL    MW418630   6.069   4.503   4.826 -0.7523 -0.1714  0.6409
 4715SOL     OW18631   5.513   3.635   6.198 -0.2542  0.2104 -0.2613
 4715SOL    HW218632   5.470   3.601   6.276 -1.2677  0.4321 -0.7088
 4715SOL    HW318633   5.542   3.556   6.151  1.8482  0.0907  1.1018
 4715SOL    MW418634   5.511   3.620   6.202 -0.1106  0.2239 -0.1405
 4716SOL     OW18635   5.777   4.329   1.541  0.1467  0.2445 -0.1027
 4716SOL    HW218636   5.769   4.372   1.626 -0.7047 -0.0223 -0.0425
 4716SOL    HW318637   5.869   4.301   1.537  0.4354  1.0739  0.3266
 4716SOL    MW418638   5.788   4.331   1.552  0.0725  0.3187 -0.0381
 4717SOL     OW18639   1.219   2.235   2.587 -0.5861 -0.3566 -0.3403
 4717SOL    HW218640   1.281   2.162   2.590  0.6220  0.6586  0.2119
 4717SOL    HW318641   1.173   2.230   2.671 -0.7753 -0.7036 -0.4612
 4717SOL    MW418642   1.221   2.224   2.598 -0.4517 -0.2684 -0.2834
 4718SOL     OW18643   4.880   3.251   1.569 -0.2954 -0.5538  0.0562
 4718SOL    HW218644   4.967   3.267   1.605 -1.1899  0.5138  1.9297
 4718SOL    HW318645   4.880   3.295   1.484  0.8403 -0.1745  0.2370
 4718SOL    MW418646   4.892   3.259   1.563 -0.2636 -0.3629  0.3272
 4719SOL     OW18647   1.970   3.158   4.697 -0.5430 -0.0959  0.3013
 4719SOL    HW218648   2.024   3.094   4.651 -1.8393 -0.5037 -0.7144
 4719SOL    HW318649   1.958   3.122   4.785  0.1064 -0.4253  0.2571
 4719SOL    MW418650   1.975   3.145   4.702 -0.6283 -0.1931  0.1614
 4720SOL     OW18651   0.529   0.040   0.050 -0.4387  0.2749  0.1521
 4720SOL    HW218652   0.480  -0.040   0.030  0.5675 -0.8146  1.7519
 4720SOL    HW318653   0.501   0.064   0.139 -1.0762  2.0120 -0.4809
 4720SOL    MW418654   0.519   0.032   0.059 -0.3901  0.3604  0.2797
 4721SOL     OW18655   4.484   4.616   5.318  0.1497  0.1662  0.2696
 4721SOL    HW218656   4.567   4.665   5.321  0.6962 -0.7647  0.5942
 4721SOL    HW318657   4.510   4.525   5.330 -0.9494 -0.1193  0.5063
 4721SOL    MW418658   4.499   4.610   5.320  0.0768  0.0057  0.3437
 4722SOL     OW18659   5.048   4.519   1.027  0.2143  0.1242 -0.5533
 4722SOL    HW218660   5.000   4.538   1.108 -0.1553  1.2251 -1.0088
 4722SOL    HW318661   5.126   4.473   1.056  0.1851  0.6808  0.4670
 4722SOL    MW418662   5.052   4.516   1.042  0.1617  0.3429 -0.4788
 4723SOL     OW18663   2.631   6.331   0.830 -0.0678 -0.6294 -0.3013
 4723SOL    HW218664   2.567   6.310   0.898 -1.6222 -0.0534 -1.5014
 4723SOL    HW318665   2.689   6.395   0.870  0.1803 -1.6330  1.0254
 4723SOL    MW418666   2.630   6.337   0.844 -0.2401 -0.6858 -0.2846
 4724SOL     OW18667   3.109   5.674   0.221  0.2365 -0.2819  0.3728
 4724SOL    HW218668   3.021   5.639   0.218  0.4821 -0.8622 -0.3437
 4724SOL    HW318669   3.134   5.670   0.314 -1.2049  1.7661  0.9164
 4724SOL    MW418670   3.101   5.669   0.233  0.0787 -0.0882  0.3500
 4725SOL     OW18671   2.861   5.372   2.265 -0.1612 -0.1485  0.3492
 4725SOL    HW218672   2.896   5.285   2.283  2.0816  0.8024  0.9909
 4725SOL    HW318673   2.935   5.420   2.227 -1.0004  1.8019  1.0585
 4725SOL    MW418674   2.876   5.367   2.262  0.0240  0.2343  0.5274
 4726SOL     OW18675   5.562   5.394   1.466 -0.0919  0.3779  0.7453
 4726SOL    HW218676   5.568   5.395   1.562  1.6739 -1.8792  0.7379
 4726SOL    HW318677   5.623   5.325   1.439  2.0893  3.2099 -2.2307
 4726SOL    MW418678   5.571   5.385   1.475  0.4289  0.4537  0.3517
 4727SOL     OW18679   5.310   1.386   5.051 -0.6242  0.5448 -0.2832
 4727SOL    HW218680   5.385   1.438   5.021  0.6596  0.8910  3.1048
 4727SOL    HW318681   5.345   1.298   5.064 -0.5963  0.8049  1.7472
 4727SOL    MW418682   5.324   1.381   5.049 -0.4512  0.6248  0.4317
 4728SOL     OW18683   2.087   3.306   0.318  0.2894  0.1390  0.7442
 4728SOL    HW218684   2.175   3.326   0.285  1.6163 -0.8464  3.3203
 4728SOL    HW318685   2.065   3.222   0.279  0.5887  0.2854  0.2531
 4728SOL    MW418686   2.096   3.298   0.309  0.5039  0.0283  1.0193
 4729SOL     OW18687   2.210   4.861   0.935  0.5630 -0.1230 -0.0596
 4729SOL    HW218688   2.210   4.766   0.931  0.9299 -0.1504  0.5273
 4729SOL    HW318689   2.136   4.882   0.993 -0.2096  0.0018 -1.0462
 4729SOL    MW418690   2.200   4.852   0.942  0.5095 -0.1101 -0.1123
 4730SOL     OW18691   2.333   3.441   0.632  0.1831 -0.1297  0.5327
 4730SOL    HW218692   2.245   3.457   0.664  0.1425  0.0544  0.3367
 4730SOL    HW318693   2.376   3.527   0.637  0.5258 -0.3366  1.1623
 4730SOL    MW418694   2.327   3.455   0.637  0.2229 -0.1327  0.5899
 4731SOL     OW18695   1.312   3.842   4.682 -0.0901 -0.2809  0.4242
 4731SOL    HW218696   1.229   3.889   4.673 -0.2866 -0.6725  0.1653
 4731SOL    HW318697   1.372   3.887   4.623 -0.5469 -0.9631 -0.5794
 4731SOL    MW418698   1.309   3.854   4.673 -0.1763 -0.4226  0.2577
 4732SOL     OW18699   5.161   6.355   5.656 -0.6534 -0.5180  0.1456
 4732SOL    HW218700   5.227   6.390   5.715  0.4402 -0.9646 -0.7847
 4732SOL    HW318701   5.168   6.408   5.577  0.8060 -2.5135 -1.1673
 4732SOL    MW418702   5.170   6.366   5.654 -0.3165 -0.8402 -0.1503
 4733SOL     OW18703   3.412   4.980   2.399 -0.3952  0.5243  0.4172
 4733SOL    HW218704   3.486   5.037   2.378 -0.1942  0.7496  1.6311
 4733SOL    HW318705   3.451   4.898   2.427 -0.7132 -0.8069 -2.7391
 4733SOL    MW418706   3.427   4.977   2.400 -0.4106  0.3784  0.1609
 4734SOL     OW18707   0.963   4.799   0.065  0.1948 -0.0569  0.6274
 4734SOL    HW218708   0.871   4.824   0.076 -0.6672 -2.0588 -1.4015
 4734SOL    HW318709   1.002   4.874   0.019 -1.1664 -0.3176 -1.0739
 4734SOL    MW418710   0.956   4.812   0.060 -0.0985 -0.3554  0.1352
 4735SOL     OW18711   1.661   2.659   5.230  0.2863  0.1965 -0.0946
 4735SOL    HW218712   1.582   2.701   5.263 -0.2166 -0.0370 -0.9701
 4735SOL    HW318713   1.658   2.571   5.267  0.2573  0.2658  0.0667
 4735SOL    MW418714   1.650   2.653   5.239  0.2161  0.1748 -0.1888
 4736SOL     OW18715   3.842   2.624   3.611 -0.5371 -0.1819  0.3674
 4736SOL    HW218716   3.760   2.590   3.576  0.2835  0.9364 -2.9616
 4736SOL    HW318717   3.828   2.718   3.622 -0.0104 -0.1434  0.8187
 4736SOL    MW418718   3.830   2.632   3.608 -0.3593 -0.0293 -0.0123
 4737SOL     OW18719   0.815   2.581   3.076 -0.0652 -0.0529 -0.3042
 4737SOL    HW218720   0.804   2.565   3.170  2.5019  0.5623  0.1773
 4737SOL    HW318721   0.896   2.536   3.054 -0.3741  0.2269 -2.1544
 4737SOL    MW418722   0.824   2.573   3.085  0.2327  0.0652 -0.4848
 4738SOL     OW18723   4.806   5.964   1.181 -0.3097  0.1388  0.2958
 4738SOL    HW218724   4.748   5.984   1.108  0.1246 -0.6472 -0.2797
 4738SOL    HW318725   4.858   5.890   1.151 -0.2153 -0.2903  1.4598
 4738SOL    MW418726   4.805   5.957   1.168 -0.2399 -0.0215  0.3734
 4739SOL     OW18727   3.733   3.218   0.640  0.3199  0.2665  0.7278
 4739SOL    HW218728   3.638   3.226   0.647  0.2176 -1.3408  1.8100
 4739SOL    HW318729   3.754   3.248   0.552 -1.3515 -0.5572  0.0145
 4739SOL    MW418730   3.724   3.223   0.629  0.0859 -0.0543  0.7765
 4740SOL     OW18731   5.546   4.536   4.393 -0.1156 -0.2149 -1.0416
 4740SOL    HW218732   5.603   4.602   4.434 -0.4707  0.3775 -1.4913
 4740SOL    HW318733   5.467   4.584   4.367 -0.5132 -0.8823 -1.0889
 4740SOL    MW418734   5.543   4.551   4.395 -0.2149 -0.2248 -1.1072
 4741SOL     OW18735   0.429   0.377   3.227 -0.6512 -0.3136  0.0763
 4741SOL    HW218736   0.397   0.462   3.196 -1.3226 -0.1492  1.1421
 4741SOL    HW318737   0.510   0.398   3.273 -1.9189  0.1191  2.2491
 4741SOL    MW418738   0.436   0.391   3.229 -0.9070 -0.2349  0.5036
 4742SOL     OW18739   0.850   4.609   1.105 -1.2807  0.0409 -0.7462
 4742SOL    HW218740   0.924   4.646   1.153 -0.4000 -0.2377 -1.8432
 4742SOL    HW318741   0.790   4.579   1.173 -0.7178  0.9139  0.1645
 4742SOL    MW418742   0.852   4.610   1.121 -1.0902  0.1193 -0.7708
 4743SOL     OW18743   3.833   0.580   0.330  0.3433  0.1969  0.3532
 4743SOL    HW218744   3.895   0.585   0.258 -0.2108 -2.2971 -0.4073
 4743SOL    HW318745   3.837   0.489   0.359 -0.5598  0.7708  2.4894
 4743SOL    MW418746   3.841   0.568   0.324  0.1511 -0.0564  0.5347
 4744SOL     OW18747   3.210   3.416   2.054 -0.1292 -0.0758  0.5823
 4744SOL    HW218748   3.259   3.487   2.095  1.7043 -0.1429 -1.3028
 4744SOL    HW318749   3.260   3.337   2.075 -1.3248 -0.6531  1.3970
 4744SOL    MW418750   3.223   3.415   2.062 -0.0451 -0.1609  0.4411
 4745SOL     OW18751   4.820   2.009   5.882 -0.0302 -0.3949 -0.1846
 4745SOL    HW218752   4.881   1.962   5.938 -0.2107 -0.3225  0.0752
 4745SOL    HW318753   4.839   2.101   5.898 -0.1999 -0.3716 -0.1062
 4745SOL    MW418754   4.830   2.015   5.892 -0.0764 -0.3823 -0.1400
 4746SOL     OW18755   3.984   5.196   5.051 -0.3054 -0.1416  0.0361
 4746SOL    HW218756   3.919   5.129   5.071  0.5945 -1.2660 -0.6783
 4746SOL    HW318757   4.024   5.168   4.969  2.0446 -0.2543  1.1321
 4746SOL    MW418758   3.980   5.184   5.043  0.1234 -0.3048  0.0864
 4747SOL     OW18759   4.581   4.353   1.035 -0.4464  0.5517  0.3943
 4747SOL    HW218760   4.529   4.370   0.956 -0.8895  0.7053  0.7198
 4747SOL    HW318761   4.585   4.438   1.080 -0.2969  0.4364  0.6005
 4747SOL    MW418762   4.575   4.367   1.030 -0.4851  0.5568  0.4645
 4748SOL     OW18763   5.347   3.108   2.903  0.4837 -0.1527  0.0642
 4748SOL    HW218764   5.281   3.040   2.891  1.1382 -0.5133 -1.9516
 4748SOL    HW318765   5.298   3.184   2.933 -0.6770 -0.7416 -0.2809
 4748SOL    MW418766   5.332   3.109   2.906  0.4169 -0.2780 -0.2473
 4749SOL     OW18767   1.102   0.190   2.516  0.0207 -0.2185  0.3058
 4749SOL    HW218768   1.043   0.163   2.446  1.0942 -1.6703 -0.0990
 4749SOL    HW318769   1.098   0.118   2.579 -0.1597  0.6067  1.2615
 4749SOL    MW418770   1.094   0.177   2.515  0.1385 -0.3011  0.3785
 4750SOL     OW18771   1.446   1.220   2.333 -0.0022 -0.2201 -0.0290
 4750SOL    HW218772   1.386   1.257   2.398  0.1909 -1.8203  1.1062
 4750SOL    HW318773   1.391   1.205   2.256 -0.9948 -1.1853  0.8223
 4750SOL    MW418774   1.431   1.223   2.332 -0.1076 -0.5586  0.2331
 4751SOL     OW18775   4.094   0.413   5.179 -0.2879 -0.0338 -0.0917
 4751SOL    HW218776   4.063   0.403   5.269 -0.7654 -1.0631 -0.3558
 4751SOL    HW318777   4.144   0.495   5.180 -1.0018  0.4155  0.9048
 4751SOL    MW418778   4.096   0.423   5.191 -0.4451 -0.1103  0.0049
 4752SOL     OW18779   6.215   2.689   0.015  0.8364  0.0674  0.6118
 4752SOL    HW218780   6.261   2.766  -0.018 -0.9824  1.1142  0.4044
 4752SOL    HW318781   6.172   2.719   0.095  0.1679 -0.7640  0.5790
 4752SOL    MW418782   6.215   2.703   0.021  0.5082  0.0958  0.5801
 4753SOL     OW18783   4.616   0.014   5.456 -0.7564  0.1555  0.1260
 4753SOL    HW218784   4.690  -0.001   5.514 -1.1790  1.3931  1.0177
 4753SOL    HW318785   4.637  -0.036   5.377  1.6385  1.4914 -0.1676
 4753SOL    MW418786   4.629   0.005   5.453 -0.4962  0.4950  0.2050
 4754SOL     OW18787   0.116   2.003   5.437 -0.0334  0.0812 -0.1445
 4754SOL    HW218788   0.117   2.007   5.533 -2.0984  0.7502 -0.0984
 4754SOL    HW318789   0.049   1.938   5.416  0.2493  0.0989 -1.1459
 4754SOL    MW418790   0.107   1.995   5.447 -0.2686  0.1718 -0.2705
 4755SOL     OW18791   3.721   2.319   3.660  0.1150 -0.2697  0.3375
 4755SOL    HW218792   3.807   2.346   3.693 -0.3029  0.0823  1.1607
 4755SOL    HW318793   3.679   2.277   3.735 -1.4702  1.9654  0.7633
 4755SOL    MW418794   3.727   2.317   3.674 -0.1493  0.0716  0.5023
 4756SOL     OW18795   2.836   1.723   4.068 -0.1250 -0.2594  0.2474
 4756SOL    HW218796   2.795   1.739   4.153 -0.7468 -0.2832 -0.0437
 4756SOL    HW318797   2.788   1.779   4.008  1.6568  1.3695  0.2406
 4756SOL    MW418798   2.824   1.733   4.072  0.0281 -0.0476  0.2081
 4757SOL     OW18799   2.647   1.450   1.946  0.0285 -0.4305 -0.2457
 4757SOL    HW218800   2.593   1.424   2.021  1.2108 -1.4223  0.2901
 4757SOL    HW318801   2.590   1.437   1.870 -0.6962 -0.8214  0.3486
 4757SOL    MW418802   2.632   1.445   1.946  0.0889 -0.6129 -0.0966
 4758SOL     OW18803   3.328   3.886   0.961 -0.0163  0.1355  0.4090
 4758SOL    HW218804   3.312   3.792   0.968  2.1947 -0.5951 -2.4306
 4758SOL    HW318805   3.420   3.897   0.986 -0.2894  1.6189  0.8954
 4758SOL    MW418806   3.338   3.875   0.965  0.2394  0.2348  0.0985
 4759SOL     OW18807   2.974   4.559   0.384  0.5305  0.0644 -0.2118
 4759SOL    HW218808   2.937   4.471   0.388 -0.2098  0.3801 -0.0614
 4759SOL    HW318809   2.979   4.578   0.290 -2.9652  1.3468 -0.2926
 4759SOL    MW418810   2.970   4.550   0.372 -0.0284  0.2752 -0.2026
 4760SOL     OW18811   2.219   4.879   2.650 -0.1912 -0.2505  0.4935
 4760SOL    HW218812   2.212   4.806   2.711  0.0577 -1.2823 -0.6485
 4760SOL    HW318813   2.302   4.921   2.673 -0.7713  0.2518  1.7436
 4760SOL    MW418814   2.229   4.875   2.661 -0.2349 -0.3204  0.5078
 4761SOL     OW18815   0.921   4.085   5.769 -0.1503 -0.0507  0.3771
 4761SOL    HW218816   0.898   4.169   5.729  0.5673 -0.0004  0.0563
 4761SOL    HW318817   0.923   4.023   5.697  0.2122 -0.1595  0.4810
 4761SOL    MW418818   0.918   4.088   5.754 -0.0078 -0.0584  0.3485
 4762SOL     OW18819   1.518   3.912   3.317  0.5150  0.2119 -0.0047
 4762SOL    HW218820   1.499   3.839   3.258 -1.2134  0.4219  0.2483
 4762SOL    HW318821   1.603   3.890   3.356 -0.1153 -1.7976  0.3007
 4762SOL    MW418822   1.527   3.900   3.314  0.2038 -0.0255  0.0690
 4763SOL     OW18823   4.969   3.077   2.283 -0.0436  0.1202 -0.6286
 4763SOL    HW218824   5.056   3.037   2.280  0.4154  1.1071 -1.2319
 4763SOL    HW318825   4.932   3.048   2.366  1.1790  0.2906  0.0034
 4763SOL    MW418826   4.976   3.068   2.294  0.1783  0.2729 -0.6248
 4764SOL     OW18827   0.263   3.659   5.995  0.0768  0.0639  0.3204
 4764SOL    HW218828   0.318   3.707   5.934 -1.5947  0.1538 -1.1846
 4764SOL    HW318829   0.234   3.582   5.946 -2.8759  1.1163  0.2127
 4764SOL    MW418830   0.266   3.655   5.981 -0.5333  0.2146  0.1076
 4765SOL     OW18831   5.621   5.287   5.357 -0.3719  0.5498 -0.5051
 4765SOL    HW218832   5.647   5.376   5.382  0.2950  0.5194 -1.0410
 4765SOL    HW318833   5.549   5.299   5.295 -0.1877  0.7310 -0.6879
 4765SOL    MW418834   5.615   5.301   5.352 -0.2596  0.5697 -0.5999
 4766SOL     OW18835   4.723   3.307   2.259 -0.0936  0.1854 -0.5203
 4766SOL    HW218836   4.726   3.300   2.354 -0.4400 -1.9330 -0.6226
 4766SOL    HW318837   4.811   3.337   2.234  0.2883 -0.1375  0.4051
 4766SOL    MW418838   4.735   3.310   2.268 -0.0889 -0.1367 -0.4117
 4767SOL     OW18839   5.277   4.172   4.717 -0.0496  0.2647  0.8881
 4767SOL    HW218840   5.342   4.171   4.787 -0.5739 -0.8731  1.3994
 4767SOL    HW318841   5.195   4.145   4.761 -0.0080 -2.4111 -0.4657
 4767SOL    MW418842   5.275   4.168   4.732 -0.1133 -0.2384  0.7770
 4768SOL     OW18843   2.093   1.694   5.844 -0.5153  0.3924 -0.7220
 4768SOL    HW218844   2.012   1.745   5.846 -0.3617  0.7048 -1.7058
 4768SOL    HW318845   2.069   1.614   5.797 -0.4584  0.1031 -0.2597
 4768SOL    MW418846   2.079   1.691   5.838 -0.4876  0.3954 -0.7908
 4769SOL     OW18847   4.395   5.269   0.555  0.3077 -0.2088 -0.0877
 4769SOL    HW218848   4.465   5.288   0.618  1.6030  1.9381 -2.0262
 4769SOL    HW318849   4.432   5.204   0.496  0.0178 -0.3639 -0.1009
 4769SOL    MW418850   4.409   5.263   0.556  0.4403  0.0540 -0.3452
 4770SOL     OW18851   3.444   4.275   6.038  0.1610 -0.6950 -0.8052
 4770SOL    HW218852   3.449   4.342   5.970 -0.1202 -0.5394 -0.6729
 4770SOL    HW318853   3.378   4.213   6.006 -1.0537  0.1396 -0.0151
 4770SOL    MW418854   3.436   4.275   6.025 -0.0363 -0.5644 -0.6835
 4771SOL     OW18855   2.476   5.112   5.933 -0.2133  0.0951 -0.1992
 4771SOL    HW218856   2.482   5.202   5.901  0.5430  0.8854  1.9960
 4771SOL    HW318857   2.564   5.089   5.961 -0.6767 -0.7917  0.6188
 4771SOL    MW418858   2.488   5.121   5.933 -0.1746  0.0823  0.1984
 4772SOL     OW18859   3.596   4.933   5.736  0.5868 -0.3106 -0.3198
 4772SOL    HW218860   3.649   4.955   5.812  2.2964 -2.3730 -0.8162
 4772SOL    HW318861   3.565   4.843   5.753 -0.5720 -0.1207 -1.2450
 4772SOL    MW418862   3.599   4.924   5.748  0.6595 -0.5577 -0.5074
 4773SOL     OW18863   4.345   4.488   2.929  0.2094  0.3815  0.2347
 4773SOL    HW218864   4.393   4.455   3.005 -0.2745 -1.2922 -0.1448
 4773SOL    HW318865   4.290   4.414   2.901  1.1512  0.5495 -2.3968
 4773SOL    MW418866   4.344   4.474   2.935  0.2698  0.1828 -0.1626
 4774SOL     OW18867   3.144   6.269   4.422 -0.1539 -0.2064  0.4118
 4774SOL    HW218868   3.147   6.174   4.410  1.2258  0.0906 -2.6143
 4774SOL    HW318869   3.162   6.304   4.335 -2.1646  2.8711  1.0691
 4774SOL    MW418870   3.147   6.261   4.409 -0.2372  0.2389  0.0992
 4775SOL     OW18871   6.107   4.482   3.198 -0.1167 -0.1634  0.1128
 4775SOL    HW218872   6.152   4.470   3.114 -1.7822 -2.6366 -0.5539
 4775SOL    HW318873   6.159   4.432   3.261  0.3899  0.5824  0.3062
 4775SOL    MW418874   6.120   4.474   3.195 -0.2696 -0.3913  0.0503
 4776SOL     OW18875   2.751   4.041   3.646 -0.1940 -0.1650 -0.0638
 4776SOL    HW218876   2.815   4.101   3.608  0.0045 -1.3731 -1.7978
 4776SOL    HW318877   2.801   3.992   3.712  0.9177 -1.4873 -1.7841
 4776SOL    MW418878   2.766   4.042   3.649 -0.0212 -0.4988 -0.5195
 4777SOL     OW18879   3.481   5.201   4.617 -0.6694  0.6428 -0.0679
 4777SOL    HW218880   3.396   5.218   4.577 -1.6218 -0.1659  1.5027
 4777SOL    HW318881   3.544   5.248   4.562 -2.0631  0.8580 -1.5409
 4777SOL    MW418882   3.478   5.210   4.604 -0.9789  0.5645 -0.0551
 4778SOL     OW18883   1.310   2.335   5.559 -0.9507  0.5242 -0.1764
 4778SOL    HW218884   1.268   2.302   5.480 -1.0062  1.7780 -0.6907
 4778SOL    HW318885   1.337   2.424   5.537 -0.4021  0.6803  1.0165
 4778SOL    MW418886   1.308   2.342   5.546 -0.8856  0.7102 -0.0868
 4779SOL     OW18887   4.149   2.314   6.323 -0.6619  0.0214 -0.6036
 4779SOL    HW218888   4.190   2.348   6.403  0.0120  0.8396 -1.2818
 4779SOL    HW318889   4.056   2.335   6.333 -0.7577 -0.8183  0.4265
 4779SOL    MW418890   4.142   2.321   6.335 -0.5856  0.0186 -0.5572
 4780SOL     OW18891   2.033   4.556   4.566 -0.4203  0.1200  0.7690
 4780SOL    HW218892   1.968   4.618   4.535  0.3337  0.4238 -0.2131
 4780SOL    HW318893   2.007   4.539   4.657 -1.5339  0.6641  0.5728
 4780SOL    MW418894   2.021   4.562   4.574 -0.4678  0.2319  0.6135
 4781SOL     OW18895   1.744   3.847   0.370 -0.7931 -0.2408 -0.2459
 4781SOL    HW218896   1.653   3.820   0.357 -1.3277  1.5957 -0.6114
 4781SOL    HW318897   1.781   3.849   0.282 -0.1425 -1.6930 -0.0389
 4781SOL    MW418898   1.737   3.844   0.357 -0.7778 -0.1901 -0.2668
 4782SOL     OW18899   1.884   6.165   5.399 -0.3251  0.3569 -0.3805
 4782SOL    HW218900   1.871   6.230   5.330  2.4501  1.3866 -0.0763
 4782SOL    HW318901   1.972   6.182   5.431 -0.0346 -2.6373  0.7518
 4782SOL    MW418902   1.894   6.175   5.394  0.0794  0.0977 -0.1910
 4783SOL     OW18903   2.531   3.505   1.156 -0.0627 -0.8978  0.8059
 4783SOL    HW218904   2.562   3.480   1.243 -0.0015 -1.5950  0.5935
 4783SOL    HW318905   2.443   3.540   1.169 -0.5799 -2.2211  1.0027
 4783SOL    MW418906   2.524   3.506   1.169 -0.1228 -1.1644  0.8038
 4784SOL     OW18907   1.999   1.425   5.785 -0.1236  0.0490  0.3385
 4784SOL    HW218908   1.919   1.401   5.831  0.0127 -0.1680  0.4614
 4784SOL    HW318909   2.039   1.342   5.760  0.5220  0.1321  1.0536
 4784SOL    MW418910   1.994   1.411   5.788 -0.0204  0.0313  0.4490
 4785SOL     OW18911   2.958   1.548   5.520  0.3980 -0.2888 -0.2930
 4785SOL    HW218912   2.925   1.633   5.550 -0.4367 -0.9861  0.8622
 4785SOL    HW318913   3.017   1.521   5.590  1.6872 -0.0844 -1.2825
 4785SOL    MW418914   2.961   1.556   5.533  0.4580 -0.3538 -0.2712
 4786SOL     OW18915   2.492   6.418   4.464  0.0308 -0.0695 -1.1270
 4786SOL    HW218916   2.437   6.350   4.505  1.0195 -1.1060 -1.4555
 4786SOL    HW318917   2.522   6.378   4.382 -0.4030  1.2721 -1.9775
 4786SOL    MW418918   2.489   6.403   4.458  0.1040 -0.0293 -1.2826
 4787SOL     OW18919   5.769   0.237   2.519 -0.4690 -0.0279 -0.6800
 4787SOL    HW218920   5.795   0.323   2.553  0.3006  0.2990 -2.0073
 4787SOL    HW318921   5.814   0.230   2.435  0.1356 -2.0896 -0.2421
 4787SOL    MW418922   5.779   0.247   2.512 -0.2877 -0.2568 -0.7973
 4788SOL     OW18923   3.807   2.965   3.575 -0.4466 -0.0501 -0.5225
 4788SOL    HW218924   3.847   2.953   3.489 -2.7885 -0.8958 -1.5904
 4788SOL    HW318925   3.804   3.059   3.587  0.2788  0.0710 -1.1706
 4788SOL    MW418926   3.812   2.976   3.565 -0.6599 -0.1457 -0.7489
 4789SOL     OW18927   4.620   2.868   1.849 -0.1436  0.0258 -0.1114
 4789SOL    HW218928   4.525   2.858   1.843  0.0436 -2.1432 -0.3598
 4789SOL    HW318929   4.653   2.778   1.861  1.9541  0.5590 -1.3445
 4789SOL    MW418930   4.612   2.855   1.850  0.1578 -0.1900 -0.3068
 4790SOL     OW18931   3.775   3.490   1.021  0.7531  0.1513  0.3075
 4790SOL    HW218932   3.812   3.549   0.956  0.7671  0.1211  0.2882
 4790SOL    HW318933   3.682   3.487   1.000  0.3858  1.7427  1.5227
 4790SOL    MW418934   3.768   3.498   1.010  0.7065  0.3573  0.4653
 4791SOL     OW18935   3.906   5.844   5.460 -0.1007 -1.1918 -0.0940
 4791SOL    HW218936   3.871   5.756   5.447 -0.5893 -0.9302 -0.5625
 4791SOL    HW318937   3.927   5.848   5.553 -0.0688 -1.8071 -0.0753
 4791SOL    MW418938   3.904   5.833   5.471 -0.1610 -1.2385 -0.1534
 4792SOL     OW18939   3.347   2.842   4.555  0.0703  0.3043  0.1652
 4792SOL    HW218940   3.275   2.835   4.492 -0.1546 -2.9933  0.6177
 4792SOL    HW318941   3.426   2.836   4.501 -0.0574  0.7000 -0.0676
 4792SOL    MW418942   3.348   2.840   4.539  0.0238 -0.0786  0.1942
 4793SOL     OW18943   6.340   4.190   0.822  0.0249 -0.4174  0.2243
 4793SOL    HW218944   6.285   4.116   0.796  1.5230 -1.3597 -0.3691
 4793SOL    HW318945   6.360   4.234   0.739  0.5398 -0.3500  0.3851
 4793SOL    MW418946   6.335   4.186   0.807  0.2905 -0.5328  0.1672
 4794SOL     OW18947   3.425   6.199   4.020  0.1177  0.0499  0.5681
 4794SOL    HW218948   3.439   6.141   3.944  2.4413  0.3272  0.7117
 4794SOL    HW318949   3.490   6.170   4.084 -2.3561 -0.7490  2.8973
 4794SOL    MW418950   3.435   6.187   4.018  0.0979 -0.0190  0.8944
 4795SOL     OW18951   4.574   1.466   0.706  0.4808  0.1545 -0.2169
 4795SOL    HW218952   4.485   1.493   0.685  0.3417 -0.4327 -0.4050
 4795SOL    HW318953   4.620   1.466   0.621  0.4169 -0.4059 -0.2578
 4795SOL    MW418954   4.569   1.470   0.692  0.4540  0.0031 -0.2471
 4796SOL     OW18955   1.974   2.925   0.839 -0.0349 -0.0510 -0.1912
 4796SOL    HW218956   1.939   2.962   0.758  1.6240  0.2756 -0.8114
 4796SOL    HW318957   1.953   2.989   0.907  2.0399  1.6953 -1.0953
 4796SOL    MW418958   1.967   2.938   0.837  0.4577  0.2225 -0.3923
 4797SOL     OW18959   2.970   0.603   0.887 -0.7341 -0.7386 -0.5870
 4797SOL    HW218960   3.050   0.577   0.840 -0.8896 -2.6342  0.1035
 4797SOL    HW318961   3.001   0.628   0.975 -0.6684  0.9090 -1.0381
 4797SOL    MW418962   2.985   0.603   0.893 -0.7459 -0.7713 -0.5554
 4798SOL     OW18963   1.416   4.694   1.521 -0.2292  0.5682 -0.2130
 4798SOL    HW218964   1.509   4.694   1.544 -0.6158  0.6540  1.5407
 4798SOL    HW318965   1.396   4.604   1.497  0.1913  0.4217 -0.0149
 4798SOL    MW418966   1.425   4.682   1.521 -0.2247  0.5602  0.0445
 4799SOL     OW18967   3.773   1.179   3.423 -0.3881  0.3098 -0.1431
 4799SOL    HW218968   3.795   1.235   3.497 -0.2507 -0.5115  0.4543
 4799SOL    HW318969   3.688   1.210   3.393 -0.3586  0.7689  0.2479
 4799SOL    MW418970   3.765   1.190   3.428 -0.3661  0.2620 -0.0127
 4800SOL     OW18971   5.812   4.580   5.505 -0.3528 -0.1057 -0.0182
 4800SOL    HW218972   5.897   4.585   5.547  0.0387  0.8644 -0.8690
 4800SOL    HW318973   5.769   4.505   5.546  0.5870 -0.1195  0.9922
 4800SOL    MW418974   5.817   4.571   5.516 -0.1771  0.0205  0.0029
 4801SOL     OW18975   4.994   0.087   2.510 -0.0970  0.1618  0.2010
 4801SOL    HW218976   4.944   0.146   2.454  0.5153 -0.3967 -0.9915
 4801SOL    HW318977   5.039   0.028   2.449 -1.1205 -1.9161  1.3344
 4801SOL    MW418978   4.994   0.087   2.495 -0.1512 -0.1860  0.1932
 4802SOL     OW18979   3.985   2.401   5.020  0.4802 -0.2909 -0.1651
 4802SOL    HW218980   4.009   2.417   5.112  0.5053 -2.1449  0.1900
 4802SOL    HW318981   3.890   2.387   5.022  0.7095 -2.0568 -0.1093
 4802SOL    MW418982   3.976   2.402   5.032  0.5137 -0.7685 -0.1109
 4803SOL     OW18983   4.958   0.408   4.881  0.1492  0.0183  0.3185
 4803SOL    HW218984   4.977   0.501   4.873  1.1074 -0.3036 -1.3996
 4803SOL    HW318985   4.987   0.385   4.970  1.7192  0.9498  0.0745
 4803SOL    MW418986   4.964   0.417   4.892  0.4828  0.0988  0.0596
 4804SOL     OW18987   2.072   5.165   0.441  0.0857 -0.0909 -0.2210
 4804SOL    HW218988   2.091   5.253   0.409  0.0218  0.2091  0.5407
 4804SOL    HW318989   1.977   5.159   0.439  0.0313  0.2731  0.7769
 4804SOL    MW418990   2.062   5.176   0.437  0.0701 -0.0033  0.0112
 4805SOL     OW18991   6.343   0.642   3.183 -0.1103  0.1944 -0.5013
 4805SOL    HW218992   6.394   0.581   3.238 -1.9711 -0.6745  0.3307
 4805SOL    HW318993   6.341   0.723   3.234 -1.4968 -0.4887  0.5906
 4805SOL    MW418994   6.350   0.644   3.197 -0.5388 -0.0104 -0.2475
 4806SOL     OW18995   6.172   6.041   1.714 -0.3232  0.3260  0.3149
 4806SOL    HW218996   6.168   6.128   1.753 -1.2439  0.1046  0.7528
 4806SOL    HW318997   6.091   5.998   1.743  1.2145 -1.5224  2.1520
 4806SOL    MW418998   6.161   6.047   1.723 -0.2418  0.0529  0.6151
 4807SOL     OW18999   4.164   5.024   2.878 -0.2851 -0.3094 -0.2805
 4807SOL    HW219000   4.138   5.021   2.786 -0.7555 -0.9204 -0.1321
 4807SOL    HW319001   4.210   5.107   2.887  0.4020 -0.5599 -1.2362
 4807SOL    MW419002   4.167   5.034   2.867 -0.2565 -0.4231 -0.3870
 4808SOL     OW19003   4.208   0.687   3.428 -0.1514  0.3480 -0.1719
 4808SOL    HW219004   4.183   0.695   3.336 -1.6079  1.6664  0.3108
 4808SOL    HW319005   4.234   0.775   3.453 -2.5773  0.6991  1.4207
 4808SOL    MW419006   4.208   0.700   3.419 -0.6636  0.5683  0.1019
 4809SOL     OW19007   4.410   3.704   6.278  0.0803  0.0525 -0.5040
 4809SOL    HW219008   4.337   3.660   6.234 -1.6435 -0.1492  2.2713
 4809SOL    HW319009   4.397   3.797   6.260  0.1049 -0.1073 -1.3542
 4809SOL    MW419010   4.399   3.711   6.270 -0.1439  0.0048 -0.2500
 4810SOL     OW19011   3.509   5.332   1.486  0.2551  0.1223  0.2013
 4810SOL    HW219012   3.495   5.426   1.485 -0.5244  0.0464 -2.0642
 4810SOL    HW319013   3.588   5.320   1.539  0.7186  2.0948  0.0373
 4810SOL    MW419014   3.518   5.343   1.493  0.2134  0.3725 -0.1193
 4811SOL     OW19015   6.077   4.303   5.944  0.1106  0.2117 -0.2394
 4811SOL    HW219016   6.068   4.208   5.940  0.0749  0.0917  1.5180
 4811SOL    HW319017   5.992   4.337   5.918 -0.2783 -0.3038  0.3267
 4811SOL    MW419018   6.065   4.295   5.940  0.0546  0.1278  0.0671
 4812SOL     OW19019   2.353   2.506   1.334  0.4276  0.1758  0.3051
 4812SOL    HW219020   2.264   2.535   1.354  0.4650  1.1048 -0.7549
 4812SOL    HW319021   2.409   2.563   1.386  0.4404  0.8033 -0.3733
 4812SOL    MW419022   2.348   2.517   1.343  0.4342  0.3812  0.0757
 4813SOL     OW19023   1.055   0.108   0.699 -0.0245 -0.3029  0.1897
 4813SOL    HW219024   1.148   0.107   0.680  0.1075 -0.6097  0.8256
 4813SOL    HW319025   1.026   0.018   0.681  0.2878 -0.8716  2.2270
 4813SOL    MW419026   1.063   0.096   0.694  0.0341 -0.4184  0.5424
 4814SOL     OW19027   1.490   0.040   2.157 -0.8848 -0.1045  0.0482
 4814SOL    HW219028   1.557   0.108   2.150 -0.7581 -0.0526  1.4495
 4814SOL    HW319029   1.410   0.087   2.178 -0.6394 -0.4069  1.8108
 4814SOL    MW419030   1.488   0.055   2.159 -0.8357 -0.1376  0.4657
 4815SOL     OW19031   3.500   2.964   1.203  0.3835 -0.1268 -0.1412
 4815SOL    HW219032   3.568   3.012   1.155  0.3106 -0.1805 -0.3010
 4815SOL    HW319033   3.510   2.992   1.294 -0.3364  0.9902 -0.3893
 4815SOL    MW419034   3.510   2.974   1.209  0.2789  0.0135 -0.1950
 4816SOL     OW19035   2.903   2.190   2.986  0.0976 -0.2959 -0.3353
 4816SOL    HW219036   2.909   2.148   3.071 -0.4302 -1.5961 -0.9126
 4816SOL    HW319037   2.826   2.246   2.992  0.2620 -0.1161  0.1406
 4816SOL    MW419038   2.894   2.192   2.998  0.0497 -0.4437 -0.3487
 4817SOL     OW19039   3.044   2.875   2.049 -0.5205  0.0396  0.6094
 4817SOL    HW219040   3.127   2.872   2.001 -0.2827 -0.4762  1.0443
 4817SOL    HW319041   3.029   2.785   2.076 -1.4729  0.0392  0.1239
 4817SOL    MW419042   3.053   2.863   2.046 -0.6148 -0.0285  0.6027
 4818SOL     OW19043   3.896   1.680   6.282 -0.2286 -0.1369  0.1040
 4818SOL    HW219044   3.866   1.686   6.191 -0.2335  1.6483  0.1987
 4818SOL    HW319045   3.864   1.760   6.324 -0.9028 -1.2927  1.9073
 4818SOL    MW419046   3.888   1.691   6.275 -0.3182 -0.0538  0.3544
 4819SOL     OW19047   1.880   4.305   5.455  0.0730 -0.4111 -0.6649
 4819SOL    HW219048   1.871   4.291   5.550  4.0046 -1.0629 -0.1946
 4819SOL    HW319049   1.940   4.236   5.427 -0.3958  0.2228 -3.5471
 4819SOL    MW419050   1.887   4.294   5.464  0.5299 -0.4135 -0.9831
 4820SOL     OW19051   0.039   1.280   0.298  0.1653  0.1035 -0.4438
 4820SOL    HW219052   0.108   1.227   0.339  0.2227 -0.1812 -0.8932
 4820SOL    HW319053  -0.034   1.278   0.361  0.2875 -0.2435 -0.3104
 4820SOL    MW419054   0.038   1.273   0.312  0.1890  0.0202 -0.4855
 4821SOL     OW19055   1.889   2.745   5.380 -0.2633  0.2448 -0.6035
 4821SOL    HW219056   1.901   2.677   5.447  1.3270 -0.9814 -2.0452
 4821SOL    HW319057   1.818   2.712   5.325  0.8109 -0.5438 -1.5720
 4821SOL    MW419058   1.881   2.731   5.382  0.0883 -0.0210 -0.9215
 4822SOL     OW19059   3.939   0.851   5.925  0.5412  0.1342  0.2009
 4822SOL    HW219060   3.853   0.826   5.960  0.3761 -2.6614 -1.9064
 4822SOL    HW319061   3.930   0.843   5.830  2.1987  3.2289 -0.3498
 4822SOL    MW419062   3.927   0.847   5.917  0.7381  0.1737 -0.1498
 4823SOL     OW19063   2.963   2.402   0.273  0.1480  0.1072 -0.0562
 4823SOL    HW219064   2.891   2.407   0.336  0.5894  0.0039  0.4642
 4823SOL    HW319065   3.041   2.420   0.324  0.4541  0.6916 -0.7081
 4823SOL    MW419066   2.964   2.405   0.288  0.2466  0.1707 -0.0736
 4824SOL     OW19067   1.233   2.498   4.744  0.2368 -0.0624  0.4879
 4824SOL    HW219068   1.279   2.566   4.794  0.6434  0.3727 -0.4464
 4824SOL    HW319069   1.291   2.480   4.670  0.0936 -1.3838  0.6788
 4824SOL    MW419070   1.247   2.504   4.741  0.2716 -0.1794  0.3898
 4825SOL     OW19071   4.753   0.819   0.970 -0.3096  0.3994 -0.1739
 4825SOL    HW219072   4.789   0.861   1.048  2.4441 -0.8162 -0.6701
 4825SOL    HW319073   4.794   0.865   0.897  1.1378 -1.6616 -0.7525
 4825SOL    MW419074   4.763   0.831   0.971  0.2447 -0.0329 -0.3157
 4826SOL     OW19075   1.731   1.063   6.199  0.9407  0.0449 -0.5221
 4826SOL    HW219076   1.798   0.998   6.176  0.5547 -1.0375  1.2311
 4826SOL    HW319077   1.712   1.108   6.116  1.2527 -2.0340 -1.7999
 4826SOL    MW419078   1.737   1.060   6.185  0.9310 -0.3722 -0.4594
 4827SOL     OW19079   0.372   3.036   1.338 -0.7019 -0.0854 -0.2817
 4827SOL    HW219080   0.392   3.118   1.293 -1.8519  1.4561  1.7879
 4827SOL    HW319081   0.437   3.030   1.408 -1.6278 -0.0180  0.6157
 4827SOL    MW419082   0.383   3.046   1.341 -0.9758  0.1269  0.1098
 4828SOL     OW19083   0.342   5.012   0.019 -0.3631 -0.2903  0.1872
 4828SOL    HW219084   0.404   4.944   0.045  0.1196  0.1449  0.1917
 4828SOL    HW319085   0.288   4.971  -0.048  1.1456 -0.1155 -1.1809
 4828SOL    MW419086   0.343   4.998   0.014 -0.1004 -0.2098  0.0073
 4829SOL     OW19087   0.109   1.282   3.558  0.2076  0.1505 -0.2028
 4829SOL    HW219088   0.159   1.205   3.531  1.4101  1.1816 -1.0357
 4829SOL    HW319089   0.069   1.257   3.641  0.0054 -1.6054 -0.8004
 4829SOL    MW419090   0.111   1.269   3.566  0.3396  0.0549 -0.3916
 4830SOL     OW19091   2.743   5.063   2.011 -0.4775  0.0580  0.5747
 4830SOL    HW219092   2.716   5.033   2.098  0.9920  0.5498  1.2364
 4830SOL    HW319093   2.745   5.159   2.019 -1.3649  0.1756 -0.3448
 4830SOL    MW419094   2.739   5.072   2.024 -0.4007  0.1384  0.5406
 4831SOL     OW19095   3.613   0.799   1.618  0.0237  0.1872 -0.2737
 4831SOL    HW219096   3.584   0.842   1.698 -2.3189 -2.2358  0.3050
 4831SOL    HW319097   3.647   0.715   1.647  0.9772  0.0397 -1.6963
 4831SOL    MW419098   3.614   0.794   1.632 -0.1596 -0.1520 -0.3850
 4832SOL     OW19099   6.060   3.987   4.817 -0.0143 -0.3182 -0.5731
 4832SOL    HW219100   6.055   3.894   4.839  0.7310 -0.1610  0.3146
 4832SOL    HW319101   6.083   3.989   4.724 -1.5525 -1.0047 -0.9999
 4832SOL    MW419102   6.062   3.975   4.808 -0.1189 -0.3880 -0.5123
 4833SOL     OW19103   1.786   2.849   5.964  0.3271  0.5451 -0.2152
 4833SOL    HW219104   1.748   2.911   6.027 -0.1985  1.6214 -1.5375
 4833SOL    HW319105   1.796   2.768   6.014 -0.1430  1.3339  1.2293
 4833SOL    MW419106   1.782   2.846   5.979  0.1958  0.7912 -0.1991
 4834SOL     OW19107   0.803   4.160   1.369  0.2338 -0.0279  0.5870
 4834SOL    HW219108   0.742   4.195   1.304 -0.0775  0.4805  1.1425
 4834SOL    HW319109   0.762   4.180   1.453  1.5732  1.0785  1.0033
 4834SOL    MW419110   0.790   4.167   1.372  0.3695  0.1852  0.7152
 4835SOL     OW19111   3.928   0.971   3.805 -0.1416  0.1667  0.0523
 4835SOL    HW219112   3.948   0.969   3.898  1.8279 -2.4866 -0.2847
 4835SOL    HW319113   4.008   1.004   3.764  0.1603 -1.4896 -0.8050
 4835SOL    MW419114   3.941   0.975   3.812  0.1581 -0.4019 -0.1052
 4836SOL     OW19115   0.727   2.771   3.623  0.2864 -0.0665 -0.3482
 4836SOL    HW219116   0.661   2.838   3.641  0.9551  0.4412  0.2626
 4836SOL    HW319117   0.684   2.688   3.646 -0.0717  0.2736  0.2395
 4836SOL    MW419118   0.713   2.769   3.629  0.3274  0.0454 -0.1900
 4837SOL     OW19119   2.543   4.964   4.693 -0.1707 -0.8373 -0.1743
 4837SOL    HW219120   2.480   4.960   4.621  0.3025  0.3329 -0.6820
 4837SOL    HW319121   2.489   4.974   4.771 -0.6456 -0.7576 -0.5087
 4837SOL    MW419122   2.527   4.965   4.694 -0.1709 -0.6724 -0.2854
 4838SOL     OW19123   3.493   5.122   2.106  0.2607  0.2576  0.2631
 4838SOL    HW219124   3.525   5.176   2.034 -0.6125 -0.1156 -0.4219
 4838SOL    HW319125   3.400   5.108   2.086  0.7125 -2.5394 -0.2679
 4838SOL    MW419126   3.485   5.127   2.094  0.2051 -0.1607  0.1027
 4839SOL     OW19127   0.210   5.650   1.912  0.0020  0.1380 -0.7655
 4839SOL    HW219128   0.193   5.595   1.989 -1.8555 -0.3835 -1.4903
 4839SOL    HW319129   0.123   5.673   1.879  0.7564  1.0823 -2.2107
 4839SOL    MW419130   0.197   5.646   1.917 -0.1436  0.1938 -1.0518
 4840SOL     OW19131   3.566   3.366   5.074 -0.7403  0.0349  0.0917
 4840SOL    HW219132   3.472   3.380   5.068 -0.7775 -0.3090 -0.1449
 4840SOL    HW319133   3.586   3.302   5.005 -0.1232  1.0982 -0.7446
 4840SOL    MW419134   3.556   3.359   5.064 -0.6638  0.1298 -0.0499
 4841SOL     OW19135   6.303   3.234   5.275  0.2225  0.6556 -0.4639
 4841SOL    HW219136   6.396   3.210   5.276  0.1304  0.2884  0.0056
 4841SOL    HW319137   6.264   3.180   5.345 -0.5708 -0.1126 -1.4720
 4841SOL    MW419138   6.310   3.223   5.285  0.1056  0.5058 -0.5350
 4842SOL     OW19139   1.042   2.244   3.854  0.5015 -0.3869  0.1510
 4842SOL    HW219140   1.076   2.160   3.823  2.6669  0.2023  0.7947
 4842SOL    HW319141   1.119   2.299   3.867 -0.7138  1.1417  1.4110
 4842SOL    MW419142   1.056   2.240   3.852  0.6268 -0.1075  0.4022
 4843SOL     OW19143   1.724   6.093   6.251 -0.0385  0.4276  0.5662
 4843SOL    HW219144   1.760   6.021   6.201  2.0809  1.0501  1.1007
 4843SOL    HW319145   1.751   6.076   6.342  0.5279  1.8636  0.7021
 4843SOL    MW419146   1.732   6.081   6.257  0.3159  0.6992  0.6546
 4844SOL     OW19147   1.827   3.240   3.441 -0.1857  0.7558  0.0066
 4844SOL    HW219148   1.769   3.316   3.440 -0.8360  0.2719 -0.7742
 4844SOL    HW319149   1.854   3.229   3.349 -0.8080 -0.4647 -0.0485
 4844SOL    MW419150   1.823   3.248   3.428 -0.3536  0.5309 -0.1037
 4845SOL     OW19151   6.419   2.280   1.576  0.2068 -0.1173  0.3738
 4845SOL    HW219152   6.418   2.186   1.559  0.0582 -0.3215  1.4882
 4845SOL    HW319153   6.327   2.304   1.583  0.2728 -0.1584  1.4988
 4845SOL    MW419154   6.407   2.271   1.574  0.1959 -0.1496  0.6693
 4846SOL     OW19155   3.952   4.915   3.113 -0.7149 -0.1550  0.6823
 4846SOL    HW219156   3.971   5.005   3.139 -0.6904 -0.0162  0.1913
 4846SOL    HW319157   3.982   4.909   3.023 -0.7720 -0.6395  0.6922
 4846SOL    MW419158   3.958   4.926   3.105 -0.7192 -0.2006  0.6188
 4847SOL     OW19159   3.677   2.383   3.052  0.2357 -0.1771 -0.0844
 4847SOL    HW219160   3.702   2.301   3.094  1.4336  0.1924 -0.0330
 4847SOL    HW319161   3.753   2.407   2.999 -0.8432 -0.1066 -1.6903
 4847SOL    MW419162   3.690   2.376   3.050  0.2514 -0.1191 -0.2895
 4848SOL     OW19163   0.156   2.574   4.100 -0.3067 -0.2677  0.1753
 4848SOL    HW219164   0.075   2.577   4.150  0.1960 -1.3273  1.0773
 4848SOL    HW319165   0.224   2.600   4.162 -0.0271  1.7364 -0.8545
 4848SOL    MW419166   0.154   2.578   4.114 -0.2034 -0.1431  0.1584
 4849SOL     OW19167   2.702   1.249   0.337  0.3910  0.0143 -0.2905
 4849SOL    HW219168   2.685   1.167   0.291 -1.3175  1.2573 -1.9828
 4849SOL    HW319169   2.756   1.223   0.412 -2.3379 -3.1017  0.8331
 4849SOL    MW419170   2.707   1.235   0.341 -0.1945 -0.2328 -0.3655
 4850SOL     OW19171   0.478   5.593   3.732 -0.1016 -0.1481  0.1628
 4850SOL    HW219172   0.519   5.650   3.797 -0.1256 -1.1592  1.0852
 4850SOL    HW319173   0.520   5.509   3.743 -1.0152 -0.6814 -0.2528
 4850SOL    MW419174   0.489   5.590   3.742 -0.2253 -0.3518  0.2296
 4851SOL     OW19175   6.304   3.528   1.467  0.0103  0.1507 -0.1104
 4851SOL    HW219176   6.306   3.579   1.548  1.7515 -2.8898  1.9858
 4851SOL    HW319177   6.388   3.547   1.425 -0.3156  0.6838 -0.5399
 4851SOL    MW419178   6.316   3.537   1.472  0.1971 -0.1801  0.1095
 4852SOL     OW19179   2.487   3.044   2.327  0.2432 -0.2113  0.3295
 4852SOL    HW219180   2.443   3.003   2.253  0.8662 -1.4395  0.6202
 4852SOL    HW319181   2.512   3.131   2.295  1.0385 -0.9359 -1.1165
 4852SOL    MW419182   2.485   3.050   2.313  0.4303 -0.4689  0.1771
 4853SOL     OW19183   3.000   2.228   1.566 -0.5866 -0.4246  0.2844
 4853SOL    HW219184   2.935   2.272   1.511 -1.2281 -1.9370 -0.2382
 4853SOL    HW319185   3.011   2.286   1.641 -1.9751  0.2366  0.0207
 4853SOL    MW419186   2.993   2.241   1.569 -0.8544 -0.5369  0.1807
 4854SOL     OW19187   3.916   5.205   4.324 -0.1590  0.6584 -0.3751
 4854SOL    HW219188   3.960   5.157   4.254 -1.9226  0.3898 -1.3733
 4854SOL    HW319189   3.886   5.138   4.385  0.3378  0.7922  0.0208
 4854SOL    MW419190   3.918   5.190   4.322 -0.3261  0.6406 -0.4546
 4855SOL     OW19191   3.316   2.678   0.647 -0.2636  0.2273 -0.5566
 4855SOL    HW219192   3.371   2.644   0.576  0.8028  0.3438  0.1823
 4855SOL    HW319193   3.238   2.711   0.603 -0.0626 -0.5869 -1.5727
 4855SOL    MW419194   3.313   2.678   0.632 -0.0964  0.1353 -0.5931
 4856SOL     OW19195   5.946   2.378   1.501  0.2101  0.0711  0.1083
 4856SOL    HW219196   5.997   2.336   1.571 -1.0416  0.4398  1.2731
 4856SOL    HW319197   5.910   2.304   1.451  0.2541 -0.2119  0.4859
 4856SOL    MW419198   5.948   2.362   1.504  0.0508  0.0824  0.3118
 4857SOL     OW19199   3.972   0.416   1.537 -0.2590  0.0975 -0.4634
 4857SOL    HW219200   3.882   0.384   1.545 -0.8950  1.6058 -1.0269
 4857SOL    HW319201   3.970   0.474   1.461  0.9879  0.8208  0.0198
 4857SOL    MW419202   3.960   0.420   1.528 -0.1784  0.3920 -0.4740
 4858SOL     OW19203   2.810   1.594   0.215 -0.1911  0.0063  0.1850
 4858SOL    HW219204   2.845   1.666   0.163 -0.3947  0.9810  1.3479
 4858SOL    HW319205   2.718   1.616   0.227 -0.2518 -0.4374  0.5632
 4858SOL    MW419206   2.803   1.607   0.210 -0.2260  0.0763  0.3883
 4859SOL     OW19207   0.608   1.216   5.056  0.2185  0.1769 -0.3213
 4859SOL    HW219208   0.688   1.164   5.054  0.2303  0.1375  0.5666
 4859SOL    HW319209   0.622   1.286   4.992 -0.3182 -1.6118 -2.5148
 4859SOL    MW419210   0.620   1.219   5.048  0.1493 -0.0643 -0.4936
 4860SOL     OW19211   1.371   0.417   0.660  0.1856 -0.2465  0.0885
 4860SOL    HW219212   1.343   0.431   0.570  1.5159 -0.5516 -0.3958
 4860SOL    HW319213   1.366   0.503   0.701 -0.2078 -0.0668 -0.3386
 4860SOL    MW419214   1.367   0.430   0.654  0.3092 -0.2631 -0.0317
 4861SOL     OW19215   4.104   2.087   5.716  0.1332 -0.6791 -0.0512
 4861SOL    HW219216   4.020   2.131   5.724  0.3882  0.1081 -1.3224
 4861SOL    HW319217   4.082   1.995   5.701 -0.6031 -0.2659 -1.8211
 4861SOL    MW419218   4.090   2.081   5.715  0.0697 -0.5207 -0.4525
 4862SOL     OW19219   0.461   0.520   4.878 -0.2392 -0.0853 -0.0817
 4862SOL    HW219220   0.444   0.430   4.853  1.6910  0.0832 -2.4433
 4862SOL    HW319221   0.517   0.514   4.955 -0.3675 -0.8977 -0.0516
 4862SOL    MW419222   0.466   0.507   4.885 -0.0014 -0.1702 -0.3893
 4863SOL     OW19223   0.113   0.279   2.409 -0.3164 -0.0016  0.8920
 4863SOL    HW219224   0.134   0.272   2.502  0.7560 -2.0627  0.5648
 4863SOL    HW319225   0.093   0.371   2.395  1.3009  0.7016  2.7886
 4863SOL    MW419226   0.113   0.290   2.420  0.0385 -0.1808  1.0991
 4864SOL     OW19227   0.189   1.757   1.047 -0.4331 -0.4481 -0.2862
 4864SOL    HW219228   0.184   1.790   1.136  1.0741  0.4394 -0.5001
 4864SOL    HW319229   0.098   1.756   1.016 -0.8327  0.4606  0.8092
 4864SOL    MW419230   0.176   1.761   1.054 -0.2870 -0.2111 -0.1699
 4865SOL     OW19231   5.883   0.458   2.204 -0.6495 -0.1023  0.3446
 4865SOL    HW219232   5.929   0.486   2.125 -2.7595 -0.7389 -1.2034
 4865SOL    HW319233   5.922   0.509   2.275 -0.1433  2.1100 -1.4282
 4865SOL    MW419234   5.894   0.468   2.203 -0.8611  0.1056 -0.0936
 4866SOL     OW19235   2.650   1.072   2.002 -0.1482 -0.3284 -0.3405
 4866SOL    HW219236   2.653   0.987   2.046  1.2674 -0.3707 -0.4869
 4866SOL    HW319237   2.690   1.133   2.064 -1.2963  0.2798 -0.1715
 4866SOL    MW419238   2.655   1.069   2.016 -0.1129 -0.2538 -0.3375
 4867SOL     OW19239   5.510   5.448   1.721 -0.0885 -0.0537 -0.2386
 4867SOL    HW219240   5.561   5.525   1.746 -1.3778  0.5688  0.5464
 4867SOL    HW319241   5.503   5.397   1.801  1.1785 -1.2899 -0.8604
 4867SOL    MW419242   5.516   5.452   1.735 -0.0914 -0.1346 -0.2171
 4868SOL     OW19243   1.447   4.409   3.772 -0.0912  0.1045  0.5565
 4868SOL    HW219244   1.436   4.317   3.751  0.0871 -0.1109  1.3723
 4868SOL    HW319245   1.442   4.413   3.868 -2.3719  1.2592  0.4436
 4868SOL    MW419246   1.445   4.397   3.782 -0.3686  0.2284  0.6492
 4869SOL     OW19247   4.297   6.311   3.278 -0.2324  0.0844  0.5039
 4869SOL    HW219248   4.275   6.223   3.308 -1.0352 -0.3304 -1.1695
 4869SOL    HW319249   4.316   6.360   3.358  1.5013 -1.9104  1.3839
 4869SOL    MW419250   4.296   6.306   3.292 -0.1096 -0.2335  0.3992
 4870SOL     OW19251   1.120   1.733   0.145  0.2853 -0.1833  0.0899
 4870SOL    HW219252   1.079   1.661   0.193  0.8453 -1.4134 -1.2201
 4870SOL    HW319253   1.212   1.729   0.169  0.2070  0.5997  0.5846
 4870SOL    MW419254   1.127   1.723   0.154  0.3489 -0.2423 -0.0177
 4871SOL     OW19255   2.128   1.719   3.030 -0.2029 -0.0319 -0.4232
 4871SOL    HW219256   2.144   1.717   2.936 -2.1724  1.1765 -0.8429
 4871SOL    HW319257   2.164   1.636   3.062  1.1410 -0.1651 -2.0902
 4871SOL    MW419258   2.135   1.708   3.022 -0.2855  0.1100 -0.6985
 4872SOL     OW19259   3.767   1.653   5.556 -0.6944 -0.1060 -0.0029
 4872SOL    HW219260   3.751   1.734   5.605 -0.8771 -0.1798  0.0637
 4872SOL    HW319261   3.751   1.677   5.465 -0.4261  0.0136 -0.0189
 4872SOL    MW419262   3.762   1.667   5.551 -0.6831 -0.0999  0.0038
 4873SOL     OW19263   4.656   1.630   2.708  0.1830  0.5863 -0.0604
 4873SOL    HW219264   4.632   1.671   2.791  2.6761 -0.0316  1.0533
 4873SOL    HW319265   4.694   1.701   2.656 -0.6052  0.7944 -0.3704
 4873SOL    MW419266   4.658   1.645   2.712  0.4079  0.5322  0.0457
 4874SOL     OW19267   2.439   3.724   2.788  0.4989 -0.1638 -0.3144
 4874SOL    HW219268   2.429   3.632   2.767 -1.2176 -0.0007 -0.3729
 4874SOL    HW319269   2.403   3.770   2.713 -0.2190  0.5198  0.4306
 4874SOL    MW419270   2.433   3.718   2.775  0.1777 -0.0521 -0.2238
 4875SOL     OW19271   2.112   2.641   3.564 -0.1106  0.0273 -0.2641
 4875SOL    HW219272   2.063   2.683   3.493 -0.7968  2.0161  1.3048
 4875SOL    HW319273   2.196   2.618   3.523 -1.6941 -2.0980 -2.6006
 4875SOL    MW419274   2.117   2.644   3.549 -0.4100  0.0093 -0.3653
 4876SOL     OW19275   5.356   1.680   5.496 -0.1415  0.4989  0.7725
 4876SOL    HW219276   5.388   1.741   5.429 -0.2829 -0.1316  0.1125
 4876SOL    HW319277   5.408   1.700   5.574  1.4665 -0.0637 -0.0896
 4876SOL    MW419278   5.367   1.690   5.497  0.0520  0.3414  0.5717
 4877SOL     OW19279   2.611   4.847   2.452  0.2329  0.2806 -0.0754
 4877SOL    HW219280   2.643   4.819   2.538  1.3050  1.8634  0.0862
 4877SOL    HW319281   2.518   4.823   2.452  0.4992 -0.8836  1.0122
 4877SOL    MW419282   2.603   4.840   2.463  0.4095  0.3358  0.0894
 4878SOL     OW19283   2.497   3.880   4.865  0.2561 -0.2462  0.1045
 4878SOL    HW219284   2.440   3.815   4.907  1.2500  0.4962  2.7584
 4878SOL    HW319285   2.573   3.830   4.836  0.5999 -0.4408  1.3003
 4878SOL    MW419286   2.499   3.865   4.867  0.4326 -0.1739  0.6124
 4879SOL     OW19287   1.176   4.127   5.763  0.3479 -0.8672 -0.4769
 4879SOL    HW219288   1.212   4.041   5.788  1.3303 -0.5829 -0.8405
 4879SOL    HW319289   1.081   4.115   5.766  0.4441 -1.4311  1.2807
 4879SOL    MW419290   1.168   4.114   5.767  0.4902 -0.9041 -0.2930
 4880SOL     OW19291   6.125   5.915   3.042  0.3654  0.1186  0.1898
 4880SOL    HW219292   6.210   5.891   3.078  0.7403  1.2179  0.0703
 4880SOL    HW319293   6.144   5.986   2.981 -0.2992 -1.2990 -1.8016
 4880SOL    MW419294   6.138   5.921   3.038  0.3272  0.0766 -0.0887
 4881SOL     OW19295   6.403   5.930   4.616  0.1328  0.2104  0.1270
 4881SOL    HW219296   6.357   5.893   4.691  1.1108  1.1266  1.2325
 4881SOL    HW319297   6.350   6.006   4.591  0.0962  0.2211  0.2368
 4881SOL    MW419298   6.390   5.935   4.623  0.2570  0.3327  0.2873
 4882SOL     OW19299   4.939   4.169   4.363  0.3284 -0.6993  0.5113
 4882SOL    HW219300   4.915   4.078   4.383 -0.9347 -1.0050 -1.9863
 4882SOL    HW319301   5.026   4.163   4.323  0.1943 -0.8517  0.2363
 4882SOL    MW419302   4.948   4.156   4.360  0.1440 -0.7598  0.1455
 4883SOL     OW19303   4.328   0.746   0.403  0.4972  0.1643 -0.3215
 4883SOL    HW219304   4.309   0.714   0.315  1.2657 -2.1534  0.2918
 4883SOL    HW319305   4.398   0.810   0.391  2.4333 -1.9805 -1.2512
 4883SOL    MW419306   4.335   0.750   0.390  0.8540 -0.4244 -0.3632
 4884SOL     OW19307   1.258   1.624   0.498  0.6414 -0.2602  0.4682
 4884SOL    HW219308   1.302   1.597   0.418  0.8276 -0.3676  0.6049
 4884SOL    HW319309   1.201   1.696   0.472  0.0676 -0.8435  0.0799
 4884SOL    MW419310   1.256   1.630   0.484  0.5903 -0.3514  0.4350
 4885SOL     OW19311   5.501   6.220   0.803  0.0525 -0.1105 -0.1401
 4885SOL    HW219312   5.530   6.215   0.712 -0.2316  4.6925 -0.7532
 4885SOL    HW319313   5.570   6.176   0.853  1.5722 -0.5391 -2.4792
 4885SOL    MW419314   5.514   6.213   0.798  0.2155  0.4666 -0.5296
 4886SOL     OW19315   4.623   2.838   6.176  0.2777 -0.4392 -0.1460
 4886SOL    HW219316   4.584   2.760   6.138 -1.4387  0.3472 -0.0855
 4886SOL    HW319317   4.672   2.878   6.105  0.0004 -0.8194 -0.5515
 4886SOL    MW419318   4.624   2.833   6.162  0.0147 -0.3856 -0.1915
 4887SOL     OW19319   1.927   3.648   3.343 -0.4663  0.0268  0.0651
 4887SOL    HW219320   1.878   3.600   3.276  0.4104 -0.3590 -0.3082
 4887SOL    HW319321   1.957   3.581   3.404 -1.1951  0.3671  0.8304
 4887SOL    MW419322   1.924   3.633   3.342 -0.4468  0.0208  0.1168
 4888SOL     OW19323   0.014   5.933   0.986  0.5052 -0.0723 -0.3479
 4888SOL    HW219324  -0.031   5.942   1.070  1.4663  0.1898  0.1608
 4888SOL    HW319325   0.046   5.842   0.986  0.6553 -0.0208 -0.3409
 4888SOL    MW419326   0.012   5.922   0.997  0.6518 -0.0309 -0.2799
 4889SOL     OW19327   3.265   2.079   2.587 -0.3735 -0.3117  0.6142
 4889SOL    HW219328   3.269   2.168   2.552 -2.2526  0.0711  1.2418
 4889SOL    HW319329   3.306   2.086   2.673 -1.4527  0.2164  1.1039
 4889SOL    MW419330   3.271   2.091   2.594 -0.7638 -0.1915  0.7616
 4890SOL     OW19331   3.536   0.986   1.201 -0.5383  0.7625 -0.2414
 4890SOL    HW219332   3.568   1.074   1.225 -0.7914  0.7613  0.1082
 4890SOL    HW319333   3.533   0.939   1.284  0.1083  0.2514 -0.5000
 4890SOL    MW419334   3.540   0.992   1.215 -0.4864  0.6949 -0.2294
 4891SOL     OW19335   2.864   3.362   1.372  0.5282 -0.1213  0.3201
 4891SOL    HW219336   2.907   3.445   1.350  0.4902 -0.2485 -0.2518
 4891SOL    HW319337   2.921   3.295   1.333 -0.6539 -0.2569 -1.2721
 4891SOL    MW419338   2.877   3.364   1.364  0.3672 -0.1560  0.0346
 4892SOL     OW19339   5.136   4.080   4.954  0.8372 -0.0590 -0.6390
 4892SOL    HW219340   5.044   4.072   4.931  0.3921  0.2301  0.9846
 4892SOL    HW319341   5.144   4.039   5.039  1.8561  1.4438  0.0396
 4892SOL    MW419342   5.125   4.074   4.962  0.9129  0.1775 -0.3353
 4893SOL     OW19343   2.656   6.285   4.970  0.6512 -0.0577  0.2403
 4893SOL    HW219344   2.599   6.329   5.033 -0.1900 -0.8309  0.0449
 4893SOL    HW319345   2.716   6.353   4.940 -1.4850  1.3674 -1.1119
 4893SOL    MW419346   2.657   6.299   4.974  0.2583  0.0283  0.0361
 4894SOL     OW19347   0.960   1.204   1.797  0.0491 -0.4100 -1.0579
 4894SOL    HW219348   0.980   1.293   1.824 -0.3100 -0.1215 -1.7234
 4894SOL    HW319349   1.011   1.190   1.717 -1.9848  0.1943 -2.5346
 4894SOL    MW419350   0.969   1.214   1.790 -0.2666 -0.2922 -1.3405
 4895SOL     OW19351   0.130   0.553   4.954  0.0955  0.2616  0.1020
 4895SOL    HW219352   0.174   0.469   4.948  0.8842  0.5823  1.1046
 4895SOL    HW319353   0.172   0.607   4.887  0.6504  0.3098  0.4853
 4895SOL    MW419354   0.141   0.549   4.945  0.2728  0.3103  0.2849
 4896SOL     OW19355   3.383   4.632   2.652 -0.6095 -0.0409 -0.0464
 4896SOL    HW219356   3.389   4.715   2.700  0.5391  0.4324 -0.9448
 4896SOL    HW319357   3.418   4.653   2.565  1.1372 -1.7832  0.1643
 4896SOL    MW419358   3.389   4.646   2.647 -0.2275 -0.2083 -0.1371
 4897SOL     OW19359   5.714   2.026   1.836  0.3819 -0.1599 -0.4975
 4897SOL    HW219360   5.784   1.981   1.788  0.0261  0.9798 -2.1557
 4897SOL    HW319361   5.739   2.119   1.834 -0.1904  0.0394  0.6364
 4897SOL    MW419362   5.727   2.032   1.829  0.2594  0.0168 -0.5667
 4898SOL     OW19363   0.114   4.757   5.805  0.3713 -0.4344 -0.6224
 4898SOL    HW219364   0.179   4.704   5.759  0.4372 -0.3229 -0.6590
 4898SOL    HW319365   0.066   4.695   5.860 -1.5059 -1.0764 -2.7973
 4898SOL    MW419366   0.116   4.742   5.806  0.1323 -0.5044 -0.9142
 4899SOL     OW19367   3.646   4.060   1.845  0.8741  0.6798  0.0265
 4899SOL    HW219368   3.628   3.993   1.912  2.2598  0.5618  0.3178
 4899SOL    HW319369   3.585   4.040   1.774  0.0781  0.1725  0.8223
 4899SOL    MW419370   3.636   4.049   1.845  0.9519  0.5973  0.1699
 4900SOL     OW19371   3.486   6.051   4.671 -0.2461  0.5249  0.0980
 4900SOL    HW219372   3.581   6.046   4.682 -0.2093 -0.8564 -0.5905
 4900SOL    HW319373   3.451   6.043   4.759  0.2497 -0.8364  0.1921
 4900SOL    MW419374   3.494   6.049   4.684 -0.1759  0.1631  0.0196
 4901SOL     OW19375   4.227   4.274   2.291 -0.1582 -0.3122  0.7594
 4901SOL    HW219376   4.206   4.200   2.349  1.4480  0.2105  2.0753
 4901SOL    HW319377   4.304   4.246   2.243  0.9692  0.7453  1.8577
 4901SOL    MW419378   4.234   4.261   2.293  0.2025 -0.1037  1.0779
 4902SOL     OW19379   1.593   0.975   5.186 -0.1013 -0.3819 -0.2064
 4902SOL    HW219380   1.643   0.960   5.267  0.7574  0.1515 -0.6229
 4902SOL    HW319381   1.510   0.930   5.201 -0.7587  1.3486  1.7804
 4902SOL    MW419382   1.589   0.967   5.199 -0.0747 -0.0832  0.0008
 4903SOL     OW19383   6.348   1.636   0.555 -0.4672  0.0127  0.3012
 4903SOL    HW219384   6.414   1.704   0.540 -0.4565 -0.1847 -0.5773
 4903SOL    HW319385   6.394   1.568   0.604 -0.0795 -0.0091 -0.0863
 4903SOL    MW419386   6.363   1.636   0.559 -0.4146 -0.0162  0.1342
 4904SOL     OW19387   5.835   4.977   3.529  0.5444  0.0477  0.0714
 4904SOL    HW219388   5.862   4.922   3.455  1.5114  1.7311 -0.8790
 4904SOL    HW319389   5.918   5.005   3.569  0.1210  1.5822 -0.0736
 4904SOL    MW419390   5.850   4.973   3.524  0.6161  0.4723 -0.0731
 4905SOL     OW19391   1.425   0.441   4.051 -0.2708  0.1238 -0.2613
 4905SOL    HW219392   1.333   0.415   4.051 -0.3498  0.3818  0.2902
 4905SOL    HW319393   1.442   0.469   4.141  0.0902  0.9635 -0.5772
 4905SOL    MW419394   1.415   0.441   4.063 -0.2336  0.2686 -0.2302
 4906SOL     OW19395   0.823   1.959   3.724 -0.0044  0.1144 -0.1314
 4906SOL    HW219396   0.750   1.934   3.668 -0.0185 -0.7999  0.2754
 4906SOL    HW319397   0.875   2.019   3.671 -0.7491  0.3396 -0.6213
 4906SOL    MW419398   0.820   1.964   3.710 -0.1045  0.0235 -0.1424
 4907SOL     OW19399   2.930   1.157   1.171  0.0279 -0.3546 -0.0940
 4907SOL    HW219400   2.902   1.095   1.104 -1.3586 -0.6464  0.7062
 4907SOL    HW319401   2.904   1.243   1.137 -2.0791 -0.6312  0.6837
 4907SOL    MW419402   2.923   1.160   1.158 -0.4330 -0.4296  0.1142
 4908SOL     OW19403   0.919   3.253   2.833  0.6670  0.1299  0.2755
 4908SOL    HW219404   0.925   3.296   2.918 -0.6325  1.6659 -0.3677
 4908SOL    HW319405   0.983   3.299   2.778  0.5862  0.0003  0.0709
 4908SOL    MW419406   0.929   3.265   2.837  0.4849  0.3155  0.1637
 4909SOL     OW19407   6.383   1.184   4.573  0.6143  0.1277 -0.2671
 4909SOL    HW219408   6.297   1.226   4.576  0.8610  0.5953  0.5864
 4909SOL    HW319409   6.445   1.254   4.598  1.1882 -0.3295 -0.3904
 4909SOL    MW419410   6.380   1.199   4.577  0.7225  0.1291 -0.1707
 4910SOL     OW19411   3.449   0.533   0.515  0.6034 -0.1373  0.2207
 4910SOL    HW219412   3.505   0.566   0.445  1.6594  0.9928  1.5445
 4910SOL    HW319413   3.388   0.473   0.471  2.3175 -0.7840 -1.3793
 4910SOL    MW419414   3.448   0.530   0.500  0.9689 -0.0735  0.1843
 4911SOL     OW19415   5.960   6.059   3.224  0.3438 -0.1783  0.2472
 4911SOL    HW219416   6.018   6.008   3.168  1.1649  1.1974 -0.2246
 4911SOL    HW319417   5.927   6.129   3.167 -0.4157  0.0663  0.9652
 4911SOL    MW419418   5.963   6.062   3.209  0.3519  0.0354  0.2797
 4912SOL     OW19419   5.008   0.306   5.317  0.7425  0.8392  0.4177
 4912SOL    HW219420   4.999   0.290   5.411  0.1397  0.5305  0.3080
 4912SOL    HW319421   5.097   0.276   5.297  0.7114  0.4825  0.7995
 4912SOL    MW419422   5.019   0.300   5.327  0.6589  0.7514  0.4536
 4913SOL     OW19423   1.288   6.242   1.649  0.2356 -0.0528 -0.4348
 4913SOL    HW219424   1.205   6.198   1.671 -1.4214  2.3900 -1.3396
 4913SOL    HW319425   1.268   6.335   1.656  2.9587  0.6268 -0.6837
 4913SOL    MW419426   1.274   6.248   1.653  0.3763  0.3591 -0.5870
 4914SOL     OW19427   5.609   4.809   3.835 -0.2803  0.0345 -0.0779
 4914SOL    HW219428   5.676   4.761   3.786 -1.7611 -0.7260 -1.4514
 4914SOL    HW319429   5.626   4.901   3.814 -0.5559 -0.2401 -1.6490
 4914SOL    MW419430   5.620   4.815   3.826 -0.5121 -0.1021 -0.4664
 4915SOL     OW19431   2.125   2.899   5.989  0.8228  0.0377 -0.1877
 4915SOL    HW219432   2.067   2.952   5.935 -0.3765 -0.2527  0.7749
 4915SOL    HW319433   2.212   2.912   5.951 -0.0484 -0.7669 -2.6919
 4915SOL    MW419434   2.129   2.907   5.977  0.5497 -0.1067 -0.3911
 4916SOL     OW19435   1.185   3.177   1.048 -0.4414  0.3967 -0.1956
 4916SOL    HW219436   1.156   3.261   1.012 -1.2354  1.3309  2.3384
 4916SOL    HW319437   1.272   3.196   1.084 -0.6544  0.1958  0.4461
 4916SOL    MW419438   1.192   3.191   1.048 -0.5742  0.4935  0.2234
 4917SOL     OW19439   4.076   0.840   5.401 -0.8115 -0.5243 -0.0599
 4917SOL    HW219440   4.149   0.834   5.462 -0.0644  2.9776 -0.4079
 4917SOL    HW319441   4.108   0.798   5.321 -0.7477 -2.5819  0.9915
 4917SOL    MW419442   4.090   0.834   5.398 -0.7045 -0.3337  0.0329
 4918SOL     OW19443   0.669   3.780   1.758 -0.1648  0.1306 -0.0440
 4918SOL    HW219444   0.581   3.799   1.727  0.4921  2.0682 -0.9433
 4918SOL    HW319445   0.721   3.769   1.678  0.6791  0.5678  0.4191
 4918SOL    MW419446   0.664   3.781   1.743  0.0332  0.4439 -0.1016
 4919SOL     OW19447   4.064   4.318   5.410 -0.1693 -0.1923  0.0718
 4919SOL    HW219448   4.068   4.399   5.359 -0.2958 -0.6763 -0.7250
 4919SOL    HW319449   4.068   4.248   5.344 -0.5292 -0.8283  0.7126
 4919SOL    MW419450   4.065   4.320   5.394 -0.2335 -0.3401  0.0512
 4920SOL     OW19451   3.815   4.040   3.430  0.5247 -0.5944  0.0807
 4920SOL    HW219452   3.802   4.063   3.338  1.3867 -0.4045 -0.0050
 4920SOL    HW319453   3.808   4.123   3.477  0.2012 -0.6740  0.1757
 4920SOL    MW419454   3.812   4.054   3.424  0.5957 -0.5799  0.0820
 4921SOL     OW19455   2.049   5.319   4.494  0.1717 -0.0034 -0.4764
 4921SOL    HW219456   2.003   5.389   4.448  1.8793  2.6113  1.4912
 4921SOL    HW319457   1.993   5.297   4.568 -0.4728 -0.9450 -1.2225
 4921SOL    MW419458   2.036   5.325   4.498  0.3119  0.2174 -0.3152
 4922SOL     OW19459   2.904   1.479   3.309  0.2498  0.1366 -0.0772
 4922SOL    HW219460   2.960   1.512   3.379 -1.4794  1.3775  0.8155
 4922SOL    HW319461   2.815   1.500   3.338 -0.8089 -2.7988 -0.8510
 4922SOL    MW419462   2.900   1.487   3.322 -0.1180 -0.0870 -0.0615
 4923SOL     OW19463   0.891   6.252   2.250  0.4046  0.1156  0.3077
 4923SOL    HW219464   0.920   6.166   2.218 -1.9241 -0.6040 -0.0785
 4923SOL    HW319465   0.864   6.235   2.341 -1.1886  0.1034 -0.1328
 4923SOL    MW419466   0.891   6.238   2.258 -0.1128  0.0191  0.1987
 4924SOL     OW19467   5.318   4.344   3.326 -0.1074  0.6399 -0.3284
 4924SOL    HW219468   5.340   4.253   3.307  1.1182  0.9152 -0.2642
 4924SOL    HW319469   5.382   4.372   3.391 -0.9666  1.3231  0.2482
 4924SOL    MW419470   5.329   4.335   3.332 -0.0590  0.7664 -0.2439
 4925SOL     OW19471   2.161   5.901   3.180  0.0842 -0.1081  0.0876
 4925SOL    HW219472   2.207   5.824   3.212  0.2997 -0.2776 -0.6112
 4925SOL    HW319473   2.069   5.876   3.183  0.1962 -0.6922 -0.8752
 4925SOL    MW419474   2.155   5.887   3.185  0.1274 -0.2075 -0.1316
 4926SOL     OW19475   0.918   1.369   3.043 -0.1606  0.3065  0.0935
 4926SOL    HW219476   0.986   1.303   3.030  0.4024  0.7345  0.7657
 4926SOL    HW319477   0.837   1.319   3.048  0.1871 -0.2817  0.0017
 4926SOL    MW419478   0.917   1.354   3.042 -0.0404  0.2854  0.1701
 4927SOL     OW19479   4.425   1.121   1.223 -0.0243  0.5527 -0.4471
 4927SOL    HW219480   4.503   1.155   1.179 -0.4101  1.2064 -0.6407
 4927SOL    HW319481   4.402   1.189   1.286 -1.8634  1.5315 -2.0843
 4927SOL    MW419482   4.433   1.134   1.225 -0.3178  0.7681 -0.6886
 4928SOL     OW19483   3.858   0.067   3.834 -0.2815  0.0776  0.5147
 4928SOL    HW219484   3.896   0.031   3.914 -0.3781 -0.4660  0.3185
 4928SOL    HW319485   3.784   0.120   3.865  0.0772  0.4021  0.8298
 4928SOL    MW419486   3.853   0.069   3.849 -0.2469  0.0487  0.5304
 4929SOL     OW19487   2.209   4.662   2.816  0.3373 -0.5419  0.0625
 4929SOL    HW219488   2.149   4.591   2.837  0.0544 -0.4003 -0.2525
 4929SOL    HW319489   2.250   4.685   2.899  0.5769 -1.2035  0.1294
 4929SOL    MW419490   2.206   4.656   2.829  0.3316 -0.6105  0.0297
 4930SOL     OW19491   4.424   3.287   4.828 -0.1602 -0.1767 -0.1623
 4930SOL    HW219492   4.422   3.328   4.915  0.2810 -2.0377  0.7641
 4930SOL    HW319493   4.445   3.195   4.845  0.1155 -0.5458 -2.2664
 4930SOL    MW419494   4.426   3.280   4.842 -0.0657 -0.4709 -0.3177
 4931SOL     OW19495   2.228   2.907   0.206  0.4411  0.4166  0.7956
 4931SOL    HW219496   2.222   2.901   0.301  2.7306  2.4052  1.1713
 4931SOL    HW319497   2.304   2.965   0.190  0.1971  0.0802 -2.2299
 4931SOL    MW419498   2.238   2.914   0.216  0.7109  0.6346  0.4460
 4932SOL     OW19499   1.593   1.358   3.900  0.6018 -0.2993  0.2112
 4932SOL    HW219500   1.653   1.432   3.886 -1.7534  1.8533  0.7750
 4932SOL    HW319501   1.583   1.318   3.814  0.2967  1.3850 -0.5642
 4932SOL    MW419502   1.600   1.362   3.887  0.2508  0.2069  0.1833
 4933SOL     OW19503   3.559   3.048   3.779  0.3450 -0.1005 -0.2500
 4933SOL    HW219504   3.508   2.993   3.839  0.4925  0.4364  0.3838
 4933SOL    HW319505   3.579   2.991   3.705 -0.7665 -0.4593 -0.2928
 4933SOL    MW419506   3.555   3.033   3.777  0.2178 -0.0770 -0.1720
 4934SOL     OW19507   3.172   4.592   0.610 -0.5276  0.0720 -0.2602
 4934SOL    HW219508   3.133   4.518   0.657 -0.8736  0.7176  0.4923
 4934SOL    HW319509   3.130   4.591   0.524  0.0229 -1.0513 -0.5469
 4934SOL    MW419510   3.162   4.582   0.605 -0.5006  0.0090 -0.1988
 4935SOL     OW19511   5.763   4.623   6.049 -0.9684 -0.0443  0.2211
 4935SOL    HW219512   5.776   4.533   6.018 -3.0571 -0.3324  0.0406
 4935SOL    HW319513   5.751   4.674   5.969 -1.5734  0.0527  0.3655
 4935SOL    MW419514   5.763   4.618   6.034 -1.3238 -0.0695  0.2164
 4936SOL     OW19515   2.819   3.008   5.280 -0.0881 -0.3170  0.0885
 4936SOL    HW219516   2.744   2.998   5.339 -0.2657  0.0963 -0.0668
 4936SOL    HW319517   2.802   3.089   5.233  0.0710 -0.6281 -0.5125
 4936SOL    MW419518   2.807   3.017   5.281 -0.0905 -0.3035 -0.0113
 4937SOL     OW19519   6.207   6.262   3.663  0.2455  0.2593 -0.6254
 4937SOL    HW219520   6.227   6.207   3.587  0.4689  0.3551 -0.6362
 4937SOL    HW319521   6.112   6.270   3.662  0.1915 -0.3213 -0.4853
 4937SOL    MW419522   6.197   6.256   3.653  0.2678  0.1953 -0.6083
 4938SOL     OW19523   1.944   0.252   5.136 -0.2759  0.2802 -0.2749
 4938SOL    HW219524   1.947   0.314   5.209 -0.3146  0.7723 -0.6828
 4938SOL    HW319525   2.012   0.188   5.156 -1.6837 -0.8212  1.2583
 4938SOL    MW419526   1.953   0.252   5.148 -0.4667  0.1998 -0.1264
 4939SOL     OW19527   5.864   4.321   2.399  0.8484  0.1841  0.4162
 4939SOL    HW219528   5.803   4.259   2.438  1.3396 -1.2048 -0.9326
 4939SOL    HW319529   5.892   4.280   2.318  0.3644  2.6568 -1.1183
 4939SOL    MW419530   5.860   4.308   2.394  0.8494  0.3271  0.0358
 4940SOL     OW19531   4.455   4.207   2.152  0.4338  0.0831 -0.1304
 4940SOL    HW219532   4.399   4.159   2.092 -1.1931  0.3746  1.0658
 4940SOL    HW319533   4.516   4.142   2.187 -1.4242 -1.1031  1.1195
 4940SOL    MW419534   4.455   4.192   2.149 -0.0260 -0.0350  0.1923
 4941SOL     OW19535   1.728   0.056   3.050 -0.3320  0.3865 -0.5941
 4941SOL    HW219536   1.699  -0.015   2.993  0.3083  1.2701 -2.0929
 4941SOL    HW319537   1.766   0.120   2.990 -1.2780  2.1981  0.6380
 4941SOL    MW419538   1.729   0.055   3.034 -0.3723  0.7421 -0.6293
 4942SOL     OW19539   4.066   1.027   4.961 -0.1645 -0.3040  1.1969
 4942SOL    HW219540   4.007   1.083   4.911 -0.0842 -0.5973  0.7684
 4942SOL    HW319541   4.009   0.966   5.007 -0.1710 -1.1880  0.0586
 4942SOL    MW419542   4.051   1.026   4.961 -0.1547 -0.4594  0.9901
 4943SOL     OW19543   5.860   5.394   3.854  0.6232  0.0841 -0.3190
 4943SOL    HW219544   5.790   5.430   3.799  1.0798  0.9874 -0.3278
 4943SOL    HW319545   5.928   5.368   3.792  0.3440 -0.7085 -0.3038
 4943SOL    MW419546   5.860   5.396   3.839  0.6466  0.0987 -0.3182
 4944SOL     OW19547   5.245   4.642   6.258  0.1166  0.4047 -0.0466
 4944SOL    HW219548   5.175   4.677   6.313 -0.1027  0.6038 -0.4480
 4944SOL    HW319549   5.246   4.548   6.278  1.2900  0.7402  1.6874
 4944SOL    MW419550   5.236   4.634   6.268  0.2425  0.4752  0.1292
 4945SOL     OW19551   4.745   5.181   4.361 -0.3729  0.1426 -0.7352
 4945SOL    HW219552   4.822   5.125   4.346 -0.6555 -0.1387 -1.1377
 4945SOL    HW319553   4.697   5.137   4.431 -0.9447 -0.4842 -1.5097
 4945SOL    MW419554   4.749   5.167   4.368 -0.4856  0.0228 -0.8905
 4946SOL     OW19555   3.342   4.398   4.695  0.4335 -0.4617  0.0736
 4946SOL    HW219556   3.436   4.378   4.700  0.6540  0.6978  1.1850
 4946SOL    HW319557   3.300   4.312   4.704  1.3747 -1.0719 -1.0189
 4946SOL    MW419558   3.349   4.384   4.697  0.5868 -0.3892  0.0761
 4947SOL     OW19559   2.125   3.087   1.665 -0.0005  0.2339  0.0487
 4947SOL    HW219560   2.108   2.993   1.676 -1.1848  0.4139 -0.1026
 4947SOL    HW319561   2.141   3.119   1.753 -1.7114  0.2505  0.3980
 4947SOL    MW419562   2.125   3.079   1.678 -0.3824  0.2598  0.0748
 4948SOL     OW19563   4.237   0.821   4.894  0.2905  0.1265 -0.1038
 4948SOL    HW219564   4.309   0.868   4.936 -1.9342  1.8133  2.1770
 4948SOL    HW319565   4.163   0.883   4.898 -1.4414 -1.6841 -1.8303
 4948SOL    MW419566   4.236   0.836   4.900 -0.2315  0.1102 -0.0307
 4949SOL     OW19567   3.798   0.500   4.190  0.3494  0.5226 -0.9820
 4949SOL    HW219568   3.755   0.427   4.235 -1.0458  1.7516 -0.2791
 4949SOL    HW319569   3.727   0.551   4.152  1.3001  1.5625 -1.4275
 4949SOL    MW419570   3.783   0.497   4.191  0.2908  0.8220 -0.9481
 4950SOL     OW19571   5.214   2.649   0.359  0.2331  0.7134  0.0403
 4950SOL    HW219572   5.253   2.734   0.378  0.5634  0.7701 -0.8258
 4950SOL    HW319573   5.124   2.656   0.388  0.2593  1.3606 -0.0233
 4950SOL    MW419574   5.207   2.661   0.365  0.2801  0.8063 -0.0824
 4951SOL     OW19575   0.672   5.318   4.583 -0.0076 -0.0392  0.1441
 4951SOL    HW219576   0.584   5.286   4.562  0.7489 -1.6352 -0.7895
 4951SOL    HW319577   0.671   5.410   4.555 -1.3776 -0.0233  0.1764
 4951SOL    MW419578   0.660   5.326   4.576 -0.0886 -0.2477  0.0252
 4952SOL     OW19579   2.073   4.362   1.820 -0.6340  0.2201  0.4902
 4952SOL    HW219580   2.053   4.305   1.894 -0.9247 -0.5222 -0.1510
 4952SOL    HW319581   2.080   4.303   1.745  0.9950  0.8009  0.1496
 4952SOL    MW419582   2.071   4.347   1.820 -0.4574  0.1988  0.3607
 4953SOL     OW19583   1.400   4.813   2.022 -0.0114 -0.5926  0.1967
 4953SOL    HW219584   1.393   4.832   2.115 -1.4388  1.0163 -0.1779
 4953SOL    HW319585   1.313   4.779   1.998  0.0940 -0.2773 -0.6777
 4953SOL    MW419586   1.387   4.811   2.031 -0.1859 -0.3387  0.0319
 4954SOL     OW19587   1.952   2.440   2.244  0.1866 -0.2482  0.8454
 4954SOL    HW219588   2.026   2.444   2.305  0.6065  0.4026  0.3058
 4954SOL    HW319589   1.951   2.349   2.214  1.5980  0.0263 -0.1377
 4954SOL    MW419590   1.962   2.429   2.248  0.4282 -0.1261  0.6445
 4955SOL     OW19591   3.996   1.109   0.649  0.3088 -0.8199  0.3607
 4955SOL    HW219592   3.966   1.062   0.727  2.3382 -0.7717  1.2276
 4955SOL    HW319593   4.022   1.041   0.588 -1.9719 -0.8835 -0.6580
 4955SOL    MW419594   3.995   1.094   0.651  0.2757 -0.8219  0.3407
 4956SOL     OW19595   2.815   2.304   1.134 -0.1389 -0.2982 -0.1682
 4956SOL    HW219596   2.810   2.394   1.103  2.1775 -0.4740 -1.2842
 4956SOL    HW319597   2.795   2.251   1.057 -0.5124 -0.7563  0.2356
 4956SOL    MW419598   2.812   2.309   1.120  0.1175 -0.3818 -0.2621
 4957SOL     OW19599   1.299   6.043   4.513 -0.0686  0.2854 -0.5065
 4957SOL    HW219600   1.235   5.972   4.499 -0.0661 -0.3437  2.2134
 4957SOL    HW319601   1.246   6.123   4.511 -0.5805 -0.0473 -0.5023
 4957SOL    MW419602   1.283   6.044   4.511 -0.1358  0.1585 -0.1471
 4958SOL     OW19603   0.505   4.781   0.911  0.2174  0.4324  0.1585
 4958SOL    HW219604   0.472   4.870   0.899 -0.9791  0.0805  0.6937
 4958SOL    HW319605   0.601   4.791   0.912  0.2321  1.3418 -2.5938
 4958SOL    MW419606   0.514   4.794   0.910  0.0615  0.5059 -0.1340
 4959SOL     OW19607   0.976   2.208   0.563  0.1765  0.3173  0.0734
 4959SOL    HW219608   1.051   2.161   0.600  0.8100  0.7641 -0.6162
 4959SOL    HW319609   1.015   2.278   0.511 -0.7108  0.1311 -0.8659
 4959SOL    MW419610   0.991   2.211   0.561  0.1430  0.3517 -0.1415
 4960SOL     OW19611   0.065   5.329   3.003 -0.7214 -0.8600 -0.4297
 4960SOL    HW219612   0.038   5.285   2.922 -1.2466 -0.6605 -0.3622
 4960SOL    HW319613   0.008   5.405   3.009  1.2821  0.8207 -1.4436
 4960SOL    MW419614   0.054   5.333   2.993 -0.5264 -0.6119 -0.5546
 4961SOL     OW19615   1.288   3.787   1.963  0.8845  0.0308 -0.0810
 4961SOL    HW219616   1.337   3.824   2.036  1.5651 -0.0605 -0.4842
 4961SOL    HW319617   1.253   3.863   1.917 -1.0724  0.0646  1.3314
 4961SOL    MW419618   1.289   3.802   1.966  0.7161  0.0232  0.0522
 4962SOL     OW19619   6.417   0.412   3.312  0.3678  0.7222  0.1211
 4962SOL    HW219620   6.501   0.378   3.343  0.3802  0.6790  0.0396
 4962SOL    HW319621   6.370   0.334   3.281 -0.2546  0.5322  1.4450
 4962SOL    MW419622   6.422   0.397   3.312  0.2874  0.6914  0.2850
 4963SOL     OW19623   4.871   4.633   6.127  0.1152 -0.7139  0.2188
 4963SOL    HW219624   4.896   4.669   6.212  0.0889 -1.2894  0.4784
 4963SOL    HW319625   4.935   4.564   6.111  0.1724 -0.5478 -0.2725
 4963SOL    MW419626   4.883   4.629   6.137  0.1193 -0.7679  0.1882
 4964SOL     OW19627   5.594   3.482   4.523  0.1666 -0.0170  0.4383
 4964SOL    HW219628   5.631   3.399   4.553 -1.0218 -1.8265 -2.6921
 4964SOL    HW319629   5.657   3.514   4.458  0.5222  1.5271  1.4775
 4964SOL    MW419630   5.607   3.475   4.518  0.0567 -0.0520  0.1624
 4965SOL     OW19631   2.994   5.568   2.976 -0.1848  0.6208 -0.1046
 4965SOL    HW219632   3.008   5.566   3.071 -0.3655  2.1836 -0.0084
 4965SOL    HW319633   2.903   5.597   2.967  0.0839  1.3005 -0.7407
 4965SOL    MW419634   2.984   5.572   2.988 -0.1732  0.9167 -0.1758
 4966SOL     OW19635   5.233   3.669   4.423  0.1470 -0.0232 -0.5323
 4966SOL    HW219636   5.202   3.744   4.475  0.6619  0.3749 -0.7940
 4966SOL    HW319637   5.207   3.690   4.334 -0.4790 -0.5723 -0.4869
 4966SOL    MW419638   5.225   3.682   4.418  0.1323 -0.0431 -0.5608
 4967SOL     OW19639   1.546   4.114   1.197 -0.1225  0.2075  0.0963
 4967SOL    HW219640   1.592   4.120   1.281  2.0522  2.7026 -1.0933
 4967SOL    HW319641   1.467   4.167   1.209  0.0348  0.3084  0.6884
 4967SOL    MW419642   1.542   4.122   1.209  0.1852  0.5500  0.0174
 4968SOL     OW19643   5.772   0.692   5.128  0.5076  0.6155  0.4533
 4968SOL    HW219644   5.696   0.635   5.137 -0.8565  1.5295 -3.4152
 4968SOL    HW319645   5.831   0.646   5.069  0.5557  2.0421 -0.6709
 4968SOL    MW419646   5.770   0.679   5.122  0.3340  0.9243 -0.2054
 4969SOL     OW19647   2.804   3.587   4.042 -0.1551  0.4635 -0.0728
 4969SOL    HW219648   2.811   3.673   4.083 -0.3025  0.4543 -0.0298
 4969SOL    HW319649   2.887   3.544   4.063  0.8152  1.3440 -1.8082
 4969SOL    MW419650   2.816   3.593   4.050 -0.0466  0.5784 -0.2961
 4970SOL     OW19651   5.020   3.718   1.086  0.5115 -0.0606  0.6160
 4970SOL    HW219652   5.054   3.643   1.038  1.0647  0.0675  0.7999
 4970SOL    HW319653   5.061   3.712   1.173  0.2033  0.1944  0.7825
 4970SOL    MW419654   5.030   3.707   1.091  0.5438 -0.0100  0.6622
 4971SOL     OW19655   1.631   1.163   3.415 -0.2392  0.0823  0.3903
 4971SOL    HW219656   1.572   1.099   3.376 -1.0347 -0.7121  2.6809
 4971SOL    HW319657   1.718   1.122   3.411 -0.3131  0.0063 -0.4538
 4971SOL    MW419658   1.635   1.149   3.410 -0.3539 -0.0325  0.5812
 4972SOL     OW19659   1.634   5.034   0.022  0.2471  0.4372 -1.0503
 4972SOL    HW219660   1.586   5.004  -0.055  1.0774  0.7031 -1.6815
 4972SOL    HW319661   1.674   4.955   0.059 -0.8544  0.1758 -0.3803
 4972SOL    MW419662   1.633   5.020   0.017  0.2113  0.4378 -1.0452
 4973SOL     OW19663   0.161   3.513   1.088 -0.0719  0.7326  0.3106
 4973SOL    HW219664   0.145   3.594   1.039 -1.0303  1.1699  1.3140
 4973SOL    HW319665   0.255   3.515   1.106 -0.0617  1.5687  0.2218
 4973SOL    MW419666   0.171   3.524   1.084 -0.1970  0.9006  0.4313
 4974SOL     OW19667   0.513   5.106   3.091 -0.0644 -0.4019  0.1215
 4974SOL    HW219668   0.443   5.040   3.091 -0.9361  0.4455  2.0890
 4974SOL    HW319669   0.473   5.184   3.054  0.4458 -0.4678 -0.5826
 4974SOL    MW419670   0.498   5.107   3.086 -0.1121 -0.2988  0.2882
 4975SOL     OW19671   5.841   6.309   5.225  0.0021  0.1431  0.0607
 4975SOL    HW219672   5.839   6.378   5.158 -1.0162 -0.4385 -0.5217
 4975SOL    HW319673   5.856   6.357   5.307  1.1186  0.8787 -0.5367
 4975SOL    MW419674   5.843   6.325   5.227  0.0151  0.1634 -0.0950
 4976SOL     OW19675   5.897   1.386   6.375  0.0116 -0.1147  0.5386
 4976SOL    HW219676   5.867   1.386   6.466  1.4334  3.0214  1.1476
 4976SOL    HW319677   5.940   1.470   6.364  0.6185 -0.7150 -2.8563
 4976SOL    MW419678   5.899   1.397   6.386  0.2792  0.2199  0.1710
 4977SOL     OW19679   0.304   3.805   0.497  0.4633  0.1621  1.0309
 4977SOL    HW219680   0.311   3.734   0.561  0.8594  0.3750  1.2293
 4977SOL    HW319681   0.391   3.808   0.456  0.4573  0.5523  1.0469
 4977SOL    MW419682   0.316   3.796   0.500  0.5147  0.2417  1.0592
 4978SOL     OW19683   0.194   1.652   0.765  0.8275  0.1961  0.3819
 4978SOL    HW219684   0.242   1.705   0.829  1.0105  2.6780 -1.6698
 4978SOL    HW319685   0.262   1.605   0.717  0.8956  0.2869  0.3881
 4978SOL    MW419686   0.209   1.653   0.767  0.8607  0.5356  0.1121
 4979SOL     OW19687   1.953   1.403   0.732 -0.2716 -0.2264  0.8608
 4979SOL    HW219688   1.979   1.488   0.697  1.6673 -1.2769 -0.4180
 4979SOL    HW319689   1.941   1.348   0.654 -1.5208 -1.1437  1.6601
 4979SOL    MW419690   1.955   1.407   0.717 -0.1806 -0.4860  0.7976
 4980SOL     OW19691   5.895   6.087   0.230  0.4853 -0.2425 -0.3697
 4980SOL    HW219692   5.980   6.131   0.238  0.7941 -0.4023 -2.1731
 4980SOL    HW319693   5.884   6.040   0.312  0.7896  2.0301  1.0644
 4980SOL    MW419694   5.905   6.087   0.242  0.5662  0.0363 -0.4185
 4981SOL     OW19695   1.337   2.908   3.623  0.6666 -0.2535 -0.0410
 4981SOL    HW219696   1.321   2.817   3.649  0.5477 -0.6461 -1.3688
 4981SOL    HW319697   1.423   2.906   3.582  0.7522  0.2769  0.1126
 4981SOL    MW419698   1.346   2.896   3.621  0.6622 -0.2353 -0.1959
 4982SOL     OW19699   4.704   3.810   6.114 -0.8008 -0.2297 -0.1793
 4982SOL    HW219700   4.779   3.755   6.138 -0.1385  0.0440 -1.4985
 4982SOL    HW319701   4.634   3.748   6.094 -0.1312 -0.6303 -1.4175
 4982SOL    MW419702   4.705   3.795   6.114 -0.6251 -0.2464 -0.5167
 4983SOL     OW19703   1.212   4.072   3.858  0.3361  0.1337  0.4577
 4983SOL    HW219704   1.185   4.148   3.910  1.3058  0.4496  0.5249
 4983SOL    HW319705   1.299   4.096   3.825  0.5718 -0.8720  0.3273
 4983SOL    MW419706   1.220   4.086   3.860  0.4952  0.0427  0.4494
 4984SOL     OW19707   4.784   3.796   0.535  0.0401  0.0501  0.0052
 4984SOL    HW219708   4.821   3.709   0.526 -0.9784 -0.6048  1.5766
 4984SOL    HW319709   4.695   3.788   0.501 -2.1179 -1.1929  4.9849
 4984SOL    MW419710   4.777   3.784   0.529 -0.3790 -0.2003  0.8695
 4985SOL     OW19711   5.572   2.796   1.436 -0.5065  0.1818  0.3993
 4985SOL    HW219712   5.565   2.756   1.522 -1.8061  0.1498  0.3040
 4985SOL    HW319713   5.574   2.890   1.454 -1.6293  0.2113  0.4462
 4985SOL    MW419714   5.571   2.803   1.450 -0.8261  0.1815  0.3929
 4986SOL     OW19715   0.600   5.834   5.093 -0.1411  0.2415 -0.1106
 4986SOL    HW219716   0.596   5.754   5.041  0.0721  0.4032 -0.3802
 4986SOL    HW319717   0.691   5.840   5.121 -0.4339 -0.3080  1.0324
 4986SOL    MW419718   0.612   5.824   5.090 -0.1516  0.1903  0.0047
 4987SOL     OW19719   2.225   5.746   3.422 -0.4484  0.2294 -0.4527
 4987SOL    HW219720   2.212   5.799   3.501 -0.4406 -0.3334 -0.0672
 4987SOL    HW319721   2.137   5.718   3.396 -0.5546  1.2549 -1.2431
 4987SOL    MW419722   2.212   5.749   3.429 -0.4613  0.2905 -0.5061
 4988SOL     OW19723   1.577   3.932   5.800 -0.3858  0.2821 -0.1275
 4988SOL    HW219724   1.483   3.938   5.818 -0.3128 -2.1966  1.6932
 4988SOL    HW319725   1.587   3.847   5.756  0.6457  2.1729 -4.0117
 4988SOL    MW419726   1.566   3.921   5.796 -0.2401  0.2046 -0.3998
 4989SOL     OW19727   4.655   5.156   6.313  0.4243 -0.0079  0.1715
 4989SOL    HW219728   4.613   5.179   6.230  0.9686  0.2783 -0.0351
 4989SOL    HW319729   4.719   5.089   6.289 -0.8764 -1.4947  0.7101
 4989SOL    MW419730   4.658   5.151   6.299  0.3245 -0.1663  0.2153
 4990SOL     OW19731   5.596   3.962   6.297 -0.4231 -0.5549  0.4841
 4990SOL    HW219732   5.504   3.988   6.304 -0.3509  0.4788 -1.5241
 4990SOL    HW319733   5.592   3.866   6.290 -1.4573 -0.4757 -0.4654
 4990SOL    MW419734   5.583   3.953   6.297 -0.5500 -0.4081  0.0938
 4991SOL     OW19735   0.730   4.742   5.247  0.1044  0.0461 -0.6884
 4991SOL    HW219736   0.792   4.744   5.320  0.2525  1.2784 -0.8424
 4991SOL    HW319737   0.758   4.666   5.195  0.1014 -0.7536  0.4196
 4991SOL    MW419738   0.742   4.732   5.250  0.1235  0.1032 -0.5625
 4992SOL     OW19739   0.308   4.723   0.702  0.1435  0.2453  0.8066
 4992SOL    HW219740   0.391   4.735   0.749  0.7477  0.8934 -0.3813
 4992SOL    HW319741   0.323   4.645   0.648  0.3607  0.9436 -0.1674
 4992SOL    MW419742   0.321   4.714   0.701  0.2519  0.4229  0.5214
 4993SOL     OW19743   4.305   1.556   2.179  0.4135  0.6400 -0.0127
 4993SOL    HW219744   4.359   1.570   2.256  1.4604  0.2962 -0.6521
 4993SOL    HW319745   4.216   1.547   2.213  1.2145 -3.0587  1.5894
 4993SOL    MW419746   4.300   1.557   2.193  0.6573  0.1066  0.1143
 4994SOL     OW19747   5.002   4.545   2.529 -0.7027 -0.5819  0.5290
 4994SOL    HW219748   4.917   4.542   2.484 -0.5537 -0.5095  0.2377
 4994SOL    HW319749   5.065   4.562   2.459 -0.6135  0.9581  0.9480
 4994SOL    MW419750   4.999   4.547   2.514 -0.6712 -0.3692  0.5458
 4995SOL     OW19751   0.724   6.409   0.920 -0.2663  0.7809 -0.9425
 4995SOL    HW219752   0.812   6.444   0.934  0.4527 -0.3988 -2.2027
 4995SOL    HW319753   0.665   6.483   0.933  0.7427  1.2347  1.5938
 4995SOL    MW419754   0.728   6.423   0.924 -0.0383  0.6851 -0.7741
 4996SOL     OW19755   3.454   0.621   2.042 -0.1061  1.1156  0.1208
 4996SOL    HW219756   3.495   0.686   2.099  0.9268  1.4181 -0.9251
 4996SOL    HW319757   3.505   0.541   2.055  1.4782  1.7148 -1.8103
 4996SOL    MW419758   3.466   0.619   2.051  0.2392  1.2346 -0.2720
 4997SOL     OW19759   6.041   4.595   5.693 -0.1800  0.0109  0.6150
 4997SOL    HW219760   6.080   4.519   5.649  0.0201 -0.0763  0.9423
 4997SOL    HW319761   6.105   4.665   5.683 -0.5782  0.2889 -0.1215
 4997SOL    MW419762   6.054   4.594   5.686 -0.2062  0.0361  0.5610
 4998SOL     OW19763   3.521   3.389   1.898  0.3548 -0.1876 -1.2065
 4998SOL    HW219764   3.461   3.319   1.874 -0.0880 -0.3447  0.2873
 4998SOL    HW319765   3.479   3.435   1.971  2.5839 -1.1801  0.8770
 4998SOL    MW419766   3.508   3.386   1.904  0.5905 -0.3392 -0.7345
 4999SOL     OW19767   1.192   2.919   0.949 -0.7948 -0.4232 -0.1664
 4999SOL    HW219768   1.181   3.009   0.979 -1.7946  0.0961 -1.9481
 4999SOL    HW319769   1.163   2.920   0.858 -1.2460 -2.6488 -0.1106
 4999SOL    MW419770   1.187   2.931   0.941 -0.9862 -0.6483 -0.3941
 5000SOL     OW19771   4.516   1.787   2.898  0.0077  0.0161 -0.4632
 5000SOL    HW219772   4.509   1.880   2.876  0.9451 -0.2633 -2.1816
 5000SOL    HW319773   4.522   1.785   2.993 -1.1479  1.6177 -0.3014
 5000SOL    MW419774   4.516   1.799   2.907 -0.0211  0.1906 -0.6685
 5001SOL     OW19775   2.927   0.624   6.369  0.4332 -0.1318 -0.6278
 5001SOL    HW219776   2.847   0.640   6.418  0.5307 -1.3893 -0.0132
 5001SOL    HW319777   2.905   0.649   6.279  0.0414  1.5400 -0.0922
 5001SOL    MW419778   2.913   0.629   6.363  0.3944 -0.0772 -0.4760
 5002SOL     OW19779   4.764   1.084   2.274 -0.0740  0.1534 -0.2658
 5002SOL    HW219780   4.848   1.039   2.264 -1.1271 -1.7461 -1.2534
 5002SOL    HW319781   4.715   1.060   2.195 -1.4574  1.4106  0.1655
 5002SOL    MW419782   4.768   1.075   2.262 -0.3955  0.0686 -0.3392
 5003SOL     OW19783   3.137   5.387   0.443 -0.4051  0.7596  0.0994
 5003SOL    HW219784   3.202   5.330   0.484 -1.2086  0.1135  0.5121
 5003SOL    HW319785   3.168   5.476   0.460 -0.2586  0.4799  1.3337
 5003SOL    MW419786   3.149   5.391   0.450 -0.4918  0.6374  0.3167
 5004SOL     OW19787   4.455   0.021   5.094 -0.4916 -0.1565  0.1809
 5004SOL    HW219788   4.401  -0.004   5.020 -0.1822  2.4173 -1.0201
 5004SOL    HW319789   4.406   0.091   5.138  1.1882  1.3733 -0.2189
 5004SOL    MW419790   4.442   0.027   5.090 -0.2291  0.3849 -0.0303
 5005SOL     OW19791   6.267   6.236   5.955  0.0110 -0.3982  0.3617
 5005SOL    HW219792   6.320   6.306   5.993 -0.0567 -0.8212  1.2687
 5005SOL    HW319793   6.200   6.281   5.904 -0.3090  0.2237  1.3003
 5005SOL    MW419794   6.265   6.251   5.953 -0.0402 -0.3720  0.6052
 5006SOL     OW19795   1.684   5.028   1.776 -0.2994  0.0939  0.0426
 5006SOL    HW219796   1.742   5.101   1.799 -0.8397  0.3104  0.7345
 5006SOL    HW319797   1.689   5.024   1.681 -1.6783  2.2359 -0.1929
 5006SOL    MW419798   1.693   5.037   1.767 -0.5526  0.4051  0.1028
 5007SOL     OW19799   2.837   3.261   5.125 -0.3001 -0.4004 -0.0814
 5007SOL    HW219800   2.811   3.252   5.034 -0.3862 -0.7612 -0.0230
 5007SOL    HW319801   2.773   3.323   5.162  0.4135  0.6251 -0.5291
 5007SOL    MW419802   2.825   3.268   5.118 -0.2173 -0.3127 -0.1327
 5008SOL     OW19803   4.496   3.802   5.139 -0.3485 -0.1472  0.2283
 5008SOL    HW219804   4.472   3.726   5.191 -2.2598  0.1109 -0.2022
 5008SOL    HW319805   4.590   3.812   5.153 -0.7047 -0.2435  3.4047
 5008SOL    MW419806   4.506   3.793   5.148 -0.6477 -0.1259  0.5906
 5009SOL     OW19807   5.477   2.497   0.404 -0.2317 -0.1035 -0.1714
 5009SOL    HW219808   5.388   2.528   0.387  0.0911  0.2552 -1.3010
 5009SOL    HW319809   5.483   2.414   0.359 -0.8336 -1.5355  2.1963
 5009SOL    MW419810   5.466   2.490   0.396 -0.2686 -0.2451 -0.0081
 5010SOL     OW19811   1.278   5.765   6.206  0.6896 -0.3144 -0.0265
 5010SOL    HW219812   1.347   5.830   6.191 -0.3537  0.7280 -0.4522
 5010SOL    HW319813   1.230   5.762   6.123 -0.3562 -0.2948  0.5632
 5010SOL    MW419814   1.281   5.774   6.193  0.4140 -0.1743 -0.0048
 5011SOL     OW19815   4.358   6.197   4.627  0.0262 -0.5817  0.0761
 5011SOL    HW219816   4.357   6.257   4.702  2.6240  0.1344 -0.3521
 5011SOL    HW319817   4.289   6.230   4.569 -0.7022  0.0383  1.2539
 5011SOL    MW419818   4.349   6.209   4.630  0.2729 -0.4054  0.1750
 5012SOL     OW19819   4.544   0.467   1.014 -0.4374  0.0648  0.3012
 5012SOL    HW219820   4.547   0.377   1.044 -0.9918  0.3403  1.2559
 5012SOL    HW319821   4.588   0.467   0.930 -2.1977 -1.4776 -0.6807
 5012SOL    MW419822   4.550   0.455   1.007 -0.7428 -0.1023  0.2976
 5013SOL     OW19823   2.857   0.061   1.194  0.5772 -0.2337  0.2899
 5013SOL    HW219824   2.833   0.063   1.102 -1.2105  0.7941  0.7462
 5013SOL    HW319825   2.812  -0.015   1.229  2.3593 -1.4543  0.0876
 5013SOL    MW419826   2.848   0.051   1.186  0.5765 -0.2591  0.3234
 5014SOL     OW19827   1.204   3.743   0.295  0.2179 -0.0922 -0.1119
 5014SOL    HW219828   1.162   3.691   0.364 -0.2299  0.3343 -0.0576
 5014SOL    HW319829   1.162   3.715   0.214  1.7351 -1.6264 -0.4171
 5014SOL    MW419830   1.193   3.732   0.294  0.3590 -0.2383 -0.1450
 5015SOL     OW19831   3.376   6.012   0.998 -0.5226  0.0489 -0.7096
 5015SOL    HW219832   3.340   6.100   1.011 -0.8694 -0.1051 -0.6340
 5015SOL    HW319833   3.358   5.966   1.080  0.3104  0.1286 -0.4640
 5015SOL    MW419834   3.369   6.018   1.011 -0.4585  0.0391 -0.6672
 5016SOL     OW19835   4.367   4.910   4.234 -0.3316 -0.4388  0.3099
 5016SOL    HW219836   4.412   4.989   4.205  1.7465 -1.8512 -0.5356
 5016SOL    HW319837   4.430   4.865   4.290 -1.5341 -1.4365  0.9356
 5016SOL    MW419838   4.381   4.914   4.238 -0.2161 -0.7568  0.2809
 5017SOL     OW19839   2.395   5.213   3.528  0.6678 -0.0496 -0.2253
 5017SOL    HW219840   2.384   5.305   3.550 -0.5728 -0.4643  0.9662
 5017SOL    HW319841   2.360   5.205   3.439 -1.3166  0.2267  0.4912
 5017SOL    MW419842   2.389   5.224   3.519  0.2423 -0.0679  0.0265
 5018SOL     OW19843   0.487   0.234   2.298  0.7535  0.0707  0.3070
 5018SOL    HW219844   0.534   0.161   2.258  0.2174 -0.9690  1.5251
 5018SOL    HW319845   0.440   0.196   2.371 -0.8680  1.3407 -0.0017
 5018SOL    MW419846   0.487   0.220   2.302  0.4689  0.1011  0.4270
 5019SOL     OW19847   2.111   4.144   5.378 -0.0279  0.0440  0.1700
 5019SOL    HW219848   2.169   4.219   5.387  0.9114 -0.5007 -0.9918
 5019SOL    HW319849   2.105   4.107   5.466 -0.1038  1.1681  0.6511
 5019SOL    MW419850   2.118   4.149   5.391  0.0861  0.1205  0.0802
 5020SOL     OW19851   0.345   2.531   2.811  0.3717 -0.7286  0.1869
 5020SOL    HW219852   0.372   2.503   2.898 -0.1849 -0.0419  0.5992
 5020SOL    HW319853   0.338   2.450   2.760  1.9096 -1.0294  0.4083
 5020SOL    MW419854   0.347   2.517   2.815  0.5012 -0.6777  0.2705
 5021SOL     OW19855   2.718   1.719   2.850  0.0985  0.4675  0.3071
 5021SOL    HW219856   2.759   1.804   2.870 -0.6966  0.5774  1.5668
 5021SOL    HW319857   2.792   1.663   2.826  0.8746  0.9710  1.4038
 5021SOL    MW419858   2.733   1.723   2.849  0.0960  0.5485  0.6180
 5022SOL     OW19859   1.695   4.390   0.039  0.0972  0.4277  0.4569
 5022SOL    HW219860   1.631   4.391   0.109  0.0668  3.2107  0.5074
 5022SOL    HW319861   1.721   4.482   0.029  2.7953 -0.3634 -0.7310
 5022SOL    MW419862   1.690   4.403   0.047  0.4491  0.6905  0.3068
 5023SOL     OW19863   1.531   2.208   2.619  0.5340 -0.3748 -0.0419
 5023SOL    HW219864   1.490   2.122   2.631 -0.9238  0.1947 -0.6474
 5023SOL    HW319865   1.513   2.230   2.528 -1.9562  1.9070  0.8439
 5023SOL    MW419866   1.523   2.199   2.609  0.0131  0.0014 -0.0049
 5024SOL     OW19867   6.408   1.271   1.550  0.4222  0.2944 -0.6181
 5024SOL    HW219868   6.341   1.223   1.598  0.2391  0.2545 -0.9116
 5024SOL    HW319869   6.489   1.223   1.568  0.3208  0.1603 -0.5140
 5024SOL    MW419870   6.410   1.258   1.559  0.3847  0.2715 -0.6431
 5025SOL     OW19871   4.846   6.289   0.604 -0.2938 -0.1020 -0.0026
 5025SOL    HW219872   4.839   6.233   0.681 -0.7715  0.4550  0.3647
 5025SOL    HW319873   4.756   6.296   0.571 -0.1757  0.1075 -0.2843
 5025SOL    MW419874   4.833   6.283   0.610 -0.3412 -0.0009  0.0087
 5026SOL     OW19875   4.363   2.243   0.754  0.1879 -0.5164  0.3952
 5026SOL    HW219876   4.425   2.195   0.808  2.4951  2.1767  0.3539
 5026SOL    HW319877   4.398   2.236   0.665 -1.5190 -1.7561 -0.2451
 5026SOL    MW419878   4.375   2.236   0.749  0.2671 -0.3246  0.3052
 5027SOL     OW19879   0.990   0.020   2.116 -0.6152  0.3134  0.0341
 5027SOL    HW219880   0.961  -0.050   2.173  0.0836 -0.2344 -0.2622
 5027SOL    HW319881   0.969   0.101   2.163 -1.6016 -0.0829  0.2860
 5027SOL    MW419882   0.984   0.022   2.129 -0.6532  0.1888  0.0282
 5028SOL     OW19883   5.652   1.952   6.020  0.2014  0.7167 -0.1293
 5028SOL    HW219884   5.665   2.011   6.095 -1.8300  2.4188 -0.9987
 5028SOL    HW319885   5.714   1.984   5.954  0.0185  1.0512 -0.1419
 5028SOL    MW419886   5.662   1.964   6.021 -0.0908  0.9854 -0.2456
 5029SOL     OW19887   4.251   3.691   1.128  0.1780  0.0097  0.1982
 5029SOL    HW219888   4.331   3.639   1.117  1.5367  1.7978  0.9151
 5029SOL    HW319889   4.238   3.732   1.043  0.4529  0.2652  0.2763
 5029SOL    MW419890   4.260   3.690   1.115  0.3935  0.2793  0.3031
 5030SOL     OW19891   3.580   4.143   3.885 -0.2238  0.1908 -0.3694
 5030SOL    HW219892   3.501   4.126   3.937 -2.0683  0.1880 -2.9686
 5030SOL    HW319893   3.605   4.232   3.908 -1.4761  0.4850 -0.0840
 5030SOL    MW419894   3.573   4.152   3.895 -0.6324  0.2292 -0.6747
 5031SOL     OW19895   5.411   0.600   3.086 -0.5664  0.4534 -0.0812
 5031SOL    HW219896   5.415   0.528   3.022  0.1546  0.3666  0.0594
 5031SOL    HW319897   5.346   0.571   3.150 -1.5232  0.6692 -0.9236
 5031SOL    MW419898   5.403   0.586   3.086 -0.5975  0.4704 -0.1738
 5032SOL     OW19899   5.029   5.106   4.442 -0.3155  0.3959  0.2823
 5032SOL    HW219900   5.016   5.033   4.503 -0.8565  0.2808  0.0332
 5032SOL    HW319901   5.118   5.094   4.410 -0.9344 -1.1343 -1.0068
 5032SOL    MW419902   5.039   5.095   4.446 -0.4686  0.1788  0.0794
 5033SOL     OW19903   3.342   0.816   5.751  0.4738 -0.4065 -0.8101
 5033SOL    HW219904   3.360   0.734   5.796  3.5519 -0.5466 -2.0497
 5033SOL    HW319905   3.273   0.794   5.689 -0.8314 -1.2454  0.8468
 5033SOL    MW419906   3.335   0.802   5.749  0.7077 -0.5357 -0.7550
 5034SOL     OW19907   0.555   1.656   1.541 -0.6186 -0.2839 -0.2350
 5034SOL    HW219908   0.552   1.649   1.637  0.4107  0.0836 -0.1647
 5034SOL    HW319909   0.465   1.643   1.513 -0.7848 -1.3510  0.7262
 5034SOL    MW419910   0.543   1.653   1.550 -0.5048 -0.3762 -0.0989
 5035SOL     OW19911   4.061   3.589   3.684  0.5756  0.0252  0.1640
 5035SOL    HW219912   4.152   3.592   3.653  0.7450  1.5759  0.7615
 5035SOL    HW319913   4.056   3.506   3.733  1.0556 -1.1054 -1.6231
 5035SOL    MW419914   4.072   3.578   3.687  0.6613  0.0807  0.0070
 5036SOL     OW19915   1.044   5.060   6.384 -0.2964  0.4825 -0.7843
 5036SOL    HW219916   1.009   5.091   6.300  0.7496  2.0972 -0.6737
 5036SOL    HW319917   1.138   5.080   6.379  0.1208 -1.1721  0.0229
 5036SOL    MW419918   1.052   5.067   6.372 -0.1033  0.4773 -0.6632
 5037SOL     OW19919   2.459   1.123   5.903  0.2771  0.0495  0.0816
 5037SOL    HW219920   2.434   1.034   5.926  0.8305  0.4818  2.6879
 5037SOL    HW319921   2.555   1.123   5.906  0.2890  1.1774  2.4972
 5037SOL    MW419922   2.469   1.112   5.907  0.3517  0.2553  0.7441
 5038SOL     OW19923   4.895   4.511   0.187 -0.3040  0.1812 -0.4190
 5038SOL    HW219924   4.861   4.447   0.124 -1.1472 -0.2855  0.4878
 5038SOL    HW319925   4.955   4.461   0.241 -1.6780 -0.1121  0.8986
 5038SOL    MW419926   4.898   4.496   0.185 -0.5965  0.0810 -0.1255
 5039SOL     OW19927   4.113   2.177   1.695  0.3102  0.3694 -0.2736
 5039SOL    HW219928   4.060   2.162   1.617  2.2860  1.5944 -1.9631
 5039SOL    HW319929   4.096   2.101   1.751 -2.6686  0.4115 -0.9691
 5039SOL    MW419930   4.104   2.165   1.692  0.1778  0.5366 -0.5883
 5040SOL     OW19931   0.626   2.773   3.304  0.1009  0.7347 -0.1576
 5040SOL    HW219932   0.583   2.761   3.219 -1.9182  0.2133  0.8658
 5040SOL    HW319933   0.716   2.798   3.283 -0.5342  1.2828 -2.4410
 5040SOL    MW419934   0.632   2.775   3.290 -0.2493  0.7382 -0.3239
 5041SOL     OW19935   6.401   1.343   1.270 -0.5236 -0.3859  0.6964
 5041SOL    HW219936   6.388   1.305   1.357  0.0741  0.2715  1.0972
 5041SOL    HW319937   6.493   1.370   1.270 -0.6982  0.2483  0.1153
 5041SOL    MW419938   6.412   1.342   1.281 -0.4678 -0.2155  0.6726
 5042SOL     OW19939   5.618   3.658   4.737 -0.1827  0.1433  0.0499
 5042SOL    HW219940   5.594   3.619   4.653  1.3032  0.3655 -0.5118
 5042SOL    HW319941   5.699   3.614   4.761 -0.5644  0.1282  1.3544
 5042SOL    MW419942   5.625   3.647   4.729 -0.0370  0.1706  0.1479
 5043SOL     OW19943   3.640   1.695   3.960 -0.0292 -0.6072 -0.3699
 5043SOL    HW219944   3.642   1.600   3.975 -0.1194 -0.6508 -0.6144
 5043SOL    HW319945   3.654   1.734   4.046 -1.4920 -0.8413  0.0003
 5043SOL    MW419946   3.642   1.687   3.973 -0.2341 -0.6438 -0.3533
 5044SOL     OW19947   0.310   5.290   3.100  0.0328  0.0553  0.0413
 5044SOL    HW219948   0.229   5.299   3.049 -0.6132  0.2099  1.0585
 5044SOL    HW319949   0.345   5.379   3.104 -0.1765  0.1280  0.2777
 5044SOL    MW419950   0.304   5.303   3.094 -0.0800  0.0853  0.2067
 5045SOL     OW19951   1.263   3.544   1.229 -0.7451  0.1658 -0.1712
 5045SOL    HW219952   1.206   3.523   1.303  0.1583  1.8461  1.0878
 5045SOL    HW319953   1.253   3.639   1.216  2.1011  0.6830  0.5298
 5045SOL    MW419954   1.254   3.554   1.237 -0.2504  0.4557  0.0874
 5046SOL     OW19955   4.298   0.775   2.893  0.3540 -0.2089  0.1321
 5046SOL    HW219956   4.300   0.729   2.977 -1.0587 -3.1365 -1.2591
 5046SOL    HW319957   4.204   0.782   2.872  0.5750  2.4936 -0.2409
 5046SOL    MW419958   4.286   0.770   2.901  0.1967 -0.2386 -0.1007
 5047SOL     OW19959   2.926   6.275   0.174 -0.1663 -0.0425  0.2696
 5047SOL    HW219960   2.953   6.251   0.263 -0.2890 -1.3535 -0.0312
 5047SOL    HW319961   2.925   6.371   0.175  1.1682 -0.0049  1.2772
 5047SOL    MW419962   2.929   6.285   0.186 -0.0064 -0.2105  0.3629
 5048SOL     OW19963   0.706   0.333   1.453  0.0630  0.0807  0.4216
 5048SOL    HW219964   0.735   0.243   1.469  0.3406  0.3173  1.2866
 5048SOL    HW319965   0.672   0.331   1.364 -0.7870 -1.0959  0.7478
 5048SOL    MW419966   0.706   0.321   1.443 -0.0125 -0.0433  0.5788
 5049SOL     OW19967   3.325   3.822   6.260 -0.3356 -0.6072  0.1919
 5049SOL    HW219968   3.363   3.897   6.306 -0.2976  0.7363 -1.8919
 5049SOL    HW319969   3.230   3.830   6.275 -0.3146 -0.2427  0.1303
 5049SOL    MW419970   3.317   3.833   6.268 -0.3278 -0.3818 -0.0911
 5050SOL     OW19971   5.271   6.286   4.474 -0.4381 -0.1300 -0.2194
 5050SOL    HW219972   5.311   6.302   4.389  0.4249 -0.3510  0.1344
 5050SOL    HW319973   5.218   6.207   4.461 -0.8290  0.2041 -0.7077
 5050SOL    MW419974   5.269   6.278   4.461 -0.3758 -0.1151 -0.2372
 5051SOL     OW19975   5.231   1.145   2.695 -0.4747  0.0704 -0.2878
 5051SOL    HW219976   5.297   1.143   2.765  1.3600 -2.1137 -1.9395
 5051SOL    HW319977   5.153   1.106   2.735  0.3610 -0.6325  0.7124
 5051SOL    MW419978   5.229   1.139   2.710 -0.1224 -0.3105 -0.3738
 5052SOL     OW19979   3.267   6.087   0.702 -0.5166 -0.3348  0.3815
 5052SOL    HW219980   3.242   6.039   0.781  0.0809  1.1712  1.5598
 5052SOL    HW319981   3.256   6.024   0.631  0.2826 -2.2162  1.8220
 5052SOL    MW419982   3.262   6.072   0.703 -0.3323 -0.3843  0.7270
 5053SOL     OW19983   2.950   0.397   0.585 -0.5521 -0.3831 -0.0431
 5053SOL    HW219984   2.934   0.391   0.679 -0.6253  1.3075  0.0775
 5053SOL    HW319985   3.033   0.351   0.572 -1.0959 -1.5928  0.6608
 5053SOL    MW419986   2.959   0.390   0.595 -0.6335 -0.3196  0.0657
 5054SOL     OW19987   2.534   1.630   0.777  0.3048  0.0482 -0.0229
 5054SOL    HW219988   2.486   1.693   0.830  0.9457 -0.3305  1.0353
 5054SOL    HW319989   2.598   1.683   0.729 -0.0817  0.3542 -0.2111
 5054SOL    MW419990   2.536   1.646   0.778  0.3384  0.0386  0.0919
 5055SOL     OW19991   2.688   5.461   3.459  0.2869  0.5340  1.0673
 5055SOL    HW219992   2.697   5.552   3.486  2.9222  0.5818  0.3325
 5055SOL    HW319993   2.647   5.465   3.373  1.5753  1.1909  0.4446
 5055SOL    MW419994   2.684   5.474   3.451  0.8046  0.6270  0.8882
 5056SOL     OW19995   3.272   1.065   0.007  0.1941 -0.3729  0.6025
 5056SOL    HW219996   3.243   1.155   0.023  0.2036 -0.0074 -1.1529
 5056SOL    HW319997   3.367   1.072  -0.005 -0.1445  0.0782 -3.0559
 5056SOL    MW419998   3.281   1.078   0.007  0.1506 -0.2651 -0.1118
 5057SOL     OW19999   2.589   2.697   2.428 -0.2503 -0.0216  0.1750
 5057SOL    HW220000   2.664   2.756   2.417 -0.2762  0.2298  1.2634
 5057SOL    HW320001   2.513   2.749   2.403 -0.0903 -0.2352 -0.8038
 5057SOL    MW420002   2.589   2.712   2.423 -0.2326 -0.0166  0.1894
 5058SOL     OW20003   2.058   5.952   0.350  0.1865 -0.2030  0.2379
 5058SOL    HW220004   2.004   6.027   0.375 -2.6760 -2.2080  0.5712
 5058SOL    HW320005   2.051   5.947   0.254  1.5898  0.7270  0.0539
 5058SOL    MW420006   2.050   5.961   0.340 -0.0060 -0.3449  0.2576
 5059SOL     OW20007   5.347   0.320   5.163  0.1699 -0.6796 -0.1502
 5059SOL    HW220008   5.312   0.317   5.074 -0.2886 -0.8715  0.0329
 5059SOL    HW320009   5.434   0.359   5.153 -0.4556  0.6987 -0.5050
 5059SOL    MW420010   5.354   0.325   5.150  0.0268 -0.5230 -0.1729
 5060SOL     OW20011   4.329   5.245   2.929  0.1719 -0.0823 -0.0324
 5060SOL    HW220012   4.364   5.272   3.014  0.6786 -0.3974 -0.1354
 5060SOL    HW320013   4.281   5.322   2.898  0.2585  0.1480  0.3930
 5060SOL    MW420014   4.328   5.259   2.936  0.2502 -0.0935  0.0101
 5061SOL     OW20015   6.243   5.175   3.416 -0.3486 -0.3900  0.3742
 5061SOL    HW220016   6.289   5.231   3.479 -0.5752 -0.3246  0.4801
 5061SOL    HW320017   6.189   5.235   3.365  0.3894 -0.3419 -0.3793
 5061SOL    MW420018   6.242   5.191   3.418 -0.2812 -0.3750  0.2887
 5062SOL     OW20019   5.546   1.135   2.477 -0.1401 -0.2031  0.2844
 5062SOL    HW220020   5.541   1.216   2.528 -0.2720 -0.1361  0.1638
 5062SOL    HW320021   5.567   1.163   2.388  1.8092 -0.4190  0.6284
 5062SOL    MW420022   5.548   1.149   2.472  0.0997 -0.2227  0.3139
 5063SOL     OW20023   5.720   4.090   1.392  0.1104 -0.1567  0.6220
 5063SOL    HW220024   5.806   4.080   1.352  1.2309  0.1176  2.8355
 5063SOL    HW320025   5.722   4.176   1.434 -2.3096  1.1583 -1.5904
 5063SOL    MW420026   5.731   4.100   1.392 -0.0611  0.0530  0.6221
 5064SOL     OW20027   2.983   3.253   2.033  0.3675 -0.1623  0.0816
 5064SOL    HW220028   3.051   3.309   2.069  1.6705 -0.5703 -1.6185
 5064SOL    HW320029   2.952   3.202   2.107  1.3117  0.6382  1.0525
 5064SOL    MW420030   2.987   3.254   2.047  0.6640 -0.1105 -0.0146
 5065SOL     OW20031   4.483   3.114   4.321 -0.5072 -0.0889 -0.2223
 5065SOL    HW220032   4.495   3.198   4.276  1.2817 -1.0214 -1.6537
 5065SOL    HW320033   4.441   3.137   4.403  1.7994  2.5139  0.3981
 5065SOL    MW420034   4.479   3.129   4.326  0.0331  0.1315 -0.3293
 5066SOL     OW20035   0.727   0.959   3.186 -0.5860 -0.2867  0.5291
 5066SOL    HW220036   0.738   0.922   3.274 -1.2274  1.3000  1.3056
 5066SOL    HW320037   0.688   0.888   3.135  0.3546 -1.4299  1.3447
 5066SOL    MW420038   0.723   0.945   3.191 -0.5465 -0.2282  0.7391
 5067SOL     OW20039   1.714   0.974   4.193  0.7500  0.6135 -0.4537
 5067SOL    HW220040   1.747   0.961   4.282  0.3953 -0.3375 -0.4537
 5067SOL    HW320041   1.760   0.909   4.140  1.0211  1.2257 -0.9880
 5067SOL    MW420042   1.724   0.964   4.198  0.7389  0.5688 -0.5242
 5068SOL     OW20043   5.035   1.725   3.737  0.5483  0.4555  0.0932
 5068SOL    HW220044   4.994   1.779   3.804 -1.4930 -2.0666  1.0148
 5068SOL    HW320045   4.964   1.672   3.702  2.1301 -0.4331 -1.9871
 5068SOL    MW420046   5.021   1.725   3.741  0.4877  0.0055 -0.0597
 5069SOL     OW20047   4.616   4.196   5.928 -0.1926 -0.2335  0.9190
 5069SOL    HW220048   4.549   4.262   5.947  0.2273  0.6043 -0.4244
 5069SOL    HW320049   4.671   4.195   6.007  0.1266  1.4456  0.7398
 5069SOL    MW420050   4.614   4.204   5.941 -0.0951  0.0986  0.7181
 5070SOL     OW20051   4.905   5.602   4.131  0.4185  0.0686  0.1687
 5070SOL    HW220052   4.990   5.645   4.124 -0.2242  1.3616  0.0030
 5070SOL    HW320053   4.916   5.538   4.200  1.7453 -0.3207 -0.3705
 5070SOL    MW420054   4.918   5.599   4.139  0.5088  0.1879  0.0757
 5071SOL     OW20055   4.057   0.544   1.775  0.4592 -0.0085  0.0937
 5071SOL    HW220056   4.024   0.634   1.778  2.8000  0.9390 -0.6156
 5071SOL    HW320057   4.020   0.508   1.695 -0.4845  0.2990  0.3741
 5071SOL    MW420058   4.048   0.551   1.765  0.6436  0.1571  0.0371
 5072SOL     OW20059   1.825   3.328   0.752 -0.3223  0.1900 -0.0339
 5072SOL    HW220060   1.764   3.389   0.711 -0.8945  0.5471  1.3092
 5072SOL    HW320061   1.911   3.355   0.719 -0.5394  1.8688  0.6851
 5072SOL    MW420062   1.828   3.340   0.742 -0.4264  0.4586  0.2382
 5073SOL     OW20063   0.646   0.570   3.696  0.2603  0.7184  0.2186
 5073SOL    HW220064   0.713   0.576   3.764  1.1391  2.2215 -0.7321
 5073SOL    HW320065   0.594   0.650   3.707  1.2876  1.7183 -1.7160
 5073SOL    MW420066   0.648   0.582   3.707  0.5118  1.0486 -0.1621
 5074SOL     OW20067   2.029   0.456   3.070  0.3269 -0.1427 -0.3507
 5074SOL    HW220068   1.991   0.389   3.013 -0.4011 -0.2795  0.2887
 5074SOL    HW320069   2.010   0.425   3.159 -0.0256  0.9195 -0.0506
 5074SOL    MW420070   2.022   0.443   3.074  0.1843 -0.0206 -0.2267
 5075SOL     OW20071   4.304   3.292   3.658 -0.1070 -0.4027 -0.4830
 5075SOL    HW220072   4.383   3.241   3.639 -0.3563 -0.7908 -0.4826
 5075SOL    HW320073   4.238   3.227   3.680 -0.1059 -0.0294  0.7268
 5075SOL    MW420074   4.306   3.277   3.658 -0.1398 -0.4046 -0.3233
 5076SOL     OW20075   4.722   2.538   1.179 -0.0607 -0.3854  0.5954
 5076SOL    HW220076   4.767   2.485   1.244  0.8252 -0.7721 -0.2981
 5076SOL    HW320077   4.725   2.627   1.214  0.5108 -0.5717  1.0261
 5076SOL    MW420078   4.728   2.543   1.192  0.1316 -0.4610  0.5343
 5077SOL     OW20079   5.527   2.622   1.651 -0.3004  0.0154 -0.1589
 5077SOL    HW220080   5.618   2.595   1.668 -0.4108 -0.6946 -0.6468
 5077SOL    HW320081   5.504   2.677   1.725  0.8494  0.9962 -0.5063
 5077SOL    MW420082   5.536   2.625   1.663 -0.1633  0.0511 -0.2691
 5078SOL     OW20083   3.680   4.057   1.278  0.0028  0.7824 -0.0405
 5078SOL    HW220084   3.656   4.102   1.358 -0.9316  1.4598 -0.6819
 5078SOL    HW320085   3.665   3.965   1.296 -0.4026  0.9519  0.4845
 5078SOL    MW420086   3.675   4.051   1.291 -0.1740  0.8941 -0.0559
 5079SOL     OW20087   5.745   4.408   0.011 -0.4410  0.0541 -0.4023
 5079SOL    HW220088   5.814   4.367  -0.042  0.0451  1.5953 -1.0392
 5079SOL    HW320089   5.703   4.469  -0.050 -2.7852 -1.2284 -0.1947
 5079SOL    MW420090   5.749   4.411  -0.004 -0.6862  0.0882 -0.4590
 5080SOL     OW20091   3.227   6.283   0.510  0.4529 -0.0741 -0.3397
 5080SOL    HW220092   3.249   6.241   0.594 -1.2938 -0.6438 -0.1143
 5080SOL    HW320093   3.298   6.259   0.451 -0.0417 -2.7086  0.0231
 5080SOL    MW420094   3.239   6.274   0.514  0.1572 -0.4969 -0.2621
 5081SOL     OW20095   5.083   2.189   5.172  0.2758  0.3691 -0.0795
 5081SOL    HW220096   5.069   2.187   5.078  1.2226 -1.0434 -0.2250
 5081SOL    HW320097   5.158   2.248   5.184  0.8839 -0.3400 -0.3350
 5081SOL    MW420098   5.091   2.197   5.161  0.4809  0.0892 -0.1324
 5082SOL     OW20099   5.727   3.845   1.982  0.1917  0.3054 -0.0668
 5082SOL    HW220100   5.710   3.779   2.049  1.7589 -0.0476  0.0021
 5082SOL    HW320101   5.710   3.799   1.899  0.3702  0.0980  0.0113
 5082SOL    MW420102   5.722   3.830   1.980  0.4220  0.2315 -0.0474
 5083SOL     OW20103   0.769   3.909   5.902 -0.0396  0.0677  0.0539
 5083SOL    HW220104   0.815   3.831   5.872  1.7209  0.9743  0.2186
 5083SOL    HW320105   0.805   3.980   5.849 -1.0837  0.8709  0.3799
 5083SOL    MW420106   0.780   3.908   5.891  0.0549  0.2933  0.1187
 5084SOL     OW20107   3.301   3.447   5.181 -0.6215 -0.0135 -0.3292
 5084SOL    HW220108   3.363   3.516   5.206 -2.0165  0.7702  1.1769
 5084SOL    HW320109   3.339   3.367   5.215 -0.6018  0.5229  0.9866
 5084SOL    MW420110   3.314   3.446   5.189 -0.8030  0.1607  0.0431
 5085SOL     OW20111   5.277   4.228   2.640 -0.1304  0.0973 -0.0100
 5085SOL    HW220112   5.278   4.135   2.662 -1.1789 -0.5280 -2.3333
 5085SOL    HW320113   5.235   4.232   2.555  1.9569  2.4942 -1.0484
 5085SOL    MW420114   5.271   4.216   2.632  0.0067  0.3311 -0.4535
 5086SOL     OW20115   3.921   2.062   0.994 -0.7057 -0.2506  0.2972
 5086SOL    HW220116   3.998   2.032   1.043 -0.9744 -1.4799 -0.0041
 5086SOL    HW320117   3.955   2.094   0.911 -0.3385  1.0405  0.9084
 5086SOL    MW420118   3.935   2.063   0.990 -0.6927 -0.2425  0.3381
 5087SOL     OW20119   2.416   2.497   1.066  0.0259  0.7465  0.8284
 5087SOL    HW220120   2.393   2.507   1.158 -0.2011 -0.7711  0.9547
 5087SOL    HW320121   2.504   2.460   1.067 -0.1413  0.3279  0.4477
 5087SOL    MW420122   2.425   2.493   1.078 -0.0261  0.4910  0.7949
 5088SOL     OW20123   3.880   2.578   4.175  0.1130  0.5594  0.0819
 5088SOL    HW220124   3.870   2.565   4.081  0.1081  1.4038 -0.0399
 5088SOL    HW320125   3.915   2.667   4.184  1.6784 -0.1029  0.8054
 5088SOL    MW420126   3.883   2.588   4.164  0.3189  0.5834  0.1613
 5089SOL     OW20127   1.195   0.741   6.339  0.1893 -0.0918  0.1418
 5089SOL    HW220128   1.106   0.774   6.353 -0.0733 -1.1818  1.1610
 5089SOL    HW320129   1.248   0.788   6.403  0.4483  0.9109 -0.7901
 5089SOL    MW420130   1.190   0.752   6.349  0.1889 -0.1033  0.1533
 5090SOL     OW20131   4.059   1.268   6.347  0.1990 -0.1633  0.2263
 5090SOL    HW220132   4.153   1.285   6.350  0.7960 -2.7422 -1.2713
 5090SOL    HW320133   4.032   1.297   6.259 -0.8116  2.0331  1.1784
 5090SOL    MW420134   4.068   1.274   6.335  0.1444 -0.2138  0.1543
 5091SOL     OW20135   1.518   2.812   4.803 -0.0483 -0.6297 -0.4022
 5091SOL    HW220136   1.548   2.888   4.852  1.3222 -1.9145  0.8618
 5091SOL    HW320137   1.506   2.844   4.714  2.1761  0.7025 -0.3075
 5091SOL    MW420138   1.520   2.826   4.798  0.4260 -0.6235 -0.2230
 5092SOL     OW20139   3.972   6.012   5.993  0.6281 -0.0244  0.3078
 5092SOL    HW220140   4.028   6.029   5.918  1.5377  0.8137  1.1386
 5092SOL    HW320141   3.934   6.098   6.014 -0.4983 -0.4669  0.1288
 5092SOL    MW420142   3.974   6.026   5.986  0.5995  0.0278  0.3938
 5093SOL     OW20143   5.353   3.825   6.026 -0.5934  0.4636  0.4732
 5093SOL    HW220144   5.398   3.757   6.076 -0.9746 -1.1897 -1.3113
 5093SOL    HW320145   5.276   3.781   5.989 -0.4638  1.6577 -1.3227
 5093SOL    MW420146   5.349   3.810   6.028 -0.6266  0.4030  0.0008
 5094SOL     OW20147   5.077   2.608   5.154  0.0601  0.0559  0.7899
 5094SOL    HW220148   5.039   2.690   5.185 -0.3175 -0.3627  1.4718
 5094SOL    HW320149   5.054   2.544   5.222 -0.3253 -0.7814 -0.1027
 5094SOL    MW420150   5.069   2.610   5.167 -0.0405 -0.1098  0.7621
 5095SOL     OW20151   6.204   0.153   0.402  0.3995 -0.3909 -0.8629
 5095SOL    HW220152   6.208   0.162   0.307 -1.6730  2.4381 -0.8288
 5095SOL    HW320153   6.226   0.241   0.434 -0.0068 -0.9998  1.2013
 5095SOL    MW420154   6.207   0.166   0.394  0.0725 -0.0980 -0.5860
 5096SOL     OW20155   3.425   2.819   4.087  0.0346 -0.2581  0.9260
 5096SOL    HW220156   3.373   2.785   4.015  3.4014 -0.5444 -1.5904
 5096SOL    HW320157   3.432   2.746   4.148 -2.1859 -0.2633  1.2711
 5096SOL    MW420158   3.419   2.805   4.086  0.1858 -0.2966  0.6395
 5097SOL     OW20159   1.994   3.191   5.227  0.0828 -0.9313 -0.1131
 5097SOL    HW220160   1.945   3.258   5.275 -0.7267 -1.2437 -0.4836
 5097SOL    HW320161   2.017   3.126   5.293  2.5849  0.6308  0.6395
 5097SOL    MW420162   1.990   3.191   5.242  0.3061 -0.7664 -0.0627
 5098SOL     OW20163   2.622   5.536   3.207  0.1942 -0.1607  0.4840
 5098SOL    HW220164   2.546   5.593   3.199  0.1266 -0.0852  1.4500
 5098SOL    HW320165   2.603   5.462   3.150 -0.6589 -0.1860  0.7920
 5098SOL    MW420166   2.609   5.533   3.199  0.0727 -0.1541  0.6521
 5099SOL     OW20167   5.712   0.628   3.847 -0.0618  0.1733 -0.4281
 5099SOL    HW220168   5.654   0.704   3.856  1.1554  1.2673 -1.3463
 5099SOL    HW320169   5.654   0.554   3.831 -1.2892  0.8851  0.6167
 5099SOL    MW420170   5.697   0.629   3.846 -0.0632  0.4115 -0.4114
 5100SOL     OW20171   0.830   1.355   0.821  0.4497  0.1927 -0.1967
 5100SOL    HW220172   0.840   1.450   0.833 -0.0190  0.3544 -0.9937
 5100SOL    HW320173   0.754   1.331   0.874  0.7699  0.2017  0.2698
 5100SOL    MW420174   0.821   1.365   0.829  0.4301  0.2152 -0.2403
 5101SOL     OW20175   2.657   2.660   0.510 -0.3655  0.0775 -0.2852
 5101SOL    HW220176   2.709   2.722   0.561 -1.1271  1.0844 -0.6973
 5101SOL    HW320177   2.567   2.672   0.542 -0.6186 -0.3547 -0.8171
 5101SOL    MW420178   2.652   2.670   0.521 -0.4994  0.1534 -0.4098
 5102SOL     OW20179   1.468   2.943   4.158 -0.1874 -0.1288  0.3583
 5102SOL    HW220180   1.392   2.888   4.137  0.5460 -1.1794  0.3641
 5102SOL    HW320181   1.450   3.027   4.115 -2.6342  0.6521  2.6031
 5102SOL    MW420182   1.456   2.947   4.150 -0.4134 -0.1644  0.6552
 5103SOL     OW20183   0.583   3.049   3.789  0.0561 -0.0820  0.4757
 5103SOL    HW220184   0.511   3.062   3.727 -0.5592 -3.2364  0.3802
 5103SOL    HW320185   0.540   3.045   3.875  0.2120 -1.0092  0.5198
 5103SOL    MW420186   0.568   3.050   3.792 -0.0045 -0.6205  0.4690
 5104SOL     OW20187   6.289   1.692   3.403  0.2962 -0.2024  0.2578
 5104SOL    HW220188   6.309   1.608   3.442  2.8249 -0.6697 -1.7820
 5104SOL    HW320189   6.274   1.751   3.477  2.1628 -1.6222  1.8224
 5104SOL    MW420190   6.289   1.689   3.418  0.8761 -0.4514  0.1951
 5105SOL     OW20191   1.782   0.531   6.184 -0.0064 -0.7829  0.1863
 5105SOL    HW220192   1.750   0.453   6.137 -1.2036 -0.7272  0.8700
 5105SOL    HW320193   1.703   0.581   6.203  0.5621 -0.3162  1.3875
 5105SOL    MW420194   1.768   0.527   6.180 -0.0893 -0.7139  0.4350
 5106SOL     OW20195   4.197   5.761   4.876 -0.2901 -0.3960 -0.5693
 5106SOL    HW220196   4.235   5.848   4.884 -0.8181 -0.1563 -0.5985
 5106SOL    HW320197   4.128   5.771   4.810  0.3750 -1.0874 -1.3855
 5106SOL    MW420198   4.193   5.774   4.868 -0.2720 -0.4556 -0.6809
 5107SOL     OW20199   0.915   0.750   2.910  0.0764  0.2410  0.3141
 5107SOL    HW220200   0.902   0.660   2.938  2.1156 -0.3904 -0.5640
 5107SOL    HW320201   0.835   0.772   2.863 -1.0672 -0.5690  1.7920
 5107SOL    MW420202   0.902   0.741   2.907  0.1946  0.0508  0.3932
 5108SOL     OW20203   4.564   3.633   1.339  1.1701  0.3419 -0.3481
 5108SOL    HW220204   4.577   3.627   1.244  1.1155 -1.2658 -0.2680
 5108SOL    HW320205   4.512   3.713   1.350 -0.6602 -0.5718 -1.8646
 5108SOL    MW420206   4.559   3.643   1.328  0.9214  0.0092 -0.5376
 5109SOL     OW20207   2.985   5.897   4.760 -0.0906  0.1612 -0.0977
 5109SOL    HW220208   2.935   5.877   4.682 -0.3768 -0.3197  0.2075
 5109SOL    HW320209   3.071   5.857   4.745 -0.2203 -0.1248 -0.0656
 5109SOL    MW420210   2.990   5.889   4.748 -0.1454  0.0600 -0.0532
 5110SOL     OW20211   4.047   4.705   1.118 -0.1641  0.9347  0.9183
 5110SOL    HW220212   4.025   4.628   1.066  1.7476  1.2012 -0.3821
 5110SOL    HW320213   4.017   4.779   1.066  0.2949  1.1432  0.9414
 5110SOL    MW420214   4.040   4.705   1.105  0.1487  0.9974  0.7498
 5111SOL     OW20215   2.416   3.176   3.965  0.9530  0.0882 -0.4543
 5111SOL    HW220216   2.405   3.117   3.891  1.4967 -0.8059  0.1603
 5111SOL    HW320217   2.367   3.135   4.036  2.1747 -0.1850  0.2666
 5111SOL    MW420218   2.408   3.163   3.965  1.1859 -0.0658 -0.2781
 5112SOL     OW20219   5.633   4.411   2.151  0.4025  0.5427  0.0637
 5112SOL    HW220220   5.598   4.359   2.224 -2.7447  2.9312  0.4522
 5112SOL    HW320221   5.586   4.378   2.074  2.0261 -0.4138 -0.5577
 5112SOL    MW420222   5.622   4.399   2.150  0.2015  0.7317  0.0329
 5113SOL     OW20223   3.125   2.525   2.816 -0.2319 -0.0778  0.1279
 5113SOL    HW220224   3.136   2.527   2.721  0.4333  0.2571  0.2005
 5113SOL    HW320225   3.133   2.433   2.839 -1.9267 -0.3605 -0.2902
 5113SOL    MW420226   3.128   2.513   2.806 -0.3677 -0.0709  0.0823
 5114SOL     OW20227   3.931   0.613   4.860  0.4938  0.3901  0.4382
 5114SOL    HW220228   4.020   0.605   4.827 -0.0027  0.0222 -0.8882
 5114SOL    HW320229   3.887   0.671   4.797 -0.1202  0.8404  1.2543
 5114SOL    MW420230   3.937   0.620   4.848  0.3473  0.4010  0.3708
 5115SOL     OW20231   5.381   5.342   0.170  0.8174 -0.8380 -0.4612
 5115SOL    HW220232   5.390   5.247   0.177 -0.4641 -0.9155  0.3757
 5115SOL    HW320233   5.372   5.359   0.076 -0.9228 -1.7528 -0.4855
 5115SOL    MW420234   5.381   5.332   0.158  0.4188 -0.9689 -0.3540
 5116SOL     OW20235   2.490   5.862   0.410  0.1699 -0.0843  0.5888
 5116SOL    HW220236   2.557   5.861   0.342  0.7911 -0.7524  1.1891
 5116SOL    HW320237   2.468   5.770   0.424  0.2564  0.0181  1.4739
 5116SOL    MW420238   2.496   5.850   0.403  0.2633 -0.1589  0.7848
 5117SOL     OW20239   5.279   3.163   4.306  0.3008 -0.1858  0.1306
 5117SOL    HW220240   5.316   3.235   4.357 -0.8101 -1.7031  3.3449
 5117SOL    HW320241   5.196   3.197   4.273  0.5763  0.5224  0.1516
 5117SOL    MW420242   5.273   3.177   4.309  0.1906 -0.2926  0.5574
 5118SOL     OW20243   5.798   5.194   1.928  0.4239  0.2014  0.3391
 5118SOL    HW220244   5.780   5.167   2.018 -2.6811  1.9376  0.3848
 5118SOL    HW320245   5.770   5.120   1.875 -2.0002  0.7317  0.7234
 5118SOL    MW420246   5.792   5.181   1.933 -0.3056  0.5004  0.3958
 5119SOL     OW20247   6.189   4.515   1.958  0.1895 -0.0405  0.1876
 5119SOL    HW220248   6.173   4.514   2.053  0.1386 -0.3798  0.1763
 5119SOL    HW320249   6.204   4.423   1.935 -0.3909 -0.0338 -0.2346
 5119SOL    MW420250   6.189   4.503   1.968  0.1062 -0.0844  0.1304
 5120SOL     OW20251   5.787   0.454   4.267 -0.1976  0.2427 -0.0436
 5120SOL    HW220252   5.769   0.548   4.267  1.8939  0.7026  0.7721
 5120SOL    HW320253   5.712   0.415   4.311 -1.4205  1.4363 -1.0049
 5120SOL    MW420254   5.775   0.461   4.273 -0.0830  0.4608 -0.0628
 5121SOL     OW20255   1.955   4.806   4.511  0.2924  0.1840  0.5647
 5121SOL    HW220256   1.892   4.878   4.508  0.8481  0.8706  2.9211
 5121SOL    HW320257   1.956   4.770   4.422 -2.1770  1.1894  0.0602
 5121SOL    MW420258   1.947   4.811   4.499  0.0399  0.4072  0.8091
 5122SOL     OW20259   3.049   4.654   1.342 -0.1770  0.5869  0.9522
 5122SOL    HW220260   3.108   4.725   1.315  0.5437  0.2319  1.5895
 5122SOL    HW320261   2.978   4.657   1.277  0.6893  0.8144 -0.0023
 5122SOL    MW420262   3.047   4.664   1.330  0.0324  0.5700  0.9104
 5123SOL     OW20263   3.566   3.082   1.469 -0.1323  0.1507  0.5529
 5123SOL    HW220264   3.601   3.164   1.502  1.6007 -0.2378 -0.1808
 5123SOL    HW320265   3.570   3.022   1.544  0.7530  0.1421  0.5133
 5123SOL    MW420266   3.571   3.085   1.483  0.2131  0.0983  0.4509
 5124SOL     OW20267   1.100   3.996   0.337  0.2833  0.2925  0.3188
 5124SOL    HW220268   1.015   3.980   0.378 -0.7167 -1.5151 -2.2127
 5124SOL    HW320269   1.130   3.908   0.311  1.7410  1.1522 -1.0496
 5124SOL    MW420270   1.093   3.982   0.339  0.3437  0.1675 -0.1958
 5125SOL     OW20271   6.240   3.307   3.753 -0.5599 -0.0221  0.0086
 5125SOL    HW220272   6.212   3.231   3.804  0.8151 -0.3439  0.3202
 5125SOL    HW320273   6.333   3.318   3.775 -0.4840  1.1431 -0.7964
 5125SOL    MW420274   6.249   3.299   3.763 -0.3685  0.0892 -0.0565
 5126SOL     OW20275   3.225   5.677   1.304 -0.0651 -0.3870 -0.1161
 5126SOL    HW220276   3.133   5.691   1.329  0.4815 -0.6090  2.2754
 5126SOL    HW320277   3.257   5.764   1.281 -0.5894 -0.1301  0.1126
 5126SOL    MW420278   3.217   5.690   1.304 -0.0621 -0.3824  0.2296
 5127SOL     OW20279   0.769   1.911   2.649  0.6206 -0.7642 -0.2826
 5127SOL    HW220280   0.812   1.863   2.578  1.7557  0.0831 -0.1931
 5127SOL    HW320281   0.837   1.922   2.715  0.0380 -0.0713  0.2164
 5127SOL    MW420282   0.784   1.906   2.648  0.6935 -0.5610 -0.2050
 5128SOL     OW20283   0.515   2.292   5.122 -0.4792 -0.3450  0.3317
 5128SOL    HW220284   0.545   2.295   5.213 -0.2463  0.8918  0.2336
 5128SOL    HW320285   0.457   2.216   5.118  1.3728 -1.8596  0.9171
 5128SOL    MW420286   0.511   2.282   5.133 -0.2041 -0.3816  0.3960
 5129SOL     OW20287   3.286   0.109   2.438 -0.1592  0.7975 -0.0128
 5129SOL    HW220288   3.328   0.194   2.442 -0.4851  0.9292  0.9178
 5129SOL    HW320289   3.193   0.128   2.426 -0.1678  0.5605 -0.3338
 5129SOL    MW420290   3.279   0.123   2.437 -0.2033  0.7836  0.0676
 5130SOL     OW20291   5.811   5.897   4.944 -0.0045 -0.2381  0.1359
 5130SOL    HW220292   5.777   5.957   5.011  1.0454  0.3793  0.1349
 5130SOL    HW320293   5.787   5.810   4.976 -0.4400  0.1071  0.7787
 5130SOL    MW420294   5.804   5.894   4.957  0.0765 -0.1111  0.2206
 5131SOL     OW20295   2.976   2.146   2.606 -0.0080 -0.1958 -0.8551
 5131SOL    HW220296   2.981   2.098   2.524  0.6637 -0.5146 -0.6360
 5131SOL    HW320297   3.064   2.182   2.619  0.4071 -1.5821  0.5512
 5131SOL    MW420298   2.988   2.144   2.597  0.1354 -0.4207 -0.6406
 5132SOL     OW20299   4.747   5.634   4.405  0.4649 -0.2951  0.6811
 5132SOL    HW220300   4.791   5.709   4.365 -0.6245  1.3337  2.4144
 5132SOL    HW320301   4.800   5.559   4.378  0.1947  0.6825 -3.2358
 5132SOL    MW420302   4.760   5.634   4.396  0.2855  0.0488  0.3930
 5133SOL     OW20303   1.889   5.833   3.284  0.7878 -0.1786  0.0858
 5133SOL    HW220304   1.862   5.904   3.227 -0.2617  0.1815  0.9917
 5133SOL    HW320305   1.846   5.755   3.249  0.5673 -0.0546  0.0818
 5133SOL    MW420306   1.880   5.832   3.272  0.6202 -0.1147  0.2048
 5134SOL     OW20307   5.956   2.232   2.049 -0.5982  0.0258  0.5825
 5134SOL    HW220308   5.959   2.285   2.129 -1.3765 -0.2441  0.7969
 5134SOL    HW320309   5.976   2.143   2.078  0.0581  0.0831  0.3226
 5134SOL    MW420310   5.959   2.227   2.064 -0.6143 -0.0023  0.5765
 5135SOL     OW20311   1.316   6.249   6.278 -0.3098  0.6474  0.0116
 5135SOL    HW220312   1.263   6.237   6.357  2.2134 -1.6742  1.5203
 5135SOL    HW320313   1.401   6.280   6.311  0.4607  0.6968 -1.9243
 5135SOL    MW420314   1.320   6.252   6.293  0.1247  0.3476 -0.0448
 5136SOL     OW20315   1.088   1.855   4.472  0.3376  0.7719 -0.0810
 5136SOL    HW220316   1.150   1.847   4.399  0.2987  0.6231 -0.0981
 5136SOL    HW320317   1.126   1.802   4.542  1.1131  2.0594  0.5147
 5136SOL    MW420318   1.101   1.847   4.472  0.4348  0.9221 -0.0047
 5137SOL     OW20319   4.287   3.056   4.054  0.3841 -0.2447  0.2385
 5137SOL    HW220320   4.298   3.151   4.063 -0.3316 -0.1743  0.4762
 5137SOL    HW320321   4.225   3.046   3.982  0.7791 -0.5544 -0.0640
 5137SOL    MW420322   4.280   3.067   4.046  0.3418 -0.2763  0.2299
 5138SOL     OW20323   3.629   4.967   1.481  0.0445 -0.4716 -0.1177
 5138SOL    HW220324   3.694   4.907   1.518  0.5440 -0.7231 -1.3721
 5138SOL    HW320325   3.555   4.910   1.457  0.2635 -0.4992 -0.7299
 5138SOL    MW420326   3.628   4.951   1.483  0.1393 -0.5084 -0.3640
 5139SOL     OW20327   3.342   6.288   2.317 -0.0255  0.2956 -0.1295
 5139SOL    HW220328   3.341   6.378   2.350 -1.9363 -0.2201  1.4118
 5139SOL    HW320329   3.432   6.258   2.331  0.1372  1.3275  1.2210
 5139SOL    MW420330   3.353   6.296   2.323 -0.2562  0.3637  0.2520
 5140SOL     OW20331   1.076   3.566   0.457 -0.1992 -0.0631  0.0240
 5140SOL    HW220332   0.994   3.612   0.473  0.3193  0.8416  0.1168
 5140SOL    HW320333   1.121   3.565   0.541 -0.1417 -0.6304 -0.0067
 5140SOL    MW420334   1.071   3.572   0.470 -0.1232 -0.0186  0.0322
 5141SOL     OW20335   0.298   1.003   3.453  0.2699 -0.0758 -0.6656
 5141SOL    HW220336   0.373   1.042   3.408 -0.3606 -0.4267 -2.0974
 5141SOL    HW320337   0.267   0.936   3.392 -0.1898 -1.0819  0.6459
 5141SOL    MW420338   0.304   1.000   3.439  0.1260 -0.2549 -0.6815
 5142SOL     OW20339   5.562   2.996   4.522  0.4307 -0.3543  0.1045
 5142SOL    HW220340   5.503   2.944   4.468  0.5818  1.8839 -2.4390
 5142SOL    HW320341   5.506   3.035   4.588  0.1963 -2.9893  1.5744
 5142SOL    MW420342   5.547   2.995   4.523  0.4197 -0.4067 -0.0372
 5143SOL     OW20343   5.882   2.693   6.088 -0.1128  0.2211  0.3003
 5143SOL    HW220344   5.832   2.637   6.028  1.2854 -0.3383 -0.3929
 5143SOL    HW320345   5.906   2.769   6.035  0.3609  0.1505  0.4115
 5143SOL    MW420346   5.878   2.695   6.073  0.1342  0.1380  0.2235
 5144SOL     OW20347   1.436   2.282   0.255  0.0502  0.1559 -0.8405
 5144SOL    HW220348   1.444   2.325   0.340  0.7796 -1.6497  0.0673
 5144SOL    HW320349   1.346   2.299   0.228  0.0101  1.3298 -0.0470
 5144SOL    MW420350   1.425   2.290   0.263  0.1412  0.0726 -0.6161
 5145SOL     OW20351   2.125   5.397   2.704 -0.0896 -0.3023 -0.1672
 5145SOL    HW220352   2.041   5.440   2.724 -0.1793 -0.6588  0.2358
 5145SOL    HW320353   2.110   5.305   2.727  0.9869 -0.0612  1.6863
 5145SOL    MW420354   2.112   5.391   2.710  0.0406 -0.3175  0.1305
 5146SOL     OW20355   2.631   1.414   0.007  0.3093  0.4615  0.2265
 5146SOL    HW220356   2.717   1.412  -0.036  0.7316 -0.5411  1.0827
 5146SOL    HW320357   2.651   1.429   0.100 -0.4445  0.3040  0.4177
 5146SOL    MW420358   2.645   1.416   0.014  0.2655  0.3084  0.3647
 5147SOL     OW20359   4.646   5.733   4.057 -0.2427 -0.6029  0.1469
 5147SOL    HW220360   4.589   5.809   4.068  0.9858  0.4553 -0.5034
 5147SOL    HW320361   4.710   5.741   4.128  0.0567 -0.8730 -0.0875
 5147SOL    MW420362   4.647   5.744   4.068 -0.0411 -0.4989  0.0301
 5148SOL     OW20363   0.598   5.599   2.065  0.1740  0.3032 -0.3448
 5148SOL    HW220364   0.522   5.579   2.010 -0.5189  0.8868  0.3595
 5148SOL    HW320365   0.662   5.531   2.045 -0.5111 -0.1559 -1.0119
 5148SOL    MW420366   0.596   5.587   2.055 -0.0078  0.3196 -0.3399
 5149SOL     OW20367   4.986   4.225   5.587  0.2164 -0.2025 -0.2399
 5149SOL    HW220368   4.951   4.261   5.505  0.1089  2.3737  0.8435
 5149SOL    HW320369   4.912   4.180   5.627  0.1611 -1.1304 -1.3396
 5149SOL    MW420370   4.971   4.224   5.581  0.1949  0.0150 -0.2421
 5150SOL     OW20371   4.459   0.576   4.556  0.2065  0.5395 -0.3673
 5150SOL    HW220372   4.483   0.483   4.563  0.6344  0.5931 -1.0250
 5150SOL    HW320373   4.375   0.582   4.601  0.8666  0.1156  0.9895
 5150SOL    MW420374   4.451   0.564   4.563  0.3501  0.4906 -0.2750
 5151SOL     OW20375   0.997   2.958   1.411 -0.5454  0.3560 -0.2419
 5151SOL    HW220376   1.007   3.040   1.361 -0.1550 -0.4257 -1.4898
 5151SOL    HW320377   1.061   2.898   1.372  0.3546 -0.0660  1.7467
 5151SOL    MW420378   1.007   2.961   1.399 -0.3751  0.1972 -0.1442
 5152SOL     OW20379   4.906   4.384   4.205  0.3813 -0.0405 -0.0488
 5152SOL    HW220380   4.933   4.303   4.250  1.4177  0.1195 -0.3571
 5152SOL    HW320381   4.913   4.363   4.112 -0.9516 -0.1047 -0.1479
 5152SOL    MW420382   4.910   4.370   4.199  0.3422 -0.0279 -0.1025
 5153SOL     OW20383   2.461   0.111   1.182  0.0886 -0.0383 -0.1081
 5153SOL    HW220384   2.369   0.119   1.155  0.1610  2.2200  0.0729
 5153SOL    HW320385   2.492   0.032   1.139 -2.0616 -1.1345  0.2270
 5153SOL    MW420386   2.453   0.102   1.173 -0.1855  0.1150 -0.0400
 5154SOL     OW20387   2.517   4.422   1.641  0.0167  0.5987 -0.4752
 5154SOL    HW220388   2.477   4.347   1.597  2.4959 -1.6129  0.7464
 5154SOL    HW320389   2.470   4.429   1.724 -0.3540  0.5317 -0.6776
 5154SOL    MW420390   2.505   4.413   1.646  0.2949  0.2981 -0.3408
 5155SOL     OW20391   4.148   6.370   1.977 -0.1910 -0.2726 -0.3101
 5155SOL    HW220392   4.148   6.378   1.881 -0.7290 -0.7362 -0.3602
 5155SOL    HW320393   4.219   6.308   1.996 -1.7026 -2.2301 -0.6431
 5155SOL    MW420394   4.157   6.363   1.967 -0.4614 -0.5921 -0.3606
 5156SOL     OW20395   0.263   1.633   1.462 -0.0249 -0.4473 -0.1352
 5156SOL    HW220396   0.191   1.609   1.520  0.7260 -2.2956  0.1078
 5156SOL    HW320397   0.260   1.567   1.392 -0.6451  1.4691 -2.0248
 5156SOL    MW420398   0.253   1.621   1.460 -0.0077 -0.4383 -0.3524
 5157SOL     OW20399   1.808   2.812   4.009 -0.5886 -0.1597  0.7229
 5157SOL    HW220400   1.785   2.905   4.008  1.5845  0.4575 -1.3371
 5157SOL    HW320401   1.902   2.811   4.030 -0.4931 -1.8447  0.3039
 5157SOL    MW420402   1.818   2.824   4.011 -0.2892 -0.3006  0.3959
 5158SOL     OW20403   6.433   3.224   4.560 -0.0105  0.0177 -0.1382
 5158SOL    HW220404   6.386   3.155   4.608 -1.4741 -0.2286 -1.8140
 5158SOL    HW320405   6.366   3.290   4.542  1.1172  1.3542  0.4172
 5158SOL    MW420406   6.418   3.223   4.564 -0.0548  0.1615 -0.2860
 5159SOL     OW20407   1.587   1.830   0.222  0.5662  0.0834  0.3977
 5159SOL    HW220408   1.607   1.772   0.295  2.3442 -0.2822 -0.3253
 5159SOL    HW320409   1.669   1.875   0.203 -0.4595  1.9364  0.1287
 5159SOL    MW420410   1.601   1.828   0.229  0.6655  0.2796  0.2669
 5160SOL     OW20411   0.037   6.406   0.502  0.0533  0.1198  0.1584
 5160SOL    HW220412  -0.010   6.476   0.456  1.0059 -0.7820 -2.3342
 5160SOL    HW320413   0.125   6.408   0.465  0.3916 -1.7283  0.7774
 5160SOL    MW420414   0.043   6.416   0.491  0.2236 -0.2430 -0.0888
 5161SOL     OW20415   2.963   3.538   6.396  0.1272  0.1546 -0.2220
 5161SOL    HW220416   3.056   3.529   6.417  1.1667  1.6778 -3.5624
 5161SOL    HW320417   2.953   3.502   6.308 -1.9406  2.0916 -0.8936
 5161SOL    MW420418   2.974   3.532   6.387 -0.0085  0.6112 -0.7514
 5162SOL     OW20419   4.111   3.254   5.081  0.2950 -0.0845 -0.7334
 5162SOL    HW220420   4.041   3.311   5.049 -0.4915 -0.4931  0.1892
 5162SOL    HW320421   4.105   3.175   5.028 -1.4886 -1.0678  0.8056
 5162SOL    MW420422   4.101   3.251   5.070 -0.0441 -0.2682 -0.4086
 5163SOL     OW20423   0.055   4.072   3.876 -0.2365  0.4457  0.1262
 5163SOL    HW220424   0.151   4.069   3.868 -0.3465  0.4700 -1.4525
 5163SOL    HW320425   0.029   4.149   3.827 -1.0421  0.7916  1.0634
 5163SOL    MW420426   0.065   4.081   3.869 -0.3573  0.4945  0.0416
 5164SOL     OW20427   1.454   2.356   2.123  0.5174  0.4727 -0.1610
 5164SOL    HW220428   1.437   2.304   2.044  0.4242  0.1821  0.0477
 5164SOL    HW320429   1.448   2.447   2.094 -1.2645  0.4016 -0.1419
 5164SOL    MW420430   1.451   2.361   2.109  0.2700  0.4250 -0.1310
 5165SOL     OW20431   3.871   5.513   4.525 -0.0371 -0.6903 -0.0554
 5165SOL    HW220432   3.818   5.434   4.519  1.4079 -1.6142 -1.0330
 5165SOL    HW320433   3.926   5.499   4.602  0.0819 -0.5364 -0.1124
 5165SOL    MW420434   3.871   5.501   4.534  0.1692 -0.7919 -0.1919
 5166SOL     OW20435   5.799   2.961   1.179  0.2523  0.1501  0.3234
 5166SOL    HW220436   5.795   2.933   1.087 -0.2500 -0.2395  0.4632
 5166SOL    HW320437   5.773   2.885   1.229  1.2709  0.1213  0.8461
 5166SOL    MW420438   5.795   2.948   1.173  0.3204  0.0949  0.4108
 5167SOL     OW20439   4.847   1.351   4.420 -0.6121  0.5069 -0.0459
 5167SOL    HW220440   4.858   1.266   4.377 -1.4919 -0.1057  0.8874
 5167SOL    HW320441   4.856   1.332   4.514  2.3523  1.9814  0.0769
 5167SOL    MW420442   4.849   1.337   4.427 -0.3371  0.6206  0.0934
 5168SOL     OW20443   1.502   4.299   2.426  0.5355  0.3708 -0.0320
 5168SOL    HW220444   1.588   4.259   2.437  1.1533  1.4657 -0.6625
 5168SOL    HW320445   1.500   4.370   2.490 -0.7688 -0.9346  1.4731
 5168SOL    MW420446   1.513   4.303   2.436  0.4449  0.3430  0.0834
 5169SOL     OW20447   3.515   0.822   3.787 -0.3910  0.0153  0.0313
 5169SOL    HW220448   3.496   0.892   3.724  2.0489  0.2318 -0.5972
 5169SOL    HW320449   3.586   0.772   3.746  0.6389 -0.4165  2.1696
 5169SOL    MW420450   3.522   0.825   3.773  0.0668 -0.0131  0.2305
 5170SOL     OW20451   4.261   0.622   3.133  0.3659  0.3202 -0.0319
 5170SOL    HW220452   4.206   0.544   3.121 -0.2285  0.5893  0.9137
 5170SOL    HW320453   4.351   0.589   3.126  0.1204 -0.1141 -1.6467
 5170SOL    MW420454   4.265   0.607   3.130  0.2551  0.2984 -0.1202
 5171SOL     OW20455   1.493   3.178   5.819 -0.7793  0.3032 -0.1064
 5171SOL    HW220456   1.463   3.212   5.903 -0.0943 -1.2776  0.8032
 5171SOL    HW320457   1.483   3.083   5.825  2.9280 -0.2503 -0.2496
 5171SOL    MW420458   1.488   3.170   5.831 -0.1998  0.0216 -0.0053
 5172SOL     OW20459   2.490   4.185   6.395  0.8310  0.2439  0.0717
 5172SOL    HW220460   2.434   4.107   6.399  0.1608  0.7281  0.3435
 5172SOL    HW320461   2.565   4.158   6.343 -0.2873 -0.0226 -1.4612
 5172SOL    MW420462   2.492   4.171   6.389  0.5950  0.2727 -0.0947
 5173SOL     OW20463   1.566   0.431   4.634  0.4215  0.7592 -0.2343
 5173SOL    HW220464   1.603   0.475   4.711 -0.7766  3.5587 -1.1432
 5173SOL    HW320465   1.612   0.470   4.560 -0.5757  0.3491 -1.0963
 5173SOL    MW420466   1.577   0.442   4.634  0.1319  1.0745 -0.4680
 5174SOL     OW20467   3.481   1.611   0.260 -0.0479 -0.2042 -0.1582
 5174SOL    HW220468   3.432   1.530   0.276 -1.0689  0.2142 -0.9771
 5174SOL    HW320469   3.519   1.633   0.344  1.5157 -2.3123 -0.2289
 5174SOL    MW420470   3.479   1.603   0.273  0.0237 -0.4271 -0.2756
 5175SOL     OW20471   3.249   1.008   1.431 -0.1684  0.0277  0.6931
 5175SOL    HW220472   3.286   1.064   1.499  0.5909 -2.3833  2.4495
 5175SOL    HW320473   3.316   0.940   1.417 -0.4192  0.2451 -2.3237
 5175SOL    MW420474   3.263   1.006   1.438 -0.1013 -0.2617  0.5268
 5176SOL     OW20475   1.690   0.724   0.983 -0.2827 -0.5194  0.5922
 5176SOL    HW220476   1.691   0.631   1.005  2.2807 -0.7391 -0.1250
 5176SOL    HW320477   1.673   0.727   0.889 -0.5234 -0.2459  0.6417
 5176SOL    MW420478   1.688   0.712   0.973  0.0237 -0.5123  0.5041
 5177SOL     OW20479   3.122   4.160   4.773 -0.2042 -0.6377 -0.0863
 5177SOL    HW220480   3.082   4.241   4.804 -0.9789 -0.5149 -1.3607
 5177SOL    HW320481   3.193   4.144   4.835 -0.3516  0.7384  0.4794
 5177SOL    MW420482   3.126   4.169   4.785 -0.3259 -0.4399 -0.1798
 5178SOL     OW20483   1.974   2.747   4.444 -0.2075 -0.1665  0.0216
 5178SOL    HW220484   1.935   2.683   4.504 -0.1855  0.2139  0.4442
 5178SOL    HW320485   1.997   2.696   4.366  1.1795 -0.9803  0.9310
 5178SOL    MW420486   1.972   2.732   4.441 -0.0216 -0.2237  0.1974
 5179SOL     OW20487   1.839   2.602   4.667 -0.3276 -0.1306 -0.1420
 5179SOL    HW220488   1.833   2.533   4.733  0.8267  0.4868  0.6483
 5179SOL    HW320489   1.749   2.618   4.640 -0.6373 -1.8180 -0.2224
 5179SOL    MW420490   1.826   2.595   4.672 -0.2162 -0.2718 -0.0483
 5180SOL     OW20491   3.343   2.085   3.313 -0.2587 -0.6959  0.2951
 5180SOL    HW220492   3.313   2.145   3.245  2.5589 -1.1598 -1.5763
 5180SOL    HW320493   3.393   2.139   3.373 -1.2540 -0.5612  1.0163
 5180SOL    MW420494   3.346   2.100   3.312 -0.0183 -0.7393  0.1434
 5181SOL     OW20495   1.978   4.587   0.538  0.0826  0.9740  0.5948
 5181SOL    HW220496   1.991   4.682   0.533  0.9015  0.8884  0.9399
 5181SOL    HW320497   2.062   4.550   0.513 -0.8311  0.2714 -1.7458
 5181SOL    MW420498   1.991   4.595   0.534  0.0701  0.8700  0.3315
 5182SOL     OW20499   4.319   1.664   0.927 -0.3442  0.0516 -0.0230
 5182SOL    HW220500   4.249   1.729   0.921  0.5943  1.1416  0.5067
 5182SOL    HW320501   4.398   1.710   0.896  0.2879 -0.9151  0.1027
 5182SOL    MW420502   4.320   1.678   0.922 -0.1370  0.0679  0.0634
 5183SOL     OW20503   5.291   1.920   4.663 -0.6585 -0.1202 -0.3017
 5183SOL    HW220504   5.366   1.961   4.706 -1.1501  0.8246 -0.3421
 5183SOL    HW320505   5.215   1.958   4.706 -1.1631  0.6401 -1.8177
 5183SOL    MW420506   5.291   1.930   4.675 -0.7900  0.1048 -0.5071
 5184SOL     OW20507   4.871   0.564   0.906  0.3566  0.4160 -0.1536
 5184SOL    HW220508   4.845   0.653   0.930  1.3042  0.5555  0.4351
 5184SOL    HW320509   4.799   0.531   0.852  0.8145  2.1991 -1.9655
 5184SOL    MW420510   4.858   0.571   0.902  0.5421  0.6696 -0.3150
 5185SOL     OW20511   1.546   2.072   0.735 -0.1929  0.0126 -0.4087
 5185SOL    HW220512   1.618   2.031   0.784  0.0894  1.3741  0.3672
 5185SOL    HW320513   1.506   2.000   0.688 -0.7368 -1.4851  2.1418
 5185SOL    MW420514   1.550   2.057   0.736 -0.2274 -0.0054  0.0302
 5186SOL     OW20515   3.254   4.008   3.662  0.0043 -0.4963  0.3163
 5186SOL    HW220516   3.266   4.100   3.687 -1.3784 -0.2553  0.1683
 5186SOL    HW320517   3.338   3.983   3.623  0.5072  0.6062  0.6313
 5186SOL    MW420518   3.267   4.017   3.660 -0.1117 -0.3190  0.3383
 5187SOL     OW20519   6.019   5.407   2.643  0.0388 -0.3012 -0.1241
 5187SOL    HW220520   6.014   5.311   2.634  1.0932 -0.3761 -0.0589
 5187SOL    HW320521   5.970   5.440   2.568 -1.4519 -0.8722  0.5498
 5187SOL    MW420522   6.012   5.399   2.632 -0.0188 -0.3864 -0.0266
 5188SOL     OW20523   2.315   4.819   6.312  0.3664 -0.4353  0.6087
 5188SOL    HW220524   2.304   4.915   6.310  0.9704 -0.3725 -0.3035
 5188SOL    HW320525   2.226   4.785   6.305  0.2777  0.0749 -1.4538
 5188SOL    MW420526   2.302   4.827   6.311  0.4344 -0.3597  0.2162
 5189SOL     OW20527   2.856   4.442   1.135  0.2700 -0.4373 -0.0057
 5189SOL    HW220528   2.864   4.537   1.133  1.4959 -0.5139  0.6247
 5189SOL    HW320529   2.767   4.426   1.167 -0.6288  0.4752 -1.9329
 5189SOL    MW420530   2.845   4.452   1.139  0.3131 -0.3270 -0.1768
 5190SOL     OW20531   3.581   3.028   5.954 -0.1503  0.4252  0.4134
 5190SOL    HW220532   3.525   3.076   5.893  0.3268 -0.1930 -0.5266
 5190SOL    HW320533   3.525   3.012   6.030 -0.4768  2.0055  0.5443
 5190SOL    MW420534   3.567   3.032   5.956 -0.1304  0.5522  0.3066
 5191SOL     OW20535   0.661   1.438   4.927 -0.1515  0.0920  0.2537
 5191SOL    HW220536   0.599   1.492   4.878  0.7921 -0.6711 -1.8912
 5191SOL    HW320537   0.690   1.494   4.998 -2.4370  0.8472  0.6734
 5191SOL    MW420538   0.657   1.452   4.930 -0.3285  0.0910  0.0261
 5192SOL     OW20539   2.232   3.597   5.511 -0.1925 -0.7734  0.0580
 5192SOL    HW220540   2.239   3.680   5.463 -3.3201 -0.3396  0.1435
 5192SOL    HW320541   2.316   3.589   5.556  0.8563  1.4756 -1.3054
 5192SOL    MW420542   2.244   3.607   5.511 -0.4668 -0.4195 -0.1106
 5193SOL     OW20543   1.879   5.746   0.124 -0.5997 -0.0045  0.0632
 5193SOL    HW220544   1.811   5.689   0.090 -1.9523  1.0360  0.9258
 5193SOL    HW320545   1.837   5.832   0.131  0.5772  0.5082  1.2988
 5193SOL    MW420546   1.865   5.750   0.121 -0.6229  0.2004  0.3401
 5194SOL     OW20547   3.566   3.015   5.070 -0.2418  0.5398 -0.4808
 5194SOL    HW220548   3.560   3.010   4.974  1.2378 -3.7011 -0.5475
 5194SOL    HW320549   3.638   3.075   5.087  0.5283  0.1225 -2.1119
 5194SOL    MW420550   3.574   3.022   5.060  0.0550 -0.0748 -0.7048
 5195SOL     OW20551   4.029   5.621   2.751 -0.1903  0.3292  0.7222
 5195SOL    HW220552   4.079   5.681   2.806  0.8667  0.4163 -0.2802
 5195SOL    HW320553   3.986   5.678   2.687 -2.2485  0.3268  2.0288
 5195SOL    MW420554   4.030   5.636   2.750 -0.3224  0.3404  0.7623
 5196SOL     OW20555   2.081   1.135   4.845  0.1485  0.4239 -0.1342
 5196SOL    HW220556   1.992   1.102   4.839  0.2657  0.0849 -0.0450
 5196SOL    HW320557   2.091   1.194   4.769 -0.1722  0.5240 -0.0972
 5196SOL    MW420558   2.071   1.139   4.834  0.1217  0.3924 -0.1176
 5197SOL     OW20559   4.988   2.322   5.578 -0.2099 -0.3215 -0.1877
 5197SOL    HW220560   5.066   2.334   5.632  0.5924  0.8432 -1.5518
 5197SOL    HW320561   4.976   2.228   5.574  2.6705 -0.7381 -2.0134
 5197SOL    MW420562   4.997   2.312   5.585  0.2760 -0.2228 -0.6086
 5198SOL     OW20563   3.652   2.586   0.101  0.1316  0.1639  0.0498
 5198SOL    HW220564   3.715   2.631   0.045 -0.0369 -0.5827 -0.7675
 5198SOL    HW320565   3.574   2.641   0.098 -0.1202 -0.2298 -1.0545
 5198SOL    MW420566   3.650   2.599   0.093  0.0761  0.0134 -0.2037
 5199SOL     OW20567   3.725   5.271   0.303  0.0835 -0.2894 -0.4677
 5199SOL    HW220568   3.653   5.230   0.255 -2.0013  0.7910  1.5705
 5199SOL    HW320569   3.706   5.253   0.395  2.5823 -0.1323  0.1544
 5199SOL    MW420570   3.713   5.263   0.309  0.1381 -0.1261 -0.1167
 5200SOL     OW20571   3.988   2.239   0.317 -0.3260  0.2294 -0.1146
 5200SOL    HW220572   4.038   2.186   0.255  0.7615  1.3065 -0.2007
 5200SOL    HW320573   3.980   2.184   0.395  1.5678  0.2390  0.1251
 5200SOL    MW420574   3.994   2.225   0.319  0.0673  0.3728 -0.0944
 5201SOL     OW20575   0.812   3.306   2.530  0.2485  0.5753 -0.5893
 5201SOL    HW220576   0.843   3.363   2.460 -0.0166  0.3791 -0.8675
 5201SOL    HW320577   0.860   3.335   2.608 -0.3948  1.6459 -0.5759
 5201SOL    MW420578   0.823   3.318   2.531  0.1287  0.6907 -0.6242
 5202SOL     OW20579   0.371   2.130   0.628  0.6468  0.2764  0.3046
 5202SOL    HW220580   0.437   2.090   0.570  1.2686  0.7675  0.6668
 5202SOL    HW320581   0.344   2.058   0.685 -1.6962 -0.8765 -2.0314
 5202SOL    MW420582   0.376   2.115   0.628  0.4197  0.1891  0.0442
 5203SOL     OW20583   4.248   4.612   2.164 -0.1180  0.2483 -0.3062
 5203SOL    HW220584   4.245   4.570   2.250  0.7240  1.5860  0.4215
 5203SOL    HW320585   4.340   4.632   2.151 -0.3676  0.9455 -1.0644
 5203SOL    MW420586   4.260   4.609   2.174 -0.0398  0.5167 -0.3102
 5204SOL     OW20587   0.526   5.595   4.972 -0.4369  0.9173 -0.0501
 5204SOL    HW220588   0.507   5.642   4.891 -1.1353 -1.2314 -1.2092
 5204SOL    HW320589   0.617   5.566   4.962  0.2744  2.5947  1.0262
 5204SOL    MW420590   0.536   5.598   4.960 -0.4352  0.8551 -0.0610
 5205SOL     OW20591   0.803   4.741   3.986  0.5002 -0.2772  0.2014
 5205SOL    HW220592   0.805   4.831   3.955  0.5402 -0.2433  0.3003
 5205SOL    HW320593   0.889   4.729   4.028  0.2058 -0.1157  0.8643
 5205SOL    MW420594   0.815   4.751   3.988  0.4667 -0.2515  0.3019
 5206SOL     OW20595   5.840   6.109   6.141 -0.2463 -0.1000 -0.2801
 5206SOL    HW220596   5.768   6.046   6.146  1.2447 -1.8024  0.8293
 5206SOL    HW320597   5.851   6.141   6.230 -0.6512  1.4383 -0.7328
 5206SOL    MW420598   5.832   6.105   6.153 -0.1030 -0.1217 -0.1935
 5207SOL     OW20599   6.224   0.177   3.154  0.3814  0.9685 -0.7016
 5207SOL    HW220600   6.185   0.090   3.143 -0.2825  1.4022 -2.0223
 5207SOL    HW320601   6.154   0.238   3.131  1.7571  1.7753 -3.1144
 5207SOL    MW420602   6.210   0.173   3.149  0.4753  1.1322 -1.1942
 5208SOL     OW20603   4.996   1.039   2.826  0.6526 -0.2032  0.1419
 5208SOL    HW220604   4.932   1.026   2.757  1.4338 -1.4878 -0.3737
 5208SOL    HW320605   5.020   0.951   2.854  2.5047  0.2132  0.0054
 5208SOL    MW420606   4.991   1.026   2.821  1.0000 -0.3178  0.0559
 5209SOL     OW20607   3.549   3.923   6.012  0.3528 -0.4363 -0.3209
 5209SOL    HW220608   3.557   3.830   5.991  0.9271 -0.1218 -1.5679
 5209SOL    HW320609   3.618   3.965   5.961  0.8720  0.5631  1.1169
 5209SOL    MW420610   3.559   3.916   6.003  0.4971 -0.2630 -0.2957
 5210SOL     OW20611   4.245   2.461   3.598  0.2184 -0.0932 -0.1815
 5210SOL    HW220612   4.230   2.553   3.578  0.5669 -0.0328 -0.1702
 5210SOL    HW320613   4.334   2.458   3.632  0.4459 -0.5271 -0.8056
 5210SOL    MW420614   4.254   2.473   3.600  0.2944 -0.1425 -0.2623
 5211SOL     OW20615   0.396   2.675   0.087  0.2760 -0.3276 -0.0698
 5211SOL    HW220616   0.373   2.616   0.159 -2.6537  0.5465 -0.1728
 5211SOL    HW320617   0.353   2.639   0.010  1.8828 -0.2545 -1.0562
 5211SOL    MW420618   0.387   2.663   0.087  0.1015 -0.2026 -0.2135
 5212SOL     OW20619   1.465   0.062   1.447 -0.9069  0.0690  0.4571
 5212SOL    HW220620   1.411   0.088   1.522 -0.6746 -0.4352  0.7989
 5212SOL    HW320621   1.412   0.086   1.371 -2.0258 -1.2228  0.7887
 5212SOL    MW420622   1.451   0.069   1.447 -1.0239 -0.1679  0.5460
 5213SOL     OW20623   2.774   2.159   5.284  0.6993  0.2917  0.2010
 5213SOL    HW220624   2.840   2.228   5.287  0.5982  0.3928  0.1128
 5213SOL    HW320625   2.724   2.177   5.204 -0.5209  1.2165  1.1392
 5213SOL    MW420626   2.776   2.170   5.273  0.5250  0.4270  0.3131
 5214SOL     OW20627   3.816   0.500   0.731 -0.3115 -0.0969 -0.1255
 5214SOL    HW220628   3.802   0.595   0.725  0.4417  0.0981  1.0249
 5214SOL    HW320629   3.890   0.483   0.672 -0.6028 -0.0196 -0.5217
 5214SOL    MW420630   3.824   0.510   0.722 -0.2505 -0.0610 -0.0260
 5215SOL     OW20631   4.713   5.881   5.966 -0.1548  0.0834  0.2078
 5215SOL    HW220632   4.681   5.855   5.879 -2.0123  0.4949  0.7169
 5215SOL    HW320633   4.717   5.977   5.961 -0.7351  0.1379  0.7165
 5215SOL    MW420634   4.709   5.891   5.954 -0.4765  0.1449  0.3421
 5216SOL     OW20635   5.284   0.680   5.505  0.1000  0.4962 -0.7229
 5216SOL    HW220636   5.342   0.704   5.433 -0.8064 -0.0180 -1.6667
 5216SOL    HW320637   5.223   0.753   5.512  0.1452  0.5149 -0.5161
 5216SOL    MW420638   5.284   0.693   5.496 -0.0136  0.4308 -0.8201
 5217SOL     OW20639   0.630   5.680   4.260  0.3816  0.0270 -0.0627
 5217SOL    HW220640   0.668   5.632   4.334 -1.3852 -0.1198  0.8126
 5217SOL    HW320641   0.686   5.658   4.186 -0.0731 -3.1123  0.3820
 5217SOL    MW420642   0.642   5.671   4.260  0.0885 -0.4066  0.1115
 5218SOL     OW20643   0.456   2.575   1.987 -0.1865 -0.0232 -0.3682
 5218SOL    HW220644   0.457   2.654   2.041  0.1483  0.3961 -0.9749
 5218SOL    HW320645   0.380   2.586   1.930  0.6143  0.5149 -1.3767
 5218SOL    MW420646   0.446   2.587   1.987 -0.0367  0.1031 -0.5813
 5219SOL     OW20647   5.792   5.464   1.095 -0.0470  0.0541 -0.3064
 5219SOL    HW220648   5.772   5.371   1.091 -1.4058  0.3654 -1.1306
 5219SOL    HW320649   5.876   5.468   1.142  0.4660 -1.6319 -0.9887
 5219SOL    MW420650   5.801   5.453   1.101 -0.1586 -0.1272 -0.5052
 5220SOL     OW20651   0.519   1.758   5.380  0.0567  0.4657 -0.0233
 5220SOL    HW220652   0.590   1.722   5.328 -0.2778 -0.4896  0.1554
 5220SOL    HW320653   0.441   1.713   5.348 -0.4982  1.5977 -0.3110
 5220SOL    MW420654   0.518   1.747   5.369 -0.0606  0.4890 -0.0377
 5221SOL     OW20655   5.149   0.580   4.614 -0.1538  0.2287  0.2659
 5221SOL    HW220656   5.181   0.668   4.630 -0.4043  0.2566  0.6266
 5221SOL    HW320657   5.056   0.584   4.637  0.0003 -0.3181  1.0099
 5221SOL    MW420658   5.141   0.592   4.619 -0.1665  0.1602  0.4117
 5222SOL     OW20659   2.950   5.334   4.064  0.3493 -0.5173 -0.5980
 5222SOL    HW220660   3.002   5.359   3.988 -1.8369  2.8512 -1.2266
 5222SOL    HW320661   2.935   5.417   4.110  0.0772 -2.1738  2.5648
 5222SOL    MW420662   2.955   5.348   4.060  0.0250 -0.2914 -0.2637
 5223SOL     OW20663   4.137   1.184   3.152  0.1880  0.3621  0.0716
 5223SOL    HW220664   4.161   1.145   3.068  0.7631  0.1071  0.3488
 5223SOL    HW320665   4.089   1.263   3.129 -1.7841 -0.9338 -0.5225
 5223SOL    MW420666   4.134   1.189   3.138  0.0037  0.1575  0.0298
 5224SOL     OW20667   3.052   4.305   3.712  0.4913 -0.2828 -0.7058
 5224SOL    HW220668   3.068   4.392   3.676  0.6895 -0.4230 -0.9556
 5224SOL    HW320669   2.987   4.320   3.781 -1.4630 -0.2680 -2.4420
 5224SOL    MW420670   3.045   4.319   3.717  0.2596 -0.2993 -0.9678
 5225SOL     OW20671   2.618   5.502   2.455  0.3643 -0.4580  0.3082
 5225SOL    HW220672   2.643   5.517   2.363 -0.9525  1.4769  0.2118
 5225SOL    HW320673   2.685   5.548   2.505 -0.2183  0.5363  0.2063
 5225SOL    MW420674   2.630   5.510   2.449  0.1137 -0.0715  0.2820
 5226SOL     OW20675   5.350   5.730   5.701 -0.5323  0.1993  0.0736
 5226SOL    HW220676   5.298   5.717   5.621 -2.0698  0.7492  0.9315
 5226SOL    HW320677   5.438   5.747   5.670 -1.0732  0.2970 -1.5075
 5226SOL    MW420678   5.355   5.730   5.687 -0.8065  0.2848 -0.0218
 5227SOL     OW20679   4.440   1.492   1.092 -0.3415  0.6509 -0.1752
 5227SOL    HW220680   4.409   1.554   1.026 -0.1110 -0.6099 -1.5046
 5227SOL    HW320681   4.535   1.504   1.093 -0.1623 -0.4728 -1.3067
 5227SOL    MW420682   4.448   1.502   1.083 -0.2875  0.3363 -0.4999
 5228SOL     OW20683   3.424   3.941   4.048 -0.3225 -0.0712  0.2882
 5228SOL    HW220684   3.345   3.989   4.072 -2.0382 -2.5462 -0.0234
 5228SOL    HW320685   3.447   3.891   4.126  0.5100  0.0652  0.1413
 5228SOL    MW420686   3.417   3.940   4.061 -0.4390 -0.3797  0.2277
 5229SOL     OW20687   3.497   2.204   3.843 -0.2926  0.5172  0.4360
 5229SOL    HW220688   3.481   2.290   3.805  2.0367  0.2624 -1.2968
 5229SOL    HW320689   3.448   2.205   3.925 -1.1112  3.1151 -0.0007
 5229SOL    MW420690   3.488   2.216   3.849 -0.0933  0.8263  0.1498
 5230SOL     OW20691   1.989   1.323   2.898 -0.4130  0.0223  0.6974
 5230SOL    HW220692   2.050   1.256   2.929 -0.2344 -0.4355 -0.5618
 5230SOL    HW320693   1.930   1.337   2.971  0.2749 -0.6511  1.4044
 5230SOL    MW420694   1.989   1.316   2.912 -0.2987 -0.1270  0.6246
 5231SOL     OW20695   5.701   5.711   0.273  0.0436  0.0990  0.2800
 5231SOL    HW220696   5.665   5.778   0.216  0.1826  0.7298  0.9229
 5231SOL    HW320697   5.654   5.631   0.249  0.1825  0.3207 -0.7850
 5231SOL    MW420698   5.690   5.709   0.262  0.0802  0.2115  0.2243
 5232SOL     OW20699   4.937   2.272   5.919 -0.2439  0.0222  0.3312
 5232SOL    HW220700   5.016   2.320   5.892 -0.1183 -0.7230 -0.7357
 5232SOL    HW320701   4.869   2.339   5.926  0.0933  0.4682 -0.4371
 5232SOL    MW420702   4.939   2.287   5.916 -0.1829 -0.0172  0.0891
 5233SOL     OW20703   3.295   2.598   4.333 -0.1764  0.4321 -0.5864
 5233SOL    HW220704   3.254   2.682   4.354  1.0377  0.5919  1.4065
 5233SOL    HW320705   3.326   2.566   4.417  1.6272 -0.8215 -1.6787
 5233SOL    MW420706   3.294   2.605   4.347  0.2218  0.2878 -0.4675
 5234SOL     OW20707   1.640   4.244   0.960 -0.2821  0.2563 -0.1662
 5234SOL    HW220708   1.671   4.334   0.973 -1.1467  0.5462 -0.0700
 5234SOL    HW320709   1.603   4.219   1.044 -1.9532  0.5776 -0.7729
 5234SOL    MW420710   1.640   4.253   0.973 -0.6167  0.3370 -0.2336
 5235SOL     OW20711   2.446   0.928   4.869 -0.2197 -0.1021  0.2344
 5235SOL    HW220712   2.449   0.932   4.774 -1.0958 -0.5417  0.1764
 5235SOL    HW320713   2.529   0.889   4.895 -0.0460 -0.1316 -0.3611
 5235SOL    MW420714   2.457   0.923   4.860 -0.3124 -0.1640  0.1482
 5236SOL     OW20715   4.281   6.424   0.056  0.3634 -0.5306 -0.1929
 5236SOL    HW220716   4.319   6.510   0.069 -1.8157  0.6891 -1.3515
 5236SOL    HW320717   4.325   6.390  -0.022 -0.1570  0.4413 -0.9381
 5236SOL    MW420718   4.292   6.431   0.047  0.0072 -0.2414 -0.4441
 5237SOL     OW20719   4.521   5.265   6.112  0.8366 -0.2014  0.8468
 5237SOL    HW220720   4.453   5.302   6.167 -0.0710 -0.9722  0.2807
 5237SOL    HW320721   4.581   5.337   6.095 -0.3239  0.7334  0.6257
 5237SOL    MW420722   4.520   5.279   6.117  0.5638 -0.1798  0.7430
 5238SOL     OW20723   3.345   4.484   4.408 -0.0198  0.0967 -0.1516
 5238SOL    HW220724   3.355   4.465   4.501 -3.0543 -0.7639  0.0989
 5238SOL    HW320725   3.399   4.419   4.364  0.0022 -0.6683  0.9655
 5238SOL    MW420726   3.353   4.473   4.414 -0.4173 -0.1178  0.0288
 5239SOL     OW20727   4.844   3.764   5.843 -0.2281 -0.4700 -0.2644
 5239SOL    HW220728   4.853   3.671   5.864 -1.1534 -0.2826  1.0500
 5239SOL    HW320729   4.803   3.803   5.920  0.1992  1.0536 -0.7671
 5239SOL    MW420730   4.840   3.757   5.856 -0.2938 -0.2442 -0.1573
 5240SOL     OW20731   4.348   5.581   3.787 -0.3027  0.4048 -0.1581
 5240SOL    HW220732   4.327   5.596   3.879  0.6380 -0.5117  0.2374
 5240SOL    HW320733   4.364   5.486   3.782  0.4034  0.5603 -1.1005
 5240SOL    MW420734   4.347   5.570   3.799 -0.0854  0.3044 -0.2303
 5241SOL     OW20735   0.890   5.246   3.452  0.3411  0.2142 -0.0095
 5241SOL    HW220736   0.846   5.201   3.524 -0.2797 -0.6037 -0.8606
 5241SOL    HW320737   0.983   5.231   3.466  0.1724 -0.8382  0.0686
 5241SOL    MW420738   0.896   5.238   3.463  0.2369 -0.0326 -0.1115
 5242SOL     OW20739   1.409   4.215   3.185  0.4440 -0.3454  0.3997
 5242SOL    HW220740   1.450   4.266   3.114  0.2523  0.0165  0.5451
 5242SOL    HW320741   1.474   4.149   3.207  1.6128  1.1367  1.6558
 5242SOL    MW420742   1.423   4.213   3.178  0.5729 -0.1021  0.5846
 5243SOL     OW20743   0.868   5.733   0.397 -0.1422 -0.3306 -0.0690
 5243SOL    HW220744   0.885   5.640   0.409  2.2410 -0.0236 -0.5680
 5243SOL    HW320745   0.953   5.775   0.410 -1.5173  2.0436  2.1986
 5243SOL    MW420746   0.881   5.726   0.400 -0.0092  0.0232  0.1643
 5244SOL     OW20747   5.757   1.342   0.679 -0.0684 -0.0853  0.0330
 5244SOL    HW220748   5.764   1.297   0.594 -0.2070  1.0677 -0.6164
 5244SOL    HW320749   5.708   1.422   0.659 -1.2526 -0.4181  1.4757
 5244SOL    MW420750   5.752   1.347   0.665 -0.2429  0.0230  0.1377
 5245SOL     OW20751   0.941   4.361   0.350  0.0760 -0.0142 -0.3821
 5245SOL    HW220752   0.964   4.452   0.333 -2.8735  0.6214 -1.5620
 5245SOL    HW320753   0.973   4.345   0.439  1.1814  1.9683 -0.3560
 5245SOL    MW420754   0.948   4.371   0.359 -0.1673  0.3312 -0.5343
 5246SOL     OW20755   6.070   2.753   0.938 -0.5676  1.0254 -0.0640
 5246SOL    HW220756   6.157   2.748   0.977 -1.2943  1.5260  1.7096
 5246SOL    HW320757   6.040   2.662   0.934  0.5038  0.6915 -1.9340
 5246SOL    MW420758   6.078   2.740   0.943 -0.5221  1.0474 -0.0767
 5247SOL     OW20759   1.190   4.448   1.069  0.7228 -0.5994 -0.3255
 5247SOL    HW220760   1.146   4.522   1.111  0.6351 -1.3246  0.9105
 5247SOL    HW320761   1.255   4.489   1.011  0.0356  0.4474 -0.3796
 5247SOL    MW420762   1.193   4.464   1.067  0.6206 -0.5570 -0.1696
 5248SOL     OW20763   5.671   1.081   0.286  0.2833 -0.0078 -0.2124
 5248SOL    HW220764   5.589   1.105   0.329 -0.0938  0.4658 -1.1643
 5248SOL    HW320765   5.730   1.059   0.358 -0.9845 -1.4001  0.4596
 5248SOL    MW420766   5.668   1.082   0.301  0.0663 -0.1290 -0.2493
 5249SOL     OW20767   2.381   1.192   1.896  0.4056  0.0726  0.2050
 5249SOL    HW220768   2.421   1.244   1.826  0.0682 -1.0949 -0.8844
 5249SOL    HW320769   2.455   1.163   1.949  0.7699  0.0435 -0.3078
 5249SOL    MW420770   2.396   1.195   1.894  0.4091 -0.0853 -0.0064
 5250SOL     OW20771   4.618   5.351   2.539 -0.3109  0.4616  0.1049
 5250SOL    HW220772   4.586   5.281   2.594  1.4139  0.2945  0.9790
 5250SOL    HW320773   4.546   5.413   2.534 -1.7507 -1.1935 -0.4250
 5250SOL    MW420774   4.604   5.350   2.546 -0.2733  0.2212  0.1504
 5251SOL     OW20775   2.274   1.422   3.855  0.4487 -0.0252 -0.2628
 5251SOL    HW220776   2.213   1.349   3.847  2.0763 -1.4732 -0.0730
 5251SOL    HW320777   2.264   1.452   3.945  0.3192 -0.5351 -0.1054
 5251SOL    MW420778   2.265   1.416   3.866  0.6464 -0.2835 -0.2170
 5252SOL     OW20779   0.013   3.953   5.483 -0.3609  0.0792  0.2431
 5252SOL    HW220780   0.102   3.931   5.511 -0.1999  1.7961  1.2382
 5252SOL    HW320781  -0.031   3.980   5.564 -1.5563 -0.0050 -0.3612
 5252SOL    MW420782   0.019   3.954   5.498 -0.4974  0.2946  0.2946
 5253SOL     OW20783   4.546   2.479   3.973 -0.3419  0.1122 -0.1725
 5253SOL    HW220784   4.481   2.475   3.903 -0.2878 -1.4272 -0.1606
 5253SOL    HW320785   4.513   2.419   4.039  0.4647  0.2820  0.3948
 5253SOL    MW420786   4.533   2.471   3.972 -0.2283 -0.0685 -0.0961
 5254SOL     OW20787   2.020   2.584   3.815  0.6294  0.3767  0.0120
 5254SOL    HW220788   2.079   2.607   3.743  1.7907  1.5254  1.2762
 5254SOL    HW320789   1.964   2.661   3.826 -0.8755 -0.5306 -0.8795
 5254SOL    MW420790   2.020   2.597   3.807  0.5840  0.4085  0.0612
 5255SOL     OW20791   4.744   5.640   3.771 -0.1943  0.5601  0.0738
 5255SOL    HW220792   4.740   5.648   3.866 -0.2753  0.5577  0.0703
 5255SOL    HW320793   4.677   5.700   3.738  0.6130  1.4246 -0.0249
 5255SOL    MW420794   4.735   5.649   3.779 -0.0985  0.6738  0.0603
 5256SOL     OW20795   5.325   3.583   2.622  0.3736 -0.0169  0.2431
 5256SOL    HW220796   5.296   3.604   2.711  2.7505  0.4373  0.9867
 5256SOL    HW320797   5.246   3.589   2.569 -0.6955  2.2168  1.9035
 5256SOL    MW420798   5.311   3.587   2.627  0.5462  0.3378  0.5603
 5257SOL     OW20799   0.237   5.000   2.680 -0.3207  0.1023  0.2125
 5257SOL    HW220800   0.300   4.930   2.666  0.0954  0.4581  0.2929
 5257SOL    HW320801   0.210   4.990   2.772 -1.1731 -0.6881 -0.1039
 5257SOL    MW420802   0.241   4.989   2.690 -0.3783  0.0450  0.1814
 5258SOL     OW20803   0.669   2.237   1.860 -0.1719 -0.3818 -0.3013
 5258SOL    HW220804   0.693   2.319   1.903 -0.6567 -0.7138  0.6466
 5258SOL    HW320805   0.720   2.235   1.779  1.6555 -0.2758  0.8035
 5258SOL    MW420806   0.679   2.247   1.855  0.0052 -0.4116 -0.0305
 5259SOL     OW20807   4.632   3.375   0.009 -0.2755 -0.1961  0.7128
 5259SOL    HW220808   4.555   3.319   0.005 -0.3706 -0.0629  0.7007
 5259SOL    HW320809   4.628   3.428  -0.070  0.7921 -1.4536 -0.2366
 5259SOL    MW420810   4.621   3.374  -0.002 -0.1472 -0.3444  0.5860
 5260SOL     OW20811   2.157   2.612   2.971 -0.1162  0.0284 -0.6493
 5260SOL    HW220812   2.078   2.565   2.997 -0.0966  0.9079  1.0630
 5260SOL    HW320813   2.134   2.704   2.975  1.6671  0.4872  2.5745
 5260SOL    MW420814   2.144   2.618   2.975  0.1217  0.2050  0.0019
 5261SOL     OW20815   0.960   3.482   4.937 -0.0928  0.0416 -0.0127
 5261SOL    HW220816   1.013   3.510   4.862 -0.2898  1.0589  0.2188
 5261SOL    HW320817   0.986   3.391   4.951  0.3961  0.0256 -0.9298
 5261SOL    MW420818   0.971   3.474   4.929 -0.0543  0.1737 -0.1032
 5262SOL     OW20819   4.830   2.450   3.104 -0.1948  0.5489 -0.6063
 5262SOL    HW220820   4.803   2.508   3.175 -2.6660 -0.2597 -0.7876
 5262SOL    HW320821   4.895   2.391   3.145  0.3874  1.7383  0.2451
 5262SOL    MW420822   4.835   2.450   3.119 -0.4441  0.5991 -0.5179
 5263SOL     OW20823   2.760   5.301   0.269  0.9975  0.5453  0.7120
 5263SOL    HW220824   2.685   5.305   0.210  2.2367  4.0211 -0.8701
 5263SOL    HW320825   2.738   5.360   0.340  0.8924 -1.1197  2.1382
 5263SOL    MW420826   2.747   5.309   0.271  1.1471  0.7842  0.6914
 5264SOL     OW20827   6.226   2.268   2.352 -0.2444  0.1344  0.2037
 5264SOL    HW220828   6.147   2.321   2.349 -1.1665 -1.1990 -2.6376
 5264SOL    HW320829   6.291   2.318   2.303 -0.9938 -0.9997 -2.1133
 5264SOL    MW420830   6.224   2.281   2.345 -0.4650 -0.1911 -0.4769
 5265SOL     OW20831   1.525   5.452   4.408 -0.3020 -0.1416  0.3214
 5265SOL    HW220832   1.481   5.382   4.456  1.0169 -0.6370  0.8817
 5265SOL    HW320833   1.549   5.515   4.476  1.2268 -0.6498  0.2905
 5265SOL    MW420834   1.523   5.451   4.424  0.0737 -0.2740  0.3912
 5266SOL     OW20835   0.956   6.191   0.983 -0.5984 -0.1798 -0.3199
 5266SOL    HW220836   0.913   6.155   1.061 -1.2468 -1.3584 -1.1875
 5266SOL    HW320837   1.016   6.257   1.017  0.6184 -2.0423  1.3823
 5266SOL    MW420838   0.958   6.195   0.998 -0.5234 -0.5810 -0.2098
 5267SOL     OW20839   1.453   1.691   3.661  0.2239  0.6231  0.2898
 5267SOL    HW220840   1.469   1.779   3.627  1.4368  0.3119  0.0303
 5267SOL    HW320841   1.408   1.706   3.744  2.6230  1.5920  1.4977
 5267SOL    MW420842   1.449   1.705   3.667  0.7004  0.7098  0.4149
 5268SOL     OW20843   3.607   2.676   3.857 -0.7358 -0.4667  0.0678
 5268SOL    HW220844   3.591   2.716   3.942  0.1696 -3.4391  1.7998
 5268SOL    HW320845   3.690   2.629   3.868 -1.9554 -3.2604 -1.4770
 5268SOL    MW420846   3.616   2.675   3.870 -0.7772 -1.2275  0.0925
 5269SOL     OW20847   0.774   4.248   1.977  0.1822 -0.0297 -0.1210
 5269SOL    HW220848   0.802   4.159   1.955  0.3034  0.3984 -1.8430
 5269SOL    HW320849   0.682   4.252   1.951  0.0197  0.1973  0.4630
 5269SOL    MW420850   0.766   4.237   1.971  0.1767  0.0567 -0.2711
 5270SOL     OW20851   4.846   1.564   4.693  0.1695  0.0019 -0.3833
 5270SOL    HW220852   4.839   1.659   4.680 -1.7724 -0.2679 -1.8037
 5270SOL    HW320853   4.936   1.543   4.667  0.3898  1.3576 -0.7916
 5270SOL    MW420854   4.857   1.574   4.687 -0.0576  0.1452 -0.6245
 5271SOL     OW20855   5.930   3.795   1.533  0.0454  0.3893 -0.6781
 5271SOL    HW220856   5.949   3.788   1.440 -0.2882  2.1062 -0.9162
 5271SOL    HW320857   5.835   3.783   1.539  0.4230 -3.8477  0.0007
 5271SOL    MW420858   5.920   3.793   1.522  0.0512  0.0568 -0.6200
 5272SOL     OW20859   5.881   0.613   5.395  0.2073 -0.2402  0.0828
 5272SOL    HW220860   5.803   0.567   5.427 -0.0706 -0.4977 -0.9290
 5272SOL    HW320861   5.849   0.666   5.322  0.6195  1.1869  0.8983
 5272SOL    MW420862   5.867   0.614   5.389  0.2250 -0.0859  0.0569
 5273SOL     OW20863   0.260   1.399   2.920  0.7479  0.1154 -0.3427
 5273SOL    HW220864   0.197   1.333   2.949 -1.1199  1.5748 -0.8997
 5273SOL    HW320865   0.334   1.389   2.980 -0.2186 -1.3028  0.6945
 5273SOL    MW420866   0.261   1.389   2.932  0.3739  0.1209 -0.2794
 5274SOL     OW20867   2.475   6.284   1.059  0.0108 -0.1386  0.0212
 5274SOL    HW220868   2.386   6.298   1.028 -0.0301  0.1292  0.2683
 5274SOL    HW320869   2.466   6.227   1.135  0.2100 -2.0087 -1.2898
 5274SOL    MW420870   2.462   6.278   1.065  0.0317 -0.3500 -0.1192
 5275SOL     OW20871   0.716   2.448   2.283 -0.8799  0.2483  0.1267
 5275SOL    HW220872   0.798   2.398   2.278 -0.3981  0.5992  2.7279
 5275SOL    HW320873   0.742   2.531   2.324 -2.1541  1.4409 -1.3879
 5275SOL    MW420874   0.730   2.453   2.288 -0.9844  0.4519  0.2701
 5276SOL     OW20875   0.440   3.321   0.461 -0.4428 -0.0130 -0.0903
 5276SOL    HW220876   0.438   3.225   0.452 -0.5065 -0.0485  0.2769
 5276SOL    HW320877   0.533   3.343   0.455 -0.3956 -0.1342  0.1446
 5276SOL    MW420878   0.452   3.311   0.459 -0.4450 -0.0336 -0.0109
 5277SOL     OW20879   6.420   2.067   4.161  0.3895 -0.2014  0.2671
 5277SOL    HW220880   6.408   2.162   4.153  0.8578 -0.1880 -0.3671
 5277SOL    HW320881   6.444   2.054   4.253 -2.6980 -0.0675  1.1812
 5277SOL    MW420882   6.422   2.078   4.172  0.0439 -0.1820  0.3040
 5278SOL     OW20883   5.261   1.904   0.158 -0.4509 -0.5389  1.0681
 5278SOL    HW220884   5.201   1.929   0.088 -0.4462 -1.1834  0.8294
 5278SOL    HW320885   5.344   1.889   0.114 -0.4716 -1.0392  1.1958
 5278SOL    MW420886   5.264   1.906   0.143 -0.4530 -0.6900  1.0534
 5279SOL     OW20887   2.086   0.102   2.440 -0.0523 -0.0574 -0.0328
 5279SOL    HW220888   2.048   0.025   2.482  2.5742 -1.6186 -0.2544
 5279SOL    HW320889   2.054   0.176   2.491 -1.3567 -1.4299  1.2345
 5279SOL    MW420890   2.077   0.101   2.452  0.1222 -0.4445  0.1052
 5280SOL     OW20891   5.975   4.626   4.439 -0.4316 -0.0560 -0.0399
 5280SOL    HW220892   5.974   4.585   4.352 -1.1060 -0.2944  0.0776
 5280SOL    HW320893   5.899   4.684   4.438 -1.3783 -1.2213  0.9329
 5280SOL    MW420894   5.965   4.628   4.427 -0.6455 -0.2412  0.1039
 5281SOL     OW20895   1.306   2.079   1.555 -0.2798  0.0293 -0.6300
 5281SOL    HW220896   1.311   2.011   1.488  0.8274 -2.5578  1.9003
 5281SOL    HW320897   1.246   2.045   1.621  0.2146  1.5512  0.6848
 5281SOL    MW420898   1.299   2.066   1.555 -0.0685 -0.1112 -0.1227
 5282SOL     OW20899   1.704   5.088   3.052 -0.0859  0.0247  0.1977
 5282SOL    HW220900   1.717   5.145   2.976 -0.1924  1.0980  0.9760
 5282SOL    HW320901   1.616   5.052   3.041 -0.2481  0.4765  0.0098
 5282SOL    MW420902   1.694   5.091   3.041 -0.1213  0.2259  0.2756
 5283SOL     OW20903   6.019   5.829   2.567 -0.1988  0.1090  0.4307
 5283SOL    HW220904   5.981   5.750   2.529 -0.8841  1.2512 -1.4258
 5283SOL    HW320905   6.113   5.816   2.562 -0.2417  0.2839 -1.9914
 5283SOL    MW420906   6.026   5.817   2.561 -0.2949  0.2828 -0.1338
 5284SOL     OW20907   3.848   4.592   3.024  0.2891 -0.0324 -0.1989
 5284SOL    HW220908   3.773   4.600   3.083  2.0530 -2.6527  2.6875
 5284SOL    HW320909   3.840   4.505   2.986  2.1467 -0.6626  0.7203
 5284SOL    MW420910   3.837   4.582   3.027  0.7669 -0.4613  0.3032
 5285SOL     OW20911   6.036   1.664   5.184  0.0670 -0.4418  0.4249
 5285SOL    HW220912   5.946   1.658   5.152  0.9973  1.6752 -3.2283
 5285SOL    HW320913   6.038   1.745   5.235  0.0452  0.0370 -0.3100
 5285SOL    MW420914   6.024   1.674   5.186  0.1869 -0.0993 -0.1541
 5286SOL     OW20915   4.459   0.944   4.994  0.0897 -0.2068 -0.2576
 5286SOL    HW220916   4.521   0.903   4.934 -1.6670 -2.4298 -0.6945
 5286SOL    HW320917   4.500   0.937   5.080  1.6027  0.8864 -0.8483
 5286SOL    MW420918   4.472   0.938   4.997  0.0575 -0.3559 -0.3931
 5287SOL     OW20919   3.851   2.814   4.830  0.2650  0.1626  0.5420
 5287SOL    HW220920   3.797   2.806   4.909  0.4972 -1.0529  0.5898
 5287SOL    HW320921   3.940   2.828   4.862  0.3131 -0.0235  0.4890
 5287SOL    MW420922   3.855   2.815   4.844  0.3020 -0.0223  0.5413
 5288SOL     OW20923   4.541   0.702   5.277 -0.4748 -0.0791  0.1329
 5288SOL    HW220924   4.604   0.709   5.349  0.8082  0.3708 -1.0072
 5288SOL    HW320925   4.491   0.784   5.282 -2.9248 -1.5174  2.7028
 5288SOL    MW420926   4.543   0.714   5.287 -0.6287 -0.2095  0.3216
 5289SOL     OW20927   0.407   5.467   1.821 -0.2321 -0.1015  0.4187
 5289SOL    HW220928   0.377   5.383   1.858  0.2058 -0.4352  0.0313
 5289SOL    HW320929   0.332   5.525   1.831 -0.0013 -0.0606  2.1885
 5289SOL    MW420930   0.393   5.463   1.827 -0.1439 -0.1402  0.6011
 5290SOL     OW20931   6.200   3.356   4.478  1.1492  0.5359 -0.1135
 5290SOL    HW220932   6.217   3.375   4.386  0.3975 -1.1909 -0.6632
 5290SOL    HW320933   6.119   3.403   4.498 -0.4614 -1.5396 -1.3244
 5290SOL    MW420934   6.191   3.364   4.469  0.8376  0.0342 -0.3458
 5291SOL     OW20935   5.896   0.241   4.110 -0.0203 -0.0081  0.2947
 5291SOL    HW220936   5.988   0.219   4.096  0.0354  0.9177 -1.0479
 5291SOL    HW320937   5.888   0.258   4.203  1.5201  1.3636  0.2093
 5291SOL    MW420938   5.907   0.240   4.120  0.1903  0.2951  0.1063
 5292SOL     OW20939   5.295   3.301   0.383 -0.4879 -0.4347  0.6206
 5292SOL    HW220940   5.229   3.232   0.389 -0.0374 -0.8276  1.1839
 5292SOL    HW320941   5.346   3.278   0.306 -0.9843 -0.1467  0.1994
 5292SOL    MW420942   5.293   3.289   0.374 -0.4940 -0.4486  0.6394
 5293SOL     OW20943   5.302   0.695   1.600  0.5199 -0.6431 -0.6126
 5293SOL    HW220944   5.291   0.606   1.568  1.0806 -0.6599 -0.7584
 5293SOL    HW320945   5.386   0.724   1.566  1.4582 -0.8848  1.3384
 5293SOL    MW420946   5.312   0.687   1.592  0.7177 -0.6772 -0.3745
 5294SOL     OW20947   0.203   0.850   6.019 -0.5114 -0.3361 -0.1883
 5294SOL    HW220948   0.169   0.771   6.060 -0.0422 -0.3187  0.2502
 5294SOL    HW320949   0.174   0.845   5.928 -1.2696 -0.5455  0.0642
 5294SOL    MW420950   0.195   0.839   6.012 -0.5496 -0.3614 -0.0972
 5295SOL     OW20951   1.720   5.639   3.226 -0.2737 -0.0805 -0.5091
 5295SOL    HW220952   1.726   5.592   3.309 -0.1065  2.7582  1.2217
 5295SOL    HW320953   1.627   5.642   3.207 -0.5726  1.3725  0.9693
 5295SOL    MW420954   1.709   5.633   3.234 -0.2911  0.4857 -0.0857
 5296SOL     OW20955   3.906   0.617   2.182 -0.1967  0.0056  0.6404
 5296SOL    HW220956   3.862   0.567   2.251 -1.4677 -0.7146 -0.6326
 5296SOL    HW320957   3.943   0.550   2.125  1.0926  0.5995  0.7494
 5296SOL    MW420958   3.905   0.601   2.184 -0.1943 -0.0111  0.4868
 5297SOL     OW20959   6.162   1.564   4.205  0.2841 -0.3029  0.0223
 5297SOL    HW220960   6.125   1.537   4.288 -2.1364  1.8308 -0.2100
 5297SOL    HW320961   6.245   1.607   4.228 -1.2572  2.0403  1.6984
 5297SOL    MW420962   6.168   1.566   4.219 -0.2386  0.2878  0.2128
 5298SOL     OW20963   5.353   4.876   6.123  0.2300  0.0812  0.2757
 5298SOL    HW220964   5.335   4.848   6.033 -1.1241  1.7172  0.0033
 5298SOL    HW320965   5.310   4.809   6.177  0.4106 -0.5023 -0.2797
 5298SOL    MW420966   5.345   4.863   6.118  0.0752  0.2201  0.1665
 5299SOL     OW20967   5.285   2.032   5.446 -1.1247 -0.5035  0.4280
 5299SOL    HW220968   5.200   2.018   5.404 -0.4035  1.1748 -1.7560
 5299SOL    HW320969   5.346   1.978   5.396 -0.4919  0.2518  0.3765
 5299SOL    MW420970   5.282   2.023   5.434 -0.9461 -0.1824  0.1330
 5300SOL     OW20971   5.519   1.476   4.876  0.0424 -1.0625  0.0589
 5300SOL    HW220972   5.605   1.508   4.850 -0.0476 -0.0334  0.9637
 5300SOL    HW320973   5.457   1.541   4.842 -0.3052 -1.3024  0.2219
 5300SOL    MW420974   5.522   1.488   4.868 -0.0153 -0.9584  0.1998
 5301SOL     OW20975   0.712   5.805   2.235  0.4880 -0.1251 -0.3472
 5301SOL    HW220976   0.750   5.878   2.188 -0.3255  1.1813  0.9248
 5301SOL    HW320977   0.670   5.751   2.168  0.6475  0.8562 -1.2463
 5301SOL    MW420978   0.711   5.807   2.220  0.4017  0.1767 -0.2980
 5302SOL     OW20979   2.771   0.015   2.510 -0.0781 -0.3854  0.0835
 5302SOL    HW220980   2.797  -0.018   2.596  0.4369  0.0809  0.1110
 5302SOL    HW320981   2.694  -0.037   2.487  0.6498 -1.5561  0.1633
 5302SOL    MW420982   2.764   0.004   2.518  0.0859 -0.4784  0.0976
 5303SOL     OW20983   5.274   0.619   5.151  0.1031  0.0237  0.2057
 5303SOL    HW220984   5.289   0.603   5.058  0.8970 -1.7741  0.6042
 5303SOL    HW320985   5.318   0.546   5.196 -1.3329  0.1399  1.9296
 5303SOL    MW420986   5.282   0.607   5.145  0.0184 -0.1982  0.4857
 5304SOL     OW20987   6.377   2.647   1.482 -0.5683 -0.4858 -0.2681
 5304SOL    HW220988   6.315   2.712   1.449 -1.6363 -0.1867  2.0541
 5304SOL    HW320989   6.341   2.622   1.568  1.4012 -1.9435  0.2107
 5304SOL    MW420990   6.364   2.652   1.489 -0.4494 -0.6387  0.1014
 5305SOL     OW20991   3.896   2.760   5.852 -0.3185  0.8385  0.2356
 5305SOL    HW220992   3.946   2.781   5.930  1.5002  0.3215 -0.7308
 5305SOL    HW320993   3.883   2.665   5.856  1.9366  0.3842 -1.2058
 5305SOL    MW420994   3.900   2.750   5.862  0.2190  0.7103 -0.0821
 5306SOL     OW20995   0.332   4.377   1.362  0.1567  0.2169  0.7310
 5306SOL    HW220996   0.382   4.313   1.413  0.0652 -0.9922 -0.6571
 5306SOL    HW320997   0.367   4.371   1.273 -0.2013  1.7488  0.4452
 5306SOL    MW420998   0.343   4.368   1.357  0.0974  0.2595  0.5102
 5307SOL     OW20999   1.249   6.123   0.535  0.6653 -0.0941  0.9924
 5307SOL    HW221000   1.252   6.151   0.626 -1.7851 -0.6704  1.3109
 5307SOL    HW321001   1.264   6.203   0.484  1.2350  0.3785  1.8831
 5307SOL    MW421002   1.251   6.137   0.540  0.4172 -0.1078  1.1520
 5308SOL     OW21003   1.691   1.608   3.747 -0.1907 -0.0681 -0.9050
 5308SOL    HW221004   1.736   1.677   3.797 -0.0209  0.2559 -1.5027
 5308SOL    HW321005   1.609   1.649   3.718 -0.2553 -0.2348 -0.9605
 5308SOL    MW421006   1.686   1.623   3.750 -0.1768 -0.0474 -0.9911
 5309SOL     OW21007   5.883   2.592   4.999  0.0753 -0.4731  0.3155
 5309SOL    HW221008   5.899   2.626   5.087  0.4994 -0.6463  0.3086
 5309SOL    HW321009   5.790   2.573   4.997  0.1370 -0.8584  0.8732
 5309SOL    MW421010   5.873   2.594   5.011  0.1394 -0.5468  0.3882
 5310SOL     OW21011   2.478   1.267   4.587  0.2022  0.2585  0.5763
 5310SOL    HW221012   2.389   1.295   4.607 -0.2999 -1.1293  0.3812
 5310SOL    HW321013   2.509   1.226   4.667  0.4055  0.0970  0.4152
 5310SOL    MW421014   2.470   1.265   4.600  0.1628  0.0541  0.5293
 5311SOL     OW21015   2.174   3.751   4.378  0.5769 -0.0226  0.2359
 5311SOL    HW221016   2.257   3.704   4.380  0.8961  0.5458  1.9708
 5311SOL    HW321017   2.183   3.820   4.443 -0.9830  0.5510 -0.0924
 5311SOL    MW421018   2.186   3.754   4.387  0.4132  0.1281  0.4215
 5312SOL     OW21019   0.854   2.019   1.123 -0.2587 -0.0150 -0.1399
 5312SOL    HW221020   0.833   2.101   1.168 -1.6215 -0.8141  0.7554
 5312SOL    HW321021   0.807   2.025   1.039  1.4319  1.0233 -1.0684
 5312SOL    MW421022   0.845   2.030   1.118 -0.2154  0.0165 -0.1443
 5313SOL     OW21023   4.372   4.117   2.771  0.2844  0.0594  0.0181
 5313SOL    HW221024   4.441   4.159   2.821  1.2400 -2.3978  0.9009
 5313SOL    HW321025   4.400   4.124   2.680  2.4909 -2.0584  0.4379
 5313SOL    MW421026   4.384   4.123   2.766  0.7016 -0.5443  0.1900
 5314SOL     OW21027   5.473   5.347   0.492  0.1187  0.2908 -0.4160
 5314SOL    HW221028   5.566   5.337   0.513  0.3905 -2.0591 -2.3103
 5314SOL    HW321029   5.428   5.299   0.561  0.2905  1.1664  0.3309
 5314SOL    MW421030   5.480   5.340   0.504  0.1772  0.0963 -0.5674
 5315SOL     OW21031   5.752   5.214   1.541  0.0695 -0.5223  0.0104
 5315SOL    HW221032   5.809   5.190   1.468 -1.4932 -0.8641 -1.1646
 5315SOL    HW321033   5.803   5.277   1.592  1.0089  0.1812 -1.7051
 5315SOL    MW421034   5.766   5.219   1.538 -0.0127 -0.4746 -0.3710
 5316SOL     OW21035   2.402   6.382   6.358  0.5459 -0.1941  0.0561
 5316SOL    HW221036   2.410   6.332   6.439  1.5964 -0.0110  0.0801
 5316SOL    HW321037   2.313   6.419   6.361  0.4359 -0.5158  0.9305
 5316SOL    MW421038   2.391   6.381   6.369  0.6700 -0.2124  0.1746
 5317SOL     OW21039   4.527   5.023   4.814 -0.2687 -0.0071 -0.1332
 5317SOL    HW221040   4.510   5.113   4.787  1.3834  0.5309  0.5321
 5317SOL    HW321041   4.497   5.019   4.905  0.1040  0.0210 -0.0066
 5317SOL    MW421042   4.520   5.034   4.822 -0.0016  0.0676 -0.0287
 5318SOL     OW21043   3.720   5.921   2.861  0.0388  0.6940 -0.3114
 5318SOL    HW221044   3.706   5.827   2.872 -0.7474  0.9554  1.1127
 5318SOL    HW321045   3.776   5.927   2.783  0.4720 -0.9691 -0.1789
 5318SOL    MW421046   3.726   5.909   2.852 -0.0078  0.5090 -0.1060
 5319SOL     OW21047   6.433   5.552   3.953 -1.0703  0.4797 -0.5179
 5319SOL    HW221048   6.471   5.615   4.015  1.1641 -1.3678  0.1589
 5319SOL    HW321049   6.491   5.556   3.877 -1.2750 -0.3000 -0.7203
 5319SOL    MW421050   6.446   5.561   3.951 -0.8025  0.1331 -0.4553
 5320SOL     OW21051   1.250   1.536   4.105 -0.3397  0.0946  0.1432
 5320SOL    HW221052   1.161   1.549   4.139 -0.6569 -0.5696 -0.4149
 5320SOL    HW321053   1.304   1.526   4.184 -0.6222  1.2598  0.5111
 5320SOL    MW421054   1.246   1.537   4.120 -0.4188  0.1607  0.1181
 5321SOL     OW21055   0.516   4.301   1.887 -0.3083 -0.8287  0.0023
 5321SOL    HW221056   0.515   4.207   1.871 -0.0570 -0.9725  0.7614
 5321SOL    HW321057   0.507   4.309   1.982  3.1161 -0.2709  0.4400
 5321SOL    MW421058   0.515   4.290   1.897  0.1767 -0.7741  0.1602
 5322SOL     OW21059   3.273   5.849   3.931  0.0852  0.6966  0.0232
 5322SOL    HW221060   3.339   5.913   3.906  0.3727 -0.1437 -1.4965
 5322SOL    HW321061   3.191   5.898   3.933  0.3360  1.1690 -0.8748
 5322SOL    MW421062   3.271   5.864   3.928  0.1562  0.6480 -0.2958
 5323SOL     OW21063   4.208   2.865   2.134 -0.3496  0.4775  0.2172
 5323SOL    HW221064   4.277   2.802   2.113 -0.6135  0.1868  0.1944
 5323SOL    HW321065   4.203   2.922   2.057  0.5438  1.1313  0.6345
 5323SOL    MW421066   4.216   2.864   2.121 -0.2665  0.5254  0.2693
 5324SOL     OW21067   5.372   1.348   2.301  0.7619 -0.6517 -0.1200
 5324SOL    HW221068   5.322   1.395   2.235 -2.4066 -1.9683  1.1088
 5324SOL    HW321069   5.442   1.304   2.253 -0.4502 -0.2900 -2.3193
 5324SOL    MW421070   5.374   1.348   2.286  0.1839 -0.7777 -0.2480
 5325SOL     OW21071   5.532   3.986   5.076 -0.1845  0.1137 -0.7794
 5325SOL    HW221072   5.503   3.957   4.990 -0.3768  0.5132 -0.8497
 5325SOL    HW321073   5.540   4.081   5.068 -0.6530  0.2029 -0.2190
 5325SOL    MW421074   5.530   3.995   5.064 -0.2717  0.1782 -0.7147
 5326SOL     OW21075   1.644   1.424   5.793 -0.1685 -0.1142 -0.1604
 5326SOL    HW221076   1.660   1.345   5.845  2.0221  0.5940  0.3652
 5326SOL    HW321077   1.552   1.418   5.769 -1.0158 -1.0856  2.7994
 5326SOL    MW421078   1.634   1.412   5.797  0.0088 -0.1489  0.2994
 5327SOL     OW21079   2.863   4.706   1.559  0.2025  0.0841  0.3345
 5327SOL    HW221080   2.786   4.654   1.538  0.0136  0.6854 -0.5485
 5327SOL    HW321081   2.906   4.720   1.474  0.4435  1.0448  0.5985
 5327SOL    MW421082   2.859   4.701   1.545  0.2094  0.2902  0.2528
 5328SOL     OW21083   6.299   4.546   0.319 -0.5409  0.6583 -0.1213
 5328SOL    HW221084   6.377   4.505   0.281 -0.8268  0.6454 -0.7155
 5328SOL    HW321085   6.330   4.591   0.397 -0.4121 -1.7666  1.3460
 5328SOL    MW421086   6.313   4.547   0.324 -0.5616  0.3367 -0.0061
 5329SOL     OW21087   5.814   0.730   3.353  0.5543 -0.1798  1.1349
 5329SOL    HW221088   5.808   0.686   3.438  1.2371  0.6661  1.6338
 5329SOL    HW321089   5.906   0.719   3.328  0.1854 -1.1211  0.1107
 5329SOL    MW421090   5.826   0.723   3.361  0.5957 -0.1924  1.0656
 5330SOL     OW21091   5.878   2.089   0.250 -0.5842 -0.1164 -0.0033
 5330SOL    HW221092   5.845   2.098   0.340 -1.2588 -1.0297 -0.1444
 5330SOL    HW321093   5.973   2.086   0.260 -0.4955  2.3112  0.4330
 5330SOL    MW421094   5.886   2.090   0.263 -0.6615  0.0834  0.0356
 5331SOL     OW21095   3.393   2.052   5.797  0.0986 -0.4108 -0.2248
 5331SOL    HW221096   3.414   1.992   5.726 -0.3221 -0.4976 -0.2827
 5331SOL    HW321097   3.457   2.122   5.790 -0.4444  0.0050 -1.2052
 5331SOL    MW421098   3.404   2.053   5.787 -0.0285 -0.3674 -0.3618
 5332SOL     OW21099   0.677   1.039   1.418  0.0112 -0.5252  0.3228
 5332SOL    HW221100   0.679   1.068   1.509  0.4168 -2.8056  1.1145
 5332SOL    HW321101   0.716   0.951   1.420  3.0787  0.5311 -2.5290
 5332SOL    MW421102   0.683   1.031   1.430  0.4695 -0.6867  0.0510
 5333SOL     OW21103   6.057   2.279   3.619  0.6435 -0.0899 -0.7982
 5333SOL    HW221104   6.014   2.361   3.593 -0.1252  0.1103  0.9375
 5333SOL    HW321105   6.034   2.217   3.550 -2.2258  0.1056 -0.1797
 5333SOL    MW421106   6.048   2.282   3.607  0.1635 -0.0377 -0.4876
 5334SOL     OW21107   0.397   2.085   1.291 -0.4693 -0.6609 -0.3283
 5334SOL    HW221108   0.467   2.123   1.344 -1.0926  0.9833 -0.6305
 5334SOL    HW321109   0.343   2.036   1.354 -1.5994  1.8263  0.7900
 5334SOL    MW421110   0.399   2.083   1.306 -0.7006 -0.1158 -0.2206
 5335SOL     OW21111   0.138   3.141   5.318  0.3528  0.4953  0.0847
 5335SOL    HW221112   0.176   3.078   5.257 -1.0170  0.5084 -0.8093
 5335SOL    HW321113   0.144   3.099   5.404  0.6023 -0.3096 -0.3193
 5335SOL    MW421114   0.144   3.127   5.321  0.2050  0.3909 -0.0865
 5336SOL     OW21115   5.081   5.919   1.383  0.2349 -0.2848 -0.3571
 5336SOL    HW221116   5.031   5.837   1.377  0.6401 -0.7019  1.2577
 5336SOL    HW321117   5.022   5.986   1.349 -0.6926 -1.0439 -0.2990
 5336SOL    MW421118   5.067   5.917   1.378  0.1660 -0.4400 -0.1364
 5337SOL     OW21119   0.676   0.596   5.614  0.2833 -0.1527  0.3660
 5337SOL    HW221120   0.726   0.677   5.602  0.1973 -0.0916  0.4230
 5337SOL    HW321121   0.731   0.541   5.669  0.3659 -0.1543  0.2816
 5337SOL    MW421122   0.690   0.599   5.620  0.2829 -0.1449  0.3624
 5338SOL     OW21123   0.951   2.688   0.531  0.5201 -0.1760 -0.1143
 5338SOL    HW221124   0.971   2.757   0.467 -0.5505 -1.3057 -1.7417
 5338SOL    HW321125   1.005   2.710   0.607 -0.4082  2.9492 -0.2074
 5338SOL    MW421126   0.961   2.700   0.533  0.2564  0.0873 -0.3413
 5339SOL     OW21127   4.681   3.707   3.798  0.3251  0.3400  0.3028
 5339SOL    HW221128   4.627   3.630   3.815 -0.8671  1.3971  1.5403
 5339SOL    HW321129   4.623   3.766   3.749  0.7781  0.9518  0.4899
 5339SOL    MW421130   4.666   3.705   3.794  0.2275  0.5602  0.4907
 5340SOL     OW21131   2.756   5.690   4.004 -0.0836 -0.2121  0.6014
 5340SOL    HW221132   2.700   5.612   4.008 -0.5469  0.1172  0.5966
 5340SOL    HW321133   2.845   5.656   4.013 -0.2094 -0.8462 -0.4585
 5340SOL    MW421134   2.760   5.675   4.006 -0.1613 -0.2524  0.4609
 5341SOL     OW21135   0.126   0.406   4.339  0.2218 -0.0894 -0.8090
 5341SOL    HW221136   0.108   0.414   4.433  1.4008 -1.0181 -0.4695
 5341SOL    HW321137   0.043   0.380   4.301 -0.3261  0.5028 -0.0569
 5341SOL    MW421138   0.113   0.404   4.346  0.3051 -0.1338 -0.6650
 5342SOL     OW21139   2.486   0.300   4.461  0.0090  0.2690 -0.1456
 5342SOL    HW221140   2.460   0.329   4.373  1.2009  0.0492 -0.5856
 5342SOL    HW321141   2.477   0.205   4.458  0.6484  0.2109 -0.2309
 5342SOL    MW421142   2.481   0.292   4.449  0.2506  0.2323 -0.2149
 5343SOL     OW21143   0.286   2.924   6.259 -0.2546 -0.0113  0.1785
 5343SOL    HW221144   0.253   2.917   6.170  0.4445  0.5443 -0.1403
 5343SOL    HW321145   0.287   3.018   6.277  0.4814 -0.0522  0.4182
 5343SOL    MW421146   0.282   2.936   6.250 -0.0652  0.0566  0.1681
 5344SOL     OW21147   1.704   3.396   6.384  0.1587 -0.1844 -0.0022
 5344SOL    HW221148   1.706   3.364   6.294 -0.0721  1.7876 -0.7388
 5344SOL    HW321149   1.702   3.491   6.377  1.3304  0.0596  2.1250
 5344SOL    MW421150   1.704   3.404   6.371  0.2829  0.1080  0.1813
 5345SOL     OW21151   1.471   4.972   0.682 -0.2986 -0.3045  0.1099
 5345SOL    HW221152   1.422   4.981   0.601 -3.0630  0.3225  1.7138
 5345SOL    HW321153   1.500   5.061   0.703 -0.6193 -0.2601  0.3801
 5345SOL    MW421154   1.469   4.985   0.674 -0.7056 -0.2159  0.3572
 5346SOL     OW21155   6.370   1.625   1.844 -0.1729 -0.2679  0.5249
 5346SOL    HW221156   6.324   1.682   1.906 -0.8759 -0.1108 -0.1243
 5346SOL    HW321157   6.448   1.674   1.820 -1.4802  1.1443 -1.1439
 5346SOL    MW421158   6.374   1.639   1.849 -0.4382 -0.0608  0.2190
 5347SOL     OW21159   0.346   5.715   2.321 -0.0755  0.0958 -0.4747
 5347SOL    HW221160   0.428   5.667   2.320 -0.1599 -0.0482 -0.5343
 5347SOL    HW321161   0.354   5.779   2.250  1.3703  2.4326  1.6289
 5347SOL    MW421162   0.358   5.717   2.312  0.1041  0.3851 -0.2050
 5348SOL     OW21163   1.541   1.962   3.625 -0.2812 -0.9978  0.0129
 5348SOL    HW221164   1.633   1.964   3.652  0.5985  0.4347 -2.6763
 5348SOL    HW321165   1.499   2.030   3.678  0.8891  0.2711 -0.6136
 5348SOL    MW421166   1.548   1.971   3.635 -0.0107 -0.6413 -0.4246
 5349SOL     OW21167   0.233   4.771   0.250 -0.1695 -0.0577  0.0394
 5349SOL    HW221168   0.177   4.815   0.187  0.8633 -1.6064 -2.0799
 5349SOL    HW321169   0.218   4.818   0.332 -2.3284  1.4008 -1.0933
 5349SOL    MW421170   0.224   4.783   0.253 -0.3181 -0.0696 -0.3896
 5350SOL     OW21171   0.168   2.067   2.743 -0.8011  0.2748  0.1948
 5350SOL    HW221172   0.152   2.045   2.834 -3.9212 -0.4868 -0.4134
 5350SOL    HW321173   0.222   1.995   2.710  0.1170  0.4189  1.3414
 5350SOL    MW421174   0.173   2.055   2.750 -1.0916  0.1934  0.2659
 5351SOL     OW21175   5.331   0.325   0.668 -0.3994  0.7079  0.0554
 5351SOL    HW221176   5.267   0.329   0.597 -0.0436  2.5995 -0.2010
 5351SOL    HW321177   5.414   0.348   0.627 -0.1523  1.5900  1.0198
 5351SOL    MW421178   5.334   0.328   0.653 -0.3198  1.0739  0.1488
 5352SOL     OW21179   0.294   6.405   3.417  0.2323  0.3187  0.3172
 5352SOL    HW221180   0.287   6.442   3.329 -0.6623  2.3103  1.1672
 5352SOL    HW321181   0.218   6.346   3.424 -0.8803  1.7114  0.4188
 5352SOL    MW421182   0.283   6.402   3.406 -0.0325  0.7652  0.4428
 5353SOL     OW21183   3.845   0.327   0.428 -0.4433 -0.3816 -0.3233
 5353SOL    HW221184   3.904   0.296   0.359  1.1548  0.1836  0.7265
 5353SOL    HW321185   3.760   0.292   0.405  0.6461 -2.8185 -0.9326
 5353SOL    MW421186   3.842   0.319   0.416 -0.0887 -0.6286 -0.2652
 5354SOL     OW21187   3.067   1.845   0.860 -0.4895  0.3022 -0.2064
 5354SOL    HW221188   3.096   1.878   0.946  0.1887  0.8507 -0.6309
 5354SOL    HW321189   3.139   1.868   0.801 -0.5749 -0.8305 -0.7667
 5354SOL    MW421190   3.081   1.852   0.864 -0.4113  0.2251 -0.3363
 5355SOL     OW21191   2.583   4.629   0.784 -0.2935  0.3223  0.2002
 5355SOL    HW221192   2.564   4.571   0.711 -0.4791  0.8129 -0.1439
 5355SOL    HW321193   2.657   4.588   0.829  0.5110  0.5678 -0.8783
 5355SOL    MW421194   2.590   4.616   0.780 -0.2118  0.4194  0.0125
 5356SOL     OW21195   3.255   4.415   0.144 -0.1066 -0.2323  0.3731
 5356SOL    HW221196   3.340   4.379   0.118 -0.2873 -0.8029  0.5426
 5356SOL    HW321197   3.214   4.441   0.062  0.2062 -0.0064  0.2858
 5356SOL    MW421198   3.261   4.413   0.130 -0.0892 -0.2778  0.3840
 5357SOL     OW21199   5.799   3.946   3.081  0.1972 -0.5045 -0.6626
 5357SOL    HW221200   5.826   3.854   3.080  0.1792 -0.5173 -0.2885
 5357SOL    HW321201   5.752   3.956   3.164 -0.3213 -0.3063 -0.9717
 5357SOL    MW421202   5.796   3.935   3.092  0.1264 -0.4800 -0.6540
 5358SOL     OW21203   6.158   0.131   4.092 -0.3666  0.6297  0.0465
 5358SOL    HW221204   6.248   0.148   4.064 -0.1555 -0.4004  0.0871
 5358SOL    HW321205   6.160   0.137   4.187 -0.6990  2.2364 -0.0079
 5358SOL    MW421206   6.170   0.134   4.101 -0.3826  0.7058  0.0446
 5359SOL     OW21207   2.213   5.926   1.563  0.0432 -0.6265  0.7043
 5359SOL    HW221208   2.152   5.858   1.590  0.0703 -0.5652  0.9272
 5359SOL    HW321209   2.197   5.998   1.625 -1.4564  0.3879 -0.7906
 5359SOL    MW421210   2.203   5.927   1.575 -0.1510 -0.4846  0.5365
 5360SOL     OW21211   0.779   5.005   1.701  0.5289  0.4298 -0.7592
 5360SOL    HW221212   0.716   4.933   1.694  0.1216  0.7834 -0.6912
 5360SOL    HW321213   0.770   5.053   1.619  1.8714 -0.4571 -1.4843
 5360SOL    MW421214   0.770   5.002   1.689  0.6523  0.3595 -0.8459
 5361SOL     OW21215   3.538   2.697   1.268 -0.0664 -0.1040 -0.1098
 5361SOL    HW221216   3.572   2.643   1.196  0.4153  1.4445 -1.0890
 5361SOL    HW321217   3.527   2.784   1.229 -2.5516  0.1221  0.9239
 5361SOL    MW421218   3.541   2.701   1.253 -0.3308  0.1301 -0.1026
 5362SOL     OW21219   2.121   4.911   4.078  0.3312  0.0358  0.1121
 5362SOL    HW221220   2.098   4.832   4.029 -0.1945 -0.2821  0.8550
 5362SOL    HW321221   2.063   4.910   4.153 -0.4072  1.6842 -0.3938
 5362SOL    MW421222   2.110   4.900   4.081  0.1645  0.2113  0.1434
 5363SOL     OW21223   2.882   2.614   2.173 -0.0143  0.4306 -0.7947
 5363SOL    HW221224   2.894   2.537   2.229 -0.4210  1.1886  0.3671
 5363SOL    HW321225   2.842   2.579   2.093  2.0009 -0.9095 -1.2995
 5363SOL    MW421226   2.879   2.599   2.170  0.1979  0.3538 -0.7080
 5364SOL     OW21227   2.556   4.229   0.235 -0.2841  0.3191  0.0469
 5364SOL    HW221228   2.534   4.199   0.147 -0.2390  0.1834  0.0811
 5364SOL    HW321229   2.647   4.260   0.228 -0.2266  0.1622  0.0799
 5364SOL    MW421230   2.565   4.229   0.223 -0.2705  0.2805  0.0557
 5365SOL     OW21231   0.223   0.494   0.765 -0.1077 -0.3538  0.3420
 5365SOL    HW221232   0.202   0.444   0.686 -1.8508 -0.2690  0.7094
 5365SOL    HW321233   0.198   0.584   0.744  1.2984  0.0402  0.3154
 5365SOL    MW421234   0.217   0.499   0.752 -0.1522 -0.2907  0.3870
 5366SOL     OW21235   2.103   1.167   1.284  0.2128 -0.0122  0.6419
 5366SOL    HW221236   2.031   1.211   1.329 -1.2222 -1.3456 -0.2463
 5366SOL    HW321237   2.143   1.112   1.351  1.5610  2.0093  1.5739
 5366SOL    MW421238   2.099   1.165   1.299  0.2014  0.0786  0.6476
 5367SOL     OW21239   4.337   4.992   2.341  0.3384  0.1639 -0.7328
 5367SOL    HW221240   4.323   5.086   2.328 -0.3160  0.0637 -0.8322
 5367SOL    HW321241   4.262   4.951   2.298 -0.6060 -0.3052  1.2193
 5367SOL    MW421242   4.325   4.999   2.334  0.1275  0.0888 -0.4884
 5368SOL     OW21243   2.607   5.176   5.135 -0.6193  0.6982  0.0191
 5368SOL    HW221244   2.686   5.227   5.115 -0.3390  0.2809  0.0544
 5368SOL    HW321245   2.537   5.241   5.134 -0.0076  1.4860  2.1210
 5368SOL    MW421246   2.608   5.192   5.132 -0.5016  0.7471  0.3011
 5369SOL     OW21247   1.431   4.341   3.437  0.2767 -0.1809  0.2748
 5369SOL    HW221248   1.426   4.303   3.350  1.5841 -0.5798  0.3481
 5369SOL    HW321249   1.372   4.416   3.435  1.6416  0.9194 -1.5433
 5369SOL    MW421250   1.423   4.346   3.425  0.6293 -0.0883  0.0446
 5370SOL     OW21251   6.163   3.642   2.088  0.2317  0.4052 -0.4790
 5370SOL    HW221252   6.239   3.595   2.054  0.6768 -0.1808  1.2247
 5370SOL    HW321253   6.143   3.707   2.021  1.7135  0.0255 -1.3325
 5370SOL    MW421254   6.170   3.644   2.075  0.4859  0.2778 -0.3668
 5371SOL     OW21255   3.145   1.429   4.802  0.2322 -0.0949  0.0664
 5371SOL    HW221256   3.082   1.472   4.861  0.0042 -0.0140 -0.2325
 5371SOL    HW321257   3.143   1.337   4.828  2.2431  0.3543  2.0921
 5371SOL    MW421258   3.136   1.423   4.813  0.4674 -0.0249  0.2942
 5372SOL     OW21259   5.005   5.578   1.968  0.0566 -0.6427 -0.3151
 5372SOL    HW221260   5.097   5.565   1.945 -0.6523 -0.3939 -3.8300
 5372SOL    HW321261   4.968   5.626   1.893 -1.9217  3.7808  3.0203
 5372SOL    MW421262   5.012   5.583   1.955 -0.2979 -0.0262 -0.3388
 5373SOL     OW21263   1.603   4.032   2.241 -0.2314 -0.1731  0.1275
 5373SOL    HW221264   1.652   4.055   2.320 -0.3181  2.0033 -0.4136
 5373SOL    HW321265   1.662   4.053   2.169 -2.0328  3.0061 -0.5704
 5373SOL    MW421266   1.617   4.038   2.242 -0.4805  0.5335 -0.0360
 5374SOL     OW21267   2.954   3.918   4.819 -0.0204  0.2524 -0.4321
 5374SOL    HW221268   2.995   3.835   4.844 -0.7541  0.6078  2.1678
 5374SOL    HW321269   3.022   3.964   4.770  0.7881 -1.3648 -0.9258
 5374SOL    MW421270   2.968   3.913   4.816 -0.0105  0.0859 -0.1542
 5375SOL     OW21271   4.689   1.363   3.848 -0.3390 -0.3067 -0.5674
 5375SOL    HW221272   4.617   1.322   3.800  0.0560 -0.1983 -1.2576
 5375SOL    HW321273   4.736   1.290   3.889 -1.3697 -0.3216  0.6632
 5375SOL    MW421274   4.686   1.348   3.847 -0.4229 -0.2944 -0.4961
 5376SOL     OW21275   3.552   0.499   3.183  0.6506  0.3896  0.4304
 5376SOL    HW221276   3.496   0.534   3.113  0.9462  4.6009  2.0089
 5376SOL    HW321277   3.490   0.467   3.249  0.2867 -0.5264 -0.3440
 5376SOL    MW421278   3.536   0.500   3.182  0.6416  0.8244  0.5365
 5377SOL     OW21279   3.403   4.855   6.068 -0.0351 -0.2436  0.6245
 5377SOL    HW221280   3.317   4.841   6.107  0.6122 -1.1343  1.8106
 5377SOL    HW321281   3.456   4.781   6.098  0.8856 -0.2398 -0.8848
 5377SOL    MW421282   3.399   4.843   6.077  0.1718 -0.3606  0.5819
 5378SOL     OW21283   5.949   5.132   1.347 -0.1083 -0.0341  0.3604
 5378SOL    HW221284   5.991   5.068   1.406  0.3072 -0.9935 -0.9270
 5378SOL    HW321285   5.977   5.105   1.260 -0.6092  1.4406 -0.2802
 5378SOL    MW421286   5.958   5.120   1.343 -0.1196  0.0339  0.1061
 5379SOL     OW21287   4.055   3.086   0.672 -0.2456 -0.2572 -0.3165
 5379SOL    HW221288   4.074   3.080   0.578  0.3490 -0.8745 -0.1625
 5379SOL    HW321289   4.068   3.179   0.693  0.5216 -0.2794 -0.6578
 5379SOL    MW421290   4.059   3.098   0.662 -0.0659 -0.3416 -0.3412
 5380SOL     OW21291   2.886   1.836   0.067 -0.5449 -0.4527  0.0581
 5380SOL    HW221292   2.944   1.907   0.039 -1.8348  0.7743  0.3405
 5380SOL    HW321293   2.835   1.814  -0.012  1.5866 -2.9373 -0.7582
 5380SOL    MW421294   2.887   1.843   0.053 -0.4339 -0.6186 -0.0123
 5381SOL     OW21295   6.202   4.896   0.042  0.3911 -0.2128  0.0995
 5381SOL    HW221296   6.139   4.968   0.045  0.2112 -0.3755  0.2273
 5381SOL    HW321297   6.174   4.843  -0.032  0.3431 -0.3164  0.1913
 5381SOL    MW421298   6.190   4.899   0.033  0.3610 -0.2480  0.1285
 5382SOL     OW21299   3.976   4.205   0.848 -0.3147  0.2842 -0.5153
 5382SOL    HW221300   3.931   4.256   0.781  0.1759  1.2100 -0.1577
 5382SOL    HW321301   4.057   4.177   0.805 -0.0464  0.7933 -0.3468
 5382SOL    MW421302   3.981   4.208   0.833 -0.2146  0.4735 -0.4458
 5383SOL     OW21303   3.754   2.155   1.223  0.4524  0.4831  0.0859
 5383SOL    HW221304   3.820   2.150   1.154  0.1813 -0.9917 -0.1080
 5383SOL    HW321305   3.759   2.069   1.266 -1.6904  0.1259 -0.2890
 5383SOL    MW421306   3.764   2.143   1.220  0.1339  0.2414  0.0109
 5384SOL     OW21307   1.362   5.987   0.082 -0.9377 -0.3727 -0.0205
 5384SOL    HW221308   1.398   5.960   0.167 -1.5017 -0.2119  0.2729
 5384SOL    HW321309   1.435   6.031   0.039 -0.3931 -1.2033  0.0269
 5384SOL    MW421310   1.376   5.989   0.088 -0.9403 -0.4611  0.0245
 5385SOL     OW21311   4.157   4.022   4.778 -0.2328  0.1424 -0.4196
 5385SOL    HW221312   4.166   4.090   4.845 -1.7533  0.2754 -0.3161
 5385SOL    HW321313   4.245   4.010   4.744  0.0937  2.1463 -0.4051
 5385SOL    MW421314   4.169   4.030   4.782 -0.3903  0.4243 -0.4040
 5386SOL     OW21315   1.254   6.423   5.082  0.2556 -0.0436  0.0864
 5386SOL    HW221316   1.258   6.472   5.164  1.3034  0.9766 -0.5629
 5386SOL    HW321317   1.166   6.383   5.083 -0.0319  0.5680  1.3382
 5386SOL    MW421318   1.243   6.424   5.093  0.3559  0.1717  0.1659
 5387SOL     OW21319   3.304   5.235   3.182 -1.1738  0.0753  0.2515
 5387SOL    HW221320   3.287   5.279   3.265  0.2315 -1.7437  1.6011
 5387SOL    HW321321   3.217   5.215   3.147 -1.7942  0.9703  1.2397
 5387SOL    MW421322   3.290   5.238   3.189 -1.0703 -0.0466  0.5600
 5388SOL     OW21323   0.162   1.351   0.875  0.2489  0.3843  0.0458
 5388SOL    HW221324   0.135   1.268   0.914  0.7186  0.0366 -0.3551
 5388SOL    HW321325   0.123   1.351   0.787 -1.6186  1.5946  0.8050
 5388SOL    MW421326   0.154   1.340   0.868  0.0645  0.4981  0.0931
 5389SOL     OW21327   6.334   1.829   2.456  0.0922 -0.2309  0.1725
 5389SOL    HW221328   6.406   1.817   2.394  1.1955 -1.0180  1.5214
 5389SOL    HW321329   6.342   1.919   2.486 -0.7786  0.3202 -1.1845
 5389SOL    MW421330   6.345   1.839   2.452  0.1229 -0.2620  0.1714
 5390SOL     OW21331   4.743   0.110   2.206  0.5028  0.4996  0.2315
 5390SOL    HW221332   4.773   0.158   2.283 -0.3762  1.5235 -0.0532
 5390SOL    HW321333   4.648   0.119   2.207  0.3821 -0.4896 -0.3305
 5390SOL    MW421334   4.735   0.117   2.216  0.3709  0.5042  0.1198
 5391SOL     OW21335   1.248   5.529   3.991  0.3979  0.3943 -0.2111
 5391SOL    HW221336   1.335   5.567   3.999 -0.0707  1.5907 -0.5616
 5391SOL    HW321337   1.256   5.464   3.921  1.5158 -1.1638  1.2725
 5391SOL    MW421338   1.260   5.525   3.983  0.4836  0.3466 -0.0616
 5392SOL     OW21339   1.618   5.535   0.300 -0.6426  0.2835 -0.6757
 5392SOL    HW221340   1.630   5.498   0.213  2.1257  1.6475 -0.9848
 5392SOL    HW321341   1.706   5.542   0.336 -1.7446 -2.4633  3.3039
 5392SOL    MW421342   1.631   5.531   0.293 -0.4227  0.1011 -0.1914
 5393SOL     OW21343   0.598   5.575   2.657  0.5488 -0.0478 -0.6267
 5393SOL    HW221344   0.672   5.519   2.633  1.6052  1.0115  0.0230
 5393SOL    HW321345   0.623   5.613   2.741 -0.2149  1.2265 -0.9410
 5393SOL    MW421346   0.611   5.573   2.665  0.5874  0.2601 -0.5824
 5394SOL     OW21347   4.659   3.969   1.396 -0.0221  0.1936  0.6869
 5394SOL    HW221348   4.577   3.937   1.358 -0.0065 -0.0742  0.8807
 5394SOL    HW321349   4.659   4.063   1.377 -1.6872  0.7464  3.0366
 5394SOL    MW421350   4.648   3.977   1.388 -0.2397  0.2312  1.0225
 5395SOL     OW21351   4.461   3.648   0.598 -0.2095  0.2473  0.0570
 5395SOL    HW221352   4.471   3.559   0.565 -0.6504  0.1229  0.2475
 5395SOL    HW321353   4.381   3.645   0.651  0.1188  0.6025  0.5851
 5395SOL    MW421354   4.452   3.636   0.600 -0.2243  0.2777  0.1518
 5396SOL     OW21355   2.085   1.092   1.733  0.0200  0.2314 -0.3406
 5396SOL    HW221356   2.016   1.137   1.781 -0.5671  0.2302 -1.1743
 5396SOL    HW321357   2.127   1.036   1.799 -0.1531  0.9384  0.3808
 5396SOL    MW421358   2.082   1.091   1.748 -0.0803  0.3245 -0.3554
 5397SOL     OW21359   3.176   0.377   3.147  0.3651 -0.7429 -0.4122
 5397SOL    HW221360   3.095   0.380   3.198  0.2792 -1.0375 -0.5275
 5397SOL    HW321361   3.164   0.443   3.079  0.4614 -0.3806 -0.0800
 5397SOL    MW421362   3.164   0.386   3.145  0.3664 -0.7340 -0.3836
 5398SOL     OW21363   5.388   2.678   1.260  0.3464 -0.3437  0.2300
 5398SOL    HW221364   5.453   2.617   1.225  0.6965  0.2755 -0.2157
 5398SOL    HW321365   5.434   2.724   1.331  0.0883 -0.5854  0.5551
 5398SOL    MW421366   5.403   2.676   1.265  0.3585 -0.2939  0.2141
 5399SOL     OW21367   1.804   4.286   2.909 -0.1944  0.0344 -0.0742
 5399SOL    HW221368   1.883   4.334   2.882 -0.5458 -0.1110 -1.4507
 5399SOL    HW321369   1.837   4.212   2.959  0.7810 -1.2885 -2.4820
 5399SOL    MW421370   1.819   4.282   2.912 -0.1120 -0.1593 -0.5735
 5400SOL     OW21371   5.602   3.025   3.489  0.4701 -1.0183  0.1995
 5400SOL    HW221372   5.691   3.013   3.458  0.4103 -0.1429 -0.3778
 5400SOL    HW321373   5.549   3.025   3.409  0.3007  1.2554  0.2492
 5400SOL    MW421374   5.607   3.024   3.474  0.4398 -0.6028  0.1298
 5401SOL     OW21375   0.495   0.489   0.423  0.2892  0.7123  0.1935
 5401SOL    HW221376   0.550   0.414   0.403  0.7541  0.4777  2.0989
 5401SOL    HW321377   0.557   0.560   0.441 -0.1037  1.1147 -0.0275
 5401SOL    MW421378   0.510   0.489   0.423  0.2987  0.7344  0.4157
 5402SOL     OW21379   4.471   3.192   1.904 -0.3775 -0.1653  0.3337
 5402SOL    HW221380   4.383   3.200   1.869  0.0866 -2.8100 -1.7294
 5402SOL    HW321381   4.525   3.243   1.844 -0.4563  1.5546  1.6658
 5402SOL    MW421382   4.467   3.200   1.891 -0.3267 -0.2873  0.2373
 5403SOL     OW21383   5.270   6.058   3.876  0.1704 -0.0738  0.9466
 5403SOL    HW221384   5.200   5.996   3.856  2.2704 -1.8863 -1.3948
 5403SOL    HW321385   5.272   6.062   3.972 -1.6579 -1.6686  1.1089
 5403SOL    MW421386   5.261   6.050   3.886  0.2062 -0.5234  0.6591
 5404SOL     OW21387   6.391   3.121   3.186  0.5225 -1.6462  0.2505
 5404SOL    HW221388   6.319   3.154   3.132  0.1246 -0.6095  1.3879
 5404SOL    HW321389   6.419   3.041   3.141  0.2450 -0.7959 -1.5162
 5404SOL    MW421390   6.385   3.115   3.173  0.4334 -1.3972  0.1675
 5405SOL     OW21391   0.353   6.230   0.006 -0.2307  0.1724  0.2387
 5405SOL    HW221392   0.408   6.160   0.042  1.7921  0.8465 -1.3236
 5405SOL    HW321393   0.389   6.245  -0.082 -1.5675  2.1569 -0.0262
 5405SOL    MW421394   0.365   6.223  -0.001 -0.1402  0.5232 -0.0023
 5406SOL     OW21395   2.575   6.070   4.154 -0.4567 -0.0377  0.2961
 5406SOL    HW221396   2.488   6.037   4.177 -0.9610  1.0560  0.0139
 5406SOL    HW321397   2.586   6.046   4.062 -1.4516  1.8147 -0.3528
 5406SOL    MW421398   2.565   6.063   4.145 -0.6545  0.3510  0.1732
 5407SOL     OW21399   1.967   6.302   2.484  0.0714 -0.1969  0.4021
 5407SOL    HW221400   1.876   6.275   2.487  0.2471 -1.0297 -0.7610
 5407SOL    HW321401   2.003   6.255   2.408  1.4862  0.0317  0.9014
 5407SOL    MW421402   1.960   6.292   2.474  0.2812 -0.2766  0.3145
 5408SOL     OW21403   4.829   0.013   4.695 -0.4257  0.4471 -0.3747
 5408SOL    HW221404   4.879   0.004   4.614  2.8070 -0.4075  1.5226
 5408SOL    HW321405   4.814   0.107   4.702  0.3195  0.6683 -1.3852
 5408SOL    MW421406   4.834   0.024   4.685  0.0991  0.3635 -0.2577
 5409SOL     OW21407   3.947   2.386   1.636  0.5077  0.4144  0.1182
 5409SOL    HW221408   4.010   2.323   1.671  1.5669  0.2752 -1.9313
 5409SOL    HW321409   3.865   2.337   1.631  0.4828  0.2390  1.6853
 5409SOL    MW421410   3.945   2.371   1.640  0.6442  0.3729  0.0546
 5410SOL     OW21411   2.712   2.296   3.979 -0.5639  0.0250 -0.3715
 5410SOL    HW221412   2.798   2.334   3.997 -0.6914 -0.3208  1.1577
 5410SOL    HW321413   2.650   2.357   4.019 -1.0692  0.4636 -1.7969
 5410SOL    MW421414   2.715   2.309   3.987 -0.6474  0.0372 -0.3578
 5411SOL     OW21415   5.556   0.764   1.462 -0.1494  0.0211 -0.3868
 5411SOL    HW221416   5.524   0.766   1.372  1.7821 -0.4001 -1.1250
 5411SOL    HW321417   5.600   0.848   1.473 -1.2612  0.5083  0.5450
 5411SOL    MW421418   5.558   0.776   1.451 -0.0413  0.0298 -0.3613
 5412SOL     OW21419   1.687   0.106   6.210 -1.2313  0.3814 -0.0996
 5412SOL    HW221420   1.771   0.068   6.236 -1.4868 -0.7727 -0.8809
 5412SOL    HW321421   1.630   0.089   6.285 -1.2676 -0.5949 -0.3250
 5412SOL    MW421422   1.691   0.098   6.223 -1.2698  0.1003 -0.2324
 5413SOL     OW21423   0.935   2.914   1.068 -0.3904  0.0244  0.1203
 5413SOL    HW221424   0.882   2.834   1.072 -0.6874  0.2695  1.2442
 5413SOL    HW321425   1.024   2.883   1.050 -0.8689 -0.3941 -1.7029
 5413SOL    MW421426   0.940   2.899   1.066 -0.4927  0.0015  0.0280
 5414SOL     OW21427   5.763   3.820   0.724 -0.0132  0.0670 -0.2506
 5414SOL    HW221428   5.801   3.893   0.772  0.2281  0.3457 -0.8625
 5414SOL    HW321429   5.717   3.860   0.650 -0.6564 -0.3341 -0.0841
 5414SOL    MW421430   5.762   3.835   0.721 -0.0662  0.0508 -0.3093
 5415SOL     OW21431   2.566   2.109   6.405 -0.2655 -0.1469 -0.7025
 5415SOL    HW221432   2.542   2.160   6.328 -0.9022  1.3584  0.4322
 5415SOL    HW321433   2.644   2.151   6.439 -1.1485  0.5254  0.5962
 5415SOL    MW421434   2.573   2.121   6.400 -0.4660  0.1404 -0.3814
 5416SOL     OW21435   0.596   6.259   1.148 -0.0075 -0.0352 -0.3342
 5416SOL    HW221436   0.637   6.281   1.064 -0.0674 -0.0304 -0.3626
 5416SOL    HW321437   0.577   6.344   1.188 -1.2102 -0.0053 -0.9172
 5416SOL    MW421438   0.598   6.273   1.142 -0.1741 -0.0306 -0.4149
 5417SOL     OW21439   5.188   3.634   1.812  0.0097 -0.1583 -0.4137
 5417SOL    HW221440   5.190   3.644   1.907  2.5806  1.5382 -0.5512
 5417SOL    HW321441   5.136   3.555   1.798 -0.2504 -0.5993  2.4020
 5417SOL    MW421442   5.182   3.625   1.823  0.3146  0.0074 -0.0604
 5418SOL     OW21443   6.318   3.814   3.379  0.2563 -0.0311 -0.6124
 5418SOL    HW221444   6.238   3.786   3.425  0.3701 -1.4732 -1.2534
 5418SOL    HW321445   6.382   3.745   3.398  0.6523 -0.0694 -1.9894
 5418SOL    MW421446   6.316   3.801   3.388  0.3236 -0.2264 -0.8786
 5419SOL     OW21447   1.763   2.902   4.364 -0.1712  0.3079 -0.5320
 5419SOL    HW221448   1.840   2.851   4.390 -0.6195  0.0207  0.2764
 5419SOL    HW321449   1.723   2.852   4.293 -0.9927 -0.8637  0.7115
 5419SOL    MW421450   1.768   2.889   4.358 -0.3388  0.1154 -0.2613
 5420SOL     OW21451   1.503   3.173   1.534  0.3698  0.0164 -0.2842
 5420SOL    HW221452   1.426   3.149   1.482 -0.7411  0.6812  0.9858
 5420SOL    HW321453   1.568   3.106   1.515 -0.8877 -1.1297 -0.6285
 5420SOL    MW421454   1.501   3.161   1.525  0.0573 -0.0471 -0.1621
 5421SOL     OW21455   1.043   5.384   2.165 -0.3790  0.2141  0.2289
 5421SOL    HW221456   1.092   5.308   2.196  0.7560  1.8815  2.8942
 5421SOL    HW321457   1.076   5.400   2.076  1.2875 -0.8655  0.6133
 5421SOL    MW421458   1.054   5.376   2.157 -0.0094  0.2917  0.6312
 5422SOL     OW21459   0.500   2.197   5.645 -0.2691 -0.5955 -0.4800
 5422SOL    HW221460   0.468   2.189   5.735 -2.3669 -0.1172 -1.1199
 5422SOL    HW321461   0.431   2.158   5.591  1.7942 -2.6376 -1.8192
 5422SOL    MW421462   0.486   2.191   5.650 -0.2737 -0.8018 -0.7411
 5423SOL     OW21463   0.504   5.987   4.625 -0.0865  0.0565  0.3508
 5423SOL    HW221464   0.421   6.034   4.636 -1.1553 -2.1154  2.6485
 5423SOL    HW321465   0.553   6.007   4.705  1.2982  0.6194 -0.6003
 5423SOL    MW421466   0.499   5.996   4.637 -0.0448 -0.1558  0.5284
 5424SOL     OW21467   1.825   3.978   4.774  0.1092  0.0226  0.0355
 5424SOL    HW221468   1.820   4.041   4.846 -0.1437  0.0312  0.0100
 5424SOL    HW321469   1.758   4.006   4.712  0.5729  0.2256 -0.3755
 5424SOL    MW421470   1.816   3.990   4.776  0.1370  0.0505 -0.0221
 5425SOL     OW21471   0.104   1.233   1.861 -0.0379 -0.3728  0.2379
 5425SOL    HW221472   0.128   1.171   1.929  0.1076 -0.9206 -0.3073
 5425SOL    HW321473   0.013   1.212   1.840  0.2815 -0.9972 -0.5688
 5425SOL    MW421474   0.095   1.222   1.867  0.0234 -0.5275  0.0595
 5426SOL     OW21475   2.168   3.384   4.369 -0.2258  0.2152 -0.1867
 5426SOL    HW221476   2.165   3.388   4.273 -0.1163 -1.6487 -0.3013
 5426SOL    HW321477   2.089   3.431   4.398 -1.8745 -1.6968 -1.3189
 5426SOL    MW421478   2.157   3.391   4.360 -0.4289 -0.2830 -0.3512
 5427SOL     OW21479   4.920   5.659   1.437  0.3168 -0.5282  0.5962
 5427SOL    HW221480   4.872   5.633   1.359  0.7641  1.9766 -0.6064
 5427SOL    HW321481   5.004   5.613   1.430  0.4664 -0.1006 -0.5595
 5427SOL    MW421482   4.925   5.649   1.426  0.3955 -0.1413  0.2850
 5428SOL     OW21483   2.979   5.591   4.167 -0.6702  0.0773 -0.0283
 5428SOL    HW221484   2.925   5.580   4.246 -0.6370 -0.2112 -0.0425
 5428SOL    HW321485   3.069   5.584   4.199 -0.6697 -1.3187 -0.2564
 5428SOL    MW421486   2.984   5.588   4.182 -0.6658 -0.1450 -0.0602
 5429SOL     OW21487   6.346   4.278   1.216  0.3853 -0.3571  0.3693
 5429SOL    HW221488   6.308   4.366   1.211 -0.9555 -0.9748 -1.6331
 5429SOL    HW321489   6.421   4.281   1.157  0.2767 -0.5735  0.2189
 5429SOL    MW421490   6.351   4.290   1.208  0.1941 -0.4671  0.0852
 5430SOL     OW21491   1.046   4.542   1.457  0.1464 -0.0113  0.0010
 5430SOL    HW221492   1.047   4.447   1.468 -1.3225 -0.0204  0.3692
 5430SOL    HW321493   1.087   4.576   1.537  0.1642 -0.3372  0.1315
 5430SOL    MW421494   1.051   4.534   1.469 -0.0451 -0.0555  0.0668
 5431SOL     OW21495   3.390   2.563   6.363  0.4260 -0.1382  0.0594
 5431SOL    HW221496   3.335   2.629   6.322 -1.7954 -3.0151 -1.9682
 5431SOL    HW321497   3.352   2.551   6.450  0.3931  0.7170  0.1683
 5431SOL    MW421498   3.378   2.570   6.369  0.1286 -0.4049 -0.1938
 5432SOL     OW21499   4.111   4.449   0.938 -0.2733 -0.7655 -0.3421
 5432SOL    HW221500   4.184   4.407   0.983  0.9242  0.1583 -1.3396
 5432SOL    HW321501   4.054   4.377   0.912  0.8928 -1.6342 -0.5861
 5432SOL    MW421502   4.113   4.434   0.940  0.0386 -0.7583 -0.5059
 5433SOL     OW21503   4.179   5.316   1.610 -0.5186 -0.8838 -0.0310
 5433SOL    HW221504   4.252   5.318   1.671 -2.6607  1.8929  2.7687
 5433SOL    HW321505   4.114   5.260   1.652 -1.5245 -0.0615 -0.4429
 5433SOL    MW421506   4.180   5.309   1.623 -0.9339 -0.4089  0.2840
 5434SOL     OW21507   5.572   2.292   0.256 -0.0761 -0.7723 -0.2388
 5434SOL    HW221508   5.642   2.340   0.212  0.6243 -0.6535  0.9497
 5434SOL    HW321509   5.617   2.235   0.318 -1.0223 -0.5779  0.6647
 5434SOL    MW421510   5.587   2.291   0.258 -0.1085 -0.7310  0.0372
 5435SOL     OW21511   2.473   0.089   2.734 -0.8098  0.7876  0.3518
 5435SOL    HW221512   2.474   0.068   2.640  1.2553 -0.8798  0.6785
 5435SOL    HW321513   2.441   0.009   2.776  1.3297  0.3439  1.2430
 5435SOL    MW421514   2.469   0.076   2.727 -0.2550  0.5091  0.5125
 5436SOL     OW21515   3.262   2.819   5.516  0.0679 -0.5568 -0.3064
 5436SOL    HW221516   3.279   2.726   5.531  0.8437 -0.5531 -1.0284
 5436SOL    HW321517   3.349   2.857   5.508 -0.2560  0.1018 -0.7357
 5436SOL    MW421518   3.276   2.811   5.517  0.1275 -0.4694 -0.4583
 5437SOL     OW21519   2.941   0.377   3.637  0.6732 -0.3658  0.2677
 5437SOL    HW221520   2.932   0.345   3.727  0.8013 -0.4749  0.2426
 5437SOL    HW321521   3.036   0.379   3.622  0.6278 -1.9660 -0.4372
 5437SOL    MW421522   2.952   0.373   3.647  0.6841 -0.5913  0.1714
 5438SOL     OW21523   1.650   4.174   3.435 -0.0510 -0.3745 -0.4461
 5438SOL    HW221524   1.575   4.233   3.450 -0.4355 -0.6424 -1.2679
 5438SOL    HW321525   1.614   4.103   3.382  0.6722 -0.7760 -0.4049
 5438SOL    MW421526   1.635   4.172   3.430 -0.0063 -0.4628 -0.5491
 5439SOL     OW21527   3.050   5.084   0.907 -0.1897 -0.2064 -0.6287
 5439SOL    HW221528   3.112   5.061   0.838  0.6127 -3.4077  0.9699
 5439SOL    HW321529   3.100   5.079   0.988 -1.5677  1.5168  0.4181
 5439SOL    MW421530   3.065   5.080   0.908 -0.2657 -0.4014 -0.2796
 5440SOL     OW21531   0.870   4.784   0.647  0.4437 -0.1749  0.2894
 5440SOL    HW221532   0.891   4.878   0.646  1.2039 -0.2784  2.1483
 5440SOL    HW321533   0.844   4.766   0.737  0.5198 -1.8011  0.0174
 5440SOL    MW421534   0.869   4.794   0.659  0.5540 -0.4031  0.4988
 5441SOL     OW21535   5.076   6.309   1.631  0.0166 -0.3797 -0.0417
 5441SOL    HW221536   5.034   6.340   1.550 -1.9453 -3.2833 -0.2788
 5441SOL    HW321537   5.016   6.336   1.700  1.2922  1.3934  0.4367
 5441SOL    MW421538   5.062   6.317   1.629 -0.0740 -0.5288 -0.0098
 5442SOL     OW21539   3.978   4.473   4.233 -0.1251 -0.2740  0.9377
 5442SOL    HW221540   4.069   4.460   4.262  0.4816  1.0942 -0.2340
 5442SOL    HW321541   3.964   4.567   4.238 -0.7048 -0.2108 -1.0339
 5442SOL    MW421542   3.988   4.483   4.237 -0.1215 -0.0851  0.5230
 5443SOL     OW21543   2.611   5.474   1.532 -0.2193  0.7732  0.3117
 5443SOL    HW221544   2.605   5.556   1.581  1.0280  0.6703  0.6600
 5443SOL    HW321545   2.629   5.407   1.598  0.8030  0.5352 -0.1913
 5443SOL    MW421546   2.613   5.476   1.547  0.0801  0.7282  0.2913
 5444SOL     OW21547   4.256   1.376   3.577  0.1243  0.2574 -0.1306
 5444SOL    HW221548   4.276   1.395   3.668 -0.0189 -0.0751 -0.0290
 5444SOL    HW321549   4.341   1.357   3.537  0.0681 -0.7825  0.2130
 5444SOL    MW421550   4.270   1.376   3.583  0.0980  0.0763 -0.0719
 5445SOL     OW21551   5.574   3.058   1.502 -0.0935  0.0607 -0.0554
 5445SOL    HW221552   5.659   3.052   1.547 -0.4279  0.7146  0.7124
 5445SOL    HW321553   5.593   3.105   1.421  0.5237 -1.1268 -0.6079
 5445SOL    MW421554   5.588   3.064   1.498 -0.0562 -0.0097 -0.0270
 5446SOL     OW21555   1.751   2.125   3.445 -0.1708 -0.1424  0.4450
 5446SOL    HW221556   1.777   2.033   3.454 -0.5205 -0.1698  1.3204
 5446SOL    HW321557   1.705   2.128   3.361  0.9878 -0.4749 -0.2277
 5446SOL    MW421558   1.748   2.113   3.435 -0.0641 -0.1899  0.4718
 5447SOL     OW21559   1.622   6.291   1.241 -0.0163  0.3455 -0.0263
 5447SOL    HW221560   1.660   6.204   1.225 -1.3681  0.0366 -1.9614
 5447SOL    HW321561   1.542   6.273   1.291 -0.5908  0.3808 -0.9030
 5447SOL    MW421562   1.616   6.277   1.246 -0.2705  0.3094 -0.3973
 5448SOL     OW21563   0.773   5.555   4.467 -0.4382 -0.1203  0.4232
 5448SOL    HW221564   0.790   5.620   4.535 -1.5487 -0.4950  1.0961
 5448SOL    HW321565   0.858   5.538   4.427  0.3725 -0.3819  2.1712
 5448SOL    MW421566   0.786   5.561   4.470 -0.4778 -0.2042  0.7426
 5449SOL     OW21567   2.655   4.930   1.761  0.2251  0.6404  0.1447
 5449SOL    HW221568   2.651   4.975   1.846  3.1879  0.2417  0.6045
 5449SOL    HW321569   2.735   4.963   1.720 -0.1248 -0.6233 -1.6658
 5449SOL    MW421570   2.665   4.940   1.767  0.5699  0.4211 -0.0335
 5450SOL     OW21571   5.294   0.762   0.117  0.4868 -0.1467 -0.4177
 5450SOL    HW221572   5.349   0.703   0.065  1.4923 -0.6376  1.1678
 5450SOL    HW321573   5.206   0.725   0.109  0.8067 -0.8250 -0.8909
 5450SOL    MW421574   5.289   0.750   0.109  0.6617 -0.3010 -0.2710
 5451SOL     OW21575   3.447   4.058   3.336 -0.1295 -0.0968  0.3443
 5451SOL    HW221576   3.351   4.060   3.344 -0.0235  0.2584  1.7176
 5451SOL    HW321577   3.479   4.064   3.426  1.2006  0.0918 -0.1185
 5451SOL    MW421578   3.438   4.059   3.349  0.0599 -0.0250  0.4644
 5452SOL     OW21579   5.364   3.439   0.821 -0.0982  0.9070 -0.3524
 5452SOL    HW221580   5.452   3.414   0.848  0.2035  1.1650 -1.0803
 5452SOL    HW321581   5.317   3.452   0.903  0.7180  1.3845  0.0527
 5452SOL    MW421582   5.369   3.438   0.835  0.0493  1.0041 -0.3950
 5453SOL     OW21583   0.641   5.976   3.139 -0.2874 -0.0040 -0.1002
 5453SOL    HW221584   0.589   5.917   3.194 -1.1909  0.2563 -0.6675
 5453SOL    HW321585   0.584   5.997   3.066  0.8861 -0.3076 -1.1346
 5453SOL    MW421586   0.627   5.971   3.137 -0.2518 -0.0097 -0.3115
 5454SOL     OW21587   4.653   2.702   0.116  0.4200 -0.0887 -0.4054
 5454SOL    HW221588   4.580   2.691   0.056  0.4831  0.2606 -0.5488
 5454SOL    HW321589   4.710   2.627   0.098  0.3366 -0.0982 -0.6341
 5454SOL    MW421590   4.651   2.691   0.105  0.4174 -0.0439 -0.4545
 5455SOL     OW21591   2.783   2.816   1.199  0.4826 -0.3749 -0.0812
 5455SOL    HW221592   2.855   2.810   1.262  0.9899 -1.5650 -0.7351
 5455SOL    HW321593   2.704   2.820   1.253  1.0211  0.7737  0.6448
 5455SOL    MW421594   2.782   2.816   1.214  0.6206 -0.3804 -0.0717
 5456SOL     OW21595   3.158   1.447   5.696  0.7847  0.0604  0.9287
 5456SOL    HW221596   3.209   1.448   5.777  1.6596 -0.4529  0.4030
 5456SOL    HW321597   3.222   1.466   5.627 -0.0108  0.8457  0.3833
 5456SOL    MW421598   3.173   1.450   5.697  0.7952  0.0963  0.7874
 5457SOL     OW21599   3.284   5.543   4.834 -0.7335 -0.3570 -0.6975
 5457SOL    HW221600   3.294   5.614   4.898  0.4693  0.1482 -1.4061
 5457SOL    HW321601   3.357   5.484   4.852 -2.1351 -1.8605  0.3643
 5457SOL    MW421602   3.295   5.545   4.845 -0.7597 -0.4887 -0.6509
 5458SOL     OW21603   3.974   0.255   5.894  0.0120 -0.9118  0.2957
 5458SOL    HW221604   3.963   0.237   5.987  1.1680  0.3795  0.7215
 5458SOL    HW321605   4.017   0.177   5.859  1.3849 -0.6199  1.2722
 5458SOL    MW421606   3.978   0.242   5.902  0.3456 -0.7029  0.4807
 5459SOL     OW21607   3.741   0.039   5.160  0.0956 -0.6182 -0.4484
 5459SOL    HW221608   3.814   0.082   5.114  0.3166 -0.4006  0.0960
 5459SOL    HW321609   3.762  -0.054   5.156  0.8993 -0.4945  0.5166
 5459SOL    MW421610   3.754   0.032   5.153  0.2308 -0.5732 -0.2493
 5460SOL     OW21611   4.976   1.303   1.666  0.0846 -0.5995 -0.0705
 5460SOL    HW221612   5.036   1.344   1.729  0.2751 -0.3281 -0.4263
 5460SOL    HW321613   5.022   1.225   1.636  0.4291 -0.1848 -0.6335
 5460SOL    MW421614   4.990   1.298   1.670  0.1552 -0.5090 -0.1917
 5461SOL     OW21615   5.555   0.779   4.130  0.1176 -0.0449  0.0054
 5461SOL    HW221616   5.521   0.852   4.181 -0.3248  0.5046 -1.0273
 5461SOL    HW321617   5.595   0.821   4.053 -1.9366 -0.9316 -1.6416
 5461SOL    MW421618   5.556   0.795   4.126 -0.2118 -0.0894 -0.3482
 5462SOL     OW21619   1.868   3.245   2.640 -0.0654  0.2795  0.0775
 5462SOL    HW221620   1.781   3.257   2.602  0.0791  1.0064 -0.0375
 5462SOL    HW321621   1.855   3.250   2.735  0.0154  1.6953  0.0401
 5462SOL    MW421622   1.855   3.247   2.648 -0.0357  0.5622  0.0574
 5463SOL     OW21623   1.988   1.525   3.915 -0.4033 -0.2538  0.0227
 5463SOL    HW221624   2.071   1.558   3.880  0.1871  0.4940  1.9495
 5463SOL    HW321625   1.961   1.592   3.978 -1.0564 -1.7560  1.4165
 5463SOL    MW421626   1.995   1.538   3.919 -0.4116 -0.3533  0.4608
 5464SOL     OW21627   1.457   2.878   0.171  0.5779 -0.3088 -0.1845
 5464SOL    HW221628   1.403   2.936   0.118 -0.5633 -0.3259  0.9218
 5464SOL    HW321629   1.514   2.834   0.108 -0.3836  0.0405 -1.3316
 5464SOL    MW421630   1.457   2.880   0.156  0.3005 -0.2650 -0.1899
 5465SOL     OW21631   0.173   1.085   1.583  0.0788 -0.3135  0.1935
 5465SOL    HW221632   0.242   1.141   1.618  0.3355  0.2840 -1.2012
 5465SOL    HW321633   0.189   1.084   1.489 -1.2254 -0.9922 -0.0373
 5465SOL    MW421634   0.185   1.092   1.575 -0.0594 -0.3242 -0.0210
 5466SOL     OW21635   2.696   1.142   3.766  0.5817  0.1878  0.1207
 5466SOL    HW221636   2.724   1.151   3.857 -2.3592 -2.2831  1.4208
 5466SOL    HW321637   2.627   1.207   3.755 -1.2697 -1.5507  0.7784
 5466SOL    MW421638   2.691   1.152   3.776 -0.0506 -0.3676  0.3790
 5467SOL     OW21639   5.785   5.986   1.443  0.7323  0.3777  0.3407
 5467SOL    HW221640   5.700   5.956   1.476  0.9823 -1.2446 -0.4041
 5467SOL    HW321641   5.762   6.052   1.377  0.0501  0.0961  0.2843
 5467SOL    MW421642   5.771   5.991   1.439  0.6752  0.1265  0.2350
 5468SOL     OW21643   3.256   3.538   2.961 -0.6676  0.1483 -0.1141
 5468SOL    HW221644   3.349   3.527   2.977 -0.7972 -0.1551  0.4681
 5468SOL    HW321645   3.245   3.631   2.939 -0.4195  0.5179  1.2291
 5468SOL    MW421646   3.267   3.549   2.960 -0.6520  0.1570  0.1400
 5469SOL     OW21647   0.369   5.582   4.262 -0.1548  0.3206 -0.5137
 5469SOL    HW221648   0.357   5.560   4.354 -0.5956  0.9385 -0.4165
 5469SOL    HW321649   0.463   5.603   4.255  0.0791 -0.6690 -0.4218
 5469SOL    MW421650   0.380   5.582   4.273 -0.1821  0.2715 -0.4887
 5470SOL     OW21651   3.035   6.381   2.016  0.0276  0.0255 -0.2649
 5470SOL    HW221652   3.107   6.322   2.039  0.2405  0.2600 -0.3299
 5470SOL    HW321653   2.962   6.352   2.071  0.2066 -0.1325 -0.1093
 5470SOL    MW421654   3.035   6.369   2.026  0.0793  0.0356 -0.2529
 5471SOL     OW21655   1.802   2.140   4.694 -0.3306 -0.1024 -0.0670
 5471SOL    HW221656   1.869   2.195   4.735 -0.2717  0.0268 -0.3346
 5471SOL    HW321657   1.755   2.200   4.636  0.5300 -0.5980 -1.3017
 5471SOL    MW421658   1.805   2.155   4.692 -0.2093 -0.1507 -0.2652
 5472SOL     OW21659   0.142   5.351   5.354  0.6411  0.4892  0.1215
 5472SOL    HW221660   0.128   5.258   5.335 -0.7638  0.6154  0.4548
 5472SOL    HW321661   0.216   5.375   5.299 -0.2137 -0.3515 -1.4711
 5472SOL    MW421662   0.150   5.342   5.344  0.3430  0.3949 -0.0447
 5473SOL     OW21663   0.191   4.063   1.546 -0.1038  0.0863 -0.0294
 5473SOL    HW221664   0.126   4.116   1.500  1.2124  1.4073 -0.4439
 5473SOL    HW321665   0.146   4.031   1.624 -2.0088 -1.1798 -1.5724
 5473SOL    MW421666   0.177   4.066   1.551 -0.1814  0.0936 -0.2877
 5474SOL     OW21667   1.539   6.379   6.403  0.1122  0.2241 -0.4151
 5474SOL    HW221668   1.511   6.365   6.493 -0.3784 -1.3348 -0.7817
 5474SOL    HW321669   1.631   6.354   6.402  0.8907  2.7555  0.1859
 5474SOL    MW421670   1.547   6.374   6.415  0.1502  0.3524 -0.3841
 5475SOL     OW21671   3.765   3.037   3.145 -0.1532 -0.1587 -0.5297
 5475SOL    HW221672   3.713   2.962   3.116 -0.4536  0.0259 -0.4697
 5475SOL    HW321673   3.703   3.091   3.194  0.6889 -1.2884  1.9663
 5475SOL    MW421674   3.750   3.034   3.147 -0.0818 -0.2834 -0.1925
 5476SOL     OW21675   2.746   3.672   6.016 -0.0536  0.7014  0.2505
 5476SOL    HW221676   2.738   3.578   6.004  2.9491  0.4150 -0.3233
 5476SOL    HW321677   2.706   3.689   6.101 -0.9287 -1.0202  0.2256
 5476SOL    MW421678   2.740   3.662   6.026  0.2271  0.4365  0.1715
 5477SOL     OW21679   5.006   4.902   4.617  0.0766  0.7829 -0.8409
 5477SOL    HW221680   4.987   4.818   4.575  1.2042 -0.5637  1.1801
 5477SOL    HW321681   5.101   4.905   4.625  0.0148  1.9175 -0.2106
 5477SOL    MW421682   5.016   4.891   4.613  0.2172  0.7549 -0.4911
 5478SOL     OW21683   3.313   5.327   2.173 -0.0887 -0.4304 -0.1811
 5478SOL    HW221684   3.398   5.283   2.175 -0.1767 -0.6015 -0.2069
 5478SOL    HW321685   3.298   5.346   2.080  0.1932  0.1337 -0.1198
 5478SOL    MW421686   3.322   5.324   2.161 -0.0631 -0.3786 -0.1764
 5479SOL     OW21687   3.984   2.195   4.180  0.3946  0.2252 -0.3578
 5479SOL    HW221688   4.039   2.244   4.118 -0.2059  1.1293 -0.1869
 5479SOL    HW321689   3.944   2.262   4.235  0.2593 -0.5220  0.4746
 5479SOL    MW421690   3.986   2.210   4.179  0.2975  0.2459 -0.2254
 5480SOL     OW21691   3.551   0.406   4.883 -0.2513  0.5346  0.7207
 5480SOL    HW221692   3.632   0.401   4.934 -0.3854 -2.7006  0.8373
 5480SOL    HW321693   3.488   0.355   4.934 -1.9353  1.6907 -0.1298
 5480SOL    MW421694   3.553   0.398   4.897 -0.4912  0.2603  0.6239
 5481SOL     OW21695   4.890   3.011   2.533 -0.0214 -0.5786 -0.1161
 5481SOL    HW221696   4.795   3.020   2.544  0.0038  1.2621 -1.0152
 5481SOL    HW321697   4.906   2.917   2.538 -1.9467 -0.9512 -0.2805
 5481SOL    MW421698   4.879   3.000   2.535 -0.2721 -0.3849 -0.2564
 5482SOL     OW21699   6.217   3.860   1.103 -0.3033 -0.3535  0.1304
 5482SOL    HW221700   6.234   3.827   1.015 -3.7281 -0.6353 -0.5517
 5482SOL    HW321701   6.128   3.832   1.123 -0.2610  1.1548  3.0259
 5482SOL    MW421702   6.208   3.852   1.094 -0.7496 -0.1917  0.4224
 5483SOL     OW21703   6.349   0.500   0.201  0.1937  0.0711  0.4019
 5483SOL    HW221704   6.311   0.582   0.169 -0.7857 -0.5326 -0.0284
 5483SOL    HW321705   6.393   0.463   0.124 -0.0235 -0.1690  0.3901
 5483SOL    MW421706   6.350   0.506   0.186  0.0358 -0.0402  0.3435
 5484SOL     OW21707   2.212   1.048   3.367 -0.4083 -0.0002  0.2192
 5484SOL    HW221708   2.171   1.061   3.452  1.3796 -0.0076  1.1205
 5484SOL    HW321709   2.153   0.988   3.321 -2.3129  1.3967  0.7383
 5484SOL    MW421710   2.199   1.042   3.372 -0.4237  0.1831  0.4066
 5485SOL     OW21711   1.233   5.721   1.197 -0.3994 -0.3580  0.4068
 5485SOL    HW221712   1.242   5.803   1.245 -0.3071 -0.3302  0.3432
 5485SOL    HW321713   1.139   5.713   1.181 -0.4060 -0.2493  0.3882
 5485SOL    MW421714   1.222   5.731   1.201 -0.3881 -0.3400  0.3959
 5486SOL     OW21715   5.322   4.335   6.313  0.1235  0.3869  0.4123
 5486SOL    HW221716   5.385   4.335   6.385  2.2387  0.7677 -1.3108
 5486SOL    HW321717   5.376   4.344   6.235 -2.0535 -0.1547 -1.2514
 5486SOL    MW421718   5.337   4.336   6.312  0.1153  0.3657 -0.0345
 5487SOL     OW21719   1.034   0.538   0.674  0.5701 -0.3891 -0.5124
 5487SOL    HW221720   1.125   0.564   0.689  0.6572 -1.1320  0.3277
 5487SOL    HW321721   1.010   0.581   0.592  2.4905 -2.1614 -2.1349
 5487SOL    MW421722   1.043   0.547   0.665  0.8350 -0.7210 -0.6156
 5488SOL     OW21723   5.977   5.304   6.081 -0.8117 -0.8076  0.2281
 5488SOL    HW221724   6.006   5.259   6.160 -0.7169  2.2461  2.1339
 5488SOL    HW321725   6.048   5.291   6.018  1.3724  0.4018  2.2647
 5488SOL    MW421726   5.990   5.297   6.083 -0.5110 -0.2452  0.7483
 5489SOL     OW21727   5.981   4.113   1.300  0.2642  0.1620  0.2721
 5489SOL    HW221728   5.992   4.186   1.238 -1.0211 -0.1246 -0.3239
 5489SOL    HW321729   6.064   4.066   1.295 -0.1643 -0.4643 -2.0863
 5489SOL    MW421730   5.994   4.117   1.291  0.0381  0.0416 -0.1177
 5490SOL     OW21731   5.148   4.790   1.842  0.1168 -0.6359 -0.2229
 5490SOL    HW221732   5.112   4.869   1.801  0.7417  0.2496  0.8790
 5490SOL    HW321733   5.077   4.757   1.896  0.4444  0.2982  0.8275
 5490SOL    MW421734   5.134   4.796   1.843  0.2424 -0.3958  0.0611
 5491SOL     OW21735   1.608   1.470   2.868  0.0208 -0.1358 -0.2406
 5491SOL    HW221736   1.535   1.412   2.846 -0.0012  0.3338 -1.4739
 5491SOL    HW321737   1.579   1.557   2.842  0.9696  0.0820 -0.6247
 5491SOL    MW421738   1.595   1.474   2.862  0.1431 -0.0451 -0.4540
 5492SOL     OW21739   5.742   2.346   4.224 -0.1380 -0.1920  0.2086
 5492SOL    HW221740   5.744   2.441   4.233  1.4108 -0.3550  2.1018
 5492SOL    HW321741   5.760   2.313   4.311 -0.3662 -2.2509 -0.4651
 5492SOL    MW421742   5.744   2.354   4.236  0.0363 -0.4852  0.3695
 5493SOL     OW21743   2.310   0.680   1.949  0.5141  0.0441 -1.0139
 5493SOL    HW221744   2.376   0.622   1.912  1.6219 -0.5650  1.6749
 5493SOL    HW321745   2.234   0.623   1.965  1.5618 -0.8043  1.5206
 5493SOL    MW421746   2.309   0.664   1.946  0.7985 -0.1482 -0.3247
 5494SOL     OW21747   0.689   1.370   5.654 -0.4631 -0.7259  0.4380
 5494SOL    HW221748   0.637   1.328   5.723 -0.1424  1.8038  2.3757
 5494SOL    HW321749   0.639   1.448   5.631  0.4334 -0.4789 -0.7592
 5494SOL    MW421750   0.675   1.374   5.660 -0.3025 -0.3596  0.5357
 5495SOL     OW21751   2.544   5.969   3.509 -0.1130  0.2694 -0.0975
 5495SOL    HW221752   2.492   6.017   3.574 -2.2960 -2.7880  0.6084
 5495SOL    HW321753   2.492   5.973   3.429  1.1361  1.4554 -0.9123
 5495SOL    MW421754   2.531   5.976   3.507 -0.2362  0.0225 -0.1119
 5496SOL     OW21755   2.308   1.321   0.226  0.3889  0.2161  0.0230
 5496SOL    HW221756   2.241   1.389   0.238  1.5598  1.4654 -0.3807
 5496SOL    HW321757   2.391   1.367   0.231  1.2215 -1.1725 -0.4369
 5496SOL    MW421758   2.310   1.336   0.228  0.6532  0.1977 -0.0909
 5497SOL     OW21759   0.546   3.302   1.471 -0.4354  0.1537 -0.9353
 5497SOL    HW221760   0.601   3.361   1.418 -1.8441 -0.1594 -2.8705
 5497SOL    HW321761   0.569   3.215   1.441 -1.4362 -0.0180 -1.2273
 5497SOL    MW421762   0.556   3.299   1.460 -0.7533  0.0898 -1.2291
 5498SOL     OW21763   0.054   1.481   3.168 -0.3308 -0.5693  0.7347
 5498SOL    HW221764   0.057   1.510   3.259 -1.9016  0.9226  0.3586
 5498SOL    HW321765   0.122   1.531   3.123 -0.1634 -0.6507  0.8948
 5498SOL    MW421766   0.063   1.491   3.174 -0.5160 -0.3832  0.7062
 5499SOL     OW21767   0.525   5.257   1.487  0.0520  0.0456  0.1410
 5499SOL    HW221768   0.478   5.336   1.461 -1.4838 -0.6802  0.5797
 5499SOL    HW321769   0.530   5.206   1.406 -1.2879 -0.5205  0.3845
 5499SOL    MW421770   0.519   5.261   1.473 -0.3274 -0.1249  0.2310
 5500SOL     OW21771   6.161   2.573   4.401 -0.1202 -0.5196  0.0440
 5500SOL    HW221772   6.188   2.536   4.484  1.2126  0.7632  0.2241
 5500SOL    HW321773   6.094   2.513   4.368  1.4111 -2.6340  0.6363
 5500SOL    MW421774   6.156   2.560   4.407  0.2577 -0.6293  0.1459
 5501SOL     OW21775   5.637   2.465   2.178 -0.2563  0.4976  1.0898
 5501SOL    HW221776   5.559   2.505   2.140 -0.0644  0.4987  0.6971
 5501SOL    HW321777   5.625   2.371   2.163  0.6150  0.6040 -0.5136
 5501SOL    MW421778   5.625   2.458   2.171 -0.1160  0.5118  0.8265
 5502SOL     OW21779   0.633   0.244   4.601  0.0547 -0.1550  0.3220
 5502SOL    HW221780   0.706   0.256   4.662 -0.0537 -0.4372  0.5125
 5502SOL    HW321781   0.634   0.150   4.581  2.4195  0.4194 -3.0623
 5502SOL    MW421782   0.643   0.233   4.607  0.3524 -0.1165 -0.0994
 5503SOL     OW21783   3.262   5.756   4.210  0.0547 -0.1722  0.0461
 5503SOL    HW221784   3.257   5.785   4.119  0.5828 -0.8051 -0.1919
 5503SOL    HW321785   3.220   5.826   4.260 -0.7978 -0.1135 -0.7376
 5503SOL    MW421786   3.256   5.769   4.204  0.0119 -0.2479 -0.0887
 5504SOL     OW21787   0.107   5.166   3.751 -0.0244  0.3813  0.9494
 5504SOL    HW221788   0.111   5.211   3.835  0.5850  0.5824  0.8121
 5504SOL    HW321789   0.047   5.093   3.767  0.9873 -0.2835  1.8955
 5504SOL    MW421790   0.099   5.162   3.764  0.1895  0.3201  1.0561
 5505SOL     OW21791   1.238   3.062   3.814  0.2861  0.0000 -0.6417
 5505SOL    HW221792   1.149   3.070   3.778  0.5843 -1.7381 -1.8935
 5505SOL    HW321793   1.284   3.007   3.751  1.1057 -2.5578  1.9824
 5505SOL    MW421794   1.232   3.056   3.801  0.4335 -0.5668 -0.4606
 5506SOL     OW21795   4.138   4.847   2.200  0.5108 -0.4513 -0.0853
 5506SOL    HW221796   4.045   4.825   2.201  0.8277 -1.8984  0.1910
 5506SOL    HW321797   4.182   4.764   2.180  1.7298  0.2748 -0.5476
 5506SOL    MW421798   4.132   4.833   2.198  0.7135 -0.5464 -0.1099
 5507SOL     OW21799   3.101   2.919   1.104  0.8157  0.1598  0.8626
 5507SOL    HW221800   3.078   2.907   1.012  0.5071  1.0741  0.8104
 5507SOL    HW321801   3.127   2.832   1.134 -0.5168 -0.4694  0.3001
 5507SOL    MW421802   3.101   2.906   1.096  0.5992  0.1974  0.7815
 5508SOL     OW21803   2.319   5.472   0.175 -0.5131  0.2141  0.6412
 5508SOL    HW221804   2.363   5.498   0.256 -1.0452 -0.0746  1.0304
 5508SOL    HW321805   2.312   5.553   0.125  2.2341 -0.0456 -0.3258
 5508SOL    MW421806   2.324   5.486   0.179 -0.2208  0.1417  0.5650
 5509SOL     OW21807   5.477   1.868   5.292  0.0897 -0.2307 -0.1637
 5509SOL    HW221808   5.483   1.821   5.209  0.2078 -2.4069  0.9976
 5509SOL    HW321809   5.568   1.887   5.315  0.1542 -0.8629  0.1170
 5509SOL    MW421810   5.490   1.865   5.284  0.1138 -0.6013  0.0266
 5510SOL     OW21811   1.004   4.065   6.151  0.2224  0.5269  0.4496
 5510SOL    HW221812   1.012   4.092   6.243 -0.2298  1.8871  0.1178
 5510SOL    HW321813   0.997   4.147   6.103 -2.1674 -0.1879 -0.5500
 5510SOL    MW421814   1.004   4.079   6.157 -0.1526  0.6121  0.2740
 5511SOL     OW21815   0.018   1.764   3.822  0.1038 -0.1799  0.0823
 5511SOL    HW221816  -0.064   1.776   3.776 -0.3297  0.2920  0.9468
 5511SOL    HW321817   0.077   1.724   3.758 -0.2559  1.1049 -1.0786
 5511SOL    MW421818   0.015   1.760   3.808 -0.0008  0.0519  0.0432
 5512SOL     OW21819   5.850   1.120   2.491 -0.1983 -0.3693 -0.0428
 5512SOL    HW221820   5.761   1.116   2.527 -0.6000  1.0954 -0.7803
 5512SOL    HW321821   5.907   1.117   2.568 -0.9433  0.1057  0.5478
 5512SOL    MW421822   5.846   1.119   2.506 -0.3496 -0.1134 -0.0622
 5513SOL     OW21823   4.310   0.025   3.514 -0.0208 -0.0600 -0.2982
 5513SOL    HW221824   4.253  -0.001   3.586 -0.5973 -0.6444 -0.9540
 5513SOL    HW321825   4.378   0.078   3.555  0.4548 -1.5398  0.8869
 5513SOL    MW421826   4.311   0.028   3.529 -0.0341 -0.3323 -0.2284
 5514SOL     OW21827   0.990   6.283   0.613  0.1524  0.0364  0.1552
 5514SOL    HW221828   1.039   6.222   0.559  3.4082  1.0725  1.6959
 5514SOL    HW321829   0.941   6.228   0.674  0.8352 -1.0588 -0.2696
 5514SOL    MW421830   0.990   6.268   0.614  0.6720  0.0286  0.3024
 5515SOL     OW21831   3.080   1.567   0.830  0.1255  0.7259 -0.2968
 5515SOL    HW221832   3.064   1.657   0.858  0.8434  0.5942  0.5737
 5515SOL    HW321833   3.154   1.573   0.771  1.5399  0.4983  1.3707
 5515SOL    MW421834   3.087   1.580   0.826  0.4068  0.6785  0.0381
 5516SOL     OW21835   6.403   6.225   1.364  0.3620  0.0744  0.2474
 5516SOL    HW221836   6.352   6.257   1.289 -1.6506 -2.1045  0.5800
 5516SOL    HW321837   6.354   6.255   1.441 -1.2543 -3.0605  0.5701
 5516SOL    MW421838   6.390   6.233   1.364 -0.1168 -0.6267  0.3339
 5517SOL     OW21839   0.424   0.912   1.399  0.8734 -0.0159  0.5000
 5517SOL    HW221840   0.390   0.930   1.312  2.6764 -0.7975 -0.4079
 5517SOL    HW321841   0.507   0.960   1.403  0.6184  0.3604  1.9654
 5517SOL    MW421842   0.430   0.921   1.388  1.0776 -0.0694  0.5735
 5518SOL     OW21843   0.480   3.947   1.264  0.2045 -0.0827 -0.3699
 5518SOL    HW221844   0.489   4.007   1.339  1.5750 -1.6241  0.7588
 5518SOL    HW321845   0.568   3.912   1.250 -0.1892 -0.4190 -2.2378
 5518SOL    MW421846   0.493   3.951   1.272  0.3334 -0.3304 -0.4675
 5519SOL     OW21847   2.483   1.629   5.920 -0.1844  0.5112 -0.7770
 5519SOL    HW221848   2.458   1.578   5.843 -0.1723 -0.3493 -0.2261
 5519SOL    HW321849   2.552   1.688   5.889  1.5803 -1.5056 -0.9278
 5519SOL    MW421850   2.489   1.630   5.906  0.0500  0.1316 -0.7242
 5520SOL     OW21851   4.003   5.184   3.137 -0.6304  0.8304 -0.4160
 5520SOL    HW221852   4.074   5.177   3.073 -0.4187  0.3819 -0.1358
 5520SOL    HW321853   3.931   5.223   3.088 -0.3976  0.6961 -0.8740
 5520SOL    MW421854   4.003   5.188   3.122 -0.5717  0.7535 -0.4395
 5521SOL     OW21855   6.368   4.907   0.391  0.0102 -0.8060 -0.3864
 5521SOL    HW221856   6.411   4.822   0.400 -0.2052 -1.2250 -2.7846
 5521SOL    HW321857   6.436   4.964   0.355 -0.0336 -0.1012  0.6145
 5521SOL    MW421858   6.383   4.903   0.387 -0.0240 -0.7683 -0.5708
 5522SOL     OW21859   5.420   2.964   3.243 -0.0843  0.0579  0.3088
 5522SOL    HW221860   5.469   3.029   3.192  1.1953 -0.0943  1.3028
 5522SOL    HW321861   5.481   2.892   3.256 -1.6061 -1.5983 -1.1213
 5522SOL    MW421862   5.434   2.963   3.238 -0.1162 -0.1807  0.2513
 5523SOL     OW21863   2.990   0.766   3.462  0.1368 -0.3903  0.2833
 5523SOL    HW221864   3.080   0.744   3.437  0.1473 -0.1431  0.1041
 5523SOL    HW321865   2.999   0.798   3.552  0.0702 -1.4649  0.6902
 5523SOL    MW421866   3.003   0.767   3.471  0.1294 -0.4995  0.3133
 5524SOL     OW21867   4.222   5.917   3.996 -0.7786 -0.2111  0.0143
 5524SOL    HW221868   4.317   5.931   4.002 -0.8567  1.6034 -1.7932
 5524SOL    HW321869   4.211   5.824   4.013  1.7408 -1.2327 -2.9127
 5524SOL    MW421870   4.233   5.907   3.999 -0.4565 -0.1065 -0.6103
 5525SOL     OW21871   1.737   1.651   5.073 -0.5904 -0.1686  0.6201
 5525SOL    HW221872   1.768   1.664   5.163 -0.0303  0.8736  0.2869
 5525SOL    HW321873   1.770   1.564   5.050 -0.2613 -0.2163  1.2321
 5525SOL    MW421874   1.745   1.641   5.082 -0.4731 -0.0374  0.6569
 5526SOL     OW21875   2.961   6.090   4.168 -0.2350  0.0369 -0.1224
 5526SOL    HW221876   2.881   6.047   4.199  0.2210 -0.3499  0.5647
 5526SOL    HW321877   2.939   6.183   4.164 -0.4085  0.0628  1.0916
 5526SOL    MW421878   2.948   6.096   4.171 -0.1977 -0.0107  0.1284
 5527SOL     OW21879   4.785   1.300   5.737 -0.2272 -0.1993 -0.6210
 5527SOL    HW221880   4.721   1.278   5.669 -1.1209  0.1614  0.0885
 5527SOL    HW321881   4.802   1.394   5.724  0.4759 -0.3732 -1.0530
 5527SOL    MW421882   4.779   1.310   5.726 -0.2523 -0.1746 -0.5844
 5528SOL     OW21883   5.312   4.311   1.369  0.0706 -0.0327  0.1027
 5528SOL    HW221884   5.226   4.338   1.400 -0.3512 -0.9750 -0.2296
 5528SOL    HW321885   5.328   4.227   1.412  1.0193  0.3393  0.5076
 5528SOL    MW421886   5.303   4.304   1.379  0.1401 -0.1079  0.1123
 5529SOL     OW21887   2.511   3.534   4.081 -0.0810 -0.0015  0.4323
 5529SOL    HW221888   2.487   3.466   4.145  0.0839 -0.2575  0.2232
 5529SOL    HW321889   2.607   3.528   4.075 -0.0879  0.0893  0.2325
 5529SOL    MW421890   2.521   3.524   4.089 -0.0601 -0.0233  0.3783
 5530SOL     OW21891   3.971   5.820   5.712  0.0479  0.2049  0.0735
 5530SOL    HW221892   4.010   5.746   5.759 -0.8479 -1.8859 -2.2513
 5530SOL    HW321893   3.880   5.822   5.741 -0.0597  0.0685 -0.2556
 5530SOL    MW421894   3.964   5.811   5.722 -0.0845 -0.0890 -0.2766
 5531SOL     OW21895   1.078   4.675   1.229 -0.1235  0.0166 -0.0699
 5531SOL    HW221896   1.084   4.618   1.306 -0.9711  0.3151  0.2222
 5531SOL    HW321897   1.147   4.740   1.243 -0.1838 -0.0093  0.3710
 5531SOL    MW421898   1.088   4.676   1.241 -0.2433  0.0526  0.0268
 5532SOL     OW21899   0.336   5.765   1.043  0.2258  0.0781  0.0363
 5532SOL    HW221900   0.424   5.737   1.069  0.1313  1.6364  2.3405
 5532SOL    HW321901   0.346   5.857   1.019 -0.9002  0.5754  1.3429
 5532SOL    MW421902   0.349   5.773   1.043  0.0648  0.3493  0.5127
 5533SOL     OW21903   5.182   2.988   5.437  0.1934  0.6724  0.4703
 5533SOL    HW221904   5.111   2.947   5.485  1.6355 -1.3826  0.9851
 5533SOL    HW321905   5.228   3.041   5.502  0.2817  0.4168  0.6176
 5533SOL    MW421906   5.179   2.990   5.452  0.3953  0.3676  0.5577
 5534SOL     OW21907   3.960   4.857   5.791  0.3440  0.9785  0.0827
 5534SOL    HW221908   3.912   4.883   5.869 -0.9372 -0.7564 -0.0560
 5534SOL    HW321909   4.048   4.837   5.822 -0.3694 -0.4998  1.2796
 5534SOL    MW421910   3.965   4.858   5.805  0.0808  0.5546  0.2223
 5535SOL     OW21911   6.073   3.548   6.400  0.1016 -0.2503 -0.0092
 5535SOL    HW221912   6.083   3.510   6.312  2.0623  1.0259 -0.4162
 5535SOL    HW321913   6.012   3.490   6.445 -0.5708 -1.2215 -2.0499
 5535SOL    MW421914   6.066   3.536   6.394  0.2716 -0.2101 -0.3322
 5536SOL     OW21915   0.768   5.111   2.385 -0.1347 -0.6003  0.5659
 5536SOL    HW221916   0.759   5.190   2.437  0.2601  0.0162 -0.2787
 5536SOL    HW321917   0.862   5.095   2.381 -0.1444 -0.5205 -0.1248
 5536SOL    MW421918   0.779   5.119   2.392 -0.0839 -0.5084  0.3633
 5537SOL     OW21919   3.153   2.257   2.892  0.0339 -0.5990  0.2683
 5537SOL    HW221920   3.079   2.254   2.953  1.0536  0.0451  1.5771
 5537SOL    HW321921   3.190   2.169   2.895  0.0345 -0.5896  0.5020
 5537SOL    MW421922   3.148   2.245   2.900  0.1685 -0.5128  0.4718
 5538SOL     OW21923   3.093   5.873   0.838  0.6017 -0.3195  0.0846
 5538SOL    HW221924   3.077   5.848   0.929  0.9383  1.5121  0.6850
 5538SOL    HW321925   3.008   5.902   0.806  0.8359  0.7803  0.4173
 5538SOL    MW421926   3.080   5.874   0.846  0.6770  0.0673  0.2077
 5539SOL     OW21927   2.759   3.470   1.988  0.3287  0.3475  0.3268
 5539SOL    HW221928   2.825   3.401   1.999 -0.7841 -1.1828 -1.9140
 5539SOL    HW321929   2.797   3.528   1.922  0.0767  0.3013  0.1408
 5539SOL    MW421930   2.773   3.469   1.981  0.1486  0.1395  0.0066
 5540SOL     OW21931   5.137   0.939   1.095  0.0784 -0.0618 -0.7360
 5540SOL    HW221932   5.127   0.847   1.071 -2.3784 -0.0610  0.0295
 5540SOL    HW321933   5.122   0.987   1.013 -0.3976 -0.3031 -0.7929
 5540SOL    MW421934   5.134   0.933   1.081 -0.3086 -0.0935 -0.6425
 5541SOL     OW21935   6.370   1.835   5.763  0.4252 -0.3857  0.0843
 5541SOL    HW221936   6.456   1.810   5.730  0.5957  1.1943 -0.7825
 5541SOL    HW321937   6.362   1.928   5.742 -1.5960 -0.5331 -0.0620
 5541SOL    MW421938   6.380   1.844   5.756  0.1810 -0.1967 -0.0494
 5542SOL     OW21939   1.401   4.364   1.856  0.0386  0.0334 -0.0450
 5542SOL    HW221940   1.330   4.414   1.818 -1.1401  0.2162  2.2196
 5542SOL    HW321941   1.464   4.430   1.887  1.1781 -0.1215 -1.8846
 5542SOL    MW421942   1.400   4.379   1.855  0.0334  0.0371  0.0110
 5543SOL     OW21943   3.959   4.032   1.305  0.1696  0.3990 -0.1439
 5543SOL    HW221944   3.865   4.046   1.311  0.2556  0.4977  1.2794
 5543SOL    HW321945   3.996   4.119   1.290  0.1196  0.5515  0.5935
 5543SOL    MW421946   3.952   4.045   1.303  0.1743  0.4321  0.1412
 5544SOL     OW21947   5.503   0.828   4.532 -0.2670  0.0468 -0.2247
 5544SOL    HW221948   5.534   0.743   4.563 -1.6085 -0.6053 -0.5923
 5544SOL    HW321949   5.530   0.889   4.601  1.0334 -0.5979 -0.1322
 5544SOL    MW421950   5.510   0.825   4.545 -0.2724 -0.1243 -0.2610
 5545SOL     OW21951   4.654   4.768   0.224  0.0851 -0.1367 -0.4059
 5545SOL    HW221952   4.654   4.780   0.130  1.2824  0.3934 -0.3637
 5545SOL    HW321953   4.732   4.714   0.241 -0.2576 -0.4388  0.2523
 5545SOL    MW421954   4.664   4.763   0.214  0.1978 -0.1066 -0.3135
 5546SOL     OW21955   5.824   2.741   3.044 -0.1529  0.1536  0.1811
 5546SOL    HW221956   5.807   2.716   2.953 -2.3886 -1.9698  1.0563
 5546SOL    HW321957   5.879   2.671   3.078 -0.2802  0.3279  0.7538
 5546SOL    MW421958   5.829   2.729   3.037 -0.4647 -0.1035  0.3721
 5547SOL     OW21959   5.510   5.290   1.963 -0.1288 -0.1588 -0.2009
 5547SOL    HW221960   5.457   5.216   1.933  0.0362 -0.4541  0.2252
 5547SOL    HW321961   5.508   5.283   2.059  0.9897 -0.3959 -0.1821
 5547SOL    MW421962   5.502   5.280   1.972  0.0406 -0.2290 -0.1422
 5548SOL     OW21963   2.061   1.392   3.507 -0.0851  0.2297 -0.5730
 5548SOL    HW221964   2.145   1.433   3.529  0.0364  0.1136 -0.8109
 5548SOL    HW321965   2.073   1.361   3.417  0.2435 -1.4054 -0.0058
 5548SOL    MW421966   2.074   1.393   3.498 -0.0257 -0.0014 -0.5296
 5549SOL     OW21967   4.557   5.005   5.302  0.3073 -0.2011 -0.1880
 5549SOL    HW221968   4.589   5.056   5.376 -0.2974 -0.7571  0.4699
 5549SOL    HW321969   4.615   4.929   5.298  1.5746  0.7716 -1.5265
 5549SOL    MW421970   4.569   5.002   5.311  0.3947 -0.1461 -0.2778
 5550SOL     OW21971   5.339   2.211   2.709  0.0033 -0.1947  0.6871
 5550SOL    HW221972   5.431   2.216   2.736  0.8333  0.2708 -1.9327
 5550SOL    HW321973   5.323   2.118   2.696  1.0971 -0.1570 -1.6032
 5550SOL    MW421974   5.349   2.200   2.711  0.2571 -0.1283  0.0393
 5551SOL     OW21975   3.751   0.927   2.701 -0.4100  0.2989 -0.5721
 5551SOL    HW221976   3.804   1.007   2.697 -1.1463  0.8196 -0.1130
 5551SOL    HW321977   3.661   0.958   2.695 -0.6676 -0.6689 -2.6543
 5551SOL    MW421978   3.746   0.942   2.700 -0.5411  0.2399 -0.7863
 5552SOL     OW21979   0.148   0.149   2.652  0.8622  0.3066  0.3177
 5552SOL    HW221980   0.235   0.123   2.619  1.3713  1.2204  0.8955
 5552SOL    HW321981   0.118   0.073   2.702  1.0634 -0.2386 -0.3713
 5552SOL    MW421982   0.156   0.135   2.654  0.9559  0.3553  0.3031
 5553SOL     OW21983   4.031   1.779   1.399 -0.8393  0.2774  0.1250
 5553SOL    HW221984   4.022   1.708   1.462  0.2635  0.5556  0.5999
 5553SOL    HW321985   4.049   1.735   1.316 -1.5330 -0.0502  0.1403
 5553SOL    MW421986   4.032   1.764   1.396 -0.7853  0.2709  0.1897
 5554SOL     OW21987   1.354   2.655   4.947 -0.1567  0.3533 -0.5730
 5554SOL    HW221988   1.405   2.724   4.904 -1.7626  1.4528 -0.8337
 5554SOL    HW321989   1.295   2.702   5.005 -1.4383 -0.7747 -0.9067
 5554SOL    MW421990   1.353   2.670   4.949 -0.5377  0.3495 -0.6514
 5555SOL     OW21991   1.375   6.223   1.357 -0.1376 -0.2157 -0.1663
 5555SOL    HW221992   1.395   6.253   1.446 -3.9166  0.2457  0.6739
 5555SOL    HW321993   1.381   6.128   1.363  1.4592 -0.1340  0.0210
 5555SOL    MW421994   1.379   6.214   1.370 -0.4255 -0.1441 -0.0307
 5556SOL     OW21995   4.099   2.839   1.000 -0.3438 -0.2339 -1.0148
 5556SOL    HW221996   4.032   2.893   0.958 -0.0408  0.0782 -1.1047
 5556SOL    HW321997   4.052   2.793   1.070 -0.7988 -0.5643 -1.5316
 5556SOL    MW421998   4.084   2.840   1.004 -0.3638 -0.2363 -1.0949
 5557SOL     OW21999   0.526   5.250   2.109 -0.2239 -0.0919 -0.2388
 5557SOL    HW222000   0.461   5.239   2.040 -0.5907  1.4245 -0.1852
 5557SOL    HW322001   0.602   5.286   2.064 -0.1080 -0.0643 -0.0191
 5557SOL    MW422002   0.527   5.254   2.094 -0.2570  0.1118 -0.2027
 5558SOL     OW22003   5.363   0.205   6.202  0.4239 -0.2339  0.0830
 5558SOL    HW222004   5.322   0.126   6.239 -0.1346 -0.1500 -0.3460
 5558SOL    HW322005   5.292   0.269   6.197  0.9859  0.4564  0.8723
 5558SOL    MW422006   5.348   0.203   6.206  0.4243 -0.1317  0.1305
 5559SOL     OW22007   6.207   4.091   2.266  0.1771 -0.3060 -0.2265
 5559SOL    HW222008   6.247   4.155   2.325 -0.4202 -0.5187  0.4127
 5559SOL    HW322009   6.157   4.033   2.323 -1.1108 -0.0047 -1.0060
 5559SOL    MW422010   6.206   4.092   2.281 -0.0717 -0.2943 -0.2450
 5560SOL     OW22011   3.159   1.324   3.656 -0.5413 -0.0416 -0.3633
 5560SOL    HW222012   3.115   1.262   3.598 -0.3427 -1.9751  1.3943
 5560SOL    HW322013   3.227   1.272   3.699  1.0703  1.9709 -0.3468
 5560SOL    MW422014   3.162   1.309   3.654 -0.3025 -0.0311 -0.1292
 5561SOL     OW22015   4.947   4.413   1.999 -1.0424  0.3901  0.1951
 5561SOL    HW222016   4.854   4.400   2.019 -0.5400 -0.2542  2.3992
 5561SOL    HW322017   4.963   4.361   1.920 -2.4611  0.1644  0.0393
 5561SOL    MW422018   4.937   4.404   1.991 -1.1633  0.2753  0.4653
 5562SOL     OW22019   1.370   1.436   5.735  0.6258 -0.1977 -0.1909
 5562SOL    HW222020   1.322   1.383   5.672  0.9152 -0.2520 -0.3672
 5562SOL    HW322021   1.326   1.522   5.732  0.1167 -0.4411  0.1462
 5562SOL    MW422022   1.358   1.441   5.726  0.5968 -0.2370 -0.1697
 5563SOL     OW22023   4.729   2.457   4.889 -0.4086 -0.2060 -0.1791
 5563SOL    HW222024   4.704   2.453   4.796 -0.9773 -1.0971  0.0027
 5563SOL    HW322025   4.795   2.526   4.893 -0.7913  0.2347 -1.1550
 5563SOL    MW422026   4.734   2.465   4.877 -0.5341 -0.2654 -0.2838
 5564SOL     OW22027   2.383   0.306   3.190 -0.2279  0.4489  0.4444
 5564SOL    HW222028   2.466   0.311   3.142  0.3939 -0.1272  1.4326
 5564SOL    HW322029   2.356   0.397   3.201 -0.9301  0.5890 -1.8711
 5564SOL    MW422030   2.390   0.318   3.185 -0.2385  0.3914  0.2693
 5565SOL     OW22031   4.932   2.428   1.956  0.5487 -0.4033 -0.3194
 5565SOL    HW222032   4.927   2.337   1.986 -2.1626  0.0616  0.9581
 5565SOL    HW322033   4.969   2.422   1.868  0.2546 -2.7698 -0.3635
 5565SOL    MW422034   4.936   2.415   1.949  0.1522 -0.6542 -0.1566
 5566SOL     OW22035   5.366   5.469   3.522  0.5349  0.1080 -0.8611
 5566SOL    HW222036   5.322   5.431   3.598  1.7606 -1.5398 -0.9057
 5566SOL    HW322037   5.400   5.553   3.554  0.5548 -0.3032  0.2662
 5566SOL    MW422038   5.365   5.475   3.536  0.6993 -0.1636 -0.7182
 5567SOL     OW22039   2.849   0.045   4.894  0.3214  0.6096 -0.5231
 5567SOL    HW222040   2.939   0.076   4.883  0.2192  1.0783 -0.0726
 5567SOL    HW322041   2.795   0.123   4.885 -0.0192  0.3867 -0.4438
 5567SOL    MW422042   2.854   0.059   4.892  0.2630  0.6420 -0.4532
 5568SOL     OW22043   4.456   6.090   0.271 -0.4573  0.5744  0.1013
 5568SOL    HW222044   4.416   6.099   0.358  1.6815 -0.7595  1.3118
 5568SOL    HW322045   4.455   5.996   0.254 -3.1345  0.9473 -2.5634
 5568SOL    MW422046   4.450   6.079   0.281 -0.5283  0.4476 -0.0906
 5569SOL     OW22047   0.231   5.307   2.330 -0.1014 -0.3308  0.5025
 5569SOL    HW222048   0.321   5.310   2.362  0.7287  0.8198 -1.7247
 5569SOL    HW322049   0.177   5.302   2.410  1.9088 -2.3980  1.8438
 5569SOL    MW422050   0.235   5.307   2.345  0.2733 -0.4517  0.3856
 5570SOL     OW22051   2.488   1.838   4.177  0.6614 -0.1768  0.3536
 5570SOL    HW222052   2.540   1.917   4.170  0.6453 -0.0945  1.1091
 5570SOL    HW322053   2.469   1.813   4.087  2.3758 -0.4615  0.0409
 5570SOL    MW422054   2.492   1.845   4.164  0.8855 -0.2035  0.4120
 5571SOL     OW22055   2.060   0.796   3.871  0.8614  0.0791  0.2124
 5571SOL    HW222056   1.983   0.802   3.814  0.1461 -0.1620  1.1160
 5571SOL    HW322057   2.034   0.842   3.951  2.5285  2.0852 -0.3236
 5571SOL    MW422058   2.046   0.803   3.874  0.9870  0.3119  0.2609
 5572SOL     OW22059   5.429   0.724   1.229 -0.0188  0.9575  0.1746
 5572SOL    HW222060   5.334   0.719   1.238  0.1962 -0.1165  2.3264
 5572SOL    HW322061   5.454   0.640   1.191  0.2243  0.3641  1.5831
 5572SOL    MW422062   5.420   0.712   1.225  0.0416  0.7375  0.6443
 5573SOL     OW22063   0.650   6.417   2.198  0.0317 -0.4196 -0.0895
 5573SOL    HW222064   0.725   6.364   2.226  0.2671  0.0319  0.1545
 5573SOL    HW322065   0.574   6.361   2.213  0.4147 -1.5554 -1.9215
 5573SOL    MW422066   0.650   6.403   2.203  0.1133 -0.5099 -0.2990
 5574SOL     OW22067   5.526   4.944   4.598  0.3562 -0.4748 -0.0746
 5574SOL    HW222068   5.589   4.970   4.666  0.2379  1.1469 -0.5433
 5574SOL    HW322069   5.557   4.987   4.519 -2.7979  2.9174  0.2151
 5574SOL    MW422070   5.538   4.953   4.597 -0.0756  0.1867 -0.0982
 5575SOL     OW22071   3.301   3.296   6.324 -0.0125 -0.0870  0.0612
 5575SOL    HW222072   3.237   3.249   6.271  0.5937  0.0713 -0.8435
 5575SOL    HW322073   3.358   3.340   6.259 -0.2354  1.4361  0.8514
 5575SOL    MW422074   3.300   3.296   6.308  0.0381  0.1348  0.0461
 5576SOL     OW22075   3.853   5.871   4.426 -0.3192 -0.1325 -0.4138
 5576SOL    HW222076   3.779   5.850   4.369 -1.0043  1.3341 -0.1242
 5576SOL    HW322077   3.915   5.916   4.370 -0.1827 -0.2947 -0.3935
 5576SOL    MW422078   3.851   5.874   4.411 -0.3916  0.0396 -0.3729
 5577SOL     OW22079   2.286   0.802   4.228  0.0896 -0.2406 -0.0022
 5577SOL    HW222080   2.230   0.727   4.205 -0.1507 -0.0703  0.0279
 5577SOL    HW322081   2.245   0.839   4.306  1.2668 -1.2287  1.1562
 5577SOL    MW422082   2.273   0.797   4.235  0.2132 -0.3485  0.1546
 5578SOL     OW22083   3.388   3.217   1.085  0.0288 -0.3575  0.1009
 5578SOL    HW222084   3.403   3.123   1.093  0.7138 -0.1100  2.0559
 5578SOL    HW322085   3.402   3.252   1.172  2.1288  1.9020 -1.0233
 5578SOL    MW422086   3.392   3.209   1.097  0.3962 -0.0267  0.2105
 5579SOL     OW22087   1.232   1.629   3.014 -0.3532  0.1200 -0.1433
 5579SOL    HW222088   1.196   1.664   2.933 -1.2642  0.0999  0.2327
 5579SOL    HW322089   1.302   1.570   2.987 -1.3401 -0.7043 -0.9630
 5579SOL    MW422090   1.236   1.626   3.000 -0.6036  0.0086 -0.2019
 5580SOL     OW22091   4.776   0.064   1.171  0.6844 -0.3865 -0.2432
 5580SOL    HW222092   4.832   0.068   1.248 -2.5927  1.4200  2.3343
 5580SOL    HW322093   4.727  -0.018   1.182 -0.2099  0.1602  0.0272
 5580SOL    MW422094   4.777   0.053   1.183  0.1340 -0.0760  0.1325
 5581SOL     OW22095   4.579   3.352   4.154  0.0585  0.1009 -0.1032
 5581SOL    HW222096   4.552   3.318   4.069  0.4249  0.4644 -0.3697
 5581SOL    HW322097   4.550   3.443   4.155  0.9292  0.3941 -0.2499
 5581SOL    MW422098   4.572   3.359   4.143  0.2217  0.1875 -0.1577
 5582SOL     OW22099   0.739   1.596   6.345  0.1997  0.0963  0.6106
 5582SOL    HW222100   0.710   1.673   6.394  0.6532  0.0696  0.9240
 5582SOL    HW322101   0.658   1.552   6.319 -0.0872  1.0723 -0.2108
 5582SOL    MW422102   0.725   1.600   6.348  0.2217  0.2216  0.5435
 5583SOL     OW22103   6.136   3.262   2.210  0.3759  0.2980  0.6744
 5583SOL    HW222104   6.047   3.260   2.245  0.8834 -0.9003  1.9796
 5583SOL    HW322105   6.128   3.313   2.129 -1.4778  0.2567  0.7755
 5583SOL    MW422106   6.123   3.269   2.204  0.1983  0.1345  0.8599
 5584SOL     OW22107   2.621   4.693   2.129  0.0179 -0.4287 -0.0883
 5584SOL    HW222108   2.567   4.766   2.160  0.0404 -0.1903 -0.5953
 5584SOL    HW322109   2.563   4.617   2.130 -0.7459  0.0659 -1.8503
 5584SOL    MW422110   2.606   4.692   2.133 -0.0799 -0.3320 -0.3877
 5585SOL     OW22111   5.250   4.378   1.695 -0.0794 -0.5977  0.2072
 5585SOL    HW222112   5.276   4.458   1.741 -0.5315 -1.0689  1.3166
 5585SOL    HW322113   5.327   4.354   1.643  0.7823 -0.5431  1.4154
 5585SOL    MW422114   5.264   4.386   1.694 -0.0254 -0.6527  0.5130
 5586SOL     OW22115   5.961   3.968   2.501 -0.5176 -0.1178 -0.2087
 5586SOL    HW222116   5.888   4.029   2.516 -0.2004  0.2046  0.0390
 5586SOL    HW322117   5.922   3.881   2.513 -0.7445  0.0667  0.4507
 5586SOL    MW422118   5.946   3.965   2.505 -0.5057 -0.0509 -0.0890
 5587SOL     OW22119   0.202   2.947   5.985 -0.0468  1.0523 -0.3973
 5587SOL    HW222120   0.187   3.041   5.988  2.3887  1.4781  0.5326
 5587SOL    HW322121   0.290   2.938   5.949  0.0651 -0.8227  0.2557
 5587SOL    MW422122   0.211   2.958   5.981  0.2893  0.8611 -0.1885
 5588SOL     OW22123   1.433   4.551   0.951  0.1474  0.2897  0.0801
 5588SOL    HW222124   1.523   4.521   0.963  0.2380  0.8007  0.7992
 5588SOL    HW322125   1.421   4.557   0.857  0.2060 -1.7181 -0.1017
 5588SOL    MW422126   1.443   4.548   0.940  0.1671  0.0922  0.1510
 5589SOL     OW22127   0.200   0.657   5.590  0.0619 -0.3118 -0.7440
 5589SOL    HW222128   0.268   0.598   5.623  0.7074  0.4774 -0.6443
 5589SOL    HW322129   0.151   0.683   5.668 -3.2265 -4.2539 -1.1643
 5589SOL    MW422130   0.202   0.652   5.605 -0.2868 -0.7278 -0.7863
 5590SOL     OW22131   1.526   6.057   5.639 -0.6166  0.1456 -0.2148
 5590SOL    HW222132   1.576   6.002   5.580 -0.5642  0.6559 -0.6548
 5590SOL    HW322133   1.539   6.018   5.726 -0.7534 -0.6453 -0.5454
 5590SOL    MW422134   1.534   6.045   5.643 -0.6277  0.1085 -0.3165
 5591SOL     OW22135   3.246   1.180   2.378  0.0582 -0.1369  0.5074
 5591SOL    HW222136   3.154   1.165   2.400  0.3709 -0.2051  1.8468
 5591SOL    HW322137   3.275   1.247   2.439  0.0764  2.3132 -1.9776
 5591SOL    MW422138   3.238   1.187   2.389  0.1019  0.1774  0.3563
 5592SOL     OW22139   4.903   2.591   5.659  0.1235 -0.1905  0.2820
 5592SOL    HW222140   4.809   2.603   5.676  0.0946 -0.9998  0.7372
 5592SOL    HW322141   4.910   2.503   5.623  0.6755  0.0132 -0.1319
 5592SOL    MW422142   4.891   2.581   5.656  0.1925 -0.2704  0.2875
 5593SOL     OW22143   4.072   5.639   5.286  0.3381  0.1351  0.2450
 5593SOL    HW222144   4.082   5.591   5.203  1.0986 -0.7200  0.8106
 5593SOL    HW322145   4.150   5.695   5.290 -0.2332  0.9785 -0.1113
 5593SOL    MW422146   4.084   5.640   5.275  0.3630  0.1335  0.2726
 5594SOL     OW22147   0.919   5.722   2.963  0.2704  0.2281  0.1135
 5594SOL    HW222148   0.927   5.780   3.039  1.2756  1.8809 -1.1646
 5594SOL    HW322149   1.006   5.724   2.923 -0.2681 -0.4905 -1.1371
 5594SOL    MW422150   0.932   5.730   2.968  0.3320  0.3514 -0.2201
 5595SOL     OW22151   4.172   2.394   2.184  0.1867  0.2556  0.2657
 5595SOL    HW222152   4.167   2.366   2.093  2.2872  0.0821  0.1672
 5595SOL    HW322153   4.139   2.483   2.183 -0.8629 -0.1136 -0.4467
 5595SOL    MW422154   4.167   2.402   2.172  0.3254  0.1840  0.1587
 5596SOL     OW22155   4.120   2.304   2.964 -0.5766 -0.2665  0.1318
 5596SOL    HW222156   4.180   2.284   2.892 -0.9440 -3.5691  0.5844
 5596SOL    HW322157   4.173   2.352   3.027  0.6294 -0.1767 -0.9117
 5596SOL    MW422158   4.135   2.308   2.962 -0.4660 -0.6904  0.0538
 5597SOL     OW22159   4.602   5.388   1.372  0.3214  0.6228 -0.2021
 5597SOL    HW222160   4.554   5.338   1.438 -1.9358  0.5226 -1.7756
 5597SOL    HW322161   4.586   5.479   1.394  0.1172  0.5919 -0.2141
 5597SOL    MW422162   4.593   5.393   1.383 -0.0033  0.6055 -0.4113
 5598SOL     OW22163   4.777   1.742   6.199  0.2924  0.6397  0.0057
 5598SOL    HW222164   4.847   1.740   6.135 -1.1295 -0.8144 -1.6044
 5598SOL    HW322165   4.814   1.790   6.273  2.5395  0.9773 -1.2371
 5598SOL    MW422166   4.791   1.749   6.200  0.4013  0.4924 -0.3707
 5599SOL     OW22167   1.983   0.680   0.941  0.2531  0.1675  0.4595
 5599SOL    HW222168   2.008   0.612   1.003  2.8578  1.7993  1.3756
 5599SOL    HW322169   1.896   0.708   0.968 -0.6079 -2.3073  0.4300
 5599SOL    MW422170   1.975   0.675   0.953  0.4831  0.0563  0.5765
 5600SOL     OW22171   6.165   6.225   5.396 -0.4226 -0.1070 -0.0714
 5600SOL    HW222172   6.252   6.195   5.367 -0.7263  0.0252 -1.1494
 5600SOL    HW322173   6.104   6.187   5.333 -1.0774  0.5067  0.1765
 5600SOL    MW422174   6.169   6.216   5.384 -0.5491 -0.0086 -0.1809
 5601SOL     OW22175   0.982   6.377   5.440 -0.3736  0.1571  0.4044
 5601SOL    HW222176   0.969   6.346   5.529 -1.4117  0.4233  0.3614
 5601SOL    HW322177   0.913   6.442   5.427 -2.2749 -2.0623 -1.6101
 5601SOL    MW422178   0.971   6.381   5.450 -0.7615 -0.1006  0.1330
 5602SOL     OW22179   0.691   0.411   3.383 -0.4481 -0.4579  0.4943
 5602SOL    HW222180   0.757   0.357   3.339  0.7521  1.4030 -0.1534
 5602SOL    HW322181   0.664   0.360   3.459  0.0353 -2.2576 -0.4942
 5602SOL    MW422182   0.696   0.397   3.387 -0.2260 -0.4498  0.2784
 5603SOL     OW22183   5.505   4.850   2.892  0.9847  0.1852 -0.0073
 5603SOL    HW222184   5.548   4.925   2.853 -1.3395  1.1700 -0.8310
 5603SOL    HW322185   5.415   4.878   2.908 -0.5592 -2.9211 -2.1010
 5603SOL    MW422186   5.499   4.863   2.889  0.4743 -0.0947 -0.3922
 5604SOL     OW22187   5.446   5.771   1.922  0.3514  0.0022  0.0896
 5604SOL    HW222188   5.487   5.779   2.007 -0.2911  0.1805  0.3928
 5604SOL    HW322189   5.515   5.741   1.864  0.8404  0.0688  0.6335
 5604SOL    MW422190   5.460   5.768   1.925  0.3311  0.0345  0.2013
 5605SOL     OW22191   5.786   2.504   5.918  0.4317 -0.0551 -0.5553
 5605SOL    HW222192   5.847   2.433   5.897 -1.0694 -1.9240  1.0672
 5605SOL    HW322193   5.706   2.459   5.948 -0.4487  2.3274  0.9143
 5605SOL    MW422194   5.783   2.488   5.919  0.1175  0.0127 -0.1473
 5606SOL     OW22195   0.090   4.009   3.476 -0.3287  0.1742 -0.1358
 5606SOL    HW222196   0.086   3.920   3.442  2.6008 -0.5176  1.0719
 5606SOL    HW322197   0.177   4.017   3.515 -1.3996  2.7387  2.0874
 5606SOL    MW422198   0.101   3.998   3.477 -0.0835  0.4212  0.3168
 5607SOL     OW22199   3.005   5.885   3.544  0.1462 -0.3986 -0.3110
 5607SOL    HW222200   2.956   5.848   3.618  0.2541  0.0922  0.0147
 5607SOL    HW322201   2.938   5.926   3.490 -0.0370 -1.5224 -0.9555
 5607SOL    MW422202   2.990   5.886   3.547  0.1362 -0.4821 -0.3530
 5608SOL     OW22203   2.217   0.958   1.937 -0.2866 -0.1396 -0.1044
 5608SOL    HW222204   2.257   0.872   1.933  0.9836  0.4513 -2.9281
 5608SOL    HW322205   2.291   1.019   1.937 -1.1632  0.9996  1.2324
 5608SOL    MW422206   2.232   0.955   1.936 -0.2347  0.0887 -0.3006
 5609SOL     OW22207   6.376   3.909   4.981 -0.1250 -0.5337 -0.3980
 5609SOL    HW222208   6.406   3.941   4.896  0.1176  1.5463  0.4122
 5609SOL    HW322209   6.323   3.980   5.017 -2.4919 -2.4170  0.0836
 5609SOL    MW422210   6.373   3.922   4.975 -0.4053 -0.5077 -0.2276
 5610SOL     OW22211   4.231   1.918   2.803 -0.2566 -0.0882  0.0839
 5610SOL    HW222212   4.302   1.855   2.815  1.0412  1.5082  1.1688
 5610SOL    HW322213   4.180   1.912   2.884  1.2759  1.8637  1.2963
 5610SOL    MW422214   4.234   1.908   2.815  0.1169  0.3799  0.3870
 5611SOL     OW22215   4.688   5.013   4.583 -0.5634  0.1588  0.1228
 5611SOL    HW222216   4.775   4.988   4.615 -0.5081 -1.0138 -0.8614
 5611SOL    HW322217   4.634   5.019   4.662 -0.7008 -3.6383  0.5252
 5611SOL    MW422218   4.692   5.011   4.598 -0.5742 -0.4969  0.0460
 5612SOL     OW22219   1.530   5.943   5.889 -0.2922 -1.0374 -0.3827
 5612SOL    HW222220   1.499   5.991   5.966  0.0098  0.3745 -1.1104
 5612SOL    HW322221   1.484   5.859   5.893 -0.3053 -0.9843  1.3068
 5612SOL    MW422222   1.520   5.938   5.900 -0.2540 -0.8441 -0.2558
 5613SOL     OW22223   5.763   5.190   0.758 -0.1942 -0.1105  0.0742
 5613SOL    HW222224   5.698   5.231   0.815 -0.6865 -0.2953 -0.3505
 5613SOL    HW322225   5.794   5.114   0.808 -2.1747 -1.5482 -0.7056
 5613SOL    MW422226   5.758   5.185   0.772 -0.5205 -0.3246 -0.0847
 5614SOL     OW22227   6.195   0.847   6.269  0.1834 -0.0001  0.1777
 5614SOL    HW222228   6.241   0.813   6.346 -1.5330 -1.1303  0.7834
 5614SOL    HW322229   6.215   0.785   6.199  0.0941 -0.1307  0.2681
 5614SOL    MW422230   6.203   0.834   6.270 -0.0549 -0.1664  0.2695
 5615SOL     OW22231   1.897   0.241   2.935 -0.5535  0.2379 -0.5724
 5615SOL    HW222232   1.832   0.250   2.865 -0.3802  0.8848 -0.6574
 5615SOL    HW322233   1.975   0.205   2.892 -0.6424  0.0661 -0.5919
 5615SOL    MW422234   1.899   0.237   2.920 -0.5424  0.3006 -0.5861
 5616SOL     OW22235   4.624   6.112   0.996 -0.1440  0.5916  0.4457
 5616SOL    HW222236   4.584   6.177   1.054 -1.1770  2.1904 -1.9417
 5616SOL    HW322237   4.552   6.054   0.971 -0.0920  0.9310 -0.5362
 5616SOL    MW422238   4.609   6.113   1.001 -0.2734  0.8473  0.0012
 5617SOL     OW22239   4.521   3.760   0.337 -0.0086 -0.3237 -0.1011
 5617SOL    HW222240   4.485   3.717   0.414 -0.7124  0.8042  0.2272
 5617SOL    HW322241   4.543   3.689   0.277  0.1181 -1.1884  0.9509
 5617SOL    MW422242   4.519   3.745   0.340 -0.0848 -0.2889  0.0810
 5618SOL     OW22243   3.944   6.196   3.520  0.3521  0.0717  0.4915
 5618SOL    HW222244   3.880   6.184   3.590 -1.5558  1.3503 -0.9449
 5618SOL    HW322245   3.902   6.159   3.442  2.9768 -2.6031  0.1813
 5618SOL    MW422246   3.930   6.189   3.519  0.4467 -0.1125  0.2611
 5619SOL     OW22247   0.022   0.648   2.106  0.0085  0.1090 -0.4795
 5619SOL    HW222248   0.018   0.566   2.058 -1.5051  0.1294 -0.4348
 5619SOL    HW322249   0.061   0.711   2.045  0.8623 -0.5478 -0.6235
 5619SOL    MW422250   0.027   0.646   2.092 -0.0786  0.0250 -0.4926
 5620SOL     OW22251   3.536   2.097   2.244  0.1712 -0.2282  0.3100
 5620SOL    HW222252   3.573   2.175   2.204 -0.2427 -0.4207 -0.4787
 5620SOL    HW322253   3.603   2.066   2.304  0.2065  0.9144  0.8836
 5620SOL    MW422254   3.550   2.103   2.247  0.1212 -0.1029  0.2816
 5621SOL     OW22255   5.773   2.514   1.679  0.0746 -0.2442 -0.4397
 5621SOL    HW222256   5.835   2.486   1.612  1.9460 -1.3037  1.5754
 5621SOL    HW322257   5.823   2.576   1.733 -1.0924 -0.0420  0.4528
 5621SOL    MW422258   5.788   2.519   1.677  0.1676 -0.3573 -0.0561
 5622SOL     OW22259   0.886   2.646   4.223  0.3246  0.1314 -0.3394
 5622SOL    HW222260   0.948   2.628   4.293 -0.1972 -1.0306 -0.1502
 5622SOL    HW322261   0.905   2.579   4.156 -0.9534 -0.5082 -0.1017
 5622SOL    MW422262   0.897   2.634   4.223  0.0871 -0.1063 -0.2830
 5623SOL     OW22263   0.218   5.160   0.900  0.5597 -0.1259 -0.0224
 5623SOL    HW222264   0.247   5.205   0.820  0.6454  0.6728  0.4409
 5623SOL    HW322265   0.131   5.126   0.878  0.2849  0.6904 -0.2444
 5623SOL    MW422266   0.210   5.162   0.886  0.5348  0.0872  0.0094
 5624SOL     OW22267   4.354   2.066   0.312 -0.3022 -0.3049  0.1996
 5624SOL    HW222268   4.394   2.090   0.396  0.7539  0.9797 -0.6232
 5624SOL    HW322269   4.424   2.023   0.264  0.4632  2.6162 -1.5461
 5624SOL    MW422270   4.368   2.064   0.317 -0.0619  0.2500 -0.1393
 5625SOL     OW22271   5.554   3.144   3.090 -0.5117 -0.0870 -0.8003
 5625SOL    HW222272   5.496   3.119   3.018 -1.2995 -0.4639 -0.0497
 5625SOL    HW322273   5.570   3.238   3.077  0.7218 -0.4843 -2.4090
 5625SOL    MW422274   5.549   3.153   3.079 -0.4529 -0.1892 -0.9135
 5626SOL     OW22275   2.461   5.635   5.033 -0.2011 -0.3761 -0.8178
 5626SOL    HW222276   2.457   5.541   5.052 -1.3083 -0.4539 -1.3589
 5626SOL    HW322277   2.419   5.644   4.948 -2.1375  0.8694  0.2091
 5626SOL    MW422278   2.455   5.624   5.024 -0.6026 -0.2221 -0.7537
 5627SOL     OW22279   4.880   1.321   2.374 -0.4789 -0.2630  0.0685
 5627SOL    HW222280   4.815   1.374   2.421 -0.0905 -1.6170  2.2435
 5627SOL    HW322281   4.831   1.247   2.340 -0.1367 -1.2496  1.6520
 5627SOL    MW422282   4.865   1.318   2.376 -0.3825 -0.5718  0.5644
 5628SOL     OW22283   4.587   1.468   4.645 -0.4653  0.3130 -0.2443
 5628SOL    HW222284   4.678   1.498   4.640 -0.8134  1.2328 -1.9442
 5628SOL    HW322285   4.594   1.374   4.660  0.7534  0.4814  0.4032
 5628SOL    MW422286   4.600   1.460   4.646 -0.3504  0.4566 -0.3831
 5629SOL     OW22287   2.457   0.899   4.586  0.4591  0.3155 -0.4145
 5629SOL    HW222288   2.479   0.808   4.564  2.0662  0.4310  0.5487
 5629SOL    HW322289   2.373   0.914   4.542 -0.6543 -2.1133  0.6594
 5629SOL    MW422290   2.449   0.889   4.577  0.5243  0.0103 -0.1458
 5630SOL     OW22291   3.749   2.185   1.681  0.0367  0.6004 -0.7428
 5630SOL    HW222292   3.719   2.219   1.597 -0.3583  0.7394 -0.5519
 5630SOL    HW322293   3.710   2.098   1.688 -0.4681  0.8391 -0.4292
 5630SOL    MW422294   3.740   2.178   1.671 -0.0820  0.6502 -0.6762
 5631SOL     OW22295   0.346   4.466   1.766 -0.1995  0.3353 -0.1037
 5631SOL    HW222296   0.403   4.404   1.811 -0.8631 -0.0847  0.1663
 5631SOL    HW322297   0.265   4.418   1.750 -0.5025  0.9401 -0.4473
 5631SOL    MW422298   0.343   4.452   1.770 -0.3271  0.3597 -0.1134
 5632SOL     OW22299   0.284   5.972   5.467 -0.4173  0.0443 -0.5309
 5632SOL    HW222300   0.293   5.921   5.547 -0.0320  0.7607 -0.1066
 5632SOL    HW322301   0.313   6.060   5.491  1.8722 -0.2020 -1.9855
 5632SOL    MW422302   0.289   5.977   5.481 -0.0644  0.1064 -0.6669
 5633SOL     OW22303   0.603   3.509   4.528 -0.2949 -0.2893 -0.0782
 5633SOL    HW222304   0.693   3.476   4.525 -0.1820  0.0697 -1.4198
 5633SOL    HW322305   0.588   3.545   4.441 -0.7051  2.4329  1.0000
 5633SOL    MW422306   0.613   3.509   4.516 -0.3341  0.1172 -0.1130
 5634SOL     OW22307   1.217   1.480   5.009 -0.4047  0.4686  0.2523
 5634SOL    HW222308   1.196   1.569   4.984  1.8613  0.4794 -2.0062
 5634SOL    HW322309   1.193   1.474   5.102  0.5276  3.8043  0.8129
 5634SOL    MW422310   1.211   1.491   5.018  0.0173  0.9101  0.0283
 5635SOL     OW22311   0.010   2.245   0.463 -0.1755  0.1392  0.1215
 5635SOL    HW222312   0.096   2.254   0.422 -0.0534  0.7591  0.5070
 5635SOL    HW322313  -0.051   2.273   0.395 -0.1568 -1.2907 -0.5121
 5635SOL    MW422314   0.013   2.250   0.449 -0.1569  0.0324  0.0888
 5636SOL     OW22315   6.320   0.270   4.794 -0.5028 -0.1802 -0.1045
 5636SOL    HW222316   6.313   0.307   4.883  4.5606  1.2666  0.0208
 5636SOL    HW322317   6.331   0.176   4.808 -0.3728 -0.0500  0.7480
 5636SOL    MW422318   6.320   0.263   4.808  0.1824  0.0278  0.0245
 5637SOL     OW22319   1.585   2.412   3.875 -0.7989 -0.3953 -0.5058
 5637SOL    HW222320   1.662   2.388   3.925 -0.2047  0.3406 -1.0499
 5637SOL    HW322321   1.603   2.500   3.843 -2.3964  0.3270  0.4268
 5637SOL    MW422322   1.597   2.420   3.877 -0.9313 -0.2029 -0.4545
 5638SOL     OW22323   1.509   4.413   4.037 -0.3376 -0.0196  0.4223
 5638SOL    HW222324   1.522   4.322   4.062 -1.8248 -0.1481  0.7983
 5638SOL    HW322325   1.430   4.440   4.084  0.8048  1.8811  1.4070
 5638SOL    MW422326   1.500   4.405   4.047 -0.3831  0.2142  0.6018
 5639SOL     OW22327   1.405   4.231   2.106  0.2024  0.1283  0.1444
 5639SOL    HW222328   1.458   4.264   2.033  1.7525 -2.6912 -0.1440
 5639SOL    HW322329   1.469   4.204   2.172 -1.0829  0.1976  1.4639
 5639SOL    MW422330   1.420   4.232   2.105  0.2373 -0.2346  0.2805
 5640SOL     OW22331   5.913   1.329   5.794  0.0898 -0.2548  0.5577
 5640SOL    HW222332   5.965   1.324   5.714 -0.0794  0.9891  0.3563
 5640SOL    HW322333   5.934   1.414   5.832 -0.8226 -0.2759  1.1473
 5640SOL    MW422334   5.923   1.339   5.788 -0.0529 -0.0934  0.6089
 5641SOL     OW22335   2.967   1.107   5.412  0.1020 -0.1900 -0.1547
 5641SOL    HW222336   3.060   1.110   5.390 -0.0158 -0.4514 -0.6998
 5641SOL    HW322337   2.922   1.138   5.333 -0.3365 -1.2703 -0.3510
 5641SOL    MW422338   2.973   1.111   5.399  0.0286 -0.3670 -0.2525
 5642SOL     OW22339   2.265   5.475   1.727 -0.0341  0.1251  0.2311
 5642SOL    HW222340   2.265   5.454   1.633 -0.5634 -0.5144  0.3625
 5642SOL    HW322341   2.173   5.473   1.752  0.2417 -2.2988  1.3076
 5642SOL    MW422342   2.253   5.472   1.718 -0.0676 -0.2791  0.3905
 5643SOL     OW22343   5.365   0.229   2.170 -0.4762  0.2817 -0.5956
 5643SOL    HW222344   5.283   0.227   2.120  0.1911 -1.1265 -1.7229
 5643SOL    HW322345   5.429   0.266   2.109  0.1761 -0.6726 -0.5079
 5643SOL    MW422346   5.363   0.234   2.155 -0.3021 -0.0300 -0.7327
 5644SOL     OW22347   3.584   3.450   4.673 -0.0706 -0.0377  0.3006
 5644SOL    HW222348   3.580   3.381   4.739  0.3254  1.1701  1.6274
 5644SOL    HW322349   3.563   3.405   4.591 -0.4577 -1.6026  1.2068
 5644SOL    MW422350   3.581   3.435   4.671 -0.0694 -0.0848  0.5952
 5645SOL     OW22351   4.010   1.678   4.888 -0.1748 -0.0399 -0.1728
 5645SOL    HW222352   4.061   1.618   4.832  1.3140  1.0681 -0.0556
 5645SOL    HW322353   3.919   1.651   4.874  0.1872 -0.2254 -2.6440
 5645SOL    MW422354   4.005   1.666   4.879  0.0694  0.0818 -0.4834
 5646SOL     OW22355   4.864   5.342   0.529 -0.2341  0.1146 -0.3198
 5646SOL    HW222356   4.910   5.359   0.447 -0.5142  0.2337 -0.4565
 5646SOL    HW322357   4.929   5.303   0.586 -0.3702 -1.2142 -1.0365
 5646SOL    MW422358   4.879   5.339   0.526 -0.2890 -0.0450 -0.4324
 5647SOL     OW22359   5.097   5.902   5.404  0.1590 -0.1892  0.0986
 5647SOL    HW222360   5.136   5.942   5.482  0.3293 -1.6494  0.7989
 5647SOL    HW322361   5.056   5.975   5.357  0.6074  0.8143  1.2213
 5647SOL    MW422362   5.097   5.917   5.408  0.2406 -0.2494  0.3391
 5648SOL     OW22363   5.698   2.767   2.265  0.4584  0.3249 -0.1855
 5648SOL    HW222364   5.670   2.694   2.320  2.5999 -0.5922 -0.2088
 5648SOL    HW322365   5.617   2.812   2.243 -0.6418 -0.1422  2.4511
 5648SOL    MW422366   5.683   2.763   2.269  0.5958  0.1422  0.1593
 5649SOL     OW22367   2.414   2.452   1.629  0.2509  0.0452  0.1555
 5649SOL    HW222368   2.393   2.515   1.698 -0.1138  0.8221 -0.6365
 5649SOL    HW322369   2.503   2.474   1.602  0.7087 -0.7942  0.9224
 5649SOL    MW422370   2.423   2.463   1.635  0.2632  0.0370  0.1522
 5650SOL     OW22371   5.742   4.832   0.423 -0.6508 -0.0906  0.5934
 5650SOL    HW222372   5.679   4.761   0.436 -1.1826  0.3322  0.3713
 5650SOL    HW322373   5.808   4.818   0.491 -1.1536 -0.3560  1.0338
 5650SOL    MW422374   5.743   4.820   0.434 -0.7873 -0.0698  0.6222
 5651SOL     OW22375   2.714   5.741   3.538  0.6387 -0.2520  0.3677
 5651SOL    HW222376   2.746   5.769   3.624  0.8742  0.7993 -0.0568
 5651SOL    HW322377   2.659   5.814   3.508  0.0931 -0.8541 -0.1337
 5651SOL    MW422378   2.711   5.754   3.546  0.5978 -0.1928  0.2456
 5652SOL     OW22379   4.058   3.882   0.660 -0.0311 -0.7376 -0.0289
 5652SOL    HW222380   4.055   3.934   0.579 -0.0290 -0.8312 -0.0894
 5652SOL    HW322381   4.001   3.806   0.642 -1.3800  0.0763  0.6541
 5652SOL    MW422382   4.050   3.879   0.647 -0.2088 -0.6426  0.0532
 5653SOL     OW22383   0.939   4.199   4.838  0.1561  0.4229  0.3274
 5653SOL    HW222384   0.892   4.265   4.788  0.0246  0.2133  0.1694
 5653SOL    HW322385   0.874   4.162   4.897  0.2057  0.3712  0.3505
 5653SOL    MW422386   0.924   4.203   4.839  0.1453  0.3884  0.3096
 5654SOL     OW22387   1.911   3.514   0.269  0.1722  0.1642 -0.6127
 5654SOL    HW222388   1.825   3.480   0.242  0.5610  1.2541 -3.4819
 5654SOL    HW322389   1.959   3.436   0.295 -0.9864 -0.7295 -1.0291
 5654SOL    MW422390   1.906   3.499   0.269  0.0706  0.1901 -1.0462
 5655SOL     OW22391   6.281   4.510   4.577  0.7886 -0.5424  0.4388
 5655SOL    HW222392   6.347   4.447   4.549  0.8038 -0.6332  0.6755
 5655SOL    HW322393   6.206   4.456   4.603 -0.4446 -0.3794 -2.4190
 5655SOL    MW422394   6.279   4.494   4.577  0.6279 -0.5329  0.0929
 5656SOL     OW22395   1.405   5.831   0.572 -0.0676 -0.6558  0.5306
 5656SOL    HW222396   1.359   5.757   0.612 -0.8081 -0.9058 -0.7312
 5656SOL    HW322397   1.497   5.815   0.592 -0.2515 -1.7144  0.6201
 5656SOL    MW422398   1.411   5.819   0.580 -0.1896 -0.8285  0.3759
 5657SOL     OW22399   4.847   4.357   3.241 -0.1198  0.1021  0.1892
 5657SOL    HW222400   4.837   4.438   3.292 -0.5470  1.0749 -1.3709
 5657SOL    HW322401   4.789   4.294   3.284 -1.4569  1.2717  0.1872
 5657SOL    MW422402   4.838   4.359   3.254 -0.3526  0.3848 -0.0169
 5658SOL     OW22403   2.871   3.934   4.062 -0.0676 -0.3193 -0.1487
 5658SOL    HW222404   2.788   3.970   4.091 -1.1563 -2.4367 -0.4496
 5658SOL    HW322405   2.937   3.977   4.116 -1.4095  0.9267  0.5324
 5658SOL    MW422406   2.869   3.944   4.073 -0.3883 -0.4343 -0.0986
 5659SOL     OW22407   3.177   4.067   3.289 -0.1066  0.3156 -0.1196
 5659SOL    HW222408   3.146   4.122   3.217 -0.6700  0.4206  0.2017
 5659SOL    HW322409   3.167   3.978   3.257 -1.4836  0.3129  0.2637
 5659SOL    MW422410   3.172   4.063   3.275 -0.3626  0.3291 -0.0266
 5660SOL     OW22411   3.676   3.837   3.538  0.2486 -0.4212 -0.1259
 5660SOL    HW222412   3.727   3.900   3.487 -2.1370 -0.1521 -2.3919
 5660SOL    HW322413   3.678   3.756   3.486 -0.1792 -0.9376  0.6354
 5660SOL    MW422414   3.683   3.834   3.525 -0.1225 -0.4538 -0.3244
 5661SOL     OW22415   1.298   4.222   1.223  0.5431  0.3318 -0.0762
 5661SOL    HW222416   1.271   4.302   1.178  1.3276  0.3604 -0.5206
 5661SOL    HW322417   1.219   4.168   1.227  0.3763  0.4739 -1.1806
 5661SOL    MW422418   1.284   4.226   1.218  0.6246  0.3544 -0.2805
 5662SOL     OW22419   4.390   6.029   3.588 -0.6541  0.0504  0.0048
 5662SOL    HW222420   4.449   5.962   3.623  0.9916  1.5633  0.2888
 5662SOL    HW322421   4.318   6.032   3.650 -0.0043 -0.4548  0.8091
 5662SOL    MW422422   4.389   6.021   3.601 -0.3513  0.1834  0.1484
 5663SOL     OW22423   2.009   2.334   5.176 -0.1041  0.1907  0.2344
 5663SOL    HW222424   2.047   2.374   5.255 -0.0883 -0.8875  0.7954
 5663SOL    HW322425   2.046   2.246   5.174  1.1568  0.7022 -1.8785
 5663SOL    MW422426   2.019   2.328   5.186  0.0644  0.1159  0.0296
 5664SOL     OW22427   1.858   1.353   3.716  0.2941  0.2376 -0.0445
 5664SOL    HW222428   1.933   1.342   3.657 -0.8162 -0.5360 -1.3580
 5664SOL    HW322429   1.876   1.435   3.762  2.8212 -0.8103  1.0213
 5664SOL    MW422430   1.870   1.362   3.715  0.4810 -0.0027 -0.0772
 5665SOL     OW22431   5.635   2.432   2.946 -0.0604 -0.1576 -0.4347
 5665SOL    HW222432   5.700   2.413   3.014 -0.4471  0.0363 -0.0037
 5665SOL    HW322433   5.607   2.346   2.915  0.2642 -0.2448 -0.4953
 5665SOL    MW422434   5.640   2.418   2.951 -0.0686 -0.1435 -0.3859
 5666SOL     OW22435   1.126   0.543   3.128  0.1933 -0.0811 -0.3613
 5666SOL    HW222436   1.154   0.588   3.209  0.5591  1.2769 -1.2036
 5666SOL    HW322437   1.186   0.469   3.120  1.7086  1.1258 -0.5934
 5666SOL    MW422438   1.138   0.539   3.138  0.4415  0.2573 -0.5030
 5667SOL     OW22439   3.059   2.708   0.512 -0.3794 -0.2259  0.5565
 5667SOL    HW222440   3.077   2.616   0.533  0.7764 -0.2256 -0.3468
 5667SOL    HW322441   2.982   2.730   0.564  0.4916 -1.1255  2.2899
 5667SOL    MW422442   3.051   2.699   0.522 -0.1120 -0.3445  0.6660
 5668SOL     OW22443   2.381   2.020   5.338  0.1046  0.0645  0.5310
 5668SOL    HW222444   2.323   1.972   5.396 -0.0375  0.1264  0.4417
 5668SOL    HW322445   2.386   2.108   5.376 -2.3931  1.0464 -1.1446
 5668SOL    MW422446   2.374   2.025   5.350 -0.2437  0.2022  0.2982
 5669SOL     OW22447   2.213   2.229   1.576 -0.5244 -0.2322  0.3123
 5669SOL    HW222448   2.207   2.177   1.656 -0.1974 -1.0962 -0.2121
 5669SOL    HW322449   2.267   2.305   1.601 -0.1991 -0.6290  0.8470
 5669SOL    MW422450   2.220   2.232   1.589 -0.4384 -0.3986  0.3137
 5670SOL     OW22451   2.306   2.598   1.870 -0.4214  0.0568  0.1840
 5670SOL    HW222452   2.383   2.650   1.891 -0.5635  0.4007 -0.1421
 5670SOL    HW322453   2.241   2.661   1.841 -0.4323 -0.3312 -0.6893
 5670SOL    MW422454   2.308   2.613   1.869 -0.4416  0.0510  0.0257
 5671SOL     OW22455   5.288   5.279   4.810 -0.0437  0.4659 -0.0580
 5671SOL    HW222456   5.317   5.257   4.722 -0.4886  1.2785 -0.4148
 5671SOL    HW322457   5.194   5.257   4.811 -0.1550  0.9442  0.0497
 5671SOL    MW422458   5.279   5.273   4.799 -0.1170  0.6362 -0.0909
 5672SOL     OW22459   1.165   0.325   4.061  0.4825  0.0921 -0.0468
 5672SOL    HW222460   1.087   0.371   4.029  1.4339  1.1699 -0.8842
 5672SOL    HW322461   1.182   0.258   3.994  1.1085  0.8145 -0.6258
 5672SOL    MW422462   1.157   0.322   4.048  0.6906  0.3296 -0.2337
 5673SOL     OW22463   0.068   3.274   4.088 -0.3461  0.2764 -0.4807
 5673SOL    HW222464   0.142   3.314   4.133  0.1772 -0.0648 -1.0217
 5673SOL    HW322465   0.079   3.300   3.997  0.1764 -1.3051 -0.9048
 5673SOL    MW422466   0.079   3.283   4.082 -0.2081  0.0227 -0.6080
 5674SOL     OW22467   6.378   0.041   3.451 -0.3831  0.3321 -0.4243
 5674SOL    HW222468   6.292   0.083   3.448 -0.3969  0.3108 -0.3368
 5674SOL    HW322469   6.403   0.044   3.544 -0.3927  0.1321 -0.4152
 5674SOL    MW422470   6.370   0.047   3.463 -0.3862  0.3029 -0.4116
 5675SOL     OW22471   0.516   0.628   1.403  0.4793 -0.0482  0.3207
 5675SOL    HW222472   0.481   0.583   1.480  1.0571  0.9182  1.1719
 5675SOL    HW322473   0.486   0.719   1.413  0.3033  0.0251 -0.7665
 5675SOL    MW422474   0.507   0.634   1.415  0.5323  0.0890  0.2896
 5676SOL     OW22475   4.292   1.644   3.042 -0.3900  0.5287 -0.4282
 5676SOL    HW222476   4.245   1.726   3.029 -0.6414  0.4573  0.0372
 5676SOL    HW322477   4.303   1.609   2.954 -2.7741 -0.3422 -0.4450
 5676SOL    MW422478   4.287   1.651   3.029 -0.7378  0.4044 -0.3690
 5677SOL     OW22479   2.801   2.972   5.750  0.0429  0.3120  0.3857
 5677SOL    HW222480   2.882   2.948   5.705 -1.4491 -0.0698 -2.3404
 5677SOL    HW322481   2.808   3.067   5.762  0.1533  0.5827 -1.5319
 5677SOL    MW422482   2.813   2.981   5.746 -0.1394  0.2974 -0.2270
 5678SOL     OW22483   4.100   0.359   2.389 -0.3579 -0.2491  0.0523
 5678SOL    HW222484   4.156   0.413   2.333 -0.0591 -0.2878  0.3080
 5678SOL    HW322485   4.161   0.316   2.449 -0.7210  0.3414  0.8720
 5678SOL    MW422486   4.115   0.360   2.390 -0.3664 -0.1763  0.1942
 5679SOL     OW22487   0.451   0.764   5.924  0.3393 -0.0245 -0.0646
 5679SOL    HW222488   0.414   0.705   5.859  2.0006  0.5523 -1.5908
 5679SOL    HW322489   0.374   0.801   5.968 -0.7855 -1.4120 -0.7652
 5679SOL    MW422490   0.436   0.761   5.921  0.4101 -0.1315 -0.3584
 5680SOL     OW22491   2.467   4.716   6.109  0.0685  0.2785 -0.1624
 5680SOL    HW222492   2.400   4.765   6.158 -0.4731 -0.3104 -0.3020
 5680SOL    HW322493   2.498   4.650   6.170  0.6702  0.6700 -0.0364
 5680SOL    MW422494   2.462   4.714   6.123  0.0764  0.2524 -0.1642
 5681SOL     OW22495   5.275   5.994   6.268  0.6734 -0.3112 -0.3675
 5681SOL    HW222496   5.315   6.061   6.323 -0.9129  0.1350  0.2862
 5681SOL    HW322497   5.275   6.032   6.180 -0.7648  0.8617  0.0906
 5681SOL    MW422498   5.280   6.008   6.264  0.2744 -0.0976 -0.2208
 5682SOL     OW22499   0.221   6.421   2.019 -0.5303 -0.2411 -0.3313
 5682SOL    HW222500   0.177   6.386   2.097 -0.3094 -0.9969 -0.5395
 5682SOL    HW322501   0.227   6.515   2.036 -0.6044 -0.3751  0.5095
 5682SOL    MW422502   0.216   6.429   2.032 -0.5109 -0.3585 -0.2478
 5683SOL     OW22503   4.479   1.956   6.355 -0.6460  0.0048  0.5411
 5683SOL    HW222504   4.394   1.991   6.328  0.7765  2.1169 -1.5539
 5683SOL    HW322505   4.539   1.982   6.285  1.7590 -1.4028  1.9552
 5683SOL    MW422506   4.476   1.964   6.342 -0.1410  0.0977  0.4513
 5684SOL     OW22507   0.701   6.210   5.236  0.1354  0.4648 -0.0094
 5684SOL    HW222508   0.664   6.262   5.165  0.0506  0.4510  0.0255
 5684SOL    HW322509   0.679   6.259   5.316 -1.0985 -0.3022  0.1359
 5684SOL    MW422510   0.693   6.224   5.237 -0.0386  0.3618  0.0144
 5685SOL     OW22511   3.387   2.804   2.637 -0.2271 -0.8312  0.0805
 5685SOL    HW222512   3.306   2.817   2.685 -0.7580  1.0553 -1.1873
 5685SOL    HW322513   3.359   2.777   2.549  0.1347  3.1522 -1.4882
 5685SOL    MW422514   3.373   2.802   2.632 -0.2494 -0.0567 -0.2938
 5686SOL     OW22515   4.441   4.396   5.999  0.1644 -0.3058 -0.5356
 5686SOL    HW222516   4.429   4.449   5.920 -1.2966 -0.6722 -0.5889
 5686SOL    HW322517   4.353   4.365   6.020  0.7211 -1.1914  0.5580
 5686SOL    MW422518   4.427   4.399   5.992  0.0451 -0.4710 -0.3984
 5687SOL     OW22519   3.324   2.544   4.064 -0.1025 -0.1918  0.3981
 5687SOL    HW222520   3.300   2.555   4.156  1.5160 -1.5375  1.0245
 5687SOL    HW322521   3.314   2.450   4.048 -0.5456  0.0492 -0.8784
 5687SOL    MW422522   3.319   2.533   4.074  0.0526 -0.3375  0.3123
 5688SOL     OW22523   2.871   4.713   1.139 -0.6577 -0.0624 -0.4721
 5688SOL    HW222524   2.899   4.789   1.088  0.9880 -0.9140 -0.8777
 5688SOL    HW322525   2.776   4.724   1.146 -0.4033  2.4400  0.1698
 5688SOL    MW422526   2.862   4.725   1.133 -0.4070  0.1554 -0.4410
 5689SOL     OW22527   5.446   6.133   4.123  0.3881  0.3219 -0.6538
 5689SOL    HW222528   5.413   6.214   4.161  1.9516  0.6843  0.0258
 5689SOL    HW322529   5.490   6.160   4.043  0.1165  0.0160 -0.9083
 5689SOL    MW422530   5.447   6.147   4.117  0.5585  0.3294 -0.5977
 5690SOL     OW22531   2.229   2.800   2.640  0.4981 -0.5915 -0.3629
 5690SOL    HW222532   2.264   2.837   2.721  0.8004  0.3874 -0.9278
 5690SOL    HW322533   2.216   2.708   2.660 -0.1857 -0.2189  1.0617
 5690SOL    MW422534   2.232   2.793   2.653  0.4478 -0.4132 -0.2495
 5691SOL     OW22535   3.043   2.499   4.270 -0.2450  0.5780 -0.0985
 5691SOL    HW222536   3.128   2.535   4.295  0.4513 -0.9359 -0.1353
 5691SOL    HW322537   3.063   2.410   4.239 -1.8658  0.1143  0.0896
 5691SOL    MW422538   3.057   2.492   4.269 -0.3669  0.3171 -0.0785
 5692SOL     OW22539   4.418   5.017   5.065 -0.3262 -0.5108  0.0451
 5692SOL    HW222540   4.365   5.095   5.081  1.3566  0.4528  1.1910
 5692SOL    HW322541   4.479   5.013   5.138  3.9037  0.8029 -2.9945
 5692SOL    MW422542   4.419   5.026   5.077  0.4539 -0.2103 -0.2047
 5693SOL     OW22543   1.988   2.543   4.976  0.1889  0.6217  0.7299
 5693SOL    HW222544   1.899   2.572   4.995  0.1701 -0.1592  1.9595
 5693SOL    HW322545   2.010   2.485   5.049  1.4354  0.2229  0.0641
 5693SOL    MW422546   1.979   2.539   4.988  0.3509  0.4661  0.8043
 5694SOL     OW22547   0.318   4.482   0.532  0.1490  0.1386 -0.5702
 5694SOL    HW222548   0.394   4.453   0.482 -0.8215 -2.3260 -0.7327
 5694SOL    HW322549   0.307   4.417   0.600 -1.1518  1.0770  0.1739
 5694SOL    MW422550   0.327   4.470   0.534 -0.1506 -0.0628 -0.4935
 5695SOL     OW22551   0.013   2.700   1.968 -0.5731 -0.1740 -0.0317
 5695SOL    HW222552   0.013   2.794   1.945  0.3849  0.4427  2.2513
 5695SOL    HW322553  -0.067   2.688   2.019 -0.8719 -0.6962 -0.6159
 5695SOL    MW422554   0.002   2.711   1.972 -0.4861 -0.1616  0.1924
 5696SOL     OW22555   2.153   1.720   1.539  0.4902 -0.2428  0.6122
 5696SOL    HW222556   2.156   1.630   1.571 -1.4317 -0.6491 -0.1526
 5696SOL    HW322557   2.136   1.711   1.445 -0.5511  0.8962  0.6612
 5696SOL    MW422558   2.151   1.707   1.531  0.0992 -0.1461  0.5177
 5697SOL     OW22559   4.624   1.192   4.651 -0.0787  0.2144 -0.4967
 5697SOL    HW222560   4.632   1.176   4.557  0.2054  3.5327 -1.1448
 5697SOL    HW322561   4.714   1.205   4.681 -0.2638  0.4820 -0.0470
 5697SOL    MW422562   4.637   1.191   4.643 -0.0657  0.6875 -0.5229
 5698SOL     OW22563   4.837   6.365   5.606  0.5316 -0.1043 -0.6136
 5698SOL    HW222564   4.824   6.293   5.544 -1.0686  0.2909 -0.7892
 5698SOL    HW322565   4.860   6.323   5.688  0.6442 -0.7578 -0.9752
 5698SOL    MW422566   4.838   6.350   5.608  0.3353 -0.1384 -0.6845
 5699SOL     OW22567   4.221   3.623   0.760 -0.2710 -0.5496 -0.2040
 5699SOL    HW222568   4.162   3.551   0.781  0.3386 -1.5094 -1.5925
 5699SOL    HW322569   4.174   3.702   0.787 -1.1443 -1.4299  0.9441
 5699SOL    MW422570   4.207   3.624   0.767 -0.3058 -0.7923 -0.2357
 5700SOL     OW22571   1.715   5.102   4.650 -0.0905  0.2345 -0.0883
 5700SOL    HW222572   1.810   5.102   4.656 -0.0051 -0.0188 -1.2123
 5700SOL    HW322573   1.686   5.167   4.714  0.7148 -1.1868  1.7948
 5700SOL    MW422574   1.723   5.110   4.659  0.0270  0.0136  0.0118
 5701SOL     OW22575   0.283   5.538   4.854  0.6735 -0.2799 -0.2091
 5701SOL    HW222576   0.354   5.489   4.895  0.0813 -0.0891  1.0956
 5701SOL    HW322577   0.293   5.627   4.889  1.1247  0.3161 -1.7612
 5701SOL    MW422578   0.294   5.544   4.864  0.6549 -0.1761 -0.2417
 5702SOL     OW22579   2.314   5.870   3.887  0.1172  0.3076 -0.1092
 5702SOL    HW222580   2.367   5.796   3.858  1.0736  1.2458 -0.8733
 5702SOL    HW322581   2.340   5.942   3.829  0.1107  1.5641  1.3610
 5702SOL    MW422582   2.324   5.870   3.875  0.2425  0.5971 -0.0161
 5703SOL     OW22583   2.390   1.320   2.814 -0.1622  0.1384  0.3439
 5703SOL    HW222584   2.422   1.241   2.770 -2.0844 -1.7657  2.1522
 5703SOL    HW322585   2.468   1.373   2.827  1.3450 -1.8140 -0.2577
 5703SOL    MW422586   2.404   1.317   2.810 -0.2169 -0.3704  0.5031
 5704SOL     OW22587   0.854   1.720   5.446  0.1486  0.5060 -0.3751
 5704SOL    HW222588   0.920   1.775   5.405  0.1882  0.4803 -0.3461
 5704SOL    HW322589   0.805   1.780   5.503  0.4003  0.4488 -0.0947
 5704SOL    MW422590   0.856   1.735   5.448  0.1870  0.4951 -0.3343
 5705SOL     OW22591   1.520   0.777   3.076 -0.0783 -0.0624 -0.3011
 5705SOL    HW222592   1.446   0.720   3.056 -2.3170  1.1976  3.2974
 5705SOL    HW322593   1.596   0.732   3.040 -1.8907 -4.4046  0.6428
 5705SOL    MW422594   1.520   0.764   3.069 -0.6128 -0.4691  0.2982
 5706SOL     OW22595   0.787   3.591   3.541 -0.2571 -0.9992 -0.2006
 5706SOL    HW222596   0.843   3.611   3.615  0.7519 -1.0326 -0.9402
 5706SOL    HW322597   0.807   3.500   3.519 -1.7236 -1.5180  0.4693
 5706SOL    MW422598   0.797   3.582   3.548 -0.3174 -1.0721 -0.2098
 5707SOL     OW22599   2.627   1.051   1.629 -0.0206  0.0229 -0.0699
 5707SOL    HW222600   2.609   1.064   1.536  3.0516  1.2885 -0.5904
 5707SOL    HW322601   2.580   1.122   1.673  0.5258  0.9376 -0.9313
 5707SOL    MW422602   2.618   1.062   1.622  0.4569  0.3105 -0.2522
 5708SOL     OW22603   0.365   3.674   4.391 -0.4722 -0.5664 -0.4472
 5708SOL    HW222604   0.294   3.729   4.357 -0.8951 -0.2904  0.8275
 5708SOL    HW322605   0.322   3.597   4.427 -0.1461 -0.3249  0.4825
 5708SOL    MW422606   0.350   3.671   4.391 -0.4850 -0.4981 -0.1564
 5709SOL     OW22607   4.695   5.306   5.440 -0.0616 -0.5194  0.0151
 5709SOL    HW222608   4.762   5.369   5.411 -1.0026  1.1394  1.3071
 5709SOL    HW322609   4.617   5.332   5.391 -0.3196 -1.0545  0.1489
 5709SOL    MW422610   4.694   5.318   5.429 -0.2198 -0.3712  0.2032
 5710SOL     OW22611   5.460   1.142   2.854 -0.2545 -0.4445  0.0102
 5710SOL    HW222612   5.493   1.208   2.792 -0.1865 -1.8132 -1.4882
 5710SOL    HW322613   5.534   1.083   2.867 -0.6098 -0.7667  0.5604
 5710SOL    MW422614   5.474   1.143   2.847 -0.2924 -0.6676 -0.1149
 5711SOL     OW22615   4.621   4.147   0.703 -0.6937 -0.0330  0.9605
 5711SOL    HW222616   4.584   4.128   0.617 -2.8589 -0.3447  1.8915
 5711SOL    HW322617   4.608   4.066   0.753  0.2575  0.2436  1.6951
 5711SOL    MW422618   4.614   4.134   0.698 -0.8539 -0.0376  1.1803
 5712SOL     OW22619   0.891   0.045   1.860 -0.0370  0.0572  0.5571
 5712SOL    HW222620   0.804   0.083   1.856  0.2443  0.8190  1.3081
 5712SOL    HW322621   0.912   0.044   1.953  1.0812  0.6428  0.3237
 5712SOL    MW422622   0.882   0.050   1.872  0.1476  0.2350  0.6254
 5713SOL     OW22623   1.167   1.739   4.909  0.1951 -0.1637  0.4618
 5713SOL    HW222624   1.081   1.781   4.916  0.2158 -0.1761  0.8267
 5713SOL    HW322625   1.221   1.785   4.973  0.5815  0.1252 -0.0639
 5713SOL    MW422626   1.163   1.751   4.919  0.2488 -0.1272  0.4406
 5714SOL     OW22627   3.789   1.875   0.150  0.2261  0.5384 -0.6474
 5714SOL    HW222628   3.778   1.786   0.184  1.1027  1.1649  1.4424
 5714SOL    HW322629   3.722   1.883   0.082  0.0132 -1.6383 -0.7774
 5714SOL    MW422630   3.779   1.864   0.145  0.3137  0.3339 -0.3888
 5715SOL     OW22631   0.331   0.743   4.509  0.4243  0.1675  0.1111
 5715SOL    HW222632   0.307   0.836   4.513  2.1123  0.6127  1.6922
 5715SOL    HW322633   0.426   0.744   4.495  0.5234 -1.3129  0.5355
 5715SOL    MW422634   0.340   0.755   4.508  0.6601  0.0309  0.3757
 5716SOL     OW22635   1.169   0.884   3.318  0.0597  0.3566  0.2000
 5716SOL    HW222636   1.178   0.795   3.353 -1.7407  1.5905  4.4424
 5716SOL    HW322637   1.106   0.875   3.246 -1.1228 -1.6829  1.3926
 5716SOL    MW422638   1.162   0.871   3.313 -0.3338  0.2503  0.9171
 5717SOL     OW22639   0.086   4.155   4.329 -0.7457 -0.3136 -0.1467
 5717SOL    HW222640   0.124   4.122   4.247  0.6912 -3.4367  1.5956
 5717SOL    HW322641   0.002   4.110   4.336  0.3425 -2.2396  1.3044
 5717SOL    MW422642   0.080   4.145   4.319 -0.4126 -0.9798  0.2747
 5718SOL     OW22643   2.822   5.987   6.038  0.0230 -0.3697  0.3384
 5718SOL    HW222644   2.912   5.965   6.063  0.7838  2.3046  0.2860
 5718SOL    HW322645   2.772   5.983   6.119  1.2847  2.7439  1.4279
 5718SOL    MW422646   2.827   5.984   6.052  0.2899  0.3939  0.4753
 5719SOL     OW22647   0.421   1.192   2.486 -0.1515 -0.0323  0.4523
 5719SOL    HW222648   0.376   1.242   2.554 -1.8359  0.1600 -0.7469
 5719SOL    HW322649   0.368   1.113   2.476  1.1498 -0.9603  0.6500
 5719SOL    MW422650   0.408   1.188   2.494 -0.2021 -0.1294  0.3202
 5720SOL     OW22651   5.079   2.878   4.871  0.1749  0.3587 -0.1278
 5720SOL    HW222652   5.098   2.864   4.778  1.8702 -0.5312  0.3138
 5720SOL    HW322653   5.018   2.952   4.871  0.0249  0.2981 -1.9468
 5720SOL    MW422654   5.074   2.886   4.858  0.3788  0.2333 -0.3096
 5721SOL     OW22655   3.574   1.967   1.793  0.0372 -0.6755  0.6974
 5721SOL    HW222656   3.607   1.971   1.883  0.2147 -1.9409  0.7069
 5721SOL    HW322657   3.480   1.980   1.801 -0.0903 -1.7992  1.1953
 5721SOL    MW422658   3.566   1.969   1.806  0.0438 -0.9907  0.7643
 5722SOL     OW22659   3.017   3.121   3.129 -0.2696 -0.0380 -0.2685
 5722SOL    HW222660   3.041   3.211   3.105  4.4247 -0.6281  1.1985
 5722SOL    HW322661   3.005   3.124   3.224  0.0600 -0.9676 -0.1916
 5722SOL    MW422662   3.018   3.134   3.138  0.3932 -0.2385 -0.0648
 5723SOL     OW22663   2.183   6.194   1.070  0.1824 -0.1520  0.1707
 5723SOL    HW222664   2.124   6.264   1.096 -0.3921 -0.2660 -0.7554
 5723SOL    HW322665   2.197   6.143   1.149  0.0090  0.5716  0.6798
 5723SOL    MW422666   2.177   6.196   1.084  0.0837 -0.0716  0.1157
 5724SOL     OW22667   3.436   1.129   4.006 -0.1822  0.4057  0.3406
 5724SOL    HW222668   3.402   1.043   4.031 -1.3714  0.1022 -2.0171
 5724SOL    HW322669   3.382   1.191   4.057 -1.6732 -0.1951 -0.4341
 5724SOL    MW422670   3.424   1.126   4.016 -0.5358  0.2864 -0.0727
 5725SOL     OW22671   4.672   1.437   0.167 -0.1460 -0.4658  0.1717
 5725SOL    HW222672   4.759   1.470   0.185 -0.3329  0.5397 -0.6470
 5725SOL    HW322673   4.653   1.468   0.078 -2.0000  0.8006  0.9578
 5725SOL    MW422674   4.681   1.445   0.157 -0.4153 -0.1660  0.1674
 5726SOL     OW22675   5.825   2.784   3.767 -0.1668 -0.3751 -0.8253
 5726SOL    HW222676   5.739   2.777   3.726 -0.8694 -1.4311  0.7491
 5726SOL    HW322677   5.807   2.808   3.858  1.2352 -0.1625 -0.5766
 5726SOL    MW422678   5.811   2.786   3.774 -0.0745 -0.4864 -0.5848
 5727SOL     OW22679   4.138   2.783   2.475  0.2175  0.5067  0.5100
 5727SOL    HW222680   4.121   2.869   2.437  1.4933  0.5129 -0.1019
 5727SOL    HW322681   4.228   2.761   2.447  0.1233 -0.7714  1.1135
 5727SOL    MW422682   4.148   2.791   2.466  0.3734  0.3389  0.5089
 5728SOL     OW22683   2.227   0.043   2.193 -0.0192  0.1693 -0.5289
 5728SOL    HW222684   2.181   0.042   2.277  0.2350 -2.6137 -0.3398
 5728SOL    HW322685   2.196   0.122   2.150 -4.8985 -1.3266 -0.3763
 5728SOL    MW422686   2.217   0.053   2.199 -0.6294 -0.3953 -0.4838
 5729SOL     OW22687   0.323   0.616   3.092  0.1506 -0.5154  0.2980
 5729SOL    HW222688   0.403   0.661   3.063 -1.4789  0.3558 -3.3832
 5729SOL    HW322689   0.252   0.662   3.048 -2.3908 -1.8292  2.7200
 5729SOL    MW422690   0.324   0.628   3.083 -0.3997 -0.5738  0.1319
 5730SOL     OW22691   2.740   2.789   5.136 -0.1280  0.2429 -0.0955
 5730SOL    HW222692   2.740   2.825   5.048  3.6772 -0.4444 -0.5195
 5730SOL    HW322693   2.763   2.863   5.192 -0.0287  0.1363  0.0044
 5730SOL    MW422694   2.743   2.804   5.132  0.3871  0.1381 -0.1382
 5731SOL     OW22695   3.050   5.485   2.105 -0.1704 -0.3256 -0.0075
 5731SOL    HW222696   3.082   5.441   2.027  0.3622 -0.5381  0.3250
 5731SOL    HW322697   3.072   5.578   2.092 -0.8060 -0.2269 -0.4624
 5731SOL    MW422698   3.057   5.492   2.093 -0.1840 -0.3406 -0.0236
 5732SOL     OW22699   4.411   1.289   3.227  0.1056 -0.5523  0.3952
 5732SOL    HW222700   4.442   1.297   3.136 -0.3972  1.6113  0.3580
 5732SOL    HW322701   4.323   1.253   3.218 -0.4995  0.9725 -0.1231
 5732SOL    MW422702   4.404   1.285   3.214 -0.0406 -0.0656  0.3219
 5733SOL     OW22703   0.675   6.123   0.371 -0.2047 -0.4024  0.2784
 5733SOL    HW222704   0.669   6.185   0.443 -2.7963 -1.0348  0.6992
 5733SOL    HW322705   0.768   6.101   0.367  0.5682  2.2712  1.1116
 5733SOL    MW422706   0.687   6.128   0.380 -0.4446 -0.1331  0.4439
 5734SOL     OW22707   0.814   5.159   1.471 -1.3192 -0.4717  0.3562
 5734SOL    HW222708   0.740   5.219   1.477 -0.6928  0.3479  0.0705
 5734SOL    HW322709   0.886   5.204   1.515 -0.1096  0.2003 -2.1000
 5734SOL    MW422710   0.814   5.173   1.478 -1.0769 -0.2749 -0.0056
 5735SOL     OW22711   2.510   3.324   4.265  0.4791  0.3166  0.0004
 5735SOL    HW222712   2.463   3.241   4.267 -0.6423  0.9316 -0.0795
 5735SOL    HW322713   2.518   3.349   4.357  0.4211  0.3485 -0.0038
 5735SOL    MW422714   2.505   3.316   4.278  0.3235  0.4020 -0.0107
 5736SOL     OW22715   3.736   1.243   0.034 -0.3208  0.8001  0.3552
 5736SOL    HW222716   3.764   1.308  -0.030 -1.7163  1.8601  0.7782
 5736SOL    HW322717   3.790   1.260   0.111  0.9087 -0.0557 -0.2999
 5736SOL    MW422718   3.747   1.254   0.036 -0.3427  0.8270  0.3245
 5737SOL     OW22719   5.662   1.485   2.097  0.0903  0.3344 -0.0364
 5737SOL    HW222720   5.692   1.556   2.153 -0.3788  0.3489  0.2003
 5737SOL    HW322721   5.740   1.460   2.047 -0.4918  3.4455 -2.8377
 5737SOL    MW422722   5.677   1.491   2.098 -0.0484  0.7468 -0.3748
 5738SOL     OW22723   5.347   1.415   5.404  0.0668 -0.7589 -0.3602
 5738SOL    HW222724   5.371   1.446   5.317  0.2416 -1.9364 -0.7374
 5738SOL    HW322725   5.334   1.496   5.455 -0.4368 -0.0513 -1.5641
 5738SOL    MW422726   5.348   1.430   5.400  0.0234 -0.8209 -0.5688
 5739SOL     OW22727   3.602   4.927   1.013 -0.5154 -0.0308 -0.7455
 5739SOL    HW222728   3.576   4.858   0.952  0.0448  0.4660 -1.5846
 5739SOL    HW322729   3.696   4.913   1.026 -0.8129 -0.7095  0.7843
 5739SOL    MW422730   3.611   4.916   1.007 -0.4807 -0.0548 -0.6543
 5740SOL     OW22731   5.920   0.866   2.745 -0.2621 -0.1105 -0.1291
 5740SOL    HW222732   5.851   0.817   2.700  0.8142 -1.3264 -0.5210
 5740SOL    HW322733   5.883   0.886   2.831 -1.9925  1.3882 -1.1625
 5740SOL    MW422734   5.906   0.862   2.750 -0.3484 -0.0732 -0.3172
 5741SOL     OW22735   5.867   3.487   5.223  0.0317  0.7826 -0.3194
 5741SOL    HW222736   5.772   3.474   5.228  0.0078  1.2176  0.3624
 5741SOL    HW322737   5.880   3.579   5.242  0.7379  0.3467  1.5330
 5741SOL    MW422738   5.856   3.497   5.226  0.1218  0.7825  0.0149
 5742SOL     OW22739   4.876   0.356   2.660  0.5141  0.1132  0.6007
 5742SOL    HW222740   4.852   0.290   2.725  1.7596  0.1973  1.1750
 5742SOL    HW322741   4.925   0.422   2.709  0.5464  0.7275 -0.2311
 5742SOL    MW422742   4.879   0.356   2.675  0.6827  0.2054  0.5667
 5743SOL     OW22743   4.947   1.972   0.662 -0.3290  0.3633 -0.8314
 5743SOL    HW222744   4.912   1.886   0.640 -4.7839  1.7472 -0.0857
 5743SOL    HW322745   4.957   2.017   0.579 -1.6424  0.3456 -1.0054
 5743SOL    MW422746   4.944   1.966   0.648 -1.0900  0.5435 -0.7560
 5744SOL     OW22747   2.324   6.243   2.517  0.2676  0.3007  0.2493
 5744SOL    HW222748   2.279   6.231   2.433  0.0900  0.3344  0.3406
 5744SOL    HW322749   2.265   6.297   2.569  0.6381  0.7677  0.1889
 5744SOL    MW422750   2.311   6.248   2.512  0.2930  0.3668  0.2534
 5745SOL     OW22751   5.065   5.710   0.696  0.2133  0.4719  0.8448
 5745SOL    HW222752   5.007   5.785   0.708  0.2873  0.4519  1.3535
 5745SOL    HW322753   5.079   5.706   0.601 -0.0774  0.8808  0.7786
 5745SOL    MW422754   5.059   5.719   0.685  0.1847  0.5232  0.9032
 5746SOL     OW22755   6.020   0.917   3.790  0.3459  0.1404 -0.3556
 5746SOL    HW222756   5.934   0.893   3.825  0.0400  1.9751  0.2703
 5746SOL    HW322757   6.077   0.918   3.867  0.3184  1.4735 -0.3438
 5746SOL    MW422758   6.016   0.914   3.805  0.3019  0.5584 -0.2715
 5747SOL     OW22759   3.478   3.923   5.262 -0.1556  0.0010  0.3791
 5747SOL    HW222760   3.490   3.832   5.237 -0.6630 -0.4143  1.5435
 5747SOL    HW322761   3.395   3.949   5.222  0.1970  0.0984 -0.3049
 5747SOL    MW422762   3.469   3.915   5.254 -0.1760 -0.0409  0.4424
 5748SOL     OW22763   0.261   1.986   1.556  0.0517  0.0744 -0.1111
 5748SOL    HW222764   0.227   1.907   1.599 -0.6482 -0.1065 -0.9575
 5748SOL    HW322765   0.294   2.040   1.628 -0.6794 -0.4103  0.6098
 5748SOL    MW422766   0.261   1.983   1.572 -0.1371 -0.0134 -0.1277
 5749SOL     OW22767   1.383   0.762   5.231 -1.0003  0.0684 -0.2600
 5749SOL    HW222768   1.349   0.744   5.319 -2.0153 -1.7865 -0.9686
 5749SOL    HW322769   1.317   0.816   5.189 -1.2184 -0.2478 -0.3331
 5749SOL    MW422770   1.370   0.767   5.237 -1.1630 -0.2181 -0.3631
 5750SOL     OW22771   2.677   0.027   0.335 -0.1512 -0.0803 -0.0774
 5750SOL    HW222772   2.613  -0.033   0.374 -0.9650  0.9095  0.1244
 5750SOL    HW322773   2.707   0.081   0.408 -0.3511  0.5947 -0.4887
 5750SOL    MW422774   2.673   0.026   0.350 -0.2850  0.1394 -0.1050
 5751SOL     OW22775   6.244   2.422   0.260 -0.0127 -0.2431 -0.6851
 5751SOL    HW222776   6.300   2.499   0.251 -2.7017  1.8051 -1.0439
 5751SOL    HW322777   6.219   2.401   0.170  0.7005 -1.5816 -0.5875
 5751SOL    MW422778   6.249   2.429   0.247 -0.2734 -0.1495 -0.7195
 5752SOL     OW22779   5.445   0.066   4.905  0.0674 -0.5478 -0.5756
 5752SOL    HW222780   5.409  -0.005   4.851 -1.0418  0.5530 -1.3452
 5752SOL    HW322781   5.512   0.107   4.850 -0.8942  0.4192 -1.0804
 5752SOL    MW422782   5.449   0.062   4.891 -0.2058 -0.2750 -0.7438
 5753SOL     OW22783   3.528   1.565   2.931 -0.0826 -0.4340 -0.3566
 5753SOL    HW222784   3.567   1.652   2.932 -0.6611 -0.1584 -1.0393
 5753SOL    HW322785   3.557   1.528   2.847  1.7301 -1.6425  0.7192
 5753SOL    MW422786   3.537   1.571   2.920  0.0802 -0.5571 -0.3047
 5754SOL     OW22787   5.481   0.181   2.434  0.0465  0.3767  0.6221
 5754SOL    HW222788   5.439   0.195   2.349 -0.4326 -0.2269  0.7551
 5754SOL    HW322789   5.560   0.130   2.414 -0.6296 -0.7042  0.6487
 5754SOL    MW422790   5.486   0.176   2.420 -0.1059  0.1544  0.6431
 5755SOL     OW22791   5.412   5.756   3.574  1.1087 -0.1947 -0.6091
 5755SOL    HW222792   5.444   5.770   3.663 -0.6205  0.7079 -0.0823
 5755SOL    HW322793   5.487   5.775   3.517  1.6250  1.4622  0.5627
 5755SOL    MW422794   5.426   5.760   3.578  0.9487  0.1430 -0.3850
 5756SOL     OW22795   3.161   0.199   2.066 -0.3683 -0.6645  0.3609
 5756SOL    HW222796   3.116   0.114   2.066 -2.2459  0.2921  0.5555
 5756SOL    HW322797   3.094   0.262   2.089  0.9155  0.9444 -0.1218
 5756SOL    MW422798   3.146   0.196   2.069 -0.4466 -0.3260  0.3229
 5757SOL     OW22799   4.006   1.929   5.426  0.0864  0.4723  0.1996
 5757SOL    HW222800   4.012   1.891   5.513  0.8352  0.4030  0.1271
 5757SOL    HW322801   3.974   1.858   5.370  0.9545  0.0931  0.1661
 5757SOL    MW422802   4.003   1.915   5.430  0.2997  0.4131  0.1856
 5758SOL     OW22803   6.006   4.920   0.816  0.0925  0.0535 -0.5629
 5758SOL    HW222804   5.917   4.898   0.787  0.4088 -0.1239 -1.4532
 5758SOL    HW322805   6.053   4.940   0.735  1.2683 -1.3387 -0.2693
 5758SOL    MW422806   6.000   4.920   0.801  0.2894 -0.1536 -0.6416
 5759SOL     OW22807   3.669   5.987   1.832 -0.0125 -0.4971  0.3846
 5759SOL    HW222808   3.734   6.043   1.874 -0.2297 -0.6796  0.9786
 5759SOL    HW322809   3.651   6.029   1.748 -0.9693  0.9376  1.2619
 5759SOL    MW422810   3.675   6.000   1.826 -0.1674 -0.3319  0.5787
 5760SOL     OW22811   1.903   1.286   1.857  1.1390 -0.0538 -0.6049
 5760SOL    HW222812   1.910   1.241   1.941 -0.6742  1.0308  0.2177
 5760SOL    HW322813   1.953   1.367   1.868 -0.0699  0.6622 -0.0741
 5760SOL    MW422814   1.910   1.291   1.869  0.7403  0.1837 -0.4263
 5761SOL     OW22815   4.838   4.346   2.930 -0.2299 -0.1070  0.1333
 5761SOL    HW222816   4.899   4.319   2.861 -2.4839 -3.2237 -0.8815
 5761SOL    HW322817   4.866   4.296   3.006 -0.3459 -0.0390  0.2201
 5761SOL    MW422818   4.850   4.336   2.931 -0.5426 -0.5092  0.0109
 5762SOL     OW22819   5.125   1.057   1.642 -0.4376  0.1701 -0.3790
 5762SOL    HW222820   5.089   0.969   1.649  1.1100 -0.4983 -0.2820
 5762SOL    HW322821   5.183   1.054   1.566  0.6860  0.6839  0.4178
 5762SOL    MW422822   5.128   1.045   1.633 -0.0851  0.1497 -0.2611
 5763SOL     OW22823   3.695   4.389   3.991  0.0790  0.2203 -0.4566
 5763SOL    HW222824   3.748   4.395   3.912  0.7931  0.9562  0.0569
 5763SOL    HW322825   3.747   4.336   4.051 -0.5695 -0.5467 -0.5461
 5763SOL    MW422826   3.709   4.383   3.989  0.0876  0.2162 -0.4006
 5764SOL     OW22827   1.167   2.858   3.010 -0.1316 -0.6913  0.5629
 5764SOL    HW222828   1.241   2.817   2.965 -0.3101 -0.5380  0.1142
 5764SOL    HW322829   1.114   2.895   2.939  1.7925  3.4710  0.9815
 5764SOL    MW422830   1.170   2.857   2.994  0.0987 -0.1219  0.5590
 5765SOL     OW22831   6.072   3.416   0.229 -0.2213 -0.7382  0.1833
 5765SOL    HW222832   6.141   3.401   0.164 -0.6695 -1.1588 -0.1981
 5765SOL    HW322833   6.058   3.511   0.226  2.5779 -0.1051  2.5635
 5765SOL    MW422834   6.079   3.427   0.220  0.0889 -0.7102  0.4470
 5766SOL     OW22835   4.493   1.133   0.014  0.0058 -0.1085  0.3281
 5766SOL    HW222836   4.412   1.083   0.016 -0.3812  0.5103  2.4277
 5766SOL    HW322837   4.470   1.213  -0.034 -0.2817 -0.4355 -0.0907
 5766SOL    MW422838   4.479   1.137   0.008 -0.0832 -0.0700  0.5498
 5767SOL     OW22839   1.738   1.993   0.518 -0.0180  0.3392 -0.1286
 5767SOL    HW222840   1.804   2.014   0.584  1.8295  2.0880 -2.3556
 5767SOL    HW322841   1.660   2.039   0.548 -0.0083 -0.9129  2.0272
 5767SOL    MW422842   1.736   2.002   0.531  0.2270  0.4047 -0.1380
 5768SOL     OW22843   1.975   2.652   1.150 -0.7926 -0.1581 -0.3781
 5768SOL    HW222844   2.021   2.643   1.067 -0.8120  0.5002 -0.4629
 5768SOL    HW322845   1.909   2.583   1.149 -0.4235 -0.5152 -0.6556
 5768SOL    MW422846   1.973   2.641   1.139 -0.7465 -0.1183 -0.4259
 5769SOL     OW22847   3.460   6.129   5.450 -0.0707 -0.6432 -0.6525
 5769SOL    HW222848   3.374   6.097   5.424  0.2558 -0.4217 -2.0553
 5769SOL    HW322849   3.515   6.051   5.454 -0.0786 -0.6549 -0.7870
 5769SOL    MW422850   3.456   6.115   5.447 -0.0287 -0.6156 -0.8554
 5770SOL     OW22851   3.796   0.787   4.691  0.2682 -0.2194 -0.3939
 5770SOL    HW222852   3.869   0.819   4.639  1.4712  0.1762  1.4577
 5770SOL    HW322853   3.728   0.765   4.627  1.9999 -0.6230 -2.1519
 5770SOL    MW422854   3.796   0.788   4.676  0.6554 -0.2204 -0.3816
 5771SOL     OW22855   5.335   4.637   2.775  0.0514 -0.2857  0.0188
 5771SOL    HW222856   5.337   4.636   2.679 -0.3832  0.4228 -0.0064
 5771SOL    HW322857   5.404   4.699   2.800 -0.7579  0.6088  0.1060
 5771SOL    MW422858   5.344   4.645   2.766 -0.1127 -0.0742  0.0270
 5772SOL     OW22859   3.332   4.214   1.759 -0.2045  0.4183 -0.3790
 5772SOL    HW222860   3.298   4.151   1.822  1.6983 -0.3794 -0.0574
 5772SOL    HW322861   3.411   4.249   1.801  0.3144  0.9112 -1.7169
 5772SOL    MW422862   3.338   4.210   1.773  0.1150  0.3781 -0.5131
 5773SOL     OW22863   5.728   1.576   3.646 -0.3850 -0.2292 -0.4007
 5773SOL    HW222864   5.780   1.532   3.578 -1.0614  0.5691 -1.4637
 5773SOL    HW322865   5.677   1.505   3.686 -0.2336 -0.6645 -0.9646
 5773SOL    MW422866   5.728   1.561   3.642 -0.4543 -0.1813 -0.6153
 5774SOL     OW22867   0.673   1.026   0.957  0.2522 -0.0936 -0.0376
 5774SOL    HW222868   0.649   1.116   0.977 -0.2817 -0.7304  2.5301
 5774SOL    HW322869   0.602   0.973   0.995  1.6319 -1.6770  0.4439
 5774SOL    MW422870   0.660   1.031   0.965  0.3638 -0.3865  0.3647
 5775SOL     OW22871   1.536   3.228   0.095  0.2777 -0.4414 -0.0040
 5775SOL    HW222872   1.542   3.274   0.179  0.7969  0.0551 -0.3045
 5775SOL    HW322873   1.564   3.293   0.030 -2.3433 -0.0503 -0.8510
 5775SOL    MW422874   1.541   3.243   0.098  0.0004 -0.3243 -0.1554
 5776SOL     OW22875   2.860   0.521   2.819  0.4293 -0.5389 -0.3872
 5776SOL    HW222876   2.766   0.510   2.804  0.6326 -0.8976 -1.4467
 5776SOL    HW322877   2.868   0.530   2.914 -0.6611 -0.6222 -0.2759
 5776SOL    MW422878   2.848   0.521   2.829  0.3123 -0.5972 -0.5123
 5777SOL     OW22879   5.099   0.860   5.591  0.2717 -0.2637  0.1366
 5777SOL    HW222880   5.039   0.859   5.666  1.0203  0.7835  0.7826
 5777SOL    HW322881   5.159   0.932   5.610  0.1145  0.4312 -1.7558
 5777SOL    MW422882   5.099   0.870   5.604  0.3497 -0.0339 -0.0279
 5778SOL     OW22883   2.983   0.067   3.960  0.3774  0.5221 -0.1137
 5778SOL    HW222884   2.958   0.029   4.044  2.7008  0.0560  0.4274
 5778SOL    HW322885   3.051   0.132   3.982  0.0359  1.3973 -1.5065
 5778SOL    MW422886   2.989   0.071   3.974  0.6389  0.5760 -0.2261
 5779SOL     OW22887   0.207   1.088   1.311 -0.0769 -0.6132 -0.3643
 5779SOL    HW222888   0.284   1.135   1.277  0.7243 -0.7177  1.2292
 5779SOL    HW322889   0.164   1.055   1.233  0.4391  1.0648 -1.4266
 5779SOL    MW422890   0.212   1.090   1.296  0.0969 -0.4056 -0.2942
 5780SOL     OW22891   5.710   0.410   1.156  0.1821 -0.2966  0.1052
 5780SOL    HW222892   5.616   0.430   1.155 -0.0211 -1.1811  0.6158
 5780SOL    HW322893   5.737   0.421   1.065 -0.4656 -0.2742 -0.0949
 5780SOL    MW422894   5.701   0.414   1.144  0.0699 -0.4103  0.1462
 5781SOL     OW22895   6.116   3.697   4.196 -0.1325  0.4573  0.1348
 5781SOL    HW222896   6.178   3.769   4.201  0.9750 -0.4897  0.4020
 5781SOL    HW322897   6.169   3.620   4.176 -1.3928 -0.1454 -1.0956
 5781SOL    MW422898   6.131   3.696   4.194 -0.1527  0.2529  0.0077
 5782SOL     OW22899   5.310   1.838   3.766 -0.0851  0.0917 -1.0373
 5782SOL    HW222900   5.226   1.801   3.740  0.0301 -0.7273 -0.3124
 5782SOL    HW322901   5.342   1.779   3.834 -0.1704  1.8477  0.6286
 5782SOL    MW422902   5.303   1.826   3.772 -0.0812  0.2154 -0.7219
 5783SOL     OW22903   1.315   5.934   1.348 -0.4175  0.0704  0.3648
 5783SOL    HW222904   1.227   5.932   1.385 -1.0525  1.2222 -0.9781
 5783SOL    HW322905   1.372   5.905   1.419 -1.8013  0.0532  1.5023
 5783SOL    MW422906   1.311   5.930   1.362 -0.6838  0.2201  0.3377
 5784SOL     OW22907   1.854   0.990   2.559 -0.2286 -0.0548 -0.5205
 5784SOL    HW222908   1.781   1.009   2.500  0.8010 -0.1445 -1.8712
 5784SOL    HW322909   1.929   1.031   2.518  0.5398 -0.1647  0.7266
 5784SOL    MW422910   1.854   0.998   2.546  0.0086 -0.0811 -0.5341
 5785SOL     OW22911   4.796   1.559   3.669  0.0652 -0.0111  0.1814
 5785SOL    HW222912   4.769   1.496   3.736 -3.6777  1.5627  0.4223
 5785SOL    HW322913   4.716   1.577   3.620  1.1847  3.6091 -0.6378
 5785SOL    MW422914   4.782   1.553   3.672 -0.2809  0.6741  0.1051
 5786SOL     OW22915   0.207   4.588   5.506  0.0657 -0.1508 -0.1713
 5786SOL    HW222916   0.184   4.500   5.536 -1.4974 -0.0263 -0.9488
 5786SOL    HW322917   0.228   4.576   5.413 -0.2694  0.3203 -0.3059
 5786SOL    MW422918   0.207   4.575   5.497 -0.1847 -0.0722 -0.2917
 5787SOL     OW22919   1.196   3.341   6.364  0.3891 -0.0012  0.7589
 5787SOL    HW222920   1.230   3.419   6.322 -1.5420  1.2647  1.4302
 5787SOL    HW322921   1.197   3.274   6.296 -0.3223  1.3192 -0.6051
 5787SOL    MW422922   1.201   3.342   6.350  0.0405  0.3401  0.6675
 5788SOL     OW22923   1.641   3.607   5.627 -0.2949  0.1568  0.0547
 5788SOL    HW222924   1.712   3.645   5.576 -0.1206 -0.0412  0.1489
 5788SOL    HW322925   1.567   3.604   5.566 -0.5036  1.2538  0.2362
 5788SOL    MW422926   1.641   3.612   5.612 -0.2994  0.2754  0.0910
 5789SOL     OW22927   2.672   5.237   2.508 -0.0394 -0.2523  0.0165
 5789SOL    HW222928   2.654   5.330   2.496  1.1701  0.1224  0.9549
 5789SOL    HW322929   2.671   5.201   2.419 -0.1599  0.7133 -0.3886
 5789SOL    MW422930   2.669   5.244   2.494  0.1043 -0.0755  0.0869
 5790SOL     OW22931   6.377   5.057   0.895  0.0622  0.7886  0.2566
 5790SOL    HW222932   6.364   5.119   0.966  0.3865  1.0972  0.0499
 5790SOL    HW322933   6.383   4.972   0.938  0.8383  1.0341  0.6540
 5790SOL    MW422934   6.376   5.054   0.910  0.2073  0.8617  0.2818
 5791SOL     OW22935   6.422   4.598   1.835  0.5169  0.0627 -0.9494
 5791SOL    HW222936   6.449   4.511   1.802 -0.1258 -0.7814  0.6485
 5791SOL    HW322937   6.335   4.584   1.871  0.9162  1.0563  0.5021
 5791SOL    MW422938   6.414   4.584   1.835  0.4847  0.0824 -0.5471
 5792SOL     OW22939   1.158   4.010   1.843 -0.0734 -0.0738 -0.2606
 5792SOL    HW222940   1.180   4.027   1.752 -1.4686  0.0746 -0.5972
 5792SOL    HW322941   1.138   4.096   1.880 -2.6023 -0.3674 -0.7167
 5792SOL    MW422942   1.158   4.024   1.836 -0.5912 -0.0929 -0.3652
 5793SOL     OW22943   0.152   5.674   0.459  0.3149  0.3207  0.5947
 5793SOL    HW222944   0.121   5.696   0.371  0.1329  0.5137  0.7053
 5793SOL    HW322945   0.128   5.582   0.470 -0.9836  0.6752  0.9859
 5793SOL    MW422946   0.145   5.665   0.449  0.1196  0.3929  0.6609
 5794SOL     OW22947   2.528   4.862   1.369 -0.7333 -0.4602 -0.2811
 5794SOL    HW222948   2.532   4.806   1.292 -1.0112  0.4655 -0.9866
 5794SOL    HW322949   2.571   4.811   1.438  1.2600 -0.5532 -1.5213
 5794SOL    MW422950   2.534   4.848   1.368 -0.5070 -0.3503 -0.5378
 5795SOL     OW22951   0.365   2.742   1.633 -0.4003 -0.1681  0.0545
 5795SOL    HW222952   0.333   2.693   1.708 -0.0150 -1.4059 -0.5710
 5795SOL    HW322953   0.313   2.710   1.559 -1.8370  2.0856 -0.0394
 5795SOL    MW422954   0.354   2.731   1.633 -0.5390 -0.0341 -0.0404
 5796SOL     OW22955   0.829   0.481   3.007  0.9006 -0.1192 -0.2921
 5796SOL    HW222956   0.829   0.518   3.095  0.6008 -1.2033  0.1713
 5796SOL    HW322957   0.737   0.480   2.981  0.9538 -0.1499 -0.4812
 5796SOL    MW422958   0.817   0.486   3.015  0.8681 -0.2663 -0.2559
 5797SOL     OW22959   2.837   4.425   4.208 -0.1707 -0.1088  0.0644
 5797SOL    HW222960   2.893   4.347   4.200  2.1270  1.5700 -1.8268
 5797SOL    HW322961   2.893   4.490   4.251 -1.5054  0.9711  0.2328
 5797SOL    MW422962   2.852   4.423   4.212 -0.0436  0.2551 -0.1629
 5798SOL     OW22963   6.059   3.204   1.491 -0.1342 -0.2022  0.1214
 5798SOL    HW222964   6.126   3.168   1.549  2.8270  0.7048 -2.4596
 5798SOL    HW322965   6.049   3.139   1.422 -2.1038 -0.3702  0.5022
 5798SOL    MW422966   6.066   3.191   1.490 -0.0033 -0.1047 -0.1689
 5799SOL     OW22967   3.681   5.752   4.699 -0.2117  0.4615  0.2518
 5799SOL    HW222968   3.742   5.709   4.639 -0.2785 -0.2265  0.6591
 5799SOL    HW322969   3.702   5.845   4.693 -0.8892  0.5295 -1.5832
 5799SOL    MW422970   3.692   5.758   4.691 -0.3099  0.3797  0.0635
 5800SOL     OW22971   3.273   3.128   4.593  0.5036  0.5790 -0.2660
 5800SOL    HW222972   3.259   3.190   4.522 -3.3675 -0.3109 -0.5135
 5800SOL    HW322973   3.301   3.047   4.549  1.9794  1.0948 -0.3121
 5800SOL    MW422974   3.275   3.125   4.577  0.1876  0.5297 -0.3048
 5801SOL     OW22975   5.187   2.710   1.541  0.4546  0.2664 -0.3523
 5801SOL    HW222976   5.152   2.786   1.495 -0.3864 -0.5676 -1.1280
 5801SOL    HW322977   5.119   2.686   1.604  0.0455 -0.7498 -1.1630
 5801SOL    MW422978   5.173   2.717   1.543  0.2897  0.0223 -0.5616
 5802SOL     OW22979   5.652   5.349   2.431  0.3102  0.0108  0.1389
 5802SOL    HW222980   5.650   5.409   2.506  0.5887 -1.0517  1.0448
 5802SOL    HW322981   5.576   5.292   2.445 -0.7633  1.0011 -1.4640
 5802SOL    MW422982   5.641   5.349   2.443  0.2053  0.0013  0.0469
 5803SOL     OW22983   6.292   2.994   0.563 -0.3173 -0.0634 -0.2451
 5803SOL    HW222984   6.298   3.080   0.606 -0.0631  0.3111 -1.0060
 5803SOL    HW322985   6.341   3.005   0.482  0.0351 -1.0514 -0.1759
 5803SOL    MW422986   6.299   3.007   0.558 -0.2372 -0.1443 -0.3363
 5804SOL     OW22987   2.163   2.667   0.071  1.2939 -0.0096 -0.3377
 5804SOL    HW222988   2.169   2.755   0.110  0.1431 -0.4187  0.8492
 5804SOL    HW322989   2.083   2.670   0.019 -0.3065 -1.0891  1.8789
 5804SOL    MW422990   2.154   2.679   0.069  0.9309 -0.2060  0.1114
 5805SOL     OW22991   0.834   0.879   4.689 -0.9123 -0.1217 -0.1222
 5805SOL    HW222992   0.763   0.817   4.673 -0.6850 -0.7339  1.0656
 5805SOL    HW322993   0.884   0.882   4.607  0.7686 -3.7822  0.5804
 5805SOL    MW422994   0.831   0.871   4.676 -0.6605 -0.6854  0.1272
 5806SOL     OW22995   3.261   4.227   3.899 -0.1508 -0.0317 -0.1381
 5806SOL    HW222996   3.306   4.306   3.930  0.7333 -0.0287 -1.3325
 5806SOL    HW322997   3.195   4.260   3.838  0.9853 -0.2215 -1.5439
 5806SOL    MW422998   3.258   4.242   3.895  0.1157 -0.0563 -0.4811
 5807SOL     OW22999   5.605   4.804   5.119  0.1613  0.0443 -0.1222
 5807SOL    HW223000   5.643   4.798   5.207  1.5705  0.6119 -0.6706
 5807SOL    HW323001   5.660   4.749   5.064  1.2808  2.1867 -1.2638
 5807SOL    MW423002   5.617   4.796   5.124  0.4949  0.4018 -0.3452
 5808SOL     OW23003   3.678   1.737   3.320  0.2239 -0.3739 -0.3948
 5808SOL    HW223004   3.711   1.706   3.404 -2.7043  2.3439  2.0167
 5808SOL    HW323005   3.668   1.658   3.267  1.5638 -2.2811  2.0408
 5808SOL    MW423006   3.681   1.723   3.324  0.0144 -0.2670  0.2447
 5809SOL     OW23007   2.541   4.325   0.719  0.0419  0.0664  0.5144
 5809SOL    HW223008   2.533   4.230   0.712  0.7828  0.1123 -1.5583
 5809SOL    HW323009   2.627   4.339   0.758 -0.0991 -0.0910  0.8933
 5809SOL    MW423010   2.551   4.314   0.723  0.1211  0.0517  0.2909
 5810SOL     OW23011   0.716   4.793   6.254  0.1597  0.0411 -0.5612
 5810SOL    HW223012   0.657   4.823   6.185 -0.2567  1.8617  0.5111
 5810SOL    HW323013   0.675   4.713   6.287 -1.9274  1.3889  0.3171
 5810SOL    MW423014   0.702   4.786   6.249 -0.1706  0.4591 -0.3039
 5811SOL     OW23015   2.092   5.869   4.808 -0.4077  0.4578  0.2278
 5811SOL    HW223016   2.134   5.954   4.824  0.9512 -0.0983 -0.2212
 5811SOL    HW323017   2.132   5.811   4.872 -1.4804  0.1827  0.6662
 5811SOL    MW423018   2.103   5.873   4.818 -0.3699  0.3481  0.2264
 5812SOL     OW23019   2.851   3.641   1.761  0.1261 -0.4080  0.4805
 5812SOL    HW223020   2.910   3.695   1.709 -0.4784 -0.5044 -0.3210
 5812SOL    HW323021   2.770   3.691   1.767  0.1529 -0.4400  1.2628
 5812SOL    MW423022   2.848   3.654   1.755  0.0499 -0.4250  0.4779
 5813SOL     OW23023   5.828   3.351   0.012  0.2783  0.1646  0.5891
 5813SOL    HW223024   5.836   3.387  -0.076  1.8151  0.8751  0.9889
 5813SOL    HW323025   5.867   3.263   0.006 -0.3555 -0.1110  0.3951
 5813SOL    MW423026   5.835   3.344   0.000  0.3975  0.2220  0.6162
 5814SOL     OW23027   0.134   0.375   1.744 -0.3144  0.3157 -0.0990
 5814SOL    HW223028   0.063   0.350   1.685 -1.5275  1.1185  0.9863
 5814SOL    HW323029   0.179   0.293   1.764 -0.7354 -0.1579 -1.0281
 5814SOL    MW423030   0.131   0.361   1.739 -0.5300  0.3591 -0.0784
 5815SOL     OW23031   2.497   1.308   3.412 -0.1495  0.1760  0.5029
 5815SOL    HW223032   2.495   1.283   3.319 -0.8458  1.4648  0.1519
 5815SOL    HW323033   2.515   1.226   3.458  2.1933 -0.1817 -0.8634
 5815SOL    MW423034   2.499   1.294   3.406  0.0677  0.2989  0.2763
 5816SOL     OW23035   5.886   4.559   1.315 -0.4663  0.0861  0.0449
 5816SOL    HW223036   5.881   4.568   1.220 -2.0175  0.0788  0.1032
 5816SOL    HW323037   5.848   4.473   1.333 -1.6797  0.7536  0.7752
 5816SOL    MW423038   5.881   4.549   1.305 -0.8310  0.1732  0.1489
 5817SOL     OW23039   2.469   5.461   6.230 -0.4500 -0.0522  0.1214
 5817SOL    HW223040   2.384   5.430   6.200 -1.3799  0.1282  2.4191
 5817SOL    HW323041   2.486   5.412   6.310  1.0628  0.7566  0.3390
 5817SOL    MW423042   2.460   5.451   6.236 -0.3731  0.0783  0.4533
 5818SOL     OW23043   3.739   0.686   3.675  0.0554  0.3738  0.1996
 5818SOL    HW223044   3.712   0.635   3.598 -0.3043 -1.0790  1.2392
 5818SOL    HW323045   3.834   0.692   3.668  0.2206 -1.3336  0.5388
 5818SOL    MW423046   3.748   0.680   3.664  0.0297 -0.0432  0.3815
 5819SOL     OW23047   6.384   4.746   4.480 -0.0570 -0.6014 -0.6989
 5819SOL    HW223048   6.336   4.669   4.508 -1.2831  0.1825 -0.5824
 5819SOL    HW323049   6.397   4.797   4.560 -1.1586  0.3247 -1.0824
 5819SOL    MW423050   6.380   4.743   4.494 -0.3641 -0.3758 -0.7342
 5820SOL     OW23051   5.825   5.658   3.525 -0.2128  0.1614  0.4479
 5820SOL    HW223052   5.779   5.732   3.484  0.9737 -0.0503 -1.4003
 5820SOL    HW323053   5.757   5.592   3.537 -0.5096 -0.1429 -2.1921
 5820SOL    MW423054   5.810   5.659   3.521 -0.0954  0.0933 -0.1442
 5821SOL     OW23055   4.383   5.851   4.309 -0.1146 -0.4611 -0.2153
 5821SOL    HW223056   4.372   5.886   4.398 -0.2679 -0.8563 -0.0754
 5821SOL    HW323057   4.420   5.764   4.323  1.6967  0.2038 -0.6003
 5821SOL    MW423058   4.387   5.844   4.323  0.1042 -0.4255 -0.2476
 5822SOL     OW23059   5.428   3.873   0.704  0.3413 -0.4600 -0.1080
 5822SOL    HW223060   5.350   3.851   0.754 -1.1818 -1.2061 -2.6346
 5822SOL    HW323061   5.460   3.789   0.671  0.6578  0.0645 -1.1946
 5822SOL    MW423062   5.422   3.859   0.706  0.1821 -0.4893 -0.5847
 5823SOL     OW23063   4.054   4.158   4.321 -0.1633  0.1567  0.2553
 5823SOL    HW223064   4.009   4.157   4.405  2.2586 -0.6874  1.6521
 5823SOL    HW323065   4.119   4.088   4.328  1.2355  1.1591 -1.6782
 5823SOL    MW423066   4.057   4.148   4.333  0.3408  0.1776  0.1845
 5824SOL     OW23067   1.054   1.279   5.750  0.9443  0.3302 -0.2534
 5824SOL    HW223068   1.036   1.369   5.723 -0.9342 -0.2748 -1.1690
 5824SOL    HW323069   1.108   1.244   5.679  1.3781  0.6093 -0.0681
 5824SOL    MW423070   1.059   1.286   5.737  0.7537  0.2872 -0.3498
 5825SOL     OW23071   0.092   2.926   3.028  0.7420 -0.9287  0.3329
 5825SOL    HW223072   0.173   2.932   3.078  1.3445  0.9635 -0.7733
 5825SOL    HW323073   0.110   2.860   2.961  1.4921 -0.2960 -0.0970
 5825SOL    MW423074   0.105   2.918   3.025  0.9205 -0.5955  0.1303
 5826SOL     OW23075   3.577   4.899   0.233 -0.2078 -0.3952  0.1465
 5826SOL    HW223076   3.569   4.848   0.152 -0.1291 -1.4031  0.7557
 5826SOL    HW323077   3.502   4.873   0.286 -0.1830  0.1532  0.4612
 5826SOL    MW423078   3.566   4.889   0.229 -0.1942 -0.4558  0.2684
 5827SOL     OW23079   2.800   1.840   3.385 -0.0419  0.1137 -0.2232
 5827SOL    HW223080   2.735   1.894   3.340 -0.2143 -0.0174 -0.1310
 5827SOL    HW323081   2.817   1.767   3.326  1.7991  1.3660 -1.3458
 5827SOL    MW423082   2.794   1.838   3.372  0.1783  0.2616 -0.3591
 5828SOL     OW23083   4.617   5.394   0.136  0.8837 -0.4965 -0.2435
 5828SOL    HW223084   4.653   5.435   0.215 -0.0727  1.6979 -0.8698
 5828SOL    HW323085   4.570   5.464   0.092 -0.0733 -2.0970 -1.9081
 5828SOL    MW423086   4.616   5.409   0.141  0.6313 -0.4182 -0.5457
 5829SOL     OW23087   2.311   3.756   3.058 -0.4703  0.4391 -0.1335
 5829SOL    HW223088   2.368   3.765   2.981 -0.0076  1.6992  0.3143
 5829SOL    HW323089   2.258   3.679   3.041 -0.3541  0.6826 -1.7071
 5829SOL    MW423090   2.311   3.747   3.046 -0.3940  0.6375 -0.2821
 5830SOL     OW23091   1.155   5.389   1.318  0.4669 -0.1660 -0.2674
 5830SOL    HW223092   1.102   5.467   1.333 -1.2856 -0.7923 -2.5722
 5830SOL    HW323093   1.246   5.420   1.322 -0.1479  1.6845  0.2656
 5830SOL    MW423094   1.160   5.403   1.320  0.1546 -0.0044 -0.5012
 5831SOL     OW23095   6.086   5.146   4.351  0.5481 -0.1699 -0.0720
 5831SOL    HW223096   6.056   5.064   4.312 -1.5776 -0.2539  1.5744
 5831SOL    HW323097   6.161   5.121   4.405  1.1198 -0.6615 -1.0477
 5831SOL    MW423098   6.092   5.132   4.353  0.3431 -0.2458  0.0165
 5832SOL     OW23099   0.065   2.408   3.026 -0.1805 -0.6547 -0.2986
 5832SOL    HW223100   0.009   2.432   2.952  0.1207 -0.0874 -0.3537
 5832SOL    HW323101   0.054   2.480   3.089  0.5677 -0.4771 -0.3596
 5832SOL    MW423102   0.056   2.421   3.025 -0.0421 -0.5564 -0.3139
 5833SOL     OW23103   3.536   6.110   6.132  0.1386  0.5880  0.3306
 5833SOL    HW223104   3.627   6.121   6.104 -0.0113 -0.8427 -0.8874
 5833SOL    HW323105   3.487   6.173   6.079 -0.0995 -1.8897 -2.6929
 5833SOL    MW423106   3.541   6.120   6.121  0.0874  0.0723 -0.2290
 5834SOL     OW23107   0.872   0.027   1.242  0.3149 -0.0520 -0.0395
 5834SOL    HW223108   0.882   0.058   1.332 -2.7269  0.8645  0.1058
 5834SOL    HW323109   0.869  -0.069   1.251 -2.1755  0.0467  1.2612
 5834SOL    MW423110   0.873   0.018   1.255 -0.4150  0.0819  0.1513
 5835SOL     OW23111   6.011   1.961   5.635 -0.4874 -0.0382 -0.0812
 5835SOL    HW223112   6.066   2.028   5.675 -1.1431 -0.3387  1.3967
 5835SOL    HW323113   5.927   1.968   5.681 -1.3227 -0.3412 -1.4974
 5835SOL    MW423114   6.007   1.970   5.647 -0.6841 -0.1178 -0.0730
 5836SOL     OW23115   6.061   2.279   4.241 -0.5306 -0.4761 -0.1905
 5836SOL    HW223116   6.080   2.192   4.207  0.7550 -0.3614  0.1699
 5836SOL    HW323117   6.032   2.329   4.165  0.8902 -0.6204 -0.8721
 5836SOL    MW423118   6.060   2.274   4.226 -0.1735 -0.4800 -0.2329
 5837SOL     OW23119   3.226   2.355   6.069  0.4065 -0.1659  0.0487
 5837SOL    HW223120   3.162   2.366   6.139 -0.0682 -1.5174 -0.1471
 5837SOL    HW323121   3.308   2.335   6.115  0.8991  2.1820  0.3288
 5837SOL    MW423122   3.229   2.354   6.085  0.4089 -0.0345  0.0598
 5838SOL     OW23123   0.199   5.531   3.738 -0.3526 -0.6693  0.0263
 5838SOL    HW223124   0.170   5.541   3.647 -0.8467 -2.3588 -0.0445
 5838SOL    HW323125   0.294   5.522   3.733 -0.1721  1.0490 -0.1234
 5838SOL    MW423126   0.207   5.531   3.725 -0.3940 -0.6655 -0.0028
 5839SOL     OW23127   2.571   3.161   1.243 -0.0356 -0.1729 -0.6700
 5839SOL    HW223128   2.647   3.135   1.189  1.2459 -1.3045  1.5193
 5839SOL    HW323129   2.568   3.095   1.312 -1.0340  1.7152  1.1713
 5839SOL    MW423130   2.581   3.149   1.245  0.0017 -0.0731 -0.1382
 5840SOL     OW23131   3.194   2.817   0.296 -0.0463 -0.7865  0.6349
 5840SOL    HW223132   3.205   2.731   0.257 -0.1249 -0.8272  0.7031
 5840SOL    HW323133   3.151   2.801   0.379  0.5212 -0.7394  0.9402
 5840SOL    MW423134   3.190   2.804   0.301  0.0182 -0.7856  0.6842
 5841SOL     OW23135   4.096   2.100   0.774 -0.3859 -0.2485  0.0219
 5841SOL    HW223136   4.118   2.015   0.812 -1.1372 -1.7946 -2.7365
 5841SOL    HW323137   4.180   2.136   0.745 -0.1295 -0.2947  0.6905
 5841SOL    MW423138   4.110   2.093   0.775 -0.4512 -0.4586 -0.2538
 5842SOL     OW23139   2.365   2.441   2.142 -0.5137  0.0820 -0.1630
 5842SOL    HW223140   2.376   2.534   2.121  0.3993 -0.5950 -3.0725
 5842SOL    HW323141   2.295   2.412   2.084  1.8140 -1.8221 -2.2373
 5842SOL    MW423142   2.357   2.450   2.131 -0.0861 -0.2585 -0.8205
 5843SOL     OW23143   4.442   3.684   4.892  0.3331 -0.3076  0.0758
 5843SOL    HW223144   4.472   3.736   4.967  1.4109 -0.8487  0.0473
 5843SOL    HW323145   4.380   3.622   4.930 -1.0746  1.0553  0.0879
 5843SOL    MW423146   4.438   3.682   4.907  0.2896 -0.1992  0.0736
 5844SOL     OW23147   0.843   6.304   2.535  0.3422  0.1622  0.6674
 5844SOL    HW223148   0.935   6.323   2.550  0.6616 -1.3143  0.7067
 5844SOL    HW323149   0.816   6.253   2.612  0.0209 -1.0653 -0.2323
 5844SOL    MW423150   0.852   6.300   2.547  0.3420 -0.1945  0.5539
 5845SOL     OW23151   5.015   4.292   2.710 -0.2293  0.2140  0.2348
 5845SOL    HW223152   5.008   4.346   2.631  1.8852 -0.4033 -0.4580
 5845SOL    HW323153   5.109   4.287   2.727 -0.5546 -0.8892  1.9510
 5845SOL    MW423154   5.027   4.298   2.702  0.0068 -0.0130  0.3698
 5846SOL     OW23155   3.854   4.969   4.498  0.8001  0.6146  0.6665
 5846SOL    HW223156   3.880   4.894   4.551 -0.4632  1.1036  2.0307
 5846SOL    HW323157   3.767   4.947   4.465  1.0023  0.9015 -0.0785
 5846SOL    MW423158   3.846   4.956   4.500  0.6601  0.7169  0.7482
 5847SOL     OW23159   2.076   3.391   4.765  0.1551 -0.0908  0.4253
 5847SOL    HW223160   2.052   3.400   4.857 -0.4486 -0.1221  0.2735
 5847SOL    HW323161   2.046   3.304   4.741 -0.8820  0.4064 -0.1498
 5847SOL    MW423162   2.069   3.381   4.774 -0.0613 -0.0293  0.3294
 5848SOL     OW23163   6.178   3.304   1.907 -0.3374 -0.0292 -0.5012
 5848SOL    HW223164   6.258   3.325   1.955 -0.9396  0.2599  0.3757
 5848SOL    HW323165   6.157   3.384   1.859 -0.4563  0.0980 -0.2354
 5848SOL    MW423166   6.186   3.317   1.907 -0.4326  0.0257 -0.3505
 5849SOL     OW23167   3.214   1.307   5.189 -0.3970 -0.4076 -0.0317
 5849SOL    HW223168   3.230   1.229   5.242 -0.4611 -0.4901 -0.1344
 5849SOL    HW323169   3.216   1.379   5.252  0.5965 -0.3897 -0.0706
 5849SOL    MW423170   3.216   1.306   5.204 -0.2743 -0.4161 -0.0504
 5850SOL     OW23171   4.681   2.389   5.985  0.3849  0.0185  0.0384
 5850SOL    HW223172   4.626   2.467   5.973  1.3054  0.7236  0.2930
 5850SOL    HW323173   4.626   2.316   5.956 -1.4280  0.4453  2.1009
 5850SOL    MW423174   4.666   2.390   5.980  0.2672  0.1679  0.3441
 5851SOL     OW23175   1.530   4.989   6.203  0.0738  0.0034 -0.2631
 5851SOL    HW223176   1.567   5.078   6.205  0.3935 -0.1408  0.5848
 5851SOL    HW323177   1.566   4.951   6.122 -1.2573  1.1219 -1.4497
 5851SOL    MW423178   1.540   4.996   6.192 -0.0596  0.1319 -0.3078
 5852SOL     OW23179   2.919   1.441   2.054 -0.4608  0.4500 -0.5919
 5852SOL    HW223180   2.826   1.439   2.031  0.0054  0.5921 -2.5874
 5852SOL    HW323181   2.919   1.456   2.149 -2.4458  2.2185 -0.7965
 5852SOL    MW423182   2.907   1.443   2.064 -0.6612  0.7021 -0.8821
 5853SOL     OW23183   0.262   2.363   3.300  0.6426 -0.0498  0.1248
 5853SOL    HW223184   0.288   2.392   3.388 -1.1634 -1.5023  1.2150
 5853SOL    HW323185   0.240   2.271   3.311 -0.4301 -0.0489 -1.6681
 5853SOL    MW423186   0.262   2.355   3.313  0.2628 -0.2413  0.0321
 5854SOL     OW23187   2.165   4.894   3.532 -0.0554 -0.2129 -0.1713
 5854SOL    HW223188   2.138   4.984   3.548 -1.3765 -0.4288 -1.0163
 5854SOL    HW323189   2.088   4.852   3.494  0.1468 -2.0023  1.2078
 5854SOL    MW423190   2.151   4.900   3.529 -0.2030 -0.4775 -0.1008
 5855SOL     OW23191   3.921   2.104   2.969 -0.3249 -0.6245 -0.2272
 5855SOL    HW223192   3.936   2.092   2.875 -1.5777 -0.7383 -0.4342
 5855SOL    HW323193   3.985   2.170   2.996  0.3004 -0.8700 -1.0765
 5855SOL    MW423194   3.931   2.111   2.960 -0.4077 -0.6719 -0.3666
 5856SOL     OW23195   3.942   4.824   6.233  0.3774 -0.1591 -0.0417
 5856SOL    HW223196   3.938   4.821   6.328 -2.7298 -1.0086 -0.1017
 5856SOL    HW323197   3.996   4.748   6.209 -0.1286 -0.8729  1.0147
 5856SOL    MW423198   3.949   4.814   6.242 -0.0994 -0.3653  0.0897
 5857SOL     OW23199   5.662   0.659   6.119 -0.4233 -0.0511  0.1971
 5857SOL    HW223200   5.678   0.753   6.126 -0.2175 -0.1813  1.6196
 5857SOL    HW323201   5.571   0.647   6.146 -0.5608 -0.2322 -0.3219
 5857SOL    MW423202   5.653   0.670   6.123 -0.4143 -0.0922  0.3163
 5858SOL     OW23203   1.373   4.887   5.848 -0.0897  0.5607  0.9372
 5858SOL    HW223204   1.308   4.823   5.819  0.2537 -0.4254  2.2481
 5858SOL    HW323205   1.359   4.894   5.942  1.0426  1.0972  1.0794
 5858SOL    MW423206   1.362   4.879   5.857  0.1050  0.5014  1.1289
 5859SOL     OW23207   1.845   0.629   5.023 -0.2960  0.3060  0.1372
 5859SOL    HW223208   1.900   0.667   5.092  1.8085 -1.1598 -0.6308
 5859SOL    HW323209   1.902   0.625   4.946 -1.9971  0.1635 -1.1766
 5859SOL    MW423210   1.860   0.633   5.022 -0.2428  0.0938 -0.1374
 5860SOL     OW23211   5.686   4.216   4.706 -0.1182 -0.7950 -0.5146
 5860SOL    HW223212   5.703   4.280   4.637  0.4287 -0.7645 -0.3606
 5860SOL    HW323213   5.687   4.131   4.662 -1.4851 -0.6667 -0.8308
 5860SOL    MW423214   5.688   4.214   4.691 -0.2264 -0.7741 -0.5360
 5861SOL     OW23215   1.717   4.360   4.895 -0.0417 -0.3283  0.2168
 5861SOL    HW223216   1.797   4.375   4.845 -0.2786  0.3043  0.0158
 5861SOL    HW323217   1.682   4.447   4.910 -1.5835 -0.6672 -1.1579
 5861SOL    MW423218   1.723   4.373   4.890 -0.2764 -0.2896  0.0089
 5862SOL     OW23219   6.366   1.440   4.841 -0.1261  0.3894  0.0285
 5862SOL    HW223220   6.313   1.513   4.872 -0.9265  0.8541 -2.2568
 5862SOL    HW323221   6.313   1.398   4.773  1.2235 -0.9939 -0.2356
 5862SOL    MW423222   6.352   1.444   4.836 -0.0536  0.2682 -0.3078
 5863SOL     OW23223   2.470   3.469   4.518  0.3475 -0.0756 -0.0976
 5863SOL    HW223224   2.511   3.473   4.604  0.8564 -0.2189 -0.3320
 5863SOL    HW323225   2.376   3.475   4.536  0.2576 -2.5257  0.6753
 5863SOL    MW423226   2.463   3.470   4.532  0.4028 -0.4178 -0.0265
 5864SOL     OW23227   5.356   1.462   6.317 -0.3050 -0.0269 -0.4666
 5864SOL    HW223228   5.365   1.380   6.267 -2.4431 -1.1888  0.9046
 5864SOL    HW323229   5.272   1.498   6.289 -0.0168  1.0172 -0.0352
 5864SOL    MW423230   5.346   1.456   6.307 -0.5491 -0.0425 -0.2288
 5865SOL     OW23231   3.052   4.592   3.661 -0.0892  0.4691 -0.4101
 5865SOL    HW223232   3.011   4.589   3.574 -1.3799  1.0788  0.1394
 5865SOL    HW323233   3.109   4.669   3.659 -1.1338  1.2701 -0.3203
 5865SOL    MW423234   3.054   4.602   3.649 -0.3973  0.6553 -0.3258
 5866SOL     OW23235   5.408   0.670   6.244  0.3011 -0.0924  0.2481
 5866SOL    HW223236   5.350   0.693   6.172  1.9476  0.6338 -0.8924
 5866SOL    HW323237   5.364   0.597   6.288 -1.8651  0.9689 -0.0313
 5866SOL    MW423238   5.394   0.663   6.240  0.2325  0.1435  0.0608
 5867SOL     OW23239   5.832   5.538   4.426 -0.9320  0.2059 -0.1796
 5867SOL    HW223240   5.773   5.470   4.392 -0.7665  0.3592 -0.7789
 5867SOL    HW323241   5.906   5.489   4.461 -0.8469  0.0646 -0.5451
 5867SOL    MW423242   5.834   5.522   4.426 -0.8989  0.2075 -0.3069
 5868SOL     OW23243   5.595   4.614   6.277 -0.0302 -0.0546 -0.0629
 5868SOL    HW223244   5.506   4.589   6.251 -0.0161 -1.0155  0.7659
 5868SOL    HW323245   5.643   4.621   6.194 -1.1806  1.7801 -0.6182
 5868SOL    MW423246   5.590   4.612   6.262 -0.1801  0.0607 -0.0268
 5869SOL     OW23247   3.108   6.249   6.066 -0.2958 -0.1698  0.2425
 5869SOL    HW223248   3.111   6.156   6.090  0.4289 -0.6262 -1.5252
 5869SOL    HW323249   3.197   6.270   6.040 -0.2245  1.3139  1.5241
 5869SOL    MW423250   3.120   6.239   6.066 -0.1908 -0.0342  0.1784
 5870SOL     OW23251   4.092   0.473   4.505  0.2545  0.1253  0.0550
 5870SOL    HW223252   3.998   0.475   4.523  0.4166 -1.1217  1.2416
 5870SOL    HW323253   4.133   0.511   4.583  0.7180  2.1423 -1.1024
 5870SOL    MW423254   4.085   0.478   4.518  0.3370  0.2269  0.0589
 5871SOL     OW23255   1.061   5.750   3.581 -0.5515  0.5246  0.2359
 5871SOL    HW223256   0.974   5.720   3.558  0.5475 -1.6065 -1.5273
 5871SOL    HW323257   1.064   5.742   3.677 -1.9928 -0.2492  0.2473
 5871SOL    MW423258   1.050   5.745   3.591 -0.5967  0.1413  0.0047
 5872SOL     OW23259   0.594   5.115   0.636 -0.1564 -0.0614 -0.5464
 5872SOL    HW223260   0.687   5.110   0.660  0.7732  0.8281 -3.5157
 5872SOL    HW323261   0.594   5.114   0.540 -3.0899  1.6641 -0.6873
 5872SOL    MW423262   0.606   5.114   0.626 -0.4208  0.2836 -0.9568
 5873SOL     OW23263   4.609   1.152   5.210 -0.1682 -0.3483  0.2267
 5873SOL    HW223264   4.675   1.146   5.141 -1.2454 -4.4904 -0.7932
 5873SOL    HW323265   4.540   1.206   5.172  0.2023 -0.7670 -1.1107
 5873SOL    MW423266   4.608   1.158   5.196 -0.2614 -0.9500 -0.0843
 5874SOL     OW23267   6.033   3.854   1.938 -0.0046 -0.0545  0.7945
 5874SOL    HW223268   6.047   3.891   1.851  1.0729 -0.6270  0.7079
 5874SOL    HW323269   5.939   3.860   1.951 -0.0326  1.3321  0.1801
 5874SOL    MW423270   6.023   3.860   1.928  0.1338  0.0529  0.7020
 5875SOL     OW23271   5.983   0.114   2.812  0.2162  0.2378 -0.5500
 5875SOL    HW223272   6.072   0.081   2.825  0.6095  1.0493 -1.0801
 5875SOL    HW323273   5.991   0.177   2.740 -0.8179  0.2130 -0.7079
 5875SOL    MW423274   5.996   0.118   2.804  0.1316  0.3416 -0.6408
 5876SOL     OW23275   1.682   0.282   0.625  0.2264 -0.1631  0.3956
 5876SOL    HW223276   1.599   0.308   0.586  1.0450 -1.9027 -2.8540
 5876SOL    HW323277   1.742   0.354   0.604  0.0159  0.2026  1.0222
 5876SOL    MW423278   1.679   0.295   0.617  0.3066 -0.3443  0.0495
 5877SOL     OW23279   2.702   5.604   0.018  0.5441 -0.0631 -0.8898
 5877SOL    HW223280   2.717   5.639  -0.070 -0.7887  0.4594 -0.9301
 5877SOL    HW323281   2.684   5.511   0.004 -2.0754  0.4559 -1.4844
 5877SOL    MW423282   2.702   5.596   0.004  0.0226  0.0743 -0.9736
 5878SOL     OW23283   2.673   4.695   4.540 -0.3609  0.4623  0.8849
 5878SOL    HW223284   2.584   4.692   4.506 -0.3832 -0.9022  1.0036
 5878SOL    HW323285   2.662   4.708   4.634 -0.6677 -3.0435  1.4887
 5878SOL    MW423286   2.660   4.696   4.548 -0.4043 -0.1803  0.9802
 5879SOL     OW23287   4.019   5.452   3.235  0.6200  0.1967  0.5684
 5879SOL    HW223288   4.031   5.360   3.211  2.2814  0.7576 -1.0138
 5879SOL    HW323289   3.971   5.490   3.162 -0.8684  0.4473  1.6293
 5879SOL    MW423290   4.014   5.445   3.222  0.6429  0.3037  0.4997
 5880SOL     OW23291   5.866   1.391   1.610 -0.1981  0.5982  0.1349
 5880SOL    HW223292   5.838   1.467   1.660 -3.2059  0.5904 -1.3507
 5880SOL    HW323293   5.836   1.316   1.661  0.8805  0.4200  0.5441
 5880SOL    MW423294   5.858   1.391   1.623 -0.4526  0.5736 -0.0071
 5881SOL     OW23295   3.087   5.751   2.373  0.1757  0.3034 -0.1244
 5881SOL    HW223296   3.015   5.809   2.347 -0.6409 -0.3760  0.5345
 5881SOL    HW323297   3.110   5.704   2.292  0.7647  1.4392 -0.6292
 5881SOL    MW423298   3.080   5.752   2.359  0.1457  0.3636 -0.1041
 5882SOL     OW23299   4.614   1.011   2.059 -0.1752  0.4329  0.2127
 5882SOL    HW223300   4.597   0.932   2.007 -0.2171  0.8823 -0.4570
 5882SOL    HW323301   4.538   1.019   2.116 -0.0823 -0.1198  0.4271
 5882SOL    MW423302   4.602   1.001   2.060 -0.1685  0.4193  0.1526
 5883SOL     OW23303   4.990   0.441   3.403  0.0135 -0.7020  0.1176
 5883SOL    HW223304   4.915   0.391   3.371 -0.3727  0.0290 -0.1489
 5883SOL    HW323305   4.963   0.472   3.489 -1.3957  2.3567 -1.2690
 5883SOL    MW423306   4.976   0.438   3.410 -0.2234 -0.2020 -0.1005
 5884SOL     OW23307   1.259   0.155   4.277 -1.1972  0.0575 -0.1187
 5884SOL    HW223308   1.236   0.224   4.215 -1.0034  0.1475 -0.0918
 5884SOL    HW323309   1.175   0.118   4.304 -1.3099  0.3995  0.0002
 5884SOL    MW423310   1.245   0.159   4.272 -1.1865  0.1145 -0.0995
 5885SOL     OW23311   1.254   4.188   0.921 -0.0321  0.1934  0.2711
 5885SOL    HW223312   1.266   4.186   0.826  0.3034 -0.0540  0.3156
 5885SOL    HW323313   1.279   4.277   0.946 -0.9918  0.5482  0.0239
 5885SOL    MW423314   1.259   4.200   0.912 -0.1145  0.2075  0.2443
 5886SOL     OW23315   5.483   2.671   5.126  0.3140  0.0960 -0.5490
 5886SOL    HW223316   5.424   2.679   5.201  1.7178  0.4615  0.5423
 5886SOL    HW323317   5.481   2.577   5.105 -0.9635  0.1566 -0.8209
 5886SOL    MW423318   5.475   2.660   5.133  0.3307  0.1522 -0.4409
 5887SOL     OW23319   0.162   5.186   1.513 -0.1980  0.7449  0.5969
 5887SOL    HW223320   0.167   5.276   1.547  1.2850  0.3259  1.5893
 5887SOL    HW323321   0.073   5.178   1.480  0.0845  3.1107 -1.0207
 5887SOL    MW423322   0.151   5.197   1.513  0.0349  1.0018  0.5144
 5888SOL     OW23323   3.221   2.911   5.007 -0.1580  0.0175  0.5936
 5888SOL    HW223324   3.173   2.988   5.038 -0.1935 -0.2146  1.1289
 5888SOL    HW323325   3.296   2.947   4.959 -0.2473  0.3884  0.7276
 5888SOL    MW423326   3.225   2.926   5.005 -0.1744  0.0358  0.6819
 5889SOL     OW23327   5.129   1.509   4.649 -0.0452 -0.3382 -0.0534
 5889SOL    HW223328   5.135   1.417   4.674 -0.2209  0.0996  1.7826
 5889SOL    HW323329   5.162   1.512   4.560  1.2253 -1.9846  0.3067
 5889SOL    MW423330   5.134   1.497   4.641  0.0992 -0.4977  0.2364
 5890SOL     OW23331   3.864   2.809   0.199  0.1151  0.4893  0.0951
 5890SOL    HW223332   3.949   2.765   0.205  0.3786  0.8004 -0.9668
 5890SOL    HW323333   3.847   2.813   0.105  0.2416  2.8622  0.1007
 5890SOL    MW423334   3.873   2.804   0.187  0.1665  0.8434 -0.0443
 5891SOL     OW23335   5.592   0.284   4.381 -0.3986  0.1042  0.5098
 5891SOL    HW223336   5.673   0.232   4.385  0.0564  0.8659  1.4526
 5891SOL    HW323337   5.545   0.248   4.305  1.2190  0.2249 -0.6172
 5891SOL    MW423338   5.597   0.272   4.371 -0.1251  0.2206  0.4855
 5892SOL     OW23339   4.671   5.756   4.971 -0.5685  0.1640  0.7786
 5892SOL    HW223340   4.692   5.713   4.888  0.2337  2.5656 -0.3693
 5892SOL    HW323341   4.658   5.684   5.033 -1.0490 -1.7218 -1.3639
 5892SOL    MW423342   4.672   5.741   4.968 -0.5261  0.2321  0.3445
 5893SOL     OW23343   4.594   6.286   0.110  0.2266 -0.5228  0.3575
 5893SOL    HW223344   4.683   6.252   0.101 -0.3713 -2.2461  0.5765
 5893SOL    HW323345   4.543   6.211   0.139 -1.5261  0.1632 -0.8165
 5893SOL    MW423346   4.599   6.272   0.113 -0.0835 -0.6596  0.2315
 5894SOL     OW23347   0.765   4.360   4.657  0.2782  0.2013 -0.9292
 5894SOL    HW223348   0.680   4.326   4.629  0.1092 -0.4396  0.3109
 5894SOL    HW323349   0.825   4.336   4.587 -0.7245  1.5722 -2.3296
 5894SOL    MW423350   0.762   4.352   4.644  0.1236  0.2976 -0.9504
 5895SOL     OW23351   4.015   0.159   0.254 -0.1356  0.0046 -0.4460
 5895SOL    HW223352   4.055   0.107   0.324  1.3151  0.0715 -1.1985
 5895SOL    HW323353   4.075   0.231   0.240 -1.9869  1.8000  0.3727
 5895SOL    MW423354   4.028   0.161   0.261 -0.1885  0.2503 -0.4373
 5896SOL     OW23355   1.510   0.877   2.596 -0.3336  0.0631  0.4224
 5896SOL    HW223356   1.451   0.817   2.550 -1.7333  1.2568  0.5690
 5896SOL    HW323357   1.554   0.926   2.527 -1.3410  0.8303  0.2942
 5896SOL    MW423358   1.508   0.875   2.581 -0.6512  0.3218  0.4249
 5897SOL     OW23359   3.533   3.050   2.567 -0.5609  0.0485  0.0222
 5897SOL    HW223360   3.490   3.129   2.600 -2.3492  0.0880 -2.1738
 5897SOL    HW323361   3.479   2.978   2.600 -0.5639 -0.0811 -0.2625
 5897SOL    MW423362   3.520   3.051   2.576 -0.7973  0.0366 -0.3051
 5898SOL     OW23363   3.318   2.370   4.728 -0.4277  0.0068  0.1941
 5898SOL    HW223364   3.377   2.297   4.748  0.8461  0.2495 -2.3407
 5898SOL    HW323365   3.234   2.343   4.765  0.0188 -2.7056 -0.5240
 5898SOL    MW423366   3.315   2.357   4.736 -0.2007 -0.3190 -0.2351
 5899SOL     OW23367   0.589   5.050   5.506  0.3153  0.0702  0.2774
 5899SOL    HW223368   0.673   5.038   5.549 -0.3759  1.2351  2.0269
 5899SOL    HW323369   0.592   5.139   5.470  0.2291 -0.2764 -0.6177
 5899SOL    MW423370   0.600   5.060   5.507  0.2127  0.1781  0.3901
 5900SOL     OW23371   3.534   3.395   0.930 -0.0149  0.1252  0.4697
 5900SOL    HW223372   3.467   3.343   0.975 -1.5169  1.1070 -0.5241
 5900SOL    HW323373   3.485   3.442   0.862  1.7575  0.6318 -0.5089
 5900SOL    MW423374   3.518   3.394   0.927  0.0208  0.3216  0.2095
 5901SOL     OW23375   2.242   1.536   4.374 -0.0336  0.4570  0.0909
 5901SOL    HW223376   2.147   1.544   4.366 -0.1932 -0.5037  0.9500
 5901SOL    HW323377   2.270   1.495   4.291 -0.3763  0.6114 -0.1030
 5901SOL    MW423378   2.233   1.532   4.362 -0.0999  0.3506  0.1787
 5902SOL     OW23379   4.967   5.884   6.092 -0.6684 -0.2336 -0.5342
 5902SOL    HW223380   4.960   5.942   6.168 -0.3607 -2.2155  1.0889
 5902SOL    HW323381   4.876   5.864   6.069 -0.7586 -0.1930 -0.2203
 5902SOL    MW423382   4.954   5.889   6.099 -0.6397 -0.4898 -0.2786
 5903SOL     OW23383   4.485   5.592   4.360 -0.0066 -0.3895  0.3581
 5903SOL    HW223384   4.580   5.600   4.369 -0.3729  2.8711  3.3011
 5903SOL    HW323385   4.459   5.538   4.434 -0.5873 -0.0598  0.3919
 5903SOL    MW423386   4.494   5.586   4.371 -0.1316  0.0842  0.7509
 5904SOL     OW23387   5.730   3.197   3.802  0.5506  0.0437  0.2990
 5904SOL    HW223388   5.807   3.149   3.773  0.6681 -0.7600  1.8409
 5904SOL    HW323389   5.764   3.277   3.841  0.5747 -0.0277  0.4267
 5904SOL    MW423390   5.744   3.201   3.804  0.5693 -0.0717  0.5193
 5905SOL     OW23391   5.739   2.949   5.101 -0.5024 -0.0799 -0.1421
 5905SOL    HW223392   5.714   2.888   5.171  1.1146  1.0417  1.5334
 5905SOL    HW323393   5.834   2.954   5.107 -0.5171  1.9087 -0.8118
 5905SOL    MW423394   5.748   2.942   5.111 -0.2910  0.3305 -0.0094
 5906SOL     OW23395   4.739   3.189   4.441  0.5816  0.1446  0.0851
 5906SOL    HW223396   4.702   3.245   4.510  1.4233  0.5829  0.2034
 5906SOL    HW323397   4.666   3.169   4.384 -0.8451 -2.5749  2.5900
 5906SOL    MW423398   4.725   3.194   4.443  0.5044 -0.1564  0.4312
 5907SOL     OW23399   0.314   1.312   1.726  0.0636  0.2435 -0.1390
 5907SOL    HW223400   0.378   1.246   1.752  0.3520  0.6850  0.2858
 5907SOL    HW323401   0.234   1.287   1.772  0.1460  0.1368 -0.0548
 5907SOL    MW423402   0.312   1.300   1.735  0.1125  0.2877 -0.0719
 5908SOL     OW23403   2.578   6.311   3.566 -0.6533 -0.2280  0.7394
 5908SOL    HW223404   2.600   6.349   3.481 -2.1058 -2.7704 -0.9311
 5908SOL    HW323405   2.508   6.366   3.600 -1.2570 -0.1475 -0.5664
 5908SOL    MW423406   2.572   6.323   3.559 -0.9246 -0.5528  0.3467
 5909SOL     OW23407   1.693   1.671   4.280  0.2778  0.0879 -0.7178
 5909SOL    HW223408   1.638   1.607   4.236  0.2511 -0.7958  0.5413
 5909SOL    HW323409   1.768   1.684   4.221  0.1600 -0.9096 -1.1048
 5909SOL    MW423410   1.696   1.665   4.267  0.2587 -0.1603 -0.6027
 5910SOL     OW23411   5.992   3.381   2.898 -0.0333 -0.0551 -0.6037
 5910SOL    HW223412   5.958   3.301   2.860 -1.7826  0.6871 -0.6641
 5910SOL    HW323413   5.933   3.400   2.971  1.0577  0.5515  0.1497
 5910SOL    MW423414   5.980   3.373   2.903 -0.1201  0.1229 -0.5122
 5911SOL     OW23415   2.072   5.422   0.354 -0.5856  0.0357 -0.4376
 5911SOL    HW223416   2.157   5.455   0.327  0.2984 -1.8270 -0.0740
 5911SOL    HW323417   2.019   5.501   0.369  1.4059  1.2776  0.4293
 5911SOL    MW423418   2.076   5.437   0.353 -0.2062 -0.0462 -0.2752
 5912SOL     OW23419   3.575   1.405   3.956  0.0203  0.3918 -0.5142
 5912SOL    HW223420   3.568   1.366   4.043  1.4330  3.1376  0.9866
 5912SOL    HW323421   3.586   1.331   3.897  1.0038 -1.5100  1.8775
 5912SOL    MW423422   3.575   1.390   3.960  0.3364  0.5031 -0.0006
 5913SOL     OW23423   2.654   5.305   4.804  0.2240 -0.1845  0.2661
 5913SOL    HW223424   2.560   5.290   4.814  0.0491 -0.8815 -1.9060
 5913SOL    HW323425   2.695   5.237   4.858 -0.4482  0.7708  2.0818
 5913SOL    MW423426   2.647   5.294   4.813  0.1123 -0.1504  0.2191
 5914SOL     OW23427   4.318   6.353   4.870  0.2596  0.2596  0.1446
 5914SOL    HW223428   4.323   6.443   4.838 -0.0823  0.4863  0.7123
 5914SOL    HW323429   4.228   6.344   4.902 -0.5598 -1.1170 -2.3216
 5914SOL    MW423430   4.306   6.364   4.870  0.1063  0.1079 -0.1059
 5915SOL     OW23431   0.286   1.398   5.277 -0.2119  0.5551 -0.2003
 5915SOL    HW223432   0.375   1.363   5.271 -0.7941 -1.3583  1.3504
 5915SOL    HW323433   0.250   1.387   5.189  0.2864 -1.0054 -0.2304
 5915SOL    MW423434   0.293   1.392   5.264 -0.2230  0.0968  0.0004
 5916SOL     OW23435   1.923   0.854   3.245  0.0449  0.1298 -0.5000
 5916SOL    HW223436   1.991   0.793   3.217  1.5626  1.4597  0.1450
 5916SOL    HW323437   1.888   0.891   3.165  2.1672  1.5971 -0.8190
 5916SOL    MW423438   1.928   0.851   3.231  0.5251  0.4989 -0.4570
 5917SOL     OW23439   0.889   5.436   0.397 -0.1603 -0.0926  0.2660
 5917SOL    HW223440   0.928   5.363   0.348 -1.0639 -0.2601 -0.2363
 5917SOL    HW323441   0.937   5.438   0.480  2.6615  1.3106 -1.2466
 5917SOL    MW423442   0.900   5.427   0.401  0.0928  0.0705  0.0002
 5918SOL     OW23443   5.011   0.568   5.203 -0.1942 -0.0270 -0.1514
 5918SOL    HW223444   5.026   0.501   5.269 -0.3901 -0.5693 -0.6506
 5918SOL    HW323445   5.097   0.583   5.163  0.4643  2.0667  1.8417
 5918SOL    MW423446   5.024   0.561   5.206 -0.1332  0.1777  0.0457
 5919SOL     OW23447   1.793   1.415   5.443 -0.0376  0.6930 -0.0490
 5919SOL    HW223448   1.867   1.472   5.466  1.0563 -0.9748  0.7700
 5919SOL    HW323449   1.831   1.348   5.387 -0.8767 -0.3270  0.5670
 5919SOL    MW423450   1.808   1.414   5.438 -0.0040  0.3384  0.1404
 5920SOL     OW23451   1.745   5.856   6.069  0.4609 -0.3622 -0.4006
 5920SOL    HW223452   1.839   5.845   6.055  0.7082  0.0866  0.7951
 5920SOL    HW323453   1.712   5.890   5.986  1.7761  1.8707 -0.0807
 5920SOL    MW423454   1.753   5.859   6.056  0.6671 -0.0084 -0.2006
 5921SOL     OW23455   3.386   3.442   3.735  0.1876 -0.2303  0.0635
 5921SOL    HW223456   3.300   3.483   3.733 -0.5137 -1.6023  0.6370
 5921SOL    HW323457   3.444   3.505   3.692 -1.5395 -0.2919 -2.6349
 5921SOL    MW423458   3.382   3.456   3.729 -0.1328 -0.4195 -0.2168
 5922SOL     OW23459   0.510   3.590   0.862 -0.1924 -0.4098  0.4692
 5922SOL    HW223460   0.582   3.543   0.819 -0.7604 -0.0189 -0.9942
 5922SOL    HW323461   0.531   3.682   0.849 -1.0855 -0.2905 -0.2458
 5922SOL    MW423462   0.522   3.596   0.854 -0.3852 -0.3425  0.1818
 5923SOL     OW23463   5.365   3.814   1.370  0.3328 -0.0720 -0.5021
 5923SOL    HW223464   5.274   3.784   1.376  0.1354  0.6069 -0.0310
 5923SOL    HW323465   5.361   3.906   1.394  1.2933 -0.2824  0.5089
 5923SOL    MW423466   5.352   3.822   1.374  0.4334 -0.0102 -0.3065
 5924SOL     OW23467   1.531   3.178   4.573  0.0097 -0.3397 -0.8710
 5924SOL    HW223468   1.539   3.084   4.561  1.7025 -0.2320 -0.8720
 5924SOL    HW323469   1.511   3.188   4.666  1.0300 -0.6757 -0.6016
 5924SOL    MW423470   1.529   3.167   4.584  0.3677 -0.3698 -0.8356
 5925SOL     OW23471   4.719   0.071   1.711  0.3323 -0.0289  0.6338
 5925SOL    HW223472   4.722  -0.015   1.667  0.7411  0.0020  0.5989
 5925SOL    HW323473   4.768   0.058   1.792  0.0543  0.0651  0.8150
 5925SOL    MW423474   4.726   0.058   1.716  0.3496 -0.0124  0.6531
 5926SOL     OW23475   1.544   5.041   5.705 -0.3485 -0.5995 -0.4209
 5926SOL    HW223476   1.520   5.133   5.702  2.9143  0.5095  1.7869
 5926SOL    HW323477   1.474   4.999   5.755 -0.8287  1.1108  0.4017
 5926SOL    MW423478   1.532   5.048   5.711  0.0186 -0.2276 -0.0211
 5927SOL     OW23479   2.475   3.682   0.641  0.0876  0.5220 -0.0210
 5927SOL    HW223480   2.535   3.719   0.577 -0.4566 -0.7409 -1.3014
 5927SOL    HW323481   2.531   3.658   0.715  0.7105  2.0641  0.0381
 5927SOL    MW423482   2.490   3.684   0.643  0.0980  0.5588 -0.1821
 5928SOL     OW23483   4.995   2.952   3.067  0.0946 -0.0381  0.2591
 5928SOL    HW223484   5.046   2.983   3.142  1.0914 -1.2207  0.0870
 5928SOL    HW323485   4.963   3.033   3.026  2.6427  0.8215 -0.1925
 5928SOL    MW423486   4.997   2.967   3.071  0.5623 -0.0807  0.1768
 5929SOL     OW23487   5.801   5.803   4.228 -0.2282  0.7986  0.1699
 5929SOL    HW223488   5.823   5.855   4.150  0.5448  0.0744 -0.1198
 5929SOL    HW323489   5.866   5.828   4.293 -0.7662  1.2733  0.5276
 5929SOL    MW423490   5.812   5.813   4.226 -0.1972  0.7657  0.1788
 5930SOL     OW23491   0.221   2.696   2.241 -0.0851 -0.2449 -0.3373
 5930SOL    HW223492   0.268   2.755   2.182 -0.2713  0.0580 -0.1858
 5930SOL    HW323493   0.278   2.688   2.317  0.7354 -1.6208 -1.0607
 5930SOL    MW423494   0.234   2.703   2.243 -0.0014 -0.3865 -0.4128
 5931SOL     OW23495   5.698   5.087   0.334 -0.2152  0.4057  0.6202
 5931SOL    HW223496   5.730   5.082   0.244 -1.8369 -0.0452  0.0357
 5931SOL    HW323497   5.709   4.999   0.368 -3.4488 -0.5789 -0.5766
 5931SOL    MW423498   5.704   5.075   0.327 -0.8558  0.2163  0.3852
 5932SOL     OW23499   3.285   2.562   5.619  0.3229 -0.1990 -0.4384
 5932SOL    HW223500   3.345   2.491   5.595 -0.0056 -0.8513  0.5825
 5932SOL    HW323501   3.299   2.574   5.713 -1.4228 -0.6435 -0.0860
 5932SOL    MW423502   3.295   2.554   5.628  0.0492 -0.3437 -0.2572
 5933SOL     OW23503   0.932   1.849   2.042  0.1340 -0.4505  0.0947
 5933SOL    HW223504   0.917   1.837   1.948 -1.2580 -0.3112  0.2689
 5933SOL    HW323505   1.027   1.851   2.051  0.3243  1.1058 -1.5271
 5933SOL    MW423506   0.942   1.848   2.031 -0.0246 -0.2268 -0.0963
 5934SOL     OW23507   4.225   5.091   3.696  0.2128  0.3941 -0.3050
 5934SOL    HW223508   4.276   5.071   3.618  1.9406 -1.0775  1.1163
 5934SOL    HW323509   4.270   5.165   3.736  1.7276 -1.2446  1.2401
 5934SOL    MW423510   4.237   5.098   3.691  0.6407 -0.0163  0.0864
 5935SOL     OW23511   3.888   0.940   2.220 -0.0543 -0.2086  0.7617
 5935SOL    HW223512   3.837   1.020   2.214  0.2755 -0.0847 -1.2758
 5935SOL    HW323513   3.839   0.884   2.281 -2.3086  0.1596 -0.5976
 5935SOL    MW423514   3.875   0.943   2.227 -0.3082 -0.1437  0.3135
 5936SOL     OW23515   2.437   3.488   5.927  0.0745 -0.9857 -0.0727
 5936SOL    HW223516   2.424   3.570   5.974  1.0618  0.6771 -2.4720
 5936SOL    HW323517   2.532   3.473   5.932  0.5829  0.4272 -3.1321
 5936SOL    MW423518   2.448   3.497   5.934  0.2718 -0.5799 -0.7929
 5937SOL     OW23519   5.622   3.192   5.069 -0.5445  0.0544  0.4351
 5937SOL    HW223520   5.641   3.098   5.076 -3.2783 -0.4356  4.3289
 5937SOL    HW323521   5.567   3.199   4.991 -1.7354 -1.9702  1.0029
 5937SOL    MW423522   5.617   3.181   5.059 -1.0623 -0.2774  1.0238
 5938SOL     OW23523   3.962   1.954   6.292 -0.1545 -0.6750 -0.1222
 5938SOL    HW223524   3.913   2.020   6.340  0.0478 -1.4608  1.2025
 5938SOL    HW323525   4.046   1.949   6.337  0.5592 -0.4786 -1.3920
 5938SOL    MW423526   3.967   1.962   6.304 -0.0337 -0.7528 -0.1149
 5939SOL     OW23527   4.046   4.223   1.970 -0.2035 -0.1431 -0.4510
 5939SOL    HW223528   3.992   4.204   1.893 -0.0609  0.2138 -0.6414
 5939SOL    HW323529   3.984   4.219   2.044 -0.0464 -2.1032 -0.3690
 5939SOL    MW423530   4.030   4.220   1.970 -0.1639 -0.3547 -0.4653
 5940SOL     OW23531   5.368   0.084   5.922 -0.2461  0.3148  0.7779
 5940SOL    HW223532   5.391   0.130   6.003  2.8419  0.2134  0.0870
 5940SOL    HW323533   5.404  -0.004   5.933 -2.1869 -0.5970  0.3063
 5940SOL    MW423534   5.376   0.078   5.934 -0.0948  0.1811  0.6245
 5941SOL     OW23535   0.855   1.362   0.522 -0.2535 -0.4498 -0.1350
 5941SOL    HW223536   0.788   1.427   0.501  0.6579  0.6755  0.3257
 5941SOL    HW323537   0.857   1.359   0.618  1.5693  0.9057 -0.0725
 5941SOL    MW423538   0.846   1.370   0.532  0.1072 -0.1225 -0.0660
 5942SOL     OW23539   4.096   0.173   1.479 -0.2646 -0.5159  0.4749
 5942SOL    HW223540   4.060   0.241   1.535 -0.1684 -0.6210  0.6695
 5942SOL    HW323541   4.175   0.212   1.441 -0.9192 -0.0724 -0.4439
 5942SOL    MW423542   4.102   0.187   1.481 -0.3383 -0.4712  0.3793
 5943SOL     OW23543   5.499   4.328   0.942  0.6541 -0.3828 -0.0638
 5943SOL    HW223544   5.465   4.326   0.853 -1.6932 -2.4458  0.7824
 5943SOL    HW323545   5.564   4.258   0.944  0.5708 -0.4613 -0.1062
 5943SOL    MW423546   5.503   4.318   0.930  0.3334 -0.6654  0.0422
 5944SOL     OW23547   1.892   5.045   6.145  0.1864  0.3609 -0.9528
 5944SOL    HW223548   1.841   5.111   6.098  0.7288  1.2152 -0.3756
 5944SOL    HW323549   1.956   5.014   6.080  0.1382  0.6410 -1.1357
 5944SOL    MW423550   1.894   5.050   6.130  0.2516  0.5105 -0.9007
 5945SOL     OW23551   1.415   3.259   1.223  0.8946  0.2108  0.5692
 5945SOL    HW223552   1.510   3.258   1.236  1.0109  0.8844 -0.1622
 5945SOL    HW323553   1.393   3.351   1.212  0.5207 -0.0988 -1.7658
 5945SOL    MW423554   1.425   3.271   1.223  0.8606  0.2589  0.1646
 5946SOL     OW23555   2.458   3.552   5.662 -0.9201 -0.1530 -0.1642
 5946SOL    HW223556   2.427   3.551   5.752 -0.9044 -1.6501 -0.1478
 5946SOL    HW323557   2.497   3.466   5.649  1.4808  0.9440 -0.8100
 5946SOL    MW423558   2.459   3.541   5.672 -0.6012 -0.2058 -0.2473
 5947SOL     OW23559   0.076   0.517   3.967 -0.0798 -0.2366  0.2319
 5947SOL    HW223560   0.060   0.553   4.055  0.3686 -0.6908  0.5051
 5947SOL    HW323561   0.002   0.547   3.915  1.1316  2.6836 -0.0390
 5947SOL    MW423562   0.064   0.526   3.972  0.1392  0.0888  0.2322
 5948SOL     OW23563   0.871   1.690   5.970  0.0660  0.6158  0.4299
 5948SOL    HW223564   0.892   1.747   5.895  0.0045  0.2168  0.1062
 5948SOL    HW323565   0.951   1.639   5.984 -0.2828 -0.0782 -0.0596
 5948SOL    MW423566   0.885   1.691   5.962  0.0119  0.4716  0.3226
 5949SOL     OW23567   4.108   3.758   2.336 -0.2097  0.2594 -0.0561
 5949SOL    HW223568   4.014   3.743   2.329 -0.2449  0.2171  0.5072
 5949SOL    HW323569   4.127   3.755   2.430  0.1933  1.2602 -0.0939
 5949SOL    MW423570   4.098   3.756   2.347 -0.1612  0.3859  0.0132
 5950SOL     OW23571   1.712   2.550   2.334  0.6966 -0.2635 -0.2056
 5950SOL    HW223572   1.803   2.528   2.312 -0.0129 -1.7395 -1.8424
 5950SOL    HW323573   1.682   2.605   2.262  0.4454  0.7477  0.6439
 5950SOL    MW423574   1.720   2.554   2.322  0.5699 -0.3249 -0.3094
 5951SOL     OW23575   3.808   3.834   3.023  0.0351  0.3903 -0.0203
 5951SOL    HW223576   3.879   3.896   3.040  0.6929 -0.3075 -0.1864
 5951SOL    HW323577   3.735   3.867   3.076  0.1329  1.7126 -0.6645
 5951SOL    MW423578   3.808   3.847   3.032  0.1348  0.4727 -0.1272
 5952SOL     OW23579   4.596   0.550   4.235  0.2588  0.7484 -0.0470
 5952SOL    HW223580   4.569   0.547   4.327  1.4252  0.7349  0.3142
 5952SOL    HW323581   4.531   0.606   4.192 -1.1999 -0.5044  0.4497
 5952SOL    MW423582   4.584   0.557   4.241  0.2202  0.5813  0.0662
 5953SOL     OW23583   2.755   0.359   2.116  0.6529  0.1344  0.3748
 5953SOL    HW223584   2.799   0.306   2.182 -0.8950 -0.5946  0.8589
 5953SOL    HW323585   2.712   0.429   2.165 -0.1591 -0.1665  0.1106
 5953SOL    MW423586   2.755   0.361   2.131  0.3415 -0.0015  0.4038
 5954SOL     OW23587   0.315   2.545   4.586  0.2852  1.0094  0.4854
 5954SOL    HW223588   0.391   2.579   4.632 -0.3451  2.2414  0.6594
 5954SOL    HW323589   0.303   2.456   4.621  1.5355  0.8465  0.5486
 5954SOL    MW423590   0.323   2.537   4.597  0.3670  1.1504  0.5167
 5955SOL     OW23591   4.121   2.483   5.698 -0.5064 -0.4683 -0.4256
 5955SOL    HW223592   4.147   2.428   5.624 -2.3492 -2.3075  0.1927
 5955SOL    HW323593   4.101   2.568   5.659  0.3134 -0.8668 -1.7610
 5955SOL    MW423594   4.122   2.487   5.683 -0.6414 -0.7636 -0.5202
 5956SOL     OW23595   3.418   4.506   0.817  0.5778 -0.2114 -1.2170
 5956SOL    HW223596   3.393   4.515   0.725  0.2389  0.4367 -1.0718
 5956SOL    HW323597   3.336   4.493   0.864  0.8552 -1.8421 -1.1318
 5956SOL    MW423598   3.404   4.506   0.811  0.5697 -0.3411 -1.1866
 5957SOL     OW23599   0.212   5.935   6.268 -0.0477  0.1080  0.5477
 5957SOL    HW223600   0.275   5.944   6.197 -0.0613  0.9432  0.6307
 5957SOL    HW323601   0.265   5.940   6.348 -0.3044  2.0050  0.6519
 5957SOL    MW423602   0.227   5.937   6.269 -0.0834  0.4684  0.5724
 5958SOL     OW23603   0.867   4.007   2.742  0.0954  0.4543 -0.0817
 5958SOL    HW223604   0.797   4.066   2.770 -2.1005 -1.6909 -0.6621
 5958SOL    HW323605   0.906   3.975   2.823  0.6750  1.9196  0.2462
 5958SOL    MW423606   0.863   4.011   2.756 -0.1178  0.3646 -0.1150
 5959SOL     OW23607   3.922   2.212   5.396 -0.2801 -0.1892  0.2606
 5959SOL    HW223608   3.837   2.195   5.355  0.1103  1.7012 -1.5179
 5959SOL    HW323609   3.956   2.125   5.419 -3.3657 -0.9287  2.6671
 5959SOL    MW423610   3.915   2.198   5.393 -0.6357 -0.0373  0.3435
 5960SOL     OW23611   1.252   6.271   2.186  0.8100 -0.0930  0.0844
 5960SOL    HW223612   1.328   6.292   2.132  1.3365  2.8528  1.7320
 5960SOL    HW323613   1.183   6.330   2.156 -0.2544 -1.4256 -0.1584
 5960SOL    MW423614   1.253   6.281   2.175  0.7390  0.1198  0.2698
 5961SOL     OW23615   5.486   2.166   2.192 -0.3315 -0.1408  0.3510
 5961SOL    HW223616   5.410   2.152   2.247  0.6409 -0.9081  1.5625
 5961SOL    HW323617   5.456   2.147   2.103 -1.2674 -1.5639  0.9446
 5961SOL    MW423618   5.472   2.162   2.187 -0.3267 -0.4298  0.5892
 5962SOL     OW23619   4.535   5.290   3.486  0.6829  0.0361  0.0591
 5962SOL    HW223620   4.526   5.310   3.579 -0.0738 -0.8064  0.1862
 5962SOL    HW323621   4.566   5.200   3.484  0.6840  0.0476 -0.5053
 5962SOL    MW423622   4.538   5.281   3.498  0.5832 -0.0735  0.0014
 5963SOL     OW23623   5.946   4.606   5.201  0.4070  0.0951 -0.9046
 5963SOL    HW223624   5.992   4.522   5.203  0.4295  0.1177 -0.0262
 5963SOL    HW323625   5.997   4.663   5.258 -0.7533  0.0847  0.1831
 5963SOL    MW423626   5.959   4.603   5.209  0.2569  0.0967 -0.6452
 5964SOL     OW23627   4.208   5.778   0.249  0.4760  0.6455 -0.0620
 5964SOL    HW223628   4.192   5.872   0.243  0.5823  0.5714 -2.6227
 5964SOL    HW323629   4.183   5.744   0.163  2.4021 -1.3543  0.0827
 5964SOL    MW423630   4.203   5.786   0.237  0.7442  0.3719 -0.3807
 5965SOL     OW23631   4.574   0.968   2.443 -0.0792  0.5453  0.1475
 5965SOL    HW223632   4.653   0.995   2.397  0.7976 -0.4331  1.0225
 5965SOL    HW323633   4.605   0.927   2.524 -1.4230 -0.6490  0.1227
 5965SOL    MW423634   4.588   0.966   2.448 -0.1408  0.2587  0.2596
 5966SOL     OW23635   1.960   2.314   6.125 -0.6212 -0.2762  0.3045
 5966SOL    HW223636   2.045   2.357   6.116 -0.9242  0.0023 -1.6528
 5966SOL    HW323637   1.980   2.232   6.169  0.6265 -0.0848  0.1539
 5966SOL    MW423638   1.974   2.309   6.129 -0.4966 -0.2142  0.0264
 5967SOL     OW23639   0.353   0.467   1.067 -0.5024 -0.2016  0.6029
 5967SOL    HW223640   0.297   0.545   1.068 -0.9887 -0.5586  1.1488
 5967SOL    HW323641   0.338   0.429   0.980  0.3476  0.7372  0.0129
 5967SOL    MW423642   0.344   0.472   1.055 -0.4544 -0.1249  0.5971
 5968SOL     OW23643   3.839   1.626   0.290 -0.7699  0.6014 -0.1249
 5968SOL    HW223644   3.911   1.591   0.238 -1.6190 -1.3688 -0.0515
 5968SOL    HW323645   3.809   1.552   0.343 -0.8983  2.1366  2.1091
 5968SOL    MW423646   3.845   1.611   0.290 -0.8989  0.5440  0.1796
 5969SOL     OW23647   1.455   3.214   0.797  0.1681  0.2605  0.1347
 5969SOL    HW223648   1.483   3.151   0.863 -0.1096 -0.4345 -0.3937
 5969SOL    HW323649   1.482   3.299   0.831  0.7839 -0.1716  0.7384
 5969SOL    MW423650   1.462   3.217   0.810  0.2127  0.1118  0.1446
 5970SOL     OW23651   5.126   3.097   3.269  0.0529  0.1490 -0.0439
 5970SOL    HW223652   5.214   3.062   3.286  0.4283  1.2469  0.3820
 5970SOL    HW323653   5.141   3.172   3.212 -0.6216  0.2719 -0.0686
 5970SOL    MW423654   5.140   3.102   3.264  0.0134  0.3100  0.0091
 5971SOL     OW23655   0.901   0.176   2.331  0.5560 -0.2380 -0.2219
 5971SOL    HW223656   0.819   0.146   2.370  0.4954 -2.1064 -1.6781
 5971SOL    HW323657   0.875   0.253   2.279 -0.2250 -0.6088 -0.4018
 5971SOL    MW423658   0.887   0.182   2.329  0.4450 -0.5334 -0.4377
 5972SOL     OW23659   3.291   4.160   0.481 -0.4186  0.1686  0.8002
 5972SOL    HW223660   3.312   4.081   0.432 -1.5166 -0.5191  1.4001
 5972SOL    HW323661   3.358   4.224   0.454  0.6060 -1.0162  0.4676
 5972SOL    MW423662   3.303   4.158   0.471 -0.4283 -0.0785  0.8355
 5973SOL     OW23663   5.902   1.750   0.306 -0.4957 -0.3846 -0.0996
 5973SOL    HW223664   5.996   1.736   0.308 -0.8636 -3.4330  0.5585
 5973SOL    HW323665   5.892   1.841   0.277  2.5870 -0.3185 -1.3302
 5973SOL    MW423666   5.913   1.761   0.302 -0.1375 -0.7781 -0.1752
 5974SOL     OW23667   1.593   0.680   5.526  0.7095  0.3446 -0.0798
 5974SOL    HW223668   1.498   0.674   5.534  0.8723 -2.8824  1.1202
 5974SOL    HW323669   1.612   0.774   5.521 -2.5447  1.0508 -1.1839
 5974SOL    MW423670   1.583   0.691   5.526  0.3016  0.0120 -0.0671
 5975SOL     OW23671   6.059   4.251   2.586  0.4173 -0.3645 -0.0385
 5975SOL    HW223672   6.042   4.158   2.569 -1.1976 -0.6249  2.5318
 5975SOL    HW323673   5.995   4.297   2.534 -2.1204 -0.9909  2.2861
 5975SOL    MW423674   6.049   4.245   2.577 -0.1306 -0.4815  0.6074
 5976SOL     OW23675   0.748   4.128   3.299 -0.1148  0.5165 -0.0967
 5976SOL    HW223676   0.801   4.051   3.278  0.7250  1.5712 -2.1512
 5976SOL    HW323677   0.661   4.108   3.264 -0.5800 -0.3956  1.4762
 5976SOL    MW423678   0.744   4.115   3.291 -0.0654  0.5353 -0.1603
 5977SOL     OW23679   0.521   5.746   6.354 -0.0485  0.6296  0.2834
 5977SOL    HW223680   0.523   5.789   6.440  0.1835  2.4023 -0.5598
 5977SOL    HW323681   0.603   5.771   6.313 -0.1239 -0.2604 -0.4472
 5977SOL    MW423682   0.532   5.755   6.360 -0.0278  0.7461  0.0757
 5978SOL     OW23683   5.530   5.867   4.179 -0.1481 -0.2219 -0.0105
 5978SOL    HW223684   5.621   5.854   4.206 -0.3055 -0.5972  0.3547
 5978SOL    HW323685   5.522   5.961   4.166 -0.0283 -0.0469  1.1332
 5978SOL    MW423686   5.541   5.878   4.181 -0.1531 -0.2483  0.1886
 5979SOL     OW23687   0.054   1.372   0.618 -0.2864 -0.1443  0.1187
 5979SOL    HW223688   0.101   1.307   0.566 -1.5195  0.1632 -1.4831
 5979SOL    HW323689  -0.036   1.340   0.621 -0.6230  0.7931  0.4864
 5979SOL    MW423690   0.048   1.359   0.612 -0.4935  0.0200 -0.0442
 5980SOL     OW23691   5.716   1.964   3.105  0.6607  0.2439  0.2844
 5980SOL    HW223692   5.768   1.994   3.030 -1.2211  1.2298 -0.6940
 5980SOL    HW323693   5.638   2.020   3.104 -0.2741 -0.9456  1.8948
 5980SOL    MW423694   5.713   1.976   3.095  0.2891  0.2170  0.3678
 5981SOL     OW23695   2.640   0.485   0.657  0.3148  0.4121  0.0730
 5981SOL    HW223696   2.636   0.492   0.562  0.6624 -0.4745 -0.0214
 5981SOL    HW323697   2.563   0.533   0.688 -0.7704 -0.7224 -0.7511
 5981SOL    MW423698   2.629   0.492   0.649  0.2174  0.1455 -0.0482
 5982SOL     OW23699   6.176   6.231   5.003 -0.1821 -0.0417  0.4306
 5982SOL    HW223700   6.156   6.202   4.914  1.0357 -0.0301  0.1402
 5982SOL    HW323701   6.133   6.316   5.010  1.6199  1.0731 -0.9912
 5982SOL    MW423702   6.168   6.238   4.992  0.2163  0.1069  0.2047
 5983SOL     OW23703   2.059   2.165   3.315 -0.2253 -0.0208 -0.5415
 5983SOL    HW223704   2.116   2.142   3.389 -0.6666  0.5723 -0.0085
 5983SOL    HW323705   1.984   2.106   3.325 -0.0200 -0.3426 -0.8615
 5983SOL    MW423706   2.056   2.154   3.326 -0.2564  0.0150 -0.5134
 5984SOL     OW23707   5.927   0.658   0.183  0.3715 -0.3552  0.1114
 5984SOL    HW223708   5.872   0.694   0.253 -0.4941  0.4290 -0.9313
 5984SOL    HW323709   5.866   0.644   0.110  1.3963 -0.3262 -0.7809
 5984SOL    MW423710   5.911   0.661   0.182  0.3925 -0.2479 -0.1439
 5985SOL     OW23711   0.181   4.059   4.598 -0.0909 -0.3630 -0.0361
 5985SOL    HW223712   0.153   4.090   4.512 -0.5652 -0.9382 -0.1030
 5985SOL    HW323713   0.171   3.964   4.593 -0.4778 -0.3776  0.7658
 5985SOL    MW423714   0.176   4.050   4.586 -0.2045 -0.4408  0.0608
 5986SOL     OW23715   1.648   0.567   2.306  0.3374 -0.2526  0.8387
 5986SOL    HW223716   1.599   0.540   2.384  0.5816 -0.0342  1.0700
 5986SOL    HW323717   1.739   0.568   2.334  0.4810 -0.6638  0.4068
 5986SOL    MW423718   1.653   0.564   2.320  0.3886 -0.2780  0.8122
 5987SOL     OW23719   1.874   2.669   5.669 -0.3569 -0.2139 -0.4936
 5987SOL    HW223720   1.793   2.673   5.720 -0.1127 -0.6836 -0.0567
 5987SOL    HW323721   1.930   2.609   5.718  0.0861 -0.2529 -1.0357
 5987SOL    MW423722   1.870   2.662   5.682 -0.2663 -0.2810 -0.5075
 5988SOL     OW23723   3.474   3.364   1.312 -0.4969 -0.9092 -0.3394
 5988SOL    HW223724   3.420   3.386   1.388 -0.5895  0.8309 -0.8751
 5988SOL    HW323725   3.564   3.366   1.346 -0.5780 -0.7810 -0.1290
 5988SOL    MW423726   3.479   3.367   1.327 -0.5198 -0.6627 -0.3823
 5989SOL     OW23727   3.315   5.932   1.232  0.2067 -0.1354  0.7746
 5989SOL    HW223728   3.377   5.999   1.259  0.7008 -0.6832  1.0116
 5989SOL    HW323729   3.229   5.973   1.243  0.4700  0.1956  1.6469
 5989SOL    MW423730   3.312   5.946   1.237  0.3066 -0.1640  0.9210
 5990SOL     OW23731   5.562   6.290   5.914  0.2634  0.4217 -0.2495
 5990SOL    HW223732   5.497   6.225   5.941 -0.0482  0.9792  0.3821
 5990SOL    HW323733   5.556   6.292   5.819 -1.2036  1.0187 -0.1647
 5990SOL    MW423734   5.553   6.282   5.905  0.0288  0.5740 -0.1550
 5991SOL     OW23735   0.914   4.398   1.759  0.1845 -0.0165  0.4643
 5991SOL    HW223736   0.882   4.338   1.826  1.4739 -1.3604 -0.0641
 5991SOL    HW323737   0.937   4.341   1.685 -2.5430  1.5003 -1.7592
 5991SOL    MW423738   0.913   4.383   1.758 -0.0053  0.0063  0.1012
 5992SOL     OW23739   6.071   3.061   0.206 -0.1742 -0.6719 -0.0970
 5992SOL    HW223740   6.104   2.976   0.235 -1.6523 -0.7310  1.5487
 5992SOL    HW323741   6.028   3.098   0.283  0.7658  1.7686 -0.6596
 5992SOL    MW423742   6.070   3.055   0.220 -0.2452 -0.3577  0.0459
 5993SOL     OW23743   3.000   1.510   0.441 -0.2196 -0.0807 -0.6199
 5993SOL    HW223744   3.002   1.415   0.436 -1.2674 -0.3708  2.2807
 5993SOL    HW323745   2.941   1.537   0.371 -0.2976 -1.5818 -1.1673
 5993SOL    MW423746   2.993   1.501   0.431 -0.3681 -0.3170 -0.3095
 5994SOL     OW23747   6.060   6.309   6.394  0.4961 -0.0398 -0.2806
 5994SOL    HW223748   6.109   6.226   6.394 -0.5904 -0.6922 -0.3019
 5994SOL    HW323749   6.062   6.337   6.302  0.6960 -0.1385 -0.3089
 5994SOL    MW423750   6.067   6.302   6.381  0.3791 -0.1389 -0.2872
 5995SOL     OW23751   0.923   4.924   2.175 -0.0163 -0.2842  0.2263
 5995SOL    HW223752   0.994   4.988   2.172 -0.0550 -0.2790 -0.8296
 5995SOL    HW323753   0.844   4.976   2.161 -0.0339 -0.5623 -0.8199
 5995SOL    MW423754   0.922   4.940   2.173 -0.0237 -0.3202 -0.0511
 5996SOL     OW23755   5.795   6.303   4.192  0.1558 -0.0386  0.3058
 5996SOL    HW223756   5.848   6.330   4.117 -2.0087  3.3262 -0.2364
 5996SOL    HW323757   5.758   6.219   4.166 -0.7043  1.0935 -2.6395
 5996SOL    MW423758   5.797   6.296   4.178 -0.2433  0.5547 -0.1543
 5997SOL     OW23759   1.791   4.789   3.714 -0.6248 -0.0555  0.4988
 5997SOL    HW223760   1.701   4.765   3.693 -0.3423 -1.3119  0.6211
 5997SOL    HW323761   1.843   4.750   3.645 -0.1620  0.5840  0.4833
 5997SOL    MW423762   1.786   4.781   3.702 -0.5264 -0.1369  0.5129
 5998SOL     OW23763   6.192   5.747   1.428  0.9203 -0.1288  0.0130
 5998SOL    HW223764   6.165   5.835   1.404  0.0245  0.1658  1.9458
 5998SOL    HW323765   6.273   5.760   1.478  0.5257 -0.3302  0.7222
 5998SOL    MW423766   6.199   5.760   1.432  0.7500 -0.1165  0.3616
 5999SOL     OW23767   2.300   2.439   0.473  0.1171  0.1813  0.2849
 5999SOL    HW223768   2.323   2.495   0.548 -0.3602  0.4157  0.2581
 5999SOL    HW323769   2.332   2.486   0.397 -1.0459  0.8501  0.1858
 5999SOL    MW423770   2.307   2.452   0.473 -0.0994  0.3005  0.2683
 6000SOL     OW23771   3.891   4.715   4.893  0.4341  0.1180 -0.4657
 6000SOL    HW223772   3.910   4.632   4.938  0.7159 -0.1782 -1.1212
 6000SOL    HW323773   3.886   4.692   4.801 -2.4733  0.2890 -0.4420
 6000SOL    MW423774   3.893   4.701   4.887  0.0877  0.1015 -0.5490
 6001SOL     OW23775   1.740   4.438   4.600  0.8927  0.1721  0.0697
 6001SOL    HW223776   1.692   4.404   4.525 -0.4583 -0.6641  1.2707
 6001SOL    HW323777   1.823   4.391   4.599  0.5430 -0.4485 -0.4146
 6001SOL    MW423778   1.745   4.428   4.590  0.6683 -0.0201  0.1643
 6002SOL     OW23779   2.775   4.246   4.632  0.1996 -0.8553  0.7487
 6002SOL    HW223780   2.730   4.300   4.568  1.0334 -0.9214  0.0810
 6002SOL    HW323781   2.781   4.301   4.710 -0.1285 -0.4801  0.5099
 6002SOL    MW423782   2.770   4.261   4.634  0.2663 -0.8145  0.6291
 6003SOL     OW23783   6.260   4.039   1.327  0.2085  0.5970 -0.5358
 6003SOL    HW223784   6.300   4.113   1.282 -0.1315 -0.3701 -2.5579
 6003SOL    HW323785   6.273   3.965   1.267 -2.2627 -0.3018 -0.0973
 6003SOL    MW423786   6.267   4.039   1.313 -0.1624  0.3508 -0.7447
 6004SOL     OW23787   4.889   6.060   4.540  0.1155  0.4799 -0.4038
 6004SOL    HW223788   4.905   5.970   4.569  0.2562  1.1209  1.6448
 6004SOL    HW323789   4.795   6.062   4.523 -0.0382  0.1361  0.3299
 6004SOL    MW423790   4.878   6.048   4.542  0.1138  0.5191 -0.0367
 6005SOL     OW23791   5.951   0.910   4.224  0.1899  0.2222  0.0367
 6005SOL    HW223792   6.039   0.875   4.212  0.3240  0.3206  0.6964
 6005SOL    HW323793   5.964   1.005   4.233 -0.0587  0.3230 -0.5718
 6005SOL    MW423794   5.964   0.918   4.223  0.1748  0.2485  0.0434
 6006SOL     OW23795   5.882   6.388   5.501  0.0052 -0.6229 -0.5298
 6006SOL    HW223796   5.817   6.430   5.557  0.8092 -0.3449  0.2109
 6006SOL    HW323797   5.966   6.420   5.533  0.4700  0.0815 -2.3322
 6006SOL    MW423798   5.885   6.398   5.512  0.1726 -0.4933 -0.6699
 6007SOL     OW23799   3.292   1.614   0.666  1.0121  0.1311 -0.1946
 6007SOL    HW223800   3.334   1.537   0.629 -0.2583 -1.4516  1.5164
 6007SOL    HW323801   3.351   1.642   0.736  0.2141 -0.9380  0.9419
 6007SOL    MW423802   3.306   1.608   0.670  0.7392 -0.2188  0.1811
 6008SOL     OW23803   4.172   1.280   4.056 -0.2348  0.1466  0.1039
 6008SOL    HW223804   4.204   1.344   3.992 -0.8695  1.9432  1.4923
 6008SOL    HW323805   4.205   1.312   4.140 -0.0046 -1.7672  0.7912
 6008SOL    MW423806   4.181   1.293   4.059 -0.2882  0.1311  0.3777
 6009SOL     OW23807   1.800   1.982   5.091  0.2829 -0.1927  0.5879
 6009SOL    HW223808   1.769   2.072   5.079 -0.8893 -0.7524 -0.9683
 6009SOL    HW323809   1.827   1.955   5.003 -2.6232 -2.4543  0.2113
 6009SOL    MW423810   1.799   1.990   5.078 -0.2552 -0.5649  0.3329
 6010SOL     OW23811   3.701   1.154   2.216  0.5517  0.2356 -0.3743
 6010SOL    HW223812   3.679   1.238   2.177  0.5127  0.7546  0.7244
 6010SOL    HW323813   3.648   1.150   2.295  2.1827  0.2021  0.7786
 6010SOL    MW423814   3.691   1.165   2.221  0.7618  0.2997 -0.0773
 6011SOL     OW23815   4.236   5.205   5.195  0.3733 -0.9239 -0.1570
 6011SOL    HW223816   4.245   5.143   5.268 -2.4655  1.8491  2.8782
 6011SOL    HW323817   4.152   5.182   5.156 -1.3454  1.4708  1.7973
 6011SOL    MW423818   4.226   5.194   5.200 -0.2280 -0.2421  0.5013
 6012SOL     OW23819   6.286   1.230   5.242  0.8183 -0.6913  0.3311
 6012SOL    HW223820   6.340   1.252   5.318  1.9021 -0.0726 -0.5958
 6012SOL    HW323821   6.348   1.220   5.170 -0.1635 -1.5125 -0.4406
 6012SOL    MW423822   6.301   1.231   5.243  0.8318 -0.7180  0.1070
 6013SOL     OW23823   5.119   3.848   2.569 -0.2586 -0.4312 -0.3614
 6013SOL    HW223824   5.051   3.911   2.594 -1.5708 -2.0011  0.2392
 6013SOL    HW323825   5.201   3.890   2.595 -1.1965  0.3509  1.5796
 6013SOL    MW423826   5.121   3.862   2.576 -0.5555 -0.5351 -0.0260
 6014SOL     OW23827   6.191   1.505   0.368  0.3237 -1.0444  0.0026
 6014SOL    HW223828   6.252   1.547   0.429  1.1548 -0.5679 -1.1176
 6014SOL    HW323829   6.110   1.495   0.418  0.7002  0.1442  0.9033
 6014SOL    MW423830   6.189   1.509   0.383  0.4830 -0.8247 -0.0264
 6015SOL     OW23831   3.047   4.397   6.368  0.2214 -0.0500  0.6758
 6015SOL    HW223832   3.086   4.310   6.354  1.8723  0.5714  1.1467
 6015SOL    HW323833   2.965   4.394   6.320 -0.4232 -2.3178  1.7755
 6015SOL    MW423834   3.042   4.385   6.360  0.3542 -0.2672  0.8830
 6016SOL     OW23835   3.773   5.019   5.114 -0.7233  0.4054 -0.3030
 6016SOL    HW223836   3.715   4.956   5.070 -1.5180  2.5957 -2.6243
 6016SOL    HW323837   3.713   5.081   5.156 -0.0497  1.2427 -0.5524
 6016SOL    MW423838   3.757   5.019   5.113 -0.7393  0.8049 -0.6422
 6017SOL     OW23839   5.948   4.737   2.110 -0.0953  0.0248  0.5110
 6017SOL    HW223840   5.941   4.648   2.074 -1.0825  1.7595 -4.2379
 6017SOL    HW323841   5.866   4.749   2.159 -2.0653 -0.4585 -2.3796
 6017SOL    MW423842   5.936   4.727   2.112 -0.4855  0.1899 -0.4970
 6018SOL     OW23843   4.298   3.663   0.090 -0.3761  0.0976  0.2809
 6018SOL    HW223844   4.336   3.665   0.002  0.6788 -2.1437  0.6194
 6018SOL    HW323845   4.355   3.720   0.142  0.7640 -0.8630  0.1194
 6018SOL    MW423846   4.311   3.671   0.085 -0.0865 -0.3249  0.3043
 6019SOL     OW23847   4.408   1.107   0.848 -0.2015 -0.2831  0.1677
 6019SOL    HW223848   4.356   1.124   0.769 -0.9378 -1.2114  0.4310
 6019SOL    HW323849   4.395   1.014   0.865  0.2242 -0.1644  1.1931
 6019SOL    MW423850   4.399   1.097   0.840 -0.2424 -0.3899  0.3377
 6020SOL     OW23851   2.099   0.343   5.407  0.1279  0.0811 -0.1375
 6020SOL    HW223852   2.189   0.358   5.378  0.9601 -1.6154  1.4093
 6020SOL    HW323853   2.086   0.249   5.396 -1.2436  0.2049  0.2734
 6020SOL    MW423854   2.109   0.333   5.402  0.0568 -0.1264  0.1208
 6021SOL     OW23855   1.073   2.615   0.123 -0.1791  0.9977  0.4765
 6021SOL    HW223856   1.105   2.651   0.040  0.6906 -0.3645  0.2081
 6021SOL    HW323857   1.144   2.630   0.185 -0.0537  0.3117  0.5064
 6021SOL    MW423858   1.086   2.622   0.120 -0.0478  0.7275  0.4450
 6022SOL     OW23859   0.505   1.962   2.768 -0.2006  0.3444 -0.2767
 6022SOL    HW223860   0.595   1.941   2.745  0.4159  0.8368  1.5489
 6022SOL    HW323861   0.498   2.057   2.756 -0.0763  0.5016  0.7855
 6022SOL    MW423862   0.516   1.972   2.764 -0.1029  0.4301  0.1043
 6023SOL     OW23863   4.755   1.157   0.060 -0.6632  0.5719  0.2186
 6023SOL    HW223864   4.742   1.244   0.097 -0.9492  0.6900 -0.1538
 6023SOL    HW323865   4.668   1.118   0.058 -0.7185  0.7085 -0.6614
 6023SOL    MW423866   4.742   1.164   0.064 -0.7082  0.6055  0.0533
 6024SOL     OW23867   4.395   3.225   6.395  0.0104  0.1571 -0.1446
 6024SOL    HW223868   4.300   3.222   6.390 -0.0493  0.4342  0.7892
 6024SOL    HW323869   4.423   3.134   6.382 -0.3318  0.1749 -1.1282
 6024SOL    MW423870   4.387   3.213   6.392 -0.0426  0.1960 -0.1512
 6025SOL     OW23871   0.398   0.530   4.316  0.7066  0.5566  0.2493
 6025SOL    HW223872   0.316   0.482   4.320  1.5201 -0.8225  1.1548
 6025SOL    HW323873   0.391   0.598   4.382  0.8271 -0.4740  1.3487
 6025SOL    MW423874   0.386   0.533   4.325  0.8298  0.2387  0.5139
 6026SOL     OW23875   1.553   1.061   3.024  0.2898  0.2457  0.2207
 6026SOL    HW223876   1.485   1.121   3.054  0.2083  0.2054  0.1153
 6026SOL    HW323877   1.513   0.974   3.031 -0.5147  0.3748 -2.0842
 6026SOL    MW423878   1.539   1.058   3.029  0.1729  0.2574 -0.0973
 6027SOL     OW23879   6.166   2.084   0.201 -0.5297  0.3950 -0.0220
 6027SOL    HW223880   6.138   2.011   0.146 -1.1073  0.0868  0.6675
 6027SOL    HW323881   6.229   2.046   0.262  0.3534  0.8012 -0.6496
 6027SOL    MW423882   6.171   2.069   0.201 -0.4894  0.4080 -0.0138
 6028SOL     OW23883   2.212   5.340   6.128  0.4355  0.6246 -0.5961
 6028SOL    HW223884   2.121   5.370   6.126  1.2758  3.7728  0.9479
 6028SOL    HW323885   2.208   5.253   6.167 -2.0642 -0.4573 -2.9438
 6028SOL    MW423886   2.200   5.333   6.133  0.2166  0.8972 -0.7021
 6029SOL     OW23887   3.433   2.696   4.826 -0.3877  0.3143  0.1169
 6029SOL    HW223888   3.398   2.629   4.884 -1.6706  0.6776 -0.1856
 6029SOL    HW323889   3.357   2.725   4.775 -0.0738  2.5213  0.7659
 6029SOL    MW423890   3.418   2.691   4.827 -0.5156  0.6534  0.1626
 6030SOL     OW23891   1.285   4.682   2.862 -0.1631  0.3068  0.6616
 6030SOL    HW223892   1.312   4.733   2.786 -1.7147 -0.8434 -0.7214
 6030SOL    HW323893   1.189   4.686   2.862 -0.2657 -1.1497  1.5186
 6030SOL    MW423894   1.276   4.689   2.852 -0.3813 -0.0371  0.5922
 6031SOL     OW23895   3.588   0.109   6.093 -0.3199  0.4070 -0.4536
 6031SOL    HW223896   3.580   0.075   6.182 -1.7608 -1.0443 -1.0769
 6031SOL    HW323897   3.525   0.181   6.090  0.1241  0.8159 -0.1635
 6031SOL    MW423898   3.579   0.114   6.104 -0.4514  0.2695 -0.4976
 6032SOL     OW23899   3.185   5.040   5.107  0.1626 -0.3699 -0.9486
 6032SOL    HW223900   3.144   5.057   5.022 -1.0738  1.2351 -0.0816
 6032SOL    HW323901   3.262   5.096   5.109 -1.1793  1.5165 -0.0651
 6032SOL    MW423902   3.190   5.049   5.096 -0.1776  0.0907 -0.7177
 6033SOL     OW23903   3.254   1.516   2.885  0.3557  0.2304  0.5935
 6033SOL    HW223904   3.343   1.519   2.920  0.8366 -3.3564  0.0955
 6033SOL    HW323905   3.262   1.551   2.796  1.5283 -0.8475  0.2368
 6033SOL    MW423906   3.267   1.521   2.878  0.5739 -0.3851  0.4807
 6034SOL     OW23907   5.018   5.927   3.216  0.2252 -0.3331 -0.2430
 6034SOL    HW223908   5.083   5.967   3.158 -0.5885 -0.0528 -0.9916
 6034SOL    HW323909   4.997   5.995   3.279  0.8577 -0.5215  0.1837
 6034SOL    MW423910   5.024   5.941   3.217  0.2013 -0.3210 -0.2855
 6035SOL     OW23911   3.687   4.923   2.136 -0.2268  0.1195  0.1719
 6035SOL    HW223912   3.764   4.965   2.098 -0.4374 -0.2152 -0.6303
 6035SOL    HW323913   3.615   4.984   2.119  0.0105  0.9216  1.8188
 6035SOL    MW423914   3.688   4.937   2.129 -0.2233  0.1811  0.2834
 6036SOL     OW23915   2.911   1.936   1.803 -0.3954 -0.3025 -0.1446
 6036SOL    HW223916   2.908   1.847   1.838  2.6353 -0.3337  0.3007
 6036SOL    HW323917   2.953   1.927   1.718 -0.5099  0.6365 -0.3080
 6036SOL    MW423918   2.916   1.923   1.797 -0.0106 -0.1827 -0.1074
 6037SOL     OW23919   1.713   1.255   6.410  0.2343 -0.1765 -0.0439
 6037SOL    HW223920   1.702   1.203   6.331  0.1551  1.4648 -1.1604
 6037SOL    HW323921   1.713   1.346   6.380  1.4728  0.4698  1.6897
 6037SOL    MW423922   1.712   1.261   6.396  0.3872  0.1253  0.0375
 6038SOL     OW23923   0.648   1.583   0.493 -0.0560 -0.0274 -0.0532
 6038SOL    HW223924   0.697   1.665   0.494 -3.2136  2.0526  1.1777
 6038SOL    HW323925   0.594   1.588   0.414 -1.2009 -0.2422  0.6828
 6038SOL    MW423926   0.647   1.594   0.482 -0.6236  0.2187  0.2063
 6039SOL     OW23927   0.314   4.423   5.263  0.1280 -0.2842  0.3675
 6039SOL    HW223928   0.356   4.506   5.288  0.4971 -0.1840 -0.5343
 6039SOL    HW323929   0.357   4.357   5.317 -0.1630  0.0975  1.0897
 6039SOL    MW423930   0.325   4.425   5.274  0.1383 -0.2206  0.3438
 6040SOL     OW23931   1.780   3.926   3.774  0.0746  0.2305 -0.4385
 6040SOL    HW223932   1.850   3.910   3.837  0.4630  0.6652 -0.7417
 6040SOL    HW323933   1.701   3.934   3.826  0.7701  3.4235  0.3621
 6040SOL    MW423934   1.779   3.925   3.789  0.2176  0.7091 -0.3729
 6041SOL     OW23935   4.753   1.543   3.185  0.0259  0.0630 -0.1684
 6041SOL    HW223936   4.757   1.454   3.220  1.4227  0.0095 -0.4054
 6041SOL    HW323937   4.751   1.531   3.090  0.8176  0.2888 -0.2178
 6041SOL    MW423938   4.753   1.530   3.177  0.3146  0.0858 -0.2062
 6042SOL     OW23939   1.422   6.370   5.936  0.0583 -0.4467  0.3832
 6042SOL    HW223940   1.497   6.319   5.967 -0.7851 -1.1807  1.2747
 6042SOL    HW323941   1.391   6.324   5.858  0.5909 -0.0795 -0.0510
 6042SOL    MW423942   1.428   6.357   5.930  0.0173 -0.4951  0.4435
 6043SOL     OW23943   0.891   1.721   3.230 -0.0099  0.1032  0.2101
 6043SOL    HW223944   0.980   1.745   3.254 -0.0970  2.3355 -1.3387
 6043SOL    HW323945   0.901   1.654   3.162  0.6262  1.7347 -1.3838
 6043SOL    MW423946   0.904   1.716   3.224  0.0625  0.6130 -0.2046
 6044SOL     OW23947   0.044   5.273   4.011 -0.7711 -0.0550  0.3904
 6044SOL    HW223948   0.028   5.366   3.992  0.6600  0.1580  0.1397
 6044SOL    HW323949   0.106   5.274   4.083 -0.7635 -0.8264  0.3929
 6044SOL    MW423950   0.050   5.286   4.018 -0.5813 -0.1287  0.3576
 6045SOL     OW23951   1.210   5.354   4.193  0.8971  0.2896 -0.1421
 6045SOL    HW223952   1.183   5.272   4.151 -1.9188  0.7486  0.5405
 6045SOL    HW323953   1.211   5.418   4.122  1.4731  0.0071 -0.3945
 6045SOL    MW423954   1.206   5.352   4.178  0.6016  0.3129 -0.0853
 6046SOL     OW23955   3.893   0.441   3.806 -0.4369  0.5918  0.3566
 6046SOL    HW223956   3.957   0.487   3.752 -0.0679 -0.9352 -0.5814
 6046SOL    HW323957   3.825   0.414   3.745 -0.8492  0.2508  0.9539
 6046SOL    MW423958   3.893   0.443   3.791 -0.4426  0.3453  0.3117
 6047SOL     OW23959   1.659   3.656   6.336  0.3318  0.4483 -0.1446
 6047SOL    HW223960   1.720   3.730   6.326 -0.7803  1.4468  0.2192
 6047SOL    HW323961   1.595   3.687   6.400 -0.4278 -0.6716 -0.3418
 6047SOL    MW423962   1.659   3.670   6.343  0.0848  0.4323 -0.1226
 6048SOL     OW23963   2.614   0.490   2.338 -0.3894  0.3999  0.5794
 6048SOL    HW223964   2.631   0.422   2.403  0.6188  0.2226  0.1497
 6048SOL    HW323965   2.527   0.470   2.304 -0.6071  0.0482  1.3269
 6048SOL    MW423966   2.605   0.478   2.342 -0.2851  0.3301  0.6213
 6049SOL     OW23967   1.084   2.721   6.299 -0.1743  0.3364 -0.1940
 6049SOL    HW223968   1.158   2.715   6.238 -1.1367  1.5830 -1.5482
 6049SOL    HW323969   1.027   2.649   6.272 -0.3125  0.5074 -0.3566
 6049SOL    MW423970   1.086   2.711   6.287 -0.3195  0.5235 -0.3941
 6050SOL     OW23971   0.631   0.457   5.120 -0.1184  0.2571 -0.0326
 6050SOL    HW223972   0.604   0.509   5.195  0.7015  0.0458  0.4207
 6050SOL    HW323973   0.573   0.380   5.121 -0.2832  0.3845  0.2299
 6050SOL    MW423974   0.620   0.453   5.130 -0.0320  0.2460  0.0619
 6051SOL     OW23975   5.398   4.936   1.548  0.2511 -0.2062  0.5560
 6051SOL    HW223976   5.460   4.862   1.552 -1.1116 -1.3543  1.7383
 6051SOL    HW323977   5.321   4.900   1.504 -0.6812  0.3002  1.7286
 6051SOL    MW423978   5.396   4.921   1.543 -0.0517 -0.2909  0.8667
 6052SOL     OW23979   6.282   0.519   2.423  0.8116 -0.0888  0.1584
 6052SOL    HW223980   6.271   0.470   2.342  2.2093 -0.9470  0.4542
 6052SOL    HW323981   6.368   0.561   2.414 -0.2157  2.0838  0.0477
 6052SOL    MW423982   6.292   0.518   2.412  0.8605  0.0846  0.1828
 6053SOL     OW23983   5.054   4.424   1.420 -0.1453  0.1518 -0.7633
 6053SOL    HW223984   5.048   4.466   1.506  0.9033  1.6057 -1.3800
 6053SOL    HW323985   4.993   4.473   1.365  0.5887  0.4401 -1.3212
 6053SOL    MW423986   5.045   4.436   1.424  0.0899  0.3816 -0.9183
 6054SOL     OW23987   4.428   2.312   4.150 -0.0264 -0.1846  0.3639
 6054SOL    HW223988   4.351   2.328   4.097 -0.4198  0.8483  1.2118
 6054SOL    HW323989   4.404   2.343   4.237  0.3512 -2.4808  1.3479
 6054SOL    MW423990   4.415   2.318   4.154 -0.0285 -0.3513  0.6056
 6055SOL     OW23991   0.836   1.062   5.914 -0.2846 -0.8993 -0.5869
 6055SOL    HW223992   0.826   1.147   5.870  1.3982 -0.4448 -0.1870
 6055SOL    HW323993   0.750   1.043   5.950 -0.7079  0.6277 -0.7112
 6055SOL    MW423994   0.824   1.071   5.913 -0.1184 -0.6379 -0.5505
 6056SOL     OW23995   6.168   2.714   3.612  0.1542  0.6176 -0.0479
 6056SOL    HW223996   6.171   2.807   3.589  0.7728  0.7529  0.5631
 6056SOL    HW323997   6.197   2.669   3.532 -0.8802  0.8999 -0.5918
 6056SOL    MW423998   6.173   2.720   3.598  0.0993  0.6727 -0.0391
 6057SOL     OW23999   4.038   2.266   1.231 -0.1891 -0.0499 -0.2847
 6057SOL    HW224000   3.960   2.312   1.202 -0.6847  0.3164  1.5355
 6057SOL    HW324001   4.107   2.332   1.234 -0.1492 -0.0783 -0.5587
 6057SOL    MW424002   4.037   2.281   1.227 -0.2492 -0.0053 -0.0807
 6058SOL     OW24003   0.914   2.520   1.614 -0.8267 -0.0035 -0.0505
 6058SOL    HW224004   0.956   2.514   1.529 -0.1961 -0.2540  0.2714
 6058SOL    HW324005   0.830   2.563   1.597 -0.8620 -0.3770 -0.8425
 6058SOL    MW424006   0.908   2.525   1.601 -0.7482 -0.0858 -0.1125
 6059SOL     OW24007   5.255   1.370   1.095 -0.1466  0.2638 -0.1488
 6059SOL    HW224008   5.199   1.327   1.160  0.8630 -0.1245  0.5028
 6059SOL    HW324009   5.274   1.456   1.133 -0.3579  0.4209 -0.3980
 6059SOL    MW424010   5.250   1.376   1.109 -0.0413  0.2333 -0.0957
 6060SOL     OW24011   0.490   1.855   4.985 -0.2313  0.0710 -0.6667
 6060SOL    HW224012   0.510   1.914   4.913  0.2932 -1.3344 -1.7398
 6060SOL    HW324013   0.571   1.850   5.035 -0.6843  1.2745  0.2171
 6060SOL    MW424014   0.503   1.862   4.982 -0.2219  0.0444 -0.6917
 6061SOL     OW24015   4.694   3.485   4.881  0.2539  1.0125  0.0308
 6061SOL    HW224016   4.621   3.472   4.941 -1.1119 -0.6548 -1.8464
 6061SOL    HW324017   4.661   3.546   4.815  0.5666  0.3301 -0.7798
 6061SOL    MW424018   4.680   3.491   4.880  0.1149  0.7025 -0.3239
 6062SOL     OW24019   3.261   0.911   2.716 -0.6171 -0.1368 -0.0233
 6062SOL    HW224020   3.328   0.884   2.779  1.0751 -0.2481 -1.7628
 6062SOL    HW324021   3.280   1.003   2.699  1.0693 -0.8724 -2.6992
 6062SOL    MW424022   3.273   0.920   2.722 -0.1713 -0.2486 -0.6058
 6063SOL     OW24023   6.423   0.062   5.343  0.1089 -0.7675  0.3111
 6063SOL    HW224024   6.502   0.014   5.318  0.4352 -0.5424  0.9028
 6063SOL    HW324025   6.408   0.038   5.434 -1.4294 -2.0730 -0.2427
 6063SOL    MW424026   6.431   0.052   5.352 -0.0510 -0.9101  0.3161
 6064SOL     OW24027   5.713   2.228   0.742  0.2105  0.1126 -0.0178
 6064SOL    HW224028   5.694   2.320   0.757 -0.0293  0.2728 -1.2079
 6064SOL    HW324029   5.798   2.213   0.784  0.0271  0.7468  0.5935
 6064SOL    MW424030   5.722   2.238   0.749  0.1547  0.2174 -0.0941
 6065SOL     OW24031   1.632   2.326   4.584 -0.2093  0.2054  0.3099
 6065SOL    HW224032   1.552   2.351   4.539 -0.0950  1.3197  0.7103
 6065SOL    HW324033   1.611   2.332   4.677 -0.2517 -1.4648  0.4441
 6065SOL    MW424034   1.619   2.330   4.591 -0.1998  0.1321  0.3804
 6066SOL     OW24035   1.162   0.018   6.006 -0.6170  0.1288  0.2133
 6066SOL    HW224036   1.248  -0.023   6.006 -0.9367 -0.5579 -0.2232
 6066SOL    HW324037   1.103  -0.050   6.039 -1.1931  0.1462 -0.7465
 6066SOL    MW424038   1.166   0.004   6.010 -0.7352  0.0405  0.0291
 6067SOL     OW24039   1.913   1.387   4.670  0.0995  0.3043 -0.5905
 6067SOL    HW224040   1.878   1.392   4.759  0.8362 -0.7519 -0.2325
 6067SOL    HW324041   1.864   1.455   4.623 -0.0442  1.1449  0.6922
 6067SOL    MW424042   1.902   1.397   4.676  0.1778  0.2759 -0.3740
 6068SOL     OW24043   3.560   0.420   5.314  0.0069  0.2249 -0.5998
 6068SOL    HW224044   3.610   0.339   5.326 -0.8114 -0.3395 -0.8948
 6068SOL    HW324045   3.623   0.482   5.277  1.0281  0.1869  0.9895
 6068SOL    MW424046   3.575   0.417   5.311  0.0337  0.1454 -0.4290
 6069SOL     OW24047   3.451   1.581   4.344 -0.4168 -0.4924 -0.0533
 6069SOL    HW224048   3.358   1.595   4.327 -0.7690 -2.9172 -0.3825
 6069SOL    HW324049   3.458   1.577   4.439 -0.7800 -1.1069 -0.0507
 6069SOL    MW424050   3.440   1.583   4.354 -0.5112 -0.8934 -0.0964
 6070SOL     OW24051   5.848   4.356   2.966  0.2319 -0.4065  0.2674
 6070SOL    HW224052   5.902   4.301   3.023  1.0322 -0.8631 -0.8923
 6070SOL    HW324053   5.911   4.413   2.922 -0.3111 -0.4554 -0.5784
 6070SOL    MW424054   5.864   4.356   2.968  0.2658 -0.4732  0.0028
 6071SOL     OW24055   2.408   1.737   3.409  0.2727  0.4261 -0.4002
 6071SOL    HW224056   2.385   1.773   3.323 -0.8733  2.0766  0.5491
 6071SOL    HW324057   2.416   1.813   3.466 -2.4185 -0.7048  1.7418
 6071SOL    MW424058   2.406   1.752   3.405 -0.2336  0.4946  0.0076
 6072SOL     OW24059   1.142   5.373   1.908  0.0336  0.7829 -0.1878
 6072SOL    HW224060   1.188   5.294   1.880 -0.5285 -0.3634  1.9299
 6072SOL    HW324061   1.072   5.383   1.843 -0.8513 -1.4104  0.3195
 6072SOL    MW424062   1.139   5.364   1.895 -0.1573  0.3423  0.1585
 6073SOL     OW24063   5.012   1.048   4.899 -0.2471 -0.4460  0.3010
 6073SOL    HW224064   4.945   0.991   4.864 -1.0508 -1.7100  3.5557
 6073SOL    HW324065   5.022   1.021   4.991  0.3324  3.6678  1.6840
 6073SOL    MW424066   5.005   1.037   4.907 -0.2767 -0.0700  0.9129
 6074SOL     OW24067   5.734   0.957   6.163  0.3197  0.1704 -0.8210
 6074SOL    HW224068   5.753   1.039   6.118 -1.6054  1.1614  0.0437
 6074SOL    HW324069   5.656   0.976   6.216  1.6581 -1.2876  1.8947
 6074SOL    MW424070   5.726   0.971   6.164  0.2423  0.1088 -0.3486
 6075SOL     OW24071   1.817   1.039   4.791 -0.1373  0.3305 -0.0608
 6075SOL    HW224072   1.784   0.962   4.838 -0.6446 -0.1352 -1.1272
 6075SOL    HW324073   1.752   1.107   4.808  1.0909  1.0245  2.1383
 6075SOL    MW424074   1.804   1.038   4.799 -0.0422  0.3606  0.0886
 6076SOL     OW24075   1.360   3.315   3.772  0.2380 -0.2366 -0.7888
 6076SOL    HW224076   1.316   3.234   3.799  1.3220 -0.4140  0.5580
 6076SOL    HW324077   1.392   3.297   3.683  0.0804 -1.1222 -0.6749
 6076SOL    MW424078   1.358   3.302   3.764  0.3602 -0.3769 -0.5961
 6077SOL     OW24079   1.173   4.523   1.730 -0.3273  0.2329  0.1538
 6077SOL    HW224080   1.164   4.596   1.790 -0.5679  1.2965 -1.1379
 6077SOL    HW324081   1.091   4.474   1.739 -0.7802  0.9423 -0.0040
 6077SOL    MW424082   1.161   4.526   1.739 -0.4188  0.4668 -0.0374
 6078SOL     OW24083   6.283   2.280   3.110 -0.6493  0.5001 -0.2268
 6078SOL    HW224084   6.365   2.327   3.095 -1.1727  1.4061 -0.3219
 6078SOL    HW324085   6.302   2.189   3.085  0.4281  0.6186  0.1357
 6078SOL    MW424086   6.296   2.274   3.104 -0.5762  0.6353 -0.1915
 6079SOL     OW24087   0.380   3.346   5.391 -0.3869  0.2332 -0.2393
 6079SOL    HW224088   0.317   3.285   5.353 -0.0585  0.6717 -1.5742
 6079SOL    HW324089   0.369   3.427   5.341  0.1093  0.8389  0.5978
 6079SOL    MW424090   0.371   3.349   5.379 -0.2781  0.3710 -0.3050
 6080SOL     OW24091   3.436   5.106   4.273  0.2680  0.0113 -0.0453
 6080SOL    HW224092   3.513   5.140   4.229  1.7164  0.7756  2.8179
 6080SOL    HW324093   3.386   5.184   4.298 -1.5600 -0.4669 -1.9236
 6080SOL    MW424094   3.439   5.121   4.271  0.2179  0.0491  0.0847
 6081SOL     OW24095   3.687   2.927   0.656 -0.0336 -0.8879  0.1721
 6081SOL    HW224096   3.720   3.016   0.648  1.2397 -1.3188  0.3652
 6081SOL    HW324097   3.703   2.888   0.570  0.6355 -1.3027  0.4706
 6081SOL    MW424098   3.694   2.934   0.643  0.2227 -0.9995  0.2369
 6082SOL     OW24099   0.434   1.125   0.037 -0.2312  0.1616  0.3125
 6082SOL    HW224100   0.433   1.054   0.101  0.9547 -0.0358  0.1287
 6082SOL    HW324101   0.415   1.082  -0.046  0.9433 -0.0299  0.1312
 6082SOL    MW424102   0.431   1.110   0.035  0.0802  0.1103  0.2643
 6083SOL     OW24103   2.301   0.091   5.591  0.1317 -0.3464 -0.3093
 6083SOL    HW224104   2.246   0.109   5.667  0.7802  0.2606  0.0330
 6083SOL    HW324105   2.383   0.057   5.628 -0.1589 -1.6633 -0.8340
 6083SOL    MW424106   2.305   0.089   5.606  0.1789 -0.4401 -0.3334
 6084SOL     OW24107   2.280   3.396   2.917 -0.5562  0.1078  0.1324
 6084SOL    HW224108   2.350   3.339   2.949 -0.3132  1.0796  1.3984
 6084SOL    HW324109   2.237   3.345   2.848  1.9440 -0.1680 -1.3382
 6084SOL    MW424110   2.283   3.382   2.912 -0.1943  0.1996  0.1054
 6085SOL     OW24111   0.586   3.687   0.548 -0.0051  0.2510  0.1940
 6085SOL    HW224112   0.608   3.679   0.455  0.2351 -0.3389  0.3013
 6085SOL    HW324113   0.612   3.604   0.587 -2.6397 -0.6190  0.2947
 6085SOL    MW424114   0.592   3.675   0.541 -0.3210  0.0584  0.2214
 6086SOL     OW24115   4.009   0.860   4.511  0.1144  0.6161 -0.6187
 6086SOL    HW224116   4.102   0.883   4.515  0.3622 -0.2581 -1.1046
 6086SOL    HW324117   4.002   0.804   4.434 -0.6481 -0.1346 -0.0157
 6086SOL    MW424118   4.020   0.856   4.501  0.0465  0.4017 -0.6032
 6087SOL     OW24119   1.751   5.280   6.365 -0.1092  0.1291  0.0253
 6087SOL    HW224120   1.842   5.274   6.395 -0.4433 -1.2784  0.8742
 6087SOL    HW324121   1.707   5.206   6.407 -1.0450 -0.9053 -2.5283
 6087SOL    MW424122   1.757   5.270   6.374 -0.2768 -0.1931 -0.1996
 6088SOL     OW24123   2.782   1.164   2.918 -0.2371  0.1015 -0.1011
 6088SOL    HW224124   2.838   1.138   2.845 -1.1733  1.3124 -1.3049
 6088SOL    HW324125   2.836   1.150   2.996  1.1468 -0.2951 -1.0939
 6088SOL    MW424126   2.796   1.159   2.919 -0.1781  0.2090 -0.3909
 6089SOL     OW24127   1.412   6.070   2.926 -0.2197 -0.3543 -0.4259
 6089SOL    HW224128   1.367   6.091   2.844  0.9328  0.0190 -0.9843
 6089SOL    HW324129   1.361   6.116   2.993 -0.3604  0.5216 -1.1064
 6089SOL    MW424130   1.400   6.079   2.924 -0.0862 -0.1895 -0.5894
 6090SOL     OW24131   3.510   5.869   3.102 -0.6533  0.3793  0.4997
 6090SOL    HW224132   3.434   5.848   3.156 -0.8830  1.8847  0.7930
 6090SOL    HW324133   3.483   5.945   3.050 -0.8025 -1.5520 -2.5236
 6090SOL    MW424134   3.496   5.876   3.102 -0.7033  0.3231  0.1395
 6091SOL     OW24135   2.828   5.111   4.003 -0.1845  0.4658 -0.3336
 6091SOL    HW224136   2.873   5.187   4.040 -0.1039  0.3370 -0.1629
 6091SOL    HW324137   2.750   5.100   4.058 -0.9686  1.2936 -1.2403
 6091SOL    MW424138   2.823   5.120   4.015 -0.2773  0.5580 -0.4307
 6092SOL     OW24139   0.418   1.235   3.788 -0.1959  0.2002  0.1727
 6092SOL    HW224140   0.430   1.276   3.873  2.1234 -0.6503  0.3391
 6092SOL    HW324141   0.423   1.308   3.726  1.0231  0.5280  0.6230
 6092SOL    MW424142   0.420   1.250   3.791  0.2710  0.1312  0.2541
 6093SOL     OW24143   5.272   4.832   4.608  0.5152 -0.0924  0.3103
 6093SOL    HW224144   5.298   4.747   4.645  0.2889  0.4180  1.6994
 6093SOL    HW324145   5.354   4.880   4.599  0.3480  0.7359  2.6798
 6093SOL    MW424146   5.286   4.827   4.611  0.4633  0.0842  0.8062
 6094SOL     OW24147   2.790   6.155   1.652  0.6774 -0.1861 -0.6625
 6094SOL    HW224148   2.713   6.123   1.699  1.1946 -2.6185 -1.3304
 6094SOL    HW324149   2.818   6.232   1.702 -0.6078 -0.8302  1.1677
 6094SOL    MW424150   2.783   6.161   1.665  0.5761 -0.5920 -0.5091
 6095SOL     OW24151   3.615   4.302   2.572  0.6576 -0.0706 -0.0998
 6095SOL    HW224152   3.698   4.349   2.564  1.1195 -0.8765 -0.0797
 6095SOL    HW324153   3.560   4.338   2.502  0.9447  0.6100  0.0147
 6095SOL    MW424154   3.619   4.313   2.562  0.7564 -0.0871 -0.0820
 6096SOL     OW24155   4.290   0.631   6.335  0.7344  0.2877 -0.2816
 6096SOL    HW224156   4.257   0.550   6.295  0.1152  1.4068 -2.1926
 6096SOL    HW324157   4.377   0.642   6.298  0.3673  1.0633 -0.9399
 6096SOL    MW424158   4.297   0.622   6.325  0.6043  0.5376 -0.6206
 6097SOL     OW24159   1.408   6.408   2.716  0.3244  0.0753  0.2340
 6097SOL    HW224160   1.473   6.404   2.786 -0.4697 -0.8658  0.9381
 6097SOL    HW324161   1.358   6.487   2.734  1.4948  1.0354 -0.5472
 6097SOL    MW424162   1.410   6.418   2.727  0.3740  0.0778  0.2238
 6098SOL     OW24163   0.296   5.324   4.175 -0.5101 -0.8814 -0.2471
 6098SOL    HW224164   0.302   5.419   4.174 -0.7156 -0.8655 -1.2607
 6098SOL    HW324165   0.304   5.300   4.267  1.0514  0.0044 -0.1278
 6098SOL    MW424166   0.298   5.333   4.187 -0.3312 -0.7624 -0.3651
 6099SOL     OW24167   2.663   3.171   1.987 -0.4263  0.1108  0.0458
 6099SOL    HW224168   2.614   3.249   2.013  0.0204  0.1222  0.9196
 6099SOL    HW324169   2.700   3.138   2.069  2.5088  1.1200 -0.7231
 6099SOL    MW424170   2.661   3.177   2.001  0.0199  0.2455  0.0596
 6100SOL     OW24171   6.311   2.802   1.081  0.1258 -0.7104 -0.0326
 6100SOL    HW224172   6.367   2.878   1.094  0.4325 -0.7792 -0.8550
 6100SOL    HW324173   6.371   2.729   1.070 -0.0796 -0.7075 -1.4011
 6100SOL    MW424174   6.326   2.803   1.081  0.1392 -0.7191 -0.3216
 6101SOL     OW24175   5.017   1.168   5.832  0.3566  0.0023  0.3100
 6101SOL    HW224176   4.937   1.216   5.808 -1.5445 -1.3277  3.3858
 6101SOL    HW324177   5.051   1.215   5.908  1.6773 -0.3532 -0.0428
 6101SOL    MW424178   5.011   1.181   5.839  0.2800 -0.2201  0.6693
 6102SOL     OW24179   2.914   3.739   0.229 -0.6795  0.1639 -0.2895
 6102SOL    HW224180   2.919   3.819   0.176 -1.9798 -0.1793 -0.9826
 6102SOL    HW324181   2.864   3.678   0.174  1.6389 -1.7076 -0.4893
 6102SOL    MW424182   2.908   3.741   0.215 -0.5452 -0.1283 -0.4073
 6103SOL     OW24183   0.564   4.626   4.104 -0.1148  0.5115  0.4903
 6103SOL    HW224184   0.651   4.646   4.069  0.1746 -0.5742  0.5377
 6103SOL    HW324185   0.579   4.602   4.195 -0.1554 -1.6706 -0.0242
 6103SOL    MW424186   0.577   4.625   4.111 -0.0820  0.0803  0.4287
 6104SOL     OW24187   4.300   1.587   2.758 -0.6773 -0.4064  0.1504
 6104SOL    HW224188   4.354   1.631   2.692 -1.4045 -0.2293 -0.3377
 6104SOL    HW324189   4.329   1.496   2.755  2.6931  0.3578  2.9959
 6104SOL    MW424190   4.311   1.581   2.748 -0.3286 -0.2822  0.4615
 6105SOL     OW24191   0.770   3.630   1.023 -0.1957 -0.0625 -0.3834
 6105SOL    HW224192   0.793   3.674   0.941 -0.2183 -0.6171 -0.6910
 6105SOL    HW324193   0.740   3.700   1.080  1.3013  0.5698 -0.3102
 6105SOL    MW424194   0.769   3.645   1.020 -0.0012 -0.0523 -0.4143
 6106SOL     OW24195   2.701   2.925   0.017 -0.0185  0.4223  0.8759
 6106SOL    HW224196   2.682   2.878  -0.064 -0.1060  1.2509  0.4065
 6106SOL    HW324197   2.653   2.876   0.084 -0.9076  0.4017  0.2446
 6106SOL    MW424198   2.692   2.913   0.015 -0.1473  0.5289  0.7307
 6107SOL     OW24199   1.213   4.097   0.087 -0.3508 -0.2780  0.0437
 6107SOL    HW224200   1.169   4.051   0.158 -1.8109 -1.2238 -1.4221
 6107SOL    HW324201   1.170   4.182   0.083 -0.6287 -0.4233 -0.0520
 6107SOL    MW424202   1.202   4.102   0.095 -0.5801 -0.4219 -0.1623
 6108SOL     OW24203   5.386   1.275   0.109 -0.1422  0.1808  0.2935
 6108SOL    HW224204   5.339   1.193   0.096 -1.2282  0.7662  0.4244
 6108SOL    HW324205   5.336   1.340   0.060 -0.2874  1.0932  1.5894
 6108SOL    MW424206   5.373   1.273   0.101 -0.3047  0.3784  0.4817
 6109SOL     OW24207   4.047   5.380   2.864 -1.1378  0.0905 -0.4698
 6109SOL    HW224208   4.030   5.462   2.819  2.2586  1.3431  0.2066
 6109SOL    HW324209   4.062   5.316   2.795 -3.2094  0.0833 -0.9921
 6109SOL    MW424210   4.047   5.382   2.849 -0.9630  0.2548 -0.4495
 6110SOL     OW24211   2.560   5.343   0.056  0.0211 -0.4602 -0.0762
 6110SOL    HW224212   2.471   5.363   0.086 -0.2323 -0.7211 -0.6437
 6110SOL    HW324213   2.552   5.262   0.007  0.9773 -1.8061  1.8379
 6110SOL    MW424214   2.547   5.335   0.054  0.1138 -0.6722  0.1015
 6111SOL     OW24215   3.707   4.564   0.091  0.1102 -0.1979 -0.0662
 6111SOL    HW224216   3.775   4.604   0.146  0.4118  0.0375 -0.6041
 6111SOL    HW324217   3.659   4.637   0.054  0.5283 -0.3279 -0.8831
 6111SOL    MW424218   3.710   4.579   0.094  0.2051 -0.1840 -0.2450
 6112SOL     OW24219   3.795   4.386   3.305 -0.0575  0.0736  0.1219
 6112SOL    HW224220   3.826   4.311   3.253  1.3158  0.6544  0.0426
 6112SOL    HW324221   3.875   4.433   3.328 -0.7288  0.4408  1.8488
 6112SOL    MW424222   3.810   4.382   3.301  0.0351  0.1987  0.3393
 6113SOL     OW24223   1.109   5.243   1.561 -0.3553 -0.3442  0.1131
 6113SOL    HW224224   1.155   5.160   1.554  0.1473 -0.1350  0.7711
 6113SOL    HW324225   1.121   5.285   1.476  0.5721 -0.3496  0.2327
 6113SOL    MW424226   1.116   5.238   1.549 -0.1666 -0.3173  0.2157
 6114SOL     OW24227   2.814   4.028   0.526 -0.3784 -0.4813  0.2598
 6114SOL    HW224228   2.727   4.060   0.552 -0.6893  0.5533 -1.8252
 6114SOL    HW324229   2.863   4.022   0.608 -1.3547  2.2405  1.1552
 6114SOL    MW424230   2.809   4.032   0.540 -0.5482  0.0143  0.1029
 6115SOL     OW24231   3.349   1.677   1.956 -0.5315  0.9159 -0.0882
 6115SOL    HW224232   3.385   1.744   1.898 -1.8844 -0.0083 -2.1167
 6115SOL    HW324233   3.264   1.712   1.983 -0.6735  0.5811 -0.0948
 6115SOL    MW424234   3.342   1.690   1.952 -0.7288  0.7498 -0.3567
 6116SOL     OW24235   3.422   5.261   1.233 -0.0825 -0.7098  0.5073
 6116SOL    HW224236   3.375   5.342   1.213  0.5557 -0.8212 -1.6767
 6116SOL    HW324237   3.485   5.285   1.301  1.7463  1.2844 -1.7257
 6116SOL    MW424238   3.424   5.274   1.240  0.2430 -0.4614 -0.0755
 6117SOL     OW24239   4.194   4.520   2.421 -0.6188  0.3612 -0.1874
 6117SOL    HW224240   4.194   4.434   2.380  0.5597  0.5034 -0.5165
 6117SOL    HW324241   4.279   4.527   2.463 -0.9598  1.1042  0.4081
 6117SOL    MW424242   4.205   4.510   2.421 -0.5083  0.4780 -0.1523
 6118SOL     OW24243   1.403   1.921   2.246 -0.8399  0.5937  0.2171
 6118SOL    HW224244   1.484   1.884   2.280 -2.0381  0.4569  3.2689
 6118SOL    HW324245   1.414   1.922   2.151  2.0917 -0.8079  0.4510
 6118SOL    MW424246   1.415   1.916   2.238 -0.6112  0.3907  0.6506
 6119SOL     OW24247   4.291   4.989   5.372  0.2086 -0.1820 -0.2501
 6119SOL    HW224248   4.385   4.975   5.358  0.1220 -1.7181  0.5042
 6119SOL    HW324249   4.268   4.926   5.440 -1.4354 -0.0040 -0.6163
 6119SOL    MW424250   4.301   4.979   5.379 -0.0197 -0.3612 -0.1989
 6120SOL     OW24251   2.311   4.820   1.534 -0.3103 -0.2614  0.8215
 6120SOL    HW224252   2.289   4.885   1.600 -0.8159  1.3760 -0.8583
 6120SOL    HW324253   2.380   4.860   1.482 -2.1552 -0.0007 -1.6312
 6120SOL    MW424254   2.317   4.834   1.535 -0.6204 -0.0109  0.2763
 6121SOL     OW24255   1.980   3.091   0.163  0.0784 -0.3947  0.4306
 6121SOL    HW224256   2.030   3.015   0.192 -0.2471  0.4749  3.6128
 6121SOL    HW324257   1.888   3.065   0.175 -0.0556  0.2527  0.8072
 6121SOL    MW424258   1.974   3.077   0.168  0.0177 -0.1946  0.9001
 6122SOL     OW24259   3.122   5.789   2.016  0.2440 -0.6111 -0.0494
 6122SOL    HW224260   3.088   5.866   2.061 -0.7234 -1.2486  0.3417
 6122SOL    HW324261   3.216   5.788   2.036  0.2278  0.3317  0.1160
 6122SOL    MW424262   3.130   5.799   2.024  0.1143 -0.5708  0.0240
 6123SOL     OW24263   4.501   5.757   3.664  0.0073  0.4590  0.5019
 6123SOL    HW224264   4.532   5.729   3.578  0.2705  1.9846  0.0710
 6123SOL    HW324265   4.428   5.697   3.684  1.6973 -1.7113  0.5111
 6123SOL    MW424266   4.495   5.745   3.655  0.2650  0.3740  0.4462
 6124SOL     OW24267   4.140   4.518   0.124 -0.1296 -0.0909 -0.4880
 6124SOL    HW224268   4.053   4.525   0.084 -1.4281 -1.4291  1.9085
 6124SOL    HW324269   4.143   4.590   0.186  0.9780  0.6252 -1.3299
 6124SOL    MW424270   4.129   4.529   0.127 -0.1548 -0.1730 -0.2829
 6125SOL     OW24271   1.480   1.299   1.740  0.2886 -0.0986 -0.0520
 6125SOL    HW224272   1.452   1.221   1.786 -1.6870  0.7325  0.2448
 6125SOL    HW324273   1.459   1.371   1.799 -3.5323  1.1454 -2.5321
 6125SOL    MW424274   1.474   1.299   1.754 -0.4761  0.1752 -0.3401
 6126SOL     OW24275   3.517   3.826   2.517 -0.4792 -0.0537 -0.5150
 6126SOL    HW224276   3.517   3.791   2.606 -2.1276  1.3655  0.0701
 6126SOL    HW324277   3.425   3.842   2.496  0.1166  4.2162 -0.5995
 6126SOL    MW424278   3.505   3.823   2.526 -0.6180  0.6969 -0.4489
 6127SOL     OW24279   2.290   1.844   1.137  0.3248 -0.0003  0.3830
 6127SOL    HW224280   2.291   1.938   1.119  1.1076 -0.3400 -1.6345
 6127SOL    HW324281   2.358   1.831   1.203  0.9778  0.7154 -0.1368
 6127SOL    MW424282   2.299   1.855   1.143  0.5142  0.0493  0.0482
 6128SOL     OW24283   2.460   5.275   2.032 -0.1171  0.2261 -0.0112
 6128SOL    HW224284   2.514   5.203   2.000 -2.5074 -1.0577 -1.4345
 6128SOL    HW324285   2.454   5.260   2.127  2.5595  0.8979  0.3544
 6128SOL    MW424286   2.466   5.263   2.040 -0.0793  0.1454 -0.1507
 6129SOL     OW24287   4.283   1.883   5.431  0.1915  0.7738 -0.2151
 6129SOL    HW224288   4.304   1.910   5.520 -1.6892 -0.8115  0.8030
 6129SOL    HW324289   4.188   1.893   5.424  0.1248 -0.3984 -1.5617
 6129SOL    MW424290   4.273   1.888   5.442 -0.0654  0.4100 -0.2584
 6130SOL     OW24291   4.997   0.811   4.217  0.8852  0.5023 -0.3406
 6130SOL    HW224292   4.955   0.778   4.138  1.4484  1.1644 -0.9334
 6130SOL    HW324293   5.052   0.739   4.247  0.3954  0.1228 -0.3487
 6130SOL    MW424294   4.999   0.797   4.210  0.8949  0.5396 -0.4199
 6131SOL     OW24295   1.609   5.856   2.319  0.2163  0.1484 -0.7663
 6131SOL    HW224296   1.564   5.916   2.378  0.8169  0.4927 -0.6506
 6131SOL    HW324297   1.648   5.791   2.377 -1.9536 -1.4700 -0.9708
 6131SOL    MW424298   1.608   5.855   2.334  0.0093 -0.0197 -0.7780
 6132SOL     OW24299   0.427   0.465   1.609 -0.1736 -0.4082  0.4810
 6132SOL    HW224300   0.336   0.465   1.639 -0.4023 -0.4398 -0.2056
 6132SOL    HW324301   0.437   0.383   1.561  0.0995 -0.2201  0.2073
 6132SOL    MW424302   0.416   0.454   1.607 -0.1677 -0.3876  0.3543
 6133SOL     OW24303   2.618   5.814   4.657  0.7991  0.3998  0.2607
 6133SOL    HW224304   2.696   5.801   4.603  0.8110 -0.1020  0.3922
 6133SOL    HW324305   2.642   5.776   4.742  1.0234  1.7749  0.8400
 6133SOL    MW424306   2.632   5.807   4.661  0.8303  0.5151  0.3545
 6134SOL     OW24307   5.520   1.028   6.332 -0.5398  0.0932  0.3747
 6134SOL    HW224308   5.507   0.950   6.386  0.5205 -0.3798 -0.0171
 6134SOL    HW324309   5.498   1.101   6.390 -0.1575 -0.4367  1.2123
 6134SOL    MW424310   5.516   1.028   6.347 -0.3495 -0.0391  0.4335
 6135SOL     OW24311   4.888   5.929   2.874  0.1333  0.2635  0.2858
 6135SOL    HW224312   4.850   5.882   2.948  0.6258  0.6023  0.7656
 6135SOL    HW324313   4.870   5.874   2.798 -2.6211  1.1085  0.2347
 6135SOL    MW424314   4.881   5.916   2.873 -0.1651  0.4197  0.3424
 6136SOL     OW24315   3.098   4.651   3.148 -0.3372 -0.4785  0.4137
 6136SOL    HW224316   3.134   4.593   3.080 -0.8414 -2.3949  1.7116
 6136SOL    HW324317   3.136   4.736   3.128  2.0133 -1.6218 -0.4591
 6136SOL    MW424318   3.108   4.654   3.136 -0.0936 -0.8822  0.4698
 6137SOL     OW24319   2.339   4.755   2.448 -0.3955 -0.2433 -0.3666
 6137SOL    HW224320   2.266   4.790   2.499 -0.9300 -2.1914  0.2845
 6137SOL    HW324321   2.369   4.679   2.498  1.5027 -0.0360 -1.0913
 6137SOL    MW424322   2.333   4.750   2.461 -0.2156 -0.4730 -0.3763
 6138SOL     OW24323   0.832   2.746   2.145 -0.0164  0.7589  0.3209
 6138SOL    HW224324   0.908   2.689   2.157 -2.0287 -1.9208  1.3783
 6138SOL    HW324325   0.822   2.751   2.050  1.2446  0.8597  0.1751
 6138SOL    MW424326   0.841   2.739   2.134 -0.1155  0.4187  0.4411
 6139SOL     OW24327   1.580   3.069   5.270  0.1237 -0.1195 -0.4105
 6139SOL    HW224328   1.495   3.076   5.225  0.7087  2.3449 -1.3149
 6139SOL    HW324329   1.638   3.028   5.206 -0.2166 -1.3219  0.0196
 6139SOL    MW424330   1.576   3.065   5.255  0.1560  0.0470 -0.4731
 6140SOL     OW24331   3.673   3.938   4.296  0.3747 -0.1910  0.1174
 6140SOL    HW224332   3.755   3.899   4.325  0.1999 -0.0757  0.7738
 6140SOL    HW324333   3.689   3.962   4.205  0.7442 -1.0560 -0.0495
 6140SOL    MW424334   3.686   3.936   4.288  0.4004 -0.2900  0.1820
 6141SOL     OW24335   4.297   3.336   2.374 -0.1033  0.3356  0.2116
 6141SOL    HW224336   4.364   3.290   2.324 -0.5502  0.1140 -0.1963
 6141SOL    HW324337   4.272   3.410   2.319 -0.3061  0.3236  0.2850
 6141SOL    MW424338   4.302   3.340   2.360 -0.1890  0.3048  0.1675
 6142SOL     OW24339   4.897   1.757   0.270  0.6843  0.2634  0.8014
 6142SOL    HW224340   4.865   1.807   0.196  0.0559  1.8497  2.0898
 6142SOL    HW324341   4.930   1.823   0.331 -1.2047 -0.7391  3.0655
 6142SOL    MW424342   4.897   1.772   0.268  0.3522  0.3404  1.2701
 6143SOL     OW24343   5.991   5.858   4.700  0.7555 -0.0242  0.2025
 6143SOL    HW224344   5.977   5.941   4.654  2.9313  0.6465  0.6550
 6143SOL    HW324345   5.967   5.876   4.791  2.3772  0.5266  0.5578
 6143SOL    MW424346   5.986   5.871   4.706  1.2565  0.1370  0.3091
 6144SOL     OW24347   5.202   3.945   3.624 -0.0149  0.5173  0.3642
 6144SOL    HW224348   5.214   3.980   3.535 -1.5852  0.3993  0.0741
 6144SOL    HW324349   5.281   3.894   3.640 -0.2452 -0.5377 -1.5044
 6144SOL    MW424350   5.214   3.943   3.614 -0.2524  0.3625  0.0794
 6145SOL     OW24351   1.299   4.828   0.011  0.1124 -0.0410  0.3663
 6145SOL    HW224352   1.336   4.794   0.093  1.3876 -0.3278 -0.3084
 6145SOL    HW324353   1.336   4.772  -0.057 -2.9131 -1.4782 -0.2665
 6145SOL    MW424354   1.309   4.816   0.013 -0.1185 -0.2684  0.1938
 6146SOL     OW24355   0.144   1.654   4.635  0.1936 -0.2820  0.0846
 6146SOL    HW224356   0.218   1.700   4.595 -0.0706  0.0560 -0.0259
 6146SOL    HW324357   0.142   1.685   4.725  0.0271 -0.0867  0.0152
 6146SOL    MW424358   0.154   1.664   4.641  0.1368 -0.2117  0.0609
 6147SOL     OW24359   1.568   0.866   3.553  0.1684 -0.2845 -0.4394
 6147SOL    HW224360   1.661   0.889   3.549  0.7558 -2.4334 -0.3986
 6147SOL    HW324361   1.532   0.897   3.470  1.2701 -0.8135 -1.1396
 6147SOL    MW424362   1.576   0.873   3.542  0.3913 -0.6378 -0.5264
 6148SOL     OW24363   4.709   2.195   4.448 -0.1060  0.4794  0.0630
 6148SOL    HW224364   4.777   2.132   4.470 -1.6997 -1.1543  0.5702
 6148SOL    HW324365   4.645   2.188   4.520 -0.6656  2.1914 -0.2162
 6148SOL    MW424366   4.709   2.186   4.461 -0.3901  0.4897  0.0931
 6149SOL     OW24367   3.273   2.886   1.870  0.5404 -0.1236 -0.2781
 6149SOL    HW224368   3.243   2.881   1.779 -0.0059 -0.7613 -0.0667
 6149SOL    HW324369   3.341   2.820   1.876  1.6782  0.9738 -0.6204
 6149SOL    MW424370   3.278   2.877   1.859  0.6185 -0.0629 -0.2954
 6150SOL     OW24371   2.655   0.722   4.968 -0.1524 -0.3194 -0.1603
 6150SOL    HW224372   2.708   0.756   5.040  0.8816 -1.2665 -0.4424
 6150SOL    HW324373   2.573   0.695   5.010 -0.1865  0.5737  0.3886
 6150SOL    MW424374   2.651   0.723   4.983 -0.0205 -0.3265 -0.1251
 6151SOL     OW24375   1.685   4.702   4.688  0.2237  0.0259  0.5833
 6151SOL    HW224376   1.697   4.764   4.616 -1.9741  0.1507  0.2531
 6151SOL    HW324377   1.714   4.618   4.652  0.1794  0.2863 -0.0684
 6151SOL    MW424378   1.690   4.699   4.674 -0.0721  0.0767  0.4537
 6152SOL     OW24379   2.167   4.601   0.846  0.2828  0.9725  0.0751
 6152SOL    HW224380   2.091   4.645   0.808  0.3374  2.3715  1.4791
 6152SOL    HW324381   2.202   4.547   0.775 -3.9540 -2.5197  0.1910
 6152SOL    MW424382   2.161   4.599   0.832 -0.2690  0.6963  0.2757
 6153SOL     OW24383   4.435   5.937   6.403 -0.2056  0.7299 -0.3229
 6153SOL    HW224384   4.468   5.887   6.476  0.5332 -0.2780 -1.3169
 6153SOL    HW324385   4.350   5.971   6.433 -0.2245 -0.2249  0.7377
 6153SOL    MW424386   4.428   5.935   6.416 -0.1106  0.4709 -0.3141
 6154SOL     OW24387   0.068   2.281   4.390 -0.4293 -0.7420 -0.2269
 6154SOL    HW224388   0.036   2.356   4.340 -0.2193 -0.5133 -0.0225
 6154SOL    HW324389   0.026   2.290   4.476  1.2053  0.3414  0.5227
 6154SOL    MW424390   0.058   2.292   4.395 -0.1859 -0.5689 -0.1010
 6155SOL     OW24391   3.500   2.435   5.376 -0.1669 -0.1429 -0.6765
 6155SOL    HW224392   3.418   2.395   5.404 -1.2120  1.8246 -0.8238
 6155SOL    HW324393   3.560   2.421   5.450 -0.1526 -2.7349 -1.0764
 6155SOL    MW424394   3.497   2.428   5.389 -0.3029 -0.2253 -0.7487
 6156SOL     OW24395   1.211   0.559   4.738 -0.5756 -0.1949  0.1340
 6156SOL    HW224396   1.127   0.593   4.710 -1.2273 -1.9369 -0.1408
 6156SOL    HW324397   1.198   0.533   4.829 -0.6838 -1.4886 -0.2341
 6156SOL    MW424398   1.198   0.560   4.747 -0.6758 -0.5954  0.0492
 6157SOL     OW24399   2.052   1.769   2.383  0.3022  0.1862 -0.3823
 6157SOL    HW224400   2.014   1.841   2.432 -1.2684 -1.1094  0.4003
 6157SOL    HW324401   2.042   1.794   2.291 -0.6711  0.7497 -0.1304
 6157SOL    MW424402   2.046   1.782   2.377 -0.0334  0.0896 -0.2458
 6158SOL     OW24403   3.189   3.806   4.654 -0.8203  0.3056  0.1628
 6158SOL    HW224404   3.230   3.766   4.731 -0.3980  1.3997  0.5256
 6158SOL    HW324405   3.222   3.755   4.580 -0.6875 -0.3249  0.6467
 6158SOL    MW424406   3.199   3.794   4.655 -0.7470  0.3668  0.2745
 6159SOL     OW24407   4.356   2.465   4.360  0.1725  0.0703  0.2462
 6159SOL    HW224408   4.282   2.443   4.417  0.7337 -0.3497  0.8235
 6159SOL    HW324409   4.329   2.546   4.316 -1.0304 -0.5868 -0.2859
 6159SOL    MW424410   4.343   2.473   4.361  0.0878 -0.0718  0.2522
 6160SOL     OW24411   0.237   0.254   2.100  0.1862  0.1758 -0.3947
 6160SOL    HW224412   0.282   0.316   2.043 -0.9737  1.6671  0.2286
 6160SOL    HW324413   0.263   0.278   2.188 -1.7202  1.0747 -0.0138
 6160SOL    MW424414   0.246   0.265   2.104 -0.2183  0.4912 -0.2622
 6161SOL     OW24415   5.132   1.510   1.357 -0.0229  0.4239 -0.0938
 6161SOL    HW224416   5.188   1.568   1.305  0.5797  1.4791  1.6647
 6161SOL    HW324417   5.045   1.551   1.353 -0.5393 -0.7097 -2.0407
 6161SOL    MW424418   5.128   1.523   1.349 -0.0115  0.4135 -0.1187
 6162SOL     OW24419   0.815   0.857   5.542 -0.0100  0.6034  0.5650
 6162SOL    HW224420   0.738   0.901   5.577  0.4227  0.8916  1.1794
 6162SOL    HW324421   0.804   0.862   5.447 -1.0753  0.0333  0.6419
 6162SOL    MW424422   0.803   0.864   5.534 -0.0935  0.5662  0.6562
 6163SOL     OW24423   0.927   4.938   4.210 -0.0609  0.0192  0.2946
 6163SOL    HW224424   0.832   4.937   4.218 -0.0859 -0.2302 -0.0032
 6163SOL    HW324425   0.952   4.845   4.208  0.1254  0.0756 -0.2848
 6163SOL    MW424426   0.918   4.925   4.211 -0.0396 -0.0062  0.1789
 6164SOL     OW24427   3.959   3.655   0.903  0.4851  0.3687  0.4285
 6164SOL    HW224428   4.005   3.638   0.986  1.5447  1.4377  0.0842
 6164SOL    HW324429   3.925   3.743   0.913 -0.7153 -0.0684  0.3008
 6164SOL    MW424430   3.961   3.664   0.915  0.4665  0.4521  0.3662
 6165SOL     OW24431   1.148   4.130   3.354  0.0326 -0.4450  0.0571
 6165SOL    HW224432   1.212   4.147   3.285 -0.3717 -2.5167 -0.9029
 6165SOL    HW324433   1.147   4.211   3.406  3.3916 -0.3217  0.1386
 6165SOL    MW424434   1.156   4.143   3.352  0.4225 -0.7021 -0.0588
 6166SOL     OW24435   1.319   1.150   5.068 -0.0098 -0.1994  0.5890
 6166SOL    HW224436   1.331   1.181   5.158  1.2471  0.3325  0.2557
 6166SOL    HW324437   1.288   1.227   5.020  0.4604 -0.1733  0.3253
 6166SOL    MW424438   1.317   1.165   5.074  0.2181 -0.1258  0.5102
 6167SOL     OW24439   1.843   3.158   4.372  0.7216 -0.0805 -0.5299
 6167SOL    HW224440   1.789   3.214   4.427  0.0762  1.7856 -2.8778
 6167SOL    HW324441   1.810   3.070   4.387  0.3932  0.3901  1.7746
 6167SOL    MW424442   1.832   3.154   4.381  0.5931  0.2278 -0.5356
 6168SOL     OW24443   4.871   0.970   3.102 -0.0023 -0.0818  0.0217
 6168SOL    HW224444   4.894   1.004   3.015  1.8772  2.3745  1.3394
 6168SOL    HW324445   4.921   0.889   3.110  1.3334  0.6620 -0.4910
 6168SOL    MW424446   4.880   0.964   3.091  0.4219  0.3404  0.1279
 6169SOL     OW24447   5.694   0.135   1.136  0.2531 -0.2876 -0.7984
 6169SOL    HW224448   5.727   0.104   1.052 -1.3936  0.2522 -1.7008
 6169SOL    HW324449   5.712   0.229   1.136  0.9260 -0.4098 -0.2012
 6169SOL    MW424450   5.701   0.143   1.125  0.1246 -0.2325 -0.8387
 6170SOL     OW24451   0.286   1.119   4.216 -0.3546  0.6180  0.4214
 6170SOL    HW224452   0.344   1.066   4.161 -1.6658  1.1744 -1.6107
 6170SOL    HW324453   0.266   1.062   4.291  1.4988 -0.1701  0.3877
 6170SOL    MW424454   0.291   1.104   4.219 -0.2831  0.5874  0.1488
 6171SOL     OW24455   4.961   6.196   2.932 -0.0021  0.7440  0.1333
 6171SOL    HW224456   4.928   6.112   2.901 -0.5708  1.1520 -0.3734
 6171SOL    HW324457   4.932   6.260   2.867 -1.3665  1.6389  1.5515
 6171SOL    MW424458   4.953   6.193   2.920 -0.2572  0.9159  0.2535
 6172SOL     OW24459   1.796   1.694   0.912 -0.0971  0.0945  0.0800
 6172SOL    HW224460   1.752   1.620   0.953  0.9722 -1.6181 -1.6686
 6172SOL    HW324461   1.878   1.703   0.961  0.3517 -0.7584 -0.4792
 6172SOL    MW424462   1.801   1.685   0.924  0.1032 -0.2440 -0.2245
 6173SOL     OW24463   3.925   6.179   1.350 -0.4609  0.0457 -0.1665
 6173SOL    HW224464   4.017   6.166   1.327 -0.9509 -2.1365 -1.1811
 6173SOL    HW324465   3.878   6.153   1.271 -1.9938  0.0093  0.7350
 6173SOL    MW424466   3.931   6.174   1.336 -0.7278 -0.2470 -0.1814
 6174SOL     OW24467   4.129   3.294   6.392  0.4945  0.1991  0.3008
 6174SOL    HW224468   4.130   3.344   6.474  1.3777 -0.3284  0.6281
 6174SOL    HW324469   4.056   3.233   6.402 -0.4177  1.2191  0.0107
 6174SOL    MW424470   4.120   3.292   6.405  0.4907  0.2641  0.3057
 6175SOL     OW24471   4.164   6.274   2.704 -0.1115 -0.3871 -0.5554
 6175SOL    HW224472   4.242   6.277   2.759  0.0877  1.1766 -0.8794
 6175SOL    HW324473   4.098   6.322   2.753 -0.0082  0.7943 -1.5097
 6175SOL    MW424474   4.166   6.280   2.717 -0.0716 -0.0249 -0.7240
 6176SOL     OW24475   3.463   0.095   5.482  0.2517  0.3733  0.1709
 6176SOL    HW224476   3.424   0.059   5.402  0.2510  0.6291  0.0556
 6176SOL    HW324477   3.548   0.128   5.455  1.2322 -1.5161  0.7038
 6176SOL    MW424478   3.469   0.094   5.468  0.3810  0.1577  0.2260
 6177SOL     OW24479   5.071   1.313   3.056 -0.0830 -0.9838 -0.0572
 6177SOL    HW224480   5.077   1.377   3.127  1.2241 -1.1958  0.0530
 6177SOL    HW324481   5.010   1.246   3.089 -1.9221  0.4496 -0.4088
 6177SOL    MW424482   5.064   1.312   3.070 -0.1532 -0.8227 -0.0891
 6178SOL     OW24483   3.451   1.713   3.550  0.4552 -0.0018 -0.4290
 6178SOL    HW224484   3.523   1.777   3.559 -0.3117  0.8432 -0.1298
 6178SOL    HW324485   3.428   1.716   3.458 -0.6651  1.4067 -0.1426
 6178SOL    MW424486   3.458   1.722   3.539  0.2062  0.2955 -0.3518
 6179SOL     OW24487   2.234   3.126   6.320  0.4895  0.0251  0.3867
 6179SOL    HW224488   2.246   3.167   6.234  2.8289  0.2507  0.7507
 6179SOL    HW324489   2.260   3.194   6.382  2.1963 -1.2068  1.0979
 6179SOL    MW424490   2.239   3.141   6.316  1.0234 -0.1077  0.5286
 6180SOL     OW24491   6.132   2.583   6.183  0.1770 -0.2403  0.2767
 6180SOL    HW224492   6.138   2.614   6.273 -1.4184 -2.0677  1.0747
 6180SOL    HW324493   6.046   2.611   6.153 -0.0742 -1.2657 -0.0026
 6180SOL    MW424494   6.122   2.591   6.191 -0.0666 -0.6167  0.3451
 6181SOL     OW24495   0.183   5.790   5.289  0.0134  0.1283  0.3619
 6181SOL    HW224496   0.212   5.843   5.216  1.3296 -0.5732  0.3503
 6181SOL    HW324497   0.176   5.851   5.363 -0.8303  0.7372 -0.1998
 6181SOL    MW424498   0.186   5.805   5.289  0.0758  0.1161  0.2863
 6182SOL     OW24499   3.028   6.014   3.911 -0.3594  0.6877  1.1515
 6182SOL    HW224500   3.019   6.097   3.863 -3.4801  0.5008  1.1843
 6182SOL    HW324501   3.008   6.037   4.002 -2.0287 -0.1396  1.0398
 6182SOL    MW424502   3.024   6.028   3.917 -0.9914  0.5539  1.1411
 6183SOL     OW24503   3.486   5.516   0.387 -0.6891 -0.2404 -0.1514
 6183SOL    HW224504   3.451   5.456   0.452 -1.8736  2.0769  1.4823
 6183SOL    HW324505   3.574   5.538   0.419 -0.5984 -0.4285 -0.2712
 6183SOL    MW424506   3.493   5.511   0.400 -0.8334  0.0405  0.0483
 6184SOL     OW24507   6.371   4.739   5.526 -0.8382  0.1077 -0.2170
 6184SOL    HW224508   6.421   4.819   5.512 -0.3391  0.2721  2.0224
 6184SOL    HW324509   6.433   4.668   5.508 -0.7754  0.2615 -0.6012
 6184SOL    MW424510   6.386   4.740   5.522 -0.7641  0.1497  0.0278
 6185SOL     OW24511   3.517   4.433   2.809  0.2936  0.2614 -0.1647
 6185SOL    HW224512   3.470   4.505   2.766 -0.0485  0.2032  0.1121
 6185SOL    HW324513   3.519   4.363   2.743  0.7403  0.5644 -0.4824
 6185SOL    MW424514   3.511   4.433   2.794  0.3074  0.2937 -0.1701
 6186SOL     OW24515   1.088   0.210   0.416 -0.0801  0.0454  0.1366
 6186SOL    HW224516   1.166   0.265   0.412 -0.1932  0.1484 -1.0796
 6186SOL    HW324517   1.071   0.199   0.510  0.9967  0.5730  0.4091
 6186SOL    MW424518   1.096   0.216   0.428  0.0470  0.1286  0.0121
 6187SOL     OW24519   5.395   2.618   2.107 -0.2152 -0.6407  0.1767
 6187SOL    HW224520   5.361   2.546   2.160 -0.2300  0.3362  1.5353
 6187SOL    HW324521   5.382   2.696   2.161 -0.9013  0.5050 -1.5658
 6187SOL    MW424522   5.388   2.619   2.121 -0.3077 -0.3607  0.1261
 6188SOL     OW24523   1.538   4.729   3.602  0.1231 -0.3571 -0.3080
 6188SOL    HW224524   1.574   4.644   3.575  1.3305 -0.5729  1.7385
 6188SOL    HW324525   1.565   4.789   3.533 -1.0392 -1.6507 -1.9634
 6188SOL    MW424526   1.547   4.726   3.589  0.1290 -0.5562 -0.2564
 6189SOL     OW24527   4.351   5.638   3.233 -0.1011 -0.3195 -0.1661
 6189SOL    HW224528   4.380   5.547   3.234 -0.8157 -0.5800 -1.3617
 6189SOL    HW324529   4.273   5.639   3.288 -0.1335 -0.4475 -0.2085
 6189SOL    MW424530   4.345   5.626   3.240 -0.1997 -0.3707 -0.3294
 6190SOL     OW24531   1.279   1.116   6.199  0.3874  0.1163 -0.5847
 6190SOL    HW224532   1.276   1.190   6.138 -1.5720 -0.3903 -1.1884
 6190SOL    HW324533   1.200   1.066   6.180 -0.0159 -0.3918  1.9818
 6190SOL    MW424534   1.268   1.119   6.189  0.0757 -0.0176 -0.3258
 6191SOL     OW24535   3.469   5.899   3.576 -0.7836 -0.1201 -0.2855
 6191SOL    HW224536   3.382   5.861   3.589  0.1270 -1.4976  2.3655
 6191SOL    HW324537   3.521   5.827   3.539 -0.1030 -0.1853  0.7726
 6191SOL    MW424538   3.464   5.884   3.573 -0.5736 -0.3104  0.2039
 6192SOL     OW24539   0.116   1.799   4.864  0.1644  0.2507  0.2894
 6192SOL    HW224540   0.030   1.842   4.861 -0.0825 -0.2512  0.1752
 6192SOL    HW324541   0.178   1.869   4.840 -0.4428  0.0013 -2.2604
 6192SOL    MW424542   0.113   1.814   4.860  0.0517  0.1516 -0.0621
 6193SOL     OW24543   2.664   3.030   0.700  0.3197 -0.3888 -0.0895
 6193SOL    HW224544   2.704   3.016   0.614 -0.0551  1.2175 -0.5560
 6193SOL    HW324545   2.586   3.083   0.682  0.2900  0.0683  1.2505
 6193SOL    MW424546   2.659   3.035   0.686  0.2664 -0.1166  0.0258
 6194SOL     OW24547   0.327   3.970   3.275  0.0115  0.2522  0.4213
 6194SOL    HW224548   0.258   3.905   3.265  0.9480 -0.9081  1.1683
 6194SOL    HW324549   0.364   3.952   3.361  0.7735  1.3025  0.3222
 6194SOL    MW424550   0.323   3.959   3.285  0.2356  0.2377  0.5068
 6195SOL     OW24551   3.431   6.184   1.603 -0.6373 -0.7628  0.4135
 6195SOL    HW224552   3.344   6.204   1.567 -0.8284 -0.9609  0.7592
 6195SOL    HW324553   3.414   6.161   1.694  0.0536  1.6217  1.2073
 6195SOL    MW424554   3.417   6.184   1.610 -0.5714 -0.4743  0.5639
 6196SOL     OW24555   0.294   3.215   6.315  0.1746 -0.7373  0.4259
 6196SOL    HW224556   0.216   3.242   6.267  1.0795 -0.7173 -1.1099
 6196SOL    HW324557   0.355   3.288   6.303  1.3310 -1.8366 -0.6344
 6196SOL    MW424558   0.292   3.228   6.307  0.4465 -0.8797  0.0834
 6197SOL     OW24559   2.012   4.347   0.309 -0.1280  0.2411 -0.2151
 6197SOL    HW224560   1.918   4.355   0.295 -0.6214  0.8565  2.7475
 6197SOL    HW324561   2.049   4.422   0.263 -1.2191  0.6383 -0.4792
 6197SOL    MW424562   2.004   4.358   0.301 -0.3370  0.3747  0.1409
 6198SOL     OW24563   5.555   2.226   5.498 -0.1067 -0.4481 -0.3604
 6198SOL    HW224564   5.500   2.305   5.496 -0.6830 -0.8275  0.1622
 6198SOL    HW324565   5.581   2.213   5.407 -0.8651 -0.2443 -0.6142
 6198SOL    MW424566   5.551   2.235   5.486 -0.2828 -0.4713 -0.3249
 6199SOL     OW24567   3.955   2.842   2.736 -0.5009  0.3450  0.0031
 6199SOL    HW224568   4.049   2.838   2.720 -0.3142 -1.0109  1.2577
 6199SOL    HW324569   3.945   2.900   2.811 -0.3782 -1.5744  1.5729
 6199SOL    MW424570   3.966   2.849   2.743 -0.4601 -0.0871  0.3758
 6200SOL     OW24571   0.800   2.332   0.258 -0.3364  0.0497  0.0133
 6200SOL    HW224572   0.785   2.351   0.166 -1.6678  0.9649  0.3809
 6200SOL    HW324573   0.754   2.402   0.305  1.3728  0.3376  1.3693
 6200SOL    MW424574   0.792   2.343   0.252 -0.2866  0.2084  0.2407
 6201SOL     OW24575   2.469   5.605   1.174  0.0058 -0.2931 -0.1797
 6201SOL    HW224576   2.559   5.608   1.208 -0.5243  0.6295  1.2856
 6201SOL    HW324577   2.416   5.581   1.250 -1.0473 -0.2883 -0.8940
 6201SOL    MW424578   2.474   5.603   1.189 -0.2030 -0.1708 -0.0806
 6202SOL     OW24579   5.469   2.677   6.090 -0.3070 -0.0154  0.0185
 6202SOL    HW224580   5.534   2.742   6.116 -0.9930  1.1286 -1.0116
 6202SOL    HW324581   5.385   2.714   6.119 -0.7231 -0.3395 -0.7388
 6202SOL    MW424582   5.466   2.691   6.097 -0.4524  0.0928 -0.2174
 6203SOL     OW24583   0.103   4.309   3.401  0.3727 -0.1023  0.1186
 6203SOL    HW224584   0.010   4.302   3.376 -0.1267  0.9471  1.5904
 6203SOL    HW324585   0.125   4.221   3.431 -1.2300  0.4103  3.1616
 6203SOL    MW424586   0.094   4.296   3.401  0.0954  0.1038  0.7143
 6204SOL     OW24587   4.823   4.709   2.255 -0.4019  0.0115  0.6896
 6204SOL    HW224588   4.800   4.625   2.295  0.1448 -0.0854  0.7990
 6204SOL    HW324589   4.791   4.775   2.317 -0.1971 -0.1256  0.9396
 6204SOL    MW424590   4.816   4.707   2.269 -0.3028 -0.0194  0.7370
 6205SOL     OW24591   3.107   3.372   0.678  0.0874  0.7982 -0.3964
 6205SOL    HW224592   3.034   3.432   0.663 -1.0553 -0.2042  0.9279
 6205SOL    HW324593   3.105   3.355   0.772  2.0302  0.7224 -0.3401
 6205SOL    MW424594   3.097   3.378   0.689  0.1930  0.6559 -0.2142
 6206SOL     OW24595   5.974   1.598   5.487 -0.0529 -0.6392  0.8131
 6206SOL    HW224596   5.985   1.690   5.464  0.1644 -0.4789  1.5331
 6206SOL    HW324597   6.052   1.577   5.539 -0.0871 -1.2382  0.6303
 6206SOL    MW424598   5.986   1.607   5.491 -0.0288 -0.6971  0.8840
 6207SOL     OW24599   2.998   1.069   2.447 -0.5501  0.0958  0.4077
 6207SOL    HW224600   2.951   0.997   2.405  0.7401 -1.0101  0.7964
 6207SOL    HW324601   2.994   1.050   2.541  1.8255 -0.8455  0.4056
 6207SOL    MW424602   2.992   1.057   2.454 -0.0664 -0.1743  0.4587
 6208SOL     OW24603   4.224   3.519   6.201  0.1293  0.2605 -0.2474
 6208SOL    HW224604   4.219   3.436   6.248 -0.7243  0.4949  0.0922
 6208SOL    HW324605   4.137   3.532   6.164  0.8979 -0.1531 -2.3345
 6208SOL    MW424606   4.212   3.510   6.202  0.1181  0.2368 -0.4780
 6209SOL     OW24607   0.572   0.796   3.037  0.2339  0.1888  0.1527
 6209SOL    HW224608   0.599   0.815   2.947  0.5719  0.1152  0.2380
 6209SOL    HW324609   0.488   0.842   3.046  0.3989  0.5394 -0.0684
 6209SOL    MW424610   0.564   0.805   3.026  0.3003  0.2253  0.1348
 6210SOL     OW24611   5.297   5.117   6.277  0.0276 -0.2024 -0.3376
 6210SOL    HW224612   5.308   5.067   6.196 -0.3753 -0.5570 -0.1782
 6210SOL    HW324613   5.324   5.057   6.346  0.2029  0.0400 -0.1934
 6210SOL    MW424614   5.302   5.103   6.275 -0.0024 -0.2172 -0.2975
 6211SOL     OW24615   4.029   2.743   5.628  0.5767 -0.1384  0.0575
 6211SOL    HW224616   3.990   2.762   5.713 -0.6810  0.1553 -0.5628
 6211SOL    HW324617   3.959   2.702   5.577  1.5177 -0.9774 -0.6105
 6211SOL    MW424618   4.015   2.740   5.632  0.5349 -0.2103 -0.1125
 6212SOL     OW24619   1.749   4.479   2.084 -0.1292  0.4100 -0.3814
 6212SOL    HW224620   1.780   4.511   2.169  0.1772 -0.9353  0.0330
 6212SOL    HW324621   1.728   4.387   2.099  1.4602 -0.3104 -2.1341
 6212SOL    MW424622   1.750   4.472   2.098  0.1209  0.1375 -0.5580
 6213SOL     OW24623   2.436   2.163   5.097 -0.1734  0.0216  0.0286
 6213SOL    HW224624   2.418   2.110   5.174  0.2096 -1.3435 -0.7879
 6213SOL    HW324625   2.353   2.165   5.049  0.2049 -1.1828 -0.7152
 6213SOL    MW424626   2.423   2.157   5.101 -0.0730 -0.3174 -0.1773
 6214SOL     OW24627   4.587   1.988   2.542 -0.6296 -0.0903  0.0525
 6214SOL    HW224628   4.571   2.023   2.630 -1.0877 -2.1545  0.8504
 6214SOL    HW324629   4.568   2.061   2.483  0.6924  1.6762  1.6810
 6214SOL    MW424630   4.583   2.002   2.546 -0.5156 -0.1296  0.3726
 6215SOL     OW24631   4.265   3.552   3.085 -0.3613 -0.1140 -0.3231
 6215SOL    HW224632   4.316   3.488   3.036  0.0790  0.2270 -0.3162
 6215SOL    HW324633   4.179   3.511   3.096  0.4687 -1.5581  1.3929
 6215SOL    MW424634   4.261   3.538   3.080 -0.1937 -0.2595 -0.0958
 6216SOL     OW24635   2.719   3.206   6.334  0.0346  0.3702 -0.4873
 6216SOL    HW224636   2.690   3.193   6.244 -0.6908  0.1279 -0.2237
 6216SOL    HW324637   2.695   3.125   6.379  0.5685  0.4126 -0.1206
 6216SOL    MW424638   2.712   3.194   6.328  0.0094  0.3438 -0.4041
 6217SOL     OW24639   1.694   6.135   3.611 -0.0251  0.3945 -0.1707
 6217SOL    HW224640   1.642   6.114   3.689 -1.7293  1.5691 -0.9128
 6217SOL    HW324641   1.735   6.052   3.586 -0.0870 -0.1726  1.4951
 6217SOL    MW424642   1.692   6.122   3.618 -0.2581  0.4747 -0.0488
 6218SOL     OW24643   5.933   1.448   0.854  0.6618  0.2888  0.0943
 6218SOL    HW224644   5.985   1.491   0.787  0.6609  0.2148  0.0459
 6218SOL    HW324645   5.859   1.410   0.807  0.3862  0.6837  0.2115
 6218SOL    MW424646   5.930   1.448   0.839  0.6253  0.3311  0.1034
 6219SOL     OW24647   4.131   3.716   5.851  0.0856 -0.7802 -0.9544
 6219SOL    HW224648   4.143   3.651   5.783 -0.4392 -0.1910 -1.6227
 6219SOL    HW324649   4.178   3.794   5.819  0.7291 -0.8214 -0.1559
 6219SOL    MW424650   4.139   3.718   5.838  0.1012 -0.7079 -0.9372
 6220SOL     OW24651   5.028   1.748   2.757  0.7321 -0.0658 -0.3062
 6220SOL    HW224652   4.961   1.750   2.689 -0.0356  0.6516  0.4555
 6220SOL    HW324653   5.027   1.658   2.790 -0.1126  0.0260 -0.0621
 6220SOL    MW424654   5.019   1.736   2.753  0.5193  0.0409 -0.1735
 6221SOL     OW24655   0.949   4.923   3.615  0.6832 -0.6270  0.1499
 6221SOL    HW224656   0.990   4.978   3.682 -0.3590  3.1012 -1.9929
 6221SOL    HW324657   0.860   4.910   3.646  0.9555 -1.2493  0.7030
 6221SOL    MW424658   0.943   4.928   3.628  0.5816 -0.2172 -0.0599
 6222SOL     OW24659   1.961   0.710   0.411  0.0296  0.2492  0.1346
 6222SOL    HW224660   2.048   0.738   0.382  0.6533 -2.1645 -0.4943
 6222SOL    HW324661   1.910   0.705   0.330 -1.5981  4.0903  0.6936
 6222SOL    MW424662   1.966   0.713   0.396 -0.1028  0.4375  0.1254
 6223SOL     OW24663   1.000   0.079   4.411 -0.3974  0.4634  0.2993
 6223SOL    HW224664   1.024   0.129   4.489  0.2879 -3.0541  2.6017
 6223SOL    HW324665   0.912   0.109   4.389 -0.1746  2.3516  1.6966
 6223SOL    MW424666   0.992   0.089   4.418 -0.2776  0.2484  0.7874
 6224SOL     OW24667   2.943   1.647   5.835  0.0318  0.0421 -0.0412
 6224SOL    HW224668   2.865   1.683   5.876 -0.3147  0.0026 -0.6584
 6224SOL    HW324669   2.916   1.560   5.806 -0.1843  0.6353 -1.6926
 6224SOL    MW424670   2.929   1.640   5.837 -0.0424  0.1152 -0.3405
 6225SOL     OW24671   5.835   3.571   4.874 -0.6763 -0.3995 -0.0529
 6225SOL    HW224672   5.796   3.616   4.949 -2.3799  0.4460 -1.3780
 6225SOL    HW324673   5.848   3.481   4.904 -1.2120 -0.0427  1.3045
 6225SOL    MW424674   5.831   3.565   4.888 -0.9717 -0.2409 -0.0487
 6226SOL     OW24675   0.388   0.476   1.976 -0.2044  0.4584 -0.1924
 6226SOL    HW224676   0.471   0.429   1.967 -0.7672 -0.4951 -0.5386
 6226SOL    HW324677   0.390   0.511   2.065 -0.0654 -0.8041  0.3188
 6226SOL    MW424678   0.399   0.475   1.987 -0.2603  0.1660 -0.1706
 6227SOL     OW24679   4.382   1.535   1.533 -0.7595 -0.4192  0.5060
 6227SOL    HW224680   4.399   1.444   1.511 -3.4294 -1.2510  1.5872
 6227SOL    HW324681   4.356   1.576   1.450  0.5157 -0.5575  0.0064
 6227SOL    MW424682   4.381   1.528   1.519 -0.9436 -0.5472  0.5827
 6228SOL     OW24683   1.530   5.373   2.279 -0.2012  0.1571  0.1931
 6228SOL    HW224684   1.585   5.319   2.223  1.2228  0.4828  1.2105
 6228SOL    HW324685   1.479   5.426   2.219  2.1681  1.3917 -0.8804
 6228SOL    MW424686   1.531   5.373   2.264  0.2993  0.3630  0.1857
 6229SOL     OW24687   1.145   3.290   3.461 -0.2774  0.1343 -0.4639
 6229SOL    HW224688   1.125   3.275   3.369  0.2282  0.3193 -0.6063
 6229SOL    HW324689   1.177   3.380   3.464 -0.3006  0.1312 -0.1075
 6229SOL    MW424690   1.147   3.300   3.450 -0.2137  0.1583 -0.4357
 6230SOL     OW24691   4.462   3.524   5.557 -0.2326 -0.2972 -0.3719
 6230SOL    HW224692   4.540   3.562   5.597 -0.0437 -1.0608  0.0232
 6230SOL    HW324693   4.486   3.432   5.541 -0.9149 -0.4452 -0.5972
 6230SOL    MW424694   4.475   3.517   5.561 -0.2977 -0.4175 -0.3495
 6231SOL     OW24695   0.065   1.303   5.420 -0.1090 -0.3788 -0.2511
 6231SOL    HW224696   0.136   1.342   5.370 -0.8676 -1.5067 -2.3297
 6231SOL    HW324697   0.107   1.238   5.476  0.6359 -0.0273 -0.3927
 6231SOL    MW424698   0.080   1.300   5.421 -0.1108 -0.4812 -0.5440
 6232SOL     OW24699   1.150   4.257   1.946 -0.6423 -0.2540 -0.5104
 6232SOL    HW224700   1.239   4.249   1.979 -0.7099 -0.4868 -0.3814
 6232SOL    HW324701   1.123   4.345   1.970 -0.5255 -0.2619 -0.3510
 6232SOL    MW424702   1.158   4.267   1.953 -0.6358 -0.2858 -0.4724
 6233SOL     OW24703   2.682   2.822   3.938  0.1654 -0.3589 -0.8238
 6233SOL    HW224704   2.646   2.820   4.027  1.7959 -1.1212 -0.1434
 6233SOL    HW324705   2.674   2.732   3.906 -0.1764 -0.1435 -1.3646
 6233SOL    MW424706   2.677   2.810   3.946  0.3354 -0.4311 -0.8054
 6234SOL     OW24707   3.781   2.616   2.703  0.4130 -0.4570 -0.1300
 6234SOL    HW224708   3.820   2.701   2.722 -0.9666 -0.0470  1.0814
 6234SOL    HW324709   3.833   2.554   2.754  0.4004 -0.1180  0.2974
 6234SOL    MW424710   3.793   2.619   2.712  0.2293 -0.3582  0.0862
 6235SOL     OW24711   1.630   1.495   0.333 -0.2192  0.2381 -0.0051
 6235SOL    HW224712   1.667   1.491   0.421  1.4167  0.8263 -0.6174
 6235SOL    HW324713   1.642   1.407   0.297 -0.8516  0.0088  0.3363
 6235SOL    MW424714   1.636   1.483   0.340 -0.0868  0.2854 -0.0409
 6236SOL     OW24715   5.076   5.839   4.160 -0.0111 -0.1143  0.2268
 6236SOL    HW224716   5.163   5.865   4.190  0.0955 -0.7189  0.4573
 6236SOL    HW324717   5.070   5.873   4.070 -0.1736  1.3330  0.7676
 6236SOL    MW424718   5.087   5.847   4.152 -0.0184 -0.0031  0.3286
 6237SOL     OW24719   2.587   2.649   5.806  0.3548  0.2052  0.3153
 6237SOL    HW224720   2.556   2.571   5.760  0.1615  0.3667  0.1673
 6237SOL    HW324721   2.660   2.680   5.753 -0.1961  0.6885 -0.1805
 6237SOL    MW424722   2.592   2.643   5.793  0.2567  0.2903  0.2304
 6238SOL     OW24723   3.021   4.622   2.003  0.6919  0.8868 -0.1245
 6238SOL    HW224724   3.091   4.605   1.940  1.9299 -0.4017  1.4852
 6238SOL    HW324725   2.943   4.635   1.949  1.7884  0.4190 -1.9236
 6238SOL    MW424726   3.020   4.621   1.988  0.9999  0.6551 -0.1495
 6239SOL     OW24727   3.617   0.403   2.081 -0.0554  0.2978 -0.3493
 6239SOL    HW224728   3.697   0.372   2.038  1.8102  0.5350  2.6592
 6239SOL    HW324729   3.579   0.324   2.120 -0.6378  0.3773 -0.7480
 6239SOL    MW424730   3.623   0.388   2.080  0.1139  0.3396 -0.0050
 6240SOL     OW24731   0.517   0.012   5.929 -0.6211  0.0786 -0.1953
 6240SOL    HW224732   0.538   0.087   5.984 -1.1654  0.3966 -0.4099
 6240SOL    HW324733   0.421   0.011   5.925 -0.6876 -1.4352  0.9151
 6240SOL    MW424734   0.507   0.021   5.936 -0.7017 -0.0792 -0.0771
 6241SOL     OW24735   1.457   4.557   4.600  1.0093 -0.1583  0.1204
 6241SOL    HW224736   1.540   4.604   4.608  1.4879 -1.1435  1.2927
 6241SOL    HW324737   1.408   4.607   4.535  1.2404  2.2822  1.6833
 6241SOL    MW424738   1.462   4.570   4.592  1.1029  0.0337  0.4813
 6242SOL     OW24739   5.240   0.805   2.243  0.6481 -0.2909 -0.0876
 6242SOL    HW224740   5.253   0.897   2.266 -0.9391 -0.0344 -0.1161
 6242SOL    HW324741   5.226   0.761   2.327  2.2254 -0.6906  0.0060
 6242SOL    MW424742   5.240   0.811   2.257  0.6468 -0.3098 -0.0790
 6243SOL     OW24743   2.167   5.981   1.281  0.4330 -0.0049  0.0965
 6243SOL    HW224744   2.229   5.923   1.237 -0.5832 -0.8986 -0.1959
 6243SOL    HW324745   2.191   5.974   1.374 -0.6255 -2.1641  0.2843
 6243SOL    MW424746   2.178   5.972   1.288  0.1593 -0.4077  0.0827
 6244SOL     OW24747   0.592   1.357   5.279 -0.9048 -0.2010  0.3137
 6244SOL    HW224748   0.626   1.311   5.203  1.3023 -0.4266  1.3466
 6244SOL    HW324749   0.636   1.442   5.278  0.4876 -0.8126  2.1434
 6244SOL    MW424750   0.602   1.362   5.269 -0.4299 -0.3114  0.6914
 6245SOL     OW24751   0.058   6.035   1.532  0.5973  0.1304  0.3745
 6245SOL    HW224752   0.140   6.066   1.570 -0.5373  0.8861  2.3466
 6245SOL    HW324753   0.030   6.105   1.473  1.8924 -0.6432 -1.2632
 6245SOL    MW424754   0.065   6.048   1.529  0.6185  0.1280  0.4186
 6246SOL     OW24755   5.526   5.640   4.800 -0.2648 -0.0625 -0.3732
 6246SOL    HW224756   5.519   5.585   4.722 -1.8535  0.3381 -0.5615
 6246SOL    HW324757   5.473   5.717   4.779 -1.9090 -0.5663  1.6145
 6246SOL    MW424758   5.518   5.643   4.787 -0.6914 -0.0761 -0.1358
 6247SOL     OW24759   3.811   2.626   5.482 -0.8128 -0.6180 -0.2599
 6247SOL    HW224760   3.775   2.696   5.427 -0.1481 -1.6463 -2.0709
 6247SOL    HW324761   3.857   2.569   5.422 -0.3348 -2.0090  1.3425
 6247SOL    MW424762   3.812   2.628   5.467 -0.6620 -0.9372 -0.2874
 6248SOL     OW24763   4.311   2.387   0.098  0.3843 -0.1638 -0.1802
 6248SOL    HW224764   4.388   2.330   0.098  0.4452 -0.0815 -0.5647
 6248SOL    HW324765   4.280   2.385   0.189  0.5134 -0.6393 -0.1433
 6248SOL    MW424766   4.317   2.379   0.110  0.4094 -0.2157 -0.2261
 6249SOL     OW24767   1.549   4.283   0.701  0.0311 -0.0378 -0.6793
 6249SOL    HW224768   1.568   4.246   0.787  0.6226  1.4318 -0.1402
 6249SOL    HW324769   1.597   4.227   0.639  3.1046  1.2956  0.3216
 6249SOL    MW424770   1.558   4.271   0.704  0.5146  0.3320 -0.4761
 6250SOL     OW24771   2.571   0.783   1.827  0.0967  0.1643 -0.2119
 6250SOL    HW224772   2.645   0.837   1.801 -0.5792  0.7973 -0.8435
 6250SOL    HW324773   2.560   0.801   1.920  0.6162  0.1962 -0.1517
 6250SOL    MW424774   2.580   0.792   1.836  0.0760  0.2521 -0.2873
 6251SOL     OW24775   6.182   6.166   0.241  0.1349 -0.5092  0.4071
 6251SOL    HW224776   6.148   6.236   0.296 -2.0045 -1.0954 -0.0799
 6251SOL    HW324777   6.238   6.210   0.177 -1.9880  0.9537 -0.5529
 6251SOL    MW424778   6.185   6.181   0.240 -0.4274 -0.3935  0.2162
 6252SOL     OW24779   0.344   4.865   3.050  0.4243 -0.3907  0.7261
 6252SOL    HW224780   0.398   4.791   3.024  0.6935  0.0471  0.0190
 6252SOL    HW324781   0.266   4.860   2.994  0.7178  0.1995  0.2616
 6252SOL    MW424782   0.340   4.855   3.039  0.4985 -0.2551  0.5715
 6253SOL     OW24783   4.087   0.715   3.907  0.2088 -0.0185 -0.1071
 6253SOL    HW224784   4.037   0.786   3.947 -0.1505 -0.8191  0.8974
 6253SOL    HW324785   4.056   0.636   3.951  0.9344 -0.7533 -0.8799
 6253SOL    MW424786   4.076   0.714   3.918  0.2571 -0.2211 -0.0765
 6254SOL     OW24787   2.134   5.587   4.110  0.4211  0.0479 -0.2671
 6254SOL    HW224788   2.100   5.613   4.025 -0.5606 -1.3644 -0.3248
 6254SOL    HW324789   2.139   5.492   4.106 -0.0877 -0.0714  1.4269
 6254SOL    MW424790   2.130   5.578   4.098  0.2245 -0.1542 -0.0512
 6255SOL     OW24791   3.166   5.011   3.348  0.0902  0.5333 -0.4334
 6255SOL    HW224792   3.232   4.956   3.390 -0.0964  0.6377  0.0039
 6255SOL    HW324793   3.166   4.984   3.256 -1.6561 -1.8757  0.1776
 6255SOL    MW424794   3.174   5.000   3.342 -0.1648  0.2292 -0.2951
 6256SOL     OW24795   1.287   0.675   2.954 -0.2567  0.4170 -0.4987
 6256SOL    HW224796   1.233   0.717   2.887 -0.4709  1.7174  0.4503
 6256SOL    HW324797   1.224   0.624   3.006 -0.2039  0.0340 -0.8031
 6256SOL    MW424798   1.271   0.674   2.952 -0.2780  0.5380 -0.4137
 6257SOL     OW24799   5.018   4.811   5.935 -0.3676  0.1307 -0.1102
 6257SOL    HW224800   4.975   4.747   5.993 -0.9453 -1.5847 -2.2697
 6257SOL    HW324801   4.968   4.892   5.948 -1.7714 -0.7579  0.3281
 6257SOL    MW424802   5.005   4.813   5.945 -0.6291 -0.2128 -0.3373
 6258SOL     OW24803   2.877   2.761   0.709 -0.1780 -0.5445  0.0571
 6258SOL    HW224804   2.883   2.842   0.760  1.5376 -0.1239 -0.7162
 6258SOL    HW324805   2.919   2.695   0.764 -1.2414 -0.8365  0.5306
 6258SOL    MW424806   2.883   2.763   0.723 -0.0919 -0.5275  0.0175
 6259SOL     OW24807   2.901   3.327   1.043  0.1532  0.2979 -0.0502
 6259SOL    HW224808   2.851   3.281   1.111 -0.4547  0.9690 -0.0340
 6259SOL    HW324809   2.852   3.310   0.963  0.4241  0.1866 -0.1944
 6259SOL    MW424810   2.888   3.318   1.042  0.1087  0.3718 -0.0671
 6260SOL     OW24811   2.058   4.428   2.845  0.3208  0.2467  0.2668
 6260SOL    HW224812   2.071   4.444   2.939  0.0891 -0.8115  0.4936
 6260SOL    HW324813   2.126   4.365   2.822 -0.4532 -0.5107  0.0290
 6260SOL    MW424814   2.069   4.422   2.855  0.1881  0.0072  0.2654
 6261SOL     OW24815   1.977   5.116   0.095  0.1523 -0.1076 -0.1356
 6261SOL    HW224816   2.067   5.140   0.075 -0.0335 -0.1192 -1.0678
 6261SOL    HW324817   1.958   5.044   0.034 -0.8812  0.7321 -0.8362
 6261SOL    MW424818   1.986   5.110   0.084 -0.0086  0.0017 -0.3510
 6262SOL     OW24819   4.118   5.539   5.042  0.2607 -0.3709  0.1364
 6262SOL    HW224820   4.144   5.612   4.986 -1.5903 -1.1285 -1.8817
 6262SOL    HW324821   4.027   5.522   5.017  0.3732 -2.8181  1.1565
 6262SOL    MW424822   4.109   5.547   5.032  0.0313 -0.7937  0.0047
 6263SOL     OW24823   0.983   4.749   2.456 -0.4387  0.0193 -0.1653
 6263SOL    HW224824   0.964   4.771   2.547  0.4183  2.7208 -0.5277
 6263SOL    HW324825   0.897   4.745   2.414 -0.7759  0.2851  0.4811
 6263SOL    MW424826   0.969   4.752   2.463 -0.3701  0.4108 -0.1278
 6264SOL     OW24827   0.885   3.735   0.659  0.0391 -0.1146 -0.5660
 6264SOL    HW224828   0.945   3.765   0.728  1.6865 -1.2299 -1.4612
 6264SOL    HW324829   0.884   3.807   0.595 -0.6203  0.4467  0.0525
 6264SOL    MW424830   0.893   3.749   0.660  0.1694 -0.1877 -0.6025
 6265SOL     OW24831   1.624   2.870   2.769 -0.1250  0.5536 -0.2389
 6265SOL    HW224832   1.531   2.848   2.779 -0.2737  0.7636 -1.0804
 6265SOL    HW324833   1.661   2.795   2.724  0.1310  0.4579  0.1217
 6265SOL    MW424834   1.617   2.857   2.765 -0.1108  0.5687 -0.3023
 6266SOL     OW24835   1.990   3.923   0.998  0.1295 -0.4713 -0.2254
 6266SOL    HW224836   2.081   3.942   1.017  0.3791 -2.6906  1.1113
 6266SOL    HW324837   1.968   3.980   0.924  3.3692 -1.7679 -2.3746
 6266SOL    MW424838   1.999   3.933   0.991  0.5899 -0.9352 -0.3326
 6267SOL     OW24839   3.794   4.376   2.881 -0.2506 -0.6484 -0.7905
 6267SOL    HW224840   3.713   4.392   2.833 -1.5501 -1.8230  0.8875
 6267SOL    HW324841   3.816   4.285   2.861 -1.3529 -1.4938  1.4435
 6267SOL    MW424842   3.786   4.366   2.872 -0.5675 -0.9149 -0.2744
 6268SOL     OW24843   6.243   0.321   2.218 -0.3867 -0.6156 -0.5562
 6268SOL    HW224844   6.292   0.242   2.239 -2.1226 -1.2241  1.6230
 6268SOL    HW324845   6.212   0.307   2.129 -1.0691 -2.6841 -0.0582
 6268SOL    MW424846   6.245   0.309   2.209 -0.7058 -0.9688 -0.2030
 6269SOL     OW24847   4.657   4.443   6.173  0.9095  0.2880 -0.3631
 6269SOL    HW224848   4.588   4.413   6.113  0.7229  0.0455 -0.0346
 6269SOL    HW324849   4.693   4.520   6.131  1.1415 -0.1801 -1.0452
 6269SOL    MW424850   4.652   4.449   6.160  0.9155  0.1942 -0.4097
 6270SOL     OW24851   2.312   5.311   4.466  0.1079 -0.3710 -0.0374
 6270SOL    HW224852   2.217   5.324   4.466  0.3052  1.4524  1.3198
 6270SOL    HW324853   2.336   5.307   4.373 -1.3525 -1.5709 -0.3978
 6270SOL    MW424854   2.302   5.312   4.454 -0.0588 -0.2888  0.0941
 6271SOL     OW24855   0.509   2.750   3.019  0.2622 -0.3099  0.1242
 6271SOL    HW224856   0.495   2.658   3.043 -0.3368 -0.1260  0.5063
 6271SOL    HW324857   0.577   2.747   2.952 -0.4038 -1.1177 -0.5422
 6271SOL    MW424858   0.516   2.737   3.014  0.0953 -0.3922  0.0867
 6272SOL     OW24859   4.702   4.875   3.294  0.1047 -0.1996 -0.7035
 6272SOL    HW224860   4.706   4.930   3.372 -0.0675  0.4670 -1.1510
 6272SOL    HW324861   4.786   4.889   3.251  0.0462 -0.2499 -0.8351
 6272SOL    MW424862   4.713   4.884   3.298  0.0743 -0.1183 -0.7799
 6273SOL     OW24863   5.761   6.393   6.312 -0.3978 -0.7194  0.5468
 6273SOL    HW224864   5.789   6.463   6.252 -1.2593  0.2805  1.2888
 6273SOL    HW324865   5.841   6.368   6.358  0.2801 -1.4747 -0.9380
 6273SOL    MW424866   5.775   6.399   6.310 -0.4220 -0.6872  0.4488
 6274SOL     OW24867   5.630   5.679   5.608 -0.0158  0.5271 -0.4509
 6274SOL    HW224868   5.610   5.633   5.689 -0.5414  0.2422 -0.7337
 6274SOL    HW324869   5.723   5.702   5.615 -0.0482  0.4650  0.2055
 6274SOL    MW424870   5.640   5.676   5.620 -0.0894  0.4813 -0.4016
 6275SOL     OW24871   3.222   0.177   4.037  0.2990 -0.6673  0.2243
 6275SOL    HW224872   3.305   0.130   4.038  0.1859 -0.8790 -0.2202
 6275SOL    HW324873   3.196   0.181   4.129  0.9871 -0.2637  0.4067
 6275SOL    MW424874   3.230   0.171   4.049  0.3749 -0.6420  0.1897
 6276SOL     OW24875   3.834   5.580   1.640 -0.1917 -0.6028  0.6524
 6276SOL    HW224876   3.920   5.550   1.668  0.4713  0.2891 -0.3211
 6276SOL    HW324877   3.852   5.645   1.572 -1.6279 -0.0808  0.7244
 6276SOL    MW424878   3.848   5.585   1.634 -0.2937 -0.4162  0.5334
 6277SOL     OW24879   3.821   1.804   0.915 -0.5734  0.4761  0.2907
 6277SOL    HW224880   3.769   1.753   0.976  0.0242  0.3101  0.6751
 6277SOL    HW324881   3.825   1.892   0.953 -0.7914  0.5576  0.1269
 6277SOL    MW424882   3.815   1.809   0.928 -0.5233  0.4650  0.3198
 6278SOL     OW24883   2.409   5.569   0.455 -0.5826  0.8872 -0.1558
 6278SOL    HW224884   2.494   5.543   0.490 -0.5945 -0.6943 -1.1624
 6278SOL    HW324885   2.347   5.548   0.524 -0.5481 -1.7025 -0.7894
 6278SOL    MW424886   2.412   5.562   0.469 -0.5796  0.3368 -0.3722
 6279SOL     OW24887   5.497   2.517   5.417 -0.1377 -0.4845  0.3449
 6279SOL    HW224888   5.560   2.508   5.345 -0.4275 -1.5323  0.2053
 6279SOL    HW324889   5.445   2.594   5.394  2.3927  1.7332  1.5048
 6279SOL    MW424890   5.499   2.526   5.404  0.1579 -0.3301  0.4795
 6280SOL     OW24891   5.668   0.904   1.888 -0.5797 -0.8573 -0.6201
 6280SOL    HW224892   5.710   0.915   1.974  0.4842  2.2285 -1.4068
 6280SOL    HW324893   5.591   0.961   1.892 -0.8966 -1.2191 -1.4887
 6280SOL    MW424894   5.664   0.913   1.900 -0.4812 -0.4979 -0.8385
 6281SOL     OW24895   4.966   6.166   1.288  0.3967  0.2877  0.4225
 6281SOL    HW224896   4.940   6.243   1.339  0.7580  0.5157  0.2617
 6281SOL    HW324897   4.885   6.136   1.246 -0.0020 -0.1577  1.4641
 6281SOL    MW424898   4.952   6.172   1.289  0.3917  0.2590  0.5387
 6282SOL     OW24899   2.620   4.132   3.901 -0.7324 -0.2811  0.3197
 6282SOL    HW224900   2.677   4.104   3.829  0.5975  0.5187  1.0303
 6282SOL    HW324901   2.582   4.051   3.934 -1.8561 -0.6324 -1.6368
 6282SOL    MW424902   2.622   4.118   3.896 -0.7052 -0.2219  0.1553
 6283SOL     OW24903   5.449   0.786   5.284  0.1953  0.1125  0.2268
 6283SOL    HW224904   5.429   0.878   5.300 -0.7611 -0.4464  2.5592
 6283SOL    HW324905   5.380   0.756   5.225 -0.5428  0.4543  0.9085
 6283SOL    MW424906   5.438   0.794   5.278 -0.0283  0.0839  0.6245
 6284SOL     OW24907   5.639   2.938   0.537  0.1025  0.4005 -0.1937
 6284SOL    HW224908   5.574   3.004   0.559 -0.5893 -1.0265  2.4653
 6284SOL    HW324909   5.721   2.972   0.574 -0.1058  0.1692  0.5114
 6284SOL    MW424910   5.642   2.951   0.545 -0.0163  0.1817  0.2502
 6285SOL     OW24911   5.825   0.565   3.600 -0.3282  0.0968  0.2822
 6285SOL    HW224912   5.768   0.606   3.665 -2.2466  0.1200 -1.2907
 6285SOL    HW324913   5.858   0.486   3.642 -0.3283  0.8403  1.7515
 6285SOL    MW424914   5.822   0.560   3.614 -0.5813  0.1979  0.2686
 6286SOL     OW24915   0.889   1.629   2.919  0.5093 -0.0880  0.1323
 6286SOL    HW224916   0.890   1.536   2.937 -0.1504 -0.1813 -0.2617
 6286SOL    HW324917   0.957   1.642   2.853  1.5605 -0.0563  1.1861
 6286SOL    MW424918   0.898   1.619   2.913  0.5609 -0.0961  0.2193
 6287SOL     OW24919   5.962   5.099   2.599  0.1451 -0.2070  0.1723
 6287SOL    HW224920   6.024   5.064   2.536  1.6723  1.9220  0.3787
 6287SOL    HW324921   6.013   5.114   2.679 -0.0510  3.2060 -0.1724
 6287SOL    MW424922   5.977   5.097   2.602  0.3207  0.5242  0.1541
 6288SOL     OW24923   6.063   4.189   0.463 -0.4566 -0.5443 -0.0304
 6288SOL    HW224924   6.025   4.101   0.458  0.1137 -0.7838 -0.1829
 6288SOL    HW324925   6.156   4.177   0.445 -0.7286  0.3739 -2.4978
 6288SOL    MW424926   6.070   4.176   0.460 -0.4173 -0.4548 -0.3761
 6289SOL     OW24927   4.416   1.298   2.228  0.2693  0.6191  0.2928
 6289SOL    HW224928   4.499   1.316   2.185 -0.1634 -0.1308 -0.9200
 6289SOL    HW324929   4.359   1.371   2.201 -0.1518 -0.1167 -0.8628
 6289SOL    MW424930   4.419   1.310   2.219  0.1567  0.4231 -0.0197
 6290SOL     OW24931   5.437   5.033   1.832 -0.2775 -0.2229  0.5791
 6290SOL    HW224932   5.396   5.010   1.749 -0.1732 -0.6509  0.6441
 6290SOL    HW324933   5.528   5.005   1.823 -0.0176  0.6070  0.4852
 6290SOL    MW424934   5.444   5.026   1.820 -0.2294 -0.1699  0.5753
 6291SOL     OW24935   6.053   2.026   3.104  0.1207 -0.1125  0.8631
 6291SOL    HW224936   6.030   1.933   3.101 -0.0442 -0.0571 -2.4793
 6291SOL    HW324937   6.148   2.027   3.096  0.3234  0.0203  2.7981
 6291SOL    MW424938   6.063   2.014   3.103  0.1257 -0.0876  0.6774
 6292SOL     OW24939   0.139   3.773   2.428  0.2306 -0.3168 -0.4077
 6292SOL    HW224940   0.052   3.786   2.391 -0.0871  0.6763  0.6196
 6292SOL    HW324941   0.124   3.761   2.522  1.1407 -0.8872 -0.3250
 6292SOL    MW424942   0.126   3.773   2.436  0.3088 -0.2610 -0.2612
 6293SOL     OW24943   6.160   3.106   3.918 -0.1762 -0.5649 -0.0261
 6293SOL    HW224944   6.146   3.104   4.012  1.1886  0.5869  0.2217
 6293SOL    HW324945   6.214   3.029   3.900  1.5481  0.4670  0.5174
 6293SOL    MW424946   6.165   3.095   3.928  0.2314 -0.2768  0.0783
 6294SOL     OW24947   3.894   3.009   5.421  0.3934 -0.4823  0.0268
 6294SOL    HW224948   3.893   3.094   5.377  0.6752 -1.2408 -1.5203
 6294SOL    HW324949   3.813   2.966   5.393 -0.9459  0.1377  2.6748
 6294SOL    MW424950   3.883   3.014   5.412  0.2539 -0.5006  0.1720
 6295SOL     OW24951   5.131   1.846   1.659  0.5961  0.0572 -0.2851
 6295SOL    HW224952   5.162   1.936   1.648 -0.2104  0.3320 -0.3643
 6295SOL    HW324953   5.077   1.849   1.738  0.4329 -0.3221 -0.3829
 6295SOL    MW424954   5.128   1.858   1.668  0.4682  0.0434 -0.3085
 6296SOL     OW24955   6.412   1.198   3.787 -0.8277 -0.1125  0.2962
 6296SOL    HW224956   6.365   1.204   3.870 -1.1606 -2.4113  0.3459
 6296SOL    HW324957   6.420   1.104   3.771  0.4186  0.2637 -1.6179
 6296SOL    MW424958   6.407   1.187   3.796 -0.7072 -0.3662  0.0502
 6297SOL     OW24959   5.705   0.143   0.442  0.5776 -0.2880  0.0402
 6297SOL    HW224960   5.765   0.144   0.367 -0.3176 -0.2487 -0.6914
 6297SOL    HW324961   5.762   0.129   0.518  1.6269  0.7555 -0.5164
 6297SOL    MW424962   5.721   0.141   0.442  0.5979 -0.1451 -0.1297
 6298SOL     OW24963   1.518   5.813   5.259 -0.4417  0.8219 -0.7362
 6298SOL    HW224964   1.470   5.748   5.207  1.1005 -0.4153 -0.7039
 6298SOL    HW324965   1.466   5.823   5.339 -0.4388 -0.8622 -0.4700
 6298SOL    MW424966   1.505   5.805   5.263 -0.2378  0.4365 -0.6968
 6299SOL     OW24967   6.359   1.108   5.734  0.2770  0.0391 -0.3948
 6299SOL    HW224968   6.390   1.143   5.817 -0.3781  1.2384 -0.6308
 6299SOL    HW324969   6.421   1.140   5.669 -0.2804  0.7227 -0.6021
 6299SOL    MW424970   6.371   1.117   5.736  0.1170  0.2875 -0.4533
 6300SOL     OW24971   3.341   2.251   4.106 -0.2557  0.3318 -0.6373
 6300SOL    HW224972   3.413   2.293   4.154 -0.5748  1.2260 -0.9256
 6300SOL    HW324973   3.360   2.158   4.113  0.6553  0.5271 -0.2657
 6300SOL    MW424974   3.353   2.245   4.113 -0.1776  0.4756 -0.6263
 6301SOL     OW24975   2.608   2.417   5.371  0.0608 -0.1145 -0.6288
 6301SOL    HW224976   2.703   2.427   5.373  0.0556 -0.1773 -0.0334
 6301SOL    HW324977   2.582   2.452   5.286  0.7731 -1.3941 -1.4148
 6301SOL    MW424978   2.617   2.423   5.360  0.1541 -0.2916 -0.6539
 6302SOL     OW24979   6.223   1.676   4.911 -0.0156 -0.0162  0.3487
 6302SOL    HW224980   6.130   1.681   4.935 -0.1583  0.2809 -0.2514
 6302SOL    HW324981   6.251   1.767   4.905  0.3801 -0.1067  0.7553
 6302SOL    MW424982   6.215   1.688   4.913  0.0178  0.0111  0.3232
 6303SOL     OW24983   1.356   2.798   2.799 -0.5731 -0.1060 -0.1457
 6303SOL    HW224984   1.303   2.817   2.721  0.7740 -0.1073 -1.0937
 6303SOL    HW324985   1.358   2.703   2.804 -1.4076 -0.1085  0.4479
 6303SOL    MW424986   1.349   2.788   2.789 -0.5055 -0.1065 -0.1924
 6304SOL     OW24987   0.845   2.119   2.047  0.1406  0.3810 -0.0323
 6304SOL    HW224988   0.803   2.132   1.962 -1.3844 -0.5783  0.5150
 6304SOL    HW324989   0.870   2.027   2.048 -0.4032  0.2264  0.7584
 6304SOL    MW424990   0.843   2.108   2.036 -0.1324  0.2340  0.1442
 6305SOL     OW24991   6.272   5.728   4.151 -0.6893  0.4469 -0.1711
 6305SOL    HW224992   6.189   5.688   4.178  0.5705 -0.2341  3.1868
 6305SOL    HW324993   6.314   5.754   4.233  2.2829  1.0929 -1.7489
 6305SOL    MW424994   6.266   5.726   4.165 -0.1310  0.4423  0.0638
 6306SOL     OW24995   4.117   4.523   4.818 -0.3413 -0.4077 -0.2382
 6306SOL    HW224996   4.138   4.559   4.732  0.2214 -1.8357 -0.7181
 6306SOL    HW324997   4.040   4.469   4.804 -1.4945  0.9306  0.5839
 6306SOL    MW424998   4.110   4.521   4.805 -0.4192 -0.4196 -0.1930
 6307SOL     OW24999   4.711   3.692   2.550 -0.0017 -0.1690 -0.2803
 6307SOL    HW225000   4.745   3.696   2.460  0.4021 -0.1552 -0.1326
 6307SOL    HW325001   4.623   3.729   2.544  0.6037  1.3258 -0.4109
 6307SOL    MW425002   4.704   3.698   2.537  0.1315  0.0300 -0.2780
 6308SOL     OW25003   3.315   3.317   3.473  0.2524 -0.2416 -0.3973
 6308SOL    HW225004   3.347   3.371   3.547 -2.4358 -0.7694  1.2755
 6308SOL    HW325005   3.299   3.381   3.403  3.2792  0.2224 -0.8243
 6308SOL    MW425006   3.317   3.333   3.474  0.2971 -0.2500 -0.2330
 6309SOL     OW25007   4.204   3.713   4.557 -0.2076  0.3595  0.3637
 6309SOL    HW225008   4.132   3.774   4.577  0.2064  0.7906  0.5618
 6309SOL    HW325009   4.277   3.746   4.609 -0.6751 -1.8725  2.6421
 6309SOL    MW425010   4.204   3.725   4.567 -0.2146  0.1219  0.6905
 6310SOL     OW25011   1.496   5.906   3.856  0.0512  0.2432  0.1213
 6310SOL    HW225012   1.476   5.834   3.916  2.5223 -1.0480 -0.4785
 6310SOL    HW325013   1.545   5.865   3.785  0.6129  2.3692 -0.7917
 6310SOL    MW425014   1.500   5.891   3.855  0.4513  0.3534 -0.0783
 6311SOL     OW25015   4.577   1.667   0.287  0.2972 -0.6371  0.5021
 6311SOL    HW225016   4.593   1.592   0.230 -0.1764  0.6855 -1.4903
 6311SOL    HW325017   4.484   1.663   0.307 -0.0979  0.2617 -0.9810
 6311SOL    MW425018   4.567   1.657   0.282  0.1826 -0.3440  0.0436
 6312SOL     OW25019   6.253   1.099   2.049 -0.3278 -0.5155  0.2815
 6312SOL    HW225020   6.279   1.012   2.080  1.2138  0.5194  2.1012
 6312SOL    HW325021   6.262   1.155   2.126 -0.5360  1.4240 -1.0447
 6312SOL    MW425022   6.257   1.095   2.063 -0.1518 -0.1231  0.3466
 6313SOL     OW25023   5.148   0.804   3.343  0.0891  0.4053  0.2518
 6313SOL    HW225024   5.224   0.859   3.361 -0.0415  1.4450 -2.0036
 6313SOL    HW325025   5.073   0.861   3.359 -0.1510  0.0142  0.5372
 6313SOL    MW425026   5.148   0.819   3.348  0.0402  0.4909 -0.0081
 6314SOL     OW25027   5.194   5.516   4.051 -0.1686 -0.1396  0.6679
 6314SOL    HW225028   5.197   5.423   4.072  0.8254 -0.1765  0.4289
 6314SOL    HW325029   5.217   5.560   4.133  1.0267 -0.1822  0.3758
 6314SOL    MW425030   5.197   5.510   4.065  0.1202 -0.1501  0.5978
 6315SOL     OW25031   3.233   3.742   1.433  0.4144 -0.1204 -0.2369
 6315SOL    HW225032   3.177   3.761   1.508  0.8701  0.9505 -0.1469
 6315SOL    HW325033   3.242   3.826   1.388  0.5785 -0.6337 -1.2036
 6315SOL    MW425034   3.227   3.755   1.437  0.4962 -0.0468 -0.3525
 6316SOL     OW25035   5.597   6.232   0.545  0.5870  0.0629 -0.4655
 6316SOL    HW225036   5.542   6.307   0.518  0.9747  0.8759  0.9085
 6316SOL    HW325037   5.677   6.242   0.494  0.5474  0.4573 -0.4558
 6316SOL    MW425038   5.600   6.244   0.535  0.6329  0.2222 -0.2829
 6317SOL     OW25039   2.425   5.816   5.989 -0.3267 -0.2607 -0.5729
 6317SOL    HW225040   2.398   5.736   5.943 -1.6848 -0.4771  0.5382
 6317SOL    HW325041   2.391   5.887   5.936  0.1453 -0.4293 -1.1148
 6317SOL    MW425042   2.417   5.815   5.976 -0.4436 -0.3115 -0.4978
 6318SOL     OW25043   1.986   5.380   4.870  0.0188  0.0946  0.3849
 6318SOL    HW225044   1.987   5.464   4.823 -1.6934 -0.3235 -0.4879
 6318SOL    HW325045   2.076   5.347   4.863  0.1235  0.6861 -1.4464
 6318SOL    MW425046   1.998   5.387   4.863 -0.1933  0.1175  0.0281
 6319SOL     OW25047   0.909   3.669   3.297  0.1976 -0.0131 -0.1788
 6319SOL    HW225048   0.849   3.640   3.366 -0.0951 -2.6688 -1.4015
 6319SOL    HW325049   0.995   3.644   3.329 -0.0458 -2.4292 -1.1877
 6319SOL    MW425050   0.912   3.662   3.311  0.1268 -0.6823 -0.4732
 6320SOL     OW25051   4.000   4.155   4.051  0.3651 -0.4521  0.3504
 6320SOL    HW225052   4.028   4.147   4.142  0.7595  0.0210  0.2764
 6320SOL    HW325053   3.915   4.112   4.048 -0.0070  0.2057  1.1252
 6320SOL    MW425054   3.992   4.148   4.062  0.3680 -0.3029  0.4429
 6321SOL     OW25055   3.512   0.093   2.924 -0.4167  0.1983  0.4056
 6321SOL    HW225056   3.569   0.041   2.868 -1.7359 -1.1048  0.1944
 6321SOL    HW325057   3.484   0.032   2.992 -1.6056  0.7707  0.4578
 6321SOL    MW425058   3.516   0.078   2.926 -0.7476  0.1019  0.3847
 6322SOL     OW25059   6.424   2.625   3.196  0.2707 -0.0925  0.6622
 6322SOL    HW225060   6.484   2.678   3.247 -0.8913  2.4760 -0.4723
 6322SOL    HW325061   6.355   2.600   3.257  0.6812 -0.0403  1.1452
 6322SOL    MW425062   6.423   2.629   3.211  0.1715  0.2533  0.5763
 6323SOL     OW25063   3.266   3.620   0.983  0.0621 -0.5099  0.8367
 6323SOL    HW225064   3.171   3.609   0.994 -0.0711 -1.1349 -0.6266
 6323SOL    HW325065   3.288   3.563   0.909  0.9373  2.2813 -1.2521
 6323SOL    MW425066   3.256   3.611   0.975  0.1600 -0.2241  0.3680
 6324SOL     OW25067   2.931   5.850   1.084 -0.8195  0.1802 -0.1850
 6324SOL    HW225068   2.927   5.792   1.160  0.7589  1.5081  0.9830
 6324SOL    HW325069   2.948   5.937   1.121 -2.3203  1.2979 -1.9267
 6324SOL    MW425070   2.933   5.854   1.099 -0.8092  0.5028 -0.2607
 6325SOL     OW25071   4.108   4.032   5.257 -0.3517  0.5019  0.2907
 6325SOL    HW225072   4.166   4.077   5.196 -0.1889  1.1795  0.9360
 6325SOL    HW325073   4.155   3.952   5.281 -0.6915 -0.0952 -0.9453
 6325SOL    MW425074   4.122   4.028   5.252 -0.3751  0.5125  0.2128
 6326SOL     OW25075   1.081   2.207   3.198  0.4941  0.4517 -0.0398
 6326SOL    HW225076   1.117   2.250   3.277 -0.4336  2.0043 -0.4205
 6326SOL    HW325077   0.992   2.182   3.223  0.4068  0.4023 -0.4025
 6326SOL    MW425078   1.074   2.210   3.212  0.3602  0.6501 -0.1379
 6327SOL     OW25079   6.439   6.044   2.361 -0.2816 -0.5002  0.0185
 6327SOL    HW225080   6.432   5.988   2.283  1.9528 -0.4867 -0.2577
 6327SOL    HW325081   6.453   5.984   2.433  0.3125 -0.3817  0.0021
 6327SOL    MW425082   6.440   6.029   2.360  0.0916 -0.4828 -0.0201
 6328SOL     OW25083   1.754   5.586   6.186  0.1021  0.8080 -0.5544
 6328SOL    HW225084   1.740   5.671   6.144  0.4131  1.7127  1.0846
 6328SOL    HW325085   1.740   5.603   6.279 -0.1756 -1.0322 -0.2306
 6328SOL    MW425086   1.750   5.600   6.193  0.1065  0.6846 -0.2954
 6329SOL     OW25087   4.079   1.332   4.373  0.0427 -0.6869  0.4951
 6329SOL    HW225088   4.024   1.255   4.359 -0.5292 -0.2144  0.0908
 6329SOL    HW325089   4.017   1.405   4.381  0.6255  0.1579 -1.8434
 6329SOL    MW425090   4.064   1.332   4.372  0.0442 -0.5131  0.1332
 6330SOL     OW25091   0.453   4.495   3.240  0.0925 -0.2101  0.5316
 6330SOL    HW225092   0.547   4.485   3.252 -0.1864 -2.5415  1.3428
 6330SOL    HW325093   0.419   4.509   3.329 -0.3619  0.1204  0.3071
 6330SOL    MW425094   0.461   4.495   3.254 -0.0042 -0.4741  0.6090
 6331SOL     OW25095   1.692   2.847   0.809 -0.3491  0.2889 -0.1296
 6331SOL    HW225096   1.719   2.758   0.789 -1.6130 -0.6507  1.9948
 6331SOL    HW325097   1.762   2.881   0.866 -1.6244 -0.7968  2.2367
 6331SOL    MW425098   1.705   2.840   0.814 -0.6841  0.0217  0.4629
 6332SOL     OW25099   4.012   2.509   4.760 -0.7856 -0.3107  0.2081
 6332SOL    HW225100   4.035   2.470   4.844  1.0903  1.4158  0.5789
 6332SOL    HW325101   3.922   2.539   4.771  0.2617  2.4593  2.7491
 6332SOL    MW425102   4.003   2.508   4.772 -0.3999  0.2826  0.5923
 6333SOL     OW25103   2.440   5.015   4.933  0.4696 -0.5925  0.1663
 6333SOL    HW225104   2.499   5.057   4.996  3.1177 -1.1785 -1.7298
 6333SOL    HW325105   2.430   4.925   4.966  0.2838 -0.3602  0.7459
 6333SOL    MW425106   2.447   5.008   4.946  0.7944 -0.6392 -0.0074
 6334SOL     OW25107   2.073   3.459   5.071  0.1190 -0.3704 -0.0778
 6334SOL    HW225108   2.104   3.547   5.096  0.9995 -0.5788 -0.3936
 6334SOL    HW325109   2.077   3.409   5.152  0.4648 -0.3516 -0.0816
 6334SOL    MW425110   2.078   3.464   5.085  0.2808 -0.3954 -0.1200
 6335SOL     OW25111   5.563   5.906   0.128 -0.3070 -0.3508 -0.0504
 6335SOL    HW225112   5.512   5.828   0.103 -0.3930 -0.7448  1.2964
 6335SOL    HW325113   5.500   5.961   0.174  0.1829 -0.2898  0.5539
 6335SOL    MW425114   5.548   5.903   0.130 -0.2537 -0.3947  0.2070
 6336SOL     OW25115   3.321   4.893   0.370 -0.1113 -0.0089  0.5583
 6336SOL    HW225116   3.237   4.939   0.366 -0.0861  0.1209  1.4779
 6336SOL    HW325117   3.354   4.910   0.458  1.5627  1.1249 -0.2480
 6336SOL    MW425118   3.314   4.901   0.381  0.1129  0.1578  0.5733
 6337SOL     OW25119   5.968   6.229   0.649  0.0591 -0.0575  0.4332
 6337SOL    HW225120   5.913   6.151   0.636 -0.1851  0.3288 -1.0328
 6337SOL    HW325121   5.906   6.300   0.664  0.1585  0.2668 -0.6019
 6337SOL    MW425122   5.953   6.228   0.649  0.0400  0.0363  0.1032
 6338SOL     OW25123   3.482   0.479   0.013  0.0802  0.2013  0.2124
 6338SOL    HW225124   3.418   0.425  -0.032  1.4276 -0.1049 -1.4610
 6338SOL    HW325125   3.476   0.564  -0.029  0.9308  0.0866 -0.1798
 6338SOL    MW425126   3.473   0.483   0.002  0.3702  0.1458 -0.0601
 6339SOL     OW25127   1.049   4.351   5.044  0.2718  0.0526  0.0266
 6339SOL    HW225128   0.971   4.402   5.064  1.1003  0.9701  1.0258
 6339SOL    HW325129   1.020   4.287   4.979 -0.7401  1.9670 -1.4842
 6339SOL    MW425130   1.035   4.349   5.038  0.2476  0.4262 -0.0409
 6340SOL     OW25131   3.191   1.535   4.172 -0.5821  0.0221 -0.4645
 6340SOL    HW225132   3.238   1.521   4.090  0.4082  1.7708 -0.2313
 6340SOL    HW325133   3.192   1.629   4.186 -1.7033 -0.1315  1.0189
 6340SOL    MW425134   3.197   1.545   4.163 -0.5994  0.2325 -0.2380
 6341SOL     OW25135   5.245   4.071   6.080  0.0462  0.6733  0.1966
 6341SOL    HW225136   5.243   4.061   6.175 -2.1564 -0.6815  0.0762
 6341SOL    HW325137   5.301   3.999   6.050 -0.0491  0.5113  0.4021
 6341SOL    MW425138   5.252   4.060   6.089 -0.2570  0.4732  0.2078
 6342SOL     OW25139   0.018   5.568   5.253  0.6333  0.1476  0.1167
 6342SOL    HW225140   0.045   5.500   5.314 -0.7877 -0.9127 -0.3655
 6342SOL    HW325141   0.079   5.640   5.268  2.6472 -1.4798  0.1546
 6342SOL    MW425142   0.029   5.569   5.263  0.7115 -0.2070  0.0581
 6343SOL     OW25143   1.435   0.628   3.534 -0.3319 -0.5312 -0.1730
 6343SOL    HW225144   1.498   0.699   3.543 -1.4679  0.5416 -0.3382
 6343SOL    HW325145   1.403   0.612   3.623  3.4880 -4.3772  0.8249
 6343SOL    MW425146   1.439   0.636   3.547  0.0222 -0.8971 -0.0631
 6344SOL     OW25147   1.808   5.060   0.369  0.0944  0.5817 -0.0065
 6344SOL    HW225148   1.717   5.074   0.346 -0.1691 -0.0602  0.6087
 6344SOL    HW325149   1.848   5.024   0.290 -0.5358 -0.5165  0.1526
 6344SOL    MW425150   1.801   5.057   0.356 -0.0235  0.3521  0.0956
 6345SOL     OW25151   0.823   0.076   1.523  0.1475  0.1596 -0.2091
 6345SOL    HW225152   0.902   0.073   1.576  0.6343 -0.8738 -0.9651
 6345SOL    HW325153   0.763   0.016   1.567  0.5797 -0.7597 -0.8485
 6345SOL    MW425154   0.825   0.068   1.536  0.2688 -0.0980 -0.3932
 6346SOL     OW25155   2.018   0.002   3.906 -0.2008 -0.3137  0.0795
 6346SOL    HW225156   1.967  -0.050   3.844  0.2931  0.3562 -0.9263
 6346SOL    HW325157   2.107  -0.034   3.900  0.0122  0.2401 -0.1796
 6346SOL    MW425158   2.023  -0.010   3.897 -0.1076 -0.1522 -0.0873
 6347SOL     OW25159   4.052   5.433   4.739 -0.3195 -0.2687 -0.0028
 6347SOL    HW225160   4.025   5.345   4.767  1.5523 -0.2392  2.1940
 6347SOL    HW325161   4.104   5.466   4.812 -0.3138  2.3898 -1.1142
 6347SOL    MW425162   4.055   5.425   4.752 -0.0718  0.0859  0.1404
 6348SOL     OW25163   5.931   3.168   4.463  0.0652 -0.6452  0.4516
 6348SOL    HW225164   5.910   3.081   4.495  0.7682 -0.5506  1.2062
 6348SOL    HW325165   6.027   3.172   4.463  0.1080 -0.6085 -1.6212
 6348SOL    MW425166   5.941   3.157   4.467  0.1636 -0.6278  0.2777
 6349SOL     OW25167   1.557   5.261   0.730 -0.4154 -0.3905 -0.1226
 6349SOL    HW225168   1.637   5.208   0.737 -1.3245 -1.7042  0.7776
 6349SOL    HW325169   1.552   5.283   0.637  1.7742  1.0309  0.0148
 6349SOL    MW425170   1.567   5.257   0.718 -0.2464 -0.3763  0.0143
 6350SOL     OW25171   1.079   1.363   2.678 -1.1130  0.0341 -0.8431
 6350SOL    HW225172   1.160   1.366   2.727 -0.4307  0.4283 -1.9549
 6350SOL    HW325173   1.051   1.271   2.683  0.1703 -0.4185 -1.6488
 6350SOL    MW425174   1.086   1.351   2.685 -0.8537  0.0264 -1.0961
 6351SOL     OW25175   4.174   5.160   4.522 -0.2985 -0.1004  0.0564
 6351SOL    HW225176   4.167   5.071   4.487  0.0669  0.1283 -0.6140
 6351SOL    HW325177   4.100   5.207   4.482  0.0730  0.1417 -0.3535
 6351SOL    MW425178   4.163   5.155   4.512 -0.2013 -0.0383 -0.0861
 6352SOL     OW25179   2.110   5.677   6.216 -0.5791  0.0264 -0.2593
 6352SOL    HW225180   2.132   5.729   6.293 -0.1483  0.7550 -0.8594
 6352SOL    HW325181   2.074   5.595   6.251 -0.8802  0.5593  0.7011
 6352SOL    MW425182   2.108   5.673   6.230 -0.5620  0.1928 -0.2117
 6353SOL     OW25183   5.410   1.793   5.007  0.0870 -0.1195 -0.0223
 6353SOL    HW225184   5.331   1.818   5.055  0.5006  1.2091  0.0113
 6353SOL    HW325185   5.378   1.743   4.932 -0.5555 -2.5184  1.7491
 6353SOL    MW425186   5.396   1.790   5.003  0.0568 -0.2607  0.2159
 6354SOL     OW25187   1.842   4.930   2.622  0.2904  0.4134 -0.2032
 6354SOL    HW225188   1.854   4.912   2.715 -1.5617 -2.1606 -0.3714
 6354SOL    HW325189   1.764   4.985   2.618 -1.9563 -2.5446 -0.2992
 6354SOL    MW425190   1.834   4.935   2.634 -0.2504 -0.3165 -0.2380
 6355SOL     OW25191   1.094   4.668   3.558  0.2652 -0.4628 -0.1490
 6355SOL    HW225192   1.130   4.629   3.638  1.5157  0.9929  0.0491
 6355SOL    HW325193   1.045   4.745   3.588  1.2460  0.4440 -0.7963
 6355SOL    MW425194   1.092   4.673   3.573  0.5596 -0.1511 -0.2083
 6356SOL     OW25195   0.122   6.362   1.685  0.0709 -0.1997  0.1111
 6356SOL    HW225196   0.053   6.397   1.741  2.5821  1.9286  2.1392
 6356SOL    HW325197   0.174   6.307   1.743  1.6715  0.5402 -0.5529
 6356SOL    MW425198   0.120   6.360   1.700  0.6134  0.1788  0.2911
 6357SOL     OW25199   3.986   2.463   5.311 -0.3915  0.3629 -0.0326
 6357SOL    HW225200   3.961   2.370   5.316 -1.4769  0.4637 -2.4556
 6357SOL    HW325201   4.074   2.466   5.348  0.0033 -1.7905 -0.6624
 6357SOL    MW425202   3.994   2.451   5.317 -0.4826  0.0921 -0.4354
 6358SOL     OW25203   3.489   1.965   6.094 -0.7826 -0.1956 -0.2878
 6358SOL    HW225204   3.498   2.048   6.140  0.1576 -0.3514 -0.1743
 6358SOL    HW325205   3.468   1.990   6.004 -1.8821  0.1211  0.0312
 6358SOL    MW425206   3.487   1.979   6.088 -0.8036 -0.1744 -0.2308
 6359SOL     OW25207   2.039   5.729   1.699 -0.1720  0.2259 -0.4755
 6359SOL    HW225208   2.004   5.640   1.703 -1.1504  0.5513 -1.3097
 6359SOL    HW325209   2.101   5.733   1.771  0.8449 -1.5344 -1.1786
 6359SOL    MW425210   2.042   5.718   1.709 -0.1669  0.0366 -0.6784
 6360SOL     OW25211   1.712   4.350   0.352  0.1078  0.2027 -0.6003
 6360SOL    HW225212   1.723   4.441   0.377 -1.1118 -0.0391  1.0001
 6360SOL    HW325213   1.625   4.346   0.311 -1.3116 -0.7180  2.2547
 6360SOL    MW425214   1.702   4.361   0.350 -0.2404  0.0493 -0.0124
 6361SOL     OW25215   3.661   0.805   5.992 -0.1991  0.2303  0.0883
 6361SOL    HW225216   3.579   0.851   6.009 -0.1967 -0.2203  1.4147
 6361SOL    HW325217   3.635   0.715   5.973 -0.0204  0.0796  0.5401
 6361SOL    MW425218   3.647   0.799   5.992 -0.1752  0.1510  0.3229
 6362SOL     OW25219   6.337   2.311   4.105 -0.0189  0.0579  0.5609
 6362SOL    HW225220   6.319   2.313   4.011  0.4965 -1.5059  0.4134
 6362SOL    HW325221   6.251   2.325   4.145 -0.1264  1.5819 -0.1032
 6362SOL    MW425222   6.323   2.313   4.098  0.0350  0.0527  0.4538
 6363SOL     OW25223   6.219   4.070   3.967 -0.6445  0.1028 -0.1238
 6363SOL    HW225224   6.309   4.055   3.938 -0.8956 -1.1596 -0.2783
 6363SOL    HW325225   6.172   4.092   3.886 -0.7134 -0.3983 -0.2219
 6363SOL    MW425226   6.225   4.071   3.952 -0.6867 -0.1298 -0.1571
 6364SOL     OW25227   3.585   3.208   4.844  0.4175  0.4413  0.1434
 6364SOL    HW225228   3.506   3.155   4.840 -0.8314  2.1206  1.0204
 6364SOL    HW325229   3.635   3.184   4.766 -0.7215 -1.0051 -0.1730
 6364SOL    MW425230   3.581   3.198   4.833  0.1024  0.4721  0.2174
 6365SOL     OW25231   5.781   1.304   1.162 -0.8983 -0.2545 -0.0991
 6365SOL    HW225232   5.693   1.302   1.125 -0.5173  1.8165 -1.2775
 6365SOL    HW325233   5.773   1.353   1.243 -0.6032  1.5120 -1.0865
 6365SOL    MW425234   5.769   1.310   1.167 -0.8091  0.2518 -0.3849
 6366SOL     OW25235   5.296   5.114   3.853  0.1125 -0.3862  0.0794
 6366SOL    HW225236   5.379   5.114   3.805 -1.5444 -1.5958 -3.0787
 6366SOL    HW325237   5.236   5.164   3.797 -1.4947 -0.1616  1.9053
 6366SOL    MW425238   5.299   5.121   3.839 -0.3182 -0.5162 -0.0964
 6367SOL     OW25239   1.786   2.775   3.181  0.5076  0.0140 -0.3081
 6367SOL    HW225240   1.829   2.694   3.154  0.6067 -0.6815  1.7567
 6367SOL    HW325241   1.811   2.839   3.115  1.6852 -1.2748 -1.1507
 6367SOL    MW425242   1.795   2.773   3.169  0.6761 -0.2478 -0.1469
 6368SOL     OW25243   2.423   0.312   2.870 -0.1827  0.2411  0.0576
 6368SOL    HW225244   2.499   0.298   2.926  0.0995  1.5702  0.0494
 6368SOL    HW325245   2.428   0.243   2.804  0.4388 -0.2979  0.6596
 6368SOL    MW425246   2.433   0.301   2.869 -0.0635  0.3453  0.1360
 6369SOL     OW25247   5.127   4.551   4.227 -0.2060 -0.1858 -0.0986
 6369SOL    HW225248   5.063   4.480   4.228 -1.0861  0.5768 -0.7748
 6369SOL    HW325249   5.174   4.540   4.144 -0.2420 -0.0720 -0.1345
 6369SOL    MW425250   5.125   4.540   4.216 -0.3268 -0.0702 -0.1926
 6370SOL     OW25251   5.418   3.223   1.688  0.1112 -0.4070  0.2886
 6370SOL    HW225252   5.436   3.174   1.769  0.3961 -1.5874 -0.4623
 6370SOL    HW325253   5.438   3.161   1.618 -0.7704  0.3797 -0.6824
 6370SOL    MW425254   5.423   3.208   1.690  0.0325 -0.4589  0.0614
 6371SOL     OW25255   5.227   4.860   3.964  0.2957  0.6939  0.3578
 6371SOL    HW225256   5.143   4.884   4.003  0.3456  0.9145  0.3275
 6371SOL    HW325257   5.245   4.929   3.900 -0.4265 -0.3222 -0.9972
 6371SOL    MW425258   5.218   4.872   3.960  0.2070  0.5889  0.1751
 6372SOL     OW25259   1.932   4.951   1.064 -0.0423  0.2653 -0.1875
 6372SOL    HW225260   1.863   5.016   1.072 -0.9291 -0.8679  2.3943
 6372SOL    HW325261   2.005   4.987   1.114  0.2869  0.2590 -0.6550
 6372SOL    MW425262   1.933   4.964   1.071 -0.1159  0.1149  0.0915
 6373SOL     OW25263   4.335   3.855   5.466  0.4309  0.5372  0.1006
 6373SOL    HW225264   4.270   3.803   5.514  0.3112 -0.2136 -0.8473
 6373SOL    HW325265   4.409   3.862   5.527 -0.1664  0.5987  0.8375
 6373SOL    MW425266   4.336   3.849   5.480  0.3363  0.4463  0.0728
 6374SOL     OW25267   3.114   2.574   2.526  0.2392  0.2741  0.1698
 6374SOL    HW225268   3.179   2.511   2.494 -0.9271  0.2236 -2.3105
 6374SOL    HW325269   3.143   2.658   2.492 -0.7824  0.2911 -0.7326
 6374SOL    MW425270   3.126   2.577   2.517 -0.0495  0.2697 -0.2765
 6375SOL     OW25271   6.080   4.031   5.918 -0.2930 -0.0981  0.4958
 6375SOL    HW225272   6.140   4.031   5.993  1.2751  0.3487 -0.6908
 6375SOL    HW325273   6.137   4.017   5.843 -1.5435  1.3775 -0.8027
 6375SOL    MW425274   6.096   4.029   5.918 -0.2511  0.1556  0.1679
 6376SOL     OW25275   5.684   4.658   3.004 -0.2757 -0.2969 -0.4369
 6376SOL    HW225276   5.614   4.713   2.967 -0.5588 -0.8291 -0.7090
 6376SOL    HW325277   5.638   4.601   3.066  0.2557  0.8843  1.1068
 6376SOL    MW425278   5.668   4.658   3.007 -0.2429 -0.2113 -0.2692
 6377SOL     OW25279   1.134   4.731   1.952 -0.3570 -0.1956 -0.0250
 6377SOL    HW225280   1.047   4.721   1.990 -0.8666 -0.8098 -1.3071
 6377SOL    HW325281   1.123   4.796   1.883  0.1495 -0.4765 -0.3734
 6377SOL    MW425282   1.121   4.739   1.948 -0.3574 -0.3137 -0.2401
 6378SOL     OW25283   3.098   1.538   3.495  0.3870  0.3612  0.4368
 6378SOL    HW225284   3.099   1.621   3.544 -2.5166  0.0574  1.2063
 6378SOL    HW325285   3.137   1.474   3.554  2.5716  1.0977 -0.1270
 6378SOL    MW425286   3.103   1.541   3.509  0.2921  0.4183  0.4639
 6379SOL     OW25287   0.211   2.216   6.075  0.0389 -0.3350 -0.5758
 6379SOL    HW225288   0.153   2.292   6.076  0.2969 -0.1353  0.4119
 6379SOL    HW325289   0.152   2.141   6.085 -0.2219 -0.2818 -1.6289
 6379SOL    MW425290   0.195   2.216   6.077  0.0386 -0.3016 -0.5844
 6380SOL     OW25291   4.974   3.229   4.871  0.9401 -0.4547  0.2177
 6380SOL    HW225292   5.018   3.218   4.787  0.3652  0.5774 -0.2351
 6380SOL    HW325293   4.973   3.324   4.886  0.9555 -0.6128  1.3476
 6380SOL    MW425294   4.980   3.240   4.862  0.8663 -0.3394  0.3070
 6381SOL     OW25295   0.763   5.710   0.966  0.1602  0.4373  0.5173
 6381SOL    HW225296   0.728   5.799   0.967 -0.3992  0.2169  0.7132
 6381SOL    HW325297   0.756   5.683   0.875  0.2771  0.5662  0.4682
 6381SOL    MW425298   0.758   5.718   0.954  0.1018  0.4252  0.5367
 6382SOL     OW25299   3.650   0.986   3.573 -0.0758  0.0884  0.7752
 6382SOL    HW225300   3.703   0.912   3.600 -0.5091 -0.4836  0.0931
 6382SOL    HW325301   3.710   1.042   3.522  0.1878  0.0863  1.0822
 6382SOL    MW425302   3.665   0.984   3.570 -0.0982  0.0127  0.7257
 6383SOL     OW25303   1.044   0.744   1.659  0.1771 -0.3401 -0.2343
 6383SOL    HW225304   0.975   0.774   1.718 -0.7911 -0.6587 -1.1841
 6383SOL    HW325305   1.029   0.650   1.650  1.9860 -0.8315  1.1499
 6383SOL    MW425306   1.033   0.736   1.666  0.2880 -0.4470 -0.1770
 6384SOL     OW25307   3.212   5.870   2.985  0.3311 -0.2452  0.2879
 6384SOL    HW225308   3.249   5.805   3.044 -0.3942  0.3943  1.4773
 6384SOL    HW325309   3.170   5.818   2.916  0.4940 -1.0231  0.7576
 6384SOL    MW425310   3.211   5.855   2.983  0.2569 -0.2634  0.5068
 6385SOL     OW25311   3.600   1.934   6.390 -0.4523 -0.3922  0.1808
 6385SOL    HW225312   3.571   1.843   6.380 -1.0817 -0.1194 -0.6489
 6385SOL    HW325313   3.519   1.983   6.401 -0.2127  0.2014 -0.5914
 6385SOL    MW425314   3.585   1.928   6.390 -0.5037 -0.2779 -0.0306
 6386SOL     OW25315   5.816   6.131   3.458 -0.1837  0.3528  0.2362
 6386SOL    HW225316   5.860   6.076   3.393 -0.3787 -1.2800  1.4208
 6386SOL    HW325317   5.774   6.200   3.406  1.6634  0.5419 -1.1416
 6386SOL    MW425318   5.816   6.133   3.442  0.0343  0.1623  0.2107
 6387SOL     OW25319   1.493   3.232   4.027 -0.2377 -0.6920  0.5823
 6387SOL    HW225320   1.415   3.245   4.081  0.0795  1.9215  0.5517
 6387SOL    HW325321   1.467   3.260   3.939  0.7765  0.5234  0.6352
 6387SOL    MW425322   1.479   3.238   4.022 -0.0620 -0.1869  0.5853
 6388SOL     OW25323   1.902   4.722   0.825  0.1582 -0.2737 -0.2317
 6388SOL    HW225324   1.873   4.732   0.734  1.1239  0.0157 -0.5112
 6388SOL    HW325325   1.857   4.793   0.872 -0.1443 -0.2665 -0.5260
 6388SOL    MW425326   1.892   4.733   0.819  0.2457 -0.2346 -0.3074
 6389SOL     OW25327   0.351   1.395   4.221 -0.4433  0.2143  0.4530
 6389SOL    HW225328   0.320   1.307   4.244  0.0925  0.2592  1.3786
 6389SOL    HW325329   0.437   1.402   4.263 -0.4533  1.1590  0.3287
 6389SOL    MW425330   0.358   1.384   4.229 -0.3739  0.3449  0.5588
 6390SOL     OW25331   0.072   4.111   6.403 -0.2674  0.3044 -0.2746
 6390SOL    HW225332   0.067   4.037   6.343 -0.1658 -0.6612  0.8657
 6390SOL    HW325333   0.119   4.076   6.479  0.4175  1.7455 -0.0113
 6390SOL    MW425334   0.078   4.096   6.405 -0.1636  0.3672 -0.0894
 6391SOL     OW25335   6.422   1.565   1.559 -0.3760  0.6278  0.4060
 6391SOL    HW225336   6.417   1.470   1.546  1.2949  0.7499 -1.7302
 6391SOL    HW325337   6.367   1.582   1.636 -2.6652 -1.7350 -0.5708
 6391SOL    MW425338   6.414   1.555   1.567 -0.4575  0.3322 -0.0047
 6392SOL     OW25339   2.235   0.594   5.630  0.9886 -0.1611  0.3565
 6392SOL    HW225340   2.245   0.674   5.578 -1.5155  0.4369  0.6405
 6392SOL    HW325341   2.300   0.534   5.595  1.1679  1.1074 -1.6688
 6392SOL    MW425342   2.245   0.597   5.619  0.6819  0.0852  0.1268
 6393SOL     OW25343   1.874   6.335   3.700  0.0238  1.0613 -0.1267
 6393SOL    HW225344   1.805   6.269   3.690 -0.1937  1.1909  0.5062
 6393SOL    HW325345   1.913   6.342   3.612 -0.4727  0.6678 -0.3839
 6393SOL    MW425346   1.870   6.327   3.687 -0.0704  1.0265 -0.0771
 6394SOL     OW25347   4.924   2.402   1.321 -0.2834 -0.3549 -0.0608
 6394SOL    HW225348   4.934   2.306   1.320  1.3813 -0.2481 -2.0318
 6394SOL    HW325349   5.014   2.435   1.332 -0.4801  0.9196 -1.7717
 6394SOL    MW425350   4.937   2.393   1.322 -0.0897 -0.1727 -0.5466
 6395SOL     OW25351   0.815   0.711   0.207 -0.4302 -0.1002  0.2219
 6395SOL    HW225352   0.868   0.661   0.146 -1.0140  1.5461 -1.7371
 6395SOL    HW325353   0.725   0.698   0.178 -0.7048  0.8392  0.5936
 6395SOL    MW425354   0.810   0.703   0.195 -0.5435  0.2410  0.0125
 6396SOL     OW25355   4.010   2.976   4.645  0.1382 -0.5872 -0.6479
 6396SOL    HW225356   4.012   2.976   4.741  2.8501  0.5492 -0.6143
 6396SOL    HW325357   3.995   2.885   4.621 -1.8469 -0.7072  0.7879
 6396SOL    MW425358   4.008   2.964   4.654  0.2341 -0.4531 -0.4541
 6397SOL     OW25359   4.986   2.021   3.055  0.1312  0.1275  0.9673
 6397SOL    HW225360   4.936   1.973   3.121  1.1250 -1.5768  0.5476
 6397SOL    HW325361   4.981   2.112   3.083 -3.5838  0.1646  0.6781
 6397SOL    MW425362   4.979   2.026   3.068 -0.2279 -0.0924  0.8738
 6398SOL     OW25363   0.912   0.980   0.146 -0.5905 -0.0417  0.6004
 6398SOL    HW225364   0.848   1.042   0.179 -0.6323 -0.7679  1.9924
 6398SOL    HW325365   0.874   0.894   0.165 -0.1325 -0.4974 -0.4523
 6398SOL    MW425366   0.899   0.977   0.153 -0.5356 -0.1977  0.6452
 6399SOL     OW25367   5.156   5.288   1.274  0.3760  0.1707  0.2280
 6399SOL    HW225368   5.228   5.251   1.326  0.3945  0.9444  0.7717
 6399SOL    HW325369   5.078   5.269   1.325  0.1106 -1.2143 -0.6641
 6399SOL    MW425370   5.156   5.281   1.288  0.3434  0.0901  0.1821
 6400SOL     OW25371   3.619   3.169   2.837  0.7664 -0.0841  0.4650
 6400SOL    HW225372   3.546   3.107   2.846  0.1879  0.6772  1.1329
 6400SOL    HW325373   3.697   3.117   2.855  0.6532 -1.5013 -2.5553
 6400SOL    MW425374   3.620   3.154   2.841  0.6752 -0.1707  0.1546
 6401SOL     OW25375   4.674   5.041   3.520  0.1912 -0.5779  0.4351
 6401SOL    HW225376   4.725   5.054   3.600 -0.4101 -0.0363  0.7327
 6401SOL    HW325377   4.592   5.000   3.550 -0.5705  0.7722  0.2680
 6401SOL    MW425378   4.670   5.037   3.535  0.0114 -0.3283  0.4523
 6402SOL     OW25379   3.415   4.369   5.124  0.1460  0.5797  0.2641
 6402SOL    HW225380   3.323   4.363   5.152 -0.2392 -0.4097 -1.1426
 6402SOL    HW325381   3.422   4.308   5.051  1.7041  1.3539 -0.2704
 6402SOL    MW425382   3.404   4.360   5.118  0.3008  0.5513  0.0080
 6403SOL     OW25383   4.015   4.817   0.114 -0.4691  0.4732 -0.2230
 6403SOL    HW225384   4.102   4.835   0.151 -0.3145  0.8753 -0.7642
 6403SOL    HW325385   3.955   4.862   0.173 -0.0887  2.9492 -1.5672
 6403SOL    MW425386   4.019   4.826   0.127 -0.3985  0.8529 -0.4717
 6404SOL     OW25387   1.575   3.397   2.828  0.2555  0.0616  0.3564
 6404SOL    HW225388   1.531   3.312   2.824  0.6518 -0.4577  3.7891
 6404SOL    HW325389   1.660   3.378   2.868  1.5892  1.7559 -1.4660
 6404SOL    MW425390   1.580   3.383   2.833  0.4837  0.2167  0.5689
 6405SOL     OW25391   3.312   2.635   3.488  0.4578 -0.4339 -0.2511
 6405SOL    HW225392   3.307   2.591   3.404  2.1344 -2.0026  0.3980
 6405SOL    HW325393   3.381   2.588   3.536 -1.3381 -0.5101  2.5089
 6405SOL    MW425394   3.320   2.623   3.483  0.4421 -0.6509  0.1987
 6406SOL     OW25395   3.416   2.462   3.777 -0.6131  0.2038  0.1973
 6406SOL    HW225396   3.324   2.480   3.797 -0.6302  1.9720 -1.1506
 6406SOL    HW325397   3.464   2.532   3.821  0.1259 -0.8118  1.0460
 6406SOL    MW425398   3.410   2.474   3.785 -0.5178  0.3031  0.1315
 6407SOL     OW25399   0.758   5.509   0.072 -0.7134  0.2752  0.4431
 6407SOL    HW225400   0.689   5.471   0.127 -1.0553  0.7670  0.3692
 6407SOL    HW325401   0.757   5.602   0.096  1.4901 -0.0499  2.1315
 6407SOL    MW425402   0.749   5.516   0.083 -0.4678  0.2972  0.6561
 6408SOL     OW25403   1.747   4.422   1.483 -0.4513  0.0765 -0.2276
 6408SOL    HW225404   1.673   4.411   1.423  0.0330 -0.7610 -0.6886
 6408SOL    HW325405   1.821   4.383   1.437  0.1812  0.4860  0.4270
 6408SOL    MW425406   1.747   4.415   1.469 -0.3040  0.0201 -0.2020
 6409SOL     OW25407   5.838   4.133   4.947 -0.0800  0.3012  0.1353
 6409SOL    HW225408   5.785   4.164   4.873 -1.7387 -1.6854  0.4128
 6409SOL    HW325409   5.919   4.102   4.906  0.3906  2.1648 -0.4505
 6409SOL    MW425410   5.842   4.133   4.932 -0.2368  0.2850  0.0946
 6410SOL     OW25411   0.148   4.792   5.203  0.1478  0.1102 -0.1831
 6410SOL    HW225412   0.217   4.779   5.137 -0.4442  2.5918 -1.4171
 6410SOL    HW325413   0.189   4.848   5.270 -0.0051 -0.2784  0.2368
 6410SOL    MW425414   0.163   4.798   5.203  0.0495  0.3863 -0.2905
 6411SOL     OW25415   3.175   3.803   3.156 -0.0201  0.1563 -0.0464
 6411SOL    HW225416   3.238   3.856   3.108  0.0745  0.6037  0.5544
 6411SOL    HW325417   3.117   3.767   3.089  0.3830  0.3954 -0.5285
 6411SOL    MW425418   3.175   3.805   3.141  0.0456  0.2469 -0.0307
 6412SOL     OW25419   5.868   6.258   1.011 -0.2297  0.9483 -0.4207
 6412SOL    HW225420   5.777   6.251   0.982 -0.7144  0.0587  1.1940
 6412SOL    HW325421   5.902   6.169   1.004 -0.1814  0.8211  1.0304
 6412SOL    MW425422   5.861   6.245   1.007 -0.2873  0.8141 -0.0162
 6413SOL     OW25423   3.261   1.246   4.199  0.4116  0.2050  0.2595
 6413SOL    HW225424   3.212   1.314   4.245 -0.4478 -0.5403  0.4804
 6413SOL    HW325425   3.313   1.203   4.268 -0.1160 -0.2623  0.3748
 6413SOL    MW425426   3.261   1.249   4.215  0.2286  0.0450  0.3039
 6414SOL     OW25427   4.665   5.109   2.925  0.1869 -0.1108 -0.3767
 6414SOL    HW225428   4.612   5.064   2.991 -2.5534  1.3173 -1.4067
 6414SOL    HW325429   4.666   5.200   2.954  1.7555 -0.0114 -0.6607
 6414SOL    MW425430   4.658   5.115   2.938  0.0323  0.0907 -0.5501
 6415SOL     OW25431   2.215   0.514   2.870 -0.5087 -0.0696  0.7137
 6415SOL    HW225432   2.279   0.446   2.852 -0.0649  0.6748 -0.6157
 6415SOL    HW325433   2.168   0.483   2.948 -1.0261 -2.3890 -0.4455
 6415SOL    MW425434   2.217   0.501   2.878 -0.5184 -0.2774  0.3854
 6416SOL     OW25435   4.942   5.959   0.699  0.7073 -0.1641 -0.2983
 6416SOL    HW225436   4.884   5.966   0.623  2.5900 -0.3191 -1.8420
 6416SOL    HW325437   4.918   6.034   0.755 -0.4748  0.1695 -1.2094
 6416SOL    MW425438   4.931   5.970   0.696  0.7998 -0.1406 -0.6222
 6417SOL     OW25439   0.397   0.102   2.532  0.1384  0.2845 -0.1672
 6417SOL    HW225440   0.492   0.108   2.538  0.1170 -0.1768  0.9576
 6417SOL    HW325441   0.378   0.009   2.545 -0.4072  0.1574 -1.6846
 6417SOL    MW425442   0.407   0.091   2.535  0.0636  0.2069 -0.2190
 6418SOL     OW25443   1.303   0.691   2.527  0.5781 -0.4185 -0.3672
 6418SOL    HW225444   1.233   0.644   2.481 -0.8593  0.4613  0.7990
 6418SOL    HW325445   1.258   0.734   2.600  2.3438  0.2948  0.3528
 6418SOL    MW425446   1.288   0.690   2.531  0.6214 -0.2083 -0.1184
 6419SOL     OW25447   4.405   5.968   1.994 -0.4599 -0.1616  0.1910
 6419SOL    HW225448   4.422   5.937   2.082  0.0544 -0.3646  0.0222
 6419SOL    HW325449   4.309   5.978   1.990 -0.3998  0.9747  1.1372
 6419SOL    MW425450   4.394   5.966   2.005 -0.3841 -0.0385  0.2936
 6420SOL     OW25451   0.277   3.823   1.422 -0.4648 -0.5105 -0.3073
 6420SOL    HW225452   0.352   3.853   1.371  0.0249  0.1520  0.7806
 6420SOL    HW325453   0.229   3.903   1.444 -0.4215 -0.7460  0.6568
 6420SOL    MW425454   0.281   3.838   1.418 -0.3945 -0.4542 -0.0365
 6421SOL     OW25455   4.891   6.259   0.084 -0.0870 -0.4466  0.5791
 6421SOL    HW225456   4.882   6.312   0.005  0.3809 -1.5158 -0.2192
 6421SOL    HW325457   4.958   6.304   0.136 -0.0290 -0.0137  0.1385
 6421SOL    MW425458   4.899   6.272   0.081 -0.0176 -0.5306  0.4156
 6422SOL     OW25459   0.088   5.192   5.767 -0.0501 -0.0896  0.0166
 6422SOL    HW225460   0.058   5.243   5.692 -1.0680  0.1284  0.5552
 6422SOL    HW325461   0.013   5.139   5.791  0.9963 -1.9032 -0.5466
 6422SOL    MW425462   0.074   5.192   5.760 -0.0463 -0.3001  0.0134
 6423SOL     OW25463   6.135   0.682   2.780 -0.0020  0.1347 -0.0092
 6423SOL    HW225464   6.060   0.733   2.749  0.1251  0.8345  0.8055
 6423SOL    HW325465   6.208   0.709   2.724  0.2135  1.3458  0.8185
 6423SOL    MW425466   6.135   0.692   2.769  0.0432  0.3868  0.2075
 6424SOL     OW25467   3.597   1.573   5.909 -0.3734  0.3621 -0.2256
 6424SOL    HW225468   3.518   1.620   5.884 -0.7768  0.0540  0.4442
 6424SOL    HW325469   3.565   1.497   5.958  0.3539  0.7291  0.8670
 6424SOL    MW425470   3.582   1.569   5.912 -0.3306  0.3699  0.0069
 6425SOL     OW25471   2.451   3.506   0.120 -0.2226 -0.0222  0.4422
 6425SOL    HW225472   2.461   3.459   0.203  0.2166  1.3872  1.2142
 6425SOL    HW325473   2.406   3.587   0.144 -0.3630  0.2691 -0.7548
 6425SOL    MW425474   2.446   3.511   0.134 -0.1832  0.2022  0.3861
 6426SOL     OW25475   3.136   4.148   6.326  0.1230 -0.1846 -0.3208
 6426SOL    HW225476   3.119   4.113   6.239  0.2877 -1.0961  0.0040
 6426SOL    HW325477   3.226   4.122   6.346 -0.4996 -1.5862  0.8413
 6426SOL    MW425478   3.145   4.140   6.317  0.0626 -0.4898 -0.1246
 6427SOL     OW25479   1.425   1.142   0.590  0.1724  0.3247  0.1375
 6427SOL    HW225480   1.451   1.060   0.548  2.9118 -0.2199  2.6046
 6427SOL    HW325481   1.351   1.118   0.645 -0.7372  0.1538 -1.1063
 6427SOL    MW425482   1.418   1.128   0.592  0.4138  0.2303  0.2989
 6428SOL     OW25483   2.424   1.044   1.122  0.7810  0.2039  0.0633
 6428SOL    HW225484   2.461   0.977   1.065  0.4986 -1.0077  1.2170
 6428SOL    HW325485   2.346   1.002   1.159 -1.3230  2.3636 -1.6598
 6428SOL    MW425486   2.418   1.029   1.120  0.4662  0.3290 -0.0118
 6429SOL     OW25487   5.647   3.731   2.225  0.0260 -0.1592  0.1450
 6429SOL    HW225488   5.726   3.678   2.234  0.5897  0.7864  1.0141
 6429SOL    HW325489   5.622   3.751   2.315 -2.3230 -1.9873 -0.0079
 6429SOL    MW425490   5.654   3.727   2.238 -0.2095 -0.2756  0.2395
 6430SOL     OW25491   4.784   5.176   2.373 -0.1588  0.1807  0.3722
 6430SOL    HW225492   4.741   5.230   2.440  1.3169  0.2459  1.3206
 6430SOL    HW325493   4.794   5.090   2.414  1.2052  0.3608  0.4485
 6430SOL    MW425494   4.780   5.172   2.387  0.2159  0.2131  0.5074
 6431SOL     OW25495   4.997   2.348   4.058 -0.1252 -0.1010  0.1593
 6431SOL    HW225496   4.917   2.346   4.004 -1.5181  0.0838  2.1193
 6431SOL    HW325497   5.055   2.283   4.018 -1.0063  0.1716 -1.6606
 6431SOL    MW425498   4.994   2.339   4.045 -0.4252 -0.0406  0.1778
 6432SOL     OW25499   4.229   2.555   2.703  0.6677  0.4102 -0.0375
 6432SOL    HW225500   4.182   2.615   2.761 -0.2080  0.5948 -0.9192
 6432SOL    HW325501   4.293   2.512   2.760  0.1877  0.9705  0.9480
 6432SOL    MW425502   4.232   2.557   2.718  0.4889  0.5085 -0.0238
 6433SOL     OW25503   1.858   1.963   1.285  0.2492  0.0672 -0.9279
 6433SOL    HW225504   1.832   1.908   1.359 -0.7523  0.0824 -1.2465
 6433SOL    HW325505   1.775   1.991   1.246  0.7291 -0.5195 -2.4825
 6433SOL    MW425506   1.844   1.959   1.289  0.1804 -0.0082 -1.1751
 6434SOL     OW25507   5.640   5.916   0.840 -0.1911  0.0668  0.1888
 6434SOL    HW225508   5.659   5.926   0.747 -0.0005  0.6058  0.2884
 6434SOL    HW325509   5.609   5.825   0.848  0.3782 -0.1777 -0.2972
 6434SOL    MW425510   5.638   5.905   0.829 -0.0908  0.1056  0.1378
 6435SOL     OW25511   0.771   4.640   1.481  0.3741  0.3634 -0.4411
 6435SOL    HW225512   0.723   4.594   1.551  1.3214 -0.2665 -0.1872
 6435SOL    HW325513   0.862   4.614   1.494  0.4824 -0.3965 -2.3818
 6435SOL    MW425514   0.777   4.630   1.492  0.5134  0.1800 -0.6636
 6436SOL     OW25515   0.166   4.473   3.983 -0.5650 -0.2153  0.5507
 6436SOL    HW225516   0.198   4.436   3.900 -1.2272  0.9070 -0.2355
 6436SOL    HW325517   0.230   4.445   4.048  0.3218 -0.5935 -0.4501
 6436SOL    MW425518   0.179   4.464   3.980 -0.5354 -0.1171  0.3149
 6437SOL     OW25519   5.537   2.841   3.699  0.1812  0.2077  0.3662
 6437SOL    HW225520   5.451   2.803   3.679  0.9744 -1.2114 -0.5163
 6437SOL    HW325521   5.559   2.894   3.623  0.4552 -0.1170  0.2175
 6437SOL    MW425522   5.528   2.843   3.687  0.3220 -0.0224  0.2301
 6438SOL     OW25523   4.158   1.909   2.513  0.2185 -0.1065 -0.0009
 6438SOL    HW225524   4.154   1.899   2.608 -2.3076 -0.5368 -0.0968
 6438SOL    HW325525   4.161   2.004   2.499  0.0991 -0.0295  0.4874
 6438SOL    MW425526   4.158   1.920   2.524 -0.1305 -0.1531  0.0508
 6439SOL     OW25527   0.340   3.393   2.566 -0.2417 -0.3258 -0.1864
 6439SOL    HW225528   0.325   3.417   2.475 -0.0324  0.3926 -0.0430
 6439SOL    HW325529   0.324   3.474   2.615  0.7006 -0.4101  0.2956
 6439SOL    MW425530   0.336   3.407   2.561 -0.0898 -0.2421 -0.1039
 6440SOL     OW25531   6.117   2.588   4.873  0.0649  0.0617  0.0334
 6440SOL    HW225532   6.025   2.608   4.893  0.4926  3.4429 -0.6927
 6440SOL    HW325533   6.144   2.530   4.944 -2.2917 -0.0621  0.9442
 6440SOL    MW425534   6.108   2.583   4.885 -0.1896  0.4915  0.0578
 6441SOL     OW25535   5.028   4.408   6.058 -0.5627 -0.0695 -0.0154
 6441SOL    HW225536   5.005   4.319   6.032 -0.8586 -0.2806  0.9363
 6441SOL    HW325537   5.107   4.428   6.007  0.7867 -1.6869  1.3227
 6441SOL    MW425538   5.036   4.399   6.048 -0.4237 -0.3107  0.2867
 6442SOL     OW25539   3.083   5.159   5.335 -0.5822  0.3291  0.3623
 6442SOL    HW225540   3.124   5.132   5.253 -1.6906 -0.2934 -0.0144
 6442SOL    HW325541   3.150   5.144   5.402 -0.0221 -0.1622 -0.2983
 6442SOL    MW425542   3.097   5.154   5.333 -0.6545  0.1821  0.2254
 6443SOL     OW25543   0.428   1.824   6.411  0.4319 -0.0931 -0.1150
 6443SOL    HW225544   0.372   1.788   6.342  1.5377 -1.8989 -0.1497
 6443SOL    HW325545   0.373   1.826   6.488  0.2772 -1.9256 -0.1248
 6443SOL    MW425546   0.413   1.819   6.412  0.5574 -0.5731 -0.1209
 6444SOL     OW25547   0.162   4.014   0.871 -1.2220  0.6856 -0.4304
 6444SOL    HW225548   0.222   4.065   0.817  1.5298  0.7743  2.3818
 6444SOL    HW325549   0.105   4.080   0.911  0.6012  1.4025  1.1691
 6444SOL    MW425550   0.162   4.030   0.869 -0.6184  0.7919  0.1517
 6445SOL     OW25551   1.249   5.689   3.325 -0.4175  0.7680  0.1391
 6445SOL    HW225552   1.159   5.656   3.322  0.2962 -1.4638  0.9393
 6445SOL    HW325553   1.255   5.734   3.409 -0.4896 -0.1287  0.6418
 6445SOL    MW425554   1.238   5.690   3.336 -0.3329  0.3553  0.3110
 6446SOL     OW25555   3.295   1.716   6.101  0.7856  0.3903 -0.6192
 6446SOL    HW225556   3.357   1.790   6.102  0.8400  0.3382  0.2052
 6446SOL    HW325557   3.327   1.657   6.168 -0.2923  0.4716 -0.0111
 6446SOL    MW425558   3.307   1.718   6.110  0.6506  0.3942 -0.4302
 6447SOL     OW25559   1.406   3.419   4.953 -0.3724  0.2054 -0.4010
 6447SOL    HW225560   1.348   3.426   4.877 -0.2512  0.1681 -0.4976
 6447SOL    HW325561   1.455   3.502   4.953  0.6344 -0.3662 -1.1924
 6447SOL    MW425562   1.405   3.431   4.943 -0.2236  0.1251 -0.5182
 6448SOL     OW25563   3.197   0.092   3.080 -0.9287  0.9136  0.4901
 6448SOL    HW225564   3.126   0.045   3.123 -0.3700 -0.5794 -0.1433
 6448SOL    HW325565   3.186   0.183   3.107 -1.6704  0.3278  2.3002
 6448SOL    MW425566   3.187   0.098   3.090 -0.9528  0.6393  0.6453
 6449SOL     OW25567   1.111   4.735   5.779  0.3355 -0.0627 -0.7522
 6449SOL    HW225568   1.138   4.659   5.727  0.1361 -0.0262 -0.9092
 6449SOL    HW325569   1.061   4.789   5.718  0.6809  0.3130 -0.7019
 6449SOL    MW425570   1.108   4.732   5.764  0.3548 -0.0083 -0.7663
 6450SOL     OW25571   4.018   5.307   1.956 -0.0181  0.4245  0.0606
 6450SOL    HW225572   4.104   5.277   1.983 -0.1639 -0.9533 -0.9365
 6450SOL    HW325573   3.961   5.289   2.031  0.4814  1.0503  0.6022
 6450SOL    MW425574   4.022   5.301   1.970  0.0286  0.3253  0.0005
 6451SOL     OW25575   2.739   3.134   1.720  0.2346 -0.2822 -0.5477
 6451SOL    HW225576   2.714   3.127   1.812 -3.9933  0.9749 -1.3954
 6451SOL    HW325577   2.792   3.213   1.715 -2.7406  1.9230  0.4048
 6451SOL    MW425578   2.742   3.143   1.732 -0.7157  0.1746 -0.5339
 6452SOL     OW25579   4.781   4.894   2.465  0.1237 -0.2318 -0.2470
 6452SOL    HW225580   4.834   4.904   2.544  1.2667 -0.4610 -0.9558
 6452SOL    HW325581   4.699   4.856   2.496  0.8676 -1.1167  0.7471
 6452SOL    MW425582   4.777   4.890   2.479  0.3727 -0.3788 -0.2093
 6453SOL     OW25583   2.500   4.421   5.832  0.1009  0.3895  0.2632
 6453SOL    HW225584   2.475   4.383   5.916 -0.2860 -0.9083 -0.4086
 6453SOL    HW325585   2.465   4.510   5.834 -0.6987  0.0692  1.1244
 6453SOL    MW425586   2.492   4.427   5.843 -0.0556  0.1760  0.2882
 6454SOL     OW25587   2.859   1.375   5.769 -0.0897  0.5676  0.1007
 6454SOL    HW225588   2.919   1.316   5.723  0.7902 -0.2811  2.1824
 6454SOL    HW325589   2.796   1.402   5.703  1.5072  0.0163 -1.7453
 6454SOL    MW425590   2.859   1.371   5.755  0.2371  0.3829  0.1318
 6455SOL     OW25591   6.347   1.432   2.676  0.3498 -0.1266 -0.3637
 6455SOL    HW225592   6.272   1.483   2.645 -1.4234 -2.6325 -0.4971
 6455SOL    HW325593   6.380   1.387   2.597 -0.3717 -1.8517  0.2673
 6455SOL    MW425594   6.341   1.433   2.661  0.0206 -0.6848 -0.2981
 6456SOL     OW25595   4.901   4.836   0.571  0.7995  0.5660 -0.4079
 6456SOL    HW225596   4.865   4.914   0.530  1.9474  1.4495  0.1983
 6456SOL    HW325597   4.825   4.788   0.603 -0.0103  0.7509 -1.9568
 6456SOL    MW425598   4.887   4.840   0.569  0.8441  0.7070 -0.5323
 6457SOL     OW25599   5.578   3.416   6.042 -0.0919  0.9694 -0.2052
 6457SOL    HW225600   5.672   3.414   6.061 -0.0357  2.9264 -0.0863
 6457SOL    HW325601   5.570   3.470   5.963 -0.9741 -0.9817 -1.5335
 6457SOL    MW425602   5.589   3.423   6.034 -0.2009  0.9702 -0.3648
 6458SOL     OW25603   2.342   3.915   0.718  0.6156  0.0123  0.0306
 6458SOL    HW225604   2.260   3.923   0.670 -0.2763  0.7636  1.6027
 6458SOL    HW325605   2.376   3.829   0.693 -0.8497 -0.4798 -0.3481
 6458SOL    MW425606   2.336   3.905   0.708  0.3046  0.0465  0.1881
 6459SOL     OW25607   3.451   5.815   0.813 -0.1785 -0.2522 -0.3531
 6459SOL    HW225608   3.508   5.792   0.886 -1.5063 -1.4375  0.3751
 6459SOL    HW325609   3.396   5.886   0.847 -0.9367 -0.9449 -0.1003
 6459SOL    MW425610   3.451   5.821   0.827 -0.4538 -0.4999 -0.2237
 6460SOL     OW25611   3.061   1.010   1.894 -0.0202  0.2183 -0.1522
 6460SOL    HW225612   3.060   0.924   1.937  0.3827  0.3913  0.2134
 6460SOL    HW325613   2.992   1.004   1.828 -0.2133 -0.2778  0.0840
 6460SOL    MW425614   3.052   0.998   1.891  0.0075  0.1757 -0.0728
 6461SOL     OW25615   3.356   3.641   4.516 -0.1253 -0.1918  0.1359
 6461SOL    HW225616   3.380   3.551   4.535  1.7963  0.5504  1.4879
 6461SOL    HW325617   3.402   3.661   4.434  0.7661  0.0113  0.6667
 6461SOL    MW425618   3.365   3.632   4.507  0.2458 -0.0671  0.3843
 6462SOL     OW25619   4.364   3.968   2.452  0.8370 -0.4764  0.1971
 6462SOL    HW225620   4.424   3.923   2.513  1.4212  0.7834  0.5762
 6462SOL    HW325621   4.407   4.052   2.434  0.2618 -0.4815 -1.3108
 6462SOL    MW425622   4.378   3.973   2.458  0.8382 -0.3109  0.0481
 6463SOL     OW25623   3.835   3.114   6.076 -0.1054 -0.0825 -0.0884
 6463SOL    HW225624   3.892   3.091   6.002 -0.5621 -1.8813  0.0896
 6463SOL    HW325625   3.749   3.080   6.052 -0.6927  0.9706  0.4652
 6463SOL    MW425626   3.831   3.107   6.063 -0.2431 -0.1809  0.0081
 6464SOL     OW25627   2.873   2.831   4.349  0.1323 -0.2707 -0.5375
 6464SOL    HW225628   2.862   2.896   4.418 -2.8481  0.7235 -1.7841
 6464SOL    HW325629   2.853   2.747   4.390  1.6503 -0.1619  0.5089
 6464SOL    MW425630   2.869   2.828   4.363 -0.0606 -0.1252 -0.5639
 6465SOL     OW25631   0.624   0.267   6.052  0.0069 -0.2366 -0.5064
 6465SOL    HW225632   0.719   0.270   6.040  0.5985 -1.3183  2.8690
 6465SOL    HW325633   0.611   0.274   6.146 -3.2453 -1.2398 -0.7391
 6465SOL    MW425634   0.635   0.268   6.063 -0.3442 -0.5117 -0.0918
 6466SOL     OW25635   1.454   1.659   3.350 -0.4373  0.2233  0.5526
 6466SOL    HW225636   1.457   1.676   3.444  2.8871  0.5821  0.5092
 6466SOL    HW325637   1.445   1.564   3.343  0.0003  0.1242  1.2655
 6466SOL    MW425638   1.454   1.648   3.361  0.0591  0.2576  0.6409
 6467SOL     OW25639   3.362   1.760   5.370  0.1784 -0.7915  0.4345
 6467SOL    HW225640   3.276   1.801   5.375  0.7856  0.5793  0.1679
 6467SOL    HW325641   3.377   1.746   5.276  0.2400 -1.0394  0.4803
 6467SOL    MW425642   3.353   1.763   5.358  0.2667 -0.6434  0.4053
 6468SOL     OW25643   3.648   5.733   2.543  0.2120 -0.2680 -0.0886
 6468SOL    HW225644   3.625   5.804   2.603  0.1297 -1.8367  1.8288
 6468SOL    HW325645   3.573   5.674   2.544  1.4723 -1.9723  0.8850
 6468SOL    MW425646   3.635   5.734   2.551  0.3675 -0.6999  0.2928
 6469SOL     OW25647   4.098   1.884   3.060 -0.1148 -0.0385 -0.1801
 6469SOL    HW225648   4.038   1.950   3.026  1.6402  1.1723 -1.0922
 6469SOL    HW325649   4.133   1.922   3.140 -0.9530 -0.9883  0.6632
 6469SOL    MW425650   4.095   1.898   3.066  0.0062 -0.0041 -0.1892
 6470SOL     OW25651   0.260   3.554   2.305  0.2732 -0.4075  0.2735
 6470SOL    HW225652   0.323   3.580   2.239 -0.7813 -1.5401 -1.2374
 6470SOL    HW325653   0.238   3.635   2.350 -0.9082  0.9275 -2.4882
 6470SOL    MW425654   0.265   3.568   2.303 -0.0218 -0.3808 -0.2903
 6471SOL     OW25655   0.882   4.212   2.417  0.3185 -0.1865 -0.3673
 6471SOL    HW225656   0.913   4.169   2.337 -0.2775 -0.3463 -0.5164
 6471SOL    HW325657   0.810   4.156   2.448  0.1767  0.1791 -0.0309
 6471SOL    MW425658   0.876   4.199   2.410  0.2212 -0.1594 -0.3426
 6472SOL     OW25659   1.050   5.613   1.584 -0.2147 -0.0459  0.0121
 6472SOL    HW225660   1.004   5.691   1.552 -0.8415 -0.1480  0.6532
 6472SOL    HW325661   0.999   5.584   1.659 -0.7007 -1.8041 -0.9426
 6472SOL    MW425662   1.037   5.620   1.590 -0.3615 -0.2913 -0.0293
 6473SOL     OW25663   3.541   3.689   4.316 -0.4205 -0.0519  0.1116
 6473SOL    HW225664   3.541   3.631   4.240 -0.2574  1.8625 -1.4546
 6473SOL    HW325665   3.600   3.760   4.291  1.2085 -0.3137  2.8635
 6473SOL    MW425666   3.549   3.691   4.302 -0.1840  0.1661  0.2680
 6474SOL     OW25667   5.305   0.445   5.926  0.0392 -0.2559  0.1416
 6474SOL    HW225668   5.238   0.442   5.858 -0.4065  2.8080  0.3048
 6474SOL    HW325669   5.258   0.425   6.007 -0.7038  1.7275  0.2370
 6474SOL    MW425670   5.290   0.442   5.927 -0.1176  0.4100  0.1757
 6475SOL     OW25671   2.005   4.709   2.492 -0.3507 -0.1132 -0.1903
 6475SOL    HW225672   1.987   4.803   2.503  1.0497  0.1620 -0.1031
 6475SOL    HW325673   1.973   4.669   2.572  2.0953  0.7674  1.3224
 6475SOL    MW425674   1.998   4.716   2.504  0.1568  0.0393  0.0208
 6476SOL     OW25675   1.421   5.233   4.549  0.6279  0.2005  0.1749
 6476SOL    HW225676   1.342   5.206   4.501 -0.0567  0.5506  1.0812
 6476SOL    HW325677   1.493   5.195   4.499 -0.1724 -1.0701 -0.0510
 6476SOL    MW425678   1.420   5.225   4.536  0.4320  0.0790  0.2647
 6477SOL     OW25679   6.298   1.167   0.490 -0.1389  0.4729  0.2491
 6477SOL    HW225680   6.310   1.119   0.572  1.0164  0.3141  0.0046
 6477SOL    HW325681   6.206   1.193   0.491 -1.1629 -2.7243 -0.1569
 6477SOL    MW425682   6.288   1.164   0.501 -0.1216  0.0301  0.1633
 6478SOL     OW25683   1.925   0.548   6.434  0.3655  0.2135 -0.2277
 6478SOL    HW225684   1.877   0.543   6.351 -1.1880  1.9599  0.4984
 6478SOL    HW325685   1.915   0.638   6.463  0.3444 -0.4771  2.1595
 6478SOL    MW425686   1.917   0.559   6.427  0.1578  0.3528  0.1831
 6479SOL     OW25687   5.903   5.040   6.003  0.3748  0.2549 -0.2385
 6479SOL    HW225688   5.912   5.124   6.047 -1.6019  0.7735 -0.7063
 6479SOL    HW325689   5.919   5.060   5.910 -0.3767  0.2012 -0.3893
 6479SOL    MW425690   5.906   5.054   5.996  0.0149  0.3162 -0.3201
 6480SOL     OW25691   3.808   2.906   1.296  0.2329 -0.7428  0.1426
 6480SOL    HW225692   3.781   2.967   1.227 -2.5361  0.5553  2.1664
 6480SOL    HW325693   3.834   2.827   1.249  0.2438  0.6596 -2.4295
 6480SOL    MW425694   3.808   2.904   1.280 -0.1310 -0.3865  0.0702
 6481SOL     OW25695   2.266   4.542   4.426 -0.3464 -0.3048  0.3622
 6481SOL    HW225696   2.178   4.547   4.464 -1.8073 -0.4977 -2.7124
 6481SOL    HW325697   2.291   4.450   4.435 -0.4361 -0.2625  1.1816
 6481SOL    MW425698   2.258   4.531   4.432 -0.5509 -0.3246  0.0647
 6482SOL     OW25699   6.207   1.379   0.675 -0.1391  0.0897 -0.4594
 6482SOL    HW225700   6.164   1.464   0.674 -2.3956 -0.9885 -1.6229
 6482SOL    HW325701   6.196   1.347   0.765  0.9755  1.0878  0.0639
 6482SOL    MW425702   6.200   1.386   0.687 -0.2898  0.0791 -0.5439
 6483SOL     OW25703   3.086   2.218   4.241 -0.7270  0.1984  0.1288
 6483SOL    HW225704   3.133   2.221   4.324 -0.4493  0.6604 -0.0409
 6483SOL    HW325705   3.154   2.227   4.174 -1.0843  1.2135 -0.1094
 6483SOL    MW425706   3.101   2.219   4.243 -0.7375  0.3933  0.0750
 6484SOL     OW25707   5.674   1.577   1.058  0.1695  0.6563  0.2593
 6484SOL    HW225708   5.749   1.519   1.074 -2.2468 -2.1440  2.7336
 6484SOL    HW325709   5.631   1.540   0.981 -0.1114  0.5082  0.4800
 6484SOL    MW425710   5.678   1.564   1.050 -0.1863  0.2673  0.6149
 6485SOL     OW25711   3.634   0.613   4.516 -0.0655  0.2265 -0.2464
 6485SOL    HW225712   3.548   0.578   4.540  0.4312 -0.1421  1.1140
 6485SOL    HW325713   3.622   0.649   4.428 -1.0335 -1.9292 -1.0864
 6485SOL    MW425714   3.621   0.613   4.507 -0.1277 -0.1065 -0.1777
 6486SOL     OW25715   3.675   2.155   3.214 -0.2870  0.1511 -0.1185
 6486SOL    HW225716   3.651   2.073   3.171 -1.0068  0.3993 -0.2171
 6486SOL    HW325717   3.642   2.146   3.304  2.0906 -0.7655  0.7180
 6486SOL    MW425718   3.667   2.143   3.220 -0.0683  0.0629 -0.0212
 6487SOL     OW25719   0.669   4.473   3.541 -0.2908 -0.2256  0.1778
 6487SOL    HW225720   0.724   4.507   3.611  0.5929 -0.1470 -0.5286
 6487SOL    HW325721   0.673   4.378   3.550 -0.7512 -0.2012  0.6552
 6487SOL    MW425722   0.677   4.465   3.551 -0.2350 -0.2120  0.1476
 6488SOL     OW25723   0.081   0.740   2.964 -0.0570 -0.3030 -0.3766
 6488SOL    HW225724   0.050   0.831   2.962  0.4138 -0.1457 -0.7048
 6488SOL    HW325725   0.011   0.692   3.009  0.1888  0.4103  0.8140
 6488SOL    MW425726   0.067   0.746   2.969  0.0375 -0.1881 -0.2628
 6489SOL     OW25727   0.489   1.113   1.801 -0.3061  0.2090  0.8666
 6489SOL    HW225728   0.451   1.028   1.776 -0.7807  0.3670  1.0284
 6489SOL    HW325729   0.564   1.090   1.856 -0.3169 -0.1101  0.7544
 6489SOL    MW425730   0.494   1.099   1.805 -0.3701  0.1878  0.8732
 6490SOL     OW25731   1.165   6.171   0.087  0.0535 -0.4689  0.2589
 6490SOL    HW225732   1.231   6.102   0.091  0.4461 -0.0759  0.5844
 6490SOL    HW325733   1.082   6.126   0.104  0.1264 -1.1024 -0.9024
 6490SOL    MW425734   1.163   6.156   0.090  0.1149 -0.5006  0.1487
 6491SOL     OW25735   4.909   3.358   1.307 -0.3972  0.0811 -0.3029
 6491SOL    HW225736   4.944   3.447   1.307  1.6883 -0.6856 -0.7777
 6491SOL    HW325737   4.835   3.361   1.247 -1.0546  1.7136  0.5241
 6491SOL    MW425738   4.904   3.370   1.299 -0.2088  0.1953 -0.2565
 6492SOL     OW25739   0.648   2.484   4.048  0.0825  0.1127  0.1552
 6492SOL    HW225740   0.602   2.463   4.129  1.5075  1.4074  1.3636
 6492SOL    HW325741   0.679   2.399   4.016 -2.1191 -0.6397 -0.1120
 6492SOL    MW425742   0.646   2.470   4.054 -0.0200  0.1843  0.2794
 6493SOL     OW25743   2.323   5.820   1.117  0.8642  0.2237 -0.9695
 6493SOL    HW225744   2.370   5.744   1.150 -1.3050 -0.6565  0.3561
 6493SOL    HW325745   2.311   5.803   1.023  2.4893  0.1437 -1.1794
 6493SOL    MW425746   2.328   5.808   1.109  0.7924  0.0970 -0.8223
 6494SOL     OW25747   4.929   4.647   4.501 -0.3251  0.0729  0.7945
 6494SOL    HW225748   4.846   4.601   4.488 -1.2807  1.1911  2.5294
 6494SOL    HW325749   4.996   4.585   4.474 -1.7351 -0.1159 -2.7996
 6494SOL    MW425750   4.926   4.633   4.495 -0.6372  0.1955  0.5492
 6495SOL     OW25751   3.610   1.139   5.926 -0.4027  0.1057 -0.0145
 6495SOL    HW225752   3.575   1.068   5.979 -0.3172  0.0523 -0.0302
 6495SOL    HW325753   3.590   1.218   5.975 -0.4846  0.0704  0.0103
 6495SOL    MW425754   3.602   1.140   5.939 -0.4022  0.0940 -0.0133
 6496SOL     OW25755   4.101   3.856   6.301  0.3107  0.5784 -0.6367
 6496SOL    HW225756   4.034   3.902   6.248  0.4815 -0.0553 -1.4205
 6496SOL    HW325757   4.163   3.925   6.324  0.2735  0.8612 -1.3350
 6496SOL    MW425758   4.100   3.871   6.297  0.3284  0.5321 -0.8323
 6497SOL     OW25759   1.573   0.817   2.204 -0.4998 -0.1939 -0.7558
 6497SOL    HW225760   1.650   0.809   2.147  0.2651  2.2583 -0.2171
 6497SOL    HW325761   1.574   0.737   2.256  3.2451  0.7283  0.9510
 6497SOL    MW425762   1.584   0.805   2.203  0.0952  0.2513 -0.4595
 6498SOL     OW25763   2.378   0.860   5.962  0.9445  0.4454 -0.2368
 6498SOL    HW225764   2.393   0.880   6.054  1.9653  0.5182 -0.4083
 6498SOL    HW325765   2.295   0.812   5.961  1.3477 -0.3004  0.8119
 6498SOL    MW425766   2.369   0.856   5.974  1.1324  0.3566 -0.1211
 6499SOL     OW25767   3.245   0.598   5.156 -0.2955 -0.8295 -0.7416
 6499SOL    HW225768   3.272   0.528   5.216 -0.9469  0.9383  1.7792
 6499SOL    HW325769   3.153   0.579   5.137 -0.7953 -0.1379  0.8281
 6499SOL    MW425770   3.236   0.586   5.161 -0.4474 -0.5050 -0.2019
 6500SOL     OW25771   1.227   0.085   5.348  0.4943 -0.7942  0.3162
 6500SOL    HW225772   1.210   0.152   5.414 -0.3636 -1.7091  1.0724
 6500SOL    HW325773   1.176   0.009   5.378  1.7139 -1.8986 -0.3010
 6500SOL    MW425774   1.218   0.084   5.361  0.5420 -1.0606  0.3346
 6501SOL     OW25775   0.278   3.195   2.195 -0.1454  0.3394 -0.2834
 6501SOL    HW225776   0.310   3.153   2.115 -0.9815 -0.3211 -0.2782
 6501SOL    HW325777   0.353   3.246   2.226  0.6544 -0.5397 -0.7084
 6501SOL    MW425778   0.292   3.196   2.188 -0.1502  0.1362 -0.3388
 6502SOL     OW25779   6.431   1.163   1.049 -0.0664 -0.6272  0.1933
 6502SOL    HW225780   6.415   1.200   1.136  1.6679  0.3654  0.1289
 6502SOL    HW325781   6.349   1.176   1.003  0.1268  2.3785  0.4884
 6502SOL    MW425782   6.418   1.170   1.055  0.1879 -0.0997  0.2237
 6503SOL     OW25783   1.152   3.455   0.962 -0.3556  0.0923  0.2647
 6503SOL    HW225784   1.069   3.444   1.009 -0.7304  1.5778  0.0036
 6503SOL    HW325785   1.205   3.511   1.018 -0.0714  0.3143 -0.2138
 6503SOL    MW425786   1.148   3.461   0.975 -0.3676  0.3176  0.1671
 6504SOL     OW25787   5.408   5.324   5.176  0.0462 -0.1949 -0.3213
 6504SOL    HW225788   5.396   5.398   5.118  0.8584 -0.5421 -0.9621
 6504SOL    HW325789   5.432   5.251   5.118 -0.5702 -0.9187  0.3068
 6504SOL    MW425790   5.410   5.324   5.161  0.0720 -0.3362 -0.3230
 6505SOL     OW25791   6.057   5.931   0.715 -0.1181  0.5449  0.1737
 6505SOL    HW225792   6.135   5.919   0.661  0.1778  0.8294  0.5264
 6505SOL    HW325793   6.015   5.846   0.715 -0.1397  0.5509 -0.5271
 6505SOL    MW425794   6.062   5.918   0.708 -0.0819  0.5833  0.1278
 6506SOL     OW25795   0.510   2.936   0.214  0.3008  0.4477  0.2491
 6506SOL    HW225796   0.445   2.999   0.183  0.3949 -0.0848 -1.1038
 6506SOL    HW325797   0.500   2.861   0.156  0.2025 -0.8006  1.8193
 6506SOL    MW425798   0.500   2.935   0.202  0.3003  0.2127  0.2778
 6507SOL     OW25799   2.128   4.054   4.197 -0.1353  0.1479  0.0053
 6507SOL    HW225800   2.114   4.130   4.140  0.1377 -1.3715 -2.2138
 6507SOL    HW325801   2.072   3.986   4.161 -0.7808 -0.6138  2.2679
 6507SOL    MW425802   2.119   4.055   4.185 -0.1845 -0.1531  0.0111
 6508SOL     OW25803   4.829   2.435   0.390  0.3465  0.3253 -0.5348
 6508SOL    HW225804   4.865   2.373   0.454 -0.0645  0.9167  0.2923
 6508SOL    HW325805   4.758   2.479   0.437  0.1806  0.9360 -1.3348
 6508SOL    MW425806   4.824   2.432   0.405  0.2704  0.4839 -0.5312
 6509SOL     OW25807   0.877   5.757   1.883  0.2500 -0.5735 -0.1309
 6509SOL    HW225808   0.863   5.788   1.794 -0.0118  2.2042  0.7774
 6509SOL    HW325809   0.966   5.784   1.904  0.1496 -0.7894  0.6055
 6509SOL    MW425810   0.887   5.765   1.874  0.2022 -0.2355  0.0861
 6510SOL     OW25811   2.837   0.146   3.557  0.3148  0.6556 -0.2427
 6510SOL    HW225812   2.746   0.169   3.539  0.2584  0.3344 -0.3671
 6510SOL    HW325813   2.878   0.229   3.583  0.5820  1.3062 -2.5150
 6510SOL    MW425814   2.831   0.160   3.558  0.3426  0.6991 -0.5589
 6511SOL     OW25815   0.964   2.285   5.186  0.9210  0.3573 -0.0779
 6511SOL    HW225816   0.883   2.243   5.159  1.1122  1.4709 -2.6580
 6511SOL    HW325817   0.937   2.371   5.218  0.8966 -0.2240  1.5814
 6511SOL    MW425818   0.950   2.291   5.187  0.9430  0.4275 -0.1994
 6512SOL     OW25819   3.952   3.808   4.575 -0.7290  0.0643  0.4012
 6512SOL    HW225820   3.953   3.772   4.486  0.3900  0.4734  0.2216
 6512SOL    HW325821   3.919   3.737   4.629 -2.1339  0.0568 -0.4324
 6512SOL    MW425822   3.948   3.794   4.570 -0.7667  0.1173  0.2675
 6513SOL     OW25823   4.781   2.973   5.697  0.5461  0.4161 -0.5294
 6513SOL    HW225824   4.727   2.953   5.773 -0.0716 -0.2039 -1.1215
 6513SOL    HW325825   4.832   3.050   5.724  1.2066 -0.4717  0.9403
 6513SOL    MW425826   4.781   2.980   5.711  0.5517  0.2172 -0.4136
 6514SOL     OW25827   2.432   5.005   1.948 -0.0593 -0.5701 -0.5490
 6514SOL    HW225828   2.396   4.974   2.030 -1.7596 -0.6984 -1.3085
 6514SOL    HW325829   2.373   4.971   1.881  0.8434  0.1752 -1.7647
 6514SOL    MW425830   2.420   4.997   1.950 -0.1645 -0.4887 -0.8096
 6515SOL     OW25831   2.553   1.113   4.248  0.6830 -0.2278 -0.4754
 6515SOL    HW225832   2.462   1.121   4.278  1.4023 -0.9410  2.2673
 6515SOL    HW325833   2.577   1.201   4.218 -1.1318 -0.2341 -2.0822
 6515SOL    MW425834   2.544   1.126   4.248  0.5385 -0.3227 -0.3256
 6516SOL     OW25835   3.209   1.226   6.080 -0.4955  0.2291  0.1851
 6516SOL    HW225836   3.233   1.168   6.153 -1.7282 -0.1386  0.3171
 6516SOL    HW325837   3.204   1.168   6.004 -0.9397  0.2984  0.1587
 6516SOL    MW425838   3.212   1.211   6.080 -0.7167  0.1897  0.1990
 6517SOL     OW25839   6.174   3.846   3.748  0.6253  0.1395  0.0146
 6517SOL    HW225840   6.175   3.933   3.707  0.8715  0.3534  0.4608
 6517SOL    HW325841   6.091   3.843   3.795  0.3524 -0.0976 -0.4785
 6517SOL    MW425842   6.163   3.857   3.749  0.6218  0.1364  0.0084
 6518SOL     OW25843   2.523   2.039   3.907  0.2783  0.4271  0.1339
 6518SOL    HW225844   2.557   2.108   3.850  0.1749  0.2296 -0.1709
 6518SOL    HW325845   2.576   1.962   3.887 -1.3783 -0.3484 -1.5703
 6518SOL    MW425846   2.534   2.038   3.897  0.0461  0.2987 -0.1311
 6519SOL     OW25847   6.013   5.420   3.568 -0.6327 -0.1850 -0.0445
 6519SOL    HW225848   5.943   5.485   3.557 -0.0458  0.4892  0.1463
 6519SOL    HW325849   6.086   5.470   3.605 -0.1740 -0.9597  0.0989
 6519SOL    MW425850   6.013   5.436   3.571 -0.4947 -0.1983 -0.0004
 6520SOL     OW25851   5.134   0.124   4.453  0.3021  0.0231  0.1844
 6520SOL    HW225852   5.206   0.121   4.390  0.4662  1.5094  0.2644
 6520SOL    HW325853   5.176   0.143   4.537 -0.1000 -0.0852  0.4152
 6520SOL    MW425854   5.149   0.126   4.456  0.2707  0.2049  0.2254
 6521SOL     OW25855   3.105   2.214   1.074 -0.1734 -1.0124 -0.4765
 6521SOL    HW225856   3.022   2.259   1.091 -0.4478 -2.0856  1.3945
 6521SOL    HW325857   3.108   2.203   0.979 -0.5508  1.9722 -0.9157
 6521SOL    MW425858   3.095   2.218   1.064 -0.2594 -0.7602 -0.2876
 6522SOL     OW25859   0.511   4.528   0.050  0.2162  0.2265  0.4260
 6522SOL    HW225860   0.447   4.533  -0.022  1.1798  2.6818 -0.3617
 6522SOL    HW325861   0.592   4.498   0.008  1.3131  3.4534 -0.0640
 6522SOL    MW425862   0.513   4.525   0.035  0.4881  0.9762  0.2574
 6523SOL     OW25863   1.452   5.942   2.538 -0.7141  0.1724 -0.1081
 6523SOL    HW225864   1.527   5.926   2.595  0.6155 -1.5444 -2.1549
 6523SOL    HW325865   1.391   5.872   2.559 -0.9094  0.4485  0.2515
 6523SOL    MW425866   1.454   5.931   2.548 -0.5645 -0.0177 -0.3307
 6524SOL     OW25867   3.953   3.490   0.203 -0.2493  0.2182 -0.3408
 6524SOL    HW225868   3.864   3.469   0.232  0.0563 -3.3924 -1.5516
 6524SOL    HW325869   3.941   3.528   0.116 -0.6316  0.0061 -0.3865
 6524SOL    MW425870   3.939   3.492   0.195 -0.2594 -0.2862 -0.5066
 6525SOL     OW25871   2.192   6.035   0.096  0.3822 -0.5459 -0.0825
 6525SOL    HW225872   2.287   6.049   0.102  0.3654  0.6805 -1.7342
 6525SOL    HW325873   2.175   6.033   0.002 -1.5710  2.1215  0.1112
 6525SOL    MW425874   2.202   6.037   0.084  0.1222 -0.0322 -0.2749
 6526SOL     OW25875   2.198   5.312   5.278  0.3006  0.5862 -0.2897
 6526SOL    HW225876   2.150   5.378   5.230 -0.0985  1.6281  1.4621
 6526SOL    HW325877   2.265   5.360   5.327 -1.0635  0.0027  2.3504
 6526SOL    MW425878   2.201   5.327   5.278  0.0679  0.6467  0.2898
 6527SOL     OW25879   3.189   3.832   4.260  0.0655 -0.2735 -0.1034
 6527SOL    HW225880   3.169   3.911   4.208 -2.2340  0.3030  1.4774
 6527SOL    HW325881   3.251   3.862   4.326 -0.0663 -0.0004 -0.0992
 6527SOL    MW425882   3.194   3.846   4.261 -0.2553 -0.1614  0.1057
 6528SOL     OW25883   2.176   2.106   4.945 -0.3504 -0.0929 -0.0447
 6528SOL    HW225884   2.124   2.174   4.904 -1.0625  0.0083  0.9832
 6528SOL    HW325885   2.158   2.027   4.894 -1.4973 -0.0457  0.2679
 6528SOL    MW425886   2.167   2.104   4.933 -0.5956 -0.0733  0.1322
 6529SOL     OW25887   3.772   2.019   2.340 -0.0093  0.0376 -0.4386
 6529SOL    HW225888   3.830   2.060   2.276  0.1446  0.3901 -0.0747
 6529SOL    HW325889   3.802   1.928   2.344  0.0557  0.0425 -0.7787
 6529SOL    MW425890   3.784   2.012   2.333  0.0196  0.0848 -0.4354
 6530SOL     OW25891   4.420   1.338   5.095  0.2158 -0.0998 -0.3600
 6530SOL    HW225892   4.347   1.297   5.141 -0.8116  0.4490 -1.4320
 6530SOL    HW325893   4.407   1.314   5.003  0.0922  1.8100 -0.8960
 6530SOL    MW425894   4.409   1.329   5.089  0.0639  0.2246 -0.5721
 6531SOL     OW25895   5.268   3.736   0.891  0.0825 -0.0639 -0.3601
 6531SOL    HW225896   5.327   3.661   0.883 -0.5454 -0.5262 -0.8000
 6531SOL    HW325897   5.299   3.783   0.969  0.3550 -0.9056  0.0559
 6531SOL    MW425898   5.279   3.732   0.900  0.0356 -0.2359 -0.3633
 6532SOL     OW25899   3.402   5.363   0.602  0.0331  0.9162  0.1876
 6532SOL    HW225900   3.419   5.420   0.677  2.3215  0.9202 -0.2679
 6532SOL    HW325901   3.364   5.284   0.641  1.8662  0.6132  1.4745
 6532SOL    MW425902   3.399   5.360   0.617  0.5769  0.8768  0.2973
 6533SOL     OW25903   6.199   3.796   0.027  0.1292  0.3051 -0.1492
 6533SOL    HW225904   6.148   3.720  -0.001  0.9405 -0.2797 -0.0790
 6533SOL    HW325905   6.156   3.871  -0.014 -0.3244 -0.2512 -0.7046
 6533SOL    MW425906   6.187   3.796   0.018  0.1764  0.1546 -0.2132
 6534SOL     OW25907   0.306   1.386   6.392  0.2591  0.4150  0.0301
 6534SOL    HW225908   0.375   1.420   6.335  0.0104 -1.1283 -1.2912
 6534SOL    HW325909   0.322   1.292   6.395 -0.6155  0.2878  1.3518
 6534SOL    MW425910   0.317   1.378   6.385  0.1109  0.1946  0.0302
 6535SOL     OW25911   0.407   5.634   3.479 -0.0201 -0.1442 -0.5234
 6535SOL    HW225912   0.365   5.549   3.465  1.1029 -0.5999 -1.2666
 6535SOL    HW325913   0.444   5.628   3.568  0.1038 -0.4613 -0.5938
 6535SOL    MW425914   0.407   5.622   3.489  0.1444 -0.2462 -0.6308
 6536SOL     OW25915   1.010   4.387   2.196  0.3523 -0.0419 -0.4316
 6536SOL    HW225916   0.960   4.307   2.185 -0.6431  0.6582 -1.2338
 6536SOL    HW325917   1.090   4.360   2.241  0.6865 -1.7050 -1.9357
 6536SOL    MW425918   1.014   4.373   2.201  0.2651 -0.1690 -0.7359
 6537SOL     OW25919   2.119   0.322   1.694  0.2547 -0.3361 -0.6567
 6537SOL    HW225920   2.128   0.241   1.743 -0.2975  0.3643  0.6713
 6537SOL    HW325921   2.158   0.304   1.609  0.9250 -1.7115 -0.0801
 6537SOL    MW425922   2.125   0.309   1.690  0.2703 -0.4251 -0.4054
 6538SOL     OW25923   0.846   2.419   4.866 -0.7638  0.6327 -0.2543
 6538SOL    HW225924   0.836   2.450   4.956 -0.6465 -1.2905  0.4677
 6538SOL    HW325925   0.902   2.484   4.824 -0.9503  1.6476  1.0045
 6538SOL    MW425926   0.852   2.432   4.872 -0.7729  0.5128  0.0070
 6539SOL     OW25927   2.877   1.980   0.730  0.0186  0.0724  0.4110
 6539SOL    HW225928   2.825   2.033   0.790  0.5444  0.4329  0.5593
 6539SOL    HW325929   2.938   1.933   0.787  0.6013  0.5045  0.1574
 6539SOL    MW425930   2.878   1.981   0.745  0.1649  0.1770  0.3971
 6540SOL     OW25931   5.693   4.471   5.203  0.7774  0.0313  0.3066
 6540SOL    HW225932   5.682   4.482   5.109 -0.8853 -1.0149  0.3337
 6540SOL    HW325933   5.779   4.509   5.222  1.9519 -1.2732 -1.9088
 6540SOL    MW425934   5.703   4.477   5.193  0.7130 -0.2789  0.0179
 6541SOL     OW25935   5.920   3.750   5.274 -0.0682 -0.3611 -0.3172
 6541SOL    HW225936   6.012   3.772   5.284 -0.3269  1.8083 -2.0340
 6541SOL    HW325937   5.885   3.752   5.363  1.3347 -0.2939  0.2538
 6541SOL    MW425938   5.927   3.753   5.287  0.0828 -0.0660 -0.4684
 6542SOL     OW25939   4.353   3.423   5.980  0.1452 -0.9332 -0.1565
 6542SOL    HW225940   4.312   3.461   6.057  0.2290 -1.0760 -0.0395
 6542SOL    HW325941   4.399   3.346   6.014  4.0217  1.4063  0.5099
 6542SOL    MW425942   4.354   3.418   5.995  0.6677 -0.6433 -0.0531
 6543SOL     OW25943   5.753   0.804   2.383 -0.1488 -0.1349  0.1556
 6543SOL    HW225944   5.736   0.865   2.311 -1.8034  0.0423  0.6499
 6543SOL    HW325945   5.756   0.718   2.342 -3.0617 -0.2716  0.0379
 6543SOL    MW425946   5.751   0.801   2.368 -0.7514 -0.1295  0.2053
 6544SOL     OW25947   1.616   4.887   5.100 -0.3414  0.8278 -0.0222
 6544SOL    HW225948   1.574   4.871   5.016  0.1393  0.7810 -0.2558
 6544SOL    HW325949   1.558   4.949   5.144 -0.6520  0.7662 -0.3439
 6544SOL    MW425950   1.603   4.893   5.095 -0.3190  0.8135 -0.0955
 6545SOL     OW25951   6.307   4.648   2.696  0.0579  0.1924 -0.5749
 6545SOL    HW225952   6.394   4.622   2.727  0.8627  0.1179 -2.7331
 6545SOL    HW325953   6.286   4.726   2.747  0.3170 -1.0848  1.6336
 6545SOL    MW425954   6.316   4.655   2.707  0.1983  0.0141 -0.5683
 6546SOL     OW25955   4.953   0.556   3.662  0.0338 -0.0977 -0.0524
 6546SOL    HW225956   4.968   0.502   3.739 -0.7937  0.7088  0.6882
 6546SOL    HW325957   4.960   0.646   3.693  0.7377  0.2475 -1.1360
 6546SOL    MW425958   4.956   0.561   3.676  0.0175  0.0543 -0.0977
 6547SOL     OW25959   4.852   3.774   5.425  0.1853  0.8824 -0.1653
 6547SOL    HW225960   4.931   3.815   5.461 -0.0903 -0.0475  1.6269
 6547SOL    HW325961   4.785   3.842   5.430  0.0782  0.7043  1.4696
 6547SOL    MW425962   4.853   3.789   5.430  0.1348  0.7363  0.2868
 6548SOL     OW25963   1.951   0.815   2.779 -0.0817  0.3133  0.1855
 6548SOL    HW225964   1.897   0.867   2.718 -1.4066 -1.6286 -0.4183
 6548SOL    HW325965   2.002   0.757   2.722 -1.6282 -1.8154  0.8227
 6548SOL    MW425966   1.950   0.814   2.763 -0.4605 -0.2237  0.1899
 6549SOL     OW25967   4.138   3.902   3.434 -0.2537 -0.8177 -0.6308
 6549SOL    HW225968   4.074   3.973   3.441  2.0635  1.4004 -0.5929
 6549SOL    HW325969   4.169   3.889   3.524 -0.4356 -1.6741 -0.6884
 6549SOL    MW425970   4.134   3.910   3.447  0.0280 -0.6380 -0.6334
 6550SOL     OW25971   0.895   1.119   5.084  0.3795 -0.2495  0.5755
 6550SOL    HW225972   0.953   1.164   5.023 -2.0329  0.9401 -1.0101
 6550SOL    HW325973   0.909   1.026   5.066  0.8298  0.0499 -0.7140
 6550SOL    MW425974   0.905   1.113   5.074  0.1206 -0.0531  0.1962
 6551SOL     OW25975   1.151   5.814   1.926  0.4093  0.8529 -0.3292
 6551SOL    HW225976   1.167   5.838   2.017  1.6185  0.0019 -0.2881
 6551SOL    HW325977   1.236   5.825   1.883  0.1534  0.0854 -1.0674
 6551SOL    MW425978   1.165   5.818   1.932  0.5351  0.6394 -0.4212
 6552SOL     OW25979   3.109   3.651   0.421 -0.0282  0.1581  0.5420
 6552SOL    HW225980   3.046   3.686   0.358  2.2233  1.5544 -1.0717
 6552SOL    HW325981   3.118   3.559   0.397 -0.3211  0.3110 -0.1621
 6552SOL    MW425982   3.102   3.643   0.410  0.2302  0.3625  0.2362
 6553SOL     OW25983   4.728   2.812   1.273  0.7923 -0.0125  0.0616
 6553SOL    HW225984   4.745   2.793   1.365 -0.4383  1.0205  0.5395
 6553SOL    HW325985   4.799   2.870   1.247  0.4350  0.7491  0.7520
 6553SOL    MW425986   4.740   2.817   1.282  0.5828  0.2243  0.2158
 6554SOL     OW25987   0.167   1.700   6.268  0.3312 -0.6484 -0.1514
 6554SOL    HW225988   0.135   1.617   6.231  0.2001  0.1064 -1.8135
 6554SOL    HW325989   0.088   1.746   6.296  0.3155 -0.6389 -0.2112
 6554SOL    MW425990   0.152   1.695   6.267  0.3118 -0.5475 -0.3786
 6555SOL     OW25991   2.764   1.089   5.609 -0.1508 -0.1787 -0.8391
 6555SOL    HW225992   2.692   1.133   5.564  1.0051  2.9577  0.0715
 6555SOL    HW325993   2.842   1.112   5.558  0.7881  0.9274  0.9897
 6555SOL    MW425994   2.765   1.098   5.597  0.1256  0.3810 -0.4777
 6556SOL     OW25995   2.729   3.326   3.409 -0.4298 -0.5734 -0.2106
 6556SOL    HW225996   2.743   3.397   3.347 -1.1338 -0.3491 -0.1213
 6556SOL    HW325997   2.681   3.259   3.359  1.2899 -1.5366 -0.6506
 6556SOL    MW425998   2.724   3.326   3.394 -0.2958 -0.6709 -0.2568
 6557SOL     OW25999   0.276   3.342   0.715  0.0225  0.0054 -0.4303
 6557SOL    HW226000   0.332   3.331   0.639  1.0872 -0.7604  0.4292
 6557SOL    HW326001   0.188   3.326   0.683  0.4003  0.1919 -1.5952
 6557SOL    MW426002   0.272   3.338   0.701  0.2128 -0.0710 -0.4706
 6558SOL     OW26003   1.870   3.509   4.093 -0.5990  0.6934  0.1700
 6558SOL    HW226004   1.807   3.451   4.135  0.4924  0.0034  0.8911
 6558SOL    HW326005   1.851   3.596   4.130 -1.9148  0.7398 -0.5554
 6558SOL    MW426006   1.859   3.513   4.104 -0.6286  0.6085  0.1695
 6559SOL     OW26007   0.181   3.631   3.834  0.1781 -0.3975  0.3512
 6559SOL    HW226008   0.266   3.663   3.864  0.5099 -1.0988  0.1766
 6559SOL    HW326009   0.144   3.704   3.784  0.4666  0.0803  0.8287
 6559SOL    MW426010   0.187   3.645   3.831  0.2600 -0.4269  0.3912
 6560SOL     OW26011   3.186   5.956   1.564 -0.5927  0.3120  0.6819
 6560SOL    HW226012   3.157   6.020   1.629  0.7614  3.3917 -1.5237
 6560SOL    HW326013   3.159   5.993   1.480  0.6135 -1.8369 -0.7369
 6560SOL    MW426014   3.179   5.969   1.562 -0.2549  0.4348  0.2037
 6561SOL     OW26015   4.036   0.420   4.053  0.7476 -0.1698 -0.2021
 6561SOL    HW226016   4.003   0.392   3.967  0.7877 -2.0183  0.3474
 6561SOL    HW326017   3.964   0.469   4.092  1.1266  1.7500 -1.7114
 6561SOL    MW426018   4.022   0.423   4.046  0.8029 -0.1604 -0.3287
 6562SOL     OW26019   0.631   2.651   5.738  0.3967 -0.1111 -0.1504
 6562SOL    HW226020   0.538   2.673   5.731  1.0811  2.7287 -1.8628
 6562SOL    HW326021   0.663   2.706   5.809  1.0059 -0.1310 -0.4028
 6562SOL    MW426022   0.623   2.661   5.747  0.5674  0.2610 -0.4096
 6563SOL     OW26023   2.432   2.446   2.891  0.5851  0.5811  1.0408
 6563SOL    HW226024   2.400   2.486   2.971  0.3302 -0.9863  1.7603
 6563SOL    HW326025   2.483   2.514   2.848 -1.0160  2.1191  1.4828
 6563SOL    MW426026   2.434   2.460   2.896  0.3402  0.5772  1.1941
 6564SOL     OW26027   3.106   1.264   0.939 -0.4360 -0.0213  0.0903
 6564SOL    HW226028   3.083   1.357   0.951 -0.6356 -0.1143  0.4467
 6564SOL    HW326029   3.029   1.226   0.896 -0.5192 -0.1067  0.3132
 6564SOL    MW426030   3.093   1.271   0.935 -0.4733 -0.0448  0.1668
 6565SOL     OW26031   0.967   2.349   5.575 -0.0585  0.1469 -0.2050
 6565SOL    HW226032   1.043   2.402   5.601 -0.1294 -0.1144  0.5561
 6565SOL    HW326033   0.910   2.350   5.652  0.0198 -1.1593 -0.1047
 6565SOL    MW426034   0.970   2.356   5.589 -0.0575 -0.0599 -0.0913
 6566SOL     OW26035   4.438   5.675   5.990 -0.1435  0.2062  0.1033
 6566SOL    HW226036   4.515   5.627   6.018 -0.6376 -0.8590 -0.2842
 6566SOL    HW326037   4.460   5.708   5.903 -0.1181 -0.1021 -0.0089
 6566SOL    MW426038   4.451   5.673   5.982 -0.2053  0.0250  0.0373
 6567SOL     OW26039   6.110   4.728   6.282  0.2135 -0.4574  0.2342
 6567SOL    HW226040   6.136   4.658   6.222 -0.3531 -1.1966  0.8272
 6567SOL    HW326041   6.029   4.763   6.244  1.3414  0.9951 -0.9328
 6567SOL    MW426042   6.103   4.723   6.269  0.2876 -0.3633  0.1584
 6568SOL     OW26043   3.025   0.674   0.544  0.2257  0.2641 -0.6103
 6568SOL    HW226044   3.083   0.661   0.619 -0.8559  0.7963  0.3548
 6568SOL    HW326045   2.995   0.586   0.521  0.7719  0.0711 -0.5860
 6568SOL    MW426046   3.028   0.661   0.551  0.1551  0.3089 -0.4798
 6569SOL     OW26047   4.705   2.842   0.737  0.1608  0.4092  0.1696
 6569SOL    HW226048   4.624   2.827   0.784  0.6064 -2.2535  0.2112
 6569SOL    HW326049   4.686   2.820   0.646  0.7053  0.2348  0.0908
 6569SOL    MW426050   4.692   2.837   0.731  0.2915  0.0349  0.1647
 6570SOL     OW26051   3.731   1.450   3.624  0.6492  0.3090  0.4082
 6570SOL    HW226052   3.636   1.449   3.614  0.6134  1.5893  0.4647
 6570SOL    HW326053   3.750   1.379   3.686 -0.2667  0.0824  0.4381
 6570SOL    MW426054   3.721   1.440   3.631  0.5236  0.4480  0.4196
 6571SOL     OW26055   1.381   3.292   6.071 -0.7469  0.0042  0.6029
 6571SOL    HW226056   1.356   3.375   6.031  0.0483  0.0708  0.2244
 6571SOL    HW326057   1.299   3.245   6.083 -1.2657  1.0543  1.3154
 6571SOL    MW426058   1.367   3.296   6.067 -0.7104  0.1515  0.6470
 6572SOL     OW26059   3.175   2.697   5.200 -0.3081 -0.2967 -0.2807
 6572SOL    HW226060   3.183   2.775   5.145 -4.4737  0.5435 -0.0345
 6572SOL    HW326061   3.205   2.726   5.286 -1.0697  0.8602 -0.3716
 6572SOL    MW426062   3.180   2.711   5.204 -0.9582 -0.0332 -0.2602
 6573SOL     OW26063   0.160   2.758   2.832  0.8899 -0.6431 -0.1106
 6573SOL    HW226064   0.115   2.733   2.751 -0.7651 -0.9561  0.8575
 6573SOL    HW326065   0.197   2.676   2.865 -1.1747 -1.2109  1.0308
 6573SOL    MW426066   0.159   2.744   2.826  0.3991 -0.7593  0.1677
 6574SOL     OW26067   3.975   5.909   3.375  0.2212 -0.6209 -0.0092
 6574SOL    HW226068   4.011   5.821   3.368 -0.7450 -0.8896 -3.2262
 6574SOL    HW326069   3.884   5.901   3.345  0.0737  1.4297 -0.2907
 6574SOL    MW426070   3.968   5.896   3.370  0.0743 -0.3858 -0.4708
 6575SOL     OW26071   2.378   2.289   5.446 -0.0882  0.2065 -0.6391
 6575SOL    HW226072   2.301   2.343   5.428 -0.3657 -0.2887 -0.9517
 6575SOL    HW326073   2.452   2.349   5.437 -0.4378  0.6886 -0.3184
 6575SOL    MW426074   2.378   2.304   5.442 -0.1709  0.2048 -0.6380
 6576SOL     OW26075   0.953   4.789   2.719  0.7106  0.2356  0.8865
 6576SOL    HW226076   0.863   4.822   2.724  0.5361  0.1898 -1.1468
 6576SOL    HW326077   0.947   4.698   2.750  0.2060  0.4464  1.4307
 6576SOL    MW426078   0.940   4.781   2.724  0.6210  0.2574  0.6901
 6577SOL     OW26079   3.057   4.934   4.622  0.7217  0.3380  0.2401
 6577SOL    HW226080   2.991   4.993   4.585 -0.2678  0.4136  2.0362
 6577SOL    HW326081   3.021   4.846   4.609 -0.4064  0.4359  2.3516
 6577SOL    MW426082   3.044   4.930   4.615  0.4423  0.3609  0.7556
 6578SOL     OW26083   5.947   1.085   5.907  0.4107 -0.3069  0.2092
 6578SOL    HW226084   6.014   1.105   5.972  0.8597 -0.1852 -0.2769
 6578SOL    HW326085   5.924   1.170   5.869  1.0298 -0.4937 -0.6207
 6578SOL    MW426086   5.953   1.099   5.910  0.5516 -0.3155  0.0356
 6579SOL     OW26087   3.457   0.295   2.581 -0.2910  0.1550 -0.2036
 6579SOL    HW226088   3.527   0.355   2.607  1.1260 -0.9191 -1.4112
 6579SOL    HW326089   3.403   0.286   2.660  2.8635 -1.6627  1.9996
 6579SOL    MW426090   3.459   0.302   2.595  0.3122 -0.2266 -0.0723
 6580SOL     OW26091   0.077   1.429   3.954 -0.5540  0.0547 -0.5187
 6580SOL    HW226092   0.153   1.483   3.975 -0.7791  0.8174 -1.5820
 6580SOL    HW326093   0.107   1.372   3.883 -1.1961  0.9534 -1.5378
 6580SOL    MW426094   0.091   1.429   3.947 -0.6684  0.2739 -0.7935
 6581SOL     OW26095   2.167   0.174   4.255 -0.3131  0.1236  0.0684
 6581SOL    HW226096   2.203   0.198   4.170  1.8963  1.5524  1.2834
 6581SOL    HW326097   2.151   0.257   4.299  2.4122 -0.4178  2.4444
 6581SOL    MW426098   2.170   0.188   4.250  0.3380  0.2407  0.5422
 6582SOL     OW26099   2.475   3.960   3.573 -0.1385  0.2387  0.0264
 6582SOL    HW226100   2.559   3.984   3.613  0.3543 -0.8091 -0.3401
 6582SOL    HW326101   2.476   4.003   3.488  0.6307 -0.8433 -0.5274
 6582SOL    MW426102   2.486   3.969   3.567  0.0280 -0.0423 -0.0950
 6583SOL     OW26103   1.524   0.146   4.366  0.2985  0.8856 -0.2686
 6583SOL    HW226104   1.533   0.056   4.397  1.8885 -0.0380 -2.9942
 6583SOL    HW326105   1.430   0.158   4.353 -0.1122  0.3037  1.8423
 6583SOL    MW426106   1.513   0.135   4.368  0.4541  0.6870 -0.3497
 6584SOL     OW26107   5.277   2.609   4.902 -0.0441  0.5510  0.2271
 6584SOL    HW226108   5.219   2.643   4.970 -0.5135 -1.8120  1.0792
 6584SOL    HW326109   5.308   2.525   4.936  0.3945 -0.3056 -2.1151
 6584SOL    MW426110   5.274   2.602   4.915 -0.0482  0.1262  0.0305
 6585SOL     OW26111   4.203   6.111   1.760  0.3416  0.3016 -0.5524
 6585SOL    HW226112   4.168   6.033   1.717 -1.1899  0.5136  0.2459
 6585SOL    HW326113   4.163   6.184   1.712 -1.2092  0.5458  0.9936
 6585SOL    MW426114   4.193   6.111   1.748 -0.0651  0.3618 -0.2431
 6586SOL     OW26115   3.911   3.085   4.124  0.4561  0.0318 -0.1270
 6586SOL    HW226116   3.839   3.105   4.184 -0.3491  0.2699 -1.1504
 6586SOL    HW326117   3.880   3.113   4.038  1.2420 -1.1119 -0.8118
 6586SOL    MW426118   3.898   3.091   4.121  0.4536 -0.0877 -0.3524
 6587SOL     OW26119   4.533   3.015   1.341  0.2300 -0.4462 -0.0006
 6587SOL    HW226120   4.595   2.958   1.297 -0.6262 -1.5365  0.1612
 6587SOL    HW326121   4.554   3.008   1.434 -0.7066 -1.5717  0.1501
 6587SOL    MW426122   4.544   3.007   1.348 -0.0066 -0.7386  0.0406
 6588SOL     OW26123   0.786   2.320   1.209  0.4996 -0.3716  0.4748
 6588SOL    HW226124   0.750   2.295   1.294  0.1143  1.8354  1.0008
 6588SOL    HW326125   0.717   2.372   1.167  1.5267  0.4781 -0.2169
 6588SOL    MW426126   0.772   2.323   1.214  0.5843  0.0317  0.4529
 6589SOL     OW26127   3.341   0.243   4.999  0.1497  0.2093 -0.2767
 6589SOL    HW226128   3.246   0.244   4.986 -0.0758 -0.8644  1.0748
 6589SOL    HW326129   3.366   0.152   4.983  0.5585 -0.0849  1.8237
 6589SOL    MW426130   3.332   0.231   4.995  0.1739  0.0288  0.1787
 6590SOL     OW26131   5.444   2.105   5.101  0.6381 -0.4853  0.0523
 6590SOL    HW226132   5.399   2.029   5.139  0.4569 -0.7662 -0.6966
 6590SOL    HW326133   5.524   2.115   5.153 -0.2977  0.0540  1.4443
 6590SOL    MW426134   5.448   2.096   5.113  0.4907 -0.4512  0.1372
 6591SOL     OW26135   5.091   3.972   0.566  0.3472  0.0584  0.0014
 6591SOL    HW226136   5.067   3.888   0.605  1.4975 -0.8170 -1.0738
 6591SOL    HW326137   5.009   4.021   0.562 -0.6188 -1.5112 -0.4910
 6591SOL    MW426138   5.077   3.967   0.571  0.3715 -0.2642 -0.2054
 6592SOL     OW26139   5.101   2.435   4.292  0.4354 -0.1141  0.1151
 6592SOL    HW226140   5.101   2.354   4.344  0.5976  0.2397  0.6702
 6592SOL    HW326141   5.051   2.413   4.214 -0.8673 -0.2887  0.9749
 6592SOL    MW426142   5.095   2.421   4.289  0.2849 -0.0904  0.3018
 6593SOL     OW26143   3.370   1.280   1.031  0.6035  0.1554  0.4096
 6593SOL    HW226144   3.314   1.235   1.095  0.1596  0.8985  0.5481
 6593SOL    HW326145   3.315   1.293   0.955  0.6875  0.5841  0.4199
 6593SOL    MW426146   3.356   1.276   1.030  0.5560  0.3100  0.4293
 6594SOL     OW26147   2.620   0.279   3.050 -0.8576 -0.4279  0.8524
 6594SOL    HW226148   2.660   0.194   3.031  0.3142 -0.2218  2.1871
 6594SOL    HW326149   2.695   0.339   3.059 -1.6966  1.0300 -1.1753
 6594SOL    MW426150   2.635   0.276   3.049 -0.8137 -0.2084  0.7610
 6595SOL     OW26151   4.599   0.838   4.780  1.0052 -0.3816  0.1203
 6595SOL    HW226152   4.691   0.853   4.758  0.8692  0.1994 -0.0693
 6595SOL    HW326153   4.594   0.744   4.800  2.1812  0.0291  2.7908
 6595SOL    MW426154   4.610   0.827   4.779  1.1424 -0.2508  0.4476
 6596SOL     OW26155   3.936   0.050   1.291 -0.2719 -0.4804  0.1750
 6596SOL    HW226156   3.970  -0.036   1.315  2.5780  0.2446 -0.8052
 6596SOL    HW326157   3.981   0.110   1.351 -1.7287  0.3908  0.4279
 6596SOL    MW426158   3.947   0.047   1.302 -0.0881 -0.2698  0.0790
 6597SOL     OW26159   4.932   6.345   4.450 -0.5562  0.0986 -0.1462
 6597SOL    HW226160   5.024   6.373   4.448 -0.3055 -0.4774  1.7709
 6597SOL    HW326161   4.935   6.253   4.473 -1.6163 -0.0727 -0.6355
 6597SOL    MW426162   4.945   6.337   4.453 -0.6630 -0.0000  0.0422
 6598SOL     OW26163   0.325   5.195   4.425 -0.4771 -0.4203 -0.1836
 6598SOL    HW226164   0.394   5.129   4.421  1.3106  1.3470 -0.4295
 6598SOL    HW326165   0.284   5.182   4.511 -1.1125 -2.6587 -0.7632
 6598SOL    MW426166   0.329   5.185   4.436 -0.3250 -0.4824 -0.2925
 6599SOL     OW26167   4.324   0.880   6.116  0.4877  0.1337 -0.0820
 6599SOL    HW226168   4.258   0.872   6.185  2.3268  0.3866  1.8004
 6599SOL    HW326169   4.291   0.825   6.044 -0.4049 -2.0139  1.8654
 6599SOL    MW426170   4.311   0.872   6.115  0.6126 -0.1162  0.4233
 6600SOL     OW26171   4.399   6.155   5.062 -0.4550 -0.1917  0.1660
 6600SOL    HW226172   4.376   6.217   4.993 -0.0134 -1.7577 -1.4792
 6600SOL    HW326173   4.463   6.202   5.116 -0.5332  0.9626 -0.7039
 6600SOL    MW426174   4.404   6.170   5.060 -0.4071 -0.2460 -0.1658
 6601SOL     OW26175   4.580   2.488   2.216 -0.6780 -0.0717  0.0114
 6601SOL    HW226176   4.496   2.495   2.260 -0.8249  2.3752 -0.4868
 6601SOL    HW326177   4.644   2.515   2.282 -0.5648  0.4258 -0.2908
 6601SOL    MW426178   4.578   2.493   2.230 -0.6825  0.3168 -0.0942
 6602SOL     OW26179   4.151   4.815   5.168  0.9645 -0.1353 -0.5551
 6602SOL    HW226180   4.231   4.867   5.174  0.0274  1.5055 -1.5866
 6602SOL    HW326181   4.115   4.836   5.082 -0.7570 -0.5645  0.0092
 6602SOL    MW426182   4.157   4.824   5.157  0.6138  0.0246 -0.6167
 6603SOL     OW26183   5.166   0.697   1.353  0.0712 -0.1550 -0.8209
 6603SOL    HW226184   5.210   0.727   1.433 -1.8523  2.1304 -0.5147
 6603SOL    HW326185   5.095   0.759   1.341 -0.5976 -1.3422 -3.5252
 6603SOL    MW426186   5.163   0.709   1.362 -0.2708 -0.0101 -1.1373
 6604SOL     OW26187   0.611   6.349   3.593  0.4414  0.0082  0.0840
 6604SOL    HW226188   0.539   6.289   3.571  0.3500 -0.4561  1.5140
 6604SOL    HW326189   0.578   6.399   3.667  1.5243 -0.1064  0.6656
 6604SOL    MW426190   0.597   6.348   3.600  0.5722 -0.0682  0.3494
 6605SOL     OW26191   0.643   4.893   4.246 -0.0404 -0.4670  0.0325
 6605SOL    HW226192   0.588   4.867   4.319 -1.6758  2.3679 -0.0208
 6605SOL    HW326193   0.583   4.901   4.172  1.0311 -0.4148 -0.8714
 6605SOL    MW426194   0.628   4.891   4.246 -0.1148 -0.0861 -0.0938
 6606SOL     OW26195   1.313   4.724   4.784 -0.1620 -1.2989  0.6746
 6606SOL    HW226196   1.362   4.686   4.711  0.2619  0.3427  0.0546
 6606SOL    HW326197   1.228   4.748   4.747  0.3484  0.3079  0.4399
 6606SOL    MW426198   1.308   4.722   4.770 -0.0388 -0.8703  0.5618
 6607SOL     OW26199   1.467   3.803   0.344 -0.3226 -0.4238 -0.0023
 6607SOL    HW226200   1.386   3.754   0.351 -1.0901  0.8197  0.2053
 6607SOL    HW326201   1.439   3.894   0.332  1.0345 -0.0760 -0.7878
 6607SOL    MW426202   1.453   3.809   0.343 -0.2448 -0.2138 -0.0786
 6608SOL     OW26203   0.433   0.085   4.830  0.8393 -0.2226 -0.2250
 6608SOL    HW226204   0.381   0.166   4.828 -0.3673 -0.9187  1.4035
 6608SOL    HW326205   0.501   0.100   4.764  0.2784  1.8604 -0.4240
 6608SOL    MW426206   0.435   0.098   4.821  0.6061 -0.0396 -0.0364
 6609SOL     OW26207   2.012   2.227   1.138  0.1614  0.5603 -0.5458
 6609SOL    HW226208   1.968   2.145   1.159  1.6670  0.6246  3.7799
 6609SOL    HW326209   2.104   2.203   1.128  0.3624  1.4894 -1.0211
 6609SOL    MW426210   2.018   2.213   1.139  0.3866  0.6914 -0.0378
 6610SOL     OW26211   4.705   0.017   3.441 -0.1458  0.1005  0.0210
 6610SOL    HW226212   4.655  -0.063   3.424  0.7250 -0.0821 -1.9770
 6610SOL    HW326213   4.779  -0.012   3.495  0.4411 -0.5722 -1.1098
 6610SOL    MW426214   4.709   0.003   3.446  0.0465 -0.0124 -0.3918
 6611SOL     OW26215   0.904   3.385   6.073 -0.0680  0.1206  0.1294
 6611SOL    HW226216   0.934   3.466   6.114  0.9413  1.2106 -2.5205
 6611SOL    HW326217   0.808   3.393   6.072  0.0266  2.0815 -1.3859
 6611SOL    MW426218   0.895   3.397   6.078  0.0776  0.5231 -0.4201
 6612SOL     OW26219   2.371   1.224   5.177 -0.1383 -0.1131 -0.1038
 6612SOL    HW226220   2.405   1.213   5.088  0.3007  1.3582 -0.1413
 6612SOL    HW326221   2.281   1.255   5.164 -0.4656 -1.0145 -0.0213
 6612SOL    MW426222   2.363   1.227   5.163 -0.1235 -0.0379 -0.0979
 6613SOL     OW26223   0.836   0.620   3.257  0.0580  0.2707  0.2520
 6613SOL    HW226224   0.783   0.562   3.313  1.0027 -0.5918  0.2700
 6613SOL    HW326225   0.844   0.701   3.308  0.0447 -0.1402  0.9247
 6613SOL    MW426226   0.830   0.623   3.271  0.1809  0.1027  0.3431
 6614SOL     OW26227   1.287   6.379   0.407 -0.1350  1.0111 -0.0039
 6614SOL    HW226228   1.199   6.364   0.372  0.0839 -0.0084 -0.1264
 6614SOL    HW326229   1.274   6.447   0.474 -1.3442 -0.4549  1.3237
 6614SOL    MW426230   1.274   6.386   0.411 -0.2657  0.6832  0.1551
 6615SOL     OW26231   5.934   5.626   6.087  0.3384  0.4880 -0.2223
 6615SOL    HW226232   5.964   5.536   6.099 -0.6345  0.3184  1.0895
 6615SOL    HW326233   5.878   5.644   6.162 -0.0851  1.9490 -0.8389
 6615SOL    MW426234   5.931   5.617   6.098  0.1542  0.6584 -0.1306
 6616SOL     OW26235   6.167   3.267   1.161  0.2071 -0.0362 -0.2188
 6616SOL    HW226236   6.198   3.269   1.070 -0.7466  0.1135 -0.5507
 6616SOL    HW326237   6.134   3.178   1.173 -1.0387  0.3585 -0.5128
 6616SOL    MW426238   6.167   3.256   1.151 -0.0831  0.0357 -0.3014
 6617SOL     OW26239   3.744   1.950   1.381 -0.0358  0.0335  0.3585
 6617SOL    HW226240   3.831   1.983   1.405  0.1225 -1.4289  1.9524
 6617SOL    HW326241   3.724   1.884   1.447 -2.0950 -0.1348 -0.3660
 6617SOL    MW426242   3.753   1.946   1.393 -0.2866 -0.1816  0.4732
 6618SOL     OW26243   4.155   1.932   1.854  0.6620 -0.4090 -0.0193
 6618SOL    HW226244   4.227   1.869   1.865 -0.0431 -1.0351  1.1657
 6618SOL    HW326245   4.103   1.924   1.934  1.1340  2.4742  0.6874
 6618SOL    MW426246   4.158   1.923   1.866  0.6313 -0.1112  0.2303
 6619SOL     OW26247   0.309   5.688   0.676 -0.0346  0.0112  0.1058
 6619SOL    HW226248   0.275   5.663   0.762 -2.3473  1.0345 -0.4503
 6619SOL    HW326249   0.237   5.670   0.615  1.8576 -1.6331 -1.8407
 6619SOL    MW426250   0.295   5.682   0.679 -0.0901 -0.0708 -0.2244
 6620SOL     OW26251   4.264   3.166   5.598  0.1005  0.0859 -0.4096
 6620SOL    HW226252   4.344   3.186   5.646 -0.6289  1.7803  0.1530
 6620SOL    HW326253   4.283   3.189   5.507  0.7024 -0.8953 -0.5479
 6620SOL    MW426254   4.277   3.172   5.592  0.0836  0.1800 -0.3536
 6621SOL     OW26255   5.007   3.353   2.249 -0.1127  0.0529 -0.2363
 6621SOL    HW226256   5.011   3.263   2.280  2.9037 -0.0290 -0.5772
 6621SOL    HW326257   5.016   3.406   2.328  2.6050 -0.0997 -0.3340
 6621SOL    MW426258   5.009   3.348   2.263  0.6439  0.0219 -0.2941
 6622SOL     OW26259   4.722   4.775   5.318  0.0599  0.3496  0.6973
 6622SOL    HW226260   4.767   4.752   5.237  0.3251  1.5507  0.4769
 6622SOL    HW326261   4.763   4.721   5.385 -1.0791 -1.6571 -0.1530
 6622SOL    MW426262   4.733   4.765   5.316 -0.0554  0.2433  0.5561
 6623SOL     OW26263   5.982   5.478   2.159 -0.0381  0.5001  0.2899
 6623SOL    HW226264   5.896   5.454   2.124 -1.3811  2.2319  2.1750
 6623SOL    HW326265   6.028   5.395   2.169 -2.3050 -0.7247  1.2602
 6623SOL    MW426266   5.977   5.464   2.156 -0.5144  0.5670  0.6667
 6624SOL     OW26267   1.278   1.185   2.116  0.2562  0.5732 -0.1726
 6624SOL    HW226268   1.205   1.129   2.090 -1.1636  1.8051  0.9759
 6624SOL    HW326269   1.276   1.257   2.054  0.7809  0.3995 -0.3959
 6624SOL    MW426270   1.268   1.187   2.105  0.1381  0.7128 -0.0505
 6625SOL     OW26271   5.451   2.248   1.053  0.2481  0.7285 -0.5812
 6625SOL    HW226272   5.489   2.331   1.082  0.9875 -0.2776  1.5181
 6625SOL    HW326273   5.358   2.255   1.072  0.4488  0.7669  0.4328
 6625SOL    MW426274   5.444   2.260   1.059  0.3722  0.6008 -0.1705
 6626SOL     OW26275   3.523   5.178   0.124 -0.5811  0.0085 -0.4430
 6626SOL    HW226276   3.545   5.166   0.032 -0.6902  0.5549 -0.5414
 6626SOL    HW326277   3.532   5.090   0.162 -0.2708 -0.1681 -0.9126
 6626SOL    MW426278   3.527   5.165   0.117 -0.5545  0.0573 -0.5179
 6627SOL     OW26279   2.032   4.693   4.980 -0.0690 -0.1655  0.6244
 6627SOL    HW226280   2.004   4.664   5.067 -1.6780 -0.3449  0.0787
 6627SOL    HW326281   1.986   4.777   4.967  1.0167  0.4083  0.3754
 6627SOL    MW426282   2.022   4.700   4.990 -0.1380 -0.1135  0.5195
 6628SOL     OW26283   4.109   1.763   0.253 -0.0858 -0.6565  0.8135
 6628SOL    HW226284   4.173   1.715   0.305  0.0735 -1.6195 -0.2289
 6628SOL    HW326285   4.131   1.742   0.163  0.9920  2.6472  0.1775
 6628SOL    MW426286   4.120   1.754   0.248  0.0774 -0.3476  0.5921
 6629SOL     OW26287   2.939   0.823   4.339 -0.4487  0.3962  0.6780
 6629SOL    HW226288   2.869   0.856   4.394  0.2643  1.4404  0.9871
 6629SOL    HW326289   2.958   0.894   4.278  0.2861  0.1116  0.5608
 6629SOL    MW426290   2.932   0.836   4.338 -0.2577  0.4964  0.7033
 6630SOL     OW26291   2.593   4.882   5.245 -0.8624  0.2764  0.7865
 6630SOL    HW226292   2.674   4.888   5.193 -1.6931 -0.9657 -0.7400
 6630SOL    HW326293   2.578   4.972   5.275 -0.6886  1.2375 -1.7320
 6630SOL    MW426294   2.602   4.895   5.242 -0.9491  0.2393  0.2528
 6631SOL     OW26295   2.861   6.377   1.808  0.6693 -0.2979 -0.1404
 6631SOL    HW226296   2.918   6.380   1.885 -0.0886 -1.2565  0.4780
 6631SOL    HW326297   2.883   6.457   1.759  1.6259 -0.0072  0.7253
 6631SOL    MW426298   2.872   6.388   1.812  0.6955 -0.3860  0.0554
 6632SOL     OW26299   0.389   2.180   2.060  0.4183  0.3174 -0.1149
 6632SOL    HW226300   0.458   2.190   2.126  1.2112 -0.4396 -0.8060
 6632SOL    HW326301   0.436   2.180   1.976 -0.2348 -1.8158 -0.5263
 6632SOL    MW426302   0.404   2.182   2.058  0.4368 -0.0639 -0.2603
 6633SOL     OW26303   0.631   2.196   1.428 -0.0804 -0.4007  0.0096
 6633SOL    HW226304   0.650   2.114   1.474  1.5922 -0.7351 -1.2188
 6633SOL    HW326305   0.587   2.250   1.494 -0.0515 -1.8013  1.2246
 6633SOL    MW426306   0.628   2.192   1.443  0.1441 -0.6296  0.0079
 6634SOL     OW26307   1.233   5.508   3.565 -0.1543 -0.3355 -0.1362
 6634SOL    HW226308   1.146   5.547   3.564 -0.2229 -0.4651 -1.5586
 6634SOL    HW326309   1.292   5.581   3.546 -0.1728 -0.6233 -1.4439
 6634SOL    MW426310   1.229   5.523   3.562 -0.1658 -0.3906 -0.4964
 6635SOL     OW26311   0.335   0.938   3.073  0.1239 -0.4653  0.2109
 6635SOL    HW226312   0.244   0.951   3.100 -0.1522 -1.0462 -0.4286
 6635SOL    HW326313   0.385   0.999   3.129 -0.6948  0.2085  0.2320
 6635SOL    MW426314   0.330   0.948   3.084 -0.0206 -0.4531  0.1293
 6636SOL     OW26315   4.155   2.436   4.050 -0.5475  0.3379  0.0710
 6636SOL    HW226316   4.194   2.523   4.059  0.3875  0.1030 -1.4436
 6636SOL    HW326317   4.098   2.443   3.973 -0.1053 -0.5083 -0.3413
 6636SOL    MW426318   4.152   2.448   4.041 -0.3658  0.1953 -0.1833
 6637SOL     OW26319   5.775   5.677   5.122 -0.0077  0.2733  0.4417
 6637SOL    HW226320   5.831   5.603   5.099 -0.3347  0.4099 -0.8600
 6637SOL    HW326321   5.829   5.729   5.182  1.3038  0.4265 -0.7984
 6637SOL    MW426322   5.790   5.674   5.127  0.1222  0.3115  0.1063
 6638SOL     OW26323   3.305   2.291   1.753 -0.1983 -0.1824 -0.0339
 6638SOL    HW226324   3.273   2.360   1.695  0.3028 -0.6632 -0.9178
 6638SOL    HW326325   3.400   2.297   1.748 -0.1476 -0.2845  0.6879
 6638SOL    MW426326   3.313   2.301   1.745 -0.1255 -0.2593 -0.0553
 6639SOL     OW26327   3.211   6.352   1.467 -0.0760 -0.6358  0.1069
 6639SOL    HW226328   3.122   6.320   1.474 -0.7602  1.4782  2.2568
 6639SOL    HW326329   3.210   6.409   1.390 -0.1814 -1.6816 -0.6837
 6639SOL    MW426330   3.199   6.356   1.458 -0.1802 -0.4949  0.2862
 6640SOL     OW26331   2.543   2.645   2.748  0.0441 -0.1880  0.2858
 6640SOL    HW226332   2.495   2.682   2.673  0.7382  1.9208  0.8327
 6640SOL    HW326333   2.622   2.697   2.754 -0.1588 -0.0700  2.7122
 6640SOL    MW426334   2.547   2.657   2.739  0.1089  0.1058  0.6781
 6641SOL     OW26335   4.241   1.254   4.580  0.2816 -0.3369  0.1887
 6641SOL    HW226336   4.159   1.288   4.546  0.6156  1.6262  1.1957
 6641SOL    HW326337   4.228   1.250   4.675  1.4514  0.3488  0.3976
 6641SOL    MW426338   4.228   1.258   4.588  0.4800  0.0126  0.3491
 6642SOL     OW26339   1.427   0.914   0.824  0.4298 -0.1487 -0.0923
 6642SOL    HW226340   1.516   0.930   0.856  0.6292  0.3587 -0.8737
 6642SOL    HW326341   1.424   0.819   0.809  0.4317 -0.3518  1.1005
 6642SOL    MW426342   1.438   0.903   0.826  0.4564 -0.1086 -0.0380
 6643SOL     OW26343   3.745   6.088   3.969 -0.2388  0.7454  0.0126
 6643SOL    HW226344   3.797   6.016   4.004 -0.2497  1.3518  1.3280
 6643SOL    HW326345   3.712   6.133   4.046 -2.0202  0.8863 -0.7836
 6643SOL    MW426346   3.748   6.084   3.984 -0.4752  0.8440  0.0811
 6644SOL     OW26347   3.577   2.151   4.441  0.0060  0.4290  0.7296
 6644SOL    HW226348   3.511   2.087   4.468  0.0774  0.6878  1.5604
 6644SOL    HW326349   3.658   2.120   4.483  0.1453  0.7954  0.7288
 6644SOL    MW426350   3.579   2.138   4.450  0.0338  0.5115  0.8391
 6645SOL     OW26351   0.548   4.902   1.906  0.6771  0.1148  0.1258
 6645SOL    HW226352   0.538   4.959   1.829  2.3812  1.5811  0.9292
 6645SOL    HW326353   0.487   4.829   1.889 -1.0676  1.7800 -1.2817
 6645SOL    MW426354   0.539   4.900   1.893  0.6717  0.5280  0.0461
 6646SOL     OW26355   2.885   0.843   0.755  0.4741  0.1950 -0.2528
 6646SOL    HW226356   2.903   0.756   0.792  0.6303  0.1280 -0.4915
 6646SOL    HW326357   2.830   0.825   0.679  0.7454  0.2870 -0.4690
 6646SOL    MW426358   2.880   0.829   0.750  0.5305  0.1983 -0.3128
 6647SOL     OW26359   5.885   5.231   2.373  0.0403 -0.2677  0.0858
 6647SOL    HW226360   5.886   5.177   2.452 -1.9178 -1.7631 -0.8204
 6647SOL    HW326361   5.813   5.292   2.387  0.3702  0.1712 -0.1146
 6647SOL    MW426362   5.876   5.232   2.385 -0.1745 -0.4071 -0.0602
 6648SOL     OW26363   3.522   0.579   5.543 -0.4608 -0.1669  0.7423
 6648SOL    HW226364   3.534   0.525   5.465 -0.1289  0.6045  0.2509
 6648SOL    HW326365   3.444   0.542   5.586  0.0529 -1.3629  0.7060
 6648SOL    MW426366   3.513   0.567   5.539 -0.3492 -0.2229  0.6727
 6649SOL     OW26367   4.779   3.871   1.120 -0.1710  0.1908 -0.1091
 6649SOL    HW226368   4.850   3.809   1.101 -1.0939 -0.9730  0.0599
 6649SOL    HW326369   4.793   3.897   1.211  0.7566  0.9622 -0.4678
 6649SOL    MW426370   4.790   3.866   1.129 -0.1704  0.1391 -0.1341
 6650SOL     OW26371   2.746   3.949   0.043  0.3927 -0.0264  0.7291
 6650SOL    HW226372   2.724   3.997  -0.037  0.0033 -1.7757 -0.2450
 6650SOL    HW326373   2.668   3.956   0.098  0.2709  0.2872  0.5193
 6650SOL    MW426374   2.733   3.957   0.039  0.3253 -0.2158  0.5729
 6651SOL     OW26375   3.491   2.171   4.847  0.3635 -0.2541 -0.3718
 6651SOL    HW226376   3.433   2.193   4.920  0.8484 -1.9480  0.5794
 6651SOL    HW326377   3.578   2.200   4.875  0.1386  1.7193 -1.5352
 6651SOL    MW426378   3.495   2.178   4.860  0.3978 -0.2172 -0.3998
 6652SOL     OW26379   1.713   4.065   2.769 -0.2989 -0.3840 -0.5382
 6652SOL    HW226380   1.727   4.153   2.802  1.3454 -0.1805 -1.6486
 6652SOL    HW326381   1.794   4.018   2.791 -1.1045 -1.6002 -0.0526
 6652SOL    MW426382   1.726   4.070   2.776 -0.1883 -0.5176 -0.6207
 6653SOL     OW26383   6.031   6.109   5.208  0.0176 -0.1930  0.4335
 6653SOL    HW226384   5.971   6.183   5.223  0.7983  0.5088  0.1900
 6653SOL    HW326385   6.093   6.142   5.143  1.2317 -0.5729  1.3595
 6653SOL    MW426386   6.031   6.123   5.201  0.2808 -0.1505  0.5235
 6654SOL     OW26387   2.933   4.851   2.950 -0.7349  0.4356  0.1244
 6654SOL    HW226388   2.843   4.874   2.974  0.0132  1.8873  1.7697
 6654SOL    HW326389   2.986   4.878   3.025  1.1474  0.0611 -0.9914
 6654SOL    MW426390   2.928   4.858   2.963 -0.3879  0.5777  0.1943
 6655SOL     OW26391   3.297   1.757   3.126  0.6320 -0.1507  0.0997
 6655SOL    HW226392   3.347   1.836   3.104  0.6112 -0.1901 -0.0923
 6655SOL    HW326393   3.213   1.770   3.083  0.7687 -0.4581 -0.2712
 6655SOL    MW426394   3.293   1.769   3.117  0.6473 -0.1964  0.0255
 6656SOL     OW26395   2.865   0.014   5.237  0.8351  0.1915  1.0420
 6656SOL    HW226396   2.869  -0.063   5.294  1.3406  1.1590  2.3635
 6656SOL    HW326397   2.896  -0.018   5.152 -1.1416 -1.5836  0.9079
 6656SOL    MW426398   2.870  -0.000   5.233  0.6410  0.0849  1.1987
 6657SOL     OW26399   4.263   4.909   3.907 -0.2959 -0.0104  0.0773
 6657SOL    HW226400   4.242   4.964   3.832  0.9600 -0.4921 -0.6520
 6657SOL    HW326401   4.306   4.833   3.870 -1.0942 -1.0355  1.1625
 6657SOL    MW426402   4.266   4.906   3.892 -0.2355 -0.2092  0.1242
 6658SOL     OW26403   1.307   5.383   0.765 -0.1176 -0.3249  0.1847
 6658SOL    HW226404   1.387   5.332   0.753 -1.0317 -1.8559  0.3916
 6658SOL    HW326405   1.246   5.323   0.807 -1.8199  0.4032 -1.1596
 6658SOL    MW426406   1.310   5.369   0.769 -0.4628 -0.4308  0.0346
 6659SOL     OW26407   5.206   4.811   1.426  0.1454  0.1929 -0.0729
 6659SOL    HW226408   5.259   4.741   1.388  1.3580  0.3089  1.2823
 6659SOL    HW326409   5.191   4.872   1.354 -0.1842 -1.0223 -1.0578
 6659SOL    MW426410   5.211   4.810   1.412  0.2619  0.0479 -0.0240
 6660SOL     OW26411   2.861   1.167   2.159 -0.2072  0.3980  0.1325
 6660SOL    HW226412   2.874   1.234   2.227  0.9019 -0.0085  0.3506
 6660SOL    HW326413   2.840   1.087   2.208  0.0383  0.2306 -0.0351
 6660SOL    MW426414   2.860   1.165   2.175 -0.0285  0.3223  0.1392
 6661SOL     OW26415   0.029   5.474   5.012  0.2367  0.3308  0.2332
 6661SOL    HW226416   0.113   5.501   4.975 -0.2813  0.8004 -0.6377
 6661SOL    HW326417   0.021   5.525   5.092  0.2461  1.2052 -0.3004
 6661SOL    MW426418   0.039   5.485   5.017  0.1696  0.5081  0.0479
 6662SOL     OW26419   4.605   5.993   2.809  0.1132  0.2162 -0.1001
 6662SOL    HW226420   4.701   5.984   2.810  0.0955  0.0228  0.8057
 6662SOL    HW326421   4.590   6.086   2.825  0.1363 -0.1512  2.4348
 6662SOL    MW426422   4.616   6.004   2.811  0.1139  0.1422  0.3539
 6663SOL     OW26423   4.553   2.580   3.547  0.2537 -0.0075  0.3744
 6663SOL    HW226424   4.541   2.631   3.467 -0.4949  1.0525  1.1359
 6663SOL    HW326425   4.622   2.518   3.526  3.0014  2.8861  0.0979
 6663SOL    MW426426   4.561   2.579   3.534  0.5174  0.5141  0.4384
 6664SOL     OW26427   2.519   1.554   4.331 -0.0842 -0.4339 -0.0728
 6664SOL    HW226428   2.533   1.635   4.281 -0.4808 -0.1634  0.2502
 6664SOL    HW326429   2.436   1.568   4.377  0.5457 -0.4526  1.0972
 6664SOL    MW426430   2.510   1.566   4.330 -0.0534 -0.4007  0.1242
 6665SOL     OW26431   1.830   1.610   6.083  0.3869  0.3009  0.1818
 6665SOL    HW226432   1.791   1.695   6.065 -0.7047 -0.2106  0.0057
 6665SOL    HW326433   1.924   1.626   6.088  0.3053  1.2934 -1.1375
 6665SOL    MW426434   1.837   1.623   6.081  0.2321  0.3643 -0.0155
 6666SOL     OW26435   5.426   5.076   0.246 -0.1018  0.0457 -0.1501
 6666SOL    HW226436   5.513   5.095   0.281  0.4100 -0.8574 -0.8946
 6666SOL    HW326437   5.369   5.077   0.323  0.7081 -0.2022  0.4730
 6666SOL    MW426438   5.430   5.079   0.261  0.0726 -0.1061 -0.1661
 6667SOL     OW26439   1.632   3.321   5.393  0.3020 -0.3261 -0.0683
 6667SOL    HW226440   1.584   3.371   5.328  1.0240  0.9720  0.3504
 6667SOL    HW326441   1.629   3.231   5.362 -1.3080 -0.0880 -0.6870
 6667SOL    MW426442   1.625   3.316   5.381  0.1849 -0.1234 -0.0947
 6668SOL     OW26443   6.399   0.010   3.733 -0.4343  0.2575 -0.4331
 6668SOL    HW226444   6.331  -0.048   3.700 -1.8750  2.2505 -1.1747
 6668SOL    HW326445   6.355   0.093   3.748  1.4903  1.1419  0.7858
 6668SOL    MW426446   6.384   0.013   3.730 -0.3705  0.6372 -0.3701
 6669SOL     OW26447   1.740   1.458   2.410 -0.2061  0.3529 -0.4319
 6669SOL    HW226448   1.747   1.439   2.503  0.3921  2.1875 -0.0520
 6669SOL    HW326449   1.830   1.454   2.378 -0.4142 -0.3245 -0.9637
 6669SOL    MW426450   1.753   1.455   2.418 -0.1547  0.5056 -0.4519
 6670SOL     OW26451   5.661   3.825   1.482 -0.0053  0.0012  0.2380
 6670SOL    HW226452   5.632   3.782   1.401 -4.5190  2.1436  0.4155
 6670SOL    HW326453   5.666   3.918   1.459  1.9544  0.3192  1.7078
 6670SOL    MW426454   5.658   3.832   1.468 -0.3422  0.3258  0.4554
 6671SOL     OW26455   3.355   4.827   3.426 -0.2936  0.5523 -0.8317
 6671SOL    HW226456   3.447   4.854   3.428  0.5686 -1.9521 -1.9010
 6671SOL    HW326457   3.340   4.790   3.513  0.1542 -0.2515 -1.0863
 6671SOL    MW426458   3.365   4.825   3.438 -0.1207  0.1158 -1.0064
 6672SOL     OW26459   0.762   4.784   3.080  0.1764 -0.7586 -0.1667
 6672SOL    HW226460   0.777   4.753   3.169 -1.7068 -0.1882  0.4011
 6672SOL    HW326461   0.684   4.737   3.051  0.4207 -0.4978 -1.2911
 6672SOL    MW426462   0.754   4.774   3.088 -0.0398 -0.6489 -0.2402
 6673SOL     OW26463   2.839   4.898   5.117 -1.0230  0.0636 -0.8597
 6673SOL    HW226464   2.866   4.929   5.204 -1.7726 -0.0106 -0.5918
 6673SOL    HW326465   2.903   4.830   5.095 -0.9412 -0.0529 -0.2770
 6673SOL    MW426466   2.851   4.893   5.126 -1.1111  0.0384 -0.7474
 6674SOL     OW26467   4.806   5.895   1.879 -0.1762 -0.2694  0.4125
 6674SOL    HW226468   4.715   5.905   1.851  0.4089  0.5759 -1.3763
 6674SOL    HW326469   4.840   5.825   1.823  0.3705 -0.2920  0.7734
 6674SOL    MW426470   4.798   5.887   1.868 -0.0269 -0.1609  0.2241
 6675SOL     OW26471   6.403   5.353   1.972  0.2173 -0.5849 -0.2772
 6675SOL    HW226472   6.390   5.426   2.033  2.3159 -0.3056 -0.1048
 6675SOL    HW326473   6.369   5.384   1.889  2.1151  1.0868 -0.4876
 6675SOL    MW426474   6.397   5.366   1.969  0.7446 -0.3275 -0.2822
 6676SOL     OW26475   4.880   2.993   4.615 -0.2955  0.1101  0.6552
 6676SOL    HW226476   4.967   3.033   4.611  0.0724 -0.7079  0.2029
 6676SOL    HW326477   4.822   3.058   4.576  0.4138 -0.1016 -0.8370
 6676SOL    MW426478   4.884   3.007   4.609 -0.1533 -0.0257  0.3987
 6677SOL     OW26479   4.621   4.500   1.463 -0.0691  0.2502  0.5175
 6677SOL    HW226480   4.668   4.559   1.521  0.6148 -1.4757  1.8164
 6677SOL    HW326481   4.535   4.489   1.503 -0.3687  0.7330  0.0156
 6677SOL    MW426482   4.616   4.506   1.476 -0.0184  0.0862  0.6226
 6678SOL     OW26483   4.150   0.409   0.314  0.0494 -0.1989 -0.0363
 6678SOL    HW226484   4.177   0.493   0.277  0.1651  0.1462  0.8269
 6678SOL    HW326485   4.118   0.429   0.401 -1.0469 -0.8980 -0.2570
 6678SOL    MW426486   4.149   0.422   0.321 -0.0800 -0.2456  0.0485
 6679SOL     OW26487   4.172   1.680   1.722 -0.3173 -0.1063  0.2668
 6679SOL    HW226488   4.209   1.747   1.664 -0.3264 -1.9886 -2.0702
 6679SOL    HW326489   4.234   1.608   1.720 -0.7711 -0.6042  1.9559
 6679SOL    MW426490   4.185   1.680   1.714 -0.3784 -0.4203  0.1813
 6680SOL     OW26491   6.125   3.525   1.776  0.2606 -0.6592  0.0834
 6680SOL    HW226492   6.037   3.526   1.738 -0.5868  1.5003  1.8883
 6680SOL    HW326493   6.173   3.592   1.727 -0.0613  0.3049  1.0422
 6680SOL    MW426494   6.119   3.534   1.764  0.1063 -0.2471  0.4481
 6681SOL     OW26495   2.406   0.836   1.590  0.4898  0.7237  0.1386
 6681SOL    HW226496   2.459   0.826   1.669 -1.1591  0.3802  1.2577
 6681SOL    HW326497   2.469   0.860   1.521  2.1642 -0.3016  1.2402
 6681SOL    MW426498   2.421   0.838   1.591  0.4931  0.5431  0.4315
 6682SOL     OW26499   5.907   1.439   3.480  0.5232 -0.0666  0.3114
 6682SOL    HW226500   5.975   1.439   3.547  0.8163  1.3336  0.0407
 6682SOL    HW326501   5.950   1.469   3.400 -0.5923  1.9387  0.3867
 6682SOL    MW426502   5.921   1.443   3.478  0.4147  0.3827  0.2856
 6683SOL     OW26503   3.686   1.939   0.700 -0.3156  1.1554 -0.1774
 6683SOL    HW226504   3.735   1.880   0.757  1.2868  1.8431 -0.7953
 6683SOL    HW326505   3.636   1.880   0.643  0.6280  0.4050 -0.2571
 6683SOL    MW426506   3.686   1.923   0.700  0.0203  1.1471 -0.2694
 6684SOL     OW26507   2.549   3.843   5.312 -0.4124  0.0816  0.5120
 6684SOL    HW226508   2.571   3.822   5.402 -1.9104  0.2101  0.9336
 6684SOL    HW326509   2.615   3.798   5.260  1.5053  1.4139  1.7001
 6684SOL    MW426510   2.560   3.834   5.317 -0.3570  0.2743  0.7244
 6685SOL     OW26511   1.279   2.667   0.676 -0.4529 -0.1475  0.1214
 6685SOL    HW226512   1.306   2.758   0.668 -1.7488  0.2276 -0.1861
 6685SOL    HW326513   1.270   2.636   0.586  0.6817 -0.8210  0.2130
 6685SOL    MW426514   1.281   2.675   0.663 -0.4742 -0.1869  0.0929
 6686SOL     OW26515   0.727   1.892   5.625 -0.0211 -0.1307 -0.6103
 6686SOL    HW226516   0.698   1.972   5.582  1.2522  1.7576  1.8361
 6686SOL    HW326517   0.653   1.865   5.679  0.1607  0.4709 -0.0443
 6686SOL    MW426518   0.714   1.899   5.626  0.1709  0.1978 -0.2128
 6687SOL     OW26519   2.980   0.920   0.435 -0.2541 -0.0002 -0.0477
 6687SOL    HW226520   3.052   0.942   0.377 -0.0962  0.1381  0.1976
 6687SOL    HW326521   3.004   0.837   0.476 -1.0030 -0.8228 -1.2232
 6687SOL    MW426522   2.992   0.912   0.433 -0.3320 -0.0905 -0.1705
 6688SOL     OW26523   2.270   4.703   4.834  0.2605  0.0132 -0.5257
 6688SOL    HW226524   2.258   4.790   4.795 -0.3655 -0.4067 -1.2968
 6688SOL    HW326525   2.184   4.680   4.867  0.1092 -0.8600 -1.4892
 6688SOL    MW426526   2.257   4.712   4.833  0.1579 -0.1574 -0.7546
 6689SOL     OW26527   0.527   6.229   6.206  0.1021 -0.3939 -0.3765
 6689SOL    HW226528   0.542   6.315   6.168 -0.9526  0.0062  0.0623
 6689SOL    HW326529   0.613   6.189   6.212  0.5443  0.4377 -1.0460
 6689SOL    MW426530   0.540   6.235   6.202  0.0213 -0.2314 -0.4069
 6690SOL     OW26531   2.384   6.255   2.083  0.2596 -0.2305 -0.0149
 6690SOL    HW226532   2.337   6.328   2.124  0.2206  0.4362 -1.1795
 6690SOL    HW326533   2.456   6.298   2.036  0.0620 -0.9167 -0.9576
 6690SOL    MW426534   2.387   6.271   2.082  0.2284 -0.2331 -0.2930
 6691SOL     OW26535   1.820   6.053   3.068 -0.4767 -0.0749  0.6303
 6691SOL    HW226536   1.749   6.073   3.129 -1.4120 -0.1215 -0.4079
 6691SOL    HW326537   1.876   6.131   3.071 -0.8910  0.2144  1.0246
 6691SOL    MW426538   1.818   6.066   3.076 -0.6547 -0.0428  0.5453
 6692SOL     OW26539   5.213   6.013   0.661 -0.0372 -0.2806 -0.3058
 6692SOL    HW226540   5.233   6.052   0.746  0.2795  2.0492 -1.3781
 6692SOL    HW326541   5.119   5.996   0.663 -0.3477  1.3408 -0.0793
 6692SOL    MW426542   5.204   6.016   0.673 -0.0363  0.2407 -0.4174
 6693SOL     OW26543   1.702   4.628   0.329  0.5732  0.2607  0.2567
 6693SOL    HW226544   1.622   4.677   0.308  0.1514 -1.3197 -2.2785
 6693SOL    HW326545   1.771   4.675   0.283  0.3855 -0.6673 -1.0270
 6693SOL    MW426546   1.700   4.640   0.320  0.4928 -0.0703 -0.2472
 6694SOL     OW26547   3.032   0.006   4.607 -0.1188 -0.5403  0.1985
 6694SOL    HW226548   2.939  -0.013   4.612  0.2557 -2.8860 -0.5246
 6694SOL    HW326549   3.060  -0.030   4.523  1.2820  0.9830 -0.0447
 6694SOL    MW426550   3.024  -0.001   4.597  0.1155 -0.6488  0.0710
 6695SOL     OW26551   3.705   3.570   5.608 -0.1534  0.2927 -0.3095
 6695SOL    HW226552   3.630   3.613   5.649 -0.5040  0.1864 -0.8227
 6695SOL    HW326553   3.721   3.493   5.662 -1.1267 -0.2864 -0.8259
 6695SOL    MW426554   3.697   3.565   5.620 -0.3281  0.2023 -0.4453
 6696SOL     OW26555   2.326   5.563   5.911  0.0764  0.0325  0.6122
 6696SOL    HW226556   2.310   5.519   5.995  1.6358 -1.3068  0.2461
 6696SOL    HW326557   2.243   5.557   5.864  0.2500 -2.6725  0.5348
 6696SOL    MW426558   2.313   5.557   5.916  0.3051 -0.5011  0.5537
 6697SOL     OW26559   4.826   5.292   1.908 -0.6501 -0.5074  0.1160
 6697SOL    HW226560   4.817   5.370   1.854 -0.0181  0.9926  2.0840
 6697SOL    HW326561   4.802   5.220   1.849 -0.2428  1.0297 -2.0584
 6697SOL    MW426562   4.822   5.292   1.893 -0.5130 -0.1067  0.0888
 6698SOL     OW26563   5.430   3.713   2.040 -0.1294  0.2549  0.4673
 6698SOL    HW226564   5.491   3.727   2.113  2.1662  3.0843 -1.7359
 6698SOL    HW326565   5.480   3.660   1.977 -0.1453  1.9762 -1.0669
 6698SOL    MW426566   5.445   3.708   2.041  0.1714  0.8553 -0.0258
 6699SOL     OW26567   2.784   5.243   1.168 -0.4284 -0.4490 -0.4320
 6699SOL    HW226568   2.719   5.227   1.099 -1.9523  0.4384  0.7269
 6699SOL    HW326569   2.776   5.168   1.227  0.7933 -1.1528 -1.1274
 6699SOL    MW426570   2.774   5.231   1.167 -0.4682 -0.4248 -0.3708
 6700SOL     OW26571   0.553   5.703   4.704 -0.4774 -0.1036 -0.1499
 6700SOL    HW226572   0.535   5.794   4.680  0.3081  0.2816  0.6556
 6700SOL    HW326573   0.649   5.696   4.699 -0.5730 -1.0681 -0.8025
 6700SOL    MW426574   0.564   5.714   4.700 -0.3864 -0.1801 -0.1297
 6701SOL     OW26575   0.949   3.178   1.226 -0.2033 -0.3326 -0.0690
 6701SOL    HW226576   0.954   3.109   1.161 -0.5482  0.2687 -0.7478
 6701SOL    HW326577   0.948   3.259   1.175 -0.5567  0.1441  0.6789
 6701SOL    MW426578   0.950   3.180   1.211 -0.2954 -0.1904 -0.0599
 6702SOL     OW26579   0.985   4.715   5.015 -0.0474  0.0750 -0.1855
 6702SOL    HW226580   0.931   4.637   5.008 -0.0716  0.1315 -0.6273
 6702SOL    HW326581   1.039   4.701   5.093 -1.6331  0.5952  1.0419
 6702SOL    MW426582   0.985   4.703   5.024 -0.2598  0.1511 -0.0818
 6703SOL     OW26583   3.489   5.729   5.624 -0.6693  0.2533 -0.1069
 6703SOL    HW226584   3.536   5.701   5.703 -1.3777  0.2458  0.3198
 6703SOL    HW326585   3.424   5.792   5.656 -1.0705  0.1224 -0.6614
 6703SOL    MW426586   3.486   5.733   5.639 -0.8157  0.2350 -0.1238
 6704SOL     OW26587   5.908   2.951   2.389  0.3935 -0.6779  0.1866
 6704SOL    HW226588   5.968   2.937   2.316  0.6874 -2.8358  0.7768
 6704SOL    HW326589   5.828   2.906   2.363 -0.4477  0.8142  0.0943
 6704SOL    MW426590   5.905   2.943   2.376  0.3213 -0.7658  0.2523
 6705SOL     OW26591   2.804   0.974   1.000 -0.2695 -0.1039 -0.1521
 6705SOL    HW226592   2.734   0.921   1.039  0.2076 -1.6056 -1.2571
 6705SOL    HW326593   2.828   0.928   0.920  0.4769  1.5786 -0.9588
 6705SOL    MW426594   2.798   0.961   0.995 -0.1081 -0.0800 -0.4044
 6706SOL     OW26595   4.244   6.013   3.065  0.4984 -0.1967  0.1446
 6706SOL    HW226596   4.205   6.002   3.152  0.9115  0.6940  0.4557
 6706SOL    HW326597   4.331   5.974   3.072  0.4479 -0.3246  0.0620
 6706SOL    MW426598   4.250   6.006   3.077  0.5463 -0.0960  0.1747
 6707SOL     OW26599   3.455   2.176   0.380 -0.7765  0.2982  0.2711
 6707SOL    HW226600   3.539   2.182   0.333 -1.3922  0.1965 -0.8902
 6707SOL    HW326601   3.446   2.083   0.401 -0.3874  0.3792  0.8197
 6707SOL    MW426602   3.465   2.165   0.376 -0.8064  0.2955  0.1902
 6708SOL     OW26603   4.227   3.915   4.334 -0.2118  0.4254  0.0233
 6708SOL    HW226604   4.210   3.850   4.402  2.2192 -0.3780 -0.0430
 6708SOL    HW326605   4.322   3.914   4.323 -0.3251  2.2757 -1.7004
 6708SOL    MW426606   4.238   3.906   4.341  0.0940  0.5636 -0.2129
 6709SOL     OW26607   3.237   2.772   6.287 -0.3968 -0.2716 -0.2490
 6709SOL    HW226608   3.154   2.728   6.303 -0.5004 -0.0450 -0.1492
 6709SOL    HW326609   3.236   2.847   6.347  1.3831 -2.1427  2.3638
 6709SOL    MW426610   3.226   2.776   6.297 -0.1756 -0.4886  0.1089
 6710SOL     OW26611   2.193   5.869   2.188 -0.5225 -0.0910  0.2603
 6710SOL    HW226612   2.276   5.827   2.166  1.2850  2.5291  1.5504
 6710SOL    HW326613   2.169   5.831   2.273 -0.9238 -1.1690 -0.3161
 6710SOL    MW426614   2.201   5.858   2.196 -0.3370  0.1125  0.3544
 6711SOL     OW26615   1.711   2.362   1.913 -0.1261  0.2312 -0.1670
 6711SOL    HW226616   1.695   2.456   1.909 -0.3641  0.1638 -0.9111
 6711SOL    HW326617   1.713   2.334   1.821  1.4329 -0.2386 -0.0136
 6711SOL    MW426618   1.709   2.371   1.900  0.0482  0.1603 -0.2449
 6712SOL     OW26619   4.558   0.137   2.704  0.0141  0.0543 -0.0105
 6712SOL    HW226620   4.504   0.175   2.773 -0.6424 -0.6226 -0.1382
 6712SOL    HW326621   4.518   0.166   2.623  0.4566  0.3899 -0.1126
 6712SOL    MW426622   4.546   0.146   2.703 -0.0141  0.0092 -0.0408
 6713SOL     OW26623   4.708   2.512   5.214 -0.2436 -0.3295  0.3986
 6713SOL    HW226624   4.722   2.553   5.128 -0.7030  1.2870  1.0564
 6713SOL    HW326625   4.626   2.549   5.245 -0.4366 -1.4343  1.2485
 6713SOL    MW426626   4.699   2.522   5.206 -0.3296 -0.2619  0.5975
 6714SOL     OW26627   2.631   2.949   2.714 -0.5822  0.1109 -0.8252
 6714SOL    HW226628   2.695   2.965   2.783 -1.6303  2.0247 -0.2497
 6714SOL    HW326629   2.680   2.960   2.633  0.3205 -0.7209 -0.4170
 6714SOL    MW426630   2.646   2.952   2.713 -0.6014  0.2536 -0.6954
 6715SOL     OW26631   4.972   4.180   1.322 -0.4528  0.2710  0.4990
 6715SOL    HW226632   5.041   4.148   1.263 -1.6939  0.4496 -1.1015
 6715SOL    HW326633   5.007   4.260   1.359  0.4943 -0.0336  0.2909
 6715SOL    MW426634   4.986   4.186   1.319 -0.4916  0.2544  0.2604
 6716SOL     OW26635   6.349   5.874   2.147  0.3818  0.1150  0.0402
 6716SOL    HW226636   6.263   5.882   2.105 -0.3249 -1.3440  1.1062
 6716SOL    HW326637   6.352   5.784   2.179  0.9655  1.0116  2.8216
 6716SOL    MW426638   6.338   5.863   2.146  0.3656  0.0408  0.5478
 6717SOL     OW26639   0.123   5.214   4.980 -0.2140  0.4241  0.2372
 6717SOL    HW226640   0.106   5.187   4.890 -0.1515 -0.2662  0.4262
 6717SOL    HW326641   0.081   5.299   4.987 -0.3031  0.4441 -0.4172
 6717SOL    MW426642   0.115   5.222   4.969 -0.2175  0.3357  0.1758
 6718SOL     OW26643   3.996   3.797   4.882  0.2697  0.5870  0.6964
 6718SOL    HW226644   4.033   3.860   4.820 -0.6310  0.9706  0.5429
 6718SOL    HW326645   3.916   3.766   4.840  0.2073  0.0491  1.1976
 6718SOL    MW426646   3.991   3.801   4.868  0.1426  0.5667  0.7423
 6719SOL     OW26647   3.385   1.041   5.001  0.2238  0.1460  0.2085
 6719SOL    HW226648   3.387   1.073   4.910 -0.2894  2.2413  0.8939
 6719SOL    HW326649   3.474   1.007   5.015  0.9606  1.7101 -0.4397
 6719SOL    MW426650   3.397   1.040   4.991  0.2533  0.6289  0.2134
 6720SOL     OW26651   3.381   4.490   5.821  0.4081 -0.3828  0.1942
 6720SOL    HW226652   3.310   4.554   5.825  0.9731  0.2707 -0.0575
 6720SOL    HW326653   3.337   4.408   5.798 -0.2652  0.0005  0.0612
 6720SOL    MW426654   3.365   4.487   5.819  0.3938 -0.2460  0.1434
 6721SOL     OW26655   3.613   4.949   3.405 -0.4246 -0.5202  0.1883
 6721SOL    HW226656   3.615   5.008   3.480  0.1022 -0.4996  0.1634
 6721SOL    HW326657   3.600   5.006   3.329 -0.1262 -0.4555  0.1846
 6721SOL    MW426658   3.612   4.964   3.405 -0.3157 -0.5089  0.1845
 6722SOL     OW26659   2.760   3.279   0.787  0.1558  0.2984 -0.0905
 6722SOL    HW226660   2.725   3.195   0.755 -1.1636  0.5170  0.7301
 6722SOL    HW326661   2.683   3.330   0.810  0.9979  1.0843  1.0991
 6722SOL    MW426662   2.746   3.274   0.785  0.0929  0.4309  0.1748
 6723SOL     OW26663   1.423   1.640   4.520  0.0144 -0.3176 -0.3353
 6723SOL    HW226664   1.427   1.549   4.490  0.4423  0.1974 -1.9658
 6723SOL    HW326665   1.365   1.683   4.457  2.2312  1.1755 -1.5053
 6723SOL    MW426666   1.416   1.634   4.508  0.3634 -0.0527 -0.7048
 6724SOL     OW26667   3.989   1.100   2.734  0.3896 -0.1048  0.1604
 6724SOL    HW226668   3.951   1.179   2.772 -2.1694 -2.0994  2.0876
 6724SOL    HW326669   4.039   1.132   2.658 -2.4366  3.1208 -0.5988
 6724SOL    MW426670   3.991   1.115   2.729 -0.3209  0.0576  0.3145
 6725SOL     OW26671   4.932   3.715   3.625  0.0029 -0.1566 -0.3304
 6725SOL    HW226672   4.871   3.652   3.588  0.4871 -0.6431 -0.3120
 6725SOL    HW326673   4.906   3.799   3.587 -0.4355 -0.4178 -0.6141
 6725SOL    MW426674   4.920   3.718   3.615  0.0090 -0.2552 -0.3654
 6726SOL     OW26675   4.487   3.033   5.867  0.0571 -0.6081  0.5888
 6726SOL    HW226676   4.467   3.082   5.947 -0.0783  1.1458 -0.4616
 6726SOL    HW326677   4.411   2.976   5.854  0.2497 -1.1878  1.8929
 6726SOL    MW426678   4.474   3.032   5.876  0.0646 -0.4532  0.6222
 6727SOL     OW26679   3.911   0.936   0.858 -0.0086  0.3116  0.3519
 6727SOL    HW226680   3.871   0.857   0.821 -0.3369  0.4511  0.4051
 6727SOL    HW326681   3.960   0.906   0.934  1.2355 -0.0859 -0.5605
 6727SOL    MW426682   3.912   0.922   0.863  0.1122  0.2776  0.2385
 6728SOL     OW26683   1.495   6.371   3.216 -0.0607  0.4982  0.2186
 6728SOL    HW226684   1.568   6.310   3.228  0.5651  0.9867 -0.8841
 6728SOL    HW326685   1.511   6.439   3.281 -0.1316  0.0663  0.6960
 6728SOL    MW426686   1.507   6.372   3.226  0.0125  0.5056  0.1361
 6729SOL     OW26687   3.448   5.552   1.770  0.1844 -0.5121 -0.3711
 6729SOL    HW226688   3.364   5.526   1.732  0.0569 -1.0686  0.2598
 6729SOL    HW326689   3.502   5.578   1.696 -1.0182  1.2904 -0.6830
 6729SOL    MW426690   3.444   5.552   1.755  0.0089 -0.3477 -0.3290
 6730SOL     OW26691   2.399   5.163   3.797  0.5615  0.2934 -0.0457
 6730SOL    HW226692   2.410   5.178   3.703 -0.1708  1.4375  0.0350
 6730SOL    HW326693   2.450   5.084   3.815  1.1552  0.3758 -1.2975
 6730SOL    MW426694   2.407   5.154   3.787  0.5432  0.4552 -0.2002
 6731SOL     OW26695   3.811   5.302   2.972  0.5823 -0.1828  0.6269
 6731SOL    HW226696   3.887   5.326   2.919 -0.1483  0.2792 -0.2308
 6731SOL    HW326697   3.757   5.249   2.914 -0.0125 -0.0689  1.0711
 6731SOL    MW426698   3.814   5.298   2.958  0.4075 -0.1068  0.5724
 6732SOL     OW26699   3.976   4.227   6.333  0.6858  0.3345 -0.0623
 6732SOL    HW226700   4.026   4.178   6.398  2.5967  0.2584 -1.4839
 6732SOL    HW326701   3.890   4.186   6.332  0.7789  0.0157  2.0143
 6732SOL    MW426702   3.971   4.215   6.341  0.9502  0.2824  0.0241
 6733SOL     OW26703   0.895   3.886   5.566  0.1084 -0.1557  0.2292
 6733SOL    HW226704   0.971   3.901   5.510 -0.8905 -1.3435 -1.5470
 6733SOL    HW326705   0.905   3.796   5.598 -0.5733 -0.3646 -0.1121
 6733SOL    MW426706   0.906   3.876   5.563 -0.1133 -0.3400 -0.0502
 6734SOL     OW26707   2.897   1.427   6.350  0.0988  0.0649 -0.1908
 6734SOL    HW226708   2.894   1.353   6.290  0.7554  0.3535 -0.5918
 6734SOL    HW326709   2.953   1.491   6.306  3.2141 -0.9094  2.0000
 6734SOL    MW426710   2.904   1.425   6.336  0.5964 -0.0256  0.0453
 6735SOL     OW26711   5.241   1.045   1.363 -0.6157 -0.4671 -0.0928
 6735SOL    HW226712   5.314   1.103   1.342 -1.2182  0.5244  0.4344
 6735SOL    HW326713   5.216   1.005   1.279  0.4693 -0.7571 -0.2820
 6735SOL    MW426714   5.247   1.048   1.349 -0.5521 -0.3745 -0.0482
 6736SOL     OW26715   4.317   5.349   6.293  0.4036 -0.1280 -0.5952
 6736SOL    HW226716   4.257   5.415   6.257 -1.9734 -0.9335  1.5590
 6736SOL    HW326717   4.309   5.359   6.387  2.7058 -1.2238 -0.2257
 6736SOL    MW426718   4.308   5.359   6.300  0.3938 -0.3788 -0.2622
 6737SOL     OW26719   3.273   2.014   1.793  0.4116 -0.1044 -0.2110
 6737SOL    HW226720   3.212   1.990   1.724 -0.8230 -2.7318  1.6268
 6737SOL    HW326721   3.270   2.110   1.796 -2.2631 -0.0672 -1.3843
 6737SOL    MW426722   3.265   2.024   1.785 -0.1042 -0.4462 -0.1233
 6738SOL     OW26723   3.576   2.161   3.468  0.0462  0.0437 -0.2520
 6738SOL    HW226724   3.630   2.213   3.528 -0.5820  1.1597 -0.6288
 6738SOL    HW326725   3.583   2.072   3.502  0.4553  0.4948  0.9266
 6738SOL    MW426726   3.584   2.156   3.481  0.0173  0.2504 -0.1462
 6739SOL     OW26727   4.687   1.201   0.811 -0.3588 -0.5994  0.4139
 6739SOL    HW226728   4.592   1.198   0.809 -0.4401  0.6687 -1.9246
 6739SOL    HW326729   4.708   1.294   0.801  1.1155 -0.9028  0.4580
 6739SOL    MW426730   4.677   1.213   0.809 -0.1750 -0.4721  0.1112
 6740SOL     OW26731   5.422   2.392   1.540 -0.1231 -0.7455  0.0982
 6740SOL    HW226732   5.347   2.415   1.485  0.8694 -2.1231 -1.9448
 6740SOL    HW326733   5.461   2.477   1.563  0.2069 -0.1369 -2.4901
 6740SOL    MW426734   5.417   2.406   1.536  0.0514 -0.8469 -0.5128
 6741SOL     OW26735   4.298   2.799   0.492 -0.2197 -0.4096 -0.3699
 6741SOL    HW226736   4.229   2.860   0.466  0.5035  0.6244  0.0620
 6741SOL    HW326737   4.252   2.719   0.517 -1.1015 -0.5829 -2.3926
 6741SOL    MW426738   4.283   2.796   0.492 -0.2406 -0.2960 -0.5798
 6742SOL     OW26739   2.936   5.400   5.728  0.0030  0.0645  0.0082
 6742SOL    HW226740   2.883   5.477   5.706  1.5490  0.3985 -3.1732
 6742SOL    HW326741   3.025   5.425   5.706  0.4753 -2.8411 -1.9393
 6742SOL    MW426742   2.941   5.414   5.722  0.2693 -0.2748 -0.6685
 6743SOL     OW26743   0.460   1.106   3.247 -0.1208  0.8501  0.0321
 6743SOL    HW226744   0.515   1.139   3.318  0.6389 -1.2405  0.5173
 6743SOL    HW326745   0.406   1.180   3.221  1.0014  2.2259  1.4291
 6743SOL    MW426746   0.460   1.120   3.253  0.1275  0.7558  0.2805
 6744SOL     OW26747   5.424   5.148   0.733  0.0093 -0.2086 -0.1516
 6744SOL    HW226748   5.487   5.080   0.759 -0.8069 -0.3566  1.5900
 6744SOL    HW326749   5.461   5.229   0.768  0.3338  0.0613 -1.0974
 6744SOL    MW426750   5.438   5.150   0.741 -0.0556 -0.1925 -0.0466
 6745SOL     OW26751   2.849   4.268   0.365 -0.1582  0.4709 -0.1740
 6745SOL    HW226752   2.818   4.188   0.406 -1.0740  0.9744  0.1594
 6745SOL    HW326753   2.941   4.252   0.345  0.1380 -0.0167  1.5046
 6745SOL    MW426754   2.857   4.256   0.368 -0.2400  0.4730  0.0915
 6746SOL     OW26755   4.023   6.416   4.066 -0.1200  0.0991 -0.1745
 6746SOL    HW226756   4.023   6.333   4.114 -1.2727 -0.9575 -1.8860
 6746SOL    HW326757   3.998   6.482   4.132 -1.5664 -1.2815  0.7285
 6746SOL    MW426758   4.019   6.414   4.081 -0.4629 -0.2224 -0.2812
 6747SOL     OW26759   1.647   0.715   0.713 -0.0636  0.4327  0.1360
 6747SOL    HW226760   1.687   0.797   0.741 -0.4261  0.3125  1.0522
 6747SOL    HW326761   1.714   0.673   0.659  0.5610  0.8275  0.5794
 6747SOL    MW426762   1.661   0.720   0.710 -0.0290  0.4689  0.3154
 6748SOL     OW26763   1.792   0.037   3.341  0.6303 -0.0229  0.1349
 6748SOL    HW226764   1.751   0.085   3.412  0.3772 -0.3269  0.1956
 6748SOL    HW326765   1.746   0.066   3.262  1.3054  0.7599  0.0128
 6748SOL    MW426766   1.781   0.047   3.340  0.6859  0.0403  0.1268
 6749SOL     OW26767   4.740   0.516   6.405 -0.2705  0.5567  0.0691
 6749SOL    HW226768   4.831   0.493   6.385 -1.0512 -0.8693 -2.1953
 6749SOL    HW326769   4.734   0.509   6.500  1.5119 -1.2978  0.1013
 6749SOL    MW426770   4.751   0.512   6.415 -0.1384  0.1239 -0.2254
 6750SOL     OW26771   5.623   3.331   0.820 -0.1229 -0.2455  0.3503
 6750SOL    HW226772   5.577   3.284   0.751  0.1421 -0.6071  0.4084
 6750SOL    HW326773   5.695   3.376   0.775 -1.8311  2.2062 -0.0859
 6750SOL    MW426774   5.627   3.330   0.805 -0.3133  0.0302  0.3004
 6751SOL     OW26775   1.604   4.199   5.404 -0.2025  0.2159  0.2091
 6751SOL    HW226776   1.699   4.204   5.414 -0.3633  0.4564  2.0201
 6751SOL    HW326777   1.580   4.116   5.446 -0.7886  0.1180 -0.3023
 6751SOL    MW426778   1.613   4.189   5.411 -0.3011  0.2347  0.3806
 6752SOL     OW26779   0.490   3.086   5.401 -0.1183  0.2548  0.1296
 6752SOL    HW226780   0.488   3.181   5.390 -1.9951  0.0141 -2.7383
 6752SOL    HW326781   0.459   3.051   5.317  0.7601 -2.9272  0.9678
 6752SOL    MW426782   0.485   3.094   5.389 -0.2500 -0.1968 -0.1382
 6753SOL     OW26783   5.308   4.929   2.538  0.4593  0.3504  0.1437
 6753SOL    HW226784   5.303   4.933   2.442  0.2875 -1.0980  0.0762
 6753SOL    HW326785   5.217   4.939   2.567  0.5538  1.1701  0.1917
 6753SOL    MW426786   5.295   4.931   2.529  0.4491  0.2675  0.1411
 6754SOL     OW26787   3.597   0.952   5.688 -0.7760  0.1795  0.2173
 6754SOL    HW226788   3.526   0.891   5.705  0.1839 -0.9945  0.1370
 6754SOL    HW326789   3.600   1.007   5.766 -1.4833 -0.0376  0.4077
 6754SOL    MW426790   3.588   0.951   5.701 -0.7427 -0.0041  0.2318
 6755SOL     OW26791   4.589   0.375   1.471 -0.3953 -0.1126  0.5243
 6755SOL    HW226792   4.608   0.443   1.536  2.5223  0.2661 -0.5866
 6755SOL    HW326793   4.538   0.420   1.404  0.1623  0.5976  0.5612
 6755SOL    MW426794   4.585   0.390   1.471  0.0632  0.0311  0.3826
 6756SOL     OW26795   5.617   5.060   4.372 -0.1842  0.2287  0.1840
 6756SOL    HW226796   5.573   5.081   4.290  0.2091  0.1192 -0.0595
 6756SOL    HW326797   5.674   5.135   4.388 -0.9396  0.6749  0.8434
 6756SOL    MW426798   5.619   5.073   4.363 -0.2320  0.2731  0.2389
 6757SOL     OW26799   5.847   0.488   2.576  0.3152  0.1078 -0.6821
 6757SOL    HW226800   5.920   0.471   2.634  1.6425  1.1684 -1.9609
 6757SOL    HW326801   5.887   0.526   2.498 -1.6751  1.4700 -1.1080
 6757SOL    MW426802   5.862   0.491   2.573  0.2277  0.4275 -0.9070
 6758SOL     OW26803   1.443   5.995   6.164  0.2973 -0.1192 -0.2068
 6758SOL    HW226804   1.532   6.023   6.186 -0.2589  2.7390 -1.0818
 6758SOL    HW326805   1.389   6.073   6.181 -1.5895 -0.8701 -2.3252
 6758SOL    MW426806   1.448   6.009   6.169 -0.0250  0.1589 -0.6018
 6759SOL     OW26807   2.849   5.806   4.502 -0.2091  0.0735  0.4916
 6759SOL    HW226808   2.820   5.822   4.412 -1.5069  0.2208  0.9063
 6759SOL    HW326809   2.867   5.712   4.505 -2.9657 -0.5344  0.7716
 6759SOL    MW426810   2.847   5.796   4.491 -0.7440  0.0127  0.5833
 6760SOL     OW26811   5.371   6.331   2.442  0.3691 -0.2251 -0.2383
 6760SOL    HW226812   5.453   6.359   2.401  0.8915  1.3560  1.7422
 6760SOL    HW326813   5.390   6.330   2.535 -1.7735 -0.2424  0.2463
 6760SOL    MW426814   5.385   6.335   2.449  0.1553 -0.0187  0.0869
 6761SOL     OW26815   1.580   5.999   0.918 -0.2249 -0.2280  0.6673
 6761SOL    HW226816   1.528   6.078   0.930  0.5178  0.6269 -1.2341
 6761SOL    HW326817   1.656   6.010   0.975  1.3110  1.8537 -1.5815
 6761SOL    MW426818   1.583   6.011   0.927  0.0758  0.1595  0.1197
 6762SOL     OW26819   2.740   5.599   5.698  0.2397  0.1548  0.0003
 6762SOL    HW226820   2.726   5.654   5.775  2.2477  0.8948 -0.1066
 6762SOL    HW326821   2.678   5.527   5.708 -0.5600  1.0179  1.5420
 6762SOL    MW426822   2.730   5.597   5.710  0.3991  0.3663  0.1896
 6763SOL     OW26823   5.305   4.763   0.745 -0.5407 -0.1300 -0.3739
 6763SOL    HW226824   5.251   4.688   0.720  2.1382 -1.8003 -1.6826
 6763SOL    HW326825   5.366   4.728   0.810  0.4089  1.0498 -0.5958
 6763SOL    MW426826   5.306   4.748   0.750 -0.0619 -0.1947 -0.5758
 6764SOL     OW26827   2.089   3.932   2.051  0.1481 -0.2418  0.4662
 6764SOL    HW226828   2.020   3.873   2.020  0.9577 -1.0421  0.1467
 6764SOL    HW326829   2.099   3.912   2.144 -0.5056  0.3581  0.6779
 6764SOL    MW426830   2.082   3.922   2.059  0.1687 -0.2683  0.4520
 6765SOL     OW26831   2.919   0.780   5.417  0.1358 -0.5206  0.2464
 6765SOL    HW226832   2.892   0.718   5.484 -1.2651 -0.9903 -0.7202
 6765SOL    HW326833   2.888   0.865   5.449  0.9496 -0.4780  0.9659
 6765SOL    MW426834   2.912   0.783   5.430  0.0583 -0.5769  0.2138
 6766SOL     OW26835   5.955   2.541   3.654 -1.0920 -0.1307 -0.5827
 6766SOL    HW226836   5.895   2.599   3.701 -1.5532  0.9021 -2.3676
 6766SOL    HW326837   6.030   2.595   3.633  0.1223 -1.1755  0.8158
 6766SOL    MW426838   5.957   2.556   3.658 -0.9926 -0.1323 -0.6337
 6767SOL     OW26839   0.349   2.942   3.161  0.5237 -0.5470  0.4393
 6767SOL    HW226840   0.381   3.032   3.152 -0.2550 -0.4323 -1.8549
 6767SOL    HW326841   0.404   2.891   3.101 -1.7551 -0.7916 -1.5756
 6767SOL    MW426842   0.361   2.947   3.152  0.1203 -0.5641 -0.1293
 6768SOL     OW26843   4.279   4.339   1.424 -0.2998  0.2822  0.3596
 6768SOL    HW226844   4.351   4.323   1.484 -1.4230  1.5582  2.1581
 6768SOL    HW326845   4.203   4.299   1.467 -0.5896 -1.9375 -1.9561
 6768SOL    MW426846   4.278   4.331   1.438 -0.4862  0.1577  0.2913
 6769SOL     OW26847   5.179   5.568   4.708  0.0952 -0.1635 -0.4698
 6769SOL    HW226848   5.254   5.546   4.763 -0.2407  1.2348  0.5879
 6769SOL    HW326849   5.132   5.636   4.756 -2.7223 -2.0289 -0.3811
 6769SOL    MW426850   5.183   5.574   4.721 -0.3209 -0.2251 -0.3186
 6770SOL     OW26851   4.363   1.470   4.467  0.0407 -0.5443 -0.0855
 6770SOL    HW226852   4.448   1.476   4.512 -0.1896  0.1540  0.2765
 6770SOL    HW326853   4.315   1.403   4.517 -0.9289  1.5516  1.9970
 6770SOL    MW426854   4.368   1.462   4.480 -0.1176 -0.1756  0.2370
 6771SOL     OW26855   2.910   1.248   5.177 -0.1411  0.1075  0.4953
 6771SOL    HW226856   2.992   1.296   5.168 -0.1882  0.9748  3.5104
 6771SOL    HW326857   2.869   1.255   5.090  2.1938  1.0522 -0.6271
 6771SOL    MW426858   2.915   1.255   5.164  0.1607  0.3465  0.7450
 6772SOL     OW26859   5.063   5.708   0.414  0.7004 -0.8275 -0.3029
 6772SOL    HW226860   5.134   5.645   0.406  1.2335 -0.4535  1.0923
 6772SOL    HW326861   5.097   5.788   0.374  1.3623 -0.4430  0.9874
 6772SOL    MW426862   5.077   5.711   0.408  0.8581 -0.7274  0.0514
 6773SOL     OW26863   5.146   3.079   0.119 -0.2259  0.1815 -0.1526
 6773SOL    HW226864   5.131   3.082   0.213  0.8265 -2.5596  0.1776
 6773SOL    HW326865   5.116   3.165   0.088 -0.1221  1.3804  2.7091
 6773SOL    MW426866   5.140   3.091   0.127 -0.0734 -0.0220  0.2686
 6774SOL     OW26867   5.660   2.493   0.773  0.3090 -0.6530 -0.0258
 6774SOL    HW226868   5.650   2.557   0.703  0.2494 -1.6135 -0.9173
 6774SOL    HW326869   5.748   2.507   0.807  0.2290  0.0164 -0.0814
 6774SOL    MW426870   5.670   2.503   0.769  0.2906 -0.6914 -0.1508
 6775SOL     OW26871   0.461   1.548   0.698 -0.0583  0.1118  0.2421
 6775SOL    HW226872   0.506   1.557   0.615 -1.8992  0.9579 -0.7125
 6775SOL    HW326873   0.467   1.455   0.719  0.2697 -0.1424 -0.9334
 6775SOL    MW426874   0.467   1.537   0.690 -0.2579  0.1899 -0.0389
 6776SOL     OW26875   1.977   4.468   4.836  0.2298  0.2903 -0.0146
 6776SOL    HW226876   2.013   4.388   4.874  0.4461  0.7632  0.8067
 6776SOL    HW326877   1.978   4.531   4.908 -1.0018  0.7070 -0.3243
 6776SOL    MW426878   1.982   4.466   4.850  0.0959  0.4076  0.0529
 6777SOL     OW26879   0.251   2.613   6.284 -0.2519 -0.1100 -0.1403
 6777SOL    HW226880   0.176   2.663   6.253  0.8929  2.0934  0.5069
 6777SOL    HW326881   0.318   2.626   6.217 -0.0415 -1.0971 -0.1400
 6777SOL    MW426882   0.250   2.621   6.271 -0.0731  0.0505 -0.0549
 6778SOL     OW26883   5.030   3.404   3.331  0.3236 -0.1316  0.1002
 6778SOL    HW226884   5.059   3.491   3.358 -2.5152  0.0519  3.2164
 6778SOL    HW326885   5.066   3.345   3.397 -0.7925 -0.7481  0.1937
 6778SOL    MW426886   5.038   3.407   3.343 -0.1982 -0.1888  0.5237
 6779SOL     OW26887   4.669   5.030   1.201  0.2929  0.8215  0.3352
 6779SOL    HW226888   4.692   5.101   1.140 -0.5254  1.2602  0.5257
 6779SOL    HW326889   4.676   4.951   1.149  2.0599  0.9287  0.3351
 6779SOL    MW426890   4.673   5.029   1.186  0.4181  0.8935  0.3603
 6780SOL     OW26891   2.330   2.936   2.882 -0.0212 -0.0466  1.0021
 6780SOL    HW226892   2.326   3.032   2.888 -0.6909 -0.0864  1.3517
 6780SOL    HW326893   2.421   2.914   2.898  0.2177  0.5628  0.5161
 6780SOL    MW426894   2.341   2.946   2.885 -0.0780  0.0286  0.9841
 6781SOL     OW26895   2.257   2.897   5.169  0.1658  0.0225  0.0604
 6781SOL    HW226896   2.343   2.932   5.192  0.7981 -0.7246 -1.0769
 6781SOL    HW326897   2.197   2.942   5.227  1.0873  2.0327 -0.4503
 6781SOL    MW426898   2.261   2.907   5.179  0.3708  0.1891 -0.1571
 6782SOL     OW26899   4.114   2.789   3.002  0.2796 -0.5322  0.2581
 6782SOL    HW226900   4.153   2.828   3.080  1.8869 -0.8036 -0.3547
 6782SOL    HW326901   4.133   2.851   2.932 -1.6093 -0.0375  0.1333
 6782SOL    MW426902   4.122   2.802   3.003  0.2424 -0.5027  0.1608
 6783SOL     OW26903   3.085   5.632   0.706 -0.0608 -1.0462  0.3301
 6783SOL    HW226904   3.132   5.564   0.754 -1.2644 -1.5901  0.7549
 6783SOL    HW326905   3.100   5.711   0.757 -0.7518 -1.4861  1.2380
 6783SOL    MW426906   3.093   5.633   0.719 -0.3108 -1.1760  0.5059
 6784SOL     OW26907   5.599   2.926   2.693  0.0355  0.3898  0.2856
 6784SOL    HW226908   5.670   2.865   2.712  0.7832  1.6045  1.5964
 6784SOL    HW326909   5.608   2.945   2.599  0.4964 -0.6084  0.1187
 6784SOL    MW426910   5.609   2.921   2.683  0.1950  0.4184  0.4365
 6785SOL     OW26911   1.726   5.566   2.293  0.0261 -0.2077 -0.0371
 6785SOL    HW226912   1.657   5.500   2.292 -0.2519  0.0822 -0.7482
 6785SOL    HW326913   1.762   5.565   2.205  1.6253 -1.0524  0.5811
 6785SOL    MW426914   1.721   5.557   2.281  0.2005 -0.2809 -0.0494
 6786SOL     OW26915   5.032   4.680   1.615  0.0078  0.2587 -0.0633
 6786SOL    HW226916   5.092   4.721   1.553 -0.9247  2.1032  0.2056
 6786SOL    HW326917   5.071   4.699   1.701 -0.1740  0.1408  0.0454
 6786SOL    MW426918   5.045   4.688   1.618 -0.1392  0.4865 -0.0135
 6787SOL     OW26919   5.641   1.183   5.023 -0.6522  0.1747  0.2946
 6787SOL    HW226920   5.693   1.237   4.964 -0.5772 -0.6572 -0.4195
 6787SOL    HW326921   5.639   1.233   5.105  1.1771  0.3038  0.3100
 6787SOL    MW426922   5.648   1.197   5.026 -0.4010  0.0820  0.2024
 6788SOL     OW26923   0.115   3.269   1.010  0.6632 -0.2489  0.2507
 6788SOL    HW226924   0.194   3.253   0.959  0.1704  0.7665 -0.8625
 6788SOL    HW326925   0.126   3.357   1.046 -0.9478  0.9181 -1.8929
 6788SOL    MW426926   0.127   3.278   1.008  0.3857  0.0390 -0.1790
 6789SOL     OW26927   3.161   0.895   0.765 -0.4966  0.4104 -0.2607
 6789SOL    HW226928   3.155   0.906   0.860  0.5235  0.5909 -0.1956
 6789SOL    HW326929   3.071   0.892   0.735 -0.9023  2.9370  0.4351
 6789SOL    MW426930   3.149   0.896   0.774 -0.4156  0.7675 -0.1603
 6790SOL     OW26931   2.332   5.744   4.561 -0.2686  0.0211  0.7581
 6790SOL    HW226932   2.422   5.773   4.577 -0.1331  0.5344 -0.7307
 6790SOL    HW326933   2.337   5.695   4.478 -1.1700 -0.9598  1.2574
 6790SOL    MW426934   2.344   5.741   4.552 -0.3696 -0.0406  0.6275
 6791SOL     OW26935   3.339   6.394   4.947 -0.0262 -0.1559  0.1433
 6791SOL    HW226936   3.275   6.371   5.014 -0.6505  0.5670 -0.1887
 6791SOL    HW326937   3.415   6.338   4.966 -0.1662  0.0657  1.4737
 6791SOL    MW426938   3.341   6.383   4.959 -0.1270 -0.0313  0.2750
 6792SOL     OW26939   4.450   4.678   3.825 -0.0929  0.1576 -0.3674
 6792SOL    HW226940   4.528   4.698   3.877  0.7052 -0.0114 -1.4663
 6792SOL    HW326941   4.444   4.583   3.827  0.1745  0.1258 -0.9006
 6792SOL    MW426942   4.459   4.668   3.832  0.0477  0.1311 -0.5827
 6793SOL     OW26943   5.138   3.624   3.450 -0.2837 -0.1481  0.2466
 6793SOL    HW226944   5.100   3.638   3.537  0.6383 -1.1179  0.8220
 6793SOL    HW326945   5.137   3.711   3.409 -0.2078  0.4282  1.4371
 6793SOL    MW426946   5.133   3.637   3.456 -0.1520 -0.2000  0.4796
 6794SOL     OW26947   5.471   2.758   1.872 -0.2950 -0.4553  0.0905
 6794SOL    HW226948   5.468   2.702   1.950 -3.1905  0.0191  0.4212
 6794SOL    HW326949   5.544   2.817   1.889  0.4175 -1.6699  1.4983
 6794SOL    MW426950   5.480   2.758   1.885 -0.5830 -0.5530  0.3199
 6795SOL     OW26951   0.965   0.347   5.166  0.6371 -0.0798 -0.0570
 6795SOL    HW226952   0.934   0.361   5.256  0.5649  0.5014 -0.1666
 6795SOL    HW326953   0.916   0.411   5.114 -0.0827 -1.1120 -0.6770
 6795SOL    MW426954   0.954   0.357   5.171  0.5326 -0.1393 -0.1532
 6796SOL     OW26955   4.608   4.201   2.930  0.1513  0.4651 -0.2977
 6796SOL    HW226956   4.683   4.259   2.917 -0.7789  2.1009  1.3094
 6796SOL    HW326957   4.644   4.113   2.915  2.1276  1.2632 -0.5815
 6796SOL    MW426958   4.623   4.197   2.926  0.2893  0.7862 -0.1231
 6797SOL     OW26959   2.136   4.109   3.645 -0.8889  0.0189 -0.5977
 6797SOL    HW226960   2.044   4.134   3.653 -0.4360  1.4710  0.4960
 6797SOL    HW326961   2.135   4.033   3.587 -2.6466  0.8565 -1.7569
 6797SOL    MW426962   2.124   4.102   3.638 -1.0611  0.3210 -0.6063
 6798SOL     OW26963   1.190   3.135   4.636 -0.2717  0.0475 -0.0908
 6798SOL    HW226964   1.101   3.113   4.609 -1.0495  1.3661  1.3061
 6798SOL    HW326965   1.238   3.144   4.553 -1.6290  0.1869 -0.8947
 6798SOL    MW426966   1.185   3.133   4.621 -0.5534  0.2399 -0.0126
 6799SOL     OW26967   3.567   3.053   2.300  0.0020  1.1565  0.5421
 6799SOL    HW226968   3.659   3.078   2.308  0.3188 -0.2142  1.4865
 6799SOL    HW326969   3.535   3.050   2.390 -0.1759 -1.0844  0.4608
 6799SOL    MW426970   3.575   3.056   2.313  0.0203  0.6800  0.6559
 6800SOL     OW26971   3.782   4.514   5.483 -0.3394  0.1859 -0.3987
 6800SOL    HW226972   3.777   4.597   5.434 -3.4268 -1.0607 -2.4950
 6800SOL    HW326973   3.703   4.466   5.458  0.3640 -2.6658  2.1991
 6800SOL    MW426974   3.771   4.519   5.473 -0.6540 -0.3548 -0.3325
 6801SOL     OW26975   2.351   5.333   1.486  0.2163 -0.5206 -0.0416
 6801SOL    HW226976   2.361   5.271   1.414 -0.4867  1.8582 -2.3104
 6801SOL    HW326977   2.429   5.387   1.482  0.7893 -1.1164  1.8795
 6801SOL    MW426978   2.362   5.332   1.476  0.1991 -0.2853 -0.0875
 6802SOL     OW26979   4.382   1.250   1.468 -0.1303  0.1111  0.3257
 6802SOL    HW226980   4.453   1.207   1.515 -2.0336 -0.3825  2.9988
 6802SOL    HW326981   4.307   1.192   1.481 -1.5272  1.6511 -0.5483
 6802SOL    MW426982   4.381   1.236   1.476 -0.5657  0.2491  0.5630
 6803SOL     OW26983   0.597   2.022   4.816 -0.2039 -0.0838  0.1412
 6803SOL    HW226984   0.682   2.007   4.775  0.2489 -0.5106  1.2055
 6803SOL    HW326985   0.550   2.077   4.753  0.8719  0.2044 -0.4454
 6803SOL    MW426986   0.602   2.027   4.802 -0.0022 -0.1021  0.2042
 6804SOL     OW26987   4.366   2.396   2.377 -0.4966  0.6557 -0.3205
 6804SOL    HW226988   4.298   2.384   2.311 -0.7414  1.4976 -0.2344
 6804SOL    HW326989   4.354   2.486   2.408 -1.9601 -0.3848  2.5881
 6804SOL    MW426990   4.355   2.407   2.372 -0.7220  0.6295  0.0746
 6805SOL     OW26991   5.189   5.380   3.748 -0.1412 -0.4261 -0.5041
 6805SOL    HW226992   5.153   5.469   3.756  0.5729 -0.2976  1.9729
 6805SOL    HW326993   5.125   5.333   3.694 -0.4299  1.5955 -2.0590
 6805SOL    MW426994   5.176   5.386   3.742 -0.0851 -0.1425 -0.3825
 6806SOL     OW26995   2.367   0.876   6.231 -0.6731  0.4895 -0.2321
 6806SOL    HW226996   2.462   0.865   6.239 -0.7826  0.2355  0.8741
 6806SOL    HW326997   2.336   0.788   6.208 -0.9226 -0.2171  2.4857
 6806SOL    MW426998   2.376   0.863   6.229 -0.7205  0.3627  0.2724
 6807SOL     OW26999   1.868   1.416   4.988 -0.0627 -0.3905  0.5891
 6807SOL    HW227000   1.955   1.394   5.021 -0.3946 -1.3375  0.8798
 6807SOL    HW327001   1.810   1.350   5.027 -0.9940  0.5415  0.8257
 6807SOL    MW427002   1.872   1.404   4.997 -0.2294 -0.3925  0.6587
 6808SOL     OW27003   3.165   3.460   1.787  0.2811 -0.9335  0.0103
 6808SOL    HW227004   3.084   3.410   1.776 -0.2391 -0.3672  1.1027
 6808SOL    HW327005   3.201   3.428   1.870  0.4982 -0.2457  0.1840
 6808SOL    MW427006   3.159   3.449   1.797  0.2411 -0.7680  0.1774
 6809SOL     OW27007   2.149   3.890   0.324 -0.2016 -0.2816  0.0030
 6809SOL    HW227008   2.138   3.928   0.410 -1.4137  1.0698 -0.7059
 6809SOL    HW327009   2.184   3.960   0.270  2.1840 -1.5793 -0.2792
 6809SOL    MW427010   2.152   3.904   0.328 -0.0468 -0.2745 -0.1278
 6810SOL     OW27011   5.355   0.587   4.896 -0.2893 -0.6549 -0.1869
 6810SOL    HW227012   5.426   0.620   4.841 -0.9367  1.6456  0.2415
 6810SOL    HW327013   5.289   0.557   4.835  0.1371 -0.7306 -0.6179
 6810SOL    MW427014   5.356   0.587   4.881 -0.3185 -0.3613 -0.1873
 6811SOL     OW27015   1.721   1.546   4.540 -0.2313 -0.5452  0.1645
 6811SOL    HW227016   1.713   1.598   4.620 -1.8136 -0.8229  0.2379
 6811SOL    HW327017   1.696   1.606   4.470 -0.6212 -0.7858  0.0915
 6811SOL    MW427018   1.716   1.560   4.542 -0.4915 -0.6136  0.1646
 6812SOL     OW27019   4.455   6.149   5.411 -0.3514  0.4454  0.2697
 6812SOL    HW227020   4.404   6.230   5.408 -0.7795  0.1496 -1.1486
 6812SOL    HW327021   4.392   6.079   5.397  0.1659 -0.0553  0.3925
 6812SOL    MW427022   4.440   6.151   5.409 -0.3397  0.3403  0.0987
 6813SOL     OW27023   2.402   3.026   3.743  0.0781 -0.0418  0.3234
 6813SOL    HW227024   2.422   3.089   3.673 -0.5151  0.6413  0.7578
 6813SOL    HW327025   2.307   3.016   3.740  0.1798 -1.0243  0.1795
 6813SOL    MW427026   2.392   3.033   3.733  0.0133 -0.0813  0.3617
 6814SOL     OW27027   0.943   1.582   0.324  0.0362 -0.5012  0.3654
 6814SOL    HW227028   0.869   1.541   0.277 -0.9927  1.0567  0.5415
 6814SOL    HW327029   0.990   1.508   0.363 -1.3882 -1.5569  0.1898
 6814SOL    MW427030   0.939   1.567   0.323 -0.2875 -0.4350  0.3655
 6815SOL     OW27031   3.347   1.186   1.636 -0.4412 -0.2568  0.2701
 6815SOL    HW227032   3.432   1.219   1.607 -0.8292 -0.0353 -0.6783
 6815SOL    HW327033   3.355   1.177   1.731 -0.0838  1.8887  0.4998
 6815SOL    MW427034   3.359   1.189   1.644 -0.4452  0.0555  0.1753
 6816SOL     OW27035   2.723   1.773   0.637  0.4662  0.0070  0.4008
 6816SOL    HW227036   2.781   1.839   0.676 -0.2212 -0.5973  2.5945
 6816SOL    HW327037   2.769   1.690   0.650  1.6841 -0.0356 -3.0134
 6816SOL    MW427038   2.737   1.771   0.644  0.5362 -0.0783  0.2398
 6817SOL     OW27039   1.988   5.870   5.449 -0.2803  0.0089  0.1113
 6817SOL    HW227040   2.060   5.931   5.467  1.0661 -0.7789 -2.1417
 6817SOL    HW327041   1.910   5.913   5.486  0.7990  2.4688 -0.2451
 6817SOL    MW427042   1.987   5.884   5.456  0.0397  0.2295 -0.2330
 6818SOL     OW27043   4.077   0.481   5.778  0.1692  0.2726 -0.1099
 6818SOL    HW227044   4.145   0.455   5.716  1.4088 -0.1964  1.3894
 6818SOL    HW327045   4.026   0.401   5.793 -0.1046  0.3758 -0.4668
 6818SOL    MW427046   4.079   0.467   5.772  0.2966  0.2244  0.0409
 6819SOL     OW27047   4.539   3.900   0.859 -0.0554 -0.0087 -0.1584
 6819SOL    HW227048   4.519   3.827   0.918  0.8311 -2.7511 -2.9665
 6819SOL    HW327049   4.463   3.907   0.802 -0.5059  1.9761  0.5957
 6819SOL    MW427050   4.526   3.891   0.859  0.0021 -0.1087 -0.4294
 6820SOL     OW27051   1.871   0.408   4.243  0.5128 -0.3521  0.4542
 6820SOL    HW227052   1.792   0.441   4.286 -0.7912 -0.7488 -1.5350
 6820SOL    HW327053   1.864   0.313   4.252  0.8742 -0.3828  0.4255
 6820SOL    MW427054   1.859   0.400   4.250  0.3885 -0.4085  0.1879
 6821SOL     OW27055   3.144   5.743   4.598 -0.2752  0.0703  0.0280
 6821SOL    HW227056   3.239   5.733   4.608 -0.3364  0.5488  1.1882
 6821SOL    HW327057   3.112   5.653   4.589  0.2995 -0.0813 -0.6190
 6821SOL    MW427058   3.153   5.730   4.598 -0.2075  0.1134  0.0957
 6822SOL     OW27059   0.566   2.198   2.287  0.3340 -0.1001 -0.8945
 6822SOL    HW227060   0.606   2.285   2.281  2.3992 -0.6834  2.1199
 6822SOL    HW327061   0.616   2.153   2.356 -3.5970 -2.0520  1.0316
 6822SOL    MW427062   0.578   2.204   2.295  0.0878 -0.4346 -0.2426
 6823SOL     OW27063   1.701   6.203   2.536  0.1486 -0.1197 -0.1482
 6823SOL    HW227064   1.634   6.219   2.470 -1.1377 -2.5549  0.4425
 6823SOL    HW327065   1.656   6.151   2.603  1.5412  1.6952  2.4076
 6823SOL    MW427066   1.686   6.199   2.536  0.1626 -0.2015  0.2669
 6824SOL     OW27067   3.286   3.202   5.952 -0.0590 -0.3000  0.5529
 6824SOL    HW227068   3.320   3.204   5.863 -1.0106  0.6099  0.1875
 6824SOL    HW327069   3.343   3.262   6.001 -0.4598  0.3852  0.1935
 6824SOL    MW427070   3.298   3.210   5.947 -0.2374 -0.0895  0.4573
 6825SOL     OW27071   6.357   5.964   5.586  0.4710  0.2828 -0.2663
 6825SOL    HW227072   6.341   5.871   5.600 -2.0343  0.2956 -2.2308
 6825SOL    HW327073   6.401   5.993   5.666  2.8050 -2.8402 -0.2418
 6825SOL    MW427074   6.361   5.956   5.599  0.4484 -0.1275 -0.5222
 6826SOL     OW27075   1.346   5.271   5.932 -0.1733 -0.7612  0.0159
 6826SOL    HW227076   1.357   5.326   6.010 -0.1785 -1.2306  0.3554
 6826SOL    HW327077   1.252   5.251   5.930 -0.4530  0.5252 -1.0035
 6826SOL    MW427078   1.335   5.276   5.942 -0.2109 -0.6534 -0.0738
 6827SOL     OW27079   5.596   0.114   5.257  0.1102  0.3568 -0.1848
 6827SOL    HW227080   5.612   0.077   5.344  0.3385  1.5354  0.2901
 6827SOL    HW327081   5.590   0.038   5.199 -0.8473 -0.4844  0.9854
 6827SOL    MW427082   5.597   0.099   5.261  0.0140  0.4013  0.0322
 6828SOL     OW27083   2.123   3.316   5.807 -0.3096  0.0259  0.5180
 6828SOL    HW227084   2.115   3.335   5.714 -1.9542 -3.3467 -0.1967
 6828SOL    HW327085   2.206   3.269   5.815 -0.8433 -0.9596  0.4388
 6828SOL    MW427086   2.133   3.312   5.796 -0.5970 -0.5491  0.4133
 6829SOL     OW27087   4.213   4.669   3.435 -0.3774 -1.0055  0.4756
 6829SOL    HW227088   4.210   4.673   3.340 -0.8376 -0.0187  0.5189
 6829SOL    HW327089   4.283   4.606   3.455 -0.6187 -1.6010 -0.5016
 6829SOL    MW427090   4.222   4.661   3.425 -0.4700 -0.9539  0.3524
 6830SOL     OW27091   1.640   6.110   3.276  0.3835 -0.3658 -0.0372
 6830SOL    HW227092   1.563   6.056   3.293  1.5273 -2.6403 -1.5520
 6830SOL    HW327093   1.668   6.139   3.362 -2.0506  0.4303  0.5613
 6830SOL    MW427094   1.634   6.106   3.289  0.2133 -0.5609 -0.1581
 6831SOL     OW27095   4.590   4.359   5.354 -0.2099  0.4072 -0.2994
 6831SOL    HW227096   4.574   4.390   5.443  0.6440  0.2135 -0.0748
 6831SOL    HW327097   4.531   4.284   5.345 -1.3611  1.2863 -0.4142
 6831SOL    MW427098   4.580   4.353   5.365 -0.2491  0.4976 -0.2849
 6832SOL     OW27099   4.635   5.280   1.088  1.1945 -0.4807  0.7825
 6832SOL    HW227100   4.624   5.298   1.181 -1.4326  0.6987  0.3569
 6832SOL    HW327101   4.563   5.328   1.046  1.1728 -2.4639 -1.6818
 6832SOL    MW427102   4.624   5.289   1.094  0.8450 -0.5867  0.4012
 6833SOL     OW27103   6.333   2.725   0.431 -0.0492 -0.2674 -0.0923
 6833SOL    HW227104   6.356   2.691   0.345  1.8599  0.6367  0.0053
 6833SOL    HW327105   6.404   2.785   0.453 -1.6219  1.2918  1.1332
 6833SOL    MW427106   6.345   2.729   0.423 -0.0048  0.0576  0.0823
 6834SOL     OW27107   1.478   1.672   6.382 -0.5286  0.2959  0.1021
 6834SOL    HW227108   1.468   1.691   6.476  0.3503 -0.3086  0.3327
 6834SOL    HW327109   1.413   1.604   6.364 -0.8809  0.6012  0.2063
 6834SOL    MW427110   1.468   1.665   6.392 -0.4591  0.2564  0.1463
 6835SOL     OW27111   0.535   3.022   2.678  0.1902  0.3088  0.7684
 6835SOL    HW227112   0.443   3.039   2.658  0.2277 -0.5162 -0.2042
 6835SOL    HW327113   0.538   2.928   2.696  1.1648 -0.1490 -1.4093
 6835SOL    MW427114   0.523   3.011   2.678  0.3237  0.1396  0.3527
 6836SOL     OW27115   6.294   2.131   6.405  0.1487  0.2030  0.0756
 6836SOL    HW227116   6.263   2.107   6.492 -1.9866  1.3990 -0.2930
 6836SOL    HW327117   6.263   2.221   6.392  0.5987  0.1266 -1.8202
 6836SOL    MW427118   6.286   2.140   6.415 -0.0737  0.3507 -0.2231
 6837SOL     OW27119   1.580   2.765   5.668 -0.0519  0.1036 -0.1359
 6837SOL    HW227120   1.620   2.834   5.614  1.4393 -0.8752 -0.3495
 6837SOL    HW327121   1.558   2.809   5.750 -1.6167  1.4422 -1.2023
 6837SOL    MW427122   1.583   2.780   5.671 -0.0616  0.1511 -0.3048
 6838SOL     OW27123   2.354   5.617   3.159 -0.9842  0.4118 -0.7311
 6838SOL    HW227124   2.316   5.637   3.074 -0.0682 -2.7017 -2.0322
 6838SOL    HW327125   2.284   5.572   3.207 -1.5853  2.3970  0.3414
 6838SOL    MW427126   2.340   5.613   3.154 -0.9426  0.2629 -0.7613
 6839SOL     OW27127   0.620   0.294   3.649 -0.1718 -0.1007 -0.5987
 6839SOL    HW227128   0.616   0.389   3.663  0.4102 -0.1731  0.1417
 6839SOL    HW327129   0.530   0.264   3.666 -0.0661  0.1605  0.5370
 6839SOL    MW427130   0.608   0.303   3.653 -0.0810 -0.0758 -0.3512
 6840SOL     OW27131   0.247   0.312   6.026  0.4799  0.2984  0.2684
 6840SOL    HW227132   0.237   0.236   6.084  0.3725 -1.5207 -1.9774
 6840SOL    HW327133   0.162   0.320   5.983  0.6737  1.3704  0.0685
 6840SOL    MW427134   0.235   0.303   6.028  0.4913  0.1999 -0.0543
 6841SOL     OW27135   5.154   3.208   1.321  0.1228  0.7653  0.3603
 6841SOL    HW227136   5.062   3.232   1.309  0.0941  0.6798  0.4039
 6841SOL    HW327137   5.186   3.186   1.234 -0.5117 -1.3760  0.6152
 6841SOL    MW427138   5.146   3.208   1.308  0.0353  0.4715  0.3997
 6842SOL     OW27139   2.833   2.381   1.404  0.8336  0.2280 -0.1300
 6842SOL    HW227140   2.764   2.445   1.418  0.3351  0.1081 -1.7792
 6842SOL    HW327141   2.811   2.341   1.319  1.6249 -1.4757  0.4285
 6842SOL    MW427142   2.821   2.384   1.394  0.8722 -0.0126 -0.2739
 6843SOL     OW27143   4.209   4.969   2.571 -0.5336 -0.0838 -0.0932
 6843SOL    HW227144   4.275   4.978   2.502 -0.2631 -1.4581 -0.0491
 6843SOL    HW327145   4.138   4.920   2.530 -1.8519  1.8969 -0.3132
 6843SOL    MW427146   4.208   4.964   2.556 -0.6718 -0.0038 -0.1164
 6844SOL     OW27147   2.843   3.641   4.565 -0.3450  0.1808  0.4065
 6844SOL    HW227148   2.783   3.637   4.490 -1.4852  0.2184  1.2865
 6844SOL    HW327149   2.800   3.700   4.627  0.9096  0.6993  0.8298
 6844SOL    MW427150   2.829   3.648   4.564 -0.3299  0.2541  0.5785
 6845SOL     OW27151   2.808   2.975   4.565 -0.5877 -0.0468 -0.1915
 6845SOL    HW227152   2.717   3.003   4.555  0.1594  2.2840 -1.1276
 6845SOL    HW327153   2.857   3.057   4.575  1.7139 -1.0261 -2.4060
 6845SOL    MW427154   2.803   2.990   4.565 -0.1854  0.1315 -0.6071
 6846SOL     OW27155   5.873   4.269   0.654  0.2609 -0.1811 -0.2513
 6846SOL    HW227156   5.810   4.248   0.585 -0.6419  1.5524 -0.0170
 6846SOL    HW327157   5.957   4.242   0.619 -0.3006 -0.1345 -1.6871
 6846SOL    MW427158   5.876   4.263   0.640  0.0677  0.0537 -0.4098
 6847SOL     OW27159   3.825   6.208   1.882  0.3371 -0.1874 -0.2210
 6847SOL    HW227160   3.875   6.198   1.801  2.1177 -0.5311  0.8519
 6847SOL    HW327161   3.888   6.189   1.951 -1.2515 -0.3972  1.2455
 6847SOL    MW427162   3.840   6.204   1.880  0.3624 -0.2604  0.1141
 6848SOL     OW27163   0.630   4.492   1.654 -0.3324  0.7292 -0.2515
 6848SOL    HW227164   0.661   4.499   1.744  0.0380 -0.0118 -0.3179
 6848SOL    HW327165   0.540   4.460   1.662  0.0862 -0.4610 -0.1787
 6848SOL    MW427166   0.622   4.489   1.667 -0.2283  0.4744 -0.2507
 6849SOL     OW27167   5.866   2.321   6.336  0.9820 -0.8667 -0.4269
 6849SOL    HW227168   5.872   2.397   6.279  1.1804 -1.1068 -0.7333
 6849SOL    HW327169   5.830   2.354   6.418 -0.9623 -0.8047 -1.2527
 6849SOL    MW427170   5.863   2.335   6.339  0.7516 -0.8902 -0.5763
 6850SOL     OW27171   0.453   5.562   0.336 -0.3245  0.1220  0.0403
 6850SOL    HW227172   0.370   5.514   0.330 -0.3913  0.2193  0.1722
 6850SOL    HW327173   0.434   5.648   0.299 -0.1074 -0.0723 -0.5357
 6850SOL    MW427174   0.440   5.567   0.330 -0.3046  0.1092 -0.0183
 6851SOL     OW27175   2.312   1.816   5.985 -0.0681 -0.6873 -0.7258
 6851SOL    HW227176   2.234   1.784   5.940 -0.5691  0.2570 -0.5726
 6851SOL    HW327177   2.382   1.757   5.959 -1.0064 -2.0792 -0.2007
 6851SOL    MW427178   2.311   1.804   5.976 -0.2580 -0.7464 -0.6363
 6852SOL     OW27179   0.089   1.437   5.673 -0.0805  0.2363  0.2106
 6852SOL    HW227180   0.140   1.518   5.681  0.3839 -0.1094  0.9507
 6852SOL    HW327181   0.111   1.404   5.586  0.6867  0.2865  0.3714
 6852SOL    MW427182   0.099   1.443   5.663  0.0820  0.1973  0.3294
 6853SOL     OW27183   3.787   3.636   1.506  0.2942 -0.3671  0.3844
 6853SOL    HW227184   3.851   3.706   1.516 -0.6233  0.5819 -0.2106
 6853SOL    HW327185   3.743   3.631   1.591  0.2156 -0.0742  0.3612
 6853SOL    MW427186   3.790   3.644   1.518  0.1628 -0.2033  0.3028
 6854SOL     OW27187   2.831   4.454   6.173 -0.5799 -0.1643  0.2168
 6854SOL    HW227188   2.742   4.450   6.209 -0.2564 -1.6091  0.9498
 6854SOL    HW327189   2.829   4.393   6.099 -0.1256 -0.4135  0.4094
 6854SOL    MW427190   2.819   4.445   6.168 -0.4773 -0.3878  0.3389
 6855SOL     OW27191   4.238   3.574   4.182  0.5480 -0.0870 -0.8484
 6855SOL    HW227192   4.234   3.538   4.270 -0.8193 -0.6148 -1.1064
 6855SOL    HW327193   4.331   3.575   4.161  0.8297 -0.7290  0.2806
 6855SOL    MW427194   4.249   3.570   4.191  0.4047 -0.2413 -0.7335
 6856SOL     OW27195   3.399   4.071   6.379 -0.2149 -1.0283 -0.0668
 6856SOL    HW227196   3.484   4.082   6.335  0.2325 -1.9602  0.5340
 6856SOL    HW327197   3.421   4.049   6.469 -1.1287  0.6823  0.6180
 6856SOL    MW427198   3.413   4.069   6.385 -0.2764 -0.9256  0.1028
 6857SOL     OW27199   6.010   5.803   5.912 -0.2197  0.6696  0.2666
 6857SOL    HW227200   5.980   5.729   5.964 -0.9759  0.9181  0.1909
 6857SOL    HW327201   6.041   5.867   5.977  0.3364  0.3327  0.3349
 6857SOL    MW427202   6.010   5.802   5.927 -0.2461  0.6580  0.2656
 6858SOL     OW27203   4.224   3.409   0.217 -0.6890 -0.6609 -0.6364
 6858SOL    HW227204   4.244   3.495   0.179 -1.0409 -0.5107 -0.4813
 6858SOL    HW327205   4.143   3.422   0.266 -0.5224 -0.9859 -0.2712
 6858SOL    MW427206   4.216   3.422   0.218 -0.7135 -0.6840 -0.5678
 6859SOL     OW27207   1.214   4.494   0.242  0.1653 -0.1142  0.1009
 6859SOL    HW227208   1.174   4.500   0.155 -0.3839  0.9863  0.4114
 6859SOL    HW327209   1.212   4.584   0.275  1.7713 -0.2502  0.6384
 6859SOL    MW427210   1.209   4.507   0.235  0.3047  0.0131  0.2128
 6860SOL     OW27211   0.116   5.690   2.932 -0.0891  0.0319  0.1046
 6860SOL    HW227212   0.121   5.671   2.838 -1.7574  2.4937 -0.5966
 6860SOL    HW327213   0.195   5.652   2.969  0.4215 -1.3547 -2.2369
 6860SOL    MW427214   0.127   5.683   2.924 -0.2418  0.1737 -0.2969
 6861SOL     OW27215   2.453   0.108   1.470  0.2911  0.1805 -0.1713
 6861SOL    HW227216   2.454   0.016   1.497 -0.3102 -0.1198 -1.1050
 6861SOL    HW327217   2.462   0.104   1.375 -0.3386  1.0685 -0.2718
 6861SOL    MW427218   2.455   0.095   1.461  0.1287  0.2580 -0.3077
 6862SOL     OW27219   1.082   1.122   3.970  0.2747 -0.0851 -0.3410
 6862SOL    HW227220   1.045   1.137   3.883 -2.8106 -0.4567  0.8087
 6862SOL    HW327221   1.063   1.030   3.988  0.0117  0.2354  1.0960
 6862SOL    MW427222   1.075   1.111   3.961 -0.1670 -0.0918  0.0003
 6863SOL     OW27223   3.180   3.426   0.279  0.2423 -0.1115 -0.5213
 6863SOL    HW227224   3.166   3.440   0.185 -0.6254 -1.8137 -0.6871
 6863SOL    HW327225   3.237   3.349   0.284  1.0426  0.5102  0.3567
 6863SOL    MW427226   3.186   3.418   0.267  0.2334 -0.2541 -0.4273
 6864SOL     OW27227   0.134   4.745   3.367 -0.1368  0.3139 -0.3355
 6864SOL    HW227228   0.223   4.780   3.362 -0.3636  0.8236 -0.9606
 6864SOL    HW327229   0.117   4.710   3.280 -1.0219  1.4255 -0.6233
 6864SOL    MW427230   0.144   4.745   3.355 -0.2835  0.5278 -0.4560
 6865SOL     OW27231   1.394   6.039   3.416 -0.0723 -0.4781 -0.2480
 6865SOL    HW227232   1.320   6.013   3.363 -1.6777 -2.6343  2.7637
 6865SOL    HW327233   1.359   6.105   3.476  0.6666 -0.8496  0.6216
 6865SOL    MW427234   1.380   6.045   3.417 -0.1866 -0.8116  0.2641
 6866SOL     OW27235   4.538   0.739   6.278  0.1642  0.6149  0.3195
 6866SOL    HW227236   4.478   0.795   6.228 -1.5100 -1.9180 -0.6878
 6866SOL    HW327237   4.595   0.700   6.213 -0.8617 -1.3348  0.5142
 6866SOL    MW427238   4.538   0.742   6.263 -0.1920  0.0235  0.2123
 6867SOL     OW27239   5.234   4.010   3.359  0.0120  0.6653  0.1023
 6867SOL    HW227240   5.153   3.973   3.323  0.0335  2.4465 -1.9805
 6867SOL    HW327241   5.303   3.954   3.323 -0.2130 -0.6172  1.5648
 6867SOL    MW427242   5.232   3.998   3.349 -0.0149  0.7311  0.0205
 6868SOL     OW27243   4.949   1.427   6.283  0.1934 -0.6018  0.3665
 6868SOL    HW227244   5.015   1.495   6.270  0.8159 -1.5159 -1.7894
 6868SOL    HW327245   4.878   1.451   6.224  0.6714 -2.0729 -0.8708
 6868SOL    MW427246   4.948   1.439   6.273  0.3386 -0.9165 -0.0812
 6869SOL     OW27247   5.136   5.256   5.411 -0.4969 -0.4602  0.1942
 6869SOL    HW227248   5.132   5.232   5.503 -3.9375 -3.7298 -0.5961
 6869SOL    HW327249   5.218   5.218   5.380 -0.0265 -0.6347  1.5675
 6869SOL    MW427250   5.146   5.248   5.419 -0.8888 -0.9146  0.2711
 6870SOL     OW27251   3.060   3.123   1.786 -0.4796  0.4948  0.3656
 6870SOL    HW227252   3.063   3.141   1.880  0.8306  0.7969  0.2880
 6870SOL    HW327253   3.011   3.195   1.748  2.0188  2.3496  0.4279
 6870SOL    MW427254   3.054   3.135   1.793  0.0229  0.7794  0.3636
 6871SOL     OW27255   1.210   2.472   1.617  0.4391 -0.3624  0.1290
 6871SOL    HW227256   1.228   2.404   1.682 -0.7305 -0.8273  0.0003
 6871SOL    HW327257   1.173   2.425   1.543 -1.3477  0.4779  0.4241
 6871SOL    MW427258   1.207   2.457   1.616  0.0490 -0.3128  0.1510
 6872SOL     OW27259   6.008   6.340   3.989  0.1253 -0.1822  0.6197
 6872SOL    HW227260   6.055   6.422   3.998 -0.0079 -0.0251 -0.0824
 6872SOL    HW327261   5.960   6.348   3.906 -0.5320 -0.6405  0.9467
 6872SOL    MW427262   6.008   6.352   3.979  0.0210 -0.2219  0.5702
 6873SOL     OW27263   1.937   3.257   6.362 -0.1728 -0.9046 -0.3542
 6873SOL    HW227264   1.963   3.199   6.433 -0.1139 -1.9489 -1.2041
 6873SOL    HW327265   1.849   3.287   6.387  0.6176  0.3367  1.1050
 6873SOL    MW427266   1.929   3.254   6.375 -0.0607 -0.8786 -0.2738
 6874SOL     OW27267   6.029   0.905   2.391  0.5346  0.8096  0.3568
 6874SOL    HW227268   5.952   0.957   2.415  1.2272  1.5825  0.9415
 6874SOL    HW327269   6.102   0.949   2.433  1.3643  0.3185 -0.5273
 6874SOL    MW427270   6.028   0.917   2.400  0.7354  0.8468  0.3173
 6875SOL     OW27271   3.100   4.236   0.274  0.3581 -0.0037 -0.6872
 6875SOL    HW227272   3.142   4.218   0.358  0.9243  0.0738 -0.9498
 6875SOL    HW327273   3.164   4.289   0.226  0.9167 -1.7384 -1.9497
 6875SOL    MW427274   3.114   4.241   0.279  0.5065 -0.2223 -0.8884
 6876SOL     OW27275   0.938   4.497   2.754 -0.2530 -0.4983  0.2824
 6876SOL    HW227276   1.025   4.457   2.760  0.0762  0.3485  1.4188
 6876SOL    HW327277   0.914   4.488   2.662  0.4339 -1.9871  0.2261
 6876SOL    MW427278   0.946   4.491   2.743 -0.1190 -0.5830  0.4249
 6877SOL     OW27279   4.955   3.195   5.737  0.4908 -0.5576  0.1604
 6877SOL    HW227280   5.050   3.193   5.740  0.4815 -1.5424  0.2705
 6877SOL    HW327281   4.931   3.277   5.781  1.3176  0.4593 -1.2226
 6877SOL    MW427282   4.964   3.205   5.744  0.5986 -0.5534 -0.0076
 6878SOL     OW27283   0.980   3.698   1.821  0.3116 -0.0126  0.1321
 6878SOL    HW227284   1.060   3.701   1.768 -0.7404  0.9095 -1.4983
 6878SOL    HW327285   1.010   3.712   1.911  1.8215  2.2916 -0.6379
 6878SOL    MW427286   0.994   3.700   1.826  0.3720  0.4131 -0.1846
 6879SOL     OW27287   0.491   3.853   6.216  0.1901 -0.5406 -0.0667
 6879SOL    HW227288   0.519   3.920   6.278 -0.1960 -0.5381  0.1115
 6879SOL    HW327289   0.423   3.896   6.164  0.3698 -0.6063 -0.3533
 6879SOL    MW427290   0.485   3.868   6.218  0.1629 -0.5489 -0.0810
 6880SOL     OW27291   3.889   1.290   4.038 -0.0386  0.4679 -0.2570
 6880SOL    HW227292   3.864   1.359   4.099  1.2508  0.7450 -0.0051
 6880SOL    HW327293   3.985   1.290   4.040  0.0016 -0.4808 -1.2109
 6880SOL    MW427294   3.899   1.299   4.047  0.1368  0.3793 -0.3496
 6881SOL     OW27295   2.971   6.297   6.301  0.0501  0.4351 -0.0595
 6881SOL    HW227296   3.026   6.306   6.224  1.2068  0.3939  0.7268
 6881SOL    HW327297   2.947   6.386   6.325 -1.1162  0.3946 -1.0010
 6881SOL    MW427298   2.975   6.310   6.294  0.0488  0.4243 -0.0800
 6882SOL     OW27299   5.513   3.157   1.005 -0.0464 -0.1093  0.9826
 6882SOL    HW227300   5.511   3.080   0.948  0.2391  1.3273 -1.0573
 6882SOL    HW327301   5.573   3.218   0.962 -1.7635  2.0432  1.4577
 6882SOL    MW427302   5.521   3.155   0.992 -0.2353  0.3642  0.7762
 6883SOL     OW27303   5.445   2.887   2.183 -0.0900  0.2515 -0.1548
 6883SOL    HW227304   5.389   2.930   2.247  0.8155  1.4076 -0.1131
 6883SOL    HW327305   5.441   2.944   2.106  2.4499  1.3961  0.4708
 6883SOL    MW427306   5.437   2.900   2.181  0.3646  0.5550 -0.0667
 6884SOL     OW27307   5.036   2.530   6.296 -0.2169 -0.7355  0.3879
 6884SOL    HW227308   5.101   2.568   6.354  1.8830 -1.8931 -1.0831
 6884SOL    HW327309   4.962   2.591   6.298  1.0459  0.8109  1.8347
 6884SOL    MW427310   5.035   2.543   6.304  0.2268 -0.6842  0.3847
 6885SOL     OW27311   1.874   1.990   5.530 -0.2345  0.7460  0.4083
 6885SOL    HW227312   1.810   1.986   5.459 -2.0567 -0.6819  2.0220
 6885SOL    HW327313   1.852   2.070   5.578 -2.2158 -0.7720  2.1401
 6885SOL    MW427314   1.863   2.000   5.527 -0.7363  0.3573  0.8497
 6886SOL     OW27315   3.252   5.537   6.021 -0.4599  0.2551 -0.4455
 6886SOL    HW227316   3.214   5.483   6.091 -1.0797 -1.0204 -1.7283
 6886SOL    HW327317   3.193   5.612   6.015 -0.2892  0.4838  0.5188
 6886SOL    MW427318   3.239   5.540   6.030 -0.5192  0.1170 -0.4875
 6887SOL     OW27319   5.822   2.169   1.359 -0.3218  0.5812 -0.3980
 6887SOL    HW227320   5.793   2.219   1.283 -0.8988  0.6082 -0.1644
 6887SOL    HW327321   5.746   2.166   1.417 -0.2378 -0.3927 -0.3208
 6887SOL    MW427322   5.809   2.175   1.357 -0.3868  0.4563 -0.3570
 6888SOL     OW27323   1.990   0.425   5.637  0.5571 -0.1739  0.8592
 6888SOL    HW227324   2.037   0.384   5.564 -0.0326 -0.6850  0.7686
 6888SOL    HW327325   2.045   0.500   5.660 -0.6064  1.7308 -1.9618
 6888SOL    MW427326   2.004   0.430   5.630  0.3258  0.0100  0.4750
 6889SOL     OW27327   4.097   3.354   0.770  0.0471  0.3825  0.3978
 6889SOL    HW227328   4.033   3.340   0.840  0.0787  1.5638  0.6829
 6889SOL    HW327329   4.182   3.339   0.811 -0.0176 -1.3822 -0.0292
 6889SOL    MW427330   4.100   3.350   0.785  0.0427  0.3056  0.3791
 6890SOL     OW27331   5.172   0.636   3.929  0.2894 -0.2298  0.3386
 6890SOL    HW227332   5.217   0.590   3.999  1.0770 -2.8617 -1.7077
 6890SOL    HW327333   5.079   0.617   3.943  0.4905 -1.2299  0.3566
 6890SOL    MW427334   5.166   0.628   3.940  0.4199 -0.7090  0.0710
 6891SOL     OW27335   0.415   1.078   5.431  0.1342  0.1256 -0.6941
 6891SOL    HW227336   0.404   1.048   5.341  0.7590  1.5389 -1.2775
 6891SOL    HW327337   0.507   1.105   5.436  0.1176  0.0097  0.3815
 6891SOL    MW427338   0.426   1.078   5.420  0.2144  0.2968 -0.6292
 6892SOL     OW27339   3.819   3.136   3.857 -0.5812  0.1691 -0.3362
 6892SOL    HW227340   3.725   3.131   3.840 -0.7873  1.0602  0.4821
 6892SOL    HW327341   3.839   3.229   3.855  0.0313  0.0751  0.8468
 6892SOL    MW427342   3.809   3.147   3.854 -0.5276  0.2743 -0.0722
 6893SOL     OW27343   3.195   4.930   3.090 -0.5637 -0.6391 -0.0115
 6893SOL    HW227344   3.212   4.987   3.015 -1.4707 -0.6449 -0.2339
 6893SOL    HW327345   3.282   4.900   3.118 -0.1818 -0.2188 -0.7237
 6893SOL    MW427346   3.209   4.934   3.084 -0.6330 -0.5844 -0.1348
 6894SOL     OW27347   5.957   5.908   1.818 -0.1183  0.0583  0.3793
 6894SOL    HW227348   5.933   5.857   1.896 -1.2053 -1.1860 -0.7353
 6894SOL    HW327349   5.959   5.845   1.747  2.7434  0.8162 -0.3272
 6894SOL    MW427350   5.954   5.893   1.819  0.1158 -0.0059  0.1390
 6895SOL     OW27351   1.435   4.554   5.941  0.1969  0.3034  0.3327
 6895SOL    HW227352   1.436   4.459   5.934 -1.2965  0.2602  0.2864
 6895SOL    HW327353   1.491   4.585   5.870  0.1433 -0.5301 -0.0749
 6895SOL    MW427354   1.443   4.546   5.931 -0.0072  0.1877  0.2728
 6896SOL     OW27355   1.423   4.990   1.701  0.5549 -0.1039  0.1784
 6896SOL    HW227356   1.513   5.017   1.723  0.9965 -2.5111  1.6590
 6896SOL    HW327357   1.432   4.900   1.671 -1.0290  0.6387 -2.9815
 6896SOL    MW427358   1.436   4.982   1.700  0.4042 -0.3235 -0.0432
 6897SOL     OW27359   0.611   2.554   0.404  0.3994 -0.0095 -0.0643
 6897SOL    HW227360   0.623   2.597   0.489  2.7028  0.4002 -0.5196
 6897SOL    HW327361   0.634   2.622   0.340  0.2448 -0.7825 -0.9602
 6897SOL    MW427362   0.616   2.569   0.407  0.6829 -0.0574 -0.2425
 6898SOL     OW27363   2.388   6.311   0.219  0.0405 -0.4597 -0.3668
 6898SOL    HW227364   2.357   6.241   0.275  0.8003 -1.3681 -1.0525
 6898SOL    HW327365   2.483   6.313   0.232 -0.1128  1.4129  0.7280
 6898SOL    MW427366   2.397   6.302   0.228  0.1205 -0.3325 -0.3128
 6899SOL     OW27367   3.325   1.089   0.593 -0.0222  0.1897 -0.2832
 6899SOL    HW227368   3.331   1.022   0.526 -0.5627  1.9870 -2.2384
 6899SOL    HW327369   3.263   1.054   0.657  2.6295 -2.8000  0.9200
 6899SOL    MW427370   3.318   1.076   0.593  0.2563  0.0324 -0.3824
 6900SOL     OW27371   0.013   1.792   2.935  0.0254 -0.4060  0.8735
 6900SOL    HW227372  -0.045   1.719   2.957 -1.3905  0.5704  0.5581
 6900SOL    HW327373   0.023   1.786   2.840 -3.0915  1.7877  0.2265
 6900SOL    MW427374   0.007   1.782   2.925 -0.5727  0.0123  0.7465
 6901SOL     OW27375   5.009   3.370   2.528  0.0815  0.6260 -0.4601
 6901SOL    HW227376   5.064   3.298   2.558  0.9135  1.2833 -0.3549
 6901SOL    HW327377   5.025   3.440   2.592  0.5555  1.4530 -1.4430
 6901SOL    MW427378   5.019   3.370   2.540  0.2538  0.8218 -0.5759
 6902SOL     OW27379   2.158   3.261   1.008 -0.1279  0.6630 -0.0736
 6902SOL    HW227380   2.248   3.238   0.986  0.2032  0.8260  1.0510
 6902SOL    HW327381   2.155   3.356   0.997 -0.5256  0.5229 -1.3249
 6902SOL    MW427382   2.169   3.271   1.003 -0.1367  0.6660 -0.0903
 6903SOL     OW27383   4.243   0.731   5.894  0.8239 -0.3628 -0.2543
 6903SOL    HW227384   4.322   0.681   5.914  0.6006 -0.6282 -0.0177
 6903SOL    HW327385   4.176   0.665   5.874  0.7537 -0.1299 -0.8141
 6903SOL    MW427386   4.244   0.716   5.894  0.7852 -0.3671 -0.2969
 6904SOL     OW27387   5.588   1.759   2.246 -0.0257 -0.7902 -0.0531
 6904SOL    HW227388   5.630   1.833   2.291  1.3197 -0.5586 -1.5995
 6904SOL    HW327389   5.597   1.780   2.153 -0.0956 -2.6492 -0.5084
 6904SOL    MW427390   5.595   1.772   2.239  0.1426 -1.0049 -0.3172
 6905SOL     OW27391   6.356   0.729   1.795  0.2234  0.7165  0.6263
 6905SOL    HW227392   6.358   0.648   1.845 -0.4710 -1.8968 -3.1118
 6905SOL    HW327393   6.267   0.762   1.805  0.4778  1.0032  2.0781
 6905SOL    MW427394   6.345   0.723   1.803  0.1654  0.4095  0.3246
 6906SOL     OW27395   1.551   0.365   3.807 -0.1512  0.4886  0.0703
 6906SOL    HW227396   1.512   0.383   3.892  3.0788  2.2895  1.3459
 6906SOL    HW327397   1.599   0.284   3.819 -0.3477  0.3104 -0.3199
 6906SOL    MW427398   1.552   0.357   3.820  0.2491  0.7027  0.1871
 6907SOL     OW27399   5.135   1.612   6.249  0.6629  0.6670 -0.2058
 6907SOL    HW227400   5.181   1.691   6.276  0.0898  0.6098  1.0061
 6907SOL    HW327401   5.143   1.611   6.154  2.4906  1.0533 -0.0970
 6907SOL    MW427402   5.142   1.622   6.240  0.8284  0.7104 -0.0316
 6908SOL     OW27403   1.079   1.861   0.483  0.1696  0.5169 -0.4542
 6908SOL    HW227404   1.114   1.935   0.533  1.6363 -0.1808 -0.3816
 6908SOL    HW327405   1.062   1.898   0.396  0.3493  1.0713 -0.2594
 6908SOL    MW427406   1.082   1.876   0.478  0.3868  0.4980 -0.4189
 6909SOL     OW27407   3.169   5.513   5.628 -0.0601 -0.1730 -0.4144
 6909SOL    HW227408   3.129   5.503   5.541 -0.3682 -1.2146 -0.1623
 6909SOL    HW327409   3.250   5.461   5.623  0.7651  1.0701 -0.5799
 6909SOL    MW427410   3.175   5.505   5.616  0.0081 -0.1464 -0.4030
 6910SOL     OW27411   1.691   1.681   5.685 -0.2839 -0.3435 -0.8521
 6910SOL    HW227412   1.763   1.720   5.733 -0.7008  0.0273 -0.5147
 6910SOL    HW327413   1.695   1.588   5.707 -0.2987 -0.2208 -0.3199
 6910SOL    MW427414   1.701   1.674   5.694 -0.3409 -0.2784 -0.7374
 6911SOL     OW27415   1.598   2.171   3.221  0.3810  0.2397 -0.8690
 6911SOL    HW227416   1.598   2.107   3.150 -1.0217 -0.5936 -0.1560
 6911SOL    HW327417   1.535   2.136   3.285  1.2980  1.1735  0.5949
 6911SOL    MW427418   1.589   2.158   3.220  0.3169  0.2529 -0.5818
 6912SOL     OW27419   0.503   1.445   3.616  0.2209 -0.0041  0.7343
 6912SOL    HW227420   0.484   1.509   3.685  1.7731  0.6607  0.5915
 6912SOL    HW327421   0.598   1.451   3.604  0.1077 -0.8287 -0.7682
 6912SOL    MW427422   0.513   1.454   3.623  0.4108 -0.0252  0.5172
 6913SOL     OW27423   3.581   0.610   0.251  0.3301  0.6728  0.1070
 6913SOL    HW227424   3.669   0.599   0.288 -0.7867 -1.1387  2.5637
 6913SOL    HW327425   3.571   0.536   0.190  0.0515  0.0125  0.9299
 6913SOL    MW427426   3.591   0.599   0.248  0.1460  0.3467  0.5397
 6914SOL     OW27427   0.564   6.375   3.316  0.4997  0.5289 -0.0879
 6914SOL    HW227428   0.625   6.368   3.389  0.0809 -2.3347  0.1220
 6914SOL    HW327429   0.484   6.410   3.355 -0.0116 -1.7597  1.1672
 6914SOL    MW427430   0.562   6.378   3.331  0.3770 -0.1509  0.1054
 6915SOL     OW27431   2.990   5.028   1.892  0.2745 -0.0666  0.3636
 6915SOL    HW227432   3.056   5.029   1.961  1.2228  0.4881 -0.5323
 6915SOL    HW327433   2.906   5.025   1.939  0.8723  1.2457  1.5717
 6915SOL    MW427434   2.987   5.028   1.907  0.4785  0.1797  0.4048
 6916SOL     OW27435   6.267   0.637   6.065  0.2617 -0.1792 -0.2158
 6916SOL    HW227436   6.176   0.641   6.035  1.0501 -0.7049 -3.0086
 6916SOL    HW327437   6.311   0.584   5.998  2.1912 -1.9001  2.2586
 6916SOL    MW427438   6.261   0.630   6.052  0.6203 -0.4756 -0.2578
 6917SOL     OW27439   6.387   1.695   0.897  0.0200 -0.5432  0.3248
 6917SOL    HW227440   6.449   1.657   0.835 -2.8686 -1.6324 -2.1618
 6917SOL    HW327441   6.364   1.623   0.956  0.6689 -0.2890  0.9005
 6917SOL    MW427442   6.392   1.681   0.897 -0.2755 -0.6534  0.0727
 6918SOL     OW27443   5.123   3.431   1.003 -0.0315  0.2895 -0.3034
 6918SOL    HW227444   5.083   3.346   0.985  0.4968  0.1505 -0.8286
 6918SOL    HW327445   5.195   3.412   1.063 -2.7733  0.9157  3.6160
 6918SOL    MW427446   5.127   3.417   1.008 -0.3235  0.3538  0.1444
 6919SOL     OW27447   1.380   3.888   5.348 -0.5769  0.5991 -0.2455
 6919SOL    HW227448   1.307   3.863   5.292 -0.2944 -1.4757  0.2302
 6919SOL    HW327449   1.445   3.925   5.288 -2.2441  3.2758 -0.5831
 6919SOL    MW427450   1.379   3.890   5.333 -0.7596  0.6785 -0.2272
 6920SOL     OW27451   5.601   5.111   5.076  0.5350 -0.6569 -0.4636
 6920SOL    HW227452   5.687   5.135   5.110 -0.0379  1.0551 -0.1710
 6920SOL    HW327453   5.590   5.020   5.103  1.3138 -0.2397  1.4373
 6920SOL    MW427454   5.611   5.102   5.084  0.5621 -0.3760 -0.1742
 6921SOL     OW27455   0.589   0.643   5.330  0.0678 -0.3553  0.3876
 6921SOL    HW227456   0.527   0.681   5.393 -0.8569 -1.7764  0.3653
 6921SOL    HW327457   0.661   0.611   5.383  1.5679  2.5294  0.3237
 6921SOL    MW427458   0.590   0.644   5.345  0.1437 -0.1622  0.3762
 6922SOL     OW27459   3.196   2.484   1.559 -0.4507  0.1569 -0.0757
 6922SOL    HW227460   3.163   2.476   1.470  0.0333  0.9000 -0.3356
 6922SOL    HW327461   3.276   2.536   1.550 -0.2789  0.0494  0.7655
 6922SOL    MW427462   3.202   2.490   1.546 -0.3642  0.2407  0.0010
 6923SOL     OW27463   2.350   5.541   4.747 -0.0775 -0.6603 -0.3809
 6923SOL    HW227464   2.259   5.529   4.773  0.0069 -0.3394  0.0706
 6923SOL    HW327465   2.350   5.623   4.698  0.2865  0.3209  1.2302
 6923SOL    MW427466   2.338   5.550   4.744 -0.0184 -0.4885 -0.1088
 6924SOL     OW27467   0.298   4.293   2.900 -0.7967 -0.6004 -0.2094
 6924SOL    HW227468   0.291   4.304   2.995 -0.4952 -0.0944 -0.2427
 6924SOL    HW327469   0.361   4.360   2.873  0.4082 -1.8393 -0.5561
 6924SOL    MW427470   0.305   4.303   2.909 -0.5979 -0.6971 -0.2595
 6925SOL     OW27471   2.572   4.598   3.025  0.4456 -0.0605 -0.2446
 6925SOL    HW227472   2.622   4.520   3.004 -1.4080 -1.5732  0.6103
 6925SOL    HW327473   2.573   4.602   3.121 -0.1112  0.5228 -0.2536
 6925SOL    MW427474   2.578   4.588   3.035  0.1276 -0.1831 -0.1330
 6926SOL     OW27475   1.490   0.416   5.409  0.3653  0.8425 -0.2888
 6926SOL    HW227476   1.538   0.496   5.430  0.6983  0.6695 -0.3778
 6926SOL    HW327477   1.504   0.404   5.315 -0.3320  1.1036 -0.4264
 6926SOL    MW427478   1.498   0.425   5.399  0.3172  0.8541 -0.3187
 6927SOL     OW27479   0.772   0.303   0.078 -0.4536  0.4329  0.4140
 6927SOL    HW227480   0.864   0.279   0.068  0.0449  2.7530 -1.7537
 6927SOL    HW327481   0.733   0.283  -0.007 -2.0561 -0.6900  1.3598
 6927SOL    MW427482   0.779   0.298   0.065 -0.5993  0.5909  0.2528
 6928SOL     OW27483   2.896   4.498   5.298 -0.0827 -0.3620 -0.2535
 6928SOL    HW227484   2.895   4.469   5.389 -1.2330 -0.9780 -0.4539
 6928SOL    HW327485   2.806   4.524   5.280  0.3589  0.7833 -0.9026
 6928SOL    MW427486   2.884   4.498   5.308 -0.1762 -0.2921 -0.3656
 6929SOL     OW27487   0.818   2.164   6.282  0.1522  0.1873  0.4543
 6929SOL    HW227488   0.819   2.222   6.206  2.7352  0.8201  0.8867
 6929SOL    HW327489   0.815   2.076   6.245 -2.3021  0.4959 -0.2406
 6929SOL    MW427490   0.818   2.160   6.267  0.1692  0.3115  0.4197
 6930SOL     OW27491   1.498   1.863   4.678 -0.0081  0.3313  0.2247
 6930SOL    HW227492   1.460   1.782   4.643 -0.8114  1.2094 -1.0237
 6930SOL    HW327493   1.552   1.896   4.607 -0.4209  1.3530  0.3731
 6930SOL    MW427494   1.500   1.857   4.664 -0.1686  0.5820  0.0795
 6931SOL     OW27495   2.928   0.196   1.722  0.0821  0.3708  0.7882
 6931SOL    HW227496   2.942   0.234   1.635 -1.8386 -0.0440  0.2344
 6931SOL    HW327497   2.882   0.265   1.771 -0.7993 -0.1670  0.7349
 6931SOL    MW427498   2.924   0.210   1.717 -0.2876  0.2451  0.7081
 6932SOL     OW27499   2.151   2.486   5.696  0.1981 -0.0121  0.4319
 6932SOL    HW227500   2.192   2.567   5.728 -0.4707  0.4071  0.2510
 6932SOL    HW327501   2.218   2.419   5.709  0.2961  0.3209  1.8436
 6932SOL    MW427502   2.165   2.488   5.702  0.1228  0.0871  0.5943
 6933SOL     OW27503   1.304   6.329   4.212  0.1725  0.4292 -0.2090
 6933SOL    HW227504   1.277   6.418   4.236 -1.9650 -0.5308  1.1896
 6933SOL    HW327505   1.370   6.306   4.277  1.5280  1.3312 -1.2157
 6933SOL    MW427506   1.309   6.338   4.224  0.0693  0.4215 -0.1573
 6934SOL     OW27507   0.876   2.898   3.870  0.1694  0.8498  0.1956
 6934SOL    HW227508   0.789   2.860   3.857  0.2064  0.8349  0.0017
 6934SOL    HW327509   0.936   2.823   3.868  0.3060  0.9714 -0.7501
 6934SOL    MW427510   0.873   2.883   3.868  0.1923  0.8639  0.0452
 6935SOL     OW27511   5.903   5.360   1.723 -0.4604 -0.3510  0.7888
 6935SOL    HW227512   5.983   5.310   1.714 -0.3844 -0.1000 -0.0836
 6935SOL    HW327513   5.856   5.319   1.796  0.1212 -0.9518  0.8314
 6935SOL    MW427514   5.907   5.348   1.731 -0.3736 -0.3972  0.6794
 6936SOL     OW27515   4.353   4.927   6.300 -0.2973 -0.0308  0.1164
 6936SOL    HW227516   4.336   4.834   6.317  2.0550 -0.3324  1.1740
 6936SOL    HW327517   4.386   4.929   6.210 -2.7226  0.1779 -0.8412
 6936SOL    MW427518   4.355   4.915   6.290 -0.3070 -0.0431  0.1296
 6937SOL     OW27519   3.116   5.054   6.413 -0.1040  0.3173  0.4366
 6937SOL    HW227520   3.167   5.134   6.427 -0.1498  0.6332 -1.0470
 6937SOL    HW327521   3.030   5.075   6.450 -1.4188  2.5371 -3.3416
 6937SOL    MW427522   3.111   5.068   6.420 -0.2835  0.6519 -0.2577
 6938SOL     OW27523   1.959   4.719   3.928 -0.3584 -0.8243  0.1671
 6938SOL    HW227524   1.888   4.729   3.864 -0.2095  0.1636  0.1422
 6938SOL    HW327525   2.030   4.677   3.879 -0.4091 -0.4884 -0.1973
 6938SOL    MW427526   1.959   4.714   3.913 -0.3455 -0.6496  0.1158
 6939SOL     OW27527   5.977   4.212   4.436  0.0701 -0.1142 -0.2836
 6939SOL    HW227528   5.893   4.257   4.428  0.1005 -0.1821 -1.0270
 6939SOL    HW327529   5.956   4.127   4.474 -0.1249  0.0859  0.0635
 6939SOL    MW427530   5.964   4.207   4.440  0.0484 -0.0968 -0.3359
 6940SOL     OW27531   2.801   3.657   0.836 -0.4097 -0.1167  0.1845
 6940SOL    HW227532   2.761   3.736   0.799 -2.1690  0.3261  2.7341
 6940SOL    HW327533   2.854   3.621   0.765 -1.5110  1.9947 -1.8463
 6940SOL    MW427534   2.803   3.663   0.822 -0.7872  0.2203  0.2530
 6941SOL     OW27535   0.699   3.724   2.039  0.1431 -0.1836 -0.3128
 6941SOL    HW227536   0.619   3.689   2.076  0.2815  0.6732  0.8751
 6941SOL    HW327537   0.681   3.733   1.945 -0.5970 -1.4094 -0.3051
 6941SOL    MW427538   0.686   3.721   2.031  0.0637 -0.2323 -0.1551
 6942SOL     OW27539   1.269   3.572   2.553  0.5838  0.0509 -0.1965
 6942SOL    HW227540   1.342   3.533   2.504  0.1337  0.2038 -1.0062
 6942SOL    HW327541   1.244   3.648   2.501  0.4927  0.5755  0.6002
 6942SOL    MW427542   1.275   3.577   2.539  0.5124  0.1403 -0.1982
 6943SOL     OW27543   4.895   0.953   5.419 -0.3428 -0.2155  0.2017
 6943SOL    HW227544   4.870   1.043   5.437  0.3176  0.1817 -0.7741
 6943SOL    HW327545   4.976   0.940   5.468  0.3766  0.2220 -0.8420
 6943SOL    MW427546   4.903   0.963   5.428 -0.1608 -0.1054 -0.0647
 6944SOL     OW27547   3.795   0.191   2.637  0.1850 -0.7196  0.8095
 6944SOL    HW227548   3.815   0.238   2.556 -1.2042  1.9352  1.8722
 6944SOL    HW327549   3.725   0.130   2.613 -1.8400  1.6254  0.3240
 6944SOL    MW427550   3.788   0.189   2.623 -0.2655 -0.0600  0.8856
 6945SOL     OW27551   1.538   2.446   2.779  0.2059 -0.3987 -0.7337
 6945SOL    HW227552   1.504   2.379   2.721 -1.1024  0.4709 -1.0005
 6945SOL    HW327553   1.567   2.516   2.721  0.1988 -0.1160 -0.4011
 6945SOL    MW427554   1.538   2.446   2.764  0.0324 -0.2467 -0.7250
 6946SOL     OW27555   6.042   4.392   3.584  0.2327 -0.1196  0.4327
 6946SOL    HW227556   6.094   4.472   3.585 -0.4960  0.3892 -0.9425
 6946SOL    HW327557   5.979   4.404   3.513  0.8658 -2.3742 -0.6163
 6946SOL    MW427558   6.041   4.404   3.575  0.2201 -0.3499  0.1129
 6947SOL     OW27559   1.632   0.624   5.803 -0.4502  0.3305 -0.0191
 6947SOL    HW227560   1.631   0.658   5.714 -0.9975  0.5862  0.0794
 6947SOL    HW327561   1.542   0.637   5.835  0.0061  1.2640  0.9548
 6947SOL    MW427562   1.620   0.630   5.796 -0.4622  0.4874  0.1224
 6948SOL     OW27563   1.587   3.375   0.322  0.4759  0.4533  0.3295
 6948SOL    HW227564   1.507   3.423   0.342 -0.6236 -1.0620 -0.1993
 6948SOL    HW327565   1.604   3.324   0.401 -1.7116 -2.6266 -0.9664
 6948SOL    MW427566   1.578   3.375   0.335  0.0422 -0.1530  0.0887
 6949SOL     OW27567   2.463   5.284   4.222  0.1773  0.1487 -0.0469
 6949SOL    HW227568   2.508   5.201   4.206 -1.1207 -0.6314  0.1968
 6949SOL    HW327569   2.520   5.350   4.183  0.8097 -0.9372 -1.0347
 6949SOL    MW427570   2.477   5.281   4.215  0.0894 -0.0975 -0.1451
 6950SOL     OW27571   1.962   5.892   5.159 -0.1468 -0.1817  0.2251
 6950SOL    HW227572   1.968   5.897   5.254 -1.6084  2.3554  0.2749
 6950SOL    HW327573   1.870   5.911   5.140  0.6046  1.9560 -1.7495
 6950SOL    MW427574   1.950   5.895   5.169 -0.2405  0.4351 -0.0288
 6951SOL     OW27575   6.358   5.498   0.298 -0.1747  0.2996 -0.0523
 6951SOL    HW227576   6.308   5.502   0.379  0.3426  0.3236  0.2719
 6951SOL    HW327577   6.313   5.433   0.244  0.5769 -1.1422  1.0150
 6951SOL    MW427578   6.346   5.490   0.301 -0.0073  0.1125  0.1313
 6952SOL     OW27579   5.439   5.748   3.163  0.2532 -0.7997  0.0554
 6952SOL    HW227580   5.458   5.835   3.196  0.7484 -0.2300 -1.6240
 6952SOL    HW327581   5.344   5.743   3.159  0.2341 -0.1937 -0.2092
 6952SOL    MW427582   5.429   5.759   3.167  0.3160 -0.6446 -0.2011
 6953SOL     OW27583   4.645   5.520   6.089 -0.0275  0.0826  0.0730
 6953SOL    HW227584   4.706   5.526   6.163 -0.4418 -2.2595  0.6830
 6953SOL    HW327585   4.700   5.526   6.011  0.7875 -0.4145  0.5992
 6953SOL    MW427586   4.660   5.522   6.089  0.0254 -0.2920  0.2229
 6954SOL     OW27587   3.544   3.445   4.138  0.1386 -0.4597 -0.4231
 6954SOL    HW227588   3.547   3.369   4.080  0.4503 -0.0830 -0.9101
 6954SOL    HW327589   3.462   3.489   4.115  0.1731 -0.4093 -0.4484
 6954SOL    MW427590   3.533   3.441   4.127  0.1843 -0.4033 -0.4907
 6955SOL     OW27591   4.973   3.206   0.942 -0.0203  0.2426 -0.7252
 6955SOL    HW227592   4.993   3.149   0.867 -0.9620  0.6283 -1.2845
 6955SOL    HW327593   4.930   3.147   1.005 -2.4894  0.5675 -1.9536
 6955SOL    MW427594   4.970   3.191   0.940 -0.4703  0.3364 -0.9611
 6956SOL     OW27595   1.509   3.816   1.765  0.5404  0.0713  0.2072
 6956SOL    HW227596   1.441   3.810   1.833  0.9843  0.0984  0.6645
 6956SOL    HW327597   1.560   3.736   1.775 -0.7817 -1.0876 -1.6583
 6956SOL    MW427598   1.507   3.805   1.776  0.4245 -0.0780  0.0214
 6957SOL     OW27599   6.270   5.780   4.439 -0.6889  0.6901  0.5049
 6957SOL    HW227600   6.215   5.728   4.498 -0.3512 -1.6434 -1.0812
 6957SOL    HW327601   6.328   5.828   4.497 -0.3127 -1.5346  2.1424
 6957SOL    MW427602   6.270   5.779   4.455 -0.5947  0.0887  0.5117
 6958SOL     OW27603   1.832   3.351   2.918  0.1613  0.0039  0.3294
 6958SOL    HW227604   1.852   3.319   3.006 -2.8872  1.0178  1.5033
 6958SOL    HW327605   1.858   3.443   2.919  1.4114 -0.3202 -0.3474
 6958SOL    MW427606   1.838   3.359   2.930 -0.0760  0.0949  0.3950
 6959SOL     OW27607   6.200   6.284   1.165  0.4006 -0.1897 -0.2788
 6959SOL    HW227608   6.205   6.373   1.129  0.0205 -0.1163 -0.1568
 6959SOL    HW327609   6.189   6.228   1.088 -0.1582 -0.0551 -0.3015
 6959SOL    MW427610   6.199   6.288   1.150  0.2767 -0.1623 -0.2657
 6960SOL     OW27611   5.586   4.451   4.871 -0.1244 -0.3431  0.2959
 6960SOL    HW227612   5.656   4.512   4.892 -0.0146 -0.8963  1.6609
 6960SOL    HW327613   5.630   4.379   4.826 -0.1234  0.1777 -0.5511
 6960SOL    MW427614   5.601   4.449   4.868 -0.1098 -0.3474  0.3643
 6961SOL     OW27615   2.393   2.236   1.357  0.0294  0.3904 -1.1716
 6961SOL    HW227616   2.396   2.330   1.342  0.3414  0.3987 -1.0773
 6961SOL    HW327617   2.343   2.225   1.438  0.2211  0.4942 -1.0382
 6961SOL    MW427618   2.387   2.247   1.366  0.0959  0.4052 -1.1416
 6962SOL     OW27619   5.697   5.046   4.804  0.5485  0.0756 -0.4970
 6962SOL    HW227620   5.663   5.079   4.887  0.3877 -0.5281 -0.3215
 6962SOL    HW327621   5.737   5.122   4.763 -0.1560  0.5834 -0.2697
 6962SOL    MW427622   5.698   5.060   4.809  0.4343  0.0629 -0.4439
 6963SOL     OW27623   5.118   6.355   2.359  0.0556 -0.0919  0.2015
 6963SOL    HW227624   5.205   6.325   2.385 -0.0261 -0.3097  0.2256
 6963SOL    HW327625   5.118   6.347   2.263 -0.2135 -0.8630  0.2552
 6963SOL    MW427626   5.129   6.350   2.350  0.0093 -0.2224  0.2118
 6964SOL     OW27627   4.702   5.462   3.356 -0.0727 -0.2779 -1.0398
 6964SOL    HW227628   4.684   5.538   3.410  0.2837  0.6728 -2.2173
 6964SOL    HW327629   4.676   5.387   3.410  0.7231  0.5946  0.6042
 6964SOL    MW427630   4.696   5.462   3.370  0.0793 -0.0374 -0.9782
 6965SOL     OW27631   0.353   1.994   3.564 -0.0801  0.1313 -0.0724
 6965SOL    HW227632   0.298   2.031   3.495 -0.1569 -0.1248 -0.1524
 6965SOL    HW327633   0.304   2.009   3.645  0.2163  0.8301 -0.0153
 6965SOL    MW427634   0.339   2.001   3.566 -0.0511  0.1897 -0.0754
 6966SOL     OW27635   2.428   4.772   5.067  0.1513 -0.3457  0.2505
 6966SOL    HW227636   2.487   4.804   5.135  0.9976  1.6953 -1.3128
 6966SOL    HW327637   2.483   4.716   5.013 -0.3741 -1.5172  0.9064
 6966SOL    MW427638   2.443   4.769   5.069  0.1936 -0.2310  0.1307
 6967SOL     OW27639   4.445   0.028   1.829 -0.8232  0.4433 -0.1384
 6967SOL    HW227640   4.430   0.117   1.861 -0.4435  0.2737  0.5342
 6967SOL    HW327641   4.531   0.032   1.786 -0.7038  0.3500  0.0906
 6967SOL    MW427642   4.454   0.040   1.827 -0.7574  0.4086 -0.0194
 6968SOL     OW27643   6.436   4.352   0.605 -0.1892  0.0929 -0.3356
 6968SOL    HW227644   6.383   4.308   0.538 -0.5278 -0.6055  0.3767
 6968SOL    HW327645   6.371   4.394   0.662  0.0273 -0.4887  0.3522
 6968SOL    MW427646   6.420   4.352   0.604 -0.2053 -0.0760 -0.1509
 6969SOL     OW27647   3.803   6.189   6.333 -0.2280  0.5423 -0.1278
 6969SOL    HW227648   3.894   6.212   6.318 -0.4531  0.6808 -1.4054
 6969SOL    HW327649   3.804   6.096   6.356  0.1832  0.3870 -0.7646
 6969SOL    MW427650   3.815   6.180   6.334 -0.2035  0.5401 -0.3804
 6970SOL     OW27651   0.090   4.991   1.683  0.0897  0.7331  0.4367
 6970SOL    HW227652   0.102   5.022   1.772 -0.3529  2.5377 -0.0950
 6970SOL    HW327653   0.115   5.065   1.628 -1.0254  0.1441 -0.9115
 6970SOL    MW427654   0.095   5.005   1.687 -0.1158  0.8935  0.1887
 6971SOL     OW27655   6.170   5.322   1.282 -0.3504  0.0744  0.5091
 6971SOL    HW227656   6.080   5.290   1.290 -0.0861 -0.6776  0.6170
 6971SOL    HW327657   6.162   5.417   1.272 -1.1875 -0.0475 -0.0979
 6971SOL    MW427658   6.157   5.330   1.281 -0.4260 -0.0409  0.4432
 6972SOL     OW27659   2.498   1.960   5.681  0.2227 -0.1545  0.0897
 6972SOL    HW227660   2.559   1.949   5.755  0.6317 -3.6449 -0.5792
 6972SOL    HW327661   2.411   1.952   5.721  0.3355  0.6654  0.5159
 6972SOL    MW427662   2.495   1.957   5.696  0.2915 -0.5068  0.0577
 6973SOL     OW27663   5.238   5.502   1.619 -0.5861  0.7344 -0.0749
 6973SOL    HW227664   5.325   5.476   1.649 -1.7530 -0.7880  2.3026
 6973SOL    HW327665   5.225   5.589   1.657 -0.2076  0.8485 -0.2046
 6973SOL    MW427666   5.248   5.510   1.628 -0.6902  0.5486  0.2217
 6974SOL     OW27667   2.522   0.243   0.696  0.0540 -0.7475 -0.0172
 6974SOL    HW227668   2.506   0.317   0.637  0.3631 -1.2180 -0.7140
 6974SOL    HW327669   2.521   0.281   0.784  0.9322  0.2189 -0.3999
 6974SOL    MW427670   2.520   0.257   0.700  0.2107 -0.6821 -0.1596
 6975SOL     OW27671   5.963   3.053   3.701  0.1570  0.5238 -0.1823
 6975SOL    HW227672   6.019   3.072   3.776 -0.1921  0.6220  0.0571
 6975SOL    HW327673   5.937   2.961   3.712  1.9979 -0.2086 -1.4427
 6975SOL    MW427674   5.967   3.043   3.712  0.3538  0.4401 -0.3170
 6976SOL     OW27675   4.221   0.476   1.040 -0.0940  0.4989 -0.3876
 6976SOL    HW227676   4.279   0.466   1.116 -0.0570  1.4249 -0.2821
 6976SOL    HW327677   4.144   0.422   1.061  1.1112 -1.5615 -0.9645
 6976SOL    MW427678   4.218   0.467   1.053  0.0699  0.3492 -0.4498
 6977SOL     OW27679   1.773   6.042   2.130  0.7902 -0.1835  0.4206
 6977SOL    HW227680   1.743   6.131   2.146 -1.0786 -0.6221 -0.3614
 6977SOL    HW327681   1.720   5.988   2.189  1.2531 -0.8608  0.2373
 6977SOL    MW427682   1.762   6.047   2.140  0.6047 -0.3308  0.2932
 6978SOL     OW27683   3.736   4.612   3.672  0.7176  0.5135 -1.0494
 6978SOL    HW227684   3.650   4.619   3.713 -0.0172 -2.0257 -1.9705
 6978SOL    HW327685   3.773   4.700   3.678 -1.1013  1.2150  1.1480
 6978SOL    MW427686   3.730   4.624   3.678  0.3807  0.2711 -0.8810
 6979SOL     OW27687   1.987   4.026   3.292 -0.2006 -0.0291 -0.0390
 6979SOL    HW227688   1.976   3.996   3.382 -3.1411  0.5201 -0.1252
 6979SOL    HW327689   1.989   4.122   3.299 -0.6801  0.0205 -0.5658
 6979SOL    MW427690   1.986   4.035   3.305 -0.6518  0.0499 -0.1198
 6980SOL     OW27691   4.170   1.499   3.254  0.4120  0.5249  0.0213
 6980SOL    HW227692   4.221   1.445   3.314  2.0373  1.8409 -0.1175
 6980SOL    HW327693   4.234   1.537   3.195 -0.9620  0.6801 -1.4480
 6980SOL    MW427694   4.185   1.497   3.254  0.4452  0.7190 -0.1909
 6981SOL     OW27695   3.333   1.576   3.319  0.3011  0.3878  0.1933
 6981SOL    HW227696   3.334   1.647   3.255 -0.4358  0.7780  0.6059
 6981SOL    HW327697   3.243   1.572   3.349 -0.0514 -1.7566 -0.9494
 6981SOL    MW427698   3.322   1.585   3.315  0.1574  0.1563  0.0970
 6982SOL     OW27699   5.894   6.043   2.697  0.3846 -0.4719  0.0185
 6982SOL    HW227700   5.924   5.983   2.628  0.7668 -1.2553  0.8525
 6982SOL    HW327701   5.954   6.117   2.692 -0.2220 -0.0343 -1.1632
 6982SOL    MW427702   5.906   6.045   2.687  0.3550 -0.5175 -0.0274
 6983SOL     OW27703   1.516   5.317   0.443 -0.0158 -0.1223  0.0612
 6983SOL    HW227704   1.552   5.245   0.393 -0.0067  0.9284 -1.4967
 6983SOL    HW327705   1.554   5.396   0.405 -1.4397  0.8256  0.4806
 6983SOL    MW427706   1.526   5.318   0.432 -0.2024  0.1414 -0.0890
 6984SOL     OW27707   0.175   4.765   1.155  0.0454 -0.2091 -0.1633
 6984SOL    HW227708   0.164   4.715   1.236  1.3308 -0.2825 -0.0094
 6984SOL    HW327709   0.183   4.856   1.184  4.6918 -0.5372  0.3282
 6984SOL    MW427710   0.174   4.770   1.169  0.8280 -0.2621 -0.0781
 6985SOL     OW27711   1.168   3.601   3.429 -0.0317  0.0870  0.4590
 6985SOL    HW227712   1.239   3.630   3.371  1.5431 -0.9621  1.7545
 6985SOL    HW327713   1.198   3.625   3.517 -0.5756 -1.7158  1.1823
 6985SOL    MW427714   1.181   3.608   3.433  0.1043 -0.2893  0.7253
 6986SOL     OW27715   2.896   0.113   6.372 -0.0622 -0.0969 -0.1655
 6986SOL    HW227716   2.803   0.109   6.352  0.2383 -2.0802 -1.5144
 6986SOL    HW327717   2.900   0.134   6.465 -1.6497  5.0512 -0.9834
 6986SOL    MW427718   2.884   0.115   6.382 -0.2320  0.3207 -0.4514
 6987SOL     OW27719   1.515   3.924   3.925  0.0184  0.2719  0.6796
 6987SOL    HW227720   1.496   3.996   3.986  0.0848  1.5982 -0.7770
 6987SOL    HW327721   1.454   3.855   3.950 -0.6789  1.1737  1.5866
 6987SOL    MW427722   1.504   3.925   3.937 -0.0649  0.5659  0.6071
 6988SOL     OW27723   5.118   0.485   5.635 -0.1778 -0.8166 -0.0973
 6988SOL    HW227724   5.030   0.488   5.599 -0.2607 -2.7128 -0.1739
 6988SOL    HW327725   5.169   0.543   5.579 -1.1932 -0.3618 -0.5770
 6988SOL    MW427726   5.113   0.493   5.623 -0.3227 -1.0068 -0.1707
 6989SOL     OW27727   5.313   2.668   3.083 -0.1962 -0.6515 -0.4601
 6989SOL    HW227728   5.377   2.634   3.145 -0.7240 -1.2368 -0.2135
 6989SOL    HW327729   5.347   2.644   2.997  2.4267  3.3237 -0.7629
 6989SOL    MW427730   5.326   2.660   3.080  0.0802 -0.2043 -0.4676
 6990SOL     OW27731   2.813   4.251   3.102 -0.7617 -0.1640  0.1874
 6990SOL    HW227732   2.814   4.155   3.101 -2.9247 -0.2497  0.8727
 6990SOL    HW327733   2.810   4.274   3.195 -0.7009  0.5478  0.0192
 6990SOL    MW427734   2.813   4.241   3.114 -1.0391 -0.0814  0.2557
 6991SOL     OW27735   1.756   4.099   5.649  0.0006  0.4082 -0.1051
 6991SOL    HW227736   1.714   4.183   5.668 -0.6317 -0.4035  2.5020
 6991SOL    HW327737   1.701   4.034   5.692  1.2692 -1.2079 -0.8060
 6991SOL    MW427738   1.743   4.101   5.658  0.0846  0.0879  0.1464
 6992SOL     OW27739   3.152   0.464   2.618  0.2650  0.0549  0.2012
 6992SOL    HW227740   3.134   0.401   2.548  0.4785 -1.2689  1.2929
 6992SOL    HW327741   3.214   0.525   2.579  1.3331 -1.3637 -0.4262
 6992SOL    MW427742   3.158   0.464   2.604  0.4341 -0.3069  0.2625
 6993SOL     OW27743   0.195   6.404   1.379 -0.1382 -0.1046 -0.1492
 6993SOL    HW227744   0.160   6.351   1.450 -0.4114 -0.1589 -0.3238
 6993SOL    HW327745   0.131   6.396   1.309  0.8436 -1.2344 -0.9390
 6993SOL    MW427746   0.182   6.396   1.379 -0.0447 -0.2608 -0.2764
 6994SOL     OW27747   1.923   1.775   1.716  0.4737 -0.0399  0.2874
 6994SOL    HW227748   1.934   1.735   1.802  1.6980 -0.3954 -0.0222
 6994SOL    HW327749   1.994   1.740   1.664  0.4802  1.1337 -0.5228
 6994SOL    MW427750   1.934   1.766   1.721  0.6361  0.0681  0.1397
 6995SOL     OW27751   5.808   1.530   2.374  0.0105  0.2303 -0.1742
 6995SOL    HW227752   5.848   1.557   2.457 -0.4651  0.5222 -0.0348
 6995SOL    HW327753   5.714   1.530   2.392 -0.0766  0.0086 -0.6319
 6995SOL    MW427754   5.801   1.534   2.388 -0.0637  0.2396 -0.2162
 6996SOL     OW27755   3.253   0.298   6.327  0.0910  0.2203  0.5788
 6996SOL    HW227756   3.243   0.235   6.398  2.6854 -1.0221 -0.0424
 6996SOL    HW327757   3.168   0.297   6.282 -0.2446 -2.1560  1.1396
 6996SOL    MW427758   3.240   0.290   6.331  0.3891 -0.2571  0.5708
 6997SOL     OW27759   5.112   0.204   5.853  0.0219  0.2875 -0.0561
 6997SOL    HW227760   5.092   0.183   5.762 -0.0335  1.1949 -0.2631
 6997SOL    HW327761   5.195   0.160   5.871 -0.0354 -0.0042 -0.4998
 6997SOL    MW427762   5.120   0.195   5.843  0.0071  0.3687 -0.1419
 6998SOL     OW27763   5.799   4.636   3.739  0.0992  0.0978 -0.1696
 6998SOL    HW227764   5.805   4.579   3.815 -2.0206  0.6359  0.4706
 6998SOL    HW327765   5.880   4.686   3.739  1.1091 -1.4641  0.4102
 6998SOL    MW427766   5.810   4.635   3.749 -0.0472 -0.0373 -0.0086
 6999SOL     OW27767   3.591   4.637   4.345 -0.1072  0.6393  0.0916
 6999SOL    HW227768   3.503   4.601   4.358 -0.0441 -0.1608 -1.4036
 6999SOL    HW327769   3.580   4.732   4.354 -0.6195  0.4235  2.3494
 6999SOL    MW427770   3.578   4.645   4.348 -0.1665  0.5053  0.1922
 7000SOL     OW27771   0.071   5.737   0.207  0.5794  0.2296 -0.0694
 7000SOL    HW227772   0.014   5.810   0.228 -0.2059  0.1700 -1.8179
 7000SOL    HW327773   0.014   5.660   0.209  1.0959 -0.1498  0.3937
 7000SOL    MW427774   0.056   5.736   0.210  0.5439  0.1717 -0.2390
 7001SOL     OW27775   0.574   2.200   3.350  0.3188 -0.2028 -0.5388
 7001SOL    HW227776   0.518   2.155   3.288 -0.7244  1.3337 -0.7831
 7001SOL    HW327777   0.615   2.130   3.401 -0.2749 -1.4277 -1.6809
 7001SOL    MW427778   0.572   2.185   3.349  0.1028 -0.1617 -0.7217
 7002SOL     OW27779   2.018   0.386   0.203 -0.2537  0.4028  0.6425
 7002SOL    HW227780   1.975   0.452   0.149 -0.6637 -1.7693 -1.8904
 7002SOL    HW327781   2.094   0.359   0.151 -1.2090 -2.4992  0.6355
 7002SOL    MW427782   2.023   0.391   0.189 -0.4338 -0.2666  0.3074
 7003SOL     OW27783   0.365   5.205   1.900 -0.0617 -0.1350  0.3500
 7003SOL    HW227784   0.280   5.174   1.932 -1.1317  0.6683 -1.5699
 7003SOL    HW327785   0.382   5.151   1.822  0.0610  1.2187 -0.5908
 7003SOL    MW427786   0.356   5.194   1.894 -0.1867  0.1496 -0.0274
 7004SOL     OW27787   3.829   3.393   4.443  0.2365 -0.3289  0.3976
 7004SOL    HW227788   3.787   3.421   4.525  1.6042  0.4642  0.8575
 7004SOL    HW327789   3.915   3.362   4.469  1.1600  1.0468 -0.8484
 7004SOL    MW427790   3.835   3.393   4.457  0.5388 -0.0428  0.2939
 7005SOL     OW27791   3.611   6.177   4.241  0.4172  0.2420 -0.0302
 7005SOL    HW227792   3.660   6.250   4.279  1.0439  0.1489 -0.6261
 7005SOL    HW327793   3.539   6.161   4.302  1.0400  0.4968  0.7868
 7005SOL    MW427794   3.608   6.184   4.254  0.5821  0.2634 -0.0011
 7006SOL     OW27795   2.813   6.178   1.006 -0.4771  0.2922  0.5012
 7006SOL    HW227796   2.738   6.199   0.950 -0.5563 -1.0974  0.0373
 7006SOL    HW327797   2.890   6.201   0.954 -0.5366  2.5508  1.3131
 7006SOL    MW427798   2.813   6.184   0.992 -0.4954  0.4068  0.5471
 7007SOL     OW27799   2.162   4.186   6.390  0.2927  0.4596  0.3457
 7007SOL    HW227800   2.179   4.099   6.354  0.0969  0.0125  1.2928
 7007SOL    HW327801   2.069   4.200   6.376  0.4311  0.7425 -0.2846
 7007SOL    MW427802   2.152   4.176   6.384  0.2851  0.4380  0.3875
 7008SOL     OW27803   0.253   0.294   4.931 -0.0092  0.2710 -0.3083
 7008SOL    HW227804   0.309   0.275   5.007 -0.0428 -2.7543 -0.9045
 7008SOL    HW327805   0.169   0.253   4.953 -0.4664  0.5904 -1.4098
 7008SOL    MW427806   0.249   0.286   4.944 -0.0740 -0.0860 -0.5323
 7009SOL     OW27807   1.459   3.864   0.742 -0.3826 -0.1061  0.0639
 7009SOL    HW227808   1.428   3.895   0.826 -0.9428  0.5069 -0.3649
 7009SOL    HW327809   1.396   3.897   0.678  0.6425  0.4047 -0.7266
 7009SOL    MW427810   1.447   3.872   0.745 -0.3212  0.0422 -0.0970
 7010SOL     OW27811   4.937   3.034   3.709 -0.2573  0.4077 -0.3700
 7010SOL    HW227812   4.856   3.014   3.756  1.5233 -0.9102  2.4092
 7010SOL    HW327813   4.948   3.128   3.720 -0.3475  0.2692  1.2266
 7010SOL    MW427814   4.928   3.044   3.717 -0.0343  0.2156  0.2073
 7011SOL     OW27815   0.028   1.722   0.131 -0.0876  0.1326 -0.4415
 7011SOL    HW227816   0.005   1.729   0.038  1.0870  0.4277 -0.7326
 7011SOL    HW327817   0.067   1.635   0.140  1.0784  0.6358 -0.5355
 7011SOL    MW427818   0.030   1.712   0.120  0.2212  0.2379 -0.4923
 7012SOL     OW27819   3.864   3.911   2.544 -0.1664  0.2887  0.3181
 7012SOL    HW227820   3.850   3.834   2.489 -1.4330 -0.7924  2.0369
 7012SOL    HW327821   3.787   3.966   2.528  0.3698  0.8688 -0.3416
 7012SOL    MW427822   3.852   3.908   2.534 -0.2628  0.2226  0.4579
 7013SOL     OW27823   3.954   1.348   2.835 -0.3617  0.0539 -0.3971
 7013SOL    HW227824   3.982   1.426   2.787 -1.9366  1.1268  0.3688
 7013SOL    HW327825   3.958   1.374   2.927  1.1738 -1.5011  0.0357
 7013SOL    MW427826   3.958   1.362   2.841 -0.3669 -0.0097 -0.2389
 7014SOL     OW27827   1.427   2.085   3.404  0.6534 -0.0014 -0.4803
 7014SOL    HW227828   1.363   2.015   3.415 -0.6547  1.2431  0.0619
 7014SOL    HW327829   1.491   2.069   3.473  0.8019 -1.0862 -0.8441
 7014SOL    MW427830   1.427   2.074   3.414  0.5004  0.0196 -0.4568
 7015SOL     OW27831   2.156   4.538   0.138  0.4258  0.0669 -0.1465
 7015SOL    HW227832   2.158   4.625   0.178 -0.0939 -0.0041  0.0432
 7015SOL    HW327833   2.243   4.502   0.154  0.0941 -0.1286  1.3139
 7015SOL    MW427834   2.168   4.545   0.145  0.3135  0.0317  0.0712
 7016SOL     OW27835   5.985   1.064   2.027  0.2442  0.0586 -0.3263
 7016SOL    HW227836   6.080   1.076   2.029  0.1664  0.7184 -0.2835
 7016SOL    HW327837   5.957   1.083   2.117  0.0124  0.4354 -0.4744
 7016SOL    MW427838   5.994   1.068   2.039  0.2033  0.1954 -0.3402
 7017SOL     OW27839   1.933   2.824   3.420 -0.3203  0.2190  0.2037
 7017SOL    HW227840   2.006   2.878   3.389  0.5586 -0.7732  0.4853
 7017SOL    HW327841   1.874   2.819   3.345  1.1665 -1.0946 -0.9477
 7017SOL    MW427842   1.935   2.830   3.406 -0.0082 -0.0853  0.0889
 7018SOL     OW27843   3.225   2.188   3.741 -0.0921  1.0052  0.1265
 7018SOL    HW227844   3.192   2.132   3.672  1.2661  1.4189 -0.9117
 7018SOL    HW327845   3.319   2.167   3.746 -0.4297 -0.2730  3.0699
 7018SOL    MW427846   3.233   2.178   3.732  0.0426  0.8912  0.3779
 7019SOL     OW27847   6.426   2.615   4.323 -0.2987  0.3837 -0.7154
 7019SOL    HW227848   6.481   2.638   4.398  0.5910 -0.6958 -1.0166
 7019SOL    HW327849   6.337   2.610   4.360 -0.0506  1.0358  0.0097
 7019SOL    MW427850   6.421   2.617   4.338 -0.1486  0.3273 -0.6595
 7020SOL     OW27851   4.146   2.004   1.172  0.5407  0.1949 -0.2967
 7020SOL    HW227852   4.137   2.097   1.195 -0.4228 -0.4159  2.0727
 7020SOL    HW327853   4.239   1.993   1.155  0.7031  1.5659 -0.4466
 7020SOL    MW427854   4.157   2.015   1.173  0.4350  0.2952 -0.0038
 7021SOL     OW27855   4.489   2.856   0.925  0.4608 -0.2098  0.3329
 7021SOL    HW227856   4.410   2.898   0.892  1.2393  0.1762 -1.1084
 7021SOL    HW327857   4.535   2.926   0.972  0.2821 -0.2599  0.5855
 7021SOL    MW427858   4.485   2.871   0.927  0.5399 -0.1655  0.1761
 7022SOL     OW27859   3.823   5.860   5.085 -0.2328  0.3300  0.1890
 7022SOL    HW227860   3.892   5.849   5.150 -0.5207  0.6679  0.5570
 7022SOL    HW327861   3.842   5.794   5.018  0.9583  1.0296 -0.1772
 7022SOL    MW427862   3.834   5.850   5.085 -0.1136  0.4669  0.1892
 7023SOL     OW27863   1.557   0.449   3.365 -0.2594  0.3323 -0.2432
 7023SOL    HW227864   1.619   0.521   3.354 -0.4355  0.3430 -1.2210
 7023SOL    HW327865   1.496   0.480   3.432 -0.2014  0.9979 -0.4975
 7023SOL    MW427866   1.557   0.462   3.373 -0.2750  0.4215 -0.4057
 7024SOL     OW27867   3.727   5.461   6.009  0.4530  0.3970 -0.2383
 7024SOL    HW227868   3.647   5.411   5.994  1.1503 -0.8179  0.0080
 7024SOL    HW327869   3.710   5.547   5.969  0.7523 -1.3087 -4.5743
 7024SOL    MW427870   3.714   5.466   6.002  0.5845  0.0117 -0.7779
 7025SOL     OW27871   4.600   6.308   2.638  0.1315  0.2662 -0.0084
 7025SOL    HW227872   4.579   6.398   2.663 -2.9950 -1.3001  4.2260
 7025SOL    HW327873   4.542   6.290   2.564  1.0124  1.6906 -1.1137
 7025SOL    MW427874   4.590   6.318   2.632 -0.1648  0.2475  0.4044
 7026SOL     OW27875   2.813   0.564   3.478 -0.1552 -0.2474 -0.1682
 7026SOL    HW227876   2.849   0.510   3.549  0.0497  0.4616  0.2726
 7026SOL    HW327877   2.867   0.642   3.477 -0.4113 -0.0692 -0.8514
 7026SOL    MW427878   2.825   0.567   3.487 -0.1619 -0.1303 -0.2001
 7027SOL     OW27879   3.490   1.651   5.113  0.0455  0.1932 -0.3259
 7027SOL    HW227880   3.452   1.563   5.102 -0.6121  0.4334 -0.0514
 7027SOL    HW327881   3.580   1.635   5.139  0.0167 -0.4035 -0.5683
 7027SOL    MW427882   3.497   1.637   5.115 -0.0451  0.1461 -0.3217
 7028SOL     OW27883   0.759   0.520   4.481 -0.3921 -0.2524 -0.3300
 7028SOL    HW227884   0.708   0.439   4.486 -0.5702 -0.1117  0.1832
 7028SOL    HW327885   0.847   0.495   4.507 -0.1908 -0.4957 -1.2132
 7028SOL    MW427886   0.764   0.506   4.485 -0.3890 -0.2660 -0.3788
 7029SOL     OW27887   4.184   2.234   4.966  0.3042  0.1188 -0.5012
 7029SOL    HW227888   4.102   2.277   4.990  1.5934  2.7091 -0.4792
 7029SOL    HW327889   4.174   2.212   4.873 -0.3532  0.5844 -0.5453
 7029SOL    MW427890   4.172   2.237   4.957  0.3876  0.5220 -0.5041
 7030SOL     OW27891   3.742   6.241   0.584  0.0699 -0.1927  0.2976
 7030SOL    HW227892   3.665   6.295   0.565  0.2233  0.9974  2.6625
 7030SOL    HW327893   3.709   6.151   0.584 -0.7806  0.1001 -1.0676
 7030SOL    MW427894   3.727   6.237   0.582 -0.0221  0.0030  0.4295
 7031SOL     OW27895   0.421   3.131   4.684 -0.7113 -0.0110 -0.1001
 7031SOL    HW227896   0.407   3.084   4.602 -0.3527 -0.0488 -0.1444
 7031SOL    HW327897   0.432   3.063   4.750  0.8985 -0.0318 -0.3491
 7031SOL    MW427898   0.421   3.116   4.682 -0.4516 -0.0187 -0.1388
 7032SOL     OW27899   3.556   1.181   0.295  0.5328  0.2410 -0.1092
 7032SOL    HW227900   3.559   1.170   0.200 -0.6023  0.8926 -0.2462
 7032SOL    HW327901   3.531   1.095   0.328 -0.6559  0.3857 -0.5526
 7032SOL    MW427902   3.553   1.168   0.287  0.2262  0.3460 -0.1857
 7033SOL     OW27903   2.732   4.395   2.888  0.2484  0.1883 -0.1805
 7033SOL    HW227904   2.793   4.457   2.848  0.0707  0.4815 -0.0006
 7033SOL    HW327905   2.787   4.335   2.938  0.3079  1.2906  1.1360
 7033SOL    MW427906   2.747   4.395   2.889  0.2328  0.3725  0.0170
 7034SOL     OW27907   4.545   1.237   2.976 -0.1781 -0.4764  0.1400
 7034SOL    HW227908   4.608   1.307   2.956 -2.9207  2.1587  0.0149
 7034SOL    HW327909   4.490   1.232   2.898  0.5072 -3.5881 -0.2467
 7034SOL    MW427910   4.546   1.246   2.963 -0.4495 -0.5393  0.0725
 7035SOL     OW27911   5.353   0.614   2.520  0.0403  0.3262  0.7445
 7035SOL    HW227912   5.387   0.695   2.560  0.2511  1.1575 -1.0112
 7035SOL    HW327913   5.432   0.568   2.490 -0.1605  1.3384 -1.6186
 7035SOL    MW427914   5.368   0.619   2.521  0.0416  0.5694  0.2010
 7036SOL     OW27915   0.072   4.281   6.109 -0.9601 -0.2640 -0.7041
 7036SOL    HW227916   0.132   4.269   6.183  0.7127 -0.4449 -2.0162
 7036SOL    HW327917  -0.014   4.292   6.149  0.2755  3.1986  1.5042
 7036SOL    MW427918   0.069   4.281   6.124 -0.5763  0.1690 -0.5858
 7037SOL     OW27919   2.188   0.939   4.461 -0.0167  0.1653 -0.5631
 7037SOL    HW227920   2.125   0.895   4.517 -0.0849 -0.5163 -1.1507
 7037SOL    HW327921   2.159   1.030   4.457 -1.8814 -0.4330 -2.0418
 7037SOL    MW427922   2.176   0.945   4.468 -0.2718 -0.0036 -0.8357
 7038SOL     OW27923   4.935   5.693   1.143 -0.1261  0.2388 -0.2339
 7038SOL    HW227924   4.920   5.605   1.108  2.7689 -1.2459  1.7997
 7038SOL    HW327925   4.994   5.734   1.080  1.2493 -0.6318  0.4369
 7038SOL    MW427926   4.941   5.687   1.130  0.4374 -0.0720  0.1229
 7039SOL     OW27927   4.249   3.549   2.212  0.2451 -0.3552  0.8314
 7039SOL    HW227928   4.336   3.584   2.195  0.0344 -0.2914 -0.1534
 7039SOL    HW327929   4.202   3.622   2.254  0.6030 -0.3279  1.1887
 7039SOL    MW427930   4.254   3.563   2.215  0.2645 -0.3432  0.7486
 7040SOL     OW27931   5.278   4.560   0.195  0.4578  0.1343  0.0109
 7040SOL    HW227932   5.265   4.572   0.289 -0.4201 -0.6604  0.0023
 7040SOL    HW327933   5.373   4.550   0.185  0.6371  1.0389  0.7033
 7040SOL    MW427934   5.289   4.560   0.206  0.3656  0.1488  0.1011
 7041SOL     OW27935   1.740   5.265   6.080  0.2253 -0.1891 -0.1131
 7041SOL    HW227936   1.748   5.282   6.174  0.3927 -1.4542  0.1178
 7041SOL    HW327937   1.664   5.317   6.054  1.4138  1.8606  0.2548
 7041SOL    MW427938   1.731   5.274   6.089  0.4042 -0.0856 -0.0341
 7042SOL     OW27939   2.870   4.111   2.048 -0.1799 -0.0809 -0.2024
 7042SOL    HW227940   2.862   4.072   1.961 -0.5300 -1.4160  0.4005
 7042SOL    HW327941   2.822   4.193   2.042 -0.8052 -0.4944 -1.0842
 7042SOL    MW427942   2.863   4.116   2.036 -0.3086 -0.3116 -0.2392
 7043SOL     OW27943   2.647   5.035   2.266  0.2895  0.3535 -0.3093
 7043SOL    HW227944   2.572   5.095   2.275  0.3359  0.2689  0.7212
 7043SOL    HW327945   2.645   4.982   2.345  1.9573  0.9394  0.1725
 7043SOL    MW427946   2.637   5.036   2.278  0.5156  0.4197 -0.1097
 7044SOL     OW27947   1.205   2.573   5.331  0.4156  0.2828  0.1669
 7044SOL    HW227948   1.192   2.624   5.252  1.1143 -1.2698 -1.0152
 7044SOL    HW327949   1.294   2.596   5.360  1.0933 -0.8379 -0.8820
 7044SOL    MW427950   1.215   2.583   5.325  0.5972 -0.0699 -0.1275
 7045SOL     OW27951   0.444   1.632   2.531  0.0717  0.1433 -0.4141
 7045SOL    HW227952   0.517   1.649   2.473 -0.8148  1.0414 -1.3007
 7045SOL    HW327953   0.395   1.714   2.534 -0.2846 -0.0871  1.0677
 7045SOL    MW427954   0.447   1.645   2.524 -0.0922  0.2314 -0.3355
 7046SOL     OW27955   5.775   0.792   0.423 -0.3478  0.3631  0.3717
 7046SOL    HW227956   5.748   0.842   0.500 -0.9006 -1.2934  1.3085
 7046SOL    HW327957   5.734   0.706   0.435 -1.6313  0.4581 -2.4678
 7046SOL    MW427958   5.766   0.787   0.435 -0.5901  0.1571  0.1207
 7047SOL     OW27959   3.826   1.491   4.425 -0.4105 -0.0516 -0.2930
 7047SOL    HW227960   3.761   1.445   4.372 -1.0526  1.8663 -1.2710
 7047SOL    HW327961   3.801   1.583   4.419  1.5445  0.5900  0.5334
 7047SOL    MW427962   3.814   1.497   4.418 -0.2373  0.2861 -0.3130
 7048SOL     OW27963   0.133   0.857   1.918 -0.2122 -0.1297 -0.3546
 7048SOL    HW227964   0.206   0.795   1.915 -0.2593 -0.2508  0.5769
 7048SOL    HW327965   0.067   0.820   1.860  0.0081 -0.6368 -0.2848
 7048SOL    MW427966   0.134   0.844   1.910 -0.1893 -0.2126 -0.2225
 7049SOL     OW27967   5.921   5.862   5.267 -0.1147 -0.3096 -0.2323
 7049SOL    HW227968   5.861   5.892   5.335  0.6771 -2.4558  1.5238
 7049SOL    HW327969   5.964   5.941   5.235 -1.5968  0.9076  0.6830
 7049SOL    MW427970   5.918   5.876   5.272 -0.2058 -0.4321  0.1202
 7050SOL     OW27971   5.597   0.447   0.121  0.1603  0.5840 -0.1875
 7050SOL    HW227972   5.639   0.513   0.066  2.6742  0.7168  1.6884
 7050SOL    HW327973   5.598   0.367   0.069 -0.3420  1.3592 -1.4306
 7050SOL    MW427974   5.603   0.445   0.107  0.4257  0.7038 -0.1040
 7051SOL     OW27975   2.236   6.111   4.846 -0.6639 -0.0025  0.1943
 7051SOL    HW227976   2.168   6.177   4.852 -0.1493  0.6802 -1.1327
 7051SOL    HW327977   2.318   6.160   4.836 -0.3800 -0.7688 -1.9694
 7051SOL    MW427978   2.238   6.126   4.845 -0.5586 -0.0135 -0.2662
 7052SOL     OW27979   2.647   1.649   1.479 -0.0509  0.0291  0.2127
 7052SOL    HW227980   2.731   1.679   1.445 -0.7600  0.2065 -1.4719
 7052SOL    HW327981   2.634   1.698   1.560  0.4468  1.6705 -0.6670
 7052SOL    MW427982   2.656   1.659   1.485 -0.0788  0.2691 -0.1257
 7053SOL     OW27983   0.497   4.876   4.000  0.1889 -0.2195  0.2282
 7053SOL    HW227984   0.510   4.783   4.018 -0.3054 -0.3769 -0.1959
 7053SOL    HW327985   0.412   4.897   4.038  0.7207  0.3059  1.1804
 7053SOL    MW427986   0.488   4.867   4.007  0.1938 -0.1709  0.2979
 7054SOL     OW27987   0.400   0.493   0.094 -0.4336 -0.2915  0.0091
 7054SOL    HW227988   0.371   0.472   0.183  0.0091 -0.5347  0.1011
 7054SOL    HW327989   0.342   0.564   0.066  0.5251  0.9724  1.1284
 7054SOL    MW427990   0.388   0.500   0.102 -0.2487 -0.1568  0.1689
 7055SOL     OW27991   4.909   3.535   4.410 -0.3663  0.4823 -0.1503
 7055SOL    HW227992   4.835   3.476   4.424 -1.0384  1.4264  0.3343
 7055SOL    HW327993   4.976   3.505   4.472 -0.6633  0.1713  0.0189
 7055SOL    MW427994   4.908   3.523   4.420 -0.4941  0.5659 -0.0641
 7056SOL     OW27995   0.062   0.199   0.822  0.2064  0.6558 -0.0502
 7056SOL    HW227996   0.066   0.105   0.802 -2.3908  0.7304 -1.3941
 7056SOL    HW327997   0.126   0.211   0.892  1.7102 -1.8082 -0.8579
 7056SOL    MW427998   0.071   0.188   0.829  0.0621  0.3405 -0.3341
 7057SOL     OW27999   6.076   5.618   3.135  0.4031 -0.3869  0.2422
 7057SOL    HW228000   6.163   5.623   3.095  0.0741  0.6097 -0.3907
 7057SOL    HW328001   6.078   5.683   3.205  0.0418 -0.0895 -0.0234
 7057SOL    MW428002   6.088   5.627   3.139  0.3120 -0.2162  0.1237
 7058SOL     OW28003   3.742   4.014   0.337 -0.3442  0.4201  0.0625
 7058SOL    HW228004   3.730   3.960   0.414  0.5256 -1.4082 -1.0225
 7058SOL    HW328005   3.762   4.101   0.371  0.5296 -0.4565  1.9065
 7058SOL    MW428006   3.743   4.019   0.351 -0.1142  0.0632  0.1626
 7059SOL     OW28007   5.191   3.941   0.317  0.0400  0.1818  0.2708
 7059SOL    HW228008   5.114   3.892   0.288  0.4648 -0.2456 -0.1663
 7059SOL    HW328009   5.169   3.971   0.405 -1.3306  1.6229 -0.5067
 7059SOL    MW428010   5.178   3.938   0.324 -0.0848  0.3156  0.1106
 7060SOL     OW28011   2.300   1.529   3.545  0.3419 -0.1321  0.3439
 7060SOL    HW228012   2.355   1.451   3.537  1.0627  0.3661  0.3503
 7060SOL    HW328013   2.347   1.597   3.498 -0.4986  0.1977 -0.0371
 7060SOL    MW428014   2.313   1.527   3.538  0.3261 -0.0229  0.2945
 7061SOL     OW28015   0.911   3.675   2.999 -0.9823 -0.0268 -0.4059
 7061SOL    HW228016   0.900   3.769   3.003  0.5100  0.1467  1.0130
 7061SOL    HW328017   0.939   3.657   2.909  0.0955  1.0740 -0.3073
 7061SOL    MW428018   0.913   3.685   2.988 -0.6432  0.1413 -0.2057
 7062SOL     OW28019   4.251   4.325   0.529 -0.5131  0.1648  0.2280
 7062SOL    HW228020   4.189   4.291   0.465 -0.0287  0.0447 -0.1813
 7062SOL    HW328021   4.231   4.276   0.610 -1.5509  0.7741  0.3607
 7062SOL    MW428022   4.240   4.314   0.532 -0.5861  0.2293  0.1915
 7063SOL     OW28023   0.751   2.910   6.430  0.3363 -0.5778 -0.0211
 7063SOL    HW228024   0.685   2.868   6.374 -0.9964 -1.1030  1.8490
 7063SOL    HW328025   0.748   3.002   6.405  0.0830 -0.8592 -1.0857
 7063SOL    MW428026   0.742   2.917   6.419  0.1271 -0.6842  0.0852
 7064SOL     OW28027   3.572   3.840   3.169 -0.3373 -0.0696  0.0243
 7064SOL    HW228028   3.508   3.830   3.099 -1.6068  0.0575  1.1110
 7064SOL    HW328029   3.539   3.914   3.221  0.8220  0.1401  0.5013
 7064SOL    MW428030   3.559   3.849   3.167 -0.3519 -0.0251  0.2306
 7065SOL     OW28031   5.611   1.120   3.709 -0.0220 -0.0147 -0.1957
 7065SOL    HW228032   5.575   1.201   3.673 -1.5194 -0.6707 -0.2603
 7065SOL    HW328033   5.706   1.129   3.698 -0.2569  0.9851 -1.7579
 7065SOL    MW428034   5.619   1.132   3.703 -0.2505  0.0307 -0.4104
 7066SOL     OW28035   3.576   1.362   6.109  0.1437 -0.2587 -0.3974
 7066SOL    HW228036   3.496   1.370   6.160  0.0693 -1.1637 -0.3438
 7066SOL    HW328037   3.646   1.387   6.170 -0.0520 -0.0899 -0.2441
 7066SOL    MW428038   3.575   1.366   6.124  0.1080 -0.3559 -0.3701
 7067SOL     OW28039   6.008   4.544   4.154  0.1452  0.7829 -0.2470
 7067SOL    HW228040   5.941   4.546   4.086  0.0973  2.7881 -0.1951
 7067SOL    HW328041   6.077   4.488   4.118 -2.3758 -3.2962  0.6302
 7067SOL    MW428042   6.008   4.537   4.140 -0.1938  0.5092 -0.1244
 7068SOL     OW28043   2.487   0.471   1.821 -1.0868  0.1746  0.5100
 7068SOL    HW228044   2.541   0.413   1.768  0.1395  0.6993  1.1438
 7068SOL    HW328045   2.534   0.555   1.820 -0.8113  0.0906  2.7200
 7068SOL    MW428046   2.500   0.475   1.814 -0.8886  0.2328  0.8852
 7069SOL     OW28047   2.623   2.718   0.221  0.1007  0.0533  0.1985
 7069SOL    HW228048   2.629   2.708   0.316 -1.6712  1.9795  0.5778
 7069SOL    HW328049   2.541   2.676   0.198  0.2638  0.0640 -0.4094
 7069SOL    MW428050   2.613   2.711   0.231 -0.1116  0.3088  0.1684
 7070SOL     OW28051   4.756   3.101   0.672 -0.0101  0.3451 -0.4837
 7070SOL    HW228052   4.769   3.011   0.701 -0.8296  0.2688 -0.3473
 7070SOL    HW328053   4.844   3.139   0.673  0.3336 -0.4316 -0.4838
 7070SOL    MW428054   4.770   3.094   0.676 -0.0729  0.2326 -0.4658
 7071SOL     OW28055   4.262   4.857   1.420  0.5472 -0.0080 -0.0243
 7071SOL    HW228056   4.281   4.844   1.327 -0.2448  1.6560 -0.4465
 7071SOL    HW328057   4.280   4.771   1.460  0.3751 -0.9085 -1.7838
 7071SOL    MW428058   4.267   4.844   1.413  0.4200  0.0928 -0.3122
 7072SOL     OW28059   0.629   2.742   3.906 -0.5209 -0.5133  0.4119
 7072SOL    HW228060   0.653   2.677   3.972 -0.7777 -0.3238  0.6969
 7072SOL    HW328061   0.538   2.721   3.883 -0.3139 -0.8050 -0.1535
 7072SOL    MW428062   0.620   2.731   3.912 -0.5275 -0.5268  0.3749
 7073SOL     OW28063   1.906   3.689   5.894  0.0877 -0.0987 -0.4658
 7073SOL    HW228064   1.853   3.610   5.911 -3.0128  1.7885 -0.4851
 7073SOL    HW328065   1.905   3.699   5.799 -0.2176  0.3637 -0.4172
 7073SOL    MW428066   1.899   3.680   5.884 -0.3617  0.2113 -0.4619
 7074SOL     OW28067   5.791   5.129   3.826 -0.0342 -0.1571  0.7764
 7074SOL    HW228068   5.807   5.220   3.852 -1.8944  0.2987  0.5009
 7074SOL    HW328069   5.838   5.077   3.891 -0.1877  0.9940  1.8544
 7074SOL    MW428070   5.799   5.134   3.838 -0.2999  0.0549  0.8823
 7075SOL     OW28071   2.446   2.516   4.748 -0.9621 -0.0214  0.2162
 7075SOL    HW228072   2.483   2.496   4.663 -1.6541  0.7895 -0.2966
 7075SOL    HW328073   2.354   2.489   4.742 -1.2727  0.9320  0.3461
 7075SOL    MW428074   2.438   2.510   4.736 -1.0944  0.2114  0.1657
 7076SOL     OW28075   3.729   5.812   3.806  0.6213 -0.3879 -0.2281
 7076SOL    HW228076   3.775   5.811   3.889 -0.4430  2.1303  0.4934
 7076SOL    HW328077   3.787   5.861   3.747  0.2122  0.2062 -0.1532
 7076SOL    MW428078   3.743   5.819   3.809  0.4269  0.0227 -0.1230
 7077SOL     OW28079   4.225   2.013   6.338 -0.3352 -0.0921  0.6976
 7077SOL    HW228080   4.186   2.085   6.289  0.1276  0.7238  1.4921
 7077SOL    HW328081   4.196   2.027   6.428  1.6083  0.4493  1.2855
 7077SOL    MW428082   4.216   2.024   6.344 -0.0177  0.0870  0.8800
 7078SOL     OW28083   5.277   6.205   3.463  0.3245  0.0105  0.1890
 7078SOL    HW228084   5.351   6.154   3.495  0.1782  0.8308  1.9458
 7078SOL    HW328085   5.202   6.170   3.511  0.0365  1.0466  0.5192
 7078SOL    MW428086   5.277   6.193   3.473  0.2672  0.2555  0.4643
 7079SOL     OW28087   5.178   5.351   4.485 -0.3316  0.1462 -0.1250
 7079SOL    HW228088   5.173   5.394   4.571  1.1021 -1.7967  0.9879
 7079SOL    HW328089   5.116   5.279   4.491  0.0749 -0.2435 -0.5766
 7079SOL    MW428090   5.169   5.347   4.497 -0.0888 -0.1615 -0.0377
 7080SOL     OW28091   2.825   5.365   5.088  0.5213 -0.3313 -0.1466
 7080SOL    HW228092   2.763   5.394   5.022  0.3371  1.0648  0.5887
 7080SOL    HW328093   2.911   5.373   5.047  0.3818  0.1714 -0.3409
 7080SOL    MW428094   2.828   5.370   5.074  0.4786 -0.0808 -0.0752
 7081SOL     OW28095   2.461   5.749   6.281 -0.2397  0.0384  0.2738
 7081SOL    HW228096   2.471   5.654   6.281 -3.6764 -0.4463  0.8954
 7081SOL    HW328097   2.432   5.770   6.192 -0.8898  0.2991  0.5455
 7081SOL    MW428098   2.458   5.740   6.269 -0.7789  0.0088  0.3917
 7082SOL     OW28099   3.964   4.453   1.495  0.7050 -0.0134  0.2188
 7082SOL    HW228100   3.940   4.544   1.474 -0.2099 -0.2039  0.4196
 7082SOL    HW328101   4.013   4.460   1.576 -0.6972  0.1690  1.0817
 7082SOL    MW428102   3.967   4.466   1.503  0.3993 -0.0145  0.3591
 7083SOL     OW28103   1.760   6.035   1.182  0.3517  0.3874  0.2022
 7083SOL    HW228104   1.696   5.964   1.174  0.8939  0.0429 -1.3909
 7083SOL    HW328105   1.822   6.004   1.249  0.2038 -0.3358  0.0136
 7083SOL    MW428106   1.760   6.021   1.190  0.4037  0.2465 -0.0329
 7084SOL     OW28107   0.631   4.847   1.345 -0.4407 -0.0949 -0.7687
 7084SOL    HW228108   0.574   4.794   1.288 -0.0269 -0.2954 -1.0006
 7084SOL    HW328109   0.671   4.783   1.403 -1.7083  0.2224  0.5127
 7084SOL    MW428110   0.628   4.831   1.345 -0.5534 -0.0795 -0.6302
 7085SOL     OW28111   5.646   0.511   1.538  0.1973 -0.5682 -0.0595
 7085SOL    HW228112   5.614   0.597   1.513 -0.4931 -0.4061  1.3008
 7085SOL    HW328113   5.734   0.506   1.501 -0.0532  0.3971 -0.8184
 7085SOL    MW428114   5.653   0.521   1.530  0.0731 -0.4194  0.0198
 7086SOL     OW28115   3.092   5.457   4.637 -0.3245  0.2427  0.5009
 7086SOL    HW228116   3.007   5.471   4.678 -0.6063  2.4554 -0.7025
 7086SOL    HW328117   3.155   5.491   4.701 -0.1960 -2.1130  1.7384
 7086SOL    MW428118   3.089   5.463   4.651 -0.3447  0.2239  0.5054
 7087SOL     OW28119   1.829   3.400   5.652 -0.2311  0.1781  0.7187
 7087SOL    HW228120   1.800   3.309   5.641  0.4046  0.1769 -1.3005
 7087SOL    HW328121   1.757   3.452   5.615 -0.0088  0.4262  0.6385
 7087SOL    MW428122   1.815   3.395   5.646 -0.1179  0.2107  0.4417
 7088SOL     OW28123   5.768   2.689   1.260 -0.0832  1.0714  0.3492
 7088SOL    HW228124   5.701   2.721   1.321  0.5602  0.0330  1.6376
 7088SOL    HW328125   5.723   2.624   1.207 -0.1665  0.5761  1.0227
 7088SOL    MW428126   5.753   2.685   1.261 -0.0093  0.8690  0.6081
 7089SOL     OW28127   3.421   0.647   4.921 -0.1563 -0.2296 -0.2777
 7089SOL    HW228128   3.472   0.566   4.926  0.1801  0.0230  0.5004
 7089SOL    HW328129   3.345   0.632   4.976 -0.6441 -0.3942 -0.9802
 7089SOL    MW428130   3.418   0.635   4.929 -0.1763 -0.2180 -0.2677
 7090SOL     OW28131   3.859   2.335   0.844  0.2785  0.2190 -0.7593
 7090SOL    HW228132   3.853   2.415   0.792 -0.9174  0.8613  0.3082
 7090SOL    HW328133   3.782   2.283   0.818  0.3337  0.0057 -0.5036
 7090SOL    MW428134   3.848   2.338   0.834  0.1280  0.2756 -0.5847
 7091SOL     OW28135   5.729   5.158   3.129  0.1499 -0.2866 -0.4719
 7091SOL    HW228136   5.734   5.063   3.119  0.3660 -0.2851 -0.3912
 7091SOL    HW328137   5.642   5.181   3.098 -0.0952 -0.5752 -0.0160
 7091SOL    MW428138   5.718   5.149   3.124  0.1460 -0.3245 -0.4011
 7092SOL     OW28139   1.319   5.264   2.414  0.0386  0.2372  0.7756
 7092SOL    HW228140   1.340   5.171   2.403 -0.4055  0.1971  0.1825
 7092SOL    HW328141   1.379   5.309   2.355 -0.0092  0.2984  0.7741
 7092SOL    MW428142   1.330   5.257   2.405 -0.0263  0.2400  0.6972
 7093SOL     OW28143   2.850   1.943   1.083 -0.7802  0.5255  0.2661
 7093SOL    HW228144   2.780   1.879   1.083  0.0865 -0.5077  2.2125
 7093SOL    HW328145   2.858   1.970   1.175  1.4751  0.4247  0.1579
 7093SOL    MW428146   2.842   1.938   1.095 -0.3683  0.3759  0.5086
 7094SOL     OW28147   1.932   2.676   2.073 -0.1155 -0.0195  0.3028
 7094SOL    HW228148   1.943   2.585   2.102  0.8628 -0.9354 -2.5422
 7094SOL    HW328149   2.016   2.717   2.092 -1.1730  0.9859  3.3953
 7094SOL    MW428150   1.945   2.669   2.079 -0.1259 -0.0077  0.3354
 7095SOL     OW28151   3.902   2.533   0.670 -0.0925  0.3500  0.0992
 7095SOL    HW228152   3.827   2.520   0.612 -0.1015  1.0289 -0.0448
 7095SOL    HW328153   3.903   2.627   0.688 -1.6198 -0.1025  3.2422
 7095SOL    MW428154   3.892   2.544   0.665 -0.2952  0.3798  0.4949
 7096SOL     OW28155   1.511   6.084   0.667  0.2205 -0.2465  0.4230
 7096SOL    HW228156   1.543   6.026   0.736  2.3449  1.1022  0.6904
 7096SOL    HW328157   1.451   6.031   0.616 -0.7213 -1.5663  2.7387
 7096SOL    MW428158   1.507   6.070   0.670  0.3765 -0.2427  0.7638
 7097SOL     OW28159   3.799   4.876   1.658 -0.7234 -0.1480  0.2671
 7097SOL    HW228160   3.829   4.964   1.681 -1.6460  0.0148  0.9034
 7097SOL    HW328161   3.782   4.834   1.742 -0.0356 -1.0414 -0.0224
 7097SOL    MW428162   3.801   4.882   1.672 -0.7544 -0.2444  0.3128
 7098SOL     OW28163   0.521   6.035   1.319  0.2860 -0.3855  0.1276
 7098SOL    HW228164   0.520   6.117   1.269  0.2312  0.0565  0.8385
 7098SOL    HW328165   0.434   5.997   1.305 -0.1181  0.2814  0.7583
 7098SOL    MW428166   0.509   6.041   1.311  0.2255 -0.2392  0.3046
 7099SOL     OW28167   2.860   6.190   5.339  0.0493  0.0064 -0.0871
 7099SOL    HW228168   2.879   6.198   5.432 -0.1089 -0.1288 -0.0433
 7099SOL    HW328169   2.861   6.096   5.322  1.1062  0.0710 -0.4359
 7099SOL    MW428170   2.863   6.179   5.349  0.1679 -0.0029 -0.1274
 7100SOL     OW28171   0.553   2.789   6.274 -0.0028  0.2686 -0.0061
 7100SOL    HW228172   0.467   2.829   6.260 -0.3803 -0.2704  0.6993
 7100SOL    HW328173   0.534   2.699   6.301  0.6983  0.6322  1.8511
 7100SOL    MW428174   0.539   2.783   6.276  0.0399  0.2454  0.3320
 7101SOL     OW28175   1.038   5.531   0.089  0.4554 -0.7022 -0.0760
 7101SOL    HW228176   0.954   5.486   0.082 -0.5569  1.3562 -3.0659
 7101SOL    HW328177   1.091   5.494   0.018  0.5997  0.7885 -0.7685
 7101SOL    MW428178   1.034   5.520   0.078  0.3409 -0.2339 -0.5618
 7102SOL     OW28179   3.058   2.778   2.933  0.1699 -0.0356  0.1000
 7102SOL    HW228180   3.095   2.694   2.903  0.0861 -0.1300  0.2595
 7102SOL    HW328181   3.104   2.798   3.014 -0.0412 -0.0935  0.2359
 7102SOL    MW428182   3.069   2.769   2.940  0.1310 -0.0557  0.1390
 7103SOL     OW28183   2.293   5.585   1.387 -0.1107  0.2012 -0.4426
 7103SOL    HW228184   2.200   5.600   1.367  0.3757  1.6817 -1.7642
 7103SOL    HW328185   2.301   5.489   1.392 -1.5263  0.0174 -1.2424
 7103SOL    MW428186   2.282   5.574   1.385 -0.2333  0.3723 -0.7225
 7104SOL     OW28187   0.590   4.887   5.060  0.4446 -0.0593  0.1542
 7104SOL    HW228188   0.656   4.825   5.090  0.1632 -0.1815  0.5341
 7104SOL    HW328189   0.542   4.912   5.139  0.9353  1.1117  0.0953
 7104SOL    MW428190   0.592   4.882   5.074  0.4722  0.0790  0.1965
 7105SOL     OW28191   0.811   1.945   3.050 -0.4860 -0.9502 -0.3359
 7105SOL    HW228192   0.821   1.874   3.113 -1.3017 -2.0782 -1.4434
 7105SOL    HW328193   0.718   1.944   3.026 -0.4394  0.2561 -0.6408
 7105SOL    MW428194   0.800   1.936   3.055 -0.5875 -0.9399 -0.5222
 7106SOL     OW28195   3.417   2.974   6.177 -0.0023  0.1511  0.0221
 7106SOL    HW228196   3.412   3.002   6.268 -0.2079 -2.3449  0.8754
 7106SOL    HW328197   3.353   2.903   6.170  0.7799 -0.4416 -1.7732
 7106SOL    MW428198   3.408   2.968   6.188  0.0738 -0.2564 -0.1022
 7107SOL     OW28199   2.572   5.285   3.008  0.0583 -0.0021 -0.2537
 7107SOL    HW228200   2.567   5.307   2.915 -1.6510  0.9000  0.0194
 7107SOL    HW328201   2.658   5.243   3.018  0.6118  0.6079 -2.0700
 7107SOL    MW428202   2.583   5.282   2.997 -0.0942  0.1974 -0.4573
 7108SOL     OW28203   4.645   4.456   1.829  0.5286 -0.4401  0.1195
 7108SOL    HW228204   4.703   4.510   1.776  1.5627 -0.7892  0.8564
 7108SOL    HW328205   4.643   4.371   1.785 -0.9080  0.0868 -0.9077
 7108SOL    MW428206   4.653   4.452   1.816  0.4755 -0.4166  0.0812
 7109SOL     OW28207   1.888   0.611   5.935 -0.1039  1.3707  0.0546
 7109SOL    HW228208   1.882   0.587   6.027 -1.1266  0.0950 -0.3169
 7109SOL    HW328209   1.800   0.599   5.901  0.1592  2.2620 -1.0039
 7109SOL    MW428210   1.876   0.606   5.942 -0.2041  1.3200 -0.1341
 7110SOL     OW28211   4.943   0.104   0.505  0.3990 -0.1717 -0.0644
 7110SOL    HW228212   4.930   0.012   0.529  0.5473 -0.1887 -0.0522
 7110SOL    HW328213   4.899   0.113   0.420  2.1857 -0.7770 -1.1198
 7110SOL    MW428214   4.935   0.093   0.497  0.6543 -0.2538 -0.2020
 7111SOL     OW28215   1.779   0.022   1.076  0.3805  0.2617  0.3414
 7111SOL    HW228216   1.719  -0.031   1.128 -0.1080  1.1693  0.7182
 7111SOL    HW328217   1.725   0.056   1.004  1.2319 -1.6728 -1.3184
 7111SOL    MW428218   1.764   0.020   1.073  0.4284  0.1262  0.1721
 7112SOL     OW28219   5.914   3.957   4.537  0.0906 -0.2510  0.1183
 7112SOL    HW228220   5.849   3.927   4.601 -0.0401 -1.0171 -0.3636
 7112SOL    HW328221   5.956   3.877   4.506 -0.5352  0.0190 -1.4964
 7112SOL    MW428222   5.911   3.943   4.542 -0.0092 -0.3164 -0.1583
 7113SOL     OW28223   5.706   3.915   4.742 -0.0208 -0.2572 -0.0755
 7113SOL    HW228224   5.732   3.931   4.833 -2.6150  0.1508  0.6846
 7113SOL    HW328225   5.678   3.823   4.741 -0.8625 -0.0060 -0.2078
 7113SOL    MW428226   5.706   3.905   4.754 -0.4741 -0.1702  0.0073
 7114SOL     OW28227   2.662   0.555   0.977  0.0103  0.2219  0.3373
 7114SOL    HW228228   2.756   0.536   0.985 -0.4474 -1.5668  2.1133
 7114SOL    HW328229   2.635   0.581   1.065 -1.2468  0.3274 -0.0658
 7114SOL    MW428230   2.671   0.555   0.989 -0.2159 -0.0002  0.5184
 7115SOL     OW28231   3.602   0.595   2.412  0.1122  0.1452 -1.0035
 7115SOL    HW228232   3.652   0.520   2.380  0.2146  0.5582 -1.8444
 7115SOL    HW328233   3.663   0.668   2.408  0.0123  0.2722 -0.1867
 7115SOL    MW428234   3.617   0.595   2.407  0.1125  0.2164 -1.0067
 7116SOL     OW28235   3.720   4.288   4.967 -0.3384 -0.0996  0.2073
 7116SOL    HW228236   3.693   4.214   5.021 -1.3707  0.9110  1.1351
 7116SOL    HW328237   3.743   4.356   5.030  2.3524 -0.1747 -0.5921
 7116SOL    MW428238   3.719   4.287   4.983 -0.1196  0.0238  0.2242
 7117SOL     OW28239   4.065   5.941   5.251 -0.2661  0.1272  0.1404
 7117SOL    HW228240   4.151   5.934   5.293  0.3140 -0.6654 -1.0935
 7117SOL    HW328241   4.002   5.918   5.320  0.6023 -0.5383  0.7352
 7117SOL    MW428242   4.068   5.937   5.266 -0.0750 -0.0652  0.0561
 7118SOL     OW28243   1.857   5.414   5.590 -0.4321  0.3023  0.0317
 7118SOL    HW228244   1.782   5.466   5.622 -1.8915 -0.9412 -1.1979
 7118SOL    HW328245   1.855   5.335   5.643 -0.0874  0.1983 -0.1141
 7118SOL    MW428246   1.847   5.411   5.601 -0.5792  0.1245 -0.1498
 7119SOL     OW28247   1.086   6.345   3.386  0.0460  0.0214 -0.3214
 7119SOL    HW228248   1.022   6.338   3.316 -0.7795 -0.7233  0.4856
 7119SOL    HW328249   1.035   6.334   3.467  0.9874  0.7331  0.3976
 7119SOL    MW428250   1.071   6.343   3.388  0.0613  0.0171 -0.1201
 7120SOL     OW28251   0.289   2.314   0.873 -0.1691  0.0398 -1.1863
 7120SOL    HW228252   0.327   2.336   0.789  0.6019  1.4241 -0.5199
 7120SOL    HW328253   0.356   2.263   0.919 -0.9405 -1.5209 -1.7237
 7120SOL    MW428254   0.303   2.310   0.868 -0.1691  0.0166 -1.1693
 7121SOL     OW28255   3.973   5.496   0.202  0.3980 -0.3706  0.1753
 7121SOL    HW228256   3.973   5.559   0.130  0.3655 -0.4347  0.1190
 7121SOL    HW328257   3.880   5.473   0.213 -0.0218  1.9610  2.2550
 7121SOL    MW428258   3.961   5.501   0.194  0.3383 -0.0714  0.4423
 7122SOL     OW28259   1.581   2.059   3.957 -0.4528 -0.3818 -0.0934
 7122SOL    HW228260   1.623   2.103   4.031 -1.0793 -0.6220  0.4142
 7122SOL    HW328261   1.536   1.983   3.996 -0.7707 -0.5246 -0.7185
 7122SOL    MW428262   1.580   2.054   3.972 -0.5774 -0.4323 -0.1089
 7123SOL     OW28263   3.449   0.963   6.096 -0.5238  0.3669  0.2219
 7123SOL    HW228264   3.482   0.998   6.179  1.2289  0.5961 -0.5209
 7123SOL    HW328265   3.356   0.947   6.112 -0.2673  0.5361  2.1788
 7123SOL    MW428266   3.441   0.966   6.109 -0.2587  0.4194  0.3821
 7124SOL     OW28267   1.026   1.374   6.161  0.6726  0.0558 -0.4110
 7124SOL    HW228268   1.118   1.390   6.179  0.6118  1.4174 -1.1941
 7124SOL    HW328269   0.980   1.425   6.229  0.4986  1.7148 -1.7088
 7124SOL    MW428270   1.032   1.383   6.173  0.6416  0.4544 -0.6855
 7125SOL     OW28271   1.055   1.667   2.697 -0.3695  0.1598 -0.4402
 7125SOL    HW228272   0.999   1.691   2.623  1.7299  1.1386 -1.8010
 7125SOL    HW328273   1.143   1.662   2.660  0.9856  1.9681  2.2130
 7125SOL    MW428274   1.059   1.669   2.683  0.0863  0.5275 -0.2697
 7126SOL     OW28275   1.344   6.251   5.682 -0.1880 -0.2878  0.1115
 7126SOL    HW228276   1.398   6.173   5.673  1.0108  0.4439  0.7854
 7126SOL    HW328277   1.381   6.313   5.619  0.5372  0.6319  1.4149
 7126SOL    MW428278   1.356   6.249   5.672  0.0659 -0.0699  0.3723
 7127SOL     OW28279   0.925   5.789   2.678 -1.0068 -0.0217  0.4685
 7127SOL    HW228280   0.976   5.850   2.732 -0.0015 -1.6484  1.4341
 7127SOL    HW328281   0.899   5.720   2.739  0.2623 -1.9946 -1.1167
 7127SOL    MW428282   0.928   5.788   2.693 -0.7068 -0.4966  0.3867
 7128SOL     OW28283   0.055   4.576   4.900  0.3178 -0.3084  0.0820
 7128SOL    HW228284   0.004   4.498   4.876 -1.7712  0.5455  1.5135
 7128SOL    HW328285   0.022   4.645   4.843  0.1884  0.1375  0.6833
 7128SOL    MW428286   0.044   4.575   4.889  0.0251 -0.1369  0.3502
 7129SOL     OW28287   2.169   0.153   3.078  0.3229  0.6385 -0.1890
 7129SOL    HW228288   2.257   0.187   3.094  0.3240  0.2832  0.6263
 7129SOL    HW328289   2.124   0.163   3.162 -1.1926  3.0149 -1.1908
 7129SOL    MW428290   2.175   0.159   3.091  0.1231  0.9051 -0.2136
 7130SOL     OW28291   6.246   1.519   1.068  0.1629  0.0760  0.3787
 7130SOL    HW228292   6.151   1.519   1.083  0.0807 -0.0356 -0.1248
 7130SOL    HW328293   6.283   1.485   1.150 -0.2301  0.1193  0.5773
 7130SOL    MW428294   6.238   1.515   1.081  0.1002  0.0670  0.3385
 7131SOL     OW28295   2.426   4.744   1.809  0.3734  0.5164 -0.0620
 7131SOL    HW228296   2.507   4.793   1.794  0.3116  0.4650 -0.5740
 7131SOL    HW328297   2.389   4.731   1.722 -0.3578  0.8323  0.1920
 7131SOL    MW428298   2.432   4.749   1.796  0.2688  0.5513 -0.0960
 7132SOL     OW28299   2.640   3.237   2.506 -0.0316  0.4081  0.2920
 7132SOL    HW228300   2.583   3.277   2.439  1.0301  0.9990 -0.2866
 7132SOL    HW328301   2.579   3.193   2.566 -1.0321 -0.0033 -0.9682
 7132SOL    MW428302   2.624   3.236   2.505 -0.0235  0.4318  0.0494
 7133SOL     OW28303   0.276   4.400   3.747 -0.4455 -0.1709  0.5782
 7133SOL    HW228304   0.272   4.436   3.658 -0.6933 -0.9421  0.2631
 7133SOL    HW328305   0.368   4.404   3.770 -0.1796 -1.1330 -0.2280
 7133SOL    MW428306   0.288   4.405   3.738 -0.4431 -0.3996  0.4303
 7134SOL     OW28307   3.339   2.044   2.867 -0.6745 -0.0914 -0.0926
 7134SOL    HW228308   3.348   1.952   2.842  0.2066  0.6214 -2.7231
 7134SOL    HW328309   3.427   2.068   2.896 -0.5878  0.2051 -0.5871
 7134SOL    MW428310   3.352   2.035   2.868 -0.5468  0.0418 -0.5049
 7135SOL     OW28311   4.328   4.855   4.673 -0.3528 -0.1166 -0.6003
 7135SOL    HW228312   4.375   4.777   4.703 -0.9754 -0.2348  0.0905
 7135SOL    HW328313   4.381   4.929   4.703 -0.4491 -0.2534 -0.0879
 7135SOL    MW428314   4.341   4.854   4.681 -0.4476 -0.1502 -0.4416
 7136SOL     OW28315   6.281   2.581   1.730  0.3456 -0.4009 -0.3198
 7136SOL    HW228316   6.212   2.643   1.754  0.1967 -0.9157  0.6249
 7136SOL    HW328317   6.344   2.586   1.802 -0.4076 -2.4143  0.5588
 7136SOL    MW428318   6.280   2.590   1.743  0.2266 -0.7345 -0.0793
 7137SOL     OW28319   5.137   3.849   4.636  0.1504 -0.6955  0.8388
 7137SOL    HW228320   5.068   3.873   4.574  0.9011  0.6003  0.4524
 7137SOL    HW328321   5.214   3.897   4.605  0.7075 -0.5055  2.4134
 7137SOL    MW428322   5.138   3.859   4.623  0.3229 -0.4994  0.9956
 7138SOL     OW28323   3.886   3.931   5.097  0.0363 -0.1640 -0.0496
 7138SOL    HW228324   3.939   3.884   5.033  1.5204  2.1243 -0.6059
 7138SOL    HW328325   3.949   3.972   5.157 -1.1746  0.7450  0.6620
 7138SOL    MW428326   3.901   3.930   5.097  0.0723  0.2579 -0.0291
 7139SOL     OW28327   0.658   4.245   5.961  0.7151 -0.9937  0.5116
 7139SOL    HW228328   0.724   4.231   5.893  1.0079  0.4125  0.4768
 7139SOL    HW328329   0.640   4.339   5.958  0.3996 -0.9743  2.0692
 7139SOL    MW428330   0.664   4.256   5.951  0.7121 -0.8056  0.7125
 7140SOL     OW28331   2.176   2.818   0.471  0.0359  0.4780  0.2967
 7140SOL    HW228332   2.168   2.870   0.551 -0.6701  1.7469 -0.5729
 7140SOL    HW328333   2.111   2.748   0.482 -0.3002  0.8429  0.6899
 7140SOL    MW428334   2.166   2.816   0.483 -0.1016  0.6936  0.2339
 7141SOL     OW28335   3.692   2.831   5.354  0.0189  0.6380 -0.0325
 7141SOL    HW228336   3.607   2.861   5.385 -0.0207  1.8379 -1.1838
 7141SOL    HW328337   3.686   2.837   5.258  0.6828 -1.3233 -0.2375
 7141SOL    MW428338   3.680   2.836   5.345  0.1013  0.5375 -0.2114
 7142SOL     OW28339   4.891   6.326   2.678 -0.3347  0.7314 -0.1513
 7142SOL    HW228340   4.941   6.397   2.637 -2.5964  2.4167 -0.1472
 7142SOL    HW328341   4.801   6.340   2.649 -1.4127 -0.1782  2.5049
 7142SOL    MW428342   4.886   6.337   2.668 -0.7753  0.8337  0.1997
 7143SOL     OW28343   4.489   3.218   6.104 -0.1218 -0.1317  0.5396
 7143SOL    HW228344   4.446   3.235   6.188 -1.6712 -2.7308  0.3818
 7143SOL    HW328345   4.582   3.235   6.120 -0.2616 -1.4226  3.0482
 7143SOL    MW428346   4.496   3.223   6.117 -0.3446 -0.6449  0.8498
 7144SOL     OW28347   2.300   2.281   0.919 -0.0924  0.1513  0.2634
 7144SOL    HW228348   2.211   2.299   0.889  0.8787  0.1720 -2.9109
 7144SOL    HW328349   2.335   2.367   0.944 -0.9302  0.1301  1.5975
 7144SOL    MW428350   2.293   2.295   0.919 -0.0748  0.1513  0.0206
 7145SOL     OW28351   6.367   2.517   0.591 -0.1716 -0.0897 -0.0299
 7145SOL    HW228352   6.362   2.590   0.530 -0.7755 -1.7388 -2.0844
 7145SOL    HW328353   6.386   2.441   0.535 -2.5795 -2.0149  1.5523
 7145SOL    MW428354   6.369   2.517   0.576 -0.5690 -0.5613 -0.0922
 7146SOL     OW28355   5.399   5.199   4.567 -0.2854  0.0063 -0.3317
 7146SOL    HW228356   5.363   5.202   4.478 -0.3631  3.0573 -0.3055
 7146SOL    HW328357   5.425   5.108   4.580 -2.8638 -1.1515 -2.4147
 7146SOL    MW428358   5.398   5.188   4.557 -0.6358  0.2561 -0.6031
 7147SOL     OW28359   5.927   4.270   6.261  0.1663 -0.3148  0.2625
 7147SOL    HW228360   5.969   4.305   6.182 -0.5866  0.2001  0.0823
 7147SOL    HW328361   5.855   4.217   6.228  1.2883 -2.1124  0.5264
 7147SOL    MW428362   5.923   4.267   6.246  0.2150 -0.4841  0.2736
 7148SOL     OW28363   4.831   2.626   3.344  0.0894 -0.0316  0.1202
 7148SOL    HW228364   4.918   2.644   3.307 -0.0058 -1.3771 -0.8110
 7148SOL    HW328365   4.780   2.705   3.324  1.0230  0.6823  0.4876
 7148SOL    MW428366   4.836   2.639   3.336  0.2000 -0.1150  0.0459
 7149SOL     OW28367   5.909   5.687   5.659  0.3880 -0.6777 -0.1057
 7149SOL    HW228368   5.977   5.663   5.596  0.7779 -0.8482  0.3710
 7149SOL    HW328369   5.957   5.727   5.731 -0.1922  1.1079 -0.6474
 7149SOL    MW428370   5.925   5.689   5.660  0.3629 -0.4646 -0.1143
 7150SOL     OW28371   5.426   2.908   0.887  0.3382  0.3655 -0.4684
 7150SOL    HW228372   5.346   2.888   0.936 -0.6521 -0.5849 -2.3790
 7150SOL    HW328373   5.491   2.847   0.921 -0.7788 -1.4203 -1.3763
 7150SOL    MW428374   5.424   2.897   0.898  0.0601  0.0045 -0.8402
 7151SOL     OW28375   3.885   3.046   2.910 -0.2231  0.1856 -0.5751
 7151SOL    HW228376   3.860   3.044   3.002 -0.6621 -0.5830 -0.7022
 7151SOL    HW328377   3.965   3.098   2.908 -0.9247  1.3517  0.0587
 7151SOL    MW428378   3.892   3.053   2.922 -0.3736  0.2380 -0.5082
 7152SOL     OW28379   6.086   0.677   3.641 -0.0169  0.0789 -0.2055
 7152SOL    HW228380   6.066   0.753   3.696 -1.0534 -0.2413 -0.1191
 7152SOL    HW328381   6.002   0.631   3.633  0.4781 -0.7437 -0.7300
 7152SOL    MW428382   6.072   0.681   3.648 -0.0883 -0.0719 -0.2633
 7153SOL     OW28383   5.647   2.813   5.600 -0.5426  0.9680 -0.8263
 7153SOL    HW228384   5.624   2.767   5.519 -0.2143 -0.0765 -0.3447
 7153SOL    HW328385   5.599   2.767   5.669  2.8905 -1.4111  0.2490
 7153SOL    MW428386   5.638   2.801   5.599 -0.0463  0.5163 -0.6209
 7154SOL     OW28387   2.605   2.332   5.756  0.0650  0.3537  0.4061
 7154SOL    HW228388   2.638   2.264   5.696 -0.7746  0.0694  0.2524
 7154SOL    HW328389   2.627   2.299   5.843 -0.7254 -0.3491  0.3556
 7154SOL    MW428390   2.613   2.318   5.759 -0.1500  0.2235  0.3792
 7155SOL     OW28391   2.194   3.025   0.696 -0.0651 -0.0039  0.6008
 7155SOL    HW228392   2.128   2.988   0.755 -1.0408 -0.1248 -0.5284
 7155SOL    HW328393   2.150   3.099   0.655  0.5425 -0.0280 -0.0988
 7155SOL    MW428394   2.180   3.030   0.699 -0.1137 -0.0230  0.3595
 7156SOL     OW28395   3.581   2.128   2.928  0.8373  0.2060 -0.0479
 7156SOL    HW228396   3.662   2.077   2.923  1.1508  0.2380  2.8996
 7156SOL    HW328397   3.603   2.203   2.982 -1.0919  0.3120  0.6909
 7156SOL    MW428398   3.594   2.131   2.935  0.6241  0.2242  0.4385
 7157SOL     OW28399   3.682   5.086   0.535  0.1300  0.5131  0.2779
 7157SOL    HW228400   3.650   5.104   0.623  0.3759  1.8501  0.1237
 7157SOL    HW328401   3.776   5.071   0.546 -0.1070 -1.0750  0.4349
 7157SOL    MW428402   3.690   5.086   0.548  0.1312  0.4800  0.2783
 7158SOL     OW28403   3.502   1.597   2.613 -0.0626  0.0268 -0.5986
 7158SOL    HW228404   3.407   1.603   2.617 -0.0917 -0.6318 -0.2150
 7158SOL    HW328405   3.531   1.688   2.621 -0.6182  0.1001  1.1138
 7158SOL    MW428406   3.493   1.610   2.615 -0.1397 -0.0504 -0.3221
 7159SOL     OW28407   3.428   2.685   0.874  0.0045 -0.2270 -0.1737
 7159SOL    HW228408   3.382   2.690   0.790 -1.1275  1.0202  0.4760
 7159SOL    HW328409   3.465   2.773   0.886 -0.7397 -0.0712  1.0957
 7159SOL    MW428410   3.427   2.697   0.864 -0.2430 -0.0419  0.0795
 7160SOL     OW28411   2.733   3.690   4.876 -0.4352  0.0159  0.4651
 7160SOL    HW228412   2.827   3.685   4.895 -0.3391  0.6781  0.1861
 7160SOL    HW328413   2.712   3.606   4.836  0.4410  0.5307 -1.1919
 7160SOL    MW428414   2.743   3.678   4.873 -0.3069  0.1712  0.2096
 7161SOL     OW28415   4.475   0.097   2.200  0.0132  0.7201  0.7708
 7161SOL    HW228416   4.439   0.012   2.175  0.7602  0.7322 -0.4517
 7161SOL    HW328417   4.445   0.157   2.131  0.5169  1.1802  0.9442
 7161SOL    MW428418   4.467   0.094   2.188  0.1782  0.7824  0.6324
 7162SOL     OW28419   0.797   1.181   6.393 -0.0977 -0.0375 -0.2690
 7162SOL    HW228420   0.791   1.238   6.317  0.3834  0.6141  0.1718
 7162SOL    HW328421   0.719   1.125   6.387 -0.7579  0.8890 -0.5230
 7162SOL    MW428422   0.786   1.181   6.382 -0.1213  0.1707 -0.2444
 7163SOL     OW28423   4.799   3.312   3.196  0.3029  0.1012 -0.2012
 7163SOL    HW228424   4.759   3.391   3.159 -2.4069 -0.2755  1.6231
 7163SOL    HW328425   4.874   3.344   3.246  1.3547  1.0621 -2.2601
 7163SOL    MW428426   4.804   3.327   3.198  0.0841  0.1783 -0.2322
 7164SOL     OW28427   3.820   2.097   3.836 -0.1376  0.2656 -0.3616
 7164SOL    HW228428   3.908   2.125   3.861 -0.7385  0.7646  1.3494
 7164SOL    HW328429   3.819   2.102   3.741  2.3439 -1.8113 -0.5831
 7164SOL    MW428430   3.831   2.102   3.827  0.1106  0.0574 -0.1650
 7165SOL     OW28431   0.975   5.004   2.973  0.2541 -0.0257  0.2304
 7165SOL    HW228432   0.979   5.068   3.044  2.7498 -0.4632  0.5637
 7165SOL    HW328433   0.909   4.941   3.002  0.4615  0.3774  1.6744
 7165SOL    MW428434   0.967   5.004   2.986  0.6107 -0.0302  0.4649
 7166SOL     OW28435   5.484   1.443   0.340  0.0553  0.3920 -0.5373
 7166SOL    HW228436   5.441   1.397   0.268  1.2847 -1.2536 -0.2941
 7166SOL    HW328437   5.516   1.524   0.301 -1.8768  0.9377 -1.0824
 7166SOL    MW428438   5.483   1.447   0.325 -0.0374  0.2469 -0.5771
 7167SOL     OW28439   3.896   4.821   3.737  0.0415  0.1406 -0.4058
 7167SOL    HW228440   3.940   4.862   3.663  1.2042  2.0561  1.2402
 7167SOL    HW328441   3.961   4.761   3.774  0.8333  1.8490  1.1233
 7167SOL    MW428442   3.910   4.818   3.732  0.2994  0.6188  0.0131
 7168SOL     OW28443   3.557   5.348   2.400  0.0181 -0.1124 -0.7243
 7168SOL    HW228444   3.491   5.416   2.419  0.4748  0.0917  0.1741
 7168SOL    HW328445   3.593   5.373   2.315  0.7406  1.2484 -0.0502
 7168SOL    MW428446   3.553   5.361   2.392  0.1737  0.0941 -0.5168
 7169SOL     OW28447   4.805   5.458   6.329 -0.1603  0.6074 -0.1428
 7169SOL    HW228448   4.824   5.548   6.356  1.6308 -0.0837  1.1374
 7169SOL    HW328449   4.778   5.414   6.410  1.0852 -0.4936 -0.2893
 7169SOL    MW428450   4.804   5.464   6.343  0.2404  0.3709  0.0068
 7170SOL     OW28451   1.008   1.396   3.300  0.8265 -0.2301 -0.0236
 7170SOL    HW228452   0.990   1.407   3.206 -1.7233  2.7910  0.6533
 7170SOL    HW328453   0.972   1.310   3.321  1.2326 -0.8605 -1.7272
 7170SOL    MW428454   1.001   1.386   3.290  0.5437  0.0853 -0.1591
 7171SOL     OW28455   0.647   1.482   1.189 -0.2392 -0.0190 -0.2899
 7171SOL    HW228456   0.680   1.458   1.276 -3.4836 -0.1618  1.0215
 7171SOL    HW328457   0.582   1.550   1.206 -2.3230 -1.3503 -2.3691
 7171SOL    MW428458   0.643   1.488   1.203 -0.9422 -0.2135 -0.3912
 7172SOL     OW28459   0.178   1.358   4.605  0.4539 -0.0867  0.2325
 7172SOL    HW228460   0.202   1.328   4.693  0.7153 -0.5564  0.0037
 7172SOL    HW328461   0.163   1.452   4.615 -0.6176 -0.3324  1.0071
 7172SOL    MW428462   0.179   1.367   4.618  0.3470 -0.1811  0.3045
 7173SOL     OW28463   0.477   3.247   0.885 -0.0750  0.4271 -0.3851
 7173SOL    HW228464   0.519   3.182   0.830  1.7552  0.2466  1.1214
 7173SOL    HW328465   0.429   3.303   0.824 -1.2841 -1.9506 -1.7777
 7173SOL    MW428466   0.476   3.246   0.870  0.0069  0.0896 -0.3701
 7174SOL     OW28467   0.815   1.793   0.619  0.4893 -0.0015 -0.3582
 7174SOL    HW228468   0.754   1.862   0.593 -1.0710 -1.4089 -0.6211
 7174SOL    HW328469   0.897   1.815   0.574  0.2989  2.0882  0.2222
 7174SOL    MW428470   0.818   1.805   0.609  0.2583  0.0885 -0.3163
 7175SOL     OW28471   4.010   0.529   5.419  0.0165 -0.9169  0.3717
 7175SOL    HW228472   3.953   0.536   5.495 -0.8869  1.9298 -0.4498
 7175SOL    HW328473   4.097   0.551   5.452 -0.3697  0.2836  0.6328
 7175SOL    MW428474   4.014   0.533   5.433 -0.1536 -0.3829  0.2978
 7176SOL     OW28475   5.922   2.588   4.568  0.2747 -0.3250  0.1950
 7176SOL    HW228476   5.985   2.643   4.522 -2.9604  2.4048 -1.4169
 7176SOL    HW328477   5.954   2.498   4.554  2.3337  0.7108 -2.8311
 7176SOL    MW428478   5.935   2.583   4.560  0.1195  0.1718 -0.4170
 7177SOL     OW28479   1.871   1.852   5.805  0.1564 -0.0569  0.2987
 7177SOL    HW228480   1.888   1.872   5.712  1.1301 -0.5936  0.3411
 7177SOL    HW328481   1.844   1.935   5.843  2.1612  0.7744  0.0528
 7177SOL    MW428482   1.870   1.866   5.797  0.5494 -0.0180  0.2718
 7178SOL     OW28483   1.722   6.293   5.133 -0.0957 -0.2252  0.5258
 7178SOL    HW228484   1.760   6.379   5.153 -0.9756 -0.2390  2.5190
 7178SOL    HW328485   1.627   6.309   5.130 -0.2399 -1.0391  0.4981
 7178SOL    MW428486   1.714   6.307   5.135 -0.2308 -0.3344  0.7851
 7179SOL     OW28487   3.297   4.061   5.938 -0.1030 -0.0582  0.4750
 7179SOL    HW228488   3.286   4.107   5.854 -0.5530  0.3425  0.7522
 7179SOL    HW328489   3.383   4.021   5.931 -0.5337 -0.8366 -0.5687
 7179SOL    MW428490   3.307   4.062   5.926 -0.2192 -0.1080  0.3739
 7180SOL     OW28491   3.532   1.326   4.654 -0.1005 -0.0427  0.5787
 7180SOL    HW228492   3.620   1.303   4.624 -0.6923 -0.4143 -1.0214
 7180SOL    HW328493   3.525   1.420   4.637  0.2167  0.1253  1.3564
 7180SOL    MW428494   3.543   1.335   4.648 -0.1367 -0.0696  0.4702
 7181SOL     OW28495   1.427   5.058   5.220  0.4005  0.0393 -0.0311
 7181SOL    HW228496   1.406   5.102   5.138 -0.6549  0.1741  0.2951
 7181SOL    HW328497   1.474   5.124   5.271 -0.9030  0.7228  0.3328
 7181SOL    MW428498   1.430   5.072   5.216  0.0893  0.1473  0.0600
 7182SOL     OW28499   5.870   3.002   0.675  0.8368  0.1271  0.2343
 7182SOL    HW228500   5.909   3.070   0.730  1.8032 -0.0274 -0.2416
 7182SOL    HW328501   5.938   2.936   0.666  1.6126  1.1781 -3.0062
 7182SOL    MW428502   5.884   3.002   0.681  1.0667  0.2454 -0.2560
 7183SOL     OW28503   0.110   4.881   2.900 -0.5212 -0.0814 -0.4643
 7183SOL    HW228504   0.053   4.886   2.976  0.1162 -1.9988  0.1977
 7183SOL    HW328505   0.087   4.798   2.858  0.9028 -0.2954 -0.8778
 7183SOL    MW428506   0.100   4.871   2.904 -0.2492 -0.3626 -0.4315
 7184SOL     OW28507   2.951   1.451   3.814  0.0882  0.3438 -0.1574
 7184SOL    HW228508   3.020   1.409   3.762 -0.3406 -1.6567  0.7841
 7184SOL    HW328509   2.987   1.455   3.902 -0.6178  0.1518  0.1478
 7184SOL    MW428510   2.965   1.446   3.819 -0.0615  0.0545  0.0071
 7185SOL     OW28511   1.826   5.900   5.782 -0.3150 -0.7567  0.4751
 7185SOL    HW228512   1.921   5.894   5.779 -0.3319 -0.9460 -2.5332
 7185SOL    HW328513   1.808   5.989   5.811  0.7543 -0.6379  0.8111
 7185SOL    MW428514   1.836   5.911   5.786 -0.1762 -0.7660  0.1225
 7186SOL     OW28515   2.664   4.045   1.198 -0.1697  0.3052 -0.6705
 7186SOL    HW228516   2.693   4.088   1.279  0.1294 -1.5242  0.2379
 7186SOL    HW328517   2.740   3.993   1.170 -0.5171  0.3510 -1.7483
 7186SOL    MW428518   2.678   4.044   1.205 -0.1761  0.0698 -0.6929
 7187SOL     OW28519   3.242   6.043   0.228 -0.7204 -0.1202  0.3862
 7187SOL    HW228520   3.326   6.085   0.249 -1.1354  1.3464 -0.7325
 7187SOL    HW328521   3.262   5.984   0.156 -0.5898 -0.0272  0.3460
 7187SOL    MW428522   3.256   6.041   0.221 -0.7579  0.0856  0.2333
 7188SOL     OW28523   6.255   6.011   1.226  0.2726  0.8746 -0.3678
 7188SOL    HW228524   6.162   6.024   1.247  0.1802  0.0343 -0.2157
 7188SOL    HW328525   6.302   6.057   1.295 -0.0322 -0.5860  0.8606
 7188SOL    MW428526   6.249   6.019   1.238  0.2202  0.5710 -0.1857
 7189SOL     OW28527   4.742   4.599   3.657  0.3770  0.0699  0.0438
 7189SOL    HW228528   4.808   4.578   3.591 -0.4321  2.6807 -1.7752
 7189SOL    HW328529   4.673   4.645   3.607 -1.8372 -0.7021  2.1915
 7189SOL    MW428530   4.741   4.602   3.641 -0.0219  0.3125  0.0871
 7190SOL     OW28531   0.740   1.593   5.167 -0.5648 -0.8283 -0.3171
 7190SOL    HW228532   0.800   1.581   5.241 -0.1859 -0.7467 -0.6127
 7190SOL    HW328533   0.733   1.688   5.157  0.7206 -0.8279 -1.4652
 7190SOL    MW428534   0.747   1.604   5.176 -0.3452 -0.8175 -0.5076
 7191SOL     OW28535   1.733   2.256   1.657  0.2187 -0.2967 -0.0175
 7191SOL    HW228536   1.814   2.230   1.613  0.1365  0.3126 -0.5444
 7191SOL    HW328537   1.673   2.278   1.585  0.3265  1.4641  0.3944
 7191SOL    MW428538   1.736   2.255   1.642  0.2221  0.0160 -0.0327
 7192SOL     OW28539   1.730   1.215   1.653  0.3775  0.3414 -0.7745
 7192SOL    HW228540   1.639   1.239   1.671  0.9146  1.8482  0.0754
 7192SOL    HW328541   1.780   1.254   1.724  1.6696 -0.7805 -1.0228
 7192SOL    MW428542   1.725   1.223   1.665  0.6188  0.3922 -0.6951
 7193SOL     OW28543   0.784   5.703   5.527  0.0326  0.2452  0.1645
 7193SOL    HW228544   0.720   5.632   5.514  0.9051 -0.5222 -0.0578
 7193SOL    HW328545   0.746   5.756   5.597 -1.9265  1.1230 -1.4554
 7193SOL    MW428546   0.770   5.700   5.535 -0.1107  0.2598 -0.0786
 7194SOL     OW28547   3.176   2.567   2.161 -0.2713 -0.0802 -1.1959
 7194SOL    HW228548   3.080   2.574   2.154 -0.4412 -0.3480  0.4844
 7194SOL    HW328549   3.196   2.477   2.136 -0.8264 -0.9687  1.2621
 7194SOL    MW428550   3.166   2.556   2.156 -0.3670 -0.2327 -0.6499
 7195SOL     OW28551   2.409   5.890   0.693  0.4873  0.9886  0.3575
 7195SOL    HW228552   2.445   5.910   0.606  0.9032  0.9234  0.5128
 7195SOL    HW328553   2.463   5.941   0.753  0.1796  1.0560  0.5780
 7195SOL    MW428554   2.421   5.899   0.689  0.5016  0.9889  0.4071
 7196SOL     OW28555   3.466   3.385   6.118 -0.2008 -0.2541 -0.0317
 7196SOL    HW228556   3.426   3.462   6.077  1.9900  0.7441 -0.4418
 7196SOL    HW328557   3.556   3.385   6.087  0.3540 -1.9918  1.3730
 7196SOL    MW428558   3.473   3.395   6.109  0.1614 -0.3517  0.0995
 7197SOL     OW28559   5.764   4.809   4.356 -0.3022 -0.2033 -0.0049
 7197SOL    HW228560   5.731   4.788   4.268  1.6736  1.1725 -1.1564
 7197SOL    HW328561   5.729   4.895   4.375 -0.3593 -0.3066  0.3562
 7197SOL    MW428562   5.755   4.817   4.347 -0.0491 -0.0354 -0.1092
 7198SOL     OW28563   3.757   4.274   3.566  0.1656  0.0241  0.0055
 7198SOL    HW228564   3.818   4.324   3.621 -0.1180  0.9992 -0.5542
 7198SOL    HW328565   3.738   4.331   3.492 -1.4214 -0.2610  0.1560
 7198SOL    MW428566   3.763   4.288   3.564 -0.0812  0.1151 -0.0485
 7199SOL     OW28567   3.588   4.522   4.820  0.5237  0.5115  0.0318
 7199SOL    HW228568   3.522   4.552   4.883 -0.9919 -2.2933 -0.0784
 7199SOL    HW328569   3.646   4.466   4.871  0.3367 -0.3465 -0.6730
 7199SOL    MW428570   3.587   4.519   4.835  0.2991  0.0282 -0.0757
 7200SOL     OW28571   2.017   1.575   6.435 -0.3749  0.2454  0.0665
 7200SOL    HW228572   1.926   1.601   6.418 -1.0069 -1.6799  0.2708
 7200SOL    HW328573   2.056   1.565   6.348 -0.9838 -0.8809 -0.1001
 7200SOL    MW428574   2.010   1.577   6.421 -0.5386 -0.1572  0.0715
 7201SOL     OW28575   2.425   4.310   4.135 -0.4853  0.3327  0.8233
 7201SOL    HW228576   2.419   4.232   4.189 -1.3387  0.1440  0.4671
 7201SOL    HW328577   2.350   4.304   4.075  0.3450  0.6217 -0.2676
 7201SOL    MW428578   2.414   4.299   4.135 -0.4883  0.3459  0.6324
 7202SOL     OW28579   5.674   3.154   0.321  0.1363 -0.3995  0.1855
 7202SOL    HW228580   5.626   3.209   0.260  0.2211 -1.6052 -1.0256
 7202SOL    HW328581   5.629   3.070   0.318  0.4507 -0.6375  1.4183
 7202SOL    MW428582   5.662   3.150   0.312  0.1890 -0.5900  0.1884
 7203SOL     OW28583   3.774   3.999   4.015 -0.3786  0.2894 -0.5854
 7203SOL    HW228584   3.782   3.904   4.013  1.0451  0.3961 -2.1010
 7203SOL    HW328585   3.703   4.018   3.953  0.9471  0.2833 -2.1873
 7203SOL    MW428586   3.766   3.989   4.006 -0.0158  0.3026 -0.9967
 7204SOL     OW28587   0.367   2.409   0.602 -0.3664  0.7462  0.2437
 7204SOL    HW228588   0.352   2.438   0.512 -0.2491 -0.2403 -0.1039
 7204SOL    HW328589   0.362   2.313   0.597  1.4485  0.5891  0.9521
 7204SOL    MW428590   0.364   2.400   0.589 -0.1114  0.5954  0.2913
 7205SOL     OW28591   2.404   4.290   4.497 -0.1286  0.0117  0.1395
 7205SOL    HW228592   2.496   4.316   4.496 -0.2619  0.5924 -1.6706
 7205SOL    HW328593   2.396   4.228   4.425 -1.4844  1.4268 -1.0156
 7205SOL    MW428594   2.415   4.285   4.487 -0.3251  0.2750 -0.2517
 7206SOL     OW28595   1.382   3.842   1.505 -0.3821 -0.0375  0.1349
 7206SOL    HW228596   1.418   3.820   1.591  0.7022 -0.4800 -0.4154
 7206SOL    HW328597   1.458   3.847   1.448 -1.1441 -0.4063 -0.9446
 7206SOL    MW428598   1.396   3.840   1.509 -0.3396 -0.1445 -0.0801
 7207SOL     OW28599   3.157   2.926   1.624 -0.0156  0.1984 -0.1122
 7207SOL    HW228600   3.104   2.848   1.636  0.9142 -0.5717 -0.8577
 7207SOL    HW328601   3.122   2.989   1.687 -1.2440 -0.5679 -0.0045
 7207SOL    MW428602   3.146   2.924   1.634 -0.0550 -0.0043 -0.1963
 7208SOL     OW28603   0.406   0.911   0.204 -0.6119 -0.2405 -0.2730
 7208SOL    HW228604   0.427   0.900   0.297  1.9789 -1.2539 -0.8855
 7208SOL    HW328605   0.314   0.884   0.197 -0.4054 -1.7378  1.7594
 7208SOL    MW428606   0.396   0.906   0.215 -0.2428 -0.5717 -0.0856
 7209SOL     OW28607   2.694   0.751   0.103 -0.2563 -0.1703  0.2405
 7209SOL    HW228608   2.676   0.799   0.022 -2.8671 -1.2137  0.0795
 7209SOL    HW328609   2.693   0.817   0.172 -0.9381  0.3837 -0.2872
 7209SOL    MW428610   2.692   0.766   0.101 -0.6907 -0.2349  0.1497
 7210SOL     OW28611   2.376   4.772   3.669  0.0385 -0.1095 -0.3277
 7210SOL    HW228612   2.294   4.807   3.636  0.5815  2.3732  0.7208
 7210SOL    HW328613   2.351   4.699   3.725 -1.1744 -1.4257 -2.4588
 7210SOL    MW428614   2.362   4.767   3.672 -0.0499  0.0444 -0.4705
 7211SOL     OW28615   2.684   1.502   5.593 -0.0189  0.0074 -0.1404
 7211SOL    HW228616   2.712   1.467   5.508 -0.7504  0.4854 -0.5884
 7211SOL    HW328617   2.713   1.593   5.592 -1.7072  0.5688 -0.6976
 7211SOL    MW428618   2.692   1.509   5.581 -0.3382  0.1445 -0.2730
 7212SOL     OW28619   3.136   4.541   2.719  0.4343  0.2358 -0.1148
 7212SOL    HW228620   3.210   4.586   2.679  0.2454  0.8964  0.2650
 7212SOL    HW328621   3.122   4.464   2.664  1.7604 -0.2049  0.1403
 7212SOL    MW428622   3.144   4.537   2.707  0.5843  0.2648 -0.0311
 7213SOL     OW28623   0.344   5.416   5.193  0.3831  0.1891  0.5207
 7213SOL    HW228624   0.410   5.359   5.154  0.5493  0.2754  0.6732
 7213SOL    HW328625   0.391   5.497   5.212 -0.0846  0.7688 -0.6484
 7213SOL    MW428626   0.359   5.419   5.190  0.3434  0.2770  0.3866
 7214SOL     OW28627   3.314   0.967   3.113 -0.0519 -0.1659  0.5460
 7214SOL    HW228628   3.256   0.899   3.078  1.5883 -1.2656 -0.1544
 7214SOL    HW328629   3.336   0.937   3.201 -0.5915  0.2967  0.8455
 7214SOL    MW428630   3.309   0.954   3.120  0.0933 -0.2499  0.4931
 7215SOL     OW28631   4.909   3.980   1.531 -0.2692  0.2499 -0.4478
 7215SOL    HW228632   4.964   4.021   1.464  2.1336 -1.1864  0.5344
 7215SOL    HW328633   4.832   3.948   1.483  0.3316  1.2056 -2.1063
 7215SOL    MW428634   4.906   3.981   1.516  0.1271  0.1865 -0.5371
 7216SOL     OW28635   1.359   2.508   4.472 -0.1666 -0.1226 -0.0432
 7216SOL    HW228636   1.293   2.563   4.430  0.5126  0.2421 -0.6644
 7216SOL    HW328637   1.328   2.419   4.458 -0.7663  0.0584  0.0876
 7216SOL    MW428638   1.346   2.504   4.464 -0.1561 -0.0506 -0.1079
 7217SOL     OW28639   2.570   5.114   6.374  0.0723  0.3933  0.4052
 7217SOL    HW228640   2.655   5.107   6.329 -0.2050 -0.0494 -0.0599
 7217SOL    HW328641   2.566   5.036   6.430 -0.2090  0.1918  0.1066
 7217SOL    MW428642   2.581   5.103   6.375 -0.0014  0.3083  0.3045
 7218SOL     OW28643   1.103   2.171   4.985  0.1123 -0.0046  0.3039
 7218SOL    HW228644   1.072   2.208   4.903  0.9871 -0.8071 -0.4223
 7218SOL    HW328645   1.051   2.214   5.053 -1.0975  0.1727 -0.7111
 7218SOL    MW428646   1.092   2.182   4.983  0.0681 -0.0871  0.0742
 7219SOL     OW28647   0.125   0.322   0.573 -0.3440  0.3088  0.2429
 7219SOL    HW228648   0.107   0.274   0.654  1.1691  0.9239  0.9931
 7219SOL    HW328649   0.039   0.349   0.541 -1.1885 -2.2229  0.1849
 7219SOL    MW428650   0.111   0.319   0.580 -0.2558  0.0560  0.3342
 7220SOL     OW28651   4.430   2.673   2.458  0.2173 -0.0359 -0.1820
 7220SOL    HW228652   4.511   2.722   2.442 -0.7295  1.8729  0.5357
 7220SOL    HW328653   4.399   2.704   2.543 -1.4567 -0.4256 -0.6069
 7220SOL    MW428654   4.436   2.684   2.467 -0.1285  0.1645 -0.1434
 7221SOL     OW28655   6.195   2.795   4.108  0.3689  0.3522  0.1143
 7221SOL    HW228656   6.213   2.770   4.017  1.2846  1.4595 -0.0309
 7221SOL    HW328657   6.282   2.808   4.147 -0.0101 -0.2392  1.1957
 7221SOL    MW428658   6.209   2.793   4.101  0.4397  0.4202  0.2378
 7222SOL     OW28659   3.514   0.242   3.478  0.4246 -1.0047  0.9566
 7222SOL    HW228660   3.448   0.177   3.503 -1.3504  0.6373  0.8414
 7222SOL    HW328661   3.463   0.312   3.436  2.2211  0.4668  1.0963
 7222SOL    MW428662   3.498   0.243   3.476  0.4274 -0.5939  0.9598
 7223SOL     OW28663   3.916   1.105   4.404  0.4624  0.1879 -0.6646
 7223SOL    HW228664   3.872   1.151   4.476  0.6172  0.5131 -0.7733
 7223SOL    HW328665   3.932   1.017   4.437 -0.0358  0.1470 -0.5280
 7223SOL    MW428666   3.912   1.100   4.418  0.4171  0.2254 -0.6609
 7224SOL     OW28667   3.104   6.273   5.761 -0.1669 -0.1190  0.6604
 7224SOL    HW228668   3.195   6.261   5.735 -0.3481 -1.0039  0.4153
 7224SOL    HW328669   3.095   6.223   5.842 -0.0293  1.2869  1.5906
 7224SOL    MW428670   3.115   6.265   5.768 -0.1727 -0.0503  0.7508
 7225SOL     OW28671   6.080   5.411   4.485 -0.4669  0.1915  0.0121
 7225SOL    HW228672   6.098   5.500   4.517  0.5840 -0.1324  0.3589
 7225SOL    HW328673   6.134   5.403   4.406  1.0837 -0.8321  1.1177
 7225SOL    MW428674   6.090   5.422   4.479 -0.1237  0.0137  0.2037
 7226SOL     OW28675   3.328   0.904   4.150 -0.0012 -0.0155  0.5455
 7226SOL    HW228676   3.257   0.891   4.088  1.1952  1.0512 -1.1530
 7226SOL    HW328677   3.316   0.836   4.216 -0.5186 -2.1203 -1.6087
 7226SOL    MW428678   3.317   0.894   4.151  0.0884 -0.1525  0.0372
 7227SOL     OW28679   5.886   2.556   2.501 -0.0880  0.1779 -0.8440
 7227SOL    HW228680   5.793   2.575   2.489  0.1703  0.9994 -1.6440
 7227SOL    HW328681   5.889   2.497   2.576 -1.3347 -0.6912 -1.4446
 7227SOL    MW428682   5.874   2.551   2.509 -0.2184  0.1716 -1.0288
 7228SOL     OW28683   0.679   1.595   2.379  0.2538 -0.0388  0.6302
 7228SOL    HW228684   0.728   1.590   2.296  1.0527  3.0724  0.8058
 7228SOL    HW328685   0.724   1.534   2.437  0.2610 -1.5746 -0.9078
 7228SOL    MW428686   0.692   1.586   2.375  0.3602  0.1690  0.4504
 7229SOL     OW28687   4.220   5.261   4.014 -0.1229 -0.4515  0.1610
 7229SOL    HW228688   4.156   5.330   4.025 -0.5299 -0.2343 -2.8416
 7229SOL    HW328689   4.175   5.181   4.042 -1.0303 -0.0281 -0.0737
 7229SOL    MW428690   4.206   5.259   4.019 -0.2963 -0.3670 -0.2661
 7230SOL     OW28691   0.702   4.493   6.274  0.4566 -0.3680 -0.1555
 7230SOL    HW228692   0.701   4.398   6.274 -0.5315 -0.4432  2.5287
 7230SOL    HW328693   0.794   4.517   6.287  0.7801 -0.9196 -1.3594
 7230SOL    MW428694   0.714   4.484   6.276  0.3689 -0.4507  0.0398
 7231SOL     OW28695   0.240   2.216   0.237  0.4789  0.3724 -0.3059
 7231SOL    HW228696   0.213   2.151   0.173  2.3344 -1.3002  0.5149
 7231SOL    HW328697   0.321   2.181   0.274  0.0208  1.7754  2.2241
 7231SOL    MW428698   0.247   2.203   0.233  0.6633  0.3368  0.1362
 7232SOL     OW28699   4.924   3.302   0.385  0.1621 -0.5066  0.1853
 7232SOL    HW228700   4.949   3.300   0.293  0.3256 -0.5747  0.2305
 7232SOL    HW328701   4.832   3.273   0.386  0.2141 -0.6777  0.0623
 7232SOL    MW428702   4.915   3.298   0.373  0.1905 -0.5381  0.1750
 7233SOL     OW28703   0.696   5.891   0.575  0.3761  0.0090  0.2458
 7233SOL    HW228704   0.724   5.974   0.613 -0.2521  1.1279 -1.5777
 7233SOL    HW328705   0.747   5.883   0.494  0.5885 -1.5001  0.5076
 7233SOL    MW428706   0.706   5.901   0.569  0.3213 -0.0425  0.0398
 7234SOL     OW28707   5.313   2.744   0.676 -0.3828  0.4002  0.1598
 7234SOL    HW228708   5.313   2.657   0.717  2.3558  0.0262 -0.4389
 7234SOL    HW328709   5.362   2.799   0.738 -0.1625  0.9610 -0.5022
 7234SOL    MW428710   5.319   2.740   0.690  0.0076  0.4249 -0.0066
 7235SOL     OW28711   3.954   5.914   3.652  0.0707  0.8683 -0.2552
 7235SOL    HW228712   3.989   5.827   3.671 -0.0248  0.6173 -1.1916
 7235SOL    HW328713   3.950   5.919   3.557 -1.4730  1.2797 -0.1990
 7235SOL    MW428714   3.958   5.903   3.642 -0.1456  0.8894 -0.3713
 7236SOL     OW28715   4.839   0.102   5.167  0.9232  0.0497  0.0848
 7236SOL    HW228716   4.914   0.079   5.113  0.1494 -0.4003 -0.8315
 7236SOL    HW328717   4.874   0.160   5.234  2.1092 -0.2751 -0.2369
 7236SOL    MW428718   4.853   0.106   5.169  0.9776 -0.0525 -0.0785
 7237SOL     OW28719   4.764   4.469   2.394  0.1057 -0.2189  0.4039
 7237SOL    HW228720   4.668   4.468   2.394  0.0268 -1.1724 -1.9692
 7237SOL    HW328721   4.789   4.383   2.360  1.7155  0.7357 -1.0121
 7237SOL    MW428722   4.755   4.458   2.389  0.3077 -0.2187 -0.0960
 7238SOL     OW28723   3.372   0.301   6.081 -0.3226  0.4789 -0.5030
 7238SOL    HW228724   3.317   0.251   6.021 -0.0268 -2.9742  1.7621
 7238SOL    HW328725   3.334   0.286   6.168  1.3568  2.1010  0.6076
 7238SOL    MW428726   3.360   0.292   6.085 -0.0620  0.2373 -0.0576
 7239SOL     OW28727   5.981   1.951   1.339  0.0079  0.4232  0.1744
 7239SOL    HW228728   6.053   1.958   1.401  1.2264  0.4815 -1.1996
 7239SOL    HW328729   5.930   2.031   1.353  0.4984  0.6374  0.7985
 7239SOL    MW428730   5.984   1.962   1.349  0.2334  0.4592  0.0755
 7240SOL     OW28731   2.404   0.029   4.925  0.0114  0.1914  0.0743
 7240SOL    HW228732   2.389  -0.030   4.999  0.3927  2.0470  1.7136
 7240SOL    HW328733   2.342  -0.001   4.858 -1.2865 -0.7586  1.6198
 7240SOL    MW428734   2.394   0.018   4.926 -0.1096  0.3109  0.4945
 7241SOL     OW28735   4.652   0.556   4.821  0.6633 -0.0032  0.0752
 7241SOL    HW228736   4.703   0.487   4.779  0.4622 -0.3620  0.4156
 7241SOL    HW328737   4.702   0.578   4.900  0.8768  0.4492 -0.1788
 7241SOL    MW428738   4.666   0.550   4.826  0.6649  0.0092  0.0866
 7242SOL     OW28739   3.740   2.255   4.967 -0.0296  0.3578 -0.0578
 7242SOL    HW228740   3.737   2.326   4.903  1.8442  0.7037  0.1956
 7242SOL    HW328741   3.792   2.187   4.925  0.0139  0.0088  0.5564
 7242SOL    MW428742   3.746   2.256   4.953  0.2234  0.3574  0.0567
 7243SOL     OW28743   1.770   2.259   5.588  0.0060  0.0215  0.1332
 7243SOL    HW228744   1.829   2.274   5.661 -0.7330  1.6188  0.4598
 7243SOL    HW328745   1.686   2.236   5.629  0.1469 -1.3325 -0.2955
 7243SOL    MW428746   1.767   2.258   5.603 -0.0729  0.0536  0.1197
 7244SOL     OW28747   5.887   3.400   1.986 -0.0846  0.1241  0.7636
 7244SOL    HW228748   5.897   3.428   2.077  0.4337 -0.0861  0.7725
 7244SOL    HW328749   5.933   3.467   1.935 -1.2763  0.8224  0.5660
 7244SOL    MW428750   5.894   3.413   1.992 -0.1734  0.1885  0.7387
 7245SOL     OW28751   6.124   0.603   5.537  0.2955 -0.4539 -0.0574
 7245SOL    HW228752   6.189   0.628   5.473  0.7548 -1.4944 -0.0191
 7245SOL    HW328753   6.042   0.599   5.488  0.7881 -2.1009 -0.8068
 7245SOL    MW428754   6.121   0.606   5.522  0.4211 -0.8085 -0.1512
 7246SOL     OW28755   1.098   5.492   6.086  0.0314  0.1622  0.0496
 7246SOL    HW228756   1.153   5.462   6.159 -1.6494  0.1635  1.3614
 7246SOL    HW328757   1.009   5.469   6.112 -0.5368 -0.8373 -2.5313
 7246SOL    MW428758   1.094   5.485   6.099 -0.2653  0.0305 -0.1178
 7247SOL     OW28759   1.352   0.834   4.100 -0.1629  0.5325  0.2611
 7247SOL    HW228760   1.402   0.796   4.027 -0.3841 -2.9698  1.7228
 7247SOL    HW328761   1.261   0.832   4.070 -0.3272 -1.4692  0.7015
 7247SOL    MW428762   1.347   0.829   4.086 -0.2138 -0.1937  0.5120
 7248SOL     OW28763   0.815   0.867   4.165 -0.7388  0.3670 -0.2391
 7248SOL    HW228764   0.745   0.824   4.116  0.5820 -0.2126 -1.6868
 7248SOL    HW328765   0.802   0.960   4.147 -1.0336  0.2540 -0.6329
 7248SOL    MW428766   0.804   0.874   4.156 -0.6034  0.2756 -0.4821
 7249SOL     OW28767   1.594   1.649   2.034 -0.1098 -0.0883 -0.0037
 7249SOL    HW228768   1.543   1.611   1.962  1.0733 -1.3946 -0.1824
 7249SOL    HW328769   1.569   1.598   2.111  0.9191 -0.7426 -0.0938
 7249SOL    MW428770   1.584   1.637   2.035  0.1820 -0.3469 -0.0392
 7250SOL     OW28771   5.809   5.250   3.398  0.0202  0.3077 -0.1093
 7250SOL    HW228772   5.825   5.168   3.445  1.8022  0.2959 -0.6684
 7250SOL    HW328773   5.758   5.223   3.322  2.4962 -0.7498 -1.5371
 7250SOL    MW428774   5.804   5.235   3.394  0.5820  0.1666 -0.3714
 7251SOL     OW28775   5.579   4.908   2.535  0.3206 -0.0644 -0.5069
 7251SOL    HW228776   5.494   4.951   2.544  0.5184  0.0713  0.9088
 7251SOL    HW328777   5.636   4.954   2.596  0.6552 -2.0254  0.7675
 7251SOL    MW428778   5.576   4.920   2.544  0.3908 -0.3052 -0.1520
 7252SOL     OW28779   4.472   3.505   3.852 -0.3048 -0.1313 -0.5574
 7252SOL    HW228780   4.416   3.510   3.774 -1.3261 -0.4975  0.1263
 7252SOL    HW328781   4.443   3.578   3.906 -0.1563 -0.3510 -0.1795
 7252SOL    MW428782   4.460   3.515   3.849 -0.4200 -0.2086 -0.4174
 7253SOL     OW28783   0.816   5.395   2.585  0.1719  0.0826  0.0813
 7253SOL    HW228784   0.886   5.435   2.534  0.5664 -0.7125 -0.0253
 7253SOL    HW328785   0.861   5.347   2.655 -0.1160 -1.8314 -0.9709
 7253SOL    MW428786   0.831   5.394   2.587  0.1860 -0.2749 -0.0716
 7254SOL     OW28787   4.817   0.517   4.554 -0.1110  0.3299  0.2701
 7254SOL    HW228788   4.734   0.486   4.590  0.6835  1.2075  3.0920
 7254SOL    HW328789   4.853   0.440   4.509 -2.1398 -0.2159 -0.5570
 7254SOL    MW428790   4.811   0.503   4.553 -0.2739  0.3736  0.5333
 7255SOL     OW28791   6.367   4.051   4.650 -0.1922  0.2515  0.5729
 7255SOL    HW228792   6.345   3.988   4.581 -0.6131 -0.2897  1.1839
 7255SOL    HW328793   6.461   4.065   4.641 -0.1035 -0.4243  0.3839
 7255SOL    MW428794   6.377   4.045   4.640 -0.2360  0.0909  0.6286
 7256SOL     OW28795   4.087   3.061   2.448 -0.1157 -0.3462 -0.1571
 7256SOL    HW228796   4.040   3.087   2.369  1.2711  0.6954 -0.6903
 7256SOL    HW328797   4.043   3.107   2.519 -0.6719 -0.3903 -0.4671
 7256SOL    MW428798   4.075   3.070   2.447 -0.0061 -0.2146 -0.2684
 7257SOL     OW28799   0.636   1.957   3.532  0.1252 -0.6047  0.3154
 7257SOL    HW228800   0.646   1.875   3.485  0.3763  0.5367 -1.7449
 7257SOL    HW328801   0.541   1.967   3.544  0.1280 -1.5169  1.2743
 7257SOL    MW428802   0.624   1.948   3.528  0.1587 -0.5744  0.1701
 7258SOL     OW28803   1.338   3.343   4.446 -0.0609 -0.3718  0.3502
 7258SOL    HW228804   1.362   3.436   4.445 -2.1174  0.2312 -1.6128
 7258SOL    HW328805   1.417   3.299   4.478  1.7117  1.8725 -0.5799
 7258SOL    MW428806   1.352   3.350   4.450 -0.0983  0.0039 -0.0315
 7259SOL     OW28807   1.414   5.495   1.207  0.1951  0.0084 -0.2959
 7259SOL    HW228808   1.359   5.571   1.188  1.4556  1.1975  0.5810
 7259SOL    HW328809   1.478   5.492   1.136 -1.6048 -2.0930 -1.9802
 7259SOL    MW428810   1.415   5.505   1.195  0.1239 -0.1120 -0.4024
 7260SOL     OW28811   4.178   2.904   1.601  0.4354 -0.1621  0.1490
 7260SOL    HW228812   4.123   2.970   1.560 -1.2470 -1.3423  0.3627
 7260SOL    HW328813   4.215   2.854   1.528 -2.8354 -2.4897 -0.1308
 7260SOL    MW428814   4.175   2.906   1.586 -0.2181 -0.6249  0.1403
 7261SOL     OW28815   1.417   1.898   0.611 -0.0256  0.4677  0.3714
 7261SOL    HW228816   1.421   1.906   0.516  0.0747  0.1521  0.3475
 7261SOL    HW328817   1.414   1.804   0.627  2.0646  0.4177  0.7471
 7261SOL    MW428818   1.417   1.887   0.601  0.2634  0.4195  0.4178
 7262SOL     OW28819   4.013   4.321   1.237 -0.4111  0.1934  0.1274
 7262SOL    HW228820   3.999   4.353   1.327 -0.3277  2.8506 -0.7183
 7262SOL    HW328821   4.107   4.303   1.233 -0.8681 -3.1066  1.4310
 7262SOL    MW428822   4.023   4.323   1.249 -0.4604  0.1086  0.1878
 7263SOL     OW28823   1.209   4.544   3.799  0.1531 -0.0780 -0.0747
 7263SOL    HW228824   1.291   4.500   3.776 -0.0238 -0.8534  0.7102
 7263SOL    HW328825   1.141   4.481   3.776 -0.2816  0.7920 -1.2737
 7263SOL    MW428826   1.211   4.530   3.793  0.0724 -0.0655 -0.1293
 7264SOL     OW28827   1.222   2.292   5.288  0.3029  0.2855  0.0121
 7264SOL    HW228828   1.219   2.387   5.299  1.0691  0.5445 -1.6054
 7264SOL    HW328829   1.133   2.268   5.265  0.4770  0.9409 -1.5053
 7264SOL    MW428830   1.210   2.302   5.286  0.4269  0.4061 -0.4015
 7265SOL     OW28831   5.722   6.312   2.086 -0.1576  0.0699 -0.0023
 7265SOL    HW228832   5.716   6.277   1.997  1.8568  0.2118 -0.2363
 7265SOL    HW328833   5.801   6.272   2.122  0.2476  1.6368  0.9570
 7265SOL    MW428834   5.732   6.302   2.079  0.1616  0.2954  0.0934
 7266SOL     OW28835   0.942   1.783   2.466  0.4263  0.0485  0.3733
 7266SOL    HW228836   1.024   1.826   2.442 -0.5544  1.5258 -0.5618
 7266SOL    HW328837   0.931   1.715   2.399  1.6413 -1.2629  1.4463
 7266SOL    MW428838   0.951   1.780   2.454  0.4572  0.0704  0.3915
 7267SOL     OW28839   1.318   4.443   4.224 -0.4748  0.4937 -0.2235
 7267SOL    HW228840   1.301   4.382   4.296 -0.4377  0.8412  0.0877
 7267SOL    HW328841   1.322   4.529   4.267  3.5614  0.3603  0.0595
 7267SOL    MW428842   1.316   4.446   4.239  0.0626  0.5220 -0.1451
 7268SOL     OW28843   1.146   6.033   3.286  0.1376  0.4480  0.5089
 7268SOL    HW228844   1.190   6.078   3.214 -0.8330 -0.0364 -0.4155
 7268SOL    HW328845   1.109   6.103   3.339 -3.5433  0.9213 -2.2664
 7268SOL    MW428846   1.147   6.048   3.283 -0.4761  0.4465  0.0207
 7269SOL     OW28847   5.736   1.946   4.102  0.5027 -0.2565 -0.6811
 7269SOL    HW228848   5.758   1.855   4.123  0.6630 -0.3967 -1.4403
 7269SOL    HW328849   5.729   1.989   4.187 -2.1705 -1.5603 -0.1218
 7269SOL    MW428850   5.738   1.940   4.116  0.1712 -0.4470 -0.7075
 7270SOL     OW28851   4.596   3.773   5.697 -0.3732  0.0644  0.1114
 7270SOL    HW228852   4.625   3.838   5.633 -0.8933  0.0797 -0.1208
 7270SOL    HW328853   4.673   3.754   5.750 -0.1844  0.7619  0.0883
 7270SOL    MW428854   4.610   3.779   5.695 -0.4169  0.1584  0.0777
 7271SOL     OW28855   4.971   0.122   0.953  0.1695  0.0050  0.8319
 7271SOL    HW228856   5.035   0.130   0.882 -1.2836  0.1360 -0.5308
 7271SOL    HW328857   4.992   0.039   0.995  0.9119 -0.2079  0.0669
 7271SOL    MW428858   4.982   0.112   0.949  0.0758 -0.0058  0.5512
 7272SOL     OW28859   0.773   0.063   4.852 -0.4021 -0.0019 -0.4712
 7272SOL    HW228860   0.689   0.039   4.811 -0.3133  1.4155 -1.5768
 7272SOL    HW328861   0.830  -0.012   4.834 -0.5942  0.2457 -2.3376
 7272SOL    MW428862   0.769   0.050   4.844 -0.4157  0.2178 -0.8633
 7273SOL     OW28863   5.132   4.062   1.936  0.7271 -0.1816  0.1777
 7273SOL    HW228864   5.143   4.034   1.845  1.5183  1.0885 -0.1411
 7273SOL    HW328865   5.216   4.102   1.959  0.1090  0.6544  1.0484
 7273SOL    MW428866   5.145   4.064   1.927  0.7500  0.0963  0.2505
 7274SOL     OW28867   2.374   6.265   5.099 -0.1298 -0.2155 -0.7022
 7274SOL    HW228868   2.300   6.204   5.101  0.4437 -0.9193 -0.3561
 7274SOL    HW328869   2.366   6.316   5.180  0.6115 -1.3623  0.1421
 7274SOL    MW428870   2.363   6.264   5.110  0.0437 -0.4597 -0.5451
 7275SOL     OW28871   5.961   3.879   6.170  1.2126  0.1722  0.1960
 7275SOL    HW228872   5.890   3.934   6.137  0.2900 -0.4174  1.1404
 7275SOL    HW328873   6.005   3.846   6.091  1.2318  1.5288 -0.3833
 7275SOL    MW428874   5.958   3.882   6.155  1.0934  0.2734  0.2442
 7276SOL     OW28875   2.387   2.657   0.625 -0.2837  0.0093  0.2115
 7276SOL    HW228876   2.320   2.703   0.574 -0.7688 -0.5864  0.3041
 7276SOL    HW328877   2.362   2.674   0.716 -0.8657 -0.9766  0.2568
 7276SOL    MW428878   2.375   2.665   0.630 -0.4245 -0.1994  0.2297
 7277SOL     OW28879   1.169   6.134   6.044  0.1219 -0.3031  0.3570
 7277SOL    HW228880   1.127   6.049   6.060 -3.3187  1.3205  0.7344
 7277SOL    HW328881   1.174   6.175   6.131 -1.2293  1.0940 -0.1831
 7277SOL    MW428882   1.164   6.128   6.058 -0.5104  0.0954  0.3356
 7278SOL     OW28883   0.625   4.529   4.367  0.1433  0.2636 -0.5915
 7278SOL    HW228884   0.592   4.444   4.395  0.6674  0.1497 -0.2985
 7278SOL    HW328885   0.709   4.510   4.324  1.3571  0.7950  1.3751
 7278SOL    MW428886   0.632   4.516   4.365  0.3726  0.3187 -0.2934
 7279SOL     OW28887   2.335   6.425   5.315  0.0353  0.1535 -0.1435
 7279SOL    HW228888   2.331   6.427   5.410  0.6405  0.7907 -0.1248
 7279SOL    HW328889   2.343   6.517   5.289  0.7140 -0.0660 -0.7672
 7279SOL    MW428890   2.335   6.438   5.324  0.2047  0.2086 -0.2233
 7280SOL     OW28891   5.791   5.091   2.181 -0.2940 -0.0068  0.2846
 7280SOL    HW228892   5.823   5.141   2.257  0.5715  1.7103 -1.1228
 7280SOL    HW328893   5.871   5.060   2.138 -0.6065  1.3326 -1.3587
 7280SOL    MW428894   5.806   5.094   2.186 -0.2210  0.3964 -0.1179
 7281SOL     OW28895   2.120   1.763   5.139  0.1472  0.2615  0.4671
 7281SOL    HW228896   2.027   1.776   5.157  0.2686  0.8997  0.6844
 7281SOL    HW328897   2.140   1.678   5.177 -0.4720 -0.1482 -0.0912
 7281SOL    MW428898   2.110   1.754   5.146  0.0815  0.2916  0.4221
 7282SOL     OW28899   0.688   6.086   1.817  0.4447 -0.0701  0.3685
 7282SOL    HW228900   0.653   6.163   1.772  0.4653 -0.4774 -0.3642
 7282SOL    HW328901   0.779   6.109   1.837  0.5549 -0.0371 -0.1681
 7282SOL    MW428902   0.695   6.099   1.814  0.4620 -0.1195  0.2010
 7283SOL     OW28903   3.855   6.289   1.607  0.1926 -0.3948 -0.1764
 7283SOL    HW228904   3.766   6.323   1.590  0.2972 -0.2634 -0.4693
 7283SOL    HW328905   3.891   6.273   1.520 -0.2490 -2.3280 -0.0460
 7283SOL    MW428906   3.848   6.291   1.594  0.1482 -0.6325 -0.1979
 7284SOL     OW28907   2.697   2.717   1.768 -0.4773  0.0103 -0.1580
 7284SOL    HW228908   2.685   2.640   1.824  1.4617 -1.3049 -1.4157
 7284SOL    HW328909   2.729   2.784   1.828 -0.6804 -0.6434  0.7154
 7284SOL    MW428910   2.700   2.715   1.783 -0.2483 -0.2495 -0.2087
 7285SOL     OW28911   3.418   4.926   1.236 -0.1573  0.5377  0.3371
 7285SOL    HW228912   3.418   5.016   1.267 -0.1710  0.8824 -0.6331
 7285SOL    HW328913   3.488   4.923   1.171 -0.6159  0.0326 -0.1453
 7285SOL    MW428914   3.427   4.937   1.231 -0.2196  0.5165  0.1455
 7286SOL     OW28915   1.845   1.852   3.501 -0.0551 -0.0345  0.2702
 7286SOL    HW228916   1.892   1.856   3.418  0.9830  0.4535  0.8508
 7286SOL    HW328917   1.840   1.759   3.522 -0.6490 -0.1867 -0.5026
 7286SOL    MW428918   1.851   1.841   3.493  0.0035  0.0098  0.2449
 7287SOL     OW28919   3.567   3.922   5.691  0.0977  0.0293  0.8010
 7287SOL    HW228920   3.539   3.831   5.704 -0.5883  0.0470 -0.4667
 7287SOL    HW328921   3.658   3.914   5.661  0.8191 -0.1103  2.8378
 7287SOL    MW428922   3.575   3.909   5.689  0.1024  0.0132  0.9025
 7288SOL     OW28923   1.071   3.817   0.866  0.0748  0.4393  0.5885
 7288SOL    HW228924   1.127   3.824   0.943  0.7808  0.2380  0.1038
 7288SOL    HW328925   1.109   3.879   0.803 -1.4855  1.8698  0.9687
 7288SOL    MW428926   1.083   3.826   0.867 -0.0379  0.6015  0.5747
 7289SOL     OW28927   1.493   0.336   0.906  0.5630  0.4834 -0.0620
 7289SOL    HW228928   1.488   0.367   0.815  1.8474  0.5363 -0.1364
 7289SOL    HW328929   1.528   0.247   0.898 -2.6131 -0.9226  0.1783
 7289SOL    MW428930   1.497   0.328   0.893  0.3134  0.3049 -0.0401
 7290SOL     OW28931   1.198   1.751   3.269  0.2940 -0.1052  0.2061
 7290SOL    HW228932   1.198   1.717   3.179  2.0973  2.6208 -0.9989
 7290SOL    HW328933   1.278   1.716   3.308 -0.5864 -1.4426  0.8786
 7290SOL    MW428934   1.208   1.742   3.262  0.4157  0.0780  0.1358
 7291SOL     OW28935   4.978   6.195   3.898  0.1327  0.1807 -0.4955
 7291SOL    HW228936   4.999   6.156   3.813  1.8931 -0.0094 -0.0083
 7291SOL    HW328937   5.051   6.169   3.955  0.4807  2.7004  0.3263
 7291SOL    MW428938   4.990   6.186   3.895  0.4109  0.4881 -0.3228
 7292SOL     OW28939   4.019   2.357   3.767 -0.0854  0.3598 -0.4011
 7292SOL    HW228940   4.091   2.385   3.710 -1.9116 -1.5468 -4.0618
 7292SOL    HW328941   4.051   2.276   3.807  0.0616 -0.2195 -1.6244
 7292SOL    MW428942   4.032   2.350   3.765 -0.3070  0.0318 -1.0455
 7293SOL     OW28943   4.435   4.091   5.347 -0.2191 -0.1782 -0.0060
 7293SOL    HW228944   4.376   4.017   5.357  1.0023 -1.2071 -0.1950
 7293SOL    HW328945   4.475   4.079   5.260 -0.4181  1.0161 -0.2921
 7293SOL    MW428946   4.433   4.080   5.337 -0.0842 -0.1564 -0.0687
 7294SOL     OW28947   3.687   3.103   4.322  0.0099 -0.8259 -0.1851
 7294SOL    HW228948   3.672   3.014   4.355  0.5595 -0.1910  1.9800
 7294SOL    HW328949   3.599   3.137   4.306 -0.3434 -1.0250  1.1820
 7294SOL    MW428950   3.673   3.096   4.325  0.0358 -0.7684  0.2810
 7295SOL     OW28951   4.537   2.520   3.112  0.9536  0.1347 -0.1426
 7295SOL    HW228952   4.632   2.509   3.113  1.0275  0.7678  0.0494
 7295SOL    HW328953   4.510   2.489   3.025  1.1469 -1.4606  0.3242
 7295SOL    MW428954   4.546   2.514   3.101  0.9888  0.0078 -0.0557
 7296SOL     OW28955   1.296   3.573   6.277 -0.5948 -0.0523  0.4664
 7296SOL    HW228956   1.349   3.629   6.220  1.1278 -1.0526  1.0007
 7296SOL    HW328957   1.206   3.598   6.258  0.0247  1.2999 -0.9438
 7296SOL    MW428958   1.291   3.584   6.267 -0.2858 -0.0059  0.3508
 7297SOL     OW28959   5.376   1.009   0.860  0.3029 -0.6031  0.4122
 7297SOL    HW228960   5.352   0.953   0.786  3.1070 -0.8159 -0.4424
 7297SOL    HW328961   5.417   0.949   0.922  1.3218  0.1415  0.4705
 7297SOL    MW428962   5.378   0.994   0.858  0.8073 -0.5329  0.3071
 7298SOL     OW28963   1.874   4.105   0.816 -0.2120 -0.2288  0.6130
 7298SOL    HW228964   1.795   4.127   0.864 -0.2219 -0.4407  0.6972
 7298SOL    HW328965   1.931   4.181   0.826 -0.8971  0.4637 -0.5138
 7298SOL    MW428966   1.871   4.118   0.823 -0.3037 -0.1654  0.4754
 7299SOL     OW28967   2.757   1.115   5.899  0.1663 -0.3370  0.0988
 7299SOL    HW228968   2.758   1.131   5.805 -1.0660  2.1874  0.4486
 7299SOL    HW328969   2.828   1.169   5.933 -0.6919  0.3625  0.8104
 7299SOL    MW428970   2.767   1.124   5.891 -0.1095  0.0884  0.2388
 7300SOL     OW28971   2.481   6.017   0.093 -0.5723  0.4446  0.1248
 7300SOL    HW228972   2.524   6.102   0.092  0.3347  0.0032 -0.1596
 7300SOL    HW328973   2.544   5.959   0.136 -0.4844 -0.4061 -1.0789
 7300SOL    MW428974   2.495   6.020   0.099 -0.4410  0.2741 -0.0715
 7301SOL     OW28975   6.257   2.859   3.842  0.1763 -0.1037 -0.3047
 7301SOL    HW228976   6.196   2.813   3.785 -0.4412 -1.3800  1.3031
 7301SOL    HW328977   6.338   2.864   3.791 -0.3801 -1.0711 -1.3346
 7301SOL    MW428978   6.260   2.854   3.828  0.0214 -0.3997 -0.2285
 7302SOL     OW28979   1.175   1.426   0.717  1.0855  0.3468  0.7084
 7302SOL    HW228980   1.211   1.472   0.792  3.4019  0.7985 -0.5786
 7302SOL    HW328981   1.190   1.485   0.643  3.0846 -1.8753 -0.8019
 7302SOL    MW428982   1.181   1.440   0.717  1.6549  0.1132  0.3393
 7303SOL     OW28983   5.672   3.152   4.314  0.4351 -0.1106  0.0111
 7303SOL    HW228984   5.613   3.198   4.254 -0.7515  2.6805  3.0081
 7303SOL    HW328985   5.614   3.098   4.368  1.0426 -0.1799  0.6107
 7303SOL    MW428986   5.657   3.151   4.313  0.3587  0.2485  0.4856
 7304SOL     OW28987   4.951   1.007   1.962  0.0557  0.0832  0.2819
 7304SOL    HW228988   4.974   0.938   1.898  1.5777  0.2859  0.5721
 7304SOL    HW328989   4.943   0.960   2.045  0.1915  0.1262  0.3191
 7304SOL    MW428990   4.953   0.991   1.964  0.2745  0.1156  0.3251
 7305SOL     OW28991   3.394   0.491   4.627  0.0292 -0.2750  0.0987
 7305SOL    HW228992   3.371   0.401   4.605 -1.1095 -0.7434  2.8796
 7305SOL    HW328993   3.425   0.487   4.717  1.0159  1.9940 -0.0599
 7305SOL    MW428994   3.395   0.479   4.636  0.0091 -0.0374  0.4447
 7306SOL     OW28995   4.350   0.171   4.780  0.1590  0.4124 -0.0554
 7306SOL    HW228996   4.361   0.249   4.834 -1.4238  0.8918 -0.3713
 7306SOL    HW328997   4.293   0.199   4.709  1.6167 -0.4012 -1.6028
 7306SOL    MW428998   4.344   0.185   4.778  0.1425  0.3683 -0.3012
 7307SOL     OW28999   3.487   3.648   5.223  0.3631  0.0831 -0.1776
 7307SOL    HW229000   3.553   3.597   5.270  0.1610 -0.1253 -0.1205
 7307SOL    HW329001   3.418   3.664   5.288  0.3994  0.3822 -0.2100
 7307SOL    MW429002   3.486   3.643   5.238  0.3412  0.0950 -0.1744
 7308SOL     OW29003   5.094   4.870   0.156  0.1861 -0.2230 -0.0478
 7308SOL    HW229004   5.137   4.802   0.207 -1.4413 -1.2186  0.0645
 7308SOL    HW329005   5.150   4.882   0.080  1.7038  0.0003  1.0389
 7308SOL    MW429006   5.107   4.863   0.153  0.1716 -0.3249  0.1104
 7309SOL     OW29007   3.593   0.021   2.328  0.2138  0.4569 -0.7963
 7309SOL    HW229008   3.551   0.057   2.251  0.1962 -1.0031 -1.4912
 7309SOL    HW329009   3.676  -0.014   2.296  0.3593  0.1399 -0.0882
 7309SOL    MW429010   3.598   0.021   2.314  0.2307  0.2225 -0.7945
 7310SOL     OW29011   2.308   5.995   2.649  0.6995 -0.1360 -0.2272
 7310SOL    HW229012   2.292   6.007   2.742  1.5126 -1.6932  0.1384
 7310SOL    HW329013   2.300   6.083   2.612  0.5915  0.5420  1.3316
 7310SOL    MW429014   2.305   6.008   2.656  0.7925 -0.2520  0.0267
 7311SOL     OW29015   2.974   0.995   2.713 -0.0524 -0.2691 -0.1902
 7311SOL    HW229016   3.058   1.039   2.703 -0.1148 -0.3250 -1.0074
 7311SOL    HW329017   2.988   0.908   2.676 -0.5135 -0.2244 -0.4686
 7311SOL    MW429018   2.987   0.989   2.707 -0.1215 -0.2706 -0.3348
 7312SOL     OW29019   2.884   2.240   3.562  0.1273  0.1908  0.4424
 7312SOL    HW229020   2.819   2.220   3.630  1.1794  0.2831  1.5192
 7312SOL    HW329021   2.946   2.168   3.568  1.4313  1.3351  1.1241
 7312SOL    MW429022   2.883   2.228   3.572  0.4382  0.3540  0.6744
 7313SOL     OW29023   2.828   2.483   2.838  0.2446  0.1886 -0.2137
 7313SOL    HW229024   2.835   2.524   2.752 -0.1183  2.9562  0.9711
 7313SOL    HW329025   2.919   2.472   2.867  0.3486  0.0051 -0.6008
 7313SOL    MW429026   2.841   2.487   2.831  0.2104  0.5296 -0.1085
 7314SOL     OW29027   4.282   3.580   1.556  0.0433 -0.0832  0.0509
 7314SOL    HW229028   4.310   3.497   1.517  0.0562  0.1681 -0.4915
 7314SOL    HW329029   4.187   3.572   1.564  0.0126 -0.0464 -0.2568
 7314SOL    MW429030   4.273   3.568   1.552  0.0410 -0.0452 -0.0613
 7315SOL     OW29031   2.948   2.982   4.063 -0.0991  0.1389 -0.3030
 7315SOL    HW229032   2.913   3.065   4.094 -0.8153 -0.1307 -0.3453
 7315SOL    HW329033   2.876   2.944   4.011 -0.6369 -1.4711  1.4672
 7315SOL    MW429034   2.934   2.988   4.060 -0.2645 -0.1091 -0.0750
 7316SOL     OW29035   2.108   2.584   1.424  0.3990 -0.3932  0.3539
 7316SOL    HW229036   2.050   2.577   1.348 -0.0001 -0.1789  0.6363
 7316SOL    HW329037   2.072   2.522   1.487 -0.9156  1.3912  1.4229
 7316SOL    MW429038   2.095   2.575   1.422  0.1729 -0.1295  0.5322
 7317SOL     OW29039   4.017   6.242   4.269 -0.2940  0.2822  0.8097
 7317SOL    HW229040   4.095   6.261   4.321 -0.1972  0.5501  0.5678
 7317SOL    HW329041   3.948   6.295   4.309 -0.8210 -1.4009  2.2336
 7317SOL    MW429042   4.018   6.252   4.281 -0.3507  0.0955  0.9656
 7318SOL     OW29043   6.359   4.855   1.091 -0.4262  0.0846  0.0383
 7318SOL    HW229044   6.325   4.872   1.179  2.0589  2.3097  0.7310
 7318SOL    HW329045   6.446   4.818   1.106  0.0040  0.4127 -1.4726
 7318SOL    MW429046   6.366   4.852   1.105 -0.0415  0.4215 -0.0696
 7319SOL     OW29047   4.856   2.574   4.382 -0.6687 -0.4224 -0.0750
 7319SOL    HW229048   4.906   2.495   4.364 -2.8492 -2.4070  1.8966
 7319SOL    HW329049   4.796   2.582   4.307 -1.4889 -1.5784  0.4347
 7319SOL    MW429050   4.854   2.565   4.369 -1.0646 -0.8368  0.2523
 7320SOL     OW29051   4.452   4.129   0.482  0.2668  0.0073 -0.7440
 7320SOL    HW229052   4.381   4.190   0.462  0.2128  0.3448  0.4131
 7320SOL    HW329053   4.511   4.135   0.407  0.8836  2.4107 -0.1592
 7320SOL    MW429054   4.450   4.138   0.470  0.3410  0.3689 -0.5142
 7321SOL     OW29055   6.375   4.691   1.555  0.1473 -0.2146 -0.1533
 7321SOL    HW229056   6.453   4.655   1.513 -1.1642 -1.9584 -1.2341
 7321SOL    HW329057   6.392   4.681   1.649  1.9874  1.2401 -0.2663
 7321SOL    MW429058   6.388   4.685   1.562  0.2171 -0.2527 -0.3108
 7322SOL     OW29059   3.903   1.678   2.978 -0.3704 -0.4230 -0.5587
 7322SOL    HW229060   3.922   1.598   3.028 -0.1264 -0.6407 -0.9929
 7322SOL    HW329061   3.963   1.743   3.014 -1.4515 -0.0625  0.6945
 7322SOL    MW429062   3.913   1.676   2.990 -0.4808 -0.4042 -0.4506
 7323SOL     OW29063   1.164   3.677   1.605  0.2182 -0.0166  0.0080
 7323SOL    HW229064   1.242   3.713   1.562  0.4864  1.4568  1.5955
 7323SOL    HW329065   1.195   3.597   1.647  0.7158  0.1851  0.0406
 7323SOL    MW429066   1.178   3.671   1.605  0.3192  0.2044  0.2217
 7324SOL     OW29067   1.166   5.750   4.742 -0.3061  0.1786  0.3805
 7324SOL    HW229068   1.132   5.670   4.702 -0.3790  0.0377  0.7192
 7324SOL    HW329069   1.261   5.738   4.743 -0.3498 -0.1607  0.9557
 7324SOL    MW429070   1.174   5.738   4.737 -0.3215  0.1152  0.5010
 7325SOL     OW29071   1.195   2.876   4.435 -0.1524  0.6331  0.0764
 7325SOL    HW229072   1.167   2.913   4.519 -0.5220 -0.7785  0.6069
 7325SOL    HW329073   1.157   2.935   4.369 -0.7804  1.1497  0.8735
 7325SOL    MW429074   1.186   2.889   4.437 -0.2840  0.5150  0.2516
 7326SOL     OW29075   0.921   6.292   3.613  0.2982  0.4568  0.4891
 7326SOL    HW229076   0.832   6.292   3.578 -0.3657  2.6434  2.0086
 7326SOL    HW329077   0.931   6.206   3.655 -1.2623  0.3753  0.7259
 7326SOL    MW429078   0.911   6.281   3.614  0.0047  0.7345  0.7208
 7327SOL     OW29079   0.591   2.844   0.882  0.3296  0.0781 -0.5803
 7327SOL    HW229080   0.576   2.920   0.826 -1.0118  1.5270  1.6139
 7327SOL    HW329081   0.504   2.808   0.898  0.6241 -0.0553  0.8622
 7327SOL    MW429082   0.577   2.849   0.877  0.1914  0.2517 -0.1005
 7328SOL     OW29083   4.441   1.930   5.679 -0.1618  0.6902  0.2843
 7328SOL    HW229084   4.530   1.896   5.680 -0.7464 -0.9564  1.6567
 7328SOL    HW329085   4.433   1.976   5.763 -0.4753  1.1797 -0.0122
 7328SOL    MW429086   4.452   1.932   5.690 -0.2803  0.5375  0.4263
 7329SOL     OW29087   0.492   5.321   5.769  0.0351  0.2085 -0.3374
 7329SOL    HW229088   0.462   5.362   5.850 -0.9207 -0.3723 -0.3899
 7329SOL    HW329089   0.455   5.233   5.771  0.1401  0.1305 -1.3259
 7329SOL    MW429090   0.484   5.315   5.780 -0.0772  0.1216 -0.4747
 7330SOL     OW29091   1.615   2.713   4.204 -0.1692 -0.0135  0.9720
 7330SOL    HW229092   1.572   2.799   4.205 -0.8008 -0.2856 -0.6298
 7330SOL    HW329093   1.677   2.718   4.132 -1.2410 -1.3557 -0.1073
 7330SOL    MW429094   1.617   2.725   4.195 -0.3939 -0.2265  0.6183
 7331SOL     OW29095   2.362   3.434   4.796  0.3996 -0.5356  0.8099
 7331SOL    HW229096   2.267   3.424   4.783  0.2299  0.9100  0.7756
 7331SOL    HW329097   2.398   3.349   4.773 -0.7168 -0.5860 -0.9501
 7331SOL    MW429098   2.354   3.422   4.791  0.2299 -0.3515  0.5731
 7332SOL     OW29099   1.998   2.442   3.312 -0.5738 -0.2542  0.3533
 7332SOL    HW229100   1.942   2.448   3.389 -0.6757 -1.1456  0.3565
 7332SOL    HW329101   2.025   2.351   3.309 -0.9285 -0.3308 -0.9174
 7332SOL    MW429102   1.995   2.431   3.322 -0.6341 -0.3819  0.1860
 7333SOL     OW29103   2.286   1.494   3.123  0.8847 -0.2288 -0.0775
 7333SOL    HW229104   2.229   1.427   3.159  2.4845 -1.9643 -0.5772
 7333SOL    HW329105   2.298   1.468   3.031  0.8709  1.2364 -0.5188
 7333SOL    MW429106   2.280   1.481   3.115  1.0939 -0.2644 -0.2017
 7334SOL     OW29107   2.317   4.297   3.520  0.1390 -0.4005  0.1969
 7334SOL    HW229108   2.381   4.241   3.476  1.2609 -0.4633  1.8303
 7334SOL    HW329109   2.256   4.235   3.561 -0.9387 -0.3414 -1.2173
 7334SOL    MW429110   2.317   4.281   3.520  0.1449 -0.4010  0.2258
 7335SOL     OW29111   3.018   4.230   4.517  0.2354  0.3409  0.2455
 7335SOL    HW229112   2.928   4.233   4.548 -0.1911  1.7803 -1.0337
 7335SOL    HW329113   3.069   4.203   4.594 -0.9532  2.2276  1.7675
 7335SOL    MW429114   3.013   4.227   4.531  0.0224  0.7797  0.2775
 7336SOL     OW29115   0.309   1.861   2.617  0.2708 -0.3258 -0.0052
 7336SOL    HW229116   0.262   1.802   2.676 -0.5878  1.3107  1.0363
 7336SOL    HW329117   0.385   1.890   2.668 -0.9250  1.7564  0.7091
 7336SOL    MW429118   0.313   1.857   2.632 -0.0003  0.1648  0.2264
 7337SOL     OW29119   2.476   1.108   2.659  0.2090  0.7297  1.0409
 7337SOL    HW229120   2.407   1.049   2.627  1.6236  0.2029 -1.3194
 7337SOL    HW329121   2.515   1.060   2.733  0.5908 -0.8552 -0.1189
 7337SOL    MW429122   2.472   1.094   2.665  0.4461  0.4511  0.5765
 7338SOL     OW29123   4.523   2.038   0.878  0.1705 -0.2078  0.0610
 7338SOL    HW229124   4.503   2.046   0.971 -0.2407  0.4385 -0.0733
 7338SOL    HW329125   4.614   2.067   0.869 -0.5224  2.1814 -0.0574
 7338SOL    MW429126   4.532   2.043   0.889  0.0248  0.1927  0.0277
 7339SOL     OW29127   0.969   0.546   0.065  0.5352 -1.2772  0.4409
 7339SOL    HW229128   0.978   0.553  -0.030  1.0652 -0.3949  0.5424
 7339SOL    HW329129   0.958   0.452   0.082 -0.4711 -1.3596 -0.5616
 7339SOL    MW429130   0.968   0.535   0.055  0.4723 -1.1717  0.3220
 7340SOL     OW29131   3.290   2.564   0.198 -0.5263 -0.1473 -0.5233
 7340SOL    HW229132   3.345   2.553   0.276  0.1214  1.2528 -0.7413
 7340SOL    HW329133   3.256   2.477   0.179 -0.1133 -0.6402  0.9027
 7340SOL    MW429134   3.293   2.551   0.206 -0.3864 -0.0276 -0.3639
 7341SOL     OW29135   3.357   5.874   6.057  0.0872  0.6076  1.0434
 7341SOL    HW229136   3.423   5.938   6.083  1.6230 -0.1965 -0.6655
 7341SOL    HW329137   3.390   5.791   6.090  0.7134 -0.0152 -0.9781
 7341SOL    MW429138   3.370   5.872   6.065  0.3725  0.4194  0.5512
 7342SOL     OW29139   4.850   5.522   0.748  0.3976  0.2049  0.4326
 7342SOL    HW229140   4.844   5.465   0.671 -0.3575  1.9416 -0.8734
 7342SOL    HW329141   4.929   5.574   0.733  0.2879  0.5028  0.8709
 7342SOL    MW429142   4.860   5.521   0.736  0.2835  0.4733  0.3181
 7343SOL     OW29143   4.293   3.043   1.065  0.1374 -0.5010  0.2251
 7343SOL    HW229144   4.237   2.969   1.039 -0.4674 -0.0437  0.2139
 7343SOL    HW329145   4.353   3.006   1.130 -1.3742 -0.5947  1.6194
 7343SOL    MW429146   4.294   3.028   1.070 -0.1418 -0.4531  0.4076
 7344SOL     OW29147   4.507   5.742   5.381 -0.4125 -0.2370 -0.0167
 7344SOL    HW229148   4.493   5.652   5.413  1.6446 -1.1387 -1.4162
 7344SOL    HW329149   4.575   5.777   5.439 -0.9417  0.2865  0.2877
 7344SOL    MW429150   4.514   5.735   5.393 -0.2109 -0.2869 -0.1612
 7345SOL     OW29151   4.114   0.978   6.296  0.1367  0.2462 -0.0598
 7345SOL    HW229152   4.032   0.928   6.300 -0.6807  1.6118  1.8588
 7345SOL    HW329153   4.086   1.070   6.293  1.6130  0.7264 -0.0312
 7345SOL    MW429154   4.099   0.984   6.296  0.2236  0.4898  0.1971
 7346SOL     OW29155   2.424   2.980   2.067  0.3850  0.1547  0.0010
 7346SOL    HW229156   2.493   3.016   2.012  2.3772 -1.0742  1.5701
 7346SOL    HW329157   2.420   2.887   2.043 -2.5308  0.5799 -1.7867
 7346SOL    MW429158   2.432   2.973   2.056  0.2631  0.0487 -0.0278
 7347SOL     OW29159   1.697   5.948   0.296 -0.5573 -0.3062 -0.1225
 7347SOL    HW229160   1.712   5.888   0.369 -1.4074  0.2066  0.4945
 7347SOL    HW329161   1.607   5.979   0.309 -0.6188  0.0168 -1.2292
 7347SOL    MW429162   1.687   5.944   0.307 -0.6776 -0.1960 -0.1871
 7348SOL     OW29163   3.668   6.402   5.862  0.0153 -0.5162 -0.5793
 7348SOL    HW229164   3.655   6.437   5.950  0.2831 -0.2817 -0.6325
 7348SOL    HW329165   3.595   6.437   5.811 -1.8632 -3.0062  0.2158
 7348SOL    MW429166   3.657   6.411   5.867 -0.1972 -0.8138 -0.4814
 7349SOL     OW29167   1.408   3.402   3.154 -0.0253 -0.4767 -0.1526
 7349SOL    HW229168   1.349   3.381   3.081  0.0918  1.3702 -0.8353
 7349SOL    HW329169   1.444   3.318   3.180 -2.3727 -1.5791 -0.2154
 7349SOL    MW429170   1.405   3.388   3.148 -0.3195 -0.3785 -0.2509
 7350SOL     OW29171   6.021   3.722   4.451  0.2293 -0.2251  0.0179
 7350SOL    HW229172   6.032   3.708   4.357 -3.2493 -0.3913 -0.4737
 7350SOL    HW329173   5.991   3.637   4.484  0.8977 -0.0176  1.2321
 7350SOL    MW429174   6.019   3.709   4.443 -0.1415 -0.2197  0.1132
 7351SOL     OW29175   4.214   5.670   2.047  0.3865  0.1873 -0.3360
 7351SOL    HW229176   4.292   5.699   2.094 -2.0574  2.8744  2.4443
 7351SOL    HW329177   4.169   5.613   2.108 -1.4860  1.4681 -0.4458
 7351SOL    MW429178   4.219   5.666   2.061 -0.1830  0.7108  0.0164
 7352SOL     OW29179   5.972   3.087   1.905  0.8980  0.3173  0.4357
 7352SOL    HW229180   5.892   3.124   1.943  0.4151  2.4833 -2.4067
 7352SOL    HW329181   6.039   3.153   1.921  1.1345  0.3674 -0.6960
 7352SOL    MW429182   5.970   3.100   1.912  0.8655  0.6097 -0.0886
 7353SOL     OW29183   2.039   5.699   3.839  0.0738 -0.1011 -0.3148
 7353SOL    HW229184   2.115   5.754   3.826 -0.2368  0.0453 -1.6362
 7353SOL    HW329185   1.966   5.760   3.846 -0.0345 -0.2734  0.0740
 7353SOL    MW429186   2.039   5.714   3.838  0.0185 -0.1045 -0.4378
 7354SOL     OW29187   4.292   0.951   0.085  0.4403  0.1141 -0.0004
 7354SOL    HW229188   4.361   0.885   0.081  1.2731  0.9008  0.9348
 7354SOL    HW329189   4.247   0.944   0.000  2.0558  0.0066 -0.8886
 7354SOL    MW429190   4.295   0.941   0.073  0.7633  0.2037  0.0058
 7355SOL     OW29191   3.282   0.361   0.389  0.2623 -0.4036 -0.7314
 7355SOL    HW229192   3.248   0.272   0.402  0.9784 -0.5837  0.0149
 7355SOL    HW329193   3.225   0.399   0.323 -0.8846 -0.9755 -0.1107
 7355SOL    MW429194   3.270   0.354   0.382  0.2054 -0.5028 -0.5510
 7356SOL     OW29195   0.996   5.512   2.403 -0.5065 -0.2334 -0.1937
 7356SOL    HW229196   1.009   5.476   2.315  2.8040  1.3773 -0.4981
 7356SOL    HW329197   0.990   5.607   2.389  2.9040  0.3433  1.4087
 7356SOL    MW429198   0.997   5.520   2.389  0.3803  0.0552 -0.0224
 7357SOL     OW29199   2.690   5.216   3.638 -0.0182 -0.0632  0.0632
 7357SOL    HW229200   2.647   5.238   3.720  1.6057  3.8815  0.1002
 7357SOL    HW329201   2.666   5.287   3.578  1.1887 -1.2489 -1.9588
 7357SOL    MW429202   2.681   5.228   3.641  0.3553  0.3008 -0.1987
 7358SOL     OW29203   1.343   1.238   3.113  0.0880  0.1800  0.3754
 7358SOL    HW229204   1.260   1.195   3.092 -0.0960  0.7491 -0.0639
 7358SOL    HW329205   1.327   1.282   3.197 -0.8397  2.3180 -0.8497
 7358SOL    MW429206   1.330   1.238   3.122 -0.0586  0.5372  0.1558
 7359SOL     OW29207   5.310   5.395   6.334 -0.3192  0.6162  0.8597
 7359SOL    HW229208   5.320   5.301   6.316  2.4306  1.0521 -0.3409
 7359SOL    HW329209   5.218   5.405   6.359 -0.5763 -2.4587  1.5357
 7359SOL    MW429210   5.299   5.384   6.335  0.0097  0.2680  0.7904
 7360SOL     OW29211   4.598   4.840   6.397  0.1736  0.0793  0.4338
 7360SOL    HW229212   4.523   4.892   6.369  0.1269  0.0058  0.4228
 7360SOL    HW329213   4.672   4.879   6.351  0.0519 -0.2384 -0.0352
 7360SOL    MW429214   4.598   4.852   6.388  0.1514  0.0277  0.3705
 7361SOL     OW29215   4.032   1.447   0.148 -0.0310 -0.1474 -0.1091
 7361SOL    HW229216   4.013   1.403   0.231  2.1039 -1.5425 -0.2812
 7361SOL    HW329217   4.016   1.379   0.082  1.0735  0.0485 -0.5846
 7361SOL    MW429218   4.027   1.432   0.150  0.3964 -0.3056 -0.1945
 7362SOL     OW29219   0.241   0.557   6.150  0.2467  0.0446  0.5052
 7362SOL    HW229220   0.230   0.467   6.119 -2.0710  0.7460 -1.0121
 7362SOL    HW329221   0.334   0.575   6.143  0.6909 -2.0860  0.4380
 7362SOL    MW429222   0.252   0.548   6.145 -0.0005 -0.1440  0.2962
 7363SOL     OW29223   2.885   2.648   0.130  0.1184 -0.5893  0.2393
 7363SOL    HW229224   2.795   2.667   0.155 -0.0713 -1.8904  0.6075
 7363SOL    HW329225   2.901   2.560   0.163  1.0176 -0.9948 -1.1998
 7363SOL    MW429226   2.876   2.639   0.137  0.2120 -0.8145  0.0980
 7364SOL     OW29227   0.642   3.226   0.216  0.3059  0.5296  0.0319
 7364SOL    HW229228   0.565   3.169   0.221 -0.3487  1.3468 -0.4918
 7364SOL    HW329229   0.654   3.258   0.306 -0.5031  1.0725 -0.0405
 7364SOL    MW429230   0.634   3.223   0.229  0.1128  0.7091 -0.0467
 7365SOL     OW29231   5.882   4.383   3.363  0.2356  0.3389  0.5710
 7365SOL    HW229232   5.807   4.426   3.321 -0.1567  0.3338  1.2519
 7365SOL    HW329233   5.948   4.379   3.294 -0.8940 -0.9936 -0.4865
 7365SOL    MW429234   5.880   4.388   3.348  0.0348  0.1624  0.5213
 7366SOL     OW29235   3.236   4.456   2.982  0.3308  0.1308  0.4888
 7366SOL    HW229236   3.200   4.466   2.893 -0.8748 -1.8990  0.6824
 7366SOL    HW329237   3.331   4.460   2.969  0.1761  0.1517 -0.8555
 7366SOL    MW429238   3.244   4.458   2.968  0.1513 -0.1343  0.3370
 7367SOL     OW29239   5.574   1.718   4.393  0.1321  0.0384  0.6262
 7367SOL    HW229240   5.479   1.730   4.381  0.2200  1.2840  1.0234
 7367SOL    HW329241   5.602   1.669   4.316 -0.7559  0.0965  0.2523
 7367SOL    MW429242   5.565   1.714   4.382  0.0265  0.2104  0.6293
 7368SOL     OW29243   1.018   5.124   6.122 -0.2254  0.1511 -0.1581
 7368SOL    HW229244   0.968   5.142   6.043 -0.0896 -2.7921 -1.0093
 7368SOL    HW329245   1.106   5.104   6.090 -0.0783 -0.7168  0.7414
 7368SOL    MW429246   1.023   5.124   6.107 -0.1881 -0.3518 -0.1517
 7369SOL     OW29247   1.302   1.666   5.484 -0.3930  0.4667  0.0225
 7369SOL    HW229248   1.281   1.651   5.576  1.9310  4.1373  1.3288
 7369SOL    HW329249   1.283   1.758   5.469  2.9080  0.9917 -2.0086
 7369SOL    MW429250   1.297   1.676   5.494  0.3492  1.0202 -0.0731
 7370SOL     OW29251   0.576   1.483   2.714  0.2845  0.4572  0.4729
 7370SOL    HW229252   0.538   1.542   2.649  0.7756  0.8431  0.5262
 7370SOL    HW329253   0.584   1.536   2.793  3.2449  1.2240 -0.2009
 7370SOL    MW429254   0.572   1.498   2.716  0.7399  0.6093  0.3910
 7371SOL     OW29255   4.892   1.557   4.063 -0.2121 -0.2952  0.3707
 7371SOL    HW229256   4.885   1.463   4.045 -0.2492 -0.0858 -0.7564
 7371SOL    HW329257   4.845   1.569   4.146 -1.7942 -0.9878 -0.3873
 7371SOL    MW429258   4.885   1.546   4.071 -0.4257 -0.3589  0.1220
 7372SOL     OW29259   5.201   0.218   4.939  0.2588  0.2123 -0.1931
 7372SOL    HW229260   5.173   0.267   4.861  2.8871  1.1089 -0.6760
 7372SOL    HW329261   5.281   0.173   4.911  0.7754 -0.1342  1.7404
 7372SOL    MW429262   5.208   0.219   4.925  0.6737  0.2849 -0.0017
 7373SOL     OW29263   0.061   2.584   1.096  0.8025 -0.4571  0.0192
 7373SOL    HW229264   0.006   2.534   1.156 -1.5216  2.7020  0.7904
 7373SOL    HW329265   0.038   2.551   1.009 -0.8768 -0.5408  0.4690
 7373SOL    MW429266   0.051   2.573   1.092  0.2743 -0.0513  0.1803
 7374SOL     OW29267   2.387   5.670   2.794 -0.0316 -0.0534  0.1898
 7374SOL    HW229268   2.364   5.674   2.701  0.0992  0.4572  0.1768
 7374SOL    HW329269   2.305   5.692   2.839 -0.1043 -0.3371  0.1997
 7374SOL    MW429270   2.373   5.673   2.787 -0.0239 -0.0235  0.1894
 7375SOL     OW29271   5.593   3.434   5.200 -0.3928 -0.3911 -0.1447
 7375SOL    HW229272   5.561   3.491   5.130 -0.6473 -2.2159 -1.5779
 7375SOL    HW329273   5.587   3.346   5.164  0.0373 -1.3497  1.9835
 7375SOL    MW429274   5.588   3.430   5.186 -0.3697 -0.7583 -0.0530
 7376SOL     OW29275   4.533   4.825   5.672 -0.0146 -0.0294 -0.2111
 7376SOL    HW229276   4.467   4.822   5.603  1.3801  0.0371 -1.5919
 7376SOL    HW329277   4.588   4.900   5.649 -0.9014  1.5437  2.3218
 7376SOL    MW429278   4.531   4.835   5.660  0.0524  0.1869 -0.0591
 7377SOL     OW29279   2.319   0.854   2.633 -0.1665 -0.1778  0.1206
 7377SOL    HW229280   2.309   0.874   2.726  3.1296  3.0440  0.0179
 7377SOL    HW329281   2.404   0.811   2.626  0.0330  0.3907 -1.4710
 7377SOL    MW429282   2.329   0.851   2.644  0.2947  0.3223 -0.1029
 7378SOL     OW29283   4.379   3.626   1.804 -0.1784  0.3506 -0.3126
 7378SOL    HW229284   4.335   3.616   1.720  1.0557  0.2150 -0.9652
 7378SOL    HW329285   4.468   3.654   1.781  0.7239 -1.4013  0.8488
 7378SOL    MW429286   4.385   3.628   1.790  0.1035  0.1015 -0.2455
 7379SOL     OW29287   4.243   2.862   2.750 -0.0231  0.5147  0.3403
 7379SOL    HW229288   4.288   2.945   2.768  1.7447 -0.6355  1.5915
 7379SOL    HW329289   4.215   2.869   2.659  0.3142  2.3784  0.3421
 7379SOL    MW429290   4.246   2.874   2.741  0.2546  0.6089  0.5056
 7380SOL     OW29291   6.070   6.039   1.465  0.2671  0.4872 -0.3243
 7380SOL    HW229292   6.107   6.069   1.549 -0.9069  0.6461  0.1461
 7380SOL    HW329293   5.980   6.014   1.486  0.0050  0.3908 -1.5218
 7380SOL    MW429294   6.063   6.040   1.479  0.0777  0.4955 -0.4202
 7381SOL     OW29295   5.911   6.024   4.488  0.0782  0.0784 -0.0608
 7381SOL    HW229296   5.916   6.119   4.480  1.6309 -0.0103 -0.4712
 7381SOL    HW329297   5.982   5.991   4.431 -1.4823 -1.3937 -1.2756
 7381SOL    MW429298   5.921   6.032   4.479  0.0772 -0.1275 -0.2752
 7382SOL     OW29299   2.342   4.161   5.761 -0.0903  0.0035  0.1469
 7382SOL    HW229300   2.281   4.225   5.724 -1.0039 -0.2003  1.2343
 7382SOL    HW329301   2.395   4.211   5.824 -0.0689 -0.0865  0.2017
 7382SOL    MW429302   2.341   4.176   5.765 -0.2080 -0.0352  0.2976
 7383SOL     OW29303   2.233   0.621   3.561  0.1375  0.1979 -0.0321
 7383SOL    HW229304   2.276   0.703   3.585  0.1354  0.7040 -1.6222
 7383SOL    HW329305   2.140   0.641   3.566  0.0646 -0.4595  1.9577
 7383SOL    MW429306   2.226   0.634   3.565  0.1276  0.1779  0.0207
 7384SOL     OW29307   1.368   1.361   0.431 -0.2310  0.3238 -0.3402
 7384SOL    HW229308   1.454   1.364   0.389 -0.6568 -1.4726 -1.4154
 7384SOL    HW329309   1.369   1.281   0.483  0.4682  2.6662  3.7387
 7384SOL    MW429310   1.379   1.351   0.432 -0.1949  0.3959  0.0561
 7385SOL     OW29311   5.197   2.169   3.951 -0.4557 -0.1342 -0.3063
 7385SOL    HW229312   5.210   2.143   3.860 -1.5306  1.8191 -1.0844
 7385SOL    HW329313   5.282   2.202   3.979 -0.5988  1.2461 -1.3535
 7385SOL    MW429314   5.210   2.170   3.943 -0.6164  0.3056 -0.5471
 7386SOL     OW29315   2.567   0.001   5.624  0.8609 -0.0733  0.1730
 7386SOL    HW229316   2.539  -0.045   5.703  0.9306  1.7097  1.3053
 7386SOL    HW329317   2.639   0.057   5.653  0.4267  1.1465 -0.9679
 7386SOL    MW429318   2.573   0.002   5.638  0.8128  0.3229  0.1719
 7387SOL     OW29319   2.150   3.883   5.915 -0.3155 -0.3457 -0.4827
 7387SOL    HW229320   2.218   3.830   5.874  0.0372 -1.5356  1.5108
 7387SOL    HW329321   2.070   3.831   5.908  0.0317 -1.2463  1.4823
 7387SOL    MW429322   2.148   3.869   5.909 -0.2232 -0.6216  0.0395
 7388SOL     OW29323   0.237   2.437   2.143  0.0170 -0.6967 -0.0484
 7388SOL    HW229324   0.275   2.444   2.056 -0.5688  0.2056 -0.2516
 7388SOL    HW329325   0.254   2.523   2.183  0.6917 -1.2602  0.8972
 7388SOL    MW429326   0.244   2.449   2.137  0.0287 -0.6520  0.0496
 7389SOL     OW29327   4.751   2.680   3.871 -0.4320  0.2070  0.5476
 7389SOL    HW229328   4.781   2.658   3.782 -0.9492  0.6532  0.2535
 7389SOL    HW329329   4.711   2.599   3.903  1.9273 -0.7409  1.3550
 7389SOL    MW429330   4.750   2.666   3.863 -0.1889  0.1408  0.6154
 7390SOL     OW29331   0.920   3.020   2.196  0.0004 -0.2320 -0.0511
 7390SOL    HW229332   0.991   2.992   2.254 -0.2166  1.1148  0.9125
 7390SOL    HW329333   0.879   2.938   2.168 -0.3603 -0.9596  2.3303
 7390SOL    MW429334   0.924   3.006   2.200 -0.0758 -0.1503  0.3903
 7391SOL     OW29335   5.531   5.904   1.204  0.4335 -1.0690  0.2171
 7391SOL    HW229336   5.475   5.827   1.189 -1.6076  0.2684  0.5672
 7391SOL    HW329337   5.473   5.967   1.247  3.0331 -0.6528  3.5053
 7391SOL    MW429338   5.516   5.902   1.208  0.5072 -0.8376  0.6971
 7392SOL     OW29339   4.872   1.115   4.265  0.1807  0.2292 -0.0964
 7392SOL    HW229340   4.787   1.119   4.307 -1.1091  0.1020 -2.4817
 7392SOL    HW329341   4.906   1.028   4.285 -2.2331 -1.4053 -2.4493
 7392SOL    MW429342   4.865   1.104   4.273 -0.3080 -0.0032 -0.7215
 7393SOL     OW29343   4.082   5.337   1.104 -0.4324  0.1065  0.2242
 7393SOL    HW229344   4.108   5.309   1.192 -1.9262  0.4089  0.7922
 7393SOL    HW329345   4.019   5.408   1.119 -1.3120 -0.3580 -1.0623
 7393SOL    MW429346   4.077   5.343   1.118 -0.7456  0.0851  0.1294
 7394SOL     OW29347   6.218   4.286   6.185 -0.3451 -0.1208  0.3911
 7394SOL    HW229348   6.187   4.309   6.098  0.1043  0.0839  0.2834
 7394SOL    HW329349   6.204   4.192   6.192 -1.0164 -0.0293  0.3561
 7394SOL    MW429350   6.212   4.277   6.175 -0.3744 -0.0818  0.3722
 7395SOL     OW29351   1.277   5.315   0.272  0.0716  0.5530 -0.0441
 7395SOL    HW229352   1.240   5.397   0.305  1.0640  0.8468  0.3586
 7395SOL    HW329353   1.355   5.301   0.325 -0.5804 -1.1498  0.5381
 7395SOL    MW429354   1.282   5.324   0.284  0.1165  0.3671  0.0859
 7396SOL     OW29355   5.513   0.785   3.509 -0.2947  0.2584 -0.1076
 7396SOL    HW229356   5.440   0.845   3.495  0.0992  0.4776 -1.3912
 7396SOL    HW329357   5.472   0.699   3.519 -0.8375  0.6509  1.3535
 7396SOL    MW429358   5.498   0.782   3.509 -0.3143  0.3391 -0.0842
 7397SOL     OW29359   4.552   0.925   0.434  0.3997 -0.5451  0.0107
 7397SOL    HW229360   4.635   0.954   0.396  1.2267  0.3794  2.3381
 7397SOL    HW329361   4.572   0.843   0.477  0.0463 -0.4494  0.3635
 7397SOL    MW429362   4.566   0.918   0.434  0.4622 -0.4105  0.3643
 7398SOL     OW29363   0.532   5.544   0.596 -0.5542 -0.1274 -0.3936
 7398SOL    HW229364   0.500   5.530   0.506 -0.2136  0.3480 -0.5894
 7398SOL    HW329365   0.461   5.592   0.639 -0.3850  0.3396 -0.6358
 7398SOL    MW429366   0.518   5.548   0.590 -0.4869 -0.0031 -0.4514
 7399SOL     OW29367   0.683   5.804   1.310  0.3581  0.1846 -0.3039
 7399SOL    HW229368   0.615   5.868   1.330  2.3266  1.6487  2.4692
 7399SOL    HW329369   0.648   5.721   1.344 -0.2937  0.8020  0.5810
 7399SOL    MW429370   0.670   5.801   1.317  0.5318  0.4592  0.1787
 7400SOL     OW29371   4.515   5.809   0.210 -0.0086 -0.2427  0.0496
 7400SOL    HW229372   4.478   5.727   0.178 -0.7434 -0.3698  1.1830
 7400SOL    HW329373   4.610   5.793   0.213  0.0995 -0.2630 -1.8775
 7400SOL    MW429374   4.523   5.796   0.206 -0.0913 -0.2622 -0.0551
 7401SOL     OW29375   6.259   5.502   5.970 -0.3520 -0.1435  0.4317
 7401SOL    HW229376   6.351   5.477   5.963 -0.5191 -0.5889 -0.2314
 7401SOL    HW329377   6.241   5.504   6.064  0.6898  1.2746  0.6411
 7401SOL    MW429378   6.268   5.499   5.982 -0.2366 -0.0152  0.3719
 7402SOL     OW29379   1.427   4.406   1.406 -0.0250 -0.0934  0.3689
 7402SOL    HW229380   1.373   4.369   1.336  0.7672  0.2973 -0.4573
 7402SOL    HW329381   1.422   4.341   1.476 -2.4045  0.3793  0.7449
 7402SOL    MW429382   1.419   4.393   1.406 -0.2344  0.0206  0.3095
 7403SOL     OW29383   4.932   2.651   0.499  0.0032 -0.3701  0.2991
 7403SOL    HW229384   4.905   2.724   0.444 -1.5255 -1.3046 -0.2603
 7403SOL    HW329385   4.903   2.573   0.451  0.9987 -1.3203  1.1862
 7403SOL    MW429386   4.925   2.650   0.485 -0.0671 -0.6188  0.3423
 7404SOL     OW29387   3.888   5.979   2.601 -0.1868  0.1665  0.7418
 7404SOL    HW229388   3.978   5.965   2.630  0.3495  0.7839 -0.5191
 7404SOL    HW329389   3.885   5.942   2.512 -1.8821 -2.0940  1.6412
 7404SOL    MW429390   3.899   5.972   2.593 -0.3397 -0.0503  0.6941
 7405SOL     OW29391   5.273   5.485   1.981  0.2319 -0.0715 -0.3625
 7405SOL    HW229392   5.228   5.402   1.963 -0.0860  0.2973 -1.3574
 7405SOL    HW329393   5.365   5.461   1.992  0.4952 -0.3850 -2.6089
 7405SOL    MW429394   5.279   5.471   1.980  0.2247 -0.0642 -0.7902
 7406SOL     OW29395   0.075   4.383   4.491 -0.6296 -0.2290  0.1164
 7406SOL    HW229396   0.069   4.307   4.433  1.3580  0.6410 -1.3344
 7406SOL    HW329397   0.080   4.458   4.432 -1.9234  1.0117  1.5109
 7406SOL    MW429398   0.075   4.383   4.476 -0.5380  0.0495  0.1090
 7407SOL     OW29399   4.599   0.720   3.868  0.4365  0.2972  0.3283
 7407SOL    HW229400   4.536   0.718   3.940 -1.3009 -1.2145 -1.1397
 7407SOL    HW329401   4.555   0.769   3.799  1.4649  0.4374 -0.2387
 7407SOL    MW429402   4.585   0.726   3.868  0.3429  0.1162  0.0598
 7408SOL     OW29403   5.124   6.380   0.257 -0.6047  0.0488 -0.1894
 7408SOL    HW229404   5.216   6.377   0.231 -0.7232 -0.7263 -0.5550
 7408SOL    HW329405   5.119   6.325   0.336 -0.8034 -0.1562 -0.3428
 7408SOL    MW429406   5.135   6.372   0.264 -0.6465 -0.0805 -0.2579
 7409SOL     OW29407   3.573   0.041   2.623 -0.3351  0.3251  0.3133
 7409SOL    HW229408   3.539   0.130   2.612 -2.0693 -0.3685 -0.3023
 7409SOL    HW329409   3.577   0.005   2.535 -1.1658 -0.7203  0.6782
 7409SOL    MW429410   3.569   0.048   2.610 -0.6735  0.0956  0.2802
 7410SOL     OW29411   6.283   1.533   5.285  0.1052 -0.7733 -0.2824
 7410SOL    HW229412   6.291   1.444   5.251  2.4597 -0.0749 -1.8199
 7410SOL    HW329413   6.219   1.574   5.228  1.2725 -0.6799 -1.5946
 7410SOL    MW429414   6.276   1.526   5.273  0.5699 -0.6689 -0.6584
 7411SOL     OW29415   3.905   2.345   5.937  0.0616  0.0654  0.2364
 7411SOL    HW229416   3.930   2.255   5.957 -1.1560 -0.5187 -0.7734
 7411SOL    HW329417   3.948   2.363   5.853 -0.0835  0.2719  0.2076
 7411SOL    MW429418   3.914   2.335   5.928 -0.1182  0.0156  0.0993
 7412SOL     OW29419   6.117   0.893   1.641 -0.5769  0.0043  0.3501
 7412SOL    HW229420   6.156   0.979   1.628  0.3213 -0.4119  0.2049
 7412SOL    HW329421   6.063   0.902   1.719  2.0038 -0.0925  2.2644
 7412SOL    MW429422   6.115   0.905   1.649 -0.1179 -0.0634  0.5835
 7413SOL     OW29423   1.187   2.299   4.158 -0.0341  0.2287 -0.2121
 7413SOL    HW229424   1.112   2.349   4.126  1.3342  3.3760  1.0953
 7413SOL    HW329425   1.152   2.250   4.233 -1.1152  0.3052 -0.6456
 7413SOL    MW429426   1.173   2.299   4.164  0.0038  0.6540 -0.0968
 7414SOL     OW29427   5.602   4.901   5.781  0.1459  0.3854 -0.6897
 7414SOL    HW229428   5.674   4.838   5.783 -1.6584 -1.7971  0.8934
 7414SOL    HW329429   5.614   4.954   5.860  0.1367  0.1592 -0.5359
 7414SOL    MW429430   5.613   4.900   5.792 -0.0933  0.0676 -0.4605
 7415SOL     OW29431   2.384   5.333   5.026 -0.4059 -0.6230 -0.4912
 7415SOL    HW229432   2.310   5.293   5.071 -1.0930  0.6511 -0.4294
 7415SOL    HW329433   2.372   5.309   4.934 -1.6754  0.6333 -0.7016
 7415SOL    MW429434   2.372   5.325   5.019 -0.6640 -0.2892 -0.5108
 7416SOL     OW29435   0.212   0.366   1.296 -0.3971 -0.6940 -0.6227
 7416SOL    HW229436   0.151   0.440   1.304 -1.2739 -1.5173  0.9573
 7416SOL    HW329437   0.271   0.390   1.226 -0.7688  1.4304 -0.2603
 7416SOL    MW429438   0.211   0.379   1.288 -0.5618 -0.5223 -0.3664
 7417SOL     OW29439   2.452   4.133   1.881 -0.3231  0.1051  0.3289
 7417SOL    HW229440   2.532   4.157   1.833  0.2223 -1.3939  0.4418
 7417SOL    HW329441   2.391   4.205   1.864  0.7759  0.8918 -0.4106
 7417SOL    MW429442   2.455   4.146   1.873 -0.1062  0.0111  0.2462
 7418SOL     OW29443   6.218   4.247   1.847  0.1712  0.2952 -0.2499
 7418SOL    HW229444   6.235   4.185   1.918 -0.0751  0.3187 -0.1696
 7418SOL    HW329445   6.269   4.213   1.773 -0.2324 -0.1986 -0.3117
 7418SOL    MW429446   6.227   4.234   1.846  0.0855  0.2331 -0.2475
 7419SOL     OW29447   1.514   2.892   1.940 -0.2018  0.4976  0.1010
 7419SOL    HW229448   1.445   2.925   1.997 -0.0580  0.6074  0.2134
 7419SOL    HW329449   1.469   2.869   1.858 -0.4514  0.0510  0.3664
 7419SOL    MW429450   1.499   2.893   1.936 -0.2157  0.4532  0.1508
 7420SOL     OW29451   0.024   2.557   3.741 -0.3120  0.2025  0.1678
 7420SOL    HW229452   0.068   2.489   3.792 -1.3046 -0.9656 -0.4784
 7420SOL    HW329453   0.078   2.567   3.663  0.7223  1.3596  0.9854
 7420SOL    MW429454   0.037   2.549   3.738 -0.3065  0.2011  0.1904
 7421SOL     OW29455   0.313   4.184   2.217 -0.1082  0.1398  0.7245
 7421SOL    HW229456   0.259   4.263   2.224  0.5532  0.6057  0.6488
 7421SOL    HW329457   0.403   4.215   2.230  0.2498 -0.4528 -0.2569
 7421SOL    MW429458   0.318   4.198   2.220  0.0263  0.1231  0.5850
 7422SOL     OW29459   5.539   1.745   3.491  0.0677 -0.1709  1.4206
 7422SOL    HW229460   5.601   1.685   3.532  0.3934 -2.3599 -1.8595
 7422SOL    HW329461   5.546   1.826   3.542  3.8844 -1.0585  2.6198
 7422SOL    MW429462   5.548   1.748   3.503  0.6142 -0.5769  1.1461
 7423SOL     OW29463   5.634   0.895   2.866  0.3382 -0.1371  0.0270
 7423SOL    HW229464   5.637   0.815   2.918  0.7139 -0.6169 -0.7165
 7423SOL    HW329465   5.631   0.865   2.775 -1.3387  0.6743 -0.2185
 7423SOL    MW429466   5.634   0.881   2.861  0.1665 -0.0934 -0.1035
 7424SOL     OW29467   6.005   2.035   4.575  0.0738  0.0551 -0.1973
 7424SOL    HW229468   6.021   1.996   4.488 -1.8446  0.1731 -0.6364
 7424SOL    HW329469   6.093   2.054   4.608  1.0768 -3.1448 -0.6178
 7424SOL    MW429470   6.019   2.032   4.568 -0.0470 -0.3515 -0.3107
 7425SOL     OW29471   3.668   6.314   4.803  0.3667 -0.0816  0.1997
 7425SOL    HW229472   3.760   6.313   4.778  0.3141 -0.8937  0.0111
 7425SOL    HW329473   3.621   6.301   4.720  0.1536 -1.6054  0.5364
 7425SOL    MW429474   3.674   6.312   4.788  0.3316 -0.3898  0.2192
 7426SOL     OW29475   5.073   1.345   2.576 -0.6676  0.2772 -0.2890
 7426SOL    HW229476   5.011   1.322   2.506  0.1440  0.7779 -1.2005
 7426SOL    HW329477   5.131   1.270   2.583 -0.1063  0.6389 -0.9028
 7426SOL    MW429478   5.072   1.332   2.567 -0.4864  0.3910 -0.4902
 7427SOL     OW29479   1.816   3.409   5.940 -0.1764 -0.1656  0.2292
 7427SOL    HW229480   1.905   3.380   5.957 -0.6865 -2.3078 -0.4554
 7427SOL    HW329481   1.798   3.382   5.850 -1.6530 -0.2152  0.5060
 7427SOL    MW429482   1.825   3.401   5.931 -0.4385 -0.4548  0.1754
 7428SOL     OW29483   2.161   5.716   5.048  0.2708 -0.2758  0.0889
 7428SOL    HW229484   2.229   5.701   5.113  0.6242 -0.2388 -0.2727
 7428SOL    HW329485   2.100   5.776   5.090 -0.0166 -1.0157  0.7502
 7428SOL    MW429486   2.162   5.722   5.062  0.2795 -0.3685  0.1284
 7429SOL     OW29487   5.452   2.399   5.011 -0.2990  0.5357  0.2115
 7429SOL    HW229488   5.487   2.373   4.926 -0.0472 -0.4253  0.5865
 7429SOL    HW329489   5.412   2.319   5.045 -2.1008  1.3790  0.1727
 7429SOL    MW429490   5.451   2.385   5.004 -0.5035  0.5201  0.2559
 7430SOL     OW29491   1.179   2.923   3.406 -0.1759  0.0044  0.6623
 7430SOL    HW229492   1.092   2.926   3.445 -0.6004 -2.0139  0.0245
 7430SOL    HW329493   1.239   2.914   3.480 -0.4522  1.6357  1.1191
 7430SOL    MW429494   1.175   2.922   3.421 -0.2684 -0.0467  0.6384
 7431SOL     OW29495   0.827   0.335   0.687 -0.0313  0.1946 -0.0088
 7431SOL    HW229496   0.755   0.399   0.688 -0.1817  0.0255 -0.0716
 7431SOL    HW329497   0.906   0.388   0.676 -0.3539  0.1763 -3.1494
 7431SOL    MW429498   0.828   0.351   0.686 -0.0937  0.1699 -0.4315
 7432SOL     OW29499   3.865   5.044   2.353 -0.0315  0.3434 -0.1123
 7432SOL    HW229500   3.898   4.958   2.381  1.7590  0.7865 -0.7432
 7432SOL    HW329501   3.779   5.025   2.315 -0.7820 -0.7946  1.9906
 7432SOL    MW429502   3.858   5.030   2.352  0.1057  0.2517  0.0819
 7433SOL     OW29503   4.784   5.761   0.214  0.1991 -0.2106 -0.3148
 7433SOL    HW229504   4.791   5.698   0.286  2.5004 -1.6068 -1.6361
 7433SOL    HW329505   4.833   5.837   0.244 -1.0486  0.2825  0.5676
 7433SOL    MW429506   4.791   5.763   0.228  0.3381 -0.3297 -0.3727
 7434SOL     OW29507   0.372   5.584   2.972 -0.1142 -0.1177  0.5195
 7434SOL    HW229508   0.407   5.524   2.906 -0.6335  0.5064 -0.3443
 7434SOL    HW329509   0.435   5.580   3.044  0.5812 -0.6558 -0.1044
 7434SOL    MW429510   0.385   5.576   2.973 -0.0910 -0.1064  0.3232
 7435SOL     OW29511   6.045   5.504   6.414 -0.0415  0.0391  0.5938
 7435SOL    HW229512   5.963   5.462   6.439 -0.6076  1.2834  0.8755
 7435SOL    HW329513   6.069   5.557   6.489  0.4650  0.5237  0.1009
 7435SOL    MW429514   6.038   5.505   6.427 -0.0493  0.2672  0.5659
 7436SOL     OW29515   0.066   3.361   6.197 -0.8227 -0.6047  0.2702
 7436SOL    HW229516   0.087   3.451   6.222 -0.6129 -0.2303 -1.1188
 7436SOL    HW329517  -0.025   3.349   6.221 -1.6543  0.8933 -1.8072
 7436SOL    MW429518   0.057   3.371   6.203 -0.9047 -0.3576 -0.1872
 7437SOL     OW29519   0.605   2.811   2.326  0.2763  0.0809 -0.0647
 7437SOL    HW229520   0.650   2.885   2.367 -0.0273  0.0044  0.4186
 7437SOL    HW329521   0.669   2.774   2.265  0.2999  0.9699 -0.5975
 7437SOL    MW429522   0.619   2.816   2.323  0.2394  0.1881 -0.0712
 7438SOL     OW29523   0.231   5.186   3.342  0.4011  0.5657  0.2944
 7438SOL    HW229524   0.255   5.212   3.253 -0.0069  0.4501  0.1489
 7438SOL    HW329525   0.268   5.098   3.352 -1.4778 -0.3838 -0.5805
 7438SOL    MW429526   0.239   5.178   3.332  0.0993  0.4252  0.1598
 7439SOL     OW29527   1.257   1.828   6.162  0.4480 -0.2129  0.1080
 7439SOL    HW229528   1.182   1.856   6.214 -0.5016  0.2175 -1.4222
 7439SOL    HW329529   1.297   1.757   6.213 -0.4997  0.1114  1.3431
 7439SOL    MW429530   1.252   1.822   6.175  0.1977 -0.1133  0.0690
 7440SOL     OW29531   4.967   0.585   5.977 -0.0591 -0.0844  0.0419
 7440SOL    HW229532   5.048   0.597   6.026 -0.7106  1.4597  0.8060
 7440SOL    HW329533   4.975   0.644   5.903 -1.0775  1.2219  0.9282
 7440SOL    MW429534   4.978   0.594   5.974 -0.2794  0.2916  0.2597
 7441SOL     OW29535   3.206   6.311   4.143 -0.0074 -0.0393 -0.1838
 7441SOL    HW229536   3.281   6.277   4.094 -0.6184 -1.4925 -0.1453
 7441SOL    HW329537   3.139   6.327   4.077 -0.6282 -1.4436  0.0827
 7441SOL    MW429538   3.207   6.308   4.128 -0.1699 -0.4163 -0.1435
 7442SOL     OW29539   4.518   2.627   5.982 -0.4921  0.3974  0.3344
 7442SOL    HW229540   4.537   2.654   5.892  0.3554  0.1471  0.4375
 7442SOL    HW329541   4.422   2.630   5.987 -0.8964 -3.1202 -1.7218
 7442SOL    MW429542   4.508   2.631   5.970 -0.4336 -0.0997  0.0767
 7443SOL     OW29543   4.948   3.331   3.712 -0.2846  0.3067  0.0362
 7443SOL    HW229544   5.029   3.317   3.664 -1.1898 -1.7352 -1.0607
 7443SOL    HW329545   4.973   3.382   3.789  2.2880 -1.3255  0.4113
 7443SOL    MW429546   4.962   3.336   3.716 -0.0646 -0.1781 -0.0590
 7444SOL     OW29547   2.993   0.302   4.663  0.8524 -0.1268  0.0636
 7444SOL    HW229548   2.910   0.341   4.634 -0.2176 -0.3242  2.5761
 7444SOL    HW329549   2.985   0.210   4.640  0.3338 -0.1608  0.3647
 7444SOL    MW429550   2.981   0.295   4.656  0.6428 -0.1573  0.4349
 7445SOL     OW29551   5.735   2.330   1.878  0.0099  0.4866 -0.2865
 7445SOL    HW229552   5.757   2.384   1.802  2.1980  0.0364 -0.0213
 7445SOL    HW329553   5.814   2.329   1.932  0.3728 -3.4057 -0.5506
 7445SOL    MW429554   5.748   2.337   1.875  0.3465 -0.0863 -0.2864
 7446SOL     OW29555   5.508   5.490   4.575 -0.1649 -0.3304  0.0849
 7446SOL    HW229556   5.541   5.526   4.493  0.8017 -1.1621  0.0882
 7446SOL    HW329557   5.476   5.403   4.552 -1.1659 -0.0502  0.3467
 7446SOL    MW429558   5.508   5.484   4.561 -0.1695 -0.4032  0.1199
 7447SOL     OW29559   1.015   0.561   5.886  0.3398 -0.7582 -0.0497
 7447SOL    HW229560   0.939   0.615   5.866  0.9904 -0.0773 -0.7665
 7447SOL    HW329561   1.036   0.581   5.977 -0.0178 -0.5511 -0.0115
 7447SOL    MW429562   1.008   0.571   5.895  0.3785 -0.6411 -0.1392
 7448SOL     OW29563   6.134   0.074   4.386 -0.1603  0.2554  0.1339
 7448SOL    HW229564   6.152   0.155   4.433  1.2983 -0.1321  0.3032
 7448SOL    HW329565   6.219   0.030   4.381 -0.3002  0.1380 -2.5847
 7448SOL    MW429566   6.148   0.079   4.391  0.0137  0.1888 -0.2025
 7449SOL     OW29567   3.270   0.692   3.461 -0.8989 -0.0233 -0.0155
 7449SOL    HW229568   3.262   0.706   3.556 -0.8369  2.9909 -0.3483
 7449SOL    HW329569   3.339   0.753   3.434 -1.5960 -0.0810 -2.1362
 7449SOL    MW429570   3.278   0.702   3.470 -0.9827  0.3668 -0.3392
 7450SOL     OW29571   3.361   3.493   0.733  0.0016 -0.0574  0.1806
 7450SOL    HW229572   3.420   3.533   0.669 -0.1309 -1.3441 -0.8049
 7450SOL    HW329573   3.289   3.458   0.681 -0.4675 -0.5370  1.1181
 7450SOL    MW429574   3.359   3.493   0.718 -0.0777 -0.2904  0.1743
 7451SOL     OW29575   0.456   5.166   2.653  0.4319  0.4232 -0.2759
 7451SOL    HW229576   0.382   5.109   2.669 -0.6478  1.7165 -0.4580
 7451SOL    HW329577   0.451   5.187   2.559 -1.3606  3.5633  0.3675
 7451SOL    MW429578   0.446   5.162   2.642  0.0530  1.0081 -0.2150
 7452SOL     OW29579   5.842   6.120   5.573  0.1532 -0.2093 -0.3363
 7452SOL    HW229580   5.932   6.088   5.576  0.5301  0.7628 -0.9573
 7452SOL    HW329581   5.850   6.215   5.562 -0.9458 -0.1046 -0.3736
 7452SOL    MW429582   5.855   6.129   5.572  0.0579 -0.0672 -0.4232
 7453SOL     OW29583   0.455   0.320   5.837 -0.4572  0.4730  0.2360
 7453SOL    HW229584   0.522   0.325   5.905  0.3799  0.3293 -0.5630
 7453SOL    HW329585   0.372   0.317   5.886  0.0539  1.4578  1.2148
 7453SOL    MW429586   0.453   0.320   5.853 -0.2793  0.5840  0.2597
 7454SOL     OW29587   1.915   3.606   3.839  0.1652 -0.4616  0.2304
 7454SOL    HW229588   1.896   3.591   3.932 -1.5589 -1.0673 -0.1787
 7454SOL    HW329589   1.933   3.518   3.804  2.1284 -0.1055  0.2099
 7454SOL    MW429590   1.915   3.592   3.847  0.1967 -0.4945  0.1737
 7455SOL     OW29591   2.985   3.919   3.815  0.0303 -0.2392  0.0189
 7455SOL    HW229592   2.973   3.938   3.908 -0.3390 -1.0679  0.1436
 7455SOL    HW329593   3.073   3.951   3.796  0.3465 -0.6133  0.8024
 7455SOL    MW429594   2.995   3.926   3.825  0.0233 -0.3979  0.1388
 7456SOL     OW29595   2.475   3.997   6.060 -0.8126 -0.7344 -0.0974
 7456SOL    HW229596   2.429   3.919   6.090 -0.0400 -0.9361  0.6010
 7456SOL    HW329597   2.507   3.975   5.973 -0.5957 -1.1986  0.0999
 7456SOL    MW429598   2.473   3.984   6.053 -0.6820 -0.8223  0.0208
 7457SOL     OW29599   6.108   4.636   0.138  0.2495  0.0238 -0.0603
 7457SOL    HW229600   6.140   4.722   0.110  0.2618 -0.4879 -1.7401
 7457SOL    HW329601   6.185   4.595   0.179  0.6862  0.2491 -0.6298
 7457SOL    MW429602   6.123   4.642   0.140  0.3087 -0.0140 -0.3571
 7458SOL     OW29603   0.292   6.383   4.033 -0.3709  0.8058  0.1891
 7458SOL    HW229604   0.226   6.344   3.975 -2.4846  1.3657  2.0817
 7458SOL    HW329605   0.352   6.311   4.052 -1.2171 -0.1255 -0.5261
 7458SOL    MW429606   0.291   6.368   4.028 -0.7614  0.7568  0.3444
 7459SOL     OW29607   4.959   0.049   4.206  0.1845  0.4635  0.1434
 7459SOL    HW229608   4.946  -0.005   4.284  0.3930 -0.8797 -0.7092
 7459SOL    HW329609   4.885   0.028   4.150 -0.8403  2.6401  0.6048
 7459SOL    MW429610   4.948   0.039   4.209  0.0768  0.5734  0.0918
 7460SOL     OW29611   0.866   2.719   1.866  0.0031  0.4721 -0.5454
 7460SOL    HW229612   0.829   2.631   1.864 -0.3196  0.6179 -1.1091
 7460SOL    HW329613   0.960   2.706   1.849  0.6508 -0.0866  2.7529
 7460SOL    MW429614   0.874   2.706   1.863  0.0460  0.4176 -0.1846
 7461SOL     OW29615   5.327   0.626   0.758 -0.4495 -0.1786 -0.4287
 7461SOL    HW229616   5.289   0.560   0.700  2.4434 -0.3941 -2.2713
 7461SOL    HW329617   5.322   0.708   0.709  2.3608 -0.4293 -1.2851
 7461SOL    MW429618   5.321   0.628   0.744  0.3030 -0.2401 -0.7848
 7462SOL     OW29619   2.454   3.284   1.787 -0.4229 -0.0441 -0.0164
 7462SOL    HW229620   2.518   3.230   1.740 -1.3007 -1.0409 -0.1121
 7462SOL    HW329621   2.450   3.366   1.737  0.0027 -0.3777 -0.6133
 7462SOL    MW429622   2.462   3.288   1.774 -0.4826 -0.2196 -0.1078
 7463SOL     OW29623   0.032   1.536   2.271 -0.0352 -0.2944  0.1671
 7463SOL    HW229624   0.030   1.469   2.340  1.2591  0.1147  0.6272
 7463SOL    HW329625   0.011   1.489   2.191  0.6207 -1.2206  0.5235
 7463SOL    MW429626   0.029   1.521   2.270  0.2221 -0.3626  0.2748
 7464SOL     OW29627   6.046   1.862   4.364  0.1472 -0.2337  0.2703
 7464SOL    HW229628   5.982   1.816   4.308  1.0778 -1.4085  0.1384
 7464SOL    HW329629   6.080   1.794   4.422  3.2295 -0.3051 -1.4227
 7464SOL    MW429630   6.042   1.847   4.364  0.6766 -0.3981  0.0296
 7465SOL     OW29631   4.363   3.165   0.268 -0.0499 -0.3192 -0.1577
 7465SOL    HW229632   4.381   3.102   0.197 -1.2605 -1.1733  0.2437
 7465SOL    HW329633   4.317   3.237   0.225  2.7045  1.1437 -0.9084
 7465SOL    MW429634   4.359   3.166   0.253  0.1538 -0.2389 -0.2038
 7466SOL     OW29635   3.171   1.837   5.794  0.0848 -0.0076 -0.1538
 7466SOL    HW229636   3.122   1.915   5.767  1.3891  0.2816 -1.8940
 7466SOL    HW329637   3.104   1.775   5.823 -1.0622  1.3520  0.2348
 7466SOL    MW429638   3.156   1.839   5.794  0.1056  0.2100 -0.3321
 7467SOL     OW29639   0.992   2.140   3.561 -0.4190  0.2231  0.0068
 7467SOL    HW229640   1.052   2.214   3.553  0.8242 -0.5648  1.3746
 7467SOL    HW329641   1.043   2.064   3.532 -0.0668 -0.7202  2.7461
 7467SOL    MW429642   1.007   2.140   3.556 -0.2085 -0.0053  0.5487
 7468SOL     OW29643   5.756   3.846   4.318  0.4037  0.3098 -0.3134
 7468SOL    HW229644   5.673   3.884   4.343 -0.5577 -1.2925 -0.8691
 7468SOL    HW329645   5.822   3.892   4.371 -0.9306  0.8902  0.8926
 7468SOL    MW429646   5.754   3.857   4.328  0.1008  0.1749 -0.2276
 7469SOL     OW29647   6.132   5.208   0.586 -0.3215  0.4515 -0.5735
 7469SOL    HW229648   6.129   5.297   0.551 -2.2845  1.0917  1.0275
 7469SOL    HW329649   6.225   5.186   0.591  0.2272  2.6666 -0.3780
 7469SOL    MW429650   6.144   5.217   0.582 -0.5081  0.8282 -0.3365
 7470SOL     OW29651   3.076   5.758   5.747 -0.1965 -0.0300  0.2666
 7470SOL    HW229652   3.125   5.683   5.713 -0.1982  0.3345 -0.5631
 7470SOL    HW329653   3.025   5.722   5.819 -1.8769 -1.3410 -1.4707
 7470SOL    MW429654   3.076   5.743   5.752 -0.4184 -0.1548 -0.0721
 7471SOL     OW29655   3.444   0.661   0.956 -0.1199  0.7607  0.0199
 7471SOL    HW229656   3.449   0.755   0.976  2.0126  0.6858  0.1543
 7471SOL    HW329657   3.523   0.625   0.996 -1.2961 -1.2561  0.6497
 7471SOL    MW429658   3.455   0.669   0.964  0.0063  0.4847  0.1207
 7472SOL     OW29659   4.653   1.108   3.209 -0.3480 -0.3196 -0.0357
 7472SOL    HW229660   4.720   1.056   3.165  0.2793  1.1643 -0.8859
 7472SOL    HW329661   4.623   1.170   3.143 -1.3613  0.1523  0.8365
 7472SOL    MW429662   4.658   1.110   3.195 -0.3989 -0.0616 -0.0328
 7473SOL     OW29663   4.554   0.330   4.549 -0.0246 -0.3238 -0.4921
 7473SOL    HW229664   4.550   0.282   4.466  1.4463 -1.3384 -0.0156
 7473SOL    HW329665   4.591   0.267   4.611  0.3842  0.9052  0.5502
 7473SOL    MW429666   4.559   0.315   4.546  0.2234 -0.2955 -0.2917
 7474SOL     OW29667   5.891   1.652   1.973 -0.2878  0.2158 -0.1900
 7474SOL    HW229668   5.903   1.681   2.064 -0.7167 -0.1367 -0.0224
 7474SOL    HW329669   5.922   1.562   1.972 -0.0384  0.3011 -0.4586
 7474SOL    MW429670   5.897   1.644   1.985 -0.3115  0.1806 -0.2033
 7475SOL     OW29671   2.970   5.357   0.842 -0.0917  0.1241 -0.4506
 7475SOL    HW229672   2.986   5.277   0.891 -2.6700  0.4324  1.0559
 7475SOL    HW329673   2.962   5.328   0.751 -1.3555 -1.4116  0.1051
 7475SOL    MW429674   2.971   5.343   0.836 -0.5986 -0.0378 -0.1785
 7476SOL     OW29675   1.458   5.662   3.155 -0.3264  0.2521  0.4201
 7476SOL    HW229676   1.436   5.705   3.072  0.1594  0.6387  0.4845
 7476SOL    HW329677   1.389   5.690   3.216 -1.1704 -0.7322 -0.0725
 7476SOL    MW429678   1.446   5.671   3.152 -0.3737  0.1733  0.3636
 7477SOL     OW29679   2.087   1.286   0.957 -0.1166 -0.3030  0.2273
 7477SOL    HW229680   2.037   1.329   0.887 -1.8098  0.4036  1.7902
 7477SOL    HW329681   2.049   1.198   0.961 -0.3681 -0.1793  0.5778
 7477SOL    MW429682   2.075   1.280   0.948 -0.3732 -0.1935  0.4797
 7478SOL     OW29683   0.989   2.238   4.740  0.2296  0.1177  0.1622
 7478SOL    HW229684   1.021   2.280   4.660  1.0943 -1.5760 -0.4324
 7478SOL    HW329685   0.915   2.292   4.767  1.0968  1.8253 -0.7037
 7478SOL    MW429686   0.983   2.251   4.733  0.4581  0.1195 -0.0305
 7479SOL     OW29687   1.314   3.084   5.160  0.0640  0.5640 -0.6359
 7479SOL    HW229688   1.285   3.088   5.068 -1.9209  0.6435 -0.0654
 7479SOL    HW329689   1.254   3.143   5.206  1.0597  0.5530  0.7170
 7479SOL    MW429690   1.302   3.092   5.154 -0.0665  0.5730 -0.3821
 7480SOL     OW29691   4.690   1.806   5.760 -0.4351  0.2942 -0.1639
 7480SOL    HW229692   4.643   1.783   5.840  0.4750 -2.3908 -0.3075
 7480SOL    HW329693   4.747   1.878   5.787 -2.9840  2.2183  0.5118
 7480SOL    MW429694   4.691   1.813   5.774 -0.6513  0.1938 -0.0937
 7481SOL     OW29695   1.500   1.113   1.958  0.9174 -0.6319 -0.0483
 7481SOL    HW229696   1.424   1.118   2.017  0.4582 -1.2211 -0.5797
 7481SOL    HW329697   1.572   1.150   2.009  0.2672 -0.0405  0.4536
 7481SOL    MW429698   1.499   1.118   1.973  0.7710 -0.6316 -0.0522
 7482SOL     OW29699   4.168   2.702   3.462 -0.0123 -0.2590  0.1860
 7482SOL    HW229700   4.251   2.683   3.419 -0.7552 -1.3114 -0.8686
 7482SOL    HW329701   4.189   2.765   3.530  1.5055  0.1047 -0.5915
 7482SOL    MW429702   4.182   2.708   3.466  0.0900 -0.3499 -0.0557
 7483SOL     OW29703   3.019   3.030   3.621 -0.1023  0.0157  0.1774
 7483SOL    HW229704   2.930   3.013   3.650 -0.5049 -0.0501 -1.0631
 7483SOL    HW329705   3.013   3.111   3.570  0.8471  0.9296  1.4315
 7483SOL    MW429706   3.007   3.039   3.618 -0.0301  0.1276  0.1792
 7484SOL     OW29707   5.996   3.815   3.291  0.2218  0.2930 -0.4243
 7484SOL    HW229708   6.039   3.779   3.214  1.7645  0.3446  0.3763
 7484SOL    HW329709   6.005   3.747   3.358 -0.9165  0.3316 -0.2203
 7484SOL    MW429710   6.003   3.801   3.290  0.2751  0.3049 -0.2918
 7485SOL     OW29711   2.183   0.896   4.949  0.3585  0.0311 -0.4619
 7485SOL    HW229712   2.153   0.984   4.927  0.1322  0.4810  1.4700
 7485SOL    HW329713   2.268   0.888   4.906  1.3616  2.0122  1.0000
 7485SOL    MW429714   2.190   0.906   4.940  0.4610  0.3518 -0.0141
 7486SOL     OW29715   1.022   4.666   3.013 -0.0466 -0.3671 -0.3566
 7486SOL    HW229716   0.936   4.706   2.997  0.6974  1.5843  0.2742
 7486SOL    HW329717   1.005   4.597   3.076 -1.3557 -0.9661 -1.3144
 7486SOL    MW429718   1.008   4.663   3.019 -0.1212 -0.1887 -0.3998
 7487SOL     OW29719   3.766   0.076   1.968  0.2153  0.2863  0.4077
 7487SOL    HW229720   3.821   0.106   1.896 -1.2460  0.2230 -0.7967
 7487SOL    HW329721   3.741  -0.013   1.944 -1.1175  0.6246  0.4513
 7487SOL    MW429722   3.770   0.069   1.955 -0.1534  0.3226  0.2546
 7488SOL     OW29723   2.296   0.402   2.584  0.2413  0.8859 -0.1102
 7488SOL    HW229724   2.234   0.441   2.523  1.5297  2.5483 -0.3972
 7488SOL    HW329725   2.349   0.343   2.531 -0.5991 -0.0276  0.0177
 7488SOL    MW429726   2.295   0.399   2.569  0.3004  0.9847 -0.1312
 7489SOL     OW29727   2.574   0.829   2.099  0.8658 -0.8905 -0.0665
 7489SOL    HW229728   2.553   0.832   2.192  0.7069  1.4125 -0.1221
 7489SOL    HW329729   2.657   0.783   2.095  3.0641  2.4872  1.7584
 7489SOL    MW429730   2.582   0.823   2.111  1.1348 -0.1410  0.1670
 7490SOL     OW29731   1.872   1.219   0.497 -0.1152 -0.3644  0.3023
 7490SOL    HW229732   1.783   1.243   0.469 -0.9284 -0.7628  2.3858
 7490SOL    HW329733   1.869   1.124   0.509  0.4704 -0.3205  0.8354
 7490SOL    MW429734   1.860   1.210   0.495 -0.1452 -0.4112  0.6475
 7491SOL     OW29735   1.119   6.380   1.109 -0.1749  0.2225 -0.0147
 7491SOL    HW229736   1.203   6.418   1.137  0.1768 -1.1753  0.9354
 7491SOL    HW329737   1.070   6.368   1.190 -0.3850 -1.0434 -0.3060
 7491SOL    MW429738   1.124   6.384   1.124 -0.1562 -0.1289  0.0722
 7492SOL     OW29739   0.380   5.356   6.050 -0.1945  0.1819 -0.1453
 7492SOL    HW229740   0.424   5.278   6.082 -1.4344 -0.1879  0.7326
 7492SOL    HW329741   0.368   5.411   6.127  0.8255  1.3533 -0.7788
 7492SOL    MW429742   0.384   5.353   6.064 -0.2235  0.2876 -0.1131
 7493SOL     OW29743   1.840   3.826   2.000  0.2578  0.2960  0.3654
 7493SOL    HW229744   1.804   3.758   2.057  0.0599 -0.5721 -0.7469
 7493SOL    HW329745   1.763   3.869   1.963  0.3177  2.5098  2.5251
 7493SOL    MW429746   1.825   3.822   2.002  0.2396  0.4735  0.5036
 7494SOL     OW29747   0.359   3.025   5.173  0.0261 -0.1193  0.3242
 7494SOL    HW229748   0.366   3.109   5.128  2.2045  0.0194  0.7807
 7494SOL    HW329749   0.373   2.960   5.105 -2.3833 -0.2197 -0.1688
 7494SOL    MW429750   0.362   3.028   5.158 -0.0044 -0.1142  0.3194
 7495SOL     OW29751   1.219   1.857   1.961 -0.0227  0.1890 -0.2211
 7495SOL    HW229752   1.314   1.847   1.969  0.1002  0.8049 -0.7150
 7495SOL    HW329753   1.209   1.921   1.890 -0.8457 -1.1942 -1.4040
 7495SOL    MW429754   1.230   1.864   1.952 -0.1151  0.0877 -0.4423
 7496SOL     OW29755   2.355   1.845   3.135 -0.0798  0.0758 -0.3445
 7496SOL    HW229756   2.270   1.805   3.118  0.6265 -0.7858 -2.2387
 7496SOL    HW329757   2.338   1.939   3.139 -1.0997 -0.0687 -0.9466
 7496SOL    MW429758   2.342   1.852   3.133 -0.1211 -0.0569 -0.6739
 7497SOL     OW29759   2.724   2.839   2.138 -0.2698  0.6000 -0.0063
 7497SOL    HW229760   2.774   2.760   2.159 -1.2870  0.0240  0.3190
 7497SOL    HW329761   2.744   2.857   2.046  2.0531  1.5249  0.6067
 7497SOL    MW429762   2.733   2.831   2.129 -0.0975  0.6460  0.1175
 7498SOL     OW29763   3.793   6.124   1.096  0.1435  0.1759  0.0687
 7498SOL    HW229764   3.714   6.117   1.043 -0.0187  0.6408  0.2407
 7498SOL    HW329765   3.862   6.147   1.034  0.4773 -1.7226 -0.3351
 7498SOL    MW429766   3.791   6.126   1.081  0.1661 -0.0133  0.0381
 7499SOL     OW29767   1.893   3.660   0.503  0.3664  0.4324  0.1357
 7499SOL    HW229768   1.919   3.609   0.426 -2.3157 -0.7219 -0.0934
 7499SOL    HW329769   1.848   3.736   0.468 -3.1010 -1.3084  0.3922
 7499SOL    MW429770   1.891   3.663   0.488 -0.4450  0.0504  0.1393
 7500SOL     OW29771   4.108   6.422   0.454 -0.0752 -0.6302 -0.5302
 7500SOL    HW229772   4.057   6.343   0.435 -0.7421 -0.2986 -0.1653
 7500SOL    HW329773   4.050   6.476   0.507  0.4728 -0.0085 -0.5439
 7500SOL    MW429774   4.094   6.419   0.458 -0.0909 -0.5044 -0.4839
 7501SOL     OW29775   0.169   5.660   5.714 -0.3356 -0.6537 -0.0599
 7501SOL    HW229776   0.212   5.587   5.669  1.1282 -0.3097  0.7314
 7501SOL    HW329777   0.086   5.671   5.667 -0.5018 -2.6724 -0.3409
 7501SOL    MW429778   0.164   5.652   5.702 -0.1644 -0.8746  0.0074
 7502SOL     OW29779   3.132   5.386   3.852  0.7176  0.0064 -0.3699
 7502SOL    HW229780   3.202   5.409   3.914 -1.6828  2.2114  1.8067
 7502SOL    HW329781   3.115   5.468   3.805 -1.6743  0.1410  0.6275
 7502SOL    MW429782   3.139   5.400   3.854  0.0853  0.3151  0.0488
 7503SOL     OW29783   0.307   3.450   3.528  0.2348  0.0323  0.3136
 7503SOL    HW229784   0.351   3.450   3.613  1.1951  1.8878 -0.1371
 7503SOL    HW329785   0.254   3.370   3.529  1.2547 -0.6858  2.1058
 7503SOL    MW429786   0.306   3.439   3.540  0.4961  0.1823  0.4906
 7504SOL     OW29787   5.473   0.985   4.323  0.5586  0.4588  0.5516
 7504SOL    HW229788   5.494   0.928   4.397  2.0095  0.4030  0.1298
 7504SOL    HW329789   5.386   0.958   4.295  0.8509 -0.9299  0.9295
 7504SOL    MW429790   5.464   0.974   4.329  0.7886  0.2682  0.5458
 7505SOL     OW29791   2.365   2.066   0.156  0.5147  0.7634  0.1007
 7505SOL    HW229792   2.424   2.110   0.096  1.7646 -1.0430 -0.0934
 7505SOL    HW329793   2.279   2.071   0.113  1.3650 -0.4677 -1.9023
 7505SOL    MW429794   2.361   2.072   0.142  0.7918  0.3627 -0.1892
 7506SOL     OW29795   4.756   0.908   2.668  0.2835 -0.1958  0.1046
 7506SOL    HW229796   4.801   0.868   2.594 -2.2739 -0.5586 -1.3614
 7506SOL    HW329797   4.730   0.834   2.723 -0.0930 -0.1484 -0.0072
 7506SOL    MW429798   4.759   0.893   2.666 -0.1036 -0.2375 -0.1036
 7507SOL     OW29799   4.378   5.424   4.548  0.3089 -0.1995  0.0298
 7507SOL    HW229800   4.289   5.389   4.551  1.3264 -3.0864 -0.4207
 7507SOL    HW329801   4.424   5.377   4.618  1.7282  0.4582 -0.4378
 7507SOL    MW429802   4.372   5.413   4.558  0.6304 -0.4936 -0.0913
 7508SOL     OW29803   2.407   1.495   5.668  0.3497  0.8383 -0.0143
 7508SOL    HW229804   2.495   1.524   5.646  0.2998 -0.6405 -2.4135
 7508SOL    HW329805   2.353   1.573   5.657  1.1249  1.3966  0.0456
 7508SOL    MW429806   2.411   1.509   5.664  0.4454  0.7169 -0.3229
 7509SOL     OW29807   1.034   6.078   4.967 -0.6962  0.0222 -0.0306
 7509SOL    HW229808   1.001   6.147   5.024 -0.9118  0.5971 -0.8466
 7509SOL    HW329809   1.103   6.036   5.019 -0.8783  0.5410  0.6471
 7509SOL    MW429810   1.039   6.082   4.982 -0.7487  0.1665 -0.0489
 7510SOL     OW29811   0.935   1.544   3.898 -0.3701  0.0302  0.9363
 7510SOL    HW229812   0.897   1.630   3.918 -0.0474  0.5847 -0.6629
 7510SOL    HW329813   0.871   1.481   3.932 -2.3325  0.9361 -0.8655
 7510SOL    MW429814   0.922   1.547   3.905 -0.5864  0.2229  0.4876
 7511SOL     OW29815   5.458   3.110   1.933  0.4049  0.5574 -0.2599
 7511SOL    HW229816   5.380   3.138   1.981  1.0931  0.0846  1.1872
 7511SOL    HW329817   5.529   3.166   1.967  1.0055 -0.1393 -0.3328
 7511SOL    MW429818   5.457   3.121   1.944  0.5750  0.4031 -0.0786
 7512SOL     OW29819   3.569   1.909   4.717  0.2871  0.3017 -0.3490
 7512SOL    HW229820   3.552   1.993   4.759  0.9036 -0.3739  1.3331
 7512SOL    HW329821   3.494   1.895   4.659  0.7913  2.5908 -1.6847
 7512SOL    MW429822   3.557   1.918   4.715  0.4350  0.5146 -0.3033
 7513SOL     OW29823   1.886   1.660   2.001  0.0133 -0.1838 -0.0544
 7513SOL    HW229824   1.901   1.744   2.046  0.3226  1.3352 -2.7564
 7513SOL    HW329825   1.799   1.633   2.029 -0.6991  1.8162 -0.1634
 7513SOL    MW429826   1.877   1.668   2.010 -0.0399  0.2805 -0.4253
 7514SOL     OW29827   5.423   2.230   1.897 -0.2580  0.5891  0.1820
 7514SOL    HW229828   5.382   2.316   1.883  1.8014  1.8114  1.1790
 7514SOL    HW329829   5.516   2.245   1.880  0.7529 -0.4599  3.8795
 7514SOL    MW429830   5.430   2.243   1.893  0.1471  0.6119  0.8014
 7515SOL     OW29831   5.578   0.341   1.967  0.5913 -0.3103 -0.5041
 7515SOL    HW229832   5.648   0.276   1.962  0.9610  0.0920 -0.6032
 7515SOL    HW329833   5.551   0.354   1.876 -0.3456 -1.2383 -0.3882
 7515SOL    MW429834   5.584   0.334   1.954  0.5165 -0.3797 -0.5019
 7516SOL     OW29835   1.006   2.468   6.259  0.7048 -0.2719  0.2080
 7516SOL    HW229836   0.988   2.484   6.167 -2.3635 -1.3972  0.5321
 7516SOL    HW329837   1.095   2.432   6.260  0.8164 -0.2204 -2.2630
 7516SOL    MW429838   1.016   2.465   6.247  0.3147 -0.4136 -0.0752
 7517SOL     OW29839   4.840   0.499   5.554  0.1465 -0.0018  0.1160
 7517SOL    HW229840   4.809   0.589   5.555 -1.7594 -0.5787 -1.1256
 7517SOL    HW329841   4.807   0.460   5.635  0.1660  0.1597  0.2007
 7517SOL    MW429842   4.832   0.506   5.565 -0.1024 -0.0566 -0.0366
 7518SOL     OW29843   1.119   3.260   1.533 -0.1013  0.5617  0.2696
 7518SOL    HW229844   1.179   3.312   1.588 -1.2861  2.3641 -0.0614
 7518SOL    HW329845   1.173   3.187   1.502  1.7398  1.7345  0.5295
 7518SOL    MW429846   1.134   3.257   1.537 -0.0147  0.9543  0.2602
 7519SOL     OW29847   2.216   1.951   0.471  0.4024 -0.0591  0.2910
 7519SOL    HW229848   2.214   1.862   0.506  1.9750 -0.8530 -1.4885
 7519SOL    HW329849   2.309   1.971   0.464  0.0754  1.1625 -0.7313
 7519SOL    MW429850   2.228   1.942   0.475  0.5668 -0.0027 -0.0787
 7520SOL     OW29851   3.940   3.838   3.677  0.1177  0.2591 -0.1733
 7520SOL    HW229852   3.854   3.819   3.639 -0.1285  1.0256 -0.0243
 7520SOL    HW329853   3.989   3.757   3.667 -2.0466 -1.8512  3.8728
 7520SOL    MW429854   3.935   3.825   3.671 -0.2003  0.0818  0.3802
 7521SOL     OW29855   3.590   3.835   2.037 -0.0106  0.3556  0.2242
 7521SOL    HW229856   3.597   3.908   2.099 -0.1848 -0.9937  1.9002
 7521SOL    HW329857   3.676   3.792   2.040 -0.3285 -0.2923  0.2725
 7521SOL    MW429858   3.602   3.839   2.046 -0.0755  0.0921  0.4517
 7522SOL     OW29859   2.661   5.150   0.585  0.3355 -0.1739  0.0680
 7522SOL    HW229860   2.632   5.232   0.623 -0.4636 -0.1977 -0.4831
 7522SOL    HW329861   2.657   5.087   0.658 -0.6588 -0.0985  0.0802
 7522SOL    MW429862   2.657   5.152   0.600  0.0989 -0.1671 -0.0031
 7523SOL     OW29863   3.829   1.154   5.165 -0.1976 -0.7234 -0.4144
 7523SOL    HW229864   3.743   1.195   5.167 -0.5080 -1.3682  1.0894
 7523SOL    HW329865   3.879   1.205   5.101 -0.3996  2.3080  1.6256
 7523SOL    MW429866   3.824   1.166   5.157 -0.2652 -0.4085  0.0532
 7524SOL     OW29867   2.210   5.335   4.118  0.0395 -0.5009 -0.0552
 7524SOL    HW229868   2.302   5.313   4.135  0.0691 -0.4808 -0.1896
 7524SOL    HW329869   2.186   5.280   4.044 -0.2610 -1.0212  0.4167
 7524SOL    MW429870   2.219   5.325   4.111  0.0038 -0.5669 -0.0107
 7525SOL     OW29871   1.675   1.476   1.070 -0.3812  0.9594 -0.1156
 7525SOL    HW229872   1.630   1.394   1.054 -0.0250  0.7336  0.0366
 7525SOL    HW329873   1.614   1.527   1.124  0.0810  0.1363  1.2163
 7525SOL    MW429874   1.661   1.472   1.075 -0.2732  0.8210  0.0802
 7526SOL     OW29875   4.218   2.753   6.344 -0.5103  0.2528 -0.0283
 7526SOL    HW229876   4.287   2.694   6.313 -1.4118 -0.3453 -0.9414
 7526SOL    HW329877   4.182   2.709   6.421  0.9432  1.1832  1.2655
 7526SOL    MW429878   4.223   2.739   6.350 -0.4375  0.2966  0.0219
 7527SOL     OW29879   4.690   0.320   3.052  0.4620 -0.6349 -0.4947
 7527SOL    HW229880   4.710   0.293   3.142  3.1379 -0.2103 -0.8678
 7527SOL    HW329881   4.644   0.403   3.061 -0.1970 -1.0899  0.4802
 7527SOL    MW429882   4.687   0.327   3.065  0.7281 -0.6389 -0.4153
 7528SOL     OW29883   0.412   0.877   1.684  0.3652 -0.3009 -0.0382
 7528SOL    HW229884   0.347   0.818   1.720 -0.6917 -0.5264 -2.1594
 7528SOL    HW329885   0.381   0.896   1.595  1.4116  2.3102  0.0556
 7528SOL    MW429886   0.400   0.872   1.677  0.3638  0.0138 -0.3057
 7529SOL     OW29887   5.433   0.453   1.150  0.1371  0.4988  0.0605
 7529SOL    HW229888   5.422   0.388   1.081 -2.6291  1.2268 -0.3095
 7529SOL    HW329889   5.432   0.403   1.231 -2.2621  0.0268 -0.2023
 7529SOL    MW429890   5.432   0.438   1.151 -0.5444  0.5326 -0.0230
 7530SOL     OW29891   0.100   2.234   1.250 -0.4779  0.7256  0.0778
 7530SOL    HW229892   0.173   2.219   1.310 -0.1232  2.7818  0.2090
 7530SOL    HW329893   0.130   2.200   1.166 -0.1753 -0.2632  0.5640
 7530SOL    MW429894   0.113   2.227   1.247 -0.3912  0.8664  0.1593
 7531SOL     OW29895   0.389   6.029   1.013  0.1690 -0.1409  0.2189
 7531SOL    HW229896   0.404   6.091   0.941  2.5046  0.8182  1.3956
 7531SOL    HW329897   0.343   6.080   1.080 -1.1680 -0.7605 -0.2102
 7531SOL    MW429898   0.385   6.044   1.013  0.3008 -0.0961  0.3175
 7532SOL     OW29899   1.339   5.466   5.230 -0.1846  0.1084  0.3249
 7532SOL    HW229900   1.357   5.411   5.154  1.3282 -2.1288  2.1704
 7532SOL    HW329901   1.269   5.421   5.277  1.3884 -0.6389  2.1101
 7532SOL    MW429902   1.332   5.453   5.226  0.2226 -0.2853  0.8039
 7533SOL     OW29903   3.815   1.480   5.085 -0.3156  0.5162 -0.2415
 7533SOL    HW229904   3.756   1.453   5.014  0.0000 -1.7839  0.2855
 7533SOL    HW329905   3.775   1.444   5.164  1.3654 -0.4314  0.2171
 7533SOL    MW429906   3.802   1.472   5.086 -0.0522  0.0877 -0.1115
 7534SOL     OW29907   2.798   5.147   5.698 -1.1830 -0.1879 -0.9205
 7534SOL    HW229908   2.778   5.165   5.606 -3.2670  2.7372 -0.0347
 7534SOL    HW329909   2.842   5.227   5.729  0.5356 -1.5642  0.4121
 7534SOL    MW429910   2.801   5.160   5.690 -1.2312  0.0165 -0.6278
 7535SOL     OW29911   6.295   4.223   0.081 -0.5421 -0.0123  0.0374
 7535SOL    HW229912   6.309   4.317   0.091 -0.1790 -0.1103  0.4957
 7535SOL    HW329913   6.376   4.191   0.041  0.0739 -0.3920  1.5290
 7535SOL    MW429914   6.308   4.231   0.077 -0.4129 -0.0753  0.2947
 7536SOL     OW29915   3.302   3.592   4.118 -0.0522 -1.2459  0.1062
 7536SOL    HW229916   3.272   3.665   4.173  0.1549 -2.9878  2.6632
 7536SOL    HW329917   3.222   3.544   4.097  0.0733 -1.5891  0.4101
 7536SOL    MW429918   3.287   3.596   4.122 -0.0083 -1.5210  0.4837
 7537SOL     OW29919   3.941   1.130   1.407 -0.3115 -0.1015  0.0485
 7537SOL    HW229920   3.959   1.171   1.322 -2.3291 -0.2674 -0.5004
 7537SOL    HW329921   3.892   1.195   1.456 -1.2463 -0.8749  0.1646
 7537SOL    MW429922   3.937   1.144   1.402 -0.7011 -0.2254 -0.0086
 7538SOL     OW29923   1.506   3.698   4.992  0.6890  0.8197 -0.9109
 7538SOL    HW229924   1.544   3.710   4.905 -0.7755  0.6625 -1.5985
 7538SOL    HW329925   1.439   3.766   4.998  1.6763  1.7141  0.6519
 7538SOL    MW429926   1.502   3.709   4.981  0.6261  0.9170 -0.7954
 7539SOL     OW29927   6.368   0.480   1.910  0.2212  0.4692 -0.0384
 7539SOL    HW229928   6.289   0.448   1.866  1.3341 -0.3951 -1.4809
 7539SOL    HW329929   6.437   0.422   1.880  1.3597  0.9418  1.5420
 7539SOL    MW429930   6.366   0.468   1.900  0.5182  0.4175 -0.0202
 7540SOL     OW29931   5.208   2.304   0.622 -0.2221 -0.0737 -0.8347
 7540SOL    HW229932   5.212   2.216   0.658 -1.8961 -0.3096 -1.1462
 7540SOL    HW329933   5.262   2.301   0.543 -0.7848 -1.0170 -1.1938
 7540SOL    MW429934   5.216   2.292   0.616 -0.5172 -0.2293 -0.9232
 7541SOL     OW29935   3.644   0.223   4.700 -0.0124  0.1139  0.2611
 7541SOL    HW229936   3.626   0.272   4.781 -1.3597  0.2451 -0.0860
 7541SOL    HW329937   3.725   0.175   4.718  0.0057  0.5759  1.4918
 7541SOL    MW429938   3.652   0.223   4.713 -0.1877  0.1922  0.3777
 7542SOL     OW29939   1.492   0.142   3.404 -0.0194 -0.3231 -0.3106
 7542SOL    HW229940   1.536   0.226   3.414  0.8443 -0.6663 -1.0860
 7542SOL    HW329941   1.497   0.102   3.491 -2.4070  1.3121  0.6765
 7542SOL    MW429942   1.498   0.148   3.417 -0.2205 -0.1526 -0.2827
 7543SOL     OW29943   1.421   0.586   2.075 -0.0479  0.3287  0.8917
 7543SOL    HW229944   1.507   0.628   2.078  0.2796 -0.0565 -1.3944
 7543SOL    HW329945   1.364   0.650   2.034 -0.1113 -0.5099 -0.3933
 7543SOL    MW429946   1.425   0.600   2.070 -0.0131  0.1673  0.4205
 7544SOL     OW29947   3.772   4.067   2.861  0.5302  0.0968  1.2353
 7544SOL    HW229948   3.786   3.984   2.906  0.9249 -0.0867  0.7833
 7544SOL    HW329949   3.680   4.063   2.833  1.2221 -1.3995 -1.1301
 7544SOL    MW429950   3.761   4.055   2.863  0.6736 -0.1248  0.8636
 7545SOL     OW29951   1.627   5.410   1.017  0.2730  0.2571  0.0627
 7545SOL    HW229952   1.690   5.481   1.019 -0.9827  1.6888 -3.3738
 7545SOL    HW329953   1.617   5.390   0.924 -0.2985 -3.7080  0.8059
 7545SOL    MW429954   1.634   5.417   1.005  0.0319 -0.0771 -0.2926
 7546SOL     OW29955   5.403   4.877   2.195  0.7419  0.1098 -0.4105
 7546SOL    HW229956   5.326   4.892   2.140 -0.1569  0.6575  0.9448
 7546SOL    HW329957   5.439   4.794   2.164  0.6602  0.7026 -2.2454
 7546SOL    MW429958   5.398   4.868   2.184  0.6125  0.2603 -0.4738
 7547SOL     OW29959   0.163   0.303   5.432  0.0877 -0.4915  0.2580
 7547SOL    HW229960   0.139   0.391   5.403  0.3991  0.2192  2.0180
 7547SOL    HW329961   0.079   0.256   5.437 -0.0142 -0.5119 -1.2660
 7547SOL    MW429962   0.148   0.308   5.429  0.1154 -0.4004  0.2891
 7548SOL     OW29963   2.591   0.757   2.670  0.2971 -0.2906 -0.1942
 7548SOL    HW229964   2.628   0.809   2.742 -1.4444  0.8154 -0.0445
 7548SOL    HW329965   2.577   0.670   2.708  0.2595  0.0270  0.5348
 7548SOL    MW429966   2.594   0.753   2.685  0.0624 -0.1028 -0.0783
 7549SOL     OW29967   6.288   3.453   3.182 -0.1781  0.2376 -0.1147
 7549SOL    HW229968   6.352   3.446   3.111 -0.9657 -1.4714 -0.7090
 7549SOL    HW329969   6.328   3.403   3.254 -1.9747 -3.4935 -1.4459
 7549SOL    MW429970   6.302   3.445   3.182 -0.5191 -0.4802 -0.3687
 7550SOL     OW29971   2.169   4.907   4.657 -0.1624  0.2160 -0.4277
 7550SOL    HW229972   2.228   4.946   4.593  0.3682 -0.5627 -0.4203
 7550SOL    HW329973   2.111   4.851   4.606 -0.7495  0.7764 -0.4016
 7550SOL    MW429974   2.169   4.905   4.642 -0.1699  0.1872 -0.4233
 7551SOL     OW29975   3.850   3.160   6.422 -0.5127  0.6628  0.2228
 7551SOL    HW229976   3.802   3.243   6.428 -0.9568  0.3768  0.7173
 7551SOL    HW329977   3.798   3.107   6.362  0.5319  1.2384 -1.2463
 7551SOL    MW429978   3.837   3.164   6.415 -0.4334  0.7010  0.0942
 7552SOL     OW29979   4.274   0.344   5.602 -0.2937 -0.8973  0.2731
 7552SOL    HW229980   4.343   0.348   5.668 -0.5957 -1.5520  0.6403
 7552SOL    HW329981   4.298   0.411   5.538 -0.4734  0.4025  1.5044
 7552SOL    MW429982   4.286   0.353   5.603 -0.3572 -0.8122  0.4840
 7553SOL     OW29983   5.181   5.543   1.352  0.0679 -0.6103 -0.1909
 7553SOL    HW229984   5.191   5.529   1.446 -0.8681 -0.4473 -0.0566
 7553SOL    HW329985   5.175   5.455   1.315 -1.7835 -0.6742  0.1766
 7553SOL    MW429986   5.181   5.530   1.360 -0.2998 -0.5973 -0.1247
 7554SOL     OW29987   1.825   3.154   3.706  0.7753 -0.4556 -0.3516
 7554SOL    HW229988   1.807   3.170   3.614 -0.0572  1.7099  0.1254
 7554SOL    HW329989   1.891   3.219   3.730  0.3957 -0.4589  0.7558
 7554SOL    MW429990   1.831   3.165   3.697  0.6154 -0.1703 -0.1425
 7555SOL     OW29991   2.895   0.574   2.362 -0.6389  0.1404 -0.2549
 7555SOL    HW229992   2.920   0.639   2.428  0.0961  1.6700 -1.9586
 7555SOL    HW329993   2.804   0.553   2.383 -1.2465  2.5100 -0.2088
 7555SOL    MW429994   2.886   0.579   2.374 -0.6221  0.6549 -0.4736
 7556SOL     OW29995   0.298   3.941   2.059 -0.2723 -0.0040 -0.2072
 7556SOL    HW229996   0.229   3.876   2.050 -1.0680  0.3809  2.3557
 7556SOL    HW329997   0.263   4.005   2.121  1.6994  1.1781 -0.2312
 7556SOL    MW429998   0.284   3.941   2.066 -0.1171  0.2028  0.1277
 7557SOL     OW29999   1.764   6.272   4.860 -0.8939 -0.2793  0.0294
 7557SOL    HW230000   1.729   6.360   4.844 -0.9181 -0.4555 -0.9153
 7557SOL    HW330001   1.758   6.262   4.955  0.3525  1.2596  0.3145
 7557SOL    MW430002   1.758   6.283   4.871 -0.7327 -0.0995 -0.0576
 7558SOL     OW30003   0.864   5.559   3.806  0.3691  0.4958 -0.4738
 7558SOL    HW230004   0.847   5.606   3.888  0.2471 -1.0648  0.4306
 7558SOL    HW330005   0.791   5.498   3.798  1.6574 -1.1122 -0.4217
 7558SOL    MW430006   0.852   5.557   3.816  0.5230  0.0777 -0.3476
 7559SOL     OW30007   2.994   4.990   2.713 -0.8813 -0.0497  0.4285
 7559SOL    HW230008   2.973   4.926   2.781 -1.9332 -0.8820 -0.6214
 7559SOL    HW330009   3.010   4.936   2.635  1.4920  0.7939  0.2691
 7559SOL    MW430010   2.993   4.974   2.712 -0.7070 -0.0482  0.2689
 7560SOL     OW30011   3.896   4.731   1.356  0.1919 -0.6791 -0.5742
 7560SOL    HW230012   3.936   4.706   1.272 -0.1919  0.0943 -1.0045
 7560SOL    HW330013   3.941   4.811   1.381  0.1765 -0.8074 -0.1305
 7560SOL    MW430014   3.907   4.738   1.348  0.1393 -0.5940 -0.5724
 7561SOL     OW30015   3.826   6.313   5.457  0.0455  0.0151  0.0895
 7561SOL    HW230016   3.771   6.290   5.531 -1.1946  0.4530 -0.6710
 7561SOL    HW330017   3.786   6.270   5.381 -1.0620  2.6821 -0.9840
 7561SOL    MW430018   3.814   6.305   5.456 -0.2642  0.4248 -0.1524
 7562SOL     OW30019   2.099   3.645   4.649  0.1683  0.4026  0.5873
 7562SOL    HW230020   2.050   3.656   4.567 -0.1195  0.9023  0.8211
 7562SOL    HW330021   2.091   3.551   4.669 -0.4163  0.4193  0.4489
 7562SOL    MW430022   2.091   3.634   4.641  0.0532  0.4707  0.5999
 7563SOL     OW30023   3.911   0.013   2.804 -0.0947 -1.2886 -0.2599
 7563SOL    HW230024   3.885   0.084   2.745 -0.0064  0.7495  1.9630
 7563SOL    HW330025   3.829  -0.027   2.831 -0.5076  0.3816  1.1753
 7563SOL    MW430026   3.897   0.017   2.800 -0.1375 -0.7993  0.2227
 7564SOL     OW30027   1.162   4.937   4.645 -0.2315 -0.1042  0.1846
 7564SOL    HW230028   1.070   4.914   4.662 -0.6079  0.4206 -0.9974
 7564SOL    HW330029   1.166   5.032   4.657  0.0304 -0.0595 -0.2212
 7564SOL    MW430030   1.150   4.946   4.649 -0.2466 -0.0291 -0.0249
 7565SOL     OW30031   5.166   6.283   0.540 -0.0544 -0.1613 -0.5417
 7565SOL    HW230032   5.140   6.325   0.622  1.2753 -0.5883  0.1327
 7565SOL    HW330033   5.177   6.191   0.562 -1.8081 -0.7204 -1.7415
 7565SOL    MW430034   5.164   6.276   0.553 -0.1103 -0.2914 -0.6110
 7566SOL     OW30035   4.744   3.530   3.434  0.1299 -0.1100 -0.2391
 7566SOL    HW230036   4.727   3.439   3.455  1.8446  0.1377  2.8946
 7566SOL    HW330037   4.659   3.573   3.438 -0.2569 -0.9772  2.1980
 7566SOL    MW430038   4.731   3.524   3.437  0.3051 -0.1917  0.4959
 7567SOL     OW30039   2.037   6.039   1.804  0.4630  0.3939 -0.2504
 7567SOL    HW230040   2.006   5.966   1.858  0.1480  0.9223  0.2925
 7567SOL    HW330041   1.960   6.095   1.793  1.3046  2.0285  1.5864
 7567SOL    MW430042   2.023   6.037   1.809  0.5325  0.6793  0.0636
 7568SOL     OW30043   6.137   3.202   3.089  0.0027  0.6253 -0.5625
 7568SOL    HW230044   6.152   3.285   3.134 -2.8993  0.3492  1.1266
 7568SOL    HW330045   6.098   3.226   3.005  0.1250  0.9945 -0.5130
 7568SOL    MW430046   6.134   3.216   3.084 -0.3640  0.6376 -0.3331
 7569SOL     OW30047   4.190   0.125   5.143  0.1146  0.2082 -0.4160
 7569SOL    HW230048   4.194   0.111   5.237 -0.2806 -1.0497 -0.5597
 7569SOL    HW330049   4.174   0.219   5.132  2.8864  0.8871  0.6850
 7569SOL    MW430050   4.188   0.135   5.154  0.4282  0.1318 -0.2897
 7570SOL     OW30051   0.211   2.655   0.714  0.0178  0.3443  0.7017
 7570SOL    HW230052   0.273   2.588   0.686 -0.3703  0.3280 -0.1332
 7570SOL    HW330053   0.130   2.608   0.731  0.1275  0.4140  1.4721
 7570SOL    MW430054   0.209   2.640   0.712 -0.0189  0.3514  0.6932
 7571SOL     OW30055   4.815   4.932   6.246  0.2389  0.5683 -0.0153
 7571SOL    HW230056   4.889   4.980   6.283  2.2865  1.3999 -4.4544
 7571SOL    HW330057   4.827   4.941   6.151 -4.1476 -1.5749 -0.9986
 7571SOL    MW430058   4.826   4.940   6.238 -0.0697  0.3953 -0.7307
 7572SOL     OW30059   5.311   3.245   2.212 -0.9214 -0.0928  0.1740
 7572SOL    HW230060   5.228   3.292   2.203 -0.9858  0.1341  1.6565
 7572SOL    HW330061   5.375   3.313   2.234 -0.4657 -0.3571 -0.3034
 7572SOL    MW430062   5.309   3.260   2.214 -0.8698 -0.0977  0.3066
 7573SOL     OW30063   2.138   1.476   1.893 -0.1311 -0.3238  0.2305
 7573SOL    HW230064   2.197   1.551   1.891  0.6275 -0.9055 -1.3050
 7573SOL    HW330065   2.155   1.434   1.977  1.5929 -0.4066 -0.1232
 7573SOL    MW430066   2.148   1.480   1.904  0.1964 -0.4115 -0.0188
 7574SOL     OW30067   1.978   4.300   4.564  0.1718  0.0085  0.3213
 7574SOL    HW230068   2.054   4.251   4.595 -1.3537 -2.2543  0.7311
 7574SOL    HW330069   2.007   4.391   4.561  2.7539 -0.7352  0.8073
 7574SOL    MW430070   1.992   4.305   4.567  0.3112 -0.3882  0.4395
 7575SOL     OW30071   5.139   1.647   0.202 -0.1217 -0.0298 -0.2417
 7575SOL    HW230072   5.188   1.720   0.163 -0.3309 -0.1138 -0.6626
 7575SOL    HW330073   5.057   1.686   0.231 -0.5054 -0.2302 -1.0571
 7575SOL    MW430074   5.135   1.662   0.201 -0.1999 -0.0673 -0.4048
 7576SOL     OW30075   1.165   1.953   3.462 -0.6431 -0.8654 -0.4660
 7576SOL    HW230076   1.169   1.901   3.382 -1.5972 -0.7750 -0.5783
 7576SOL    HW330077   1.149   1.889   3.531  1.1993 -1.0786 -0.1751
 7576SOL    MW430078   1.163   1.938   3.460 -0.5259 -0.8816 -0.4424
 7577SOL     OW30079   5.114   1.353   0.844  0.2262 -0.3523  0.1798
 7577SOL    HW230080   5.027   1.377   0.876  0.0340 -1.5996  0.6468
 7577SOL    HW330081   5.172   1.369   0.919 -0.0983 -2.4651  0.9615
 7577SOL    MW430082   5.110   1.358   0.858  0.1580 -0.7956  0.3446
 7578SOL     OW30083   5.427   3.810   3.698  0.4285  0.3779 -0.1101
 7578SOL    HW230084   5.466   3.834   3.783 -0.8124  2.7567 -0.1475
 7578SOL    HW330085   5.372   3.734   3.718  0.9844  0.2341  0.9778
 7578SOL    MW430086   5.425   3.803   3.712  0.3381  0.6728  0.0285
 7579SOL     OW30087   6.379   5.220   2.756  0.6820  0.3510 -0.1979
 7579SOL    HW230088   6.301   5.266   2.725  0.8547  0.7413 -0.0623
 7579SOL    HW330089   6.346   5.135   2.787  0.3974  0.2847 -0.6839
 7579SOL    MW430090   6.364   5.215   2.756  0.6672  0.3938 -0.2441
 7580SOL     OW30091   1.712   4.307   1.726  0.1440 -0.2799 -0.0724
 7580SOL    HW230092   1.716   4.333   1.634  0.2482  1.5937  0.4244
 7580SOL    HW330093   1.771   4.369   1.771  1.7081 -2.4326  1.0122
 7580SOL    MW430094   1.721   4.319   1.720  0.3641 -0.3167  0.1363
 7581SOL     OW30095   4.710   1.516   1.125 -0.5361 -0.0387 -0.0871
 7581SOL    HW230096   4.734   1.434   1.168  0.2251  0.0551 -0.3170
 7581SOL    HW330097   4.751   1.584   1.179 -0.6076  0.1455 -0.2639
 7581SOL    MW430098   4.719   1.514   1.138 -0.4451 -0.0020 -0.1408
 7582SOL     OW30099   6.089   5.594   1.210  0.1198  0.4851 -0.1489
 7582SOL    HW230100   6.089   5.662   1.142 -0.0524  0.8595  0.2211
 7582SOL    HW330101   6.084   5.643   1.292  1.5667  0.0917  0.1982
 7582SOL    MW430102   6.088   5.610   1.212  0.2880  0.4826 -0.0543
 7583SOL     OW30103   1.679   0.110   3.809  0.0219  0.4799  0.3002
 7583SOL    HW230104   1.743   0.039   3.804  1.6066  1.8805 -0.3705
 7583SOL    HW330105   1.662   0.121   3.903  0.5103 -0.1463  0.4652
 7583SOL    MW430106   1.685   0.102   3.821  0.2954  0.5821  0.2335
 7584SOL     OW30107   4.174   6.063   3.752 -0.4518  0.5751  0.0849
 7584SOL    HW230108   4.091   6.032   3.715 -0.0393  0.2815 -0.6083
 7584SOL    HW330109   4.173   6.031   3.842 -0.9021  0.2098 -0.0445
 7584SOL    MW430110   4.163   6.055   3.759 -0.4567  0.4881 -0.0236
 7585SOL     OW30111   5.485   4.174   5.931  0.1642 -0.4389 -0.2943
 7585SOL    HW230112   5.457   4.185   5.840  2.1514 -2.1531 -1.1939
 7585SOL    HW330113   5.403   4.170   5.981 -0.9427  1.8423 -1.7879
 7585SOL    MW430114   5.471   4.175   5.926  0.2803 -0.3641 -0.6100
 7586SOL     OW30115   5.359   2.423   5.721  0.2177  0.1944  0.2606
 7586SOL    HW230116   5.407   2.489   5.672 -1.2339  1.5815  0.6382
 7586SOL    HW330117   5.412   2.409   5.800  0.7290  0.6363  0.0034
 7586SOL    MW430118   5.372   2.430   5.725  0.0936  0.4357  0.2765
 7587SOL     OW30119   4.544   0.789   0.119 -0.2802 -0.5526  0.0665
 7587SOL    HW230120   4.628   0.833   0.105 -0.9179  0.5775 -0.3668
 7587SOL    HW330121   4.531   0.737   0.040  0.7516 -2.0313  0.8294
 7587SOL    MW430122   4.553   0.788   0.107 -0.2282 -0.5986  0.1100
 7588SOL     OW30123   4.252   1.327   0.996 -0.2992  0.2317 -0.3393
 7588SOL    HW230124   4.308   1.386   1.046 -0.6716  1.1449 -0.9834
 7588SOL    HW330125   4.311   1.257   0.968  0.1003  0.1638  0.6211
 7588SOL    MW430126   4.267   1.326   0.999 -0.2956  0.3432 -0.2975
 7589SOL     OW30127   0.184   5.747   4.158  0.0374 -0.5108  0.2887
 7589SOL    HW230128   0.159   5.810   4.226  0.2497  1.0014 -0.9961
 7589SOL    HW330129   0.236   5.681   4.205  0.4311  0.6510  1.5421
 7589SOL    MW430130   0.188   5.746   4.174  0.1174 -0.1580  0.2845
 7590SOL     OW30131   6.310   5.573   3.007 -0.0830  0.5130  0.1874
 7590SOL    HW230132   6.280   5.555   2.918 -0.4085 -0.2907  0.4543
 7590SOL    HW330133   6.392   5.621   2.995  1.7680 -2.5410 -0.6176
 7590SOL    MW430134   6.317   5.577   2.994  0.1183  0.0040  0.1164
 7591SOL     OW30135   6.126   6.320   1.817 -0.3926  0.4295 -0.2468
 7591SOL    HW230136   6.161   6.307   1.905 -0.7829  1.9628  0.1611
 7591SOL    HW330137   6.070   6.397   1.824 -0.6562  0.4146 -1.7850
 7591SOL    MW430138   6.123   6.328   1.830 -0.4789  0.6298 -0.3960
 7592SOL     OW30139   5.341   6.385   3.682  0.1414 -0.1595  0.3041
 7592SOL    HW230140   5.414   6.353   3.735 -1.5882 -0.7683  2.4383
 7592SOL    HW330141   5.325   6.315   3.619 -0.9996 -1.7943  2.3122
 7592SOL    MW430142   5.349   6.372   3.681 -0.2373 -0.4555  0.8506
 7593SOL     OW30143   5.470   3.558   1.410  0.2949 -0.0033 -0.2724
 7593SOL    HW230144   5.451   3.651   1.399  0.0337  0.1387  1.2358
 7593SOL    HW330145   5.385   3.516   1.416  0.3947 -0.4592 -1.5719
 7593SOL    MW430146   5.457   3.565   1.409  0.2736 -0.0447 -0.2449
 7594SOL     OW30147   3.252   4.545   1.510  0.4890 -0.3810  0.1056
 7594SOL    HW230148   3.165   4.567   1.477  0.8296  0.1273 -0.4810
 7594SOL    HW330149   3.277   4.467   1.461  0.0432 -1.0080  0.8527
 7594SOL    MW430150   3.244   4.538   1.499  0.4751 -0.3967  0.1268
 7595SOL     OW30151   0.618   0.964   6.046 -0.2024  0.2311 -0.2557
 7595SOL    HW230152   0.565   0.891   6.015 -1.1718  0.5627  0.5778
 7595SOL    HW330153   0.628   0.949   6.140  0.9816  0.3163 -0.3452
 7595SOL    MW430154   0.612   0.952   6.054 -0.1741  0.2861 -0.1575
 7596SOL     OW30155   3.573   5.110   3.170  0.0990 -0.1755  0.0440
 7596SOL    HW230156   3.632   5.183   3.185  0.0730 -0.0608 -0.4198
 7596SOL    HW330157   3.490   5.150   3.145 -0.5280 -0.2826  1.7676
 7596SOL    MW430158   3.569   5.125   3.169  0.0129 -0.1745  0.2102
 7597SOL     OW30159   2.406   3.933   1.231 -0.6414 -0.1174 -0.4698
 7597SOL    HW230160   2.371   3.952   1.144  1.2444  0.5776 -1.1284
 7597SOL    HW330161   2.491   3.977   1.233 -1.0708  0.7719  2.1327
 7597SOL    MW430162   2.413   3.941   1.220 -0.4492  0.0917 -0.2133
 7598SOL     OW30163   5.721   4.797   5.377 -0.6352 -0.5974  0.1837
 7598SOL    HW230164   5.735   4.716   5.425  2.2953  0.3747  1.1517
 7598SOL    HW330165   5.653   4.843   5.426 -1.5221 -1.9054  0.2494
 7598SOL    MW430166   5.714   4.793   5.390 -0.3656 -0.6417  0.3201
 7599SOL     OW30167   3.622   4.464   1.220  0.0578  0.2492 -0.2688
 7599SOL    HW230168   3.670   4.500   1.295 -0.0074  0.1292 -0.1691
 7599SOL    HW330169   3.686   4.408   1.176 -0.5985 -1.7105  1.1287
 7599SOL    MW430170   3.637   4.462   1.224 -0.0374 -0.0252 -0.0712
 7600SOL     OW30171   6.315   1.546   2.952 -0.7555  0.2005 -0.4496
 7600SOL    HW230172   6.311   1.493   3.031 -0.5835 -0.4023 -0.8468
 7600SOL    HW330173   6.324   1.484   2.880  0.2709  0.8021 -0.8594
 7600SOL    MW430174   6.315   1.531   2.953 -0.5974  0.2004 -0.5561
 7601SOL     OW30175   3.431   2.983   0.233 -0.5491 -0.6993  0.1472
 7601SOL    HW230176   3.415   3.033   0.153 -0.2380  0.1711  0.6132
 7601SOL    HW330177   3.350   2.933   0.246 -0.3217 -1.4464 -1.1059
 7601SOL    MW430178   3.418   2.983   0.224 -0.4780 -0.6830  0.0434
 7602SOL     OW30179   4.044   4.489   3.199 -0.5231 -0.3787  0.5695
 7602SOL    HW230180   3.969   4.518   3.147 -0.3264 -0.1124  0.4306
 7602SOL    HW330181   4.105   4.562   3.196 -0.5116 -0.3580  1.1869
 7602SOL    MW430182   4.042   4.502   3.192 -0.4956 -0.3409  0.6326
 7603SOL     OW30183   5.163   0.386   6.166  0.6570  0.3972  0.6063
 7603SOL    HW230184   5.087   0.329   6.157 -1.3765  3.0830 -0.6339
 7603SOL    HW330185   5.146   0.438   6.245  0.0191  2.4911 -0.8151
 7603SOL    MW430186   5.151   0.385   6.175  0.3045  1.0278  0.2552
 7604SOL     OW30187   0.702   0.385   4.107 -0.0674  0.8936 -0.0233
 7604SOL    HW230188   0.627   0.410   4.053  0.7314  1.3601 -0.9562
 7604SOL    HW330189   0.778   0.402   4.051  0.6520 -3.1108 -0.6243
 7604SOL    MW430190   0.702   0.390   4.092  0.1329  0.4268 -0.2257
 7605SOL     OW30191   3.903   2.402   6.229  0.2228  0.1617  0.1317
 7605SOL    HW230192   3.847   2.325   6.221 -2.1282  1.6767  1.0042
 7605SOL    HW330193   3.939   2.415   6.141 -2.1440  0.0627 -0.9101
 7605SOL    MW430194   3.900   2.394   6.217 -0.3997  0.3485  0.1093
 7606SOL     OW30195   5.954   5.522   0.873 -0.1152 -0.2062  0.4724
 7606SOL    HW230196   5.989   5.604   0.907 -0.0794 -0.2537  0.5506
 7606SOL    HW330197   5.877   5.504   0.927 -0.0325 -0.3047  0.5584
 7606SOL    MW430198   5.948   5.530   0.885 -0.0996 -0.2255  0.4941
 7607SOL     OW30199   1.889   0.136   4.303  0.1716  0.3430  0.2445
 7607SOL    HW230200   1.983   0.145   4.283  0.3024  0.7270  1.0003
 7607SOL    HW330201   1.863   0.054   4.260  0.8360  0.2688 -0.0305
 7607SOL    MW430202   1.898   0.126   4.295  0.2765  0.3839  0.3079
 7608SOL     OW30203   1.268   5.330   3.807 -0.3192  0.1587  0.0512
 7608SOL    HW230204   1.272   5.382   3.727 -2.0039  0.2420 -0.0130
 7608SOL    HW330205   1.333   5.261   3.795  0.5784  1.1018 -0.6893
 7608SOL    MW430206   1.277   5.328   3.795 -0.4230  0.2941 -0.0550
 7609SOL     OW30207   2.765   5.837   4.236 -0.2949 -0.1918 -0.0886
 7609SOL    HW230208   2.685   5.889   4.231  1.7599  3.1694 -1.5378
 7609SOL    HW330209   2.755   5.770   4.169 -1.7150  0.4386 -0.5385
 7609SOL    MW430210   2.753   5.835   4.227 -0.2112  0.3348 -0.3392
 7610SOL     OW30211   2.020   5.134   3.669 -0.3847  0.5514  0.0062
 7610SOL    HW230212   1.926   5.124   3.678 -0.4212  0.2929 -0.6140
 7610SOL    HW330213   2.052   5.144   3.758 -0.7288 -1.7298  0.4406
 7610SOL    MW430214   2.012   5.134   3.682 -0.4349  0.2163 -0.0183
 7611SOL     OW30215   1.457   2.321   4.170 -0.2854 -0.1921 -0.3040
 7611SOL    HW230216   1.364   2.325   4.147  0.0249 -2.7329 -2.5835
 7611SOL    HW330217   1.498   2.389   4.116 -0.6782  0.1290 -0.1993
 7611SOL    MW430218   1.451   2.330   4.160 -0.2963 -0.4849 -0.5909
 7612SOL     OW30219   1.762   5.636   5.398 -0.6726  0.3243  0.2155
 7612SOL    HW230220   1.770   5.616   5.304  1.4168 -0.1706  0.4538
 7612SOL    HW330221   1.809   5.719   5.408  0.1565 -0.2214  0.9939
 7612SOL    MW430222   1.769   5.645   5.387 -0.2876  0.1870  0.3496
 7613SOL     OW30223   4.114   5.660   3.408  0.1229 -0.8880  0.4264
 7613SOL    HW230224   4.089   5.644   3.499  1.2388 -2.3457  0.5048
 7613SOL    HW330225   4.087   5.581   3.361 -0.7417 -0.0214 -0.6017
 7613SOL    MW430226   4.107   5.648   3.414  0.1561 -0.9660  0.3011
 7614SOL     OW30227   5.413   3.412   1.142 -0.2685  0.4311  0.2055
 7614SOL    HW230228   5.497   3.384   1.107 -0.6470 -0.8758  0.3032
 7614SOL    HW330229   5.434   3.450   1.227 -0.0617 -3.4987  2.1438
 7614SOL    MW430230   5.427   3.413   1.149 -0.2912 -0.2598  0.4741
 7615SOL     OW30231   1.506   3.680   6.112 -0.3939 -0.6963  0.3171
 7615SOL    HW230232   1.571   3.666   6.181 -0.0734 -1.5704 -0.1512
 7615SOL    HW330233   1.510   3.774   6.094  0.9370 -0.7769  0.1081
 7615SOL    MW430234   1.515   3.691   6.118 -0.1760 -0.8223  0.2277
 7616SOL     OW30235   0.081   3.946   0.617  0.0033 -0.5322 -0.3080
 7616SOL    HW230236   0.158   3.905   0.577 -0.2091  0.6025 -2.0083
 7616SOL    HW330237   0.099   3.944   0.711  2.4714  0.3530 -0.6812
 7616SOL    MW430238   0.094   3.940   0.624  0.3009 -0.2657 -0.5816
 7617SOL     OW30239   0.856   1.409   4.734 -0.3225 -0.1800  0.5842
 7617SOL    HW230240   0.791   1.439   4.797  0.6932 -1.2248  2.2202
 7617SOL    HW330241   0.927   1.375   4.788  0.6378 -1.0529 -1.1506
 7617SOL    MW430242   0.857   1.409   4.750 -0.0618 -0.4330  0.5712
 7618SOL     OW30243   0.946   0.435   3.943 -0.0394 -0.9968  0.3092
 7618SOL    HW230244   0.981   0.517   3.909  0.1588 -0.8332  0.9031
 7618SOL    HW330245   0.921   0.386   3.865 -0.3676 -0.2811 -0.0469
 7618SOL    MW430246   0.947   0.439   3.928 -0.0566 -0.8808  0.3406
 7619SOL     OW30247   5.841   5.206   5.196 -0.3920 -0.5132  0.2956
 7619SOL    HW230248   5.777   5.234   5.261 -0.2760 -1.5402  0.8888
 7619SOL    HW330249   5.878   5.287   5.161 -0.5884  0.0739  1.3909
 7619SOL    MW430250   5.838   5.220   5.200 -0.4026 -0.5712  0.5183
 7620SOL     OW30251   2.279   5.912   5.449 -0.9494 -0.6389 -0.1279
 7620SOL    HW230252   2.354   5.950   5.494 -1.3671 -1.0877  0.9911
 7620SOL    HW330253   2.307   5.824   5.426 -0.2977 -0.0147 -1.9207
 7620SOL    MW430254   2.292   5.906   5.452 -0.9185 -0.6157 -0.2168
 7621SOL     OW30255   4.896   2.770   6.257  0.2123  0.0343 -0.6310
 7621SOL    HW230256   4.801   2.777   6.241  0.2926  0.4938 -0.9137
 7621SOL    HW330257   4.906   2.795   6.349  0.0633  0.0338 -0.6133
 7621SOL    MW430258   4.885   2.774   6.267  0.2032  0.0949 -0.6660
 7622SOL     OW30259   1.526   1.975   2.921 -0.5087  0.5472 -0.2442
 7622SOL    HW230260   1.513   1.944   3.011  1.5924  1.1757  0.3498
 7622SOL    HW330261   1.461   2.045   2.910  0.7446  2.1585  1.7300
 7622SOL    MW430262   1.516   1.980   2.931 -0.0661  0.8427  0.0947
 7623SOL     OW30263   5.657   2.876   6.139 -0.3032 -0.0717 -0.0908
 7623SOL    HW230264   5.687   2.958   6.178  2.3664 -0.0458 -1.9504
 7623SOL    HW330265   5.735   2.821   6.135 -2.1036 -3.0563  1.6740
 7623SOL    MW430266   5.671   2.879   6.144 -0.1886 -0.4621 -0.1033
 7624SOL     OW30267   6.101   5.327   4.106  0.4265  0.1137 -0.0467
 7624SOL    HW230268   6.124   5.270   4.179 -0.2389  0.2236  0.2554
 7624SOL    HW330269   6.017   5.292   4.074 -0.0656  1.0179  0.2432
 7624SOL    MW430270   6.093   5.315   4.111  0.2738  0.2475  0.0314
 7625SOL     OW30271   3.702   1.010   1.958 -0.1072  0.2492 -0.1129
 7625SOL    HW230272   3.677   1.068   2.030  0.3427 -0.6090  0.7476
 7625SOL    HW330273   3.739   1.068   1.892  0.0831  0.9726  0.6213
 7625SOL    MW430274   3.704   1.025   1.958 -0.0227  0.2314  0.0975
 7626SOL     OW30275   5.302   5.746   5.325 -0.2256 -0.5043 -0.0364
 7626SOL    HW230276   5.236   5.815   5.334 -0.8040 -0.8251 -1.5538
 7626SOL    HW330277   5.270   5.675   5.381  1.2816  1.0153  2.9987
 7626SOL    MW430278   5.289   5.746   5.333 -0.1031 -0.3461  0.1638
 7627SOL     OW30279   1.998   5.475   1.797 -0.2088 -0.2880  0.1911
 7627SOL    HW230280   1.949   5.393   1.791 -0.6041 -0.0725  0.3665
 7627SOL    HW330281   2.014   5.487   1.891 -2.9493  1.3973  0.5732
 7627SOL    MW430282   1.993   5.466   1.809 -0.6225 -0.0372  0.2647
 7628SOL     OW30283   2.875   4.127   4.985  0.1337 -0.3147 -0.1690
 7628SOL    HW230284   2.913   4.062   4.925 -0.3519 -0.1428 -0.6661
 7628SOL    HW330285   2.780   4.116   4.975  0.0491  0.4185 -0.2014
 7628SOL    MW430286   2.868   4.117   4.975  0.0585 -0.1953 -0.2389
 7629SOL     OW30287   3.533   5.629   4.055 -0.4225  0.2108  0.1447
 7629SOL    HW230288   3.486   5.576   4.120 -0.2919 -0.7456 -0.5204
 7629SOL    HW330289   3.483   5.618   3.974  0.1667  0.3033 -0.2402
 7629SOL    MW430290   3.520   5.620   4.053 -0.3275  0.0968  0.0061
 7630SOL     OW30291   0.453   4.705   1.168  0.6477  0.0962 -0.5560
 7630SOL    HW230292   0.361   4.730   1.172  0.1979 -1.5586  0.8685
 7630SOL    HW330293   0.481   4.729   1.080 -1.1081  0.7308 -0.9871
 7630SOL    MW430294   0.444   4.712   1.157  0.3567 -0.0384 -0.4250
 7631SOL     OW30295   5.275   3.602   3.802 -0.0183 -0.2369 -0.4957
 7631SOL    HW230296   5.319   3.613   3.887  0.0430 -3.0374 -0.0569
 7631SOL    HW330297   5.321   3.529   3.761 -1.9612 -0.9140 -1.6018
 7631SOL    MW430298   5.287   3.594   3.808 -0.2665 -0.6958 -0.5837
 7632SOL     OW30299   0.099   5.111   1.949 -0.2684 -0.3200 -0.2253
 7632SOL    HW230300   0.070   5.202   1.946  0.9343  0.1029  0.3259
 7632SOL    HW330301   0.073   5.080   2.035  2.8804  0.8223  1.3183
 7632SOL    MW430302   0.092   5.119   1.960  0.3057 -0.1135  0.0511
 7633SOL     OW30303   1.283   2.811   2.512 -0.2115  0.5349  0.0713
 7633SOL    HW230304   1.335   2.732   2.527 -2.4839 -0.7430  1.7623
 7633SOL    HW330305   1.225   2.788   2.439 -1.9404  0.0009  1.5511
 7633SOL    MW430306   1.282   2.797   2.504 -0.7394  0.2958  0.4897
 7634SOL     OW30307   1.629   4.613   4.953 -0.1025 -0.0294 -0.5598
 7634SOL    HW230308   1.650   4.647   4.866  1.0565 -1.6388 -0.9782
 7634SOL    HW330309   1.534   4.607   4.954 -0.0916 -2.0628 -2.6423
 7634SOL    MW430310   1.619   4.616   4.941  0.0518 -0.5100 -0.8898
 7635SOL     OW30311   2.521   4.149   2.309  0.3993 -0.5404 -0.0487
 7635SOL    HW230312   2.529   4.091   2.233  0.0585 -0.4794 -0.1331
 7635SOL    HW330313   2.602   4.201   2.307  0.4863 -0.6798 -0.2508
 7635SOL    MW430314   2.533   4.149   2.299  0.3658 -0.5507 -0.0865
 7636SOL     OW30315   1.271   5.996   5.092 -0.0374  0.0860 -0.3764
 7636SOL    HW230316   1.345   6.018   5.037 -1.9388  2.2733 -2.2550
 7636SOL    HW330317   1.261   5.901   5.083  1.4522  0.0155 -1.4588
 7636SOL    MW430318   1.279   5.986   5.084 -0.0917  0.3653 -0.7671
 7637SOL     OW30319   5.941   5.594   2.425 -0.0079 -0.0957 -0.3419
 7637SOL    HW230320   5.851   5.625   2.420 -0.2577 -0.7822 -0.1990
 7637SOL    HW330321   5.957   5.552   2.341  0.6675  1.2843 -0.9333
 7637SOL    MW430322   5.931   5.592   2.413  0.0482 -0.0042 -0.4011
 7638SOL     OW30323   5.620   1.585   5.311 -0.7393 -0.1523 -0.8370
 7638SOL    HW230324   5.607   1.491   5.301 -2.4408  0.0512 -0.7896
 7638SOL    HW330325   5.623   1.600   5.405 -1.7112 -0.0339 -0.8113
 7638SOL    MW430326   5.618   1.575   5.322 -1.0920 -0.1098 -0.8273
 7639SOL     OW30327   2.948   3.414   6.139  0.6010  0.7533 -0.1932
 7639SOL    HW230328   2.989   3.446   6.059 -0.2788 -0.3440 -1.1200
 7639SOL    HW330329   2.994   3.332   6.158 -0.5680 -0.0729 -0.7909
 7639SOL    MW430330   2.960   3.407   6.131  0.3307  0.4995 -0.3943
 7640SOL     OW30331   0.750   6.123   0.761 -0.6191 -0.0081  0.1416
 7640SOL    HW230332   0.777   6.174   0.838 -0.9138  1.6078 -0.7684
 7640SOL    HW330333   0.665   6.086   0.786  0.3373 -1.4728  1.4143
 7640SOL    MW430334   0.742   6.125   0.775 -0.5318  0.0119  0.1895
 7641SOL     OW30335   4.875   5.414   1.027 -0.0968  0.0975 -0.1594
 7641SOL    HW230336   4.800   5.366   1.063 -0.8747  1.3807 -0.0341
 7641SOL    HW330337   4.853   5.427   0.935 -0.0975  0.6289 -0.0831
 7641SOL    MW430338   4.862   5.409   1.019 -0.1996  0.3369 -0.1328
 7642SOL     OW30339   3.662   4.091   5.140  0.1719 -0.0837  0.5966
 7642SOL    HW230340   3.612   4.050   5.210  0.9631 -2.3856 -0.1060
 7642SOL    HW330341   3.748   4.049   5.143  0.2522 -0.2442 -1.7025
 7642SOL    MW430342   3.667   4.080   5.149  0.2869 -0.4086  0.2006
 7643SOL     OW30343   4.970   3.502   4.892  0.4878 -0.1101 -0.1317
 7643SOL    HW230344   4.876   3.488   4.886  0.6771 -1.5739 -0.1928
 7643SOL    HW330345   4.987   3.511   4.986  0.1869  1.0886 -0.1811
 7643SOL    MW430346   4.960   3.501   4.904  0.4731 -0.1451 -0.1463
 7644SOL     OW30347   1.073   4.588   4.032  0.1654 -0.4085  0.4222
 7644SOL    HW230348   1.026   4.510   4.059 -0.3697  0.3532  1.7975
 7644SOL    HW330349   1.109   4.566   3.946 -0.6615 -1.8571  0.4161
 7644SOL    MW430350   1.072   4.575   4.024 -0.0143 -0.4991  0.6028
 7645SOL     OW30351   2.119   4.791   1.334  0.2654 -0.3629  0.0325
 7645SOL    HW230352   2.180   4.781   1.407 -0.7154 -1.8211  0.7108
 7645SOL    HW330353   2.125   4.883   1.309  1.2471 -0.0321  1.3946
 7645SOL    MW430354   2.128   4.802   1.341  0.2655 -0.5116  0.3017
 7646SOL     OW30355   6.351   0.055   2.352 -0.3970  0.5270  0.6238
 7646SOL    HW230356   6.277   0.070   2.411  0.0240  1.6427  0.8982
 7646SOL    HW330357   6.418   0.117   2.381  0.3155  0.1629 -0.1874
 7646SOL    MW430358   6.350   0.066   2.363 -0.2474  0.6262  0.5530
 7647SOL     OW30359   5.711   4.098   2.527  0.7013 -0.0403  0.4257
 7647SOL    HW230360   5.633   4.141   2.493  1.9336  0.6214 -1.7641
 7647SOL    HW330361   5.730   4.144   2.609  0.3978  1.7578 -0.4615
 7647SOL    MW430362   5.703   4.110   2.533  0.8238  0.2842  0.0197
 7648SOL     OW30363   3.950   4.751   2.819 -0.4585  0.5418 -0.2620
 7648SOL    HW230364   3.903   4.684   2.868 -1.4291  0.4279 -1.3173
 7648SOL    HW330365   4.037   4.713   2.804 -0.4378  0.2301  0.5939
 7648SOL    MW430366   3.956   4.737   2.824 -0.5838  0.4857 -0.2883
 7649SOL     OW30367   4.150   6.358   3.731 -0.7850 -0.4958 -0.3831
 7649SOL    HW230368   4.131   6.264   3.730 -2.0499 -0.2878  0.7395
 7649SOL    HW330369   4.069   6.400   3.703  0.0109  0.2596 -1.6393
 7649SOL    MW430370   4.137   6.351   3.727 -0.8469 -0.3687 -0.4007
 7650SOL     OW30371   1.205   2.808   1.270 -0.7386 -0.2353 -0.3833
 7650SOL    HW230372   1.298   2.800   1.292 -0.6536 -0.3202 -0.7777
 7650SOL    HW330373   1.191   2.742   1.202 -0.9286  0.2804 -0.8417
 7650SOL    MW430374   1.215   2.798   1.264 -0.7525 -0.1785 -0.4958
 7651SOL     OW30375   2.881   6.179   5.621  0.6843  0.0606 -0.2128
 7651SOL    HW230376   2.915   6.091   5.606  1.6332  0.0478  1.7604
 7651SOL    HW330377   2.953   6.226   5.663 -1.0576  0.5969  2.3502
 7651SOL    MW430378   2.895   6.173   5.624  0.5797  0.1297  0.3857
 7652SOL     OW30379   5.727   4.573   2.441 -0.3027 -0.0357  0.4414
 7652SOL    HW230380   5.731   4.596   2.534 -1.3451 -0.6780  0.6723
 7652SOL    HW330381   5.791   4.502   2.430  0.6786  0.8380  0.3953
 7652SOL    MW430382   5.736   4.566   2.452 -0.3108 -0.0052  0.4658
 7653SOL     OW30383   1.376   2.100   4.311  0.2838 -0.4862 -0.5123
 7653SOL    HW230384   1.404   2.167   4.249  2.6534 -1.3063 -0.4182
 7653SOL    HW330385   1.377   2.145   4.396  0.0816 -0.1878 -0.6640
 7653SOL    MW430386   1.380   2.115   4.314  0.5698 -0.5550 -0.5199
 7654SOL     OW30387   4.615   2.580   5.674  0.1367 -0.2488 -0.2356
 7654SOL    HW230388   4.599   2.486   5.668  0.0549 -0.1556 -2.2543
 7654SOL    HW330389   4.590   2.614   5.588  1.3623  1.4262  0.0126
 7654SOL    MW430390   4.610   2.572   5.662  0.2876 -0.0155 -0.4692
 7655SOL     OW30391   0.717   3.503   0.121  0.2908 -0.9074  0.3717
 7655SOL    HW230392   0.799   3.482   0.076 -0.0569 -1.9007  0.2006
 7655SOL    HW330393   0.687   3.420   0.158  0.0322 -0.3059  1.5659
 7655SOL    MW430394   0.724   3.490   0.120  0.2108 -0.9591  0.5067
 7656SOL     OW30395   3.625   3.173   3.341 -0.4450  0.2769 -0.0577
 7656SOL    HW230396   3.565   3.119   3.392  1.0381 -1.9755 -0.5643
 7656SOL    HW330397   3.650   3.244   3.400  0.0887 -1.4167  1.8468
 7656SOL    MW430398   3.620   3.175   3.355 -0.1789 -0.2437  0.1267
 7657SOL     OW30399   0.701   1.236   1.625  0.8068 -0.2391 -0.7061
 7657SOL    HW230400   0.775   1.217   1.682  1.0032 -0.9710 -1.1922
 7657SOL    HW330401   0.624   1.215   1.678  0.8813  1.6123  0.2066
 7657SOL    MW430402   0.701   1.231   1.639  0.8425 -0.0914 -0.6498
 7658SOL     OW30403   1.609   5.381   1.825 -0.3963 -0.4936  0.4471
 7658SOL    HW230404   1.561   5.407   1.746 -1.2929  0.1347  1.1728
 7658SOL    HW330405   1.546   5.393   1.896  0.5198 -0.6769  1.3151
 7658SOL    MW430406   1.594   5.386   1.824 -0.3937 -0.4349  0.6574
 7659SOL     OW30407   5.242   0.954   1.894 -0.1444 -0.3999  0.1051
 7659SOL    HW230408   5.220   1.011   1.820  0.0289  0.2052  0.5120
 7659SOL    HW330409   5.197   0.994   1.969 -0.6248 -1.2178  0.2639
 7659SOL    MW430410   5.233   0.967   1.894 -0.1849 -0.4280  0.1797
 7660SOL     OW30411   1.358   5.872   5.497  0.0449 -0.6419 -0.1371
 7660SOL    HW230412   1.389   5.943   5.553 -3.9802  0.0863  1.4725
 7660SOL    HW330413   1.303   5.915   5.431 -0.0196 -2.0373 -1.0526
 7660SOL    MW430414   1.355   5.887   5.495 -0.4946 -0.7299 -0.0455
 7661SOL     OW30415   1.287   2.414   3.824 -0.1527 -0.3009  0.1013
 7661SOL    HW230416   1.303   2.493   3.772  0.5677 -0.0581  0.6677
 7661SOL    HW330417   1.312   2.439   3.913 -0.6848 -0.9299  0.4340
 7661SOL    MW430418   1.293   2.428   3.829 -0.1278 -0.3519  0.2199
 7662SOL     OW30419   0.068   0.074   5.778 -0.6400  0.2838 -0.2940
 7662SOL    HW230420   0.009   0.046   5.708  0.6984  0.6241 -1.6344
 7662SOL    HW330421   0.156   0.063   5.740  0.0997  1.1669  1.0788
 7662SOL    MW430422   0.072   0.069   5.764 -0.3658  0.4452 -0.2897
 7663SOL     OW30423   0.751   5.771   0.158  0.7275  0.9169 -0.0030
 7663SOL    HW230424   0.809   5.743   0.228 -1.0946 -1.5009  0.6786
 7663SOL    HW330425   0.667   5.788   0.202 -0.8927 -2.0462 -1.6107
 7663SOL    MW430426   0.747   5.770   0.173  0.2734  0.2070 -0.1252
 7664SOL     OW30427   6.137   0.071   5.270 -0.0624 -0.4755 -0.4335
 7664SOL    HW230428   6.230   0.092   5.277  0.3517 -2.1149 -0.6235
 7664SOL    HW330429   6.133  -0.023   5.287 -1.7645 -0.3128  0.1913
 7664SOL    MW430430   6.149   0.061   5.273 -0.2323 -0.6703 -0.3761
 7665SOL     OW30431   5.149   0.609   4.322 -0.1598 -0.2153  0.5811
 7665SOL    HW230432   5.076   0.549   4.339 -0.9821  0.8934  1.1045
 7665SOL    HW330433   5.183   0.629   4.409 -0.4779  0.7738  0.4875
 7665SOL    MW430434   5.143   0.604   4.336 -0.3103  0.0615  0.6378
 7666SOL     OW30435   1.768   2.283   3.685  0.8591  0.3590 -0.4608
 7666SOL    HW230436   1.680   2.296   3.720  1.4983 -0.9117  1.8595
 7666SOL    HW330437   1.755   2.238   3.602 -0.6797 -0.2616  0.0792
 7666SOL    MW430438   1.755   2.279   3.679  0.7404  0.1095 -0.0834
 7667SOL     OW30439   2.735   1.017   4.463 -0.2337 -0.4113 -0.1560
 7667SOL    HW230440   2.691   0.978   4.539  0.5103 -0.0716  0.4645
 7667SOL    HW330441   2.665   1.060   4.414 -0.6720 -0.3021  0.5495
 7667SOL    MW430442   2.720   1.018   4.467 -0.1934 -0.3521  0.0190
 7668SOL     OW30443   3.271   0.345   5.273  0.0404 -0.1915  0.1283
 7668SOL    HW230444   3.363   0.363   5.295 -0.0929  1.9106 -0.8171
 7668SOL    HW330445   3.275   0.313   5.183 -0.2673  2.3539 -0.8825
 7668SOL    MW430446   3.284   0.343   5.264 -0.0178  0.4217 -0.1298
 7669SOL     OW30447   5.169   1.558   4.130  0.0990  0.3117 -0.1832
 7669SOL    HW230448   5.225   1.620   4.083  0.4650  0.3119  0.2453
 7669SOL    HW330449   5.080   1.579   4.101  0.1914  1.1950  0.1194
 7669SOL    MW430450   5.164   1.569   4.120  0.1595  0.4283 -0.0868
 7670SOL     OW30451   1.426   3.039   0.392 -0.0048 -0.0357 -0.1868
 7670SOL    HW230452   1.463   2.991   0.318 -1.7237  1.1514 -1.9409
 7670SOL    HW330453   1.406   2.972   0.458 -1.0247 -1.5623 -1.9548
 7670SOL    MW430454   1.428   3.024   0.391 -0.3662 -0.0805 -0.6515
 7671SOL     OW30455   3.520   0.281   4.219 -0.1220 -0.3016 -0.2880
 7671SOL    HW230456   3.558   0.267   4.132 -3.3751  1.2318 -2.1721
 7671SOL    HW330457   3.489   0.195   4.246  1.9073 -1.0022 -0.0848
 7671SOL    MW430458   3.521   0.268   4.211 -0.2834 -0.1917 -0.5098
 7672SOL     OW30459   4.385   3.103   2.833 -0.2709 -0.3200  0.0306
 7672SOL    HW230460   4.379   3.166   2.761 -1.6421 -2.1685 -1.5607
 7672SOL    HW330461   4.477   3.107   2.860  0.2542  0.5568 -1.7038
 7672SOL    MW430462   4.397   3.112   2.827 -0.3825 -0.4482 -0.4082
 7673SOL     OW30463   0.733   6.070   1.509 -0.5862 -0.1078  0.4082
 7673SOL    HW230464   0.673   6.091   1.580 -1.3793  2.7675 -0.9739
 7673SOL    HW330465   0.677   6.036   1.439  0.1774 -2.8193  0.9827
 7673SOL    MW430466   0.718   6.068   1.509 -0.5901 -0.0862  0.3016
 7674SOL     OW30467   3.577   1.795   1.224  0.0829  0.2663  0.1781
 7674SOL    HW230468   3.619   1.856   1.283  1.4298 -1.4199  1.0314
 7674SOL    HW330469   3.508   1.754   1.276  0.9852 -0.9036  0.4900
 7674SOL    MW430470   3.573   1.798   1.238  0.3796 -0.1106  0.3318
 7675SOL     OW30471   3.791   6.215   6.052 -0.2771 -0.5486  0.5280
 7675SOL    HW230472   3.796   6.250   6.141  0.0452 -0.5663  0.5181
 7675SOL    HW330473   3.766   6.289   5.998 -0.3589 -0.5113  0.6153
 7675SOL    MW430474   3.788   6.229   6.057 -0.2454 -0.5460  0.5382
 7676SOL     OW30475   1.535   0.261   0.315 -0.3562  0.1457 -0.0092
 7676SOL    HW230476   1.513   0.250   0.222  1.3226  0.2039 -0.4473
 7676SOL    HW330477   1.580   0.180   0.338 -1.5979 -0.2709  1.0405
 7676SOL    MW430478   1.538   0.249   0.305 -0.2985  0.0984  0.0715
 7677SOL     OW30479   2.998   3.652   4.961 -0.5197  0.1138 -0.1930
 7677SOL    HW230480   3.076   3.598   4.953 -0.4783  0.0723  0.4362
 7677SOL    HW330481   2.983   3.659   5.055 -2.3703 -1.4867 -0.2973
 7677SOL    MW430482   3.006   3.646   4.972 -0.7584 -0.1029 -0.1237
 7678SOL     OW30483   2.142   1.932   4.718 -0.3503  0.1166  0.3482
 7678SOL    HW230484   2.147   1.969   4.630  1.5093  0.6539  0.6372
 7678SOL    HW330485   2.048   1.920   4.734 -0.7185 -0.3404 -1.8335
 7678SOL    MW430486   2.130   1.935   4.708 -0.1535  0.1272  0.0985
 7679SOL     OW30487   2.542   5.870   3.172 -0.1116 -1.1151  0.4889
 7679SOL    HW230488   2.545   5.864   3.076  3.3410 -0.5107  0.4161
 7679SOL    HW330489   2.486   5.798   3.199  0.3320 -2.4804 -1.9540
 7679SOL    MW430490   2.535   5.860   3.163  0.4024 -1.2155  0.1570
 7680SOL     OW30491   3.844   5.358   5.271 -0.6606 -0.1054 -0.3986
 7680SOL    HW230492   3.764   5.307   5.287 -0.8645  0.5307  0.7243
 7680SOL    HW330493   3.914   5.301   5.301 -0.7276 -0.4417 -0.8617
 7680SOL    MW430494   3.842   5.344   5.277 -0.6963 -0.0658 -0.3116
 7681SOL     OW30495   3.553   3.414   0.304 -0.0821  0.1235  0.3054
 7681SOL    HW230496   3.634   3.367   0.324  0.6071  1.7750  1.6337
 7681SOL    HW330497   3.484   3.351   0.325  0.8210 -0.7815  0.7022
 7681SOL    MW430498   3.555   3.399   0.310  0.1280  0.2220  0.5330
 7682SOL     OW30499   3.347   0.062   3.727 -0.1651 -0.3478  0.0819
 7682SOL    HW230500   3.270   0.029   3.681 -0.6082 -1.8228  1.7996
 7682SOL    HW330501   3.420   0.014   3.688 -0.5807 -1.8949  1.1070
 7682SOL    MW430502   3.347   0.051   3.716 -0.2784 -0.7465  0.4438
 7683SOL     OW30503   2.301   6.096   4.345  0.1699 -0.2056 -0.0590
 7683SOL    HW230504   2.244   6.125   4.274  0.4446 -2.0880 -1.1139
 7683SOL    HW330505   2.256   6.021   4.384  0.4308  0.2786  1.2140
 7683SOL    MW430506   2.288   6.090   4.341  0.2406 -0.3901 -0.0302
 7684SOL     OW30507   5.232   3.007   3.592 -0.5282  0.2700 -0.1612
 7684SOL    HW230508   5.160   2.968   3.642  0.4764 -0.1985  0.9671
 7684SOL    HW330509   5.276   3.065   3.654 -1.2277  2.3035 -1.4576
 7684SOL    MW430510   5.228   3.010   3.606 -0.4880  0.4765 -0.1834
 7685SOL     OW30511   4.738   4.658   1.658  0.7079 -0.5455  0.1886
 7685SOL    HW230512   4.819   4.698   1.628  1.2121 -0.0208  2.1534
 7685SOL    HW330513   4.678   4.732   1.669  0.8857 -0.5811  1.5013
 7685SOL    MW430514   4.741   4.673   1.655  0.7979 -0.4809  0.6211
 7686SOL     OW30515   6.337   4.671   5.119  0.7618 -0.0231  0.4184
 7686SOL    HW230516   6.419   4.714   5.141  0.1033  0.4139  2.1142
 7686SOL    HW330517   6.356   4.624   5.037  1.8642  2.3863 -0.8035
 7686SOL    MW430518   6.350   4.671   5.111  0.8204  0.3524  0.4809
 7687SOL     OW30519   2.758   5.898   2.564 -0.0232  0.4693 -0.4601
 7687SOL    HW230520   2.796   5.850   2.637 -1.0268 -0.3345 -0.4369
 7687SOL    HW330521   2.717   5.974   2.605 -3.5885 -1.6745  0.4199
 7687SOL    MW430522   2.757   5.902   2.579 -0.6260  0.0804 -0.3410
 7688SOL     OW30523   5.450   3.632   4.993 -0.2002 -0.7133 -0.3807
 7688SOL    HW230524   5.495   3.644   4.909 -0.8822 -0.8099 -0.7702
 7688SOL    HW330525   5.386   3.563   4.976 -1.9774  0.8718 -0.4570
 7688SOL    MW430526   5.447   3.624   4.979 -0.5246 -0.5169 -0.4421
 7689SOL     OW30527   3.437   2.962   2.990 -0.0627  0.5751  0.2426
 7689SOL    HW230528   3.361   2.952   3.047  0.0918  1.5555  0.6370
 7689SOL    HW330529   3.508   2.916   3.035  0.0493  1.3156  0.8346
 7689SOL    MW430530   3.437   2.955   3.003 -0.0275  0.8022  0.3727
 7690SOL     OW30531   5.605   4.001   2.873  0.1758  0.2272  0.2216
 7690SOL    HW230532   5.548   4.048   2.934 -0.6518 -0.2206 -0.2007
 7690SOL    HW330533   5.672   3.961   2.928 -0.5598 -0.1653  0.8407
 7690SOL    MW430534   5.607   4.002   2.888 -0.0304  0.1163  0.2476
 7691SOL     OW30535   5.591   4.608   0.390  0.5546  0.5559  0.2425
 7691SOL    HW230536   5.546   4.663   0.326  1.9730 -0.1032 -1.4204
 7691SOL    HW330537   5.646   4.550   0.337  1.4062 -0.3841  2.0572
 7691SOL    MW430538   5.593   4.608   0.374  0.8541  0.3449  0.2626
 7692SOL     OW30539   1.396   4.039   0.503 -0.2178 -0.0203  0.3566
 7692SOL    HW230540   1.490   4.053   0.502  0.0376 -1.6133 -0.6222
 7692SOL    HW330541   1.361   4.110   0.449  0.5066  0.0913  0.0210
 7692SOL    MW430542   1.404   4.050   0.496 -0.0886 -0.2158  0.1832
 7693SOL     OW30543   4.728   6.025   0.473 -0.2474  0.6790  0.1036
 7693SOL    HW230544   4.667   5.954   0.492  0.4218  0.3477  1.1439
 7693SOL    HW330545   4.676   6.105   0.483 -0.5394  0.3987  0.9393
 7693SOL    MW430546   4.714   6.026   0.477 -0.1976  0.5983  0.3511
 7694SOL     OW30547   0.091   0.626   2.718  0.1424  0.8482 -0.1552
 7694SOL    HW230548   0.181   0.616   2.686 -0.1293 -0.7105 -0.5133
 7694SOL    HW330549   0.101   0.678   2.798  1.5327 -0.3593  0.5166
 7694SOL    MW430550   0.104   0.632   2.724  0.2900  0.4832 -0.1138
 7695SOL     OW30551   0.334   5.851   2.067 -0.2103  0.3103  0.3893
 7695SOL    HW230552   0.425   5.852   2.036  0.0224 -1.1890  0.8912
 7695SOL    HW330553   0.290   5.790   2.008 -0.5413 -0.0449  0.9977
 7695SOL    MW430554   0.340   5.843   2.055 -0.2232  0.0656  0.5358
 7696SOL     OW30555   5.882   2.880   4.339 -0.4418  0.6604  0.0301
 7696SOL    HW230556   5.879   2.799   4.289 -0.0681  1.1538 -0.8203
 7696SOL    HW330557   5.824   2.865   4.414 -2.1955  0.3971 -1.3164
 7696SOL    MW430558   5.874   2.868   4.342 -0.6239  0.6908 -0.2598
 7697SOL     OW30559   5.507   4.654   2.080 -0.4658  0.2209  0.0225
 7697SOL    HW230560   5.559   4.679   2.003 -0.2873  2.0479  0.6876
 7697SOL    HW330561   5.555   4.579   2.117  0.3828  0.3849 -0.6882
 7697SOL    MW430562   5.520   4.647   2.075 -0.3303  0.4836  0.0165
 7698SOL     OW30563   5.521   1.398   4.522 -0.4930  0.3425  0.3278
 7698SOL    HW230564   5.438   1.424   4.480 -0.1179  1.0519  0.0060
 7698SOL    HW330565   5.546   1.473   4.574  0.0550  0.2029  0.2672
 7698SOL    MW430566   5.513   1.411   4.523 -0.3712  0.4177  0.2773
 7699SOL     OW30567   2.873   6.384   2.757  0.1322  0.2944  0.2807
 7699SOL    HW230568   2.955   6.424   2.783  0.1483 -0.8324  2.1182
 7699SOL    HW330569   2.890   6.290   2.758 -0.3825  0.0966 -2.2378
 7699SOL    MW430570   2.886   6.377   2.760  0.0664  0.1196  0.1908
 7700SOL     OW30571   2.199   1.340   2.140  0.2766  0.0868  0.4249
 7700SOL    HW230572   2.229   1.338   2.231 -0.6752  0.2026  0.7517
 7700SOL    HW330573   2.162   1.253   2.126 -0.8526  0.5227  0.6042
 7700SOL    MW430574   2.198   1.328   2.151  0.0021  0.1596  0.4916
 7701SOL     OW30575   2.221   4.387   5.696 -0.2116 -0.2632  0.1037
 7701SOL    HW230576   2.233   4.410   5.604 -3.2541  3.7272  0.4021
 7701SOL    HW330577   2.283   4.443   5.743 -0.2281 -0.6239  0.5644
 7701SOL    MW430578   2.231   4.398   5.690 -0.6152  0.2157  0.2039
 7702SOL     OW30579   0.219   0.169   1.046  0.4410 -0.8253 -0.2142
 7702SOL    HW230580   0.276   0.210   1.110 -0.1203  1.3134 -0.9758
 7702SOL    HW330581   0.135   0.160   1.090 -0.2810  1.7151 -0.8612
 7702SOL    MW430582   0.215   0.174   1.060  0.2717 -0.2080 -0.4000
 7703SOL     OW30583   6.121   1.170   1.357  0.1524  0.1222 -0.2542
 7703SOL    HW230584   6.144   1.247   1.306  1.3444 -0.0555  0.0014
 7703SOL    HW330585   6.162   1.097   1.310 -1.1177 -0.3992 -0.5996
 7703SOL    MW430586   6.129   1.170   1.344  0.1421  0.0300 -0.2660
 7704SOL     OW30587   0.575   4.281   2.245 -0.7736 -0.7438  0.0320
 7704SOL    HW230588   0.653   4.241   2.207 -0.2169  0.2830  0.0678
 7704SOL    HW330589   0.568   4.367   2.202 -0.3651  0.2825  1.9150
 7704SOL    MW430590   0.584   4.287   2.234 -0.6462 -0.4729  0.2851
 7705SOL     OW30591   4.123   5.638   0.758 -0.1254  0.0704 -0.0656
 7705SOL    HW230592   4.163   5.666   0.675  1.0562  0.5911  0.6487
 7705SOL    HW330593   4.198   5.619   0.815 -0.9155  0.2317  1.0592
 7705SOL    MW430594   4.138   5.639   0.755 -0.0737  0.1604  0.1771
 7706SOL     OW30595   1.348   4.287   5.938  0.6055  0.2304 -0.5034
 7706SOL    HW230596   1.286   4.230   5.893  0.4238  1.2399 -1.5754
 7706SOL    HW330597   1.356   4.249   6.026 -2.2036  0.5584 -0.0166
 7706SOL    MW430598   1.341   4.274   5.944  0.2109  0.4068 -0.5806
 7707SOL     OW30599   4.862   0.666   4.015 -0.2172  0.1130 -0.2344
 7707SOL    HW230600   4.840   0.587   4.065  0.5190 -0.2710 -0.5033
 7707SOL    HW330601   4.803   0.664   3.940  0.9139 -1.1024 -1.1471
 7707SOL    MW430602   4.852   0.655   4.012  0.0292 -0.0980 -0.3903
 7708SOL     OW30603   6.230   4.907   1.777  0.0643 -0.3228  0.1009
 7708SOL    HW230604   6.316   4.897   1.737 -0.2414 -1.0662 -0.3935
 7708SOL    HW330605   6.247   4.905   1.871  0.6189 -0.1448  0.0078
 7708SOL    MW430606   6.243   4.906   1.784  0.0971 -0.3974  0.0234
 7709SOL     OW30607   4.731   1.385   6.081  0.0494  0.0890 -0.7336
 7709SOL    HW230608   4.750   1.296   6.112 -0.1466  0.3250  0.1071
 7709SOL    HW330609   4.716   1.375   5.987  1.1385 -0.5963 -0.8638
 7709SOL    MW430610   4.732   1.372   6.073  0.1673  0.0297 -0.6398
 7710SOL     OW30611   4.165   2.385   0.900  0.0847 -0.2215  0.0860
 7710SOL    HW230612   4.234   2.343   0.849 -0.5502 -1.3391  0.1091
 7710SOL    HW330613   4.084   2.342   0.870 -0.4091 -0.1219  1.2456
 7710SOL    MW430614   4.163   2.374   0.889 -0.0642 -0.3558  0.2421
 7711SOL     OW30615   3.850   1.685   3.559 -0.8842 -0.2109 -0.5636
 7711SOL    HW230616   3.827   1.754   3.621 -0.9102 -0.6106 -0.1218
 7711SOL    HW330617   3.813   1.605   3.597 -0.2940 -0.5751 -0.7378
 7711SOL    MW430618   3.842   1.683   3.572 -0.8098 -0.3117 -0.5283
 7712SOL     OW30619   5.013   2.262   3.203  0.1427  0.0538 -0.2083
 7712SOL    HW230620   5.015   2.211   3.284  0.3507  0.7336  0.2206
 7712SOL    HW330621   5.105   2.280   3.184  0.0793  0.1394 -0.4384
 7712SOL    MW430622   5.026   2.257   3.211  0.1618  0.1548 -0.1820
 7713SOL     OW30623   3.851   0.885   5.103  0.0169  0.0090 -0.0489
 7713SOL    HW230624   3.850   0.977   5.129  0.8166 -0.2211  0.8306
 7713SOL    HW330625   3.767   0.873   5.057 -0.2864  1.0592  0.1940
 7713SOL    MW430626   3.839   0.896   5.100  0.0824  0.1172  0.0992
 7714SOL     OW30627   1.565   3.138   3.191 -0.7397 -0.2030  0.6054
 7714SOL    HW230628   1.637   3.107   3.135 -0.7862  2.3698 -1.0535
 7714SOL    HW330629   1.495   3.075   3.176 -1.1839  0.9211 -3.3676
 7714SOL    MW430630   1.566   3.125   3.181 -0.8044  0.2847 -0.1377
 7715SOL     OW30631   5.676   2.699   4.519  0.3041 -0.5693 -0.0376
 7715SOL    HW230632   5.759   2.684   4.564  0.6822  1.3431 -0.0240
 7715SOL    HW330633   5.610   2.691   4.589  0.4909 -1.7617  0.0143
 7715SOL    MW430634   5.678   2.696   4.534  0.3787 -0.4743 -0.0290
 7716SOL     OW30635   5.806   3.399   5.834  0.2950 -0.3582 -0.3388
 7716SOL    HW230636   5.752   3.352   5.770 -1.1606  0.9363 -0.1263
 7716SOL    HW330637   5.836   3.477   5.786 -1.3572  0.9693  0.6857
 7716SOL    MW430638   5.803   3.403   5.819 -0.1150 -0.0122 -0.1756
 7717SOL     OW30639   2.157   5.259   2.392  0.1616 -0.3050  0.5692
 7717SOL    HW230640   2.162   5.253   2.488 -0.9429 -0.4120  0.6280
 7717SOL    HW330641   2.078   5.210   2.369  0.8559 -0.9774 -0.4762
 7717SOL    MW430642   2.147   5.252   2.402  0.1075 -0.4078  0.4390
 7718SOL     OW30643   6.137   2.806   1.748 -0.4842 -0.0751 -0.3800
 7718SOL    HW230644   6.054   2.784   1.790  0.6932 -1.1186  1.5410
 7718SOL    HW330645   6.133   2.901   1.737 -1.3559  0.0962  1.0513
 7718SOL    MW430646   6.126   2.815   1.752 -0.4439 -0.1902  0.0623
 7719SOL     OW30647   1.902   6.243   2.770  0.1194 -0.6814  0.3788
 7719SOL    HW230648   1.865   6.198   2.694 -1.2634  2.5646 -1.0955
 7719SOL    HW330649   1.980   6.286   2.735  0.9279 -1.2052  1.5031
 7719SOL    MW430650   1.908   6.243   2.755  0.0436 -0.3223  0.3326
 7720SOL     OW30651   5.606   3.311   3.575 -0.2094  0.5739 -0.6090
 7720SOL    HW230652   5.595   3.237   3.516  0.1223  0.8666 -1.0436
 7720SOL    HW330653   5.656   3.276   3.649 -0.2270  0.3169 -0.7184
 7720SOL    MW430654   5.611   3.297   3.577 -0.1679  0.5786 -0.6808
 7721SOL     OW30655   0.669   5.421   3.417  0.5137  0.0473 -0.1916
 7721SOL    HW230656   0.596   5.362   3.435  0.1922  0.5462  0.1706
 7721SOL    HW330657   0.746   5.364   3.410  0.1993 -0.4141  0.0919
 7721SOL    MW430658   0.670   5.406   3.418  0.4298  0.0522 -0.1064
 7722SOL     OW30659   5.691   1.591   5.578  0.0511  0.3182 -0.6327
 7722SOL    HW230660   5.705   1.600   5.673 -0.8056  1.6510 -0.6136
 7722SOL    HW330661   5.777   1.567   5.544  0.1432 -1.2854  0.5932
 7722SOL    MW430662   5.704   1.589   5.586 -0.0498  0.2825 -0.4684
 7723SOL     OW30663   3.584   4.072   2.210 -0.7803  0.4286  0.2667
 7723SOL    HW230664   3.490   4.091   2.214 -0.9076 -0.2751  0.7682
 7723SOL    HW330665   3.614   4.076   2.301 -0.6716 -0.9712  0.3219
 7723SOL    MW430666   3.576   4.075   2.222 -0.7828  0.1510  0.3402
 7724SOL     OW30667   4.230   2.390   0.364  0.7190 -0.0322  0.0563
 7724SOL    HW230668   4.172   2.315   0.349 -1.0962  1.7204 -2.6151
 7724SOL    HW330669   4.201   2.426   0.448 -1.0283 -0.1519 -0.4515
 7724SOL    MW430670   4.219   2.385   0.373  0.2490  0.1832 -0.3632
 7725SOL     OW30671   3.868   3.694   2.748 -0.0255 -0.2468 -0.0835
 7725SOL    HW230672   3.799   3.705   2.813 -0.1544 -0.7993 -0.1220
 7725SOL    HW330673   3.868   3.777   2.699 -0.7224 -0.2740 -0.1422
 7725SOL    MW430674   3.859   3.707   2.750 -0.1345 -0.3233 -0.0963
 7726SOL     OW30675   4.447   3.415   2.916 -0.1925 -0.0084  0.5470
 7726SOL    HW230676   4.473   3.455   2.833  0.8145  0.9005  1.2688
 7726SOL    HW330677   4.507   3.341   2.927  0.5023  0.6093  1.0310
 7726SOL    MW430678   4.458   3.411   2.907  0.0320  0.1930  0.7061
 7727SOL     OW30679   2.620   4.583   5.235 -0.2172 -0.2567  0.1919
 7727SOL    HW230680   2.601   4.674   5.257  0.0239 -0.5270  1.6804
 7727SOL    HW330681   2.535   4.544   5.214 -0.3444  0.2570 -0.2622
 7727SOL    MW430682   2.607   4.590   5.235 -0.2022 -0.2246  0.3284
 7728SOL     OW30683   3.218   6.193   2.091 -0.2014  0.3438  0.0167
 7728SOL    HW230684   3.291   6.203   2.029 -0.0493 -1.0533 -0.0737
 7728SOL    HW330685   3.250   6.231   2.173  0.8322 -0.6638  0.1099
 7728SOL    MW430686   3.232   6.199   2.093 -0.0450  0.0265  0.0171
 7729SOL     OW30687   1.452   5.100   3.306 -0.1149 -0.5621  0.1676
 7729SOL    HW230688   1.488   5.187   3.287  1.1030 -1.1055 -0.1337
 7729SOL    HW330689   1.429   5.065   3.220  1.3238 -1.3221  0.0660
 7729SOL    MW430690   1.454   5.107   3.292  0.2356 -0.7340  0.1145
 7730SOL     OW30691   4.508   1.620   2.362  0.0608 -0.0743  0.1732
 7730SOL    HW230692   4.481   1.662   2.444 -0.0805  0.5725 -0.1999
 7730SOL    HW330693   4.577   1.677   2.328 -0.2970 -0.0060 -0.4582
 7730SOL    MW430694   4.514   1.633   2.368 -0.0051  0.0201  0.0407
 7731SOL     OW30695   3.085   2.971   5.648  0.1239  0.2352  0.0021
 7731SOL    HW230696   3.058   3.044   5.593 -0.6154 -0.1561 -0.1667
 7731SOL    HW330697   3.147   2.922   5.594 -2.1711 -1.3383 -1.3608
 7731SOL    MW430698   3.090   2.974   5.634 -0.2764 -0.0240 -0.2000
 7732SOL     OW30699   0.117   4.039   1.810  0.1161  0.3630 -0.1993
 7732SOL    HW230700   0.212   4.042   1.814  0.1280 -0.0899 -0.1125
 7732SOL    HW330701   0.095   3.946   1.820 -0.4020  0.6186  1.3424
 7732SOL    MW430702   0.126   4.027   1.812  0.0493  0.3370  0.0155
 7733SOL     OW30703   2.370   5.679   2.519  0.3523  0.7230  0.3337
 7733SOL    HW230704   2.382   5.770   2.493 -0.9844  0.6579 -0.6582
 7733SOL    HW330705   2.457   5.639   2.509  0.7355  1.6546 -0.1846
 7733SOL    MW430706   2.383   5.686   2.514  0.2265  0.8373  0.1344
 7734SOL     OW30707   6.309   0.479   3.588 -0.1407  0.7342 -0.3395
 7734SOL    HW230708   6.214   0.493   3.590 -0.6728 -1.9766 -2.0736
 7734SOL    HW330709   6.327   0.447   3.500  2.2052  0.0805  0.3071
 7734SOL    MW430710   6.299   0.476   3.577  0.0986  0.2903 -0.4830
 7735SOL     OW30711   4.479   5.904   0.907 -0.0448  0.0641  0.2755
 7735SOL    HW230712   4.412   5.936   0.846  0.2487 -0.3303 -0.2618
 7735SOL    HW330713   4.535   5.848   0.854  0.8536  0.5687  0.6722
 7735SOL    MW430714   4.477   5.901   0.892  0.1125  0.0787  0.2569
 7736SOL     OW30715   6.220   0.112   0.103 -0.4668 -0.2331  0.0948
 7736SOL    HW230716   6.132   0.143   0.081 -0.1057  0.6685 -0.1349
 7736SOL    HW330717   6.220   0.020   0.076 -2.0143 -0.8987  2.0857
 7736SOL    MW430718   6.208   0.104   0.096 -0.6233 -0.2019  0.3272
 7737SOL     OW30719   4.695   5.147   2.110 -0.0722 -0.1655 -0.2006
 7737SOL    HW230720   4.729   5.219   2.057 -2.4804  1.5248  0.3991
 7737SOL    HW330721   4.724   5.166   2.199 -0.3502 -0.1908 -0.1047
 7737SOL    MW430722   4.703   5.159   2.115 -0.4266  0.0542 -0.1088
 7738SOL     OW30723   3.622   4.240   4.535 -0.0596  0.3290 -0.1702
 7738SOL    HW230724   3.657   4.326   4.558 -2.9646  1.6793 -0.3239
 7738SOL    HW330725   3.662   4.218   4.451 -0.1611  2.1286 -0.7162
 7738SOL    MW430726   3.632   4.248   4.527 -0.4563  0.7446 -0.2625
 7739SOL     OW30727   5.251   0.160   5.339  0.1257 -0.3035  0.3048
 7739SOL    HW230728   5.265   0.070   5.312 -2.0265 -0.4057 -0.6453
 7739SOL    HW330729   5.293   0.213   5.270  1.3627 -0.5345  0.8498
 7739SOL    MW430730   5.258   0.155   5.326  0.0050 -0.3475  0.2513
 7740SOL     OW30731   0.610   1.477   4.341 -0.5667  0.0968 -0.2118
 7740SOL    HW230732   0.659   1.472   4.259 -0.1134 -1.0396  0.1042
 7740SOL    HW330733   0.635   1.398   4.389 -1.1417  0.5316  0.8480
 7740SOL    MW430734   0.620   1.465   4.337 -0.5828  0.0042 -0.0303
 7741SOL     OW30735   2.833   2.293   3.301  0.0040 -0.0621  0.1337
 7741SOL    HW230736   2.902   2.347   3.263  2.5791 -3.6281 -0.8283
 7741SOL    HW330737   2.851   2.293   3.395 -0.9322  1.7814  0.3501
 7741SOL    MW430738   2.845   2.300   3.308  0.2203 -0.2894  0.0354
 7742SOL     OW30739   1.260   3.052   4.903 -0.2688 -0.4622  0.4346
 7742SOL    HW230740   1.235   3.065   4.811 -0.7049  1.6677  0.8043
 7742SOL    HW330741   1.208   2.978   4.932 -0.3296 -0.9989 -0.9568
 7742SOL    MW430742   1.250   3.044   4.895 -0.3344 -0.2520  0.2998
 7743SOL     OW30743   0.730   4.396   2.893  0.0266  0.5976  0.3880
 7743SOL    HW230744   0.810   4.437   2.860  1.2542 -0.6374  1.6727
 7743SOL    HW330745   0.746   4.385   2.987 -0.1135 -2.8549  0.1427
 7743SOL    MW430746   0.743   4.400   2.901  0.1701 -0.0209  0.5251
 7744SOL     OW30747   1.791   0.227   0.078  0.1187 -0.2655  0.4258
 7744SOL    HW230748   1.875   0.266   0.055  0.6323 -1.0976  0.8472
 7744SOL    HW330749   1.726   0.294   0.055  0.7043 -0.4368 -1.9832
 7744SOL    MW430750   1.794   0.241   0.072  0.2637 -0.3979  0.1636
 7745SOL     OW30751   4.475   6.344   6.320 -0.5440  0.0602 -0.4659
 7745SOL    HW230752   4.539   6.355   6.248  1.2484 -1.0897  0.8579
 7745SOL    HW330753   4.528   6.314   6.394 -2.5651 -0.2349  0.9241
 7745SOL    MW430754   4.491   6.342   6.320 -0.5741 -0.1304 -0.1078
 7746SOL     OW30755   5.555   2.623   4.267 -0.0728 -0.5168 -0.3386
 7746SOL    HW230756   5.466   2.603   4.296  0.3345 -0.6527  0.9032
 7746SOL    HW330757   5.601   2.647   4.347  1.0034 -0.4209 -0.9662
 7746SOL    MW430758   5.549   2.623   4.281  0.1230 -0.5221 -0.2576
 7747SOL     OW30759   5.343   3.243   5.500  0.0398  0.2222 -0.6658
 7747SOL    HW230760   5.379   3.171   5.448 -2.6981 -0.5229 -1.7029
 7747SOL    HW330761   5.387   3.321   5.467  1.4977 -0.7141 -1.0286
 7747SOL    MW430762   5.353   3.243   5.489 -0.1291  0.0004 -0.8505
 7748SOL     OW30763   2.811   3.012   2.959  0.3135 -0.4676 -0.1374
 7748SOL    HW230764   2.897   3.023   2.999 -0.2508 -0.9860  1.2750
 7748SOL    HW330765   2.749   3.021   3.031 -0.7380 -1.5280 -0.8658
 7748SOL    MW430766   2.814   3.014   2.974  0.1003 -0.6759 -0.0471
 7749SOL     OW30767   3.631   2.467   2.313 -0.5786 -0.4302  0.7165
 7749SOL    HW230768   3.709   2.506   2.354 -0.1916 -1.4987  1.0262
 7749SOL    HW330769   3.576   2.542   2.291  0.7149  0.3784  0.1058
 7749SOL    MW430770   3.634   2.482   2.316 -0.3569 -0.4645  0.6768
 7750SOL     OW30771   2.027   3.347   3.728  0.1348 -0.6411 -0.1336
 7750SOL    HW230772   2.091   3.316   3.792 -0.8890 -1.1344  0.6834
 7750SOL    HW330773   2.074   3.346   3.644  2.6706  3.3976  0.9890
 7750SOL    MW430774   2.042   3.343   3.725  0.3343 -0.1733  0.1223
 7751SOL     OW30775   3.777   5.600   5.427 -0.5275  0.6571 -0.3788
 7751SOL    HW230776   3.802   5.556   5.346 -1.0493  1.1413 -0.8162
 7751SOL    HW330777   3.822   5.552   5.496  0.6665  0.7908 -1.0274
 7751SOL    MW430778   3.786   5.588   5.425 -0.4388  0.7386 -0.5221
 7752SOL     OW30779   3.450   0.028   4.314 -0.5145 -0.1187 -0.2215
 7752SOL    HW230780   3.488  -0.025   4.383  1.3178  0.4789 -0.6994
 7752SOL    HW330781   3.367  -0.014   4.293  1.0804 -3.1615 -0.9812
 7752SOL    MW430782   3.444   0.016   4.320 -0.0623 -0.4413 -0.3848
 7753SOL     OW30783   0.546   5.612   1.136  0.7525  0.2020  0.1688
 7753SOL    HW230784   0.537   5.539   1.074 -0.2882  2.2995 -2.3654
 7753SOL    HW330785   0.616   5.666   1.099 -0.3972  1.8910  0.3450
 7753SOL    MW430786   0.554   5.609   1.123  0.4635  0.7016 -0.1423
 7754SOL     OW30787   2.323   2.871   6.289 -0.1420  0.3911 -0.3905
 7754SOL    HW230788   2.298   2.963   6.286  0.8393  0.7272  0.9487
 7754SOL    HW330789   2.261   2.830   6.349  0.5188  0.5789  0.4472
 7754SOL    MW430790   2.312   2.878   6.296  0.0746  0.4603 -0.1033
 7755SOL     OW30791   0.235   5.415   0.287 -0.0744  0.3493 -0.2507
 7755SOL    HW230792   0.259   5.386   0.198 -0.0117 -0.1701 -0.0676
 7755SOL    HW330793   0.154   5.464   0.275 -0.5589 -0.4820 -0.4889
 7755SOL    MW430794   0.228   5.417   0.273 -0.1301  0.1711 -0.2580
 7756SOL     OW30795   2.275   2.110   3.153  0.5928  0.4624  0.0023
 7756SOL    HW230796   2.191   2.129   3.196  0.3251 -2.5988  1.0441
 7756SOL    HW330797   2.261   2.137   3.062 -1.4692  0.2052  0.1824
 7756SOL    MW430798   2.262   2.116   3.147  0.2855  0.0246  0.1635
 7757SOL     OW30799   4.962   5.455   2.203  0.0631 -0.2000  0.0306
 7757SOL    HW230800   4.991   5.491   2.120  0.5923 -1.0411 -0.1576
 7757SOL    HW330801   5.010   5.373   2.213 -2.6416 -1.9934 -0.5800
 7757SOL    MW430802   4.972   5.449   2.194 -0.2240 -0.5476 -0.0748
 7758SOL     OW30803   1.082   5.824   6.017  0.5151  0.0781  0.2355
 7758SOL    HW230804   1.061   5.805   5.925  0.4183  0.7676  0.1131
 7758SOL    HW330805   1.050   5.747   6.065 -1.1679  0.5296 -0.0953
 7758SOL    MW430806   1.075   5.811   6.011  0.2802  0.2286  0.1757
 7759SOL     OW30807   5.533   3.047   5.374 -0.6062 -0.0055 -0.2916
 7759SOL    HW230808   5.536   2.952   5.363  1.2324 -0.0118 -0.0702
 7759SOL    HW330809   5.595   3.081   5.310  0.2017  0.8879  0.9093
 7759SOL    MW430810   5.542   3.039   5.364 -0.2570  0.1115 -0.1040
 7760SOL     OW30811   0.349   2.099   5.068  0.1997 -0.3981  0.4720
 7760SOL    HW230812   0.268   2.112   5.118 -1.7613 -3.7531 -1.4897
 7760SOL    HW330813   0.368   2.006   5.078  2.6425 -0.1114 -0.9013
 7760SOL    MW430814   0.341   2.089   5.076  0.2633 -0.8029  0.0320
 7761SOL     OW30815   4.682   5.858   1.423  0.2280 -0.0925 -0.0483
 7761SOL    HW230816   4.728   5.883   1.343  0.4513 -2.9781 -0.9232
 7761SOL    HW330817   4.722   5.911   1.492  0.5461  1.9234 -1.6841
 7761SOL    MW430818   4.693   5.868   1.421  0.2994 -0.2072 -0.3796
 7762SOL     OW30819   1.843   0.136   5.887 -0.3490  0.3340 -0.0758
 7762SOL    HW230820   1.838   0.083   5.807  0.1497 -2.8947  1.8434
 7762SOL    HW330821   1.778   0.205   5.874 -2.1875 -1.6177 -2.2353
 7762SOL    MW430822   1.834   0.138   5.875 -0.5258 -0.3495 -0.1075
 7763SOL     OW30823   4.199   5.092   2.024  0.5689 -0.0499 -0.2326
 7763SOL    HW230824   4.210   5.028   2.094 -1.3128  1.3563  1.4779
 7763SOL    HW330825   4.242   5.053   1.948  1.5535 -2.2275  1.3522
 7763SOL    MW430826   4.206   5.078   2.023  0.4506 -0.1517  0.2022
 7764SOL     OW30827   1.744   1.503   1.414  0.0577 -0.2046 -0.0614
 7764SOL    HW230828   1.665   1.454   1.438 -0.7312  1.7780  1.6955
 7764SOL    HW330829   1.816   1.443   1.435 -0.9151 -1.3899  0.0085
 7764SOL    MW430830   1.743   1.489   1.420 -0.1747 -0.0994  0.1796
 7765SOL     OW30831   2.793   3.363   5.485  0.0669  0.1778 -0.1929
 7765SOL    HW230832   2.836   3.446   5.507 -0.0979  0.2567 -0.1669
 7765SOL    HW330833   2.732   3.386   5.415 -0.4106  0.1942  0.2283
 7765SOL    MW430834   2.791   3.377   5.479 -0.0179  0.1904 -0.1339
 7766SOL     OW30835   1.761   1.854   3.857  0.7085 -0.0839 -0.2541
 7766SOL    HW230836   1.718   1.920   3.911  2.2191 -0.4367  1.4673
 7766SOL    HW330837   1.842   1.896   3.828  0.2606 -0.1599 -1.6657
 7766SOL    MW430838   1.766   1.868   3.860  0.8487 -0.1404 -0.2132
 7767SOL     OW30839   0.801   2.686   0.158  0.4956  0.2569  0.0574
 7767SOL    HW230840   0.804   2.766   0.105 -0.6844 -0.2277 -0.7844
 7767SOL    HW330841   0.888   2.648   0.148  0.9827  1.2880  0.2407
 7767SOL    MW430842   0.813   2.692   0.150  0.4042  0.3290 -0.0295
 7768SOL     OW30843   0.673   0.923   6.321 -0.0062 -0.0383 -0.1098
 7768SOL    HW230844   0.763   0.892   6.326  0.4931  1.5069  2.9523
 7768SOL    HW330845   0.628   0.875   6.390 -1.6478 -0.8952 -1.6944
 7768SOL    MW430846   0.679   0.912   6.331 -0.1569  0.0525  0.0851
 7769SOL     OW30847   3.743   6.183   3.347 -0.0165  0.0448 -0.3454
 7769SOL    HW230848   3.650   6.163   3.340  0.0975 -0.2772 -0.9927
 7769SOL    HW330849   3.750   6.275   3.322 -0.3140  0.4442  0.9441
 7769SOL    MW430850   3.732   6.193   3.343 -0.0407  0.0550 -0.2606
 7770SOL     OW30851   5.878   3.442   3.158  0.0240  0.0836 -0.0039
 7770SOL    HW230852   5.786   3.426   3.136  0.0176  0.0940  0.0152
 7770SOL    HW330853   5.897   3.379   3.227  0.1524 -0.2113 -0.3021
 7770SOL    MW430854   5.868   3.432   3.164  0.0401  0.0461 -0.0407
 7771SOL     OW30855   2.947   5.142   2.360 -0.0523  0.3454 -0.2467
 7771SOL    HW230856   2.909   5.140   2.448  0.4467  0.4086 -0.0305
 7771SOL    HW330857   3.041   5.147   2.374 -0.0296  2.0099 -0.7820
 7771SOL    MW430858   2.954   5.142   2.374  0.0166  0.5733 -0.2888
 7772SOL     OW30859   2.547   2.481   4.118 -0.2614 -0.3504 -0.0243
 7772SOL    HW230860   2.586   2.564   4.147  1.0215 -1.0422  0.3083
 7772SOL    HW330861   2.454   2.501   4.107 -0.2383  0.7827  1.4581
 7772SOL    MW430862   2.540   2.495   4.121 -0.0891 -0.2922  0.2152
 7773SOL     OW30863   0.366   5.838   3.988 -0.2676  0.9820 -0.3348
 7773SOL    HW230864   0.303   5.799   4.048 -0.3366  1.0517 -0.3622
 7773SOL    HW330865   0.387   5.923   4.028 -0.2746  1.0064 -0.3834
 7773SOL    MW430866   0.361   5.844   4.001 -0.2776  0.9944 -0.3449
 7774SOL     OW30867   1.581   4.330   5.727  0.1604  0.3240  0.4837
 7774SOL    HW230868   1.492   4.297   5.729  0.8337 -1.6279  1.6177
 7774SOL    HW330869   1.574   4.419   5.691 -1.9592 -0.5263 -1.4673
 7774SOL    MW430870   1.569   4.337   5.722 -0.0304 -0.0457  0.3759
 7775SOL     OW30871   1.654   1.909   4.430 -0.4263  0.3700  0.4383
 7775SOL    HW230872   1.745   1.929   4.455 -1.0201  0.5977  2.6781
 7775SOL    HW330873   1.660   1.829   4.379  0.8843 -1.0417  2.6299
 7775SOL    MW430874   1.667   1.901   4.427 -0.3318  0.2137  1.0230
 7776SOL     OW30875   2.850   1.082   1.420  0.0378 -0.2361 -0.0610
 7776SOL    HW230876   2.872   1.119   1.335  0.7004  0.6565  0.4882
 7776SOL    HW330877   2.927   1.032   1.446 -0.4596 -1.1574 -0.3299
 7776SOL    MW430878   2.863   1.080   1.412  0.0596 -0.2399 -0.0240
 7777SOL     OW30879   2.165   3.795   1.314  0.1731 -0.1212  0.5699
 7777SOL    HW230880   2.189   3.713   1.270  1.9472 -0.5988  2.3044
 7777SOL    HW330881   2.236   3.856   1.291 -0.8262  0.8027 -0.2184
 7777SOL    MW430882   2.178   3.793   1.305  0.2754 -0.0623  0.6947
 7778SOL     OW30883   0.951   2.405   1.011 -0.2672  0.1596 -0.7476
 7778SOL    HW230884   0.886   2.384   1.078  1.1357  0.9335  0.9566
 7778SOL    HW330885   0.901   2.425   0.933 -2.0974  1.1549  0.6164
 7778SOL    MW430886   0.936   2.405   1.010 -0.3236  0.3930 -0.3428
 7779SOL     OW30887   1.687   0.235   2.734  0.3013  0.2262  0.5187
 7779SOL    HW230888   1.639   0.187   2.666  1.7254 -1.6691  0.7864
 7779SOL    HW330889   1.630   0.310   2.754 -1.3971 -0.6129 -0.8508
 7779SOL    MW430890   1.673   0.239   2.728  0.2651 -0.1346  0.3734
 7780SOL     OW30891   5.535   3.269   5.693  0.1936  0.3780  0.2797
 7780SOL    HW230892   5.483   3.245   5.616 -0.8493  0.5908  0.9026
 7780SOL    HW330893   5.604   3.204   5.696  0.5839  0.6756 -1.1464
 7780SOL    MW430894   5.537   3.258   5.683  0.1075  0.4453  0.1737
 7781SOL     OW30895   4.055   1.491   1.544  0.0211 -0.7980  0.5097
 7781SOL    HW230896   4.080   1.545   1.619  1.6704 -0.4821 -0.2142
 7781SOL    HW330897   4.136   1.447   1.518 -0.4899 -0.8425 -1.1181
 7781SOL    MW430898   4.069   1.493   1.551  0.1713 -0.7622  0.1994
 7782SOL     OW30899   3.366   3.171   1.825  0.0240 -0.3306  0.0809
 7782SOL    HW230900   3.340   3.108   1.893 -1.8698  0.6663  0.3362
 7782SOL    HW330901   3.286   3.186   1.774  1.0552  0.0287 -1.5069
 7782SOL    MW430902   3.352   3.164   1.827 -0.0898 -0.1517 -0.0949
 7783SOL     OW30903   3.655   3.665   0.771  0.0780 -0.1830 -0.1800
 7783SOL    HW230904   3.601   3.712   0.834  0.6521  0.5186 -0.1966
 7783SOL    HW330905   3.600   3.658   0.693 -0.4478 -0.6023  0.2258
 7783SOL    MW430906   3.641   3.671   0.769  0.0844 -0.1457 -0.1287
 7784SOL     OW30907   5.764   6.087   3.820 -0.2579  0.1219 -0.2603
 7784SOL    HW230908   5.695   6.040   3.774  0.6735  0.9125 -2.6286
 7784SOL    HW330909   5.812   6.133   3.751  1.3059  1.3368  1.5255
 7784SOL    MW430910   5.761   6.087   3.805  0.0713  0.3865 -0.3372
 7785SOL     OW30911   5.132   4.326   3.534  0.1782 -0.3994  0.5053
 7785SOL    HW230912   5.202   4.317   3.470 -0.3359  2.1590 -0.5456
 7785SOL    HW330913   5.178   4.339   3.617  0.8923 -0.8161  0.1889
 7785SOL    MW430914   5.147   4.327   3.537  0.2046 -0.1169  0.3249
 7786SOL     OW30915   5.166   6.047   1.702  0.8010 -0.2338  0.6379
 7786SOL    HW230916   5.230   6.059   1.773  0.2987  0.9323  0.9093
 7786SOL    HW330917   5.131   6.134   1.687 -1.1984 -0.9510  0.9146
 7786SOL    MW430918   5.170   6.060   1.710  0.4710 -0.1746  0.7102
 7787SOL     OW30919   4.636   3.454   5.813 -0.5488 -0.3559 -0.2714
 7787SOL    HW230920   4.596   3.389   5.755 -0.3695  0.0748 -0.8790
 7787SOL    HW330921   4.564   3.484   5.869 -1.1352  0.5444 -1.4704
 7787SOL    MW430922   4.622   3.449   5.813 -0.6025 -0.1803 -0.5098
 7788SOL     OW30923   4.265   1.882   0.579  0.7568  0.3589  0.3484
 7788SOL    HW230924   4.334   1.883   0.646  2.0500  0.2366 -0.9389
 7788SOL    HW330925   4.303   1.833   0.506 -1.3750 -1.3563  0.2731
 7788SOL    MW430926   4.279   1.875   0.578  0.6462  0.1164  0.1686
 7789SOL     OW30927   0.877   4.041   1.816  0.2395  0.2084  0.5913
 7789SOL    HW230928   0.971   4.025   1.816  0.1853 -0.2797  2.1065
 7789SOL    HW330929   0.838   3.955   1.800  0.0427  0.5718 -1.0017
 7789SOL    MW430930   0.884   4.027   1.814  0.2064  0.1920  0.5810
 7790SOL     OW30931   3.728   2.130   0.229 -0.0613 -0.0423  0.5736
 7790SOL    HW230932   3.799   2.176   0.274  0.2612 -0.9906  1.0468
 7790SOL    HW330933   3.766   2.047   0.201 -0.4637  0.2193 -0.8419
 7790SOL    MW430934   3.742   2.125   0.231 -0.0719 -0.1329  0.4493
 7791SOL     OW30935   5.029   4.919   2.641 -0.4417  0.3157  0.1893
 7791SOL    HW230936   5.046   4.852   2.707  0.4076  1.9715  1.7539
 7791SOL    HW330937   4.987   4.990   2.690 -1.6189  0.8349 -1.4646
 7791SOL    MW430938   5.026   4.920   2.656 -0.4850  0.6026  0.1775
 7792SOL     OW30939   1.240   1.677   1.654 -0.3215 -0.2135 -0.5128
 7792SOL    HW230940   1.314   1.720   1.611  0.2258 -0.7614 -0.1388
 7792SOL    HW330941   1.240   1.588   1.619 -1.9200  0.2741 -1.8682
 7792SOL    MW430942   1.250   1.671   1.644 -0.4602 -0.2214 -0.6423
 7793SOL     OW30943   2.491   6.009   5.570 -0.0678  0.1288  0.1709
 7793SOL    HW230944   2.558   5.944   5.550 -0.3657 -0.4674  1.0947
 7793SOL    HW330945   2.526   6.091   5.534  1.6330  0.0425  1.5229
 7793SOL    MW430946   2.504   6.011   5.563  0.1173  0.0388  0.4712
 7794SOL     OW30947   2.977   3.725   5.228  0.0510 -0.1199 -0.0332
 7794SOL    HW230948   2.981   3.788   5.299 -1.0801 -0.1293  0.0606
 7794SOL    HW330949   2.969   3.640   5.273 -0.0065 -0.1828 -0.1629
 7794SOL    MW430950   2.976   3.722   5.244 -0.1058 -0.1295 -0.0379
 7795SOL     OW30951   5.830   3.450   6.171  0.4588 -0.0610 -0.0511
 7795SOL    HW230952   5.926   3.450   6.161  0.4323 -0.1897 -0.3442
 7795SOL    HW330953   5.809   3.535   6.209  0.7086 -0.1119  0.2008
 7795SOL    MW430954   5.840   3.461   6.174  0.4883 -0.0847 -0.0566
 7796SOL     OW30955   3.008   4.784   4.927 -0.2274  0.4454  0.0759
 7796SOL    HW230956   3.057   4.736   4.861  0.4887  0.2034  0.7750
 7796SOL    HW330957   2.939   4.828   4.877 -0.5776 -0.8591 -0.6528
 7796SOL    MW430958   3.005   4.783   4.911 -0.1791  0.2414  0.0720
 7797SOL     OW30959   4.509   1.577   3.939 -0.5153  0.0391  0.4105
 7797SOL    HW230960   4.592   1.534   3.919  0.3311  1.2122  1.2172
 7797SOL    HW330961   4.484   1.544   4.025  1.1195  2.3917  1.9337
 7797SOL    MW430962   4.516   1.567   3.948 -0.1879  0.5043  0.7179
 7798SOL     OW30963   3.386   1.176   3.726 -0.1734  0.0953  0.3902
 7798SOL    HW230964   3.403   1.162   3.819 -0.8079 -0.9331  0.3581
 7798SOL    HW330965   3.472   1.169   3.685 -0.0806 -0.8586  0.7323
 7798SOL    MW430966   3.400   1.173   3.733 -0.2449 -0.1662  0.4311
 7799SOL     OW30967   4.340   0.569   1.668 -1.0341 -0.2540 -0.0576
 7799SOL    HW230968   4.349   0.644   1.609 -0.9308  0.1579  0.4716
 7799SOL    HW330969   4.245   0.558   1.678 -1.1295 -1.6705 -1.9598
 7799SOL    MW430970   4.328   0.578   1.661 -1.0331 -0.3865 -0.2387
 7800SOL     OW30971   0.932   4.948   5.290  0.1469  0.3091  0.2361
 7800SOL    HW230972   0.864   4.895   5.247  0.9283 -1.1925  0.7708
 7800SOL    HW330973   1.012   4.926   5.244  0.2853  2.1692 -0.4716
 7800SOL    MW430974   0.934   4.938   5.279  0.2682  0.3564  0.2133
 7801SOL     OW30975   3.676   1.892   5.044  0.5823 -0.5191 -0.5097
 7801SOL    HW230976   3.746   1.919   4.985  0.5675 -1.0607 -0.7886
 7801SOL    HW330977   3.625   1.829   4.993  0.2562 -0.5971 -0.0982
 7801SOL    MW430978   3.678   1.887   5.029  0.5373 -0.6008 -0.4922
 7802SOL     OW30979   4.330   5.089   5.754  0.0271 -0.0208  0.6119
 7802SOL    HW230980   4.238   5.094   5.780  0.0715  0.4647  0.6839
 7802SOL    HW330981   4.332   5.124   5.665 -0.0327 -1.1327  0.1599
 7802SOL    MW430982   4.318   5.094   5.746  0.0250 -0.1034  0.5617
 7803SOL     OW30983   3.483   0.859   3.356 -0.5131 -0.0724  0.3761
 7803SOL    HW230984   3.531   0.924   3.406  0.0435  0.9499 -1.3771
 7803SOL    HW330985   3.550   0.808   3.311 -0.9805  0.1106 -0.5789
 7803SOL    MW430986   3.498   0.861   3.356 -0.5013  0.0866  0.0188
 7804SOL     OW30987   1.737   2.996   2.978 -0.5273  1.1507 -0.2636
 7804SOL    HW230988   1.694   2.957   2.902 -0.5550  0.6898 -0.0168
 7804SOL    HW330989   1.809   3.047   2.942 -1.7408  2.6071 -0.7531
 7804SOL    MW430990   1.741   2.998   2.963 -0.6910  1.2821 -0.2956
 7805SOL     OW30991   1.870   1.198   3.177 -0.0592 -0.2081 -0.1027
 7805SOL    HW230992   1.843   1.122   3.125 -1.5805 -0.3463  0.8072
 7805SOL    HW330993   1.820   1.271   3.139 -1.5671 -0.3944  1.3755
 7805SOL    MW430994   1.860   1.198   3.165 -0.4588 -0.2509  0.2124
 7806SOL     OW30995   3.898   4.616   0.340 -0.5762  0.1627 -0.2142
 7806SOL    HW230996   3.837   4.666   0.394  0.0113 -0.1077  0.7143
 7806SOL    HW330997   3.983   4.659   0.352 -0.2882 -0.3662 -0.3153
 7806SOL    MW430998   3.901   4.628   0.348 -0.4607  0.0573 -0.1050
 7807SOL     OW30999   5.182   5.245   4.086 -0.2192  0.5976 -0.7159
 7807SOL    HW231000   5.097   5.229   4.045  0.7173  1.5986 -3.2717
 7807SOL    HW331001   5.246   5.219   4.020  1.6032 -1.8558  1.7780
 7807SOL    MW431002   5.179   5.239   4.072  0.1448  0.4059 -0.7241
 7808SOL     OW31003   1.746   4.365   3.721 -0.1383  0.1216 -0.6617
 7808SOL    HW231004   1.763   4.287   3.668  0.6938 -0.1301 -0.0569
 7808SOL    HW331005   1.651   4.370   3.729 -0.2036 -0.7284 -0.8686
 7808SOL    MW431006   1.736   4.355   3.715 -0.0372 -0.0238 -0.6092
 7809SOL     OW31007   4.909   2.134   1.424 -0.2359 -0.1806 -0.0634
 7809SOL    HW231008   4.840   2.129   1.358  0.5777 -0.6080 -0.9043
 7809SOL    HW331009   4.955   2.050   1.416 -1.2750 -1.0631  2.3541
 7809SOL    MW431010   4.906   2.122   1.414 -0.2657 -0.3534  0.1446
 7810SOL     OW31011   5.938   2.496   0.875 -0.0897 -0.2121 -0.1745
 7810SOL    HW231012   5.983   2.450   0.945  0.2490 -0.8757 -0.8204
 7810SOL    HW331013   5.995   2.487   0.799 -0.2757  0.8133 -0.4509
 7810SOL    MW431014   5.951   2.489   0.874 -0.0696 -0.1644 -0.2962
 7811SOL     OW31015   5.215   4.193   3.001 -0.1164 -0.4197  0.4267
 7811SOL    HW231016   5.296   4.167   3.046  0.1864  0.6954  0.5666
 7811SOL    HW331017   5.218   4.289   3.000 -1.3678 -0.3663  0.2882
 7811SOL    MW431018   5.226   4.202   3.007 -0.2416 -0.2656  0.4269
 7812SOL     OW31019   5.819   3.515   0.667 -0.3305 -0.0337  0.2048
 7812SOL    HW231020   5.838   3.595   0.716 -1.4593 -0.3746  1.2527
 7812SOL    HW331021   5.904   3.488   0.632  0.3697  0.7160  1.2421
 7812SOL    MW431022   5.833   3.522   0.669 -0.3871  0.0202  0.4799
 7813SOL     OW31023   4.557   4.511   2.759 -0.3685 -0.0966 -0.1272
 7813SOL    HW231024   4.639   4.478   2.796 -0.5252 -0.7029 -0.3059
 7813SOL    HW331025   4.492   4.498   2.829 -0.3908  0.0309 -0.1230
 7813SOL    MW431026   4.559   4.505   2.773 -0.3921 -0.1597 -0.1502
 7814SOL     OW31027   2.767   0.759   4.705  0.1211 -0.0014  0.0391
 7814SOL    HW231028   2.742   0.758   4.797  1.6082 -1.4861  0.4752
 7814SOL    HW331029   2.688   0.732   4.658  0.4800 -3.8152  1.2910
 7814SOL    MW431030   2.753   0.756   4.711  0.3646 -0.7005  0.2618
 7815SOL     OW31031   2.530   0.004   3.925  0.1902  0.2111 -0.3908
 7815SOL    HW231032   2.525   0.083   3.871 -1.3318 -0.7053 -1.6527
 7815SOL    HW331033   2.594  -0.052   3.881  1.4329  0.7866  0.6229
 7815SOL    MW431034   2.538   0.007   3.912  0.1533  0.1661 -0.4236
 7816SOL     OW31035   3.801   6.098   3.063 -0.4676  0.2065  0.4587
 7816SOL    HW231036   3.755   6.036   3.007 -1.1996  0.7146  0.4800
 7816SOL    HW331037   3.773   6.076   3.151 -1.6347  1.2702  0.3820
 7816SOL    MW431038   3.791   6.087   3.067 -0.7182  0.4139  0.4514
 7817SOL     OW31039   4.299   1.406   1.832  0.1647  0.3825 -0.6847
 7817SOL    HW231040   4.390   1.380   1.840  0.2562  0.2701 -1.9310
 7817SOL    HW331041   4.280   1.454   1.913  0.4842 -2.0327  0.9254
 7817SOL    MW431042   4.308   1.409   1.844  0.2189  0.0490 -0.6367
 7818SOL     OW31043   2.767   4.453   5.733  0.7369  0.2217  0.0003
 7818SOL    HW231044   2.685   4.420   5.770  1.4305 -0.6850  0.8053
 7818SOL    HW331045   2.746   4.539   5.698 -0.9236 -0.6566 -1.2378
 7818SOL    MW431046   2.754   4.460   5.733  0.6093 -0.0138 -0.0568
 7819SOL     OW31047   2.463   1.803   2.753  0.4228 -0.3470 -0.4290
 7819SOL    HW231048   2.445   1.885   2.800  0.8691  0.2205 -1.2105
 7819SOL    HW331049   2.543   1.770   2.793 -0.1695 -0.8075  0.3969
 7819SOL    MW431050   2.471   1.810   2.764  0.4035 -0.3329 -0.4231
 7820SOL     OW31051   1.017   2.064   4.315 -0.2886  0.5724  0.1657
 7820SOL    HW231052   1.024   2.001   4.386 -0.0843  0.3153 -0.0798
 7820SOL    HW331053   0.948   2.124   4.343 -1.5269 -0.6044 -0.2217
 7820SOL    MW431054   1.009   2.063   4.328 -0.4250  0.3832  0.0822
 7821SOL     OW31055   3.561   6.149   2.383 -0.1311  0.4603 -0.0002
 7821SOL    HW231056   3.546   6.075   2.325 -0.7962 -0.6471  1.5118
 7821SOL    HW331057   3.624   6.204   2.336  2.4293 -2.3144 -0.1598
 7821SOL    MW431058   3.568   6.146   2.369  0.1190 -0.0519  0.1782
 7822SOL     OW31059   3.552   4.902   4.695 -0.1511 -0.6049 -0.0750
 7822SOL    HW231060   3.571   4.873   4.785 -0.3779  0.8682  0.4751
 7822SOL    HW331061   3.524   4.993   4.705 -0.7384 -0.5972 -1.5932
 7822SOL    MW431062   3.551   4.910   4.708 -0.2585 -0.4095 -0.2027
 7823SOL     OW31063   4.777   2.421   0.922  0.3462  0.3140 -0.4663
 7823SOL    HW231064   4.795   2.500   0.871 -0.9948  0.0398 -1.4092
 7823SOL    HW331065   4.766   2.453   1.011 -0.4776  1.2448 -0.8800
 7823SOL    MW431066   4.778   2.436   0.927  0.0606  0.4006 -0.6453
 7824SOL     OW31067   0.706   2.357   2.909 -0.2311  0.2441 -0.0850
 7824SOL    HW231068   0.732   2.301   2.982 -0.6350  0.3821  0.1649
 7824SOL    HW331069   0.728   2.446   2.938 -1.1886  0.3887  0.2248
 7824SOL    MW431070   0.712   2.362   2.923 -0.4107  0.2814 -0.0112
 7825SOL     OW31071   2.168   3.286   3.251 -0.2927 -0.2827 -0.5380
 7825SOL    HW231072   2.172   3.324   3.338 -0.7284  1.8409 -1.3839
 7825SOL    HW331073   2.259   3.285   3.221 -0.2209 -0.3643 -0.3143
 7825SOL    MW431074   2.181   3.291   3.258 -0.3408 -0.0133 -0.6201
 7826SOL     OW31075   1.579   2.274   0.993 -0.1953  0.5166 -0.5071
 7826SOL    HW231076   1.548   2.206   0.932 -0.4861 -1.0393  1.2936
 7826SOL    HW331077   1.510   2.280   1.059  1.5447 -0.1874  1.4473
 7826SOL    MW431078   1.566   2.266   0.994 -0.0041  0.2185 -0.0116
 7827SOL     OW31079   4.054   1.679   3.827 -0.2107  0.6435  0.6020
 7827SOL    HW231080   3.971   1.678   3.779  0.7049  1.6542 -1.1084
 7827SOL    HW331081   4.029   1.702   3.917 -1.7206  1.7469 -0.0511
 7827SOL    MW431082   4.040   1.682   3.833 -0.2891  0.9224  0.2902
 7828SOL     OW31083   2.542   3.920   0.264 -0.3524 -0.3143 -0.1733
 7828SOL    HW231084   2.589   3.861   0.323  2.1327  0.5594 -1.1217
 7828SOL    HW331085   2.575   4.007   0.287  1.0540  0.0306 -3.0135
 7828SOL    MW431086   2.553   3.924   0.275  0.1611 -0.1535 -0.6732
 7829SOL     OW31087   3.269   0.689   3.730  0.7614 -0.5998 -0.7579
 7829SOL    HW231088   3.252   0.606   3.775  1.5877 -0.4186 -0.0879
 7829SOL    HW331089   3.359   0.712   3.754 -0.0073  1.3782  0.5189
 7829SOL    MW431090   3.279   0.681   3.739  0.7690 -0.3149 -0.5011
 7830SOL     OW31091   5.858   3.520   1.698 -0.2218 -0.2821 -0.0856
 7830SOL    HW231092   5.807   3.600   1.710  0.9234  0.2349  1.8620
 7830SOL    HW331093   5.793   3.453   1.678 -1.3806  0.8220 -0.1665
 7830SOL    MW431094   5.843   3.522   1.697 -0.2236 -0.0682  0.1607
 7831SOL     OW31095   2.364   0.036   3.312  0.4378 -0.1708 -0.1330
 7831SOL    HW231096   2.457   0.013   3.310  0.8478  1.2834  0.5652
 7831SOL    HW331097   2.363   0.130   3.291 -0.7441  0.1596  1.2773
 7831SOL    MW431098   2.376   0.046   3.309  0.3360  0.0646  0.1452
 7832SOL     OW31099   4.402   4.555   1.828 -0.5314 -0.5233 -0.3557
 7832SOL    HW231100   4.492   4.523   1.838 -0.4087 -0.0056  0.2881
 7832SOL    HW331101   4.390   4.614   1.903 -1.7973 -1.4575  0.2135
 7832SOL    MW431102   4.412   4.559   1.840 -0.6823 -0.5783 -0.1956
 7833SOL     OW31103   5.205   3.563   5.307 -0.3736  0.1921 -0.4007
 7833SOL    HW231104   5.258   3.614   5.245  1.9981 -1.3045  0.2441
 7833SOL    HW331105   5.266   3.543   5.378 -2.3194 -0.2682  1.2133
 7833SOL    MW431106   5.220   3.567   5.308 -0.3174 -0.0661 -0.1027
 7834SOL     OW31107   3.634   1.329   4.919 -0.2034 -0.3124  0.5485
 7834SOL    HW231108   3.573   1.343   4.847 -0.6846 -0.4537  0.9241
 7834SOL    HW331109   3.582   1.343   4.998  0.3178 -0.1602  0.8706
 7834SOL    MW431110   3.619   1.333   4.920 -0.1981 -0.3110  0.6406
 7835SOL     OW31111   0.791   1.837   4.403  0.5570 -0.0616 -0.4584
 7835SOL    HW231112   0.823   1.762   4.454 -0.8020  0.8190  1.8474
 7835SOL    HW331113   0.696   1.823   4.397  0.1447  1.7877  0.7292
 7835SOL    MW431114   0.783   1.825   4.409  0.3233  0.2985  0.0025
 7836SOL     OW31115   0.472   2.358   2.525 -0.3407  0.0929 -0.1524
 7836SOL    HW231116   0.411   2.320   2.462  0.1984 -1.2789  0.1210
 7836SOL    HW331117   0.558   2.343   2.487 -0.0570 -0.0013  0.5228
 7836SOL    MW431118   0.475   2.351   2.512 -0.2321 -0.1005 -0.0272
 7837SOL     OW31119   2.297   2.330   4.398 -0.2025 -0.7812 -0.0664
 7837SOL    HW231120   2.279   2.241   4.431 -0.2754 -0.0740  1.9508
 7837SOL    HW331121   2.237   2.340   4.324  0.4796 -2.7314 -0.9691
 7837SOL    MW431122   2.287   2.319   4.393 -0.1221 -0.9452  0.0807
 7838SOL     OW31123   0.237   0.373   3.450  0.1147 -1.0338 -0.0133
 7838SOL    HW231124   0.308   0.378   3.386  0.8091 -0.4669  0.7786
 7838SOL    HW331125   0.266   0.308   3.513  0.2688 -0.2872  0.7030
 7838SOL    MW431126   0.250   0.365   3.450  0.2266 -0.8605  0.1857
 7839SOL     OW31127   1.261   3.457   1.704 -0.1274 -0.1626  0.6532
 7839SOL    HW231128   1.295   3.449   1.793  1.4321  0.7849  0.1841
 7839SOL    HW331129   1.338   3.475   1.650 -1.1343  0.0574 -0.7810
 7839SOL    MW431130   1.276   3.458   1.708 -0.0545 -0.0086  0.4021
 7840SOL     OW31131   6.108   6.024   6.067 -0.0585  0.6648  1.0274
 7840SOL    HW231132   6.019   6.061   6.066 -0.2946  0.3601 -2.6064
 7840SOL    HW331133   6.161   6.091   6.023  0.9398 -0.3243  0.6994
 7840SOL    MW431134   6.103   6.038   6.061  0.0421  0.4941  0.5047
 7841SOL     OW31135   5.913   3.152   0.457  0.2986  0.4751  0.3729
 7841SOL    HW231136   5.908   3.079   0.519  1.4895  0.4465  0.4514
 7841SOL    HW331137   5.832   3.144   0.405  0.4971 -1.0493  0.2283
 7841SOL    MW431138   5.901   3.141   0.458  0.4819  0.2702  0.3642
 7842SOL     OW31139   5.919   4.899   3.283  0.4891  0.1051 -0.2841
 7842SOL    HW231140   5.998   4.845   3.274 -0.0334 -0.7716  0.2889
 7842SOL    HW331141   5.870   4.883   3.203  0.1464 -0.5944  0.0599
 7842SOL    MW431142   5.923   4.890   3.271  0.3749 -0.1029 -0.1631
 7843SOL     OW31143   5.905   0.856   5.576  0.5218  0.0289  0.1607
 7843SOL    HW231144   5.988   0.903   5.579 -1.8787  5.0849 -1.8956
 7843SOL    HW331145   5.906   0.813   5.490  0.6623  0.9531 -0.3158
 7843SOL    MW431146   5.916   0.856   5.565  0.2236  0.8179 -0.1735
 7844SOL     OW31147   4.951   1.835   1.894 -0.2485  0.1300  0.3237
 7844SOL    HW231148   4.988   1.847   1.982 -0.2476  3.0063  0.0137
 7844SOL    HW331149   4.898   1.912   1.879 -2.2151 -1.4248 -1.3372
 7844SOL    MW431150   4.949   1.847   1.904 -0.5079  0.3044  0.0637
 7845SOL     OW31151   3.992   6.346   0.101  0.3050 -0.1196 -0.4555
 7845SOL    HW231152   3.995   6.429   0.147  0.6928 -0.4374  0.1065
 7845SOL    HW331153   4.020   6.367   0.012 -0.7120  0.5468 -0.6369
 7845SOL    MW431154   3.996   6.360   0.095  0.2220 -0.0736 -0.4053
 7846SOL     OW31155   6.403   1.423   2.023  0.0004  0.3211 -0.5110
 7846SOL    HW231156   6.399   1.498   1.963  1.1115  1.5479  0.8444
 7846SOL    HW331157   6.463   1.362   1.981  1.9303  1.8059 -0.0734
 7846SOL    MW431158   6.411   1.425   2.010  0.4017  0.6789 -0.2744
 7847SOL     OW31159   1.935   2.044   1.824 -0.4650  0.6210 -0.0857
 7847SOL    HW231160   1.898   1.961   1.792  0.0046  1.0253 -1.7551
 7847SOL    HW331161   1.883   2.064   1.902 -1.4092 -0.6165 -0.3585
 7847SOL    MW431162   1.923   2.035   1.830 -0.5276  0.5111 -0.3419
 7848SOL     OW31163   4.544   5.767   5.743 -0.0428  0.3158 -0.0277
 7848SOL    HW231164   4.596   5.832   5.696  0.2982  0.4871  0.5690
 7848SOL    HW331165   4.535   5.694   5.682  1.5062 -0.0117  0.0939
 7848SOL    MW431166   4.550   5.766   5.729  0.2065  0.2952  0.0670
 7849SOL     OW31167   3.376   4.357   3.531  0.0607  0.2556 -0.2629
 7849SOL    HW231168   3.412   4.274   3.562 -2.3307 -0.3429  1.1148
 7849SOL    HW331169   3.421   4.423   3.583  2.8824  0.0553 -2.2052
 7849SOL    MW431170   3.387   4.355   3.542  0.1175  0.1502 -0.3374
 7850SOL     OW31171   6.256   1.189   4.019 -0.0745  0.2283 -0.3903
 7850SOL    HW231172   6.311   1.189   4.097  0.6404 -1.0075 -0.8746
 7850SOL    HW331173   6.228   1.280   4.009  0.4875  0.5490  0.8366
 7850SOL    MW431174   6.259   1.201   4.028  0.0939  0.1076 -0.2923
 7851SOL     OW31175   3.558   3.840   4.577 -0.0701  0.0583  0.0567
 7851SOL    HW231176   3.594   3.817   4.491 -1.1349 -2.9179  0.2799
 7851SOL    HW331177   3.481   3.784   4.586 -0.6855  1.1699  2.4806
 7851SOL    MW431178   3.552   3.829   4.567 -0.2918 -0.1877  0.4059
 7852SOL     OW31179   6.075   2.941   3.193  0.5555 -0.4276  0.1365
 7852SOL    HW231180   6.056   2.883   3.119 -2.0230 -0.2953  0.6046
 7852SOL    HW331181   6.066   3.029   3.157 -1.3818 -0.3549  0.6693
 7852SOL    MW431182   6.071   2.945   3.179 -0.0403 -0.4006  0.2686
 7853SOL     OW31183   0.130   5.559   2.670  0.0521  0.5095  0.1395
 7853SOL    HW231184   0.086   5.493   2.616  0.2209  0.8600 -0.4358
 7853SOL    HW331185   0.219   5.524   2.681 -0.0506  0.3251  0.3866
 7853SOL    MW431186   0.136   5.546   2.664  0.0608  0.5314  0.0962
 7854SOL     OW31187   5.469   2.987   3.929 -0.2875 -0.2199  0.1970
 7854SOL    HW231188   5.439   2.920   3.990  2.0360 -1.8107 -0.2840
 7854SOL    HW331189   5.498   2.938   3.852  1.1260  1.3535 -0.3240
 7854SOL    MW431190   5.469   2.972   3.927  0.2055 -0.2222  0.0648
 7855SOL     OW31191   6.022   4.539   1.740 -0.0842  0.7000 -0.3568
 7855SOL    HW231192   6.058   4.529   1.828  1.0280  1.7664 -0.6481
 7855SOL    HW331193   5.930   4.515   1.748 -0.0780  1.0659  1.1639
 7855SOL    MW431194   6.015   4.535   1.752  0.0633  0.8890 -0.1946
 7856SOL     OW31195   2.814   5.662   0.308 -0.8703  0.0780  0.0528
 7856SOL    HW231196   2.849   5.709   0.384  0.7710 -1.2598  0.1894
 7856SOL    HW331197   2.759   5.727   0.263 -0.7579  1.3189  1.6114
 7856SOL    MW431198   2.812   5.677   0.312 -0.6389  0.0652  0.2765
 7857SOL     OW31199   2.425   2.943   3.314  0.9655 -0.3159  0.2971
 7857SOL    HW231200   2.472   2.897   3.245  0.3377  1.1263 -1.1532
 7857SOL    HW331201   2.471   2.920   3.394  1.4654 -2.3690 -0.5275
 7857SOL    MW431202   2.437   2.934   3.315  0.9486 -0.3965 -0.0030
 7858SOL     OW31203   2.743   2.273   6.029  0.0727 -0.0521  0.4560
 7858SOL    HW231204   2.766   2.181   6.038  0.3017 -0.0127  0.2985
 7858SOL    HW331205   2.663   2.284   6.081 -1.2432 -0.8358 -1.3054
 7858SOL    MW431206   2.736   2.262   6.037 -0.0707 -0.1503  0.2028
 7859SOL     OW31207   6.321   3.274   2.426 -0.1214  0.0827  0.2389
 7859SOL    HW231208   6.249   3.276   2.363  0.8712 -3.8855 -1.2896
 7859SOL    HW331209   6.398   3.301   2.375  0.4091 -1.5284  0.1395
 7859SOL    MW431210   6.322   3.278   2.411  0.0796 -0.6534  0.0241
 7860SOL     OW31211   0.709   6.222   5.943  0.1048 -0.3560 -0.2619
 7860SOL    HW231212   0.643   6.290   5.930  1.0309  0.3038 -1.7618
 7860SOL    HW331213   0.721   6.182   5.857  2.2740  0.1433 -0.2506
 7860SOL    MW431214   0.702   6.226   5.930  0.5132 -0.2031 -0.4583
 7861SOL     OW31215   2.872   2.770   4.730  0.3391  0.0223  0.1907
 7861SOL    HW231216   2.966   2.767   4.748  0.5745 -3.0340 -0.9634
 7861SOL    HW331217   2.861   2.841   4.668  2.5938 -1.9127 -2.6708
 7861SOL    MW431218   2.883   2.779   4.724  0.6677 -0.6362 -0.3391
 7862SOL     OW31219   4.044   5.792   4.643  0.2863  0.0190 -0.1116
 7862SOL    HW231220   4.112   5.846   4.602 -0.8803  2.0085  0.4351
 7862SOL    HW331221   3.965   5.811   4.592 -0.6240  0.5347  1.4296
 7862SOL    MW431222   4.043   5.802   4.631  0.0123  0.3496  0.1639
 7863SOL     OW31223   5.999   1.628   6.299 -0.0290  0.2499  0.0395
 7863SOL    HW231224   5.957   1.656   6.218  1.6359  0.4347 -0.8027
 7863SOL    HW331225   6.092   1.623   6.277  0.4258  0.0500  1.8764
 7863SOL    MW431226   6.006   1.631   6.285  0.2507  0.2479  0.1707
 7864SOL     OW31227   6.173   6.057   6.337 -0.4032  0.6529  0.7750
 7864SOL    HW231228   6.149   5.980   6.387 -1.0478  1.5502  1.9022
 7864SOL    HW331229   6.143   6.038   6.248 -0.2060 -0.5315  0.9523
 7864SOL    MW431230   6.166   6.044   6.332 -0.4622  0.6151  0.9471
 7865SOL     OW31231   3.951   3.628   6.365 -0.3834 -0.2211  0.6736
 7865SOL    HW231232   3.953   3.585   6.279 -0.1671  0.7377  0.1769
 7865SOL    HW331233   3.994   3.712   6.350 -1.9652  0.7360  1.2793
 7865SOL    MW431234   3.957   3.633   6.352 -0.5636  0.0317  0.6879
 7866SOL     OW31235   4.661   0.449   3.539  0.3217  0.1186 -0.2415
 7866SOL    HW231236   4.709   0.531   3.552 -0.6871  0.5328  1.1087
 7866SOL    HW331237   4.578   0.476   3.499 -0.8304  0.0355  1.9647
 7866SOL    MW431238   4.656   0.464   3.535  0.0366  0.1623  0.2277
 7867SOL     OW31239   4.391   3.016   2.424  0.6420  0.0479 -0.3945
 7867SOL    HW231240   4.413   3.071   2.348 -0.6291 -0.8370 -1.4699
 7867SOL    HW331241   4.299   3.036   2.441  0.9347  0.3069  1.0178
 7867SOL    MW431242   4.381   3.026   2.416  0.5129 -0.0347 -0.3500
 7868SOL     OW31243   2.179   0.547   3.919  0.7065 -0.4313  0.8818
 7868SOL    HW231244   2.134   0.629   3.899 -0.7141 -1.5473 -0.8071
 7868SOL    HW331245   2.271   0.565   3.900  0.3588  0.6545  0.1172
 7868SOL    MW431246   2.185   0.560   3.914  0.4732 -0.4352  0.5581
 7869SOL     OW31247   4.499   3.560   4.534  0.7926 -0.1194  0.3473
 7869SOL    HW231248   4.425   3.524   4.486 -0.5829  1.1309  1.4550
 7869SOL    HW331249   4.544   3.482   4.570 -0.7425 -0.8500  0.7500
 7869SOL    MW431250   4.495   3.545   4.532  0.4086 -0.0508  0.5465
 7870SOL     OW31251   3.180   4.937   1.475  0.1788 -0.2058  0.0285
 7870SOL    HW231252   3.176   4.894   1.560  0.6394 -0.1231  0.0957
 7870SOL    HW331253   3.163   5.030   1.495  0.9814 -0.0684  0.1366
 7870SOL    MW431254   3.178   4.944   1.489  0.3455 -0.1768  0.0516
 7871SOL     OW31255   4.834   3.628   0.128 -0.2725  0.5877 -0.7483
 7871SOL    HW231256   4.798   3.664   0.047 -2.5229  0.3948  0.1079
 7871SOL    HW331257   4.758   3.598   0.177  1.2510 -2.9452 -0.2277
 7871SOL    MW431258   4.820   3.629   0.124 -0.3684  0.0961 -0.5666
 7872SOL     OW31259   1.326   1.440   3.601 -0.2498 -0.0567 -0.6378
 7872SOL    HW231260   1.369   1.518   3.636  1.6586 -1.2372 -0.2208
 7872SOL    HW331261   1.366   1.367   3.649 -1.0323 -1.3868 -1.9353
 7872SOL    MW431262   1.337   1.441   3.612 -0.1012 -0.3880 -0.7539
 7873SOL     OW31263   4.982   2.200   2.281 -0.1899  0.2624  0.2837
 7873SOL    HW231264   4.953   2.134   2.344  0.8854  1.8976  2.6255
 7873SOL    HW331265   4.910   2.206   2.218 -1.3092 -1.4758  1.2949
 7873SOL    MW431266   4.969   2.192   2.281 -0.1957  0.2488  0.7261
 7874SOL     OW31267   0.986   0.555   6.187  0.0666 -0.3024  0.0851
 7874SOL    HW231268   0.984   0.466   6.153 -0.0296 -0.1677 -0.2784
 7874SOL    HW331269   0.894   0.581   6.191  0.1482  0.3106 -1.2825
 7874SOL    MW431270   0.973   0.547   6.183  0.0647 -0.2037 -0.1433
 7875SOL     OW31271   6.081   4.184   5.368 -0.2940 -0.1378  0.0716
 7875SOL    HW231272   6.013   4.118   5.381  0.1319 -0.8730 -1.2345
 7875SOL    HW331273   6.049   4.236   5.294 -0.2133  0.5679  0.5293
 7875SOL    MW431274   6.068   4.182   5.360 -0.2272 -0.1417 -0.0403
 7876SOL     OW31275   2.491   6.144   1.297  0.2732  0.1772  0.4849
 7876SOL    HW231276   2.507   6.050   1.304  0.7580  0.3088  1.2797
 7876SOL    HW331277   2.442   6.166   1.376 -0.3299  0.4992  0.0277
 7876SOL    MW431278   2.487   6.134   1.308  0.2576  0.2370  0.5294
 7877SOL     OW31279   1.462   1.799   1.495  0.3797  0.8003  0.2411
 7877SOL    HW231280   1.434   1.804   1.404  1.4605 -2.1638 -0.3711
 7877SOL    HW331281   1.557   1.790   1.490  0.6743  2.5925  1.8058
 7877SOL    MW431282   1.471   1.798   1.482  0.5612  0.6457  0.3668
 7878SOL     OW31283   3.156   4.498   0.968 -0.1143  0.0771 -0.0621
 7878SOL    HW231284   3.163   4.586   1.006  1.4821 -0.3046  0.6335
 7878SOL    HW331285   3.148   4.441   1.044  1.5367 -0.5738 -0.3433
 7878SOL    MW431286   3.156   4.502   0.983  0.3142 -0.0591 -0.0074
 7879SOL     OW31287   1.472   2.055   4.940 -0.2665  0.3655  0.3749
 7879SOL    HW231288   1.422   2.026   4.864  1.1811  0.5082 -0.6852
 7879SOL    HW331289   1.510   1.975   4.976 -0.9957  0.2918  0.9952
 7879SOL    MW431290   1.470   2.041   4.935 -0.1717  0.3746  0.3169
 7880SOL     OW31291   0.543   1.735   4.369 -0.1271 -0.5577 -0.0151
 7880SOL    HW231292   0.578   1.646   4.360 -0.5376 -0.6085 -1.3760
 7880SOL    HW331293   0.482   1.744   4.296  0.4197  1.0872 -0.3133
 7880SOL    MW431294   0.539   1.724   4.358 -0.1091 -0.3474 -0.2340
 7881SOL     OW31295   3.101   4.214   3.054 -0.0981  0.3773 -0.4088
 7881SOL    HW231296   3.143   4.299   3.040 -0.8948  0.8179 -0.1838
 7881SOL    HW331297   3.014   4.236   3.089 -0.5391 -0.5132 -0.9284
 7881SOL    MW431298   3.095   4.228   3.057 -0.2614  0.3179 -0.4477
 7882SOL     OW31299   0.821   1.382   5.951 -0.1455  0.6465  0.3708
 7882SOL    HW231300   0.877   1.361   6.026 -0.2493  2.0451  0.8808
 7882SOL    HW331301   0.821   1.478   5.948  0.5885  0.6359 -1.9859
 7882SOL    MW431302   0.828   1.392   5.960 -0.0624  0.8296  0.1271
 7883SOL     OW31303   3.899   2.835   3.851  0.2082  0.3367 -0.1627
 7883SOL    HW231304   3.908   2.876   3.937  1.0927 -0.5378  0.1827
 7883SOL    HW331305   3.867   2.905   3.794  2.0150  1.6306  0.3166
 7883SOL    MW431306   3.896   2.849   3.854  0.5633  0.3921 -0.0539
 7884SOL     OW31307   5.339   3.423   3.286 -0.2492  0.1295 -0.1950
 7884SOL    HW231308   5.430   3.441   3.309 -0.2869  0.3193 -0.1944
 7884SOL    HW331309   5.291   3.433   3.368 -0.1476 -0.8307 -0.0131
 7884SOL    MW431310   5.344   3.427   3.300 -0.2408  0.0278 -0.1709
 7885SOL     OW31311   3.677   1.374   0.698 -0.0095  0.3728  0.3425
 7885SOL    HW231312   3.764   1.413   0.687  0.4911 -0.9610 -0.6956
 7885SOL    HW331313   3.695   1.283   0.723 -1.0800 -0.0699 -0.4440
 7885SOL    MW431314   3.691   1.367   0.700 -0.0847  0.1384  0.1017
 7886SOL     OW31315   0.426   4.929   5.314 -0.7161 -0.1117  0.3467
 7886SOL    HW231316   0.386   5.003   5.268  0.2680  0.1693 -0.0669
 7886SOL    HW331317   0.475   4.970   5.386 -1.5230 -0.4880  1.1338
 7886SOL    MW431318   0.427   4.944   5.317 -0.6927 -0.1243  0.3959
 7887SOL     OW31319   2.920   3.970   1.477 -0.1336  0.0721 -0.1387
 7887SOL    HW231320   2.859   4.042   1.461  1.0626  1.0738 -0.2632
 7887SOL    HW331321   3.007   4.008   1.464  0.5606 -1.1306  0.8181
 7887SOL    MW431322   2.923   3.984   1.473  0.1158  0.0456 -0.0289
 7888SOL     OW31323   1.661   4.742   2.484 -0.0231  0.1305  0.2280
 7888SOL    HW231324   1.610   4.819   2.511  1.3441  1.3181 -0.4137
 7888SOL    HW331325   1.731   4.736   2.550 -0.9573 -1.5062  1.1316
 7888SOL    MW431326   1.663   4.752   2.496  0.0340  0.0713  0.2625
 7889SOL     OW31327   1.085   5.353   5.344 -0.0764 -0.2257 -0.0798
 7889SOL    HW231328   1.038   5.288   5.292 -0.4121 -1.1095  1.2713
 7889SOL    HW331329   1.119   5.304   5.419 -0.8615  1.2450  1.2981
 7889SOL    MW431330   1.083   5.338   5.347 -0.2242 -0.1483  0.2803
 7890SOL     OW31331   5.193   2.765   5.769  0.3473 -0.5134 -0.1501
 7890SOL    HW231332   5.122   2.782   5.708  0.9216  1.0739 -0.4218
 7890SOL    HW331333   5.270   2.807   5.730  1.1605 -1.1267  0.7295
 7890SOL    MW431334   5.194   2.773   5.756  0.5304 -0.3849 -0.0699
 7891SOL     OW31335   0.050   5.886   5.038 -0.6461  0.5939  0.6152
 7891SOL    HW231336   0.019   5.828   5.108  0.5671 -0.3790  0.3771
 7891SOL    HW331337  -0.028   5.903   4.984 -1.4988  1.0148  1.9374
 7891SOL    MW431338   0.035   5.881   5.040 -0.5985  0.5211  0.7583
 7892SOL     OW31339   0.016   5.924   2.836  0.4276  0.1612 -0.1010
 7892SOL    HW231340  -0.004   5.987   2.904  1.2220 -0.8110  1.0685
 7892SOL    HW331341   0.056   5.850   2.882 -2.3003 -2.1475 -1.0642
 7892SOL    MW431342   0.018   5.922   2.851  0.1725 -0.2717 -0.0738
 7893SOL     OW31343   5.824   3.954   4.067  0.0116 -0.3761  0.9135
 7893SOL    HW231344   5.750   3.929   4.012  0.1609 -0.6636  0.8397
 7893SOL    HW331345   5.804   3.917   4.153 -0.1009 -0.1423  0.9903
 7893SOL    MW431346   5.812   3.946   4.071  0.0164 -0.3832  0.9139
 7894SOL     OW31347   2.943   5.240   0.582 -0.9409  0.2654  0.8704
 7894SOL    HW231348   2.968   5.294   0.507  1.0937 -1.5213  0.1542
 7894SOL    HW331349   2.854   5.210   0.561 -0.1008 -0.9183 -1.3394
 7894SOL    MW431350   2.935   5.243   0.569 -0.5616 -0.1265  0.4844
 7895SOL     OW31351   0.126   2.064   0.021 -0.3285  0.4199 -0.1764
 7895SOL    HW231352   0.181   2.073  -0.057  1.1913  0.3781  0.8659
 7895SOL    HW331353   0.039   2.093  -0.008  0.4684  1.5127 -1.5797
 7895SOL    MW431354   0.121   2.069   0.007 -0.0228  0.5586 -0.2240
 7896SOL     OW31355   4.112   4.060   2.469 -0.3365 -0.5647  0.0908
 7896SOL    HW231356   4.050   3.993   2.440  0.7179 -1.7605  0.5127
 7896SOL    HW331357   4.197   4.017   2.467  0.7081  1.4017 -1.6934
 7896SOL    MW431358   4.115   4.046   2.465 -0.0595 -0.4630 -0.0889
 7897SOL     OW31359   4.111   6.252   5.503  0.1274  0.6155  0.3611
 7897SOL    HW231360   4.156   6.265   5.419  0.4539 -2.2820 -0.0045
 7897SOL    HW331361   4.018   6.265   5.482  0.2874  0.9111 -0.1908
 7897SOL    MW431362   4.105   6.256   5.489  0.1916  0.2722  0.2400
 7898SOL     OW31363   2.951   4.169   4.271  0.4534  0.7914  0.2530
 7898SOL    HW231364   2.856   4.161   4.261  0.7094 -1.0541 -1.3635
 7898SOL    HW331365   2.964   4.177   4.366 -1.3186  1.2748  0.4966
 7898SOL    MW431366   2.940   4.169   4.283  0.2534  0.6117  0.0719
 7899SOL     OW31367   5.868   5.461   2.883  0.3537  0.3117 -0.2604
 7899SOL    HW231368   5.918   5.397   2.935 -0.5743 -0.6635 -0.5319
 7899SOL    HW331369   5.922   5.476   2.806  0.0677 -1.0887 -0.7749
 7899SOL    MW431370   5.882   5.454   2.880  0.1935 -0.0017 -0.3641
 7900SOL     OW31371   4.855   5.983   1.600 -0.2474 -0.3058  0.1140
 7900SOL    HW231372   4.872   5.984   1.694  0.0472 -3.7703  0.2210
 7900SOL    HW331373   4.933   5.943   1.561 -0.8344 -0.0107 -1.4617
 7900SOL    MW431374   4.868   5.978   1.607 -0.2860 -0.7240 -0.0797
 7901SOL     OW31375   5.321   2.340   5.286 -0.1794 -0.1536 -0.4800
 7901SOL    HW231376   5.339   2.251   5.318  0.5036 -0.5596 -1.9208
 7901SOL    HW331377   5.388   2.394   5.327  0.8289 -0.7051 -1.3578
 7901SOL    MW431378   5.332   2.335   5.296  0.0437 -0.2799 -0.7859
 7902SOL     OW31379   5.513   5.933   1.571  0.5784 -0.0704  0.0344
 7902SOL    HW231380   5.435   5.969   1.528 -1.2488 -1.2548  2.1736
 7902SOL    HW331381   5.516   5.842   1.543  1.5612  0.1035 -0.4683
 7902SOL    MW431382   5.503   5.926   1.562  0.4670 -0.2037  0.2503
 7903SOL     OW31383   3.980   4.495   3.503 -0.0598  0.2098 -0.0779
 7903SOL    HW231384   3.926   4.567   3.535 -0.5789 -0.9820  1.8827
 7903SOL    HW331385   4.053   4.538   3.459 -0.8907  1.9072  0.1124
 7903SOL    MW431386   3.983   4.511   3.501 -0.2379  0.2765  0.2059
 7904SOL     OW31387   5.856   3.009   3.376  0.2997  0.0485  0.3263
 7904SOL    HW231388   5.868   3.025   3.283 -0.0920  1.5409  0.5161
 7904SOL    HW331389   5.912   2.933   3.394 -1.0956 -1.4975 -1.4828
 7904SOL    MW431390   5.865   3.001   3.366  0.0639  0.0414  0.1127
 7905SOL     OW31391   4.588   5.707   3.403 -0.0147 -0.1034  0.3415
 7905SOL    HW231392   4.517   5.695   3.341 -0.3534 -0.5612  0.8103
 7905SOL    HW331393   4.621   5.796   3.386 -0.1521 -0.1961 -0.4272
 7905SOL    MW431394   4.583   5.717   3.393 -0.0775 -0.1761  0.3019
 7906SOL     OW31395   6.182   5.025   2.410 -0.3178 -0.1101 -0.2440
 7906SOL    HW231396   6.212   5.072   2.333  1.5822 -1.3904 -0.3756
 7906SOL    HW331397   6.263   4.997   2.453 -1.3510 -1.4533  0.9243
 7906SOL    MW431398   6.197   5.028   2.406 -0.2035 -0.4562 -0.1073
 7907SOL     OW31399   0.333   4.954   2.098  0.5874 -0.2908 -0.0081
 7907SOL    HW231400   0.260   4.897   2.073 -0.2724  0.8364 -0.1315
 7907SOL    HW331401   0.393   4.951   2.023 -0.8684  1.2387 -1.3023
 7907SOL    MW431402   0.331   4.946   2.085  0.2819  0.0597 -0.1951
 7908SOL     OW31403   5.397   0.290   0.933 -0.3498 -0.0223 -0.3803
 7908SOL    HW231404   5.371   0.346   0.860 -0.3119 -0.1752 -0.5135
 7908SOL    HW331405   5.315   0.261   0.972 -0.3938  1.5958  0.8498
 7908SOL    MW431406   5.383   0.294   0.928 -0.3506  0.1710 -0.2356
 7909SOL     OW31407   5.717   1.589   5.856  0.2248 -0.4469  0.2084
 7909SOL    HW231408   5.649   1.530   5.888  0.5443 -0.7832  0.2824
 7909SOL    HW331409   5.793   1.568   5.910  0.6946 -0.8174 -0.5766
 7909SOL    MW431410   5.718   1.578   5.868  0.3289 -0.5401  0.1146
 7910SOL     OW31411   5.781   5.696   6.322 -0.2021 -0.6780  0.6321
 7910SOL    HW231412   5.849   5.681   6.387  0.5576  0.4586  0.1252
 7910SOL    HW331413   5.709   5.638   6.349  0.7961 -1.6127  1.3962
 7910SOL    MW431414   5.780   5.686   6.334  0.0298 -0.6513  0.6660
 7911SOL     OW31415   0.053   4.954   4.310 -0.2903  0.2038  0.7858
 7911SOL    HW231416   0.022   4.894   4.378  0.0970 -1.3352 -0.3450
 7911SOL    HW331417  -0.013   4.947   4.241 -0.1152  0.9352  0.5350
 7911SOL    MW431418   0.040   4.945   4.310 -0.2161  0.0972  0.6035
 7912SOL     OW31419   2.918   0.327   3.277 -0.1212 -0.0642 -0.6087
 7912SOL    HW231420   2.920   0.394   3.344 -0.6522 -2.2774  1.7831
 7912SOL    HW331421   2.847   0.269   3.302  0.3834 -1.6171 -2.4699
 7912SOL    MW431422   2.909   0.328   3.289 -0.1247 -0.5611 -0.5387
 7913SOL     OW31423   2.257   4.953   3.205  0.2980 -0.1183  0.2936
 7913SOL    HW231424   2.331   5.011   3.223  1.0130 -1.2731  1.1822
 7913SOL    HW331425   2.296   4.877   3.160 -0.6450  0.1152 -0.9900
 7913SOL    MW431426   2.272   4.951   3.201  0.2679 -0.2399  0.2415
 7914SOL     OW31427   5.810   3.050   3.042 -0.9446 -0.2823  0.3874
 7914SOL    HW231428   5.804   2.955   3.037 -0.1228 -0.3595  0.8723
 7914SOL    HW331429   5.719   3.079   3.053 -1.0919 -1.0715  1.3232
 7914SOL    MW431430   5.797   3.041   3.043 -0.8556 -0.3966  0.5748
 7915SOL     OW31431   1.231   4.328   2.360  0.0266  0.4600  0.5057
 7915SOL    HW231432   1.235   4.234   2.376  0.3632  0.4977  0.6467
 7915SOL    HW331433   1.319   4.352   2.332  0.3574  0.9861  1.9086
 7915SOL    MW431434   1.243   4.319   2.358  0.1147  0.5344  0.7094
 7916SOL     OW31435   0.273   4.289   0.159 -0.5835  0.2256  0.2968
 7916SOL    HW231436   0.245   4.378   0.182 -0.3659  0.5939 -0.7739
 7916SOL    HW331437   0.288   4.246   0.243 -0.9655  1.1134  0.8381
 7916SOL    MW431438   0.272   4.295   0.173 -0.6052  0.3913  0.2269
 7917SOL     OW31439   2.570   0.473   1.337 -0.5764 -0.0596 -0.5585
 7917SOL    HW231440   2.475   0.479   1.352 -0.5898 -0.2665 -0.5637
 7917SOL    HW331441   2.601   0.562   1.352 -0.9698  0.3319 -1.9501
 7917SOL    MW431442   2.561   0.486   1.341 -0.6301 -0.0353 -0.7428
 7918SOL     OW31443   0.532   3.677   4.738  0.0900 -0.2128 -0.3882
 7918SOL    HW231444   0.541   3.637   4.652 -0.6460  0.2442 -0.6873
 7918SOL    HW331445   0.605   3.641   4.789  0.5027 -0.5236 -1.1803
 7918SOL    MW431446   0.543   3.667   4.733  0.0473 -0.1935 -0.5322
 7919SOL     OW31447   1.547   0.262   4.930 -0.0418  0.0127 -0.7595
 7919SOL    HW231448   1.459   0.251   4.964  0.4793 -0.2152  0.5863
 7919SOL    HW331449   1.549   0.351   4.895 -0.4804  0.4286  0.2455
 7919SOL    MW431450   1.536   0.272   4.930 -0.0309  0.0375 -0.4494
 7920SOL     OW31451   2.402   6.267   1.549  0.6120  0.0422  0.6605
 7920SOL    HW231452   2.308   6.260   1.533  0.8210 -1.4748 -0.1342
 7920SOL    HW331453   2.419   6.208   1.622  0.6834  1.8629  2.1850
 7920SOL    MW431454   2.392   6.258   1.556  0.6490  0.0822  0.7568
 7921SOL     OW31455   0.890   1.156   3.380 -0.1076 -0.2207 -0.0730
 7921SOL    HW231456   0.845   1.108   3.310 -1.6873  0.2838  0.5583
 7921SOL    HW331457   0.928   1.087   3.435  0.0627 -0.6541 -0.7166
 7921SOL    MW431458   0.889   1.140   3.378 -0.2936 -0.2113 -0.0746
 7922SOL     OW31459   1.275   0.393   5.798  0.0903  0.2523  0.2361
 7922SOL    HW231460   1.347   0.331   5.808 -1.3373 -1.4699  0.3946
 7922SOL    HW331461   1.305   0.473   5.841  2.5294  0.1923 -1.1586
 7922SOL    MW431462   1.288   0.395   5.805  0.2238  0.0172  0.0730
 7923SOL     OW31463   3.606   5.677   2.928  0.2724 -0.2041  0.7534
 7923SOL    HW231464   3.546   5.605   2.910  0.5231 -0.5451  1.2587
 7923SOL    HW331465   3.560   5.733   2.990 -0.0344  0.2276  0.1462
 7923SOL    MW431466   3.592   5.675   2.934  0.2650 -0.1921  0.7400
 7924SOL     OW31467   0.063   2.161   5.224 -0.0425  0.2688 -0.1034
 7924SOL    HW231468   0.048   2.255   5.236  0.4036  0.2166  0.9882
 7924SOL    HW331469   0.065   2.126   5.313 -0.1293 -0.7700 -0.5000
 7924SOL    MW431470   0.061   2.169   5.237  0.0049  0.1249 -0.0117
 7925SOL     OW31471   6.022   2.879   2.638 -0.0226 -0.3446 -0.0543
 7925SOL    HW231472   6.099   2.934   2.628  0.0623 -0.4482  0.0350
 7925SOL    HW331473   5.971   2.896   2.559 -1.0144  1.4428  0.8979
 7925SOL    MW431474   6.025   2.889   2.626 -0.1422 -0.1224  0.0831
 7926SOL     OW31475   4.431   5.593   0.065  0.5312 -0.1857  0.1499
 7926SOL    HW231476   4.358   5.534   0.085  0.1899  0.6225  1.4608
 7926SOL    HW331477   4.421   5.613  -0.028  0.4123 -1.8343 -0.2224
 7926SOL    MW431478   4.420   5.588   0.055  0.4704 -0.2966  0.2738
 7927SOL     OW31479   5.214   3.436   5.934  0.0785 -0.1558 -0.0582
 7927SOL    HW231480   5.177   3.399   6.013 -0.3105 -0.5724 -0.4287
 7927SOL    HW331481   5.221   3.362   5.873  0.9716  0.0303 -0.2014
 7927SOL    MW431482   5.210   3.422   5.936  0.1450 -0.1862 -0.1260
 7928SOL     OW31483   3.187   0.676   0.077 -0.5940 -0.0402  0.1838
 7928SOL    HW231484   3.100   0.677   0.039 -1.1003  2.4288  1.2304
 7928SOL    HW331485   3.246   0.685   0.002 -1.2982 -0.1782 -0.3968
 7928SOL    MW431486   3.184   0.677   0.062 -0.7537  0.2673  0.2452
 7929SOL     OW31487   0.336   1.493   1.035  0.4434 -0.1513 -0.0544
 7929SOL    HW231488   0.318   1.587   1.032  2.3320  0.4071  2.5432
 7929SOL    HW331489   0.265   1.453   0.985  0.0928  2.6791 -2.0500
 7929SOL    MW431490   0.325   1.500   1.028  0.6464  0.2958  0.0250
 7930SOL     OW31491   5.751   0.937   5.315  0.1705 -0.4406 -0.4232
 7930SOL    HW231492   5.724   0.965   5.403 -0.5750  1.7146 -1.2753
 7930SOL    HW331493   5.680   0.879   5.285 -0.9079  0.9069 -0.5730
 7930SOL    MW431494   5.738   0.933   5.323 -0.0702  0.0215 -0.5554
 7931SOL     OW31495   4.034   3.430   2.481 -0.3087 -0.2177 -0.3129
 7931SOL    HW231496   4.112   3.375   2.477  0.2506  0.5341 -0.0937
 7931SOL    HW331497   4.037   3.470   2.568 -1.3805 -0.7908  0.0149
 7931SOL    MW431498   4.044   3.428   2.492 -0.3763 -0.1941 -0.2408
 7932SOL     OW31499   0.129   1.983   4.417 -0.0261  0.0446 -0.5245
 7932SOL    HW231500   0.132   2.077   4.400 -0.1915  0.3550  1.0016
 7932SOL    HW331501   0.187   1.970   4.493 -1.9813 -0.6553  0.9483
 7932SOL    MW431502   0.137   1.993   4.425 -0.3059 -0.0068 -0.1288
 7933SOL     OW31503   1.053   2.645   3.839  0.1029 -0.0555 -0.1515
 7933SOL    HW231504   1.147   2.638   3.856  0.3718  1.9283 -0.5612
 7933SOL    HW331505   1.036   2.581   3.771  2.1105  2.4934 -3.3284
 7933SOL    MW431506   1.064   2.636   3.833  0.4032  0.5425 -0.6247
 7934SOL     OW31507   2.344   6.324   2.911  0.0428  0.0360 -0.2089
 7934SOL    HW231508   2.429   6.295   2.943  1.6414  2.6922 -1.7393
 7934SOL    HW331509   2.294   6.342   2.990  0.9702 -1.2563  0.7222
 7934SOL    MW431510   2.349   6.322   2.925  0.3761  0.2159 -0.2880
 7935SOL     OW31511   5.372   6.352   1.967 -0.6775 -0.1996 -0.0609
 7935SOL    HW231512   5.361   6.443   1.994  0.6660 -0.0804  0.1541
 7935SOL    HW331513   5.366   6.354   1.872 -1.5966 -0.0390 -0.0044
 7935SOL    MW431514   5.370   6.364   1.958 -0.6215 -0.1626 -0.0251
 7936SOL     OW31515   0.115   3.020   5.582 -0.4527  0.1251 -0.2761
 7936SOL    HW231516   0.067   2.947   5.620 -0.0839 -0.5033 -0.9824
 7936SOL    HW331517   0.063   3.097   5.604 -0.7520 -0.3273  0.6312
 7936SOL    MW431518   0.102   3.021   5.590 -0.4436 -0.0175 -0.2496
 7937SOL     OW31519   2.566   2.304   1.957 -0.4674  0.0554  0.5079
 7937SOL    HW231520   2.528   2.225   1.995 -1.2727  0.4821  0.6143
 7937SOL    HW331521   2.517   2.376   1.997  0.7762  0.6599  1.0075
 7937SOL    MW431522   2.555   2.303   1.967 -0.4096  0.1915  0.5878
 7938SOL     OW31523   6.073   1.539   1.438 -0.3448 -0.4231 -0.1429
 7938SOL    HW231524   6.015   1.481   1.488 -0.6228 -0.8967 -0.9893
 7938SOL    HW331525   6.029   1.549   1.353 -1.0220  2.1696  0.4231
 7938SOL    MW431526   6.059   1.532   1.433 -0.4708 -0.1435 -0.1799
 7939SOL     OW31527   2.040   1.870   0.267 -0.2338 -0.0957 -0.0447
 7939SOL    HW231528   2.011   1.782   0.292 -0.4222  0.2053  0.8189
 7939SOL    HW331529   2.100   1.896   0.337 -0.6527  0.7097  0.0236
 7939SOL    MW431530   2.044   1.862   0.280 -0.3139  0.0503  0.0782
 7940SOL     OW31531   1.712   6.313   0.594  0.5017 -0.3365 -0.1305
 7940SOL    HW231532   1.642   6.249   0.583  1.3416 -0.8819 -2.8294
 7940SOL    HW331533   1.754   6.288   0.677 -0.8918 -1.5330  0.2589
 7940SOL    MW431534   1.708   6.301   0.604  0.4287 -0.5663 -0.4352
 7941SOL     OW31535   3.483   0.856   1.877  0.0794  0.1391 -0.0526
 7941SOL    HW231536   3.475   0.787   1.944 -0.5309  0.2773  0.0280
 7941SOL    HW331537   3.568   0.896   1.894 -0.5441  0.9524  1.4213
 7941SOL    MW431538   3.493   0.852   1.888 -0.0834  0.2646  0.1525
 7942SOL     OW31539   2.876   5.697   6.263  0.5828 -0.3131 -0.3601
 7942SOL    HW231540   2.952   5.745   6.294  0.8922 -0.4687 -0.8789
 7942SOL    HW331541   2.898   5.670   6.174 -0.7474  1.1057 -1.1740
 7942SOL    MW431542   2.889   5.699   6.255  0.4481 -0.1464 -0.5359
 7943SOL     OW31543   5.652   3.960   5.828  0.0966  0.6287  0.3112
 7943SOL    HW231544   5.589   4.028   5.855 -0.6433  0.3359 -0.6273
 7943SOL    HW331545   5.721   4.008   5.784 -0.6786  0.7521 -0.8079
 7943SOL    MW431546   5.652   3.975   5.826 -0.1033  0.6064  0.0398
 7944SOL     OW31547   0.631   3.500   6.101 -0.2108  1.2322 -0.0192
 7944SOL    HW231548   0.644   3.593   6.122 -0.8162  1.4580 -0.6290
 7944SOL    HW331549   0.611   3.499   6.008  1.1339  0.3542 -0.3229
 7944SOL    MW431550   0.630   3.512   6.092 -0.1132  1.1462 -0.1397
 7945SOL     OW31551   1.392   2.535   3.436  0.2640 -0.0208 -0.0533
 7945SOL    HW231552   1.327   2.579   3.382 -0.5559  0.7252  1.4963
 7945SOL    HW331553   1.474   2.579   3.415  0.2456 -0.7198 -1.7460
 7945SOL    MW431554   1.394   2.546   3.426  0.1534 -0.0146 -0.0722
 7946SOL     OW31555   4.105   4.532   5.633 -0.0465 -0.1234 -0.1033
 7946SOL    HW231556   4.072   4.571   5.713  0.7118 -0.7986  0.5638
 7946SOL    HW331557   4.031   4.533   5.572 -0.0219  2.4342 -0.1696
 7946SOL    MW431558   4.091   4.537   5.635  0.0568  0.1249 -0.0240
 7947SOL     OW31559   3.704   2.499   4.797 -0.3617 -0.3880  0.1587
 7947SOL    HW231560   3.697   2.456   4.712 -1.1667  0.9612 -0.5081
 7947SOL    HW331561   3.634   2.565   4.796  1.7397  2.0311  0.4300
 7947SOL    MW431562   3.694   2.502   4.785 -0.1907  0.1092  0.1065
 7948SOL     OW31563   2.215   3.070   1.198 -0.4333  0.8246 -0.0474
 7948SOL    HW231564   2.190   3.132   1.130  1.0035  1.1172 -0.3487
 7948SOL    HW331565   2.258   3.125   1.265  0.6070  0.2013 -0.1922
 7948SOL    MW431566   2.217   3.086   1.198 -0.1065  0.7810 -0.1063
 7949SOL     OW31567   4.387   5.474   0.372  0.1256 -0.3972  0.0088
 7949SOL    HW231568   4.389   5.401   0.434 -1.5968  0.4334  1.1320
 7949SOL    HW331569   4.330   5.443   0.301 -0.8003 -0.0990  0.5999
 7949SOL    MW431570   4.380   5.460   0.371 -0.2238 -0.2482  0.2350
 7950SOL     OW31571   3.785   0.867   3.044 -0.7435  0.2239 -0.1586
 7950SOL    HW231572   3.808   0.949   3.088  1.0885 -1.9401  3.4014
 7950SOL    HW331573   3.849   0.859   2.974  2.8521 -0.5132  2.8778
 7950SOL    MW431574   3.797   0.876   3.041 -0.0274 -0.1588  0.7117
 7951SOL     OW31575   2.683   5.421   6.045  0.4516 -0.3063  0.0079
 7951SOL    HW231576   2.756   5.382   6.092  0.4052  2.3033  2.5585
 7951SOL    HW331577   2.618   5.440   6.114 -1.4639 -0.0931 -1.7670
 7951SOL    MW431578   2.684   5.419   6.061  0.1927  0.0662  0.1103
 7952SOL     OW31579   1.996   3.825   2.340 -0.1333  0.4330  0.0264
 7952SOL    HW231580   2.067   3.813   2.403 -0.4600  1.9200  0.7400
 7952SOL    HW331581   1.922   3.777   2.377  0.4011 -0.8800 -0.5725
 7952SOL    MW431582   1.996   3.817   2.353 -0.1059  0.4559  0.0415
 7953SOL     OW31583   6.099   3.694   3.520 -0.0280 -0.0278  0.2239
 7953SOL    HW231584   6.066   3.608   3.544  2.0008 -1.1777 -0.8565
 7953SOL    HW331585   6.116   3.738   3.604  1.5714 -1.7798  0.8695
 7953SOL    MW431586   6.097   3.689   3.534  0.4507 -0.4107  0.1666
 7954SOL     OW31587   2.422   3.320   2.320  0.7243  0.0761  0.0233
 7954SOL    HW231588   2.338   3.277   2.338  1.4461 -2.3156 -1.7654
 7954SOL    HW331589   2.425   3.326   2.225  1.4694  2.6516  0.1377
 7954SOL    MW431590   2.411   3.315   2.310  0.9179  0.1004 -0.1976
 7955SOL     OW31591   2.723   5.491   1.270 -0.3997  0.3014  0.1926
 7955SOL    HW231592   2.738   5.406   1.229  2.0750  0.5694  0.4201
 7955SOL    HW331593   2.685   5.470   1.355  0.4513 -0.6068  0.3649
 7955SOL    MW431594   2.720   5.477   1.276  0.0391  0.2169  0.2453
 7956SOL     OW31595   2.302   1.704   1.895  0.0817  0.1008 -0.1544
 7956SOL    HW231596   2.289   1.745   1.981  0.0669 -0.8873  0.3254
 7956SOL    HW331597   2.395   1.685   1.892  0.4840  2.0123 -1.2387
 7956SOL    MW431598   2.312   1.707   1.906  0.1328  0.2226 -0.2342
 7957SOL     OW31599   6.034   4.902   4.229 -0.1530  0.2721  0.2902
 7957SOL    HW231600   6.117   4.856   4.218 -1.3091 -1.5833 -1.6766
 7957SOL    HW331601   5.982   4.844   4.285 -0.4469  0.9299  0.7030
 7957SOL    MW431602   6.038   4.888   4.235 -0.3443  0.1141  0.0852
 7958SOL     OW31603   1.694   2.638   4.953  0.1316  0.2628 -0.0232
 7958SOL    HW231604   1.680   2.667   5.043 -1.4088 -0.2188 -0.0715
 7958SOL    HW331605   1.639   2.696   4.900 -1.2911 -1.2903 -0.3293
 7958SOL    MW431606   1.685   2.649   4.958 -0.2593 -0.0057 -0.0700
 7959SOL     OW31607   2.734   5.594   2.156  0.3923  0.1499  0.3548
 7959SOL    HW231608   2.791   5.520   2.177 -1.1445 -1.0980  0.2521
 7959SOL    HW331609   2.786   5.647   2.096  1.8513 -0.3725  1.1125
 7959SOL    MW431610   2.748   5.591   2.151  0.3820 -0.0837  0.4412
 7960SOL     OW31611   5.937   6.222   2.209  0.0058  0.1816 -0.4930
 7960SOL    HW231612   5.994   6.145   2.215 -0.3354 -0.0698 -0.4700
 7960SOL    HW331613   5.909   6.238   2.298 -1.5210 -0.8855 -0.7300
 7960SOL    MW431614   5.941   6.214   2.221 -0.2406  0.0076 -0.5212
 7961SOL     OW31615   4.335   2.819   0.220  0.4458 -0.6523  0.1689
 7961SOL    HW231616   4.419   2.826   0.175  0.6073  1.4748  0.7178
 7961SOL    HW331617   4.358   2.789   0.308  1.0866  2.9465  1.3664
 7961SOL    MW431618   4.349   2.816   0.226  0.5516  0.1032  0.3993
 7962SOL     OW31619   5.801   0.150   2.007  0.3045 -0.4303 -0.0099
 7962SOL    HW231620   5.865   0.170   1.939  1.7234  0.6018  1.5340
 7962SOL    HW331621   5.779   0.058   1.993 -0.2021 -0.0152 -2.4183
 7962SOL    MW431622   5.807   0.141   1.996  0.4249 -0.2394 -0.1239
 7963SOL     OW31623   1.731   2.421   0.360  0.0073  0.1641  0.0466
 7963SOL    HW231624   1.712   2.351   0.298 -0.0331  1.1049 -1.0489
 7963SOL    HW331625   1.671   2.405   0.433 -1.7651  0.3928 -1.2630
 7963SOL    MW431626   1.720   2.410   0.361 -0.2319  0.3184 -0.2707
 7964SOL     OW31627   4.930   3.564   0.498 -0.0408 -0.1054  0.0177
 7964SOL    HW231628   5.022   3.591   0.486  0.0652 -0.6477 -0.4534
 7964SOL    HW331629   4.922   3.484   0.446 -1.2770  0.9356 -1.5006
 7964SOL    MW431630   4.941   3.557   0.489 -0.1899 -0.0396 -0.2448
 7965SOL     OW31631   1.865   4.459   2.375 -0.3603  0.4582  0.0703
 7965SOL    HW231632   1.939   4.520   2.383 -0.1775  0.2192  0.2034
 7965SOL    HW331633   1.810   4.478   2.451 -3.6165  4.8396 -2.8994
 7965SOL    MW431634   1.867   4.470   2.386 -0.7658  1.0047 -0.3040
 7966SOL     OW31635   3.162   6.305   5.174 -0.3367 -0.2803 -0.2275
 7966SOL    HW231636   3.253   6.322   5.198 -0.2964 -2.1233  1.0955
 7966SOL    HW331637   3.161   6.213   5.147 -1.7493 -0.2004 -0.5005
 7966SOL    MW431638   3.174   6.295   5.174 -0.5177 -0.5129 -0.0890
 7967SOL     OW31639   3.016   2.007   2.372  0.0234  0.5825  0.0191
 7967SOL    HW231640   3.091   2.027   2.317  0.3548  0.0178  0.2475
 7967SOL    HW331641   2.940   2.023   2.317  0.3521 -0.1597 -0.6663
 7967SOL    MW431642   3.016   2.012   2.358  0.1105  0.4101 -0.0412
 7968SOL     OW31643   5.342   1.667   4.760  0.0657 -0.0512 -0.5114
 7968SOL    HW231644   5.336   1.758   4.731  0.0616  0.5941  1.3752
 7968SOL    HW331645   5.262   1.627   4.728  0.0980  0.5906 -1.4324
 7968SOL    MW431646   5.331   1.674   4.752  0.0694  0.1186 -0.3840
 7969SOL     OW31647   5.429   2.447   4.076 -0.1971  0.0715  0.0925
 7969SOL    HW231648   5.494   2.509   4.109  0.3205 -0.3185 -0.1832
 7969SOL    HW331649   5.347   2.496   4.077  0.1043  0.5807  0.4102
 7969SOL    MW431650   5.426   2.461   4.080 -0.0890  0.0872  0.0980
 7970SOL     OW31651   3.174   5.540   6.338  0.5149 -0.2172 -0.1690
 7970SOL    HW231652   3.090   5.521   6.381  0.1077  0.4834 -0.6415
 7970SOL    HW331653   3.240   5.501   6.395 -0.1580 -1.1101  0.0175
 7970SOL    MW431654   3.171   5.532   6.351  0.3724 -0.2426 -0.2067
 7971SOL     OW31655   1.724   2.627   1.895  0.4243  0.1659  0.5099
 7971SOL    HW231656   1.665   2.668   1.957 -1.3479 -2.3079  0.5641
 7971SOL    HW331657   1.808   2.621   1.941  0.2977  2.1114  1.0695
 7971SOL    MW431658   1.728   2.632   1.909  0.1738  0.0962  0.5909
 7972SOL     OW31659   5.852   6.330   5.944 -0.4894 -0.1699  0.0521
 7972SOL    HW231660   5.766   6.354   5.911 -1.0464 -0.0505  1.5163
 7972SOL    HW331661   5.834   6.273   6.018  0.7366 -1.7572 -0.7939
 7972SOL    MW431662   5.838   6.325   5.949 -0.4012 -0.3635  0.1337
 7973SOL     OW31663   2.581   2.258   0.608 -0.5158 -0.2385  0.0758
 7973SOL    HW231664   2.646   2.317   0.570 -0.0169  0.1644  1.4570
 7973SOL    HW331665   2.540   2.214   0.533 -1.1774  2.1155 -1.0127
 7973SOL    MW431666   2.584   2.260   0.593 -0.5373  0.1252  0.1144
 7974SOL     OW31667   3.218   1.610   2.623  0.2638 -0.4298 -0.6784
 7974SOL    HW231668   3.175   1.693   2.601  1.1330  0.3194  0.3321
 7974SOL    HW331669   3.240   1.571   2.538  0.3110  0.6240 -1.1640
 7974SOL    MW431670   3.215   1.616   2.609  0.3847 -0.1919 -0.6091
 7975SOL     OW31671   1.296   0.837   2.248 -0.1340  0.1346  0.2916
 7975SOL    HW231672   1.378   0.869   2.210  0.0600 -0.3804  0.2612
 7975SOL    HW331673   1.284   0.751   2.208  0.1874 -0.5146  1.5422
 7975SOL    MW431674   1.305   0.830   2.238 -0.0660 -0.0190  0.4526
 7976SOL     OW31675   2.112   2.951   4.563 -0.5598 -0.1021  0.0848
 7976SOL    HW231676   2.065   2.875   4.529 -0.4047  0.2345 -0.9066
 7976SOL    HW331677   2.111   3.014   4.491  3.5235 -0.9660 -0.9949
 7976SOL    MW431678   2.106   2.950   4.549 -0.0006 -0.1717 -0.1885
 7977SOL     OW31679   3.540   5.780   6.398 -0.8722 -0.0961  0.5529
 7977SOL    HW231680   3.589   5.701   6.423 -1.6568 -0.7123  0.1971
 7977SOL    HW331681   3.485   5.800   6.473 -1.3408 -0.4359  0.3092
 7977SOL    MW431682   3.539   5.772   6.411 -1.0375 -0.2222  0.4738
 7978SOL     OW31683   5.384   3.969   4.558  0.1265 -0.5350 -0.3432
 7978SOL    HW231684   5.445   3.918   4.612  2.1534  0.5370 -1.4988
 7978SOL    HW331685   5.339   4.026   4.620  0.0803 -1.5221  0.5647
 7978SOL    MW431686   5.386   3.970   4.573  0.3878 -0.5238 -0.3759
 7979SOL     OW31687   2.564   0.285   0.975 -0.1855 -0.2507 -0.1416
 7979SOL    HW231688   2.621   0.357   1.001  1.6641 -1.3709 -0.8695
 7979SOL    HW331689   2.526   0.253   1.057  2.1396 -0.9722  0.7321
 7979SOL    MW431690   2.566   0.290   0.989  0.3653 -0.4937 -0.1224
 7980SOL     OW31691   3.374   6.401   3.413 -0.3710 -0.0786  0.9642
 7980SOL    HW231692   3.287   6.370   3.442 -0.1509  0.1327  1.9045
 7980SOL    HW331693   3.435   6.335   3.448 -0.2347 -0.9193 -0.7856
 7980SOL    MW431694   3.370   6.388   3.422 -0.3240 -0.1617  0.8574
 7981SOL     OW31695   1.383   3.180   2.801 -0.0889 -0.6134 -0.5056
 7981SOL    HW231696   1.329   3.148   2.728 -1.4517  0.0191  0.1788
 7981SOL    HW331697   1.404   3.102   2.851 -1.3535 -0.7610 -0.1646
 7981SOL    MW431698   1.379   3.166   2.798 -0.4356 -0.5494 -0.3703
 7982SOL     OW31699   2.615   2.612   3.496  0.4172 -0.3749  0.2107
 7982SOL    HW231700   2.654   2.599   3.410 -1.7195 -1.3146 -0.7070
 7982SOL    HW331701   2.613   2.708   3.507  0.6587 -0.2387 -0.8172
 7982SOL    MW431702   2.620   2.623   3.486  0.1671 -0.4809 -0.0460
 7983SOL     OW31703   3.410   4.632   1.206 -0.1590  0.3670 -0.5018
 7983SOL    HW231704   3.499   4.598   1.194  0.1723  1.6269 -1.9056
 7983SOL    HW331705   3.421   4.709   1.261 -0.6089 -0.3459  0.6309
 7983SOL    MW431706   3.423   4.638   1.212 -0.1747  0.4391 -0.5375
 7984SOL     OW31707   5.495   0.315   4.645 -0.5164 -0.8128  0.0403
 7984SOL    HW231708   5.520   0.302   4.554  0.1650  0.9656 -0.0589
 7984SOL    HW331709   5.565   0.273   4.695  1.0079  1.2227 -0.2693
 7984SOL    MW431710   5.508   0.307   4.640 -0.2254 -0.3096 -0.0137
 7985SOL     OW31711   3.006   3.160   5.457 -0.2003  0.5370 -0.1632
 7985SOL    HW231712   2.943   3.233   5.458 -0.4313  0.3269  0.6700
 7985SOL    HW331713   2.956   3.086   5.423 -0.6456  0.1587  1.2866
 7985SOL    MW431714   2.991   3.160   5.452 -0.2896  0.4594  0.1380
 7986SOL     OW31715   3.197   4.153   0.757 -0.4051  0.1217  0.9272
 7986SOL    HW231716   3.237   4.147   0.670 -2.7155 -0.0986 -0.1878
 7986SOL    HW331717   3.271   4.143   0.818  1.2425  0.0267 -0.9792
 7986SOL    MW431718   3.212   4.151   0.753 -0.4925  0.0801  0.5285
 7987SOL     OW31719   0.061   3.550   0.064  0.1612  0.1135  0.1056
 7987SOL    HW231720   0.140   3.538   0.117 -0.3015 -0.7965  0.6212
 7987SOL    HW331721   0.094   3.566  -0.024  0.9387 -0.7685  0.2148
 7987SOL    MW431722   0.076   3.550   0.060  0.2027 -0.1229  0.1880
 7988SOL     OW31723   2.739   0.850   3.796 -0.1282  0.2394  0.4443
 7988SOL    HW231724   2.715   0.792   3.868 -1.5935  0.7657  0.4158
 7988SOL    HW331725   2.696   0.933   3.816  2.0768  1.4280  0.5805
 7988SOL    MW431726   2.730   0.854   3.808 -0.0306  0.4656  0.4585
 7989SOL     OW31727   0.175   3.959   0.189 -0.9262 -0.4934 -0.5022
 7989SOL    HW231728   0.092   3.911   0.197  0.2193 -2.5769 -0.4000
 7989SOL    HW331729   0.242   3.890   0.188  0.8470  1.1533 -0.0781
 7989SOL    MW431730   0.173   3.943   0.190 -0.5411 -0.5510 -0.4328
 7990SOL     OW31731   4.696   2.516   2.695  0.6190 -0.3793  0.1760
 7990SOL    HW231732   4.759   2.500   2.766 -1.3173 -2.2808  1.5923
 7990SOL    HW331733   4.726   2.460   2.623  1.0748 -0.5459  0.4918
 7990SOL    MW431734   4.708   2.506   2.695  0.4236 -0.6521  0.4045
 7991SOL     OW31735   4.294   2.202   5.542  0.2965 -0.6158  0.0553
 7991SOL    HW231736   4.367   2.231   5.596 -0.3595 -0.6017  0.9716
 7991SOL    HW331737   4.232   2.164   5.605 -0.5801 -0.4176 -0.6716
 7991SOL    MW431738   4.295   2.201   5.558  0.0943 -0.5878  0.0803
 7992SOL     OW31739   5.545   0.895   1.046 -1.0689 -0.3754  0.1674
 7992SOL    HW231740   5.638   0.904   1.067 -0.2553 -0.6983 -2.8148
 7992SOL    HW331741   5.508   0.848   1.120  1.5667 -2.0418  0.5524
 7992SOL    MW431742   5.552   0.890   1.058 -0.6138 -0.6378 -0.1753
 7993SOL     OW31743   2.020   1.947   3.689 -0.6260 -0.3072  0.1432
 7993SOL    HW231744   1.952   1.924   3.625 -0.1944 -0.4734 -0.2637
 7993SOL    HW331745   2.087   1.992   3.638 -1.6859  2.4297  1.0093
 7993SOL    MW431746   2.020   1.950   3.674 -0.7089  0.0320  0.2038
 7994SOL     OW31747   1.731   2.972   6.244  0.0842 -0.3518  0.4286
 7994SOL    HW231748   1.711   3.062   6.221 -0.9648 -0.0377  2.4289
 7994SOL    HW331749   1.823   2.974   6.270 -0.0507  0.2286  0.8754
 7994SOL    MW431750   1.740   2.984   6.244 -0.0720 -0.2338  0.7514
 7995SOL     OW31751   3.082   2.290   6.327  0.2258  0.1697  0.2510
 7995SOL    HW231752   3.051   2.202   6.349 -2.2903  0.9493  0.1739
 7995SOL    HW331753   3.002   2.343   6.323  1.7492  2.7996  1.7036
 7995SOL    MW431754   3.067   2.285   6.329  0.0949  0.6195  0.4324
 7996SOL     OW31755   2.888   6.336   3.450 -0.8188 -0.0245  0.4582
 7996SOL    HW231756   2.857   6.419   3.486 -0.7681 -0.3188  1.2014
 7996SOL    HW331757   2.810   6.281   3.445 -0.9041  0.1578 -0.3040
 7996SOL    MW431758   2.874   6.340   3.454 -0.8233 -0.0392  0.4557
 7997SOL     OW31759   6.137   1.281   3.217  0.0425  0.0546 -0.1808
 7997SOL    HW231760   6.119   1.374   3.225 -0.2052  0.0133 -0.2559
 7997SOL    HW331761   6.070   1.239   3.271  0.4734 -0.0566  0.2853
 7997SOL    MW431762   6.126   1.287   3.226  0.0667  0.0345 -0.1292
 7998SOL     OW31763   5.440   3.214   6.167  0.3715  0.2317 -0.0877
 7998SOL    HW231764   5.503   3.275   6.128 -1.9548  2.3230 -0.8072
 7998SOL    HW331765   5.355   3.258   6.158 -0.7742 -0.4931  4.6661
 7998SOL    MW431766   5.437   3.228   6.160 -0.0866  0.4120  0.4446
 7999SOL     OW31767   2.265   2.131   3.950 -0.2482 -0.0045 -0.5289
 7999SOL    HW231768   2.225   2.164   3.869 -1.5322 -1.5620 -0.5731
 7999SOL    HW331769   2.353   2.105   3.924  0.2127  1.7282 -0.8613
 7999SOL    MW431770   2.271   2.132   3.936 -0.3568  0.0186 -0.5786
 8000SOL     OW31771   4.161   4.097   0.080  0.5069 -0.5557  0.2519
 8000SOL    HW231772   4.253   4.080   0.060  0.3819 -0.9931  0.0280
 8000SOL    HW331773   4.128   4.014   0.116  0.6744  0.1501  2.1316
 8000SOL    MW431774   4.169   4.084   0.082  0.5125 -0.5203  0.4703
 8001SOL     OW31775   2.434   4.752   4.395 -0.9010  0.5595  0.1999
 8001SOL    HW231776   2.466   4.718   4.312 -0.9068  1.0903 -0.0199
 8001SOL    HW331777   2.370   4.687   4.425 -0.4419  0.0520  0.1005
 8001SOL    MW431778   2.430   4.739   4.388 -0.8412  0.5626  0.1578
 8002SOL     OW31779   0.273   2.240   2.347  0.0687  1.0251  0.2936
 8002SOL    HW231780   0.262   2.283   2.262  4.0163 -2.0468 -2.1698
 8002SOL    HW331781   0.264   2.147   2.328  1.9909  0.1654  3.0210
 8002SOL    MW431782   0.271   2.234   2.333  0.8431  0.5063  0.3285
 8003SOL     OW31783   0.012   1.021   0.141 -0.0407  0.1872 -0.0452
 8003SOL    HW231784   0.011   1.107   0.184 -2.2053  0.1061  0.1263
 8003SOL    HW331785   0.080   0.973   0.188  1.5284  1.9054 -0.4160
 8003SOL    MW431786   0.021   1.026   0.153 -0.1193  0.4032 -0.0715
 8004SOL     OW31787   0.824   0.114   0.489  0.5485  0.1704 -0.3886
 8004SOL    HW231788   0.837   0.174   0.563  2.6362 -1.0127  0.3038
 8004SOL    HW331789   0.757   0.052   0.519 -0.6917  1.3478 -0.6284
 8004SOL    MW431790   0.817   0.114   0.503  0.6603  0.1697 -0.3289
 8005SOL     OW31791   1.913   4.610   1.879  0.2573 -0.1717  0.1108
 8005SOL    HW231792   1.864   4.581   1.956  1.2553 -1.9509  0.1381
 8005SOL    HW331793   1.983   4.545   1.870 -0.2906 -0.4777 -2.7426
 8005SOL    MW431794   1.916   4.597   1.888  0.3167 -0.4468 -0.2621
 8006SOL     OW31795   1.135   4.995   2.738  0.4382  0.2621  0.0336
 8006SOL    HW231796   1.140   5.025   2.828 -0.0777 -0.5576  0.3482
 8006SOL    HW331797   1.072   4.922   2.740 -0.0629  0.6356 -1.0908
 8006SOL    MW431798   1.127   4.989   2.750  0.3040  0.2032 -0.0733
 8007SOL     OW31799   0.648   1.124   3.723 -0.4600  0.1348  0.0518
 8007SOL    HW231800   0.718   1.132   3.788  1.0037 -2.4969 -1.0057
 8007SOL    HW331801   0.569   1.152   3.768  1.2025  3.3957  1.2647
 8007SOL    MW431802   0.647   1.129   3.737 -0.0475  0.2178  0.0723
 8008SOL     OW31803   3.128   4.309   1.182  0.1342 -0.0697  0.3908
 8008SOL    HW231804   3.036   4.332   1.174  0.3502  0.3818 -1.2337
 8008SOL    HW331805   3.130   4.214   1.173 -0.1771 -0.0908  0.5322
 8008SOL    MW431806   3.116   4.300   1.180  0.1216 -0.0129  0.1951
 8009SOL     OW31807   3.083   5.262   3.023 -0.1211  0.1631 -0.2759
 8009SOL    HW231808   3.105   5.203   2.951  1.9022 -0.3137  0.6631
 8009SOL    HW331809   3.087   5.349   2.985  0.6694 -0.0955 -0.8150
 8009SOL    MW431810   3.086   5.266   3.008  0.2501  0.0661 -0.2231
 8010SOL     OW31811   2.277   3.974   0.995  0.0243  0.4036  0.2689
 8010SOL    HW231812   2.286   4.067   0.976  1.4982  0.6845  2.1122
 8010SOL    HW331813   2.325   3.930   0.924 -0.7375  0.9970 -0.6445
 8010SOL    MW431814   2.285   3.980   0.983  0.1183  0.5190  0.3916
 8011SOL     OW31815   4.817   5.860   4.249  0.0298 -0.4974 -0.0122
 8011SOL    HW231816   4.792   5.951   4.235  1.1225 -0.0362  0.8432
 8011SOL    HW331817   4.909   5.856   4.221  0.5834 -0.8492  1.6967
 8011SOL    MW431818   4.826   5.872   4.244  0.2470 -0.4829  0.3261
 8012SOL     OW31819   1.815   2.166   2.599  0.4187 -0.0973 -0.1540
 8012SOL    HW231820   1.726   2.196   2.580  0.2641 -0.3363  0.1865
 8012SOL    HW331821   1.843   2.123   2.518  1.4044  2.6608 -1.4001
 8012SOL    MW431822   1.807   2.164   2.585  0.5284  0.2351 -0.2735
 8013SOL     OW31823   1.335   2.653   3.695 -0.0839 -0.2359 -0.6197
 8013SOL    HW231824   1.355   2.612   3.611  2.9659  1.2399 -0.7389
 8013SOL    HW331825   1.418   2.653   3.743 -0.9850  1.7848  1.1414
 8013SOL    MW431826   1.348   2.647   3.691  0.1996  0.2255 -0.4030
 8014SOL     OW31827   2.054   5.727   1.336 -0.0344 -0.3162 -0.3590
 8014SOL    HW231828   2.065   5.815   1.301 -0.5098 -0.5656 -1.1661
 8014SOL    HW331829   1.988   5.737   1.405  4.1289  1.0409  3.9560
 8014SOL    MW431830   2.046   5.740   1.340  0.4522 -0.1700  0.1038
 8015SOL     OW31831   3.335   0.831   5.271  0.0805  0.1279 -0.1967
 8015SOL    HW231832   3.428   0.820   5.289  0.5573  0.4670 -2.1824
 8015SOL    HW331833   3.308   0.749   5.231 -0.4827  0.0404  0.3436
 8015SOL    MW431834   3.343   0.819   5.268  0.0691  0.1611 -0.3874
 8016SOL     OW31835   6.081   2.928   6.232 -0.0705 -0.2048 -0.4749
 8016SOL    HW231836   6.175   2.915   6.239 -0.4080 -1.9344  1.5645
 8016SOL    HW331837   6.062   2.998   6.294 -0.2327 -0.3766 -0.3312
 8016SOL    MW431838   6.091   2.936   6.241 -0.1364 -0.4557 -0.1869
 8017SOL     OW31839   1.664   4.673   6.400  0.2268 -0.6884 -0.5886
 8017SOL    HW231840   1.738   4.710   6.353  0.6126 -2.1558 -1.1883
 8017SOL    HW331841   1.590   4.682   6.340 -0.6892  2.7341  0.8003
 8017SOL    MW431842   1.664   4.679   6.386  0.1569 -0.4305 -0.4845
 8018SOL     OW31843   1.641   3.257   2.429  0.0597  0.7654  0.0233
 8018SOL    HW231844   1.690   3.264   2.347 -0.2447  2.7123 -0.0370
 8018SOL    HW331845   1.554   3.227   2.404  1.0059 -2.4477  0.0999
 8018SOL    MW431846   1.636   3.254   2.415  0.1444  0.5983  0.0255
 8019SOL     OW31847   0.486   2.358   1.612  0.3237 -0.3319 -0.4388
 8019SOL    HW231848   0.516   2.449   1.617 -0.9219  0.0664  0.3667
 8019SOL    HW331849   0.404   2.363   1.563  0.9054 -1.2282 -1.5618
 8019SOL    MW431850   0.479   2.371   1.606  0.2361 -0.3976 -0.4807
 8020SOL     OW31851   6.252   0.025   2.866 -0.3738  0.2061  0.0384
 8020SOL    HW231852   6.270   0.076   2.944  1.1524 -1.4396  0.8190
 8020SOL    HW331853   6.337  -0.006   2.836 -0.9753  0.3051 -1.9617
 8020SOL    MW431854   6.265   0.028   2.872 -0.2518  0.0020 -0.1225
 8021SOL     OW31855   2.401   5.847   4.153  0.3542  0.7361 -0.1071
 8021SOL    HW231856   2.372   5.769   4.199  0.7804  0.9043  0.4620
 8021SOL    HW331857   2.354   5.845   4.070 -0.9456  0.7855  0.6096
 8021SOL    MW431858   2.391   5.837   4.148  0.2389  0.7648  0.0626
 8022SOL     OW31859   4.921   5.134   5.288 -0.5179 -0.8664 -0.5011
 8022SOL    HW231860   4.841   5.187   5.289  0.0454  0.0000 -0.4026
 8022SOL    HW331861   4.985   5.187   5.336 -0.2820 -2.1946  0.7350
 8022SOL    MW431862   4.919   5.148   5.295 -0.4125 -0.9273 -0.3250
 8023SOL     OW31863   2.374   2.051   2.858 -0.0959  0.5905 -0.8916
 8023SOL    HW231864   2.383   2.122   2.795 -2.9683  0.7243 -1.2923
 8023SOL    HW331865   2.279   2.037   2.865  0.1190 -0.1209  2.6130
 8023SOL    MW431866   2.363   2.059   2.851 -0.4465  0.5143 -0.4821
 8024SOL     OW31867   5.283   2.916   2.660  0.1941 -0.7140 -0.1977
 8024SOL    HW231868   5.378   2.916   2.676  0.1188 -1.9866  0.3761
 8024SOL    HW331869   5.245   2.888   2.743 -0.8747  2.0652  0.3463
 8024SOL    MW431870   5.291   2.912   2.673  0.0431 -0.5153 -0.0502
 8025SOL     OW31871   2.605   6.221   2.937 -0.0722 -0.3930  0.4953
 8025SOL    HW231872   2.660   6.299   2.932  2.0752 -1.5864  3.0744
 8025SOL    HW331873   2.619   6.176   2.854  0.4310  0.8144 -0.1029
 8025SOL    MW431874   2.614   6.226   2.925  0.2775 -0.3911  0.7567
 8026SOL     OW31875   5.866   2.671   0.378  0.2189 -0.3337 -0.1062
 8026SOL    HW231876   5.801   2.682   0.446 -2.9219 -0.5111 -2.8239
 8026SOL    HW331877   5.894   2.580   0.385  0.4448 -0.1806  1.2675
 8026SOL    MW431878   5.861   2.661   0.388 -0.1657 -0.3369 -0.2835
 8027SOL     OW31879   1.281   1.942   5.192  0.1074  0.0679 -0.2998
 8027SOL    HW231880   1.288   1.923   5.285  0.7882  0.5787 -0.2313
 8027SOL    HW331881   1.362   1.906   5.154 -0.5448 -0.8752 -0.8355
 8027SOL    MW431882   1.293   1.935   5.199  0.1112  0.0109 -0.3615
 8028SOL     OW31883   6.389   1.683   4.288  0.1352 -0.0782  0.1087
 8028SOL    HW231884   6.436   1.603   4.314  1.2338  0.4448 -0.2206
 8028SOL    HW331885   6.362   1.722   4.371 -0.5502 -0.8612  0.2688
 8028SOL    MW431886   6.392   1.677   4.303  0.1897 -0.1125  0.0864
 8029SOL     OW31887   2.310   2.173   2.385  0.2591 -0.1805  0.0933
 8029SOL    HW231888   2.280   2.262   2.364  1.7057  0.1590 -0.6772
 8029SOL    HW331889   2.355   2.182   2.469  0.3124 -0.2082  0.0676
 8029SOL    MW431890   2.312   2.186   2.393  0.4570 -0.1394 -0.0117
 8030SOL     OW31891   6.169   6.069   2.399  0.1155  0.8395 -0.6555
 8030SOL    HW231892   6.135   5.981   2.381 -0.5490  0.8197  0.5821
 8030SOL    HW331893   6.264   6.058   2.403 -0.0293 -0.8638  4.0188
 8030SOL    MW431894   6.177   6.056   2.397  0.0087  0.6121  0.1245
 8031SOL     OW31895   0.462   4.177   1.480  0.1526 -0.0395 -0.1627
 8031SOL    HW231896   0.382   4.140   1.517 -0.6545  1.0880 -0.6910
 8031SOL    HW331897   0.521   4.188   1.554 -0.2705 -0.6686  0.2710
 8031SOL    MW431898   0.459   4.174   1.494 -0.0097  0.0263 -0.1752
 8032SOL     OW31899   2.248   2.364   6.414  0.4007  0.1713 -0.1331
 8032SOL    HW231900   2.307   2.311   6.360  0.7858  0.7209 -0.2644
 8032SOL    HW331901   2.218   2.433   6.355  1.1653  1.0287  0.4604
 8032SOL    MW431902   2.252   2.366   6.399  0.5524  0.3569 -0.0721
 8033SOL     OW31903   2.800   2.109   2.176 -0.1304  0.3276 -0.7226
 8033SOL    HW231904   2.737   2.037   2.182 -0.1660  0.4455  0.3292
 8033SOL    HW331905   2.775   2.170   2.245  2.7859 -0.9525  1.6865
 8033SOL    MW431906   2.788   2.107   2.186  0.2497  0.1742 -0.2660
 8034SOL     OW31907   5.493   6.015   3.228 -0.8968  0.6982  0.3372
 8034SOL    HW231908   5.524   6.091   3.178 -0.7550  0.1977 -0.3553
 8034SOL    HW331909   5.480   6.048   3.316  1.5176  0.9831  0.6649
 8034SOL    MW431910   5.496   6.029   3.233 -0.5595  0.6698  0.2890
 8035SOL     OW31911   5.991   5.849   2.259  0.0456 -0.2970  0.2364
 8035SOL    HW231912   5.948   5.805   2.186 -3.3676  1.2574  1.1172
 8035SOL    HW331913   5.974   5.793   2.335 -0.6934  0.4710  0.6477
 8035SOL    MW431914   5.983   5.836   2.260 -0.5023  0.0094  0.4069
 8036SOL     OW31915   0.814   4.479   2.484  0.6607  0.5641  0.2830
 8036SOL    HW231916   0.820   4.389   2.452 -0.7722  0.9197 -1.1067
 8036SOL    HW331917   0.860   4.531   2.419  2.2103  0.8009  1.5070
 8036SOL    MW431918   0.821   4.474   2.471  0.6761  0.6423  0.2611
 8037SOL     OW31919   6.105   3.556   2.710  0.1490 -0.2214 -0.1151
 8037SOL    HW231920   6.063   3.496   2.772 -2.7700  0.5816 -1.1401
 8037SOL    HW331921   6.101   3.642   2.753  0.0723 -0.0162 -0.5249
 8037SOL    MW431922   6.099   3.560   2.724 -0.2463 -0.0884 -0.3044
 8038SOL     OW31923   0.197   2.798   3.335 -0.6066  0.2098 -0.6833
 8038SOL    HW231924   0.150   2.861   3.388 -0.1911  1.5118 -1.7938
 8038SOL    HW331925   0.247   2.851   3.272  0.6046 -1.1804 -0.9711
 8038SOL    MW431926   0.197   2.813   3.333 -0.3920  0.1982 -0.8678
 8039SOL     OW31927   3.259   0.220   0.733 -0.1904 -0.0710 -0.1593
 8039SOL    HW231928   3.316   0.157   0.688 -1.6295 -1.8572  0.4054
 8039SOL    HW331929   3.170   0.193   0.708 -0.8595  1.6151  0.3046
 8039SOL    MW431930   3.255   0.208   0.724 -0.4686 -0.0842 -0.0236
 8040SOL     OW31931   0.314   2.852   0.893 -0.3080  0.6772 -0.3457
 8040SOL    HW231932   0.291   2.929   0.841  0.6566  0.4486 -1.1324
 8040SOL    HW331933   0.282   2.778   0.842 -0.1312  0.4930 -0.1899
 8040SOL    MW431934   0.307   2.852   0.880 -0.1574  0.6228 -0.4289
 8041SOL     OW31935   4.738   0.751   3.492 -0.3817  0.2602 -0.0902
 8041SOL    HW231936   4.746   0.732   3.399 -2.5263  1.3166 -0.5621
 8041SOL    HW331937   4.800   0.822   3.508  1.5981 -1.3523 -0.1490
 8041SOL    MW431938   4.747   0.758   3.482 -0.4034  0.1869 -0.1602
 8042SOL     OW31939   5.014   3.560   3.876 -0.5232  0.4844  0.5099
 8042SOL    HW231940   4.955   3.581   3.804 -0.5040  1.4968  0.7718
 8042SOL    HW331941   5.101   3.584   3.844 -0.7015  2.6425  1.4512
 8042SOL    MW431942   5.018   3.566   3.863 -0.5442  0.9027  0.6686
 8043SOL     OW31943   3.696   5.325   1.683 -0.0546 -0.1384 -0.8232
 8043SOL    HW231944   3.732   5.413   1.676  2.2065 -0.8594  0.7620
 8043SOL    HW331945   3.665   5.319   1.773  2.2567 -1.7350 -0.0376
 8043SOL    MW431946   3.697   5.336   1.694  0.5487 -0.4442 -0.5104
 8044SOL     OW31947   6.027   4.002   1.705 -0.6798  0.1886  0.6109
 8044SOL    HW231948   6.003   3.940   1.636  1.0931  0.3579 -0.2133
 8044SOL    HW331949   6.014   4.088   1.665  0.1862  0.2899  0.5298
 8044SOL    MW431950   6.022   4.005   1.690 -0.3317  0.2243  0.4915
 8045SOL     OW31951   1.142   6.083   2.432 -0.4449 -0.2946 -0.0813
 8045SOL    HW231952   1.212   6.103   2.370 -0.7638  0.9390 -0.0653
 8045SOL    HW331953   1.098   6.006   2.395 -0.6602  0.4459 -1.4364
 8045SOL    MW431954   1.145   6.075   2.419 -0.5154 -0.0342 -0.2580
 8046SOL     OW31955   4.537   0.173   1.105  0.2750  0.1761  0.2944
 8046SOL    HW231956   4.487   0.192   1.184  1.4971  1.4052  0.8195
 8046SOL    HW331957   4.622   0.142   1.138 -0.0628 -1.8202 -0.5692
 8046SOL    MW431958   4.542   0.171   1.120  0.3917  0.0749  0.2498
 8047SOL     OW31959   3.683   0.071   3.336  0.2739  0.1357  0.1298
 8047SOL    HW231960   3.611   0.107   3.388  0.0000 -1.0323  0.5892
 8047SOL    HW331961   3.669   0.106   3.248 -0.5477  0.3632  0.3392
 8047SOL    MW431962   3.671   0.080   3.331  0.1294  0.0116  0.2181
 8048SOL     OW31963   4.926   0.499   1.636  0.3402  0.0020 -0.1108
 8048SOL    HW231964   4.885   0.419   1.604  1.9650 -0.2783 -1.6571
 8048SOL    HW331965   4.900   0.566   1.572  0.7216  0.2405 -0.0171
 8048SOL    MW431966   4.917   0.498   1.623  0.6049 -0.0035 -0.3024
 8049SOL     OW31967   1.884   4.905   2.893 -0.0422  0.1736  0.4370
 8049SOL    HW231968   1.823   4.956   2.947 -1.3432 -2.9502  2.2250
 8049SOL    HW331969   1.971   4.928   2.926 -0.2954  3.0874 -0.6528
 8049SOL    MW431970   1.887   4.915   2.905 -0.2472  0.1459  0.5291
 8050SOL     OW31971   2.341   2.782   4.260 -0.8113 -0.2845  0.3258
 8050SOL    HW231972   2.359   2.743   4.345  0.2905  0.4802  0.4615
 8050SOL    HW331973   2.323   2.708   4.203 -1.6117 -0.8076  1.2136
 8050SOL    MW431974   2.341   2.767   4.264 -0.7716 -0.2526  0.4608
 8051SOL     OW31975   4.468   0.304   1.950  0.0094  0.0683  0.2212
 8051SOL    HW231976   4.552   0.333   1.915 -0.5280 -0.0696 -1.2386
 8051SOL    HW331977   4.416   0.385   1.957 -0.2974 -0.0539 -0.5116
 8051SOL    MW431978   4.472   0.319   1.946 -0.1020  0.0340 -0.0681
 8052SOL     OW31979   5.705   2.013   2.299 -0.0968 -0.1188  0.0670
 8052SOL    HW231980   5.745   2.076   2.358  0.9238  1.6058 -2.3112
 8052SOL    HW331981   5.621   2.053   2.275 -0.0718 -0.3417 -0.3984
 8052SOL    MW431982   5.699   2.027   2.303  0.0412  0.0793 -0.3082
 8053SOL     OW31983   6.426   0.701   0.573 -0.2277 -0.4952  0.2631
 8053SOL    HW231984   6.385   0.617   0.555  0.0906 -0.4336 -0.8227
 8053SOL    HW331985   6.516   0.691   0.542 -0.3029  0.3820 -0.2611
 8053SOL    MW431986   6.433   0.689   0.567 -0.1956 -0.3714  0.0507
 8054SOL     OW31987   0.915   1.412   5.353  0.3702  0.0477  0.1838
 8054SOL    HW231988   0.898   1.436   5.444 -0.0088 -1.0308  0.4103
 8054SOL    HW331989   0.925   1.317   5.354  0.3194  0.0145 -0.9076
 8054SOL    MW431990   0.914   1.403   5.365  0.3135 -0.0990  0.0697
 8055SOL     OW31991   1.853   4.851   1.418  0.1585  0.2400 -0.3265
 8055SOL    HW231992   1.812   4.803   1.490 -0.1415  1.4963  0.3690
 8055SOL    HW331993   1.945   4.826   1.421  0.1363  0.2459  0.4607
 8055SOL    MW431994   1.859   4.841   1.428  0.1160  0.4065 -0.1309
 8056SOL     OW31995   6.351   3.827   0.265 -0.4736 -0.2215 -0.2018
 8056SOL    HW231996   6.290   3.822   0.192  0.1144  1.4668 -0.8573
 8056SOL    HW331997   6.377   3.737   0.281 -2.1832 -0.8505 -0.6927
 8056SOL    MW431998   6.346   3.815   0.258 -0.6216 -0.0817 -0.3530
 8057SOL     OW31999   0.540   4.559   5.019 -0.0750  0.1502  0.2784
 8057SOL    HW232000   0.545   4.468   5.047  1.8959 -0.4864 -1.8112
 8057SOL    HW332001   0.602   4.565   4.947  1.5264  3.6877  1.7321
 8057SOL    MW432002   0.549   4.548   5.013  0.3964  0.5329  0.1945
 8058SOL     OW32003   3.294   4.839   6.419  0.1276  0.4238  0.0588
 8058SOL    HW232004   3.246   4.921   6.428  0.1018  0.2693  1.6040
 8058SOL    HW332005   3.297   4.803   6.508  1.0578 -0.7262 -0.4114
 8058SOL    MW432006   3.288   4.845   6.432  0.2469  0.2517  0.2006
 8059SOL     OW32007   3.482   5.655   6.147 -0.2672  0.0335  0.0298
 8059SOL    HW232008   3.396   5.615   6.137  0.0645 -0.3305 -1.6870
 8059SOL    HW332009   3.485   5.684   6.239 -1.8367 -0.7804  0.3680
 8059SOL    MW432010   3.471   5.654   6.158 -0.4305 -0.1219 -0.1521
 8060SOL     OW32011   2.693   1.269   2.542 -0.2903 -0.5330  0.5221
 8060SOL    HW232012   2.664   1.361   2.544  1.8685  0.2136  0.0433
 8060SOL    HW332013   2.628   1.223   2.596 -2.3229  0.9616 -0.4732
 8060SOL    MW432014   2.680   1.275   2.550 -0.2736 -0.2373  0.3276
 8061SOL     OW32015   3.490   0.147   5.743  0.3620  0.1183 -0.1175
 8061SOL    HW232016   3.486   0.121   5.651 -0.2771  1.7975 -0.5989
 8061SOL    HW332017   3.532   0.233   5.742  0.8877 -0.0914  1.2304
 8061SOL    MW432018   3.495   0.155   5.731  0.3470  0.3122 -0.0032
 8062SOL     OW32019   1.819   5.083   5.428 -0.0754  0.0591 -0.0095
 8062SOL    HW232020   1.842   5.091   5.521 -1.3765  0.2355  0.3144
 8062SOL    HW332021   1.802   4.989   5.415 -0.4581  0.1143  0.0778
 8062SOL    MW432022   1.820   5.071   5.439 -0.2976  0.0897  0.0447
 8063SOL     OW32023   0.188   0.281   3.820  0.0991 -0.3918 -0.1829
 8063SOL    HW232024   0.152   0.365   3.845 -0.2152 -0.2372 -1.1180
 8063SOL    HW332025   0.262   0.268   3.879  0.5856  0.8724 -0.4896
 8063SOL    MW432026   0.193   0.290   3.831  0.1218 -0.2046 -0.3467
 8064SOL     OW32027   0.856   1.883   6.209  0.4478  0.4091  0.2342
 8064SOL    HW232028   0.869   1.904   6.117 -1.4556  0.6743 -0.0337
 8064SOL    HW332029   0.803   1.803   6.208  2.8539 -1.2863  1.1788
 8064SOL    MW432030   0.850   1.875   6.197  0.5141  0.2204  0.3235
 8065SOL     OW32031   0.886   5.251   2.817 -0.0950  0.4738 -0.4528
 8065SOL    HW232032   0.799   5.211   2.823 -0.5077  1.0734 -2.0457
 8065SOL    HW332033   0.947   5.176   2.820 -0.5882  0.1016  1.4493
 8065SOL    MW432034   0.883   5.236   2.818 -0.2145  0.5038 -0.4120
 8066SOL     OW32035   6.216   6.359   1.528  0.4385  0.6078 -0.0098
 8066SOL    HW232036   6.186   6.375   1.617  1.2530 -0.3688  0.4484
 8066SOL    HW332037   6.135   6.357   1.476 -0.1092  0.3167  0.8370
 8066SOL    MW432038   6.201   6.361   1.533  0.4737  0.4405  0.1624
 8067SOL     OW32039   6.044   2.943   2.151 -0.5188 -1.2926 -0.2714
 8067SOL    HW232040   6.139   2.957   2.152 -0.2453 -2.9120 -0.2307
 8067SOL    HW332041   6.019   2.963   2.060 -0.3539  0.2275 -0.0119
 8067SOL    MW432042   6.053   2.947   2.139 -0.4610 -1.3057 -0.2318
 8068SOL     OW32043   1.088   1.335   0.358 -0.0684 -0.3007 -0.2160
 8068SOL    HW232044   1.031   1.320   0.433  0.9805 -1.6321  0.3600
 8068SOL    HW332045   1.167   1.374   0.395  0.0142  0.0852 -0.7869
 8068SOL    MW432046   1.091   1.338   0.373  0.0809 -0.4254 -0.2153
 8069SOL     OW32047   1.301   4.978   0.432  0.2073  0.1126 -0.3344
 8069SOL    HW232048   1.250   4.901   0.407 -2.4153  1.1706  1.2404
 8069SOL    HW332049   1.236   5.039   0.468  2.4552  2.1727  0.5602
 8069SOL    MW432050   1.285   4.976   0.433  0.1579  0.5240 -0.0086
 8070SOL     OW32051   1.690   0.172   5.153  0.1877 -0.2862  0.1201
 8070SOL    HW232052   1.643   0.215   5.081 -1.7247  0.1855  1.5591
 8070SOL    HW332053   1.775   0.216   5.156 -0.6729  1.5061 -0.2451
 8070SOL    MW432054   1.695   0.184   5.144 -0.1782  0.0125  0.2618
 8071SOL     OW32055   4.602   3.686   1.062  0.6163  0.0358  0.3089
 8071SOL    HW232056   4.659   3.614   1.034  1.1133  0.5707 -0.0706
 8071SOL    HW332057   4.661   3.757   1.083  0.1939 -0.0419  1.8790
 8071SOL    MW432058   4.617   3.686   1.061  0.6262  0.0961  0.4660
 8072SOL     OW32059   1.999   6.105   3.847  0.0923  0.5676 -0.4211
 8072SOL    HW232060   2.019   6.136   3.935  0.7517 -0.7328 -0.0923
 8072SOL    HW332061   1.963   6.182   3.802  0.5283  1.4617  0.7183
 8072SOL    MW432062   1.996   6.119   3.852  0.2368  0.5140 -0.2274
 8073SOL     OW32063   4.903   2.241   2.683 -0.6163  0.5465  0.6635
 8073SOL    HW232064   4.871   2.197   2.761 -0.4538 -0.8401 -0.0198
 8073SOL    HW332065   4.970   2.301   2.715 -0.6683  0.1202  1.6001
 8073SOL    MW432066   4.907   2.244   2.697 -0.6017  0.3073  0.6969
 8074SOL     OW32067   3.094   3.154   6.186 -0.1191 -0.0343  0.3995
 8074SOL    HW232068   3.147   3.155   6.106  0.7412 -0.9609  0.9259
 8074SOL    HW332069   3.024   3.091   6.168 -1.7949  2.0337 -0.7181
 8074SOL    MW432070   3.092   3.145   6.173 -0.2267  0.1163  0.3215
 8075SOL     OW32071   2.953   3.155   0.060 -0.6289 -0.7839 -0.7916
 8075SOL    HW232072   2.905   3.086   0.106  2.0010 -2.4784 -0.3375
 8075SOL    HW332073   2.886   3.204   0.013 -2.8362 -2.4606  0.4035
 8075SOL    MW432074   2.938   3.152   0.060 -0.5731 -1.2287 -0.5740
 8076SOL     OW32075   1.209   0.434   2.189 -0.3457  0.2216 -0.0411
 8076SOL    HW232076   1.287   0.485   2.167 -1.1992  2.1444  1.1330
 8076SOL    HW332077   1.167   0.416   2.105  0.5900  0.4729 -0.5697
 8076SOL    MW432078   1.214   0.438   2.175 -0.3348  0.5084  0.0441
 8077SOL     OW32079   5.431   4.333   0.684  0.1912 -0.3946 -0.3500
 8077SOL    HW232080   5.487   4.266   0.644 -0.6513 -0.8951 -0.7457
 8077SOL    HW332081   5.352   4.285   0.711 -0.6482  0.5056 -1.0964
 8077SOL    MW432082   5.428   4.318   0.682 -0.0307 -0.3418 -0.5007
 8078SOL     OW32083   2.612   0.280   1.630  0.3770  0.3661  0.1489
 8078SOL    HW232084   2.550   0.224   1.585 -0.8646 -0.3618  2.5666
 8078SOL    HW332085   2.672   0.219   1.674  2.6571  1.0477 -1.8002
 8078SOL    MW432086   2.612   0.264   1.630  0.5140  0.3600  0.2107
 8079SOL     OW32087   4.645   6.266   2.923 -0.3354  0.9776  0.0177
 8079SOL    HW232088   4.676   6.276   2.833  1.0654  1.9582  0.5733
 8079SOL    HW332089   4.550   6.272   2.916 -0.2527  1.0722 -1.3885
 8079SOL    MW432090   4.636   6.268   2.910 -0.1396  1.1195 -0.0945
 8080SOL     OW32091   5.234   5.526   5.873 -0.1688  0.5025  0.3365
 8080SOL    HW232092   5.297   5.557   5.809  1.4950  1.2856  2.2347
 8080SOL    HW332093   5.231   5.594   5.940  1.0827 -1.7965  2.9758
 8080SOL    MW432094   5.242   5.539   5.873  0.2159  0.3025  0.9352
 8081SOL     OW32095   3.437   0.796   1.406  0.4350  0.3063 -0.1743
 8081SOL    HW232096   3.480   0.792   1.491 -0.5530  0.8288  0.3683
 8081SOL    HW332097   3.395   0.711   1.397  0.9957  0.0481 -0.3955
 8081SOL    MW432098   3.437   0.785   1.416  0.3786  0.3412 -0.1319
 8082SOL     OW32099   1.919   4.864   1.771  0.2105 -1.1488 -0.1300
 8082SOL    HW232100   1.906   4.776   1.806 -0.3936  0.0401  2.9408
 8082SOL    HW332101   1.834   4.908   1.782  0.8807  0.2475 -0.2202
 8082SOL    MW432102   1.906   4.859   1.777  0.2192 -0.8077  0.2633
 8083SOL     OW32103   2.590   0.974   2.884 -0.2261  0.0828  0.1112
 8083SOL    HW232104   2.661   1.032   2.910  1.1241 -1.1387 -0.6775
 8083SOL    HW332105   2.578   0.915   2.959  0.4011 -0.4255 -0.1741
 8083SOL    MW432106   2.598   0.974   2.897  0.0348 -0.1454 -0.0305
 8084SOL     OW32107   1.994   5.467   3.695 -0.2999 -0.2348  0.3463
 8084SOL    HW232108   1.997   5.558   3.724 -0.6009 -0.5114  1.2900
 8084SOL    HW332109   1.989   5.472   3.600  1.3923  0.7095  0.2590
 8084SOL    MW432110   1.994   5.479   3.687 -0.1163 -0.1467  0.4593
 8085SOL     OW32111   5.215   3.317   3.055 -0.5457  0.1692  0.1205
 8085SOL    HW232112   5.136   3.367   3.040 -0.2798  0.4916 -0.2193
 8085SOL    HW332113   5.252   3.353   3.136  0.3061  1.3939 -0.7810
 8085SOL    MW432114   5.210   3.328   3.064 -0.3982  0.3733 -0.0433
 8086SOL     OW32115   2.011   5.480   2.336 -0.4009  0.4051 -0.2865
 8086SOL    HW232116   1.920   5.452   2.332  0.0558 -1.2919  0.3449
 8086SOL    HW332117   2.061   5.399   2.332  1.0379  1.1735  1.0575
 8086SOL    MW432118   2.006   5.466   2.335 -0.1508  0.2826 -0.0259
 8087SOL     OW32119   1.719   3.024   0.177  0.8125  0.2728  0.8881
 8087SOL    HW232120   1.702   2.955   0.113  0.8267 -0.8217  2.0296
 8087SOL    HW332121   1.655   3.092   0.156  0.9957  0.0630 -0.4424
 8087SOL    MW432122   1.708   3.024   0.166  0.8385  0.1007  0.8632
 8088SOL     OW32123   0.221   5.557   0.909  0.3604  0.1203  0.0709
 8088SOL    HW232124   0.257   5.635   0.953 -1.7576  0.7218  0.8647
 8088SOL    HW332125   0.133   5.548   0.946  0.5152 -2.6356 -0.0529
 8088SOL    MW432126   0.214   5.566   0.920  0.1014 -0.1639  0.1593
 8089SOL     OW32127   6.224   4.523   1.260 -0.2065 -0.0472 -0.7618
 8089SOL    HW232128   6.154   4.470   1.222 -0.6061  1.9520 -3.0872
 8089SOL    HW332129   6.225   4.499   1.353 -2.1747 -2.0368 -1.1671
 8089SOL    MW432130   6.215   4.513   1.267 -0.5189 -0.0459 -1.1221
 8090SOL     OW32131   4.825   1.577   5.679  0.3212 -0.0220  0.0357
 8090SOL    HW232132   4.845   1.583   5.586 -0.8578  1.5542 -0.1683
 8090SOL    HW332133   4.774   1.656   5.697  0.4918 -0.3191  2.0143
 8090SOL    MW432134   4.821   1.589   5.669  0.1882  0.1468  0.2698
 8091SOL     OW32135   5.176   3.326   6.188  0.2531  0.2641 -0.0107
 8091SOL    HW232136   5.201   3.355   6.276  1.0736 -0.1815 -0.0854
 8091SOL    HW332137   5.091   3.366   6.173  0.7905  1.6133  0.3755
 8091SOL    MW432138   5.168   3.335   6.198  0.4323  0.3833  0.0304
 8092SOL     OW32139   5.153   1.163   4.044 -0.0988 -0.7792 -0.0667
 8092SOL    HW232140   5.144   1.192   4.134 -1.8970 -0.9083 -0.1716
 8092SOL    HW332141   5.174   1.070   4.050 -1.2557 -1.0309  0.2289
 8092SOL    MW432142   5.154   1.154   4.056 -0.4887 -0.8294 -0.0416
 8093SOL     OW32143   4.641   1.863   0.523 -0.2974  0.1220  0.4914
 8093SOL    HW232144   4.639   1.957   0.503 -2.6484 -0.0461 -0.4659
 8093SOL    HW332145   4.649   1.821   0.437  1.0744 -0.5886  0.9424
 8093SOL    MW432146   4.641   1.870   0.509 -0.4266  0.0061  0.4246
 8094SOL     OW32147   2.864   1.968   2.803  0.0617  0.2595 -0.1023
 8094SOL    HW232148   2.847   2.049   2.756  2.7803  0.0633 -1.5592
 8094SOL    HW332149   2.934   1.989   2.864 -0.2382 -0.6410  0.5796
 8094SOL    MW432150   2.871   1.981   2.805  0.3808  0.1148 -0.2045
 8095SOL     OW32151   0.335   0.780   0.719  0.1745  0.1874  0.3731
 8095SOL    HW232152   0.407   0.729   0.754  0.9273  0.7584 -0.3185
 8095SOL    HW332153   0.359   0.798   0.628 -0.6854  0.6500  0.2179
 8095SOL    MW432154   0.347   0.776   0.712  0.1603  0.3238  0.2614
 8096SOL     OW32155   2.143   3.425   1.564  0.2521 -0.4352  0.5985
 8096SOL    HW232156   2.163   3.513   1.596 -1.1047  0.3888 -0.7135
 8096SOL    HW332157   2.125   3.375   1.643  0.9798  0.4625  1.3675
 8096SOL    MW432158   2.144   3.430   1.579  0.1691 -0.2081  0.5269
 8097SOL     OW32159   5.801   1.417   4.907  0.4848 -0.0536  0.4973
 8097SOL    HW232160   5.879   1.386   4.953  0.5461 -0.8118 -0.1099
 8097SOL    HW332161   5.816   1.394   4.816 -0.1092  0.5034  0.2498
 8097SOL    MW432162   5.813   1.410   4.901  0.4145 -0.0801  0.3846
 8098SOL     OW32163   3.690   1.387   5.316 -0.3560  0.5910  0.1176
 8098SOL    HW232164   3.621   1.325   5.296  2.0991 -2.3175 -0.1461
 8098SOL    HW332165   3.680   1.407   5.409 -1.1223 -0.3199  0.2328
 8098SOL    MW432166   3.680   1.382   5.325 -0.1332  0.0871  0.0981
 8099SOL     OW32167   5.355   2.488   0.808 -0.3702 -0.2386  0.5897
 8099SOL    HW232168   5.308   2.441   0.739  0.2052  0.5649 -0.3809
 8099SOL    HW332169   5.447   2.466   0.793  0.0390  1.9894 -0.5809
 8099SOL    MW432170   5.361   2.479   0.797 -0.2403  0.1614  0.3072
 8100SOL     OW32171   5.293   2.770   3.404 -0.2177  0.4597 -0.3080
 8100SOL    HW232172   5.278   2.812   3.489 -0.4953  0.3107 -0.2818
 8100SOL    HW332173   5.342   2.835   3.353 -0.4486  0.7264 -0.1924
 8100SOL    MW432174   5.297   2.784   3.409 -0.2848  0.4752 -0.2893
 8101SOL     OW32175   1.340   5.639   1.610 -0.1908  0.4081 -0.2239
 8101SOL    HW232176   1.366   5.701   1.678  0.0253 -0.0838  0.1411
 8101SOL    HW332177   1.244   5.642   1.610 -0.1988  0.1276  0.3589
 8101SOL    MW432178   1.330   5.648   1.619 -0.1634  0.3062 -0.0989
 8102SOL     OW32179   5.815   4.621   4.961 -0.1216 -0.3334 -0.6326
 8102SOL    HW232180   5.846   4.693   4.906  1.2422 -1.7844 -1.8435
 8102SOL    HW332181   5.864   4.631   5.043  0.7702 -0.4158 -1.1457
 8102SOL    MW432182   5.826   4.632   4.965  0.1760 -0.5357 -0.8600
 8103SOL     OW32183   5.068   3.972   5.771  0.1149 -0.5636  0.4223
 8103SOL    HW232184   5.009   3.905   5.805 -2.3343  1.4643  0.4932
 8103SOL    HW332185   5.040   3.984   5.680  2.9444 -2.0683 -0.7663
 8103SOL    MW432186   5.056   3.965   5.764  0.1651 -0.4946  0.2748
 8104SOL     OW32187   1.695   5.258   5.166 -0.3407 -0.1326  0.0377
 8104SOL    HW232188   1.637   5.253   5.241  0.0489  1.2677  0.4661
 8104SOL    HW332189   1.776   5.215   5.194 -0.5299 -0.4657  0.0761
 8104SOL    MW432190   1.698   5.252   5.179 -0.3143  0.0082  0.0993
 8105SOL     OW32191   6.157   0.196   1.956  0.3765  0.2994  0.6721
 8105SOL    HW232192   6.122   0.142   2.027 -0.2462 -1.1672 -0.6998
 8105SOL    HW332193   6.231   0.146   1.921 -0.4982  0.0662 -0.9342
 8105SOL    MW432194   6.162   0.183   1.961  0.1790  0.0751  0.2791
 8106SOL     OW32195   0.517   1.533   0.246  0.2011  0.1646  0.2999
 8106SOL    HW232196   0.595   1.482   0.227  0.2494 -0.0345  1.0063
 8106SOL    HW332197   0.516   1.602   0.180  0.1673 -0.7002 -0.6237
 8106SOL    MW432198   0.527   1.536   0.235  0.2030  0.0242  0.2712
 8107SOL     OW32199   1.390   6.374   4.663  0.2018 -0.1085  0.4523
 8107SOL    HW232200   1.425   6.285   4.671 -0.0144 -0.4562 -1.8955
 8107SOL    HW332201   1.468   6.429   4.649  0.2203 -0.1143  0.5303
 8107SOL    MW432202   1.405   6.370   4.662  0.1757 -0.1551  0.1529
 8108SOL     OW32203   1.294   3.074   1.381 -0.2725 -0.0739  0.0280
 8108SOL    HW232204   1.314   3.145   1.320  0.3497  0.8046  1.2230
 8108SOL    HW332205   1.262   3.003   1.325  2.2269 -0.0674 -1.5396
 8108SOL    MW432206   1.292   3.074   1.365  0.1394  0.0428 -0.0212
 8109SOL     OW32207   0.268   5.941   0.099 -0.1098  0.0076 -0.7872
 8109SOL    HW232208   0.234   6.001   0.166 -1.3542  1.5061 -2.6109
 8109SOL    HW332209   0.200   5.875   0.089 -0.7140  0.7280 -1.6565
 8109SOL    MW432210   0.254   5.941   0.107 -0.3537  0.3004 -1.1425
 8110SOL     OW32211   3.553   3.933   4.937 -0.1169 -0.0615 -0.7218
 8110SOL    HW232212   3.587   3.985   5.010 -1.5968  1.1286 -0.8287
 8110SOL    HW332213   3.601   3.964   4.860  1.8592 -1.7163 -0.2512
 8110SOL    MW432214   3.564   3.944   4.936 -0.0514 -0.1228 -0.6738
 8111SOL     OW32215   4.139   5.673   5.890 -0.6515 -0.3247 -0.1261
 8111SOL    HW232216   4.140   5.583   5.857  1.0672 -0.3288 -0.1697
 8111SOL    HW332217   4.227   5.685   5.927 -1.1244  1.0794  0.5988
 8111SOL    MW432218   4.151   5.663   5.891 -0.4871 -0.1400 -0.0362
 8112SOL     OW32219   5.585   1.163   3.984  0.9017 -0.0928  0.1136
 8112SOL    HW232220   5.590   1.157   3.889  2.8809  1.4964  0.0393
 8112SOL    HW332221   5.506   1.214   4.002  0.1246 -1.0168 -0.6106
 8112SOL    MW432222   5.575   1.169   3.974  1.0603 -0.0050  0.0083
 8113SOL     OW32223   2.945   0.578   5.612 -0.1732  0.5951 -0.3668
 8113SOL    HW232224   3.012   0.539   5.555  0.7234  0.0823  0.9689
 8113SOL    HW332225   2.994   0.641   5.666 -0.6410 -0.1402  0.9667
 8113SOL    MW432226   2.960   0.581   5.612 -0.1166  0.4304 -0.0147
 8114SOL     OW32227   3.163   4.645   5.843 -0.4065  0.3971 -0.1722
 8114SOL    HW232228   3.162   4.601   5.928 -1.4461 -0.0464 -0.4066
 8114SOL    HW332229   3.196   4.733   5.863 -0.0686  0.1100  0.5876
 8114SOL    MW432230   3.167   4.651   5.857 -0.4991  0.3007 -0.1029
 8115SOL     OW32231   6.295   0.701   5.347 -0.1327 -0.2034 -0.3273
 8115SOL    HW232232   6.250   0.777   5.309 -1.7262 -0.7940  0.2575
 8115SOL    HW332233   6.320   0.647   5.272 -2.1170 -0.7521 -0.6548
 8115SOL    MW432234   6.292   0.704   5.332 -0.6048 -0.3537 -0.2934
 8116SOL     OW32235   1.067   0.236   5.862  0.2619 -0.3007 -0.4054
 8116SOL    HW232236   1.126   0.306   5.834  0.4845 -1.2379 -2.4892
 8116SOL    HW332237   1.120   0.181   5.920  0.1512  1.0757  1.0595
 8116SOL    MW432238   1.082   0.238   5.866  0.2767 -0.2427 -0.4870
 8117SOL     OW32239   1.579   5.235   5.410 -0.1042  0.0541  1.0205
 8117SOL    HW232240   1.574   5.329   5.426 -0.7875 -0.2936  3.2147
 8117SOL    HW332241   1.644   5.203   5.473 -0.8358 -1.1147  1.2113
 8117SOL    MW432242   1.587   5.243   5.420 -0.2909 -0.1460  1.3352
 8118SOL     OW32243   2.768   3.050   1.063  0.7351  0.0510  0.3401
 8118SOL    HW232244   2.710   3.026   0.991 -0.6586  0.3537  1.3112
 8118SOL    HW332245   2.776   2.970   1.115 -1.2730  0.7289  1.8101
 8118SOL    MW432246   2.761   3.036   1.061  0.2863  0.1804  0.6621
 8119SOL     OW32247   5.195   1.599   2.540 -0.1566 -0.6837 -0.0836
 8119SOL    HW232248   5.126   1.658   2.511  0.5136  0.0873 -0.1601
 8119SOL    HW332249   5.156   1.512   2.537 -1.1928 -0.2366  0.1164
 8119SOL    MW432250   5.181   1.595   2.536 -0.2049 -0.5230 -0.0673
 8120SOL     OW32251   5.572   5.233   6.321 -0.1759  0.0956 -0.3144
 8120SOL    HW232252   5.568   5.138   6.317  1.6059 -0.0206 -0.2749
 8120SOL    HW332253   5.604   5.260   6.235  1.8670  0.4207  0.4900
 8120SOL    MW432254   5.576   5.224   6.309  0.3288  0.1232 -0.2031
 8121SOL     OW32255   2.852   0.109   4.367 -0.3461 -0.2497  0.6447
 8121SOL    HW232256   2.796   0.184   4.347  1.0112  0.7247  0.3627
 8121SOL    HW332257   2.806   0.062   4.437 -1.7450  0.2169  0.0719
 8121SOL    MW432258   2.839   0.112   4.373 -0.3516 -0.0596  0.5319
 8122SOL     OW32259   4.128   1.663   0.004  0.0097  0.0237  0.3808
 8122SOL    HW232260   4.061   1.707  -0.050  0.9436 -0.3392 -1.1498
 8122SOL    HW332261   4.081   1.593   0.048 -0.7469  0.1477 -0.2031
 8122SOL    MW432262   4.113   1.660   0.002  0.0331 -0.0078  0.1018
 8123SOL     OW32263   0.266   5.861   3.133  0.4516  0.0563 -0.8903
 8123SOL    HW232264   0.297   5.777   3.167 -1.0990 -1.0245 -1.9974
 8123SOL    HW332265   0.332   5.887   3.069  0.8585 -0.4001 -0.6672
 8123SOL    MW432266   0.279   5.853   3.129  0.3007 -0.1465 -1.0069
 8124SOL     OW32267   6.001   2.949   5.127  0.3975 -0.5925  0.2231
 8124SOL    HW232268   6.000   2.986   5.038  1.8718  1.3162  0.9423
 8124SOL    HW332269   6.028   3.022   5.183 -1.2728 -1.5353  2.3759
 8124SOL    MW432270   6.004   2.964   5.122  0.3717 -0.4650  0.6020
 8125SOL     OW32271   5.067   2.784   3.790  0.3434  0.0889 -0.2026
 8125SOL    HW232272   5.001   2.745   3.733  0.8223  0.2186 -0.8596
 8125SOL    HW332273   5.020   2.853   3.838 -0.0721 -0.0533 -0.4044
 8125SOL    MW432274   5.052   2.788   3.789  0.3517  0.0872 -0.3159
 8126SOL     OW32275   2.528   6.037   0.914  0.3387  0.0325 -0.5500
 8126SOL    HW232276   2.463   6.077   0.972  1.2587  0.9387 -0.1160
 8126SOL    HW332277   2.558   5.960   0.963 -0.5510 -0.5267 -0.8534
 8126SOL    MW432278   2.523   6.032   0.928  0.3427  0.0783 -0.5327
 8127SOL     OW32279   2.822   0.519   4.886 -0.5204 -0.3937 -0.0253
 8127SOL    HW232280   2.753   0.578   4.917  0.4927  1.2302 -0.6951
 8127SOL    HW332281   2.828   0.538   4.792  2.6966  1.6855  0.4230
 8127SOL    MW432282   2.814   0.530   4.878  0.0377  0.0948 -0.0545
 8128SOL     OW32283   3.984   4.742   4.285  0.5462  0.3626  0.2494
 8128SOL    HW232284   3.920   4.807   4.257 -1.0637  0.3153  3.3322
 8128SOL    HW332285   4.031   4.784   4.357  3.3526 -0.0030 -1.2514
 8128SOL    MW432286   3.982   4.756   4.291  0.7041  0.3081  0.4581
 8129SOL     OW32287   1.944   6.213   0.411 -0.8219 -0.7099 -0.8913
 8129SOL    HW232288   2.021   6.231   0.465 -0.5228  0.2290 -1.5932
 8129SOL    HW332289   1.870   6.242   0.465 -0.5819 -0.4121 -0.7154
 8129SOL    MW432290   1.944   6.219   0.425 -0.7508 -0.5467 -0.9607
 8130SOL     OW32291   5.928   4.980   5.395  0.0357  0.2350 -0.2686
 8130SOL    HW232292   5.890   5.049   5.340  1.7545  2.5735  1.2686
 8130SOL    HW332293   5.863   4.910   5.395 -1.4105  1.4674 -2.6550
 8130SOL    MW432294   5.915   4.980   5.388  0.0716  0.7061 -0.3807
 8131SOL     OW32295   2.452   5.727   1.573  0.1137  0.0245  0.2292
 8131SOL    HW232296   2.409   5.785   1.637 -1.2474 -0.3481 -0.3041
 8131SOL    HW332297   2.380   5.696   1.518  1.3201  0.7716 -1.8630
 8131SOL    MW432298   2.437   5.731   1.575  0.0933  0.0739 -0.1172
 8132SOL     OW32299   3.856   4.450   2.570  0.4686  0.3937 -0.2916
 8132SOL    HW232300   3.906   4.387   2.621 -0.8619 -2.0049 -1.7483
 8132SOL    HW332301   3.895   4.447   2.483 -1.9543 -1.4630 -1.4331
 8132SOL    MW432302   3.867   4.441   2.566 -0.0266 -0.1677 -0.6344
 8133SOL     OW32303   4.005   1.065   5.552 -0.0161 -0.8543 -0.3174
 8133SOL    HW232304   4.010   0.988   5.496  0.6653 -0.7171 -0.4556
 8133SOL    HW332305   4.090   1.069   5.596  0.1959  0.1504 -0.7704
 8133SOL    MW432306   4.017   1.056   5.550  0.1018 -0.7036 -0.3954
 8134SOL     OW32307   5.324   6.273   6.384  0.2206 -0.0177 -0.1486
 8134SOL    HW232308   5.348   6.305   6.471 -0.3606 -0.1385  0.0620
 8134SOL    HW332309   5.401   6.290   6.330  1.7323 -2.5016  1.0188
 8134SOL    MW432310   5.338   6.280   6.388  0.3434 -0.3614  0.0332
 8135SOL     OW32311   3.182   6.131   2.526  0.0490  0.4901  0.5301
 8135SOL    HW232312   3.248   6.074   2.486  0.6045  0.4893  1.4329
 8135SOL    HW332313   3.233   6.198   2.571 -0.5935  1.2711  0.1052
 8135SOL    MW432314   3.198   6.132   2.526  0.0375  0.5930  0.5931
 8136SOL     OW32315   3.486   1.990   5.476 -0.1055  0.3057 -0.2636
 8136SOL    HW232316   3.438   1.910   5.451  0.2300 -0.3328  1.0587
 8136SOL    HW332317   3.522   2.022   5.393 -0.7905 -0.5405 -0.9230
 8136SOL    MW432318   3.484   1.983   5.462 -0.1516  0.1098 -0.1762
 8137SOL     OW32319   1.914   0.634   3.558  0.6909 -0.1578 -0.5227
 8137SOL    HW232320   1.868   0.698   3.612  0.4384  0.1700 -1.1254
 8137SOL    HW332321   1.858   0.621   3.482 -0.4128 -2.7898  0.5983
 8137SOL    MW432322   1.901   0.641   3.555  0.5120 -0.4618 -0.4543
 8138SOL     OW32323   0.967   0.846   4.433 -0.1172 -0.6122 -0.1235
 8138SOL    HW232324   1.032   0.778   4.415  0.2033  0.0225 -1.5149
 8138SOL    HW332325   0.903   0.837   4.362  0.2178  0.8608 -0.6377
 8138SOL    MW432326   0.967   0.836   4.421 -0.0307 -0.3341 -0.3749
 8139SOL     OW32327   0.755   5.210   4.080 -0.6691 -0.0680 -0.0662
 8139SOL    HW232328   0.778   5.220   4.173 -0.8376  3.0608 -0.2424
 8139SOL    HW332329   0.824   5.257   4.034 -0.6397 -1.5064 -1.5735
 8139SOL    MW432330   0.767   5.218   4.086 -0.6875  0.1550 -0.2884
 8140SOL     OW32331   0.431   3.366   4.027 -0.5631 -0.3993 -0.2332
 8140SOL    HW232332   0.436   3.272   4.011 -3.3043 -0.7065  0.3061
 8140SOL    HW332333   0.418   3.405   3.940 -2.4642 -0.8535 -0.1910
 8140SOL    MW432334   0.430   3.359   4.013 -1.1756 -0.4998 -0.1565
 8141SOL     OW32335   3.611   1.262   1.199  0.6149  0.0582  0.3716
 8141SOL    HW232336   3.529   1.266   1.149 -0.4142 -1.7055  1.7954
 8141SOL    HW332337   3.591   1.307   1.281  1.5927  0.9827  0.1190
 8141SOL    MW432338   3.597   1.268   1.203  0.6081 -0.0525  0.5261
 8142SOL     OW32339   0.280   3.455   3.055  0.1370  0.1128 -0.3955
 8142SOL    HW232340   0.308   3.459   3.146  0.6541  0.4839 -0.5733
 8142SOL    HW332341   0.351   3.495   3.005 -0.0038 -0.3649 -0.9949
 8142SOL    MW432342   0.293   3.461   3.060  0.1866  0.0987 -0.4981
 8143SOL     OW32343   1.560   3.955   3.014 -0.0618 -0.2733 -0.3283
 8143SOL    HW232344   1.587   4.000   2.933  3.0418  0.0599  0.7466
 8143SOL    HW332345   1.600   3.868   3.008  0.6149 -0.0844  1.0125
 8143SOL    MW432346   1.569   3.949   3.002  0.4369 -0.2044 -0.0096
 8144SOL     OW32347   5.301   5.583   2.291  0.1995  0.2991  0.1361
 8144SOL    HW232348   5.306   5.634   2.372 -0.2183  0.1029  0.2919
 8144SOL    HW332349   5.275   5.646   2.224 -0.6283  0.2448  0.3879
 8144SOL    MW432350   5.298   5.598   2.293  0.0352  0.2661  0.1899
 8145SOL     OW32351   5.779   0.154   3.350 -0.1848 -0.2277  0.3079
 8145SOL    HW232352   5.698   0.203   3.363 -0.4428 -0.7853  0.8340
 8145SOL    HW332353   5.788   0.149   3.254 -0.3622  0.4907  0.2490
 8145SOL    MW432354   5.770   0.160   3.339 -0.2422 -0.2065  0.3695
 8146SOL     OW32355   5.524   4.427   4.080  0.6546 -0.0963 -0.1890
 8146SOL    HW232356   5.557   4.445   4.168 -0.4956  0.1608  0.2031
 8146SOL    HW332357   5.459   4.495   4.065  2.1383  1.0222 -2.0003
 8146SOL    MW432358   5.520   4.438   4.090  0.6986  0.0852 -0.3762
 8147SOL     OW32359   0.156   3.141   1.513  0.5167  0.0699 -0.0696
 8147SOL    HW232360   0.191   3.229   1.524 -0.6154  0.4339  0.9199
 8147SOL    HW332361   0.224   3.093   1.466  1.6446  1.1557  0.3995
 8147SOL    MW432362   0.170   3.146   1.508  0.5162  0.2612  0.1228
 8148SOL     OW32363   4.448   0.317   4.185 -0.6716 -0.1571  0.2701
 8148SOL    HW232364   4.404   0.312   4.101 -1.6447 -1.7862  0.8373
 8148SOL    HW332365   4.483   0.406   4.189 -1.5393  0.2862 -1.3723
 8148SOL    MW432366   4.447   0.328   4.175 -0.9145 -0.3135  0.1282
 8149SOL     OW32367   3.831   2.451   1.108  0.2767  0.0637  0.0091
 8149SOL    HW232368   3.852   2.439   1.015 -1.1379 -1.2384 -0.1896
 8149SOL    HW332369   3.742   2.417   1.116 -0.7539  2.8381  1.2964
 8149SOL    MW432370   3.822   2.445   1.096 -0.0459  0.2580  0.1527
 8150SOL     OW32371   1.111   0.248   1.438  0.1484 -0.5065 -0.3664
 8150SOL    HW232372   1.055   0.273   1.364 -0.0536 -1.1636 -0.4423
 8150SOL    HW332373   1.153   0.330   1.465 -1.8316  0.2720  0.5212
 8150SOL    MW432374   1.109   0.262   1.432 -0.1395 -0.4905 -0.2593
 8151SOL     OW32375   2.819   0.291   3.888  0.0487 -0.0933 -0.1294
 8151SOL    HW232376   2.847   0.350   3.957  1.6256 -0.1261 -0.7080
 8151SOL    HW332377   2.859   0.207   3.910 -0.6462 -0.4792 -0.3078
 8151SOL    MW432378   2.828   0.287   3.900  0.1651 -0.1485 -0.2293
 8152SOL     OW32379   4.603   5.623   1.514  0.1450 -0.2290  0.2100
 8152SOL    HW232380   4.515   5.647   1.541  0.0180 -1.3552  0.8364
 8152SOL    HW332381   4.638   5.703   1.474  0.0714  1.3116  2.9869
 8152SOL    MW432382   4.596   5.637   1.512  0.1186 -0.1743  0.6590
 8153SOL     OW32383   3.086   3.222   4.188  0.3325  0.2488 -0.0603
 8153SOL    HW232384   3.119   3.139   4.153 -1.1931  0.3019 -1.7349
 8153SOL    HW332385   3.004   3.199   4.231  0.7832  0.6443  1.0514
 8153SOL    MW432386   3.079   3.208   4.189  0.1907  0.3080 -0.1346
 8154SOL     OW32387   2.017   0.767   1.316  0.2471 -0.3374  0.0624
 8154SOL    HW232388   2.032   0.723   1.400 -1.7983 -1.4663 -0.1147
 8154SOL    HW332389   1.924   0.787   1.316  0.3131  0.0763 -1.7471
 8154SOL    MW432390   2.007   0.763   1.327 -0.0140 -0.4318 -0.1997
 8155SOL     OW32391   4.651   4.430   2.106  0.3064 -0.0520  0.6739
 8155SOL    HW232392   4.654   4.425   2.011  1.5874  2.1460  0.5204
 8155SOL    HW332393   4.597   4.355   2.133 -1.4066  0.1494 -1.8434
 8155SOL    MW432394   4.644   4.420   2.097  0.2494  0.2646  0.3215
 8156SOL     OW32395   2.014   5.201   0.858 -0.3457  0.0081  0.0279
 8156SOL    HW232396   1.996   5.295   0.855  0.8138  0.3402  1.8396
 8156SOL    HW332397   2.089   5.189   0.801 -1.0462  0.0054 -0.9192
 8156SOL    MW432398   2.021   5.212   0.850 -0.2851  0.0516  0.1420
 8157SOL     OW32399   3.732   0.317   1.605 -0.2618  0.0153  0.5009
 8157SOL    HW232400   3.719   0.379   1.677  0.8005  0.5374  0.2737
 8157SOL    HW332401   3.780   0.244   1.645 -0.6220 -0.1968  0.5498
 8157SOL    MW432402   3.737   0.315   1.620 -0.1692  0.0562  0.4774
 8158SOL     OW32403   5.148   4.448   3.153  0.2253  0.0576 -0.1183
 8158SOL    HW232404   5.207   4.405   3.213 -0.3478 -1.2067 -0.4227
 8158SOL    HW332405   5.061   4.414   3.175  0.1535 -1.6520 -2.5843
 8158SOL    MW432406   5.144   4.438   3.164  0.1402 -0.3347 -0.4838
 8159SOL     OW32407   4.672   1.442   2.493 -0.4374  0.4271  0.3025
 8159SOL    HW232408   4.653   1.493   2.571 -2.4119  1.3580 -0.7271
 8159SOL    HW332409   4.613   1.476   2.426  1.0452 -0.4605 -1.5757
 8159SOL    MW432410   4.662   1.453   2.494 -0.5023  0.4328 -0.0811
 8160SOL     OW32411   0.118   4.595   2.818  0.0839  0.1494 -0.1524
 8160SOL    HW232412   0.201   4.557   2.791 -0.7630 -1.8647 -0.0618
 8160SOL    HW332413   0.119   4.593   2.913 -0.0091  0.2706 -0.1470
 8160SOL    MW432414   0.129   4.590   2.827 -0.0401 -0.1004 -0.1397
 8161SOL     OW32415   3.053   1.157   4.884  0.3902  0.0219 -0.2781
 8161SOL    HW232416   3.069   1.072   4.925  1.7400  0.8091  0.9113
 8161SOL    HW332417   2.967   1.183   4.916 -0.1048 -0.9647 -0.7838
 8161SOL    MW432418   3.044   1.150   4.894  0.5030 -0.0044 -0.1879
 8162SOL     OW32419   2.605   2.335   4.606 -0.3976 -0.1239  0.6836
 8162SOL    HW232420   2.564   2.257   4.643  3.3859 -1.5636  2.4244
 8162SOL    HW332421   2.624   2.313   4.515 -2.8424  0.4351 -0.0437
 8162SOL    MW432422   2.602   2.322   4.599 -0.2210 -0.2401  0.8173
 8163SOL     OW32423   6.115   2.547   0.662  0.1827 -0.4255  0.2329
 8163SOL    HW232424   6.210   2.537   0.651  0.1203 -0.7328 -0.0391
 8163SOL    HW332425   6.097   2.638   0.638  0.2367 -0.7088 -0.9240
 8163SOL    MW432426   6.125   2.557   0.658  0.1816 -0.5034  0.0444
 8164SOL     OW32427   1.752   3.146   5.699 -0.2625  0.4062  0.3127
 8164SOL    HW232428   1.664   3.155   5.736 -0.8084 -0.9402 -0.5667
 8164SOL    HW332429   1.744   3.072   5.638  1.0430  1.3594 -1.0674
 8164SOL    MW432430   1.739   3.137   5.696 -0.1623  0.3543  0.0146
 8165SOL     OW32431   0.969   6.093   0.345 -0.7338 -0.8432 -0.1990
 8165SOL    HW232432   1.039   6.151   0.313  0.2359 -1.2686  1.0587
 8165SOL    HW332433   1.013   6.033   0.405 -2.2444 -0.9007  0.9075
 8165SOL    MW432434   0.984   6.093   0.349 -0.8052 -0.9069  0.1129
 8166SOL     OW32435   3.681   5.144   2.801  0.5817  0.0332  0.1525
 8166SOL    HW232436   3.710   5.063   2.842  1.7741 -0.4810 -1.5700
 8166SOL    HW332437   3.747   5.162   2.734 -1.2981  0.6793 -1.6637
 8166SOL    MW432438   3.693   5.135   2.797  0.4910  0.0506 -0.3144
 8167SOL     OW32439   0.962   0.678   5.254 -0.0663 -0.3520 -0.5393
 8167SOL    HW232440   0.945   0.639   5.340 -0.4717  0.1121 -0.4021
 8167SOL    HW332441   0.898   0.749   5.247 -0.4116 -0.7455 -1.4642
 8167SOL    MW432442   0.951   0.683   5.264 -0.1653 -0.3427 -0.6433
 8168SOL     OW32443   1.132   4.741   0.710  0.0617  0.1458 -0.2773
 8168SOL    HW232444   1.038   4.749   0.689 -0.3528 -0.0262  1.3896
 8168SOL    HW332445   1.156   4.827   0.744  0.8594  0.5866 -1.8637
 8168SOL    MW432446   1.122   4.754   0.712  0.1123  0.1813 -0.2667
 8169SOL     OW32447   2.255   4.237   2.910  0.0981 -0.0652 -0.4773
 8169SOL    HW232448   2.227   4.159   2.959 -0.6942 -0.1567 -1.0451
 8169SOL    HW332449   2.244   4.212   2.819  0.0681  0.6348 -0.6668
 8169SOL    MW432450   2.250   4.223   2.905 -0.0104  0.0151 -0.5772
 8170SOL     OW32451   1.442   2.528   1.088 -0.5428  0.6919  0.5188
 8170SOL    HW232452   1.432   2.475   1.167 -0.8687  1.1253  0.7676
 8170SOL    HW332453   1.353   2.550   1.062 -0.4392  0.5655  0.0320
 8170SOL    MW432454   1.429   2.524   1.095 -0.5721  0.7324  0.4874
 8171SOL     OW32455   5.134   6.047   5.635 -0.0773 -0.0421  0.1149
 8171SOL    HW232456   5.127   6.135   5.672 -1.4630 -0.4754  0.9793
 8171SOL    HW332457   5.153   5.991   5.710 -0.0854 -0.5832 -0.2814
 8171SOL    MW432458   5.136   6.051   5.649 -0.2612 -0.1706  0.1767
 8172SOL     OW32459   4.131   5.078   6.034 -0.1945  0.1152  0.2068
 8172SOL    HW232460   4.118   5.070   6.129 -0.7245 -0.9564  0.0619
 8172SOL    HW332461   4.203   5.017   6.015 -0.5114 -0.1525 -0.1588
 8172SOL    MW432462   4.139   5.069   6.044 -0.3062 -0.0615  0.1394
 8173SOL     OW32463   3.296   3.539   3.278 -0.3771 -0.0491  0.0763
 8173SOL    HW232464   3.255   3.621   3.251 -1.2455 -1.4750 -3.4579
 8173SOL    HW332465   3.371   3.529   3.219 -0.2397 -1.7456  0.4872
 8173SOL    MW432466   3.301   3.548   3.267 -0.4736 -0.4611 -0.3358
 8174SOL     OW32467   1.323   5.637   5.665 -0.5822  0.2434 -0.2600
 8174SOL    HW232468   1.360   5.582   5.596 -0.4638 -0.4052  0.3140
 8174SOL    HW332469   1.343   5.727   5.637 -0.4872 -0.0089 -1.0352
 8174SOL    MW432470   1.330   5.642   5.652 -0.5540  0.1245 -0.2866
 8175SOL     OW32471   6.080   1.633   0.680  0.1698 -0.0942  0.2223
 8175SOL    HW232472   6.006   1.690   0.661 -0.0586 -0.4130  0.1517
 8175SOL    HW332473   6.154   1.675   0.636  0.2023  0.6549  0.9564
 8175SOL    MW432474   6.080   1.646   0.672  0.1440 -0.0374  0.3098
 8176SOL     OW32475   4.553   1.193   0.509  0.4999 -0.2245 -0.5454
 8176SOL    HW232476   4.618   1.180   0.578 -2.4690 -1.6194  2.2242
 8176SOL    HW332477   4.533   1.105   0.478  0.1943  0.2298 -1.7017
 8176SOL    MW432478   4.559   1.180   0.514  0.0678 -0.3486 -0.3325
 8177SOL     OW32479   2.148   5.684   2.971 -0.1904  0.1387  0.5278
 8177SOL    HW232480   2.073   5.647   3.017  0.0513 -0.6800  0.2871
 8177SOL    HW332481   2.111   5.746   2.909 -0.6515 -0.1234  0.5387
 8177SOL    MW432482   2.133   5.687   2.969 -0.2193 -0.0039  0.4975
 8178SOL     OW32483   0.805   1.784   1.305 -0.0836 -0.5217 -0.0136
 8178SOL    HW232484   0.822   1.872   1.270  0.8480 -0.1491  1.3081
 8178SOL    HW332485   0.866   1.727   1.258  1.0094 -0.0565  0.7891
 8178SOL    MW432486   0.815   1.788   1.294  0.1835 -0.4112  0.2667
 8179SOL     OW32487   6.385   0.319   5.959 -0.0067 -0.1385 -0.5094
 8179SOL    HW232488   6.339   0.375   5.897  0.7468  1.5083  0.3438
 8179SOL    HW332489   6.329   0.319   6.037 -0.4802 -1.4216 -0.8106
 8179SOL    MW432490   6.371   0.326   5.961  0.0303 -0.0905 -0.4366
 8180SOL     OW32491   1.846   0.253   1.657  0.3410  0.2142 -0.6725
 8180SOL    HW232492   1.939   0.273   1.673  0.2793  1.4540 -1.6343
 8180SOL    HW332493   1.807   0.247   1.744  1.2350  0.1155 -0.2615
 8180SOL    MW432494   1.853   0.255   1.670  0.4508  0.3648 -0.7451
 8181SOL     OW32495   4.114   2.138   4.711 -0.2972 -0.2794 -0.3116
 8181SOL    HW232496   4.076   2.184   4.637 -0.3375  1.0512  0.5032
 8181SOL    HW332497   4.190   2.093   4.675 -0.0709  0.6902 -1.0882
 8181SOL    MW432498   4.119   2.138   4.697 -0.2727  0.0241 -0.3066
 8182SOL     OW32499   0.512   0.853   2.327  0.1600  1.0565  0.1063
 8182SOL    HW232500   0.496   0.922   2.264 -0.3546  1.6938  0.9218
 8182SOL    HW332501   0.605   0.862   2.349  0.4314  0.6086 -0.7994
 8182SOL    MW432502   0.522   0.863   2.322  0.1279  1.0815  0.0944
 8183SOL     OW32503   5.960   0.397   6.100 -0.1310 -0.0926 -0.3024
 8183SOL    HW232504   5.884   0.342   6.116 -0.6466  0.2366 -1.5355
 8183SOL    HW332505   5.940   0.479   6.144 -1.0873  0.4476 -1.6771
 8183SOL    MW432506   5.947   0.401   6.108 -0.3252  0.0221 -0.6465
 8184SOL     OW32507   3.307   2.236   5.076  0.0792  0.1244  0.2844
 8184SOL    HW232508   3.213   2.227   5.097  0.3490  0.5111  1.7967
 8184SOL    HW332509   3.348   2.161   5.120  0.6384  0.7802  0.9136
 8184SOL    MW432510   3.300   2.225   5.085  0.1886  0.2620  0.5669
 8185SOL     OW32511   0.895   1.651   1.582 -0.5490 -0.0329  0.3098
 8185SOL    HW232512   0.920   1.705   1.507  0.4079 -0.6733  0.1500
 8185SOL    HW332513   0.846   1.578   1.544  1.8878 -1.5960 -0.0041
 8185SOL    MW432514   0.892   1.648   1.567 -0.1012 -0.3236  0.2473
 8186SOL     OW32515   3.922   4.990   1.992  0.0129  0.1733  0.1667
 8186SOL    HW232516   4.010   5.007   2.025  0.2959  0.7849 -0.8718
 8186SOL    HW332517   3.930   4.908   1.943  0.1893  0.6104 -0.5558
 8186SOL    MW432518   3.935   4.981   1.990  0.0735  0.3117 -0.0656
 8187SOL     OW32519   3.413   3.363   2.641  0.5481 -0.0018 -0.1004
 8187SOL    HW232520   3.354   3.337   2.711  0.2829  1.6300  0.3218
 8187SOL    HW332521   3.491   3.396   2.687  1.0617 -0.4485 -0.6240
 8187SOL    MW432522   3.416   3.364   2.656  0.5809  0.1546 -0.1138
 8188SOL     OW32523   4.238   4.183   0.772  0.2321  0.3658  0.5028
 8188SOL    HW232524   4.312   4.242   0.783  0.1008  0.5509  0.3960
 8188SOL    HW332525   4.274   4.106   0.728 -0.0145  1.3043 -1.4966
 8188SOL    MW432526   4.252   4.181   0.767  0.1822  0.5140  0.2249
 8189SOL     OW32527   4.209   5.264   1.350 -0.3223 -0.3631  0.2053
 8189SOL    HW232528   4.206   5.283   1.444  2.5411  1.0009  0.1179
 8189SOL    HW332529   4.291   5.218   1.337 -0.9974 -1.1559 -1.5672
 8189SOL    MW432530   4.219   5.261   1.361 -0.0336 -0.2878 -0.0401
 8190SOL     OW32531   3.673   1.365   2.783 -0.1717  0.3346 -0.0059
 8190SOL    HW232532   3.680   1.385   2.690 -1.2096  0.2974 -0.1037
 8190SOL    HW332533   3.763   1.369   2.815  0.0049  2.1528 -0.6308
 8190SOL    MW432534   3.686   1.368   2.775 -0.2853  0.5696 -0.1013
 8191SOL     OW32535   4.605   3.313   1.677  0.6485 -0.0457 -0.2111
 8191SOL    HW232536   4.692   3.284   1.649  0.5433  0.3426 -0.9808
 8191SOL    HW332537   4.562   3.340   1.596 -0.8961 -2.0509 -0.1450
 8191SOL    MW432538   4.611   3.312   1.663  0.4308 -0.2590 -0.3040
 8192SOL     OW32539   2.415   5.714   2.144  0.1484 -0.1861  0.0970
 8192SOL    HW232540   2.474   5.750   2.210  3.1504 -1.0622 -1.8931
 8192SOL    HW332541   2.471   5.697   2.069 -3.4103  3.2815 -3.8506
 8192SOL    MW432542   2.430   5.717   2.143  0.0750  0.1558 -0.6864
 8193SOL     OW32543   3.008   0.553   4.351  0.3105 -0.3553  0.2787
 8193SOL    HW232544   2.998   0.648   4.348  1.4675 -0.2385 -0.1841
 8193SOL    HW332545   3.059   0.537   4.430  2.7183 -0.3081 -1.1664
 8193SOL    MW432546   3.014   0.563   4.361  0.7808 -0.3336  0.0270
 8194SOL     OW32547   2.338   4.428   1.857 -0.1837  1.2634  0.8627
 8194SOL    HW232548   2.247   4.404   1.836 -0.2801  2.3425 -0.0719
 8194SOL    HW332549   2.330   4.501   1.919  0.0813  0.2844  2.0857
 8194SOL    MW432550   2.325   4.435   1.862 -0.1615  1.2766  0.9008
 8195SOL     OW32551   5.688   0.733   2.641 -0.2355  0.0105 -0.5895
 8195SOL    HW232552   5.688   0.771   2.553 -0.2936  0.8146 -0.2507
 8195SOL    HW332553   5.708   0.640   2.627 -2.1587 -0.3027 -1.6284
 8195SOL    MW432554   5.691   0.725   2.628 -0.4969  0.0753 -0.6819
 8196SOL     OW32555   3.408   0.062   4.694 -0.5539 -0.5271  0.6218
 8196SOL    HW232556   3.368   0.031   4.775  1.7098 -2.5677  1.0849
 8196SOL    HW332557   3.481   0.117   4.724 -2.3969  2.5381 -0.1747
 8196SOL    MW432558   3.413   0.065   4.709 -0.4984 -0.3919  0.5778
 8197SOL     OW32559   5.104   1.084   0.878 -0.1747 -0.3753 -0.3243
 8197SOL    HW232560   5.195   1.064   0.857  0.0640  0.1235  0.1890
 8197SOL    HW332561   5.099   1.180   0.876 -1.3152 -0.4239 -2.8522
 8197SOL    MW432562   5.115   1.094   0.875 -0.2937 -0.3159 -0.5901
 8198SOL     OW32563   0.262   0.197   4.576  0.0382  0.1785  0.1436
 8198SOL    HW232564   0.314   0.208   4.496  0.3947 -1.2785  0.1423
 8198SOL    HW332565   0.212   0.278   4.584  0.5466  0.6402 -1.1585
 8198SOL    MW432566   0.262   0.209   4.566  0.1523  0.0472 -0.0284
 8199SOL     OW32567   3.959   0.013   0.902  0.6300 -0.9598 -0.2501
 8199SOL    HW232568   3.889   0.049   0.956 -0.0780 -1.6620 -0.6773
 8199SOL    HW332569   3.935   0.037   0.812  1.8907  0.3671 -0.2759
 8199SOL    MW432570   3.947   0.021   0.897  0.7029 -0.8774 -0.3099
 8200SOL     OW32571   5.935   1.160   3.383  0.0053 -0.2822 -0.1016
 8200SOL    HW232572   5.895   1.243   3.412 -0.6268 -0.5137 -0.3036
 8200SOL    HW332573   5.871   1.093   3.407  1.7238 -1.1088  2.8190
 8200SOL    MW432574   5.921   1.162   3.390  0.1487 -0.4218  0.2571
 8201SOL     OW32575   5.012   4.086   3.783 -0.1556 -0.2579 -0.1993
 8201SOL    HW232576   5.078   4.034   3.737 -0.4853  0.0437 -1.0351
 8201SOL    HW332577   4.957   4.122   3.713 -1.0031 -0.2363  0.4654
 8201SOL    MW432578   5.013   4.084   3.768 -0.3109 -0.2152 -0.2219
 8202SOL     OW32579   4.192   3.722   2.638 -0.0983  0.1070 -0.5727
 8202SOL    HW232580   4.148   3.640   2.661 -3.0263  1.8623  0.5869
 8202SOL    HW332581   4.177   3.779   2.712  1.6016  1.8618 -1.4828
 8202SOL    MW432582   4.184   3.718   2.651 -0.2603  0.5701 -0.5398
 8203SOL     OW32583   0.815   2.733   5.540 -0.3725  0.7567  0.3564
 8203SOL    HW232584   0.753   2.698   5.604  0.7159  0.8558  1.5047
 8203SOL    HW332585   0.845   2.815   5.578 -0.7011  1.5096 -0.9364
 8203SOL    MW432586   0.811   2.739   5.553 -0.2723  0.8691  0.3373
 8204SOL     OW32587   2.172   4.989   1.702 -0.3533 -0.5439 -0.0217
 8204SOL    HW232588   2.085   4.957   1.723 -1.2562  1.1839 -0.9049
 8204SOL    HW332589   2.180   5.072   1.749  1.4342 -1.3592  1.2408
 8204SOL    MW432590   2.162   4.996   1.711 -0.2366 -0.4235  0.0283
 8205SOL     OW32591   4.246   2.645   0.806 -0.4376 -0.9023  0.2821
 8205SOL    HW232592   4.198   2.571   0.844 -3.1735  0.6610  0.1411
 8205SOL    HW332593   4.224   2.719   0.863 -2.1800  0.8666 -2.4359
 8205SOL    MW432594   4.237   2.645   0.819 -1.0285 -0.4627 -0.0951
 8206SOL     OW32595   6.042   6.353   0.410  0.0063 -0.1535  0.2142
 8206SOL    HW232596   6.003   6.303   0.482 -2.3459  1.0811 -0.1100
 8206SOL    HW332597   6.089   6.424   0.453  0.2509 -0.5267  0.5707
 8206SOL    MW432598   6.043   6.356   0.425 -0.2718 -0.0399  0.2185
 8207SOL     OW32599   3.192   0.144   5.594  0.7414 -0.3792  0.0028
 8207SOL    HW232600   3.281   0.136   5.560  0.2891 -0.5287 -1.2252
 8207SOL    HW332601   3.161   0.228   5.559  0.8428  0.3099  1.5261
 8207SOL    MW432602   3.200   0.154   5.585  0.6951 -0.3080  0.0418
 8208SOL     OW32603   3.171   5.015   4.121 -0.4030  0.4158  0.6032
 8208SOL    HW232604   3.130   4.952   4.062 -1.0742  0.6241  0.8276
 8208SOL    HW332605   3.234   4.964   4.172  0.3266  0.2723 -0.4161
 8208SOL    MW432606   3.174   5.000   4.120 -0.3953  0.4243  0.4983
 8209SOL     OW32607   3.116   6.156   1.772  0.4772 -0.0445  0.4094
 8209SOL    HW232608   3.121   6.099   1.849 -2.0327 -1.4740 -0.3706
 8209SOL    HW332609   3.022   6.164   1.754  0.9631  0.6911 -2.1907
 8209SOL    MW432610   3.104   6.150   1.780  0.2102 -0.1361 -0.0366
 8210SOL     OW32611   4.283   2.301   6.069 -0.1741  0.3042 -0.0170
 8210SOL    HW232612   4.255   2.215   6.040  0.4042  0.1560 -0.1628
 8210SOL    HW332613   4.265   2.303   6.163 -1.8260  0.6941 -0.3196
 8210SOL    MW432614   4.277   2.290   6.078 -0.3158  0.3361 -0.0762
 8211SOL     OW32615   3.337   5.050   3.710  0.1336  0.1245  0.3476
 8211SOL    HW232616   3.428   5.062   3.683  0.0790 -1.2481 -0.5385
 8211SOL    HW332617   3.333   5.084   3.799  0.9722  2.2753 -0.3867
 8211SOL    MW432618   3.348   5.056   3.718  0.2370  0.2272  0.1338
 8212SOL     OW32619   5.458   1.168   0.449 -0.1264  0.2201  0.1822
 8212SOL    HW232620   5.475   1.186   0.542  2.3107  1.0711 -0.3527
 8212SOL    HW332621   5.444   1.254   0.410 -2.5600 -0.2182 -0.0811
 8212SOL    MW432622   5.459   1.182   0.456 -0.1259  0.2745  0.0768
 8213SOL     OW32623   0.965   3.838   5.155  0.2678  0.0695 -0.1026
 8213SOL    HW232624   0.986   3.758   5.201 -0.2032  0.0078  0.0137
 8213SOL    HW332625   0.869   3.837   5.148  0.0399  1.6794  1.8717
 8213SOL    MW432626   0.955   3.828   5.160  0.1756  0.2737  0.1732
 8214SOL     OW32627   5.730   4.920   0.844  0.2293  0.6755 -0.0970
 8214SOL    HW232628   5.665   4.906   0.775 -0.4350  1.9188  0.2514
 8214SOL    HW332629   5.682   4.911   0.926  0.7888  0.2755  0.1972
 8214SOL    MW432630   5.715   4.917   0.846  0.2155  0.7868 -0.0122
 8215SOL     OW32631   5.931   3.110   2.803  0.3675  0.2579 -0.1903
 8215SOL    HW232632   5.965   3.030   2.762 -0.1910 -0.1463  0.1263
 8215SOL    HW332633   5.885   3.079   2.881 -0.4316  0.8301 -0.4284
 8215SOL    MW432634   5.930   3.095   2.808  0.1884  0.2801 -0.1800
 8216SOL     OW32635   0.466   1.250   0.303  0.0454 -0.1222  0.3417
 8216SOL    HW232636   0.435   1.224   0.217 -0.7916 -3.2427  1.4291
 8216SOL    HW332637   0.454   1.345   0.306 -1.9796 -0.1959 -2.1491
 8216SOL    MW432638   0.461   1.259   0.292 -0.3322 -0.5437  0.1566
 8217SOL     OW32639   0.565   0.611   1.133 -0.0765  0.7330 -0.0852
 8217SOL    HW232640   0.502   0.558   1.084  2.9174 -1.5736 -1.7577
 8217SOL    HW332641   0.528   0.617   1.221 -1.1759 -3.3360 -0.0722
 8217SOL    MW432642   0.552   0.605   1.138  0.1734 -0.1082 -0.3041
 8218SOL     OW32643   5.976   6.295   1.351  0.1241 -0.3478  0.3670
 8218SOL    HW232644   6.026   6.295   1.269 -1.2283  0.3742 -0.5019
 8218SOL    HW332645   5.998   6.212   1.393  0.4218 -0.9809 -0.9916
 8218SOL    MW432646   5.986   6.284   1.346 -0.0151 -0.3361  0.0731
 8219SOL     OW32647   1.929   5.290   4.173  0.5975 -0.5235  0.1490
 8219SOL    HW232648   1.893   5.294   4.085 -0.9272  0.2904  0.7802
 8219SOL    HW332649   2.023   5.307   4.162 -0.0307  2.8978 -1.0374
 8219SOL    MW432650   1.937   5.293   4.160  0.3134  0.0353  0.0758
 8220SOL     OW32651   2.085   1.165   5.711  0.3990  0.1096  0.4378
 8220SOL    HW232652   2.087   1.137   5.803 -0.7962 -2.9275 -0.3556
 8220SOL    HW332653   2.173   1.146   5.678  0.4063 -0.1437  0.5997
 8220SOL    MW432654   2.097   1.159   5.719  0.2423 -0.3245  0.3545
 8221SOL     OW32655   2.832   1.993   0.293  0.1810 -0.5602  0.0916
 8221SOL    HW232656   2.900   1.998   0.359  0.6386 -0.9142 -0.3445
 8221SOL    HW332657   2.864   1.929   0.229  0.3208  0.6507 -1.1119
 8221SOL    MW432658   2.845   1.985   0.293  0.2598 -0.4471 -0.1248
 8222SOL     OW32659   4.648   2.836   2.357  0.1984  0.1784  0.3442
 8222SOL    HW232660   4.622   2.928   2.365 -0.0729  0.2084 -0.7004
 8222SOL    HW332661   4.682   2.829   2.268  0.5421 -0.6606  0.5340
 8222SOL    MW432662   4.649   2.847   2.346  0.2079  0.0716  0.2314
 8223SOL     OW32663   5.606   2.572   3.682 -0.0113 -0.1092  0.3959
 8223SOL    HW232664   5.637   2.578   3.592  0.2731 -1.4861  0.3866
 8223SOL    HW332665   5.564   2.657   3.698  1.1491  0.6895 -0.5615
 8223SOL    MW432666   5.605   2.584   3.673  0.1793 -0.1855  0.2684
 8224SOL     OW32667   4.690   5.650   4.713 -0.0052 -0.0035  0.0320
 8224SOL    HW232668   4.599   5.680   4.712 -0.1561 -0.4182 -1.3100
 8224SOL    HW332669   4.725   5.679   4.629  1.3127  0.7081  0.7868
 8224SOL    MW432670   4.682   5.658   4.702  0.1488  0.0357 -0.0455
 8225SOL     OW32671   5.152   5.774   0.008  0.0538  0.3118  0.4060
 8225SOL    HW232672   5.181   5.839  -0.056 -0.4819  1.5308  1.3599
 8225SOL    HW332673   5.065   5.747  -0.021 -0.4917  1.3930  0.9683
 8225SOL    MW432674   5.144   5.779  -0.004 -0.0888  0.6153  0.6060
 8226SOL     OW32675   3.901   4.397   3.773  0.1234  0.0012 -0.5671
 8226SOL    HW232676   3.964   4.420   3.841 -2.1899  1.4820  1.2189
 8226SOL    HW332677   3.868   4.481   3.741 -1.7164 -0.6991 -0.6354
 8226SOL    MW432678   3.905   4.411   3.778 -0.4245  0.1042 -0.3405
 8227SOL     OW32679   4.104   0.191   2.117 -0.0759 -0.2466 -0.0142
 8227SOL    HW232680   4.069   0.177   2.205  0.1774 -1.1058 -0.0366
 8227SOL    HW332681   4.113   0.102   2.081  1.9998 -0.0649 -0.0584
 8227SOL    MW432682   4.101   0.177   2.124  0.2314 -0.3360 -0.0230
 8228SOL     OW32683   1.942   2.538   1.654 -0.0428 -0.0090 -0.1589
 8228SOL    HW232684   1.897   2.455   1.670  0.4296  0.0656  1.7478
 8228SOL    HW332685   1.875   2.596   1.619 -0.5406 -0.9738 -0.8327
 8228SOL    MW432686   1.927   2.535   1.651 -0.0461 -0.1264  0.0038
 8229SOL     OW32687   0.152   3.225   3.575  0.0015 -0.4176  0.2714
 8229SOL    HW232688   0.083   3.157   3.572  1.6623 -2.1613 -1.6443
 8229SOL    HW332689   0.233   3.176   3.589  1.1989  1.2502 -0.5122
 8229SOL    MW432690   0.153   3.209   3.576  0.3786 -0.4276 -0.0848
 8230SOL     OW32691   5.195   5.765   2.093  0.6130 -0.5417  0.3976
 8230SOL    HW232692   5.115   5.721   2.063  1.2023 -1.8128  0.6071
 8230SOL    HW332693   5.262   5.737   2.030  0.9215  0.4117  0.2992
 8230SOL    MW432694   5.194   5.755   2.081  0.7315 -0.5836  0.4122
 8231SOL     OW32695   6.346   5.448   4.299 -0.5853 -0.0472  0.4795
 8231SOL    HW232696   6.395   5.366   4.301  1.0619  0.8667 -0.2691
 8231SOL    HW332697   6.314   5.455   4.209  0.4737  0.7571  0.1394
 8231SOL    MW432698   6.348   5.438   4.287 -0.2283  0.1795  0.3358
 8232SOL     OW32699   1.233   4.789   4.132  0.3893 -0.4662 -0.4745
 8232SOL    HW232700   1.214   4.865   4.078 -3.3660 -0.3620  0.7005
 8232SOL    HW332701   1.184   4.717   4.090  0.0192 -1.0988  0.9768
 8232SOL    MW432702   1.224   4.789   4.119 -0.1550 -0.5359 -0.1280
 8233SOL     OW32703   1.905   2.539   3.085 -0.0104 -0.1570 -0.2202
 8233SOL    HW232704   1.849   2.474   3.042  0.5217 -0.6755 -0.1365
 8233SOL    HW332705   1.933   2.496   3.166 -0.8864  0.7554  0.5893
 8233SOL    MW432706   1.901   2.524   3.090 -0.0557 -0.1050 -0.1023
 8234SOL     OW32707   4.945   4.534   3.470  0.7684  0.0718 -0.2675
 8234SOL    HW232708   5.007   4.606   3.454  0.5500  1.3086  3.3829
 8234SOL    HW332709   5.000   4.459   3.493  0.9808  0.2248 -0.2753
 8234SOL    MW432710   4.961   4.534   3.471  0.7676  0.2551  0.2131
 8235SOL     OW32711   1.062   1.280   4.895  0.0880  0.2763 -0.2892
 8235SOL    HW232712   1.132   1.242   4.841 -0.0650 -2.6655  1.3419
 8235SOL    HW332713   1.107   1.341   4.953  1.1350 -0.6232 -0.1140
 8235SOL    MW432714   1.077   1.283   4.896  0.2060 -0.2305 -0.0509
 8236SOL     OW32715   1.929   4.707   3.490  0.0233 -0.1582  0.2959
 8236SOL    HW232716   1.920   4.749   3.405  1.1231  1.0690  0.7392
 8236SOL    HW332717   1.977   4.626   3.472  0.0534 -0.0167 -0.2780
 8236SOL    MW432718   1.934   4.702   3.477  0.1724  0.0224  0.2787
 8237SOL     OW32719   0.395   2.059   3.190  0.6711  0.4713  1.3714
 8237SOL    HW232720   0.322   2.085   3.133  1.7771  0.6506 -0.0284
 8237SOL    HW332721   0.371   1.972   3.221  0.6594 -0.2761 -0.5846
 8237SOL    MW432722   0.382   2.051   3.186  0.8155  0.3963  0.9286
 8238SOL     OW32723   1.402   5.786   2.916  0.0825 -0.1149 -0.2557
 8238SOL    HW232724   1.392   5.879   2.934 -0.0045 -0.6790  3.2968
 8238SOL    HW332725   1.318   5.758   2.881  0.0213  1.0502 -1.0719
 8238SOL    MW432726   1.390   5.794   2.913  0.0629 -0.0356  0.1054
 8239SOL     OW32727   1.184   2.957   0.652  0.2827  0.0236 -0.3653
 8239SOL    HW232728   1.188   3.051   0.671 -1.4635 -0.0530  0.5103
 8239SOL    HW332729   1.148   2.953   0.563  2.2218  0.1877 -1.2195
 8239SOL    MW432730   1.180   2.969   0.643  0.3081  0.0351 -0.3624
 8240SOL     OW32731   4.798   0.815   0.031 -0.4445  0.3216  0.3053
 8240SOL    HW232732   4.862   0.776   0.091 -1.4298 -0.3960  0.9211
 8240SOL    HW332733   4.759   0.739  -0.013 -3.0480  0.4468  2.1708
 8240SOL    MW432734   4.801   0.800   0.033 -0.9180  0.2435  0.6326
 8241SOL     OW32735   3.402   3.829   0.692 -0.0382 -0.2727  0.0304
 8241SOL    HW232736   3.379   3.860   0.780 -1.3667  0.9359 -0.6987
 8241SOL    HW332737   3.484   3.873   0.671 -1.0788  1.5785 -0.3503
 8241SOL    MW432738   3.410   3.839   0.701 -0.3508  0.1310 -0.1160
 8242SOL     OW32739   5.793   5.801   1.257  0.5135  0.6000  0.0064
 8242SOL    HW232740   5.802   5.865   1.327 -0.9309 -0.6252  1.3891
 8242SOL    HW332741   5.699   5.797   1.240  0.7302 -0.0185 -1.1448
 8242SOL    MW432742   5.781   5.809   1.264  0.3515  0.3568  0.0370
 8243SOL     OW32743   6.034   3.094   4.892 -0.0327 -0.1341 -0.0715
 8243SOL    HW232744   6.066   3.010   4.859  0.2418 -0.5535  1.2088
 8243SOL    HW332745   6.113   3.140   4.920 -0.3847 -0.8557  2.3823
 8243SOL    MW432746   6.049   3.089   4.892 -0.0429 -0.2846  0.4212
 8244SOL     OW32747   2.029   5.190   1.507  0.1278 -0.8451  0.1653
 8244SOL    HW232748   1.936   5.204   1.524 -0.2484 -0.8684 -1.6728
 8244SOL    HW332749   2.060   5.139   1.582 -0.9880  0.3922  1.5128
 8244SOL    MW432750   2.021   5.185   1.519 -0.0690 -0.6849  0.1005
 8245SOL     OW32751   3.398   5.221   5.138 -0.1514  1.4591 -0.0042
 8245SOL    HW232752   3.361   5.309   5.144 -0.1473  1.4295  0.4776
 8245SOL    HW332753   3.443   5.219   5.054 -2.8886  0.8802 -1.5630
 8245SOL    MW432754   3.399   5.232   5.128 -0.5120  1.3788 -0.1463
 8246SOL     OW32755   5.112   0.696   0.958 -0.1813  0.2241 -0.1458
 8246SOL    HW232756   5.180   0.675   0.894 -0.1336  1.9720 -0.7180
 8246SOL    HW332757   5.054   0.620   0.958  1.3677 -1.0032 -0.1654
 8246SOL    MW432758   5.113   0.684   0.950  0.0294  0.2928 -0.2239
 8247SOL     OW32759   0.940   1.152   3.728  0.6209 -0.3781  0.0516
 8247SOL    HW232760   0.992   1.094   3.673  0.6146  0.5178 -0.9118
 8247SOL    HW332761   0.970   1.240   3.706  0.1880  0.0311  1.0381
 8247SOL    MW432762   0.951   1.156   3.718  0.5630 -0.2059  0.0546
 8248SOL     OW32763   1.080   0.825   1.103  0.3413 -0.6041 -0.1249
 8248SOL    HW232764   1.024   0.896   1.135  1.1239 -0.5427  1.1524
 8248SOL    HW332765   1.082   0.837   1.008 -1.5689 -0.4413 -0.1858
 8248SOL    MW432766   1.073   0.836   1.094  0.1925 -0.5745  0.0356
 8249SOL     OW32767   6.150   2.447   5.904 -0.2796  0.2940 -0.6655
 8249SOL    HW232768   6.128   2.450   5.997  1.6317  0.7530 -0.1812
 8249SOL    HW332769   6.085   2.387   5.865 -2.3960  1.6812  0.5441
 8249SOL    MW432770   6.138   2.439   5.911 -0.3067  0.5376 -0.4420
 8250SOL     OW32771   1.595   0.543   4.926  0.6235  0.1997  0.2204
 8250SOL    HW232772   1.544   0.624   4.917  0.0416 -0.2685 -1.0236
 8250SOL    HW332773   1.674   0.569   4.972  0.5278  1.5215 -0.3107
 8250SOL    MW432774   1.599   0.557   4.931  0.5341  0.3123 -0.0138
 8251SOL     OW32775   1.629   2.680   3.791  0.1220  0.5257  0.0098
 8251SOL    HW232776   1.655   2.702   3.881  0.5916 -1.5598  0.4304
 8251SOL    HW332777   1.694   2.724   3.736  0.4169  1.0162  0.7345
 8251SOL    MW432778   1.641   2.689   3.796  0.2229  0.3153  0.1609
 8252SOL     OW32779   3.374   4.452   6.261 -0.5840 -0.8002  0.9155
 8252SOL    HW232780   3.445   4.513   6.245 -2.2069  1.1152  0.6760
 8252SOL    HW332781   3.383   4.385   6.192  1.4729 -1.1301  1.4551
 8252SOL    MW432782   3.384   4.451   6.250 -0.5268 -0.5910  0.9551
 8253SOL     OW32783   0.554   0.767   5.060 -0.2148  0.3850 -0.3897
 8253SOL    HW232784   0.567   0.767   4.965  0.0745  0.2699 -0.3527
 8253SOL    HW332785   0.628   0.716   5.094 -2.2329 -2.8110 -0.3654
 8253SOL    MW432786   0.566   0.760   5.052 -0.4429 -0.0518 -0.3816
 8254SOL     OW32787   6.384   0.878   4.674  0.1276 -0.1181  0.1561
 8254SOL    HW232788   6.408   0.955   4.622 -0.7987 -0.1960 -0.4178
 8254SOL    HW332789   6.336   0.914   4.749  1.2948 -0.0196  0.8758
 8254SOL    MW432790   6.381   0.893   4.677  0.1594 -0.1154  0.1753
 8255SOL     OW32791   0.587   0.320   5.500 -0.4849  0.4340  0.0982
 8255SOL    HW232792   0.613   0.286   5.586  0.8562  0.8079 -0.1442
 8255SOL    HW332793   0.566   0.412   5.516  0.2299  0.6269 -0.0547
 8255SOL    MW432794   0.588   0.327   5.514 -0.2137  0.5088  0.0461
 8256SOL     OW32795   0.408   1.624   4.882 -0.4309 -0.3716  0.1695
 8256SOL    HW232796   0.351   1.644   4.807  0.4423 -0.6459 -0.5881
 8256SOL    HW332797   0.432   1.709   4.917 -0.8772 -0.2410  0.1620
 8256SOL    MW432798   0.403   1.638   4.876 -0.3746 -0.3906  0.0685
 8257SOL     OW32799   0.793   6.155   4.355  0.1030 -0.5495 -0.3637
 8257SOL    HW232800   0.787   6.182   4.447 -1.5394  2.4878 -1.2213
 8257SOL    HW332801   0.746   6.072   4.352 -0.7423 -0.1876  1.3704
 8257SOL    MW432802   0.786   6.148   4.367 -0.2252 -0.1010 -0.2480
 8258SOL     OW32803   0.542   6.278   4.954 -0.0253 -0.0849  0.4591
 8258SOL    HW232804   0.467   6.233   4.994  0.0158 -0.3247  0.2652
 8258SOL    HW332805   0.503   6.341   4.893 -0.0577 -0.6118 -0.0716
 8258SOL    MW432806   0.527   6.281   4.951 -0.0241 -0.1861  0.3635
 8259SOL     OW32807   2.195   4.379   3.995  0.2133 -0.1162  0.5458
 8259SOL    HW232808   2.103   4.368   3.973  0.3444 -0.4609  0.1707
 8259SOL    HW332809   2.197   4.457   4.050 -0.3430 -0.2971  0.8265
 8259SOL    MW432810   2.183   4.388   3.999  0.1572 -0.1855  0.5334
 8260SOL     OW32811   5.213   4.140   0.761  0.3411 -0.3354 -0.0559
 8260SOL    HW232812   5.141   4.143   0.823  1.4694 -1.7793  1.4058
 8260SOL    HW332813   5.184   4.081   0.692  0.0148 -0.6558  0.3543
 8260SOL    MW432814   5.200   4.133   0.760  0.4469 -0.5682  0.1911
 8261SOL     OW32815   1.519   3.520   5.868  0.3513  0.7116  0.1696
 8261SOL    HW232816   1.557   3.564   5.792  0.7976  0.3181  0.1630
 8261SOL    HW332817   1.539   3.578   5.941  2.5155 -0.2940  0.4478
 8261SOL    MW432818   1.526   3.534   5.868  0.6957  0.5270  0.2055
 8262SOL     OW32819   5.447   1.754   6.043  0.0158  0.5800 -0.4984
 8262SOL    HW232820   5.473   1.720   6.128 -3.6023  2.3315  1.5795
 8262SOL    HW332821   5.515   1.816   6.020  2.6003 -2.0350 -0.4977
 8262SOL    MW432822   5.459   1.758   6.051 -0.1206  0.4661 -0.2242
 8263SOL     OW32823   4.355   1.805   3.899  0.2439  0.2897 -0.1332
 8263SOL    HW232824   4.419   1.734   3.911  0.1694  0.4170  1.1417
 8263SOL    HW332825   4.409   1.882   3.880  0.4715  0.3097  0.5374
 8263SOL    MW432826   4.371   1.806   3.898  0.2641  0.3092  0.1235
 8264SOL     OW32827   3.403   5.802   2.007  0.8722 -0.2952  0.3314
 8264SOL    HW232828   3.458   5.737   1.963  1.6318  1.1391 -0.9319
 8264SOL    HW332829   3.464   5.850   2.064  0.3682 -0.5221  1.0717
 8264SOL    MW432830   3.418   5.800   2.008  0.9059 -0.1359  0.2624
 8265SOL     OW32831   0.222   2.856   1.168 -0.5713 -0.3566  0.0376
 8265SOL    HW232832   0.261   2.850   1.081  0.7720 -2.0888  0.7108
 8265SOL    HW332833   0.294   2.881   1.226 -1.1312 -0.5886  0.8575
 8265SOL    MW432834   0.236   2.859   1.164 -0.4680 -0.6157  0.2346
 8266SOL     OW32835   3.484   0.481   3.852  0.0504  0.5091 -0.7829
 8266SOL    HW232836   3.402   0.496   3.899  0.0298 -0.3406 -0.5362
 8266SOL    HW332837   3.549   0.533   3.899  0.0826 -0.5170  0.3590
 8266SOL    MW432838   3.481   0.490   3.864  0.0519  0.2616 -0.5997
 8267SOL     OW32839   0.892   3.350   3.825 -0.2949 -0.8298 -0.1208
 8267SOL    HW232840   0.818   3.332   3.768  0.4957  0.2761 -1.5593
 8267SOL    HW332841   0.953   3.278   3.809 -0.1407 -0.6024 -0.5758
 8267SOL    MW432842   0.890   3.338   3.816 -0.1702 -0.6539 -0.3706
 8268SOL     OW32843   1.062   1.908   6.370  0.0834 -0.1188  0.4185
 8268SOL    HW232844   1.061   1.839   6.437  0.0620  1.8650  2.5903
 8268SOL    HW332845   0.981   1.896   6.321 -0.6052 -0.7730  1.6856
 8268SOL    MW432846   1.051   1.897   6.372 -0.0103  0.0566  0.8722
 8269SOL     OW32847   4.585   2.260   0.038 -0.4698  0.3142  0.0807
 8269SOL    HW232848   4.628   2.312  -0.030 -0.6689  1.5412  0.8557
 8269SOL    HW332849   4.590   2.170   0.006 -1.5949  0.9575 -2.1428
 8269SOL    MW432850   4.591   2.255   0.025 -0.6445  0.5610 -0.1104
 8270SOL     OW32851   3.423   4.920   0.641 -0.0073  0.3419 -0.4544
 8270SOL    HW232852   3.362   4.852   0.669 -0.1412  0.8389  0.5166
 8270SOL    HW332853   3.508   4.893   0.677  0.1195  0.2435 -0.8202
 8270SOL    MW432854   3.426   4.908   0.650 -0.0082  0.3945 -0.3746
 8271SOL     OW32855   1.854   2.858   0.365 -0.4541 -0.2360 -0.3300
 8271SOL    HW232856   1.835   2.908   0.285  1.6758  1.4897  0.1673
 8271SOL    HW332857   1.902   2.781   0.335 -1.1485 -0.4879 -0.8294
 8271SOL    MW432858   1.858   2.855   0.351 -0.2647 -0.0415 -0.3303
 8272SOL     OW32859   2.136   1.290   3.258 -0.0483 -0.1579  0.2655
 8272SOL    HW232860   2.163   1.213   3.308 -0.0087 -1.1671 -1.2465
 8272SOL    HW332861   2.049   1.267   3.225 -1.2491  1.5542  1.9971
 8272SOL    MW432862   2.128   1.276   3.260 -0.2015 -0.0652  0.2945
 8273SOL     OW32863   6.289   4.908   1.386  0.3203  0.0977 -0.4204
 8273SOL    HW232864   6.201   4.879   1.362  1.0128 -3.1815  0.4537
 8273SOL    HW332865   6.312   4.853   1.460  3.1752  0.7604 -0.7150
 8273SOL    MW432866   6.280   4.897   1.392  0.7883 -0.2475 -0.3439
 8274SOL     OW32867   0.143   1.814   1.775  0.0264  0.0487  0.2470
 8274SOL    HW232868   0.191   1.734   1.798 -0.5058  0.2080  2.0718
 8274SOL    HW332869   0.187   1.883   1.825 -2.8110 -0.0003  3.0884
 8274SOL    MW432870   0.155   1.813   1.784 -0.4182  0.0632  0.8627
 8275SOL     OW32871   0.388   2.644   2.450  0.1150 -0.7056 -0.1036
 8275SOL    HW232872   0.430   2.560   2.467  2.1674  0.4379  0.8846
 8275SOL    HW332873   0.448   2.689   2.390 -0.5614  0.3217 -0.0378
 8275SOL    MW432874   0.402   2.639   2.445  0.2966 -0.4192  0.0355
 8276SOL     OW32875   2.072   1.081   5.971  0.3323  0.1189 -0.0391
 8276SOL    HW232876   2.133   1.128   6.028  0.5690 -1.3436  0.9754
 8276SOL    HW332877   2.045   1.005   6.022 -0.0626 -0.8361 -1.5904
 8276SOL    MW432878   2.077   1.077   5.985  0.3114 -0.2001 -0.1099
 8277SOL     OW32879   4.069   3.104   5.871 -0.1584 -0.5268  0.3630
 8277SOL    HW232880   4.011   3.085   5.797 -0.5949 -0.7824  0.7706
 8277SOL    HW332881   4.136   3.036   5.867  0.0865 -0.2692 -0.0700
 8277SOL    MW432882   4.071   3.093   5.860 -0.1837 -0.5265  0.3597
 8278SOL     OW32883   0.772   0.797   1.469 -0.5768 -0.1069 -0.2791
 8278SOL    HW232884   0.773   0.709   1.431 -0.3283 -0.0178 -0.4770
 8278SOL    HW332885   0.747   0.783   1.560  0.4021 -0.4824 -0.0533
 8278SOL    MW432886   0.769   0.783   1.476 -0.4149 -0.1447 -0.2754
 8279SOL     OW32887   5.169   5.366   1.006 -0.4879  0.2720  0.3942
 8279SOL    HW232888   5.075   5.379   0.991 -0.9066 -0.5734  1.9889
 8279SOL    HW332889   5.176   5.357   1.101  1.0378 -0.9558  0.2003
 8279SOL    MW432890   5.157   5.366   1.017 -0.3419 -0.0016  0.5790
 8280SOL     OW32891   1.057   1.204   0.963 -0.1016 -0.2657 -0.1656
 8280SOL    HW232892   0.995   1.162   1.022 -0.6955  0.7197 -0.0529
 8280SOL    HW332893   1.008   1.278   0.926  0.8492  0.2360 -0.4596
 8280SOL    MW432894   1.042   1.208   0.966 -0.0545 -0.0695 -0.1895
 8281SOL     OW32895   2.908   1.207   0.540  0.3402  1.2270 -0.0858
 8281SOL    HW232896   2.904   1.224   0.634  1.6822 -0.1676  0.2869
 8281SOL    HW332897   2.934   1.115   0.534 -1.3580  0.7888 -1.8495
 8281SOL    MW432898   2.911   1.197   0.551  0.2932  0.9852 -0.2693
 8282SOL     OW32899   2.569   2.380   4.968 -0.4422 -0.0543 -0.2258
 8282SOL    HW232900   2.530   2.300   5.004 -0.6616  0.7929  1.5266
 8282SOL    HW332901   2.531   2.388   4.880 -1.4522 -1.1524  0.0868
 8282SOL    MW432902   2.559   2.370   4.961 -0.6044 -0.0874  0.0467
 8283SOL     OW32903   2.120   2.757   1.727  0.4977  0.3558 -1.0325
 8283SOL    HW232904   2.037   2.713   1.745 -0.5377  2.7594  0.6137
 8283SOL    HW332905   2.125   2.761   1.632 -0.5871 -0.9994 -1.1788
 8283SOL    MW432906   2.110   2.752   1.717  0.2180  0.4941 -0.8346
 8284SOL     OW32907   5.256   4.147   0.140 -0.4286  0.3382  0.3536
 8284SOL    HW232908   5.199   4.073   0.162  0.7346 -0.9755 -0.8332
 8284SOL    HW332909   5.302   4.167   0.221  0.5514 -1.4687  0.2873
 8284SOL    MW432910   5.254   4.140   0.153 -0.1458 -0.0735  0.1883
 8285SOL     OW32911   2.661   3.760   0.440  0.1035  0.0022 -0.4126
 8285SOL    HW232912   2.713   3.834   0.471 -0.4925  0.2275  0.0700
 8285SOL    HW332913   2.725   3.689   0.429  0.4752  0.1692  0.5071
 8285SOL    MW432914   2.677   3.760   0.443  0.0739  0.0539 -0.2276
 8286SOL     OW32915   2.904   2.520   3.666  0.0163  0.0471  0.6320
 8286SOL    HW232916   2.939   2.445   3.617 -0.4152 -1.8253  3.0018
 8286SOL    HW332917   2.892   2.588   3.600  0.4619 -1.9488 -1.6485
 8286SOL    MW432918   2.907   2.519   3.651  0.0181 -0.4632  0.6438
 8287SOL     OW32919   5.992   3.710   1.254 -0.4838  0.3148 -0.2353
 8287SOL    HW232920   5.897   3.709   1.239 -0.4275 -1.5346 -0.8275
 8287SOL    HW332921   6.006   3.639   1.317  0.3451  1.8017  1.3442
 8287SOL    MW432922   5.981   3.700   1.261 -0.3670  0.2670 -0.1050
 8288SOL     OW32923   2.140   1.591   1.233  0.0569 -0.5862  0.6421
 8288SOL    HW232924   2.060   1.538   1.240 -0.9094  0.7995  0.3926
 8288SOL    HW332925   2.116   1.663   1.174  1.3916  0.0484  0.8402
 8288SOL    MW432926   2.126   1.593   1.226  0.1055 -0.3197  0.6353
 8289SOL     OW32927   1.453   5.082   1.312 -0.5526 -0.4719  0.5845
 8289SOL    HW232928   1.423   4.992   1.297 -1.1276  0.0146 -1.6154
 8289SOL    HW332929   1.384   5.137   1.274  0.6524  0.8448  0.2068
 8289SOL    MW432930   1.440   5.077   1.305 -0.4695 -0.2340  0.2444
 8290SOL     OW32931   6.189   4.877   5.654 -0.6505  0.1249 -0.2524
 8290SOL    HW232932   6.242   4.812   5.608 -2.2513 -0.4418 -1.4062
 8290SOL    HW332933   6.252   4.934   5.697  0.8400 -2.4391  1.1857
 8290SOL    MW432934   6.204   4.876   5.653 -0.6651 -0.2882 -0.2149
 8291SOL     OW32935   1.275   6.096   3.801  0.1822  0.4448  0.4992
 8291SOL    HW232936   1.340   6.025   3.804 -2.5235 -2.2489  0.2055
 8291SOL    HW332937   1.291   6.140   3.718  1.1547 -0.6499  0.0877
 8291SOL    MW432938   1.286   6.092   3.791 -0.0465 -0.0550  0.4062
 8292SOL     OW32939   5.135   3.693   5.929  0.4825  0.1960 -0.4165
 8292SOL    HW232940   5.086   3.691   5.846  0.1403 -0.0414 -0.2105
 8292SOL    HW332941   5.171   3.604   5.937 -0.7118 -0.2207  0.4198
 8292SOL    MW432942   5.134   3.681   5.919  0.2797  0.1097 -0.2790
 8293SOL     OW32943   2.658   3.105   3.252 -0.4085 -0.5101  0.0806
 8293SOL    HW232944   2.717   3.033   3.275 -0.4338 -0.5267  0.0940
 8293SOL    HW332945   2.571   3.065   3.253 -0.5156 -0.2567  1.0067
 8293SOL    MW432946   2.654   3.090   3.255 -0.4260 -0.4789  0.2045
 8294SOL     OW32947   4.408   4.139   3.358 -0.2493 -0.0285  0.2438
 8294SOL    HW232948   4.322   4.140   3.316  0.0832 -0.0649 -0.4591
 8294SOL    HW332949   4.397   4.083   3.436 -1.0176  0.4982  0.5167
 8294SOL    MW432950   4.395   4.131   3.363 -0.3068  0.0362  0.1871
 8295SOL     OW32951   1.211   6.094   5.340  0.3821  0.3236  0.1087
 8295SOL    HW232952   1.122   6.061   5.353  0.5797 -0.9188 -1.4040
 8295SOL    HW332953   1.229   6.078   5.248  1.8920  1.3178  0.2013
 8295SOL    MW432954   1.201   6.087   5.330  0.6074  0.2908 -0.0787
 8296SOL     OW32955   5.735   4.803   2.282 -0.0260 -0.4721  0.2661
 8296SOL    HW232956   5.718   4.719   2.326 -0.5863 -0.5619 -0.1119
 8296SOL    HW332957   5.677   4.865   2.327 -0.6507 -0.5779 -0.3878
 8296SOL    MW432958   5.725   4.800   2.294 -0.1823 -0.4979  0.1299
 8297SOL     OW32959   6.295   1.748   6.037 -0.4902 -0.2819 -0.0625
 8297SOL    HW232960   6.301   1.788   5.950  2.0140 -2.5265 -1.0709
 8297SOL    HW332961   6.278   1.655   6.020  1.2734 -1.0191  1.7371
 8297SOL    MW432962   6.294   1.741   6.023  0.0729 -0.6753  0.0419
 8298SOL     OW32963   3.222   2.923   3.153 -0.0057 -0.1304 -0.2971
 8298SOL    HW232964   3.152   2.986   3.141 -1.6469 -1.5490  1.3266
 8298SOL    HW332965   3.276   2.959   3.223  1.0060  0.9934 -1.5944
 8298SOL    MW432966   3.220   2.936   3.160 -0.0888 -0.1693 -0.2540
 8299SOL     OW32967   1.562   0.465   2.887 -0.6506  0.4217 -0.4498
 8299SOL    HW232968   1.510   0.447   2.965 -1.8541  0.8369 -1.1227
 8299SOL    HW332969   1.626   0.531   2.915  1.3003 -1.9640  1.0583
 8299SOL    MW432970   1.564   0.471   2.901 -0.5520  0.1617 -0.3396
 8300SOL     OW32971   5.919   5.706   0.660  0.2481  0.4151  0.0669
 8300SOL    HW232972   5.828   5.713   0.632  0.6080  0.2321 -1.2290
 8300SOL    HW332973   5.921   5.629   0.716  0.0994 -1.3304 -2.1834
 8300SOL    MW432974   5.907   5.697   0.664  0.2759  0.1607 -0.4010
 8301SOL     OW32975   2.373   2.535   0.220  0.4459  0.0586 -0.2708
 8301SOL    HW232976   2.301   2.567   0.166  0.1031  0.1766  0.2454
 8301SOL    HW332977   2.392   2.448   0.185  0.4352  0.2564 -0.7762
 8301SOL    MW432978   2.366   2.528   0.209  0.3993  0.1003 -0.2693
 8302SOL     OW32979   0.457   2.140   1.016 -0.0172  0.1713  0.3237
 8302SOL    HW232980   0.425   2.121   1.104  0.3750 -0.2163  0.3834
 8302SOL    HW332981   0.527   2.076   1.001  0.8505  1.0997  0.2655
 8302SOL    MW432982   0.462   2.129   1.026  0.1490  0.2426  0.3239
 8303SOL     OW32983   0.827   5.688   4.719 -0.5444  0.3616  0.1795
 8303SOL    HW232984   0.839   5.635   4.798  3.2925  0.5274 -0.0780
 8303SOL    HW332985   0.863   5.773   4.742  0.2425  0.5484 -1.5618
 8303SOL    MW432986   0.834   5.692   4.732  0.0657  0.4081 -0.0842
 8304SOL     OW32987   2.444   3.084   0.165 -0.3549  0.1339 -0.0719
 8304SOL    HW232988   2.435   3.147   0.093 -1.8624 -0.4344 -0.4331
 8304SOL    HW332989   2.522   3.033   0.143  1.1674  2.1054  0.4494
 8304SOL    MW432990   2.453   3.086   0.152 -0.3529  0.3190 -0.0508
 8305SOL     OW32991   3.361   5.914   2.425 -0.3586 -0.1171 -0.3814
 8305SOL    HW232992   3.363   5.893   2.518 -1.5823  0.4523 -0.2055
 8305SOL    HW332993   3.292   5.859   2.389  0.6545 -0.9491 -1.1428
 8305SOL    MW432994   3.352   5.904   2.432 -0.3864 -0.1517 -0.4586
 8306SOL     OW32995   5.892   2.025   3.403  0.0953 -0.4954 -0.0981
 8306SOL    HW232996   5.866   1.985   3.486 -0.5691 -0.4497 -0.2795
 8306SOL    HW332997   5.859   1.965   3.336 -0.7373  0.2367 -0.3662
 8306SOL    MW432998   5.884   2.012   3.405 -0.1022 -0.3928 -0.1574
 8307SOL     OW32999   3.559   2.344   4.224 -0.2130  0.0712 -0.1388
 8307SOL    HW233000   3.630   2.306   4.173 -0.2635  0.0513 -0.1937
 8307SOL    HW333001   3.549   2.285   4.299 -1.1073 -0.6984 -0.8498
 8307SOL    MW433002   3.567   2.332   4.227 -0.3376 -0.0330 -0.2399
 8308SOL     OW33003   1.624   4.054   4.588 -0.8504 -0.0504  0.1220
 8308SOL    HW233004   1.551   4.014   4.541  0.0415  0.8502 -2.1445
 8308SOL    HW333005   1.602   4.147   4.590  0.6278  0.3781 -1.4530
 8308SOL    MW433006   1.611   4.061   4.582 -0.5377  0.1250 -0.3848
 8309SOL     OW33007   1.199   1.015   5.856 -0.6860  0.1062 -0.2210
 8309SOL    HW233008   1.115   1.059   5.872  0.3370  1.7459  0.9986
 8309SOL    HW333009   1.199   0.942   5.917 -0.4634  1.2444  1.2018
 8309SOL    MW433010   1.188   1.011   5.866 -0.5216  0.4727  0.1276
 8310SOL     OW33011   3.057   2.796   3.452  0.4082  0.5128  0.0214
 8310SOL    HW233012   3.132   2.740   3.473  0.2903  0.3650  0.0533
 8310SOL    HW333013   3.061   2.866   3.516 -0.8503 -0.7604  1.5899
 8310SOL    MW433014   3.067   2.798   3.463  0.2266  0.3253  0.2326
 8311SOL     OW33015   3.752   5.950   5.792 -0.2070 -0.2514 -0.9085
 8311SOL    HW233016   3.798   6.018   5.840 -1.5726  0.5193 -0.6466
 8311SOL    HW333017   3.685   5.997   5.742  0.4376 -1.1428 -2.7263
 8311SOL    MW433018   3.749   5.965   5.792 -0.3021 -0.2673 -1.1138
 8312SOL     OW33019   0.724   2.077   4.207  0.2811  0.0808  0.2298
 8312SOL    HW233020   0.629   2.067   4.194  0.2524  0.3065  0.2734
 8312SOL    HW333021   0.748   2.002   4.261 -0.1377  0.8751  1.5545
 8312SOL    MW433022   0.714   2.066   4.212  0.2221  0.2154  0.4104
 8313SOL     OW33023   0.698   4.914   2.627  0.6328  0.2530  0.4932
 8313SOL    HW233024   0.728   4.967   2.553 -0.6278 -0.5394 -0.6510
 8313SOL    HW333025   0.687   4.977   2.699 -0.6879  1.5614 -0.7738
 8313SOL    MW433026   0.700   4.929   2.627  0.2922  0.3211  0.1750
 8314SOL     OW33027   3.742   0.727   1.997  0.3825  0.0870 -0.1109
 8314SOL    HW233028   3.736   0.815   2.032  0.7369  0.0464  0.0536
 8314SOL    HW333029   3.791   0.678   2.064 -1.6316 -0.7639  0.8307
 8314SOL    MW433030   3.748   0.732   2.011  0.1635 -0.0306  0.0351
 8315SOL     OW33031   3.312   1.339   3.195  0.2236  0.3756  0.0440
 8315SOL    HW233032   3.319   1.427   3.232 -0.3669  1.3306 -1.9674
 8315SOL    HW333033   3.241   1.298   3.244 -0.5193  1.5918  0.0469
 8315SOL    MW433034   3.304   1.345   3.206  0.0477  0.6620 -0.2210
 8316SOL     OW33035   2.963   0.503   1.156  0.5534 -0.5339 -0.3805
 8316SOL    HW233036   3.053   0.476   1.139 -0.1272 -1.9546 -2.0554
 8316SOL    HW333037   2.928   0.433   1.213  0.4041 -0.1579 -0.0044
 8316SOL    MW433038   2.970   0.490   1.161  0.4439 -0.6717 -0.5519
 8317SOL     OW33039   5.344   2.036   3.382 -0.2879  0.8113  0.1122
 8317SOL    HW233040   5.312   1.946   3.388  0.6814  0.4194 -0.4072
 8317SOL    HW333041   5.399   2.047   3.460 -1.0154  1.2200  0.5815
 8317SOL    MW433042   5.347   2.025   3.393 -0.2560  0.8135  0.1056
 8318SOL     OW33043   4.765   1.012   3.757  0.1788  0.0647 -0.1934
 8318SOL    HW233044   4.740   0.996   3.848  1.9910  0.2681  0.3806
 8318SOL    HW333045   4.715   0.948   3.707 -0.7466 -0.1367  0.9537
 8318SOL    MW433046   4.755   1.001   3.763  0.2958  0.0650  0.0337
 8319SOL     OW33047   0.945   6.012   2.106  0.1543 -0.2001 -0.1031
 8319SOL    HW233048   0.952   6.085   2.044 -0.0175  1.6918  1.9891
 8319SOL    HW333049   1.036   5.990   2.126  0.2162  0.0873 -0.0544
 8319SOL    MW433050   0.958   6.019   2.100  0.1398  0.0875  0.1794
 8320SOL     OW33051   0.475   5.049   0.878 -0.1901  0.2055 -0.0826
 8320SOL    HW233052   0.385   5.074   0.901 -0.2081 -0.4793  0.6242
 8320SOL    HW333053   0.489   5.087   0.791 -0.2682  2.5273  0.8417
 8320SOL    MW433054   0.465   5.057   0.870 -0.2028  0.4214  0.1326
 8321SOL     OW33055   6.003   4.790   3.801  0.3035 -0.4057  0.4492
 8321SOL    HW233056   5.964   4.824   3.881  1.2129 -0.6022  0.9915
 8321SOL    HW333057   6.043   4.866   3.759  1.4568 -0.6044  1.1483
 8321SOL    MW433058   6.003   4.804   3.806  0.5756 -0.4579  0.6130
 8322SOL     OW33059   4.354   3.743   3.937 -0.0836  0.4902  0.2131
 8322SOL    HW233060   4.324   3.761   3.847 -0.6083 -1.3329 -0.0289
 8322SOL    HW333061   4.273   3.729   3.986  0.2485 -0.2675  0.5535
 8322SOL    MW433062   4.339   3.744   3.931 -0.1090  0.1497  0.2261
 8323SOL     OW33063   1.283   2.698   6.104  0.5380  0.3614  0.4188
 8323SOL    HW233064   1.363   2.649   6.089  1.4794  2.3663 -1.7450
 8323SOL    HW333065   1.250   2.719   6.017 -0.8128  1.9433  1.2463
 8323SOL    MW433066   1.289   2.695   6.091  0.4840  0.8346  0.2425
 8324SOL     OW33067   3.752   3.029   1.061  0.4660 -0.2282 -0.0016
 8324SOL    HW233068   3.776   3.114   1.025 -0.2280  0.5613  1.3038
 8324SOL    HW333069   3.683   2.996   1.003  1.3692 -0.3490 -1.0378
 8324SOL    MW433070   3.746   3.036   1.049  0.4936 -0.1400  0.0339
 8325SOL     OW33071   4.493   3.462   1.980  1.0683  0.4963 -0.1513
 8325SOL    HW233072   4.467   3.373   1.956 -0.6876  0.2133  2.4506
 8325SOL    HW333073   4.425   3.517   1.942  0.9019  0.5027  0.1552
 8325SOL    MW433074   4.480   3.457   1.972  0.8147  0.4598  0.2324
 8326SOL     OW33075   4.517   1.970   2.161 -0.3045  0.4224  0.2956
 8326SOL    HW233076   4.558   1.966   2.075 -0.9047 -0.8325  0.0536
 8326SOL    HW333077   4.436   2.019   2.148 -1.0293 -0.8355 -0.1505
 8326SOL    MW433078   4.512   1.976   2.148 -0.4794  0.0909  0.2048
 8327SOL     OW33079   6.391   6.261   2.534 -0.0699  0.3498 -0.6003
 8327SOL    HW233080   6.406   6.197   2.464  1.4388  0.1829 -0.1469
 8327SOL    HW333081   6.390   6.345   2.490  3.2937  0.4950 -0.6361
 8327SOL    MW433082   6.393   6.263   2.519  0.5730  0.3469 -0.5452
 8328SOL     OW33083   0.221   6.063   4.697  0.0121  0.1209 -0.5442
 8328SOL    HW233084   0.136   6.026   4.674  0.4388 -0.2311 -1.6421
 8328SOL    HW333085   0.209   6.158   4.691 -0.0795  0.0519 -1.5533
 8328SOL    MW433086   0.208   6.070   4.694  0.0563  0.0654 -0.8222
 8329SOL     OW33087   1.260   2.539   2.764 -0.8889 -0.1098  0.3661
 8329SOL    HW233088   1.336   2.481   2.775 -2.6363 -2.4672  0.8502
 8329SOL    HW333089   1.203   2.519   2.838 -3.5988 -1.1459 -1.8099
 8329SOL    MW433090   1.263   2.529   2.775 -1.4770 -0.5575  0.1429
 8330SOL     OW33091   2.589   3.380   1.406  0.4306 -0.7968 -0.2494
 8330SOL    HW233092   2.683   3.394   1.405  0.1650  1.3987 -2.4630
 8330SOL    HW333093   2.578   3.286   1.392  2.2558 -1.3550  1.6622
 8330SOL    MW433094   2.600   3.370   1.404  0.6364 -0.5808 -0.2892
 8331SOL     OW33095   3.228   4.763   1.050 -0.6016  0.2802 -0.3522
 8331SOL    HW233096   3.258   4.791   0.963 -0.3921  0.0519 -0.3530
 8331SOL    HW333097   3.304   4.721   1.090 -0.7883  0.1006 -0.1808
 8331SOL    MW433098   3.242   4.761   1.044 -0.5986  0.2264 -0.3297
 8332SOL     OW33099   3.148   1.870   2.046  0.2696  0.4593  0.2194
 8332SOL    HW233100   3.186   1.923   2.116 -0.3378  1.5062 -0.2186
 8332SOL    HW333101   3.170   1.918   1.966 -2.3699  1.4067 -0.0294
 8332SOL    MW433102   3.156   1.883   2.045 -0.1588  0.7224  0.1288
 8333SOL     OW33103   0.368   6.050   3.314 -0.0941  0.1750  0.0856
 8333SOL    HW233104   0.327   5.977   3.267 -0.6800 -0.1612  1.0865
 8333SOL    HW333105   0.398   6.109   3.245  2.0309 -1.8340 -0.8650
 8333SOL    MW433106   0.366   6.048   3.299  0.1090 -0.1344  0.0922
 8334SOL     OW33107   1.632   3.570   1.799 -0.1114 -0.2119 -0.0077
 8334SOL    HW233108   1.597   3.519   1.726  2.6184 -0.6273 -1.1559
 8334SOL    HW333109   1.650   3.506   1.867 -1.0558 -0.0628  0.3991
 8334SOL    MW433110   1.629   3.555   1.798  0.1242 -0.2470 -0.1055
 8335SOL     OW33111   3.654   3.926   0.594 -0.4682 -0.2948  0.3548
 8335SOL    HW233112   3.672   4.016   0.621  0.7090  0.0119 -1.3342
 8335SOL    HW333113   3.726   3.875   0.632  0.7660  0.0256 -1.4318
 8335SOL    MW433114   3.666   3.931   0.603 -0.1501 -0.2121 -0.1038
 8336SOL     OW33115   2.620   0.328   5.165 -0.6962  0.5370 -0.0355
 8336SOL    HW233116   2.638   0.325   5.071 -0.1795  1.2450  0.0269
 8336SOL    HW333117   2.635   0.238   5.195  1.1142  0.7118 -0.3036
 8336SOL    MW433118   2.625   0.316   5.156 -0.3891  0.6535 -0.0627
 8337SOL     OW33119   2.579   3.692   2.077  0.0342 -0.5538  0.0636
 8337SOL    HW233120   2.563   3.786   2.083 -1.9945 -0.5828 -2.7962
 8337SOL    HW333121   2.539   3.656   2.157 -0.3010  0.9070  0.5847
 8337SOL    MW433122   2.571   3.700   2.088 -0.2777 -0.3649 -0.2450
 8338SOL     OW33123   0.977   3.407   3.059  0.1311 -0.2385  0.3075
 8338SOL    HW233124   0.961   3.501   3.062 -0.6039 -0.3022 -0.8539
 8338SOL    HW333125   1.067   3.398   3.029 -0.3984  0.1167 -1.5254
 8338SOL    MW433126   0.987   3.418   3.055 -0.0357 -0.2001 -0.0876
 8339SOL     OW33127   6.314   4.063   5.738 -0.0350 -0.1091 -0.0480
 8339SOL    HW233128   6.336   4.154   5.758  2.2175 -0.0176 -2.3362
 8339SOL    HW333129   6.359   4.012   5.804 -1.4043  0.3933  1.3213
 8339SOL    MW433130   6.323   4.069   5.749  0.0816 -0.0307 -0.1692
 8340SOL     OW33131   2.705   6.213   6.261  0.4204 -0.1110  0.1678
 8340SOL    HW233132   2.798   6.196   6.250 -0.0692 -1.8215 -2.1033
 8340SOL    HW333133   2.665   6.126   6.264 -1.4242  0.4745 -2.8600
 8340SOL    MW433134   2.712   6.199   6.260  0.1124 -0.2594 -0.5313
 8341SOL     OW33135   5.847   4.725   0.164  0.1618  0.2021  0.0304
 8341SOL    HW233136   5.829   4.748   0.255 -0.6827 -2.0472  0.5133
 8341SOL    HW333137   5.930   4.677   0.169 -0.3561 -0.7376 -0.2202
 8341SOL    MW433138   5.856   4.721   0.177 -0.0180 -0.2186  0.0610
 8342SOL     OW33139   2.736   2.682   5.551 -0.0358  0.1079 -0.5337
 8342SOL    HW233140   2.812   2.625   5.559  0.1712  0.1330 -2.0046
 8342SOL    HW333141   2.772   2.767   5.527 -0.5502 -0.2278 -2.7581
 8342SOL    MW433142   2.750   2.686   5.549 -0.0763  0.0669 -1.0213
 8343SOL     OW33143   2.176   1.720   3.787 -0.3974 -0.8687  0.0112
 8343SOL    HW233144   2.217   1.677   3.712 -0.5333 -1.3388  0.2026
 8343SOL    HW333145   2.132   1.797   3.750 -0.9778 -1.4261 -0.4910
 8343SOL    MW433146   2.175   1.725   3.772 -0.4919 -1.0043 -0.0298
 8344SOL     OW33147   2.699   5.908   6.283  0.7826  0.0192  0.4385
 8344SOL    HW233148   2.756   5.836   6.309 -0.6229 -0.9900  0.8330
 8344SOL    HW333149   2.612   5.870   6.279  0.1451  1.4658 -0.3740
 8344SOL    MW433150   2.695   5.894   6.286  0.5131  0.0769  0.3834
 8345SOL     OW33151   3.309   6.101   4.894 -0.3963  0.0168  0.0911
 8345SOL    HW233152   3.239   6.164   4.881 -0.1912  0.3310  0.4912
 8345SOL    HW333153   3.264   6.022   4.924 -0.8070 -0.5246 -1.8287
 8345SOL    MW433154   3.294   6.099   4.896 -0.4234 -0.0132 -0.1094
 8346SOL     OW33155   3.795   1.233   5.711  0.0503 -1.0748  0.0165
 8346SOL    HW233156   3.848   1.159   5.682  0.2539 -1.4821  1.3616
 8346SOL    HW333157   3.755   1.204   5.793 -0.4693  0.0361  0.1805
 8346SOL    MW433158   3.797   1.219   5.718  0.0086 -0.9820  0.2156
 8347SOL     OW33159   3.157   3.794   3.508  0.1779 -0.0256  0.2280
 8347SOL    HW233160   3.249   3.777   3.524  0.2534  1.5768  1.7649
 8347SOL    HW333161   3.145   3.886   3.529 -1.7251 -0.1185 -0.2246
 8347SOL    MW433162   3.167   3.804   3.513 -0.0632  0.1736  0.3710
 8348SOL     OW33163   4.998   2.884   5.230 -0.3718 -0.8619  0.2091
 8348SOL    HW233164   5.042   2.917   5.308  2.5977 -1.3181 -1.1739
 8348SOL    HW333165   4.962   2.962   5.188  0.6659 -0.2421  0.4582
 8348SOL    MW433166   4.999   2.899   5.235  0.1569 -0.8403  0.0595
 8349SOL     OW33167   5.125   4.733   3.414 -0.2649 -0.2201 -0.1755
 8349SOL    HW233168   5.209   4.734   3.367 -0.2942  0.3804 -0.2210
 8349SOL    HW333169   5.143   4.780   3.496 -0.9700  1.4211 -0.9233
 8349SOL    MW433170   5.139   4.739   3.419 -0.3618  0.0757 -0.2801
 8350SOL     OW33171   3.525   1.923   3.173 -1.0068 -0.2933 -0.8934
 8350SOL    HW233172   3.574   1.874   3.239 -0.7133 -0.5914 -1.3190
 8350SOL    HW333173   3.477   1.990   3.222 -1.3511 -0.9566 -0.3120
 8350SOL    MW433174   3.525   1.926   3.188 -1.0135 -0.4202 -0.8729
 8351SOL     OW33175   0.501   5.293   2.397  0.1603 -0.3911 -0.1264
 8351SOL    HW233176   0.523   5.386   2.394  1.9181 -0.5699  2.7799
 8351SOL    HW333177   0.532   5.258   2.314  1.1675  1.3290 -0.5187
 8351SOL    MW433178   0.508   5.300   2.386  0.5251 -0.1878  0.2053
 8352SOL     OW33179   3.890   3.731   5.294  0.1851 -0.2945 -0.2905
 8352SOL    HW233180   3.887   3.789   5.218  4.9396  1.3618  0.4477
 8352SOL    HW333181   3.849   3.782   5.364 -1.4034 -0.5650 -0.9765
 8352SOL    MW433182   3.884   3.746   5.293  0.6028 -0.1116 -0.2836
 8353SOL     OW33183   5.222   3.989   5.209  0.1863 -0.0558 -0.2823
 8353SOL    HW233184   5.277   3.910   5.211  1.1995  0.6245 -0.7871
 8353SOL    HW333185   5.281   4.060   5.236 -0.4836  0.6656 -0.6920
 8353SOL    MW433186   5.237   3.988   5.213  0.2316  0.1292 -0.4030
 8354SOL     OW33187   2.118   1.454   1.626  0.1544 -0.0768 -0.0806
 8354SOL    HW233188   2.198   1.419   1.588  0.2355  1.0604 -1.0393
 8354SOL    HW333189   2.131   1.448   1.720  0.6662 -1.4222 -0.2174
 8354SOL    MW433190   2.130   1.449   1.633  0.2326 -0.1042 -0.2251
 8355SOL     OW33191   2.165   5.797   0.589 -0.2210 -0.7517 -0.9331
 8355SOL    HW233192   2.147   5.823   0.498 -0.9262  0.2414 -0.5257
 8355SOL    HW333193   2.236   5.855   0.617 -1.2868  0.2881 -0.2657
 8355SOL    MW433194   2.172   5.808   0.581 -0.4547 -0.4835 -0.7913
 8356SOL     OW33195   6.209   5.393   2.390 -0.3626 -0.3672  0.2433
 8356SOL    HW233196   6.189   5.346   2.309 -0.0114 -2.2399  1.1899
 8356SOL    HW333197   6.154   5.352   2.456 -1.5904  1.9709  0.7977
 8356SOL    MW433198   6.199   5.382   2.388 -0.4783 -0.3058  0.4413
 8357SOL     OW33199   2.226   5.539   0.656  0.0072  0.4495 -0.0214
 8357SOL    HW233200   2.210   5.631   0.633  1.8779  0.5127 -1.3790
 8357SOL    HW333201   2.278   5.543   0.736 -2.6452  0.3953  1.8087
 8357SOL    MW433202   2.231   5.552   0.663 -0.0959  0.4507  0.0410
 8358SOL     OW33203   1.910   0.862   1.731 -0.1831  0.0028 -0.4874
 8358SOL    HW233204   1.952   0.942   1.699 -0.7919  0.4417 -0.2077
 8358SOL    HW333205   1.819   0.870   1.705 -0.3361 -0.4118 -0.0989
 8358SOL    MW433206   1.904   0.873   1.724 -0.2836  0.0060 -0.3993
 8359SOL     OW33207   1.926   3.749   1.477  0.5051  0.2913  0.3989
 8359SOL    HW233208   2.005   3.749   1.424  0.0102  0.4780 -0.3483
 8359SOL    HW333209   1.942   3.682   1.544  1.3464  0.4302  0.3505
 8359SOL    MW433210   1.939   3.740   1.479  0.5508  0.3343  0.2939
 8360SOL     OW33211   2.949   2.534   0.887  0.4260  0.1857  0.3339
 8360SOL    HW233212   3.033   2.559   0.926  0.5837  0.5506 -0.2134
 8360SOL    HW333213   2.884   2.558   0.953  0.8055 -1.0133  1.1772
 8360SOL    MW433214   2.951   2.541   0.901  0.4969  0.0756  0.3729
 8361SOL     OW33215   3.514   6.292   4.550 -0.7816 -0.2072  0.2717
 8361SOL    HW233216   3.490   6.208   4.588 -0.0414 -0.3872  0.3673
 8361SOL    HW333217   3.452   6.354   4.587 -0.4132 -0.4689  1.3790
 8361SOL    MW433218   3.503   6.289   4.560 -0.6353 -0.2655  0.4304
 8362SOL     OW33219   0.842   4.492   5.175 -0.3838 -0.2459 -0.8402
 8362SOL    HW233220   0.908   4.449   5.230 -0.8181  0.3799  0.2007
 8362SOL    HW333221   0.764   4.438   5.184 -0.0752 -0.9189 -1.9780
 8362SOL    MW433222   0.841   4.480   5.184 -0.4004 -0.2521 -0.8530
 8363SOL     OW33223   6.133   0.912   4.541  0.3047 -0.2033 -0.1525
 8363SOL    HW233224   6.200   0.854   4.578 -0.4296 -0.8203  0.2372
 8363SOL    HW333225   6.055   0.857   4.535 -0.8594  1.1163  1.6889
 8363SOL    MW433226   6.132   0.897   4.545  0.0542 -0.1106  0.1419
 8364SOL     OW33227   4.447   5.490   2.338  0.6897 -0.0132  0.9025
 8364SOL    HW233228   4.412   5.576   2.315 -0.6827 -0.9950 -0.8993
 8364SOL    HW333229   4.528   5.482   2.287 -0.4366 -0.6995 -0.8719
 8364SOL    MW433230   4.453   5.500   2.329  0.3600 -0.2333  0.4307
 8365SOL     OW33231   3.709   3.642   3.340  0.5336  0.4343 -0.6139
 8365SOL    HW233232   3.799   3.673   3.335  0.7206 -0.3430 -3.2422
 8365SOL    HW333233   3.657   3.710   3.297  0.1389 -0.0166 -0.8586
 8365SOL    MW433234   3.714   3.655   3.334  0.5062  0.2723 -0.9930
 8366SOL     OW33235   1.975   3.060   2.853  0.0540 -0.1483 -0.2158
 8366SOL    HW233236   2.012   3.146   2.870 -1.1157  0.1249  1.1984
 8366SOL    HW333237   2.015   3.004   2.920 -0.7651 -0.2077  0.2447
 8366SOL    MW433238   1.985   3.064   2.864 -0.2084 -0.1201  0.0316
 8367SOL     OW33239   4.865   4.184   3.508 -0.1568  0.4480  0.0212
 8367SOL    HW233240   4.938   4.238   3.477  2.2356 -0.8745  2.9237
 8367SOL    HW333241   4.802   4.247   3.543  1.3631  1.5235  0.9462
 8367SOL    MW433242   4.867   4.200   3.508  0.3594  0.4154  0.5262
 8368SOL     OW33243   3.272   4.823   4.289  0.7287  0.0211  0.1214
 8368SOL    HW233244   3.191   4.773   4.283  1.5685 -1.4225  0.2140
 8368SOL    HW333245   3.295   4.819   4.382  0.5645  1.0067  0.2104
 8368SOL    MW433246   3.265   4.816   4.301  0.8178 -0.0393  0.1454
 8369SOL     OW33247   4.950   4.065   3.070 -0.0857 -0.9531 -0.2011
 8369SOL    HW233248   4.993   4.023   3.145 -0.5134  0.5710  0.9349
 8369SOL    HW333249   5.007   4.138   3.047 -1.6674  0.7012  0.9108
 8369SOL    MW433250   4.963   4.069   3.077 -0.3508 -0.5338  0.0955
 8370SOL     OW33251   4.182   0.416   6.192  0.5926 -0.5537 -0.1029
 8370SOL    HW233252   4.113   0.472   6.158 -0.5636 -2.3153 -0.7601
 8370SOL    HW333253   4.146   0.380   6.273  0.8835 -1.2069 -0.2589
 8370SOL    MW433254   4.168   0.419   6.198  0.4784 -0.8723 -0.2102
 8371SOL     OW33255   5.652   3.546   0.440  0.1490 -0.1611  0.6388
 8371SOL    HW233256   5.646   3.641   0.429 -1.4575 -0.2282  0.6690
 8371SOL    HW333257   5.721   3.533   0.504 -0.2082  1.0446  1.2902
 8371SOL    MW433258   5.660   3.557   0.447 -0.1101 -0.0109  0.7287
 8372SOL     OW33259   4.905   3.441   6.169 -0.3932  0.6121 -0.4143
 8372SOL    HW233260   4.928   3.531   6.193  1.0584 -0.0061  0.7314
 8372SOL    HW333261   4.895   3.443   6.074 -2.2757  2.3507 -0.2353
 8372SOL    MW433262   4.907   3.453   6.160 -0.4501  0.7599 -0.2395
 8373SOL     OW33263   4.814   4.803   4.234 -0.3222  0.0027  0.3004
 8373SOL    HW233264   4.878   4.757   4.288 -0.8008 -1.3462 -0.2419
 8373SOL    HW333265   4.866   4.863   4.180  0.4853 -0.9451 -0.0085
 8373SOL    MW433266   4.829   4.805   4.234 -0.2788 -0.3003  0.1881
 8374SOL     OW33267   2.464   2.088   0.416  0.1379 -0.3779  0.3235
 8374SOL    HW233268   2.525   2.015   0.423  0.6059 -0.1722 -1.2733
 8374SOL    HW333269   2.427   2.080   0.328 -0.0974  1.0735  0.2657
 8374SOL    MW433270   2.467   2.077   0.405  0.1686 -0.1593  0.1052
 8375SOL     OW33271   6.267   0.690   3.865 -0.4817  0.1754 -0.5649
 8375SOL    HW233272   6.209   0.665   3.793  1.6774 -2.1090 -1.6528
 8375SOL    HW333273   6.316   0.764   3.832  2.9751 -2.8938 -3.1171
 8375SOL    MW433274   6.266   0.696   3.851  0.2592 -0.5309 -1.0452
 8376SOL     OW33275   4.027   3.472   2.750  0.0218 -0.6935 -0.0752
 8376SOL    HW233276   4.029   3.427   2.835  1.0592  0.4476  0.5343
 8376SOL    HW333277   3.968   3.546   2.763  2.6081  1.4063  0.7488
 8376SOL    MW433278   4.019   3.476   2.763  0.4999 -0.2659  0.1139
 8377SOL     OW33279   5.945   5.039   5.722  0.4359  0.0655 -0.3088
 8377SOL    HW233280   6.032   5.001   5.705  0.3079 -0.0548 -0.6864
 8377SOL    HW333281   5.908   5.055   5.636 -1.6823 -3.8663 -0.3731
 8377SOL    MW433282   5.952   5.036   5.708  0.1395 -0.4691 -0.3671
 8378SOL     OW33283   4.461   4.309   1.631 -0.1152 -0.4341  0.0824
 8378SOL    HW233284   4.409   4.231   1.647  0.3423 -0.3643  2.1742
 8378SOL    HW333285   4.540   4.277   1.587 -0.1110 -1.0917  0.5565
 8378SOL    MW433286   4.465   4.295   1.627 -0.0543 -0.5117  0.4210
 8379SOL     OW33287   5.791   5.594   1.475  0.2016  0.1685  0.2110
 8379SOL    HW233288   5.769   5.674   1.427  1.0320 -0.4970 -1.3561
 8379SOL    HW333289   5.764   5.523   1.418  0.9697 -0.6636  0.8512
 8379SOL    MW433290   5.785   5.595   1.462  0.4125 -0.0291  0.0887
 8380SOL     OW33291   2.953   4.317   5.554 -0.6594  0.0137 -0.6169
 8380SOL    HW233292   2.898   4.352   5.625 -0.2388 -0.4578 -0.0513
 8380SOL    HW333293   3.030   4.374   5.553 -1.2336  0.7915 -1.5368
 8380SOL    MW433294   2.956   4.329   5.563 -0.6796  0.0542 -0.6637
 8381SOL     OW33295   3.384   1.857   2.426  0.4915 -0.0723  0.0814
 8381SOL    HW233296   3.449   1.881   2.492 -1.0078  1.0820  1.1893
 8381SOL    HW333297   3.313   1.920   2.438 -1.5840 -2.2696 -0.0071
 8381SOL    MW433298   3.383   1.869   2.436  0.0198 -0.2099  0.2159
 8382SOL     OW33299   2.559   3.194   6.098 -0.1169  0.7638  0.0684
 8382SOL    HW233300   2.467   3.216   6.083 -0.5693 -0.5387  0.7427
 8382SOL    HW333301   2.567   3.104   6.067  0.7345  0.5988  0.7388
 8382SOL    MW433302   2.548   3.185   6.092 -0.0643  0.5702  0.2458
 8383SOL     OW33303   1.397   4.298   4.674 -0.1284  0.3525 -0.3234
 8383SOL    HW233304   1.459   4.276   4.744 -0.6135  0.7242  0.2252
 8383SOL    HW333305   1.416   4.389   4.654 -0.2644  0.3625 -0.3999
 8383SOL    MW433306   1.408   4.307   4.681 -0.2103  0.4029 -0.2611
 8384SOL     OW33307   1.692   0.193   1.398 -0.1335 -0.4801  0.2319
 8384SOL    HW233308   1.673   0.242   1.478 -0.2970 -2.9903  1.8303
 8384SOL    HW333309   1.611   0.146   1.378 -0.2588  0.4763 -1.7636
 8384SOL    MW433310   1.679   0.193   1.406 -0.1716 -0.6851  0.1795
 8385SOL     OW33311   0.497   0.649   6.225  0.2470 -0.1077  0.0610
 8385SOL    HW233312   0.520   0.701   6.303 -2.1122  1.5630 -0.2619
 8385SOL    HW333313   0.576   0.651   6.171  0.7831  1.7756  0.8280
 8385SOL    MW433314   0.510   0.656   6.228  0.0065  0.3612  0.1196
 8386SOL     OW33315   1.998   1.048   1.018  0.1578 -0.2746  0.0890
 8386SOL    HW233316   2.032   1.092   1.095  0.9791  0.4357 -0.6620
 8386SOL    HW333317   2.069   0.990   0.989 -0.1220 -0.5007 -0.1596
 8386SOL    MW433318   2.012   1.046   1.024  0.2292 -0.2107 -0.0429
 8387SOL     OW33319   4.324   5.698   1.024 -0.3087 -0.0571  0.0927
 8387SOL    HW233320   4.390   5.757   0.988  0.3495 -0.1415  1.1352
 8387SOL    HW333321   4.269   5.754   1.079 -0.2306 -0.2532  0.3709
 8387SOL    MW433322   4.325   5.713   1.027 -0.2116 -0.0941  0.2670
 8388SOL     OW33323   0.523   1.945   1.782 -0.6187 -0.4150  0.1478
 8388SOL    HW233324   0.469   2.022   1.798 -0.9179 -0.7266  0.6422
 8388SOL    HW333325   0.573   1.934   1.863 -0.3050 -0.5279 -0.0581
 8388SOL    MW433326   0.523   1.954   1.795 -0.6168 -0.4710  0.1859
 8389SOL     OW33327   1.445   5.976   4.835  0.0212  0.1497  0.2453
 8389SOL    HW233328   1.360   5.995   4.795  0.1522  1.8740  0.7082
 8389SOL    HW333329   1.452   5.881   4.832 -1.7933 -0.0100 -0.0706
 8389SOL    MW433330   1.435   5.966   4.829 -0.2009  0.3561  0.2647
 8390SOL     OW33331   1.934   2.582   0.283 -0.1248 -0.2277  0.5965
 8390SOL    HW233332   1.987   2.527   0.226  1.3090  0.9403  0.7380
 8390SOL    HW333333   1.855   2.531   0.300  0.5944 -1.6819 -0.2915
 8390SOL    MW433334   1.931   2.568   0.278  0.1592 -0.2655  0.4980
 8391SOL     OW33335   0.967   3.065   0.215 -0.1758  0.2431 -0.2427
 8391SOL    HW233336   0.889   3.015   0.239 -0.5656 -0.0347 -1.9365
 8391SOL    HW333337   0.982   3.044   0.122  1.4952  0.8480 -0.1584
 8391SOL    MW433338   0.959   3.056   0.206 -0.0067  0.2863 -0.4551
 8392SOL     OW33339   4.262   0.982   4.505  0.4832  0.1335 -0.2771
 8392SOL    HW233340   4.356   0.969   4.517  0.6616  1.8831  0.6207
 8392SOL    HW333341   4.249   1.075   4.523 -1.6606 -0.3814  1.1715
 8392SOL    MW433342   4.273   0.993   4.509  0.2239  0.2964  0.0325
 8393SOL     OW33343   2.405   4.180   1.544  0.7871 -0.2071  0.2282
 8393SOL    HW233344   2.373   4.221   1.463 -0.8859  0.1851  1.0497
 8393SOL    HW333345   2.429   4.091   1.517  1.2193  0.2184 -0.8851
 8393SOL    MW433346   2.404   4.174   1.529  0.6234 -0.0992  0.1897
 8394SOL     OW33347   5.438   0.145   2.992 -0.1258 -0.1120 -0.2890
 8394SOL    HW233348   5.389   0.189   3.061 -2.2740  1.2909 -2.5262
 8394SOL    HW333349   5.377   0.080   2.956  0.6316 -0.2522 -1.3717
 8394SOL    MW433350   5.424   0.142   2.996 -0.3093  0.0546 -0.7270
 8395SOL     OW33351   4.084   4.654   3.812 -0.7255  0.2559  0.2579
 8395SOL    HW233352   4.137   4.575   3.824  1.2093  1.0280 -2.3665
 8395SOL    HW333353   4.098   4.703   3.893  0.7987 -0.5942  0.5648
 8395SOL    MW433354   4.093   4.650   3.824 -0.2691  0.2456 -0.0478
 8396SOL     OW33355   4.552   2.820   2.732  0.1172  0.0075  0.0028
 8396SOL    HW233356   4.467   2.824   2.776 -0.8347  0.9849 -1.8073
 8396SOL    HW333357   4.588   2.735   2.757 -1.3767 -0.4208  0.8316
 8396SOL    MW433358   4.545   2.809   2.741 -0.2055  0.0800 -0.1267
 8397SOL     OW33359   3.429   3.210   3.102 -0.1506 -0.3691  0.1351
 8397SOL    HW233360   3.461   3.194   3.191  1.8483  1.4265 -0.1808
 8397SOL    HW333361   3.449   3.129   3.055  0.5315 -0.6554  0.8889
 8397SOL    MW433362   3.436   3.197   3.107  0.2031 -0.1699  0.1929
 8398SOL     OW33363   2.101   4.512   3.103  0.0546 -0.2040 -0.4409
 8398SOL    HW233364   2.105   4.432   3.155  0.5035 -0.0817 -0.2852
 8398SOL    HW333365   2.018   4.553   3.129  0.9762  0.6294  1.3309
 8398SOL    MW433366   2.091   4.507   3.114  0.2354 -0.0779 -0.1866
 8399SOL     OW33367   4.028   3.569   1.684 -0.6092  0.2640 -0.0645
 8399SOL    HW233368   4.048   3.529   1.769  1.6636 -0.5044 -0.8772
 8399SOL    HW333369   3.968   3.508   1.642  0.6734 -0.9916 -0.1856
 8399SOL    MW433370   4.023   3.556   1.690 -0.1401 -0.0031 -0.1877
 8400SOL     OW33371   4.512   3.085   3.558  0.7359 -0.4178 -0.0599
 8400SOL    HW233372   4.531   3.040   3.640 -0.3562 -1.8567 -0.5608
 8400SOL    HW333373   4.581   3.152   3.551 -0.1085  0.8987  2.8215
 8400SOL    MW433374   4.524   3.088   3.568  0.4804 -0.4339  0.2542
 8401SOL     OW33375   3.325   5.640   2.254  0.2693 -0.0240 -0.2228
 8401SOL    HW233376   3.317   5.550   2.223  1.8437 -0.2476 -0.0774
 8401SOL    HW333377   3.381   5.683   2.190 -0.2973  0.8123 -0.1789
 8401SOL    MW433378   3.331   5.634   2.241  0.4023  0.0568 -0.1978
 8402SOL     OW33379   5.635   4.738   4.122 -0.1518 -0.4487  0.5739
 8402SOL    HW233380   5.565   4.799   4.144  0.1382 -0.3321  1.1802
 8402SOL    HW333381   5.625   4.724   4.028 -1.0093 -0.4617  0.6548
 8402SOL    MW433382   5.625   4.744   4.112 -0.2267 -0.4350  0.6646
 8403SOL     OW33383   1.547   1.542   6.027 -0.4888  0.6324 -0.2822
 8403SOL    HW233384   1.586   1.629   6.037  0.2124  0.3383 -0.3960
 8403SOL    HW333385   1.569   1.517   5.937  1.2834 -0.5959  0.4429
 8403SOL    MW433386   1.556   1.551   6.016 -0.1625  0.4315 -0.2015
 8404SOL     OW33387   1.999   1.294   0.008  0.0253 -0.9116 -0.1671
 8404SOL    HW233388   2.003   1.387  -0.013 -0.5635 -0.6084  0.9661
 8404SOL    HW333389   1.921   1.263  -0.039 -1.3332 -0.2225  1.5009
 8404SOL    MW433390   1.989   1.302  -0.001 -0.2316 -0.7807  0.2025
 8405SOL     OW33391   2.086   4.992   2.168  0.3858  0.2674  0.0803
 8405SOL    HW233392   2.168   4.943   2.177 -0.1788 -1.1293 -1.8055
 8405SOL    HW333393   2.018   4.927   2.184 -0.3757  0.9715 -0.2520
 8405SOL    MW433394   2.088   4.977   2.171  0.2108  0.1760 -0.2124
 8406SOL     OW33395   1.279   1.144   4.350 -0.5710 -0.2983  0.0020
 8406SOL    HW233396   1.294   1.164   4.257  0.6684  2.2694  0.6918
 8406SOL    HW333397   1.325   1.061   4.364  1.3828  0.5239 -1.1422
 8406SOL    MW433398   1.287   1.136   4.339 -0.1497  0.1490 -0.0580
 8407SOL     OW33399   3.843   5.208   5.963 -0.4060  0.4008  0.4947
 8407SOL    HW233400   3.874   5.206   6.053  0.2963  1.0889  0.2841
 8407SOL    HW333401   3.792   5.289   5.957 -0.5889  0.2746  0.3087
 8407SOL    MW433402   3.840   5.218   5.974 -0.3375  0.4749  0.4424
 8408SOL     OW33403   0.952   3.957   3.222 -0.0026 -0.1753 -0.1680
 8408SOL    HW233404   1.031   3.994   3.260 -0.9123  0.1379  1.4952
 8408SOL    HW333405   0.941   3.873   3.265  0.0959 -0.8049 -1.3247
 8408SOL    MW433406   0.961   3.951   3.233 -0.1096 -0.2170 -0.1012
 8409SOL     OW33407   2.061   5.601   5.819  0.6114 -0.1838  0.3709
 8409SOL    HW233408   2.005   5.542   5.870  0.1885 -0.6438 -0.6173
 8409SOL    HW333409   2.049   5.574   5.728  1.5676  0.4571  0.0378
 8409SOL    MW433410   2.052   5.590   5.814  0.6818 -0.1599  0.1966
 8410SOL     OW33411   4.312   4.628   0.843  0.4165  0.6158 -0.3221
 8410SOL    HW233412   4.348   4.659   0.925  2.4958 -0.0167 -0.9484
 8410SOL    HW333413   4.278   4.541   0.862  1.3373  0.2736 -0.2345
 8410SOL    MW433414   4.312   4.621   0.856  0.8123  0.4872 -0.3932
 8411SOL     OW33415   3.785   4.728   1.895  0.2689  0.5028 -0.3226
 8411SOL    HW233416   3.866   4.681   1.917  0.6712  1.3820  0.1188
 8411SOL    HW333417   3.742   4.742   1.979 -0.2487  0.2169 -0.5376
 8411SOL    MW433418   3.790   4.723   1.909  0.2536  0.5811 -0.2927
 8412SOL     OW33419   6.285   6.211   2.025 -0.0687  0.1701 -0.3014
 8412SOL    HW233420   6.322   6.134   1.983 -3.4688 -2.0121  0.3211
 8412SOL    HW333421   6.347   6.232   2.095  0.3272 -2.9044  0.4027
 8412SOL    MW433422   6.298   6.204   2.029 -0.4650 -0.5234 -0.1264
 8413SOL     OW33423   6.328   4.144   0.391 -0.1677 -0.5936  0.6122
 8413SOL    HW233424   6.346   4.050   0.384  1.0756 -0.3296 -0.0763
 8413SOL    HW333425   6.337   4.176   0.301 -0.1568  0.2529  0.9099
 8413SOL    MW433426   6.332   4.135   0.378 -0.0023 -0.4471  0.5606
 8414SOL     OW33427   0.076   6.257   3.901  0.2959 -0.5449 -0.0462
 8414SOL    HW233428   0.135   6.227   3.832  0.9532  1.2460 -0.3119
 8414SOL    HW333429   0.025   6.327   3.861 -1.0300 -1.0996  0.6103
 8414SOL    MW433430   0.077   6.262   3.887  0.2077 -0.3818  0.0053
 8415SOL     OW33431   2.924   2.596   5.198 -0.2995 -0.4180 -0.0811
 8415SOL    HW233432   3.004   2.647   5.204 -0.6885  0.1788  0.0826
 8415SOL    HW333433   2.856   2.659   5.177 -1.0344 -0.6184  1.5447
 8415SOL    MW433434   2.926   2.611   5.196 -0.4478 -0.3657  0.1550
 8416SOL     OW33435   4.046   2.833   4.191 -0.2409  0.2174 -0.6051
 8416SOL    HW233436   4.012   2.919   4.166  0.3104  1.1558  1.6115
 8416SOL    HW333437   4.140   2.847   4.206 -0.2124 -0.6693  0.1666
 8416SOL    MW433438   4.054   2.846   4.190 -0.1644  0.2242 -0.2109
 8417SOL     OW33439   5.514   4.360   1.901 -0.2444 -0.3902 -0.0866
 8417SOL    HW233440   5.581   4.379   1.835  0.3978 -0.2985  0.5723
 8417SOL    HW333441   5.450   4.430   1.890  1.1052  1.0905  1.0014
 8417SOL    MW433442   5.515   4.372   1.891  0.0184 -0.1828  0.1439
 8418SOL     OW33443   2.592   3.708   1.786  0.2379 -0.8904  0.0940
 8418SOL    HW233444   2.604   3.694   1.880  1.6232  1.3587  0.3208
 8418SOL    HW333445   2.547   3.629   1.756  0.9729 -2.2805  2.3824
 8418SOL    MW433446   2.588   3.695   1.795  0.5177 -0.7771  0.4259
 8419SOL     OW33447   5.884   3.584   2.479  0.0410  0.2213 -0.1125
 8419SOL    HW233448   5.937   3.553   2.553  0.6571  0.8816 -0.2644
 8419SOL    HW333449   5.811   3.522   2.475  0.6400 -0.5437  0.2914
 8419SOL    MW433450   5.881   3.572   2.488  0.2013  0.2075 -0.0792
 8420SOL     OW33451   6.366   0.970   0.696 -0.3730  0.5579  0.3156
 8420SOL    HW233452   6.366   0.885   0.653  3.1333  0.6548 -0.1805
 8420SOL    HW333453   6.309   0.959   0.772 -1.8834 -1.4716 -1.0357
 8420SOL    MW433454   6.359   0.958   0.701 -0.1097  0.3029  0.0719
 8421SOL     OW33455   5.285   6.312   1.316  0.6127 -0.0648 -0.8495
 8421SOL    HW233456   5.307   6.324   1.224  0.5927  1.2141 -0.7093
 8421SOL    HW333457   5.366   6.332   1.363  1.7960 -4.3339 -0.6630
 8421SOL    MW433458   5.298   6.316   1.310  0.7662 -0.4593 -0.8064
 8422SOL     OW33459   4.434   3.932   0.146  0.4375 -0.1861 -0.2463
 8422SOL    HW233460   4.465   3.900   0.230 -0.4375  1.4887  0.7746
 8422SOL    HW333461   4.504   3.911   0.084  0.7658 -2.1401  0.7164
 8422SOL    MW433462   4.447   3.925   0.149  0.3654 -0.2229  0.0154
 8423SOL     OW33463   0.098   4.319   0.985 -0.2155  0.0094  0.1747
 8423SOL    HW233464   0.035   4.284   0.922 -0.3836 -0.2868  0.5020
 8423SOL    HW333465   0.102   4.413   0.965 -0.2177 -0.0912 -0.3135
 8423SOL    MW433466   0.090   4.327   0.974 -0.2380 -0.0430  0.1534
 8424SOL     OW33467   5.205   1.939   5.101 -0.1410  0.0241 -0.2856
 8424SOL    HW233468   5.198   2.034   5.087  1.8366  0.5751  1.7886
 8424SOL    HW333469   5.159   1.923   5.183 -0.5733 -0.8599 -0.6894
 8424SOL    MW433470   5.198   1.949   5.110  0.0629 -0.0198 -0.0652
 8425SOL     OW33471   1.623   3.180   0.541 -0.1344  0.4876  0.1336
 8425SOL    HW233472   1.567   3.115   0.499  0.1384  0.8956 -0.8961
 8425SOL    HW333473   1.575   3.207   0.619 -1.0817  0.3632 -0.3979
 8425SOL    MW433474   1.609   3.175   0.545 -0.2234  0.5250 -0.0724
 8426SOL     OW33475   4.530   2.201   4.668 -0.0931 -0.7394  0.3522
 8426SOL    HW233476   4.488   2.282   4.696  0.0271  0.4304 -2.4659
 8426SOL    HW333477   4.541   2.150   4.748 -2.1609  1.0829  1.9157
 8426SOL    MW433478   4.526   2.205   4.682 -0.3501 -0.3446  0.1866
 8427SOL     OW33479   1.898   6.064   4.586  0.4121  0.2258  0.0244
 8427SOL    HW233480   1.884   6.152   4.550  1.0189  0.3961  0.1803
 8427SOL    HW333481   1.882   6.074   4.680 -0.6185 -0.0898 -0.1112
 8427SOL    MW433482   1.894   6.077   4.594  0.3562  0.2066  0.0271
 8428SOL     OW33483   5.099   6.271   6.086  0.0639 -0.1722 -0.1692
 8428SOL    HW233484   5.065   6.208   6.150  0.1378 -0.5671 -0.5138
 8428SOL    HW333485   5.125   6.347   6.138  0.4853 -0.6403  0.3114
 8428SOL    MW433486   5.098   6.273   6.102  0.1293 -0.2860 -0.1512
 8429SOL     OW33487   0.932   0.769   1.960  0.0100 -0.1385 -0.3685
 8429SOL    HW233488   0.838   0.759   1.976 -0.1232 -0.8408 -1.5362
 8429SOL    HW333489   0.954   0.852   2.002 -1.2694  0.3766 -0.6695
 8429SOL    MW433490   0.923   0.779   1.968 -0.1764 -0.1632 -0.5623
 8430SOL     OW33491   6.098   5.000   0.373 -0.3431  1.0022 -0.0563
 8430SOL    HW233492   6.188   4.971   0.358 -0.7746 -0.5779  0.1763
 8430SOL    HW333493   6.105   5.065   0.442  0.5906  0.6076  0.2474
 8430SOL    MW433494   6.111   5.005   0.380 -0.2768  0.7417  0.0144
 8431SOL     OW33495   4.163   3.254   1.260  0.6921 -0.1465  0.3072
 8431SOL    HW233496   4.083   3.305   1.250  1.5932  1.1000 -1.0347
 8431SOL    HW333497   4.154   3.182   1.196 -0.3671 -1.4667  1.8624
 8431SOL    MW433498   4.152   3.251   1.250  0.6712 -0.1562  0.3353
 8432SOL     OW33499   2.667   4.408   4.459 -0.1342 -0.3812  0.6203
 8432SOL    HW233500   2.707   4.408   4.372 -0.3518 -2.2362  0.4748
 8432SOL    HW333501   2.661   4.500   4.483  2.0751  0.0792 -0.3467
 8432SOL    MW433502   2.672   4.420   4.451  0.1286 -0.5652  0.4735
 8433SOL     OW33503   3.212   4.660   5.370  0.2298 -0.1373 -0.0342
 8433SOL    HW233504   3.194   4.681   5.278  0.0347  2.0607  0.4636
 8433SOL    HW333505   3.158   4.721   5.420  0.7457 -0.9317  1.5541
 8433SOL    MW433506   3.203   4.671   5.364  0.2722  0.0479  0.2410
 8434SOL     OW33507   4.030   5.102   5.693  0.1711  0.2995  0.0158
 8434SOL    HW233508   3.999   5.013   5.707 -1.1367  0.4693 -1.4609
 8434SOL    HW333509   3.978   5.156   5.754  0.2003  0.1727  0.1523
 8434SOL    MW433510   4.019   5.098   5.703  0.0024  0.3051 -0.1610
 8435SOL     OW33511   5.807   0.281   5.245  0.5070 -0.4285  0.4725
 8435SOL    HW233512   5.737   0.216   5.258 -2.0244  2.0545  0.1952
 8435SOL    HW333513   5.856   0.279   5.327 -2.4918  0.5434  2.4696
 8435SOL    MW433514   5.804   0.272   5.258 -0.2227  0.0273  0.6994
 8436SOL     OW33515   6.332   6.048   3.320 -0.3596 -0.5058  0.0736
 8436SOL    HW233516   6.283   6.039   3.402 -0.2266 -0.5471  0.1477
 8436SOL    HW333517   6.324   6.140   3.297 -2.3933 -0.8944 -1.0866
 8436SOL    MW433518   6.324   6.059   3.328 -0.6104 -0.5625 -0.0697
 8437SOL     OW33519   3.316   5.663   3.152  0.0272 -1.3045  0.1981
 8437SOL    HW233520   3.225   5.639   3.169 -0.8238 -0.2778 -2.4846
 8437SOL    HW333521   3.349   5.592   3.096 -0.2659  0.0294 -1.7431
 8437SOL    MW433522   3.309   5.650   3.147 -0.1238 -0.9931 -0.4120
 8438SOL     OW33523   4.576   0.910   5.661  0.5188  0.0132  0.3112
 8438SOL    HW233524   4.543   0.999   5.648  1.5430  0.2247 -0.9426
 8438SOL    HW333525   4.597   0.906   5.755  0.5761  1.1253  0.3584
 8438SOL    MW433526   4.574   0.921   5.672  0.6615  0.1878  0.1520
 8439SOL     OW33527   2.622   0.727   5.910 -0.7325  0.1602 -0.1955
 8439SOL    HW233528   2.530   0.752   5.915 -0.9768 -0.2831 -1.7282
 8439SOL    HW333529   2.652   0.761   5.825 -0.0957 -1.5109 -0.6968
 8439SOL    MW433530   2.614   0.735   5.899 -0.6807 -0.1188 -0.4639
 8440SOL     OW33531   3.365   1.962   4.467 -0.2121  0.0872 -0.7063
 8440SOL    HW233532   3.333   1.904   4.398  0.7420  1.1278 -2.0739
 8440SOL    HW333533   3.287   1.983   4.518 -1.0260 -0.3829 -1.7146
 8440SOL    MW433534   3.350   1.957   4.465 -0.1936  0.1625 -1.0198
 8441SOL     OW33535   2.932   2.054   5.574 -0.5015 -0.2058  0.2827
 8441SOL    HW233536   2.984   2.072   5.496 -0.6877  0.0385  0.2141
 8441SOL    HW333537   2.853   2.108   5.563  0.4708  1.6014  1.7158
 8441SOL    MW433538   2.928   2.064   5.562 -0.3978  0.0649  0.4627
 8442SOL     OW33539   6.293   3.716   1.687  0.4237  0.1108 -0.0551
 8442SOL    HW233540   6.375   3.706   1.736  0.8013  0.3067 -0.6308
 8442SOL    HW333541   6.283   3.810   1.674  0.4402  0.0495 -0.5329
 8442SOL    MW433542   6.303   3.727   1.692  0.4757  0.1285 -0.1941
 8443SOL     OW33543   3.741   4.951   5.999 -0.4582 -0.1693  0.4325
 8443SOL    HW233544   3.768   5.043   6.006  1.2073 -0.6997  1.6759
 8443SOL    HW333545   3.764   4.913   6.083 -2.7332 -1.3752  0.5892
 8443SOL    MW433546   3.748   4.958   6.011 -0.5387 -0.3984  0.6172
 8444SOL     OW33547   6.311   4.352   5.801  0.1770 -0.1405 -0.5144
 8444SOL    HW233548   6.265   4.366   5.718 -1.6547 -0.4275  0.4043
 8444SOL    HW333549   6.241   4.338   5.865  1.5916 -2.1125  0.6981
 8444SOL    MW433550   6.295   4.352   5.798  0.1220 -0.4386 -0.2332
 8445SOL     OW33551   0.478   0.876   1.098  0.3683  0.2327  0.0826
 8445SOL    HW233552   0.522   0.793   1.115  0.5056 -0.0025 -1.2880
 8445SOL    HW333553   0.385   0.852   1.089  0.3471  0.2939  0.1409
 8445SOL    MW433554   0.471   0.861   1.099  0.3836  0.2097 -0.0905
 8446SOL     OW33555   1.886   6.315   4.149  0.7828 -0.2411  0.0052
 8446SOL    HW233556   1.924   6.359   4.073  0.1895  1.9293  0.8802
 8446SOL    HW333557   1.801   6.284   4.118  0.1142  1.4996 -0.0120
 8446SOL    MW433558   1.880   6.317   4.135  0.6163  0.2749  0.1183
 8447SOL     OW33559   6.168   0.927   4.027 -0.3153 -0.3114 -0.7079
 8447SOL    HW233560   6.202   1.016   4.030 -0.8581 -0.1189  0.8149
 8447SOL    HW333561   6.228   0.876   4.081 -2.4242  0.0927  2.2811
 8447SOL    MW433562   6.180   0.932   4.035 -0.6652 -0.2327 -0.1126
 8448SOL     OW33563   0.741   4.241   3.922  0.4512 -0.2596 -0.3848
 8448SOL    HW233564   0.780   4.170   3.870  1.5394 -0.5755  0.8022
 8448SOL    HW333565   0.817   4.286   3.960 -0.1788  1.9184 -1.5471
 8448SOL    MW433566   0.756   4.238   3.920  0.5117 -0.0140 -0.3816
 8449SOL     OW33567   5.379   6.054   2.385  0.1830  0.3269  0.3570
 8449SOL    HW233568   5.415   6.061   2.297 -0.9195  0.0064 -0.1473
 8449SOL    HW333569   5.361   6.144   2.411  1.1378  0.4706  0.5353
 8449SOL    MW433570   5.381   6.067   2.376  0.1635  0.3036  0.3140
 8450SOL     OW33571   1.684   0.457   1.092  0.6617  0.6914 -0.2882
 8450SOL    HW233572   1.760   0.400   1.103  0.9064  1.0212 -0.2616
 8450SOL    HW333573   1.617   0.401   1.053  0.4057 -0.0048  1.1010
 8450SOL    MW433574   1.685   0.442   1.088  0.6602  0.6431 -0.1014
 8451SOL     OW33575   3.944   3.186   2.651 -0.0313  0.5185 -0.1133
 8451SOL    HW233576   3.932   3.271   2.692  0.7590  0.6153 -0.0765
 8451SOL    HW333577   3.914   3.123   2.716 -0.0407  0.7349  0.0911
 8451SOL    MW433578   3.938   3.189   2.665  0.0717  0.5598 -0.0815
 8452SOL     OW33579   2.401   4.467   0.238 -0.3296 -0.1781 -0.0734
 8452SOL    HW233580   2.384   4.409   0.312  0.4077  1.8851  1.8423
 8452SOL    HW333581   2.489   4.444   0.210  0.2783  0.4664  1.1962
 8452SOL    MW433582   2.410   4.456   0.244 -0.1522  0.1791  0.3469
 8453SOL     OW33583   3.820   2.134   4.573  0.0460  1.4229 -0.1135
 8453SOL    HW233584   3.902   2.119   4.526 -0.3450  1.4965 -0.8416
 8453SOL    HW333585   3.828   2.081   4.652  1.6918  3.1328  0.9225
 8453SOL    MW433586   3.832   2.125   4.577  0.2116  1.6582 -0.0729
 8454SOL     OW33587   6.080   5.763   0.997  0.7300  0.3238  0.9448
 8454SOL    HW233588   6.007   5.820   1.020 -0.3636 -0.6697  0.0016
 8454SOL    HW333589   6.120   5.805   0.921 -2.7689 -2.2086 -2.6747
 8454SOL    MW433590   6.076   5.776   0.990  0.1241 -0.1414  0.3428
 8455SOL     OW33591   1.684   0.346   5.743  0.3453  0.0447 -0.1502
 8455SOL    HW233592   1.780   0.344   5.743  0.3640 -0.3414  1.5484
 8455SOL    HW333593   1.662   0.436   5.769  0.3219 -0.5787  2.2265
 8455SOL    MW433594   1.694   0.358   5.746  0.3447 -0.0885  0.3875
 8456SOL     OW33595   5.939   0.905   6.375 -0.2494 -0.6686 -0.1085
 8456SOL    HW233596   6.031   0.894   6.351  0.2558  2.6786 -0.1771
 8456SOL    HW333597   5.892   0.908   6.292 -0.0635 -0.1035 -0.1995
 8456SOL    MW433598   5.945   0.904   6.361 -0.1582 -0.1524 -0.1296
 8457SOL     OW33599   3.970   3.075   0.232  0.1078  0.2968 -0.1620
 8457SOL    HW233600   3.925   2.990   0.232 -4.2650  2.2724 -2.4074
 8457SOL    HW333601   3.942   3.117   0.151  1.6680  4.0692  1.0246
 8457SOL    MW433602   3.960   3.069   0.222 -0.2633  1.0552 -0.3017
 8458SOL     OW33603   5.162   0.027   6.272 -0.7984  0.1745 -0.4435
 8458SOL    HW233604   5.208  -0.041   6.321 -2.7667 -0.8645  0.0614
 8458SOL    HW333605   5.128   0.086   6.339 -2.1129 -0.3529 -0.6129
 8458SOL    MW433606   5.163   0.026   6.287 -1.2315 -0.0322 -0.3993
 8459SOL     OW33607   6.311   1.351   5.891  0.0078 -0.4588  0.1675
 8459SOL    HW233608   6.251   1.330   5.819 -1.5891  1.7197  0.7931
 8459SOL    HW333609   6.388   1.388   5.847  0.0655 -1.3579 -0.5259
 8459SOL    MW433610   6.313   1.353   5.876 -0.1953 -0.2900  0.1586
 8460SOL     OW33611   2.472   5.052   5.436 -0.1655 -0.0043 -0.0730
 8460SOL    HW233612   2.401   5.033   5.375 -0.4092  2.4157 -0.6485
 8460SOL    HW333613   2.441   5.020   5.520  0.1781 -3.3980 -1.1089
 8460SOL    MW433614   2.459   5.045   5.439 -0.1523 -0.1328 -0.2856
 8461SOL     OW33615   1.870   4.693   5.774 -0.5637  0.1077 -0.1670
 8461SOL    HW233616   1.935   4.762   5.760 -1.5356  0.6361 -2.8237
 8461SOL    HW333617   1.884   4.633   5.701 -2.1331 -0.4902 -0.0106
 8461SOL    MW433618   1.880   4.695   5.762 -0.8990  0.0985 -0.4969
 8462SOL     OW33619   5.295   0.446   3.743 -0.6107 -0.0981 -0.5281
 8462SOL    HW233620   5.248   0.526   3.764 -0.6281 -0.1232 -0.4711
 8462SOL    HW333621   5.365   0.474   3.684 -0.5330 -0.0206 -0.3983
 8462SOL    MW433622   5.298   0.460   3.738 -0.6027 -0.0912 -0.5035
 8463SOL     OW33623   1.458   0.201   5.843  0.1369  0.2945  0.2068
 8463SOL    HW233624   1.521   0.192   5.771  3.1822  0.7077  2.6023
 8463SOL    HW333625   1.438   0.111   5.869  0.0317  0.1588 -0.3344
 8463SOL    MW433626   1.464   0.188   5.837  0.5248  0.3311  0.4514
 8464SOL     OW33627   6.150   1.571   2.505  0.2426 -0.2859 -0.0507
 8464SOL    HW233628   6.120   1.528   2.425 -1.3113  1.5393 -0.5221
 8464SOL    HW333629   6.207   1.641   2.474 -0.9222  0.8724  0.3569
 8464SOL    MW433630   6.154   1.575   2.490 -0.1161  0.1077 -0.0591
 8465SOL     OW33631   0.329   2.620   4.319 -0.1238  0.5264  0.6432
 8465SOL    HW233632   0.396   2.687   4.312  0.6963 -0.3662 -0.3347
 8465SOL    HW333633   0.335   2.590   4.410  0.8114  0.4653  0.5739
 8465SOL    MW433634   0.339   2.625   4.330  0.1078  0.4006  0.5051
 8466SOL     OW33635   1.706   5.946   5.435  0.3868  0.1829 -0.1589
 8466SOL    HW233636   1.672   5.915   5.352  1.6127  0.3654 -0.7525
 8466SOL    HW333637   1.757   6.024   5.413 -1.1736  1.6349  1.0821
 8466SOL    MW433638   1.708   5.952   5.421  0.3427  0.3985 -0.0735
 8467SOL     OW33639   1.686   4.676   1.618 -0.5013 -0.0001  0.2658
 8467SOL    HW233640   1.667   4.652   1.709  1.4241 -1.0723  0.4317
 8467SOL    HW333641   1.707   4.593   1.575 -0.4507  0.6070 -0.9283
 8467SOL    MW433642   1.686   4.661   1.624 -0.2406 -0.0615  0.1301
 8468SOL     OW33643   1.489   1.120   5.967 -0.3376 -0.6128 -0.2535
 8468SOL    HW233644   1.394   1.111   5.962 -0.4544 -0.9530  1.6384
 8468SOL    HW333645   1.519   1.037   6.004  0.4115  0.2726  1.2609
 8468SOL    MW433646   1.480   1.108   5.971 -0.2542 -0.5409  0.1959
 8469SOL     OW33647   1.878   4.080   6.111 -0.2843 -0.5376  0.6400
 8469SOL    HW233648   1.817   4.123   6.051 -2.0709 -2.9153  0.6049
 8469SOL    HW333649   1.964   4.096   6.073 -1.1881 -0.1886 -1.4083
 8469SOL    MW433650   1.881   4.088   6.098 -0.6393 -0.8052  0.3651
 8470SOL     OW33651   5.216   2.146   1.660  0.1563  0.8537 -0.5983
 8470SOL    HW233652   5.241   2.142   1.568  1.4909  1.1410 -0.2621
 8470SOL    HW333653   5.298   2.164   1.707 -0.4919  0.6662  0.6484
 8470SOL    MW433654   5.230   2.148   1.654  0.2469  0.8669 -0.3894
 8471SOL     OW33655   3.426   1.936   4.162  0.5493  0.2044  0.2678
 8471SOL    HW233656   3.379   1.853   4.170  0.7580 -0.3088 -2.8093
 8471SOL    HW333657   3.515   1.916   4.190  0.6338 -0.6731 -0.5836
 8471SOL    MW433658   3.431   1.922   4.167  0.5880  0.0209 -0.2505
 8472SOL     OW33659   3.059   1.886   2.997 -0.5167  0.4271 -0.7671
 8472SOL    HW233660   3.032   1.946   3.067 -0.4758 -0.1577 -0.2437
 8472SOL    HW333661   2.999   1.812   3.005 -1.3657  0.9188 -2.1827
 8472SOL    MW433662   3.047   1.884   3.007 -0.6233  0.4149 -0.8848
 8473SOL     OW33663   5.679   5.419   3.576 -0.1376  0.8023 -0.1969
 8473SOL    HW233664   5.718   5.361   3.511 -2.3416 -0.9881 -0.0713
 8473SOL    HW333665   5.585   5.399   3.573 -0.3962  0.6493  3.4408
 8473SOL    MW433666   5.671   5.408   3.567 -0.4625  0.5459  0.2996
 8474SOL     OW33667   2.115   5.958   3.614 -0.0077 -0.3974 -0.2374
 8474SOL    HW233668   2.138   6.007   3.693  1.0330  0.9000 -1.2880
 8474SOL    HW333669   2.024   5.934   3.626  0.1247 -0.1959  1.3355
 8474SOL    MW433670   2.106   5.961   3.626  0.1471 -0.1997 -0.1685
 8475SOL     OW33671   2.547   4.075   5.606  0.4320  0.0412  0.4928
 8475SOL    HW233672   2.518   3.984   5.611 -0.4470  0.1987 -1.2322
 8475SOL    HW333673   2.485   4.123   5.661 -0.5497 -0.1016 -0.4613
 8475SOL    MW433674   2.535   4.069   5.614  0.1865  0.0431  0.1393
 8476SOL     OW33675   3.724   2.561   1.452 -0.5462 -0.2520 -0.1862
 8476SOL    HW233676   3.810   2.601   1.459  0.2116 -1.5234 -1.6490
 8476SOL    HW333677   3.687   2.597   1.371 -0.7358 -0.8492 -0.3744
 8476SOL    MW433678   3.730   2.571   1.442 -0.4713 -0.4985 -0.4040
 8477SOL     OW33679   3.249   1.773   4.916  0.1978 -0.3807 -0.5189
 8477SOL    HW233680   3.313   1.740   4.979  0.0407 -1.2805 -0.8132
 8477SOL    HW333681   3.167   1.729   4.940 -0.5224  1.3291  0.3355
 8477SOL    MW433682   3.246   1.763   4.928  0.0820 -0.2738 -0.4450
 8478SOL     OW33683   0.354   4.100   0.370  0.2020  0.3263 -0.1079
 8478SOL    HW233684   0.300   4.129   0.443  1.4461 -0.2659  1.0943
 8478SOL    HW333685   0.306   4.026   0.332  0.6058 -0.8876  1.6139
 8478SOL    MW433686   0.341   4.094   0.375  0.4194  0.0880  0.2779
 8479SOL     OW33687   1.983   5.095   4.734 -0.0405  0.0686  0.2359
 8479SOL    HW233688   2.050   5.032   4.707 -1.0633  0.0317 -2.5150
 8479SOL    HW333689   1.944   5.057   4.812  0.8169 -1.6321 -0.1206
 8479SOL    MW433690   1.987   5.082   4.741 -0.0623 -0.1607 -0.1741
 8480SOL     OW33691   6.141   0.405   1.746  0.0602 -0.2671  0.2231
 8480SOL    HW233692   6.188   0.338   1.696  0.6084 -0.4748  0.9898
 8480SOL    HW333693   6.132   0.478   1.685 -0.7704 -1.1141 -0.7064
 8480SOL    MW433694   6.146   0.406   1.732  0.0229 -0.4062  0.2016
 8481SOL     OW33695   0.054   1.701   2.676  0.2137  0.1616 -0.0102
 8481SOL    HW233696   0.015   1.614   2.675 -0.2615  0.3759 -0.2565
 8481SOL    HW333697   0.004   1.751   2.613  1.2910  0.2809 -0.8026
 8481SOL    MW433698   0.043   1.696   2.668  0.2931  0.2056 -0.1472
 8482SOL     OW33699   6.074   0.121   5.626  0.0544 -0.3941  0.8865
 8482SOL    HW233700   6.069   0.088   5.716  0.3773 -0.8856  0.7308
 8482SOL    HW333701   6.014   0.195   5.624  1.1007  0.5078  1.8765
 8482SOL    MW433702   6.065   0.126   5.638  0.2350 -0.3399  0.9966
 8483SOL     OW33703   4.775   4.088   6.157 -0.2502  0.2903 -0.7959
 8483SOL    HW233704   4.749   3.996   6.148  1.9931 -0.5995  0.8787
 8483SOL    HW333705   4.843   4.100   6.090  0.4923  0.2710 -0.0604
 8483SOL    MW433706   4.781   4.077   6.147  0.1438  0.1704 -0.4779
 8484SOL     OW33707   5.528   0.775   5.704  0.5197 -0.3181  0.3822
 8484SOL    HW233708   5.446   0.727   5.720 -0.2147  0.4280 -0.9000
 8484SOL    HW333709   5.508   0.865   5.730  0.8391 -0.0783 -0.1868
 8484SOL    MW433710   5.514   0.781   5.710  0.4649 -0.1880  0.1380
 8485SOL     OW33711   4.225   2.054   5.950  0.2059  0.0271 -0.2897
 8485SOL    HW233712   4.215   2.076   5.857  1.0533  1.2705 -0.1147
 8485SOL    HW333713   4.135   2.046   5.983 -0.1097  0.5182 -1.0137
 8485SOL    MW433714   4.212   2.056   5.942  0.2760  0.2559 -0.3622
 8486SOL     OW33715   3.947   2.227   2.187  0.1935 -0.0101  0.1681
 8486SOL    HW233716   4.009   2.300   2.190 -0.4880  0.5794  0.1469
 8486SOL    HW333717   3.954   2.194   2.098  2.2929 -1.5779  0.8217
 8486SOL    MW433718   3.956   2.232   2.176  0.3805 -0.1392  0.2515
 8487SOL     OW33719   2.716   0.566   4.404  0.4450  0.6473  0.2137
 8487SOL    HW233720   2.811   0.554   4.396  0.2290 -0.7899 -0.6947
 8487SOL    HW333721   2.696   0.640   4.347  0.8910  0.1489 -0.6245
 8487SOL    MW433722   2.726   0.574   4.395  0.4753  0.3920 -0.0168
 8488SOL     OW33723   4.173   4.658   0.370 -0.0379 -0.0519 -0.5926
 8488SOL    HW233724   4.256   4.702   0.354 -1.2264  2.9078  0.5688
 8488SOL    HW333725   4.179   4.626   0.460 -0.2304  0.4490 -0.3952
 8488SOL    MW433726   4.184   4.660   0.380 -0.2201  0.4047 -0.4133
 8489SOL     OW33727   3.772   3.541   3.019 -0.0420  0.2743 -0.3472
 8489SOL    HW233728   3.779   3.635   3.037 -0.5858  0.2746 -0.1228
 8489SOL    HW333729   3.848   3.503   3.063  0.4539  0.6601 -0.8461
 8489SOL    MW433730   3.783   3.549   3.027 -0.0484  0.3253 -0.3834
 8490SOL     OW33731   6.046   2.273   0.604 -0.2068  0.3738 -0.5941
 8490SOL    HW233732   6.141   2.262   0.600 -0.2130 -0.6489  1.1030
 8490SOL    HW333733   6.033   2.367   0.611  0.7833  0.4311  0.8732
 8490SOL    MW433734   6.057   2.284   0.604 -0.0769  0.2464 -0.1766
 8491SOL     OW33735   5.632   4.968   6.258 -0.0128  0.0407  0.1727
 8491SOL    HW233736   5.562   4.903   6.263  0.0550  0.0597  1.8045
 8491SOL    HW333737   5.712   4.916   6.248  0.1670 -0.2431  2.6202
 8491SOL    MW433738   5.634   4.952   6.257  0.0198  0.0058  0.7109
 8492SOL     OW33739   1.184   5.890   2.191 -0.1161 -0.0448  0.4416
 8492SOL    HW233740   1.267   5.844   2.189  0.4285  0.6554  3.0411
 8492SOL    HW333741   1.122   5.828   2.231  0.0520  0.5769  1.7375
 8492SOL    MW433742   1.187   5.876   2.196 -0.0221  0.1296  0.9556
 8493SOL     OW33743   1.839   5.926   3.555 -0.2105  0.3414  0.1403
 8493SOL    HW233744   1.778   5.854   3.571  1.5565 -1.1312  0.5818
 8493SOL    HW333745   1.869   5.913   3.465 -0.4061  0.9558 -0.0172
 8493SOL    MW433746   1.835   5.915   3.546 -0.0032  0.2282  0.1778
 8494SOL     OW33747   0.151   0.105   4.269 -0.0807 -0.9433  0.2034
 8494SOL    HW233748   0.207   0.089   4.193 -2.5658 -0.9536 -1.7349
 8494SOL    HW333749   0.174   0.193   4.297  1.4587 -1.2488  0.0077
 8494SOL    MW433750   0.161   0.114   4.263 -0.2055 -0.9850 -0.0782
 8495SOL     OW33751   0.102   1.845   0.520 -0.0512  0.3642  0.8967
 8495SOL    HW233752   0.103   1.889   0.605 -0.4879 -1.1504  1.7249
 8495SOL    HW333753   0.194   1.830   0.499  0.0243 -0.4047  1.7382
 8495SOL    MW433754   0.114   1.849   0.528 -0.0989  0.0630  1.1170
 8496SOL     OW33755   3.437   1.893   0.932 -0.2440  0.1096 -0.0129
 8496SOL    HW233756   3.479   1.955   0.992  0.5901 -0.8564  0.4068
 8496SOL    HW333757   3.387   1.835   0.989 -0.3781 -0.1027 -0.3469
 8496SOL    MW433758   3.436   1.894   0.948 -0.1517 -0.0459 -0.0016
 8497SOL     OW33759   4.782   1.661   2.041 -0.0124  0.0627 -0.4847
 8497SOL    HW233760   4.838   1.702   1.975  1.4592 -0.5435  0.3621
 8497SOL    HW333761   4.834   1.589   2.076 -0.7831  0.3412  1.3192
 8497SOL    MW433762   4.796   1.657   2.037  0.0801  0.0195 -0.1350
 8498SOL     OW33763   2.907   0.133   0.215 -0.1246 -0.4097  0.0844
 8498SOL    HW233764   2.832   0.098   0.262 -1.2511  0.3879 -1.0536
 8498SOL    HW333765   2.897   0.228   0.220  1.0788 -0.2684  0.3058
 8498SOL    MW433766   2.896   0.141   0.222 -0.1144 -0.2858 -0.0365
 8499SOL     OW33767   3.417   4.082   4.325 -0.0814  0.6162 -0.1383
 8499SOL    HW233768   3.504   4.048   4.348 -1.0569 -2.3974 -0.3976
 8499SOL    HW333769   3.379   4.109   4.409  0.0517 -0.9146  0.4535
 8499SOL    MW433770   3.423   4.081   4.339 -0.1926  0.0166 -0.0945
 8500SOL     OW33771   4.743   1.497   0.446  0.0580 -0.0191 -0.2560
 8500SOL    HW233772   4.694   1.550   0.383 -0.6510 -2.0625 -1.5143
 8500SOL    HW333773   4.752   1.412   0.404 -1.7097 -1.9788  2.9075
 8500SOL    MW433774   4.738   1.493   0.432 -0.2688 -0.5472 -0.0046
 8501SOL     OW33775   5.366   1.101   5.073 -0.0379  0.6251  0.2533
 8501SOL    HW233776   5.337   1.089   5.164 -1.1721 -0.4790 -0.2225
 8501SOL    HW333777   5.461   1.108   5.079  0.1204 -1.5401  1.3583
 8501SOL    MW433778   5.375   1.100   5.086 -0.1666  0.1938  0.3363
 8502SOL     OW33779   6.031   1.278   5.546 -0.0082  0.3352  0.5235
 8502SOL    HW233780   5.987   1.270   5.461  0.5248 -2.8457  0.4470
 8502SOL    HW333781   6.119   1.310   5.524 -0.1750  0.4232 -0.0376
 8502SOL    MW433782   6.037   1.281   5.532  0.0401 -0.0729  0.4394
 8503SOL     OW33783   0.745   1.461   1.452 -0.4674 -0.3327 -0.8776
 8503SOL    HW233784   0.677   1.520   1.485  0.0978 -0.0588 -0.1519
 8503SOL    HW333785   0.732   1.379   1.500  0.2826  0.0270 -0.0264
 8503SOL    MW433786   0.735   1.458   1.463 -0.2938 -0.2491 -0.6696
 8504SOL     OW33787   2.997   2.525   5.592  0.7645  0.2911 -0.2764
 8504SOL    HW233788   3.009   2.448   5.648 -1.1856  0.2583  0.1612
 8504SOL    HW333789   3.086   2.553   5.571  1.5538 -2.5781 -1.1607
 8504SOL    MW433790   3.010   2.518   5.597  0.6113 -0.0918 -0.3353
 8505SOL     OW33791   1.698   2.239   5.047  0.5802  0.0063 -0.0785
 8505SOL    HW233792   1.757   2.305   5.084  0.3588 -0.2956  0.8337
 8505SOL    HW333793   1.657   2.283   4.973  0.7186  0.7781  0.2905
 8505SOL    MW433794   1.700   2.254   5.042  0.5692  0.0683  0.0905
 8506SOL     OW33795   3.153   6.093   3.394 -0.9447 -0.4899 -0.0178
 8506SOL    HW233796   3.125   6.007   3.426  1.3186 -1.5183 -0.5457
 8506SOL    HW333797   3.120   6.098   3.304  0.2212 -1.5503 -0.5368
 8506SOL    MW433798   3.145   6.082   3.386 -0.4922 -0.7655 -0.1560
 8507SOL     OW33799   2.142   4.195   6.005  0.3110  0.0809  0.1381
 8507SOL    HW233800   2.160   4.146   5.925 -0.0106 -1.3582  0.9096
 8507SOL    HW333801   2.229   4.209   6.044  0.3279 -1.2326  0.6485
 8507SOL    MW433802   2.156   4.190   6.000  0.2708 -0.2823  0.3072
 8508SOL     OW33803   1.557   2.370   1.472 -0.4172  0.3361 -0.3923
 8508SOL    HW233804   1.638   2.413   1.442 -0.5473  2.5349  2.0443
 8508SOL    HW333805   1.496   2.442   1.487 -1.9907 -1.0717  0.2680
 8508SOL    MW433806   1.560   2.385   1.470 -0.6420  0.4405  0.0163
 8509SOL     OW33807   3.301   0.493   5.661  0.7747  0.2469 -0.6376
 8509SOL    HW233808   3.238   0.458   5.598  2.0842 -2.0350 -0.8139
 8509SOL    HW333809   3.249   0.517   5.737 -0.3592 -1.5820 -0.7760
 8509SOL    MW433810   3.286   0.491   5.663  0.7979 -0.2955 -0.6791
 8510SOL     OW33811   1.363   4.963   2.376 -0.2323  0.1196 -0.1393
 8510SOL    HW233812   1.312   4.886   2.353 -1.2177  0.9431 -0.8303
 8510SOL    HW333813   1.396   4.945   2.464 -0.6391 -0.9829 -0.1980
 8510SOL    MW433814   1.360   4.951   2.384 -0.4160  0.0828 -0.2382
 8511SOL     OW33815   1.979   2.921   2.588 -0.3022  0.0964 -0.3169
 8511SOL    HW233816   1.953   2.973   2.664 -0.2696  0.6591 -0.6869
 8511SOL    HW333817   2.048   2.863   2.622 -1.7275 -1.1488  0.5783
 8511SOL    MW433818   1.985   2.920   2.603 -0.4860  0.0063 -0.2476
 8512SOL     OW33819   4.361   6.364   1.402  0.1761 -0.3416 -0.6504
 8512SOL    HW233820   4.349   6.388   1.494  0.5049  1.3779 -1.0165
 8512SOL    HW333821   4.307   6.286   1.390 -0.8842  0.1451  0.6917
 8512SOL    MW433822   4.353   6.357   1.413  0.0796 -0.0505 -0.5216
 8513SOL     OW33823   1.181   2.245   0.923  1.3399 -0.1606 -0.6003
 8513SOL    HW233824   1.245   2.314   0.906  0.7917  0.6813  0.5869
 8513SOL    HW333825   1.106   2.290   0.960  0.7042 -1.3238 -0.4091
 8513SOL    MW433826   1.180   2.260   0.926  1.1837 -0.2030 -0.4184
 8514SOL     OW33827   4.777   0.281   3.953  0.0368 -0.7927  0.1089
 8514SOL    HW233828   4.704   0.301   3.894  1.8645  0.8473 -1.7467
 8514SOL    HW333829   4.783   0.185   3.951 -0.6778 -0.8425 -1.4856
 8514SOL    MW433830   4.768   0.271   3.945  0.1836 -0.5829 -0.3463
 8515SOL     OW33831   5.374   2.263   0.033  0.0274  0.6287 -0.2184
 8515SOL    HW233832   5.411   2.315  -0.038 -0.5353  4.2679  1.9042
 8515SOL    HW333833   5.443   2.262   0.100  0.4604 -2.5262 -0.5726
 8515SOL    MW433834   5.388   2.270   0.032  0.0103  0.6926  0.0150
 8516SOL     OW33835   4.686   4.228   1.261  0.0945  0.5287  0.1110
 8516SOL    HW233836   4.646   4.277   1.189 -0.3726  0.0711  0.0560
 8516SOL    HW333837   4.780   4.229   1.241 -0.1499 -0.7596 -1.2556
 8516SOL    MW433838   4.693   4.235   1.249  0.0006  0.2984 -0.0766
 8517SOL     OW33839   2.026   4.469   6.349 -0.1607 -0.4887 -0.2633
 8517SOL    HW233840   1.975   4.391   6.369 -0.7515  0.4911  2.3863
 8517SOL    HW333841   2.081   4.483   6.426 -0.0905  1.7254 -0.6477
 8517SOL    MW433842   2.027   4.461   6.362 -0.2294 -0.0673  0.0356
 8518SOL     OW33843   0.184   1.725   5.601 -0.0518 -0.0036 -0.7680
 8518SOL    HW233844   0.257   1.763   5.649  0.3140  0.0743 -1.3742
 8518SOL    HW333845   0.208   1.736   5.509 -1.7988  1.9359 -1.0453
 8518SOL    MW433846   0.197   1.731   5.595 -0.2340  0.2626 -0.8846
 8519SOL     OW33847   1.288   4.892   5.380  0.2182 -0.6135  0.0493
 8519SOL    HW233848   1.342   4.861   5.453  1.4474  1.9888  0.3623
 8519SOL    HW333849   1.347   4.947   5.328 -2.0242  2.4011  0.4111
 8519SOL    MW433850   1.303   4.895   5.383  0.0845  0.1275  0.1384
 8520SOL     OW33851   0.127   2.572   2.593 -0.1952 -0.3688 -0.1529
 8520SOL    HW233852   0.219   2.570   2.568  0.6028 -0.1672  2.5590
 8520SOL    HW333853   0.107   2.482   2.621 -0.7104 -0.3096 -0.3110
 8520SOL    MW433854   0.136   2.560   2.593 -0.1579 -0.3344  0.1840
 8521SOL     OW33855   0.479   6.064   4.140 -0.2488  0.1266  0.1112
 8521SOL    HW233856   0.553   6.110   4.101 -1.2396  0.7639 -1.0656
 8521SOL    HW333857   0.510   6.039   4.227  0.3167  3.2407  0.9535
 8521SOL    MW433858   0.493   6.067   4.147 -0.3049  0.6216  0.0671
 8522SOL     OW33859   0.680   0.118   5.706 -0.1201  0.1334  0.0316
 8522SOL    HW233860   0.614   0.091   5.770  0.0365 -3.8017 -1.1921
 8522SOL    HW333861   0.762   0.082   5.740  0.1952 -0.7843 -1.6209
 8522SOL    MW433862   0.682   0.110   5.719 -0.0578 -0.5068 -0.3479
 8523SOL     OW33863   4.187   1.609   4.299 -0.1358  0.0832 -0.1175
 8523SOL    HW233864   4.246   1.561   4.356  0.2216 -0.6932 -1.1194
 8523SOL    HW333865   4.243   1.669   4.250 -0.1588 -0.6376 -1.0535
 8523SOL    MW433866   4.202   1.611   4.300 -0.0917 -0.1144 -0.3732
 8524SOL     OW33867   0.407   0.240   1.453 -0.1987  0.3131 -0.7798
 8524SOL    HW233868   0.482   0.205   1.405 -0.3296 -0.1405 -0.6626
 8524SOL    HW333869   0.360   0.293   1.389 -0.1244  0.0796 -1.0280
 8524SOL    MW433870   0.411   0.242   1.438 -0.2062  0.2224 -0.7971
 8525SOL     OW33871   4.231   2.194   2.461  0.5125 -0.2125 -0.6149
 8525SOL    HW233872   4.309   2.247   2.448  0.7986 -0.3876  0.3304
 8525SOL    HW333873   4.158   2.255   2.452  0.8587  1.1522  3.5744
 8525SOL    MW433874   4.231   2.209   2.458  0.5960 -0.0555  0.0626
 8526SOL     OW33875   3.378   1.101   4.739  0.0796  0.8951  0.0316
 8526SOL    HW233876   3.411   1.185   4.708 -0.9383  1.2449 -0.1447
 8526SOL    HW333877   3.420   1.036   4.683  1.0616  1.2521  0.3253
 8526SOL    MW433878   3.388   1.104   4.728  0.0749  0.9884  0.0471
 8527SOL     OW33879   4.241   2.091   2.173  0.2762  0.5753 -0.1003
 8527SOL    HW233880   4.223   2.169   2.121  2.3296  0.9848 -0.2949
 8527SOL    HW333881   4.215   2.114   2.262  0.6073  1.3920 -0.2086
 8527SOL    MW433882   4.235   2.104   2.178  0.5908  0.7370 -0.1403
 8528SOL     OW33883   1.678   1.447   3.310  0.1543  0.1452 -0.4632
 8528SOL    HW233884   1.663   1.367   3.359  2.3612 -0.2666 -0.3832
 8528SOL    HW333885   1.725   1.504   3.370 -1.0034  1.3854 -0.6645
 8528SOL    MW433886   1.682   1.444   3.325  0.2927  0.2545 -0.4792
 8529SOL     OW33887   5.404   2.593   2.820 -0.0754 -0.2867  0.2327
 8529SOL    HW233888   5.493   2.572   2.848 -0.6610 -1.8265  1.0237
 8529SOL    HW333889   5.405   2.580   2.725  0.7872  0.7056  0.0825
 8529SOL    MW433890   5.416   2.589   2.811 -0.0388 -0.3589  0.3173
 8530SOL     OW33891   3.717   3.357   1.483 -0.0913  0.2117  0.0975
 8530SOL    HW233892   3.776   3.317   1.546 -0.4088 -0.7934 -0.2212
 8530SOL    HW333893   3.726   3.451   1.498  1.9646  0.1268 -0.2797
 8530SOL    MW433894   3.726   3.364   1.493  0.1380  0.0679  0.0057
 8531SOL     OW33895   1.852   3.839   5.199 -0.4720  0.2759 -0.3336
 8531SOL    HW233896   1.847   3.750   5.166 -0.2708 -0.4181  1.4369
 8531SOL    HW333897   1.761   3.862   5.221 -0.3739  0.0748  0.2920
 8531SOL    MW433898   1.839   3.831   5.198 -0.4325  0.1578 -0.0175
 8532SOL     OW33899   0.396   0.644   2.674 -0.2966 -0.6999  0.2782
 8532SOL    HW233900   0.460   0.712   2.695  0.3807 -1.6664  1.4890
 8532SOL    HW333901   0.439   0.589   2.608 -1.1234  0.4133 -1.2465
 8532SOL    MW433902   0.410   0.645   2.668 -0.3163 -0.6805  0.2368
 8533SOL     OW33903   3.847   3.125   2.331  0.7336 -0.2028 -0.3827
 8533SOL    HW233904   3.848   3.047   2.386 -3.9445 -1.2180 -1.2698
 8533SOL    HW333905   3.826   3.196   2.391  1.3324 -0.2814 -0.0771
 8533SOL    MW433906   3.844   3.124   2.346  0.1954 -0.3471 -0.4594
 8534SOL     OW33907   3.494   2.050   5.182  0.3053 -0.0242  0.1708
 8534SOL    HW233908   3.548   2.003   5.119 -0.2419  0.1952 -0.4722
 8534SOL    HW333909   3.542   2.131   5.199  0.7598 -0.3609  0.5184
 8534SOL    MW433910   3.508   2.054   5.176  0.2931 -0.0397  0.1318
 8535SOL     OW33911   6.126   5.287   5.842 -0.4691  0.2037  0.0580
 8535SOL    HW233912   6.163   5.366   5.881 -2.0733 -0.1432  2.5849
 8535SOL    HW333913   6.041   5.314   5.807  0.0680  0.0749 -1.3964
 8535SOL    MW433914   6.119   5.301   5.843 -0.6099  0.1409  0.1995
 8536SOL     OW33915   6.282   3.719   0.876 -0.1036 -0.0347 -0.0081
 8536SOL    HW233916   6.297   3.737   0.784  2.1888 -0.2281  0.2732
 8536SOL    HW333917   6.369   3.717   0.915 -1.0509  0.9104  2.3398
 8536SOL    MW433918   6.295   3.721   0.869  0.0738  0.0644  0.3388
 8537SOL     OW33919   2.714   3.918   0.799 -0.0705  0.0139  0.2806
 8537SOL    HW233920   2.656   3.976   0.849  0.8434  2.7447 -1.5684
 8537SOL    HW333921   2.801   3.936   0.834  0.1225 -1.0397  0.3577
 8537SOL    MW433922   2.718   3.928   0.810  0.0756  0.2352  0.0468
 8538SOL     OW33923   0.045   4.722   3.977  0.3216 -0.1722  0.7155
 8538SOL    HW233924   0.057   4.776   3.899 -2.7147  1.4074  1.2088
 8538SOL    HW333925   0.111   4.653   3.969  0.0071 -0.2060 -3.3373
 8538SOL    MW433926   0.055   4.720   3.966 -0.1205  0.0317  0.2458
 8539SOL     OW33927   4.312   5.689   1.511  0.1832 -0.2910  0.5521
 8539SOL    HW233928   4.318   5.783   1.496 -0.1231 -0.1779  1.0864
 8539SOL    HW333929   4.297   5.682   1.606  1.4202 -0.9233  0.7153
 8539SOL    MW433930   4.311   5.701   1.522  0.3060 -0.3595  0.6441
 8540SOL     OW33931   1.890   1.305   4.102  0.3568 -0.1134  0.0814
 8540SOL    HW233932   1.888   1.338   4.012  1.4713 -2.5087 -0.9230
 8540SOL    HW333933   1.802   1.274   4.119  0.2412 -0.0031 -0.3210
 8540SOL    MW433934   1.878   1.305   4.093  0.4886 -0.4149 -0.1042
 8541SOL     OW33935   4.456   5.154   0.085  1.1505 -0.2541 -0.3118
 8541SOL    HW233936   4.512   5.213   0.136  1.9249 -1.8188  0.7263
 8541SOL    HW333937   4.509   5.132   0.008 -0.3746  2.8720 -2.5211
 8541SOL    MW433938   4.470   5.159   0.082  1.0515 -0.0481 -0.4663
 8542SOL     OW33939   3.110   0.078   2.813  0.2762  0.0845  0.1088
 8542SOL    HW233940   3.178   0.027   2.769 -1.6405 -2.0996 -0.5408
 8542SOL    HW333941   3.129   0.065   2.907  0.2700 -1.2616 -0.0513
 8542SOL    MW433942   3.122   0.069   2.820  0.0225 -0.3812  0.0020
 8543SOL     OW33943   1.347   6.147   1.015  0.5027  0.2762  0.4998
 8543SOL    HW233944   1.270   6.124   0.964  0.2601  0.4345  0.7943
 8543SOL    HW333945   1.313   6.177   1.099  0.9265 -1.4605  1.3518
 8543SOL    MW433946   1.332   6.148   1.019  0.5266  0.0680  0.6511
 8544SOL     OW33947   2.551   3.292   5.622  0.0560  0.0008  0.5268
 8544SOL    HW233948   2.505   3.253   5.696 -1.0724 -2.1991 -1.2324
 8544SOL    HW333949   2.638   3.252   5.625 -0.2253 -0.6413  0.2656
 8544SOL    MW433950   2.557   3.282   5.633 -0.1300 -0.3741  0.2602
 8545SOL     OW33951   3.385   4.315   5.546  0.1755  0.1527 -0.1185
 8545SOL    HW233952   3.316   4.363   5.591  0.6062 -0.2938  1.0578
 8545SOL    HW333953   3.439   4.278   5.616  1.5354  0.3800 -1.0005
 8545SOL    MW433954   3.383   4.316   5.561  0.4117  0.1238 -0.0797
 8546SOL     OW33955   5.408   5.213   2.513  0.7234 -0.2531 -0.0979
 8546SOL    HW233956   5.349   5.226   2.439  1.6593 -0.4375 -0.9046
 8546SOL    HW333957   5.380   5.130   2.552 -1.4523  1.1210  1.4084
 8546SOL    MW433958   5.397   5.204   2.508  0.5598 -0.0961 -0.0056
 8547SOL     OW33959   4.395   1.779   2.565 -0.1160  0.2613  0.0465
 8547SOL    HW233960   4.322   1.826   2.525  0.5499  1.7928  0.5386
 8547SOL    HW333961   4.464   1.845   2.574  0.9001 -0.8478  0.6928
 8547SOL    MW433962   4.394   1.794   2.561  0.1059  0.3171  0.1967
 8548SOL     OW33963   3.292   4.224   2.716 -0.3407 -0.1816  0.2085
 8548SOL    HW233964   3.212   4.171   2.710 -0.0081 -0.5881 -1.2020
 8548SOL    HW333965   3.275   4.300   2.660  0.2725 -0.3281 -0.1968
 8548SOL    MW433966   3.279   4.227   2.708 -0.2159 -0.2545 -0.0311
 8549SOL     OW33967   4.638   0.153   5.785  0.3218 -0.1474  0.2846
 8549SOL    HW233968   4.677   0.083   5.837  0.4417 -2.8731 -3.0827
 8549SOL    HW333969   4.547   0.157   5.815  0.5155 -1.2473  1.0815
 8549SOL    MW433970   4.631   0.144   5.796  0.3632 -0.6522 -0.0545
 8550SOL     OW33971   5.186   0.175   4.086  0.2457  0.1967  0.2437
 8550SOL    HW233972   5.102   0.144   4.121  0.4554 -0.7762 -0.0997
 8550SOL    HW333973   5.186   0.148   3.994  1.8074 -1.7262  0.7296
 8550SOL    MW433974   5.175   0.167   4.079  0.4794 -0.1853  0.2625
 8551SOL     OW33975   1.665   0.523   4.397  0.2687  0.1725 -0.3792
 8551SOL    HW233976   1.681   0.603   4.446 -1.0404  0.1817  0.0816
 8551SOL    HW333977   1.570   0.521   4.385  0.3301 -1.0656 -0.7887
 8551SOL    MW433978   1.655   0.533   4.402  0.1041  0.0104 -0.3724
 8552SOL     OW33979   4.530   1.466   5.587  0.4781 -0.2074 -0.6357
 8552SOL    HW233980   4.451   1.511   5.556 -1.4693 -2.9390 -0.0507
 8552SOL    HW333981   4.544   1.502   5.675 -0.1357  0.3039 -0.7333
 8552SOL    MW433982   4.521   1.476   5.594  0.1402 -0.5003 -0.5714
 8553SOL     OW33983   4.330   1.038   2.150 -0.1597 -0.1792  0.1082
 8553SOL    HW233984   4.335   1.132   2.164 -1.4754 -0.1219  0.3386
 8553SOL    HW333985   4.281   1.029   2.068  0.3213 -0.6554 -0.1305
 8553SOL    MW433986   4.324   1.049   2.141 -0.2698 -0.2345  0.1071
 8554SOL     OW33987   2.855   3.825   1.132 -0.2485  0.5440 -0.0301
 8554SOL    HW233988   2.887   3.744   1.092  0.1863  1.1575 -0.9429
 8554SOL    HW333989   2.805   3.795   1.209 -0.8889 -0.6447 -0.8780
 8554SOL    MW433990   2.852   3.810   1.137 -0.2756  0.4681 -0.2624
 8555SOL     OW33991   4.585   4.125   6.378  0.0658  0.1310 -0.7307
 8555SOL    HW233992   4.627   4.174   6.448 -0.9856 -0.3700  0.2889
 8555SOL    HW333993   4.649   4.124   6.307  2.1763 -1.4497  1.0840
 8555SOL    MW433994   4.599   4.131   6.378  0.2055 -0.1437 -0.3568
 8556SOL     OW33995   2.049   0.666   1.575 -0.0751 -0.2785  0.0236
 8556SOL    HW233996   2.013   0.736   1.629  0.5289  0.5141 -0.5789
 8556SOL    HW333997   2.137   0.650   1.610  0.5472  0.6394 -1.0420
 8556SOL    MW433998   2.056   0.673   1.587  0.0867 -0.0528 -0.1965
 8557SOL     OW33999   1.414   5.713   2.188  0.6012 -0.5191  0.3273
 8557SOL    HW234000   1.363   5.662   2.252 -0.6289  3.8034  3.2419
 8557SOL    HW334001   1.490   5.743   2.237  1.1482  0.6400 -1.1572
 8557SOL    MW434002   1.417   5.710   2.203  0.5110  0.2041  0.5160
 8558SOL     OW34003   1.267   1.995   4.731 -1.0171 -0.5187 -0.4218
 8558SOL    HW234004   1.191   1.937   4.736 -0.3356 -1.3690  1.8148
 8558SOL    HW334005   1.341   1.935   4.722 -0.2292 -0.2065  2.6592
 8558SOL    MW434006   1.267   1.979   4.731 -0.8233 -0.5897  0.2798
 8559SOL     OW34007   1.320   4.253   5.116  0.4138  0.4933  0.1802
 8559SOL    HW234008   1.263   4.179   5.138  0.5703  0.1852 -0.4303
 8559SOL    HW334009   1.260   4.318   5.078  0.2051  0.8720  1.1320
 8559SOL    MW434010   1.304   4.252   5.114  0.4069  0.5026  0.2252
 8560SOL     OW34011   1.730   2.044   2.330  0.3147 -0.0778  0.1028
 8560SOL    HW234012   1.687   2.130   2.325  1.7231  0.5745 -2.1572
 8560SOL    HW334013   1.723   2.009   2.241  1.7929 -1.2791  0.4326
 8560SOL    MW434014   1.723   2.051   2.318  0.6955 -0.1502 -0.1519
 8561SOL     OW34015   5.932   3.493   4.564 -0.1441  0.4363  0.2647
 8561SOL    HW234016   5.848   3.460   4.530 -0.7042  0.2889  1.7444
 8561SOL    HW334017   5.918   3.504   4.658  2.0457 -1.3813  0.9159
 8561SOL    MW434018   5.919   3.490   4.572  0.0709  0.1770  0.5458
 8562SOL     OW34019   4.108   1.141   3.628 -0.3613  0.5483 -0.0094
 8562SOL    HW234020   4.164   1.082   3.578  0.7002  0.7895  0.8311
 8562SOL    HW334021   4.136   1.229   3.601  0.3125  0.6820  1.0445
 8562SOL    MW434022   4.119   1.145   3.618 -0.1323  0.5977  0.2406
 8563SOL     OW34023   3.435   4.859   2.810 -0.8824 -0.2312  0.2633
 8563SOL    HW234024   3.380   4.937   2.815 -2.3981 -1.2407  0.2642
 8563SOL    HW334025   3.513   4.881   2.860 -1.3013  1.2471  0.3216
 8563SOL    MW434026   3.438   4.872   2.817 -1.1377 -0.1694  0.2711
 8564SOL     OW34027   1.076   0.392   3.527  0.1304  0.5891 -0.2203
 8564SOL    HW234028   1.155   0.337   3.526 -0.4704 -0.3684 -2.9691
 8564SOL    HW334029   1.018   0.350   3.590  0.7934 -0.2156 -0.1270
 8564SOL    MW434030   1.079   0.379   3.535  0.1386  0.3566 -0.5706
 8565SOL     OW34031   3.796   3.425   2.005  0.1096 -0.2847 -0.5465
 8565SOL    HW234032   3.844   3.366   2.063 -0.8070 -0.2920  0.2323
 8565SOL    HW334033   3.713   3.381   1.989 -0.1993  0.3500 -0.7405
 8565SOL    MW434034   3.792   3.411   2.011 -0.0521 -0.2019 -0.4693
 8566SOL     OW34035   3.617   1.439   5.581 -0.4730 -0.3641 -0.2130
 8566SOL    HW234036   3.662   1.518   5.611  0.1680 -1.4885  2.0523
 8566SOL    HW334037   3.647   1.370   5.641 -1.8589 -2.1020 -1.3975
 8566SOL    MW434038   3.627   1.440   5.593 -0.5712 -0.7418 -0.0704
 8567SOL     OW34039   3.651   3.077   1.846  0.0179  0.5672  0.3040
 8567SOL    HW234040   3.612   3.165   1.854  0.6757  0.7631  1.5319
 8567SOL    HW334041   3.582   3.025   1.804 -0.2402  1.7497 -0.8129
 8567SOL    MW434042   3.637   3.082   1.842  0.0707  0.7491  0.3186
 8568SOL     OW34043   5.288   0.885   4.904  0.0430  1.0316 -0.4210
 8568SOL    HW234044   5.356   0.827   4.939 -3.3463 -1.4050  3.0104
 8568SOL    HW334045   5.299   0.967   4.952  0.8510  0.8839 -0.3386
 8568SOL    MW434046   5.299   0.888   4.915 -0.2976  0.6906  0.0426
 8569SOL     OW34047   3.371   4.115   4.599  0.0552 -0.0405 -0.2217
 8569SOL    HW234048   3.460   4.148   4.586  0.0671 -0.1460 -0.4035
 8569SOL    HW334049   3.382   4.027   4.633  0.0198 -0.0513 -0.2380
 8569SOL    MW434050   3.384   4.108   4.602  0.0521 -0.0558 -0.2478
 8570SOL     OW34051   6.396   2.485   0.854 -0.0730  0.2227  0.1474
 8570SOL    HW234052   6.362   2.397   0.869 -1.1048  0.8594  1.8395
 8570SOL    HW334053   6.368   2.507   0.765 -2.3822 -0.0827  0.7341
 8570SOL    MW434054   6.388   2.476   0.844 -0.5138  0.2664  0.4481
 8571SOL     OW34055   4.120   3.107   3.757  1.0990  0.2351  0.0564
 8571SOL    HW234056   4.157   3.033   3.708  0.6420 -1.3289  1.9791
 8571SOL    HW334057   4.026   3.103   3.739  0.9838 -0.0861  0.7232
 8571SOL    MW434058   4.113   3.097   3.748  1.0235 -0.0136  0.3980
 8572SOL     OW34059   2.520   4.523   3.968 -0.1959  0.4346  0.6346
 8572SOL    HW234060   2.503   4.478   3.885 -1.3482 -0.1328  1.1629
 8572SOL    HW334061   2.482   4.466   4.035 -0.2842  1.4371  1.4657
 8572SOL    MW434062   2.513   4.510   3.966 -0.3596  0.4920  0.8139
 8573SOL     OW34063   5.015   5.480   6.103  0.7973 -0.2164 -0.0341
 8573SOL    HW234064   4.943   5.477   6.166  0.0516 -0.6263 -0.8992
 8573SOL    HW334065   5.018   5.393   6.065 -0.4582  0.6890 -2.4229
 8573SOL    MW434066   5.006   5.468   6.106  0.5333 -0.1510 -0.4634
 8574SOL     OW34067   5.810   5.590   4.803 -0.4426  0.0507 -0.0931
 8574SOL    HW234068   5.725   5.585   4.845 -0.7614  1.9469 -0.4037
 8574SOL    HW334069   5.796   5.647   4.728  0.7162 -1.0725 -1.2194
 8574SOL    MW434070   5.797   5.597   4.798 -0.3318  0.1527 -0.2827
 8575SOL     OW34071   4.839   0.301   2.383 -0.1301 -0.4571  0.8916
 8575SOL    HW234072   4.855   0.311   2.477  0.1579  0.0395  0.7944
 8575SOL    HW334073   4.912   0.346   2.341 -1.2241  0.9911  0.4320
 8575SOL    MW434074   4.851   0.308   2.390 -0.2364 -0.2005  0.8181
 8576SOL     OW34075   1.962   0.136   0.359  0.2164  0.1878  0.2067
 8576SOL    HW234076   1.968   0.212   0.301 -0.2857  0.7267  0.8440
 8576SOL    HW334077   2.052   0.104   0.366  0.4955  0.9439  0.2124
 8576SOL    MW434078   1.975   0.142   0.352  0.1869  0.3586  0.2916
 8577SOL     OW34079   4.069   3.224   3.379 -0.2751  0.1115 -0.2762
 8577SOL    HW234080   4.029   3.143   3.348  0.8356 -0.2246 -0.8891
 8577SOL    HW334081   4.012   3.254   3.450 -0.3898 -1.5131  0.3562
 8577SOL    MW434082   4.057   3.217   3.384 -0.1437 -0.1472 -0.2736
 8578SOL     OW34083   0.296   0.807   4.169 -0.7662 -0.0038  0.9730
 8578SOL    HW234084   0.229   0.740   4.181 -0.2745 -0.1744  3.0353
 8578SOL    HW334085   0.335   0.818   4.255  0.8880  1.1335  0.1315
 8578SOL    MW434086   0.292   0.799   4.182 -0.4831  0.1238  1.1341
 8579SOL     OW34087   1.095   0.572   1.215  0.0186 -0.2493  0.0392
 8579SOL    HW234088   1.063   0.650   1.170  0.9180  0.5521  0.7473
 8579SOL    HW334089   1.135   0.605   1.295  0.2998 -1.4588  0.4260
 8579SOL    MW434090   1.096   0.586   1.220  0.1743 -0.3032  0.1837
 8580SOL     OW34091   5.468   1.118   1.936  0.3667  0.2761 -0.8440
 8580SOL    HW234092   5.470   1.157   1.849 -0.2180  1.8140 -0.1996
 8580SOL    HW334093   5.387   1.068   1.939  0.3268  0.3239 -1.1258
 8580SOL    MW434094   5.458   1.116   1.925  0.2843  0.4853 -0.7962
 8581SOL     OW34095   2.794   3.199   4.149 -0.4432 -0.4513  0.0457
 8581SOL    HW234096   2.719   3.190   4.208 -0.9831  0.8883 -0.3897
 8581SOL    HW334097   2.756   3.227   4.066  0.5918  1.1407  0.0626
 8581SOL    MW434098   2.779   3.201   4.146 -0.3779 -0.0645 -0.0095
 8582SOL     OW34099   4.991   3.450   5.170 -0.0847  0.6128 -0.0070
 8582SOL    HW234100   5.068   3.459   5.226  0.5080  0.6385 -0.8126
 8582SOL    HW334101   4.917   3.466   5.229  0.4740 -0.2299  0.9659
 8582SOL    MW434102   4.992   3.453   5.185  0.0672  0.5050  0.0150
 8583SOL     OW34103   6.267   2.094   5.997 -0.3835 -0.1315 -0.1453
 8583SOL    HW234104   6.206   2.086   6.071 -0.0862  1.2943  0.2877
 8583SOL    HW334105   6.210   2.113   5.922 -0.5310  0.9073  0.2051
 8583SOL    MW434106   6.251   2.095   5.997 -0.3638  0.1937 -0.0420
 8584SOL     OW34107   2.498   0.448   3.592 -0.0440  0.2178 -0.2082
 8584SOL    HW234108   2.523   0.539   3.576 -1.3250  0.7942  0.8676
 8584SOL    HW334109   2.404   0.446   3.570 -0.3948 -0.4484  1.2862
 8584SOL    MW434110   2.489   0.460   3.587 -0.2593  0.2060  0.1309
 8585SOL     OW34111   6.304   3.619   4.675  0.6480 -0.2143 -0.7571
 8585SOL    HW234112   6.212   3.640   4.694  0.1652 -0.9885 -2.0732
 8585SOL    HW334113   6.300   3.539   4.622  2.2109 -1.3845  0.7714
 8585SOL    MW434114   6.291   3.611   4.670  0.7905 -0.4708 -0.7291
 8586SOL     OW34115   4.117   5.502   2.254 -0.1903 -0.1612  0.6481
 8586SOL    HW234116   4.143   5.557   2.328  1.1889  0.4871 -0.2973
 8586SOL    HW334117   4.170   5.423   2.263  0.8330  0.4094 -0.2866
 8586SOL    MW434118   4.127   5.498   2.265  0.1267 -0.0004  0.4001
 8587SOL     OW34119   3.536   2.346   2.552  0.4418  0.2513 -0.6996
 8587SOL    HW234120   3.566   2.395   2.476  2.3106  0.5910  0.1996
 8587SOL    HW334121   3.527   2.411   2.621 -1.6536  0.0189 -0.6734
 8587SOL    MW434122   3.539   2.361   2.551  0.4119  0.2655 -0.5775
 8588SOL     OW34123   4.374   5.320   3.236 -0.0612  0.0071 -0.3425
 8588SOL    HW234124   4.435   5.312   3.310 -0.1066 -2.9564 -0.5037
 8588SOL    HW334125   4.290   5.290   3.271 -0.2552 -0.7359 -1.4142
 8588SOL    MW434126   4.371   5.315   3.251 -0.0928 -0.4820 -0.5052
 8589SOL     OW34127   4.891   1.267   0.369 -0.0336  0.4217 -0.7082
 8589SOL    HW234128   4.918   1.324   0.297 -1.0930  1.7010 -0.1429
 8589SOL    HW334129   4.943   1.296   0.444 -0.2405  0.3525 -0.5330
 8589SOL    MW434130   4.901   1.279   0.370 -0.2007  0.5813 -0.6105
 8590SOL     OW34131   4.443   0.376   0.271  0.6651 -0.6085  0.0745
 8590SOL    HW234132   4.365   0.406   0.318  1.9340  0.1934  1.8057
 8590SOL    HW334133   4.482   0.312   0.331  1.0025 -1.4809 -1.0599
 8590SOL    MW434134   4.438   0.371   0.285  0.8770 -0.6178  0.1532
 8591SOL     OW34135   1.997   4.363   0.970 -0.3228  0.9819  1.1327
 8591SOL    HW234136   1.907   4.395   0.973 -1.3964 -1.2487 -2.0214
 8591SOL    HW334137   2.045   4.431   0.924 -1.1240  0.8897  0.1298
 8591SOL    MW434138   1.992   4.376   0.965 -0.5702  0.6754  0.5843
 8592SOL     OW34139   5.786   3.141   5.983 -0.1213 -0.0158  0.4635
 8592SOL    HW234140   5.715   3.090   5.945  0.7227 -1.0335  0.2072
 8592SOL    HW334141   5.793   3.218   5.927 -0.9832  0.0823  0.4732
 8592SOL    MW434142   5.778   3.145   5.971 -0.1236 -0.1371  0.4310
 8593SOL     OW34143   4.394   0.424   4.903  0.0379 -0.4632 -0.3758
 8593SOL    HW234144   4.479   0.464   4.885  0.5313 -1.0028  0.6460
 8593SOL    HW334145   4.375   0.448   4.994 -0.8357 -0.4786 -0.5451
 8593SOL    MW434146   4.402   0.433   4.912 -0.0122 -0.5364 -0.2633
 8594SOL     OW34147   3.605   5.968   0.649 -0.2672 -0.4224 -0.0777
 8594SOL    HW234148   3.544   5.917   0.703  0.0363 -0.0337  0.6453
 8594SOL    HW334149   3.682   5.912   0.641 -0.5240 -0.7072 -0.5709
 8594SOL    MW434150   3.607   5.954   0.655 -0.2610 -0.4087 -0.0474
 8595SOL     OW34151   4.833   5.014   5.932  0.6801 -0.3518  0.0576
 8595SOL    HW234152   4.738   5.002   5.928  0.6766 -0.6687  0.9681
 8595SOL    HW334153   4.848   5.100   5.893 -0.1831  0.5615  1.6500
 8595SOL    MW434154   4.823   5.024   5.926  0.5657 -0.2731  0.3878
 8596SOL     OW34155   6.280   5.502   6.268 -0.3339  0.1351 -0.1908
 8596SOL    HW234156   6.334   5.551   6.330 -0.1757  0.5024 -0.6188
 8596SOL    HW334157   6.196   5.492   6.313  0.1403 -0.6305  0.5727
 8596SOL    MW434158   6.276   5.507   6.282 -0.2504  0.0826 -0.1465
 8597SOL     OW34159   4.263   0.494   1.971 -0.5129  0.9438  0.5593
 8597SOL    HW234160   4.210   0.525   1.898 -0.0928  1.6872  0.5598
 8597SOL    HW334161   4.208   0.506   2.048  0.2478  3.3572  0.7897
 8597SOL    MW434162   4.249   0.500   1.972 -0.3571  1.3603  0.5898
 8598SOL     OW34163   2.428   3.380   3.635  0.3692  0.1144  0.3280
 8598SOL    HW234164   2.388   3.425   3.709 -0.6662  0.8054 -0.6264
 8598SOL    HW334165   2.522   3.393   3.647  0.1406  1.5854  0.6702
 8598SOL    MW434166   2.435   3.388   3.647  0.2024  0.3996  0.2472
 8599SOL     OW34167   0.574   0.059   2.865  0.1539 -0.5621  0.1692
 8599SOL    HW234168   0.627   0.113   2.806 -1.0732 -1.2175 -1.6018
 8599SOL    HW334169   0.511   0.120   2.903 -0.8468 -0.5865 -1.3733
 8599SOL    MW434170   0.573   0.074   2.862 -0.1400 -0.6518 -0.2679
 8600SOL     OW34171   5.927   4.224   4.044 -0.4000 -0.1221  0.0091
 8600SOL    HW234172   5.959   4.262   4.126 -2.9186  0.6906  0.6986
 8600SOL    HW334173   5.907   4.133   4.066 -0.9528  0.0616  0.2820
 8600SOL    MW434174   5.929   4.217   4.058 -0.8053  0.0094  0.1361
 8601SOL     OW34175   4.474   1.188   3.701  0.1706  0.0319 -0.4293
 8601SOL    HW234176   4.411   1.154   3.764 -2.0936  0.0668 -2.5272
 8601SOL    HW334177   4.504   1.110   3.653  1.4281  0.0775  0.2297
 8601SOL    MW434178   4.470   1.173   3.703  0.0378  0.0425 -0.6191
 8602SOL     OW34179   0.518   4.092   1.019 -0.1039 -0.0743  0.4073
 8602SOL    HW234180   0.584   4.150   1.058  0.4775  0.0866 -0.7727
 8602SOL    HW334181   0.503   4.025   1.086  1.7928 -0.5328  0.4312
 8602SOL    MW434182   0.525   4.091   1.033  0.2231 -0.1136  0.2548
 8603SOL     OW34183   4.263   1.094   3.880  0.4521 -0.2828  0.4114
 8603SOL    HW234184   4.242   1.151   3.954  0.4731 -1.1598  1.1122
 8603SOL    HW334185   4.203   1.122   3.810  2.0274  2.1349 -0.0698
 8603SOL    MW434186   4.252   1.105   3.880  0.6627 -0.0795  0.4404
 8604SOL     OW34187   2.355   1.519   4.795 -0.6597 -0.2602 -0.3854
 8604SOL    HW234188   2.351   1.548   4.887  0.3586 -0.1456 -0.3608
 8604SOL    HW334189   2.391   1.595   4.748  2.2676 -1.4678 -0.2920
 8604SOL    MW434190   2.359   1.533   4.801 -0.1391 -0.4044 -0.3698
 8605SOL     OW34191   0.994   1.087   2.726 -0.1561  0.3653 -0.6460
 8605SOL    HW234192   0.901   1.065   2.725 -0.6370  2.0690  0.7116
 8605SOL    HW334193   1.038   1.002   2.734 -1.6846 -0.3819  0.6069
 8605SOL    MW434194   0.987   1.073   2.727 -0.4212  0.4915 -0.3016
 8606SOL     OW34195   5.709   6.231   1.309 -0.3731  0.3884 -0.2494
 8606SOL    HW234196   5.792   6.271   1.337 -0.3491 -0.0892  0.3746
 8606SOL    HW334197   5.642   6.281   1.355 -0.5647  1.8978 -2.0553
 8606SOL    MW434198   5.711   6.243   1.319 -0.3952  0.5245 -0.4054
 8607SOL     OW34199   3.082   0.561   1.549 -0.1257  0.0105 -0.0497
 8607SOL    HW234200   3.021   0.630   1.521  2.1907  1.6108 -1.4551
 8607SOL    HW334201   3.139   0.604   1.613  1.2819 -0.6042 -0.8519
 8607SOL    MW434202   3.081   0.576   1.554  0.3656  0.1405 -0.3410
 8608SOL     OW34203   3.485   3.969   0.194  0.9515  0.0738  0.6029
 8608SOL    HW234204   3.572   3.969   0.234  0.2069 -0.1971  2.3357
 8608SOL    HW334205   3.426   3.951   0.267 -0.6442  1.1662 -0.3690
 8608SOL    MW434206   3.489   3.966   0.209  0.6427  0.1822  0.7033
 8609SOL     OW34207   2.794   1.808   5.588  0.3160 -0.0296  0.3952
 8609SOL    HW234208   2.717   1.831   5.536  1.3157  0.0527 -1.1033
 8609SOL    HW334209   2.848   1.887   5.586  0.1733  0.1385  1.9940
 8609SOL    MW434210   2.791   1.821   5.581  0.4290  0.0034  0.4085
 8610SOL     OW34211   4.022   3.390   5.585 -0.4551  0.2647 -0.1771
 8610SOL    HW234212   4.076   3.311   5.588 -1.5904 -0.5678 -1.3257
 8610SOL    HW334213   3.993   3.402   5.676 -0.8903 -1.0762 -0.1220
 8610SOL    MW434214   4.026   3.381   5.598 -0.6623 -0.0221 -0.3213
 8611SOL     OW34215   1.970   0.760   1.985  0.1142 -0.0168  0.0353
 8611SOL    HW234216   1.884   0.732   1.955 -0.7015  0.7456  1.5179
 8611SOL    HW334217   1.997   0.827   1.922 -1.6183  1.6670  0.9705
 8611SOL    MW434218   1.962   0.766   1.973 -0.2220  0.3060  0.3543
 8612SOL     OW34219   4.470   4.359   0.776 -0.1273  0.2541 -0.0509
 8612SOL    HW234220   4.539   4.302   0.744 -1.0315 -0.7963 -0.1712
 8612SOL    HW334221   4.456   4.421   0.704  0.1070 -0.0523 -0.3661
 8612SOL    MW434222   4.477   4.360   0.762 -0.2157  0.0751 -0.1084
 8613SOL     OW34223   0.177   1.529   3.414 -0.1313 -0.2480 -0.4841
 8613SOL    HW234224   0.265   1.523   3.378  0.0638  0.0524 -0.0670
 8613SOL    HW334225   0.167   1.448   3.465  0.0694 -0.0805 -0.1747
 8613SOL    MW434226   0.187   1.518   3.416 -0.0791 -0.1863 -0.3883
 8614SOL     OW34227   0.196   1.813   5.948 -0.1477  0.2160  0.0700
 8614SOL    HW234228   0.185   1.719   5.936  0.9552  0.3328 -2.3917
 8614SOL    HW334229   0.117   1.851   5.909 -0.5341  0.3508  0.9514
 8614SOL    MW434230   0.184   1.806   5.941 -0.0532  0.2492 -0.1385
 8615SOL     OW34231   4.527   3.932   4.305  0.0366  0.1208 -0.2235
 8615SOL    HW234232   4.608   3.881   4.295  0.0028 -0.0321  0.2519
 8615SOL    HW334233   4.526   3.959   4.397 -0.8153 -0.5033 -0.0337
 8615SOL    MW434234   4.537   3.929   4.316 -0.0803  0.0183 -0.1358
 8616SOL     OW34235   3.097   5.222   1.470  0.0007 -0.3089  0.2919
 8616SOL    HW234236   3.105   5.237   1.376 -0.5103  1.5228  0.5132
 8616SOL    HW334237   3.013   5.261   1.493 -0.1546 -1.2619  1.4310
 8616SOL    MW434238   3.087   5.229   1.461 -0.0872 -0.1929  0.4714
 8617SOL     OW34239   5.248   1.925   3.093  0.1517  0.0187  0.3661
 8617SOL    HW234240   5.236   1.860   3.163 -1.3801 -1.5906 -1.2657
 8617SOL    HW334241   5.164   1.972   3.090  0.5287  0.6857  0.1781
 8617SOL    MW434242   5.235   1.923   3.102 -0.0007 -0.1056  0.1260
 8618SOL     OW34243   1.687   2.967   1.547 -0.5480  0.2412  0.2659
 8618SOL    HW234244   1.722   2.878   1.554 -2.3733 -0.8993 -2.8210
 8618SOL    HW334245   1.754   3.023   1.586  1.6610 -2.2850  0.3633
 8618SOL    MW434246   1.700   2.962   1.553 -0.4973 -0.2426 -0.1285
 8619SOL     OW34247   5.705   2.138   0.471  0.2364  0.0232  0.2004
 8619SOL    HW234248   5.732   2.186   0.550  0.1892 -0.7339  0.6802
 8619SOL    HW334249   5.671   2.055   0.504  3.1088 -1.6595 -0.7837
 8619SOL    MW434250   5.704   2.134   0.486  0.6092 -0.2987  0.1339
 8620SOL     OW34251   1.125   2.722   5.835 -0.4607 -0.7528 -0.3011
 8620SOL    HW234252   1.129   2.812   5.805  2.3760 -0.6200  0.2304
 8620SOL    HW334253   1.137   2.669   5.756  1.1520 -0.5314 -0.2444
 8620SOL    MW434254   1.127   2.727   5.821  0.1264 -0.7061 -0.2235
 8621SOL     OW34255   1.720   5.950   1.590  0.0447 -0.2620 -0.2293
 8621SOL    HW234256   1.779   6.009   1.543 -1.2206 -1.1490 -3.1088
 8621SOL    HW334257   1.750   5.863   1.567 -1.3395 -0.7238 -0.3556
 8621SOL    MW434258   1.732   5.947   1.581 -0.3049 -0.4400 -0.6259
 8622SOL     OW34259   1.575   1.283   4.806 -0.6870  0.8011 -0.4909
 8622SOL    HW234260   1.593   1.297   4.899 -1.0127 -0.8132 -0.1530
 8622SOL    HW334261   1.495   1.231   4.805 -0.1963  0.0237 -1.6365
 8622SOL    MW434262   1.567   1.278   4.818 -0.6653  0.4855 -0.5975
 8623SOL     OW34263   2.658   1.732   1.100  0.1238 -0.0569 -0.2003
 8623SOL    HW234264   2.598   1.749   1.028 -1.2101 -0.2561  0.8275
 8623SOL    HW334265   2.640   1.641   1.125 -0.6420  0.5157  1.4550
 8623SOL    MW434266   2.648   1.722   1.094 -0.1533 -0.0077  0.1537
 8624SOL     OW34267   1.419   0.496   5.137  0.5443  0.2691  0.4233
 8624SOL    HW234268   1.484   0.500   5.067 -0.1316 -1.8728 -0.3874
 8624SOL    HW334269   1.409   0.587   5.165  0.2067  1.3513 -2.8104
 8624SOL    MW434270   1.426   0.509   5.132  0.4106  0.1293 -0.1103
 8625SOL     OW34271   0.745   2.966   0.377  0.3884 -0.2420  0.0656
 8625SOL    HW234272   0.674   2.964   0.314  0.5953 -1.8625 -0.1567
 8625SOL    HW334273   0.721   2.901   0.443  0.7729  0.5364  0.9978
 8625SOL    MW434274   0.733   2.957   0.377  0.4664 -0.3531  0.1593
 8626SOL     OW34275   4.812   3.676   4.701  0.0984  0.8883 -0.0448
 8626SOL    HW234276   4.886   3.617   4.685  1.3788  2.3301  0.1999
 8626SOL    HW334277   4.820   3.700   4.793 -3.1782 -2.0683  1.2114
 8626SOL    MW434278   4.823   3.672   4.711 -0.1650  0.6884  0.1532
 8627SOL     OW34279   5.622   5.440   0.250  0.0752 -0.2500 -0.6831
 8627SOL    HW234280   5.644   5.383   0.323 -1.1626  0.6469  0.4382
 8627SOL    HW334281   5.535   5.411   0.222  1.1747 -1.6146 -2.8757
 8627SOL    MW434282   5.613   5.429   0.256  0.0570 -0.3117 -0.8244
 8628SOL     OW34283   2.385   0.389   2.219  0.1270 -0.4653 -0.1599
 8628SOL    HW234284   2.384   0.336   2.139 -0.2341 -0.0905 -0.4121
 8628SOL    HW334285   2.293   0.401   2.241  0.2132 -0.1571  0.0390
 8628SOL    MW434286   2.373   0.384   2.211  0.0907 -0.3752 -0.1669
 8629SOL     OW34287   1.175   4.670   5.220  0.6453  0.3445  0.0755
 8629SOL    HW234288   1.194   4.585   5.260 -1.9002 -0.0498  0.6657
 8629SOL    HW334289   1.227   4.733   5.270  0.1654 -0.5429  1.7658
 8629SOL    MW434290   1.184   4.667   5.232  0.2461  0.1754  0.3764
 8630SOL     OW34291   5.091   5.125   3.324  0.2631  0.2096  0.0776
 8630SOL    HW234292   5.181   5.112   3.294 -0.0619 -1.3111 -0.2785
 8630SOL    HW334293   5.041   5.055   3.284 -1.3541  1.7597 -0.7523
 8630SOL    MW434294   5.097   5.114   3.315  0.0068  0.2135 -0.0789
 8631SOL     OW34295   3.263   4.608   2.227 -0.3787  0.1066 -0.2142
 8631SOL    HW234296   3.192   4.547   2.211 -0.9387  0.8662 -0.7429
 8631SOL    HW334297   3.220   4.689   2.255  0.2313  0.7141 -0.9713
 8631SOL    MW434298   3.248   4.611   2.228 -0.3721  0.2870 -0.3838
 8632SOL     OW34299   0.585   3.476   2.450  0.7000  0.2490  0.3569
 8632SOL    HW234300   0.513   3.441   2.502  0.0761 -0.4704 -0.9294
 8632SOL    HW334301   0.664   3.449   2.496  0.1727 -0.1519  1.0479
 8632SOL    MW434302   0.586   3.468   2.463  0.5481  0.1012  0.2783
 8633SOL     OW34303   4.854   2.517   0.123  0.0123  0.5469 -0.3433
 8633SOL    HW234304   4.842   2.480   0.210 -0.8075 -0.2243 -0.7746
 8633SOL    HW334305   4.946   2.499   0.102 -0.2970 -1.0610 -0.4448
 8633SOL    MW434306   4.865   2.510   0.131 -0.1367  0.2330 -0.4136
 8634SOL     OW34307   1.684   0.314   2.155 -0.5057 -0.3157 -0.0618
 8634SOL    HW234308   1.744   0.265   2.212 -1.1407 -0.3796  0.5601
 8634SOL    HW334309   1.674   0.399   2.198  0.2445  0.2299 -0.9081
 8634SOL    MW434310   1.691   0.319   2.168 -0.4905 -0.2521 -0.0914
 8635SOL     OW34311   4.836   0.359   1.129  0.1114  0.1750 -0.8008
 8635SOL    HW234312   4.835   0.268   1.100 -2.0637  0.7454 -2.8177
 8635SOL    HW334313   4.871   0.408   1.054  0.0684  1.1436 -0.2054
 8635SOL    MW434314   4.841   0.354   1.115 -0.1812  0.3780 -0.9883
 8636SOL     OW34315   5.306   3.222   2.555  0.2924 -0.3807  0.0351
 8636SOL    HW234316   5.246   3.207   2.628 -1.6816 -0.6195 -1.5542
 8636SOL    HW334317   5.272   3.301   2.512  0.0784 -1.4488 -1.8661
 8636SOL    MW434318   5.294   3.230   2.559  0.0037 -0.5531 -0.4255
 8637SOL     OW34319   1.741   5.597   4.837 -0.0622 -0.5678 -0.4197
 8637SOL    HW234320   1.782   5.681   4.858 -0.0607 -0.6977  0.1240
 8637SOL    HW334321   1.746   5.548   4.919  0.2691 -1.2339 -0.8293
 8637SOL    MW434322   1.747   5.602   4.851 -0.0183 -0.6728 -0.4020
 8638SOL     OW34323   3.740   0.210   5.381 -0.6506 -0.4271 -0.7274
 8638SOL    HW234324   3.747   0.143   5.312 -1.1053 -0.6364 -0.5814
 8638SOL    HW334325   3.826   0.211   5.423  0.1655  0.8523 -2.3330
 8638SOL    MW434326   3.752   0.201   5.377 -0.6029 -0.2859 -0.9200
 8639SOL     OW34327   0.546   4.058   6.374 -0.2995 -0.4658 -0.0594
 8639SOL    HW234328   0.462   4.104   6.379  0.1465  0.5919 -1.5661
 8639SOL    HW334329   0.604   4.119   6.328  1.0485 -1.5314  0.1610
 8639SOL    MW434330   0.543   4.072   6.369 -0.0628 -0.4669 -0.2291
 8640SOL     OW34331   5.952   3.363   4.148  0.0329  0.3970  0.0223
 8640SOL    HW234332   5.926   3.389   4.060 -5.1087  1.1739  1.3975
 8640SOL    HW334333   5.918   3.432   4.204 -0.6183 -1.9726  2.8175
 8640SOL    MW434334   5.944   3.375   4.144 -0.7314  0.1868  0.5725
 8641SOL     OW34335   5.489   0.800   2.149  0.2850 -0.8467 -0.3216
 8641SOL    HW234336   5.500   0.707   2.127 -0.2390 -1.4438  1.7273
 8641SOL    HW334337   5.395   0.810   2.163  0.3722 -0.0541 -0.2817
 8641SOL    MW434338   5.478   0.789   2.148  0.2274 -0.8209 -0.0460
 8642SOL     OW34339   2.032   5.287   3.438  0.8056  0.3716  0.6879
 8642SOL    HW234340   2.044   5.259   3.529 -0.4910 -0.9403  0.4899
 8642SOL    HW334341   1.970   5.224   3.401 -0.3904  2.1395 -0.4879
 8642SOL    MW434342   2.025   5.275   3.445  0.4767  0.4318  0.5066
 8643SOL     OW34343   5.425   1.491   3.017 -0.4813  0.3990 -0.4487
 8643SOL    HW234344   5.493   1.546   2.976 -0.8773  0.2552 -1.3106
 8643SOL    HW334345   5.355   1.488   2.953 -0.9778 -0.1142  0.1120
 8643SOL    MW434346   5.425   1.498   3.003 -0.5991  0.3123 -0.4884
 8644SOL     OW34347   4.489   5.107   2.713  0.4442 -0.1795  0.9833
 8644SOL    HW234348   4.408   5.145   2.746  0.9314  1.9259 -0.0843
 8644SOL    HW334349   4.552   5.119   2.784  0.6665  1.3944  0.5626
 8644SOL    MW434350   4.487   5.113   2.727  0.5379  0.3060  0.7869
 8645SOL     OW34351   0.614   4.047   0.472 -0.5559 -0.5870  0.0475
 8645SOL    HW234352   0.521   4.041   0.450 -0.1595 -0.4132 -1.8035
 8645SOL    HW334353   0.647   4.118   0.417  0.6288 -0.4666  0.8777
 8645SOL    MW434354   0.606   4.056   0.462 -0.3473 -0.5482 -0.0872
 8646SOL     OW34355   1.111   2.896   0.403 -0.0242 -0.1064  0.4468
 8646SOL    HW234356   1.077   2.951   0.333 -1.6475 -0.0642  1.2074
 8646SOL    HW334357   1.167   2.832   0.359  0.2580  0.8930 -0.6756
 8646SOL    MW434358   1.114   2.895   0.388 -0.2012  0.0311  0.3991
 8647SOL     OW34359   4.582   4.823   4.398  0.3944  0.4002  0.7263
 8647SOL    HW234360   4.612   4.908   4.430  0.6952  1.2434 -1.6395
 8647SOL    HW334361   4.645   4.798   4.330 -0.4361 -1.0772  0.4440
 8647SOL    MW434362   4.594   4.831   4.393  0.3245  0.3165  0.3769
 8648SOL     OW34363   4.915   1.400   2.094  0.6431  0.1951  0.0679
 8648SOL    HW234364   4.882   1.332   2.035  0.7741  0.1427  0.0546
 8648SOL    HW334365   4.908   1.362   2.181 -1.9731  1.2054  0.3784
 8648SOL    MW434366   4.910   1.386   2.098  0.3152  0.3215  0.1071
 8649SOL     OW34367   2.743   4.736   6.109 -0.5056  0.4689  0.1961
 8649SOL    HW234368   2.649   4.736   6.092 -0.1497 -2.0612 -2.6126
 8649SOL    HW334369   2.763   4.647   6.135  1.3283  0.4120 -1.1557
 8649SOL    MW434370   2.733   4.725   6.110 -0.2167  0.1276 -0.3528
 8650SOL     OW34371   1.867   5.937   2.789 -0.1854 -0.1994 -0.0231
 8650SOL    HW234372   1.779   5.901   2.799 -1.1613  1.6564 -1.3375
 8650SOL    HW334373   1.891   5.969   2.876 -0.7246 -0.8403  0.3684
 8650SOL    MW434374   1.859   5.937   2.802 -0.3853 -0.0391 -0.1449
 8651SOL     OW34375   0.849   0.798   5.821  0.2364 -0.0080 -0.0366
 8651SOL    HW234376   0.859   0.880   5.869 -0.7222 -0.5683  1.1732
 8651SOL    HW334377   0.847   0.824   5.729  1.5181  1.1499  0.2306
 8651SOL    MW434378   0.850   0.812   5.815  0.2791  0.0709  0.1583
 8652SOL     OW34379   3.247   1.557   2.356 -0.6163  0.6356  0.3760
 8652SOL    HW234380   3.330   1.557   2.308  0.0473 -1.4246  1.3841
 8652SOL    HW334381   3.191   1.618   2.308  0.9219  0.7856 -1.3353
 8652SOL    MW434382   3.250   1.565   2.344 -0.3258  0.3836  0.2832
 8653SOL     OW34383   2.023   6.361   3.457 -0.4982 -0.5079  0.2016
 8653SOL    HW234384   1.951   6.402   3.409  0.3677  0.5114 -0.2580
 8653SOL    HW334385   2.048   6.286   3.402 -1.7257 -1.3612  0.7718
 8653SOL    MW434386   2.017   6.356   3.443 -0.5459 -0.4860  0.2162
 8654SOL     OW34387   0.663   2.441   4.524  0.1609 -0.5904  0.3143
 8654SOL    HW234388   0.654   2.516   4.582  2.2085  0.8180 -1.0471
 8654SOL    HW334389   0.605   2.461   4.450  1.2109  0.0361 -0.3669
 8654SOL    MW434390   0.654   2.454   4.522  0.5696 -0.3219  0.0448
 8655SOL     OW34391   1.948   3.009   2.324  0.1875 -0.2397 -0.0486
 8655SOL    HW234392   1.882   2.958   2.277  1.3536 -0.3798 -1.6134
 8655SOL    HW334393   1.935   2.987   2.416 -2.3591  0.2462 -0.2224
 8655SOL    MW434394   1.938   3.000   2.330  0.0053 -0.1941 -0.2780
 8656SOL     OW34395   1.604   5.532   3.732  0.0259 -0.1984  0.3508
 8656SOL    HW234396   1.573   5.444   3.715 -1.9107  0.1035  1.8918
 8656SOL    HW334397   1.646   5.527   3.818 -0.8181  0.4982  0.8279
 8656SOL    MW434398   1.606   5.520   3.741 -0.3410 -0.0666  0.6171
 8657SOL     OW34399   6.203   2.393   3.848  0.2306 -0.3178 -0.0454
 8657SOL    HW234400   6.165   2.344   3.776  0.3692 -1.9192  0.9192
 8657SOL    HW334401   6.267   2.452   3.807  0.8945 -1.7696 -1.1762
 8657SOL    MW434402   6.207   2.395   3.833  0.3365 -0.7207 -0.0673
 8658SOL     OW34403   4.372   0.497   5.186 -0.0523  0.3030 -0.2058
 8658SOL    HW234404   4.433   0.569   5.198 -1.4390  1.3250  1.1354
 8658SOL    HW334405   4.417   0.421   5.224  1.8782  0.1256 -2.6173
 8658SOL    MW434406   4.386   0.496   5.193  0.0195  0.4144 -0.3470
 8659SOL     OW34407   4.323   5.977   5.899 -0.7090 -0.6648  0.0860
 8659SOL    HW234408   4.314   5.882   5.892 -1.5601 -0.4789 -1.9129
 8659SOL    HW334409   4.303   6.010   5.812 -0.8520  1.4001  0.8406
 8659SOL    MW434410   4.319   5.969   5.887 -0.8401 -0.3679 -0.0782
 8660SOL     OW34411   6.183   1.236   2.263 -0.2844  0.1085  0.2393
 8660SOL    HW234412   6.223   1.205   2.345 -0.4675 -0.7135  0.0200
 8660SOL    HW334413   6.094   1.261   2.287  0.2026  1.5684  0.6480
 8660SOL    MW434414   6.177   1.235   2.277 -0.2443  0.1927  0.2643
 8661SOL     OW34415   0.765   1.456   0.150  1.1283  0.2549 -0.2940
 8661SOL    HW234416   0.777   1.480   0.058  1.3764  0.2359 -0.2656
 8661SOL    HW334417   0.768   1.360   0.151  1.6666  0.2746 -0.1872
 8661SOL    MW434418   0.767   1.446   0.138  1.2320  0.2550 -0.2762
 8662SOL     OW34419   0.266   4.327   4.866 -0.4355  0.3306 -0.2560
 8662SOL    HW234420   0.308   4.367   4.790 -1.5146  2.0804  0.0098
 8662SOL    HW334421   0.175   4.313   4.839 -0.4548 -0.4754  0.2008
 8662SOL    MW434422   0.259   4.331   4.853 -0.5804  0.4551 -0.1607
 8663SOL     OW34423   5.258   6.370   2.897 -0.3939  0.6862  0.1188
 8663SOL    HW234424   5.200   6.445   2.887  1.0058  1.5558 -2.2836
 8663SOL    HW334425   5.228   6.308   2.831  0.3028  0.3989  0.0608
 8663SOL    MW434426   5.247   6.371   2.887 -0.1173  0.7630 -0.2058
 8664SOL     OW34427   1.731   3.472   4.839  0.1786  0.1519 -0.3961
 8664SOL    HW234428   1.748   3.409   4.768 -1.4686 -1.1064  0.2554
 8664SOL    HW334429   1.696   3.549   4.794  1.4364  0.3235 -1.1363
 8664SOL    MW434430   1.729   3.473   4.824  0.1272  0.0085 -0.4078
 8665SOL     OW34431   5.023   4.682   6.413  0.3955 -0.2521 -0.0386
 8665SOL    HW234432   5.018   4.764   6.464  0.1004  0.4406 -1.1596
 8665SOL    HW334433   4.999   4.614   6.476 -0.9923  0.6842  0.5032
 8665SOL    MW434434   5.020   4.684   6.428  0.1734 -0.0372 -0.1150
 8666SOL     OW34435   0.337   0.060   5.651  0.0429 -0.4693  0.3547
 8666SOL    HW234436   0.327   0.143   5.697 -0.6743 -0.2343 -0.2118
 8666SOL    HW334437   0.354   0.085   5.560  0.3637 -0.9396  0.2822
 8666SOL    MW434438   0.338   0.074   5.645 -0.0094 -0.5004  0.2704
 8667SOL     OW34439   4.447   0.750   2.316 -0.5591 -0.3559  0.0039
 8667SOL    HW234440   4.440   0.760   2.221  1.8599  1.9399 -0.0594
 8667SOL    HW334441   4.463   0.839   2.348  0.2194 -1.2758  2.3790
 8667SOL    MW434442   4.448   0.763   2.307 -0.1372 -0.1743  0.3089
 8668SOL     OW34443   1.165   2.809   2.253 -0.1107 -0.5270  0.0318
 8668SOL    HW234444   1.142   2.728   2.207  0.1055  0.3647 -1.7017
 8668SOL    HW334445   1.206   2.864   2.186 -0.0770  0.9512  1.2305
 8668SOL    MW434446   1.168   2.805   2.238 -0.0778 -0.2143 -0.0387
 8669SOL     OW34447   1.217   5.414   6.344 -0.3467  0.2482  0.6143
 8669SOL    HW234448   1.284   5.477   6.369  1.3734 -0.0973 -2.4792
 8669SOL    HW334449   1.249   5.330   6.378 -0.0771  0.3491  0.6128
 8669SOL    MW434450   1.230   5.411   6.352 -0.0842  0.2160  0.2059
 8670SOL     OW34451   4.858   3.627   3.167 -0.0754  0.0099 -0.5403
 8670SOL    HW234452   4.772   3.668   3.155  0.0119  0.5384  0.5151
 8670SOL    HW334453   4.850   3.578   3.249 -0.0149 -1.7006 -1.5048
 8670SOL    MW434454   4.846   3.626   3.176 -0.0559 -0.1461 -0.5283
 8671SOL     OW34455   5.836   0.921   1.153  0.3112 -0.9275  0.0259
 8671SOL    HW234456   5.848   0.930   1.248  0.2787 -0.5695 -0.0027
 8671SOL    HW334457   5.890   0.991   1.115  0.5100 -1.2164 -0.2313
 8671SOL    MW434458   5.845   0.932   1.160  0.3332 -0.9184 -0.0118
 8672SOL     OW34459   5.889   1.570   3.908 -0.4414  0.4852 -0.2395
 8672SOL    HW234460   5.952   1.643   3.908 -2.0176  1.9175 -0.6990
 8672SOL    HW334461   5.844   1.577   3.824  0.0013 -1.6603 -0.7155
 8672SOL    MW434462   5.891   1.581   3.897 -0.5910  0.3911 -0.3629
 8673SOL     OW34463   1.326   0.971   1.077 -0.2381 -0.4004 -0.4107
 8673SOL    HW234464   1.242   0.925   1.087  0.0054 -0.7658 -0.0576
 8673SOL    HW334465   1.351   0.955   0.986  0.0446 -1.3150 -0.1847
 8673SOL    MW434466   1.318   0.963   1.066 -0.1687 -0.5693 -0.3343
 8674SOL     OW34467   3.159   2.135   5.927  0.3192 -0.6341 -0.1382
 8674SOL    HW234468   3.182   2.219   5.965  0.4996 -0.3782 -0.7981
 8674SOL    HW334469   3.239   2.106   5.883  0.0009 -0.7276 -0.6632
 8674SOL    MW434470   3.173   2.142   5.926  0.3010 -0.6127 -0.2945
 8675SOL     OW34471   3.569   3.741   2.795  0.1417 -0.0291 -0.4695
 8675SOL    HW234472   3.504   3.778   2.855  0.0691 -0.0062 -0.5622
 8675SOL    HW334473   3.550   3.648   2.793 -0.0243  0.0073 -0.6612
 8675SOL    MW434474   3.558   3.734   2.803  0.1102 -0.0212 -0.5071
 8676SOL     OW34475   0.872   5.015   0.984  0.3298 -0.7219  0.1818
 8676SOL    HW234476   0.902   5.020   1.074 -0.1061  0.6734  0.2737
 8676SOL    HW334477   0.794   5.071   0.981  0.0161 -1.1803 -0.9304
 8676SOL    MW434478   0.866   5.023   0.995  0.2309 -0.5983  0.0472
 8677SOL     OW34479   0.140   2.541   3.470  0.5307  0.3520 -0.1443
 8677SOL    HW234480   0.100   2.475   3.413 -0.6427  2.0400 -1.3556
 8677SOL    HW334481   0.186   2.600   3.410  1.3550  0.7880  0.8901
 8677SOL    MW434482   0.140   2.540   3.455  0.4846  0.6322 -0.1677
 8678SOL     OW34483   3.071   0.729   1.978 -0.1867 -0.2075  0.6020
 8678SOL    HW234484   3.133   0.728   2.051  0.5044 -0.8505  0.0191
 8678SOL    HW334485   3.086   0.646   1.933 -1.9162 -0.6701  0.7995
 8678SOL    MW434486   3.081   0.718   1.982 -0.3237 -0.3534  0.5512
 8679SOL     OW34487   6.419   4.860   3.717 -0.4119 -0.5247 -0.0617
 8679SOL    HW234488   6.355   4.910   3.767  2.3150  0.9629  2.2531
 8679SOL    HW334489   6.390   4.867   3.626 -4.3472 -1.4023  0.9297
 8679SOL    MW434490   6.407   4.867   3.712 -0.5714 -0.4442  0.3745
 8680SOL     OW34491   6.220   1.452   6.123 -0.0135 -0.3909 -0.2766
 8680SOL    HW234492   6.243   1.409   6.041  3.4305 -0.1068  0.3980
 8680SOL    HW334493   6.206   1.381   6.186  0.1077 -0.5787 -0.4639
 8680SOL    MW434494   6.221   1.437   6.121  0.4568 -0.3782 -0.2123
 8681SOL     OW34495   5.778   1.341   0.212 -0.3519  0.1456 -0.4675
 8681SOL    HW234496   5.690   1.370   0.190  0.3482  1.4760 -1.7324
 8681SOL    HW334497   5.776   1.246   0.205 -1.5135  0.2096 -1.1071
 8681SOL    MW434498   5.766   1.333   0.208 -0.4128  0.3296 -0.7188
 8682SOL     OW34499   0.404   2.695   3.768 -0.1399 -0.3659 -0.2719
 8682SOL    HW234500   0.392   2.600   3.762 -0.4218 -0.3227 -0.4002
 8682SOL    HW334501   0.402   2.725   3.677  0.5870 -0.3113 -0.2747
 8682SOL    MW434502   0.402   2.686   3.755 -0.0812 -0.3530 -0.2892
 8683SOL     OW34503   5.496   4.295   0.105 -0.1673 -0.0159  0.2197
 8683SOL    HW234504   5.578   4.343   0.090 -0.0321 -0.2528  0.1913
 8683SOL    HW334505   5.520   4.203   0.094 -0.5285 -0.0620 -0.1945
 8683SOL    MW434506   5.510   4.289   0.102 -0.1971 -0.0533  0.1613
 8684SOL     OW34507   0.173   3.801   2.997 -0.4625  0.0325 -0.5498
 8684SOL    HW234508   0.237   3.760   3.055 -2.7092  0.0944  2.2037
 8684SOL    HW334509   0.124   3.728   2.959 -1.4693  0.0164  0.7216
 8684SOL    MW434510   0.175   3.786   2.999 -0.8918  0.0386 -0.0188
 8685SOL     OW34511   2.785   2.212   0.119 -0.0805  0.6602  0.3181
 8685SOL    HW234512   2.851   2.278   0.139  0.3743 -0.4789  2.9142
 8685SOL    HW334513   2.799   2.143   0.183 -1.0424 -1.6606 -1.7889
 8685SOL    MW434514   2.795   2.211   0.130 -0.1474  0.2037  0.3826
 8686SOL     OW34515   3.751   5.112   4.751 -0.9678  0.3831 -0.1560
 8686SOL    HW234516   3.808   5.109   4.674 -0.5333  1.5526  0.1063
 8686SOL    HW334517   3.721   5.022   4.761  1.7835 -0.5640  0.4161
 8686SOL    MW434518   3.755   5.100   4.742 -0.5474  0.4125 -0.0459
 8687SOL     OW34519   3.604   6.149   0.901 -0.1395 -0.3817  0.1549
 8687SOL    HW234520   3.527   6.100   0.928 -0.8012  1.2207  1.3893
 8687SOL    HW334521   3.630   6.110   0.818 -2.1834 -1.0819 -0.2108
 8687SOL    MW434522   3.597   6.138   0.893 -0.4965 -0.2627  0.2695
 8688SOL     OW34523   4.684   5.037   5.555 -0.3947 -0.1772 -0.0246
 8688SOL    HW234524   4.775   5.015   5.539 -0.4714  0.3784 -1.2952
 8688SOL    HW334525   4.676   5.128   5.528 -1.8459 -0.8723 -2.1726
 8688SOL    MW434526   4.695   5.046   5.550 -0.5963 -0.1956 -0.4756
 8689SOL     OW34527   0.280   3.383   1.520 -0.2027 -0.6101  0.5535
 8689SOL    HW234528   0.243   3.451   1.463 -0.0060 -1.4982 -0.6696
 8689SOL    HW334529   0.365   3.363   1.481 -1.1449 -3.0655 -0.4095
 8689SOL    MW434530   0.286   3.389   1.508 -0.3010 -1.0513  0.2650
 8690SOL     OW34531   2.374   2.848   1.142 -0.4470 -0.0573 -0.2368
 8690SOL    HW234532   2.448   2.886   1.095 -1.7874 -0.5357 -2.9620
 8690SOL    HW334533   2.306   2.916   1.139 -0.5488 -0.0703  1.1510
 8690SOL    MW434534   2.375   2.862   1.135 -0.6373 -0.1221 -0.4132
 8691SOL     OW34535   1.443   3.284   3.507  0.6003 -0.2593 -0.1004
 8691SOL    HW234536   1.349   3.273   3.494  0.5871 -0.2771  0.0091
 8691SOL    HW334537   1.480   3.198   3.488  0.7730  0.1489 -1.7409
 8691SOL    MW434538   1.436   3.272   3.503  0.6213 -0.2078 -0.3024
 8692SOL     OW34539   3.664   0.653   1.155 -0.0404  0.4378 -0.5250
 8692SOL    HW234540   3.626   0.612   1.233 -1.2382  0.3554 -1.1318
 8692SOL    HW334541   3.653   0.747   1.170  1.4837  0.5221  0.2548
 8692SOL    MW434542   3.658   0.660   1.168  0.0027  0.4381 -0.5022
 8693SOL     OW34543   5.597   4.037   0.114 -0.6444  0.5260 -0.3304
 8693SOL    HW234544   5.612   4.009   0.024 -0.5043 -1.8006  0.3560
 8693SOL    HW334545   5.684   4.034   0.154 -1.1263 -1.8084  0.7083
 8693SOL    MW434546   5.611   4.033   0.108 -0.6895 -0.0890 -0.1028
 8694SOL     OW34547   3.457   5.070   1.771 -0.7055  0.5897  0.2160
 8694SOL    HW234548   3.519   5.024   1.714 -0.3149 -0.5286  1.4811
 8694SOL    HW334549   3.409   5.128   1.713  0.0570 -0.1056 -1.1557
 8694SOL    MW434550   3.459   5.071   1.756 -0.5533  0.3504  0.2020
 8695SOL     OW34551   3.398   4.488   3.285 -0.4933 -0.4031 -0.2711
 8695SOL    HW234552   3.363   4.474   3.374 -1.8632 -0.1429 -0.7358
 8695SOL    HW334553   3.345   4.560   3.251 -0.3802 -0.8941 -1.5124
 8695SOL    MW434554   3.386   4.496   3.293 -0.6591 -0.4336 -0.4962
 8696SOL     OW34555   1.589   2.472   5.794 -0.0383 -0.3399 -0.4233
 8696SOL    HW234556   1.561   2.393   5.749  4.3700 -2.0026 -0.7665
 8696SOL    HW334557   1.570   2.543   5.732 -0.5894 -1.6257 -1.7757
 8696SOL    MW434558   1.583   2.471   5.780  0.4706 -0.7289 -0.6470
 8697SOL     OW34559   1.181   2.604   1.045  0.3676 -0.5690 -0.2639
 8697SOL    HW234560   1.155   2.661   0.972 -0.3987  0.1783  0.5678
 8697SOL    HW334561   1.104   2.549   1.061  0.0769  0.1042  0.7514
 8697SOL    MW434562   1.167   2.605   1.037  0.2281 -0.3816 -0.0202
 8698SOL     OW34563   4.044   1.348   5.022 -0.1087 -0.0300  0.1892
 8698SOL    HW234564   3.963   1.393   5.047  0.1374  0.0426  0.8754
 8698SOL    HW334565   4.110   1.385   5.080  0.5561  0.3919 -0.8167
 8698SOL    MW434566   4.042   1.359   5.033  0.0115  0.0353  0.1470
 8699SOL     OW34567   0.884   0.862   5.001  0.1797 -0.1367  0.0220
 8699SOL    HW234568   0.963   0.812   4.979 -0.2122 -0.5228 -0.5291
 8699SOL    HW334569   0.854   0.898   4.917  2.3801  3.9826  0.7269
 8699SOL    MW434570   0.890   0.860   4.987  0.4183  0.3559  0.0423
 8700SOL     OW34571   1.812   2.420   1.108 -0.6345 -0.7256 -0.0022
 8700SOL    HW234572   1.866   2.346   1.080 -0.8247 -0.6606 -0.5573
 8700SOL    HW334573   1.722   2.393   1.091 -0.6630 -0.0096 -1.1449
 8700SOL    MW434574   1.807   2.407   1.102 -0.6633 -0.6226 -0.2262
 8701SOL     OW34575   5.673   0.518   0.414  0.1212  0.1495 -0.5277
 8701SOL    HW234576   5.675   0.466   0.333  1.4261 -0.0002 -0.4226
 8701SOL    HW334577   5.659   0.454   0.483 -2.6539  0.4348 -0.6942
 8701SOL    MW434578   5.671   0.503   0.412 -0.0728  0.1674 -0.5358
 8702SOL     OW34579   1.760   3.297   4.603 -0.1531 -0.4414  0.0943
 8702SOL    HW234580   1.674   3.257   4.616  1.0572 -2.8093  1.5951
 8702SOL    HW334581   1.822   3.232   4.637  2.3932  0.3105 -2.6786
 8702SOL    MW434582   1.757   3.283   4.609  0.3425 -0.6546 -0.0736
 8703SOL     OW34583   0.951   5.879   1.205 -0.2451 -0.2819  0.4577
 8703SOL    HW234584   0.868   5.847   1.241 -0.7176  0.5713  0.1489
 8703SOL    HW334585   0.926   5.925   1.125  0.4434  0.5937  0.7351
 8703SOL    MW434586   0.937   5.881   1.199 -0.2166 -0.0538  0.4535
 8704SOL     OW34587   2.981   6.161   0.423 -0.3674 -0.1571  0.7839
 8704SOL    HW234588   2.919   6.174   0.494 -0.0209  1.9087  0.7624
 8704SOL    HW334589   3.063   6.200   0.454 -0.1681  0.6714 -0.6559
 8704SOL    MW434590   2.984   6.168   0.436 -0.2954  0.2248  0.5911
 8705SOL     OW34591   5.718   3.246   4.635  0.0516 -0.2213 -0.6797
 8705SOL    HW234592   5.772   3.262   4.712  0.1707  0.7517 -0.9565
 8705SOL    HW334593   5.778   3.210   4.570  0.0526 -0.5662 -0.4903
 8705SOL    MW434594   5.733   3.243   4.637  0.0674 -0.1385 -0.6912
 8706SOL     OW34595   4.314   4.418   5.014 -0.8041  0.1664 -0.1527
 8706SOL    HW234596   4.397   4.465   5.010 -0.6142 -0.2449 -1.9581
 8706SOL    HW334597   4.259   4.461   4.949 -0.9699 -1.3775 -1.1028
 8706SOL    MW434598   4.318   4.430   5.005 -0.8009 -0.0915 -0.5163
 8707SOL     OW34599   2.608   5.806   5.213  0.0639  0.2006 -0.0407
 8707SOL    HW234600   2.534   5.763   5.170 -0.9679  1.7266  0.1245
 8707SOL    HW334601   2.586   5.899   5.210  1.3696  0.5788  1.1758
 8707SOL    MW434602   2.595   5.812   5.207  0.1000  0.4519  0.1416
 8708SOL     OW34603   1.921   3.523   2.581  0.1962 -0.0212  0.2036
 8708SOL    HW234604   1.901   3.433   2.605  0.4577 -0.2110 -0.2747
 8708SOL    HW334605   2.011   3.519   2.549  1.2492  0.8882  2.7967
 8708SOL    MW434606   1.930   3.511   2.580  0.3697  0.0737  0.4826
 8709SOL     OW34607   0.749   3.783   6.140  0.6099  0.2067 -0.4324
 8709SOL    HW234608   0.663   3.820   6.161 -0.2963 -1.5913 -0.7688
 8709SOL    HW334609   0.769   3.819   6.053  1.1429  2.1690  0.4563
 8709SOL    MW434610   0.740   3.793   6.131  0.5607  0.2283 -0.3595
 8710SOL     OW34611   3.298   6.282   1.005 -0.5085 -0.2518 -0.1284
 8710SOL    HW234612   3.357   6.338   0.954 -1.0476 -0.1944 -0.6986
 8710SOL    HW334613   3.262   6.340   1.072  0.0862 -0.2896  0.2292
 8710SOL    MW434614   3.301   6.297   1.007 -0.5012 -0.2492 -0.1564
 8711SOL     OW34615   1.759   2.074   5.967 -0.4505  0.6737  0.2078
 8711SOL    HW234616   1.676   2.122   5.954 -0.6435  0.3261  0.1517
 8711SOL    HW334617   1.784   2.093   6.057  0.5136  2.5139 -0.3966
 8711SOL    MW434618   1.751   2.083   5.977 -0.3487  0.8706  0.1206
 8712SOL     OW34619   5.534   1.513   0.829 -0.0071  0.7479 -0.4925
 8712SOL    HW234620   5.559   1.548   0.743 -0.1490  1.4121 -0.2734
 8712SOL    HW334621   5.469   1.576   0.862  1.2051  1.3949  0.7877
 8712SOL    MW434622   5.529   1.526   0.822  0.1341  0.9209 -0.2947
 8713SOL     OW34623   2.324   1.400   4.138 -0.2699  0.1743 -0.1096
 8713SOL    HW234624   2.417   1.415   4.125 -0.9056  2.4238 -3.6346
 8713SOL    HW334625   2.318   1.310   4.169  3.0253 -0.4769 -0.9707
 8713SOL    MW434626   2.335   1.390   4.140  0.0810  0.3852 -0.6883
 8714SOL     OW34627   0.901   5.489   1.781  0.4038  0.0335 -0.3694
 8714SOL    HW234628   0.815   5.467   1.744  0.4299  1.4103 -1.3407
 8714SOL    HW334629   0.883   5.562   1.840  1.0433  1.1956 -1.5529
 8714SOL    MW434630   0.887   5.496   1.784  0.4916  0.3684 -0.6537
 8715SOL     OW34631   1.000   3.609   5.577 -0.5804 -0.1041 -0.6090
 8715SOL    HW234632   0.987   3.526   5.622  2.0428 -1.4096 -2.0579
 8715SOL    HW334633   1.088   3.636   5.601  0.1476  0.1676 -3.2783
 8715SOL    MW434634   1.010   3.602   5.586 -0.1383 -0.2405 -1.1524
 8716SOL     OW34635   4.543   0.392   6.237  0.0041  0.3199  0.7025
 8716SOL    HW234636   4.618   0.428   6.285  1.9853 -3.5069  0.9283
 8716SOL    HW334637   4.491   0.348   6.304  0.6117 -1.6469 -0.0294
 8716SOL    MW434638   4.546   0.391   6.252  0.3457 -0.4445  0.6357
 8717SOL     OW34639   5.061   1.900   1.390  0.0376  0.1624 -0.0512
 8717SOL    HW234640   5.099   1.838   1.328 -1.8578 -1.0992 -0.0273
 8717SOL    HW334641   5.085   1.866   1.476  0.0540  0.1782 -0.0495
 8717SOL    MW434642   5.069   1.887   1.394 -0.2103 -0.0020 -0.0478
 8718SOL     OW34643   6.359   3.088   0.296 -0.2459  0.7765 -0.4726
 8718SOL    HW234644   6.355   3.046   0.211 -2.2808  0.9512 -0.5080
 8718SOL    HW334645   6.293   3.157   0.292 -1.4339 -0.1235  1.6833
 8718SOL    MW434646   6.350   3.091   0.285 -0.6711  0.6808 -0.1928
 8719SOL     OW34647   3.106   1.978   1.577  0.0433  0.0827 -0.3729
 8719SOL    HW234648   3.078   2.069   1.571  0.7607  0.2460 -1.6402
 8719SOL    HW334649   3.172   1.968   1.508  1.4118 -0.8870  0.9930
 8719SOL    MW434650   3.111   1.989   1.567  0.3185 -0.0237 -0.3599
 8720SOL     OW34651   1.432   3.636   5.463  0.0398 -0.6365 -0.5240
 8720SOL    HW234652   1.420   3.576   5.390  1.4598 -0.6798 -0.7542
 8720SOL    HW334653   1.414   3.723   5.426  0.6184 -0.6732 -0.9007
 8720SOL    MW434654   1.428   3.640   5.449  0.3035 -0.6471 -0.6041
 8721SOL     OW34655   6.267   2.510   4.639 -0.1109  0.0766 -0.0526
 8721SOL    HW234656   6.318   2.431   4.655  1.3940  0.9650 -0.2350
 8721SOL    HW334657   6.206   2.514   4.713  0.1535 -0.9549  0.2456
 8721SOL    MW434658   6.266   2.500   4.651  0.1226  0.0577 -0.0373
 8722SOL     OW34659   1.974   0.949   5.421  0.1272 -0.1283  0.0795
 8722SOL    HW234660   1.976   0.901   5.504  0.6034  0.4188  0.3907
 8722SOL    HW334661   1.984   0.881   5.354  0.9040 -0.4519  0.5180
 8722SOL    MW434662   1.975   0.933   5.423  0.2926 -0.0988  0.1784
 8723SOL     OW34663   3.446   6.092   2.975  0.3600  0.5324  0.3762
 8723SOL    HW234664   3.466   6.094   2.882  0.5329 -0.6758  0.3749
 8723SOL    HW334665   3.443   6.185   3.001  1.4020  0.8639 -0.5905
 8723SOL    MW434666   3.449   6.105   2.966  0.5203  0.4167  0.2485
 8724SOL     OW34667   5.711   0.958   2.155  0.2849 -0.0645 -0.4754
 8724SOL    HW234668   5.635   0.901   2.151 -0.0666  0.1418  1.8168
 8724SOL    HW334669   5.676   1.047   2.154  0.6130  0.0687 -0.8186
 8724SOL    MW434670   5.697   0.963   2.154  0.2818 -0.0197 -0.2183
 8725SOL     OW34671   3.123   0.911   5.030  0.1273 -0.2000  0.1343
 8725SOL    HW234672   3.125   0.854   4.954  0.2238  0.0525 -0.0550
 8725SOL    HW334673   3.212   0.943   5.038  0.2851 -0.7936  0.7900
 8725SOL    MW434674   3.135   0.908   5.021  0.1608 -0.2450  0.1958
 8726SOL     OW34675   3.001   1.818   4.465  0.1177  0.6499 -0.0461
 8726SOL    HW234676   2.923   1.828   4.410 -0.5261  0.1974  0.7626
 8726SOL    HW334677   2.997   1.728   4.496  1.5614  0.2728 -0.8589
 8726SOL    MW434678   2.990   1.807   4.462  0.2232  0.5404 -0.0466
 8727SOL     OW34679   1.493   1.832   5.814 -0.2594  0.2572 -0.5241
 8727SOL    HW234680   1.539   1.761   5.771 -2.4813 -1.3737 -0.3729
 8727SOL    HW334681   1.506   1.817   5.907 -0.1644  0.4427 -0.5068
 8727SOL    MW434682   1.500   1.821   5.821 -0.5400  0.0665 -0.5019
 8728SOL     OW34683   2.183   1.309   4.678  0.0046 -0.1812 -0.1365
 8728SOL    HW234684   2.096   1.348   4.666  0.0501  0.0238  0.1714
 8728SOL    HW334685   2.234   1.379   4.720  0.1686 -0.4821  0.1646
 8728SOL    MW434686   2.178   1.324   4.682  0.0322 -0.1939 -0.0561
 8729SOL     OW34687   3.846   3.085   5.686 -0.9233 -0.5124 -0.2089
 8729SOL    HW234688   3.801   3.006   5.715  1.5468 -1.8718  0.1912
 8729SOL    HW334689   3.866   3.069   5.594  0.8966 -1.0870  0.2418
 8729SOL    MW434690   3.843   3.072   5.677 -0.3573 -0.7675 -0.0966
 8730SOL     OW34691   2.192   0.876   2.894  0.0238 -0.5806 -0.4955
 8730SOL    HW234692   2.104   0.863   2.859 -0.4972  0.9464  0.1465
 8730SOL    HW334693   2.197   0.970   2.911  1.1039 -0.9127  1.2394
 8730SOL    MW434694   2.181   0.887   2.892  0.0975 -0.4229 -0.1819
 8731SOL     OW34695   0.453   3.483   3.760 -0.5002  0.3548 -0.0322
 8731SOL    HW234696   0.479   3.572   3.738  2.2288 -0.1653  0.7008
 8731SOL    HW334697   0.521   3.428   3.719 -1.1830 -1.2732  0.9316
 8731SOL    MW434698   0.465   3.487   3.751 -0.2302  0.0714  0.1917
 8732SOL     OW34699   0.056   0.673   4.234  0.5628 -0.0902  0.2914
 8732SOL    HW234700   0.035   0.738   4.301  2.3264  0.1511  0.6724
 8732SOL    HW334701   0.082   0.595   4.282 -1.5153 -1.1164 -0.1695
 8732SOL    MW434702   0.057   0.671   4.249  0.5213 -0.1937  0.2809
 8733SOL     OW34703   5.725   4.311   4.402 -0.2044 -0.1074  0.1124
 8733SOL    HW234704   5.659   4.246   4.379 -0.2382  0.7008 -2.3657
 8733SOL    HW334705   5.675   4.392   4.414  0.2361  0.3229 -0.9129
 8733SOL    MW434706   5.709   4.313   4.401 -0.1508  0.0560 -0.3498
 8734SOL     OW34707   3.699   2.117   2.598 -0.1126  0.3982  0.7127
 8734SOL    HW234708   3.657   2.202   2.588  0.0902  0.2327 -2.1013
 8734SOL    HW334709   3.729   2.093   2.511  1.2914 -1.8486  1.6990
 8734SOL    MW434710   3.697   2.125   2.585  0.0994  0.0799  0.4715
 8735SOL     OW34711   1.662   1.186   0.745 -0.5538  0.4183 -0.0662
 8735SOL    HW234712   1.687   1.264   0.694 -2.2536 -0.3039 -2.1221
 8735SOL    HW334713   1.589   1.148   0.697  1.1581 -3.3616 -0.0728
 8735SOL    MW434714   1.656   1.191   0.732 -0.5522 -0.1757 -0.3383
 8736SOL     OW34715   3.992   3.857   1.486  0.1874 -0.2688 -0.4065
 8736SOL    HW234716   4.014   3.782   1.430  2.4045  0.5765 -0.7600
 8736SOL    HW334717   3.979   3.929   1.424 -3.2231 -0.5301 -0.1731
 8736SOL    MW434718   3.993   3.857   1.470  0.0299 -0.1918 -0.4224
 8737SOL     OW34719   2.343   0.586   3.301 -0.5759 -0.7023 -0.1278
 8737SOL    HW234720   2.306   0.611   3.386  0.3414  0.2360  0.0252
 8737SOL    HW334721   2.308   0.651   3.240  1.6317  0.9215  0.2230
 8737SOL    MW434722   2.334   0.598   3.304 -0.1636 -0.3642 -0.0614
 8738SOL     OW34723   3.085   5.371   2.581  0.4910 -0.1166 -0.2503
 8738SOL    HW234724   3.136   5.305   2.534  0.7294 -1.0418  1.2304
 8738SOL    HW334725   3.011   5.322   2.617  0.0631  0.6565 -0.0724
 8738SOL    MW434726   3.082   5.356   2.580  0.4660 -0.1367 -0.0315
 8739SOL     OW34727   0.032   3.597   2.805 -0.4933  0.4120  0.0616
 8739SOL    HW234728   0.011   3.517   2.852  0.4488  0.9243  1.4097
 8739SOL    HW334729  -0.020   3.592   2.725  1.1091 -2.5642 -0.9699
 8739SOL    MW434730   0.022   3.586   2.801 -0.1576  0.0869  0.1034
 8740SOL     OW34731   3.759   4.265   2.096 -0.6147  0.1518  0.0924
 8740SOL    HW234732   3.704   4.281   2.019 -0.4777 -0.5942 -0.1712
 8740SOL    HW334733   3.712   4.198   2.145 -0.3043  0.0438  0.2432
 8740SOL    MW434734   3.745   4.259   2.092 -0.5557  0.0391  0.0775
 8741SOL     OW34735   0.925   2.937   3.508 -0.2376 -0.2682 -0.1411
 8741SOL    HW234736   0.870   2.871   3.549 -0.4834 -0.6234 -1.0137
 8741SOL    HW334737   0.884   2.952   3.422  0.5417  0.0815 -0.4591
 8741SOL    MW434738   0.912   2.930   3.502 -0.1672 -0.2689 -0.2982
 8742SOL     OW34739   2.592   0.494   2.755 -0.3117  0.1953 -0.2397
 8742SOL    HW234740   2.518   0.453   2.800  1.0873 -1.9512  0.2677
 8742SOL    HW334741   2.617   0.430   2.688  0.0422  1.6476 -1.5332
 8742SOL    MW434742   2.586   0.480   2.752 -0.0804  0.1037 -0.3434
 8743SOL     OW34743   0.735   0.969   2.223  0.7225 -0.1959  0.0733
 8743SOL    HW234744   0.712   1.049   2.269  0.7671  0.9154 -1.7344
 8743SOL    HW334745   0.810   0.934   2.270  0.4630  0.6089  1.1129
 8743SOL    MW434746   0.742   0.975   2.235  0.6941  0.0569 -0.0281
 8744SOL     OW34747   1.220   5.087   1.884 -0.4115  0.0694  0.5025
 8744SOL    HW234748   1.151   5.035   1.842 -1.2605  1.5575 -0.0121
 8744SOL    HW334749   1.300   5.061   1.838 -0.2641 -2.8758  2.1778
 8744SOL    MW434750   1.222   5.077   1.872 -0.5041 -0.1229  0.6557
 8745SOL     OW34751   2.578   5.901   1.350 -0.2217  0.4614  0.1087
 8745SOL    HW234752   2.576   5.854   1.267  0.2579  0.0035  0.3526
 8745SOL    HW334753   2.541   5.840   1.414  0.1182  0.5221  0.3708
 8745SOL    MW434754   2.573   5.887   1.348 -0.1136  0.4090  0.1755
 8746SOL     OW34755   5.111   5.525   2.537  0.4393 -0.2174  0.4873
 8746SOL    HW234756   5.055   5.449   2.554  1.3457 -1.4350 -1.6106
 8746SOL    HW334757   5.054   5.587   2.491  0.5519 -1.1272 -0.9364
 8746SOL    MW434758   5.096   5.523   2.533  0.5737 -0.4981  0.0227
 8747SOL     OW34759   6.036   1.880   6.432  0.0425 -0.1382 -0.0835
 8747SOL    HW234760   6.037   1.793   6.392  0.1854 -0.4916  0.6635
 8747SOL    HW334761   6.033   1.941   6.358 -0.4562 -0.7845 -0.6075
 8747SOL    MW434762   6.036   1.877   6.417 -0.0044 -0.2701 -0.0541
 8748SOL     OW34763   3.803   4.037   5.945  0.0081 -0.2951  0.1108
 8748SOL    HW234764   3.774   4.117   5.989 -1.4990 -1.2713  0.9949
 8748SOL    HW334765   3.822   4.065   5.855  0.5268  1.2363  0.6736
 8748SOL    MW434766   3.801   4.052   5.939 -0.1223 -0.2219  0.3017
 8749SOL     OW34767   6.119   5.571   1.843 -0.3685 -0.0375 -0.2782
 8749SOL    HW234768   6.060   5.595   1.771 -0.0627 -0.2314 -0.5950
 8749SOL    HW334769   6.066   5.583   1.922 -0.3741  1.2043 -0.4544
 8749SOL    MW434770   6.104   5.576   1.844 -0.3289  0.1007 -0.3432
 8750SOL     OW34771   2.326   0.269   4.998  0.6455 -0.7215  0.6748
 8750SOL    HW234772   2.349   0.181   4.967 -0.6861 -0.8728  0.0464
 8750SOL    HW334773   2.248   0.292   4.948  0.6655  0.6101  1.2253
 8750SOL    MW434774   2.319   0.260   4.987  0.4725 -0.5657  0.6646
 8751SOL     OW34775   2.632   5.330   4.511 -0.1102  0.1845 -0.6045
 8751SOL    HW234776   2.538   5.311   4.504 -0.6341  2.4248 -0.3714
 8751SOL    HW334777   2.650   5.328   4.605 -0.0239  0.2490 -0.6202
 8751SOL    MW434778   2.622   5.327   4.522 -0.1680  0.4886 -0.5758
 8752SOL     OW34779   2.954   1.310   0.178  0.0727  0.4891  0.3530
 8752SOL    HW234780   2.878   1.313   0.235  0.6310 -0.1509  1.1573
 8752SOL    HW334781   2.926   1.355   0.098 -2.2360 -2.3655 -0.6533
 8752SOL    MW434782   2.940   1.316   0.175 -0.1583  0.0280  0.3263
 8753SOL     OW34783   4.337   1.850   1.562 -0.3629 -0.5120  0.0659
 8753SOL    HW234784   4.355   1.810   1.477  1.4556  0.3370  0.0172
 8753SOL    HW334785   4.365   1.941   1.553 -1.3446 -0.0724  1.1881
 8753SOL    MW434786   4.343   1.857   1.550 -0.2525 -0.3420  0.2076
 8754SOL     OW34787   1.655   3.862   1.402  0.5706 -0.5042  0.2112
 8754SOL    HW234788   1.701   3.789   1.445  0.5728 -0.3499  0.4732
 8754SOL    HW334789   1.700   3.874   1.319  2.0892  0.7425  1.1603
 8754SOL    MW434790   1.667   3.854   1.397  0.7713 -0.3194  0.3710
 8755SOL     OW34791   0.071   6.351   0.778  0.3505 -0.4082 -0.3940
 8755SOL    HW234792   0.024   6.269   0.794 -3.0694  1.6755  1.3573
 8755SOL    HW334793   0.070   6.360   0.682  1.2869 -2.5896 -0.6608
 8755SOL    MW434794   0.065   6.341   0.767  0.0229 -0.4211 -0.1981
 8756SOL     OW34795   2.138   3.706   5.135 -0.3706  0.1577 -0.0452
 8756SOL    HW234796   2.215   3.703   5.078 -0.8013 -1.8692 -0.5994
 8756SOL    HW334797   2.075   3.758   5.087 -0.0085  0.2082 -0.4738
 8756SOL    MW434798   2.140   3.712   5.121 -0.3797 -0.1030 -0.1749
 8757SOL     OW34799   4.602   1.393   1.961 -0.4272 -0.4151  0.0523
 8757SOL    HW234800   4.622   1.487   1.958 -0.2991 -0.3114  2.4388
 8757SOL    HW334801   4.671   1.353   1.908 -0.8138  0.8339 -1.5064
 8757SOL    MW434802   4.614   1.400   1.954 -0.4613 -0.2366  0.1615
 8758SOL     OW34803   1.420   5.988   1.593 -0.0269 -0.2912  0.1718
 8758SOL    HW234804   1.393   6.076   1.620 -0.3308 -0.6511  1.0698
 8758SOL    HW334805   1.512   5.998   1.569 -0.3301  0.4791 -0.7212
 8758SOL    MW434806   1.429   6.001   1.594 -0.1070 -0.2371  0.1724
 8759SOL     OW34807   1.973   5.337   1.224  0.1909  0.0319 -0.1289
 8759SOL    HW234808   1.994   5.303   1.311  0.4143 -0.7791 -0.4899
 8759SOL    HW334809   1.932   5.263   1.179  2.9097 -0.6214 -1.7808
 8759SOL    MW434810   1.970   5.322   1.229  0.5791 -0.1613 -0.3945
 8760SOL     OW34811   4.237   2.911   3.228  0.1407 -0.5435 -0.0975
 8760SOL    HW234812   4.256   2.916   3.322 -0.2641 -0.2005 -0.0310
 8760SOL    HW334813   4.235   3.002   3.198  0.2706 -0.6521 -0.4397
 8760SOL    MW434814   4.239   2.923   3.237  0.1044 -0.5125 -0.1339
 8761SOL     OW34815   2.228   4.330   2.204 -0.0651  0.1764 -0.4364
 8761SOL    HW234816   2.277   4.310   2.284  0.1394 -0.8099 -0.8015
 8761SOL    HW334817   2.190   4.416   2.221 -1.0034 -0.5083  1.2101
 8761SOL    MW434818   2.229   4.339   2.217 -0.1619 -0.0441 -0.2673
 8762SOL     OW34819   2.633   2.309   3.044 -0.0510  0.6794 -0.1717
 8762SOL    HW234820   2.623   2.214   3.031  1.3698  0.5414 -0.4911
 8762SOL    HW334821   2.581   2.348   2.974  0.9887  0.0662 -1.3334
 8762SOL    MW434822   2.625   2.301   3.033  0.2737  0.5803 -0.3671
 8763SOL     OW34823   4.515   2.309   1.179 -0.1095  0.4964  0.7260
 8763SOL    HW234824   4.455   2.384   1.167  0.7367  1.1364  0.4167
 8763SOL    HW334825   4.532   2.308   1.273 -2.3198 -1.0622  1.1887
 8763SOL    MW434826   4.509   2.319   1.190 -0.2895  0.3752  0.7462
 8764SOL     OW34827   4.829   4.427   0.860  0.2388  0.3361 -0.3877
 8764SOL    HW234828   4.886   4.471   0.924 -1.1294  2.1667 -0.3370
 8764SOL    HW334829   4.755   4.396   0.912  0.4688 -0.7099 -0.6729
 8764SOL    MW434830   4.827   4.429   0.875  0.0886  0.4396 -0.4186
 8765SOL     OW34831   2.032   6.210   2.053 -0.4607 -0.4055  0.2374
 8765SOL    HW234832   2.053   6.143   1.989  1.3212 -0.9597  1.3401
 8765SOL    HW334833   1.937   6.218   2.050 -0.5158 -1.4322 -1.4304
 8765SOL    MW434834   2.022   6.202   2.044 -0.2329 -0.6141  0.1629
 8766SOL     OW34835   1.309   3.908   6.326 -0.0534  0.6454 -0.5694
 8766SOL    HW234836   1.333   3.842   6.391 -1.6317  0.2623 -0.3197
 8766SOL    HW334837   1.255   3.971   6.374 -1.6753  0.0788 -1.5657
 8766SOL    MW434838   1.305   3.907   6.341 -0.4756  0.5201 -0.6679
 8767SOL     OW34839   2.251   0.623   0.019 -0.0432 -0.4538  0.0114
 8767SOL    HW234840   2.343   0.642   0.001  0.2064 -0.6550  1.0328
 8767SOL    HW334841   2.248   0.528   0.030 -0.3373 -0.4205  0.2157
 8767SOL    MW434842   2.263   0.613   0.018 -0.0491 -0.4759  0.1731
 8768SOL     OW34843   2.450   3.780   4.202 -0.0781 -0.7275  0.0437
 8768SOL    HW234844   2.448   3.694   4.158  1.3941 -0.9059  0.2924
 8768SOL    HW334845   2.535   3.783   4.245  0.2877  1.2530 -0.7363
 8768SOL    MW434846   2.461   3.769   4.202  0.1644 -0.4897 -0.0264
 8769SOL     OW34847   4.901   3.446   5.877  0.6262  0.3184  0.1813
 8769SOL    HW234848   4.947   3.454   5.794  0.7635 -0.3249  0.1948
 8769SOL    HW334849   4.808   3.455   5.854  0.7380  4.3141  0.4486
 8769SOL    MW434850   4.895   3.448   5.863  0.6591  0.7607  0.2184
 8770SOL     OW34851   3.811   3.868   0.111 -0.0975  0.1633  0.1543
 8770SOL    HW234852   3.759   3.878   0.031  1.4641  0.3257 -0.8873
 8770SOL    HW334853   3.780   3.938   0.169 -0.7544  0.5085 -0.5915
 8770SOL    MW434854   3.800   3.879   0.108  0.0219  0.2303 -0.0815
 8771SOL     OW34855   1.500   4.534   2.595  0.1834 -0.4976  0.3453
 8771SOL    HW234856   1.408   4.550   2.575 -0.1349  0.8851  2.5755
 8771SOL    HW334857   1.548   4.596   2.539 -0.4438  0.6503  1.0295
 8771SOL    MW434858   1.494   4.545   2.585  0.0587 -0.1637  0.7299
 8772SOL     OW34859   2.816   5.140   3.097 -0.1138 -0.1221  0.1205
 8772SOL    HW234860   2.786   5.140   3.188 -0.3457 -0.7701  0.0503
 8772SOL    HW334861   2.897   5.189   3.099 -0.2976  0.1732  0.6206
 8772SOL    MW434862   2.823   5.146   3.110 -0.1687 -0.1686  0.1772
 8773SOL     OW34863   5.939   6.304   4.443 -0.1509 -0.2043 -0.3640
 8773SOL    HW234864   5.881   6.320   4.369 -1.8980  0.0876  1.0097
 8773SOL    HW334865   6.006   6.372   4.436 -1.5983  1.2750 -0.4203
 8773SOL    MW434866   5.940   6.315   4.432 -0.5724  0.0294 -0.1902
 8774SOL     OW34867   5.872   2.115   2.488  0.1901 -0.3563  0.1027
 8774SOL    HW234868   5.846   2.041   2.544 -1.1949  0.4413  0.5621
 8774SOL    HW334869   5.956   2.088   2.450  0.3831 -1.5934  1.3201
 8774SOL    MW434870   5.880   2.102   2.491  0.0328 -0.4143  0.3240
 8775SOL     OW34871   0.435   2.444   3.049  0.2795 -0.1993 -0.0009
 8775SOL    HW234872   0.391   2.393   3.117 -0.7401 -0.3461 -0.7355
 8775SOL    HW334873   0.504   2.387   3.015  0.7901 -0.1236  0.8985
 8775SOL    MW434874   0.438   2.430   3.053  0.2123 -0.2087  0.0208
 8776SOL     OW34875   0.411   5.534   4.543  0.4451  0.5299  0.0314
 8776SOL    HW234876   0.472   5.589   4.592 -0.5493  0.0257  1.9751
 8776SOL    HW334877   0.325   5.560   4.576 -0.0886 -1.7690  0.6273
 8776SOL    MW434878   0.407   5.544   4.554  0.2435  0.1600  0.3665
 8777SOL     OW34879   4.312   5.919   4.572 -0.0132 -0.2881  0.4732
 8777SOL    HW234880   4.328   6.010   4.598 -2.2956  0.2755  0.0962
 8777SOL    HW334881   4.354   5.867   4.640 -0.8191  1.0879  2.0790
 8777SOL    MW434882   4.320   5.924   4.584 -0.4206 -0.0322  0.6353
 8778SOL     OW34883   3.212   5.281   6.192  0.3279  0.2240 -0.7299
 8778SOL    HW234884   3.163   5.202   6.168  0.4176  0.7318 -2.7402
 8778SOL    HW334885   3.145   5.341   6.226  0.3943 -1.0038  1.7643
 8778SOL    MW434886   3.197   5.279   6.193  0.3485  0.1290 -0.6661
 8779SOL     OW34887   5.104   1.611   5.430  0.2294  0.1596  0.6021
 8779SOL    HW234888   5.185   1.656   5.454  0.3635 -0.2867  0.9959
 8779SOL    HW334889   5.098   1.537   5.491 -0.4305  0.1406  0.5192
 8779SOL    MW434890   5.114   1.607   5.441  0.1601  0.0982  0.6431
 8780SOL     OW34891   5.296   0.421   2.717  0.6963  0.8870  0.0010
 8780SOL    HW234892   5.314   0.488   2.651 -1.1097  0.7092 -0.7261
 8780SOL    HW334893   5.262   0.347   2.667  0.6125  0.2342  1.0026
 8780SOL    MW434894   5.294   0.420   2.702  0.4469  0.7774  0.0372
 8781SOL     OW34895   5.019   2.027   3.382  0.3083  0.6951 -0.4846
 8781SOL    HW234896   5.075   1.950   3.369 -0.9538 -0.0693 -1.6620
 8781SOL    HW334897   4.931   1.992   3.387 -0.1598  1.9601  0.4883
 8781SOL    MW434898   5.015   2.013   3.381  0.0801  0.7611 -0.5116
 8782SOL     OW34899   6.308   2.746   2.966  0.3048  0.0160  0.5039
 8782SOL    HW234900   6.356   2.829   2.955  3.0125 -1.4159  0.4871
 8782SOL    HW334901   6.335   2.715   3.052 -1.0439 -0.6529  0.6991
 8782SOL    MW434902   6.318   2.753   2.976  0.4841 -0.2612  0.5275
 8783SOL     OW34903   3.715   5.355   3.238 -0.3091 -0.1190 -0.1710
 8783SOL    HW234904   3.661   5.433   3.253 -0.4314 -0.2501  0.0803
 8783SOL    HW334905   3.737   5.358   3.145  0.2713  0.5934 -0.0204
 8783SOL    MW434906   3.711   5.366   3.228 -0.2486 -0.0423 -0.1180
 8784SOL     OW34907   2.988   3.974   0.769  0.3828 -0.2416  0.0632
 8784SOL    HW234908   3.016   3.891   0.728  1.1879  1.0998 -2.3245
 8784SOL    HW334909   3.065   4.031   0.762 -1.2595  1.9132 -1.9230
 8784SOL    MW434910   3.002   3.970   0.762  0.2723  0.2196 -0.5139
 8785SOL     OW34911   2.717   3.392   6.008  0.0291 -0.3940  0.5194
 8785SOL    HW234912   2.783   3.411   6.075 -2.5163  3.5407  2.2692
 8785SOL    HW334913   2.661   3.325   6.047  0.5363 -0.6624  0.7975
 8785SOL    MW434914   2.719   3.385   6.022 -0.2398  0.0897  0.7870
 8786SOL     OW34915   5.901   1.170   3.724  0.9064  0.5760 -0.4818
 8786SOL    HW234916   5.971   1.234   3.708  2.0277 -0.5186 -0.1226
 8786SOL    HW334917   5.947   1.088   3.743 -0.4884 -0.3978 -1.0998
 8786SOL    MW434918   5.916   1.168   3.725  0.8703  0.3031 -0.5159
 8787SOL     OW34919   1.705   0.944   5.434 -0.1958  0.2938  0.4045
 8787SOL    HW234920   1.679   0.999   5.508  0.0860  0.8824  0.0711
 8787SOL    HW334921   1.800   0.949   5.433 -0.1737 -0.1282  0.3158
 8787SOL    MW434922   1.714   0.952   5.443 -0.1557  0.3158  0.3488
 8788SOL     OW34923   4.436   2.661   3.800  0.6273  0.0826  0.7718
 8788SOL    HW234924   4.500   2.653   3.729 -0.1514  0.1830  0.0352
 8788SOL    HW334925   4.484   2.701   3.872  1.7125 -0.9814  0.6675
 8788SOL    MW434926   4.451   2.665   3.800  0.6678 -0.0445  0.6608
 8789SOL     OW34927   1.637   5.907   1.905  0.6774  0.1222  0.2779
 8789SOL    HW234928   1.680   5.821   1.900  2.0888  0.8970 -2.0147
 8789SOL    HW334929   1.677   5.949   1.982 -1.0645 -1.7085  2.3271
 8789SOL    MW434930   1.648   5.901   1.915  0.6338 -0.0171  0.2458
 8790SOL     OW34931   1.996   4.869   3.260 -0.2396 -0.0737 -0.4448
 8790SOL    HW234932   2.086   4.898   3.243 -1.6415  5.0404 -0.7403
 8790SOL    HW334933   1.979   4.804   3.192  3.5866 -2.5083  0.6064
 8790SOL    MW434934   2.006   4.864   3.248  0.0802  0.2798 -0.3451
 8791SOL     OW34935   4.531   3.975   3.957 -0.4671  0.4662 -0.5663
 8791SOL    HW234936   4.516   4.020   3.874 -2.5344  0.7023 -0.1292
 8791SOL    HW334937   4.466   3.905   3.959  1.4056 -1.3655 -0.3462
 8791SOL    MW434938   4.521   3.972   3.947 -0.4928  0.2557 -0.4796
 8792SOL     OW34939   2.517   0.543   0.140 -0.5519 -0.0412  0.1987
 8792SOL    HW234940   2.527   0.522   0.233  2.2844 -2.3678 -0.5082
 8792SOL    HW334941   2.569   0.623   0.129  0.7950 -0.8612  0.3215
 8792SOL    MW434942   2.525   0.551   0.151  0.0000 -0.4564  0.1216
 8793SOL     OW34943   0.810   2.252   4.003 -0.5688  0.1117  0.1786
 8793SOL    HW234944   0.874   2.224   3.938 -2.0453 -1.4179 -0.6642
 8793SOL    HW334945   0.836   2.206   4.083  0.1602  0.5602  0.2114
 8793SOL    MW434946   0.822   2.242   4.005 -0.6674 -0.0309  0.0717
 8794SOL     OW34947   6.351   4.060   3.158  0.2894  0.0674  0.6541
 8794SOL    HW234948   6.301   4.039   3.237  1.9899 -2.0861  1.2783
 8794SOL    HW334949   6.412   3.986   3.148 -0.0931  0.0730 -2.9211
 8794SOL    MW434950   6.353   4.048   3.167  0.4633 -0.2160  0.2648
 8795SOL     OW34951   2.460   2.304   3.268 -0.0422  0.2491  0.9190
 8795SOL    HW234952   2.533   2.311   3.206 -2.2097  2.2634 -1.6776
 8795SOL    HW334953   2.408   2.230   3.237 -0.8217  0.8882  0.6501
 8795SOL    MW434954   2.463   2.295   3.256 -0.4310  0.5992  0.5410
 8796SOL     OW34955   2.591   6.085   2.670  0.5372 -0.1695 -0.7318
 8796SOL    HW234956   2.505   6.047   2.653  0.3755 -0.2823  0.2822
 8796SOL    HW334957   2.602   6.151   2.601  1.0615 -2.3554 -2.8705
 8796SOL    MW434958   2.581   6.089   2.658  0.5851 -0.4728 -0.8802
 8797SOL     OW34959   1.954   4.686   4.253  0.6575  0.3354  0.0386
 8797SOL    HW234960   1.884   4.659   4.193 -1.5362  1.8151  1.7636
 8797SOL    HW334961   2.035   4.654   4.212 -0.9147 -0.6493 -2.5224
 8797SOL    MW434962   1.956   4.678   4.240  0.1606  0.4007 -0.0717
 8798SOL     OW34963   0.997   4.233   4.520 -0.6190 -0.0627 -0.0911
 8798SOL    HW234964   1.060   4.280   4.464  1.3694 -2.1622  0.2436
 8798SOL    HW334965   1.052   4.191   4.587 -2.5069 -1.1615  0.8316
 8798SOL    MW434966   1.013   4.234   4.522 -0.6057 -0.4847  0.0748
 8799SOL     OW34967   5.666   4.730   1.880  0.1320  0.3402  0.0471
 8799SOL    HW234968   5.616   4.758   1.804  0.7349 -3.2439 -1.9116
 8799SOL    HW334969   5.755   4.761   1.863  0.4483 -1.1267 -1.2641
 8799SOL    MW434970   5.671   4.738   1.868  0.2532 -0.3262 -0.3844
 8800SOL     OW34971   0.011   4.241   2.975  0.2436  0.2651 -0.3637
 8800SOL    HW234972  -0.038   4.177   3.027  1.6667 -0.6324 -0.0811
 8800SOL    HW334973   0.078   4.274   3.035  0.3070  1.0906 -0.8845
 8800SOL    MW434974   0.013   4.237   2.990  0.4398  0.2556 -0.3951
 8801SOL     OW34975   0.050   5.221   4.346 -0.2786 -0.0280 -0.5699
 8801SOL    HW234976   0.130   5.255   4.386 -0.7470  1.7694 -1.0733
 8801SOL    HW334977   0.064   5.126   4.341 -0.1690 -0.4536  3.8301
 8801SOL    MW434978   0.062   5.213   4.351 -0.3259  0.1530 -0.0558
 8802SOL     OW34979   6.170   2.955   3.461 -0.4976  0.5848  0.0773
 8802SOL    HW234980   6.161   2.946   3.366  1.7094  0.5137 -0.1690
 8802SOL    HW334981   6.143   3.045   3.479 -3.2655 -0.0883 -0.2179
 8802SOL    MW434982   6.165   2.966   3.451 -0.5716  0.4866  0.0058
 8803SOL     OW34983   3.491   4.331   4.232  0.0646 -0.1270  0.0494
 8803SOL    HW234984   3.585   4.323   4.245 -0.3024 -1.3682  2.4039
 8803SOL    HW334985   3.458   4.242   4.242 -1.3863  0.2617 -0.8752
 8803SOL    MW434986   3.499   4.318   4.235 -0.1752 -0.2395  0.2380
 8804SOL     OW34987   2.554   5.506   4.056  0.0627  0.2377 -0.0121
 8804SOL    HW234988   2.592   5.445   3.992 -2.4554 -0.7371 -0.7288
 8804SOL    HW334989   2.493   5.559   4.005 -0.4864  0.8603  1.2440
 8804SOL    MW434990   2.551   5.505   4.041 -0.3419  0.1912  0.0591
 8805SOL     OW34991   5.961   4.806   2.453 -0.3214 -0.1731 -0.4574
 8805SOL    HW234992   6.026   4.856   2.403 -1.0580 -0.9596 -2.2881
 8805SOL    HW334993   5.881   4.812   2.401 -0.7897 -2.0551 -0.0146
 8805SOL    MW434994   5.959   4.813   2.439 -0.4804 -0.5252 -0.6405
 8806SOL     OW34995   0.394   4.565   3.500  0.0789  0.4258 -0.2640
 8806SOL    HW234996   0.374   4.652   3.535 -0.6918 -0.2916  1.1548
 8806SOL    HW334997   0.480   4.544   3.535  0.1696  0.5161 -0.4294
 8806SOL    MW434998   0.403   4.574   3.509 -0.0108  0.3431 -0.0987
 8807SOL     OW34999   2.145   5.151   3.917 -0.2880 -0.3764 -0.7361
 8807SOL    HW235000   2.142   5.078   3.979  1.4472  0.5035  0.4876
 8807SOL    HW335001   2.228   5.138   3.870 -0.9284 -0.2684 -1.9259
 8807SOL    MW435002   2.156   5.139   3.919 -0.1435 -0.2461 -0.7316
 8808SOL     OW35003   1.668   5.493   4.016  0.1797 -0.4261  0.3790
 8808SOL    HW235004   1.608   5.430   4.056 -0.5450  0.4841  0.7505
 8808SOL    HW335005   1.737   5.439   3.979 -1.9694 -1.7290 -2.0903
 8808SOL    MW435006   1.669   5.477   4.017 -0.1995 -0.4779  0.1022
 8809SOL     OW35007   0.960   0.305   1.180  0.6995 -0.2577 -0.1330
 8809SOL    HW235008   0.951   0.254   1.099  1.5921  1.1349 -1.1468
 8809SOL    HW335009   1.028   0.369   1.161 -1.4487  2.4403  0.4926
 8809SOL    MW435010   0.967   0.307   1.167  0.5338  0.2820 -0.1842
 8810SOL     OW35011   0.917   3.182   3.194 -0.0547 -0.0830  0.0214
 8810SOL    HW235012   0.915   3.266   3.149  0.3569 -0.1309 -0.0887
 8810SOL    HW335013   1.006   3.149   3.181 -0.2787 -0.6447 -0.1360
 8810SOL    MW435014   0.928   3.189   3.186 -0.0299 -0.1635 -0.0139
 8811SOL     OW35015   0.795   6.146   6.312  0.2175  0.1946  0.1100
 8811SOL    HW235016   0.776   6.202   6.387 -2.5693 -1.0593  0.4809
 8811SOL    HW335017   0.833   6.066   6.350 -0.8239 -0.2803  0.1891
 8811SOL    MW435018   0.797   6.143   6.327 -0.2876 -0.0335  0.1693
 8812SOL     OW35019   6.324   3.548   2.527  0.5988 -0.0766 -0.5966
 8812SOL    HW235020   6.246   3.563   2.582 -0.0341  0.3174 -1.5716
 8812SOL    HW335021   6.324   3.454   2.512  1.0843 -0.2677  0.5034
 8812SOL    MW435022   6.314   3.538   2.532  0.5793 -0.0498 -0.5801
 8813SOL     OW35023   2.704   1.800   5.849 -0.1575  0.2425 -0.3389
 8813SOL    HW235024   2.755   1.871   5.888  3.4069 -1.5360 -1.2509
 8813SOL    HW335025   2.733   1.797   5.758 -0.2463 -2.2235 -0.3647
 8813SOL    MW435026   2.715   1.809   5.842  0.3011 -0.3175 -0.4626
 8814SOL     OW35027   2.029   2.301   4.826 -0.5558 -0.3379 -0.4750
 8814SOL    HW235028   2.088   2.325   4.755  2.1926 -2.6793  0.7814
 8814SOL    HW335029   2.015   2.381   4.876  0.2465  0.6047 -1.7355
 8814SOL    MW435030   2.035   2.314   4.824 -0.0873 -0.5224 -0.4756
 8815SOL     OW35031   3.463   5.126   6.148  0.0625  0.1268 -0.0854
 8815SOL    HW235032   3.387   5.159   6.196 -0.1041 -1.8515  1.1320
 8815SOL    HW335033   3.434   5.042   6.112  1.9466 -1.2820  1.4266
 8815SOL    MW435034   3.449   5.119   6.150  0.2891 -0.3201  0.2747
 8816SOL     OW35035   5.549   5.366   0.856  0.1358 -0.2754 -0.2179
 8816SOL    HW235036   5.558   5.461   0.843 -0.1908 -0.0830  0.8928
 8816SOL    HW335037   5.508   5.357   0.942 -0.5040 -1.4125 -0.6247
 8816SOL    MW435038   5.545   5.378   0.866  0.0083 -0.4001 -0.1250
 8817SOL     OW35039   3.654   3.370   0.031 -0.3295 -0.5114  0.5740
 8817SOL    HW235040   3.643   3.445  -0.028 -0.4729 -0.8492  0.1720
 8817SOL    HW335041   3.607   3.396   0.111  2.6393  1.4034  1.8950
 8817SOL    MW435042   3.646   3.384   0.034  0.0433 -0.3033  0.6952
 8818SOL     OW35043   3.057   6.231   0.842 -0.3180  0.3377  0.4243
 8818SOL    HW235044   3.103   6.166   0.788  1.3788  2.8826 -1.4270
 8818SOL    HW335045   3.123   6.263   0.903 -0.9528  0.7682  0.8941
 8818SOL    MW435046   3.072   6.227   0.843 -0.1779  0.7303  0.2420
 8819SOL     OW35047   0.504   2.235   4.648  0.0388 -0.0609  0.0743
 8819SOL    HW235048   0.487   2.262   4.738  1.9955 -2.0259  1.1446
 8819SOL    HW335049   0.555   2.308   4.611  2.0175 -0.5244  1.6718
 8819SOL    MW435050   0.509   2.248   4.655  0.5580 -0.3813  0.4263
 8820SOL     OW35051   3.511   1.603   4.605  0.1096  0.5624 -0.3166
 8820SOL    HW235052   3.428   1.644   4.630  0.1288 -0.0142  0.7251
 8820SOL    HW335053   3.566   1.676   4.577 -1.0736  0.8523 -2.0370
 8820SOL    MW435054   3.507   1.618   4.605 -0.0439  0.5246 -0.4062
 8821SOL     OW35055   4.684   2.931   4.206 -0.5240  0.3471 -0.4362
 8821SOL    HW235056   4.724   2.876   4.274 -2.7000 -0.5294  0.2063
 8821SOL    HW335057   4.629   2.992   4.254 -0.9728  0.6729 -1.3472
 8821SOL    MW435058   4.682   2.931   4.221 -0.8703  0.2744 -0.4716
 8822SOL     OW35059   6.261   4.072   3.576  0.5834 -0.3029 -0.2478
 8822SOL    HW235060   6.342   4.031   3.547  1.4083  0.8890  0.2802
 8822SOL    HW335061   6.290   4.143   3.634 -0.7908  0.8055 -0.8638
 8822SOL    MW435062   6.276   4.076   3.580  0.5109  0.0006 -0.2594
 8823SOL     OW35063   5.665   0.040   1.732  0.0728 -0.4534 -0.2832
 8823SOL    HW235064   5.634  -0.042   1.772  1.6332 -0.8674  0.1763
 8823SOL    HW335065   5.756   0.021   1.709  0.2704  0.9732 -0.7282
 8823SOL    MW435066   5.673   0.027   1.734  0.3048 -0.3198 -0.2813
 8824SOL     OW35067   3.551   2.275   5.926 -0.1029  0.6468  0.5582
 8824SOL    HW235068   3.502   2.354   5.905  1.3606  1.5543  0.3849
 8824SOL    HW335069   3.538   2.263   6.020 -1.5661  0.2031  0.3126
 8824SOL    MW435070   3.543   2.284   5.936 -0.1029  0.7080  0.5030
 8825SOL     OW35071   5.496   4.576   5.363  0.5726  0.0031  0.7825
 8825SOL    HW235072   5.570   4.539   5.315  2.4066  2.8126  1.1936
 8825SOL    HW335073   5.446   4.624   5.297  1.7080  1.8108  1.1708
 8825SOL    MW435074   5.499   4.577   5.348  0.9644  0.6122  0.8880
 8826SOL     OW35075   3.443   1.205   5.698  0.0297 -0.5558 -0.1735
 8826SOL    HW235076   3.476   1.176   5.783  1.0120 -1.2639 -0.7638
 8826SOL    HW335077   3.445   1.300   5.703  1.2784 -0.5765  0.1812
 8826SOL    MW435078   3.448   1.213   5.710  0.3241 -0.6520 -0.2046
 8827SOL     OW35079   5.728   4.105   2.084  0.6726  0.2343 -0.1823
 8827SOL    HW235080   5.695   4.020   2.057 -2.7756  1.4026 -0.0695
 8827SOL    HW335081   5.752   4.150   2.003 -0.7061  0.3223 -0.5630
 8827SOL    MW435082   5.727   4.100   2.070  0.0357  0.4001 -0.2176
 8828SOL     OW35083   3.317   1.092   1.897 -0.1704  0.6239  0.5649
 8828SOL    HW235084   3.226   1.065   1.884 -0.4770  1.5653  0.6534
 8828SOL    HW335085   3.367   1.011   1.894 -0.4551  0.3691 -3.9318
 8828SOL    MW435086   3.312   1.078   1.895 -0.2484  0.7145 -0.0167
 8829SOL     OW35087   4.941   4.944   5.479 -0.6449 -0.0667 -0.2576
 8829SOL    HW235088   4.919   5.003   5.407 -0.4509 -0.6695 -0.8188
 8829SOL    HW335089   4.968   4.863   5.437 -0.0303 -0.2641  0.4855
 8829SOL    MW435090   4.941   4.941   5.464 -0.5382 -0.1723 -0.2336
 8830SOL     OW35091   2.583   0.211   6.042 -0.2176 -0.7494  0.1681
 8830SOL    HW235092   2.632   0.293   6.047 -1.4780 -0.0284  1.4159
 8830SOL    HW335093   2.649   0.143   6.056  0.5945  0.1367  0.7953
 8830SOL    MW435094   2.598   0.213   6.044 -0.2767 -0.5374  0.4155
 8831SOL     OW35095   3.339   2.328   1.173 -0.2601 -0.4878  0.1093
 8831SOL    HW235096   3.323   2.331   1.267  1.3079  1.0047  0.3803
 8831SOL    HW335097   3.257   2.296   1.136 -0.7353 -1.6254  2.0062
 8831SOL    MW435098   3.326   2.324   1.180 -0.1159 -0.4410  0.3953
 8832SOL     OW35099   2.551   4.092   0.956  0.4292 -0.0787 -0.1488
 8832SOL    HW235100   2.481   4.157   0.963 -0.9741 -1.3451 -1.5574
 8832SOL    HW335101   2.590   4.089   1.043 -1.5623  0.3582  0.8119
 8832SOL    MW435102   2.547   4.100   0.968 -0.0187 -0.1882 -0.2079
 8833SOL     OW35103   3.934   3.002   1.517 -0.2910  0.5372  0.0639
 8833SOL    HW235104   3.869   3.006   1.446  0.4643 -0.2156 -0.7129
 8833SOL    HW335105   3.954   2.908   1.525 -1.4670  0.4192  2.3422
 8833SOL    MW435106   3.928   2.990   1.508 -0.3465  0.4223  0.2620
 8834SOL     OW35107   3.104   2.420   3.470  0.4298  0.3373  0.5806
 8834SOL    HW235108   3.144   2.503   3.497  2.4089 -0.6355  0.8378
 8834SOL    HW335109   3.132   2.357   3.536  0.7191 -0.9413 -0.6986
 8834SOL    MW435110   3.113   2.423   3.482  0.7291  0.0402  0.4457
 8835SOL     OW35111   1.985   1.367   0.287  0.2981  0.1570 -0.3165
 8835SOL    HW235112   1.981   1.330   0.199  1.6372  1.9341 -1.1921
 8835SOL    HW335113   1.944   1.301   0.343  0.7245 -1.6695 -2.0464
 8835SOL    MW435114   1.979   1.354   0.283  0.5310  0.1505 -0.6603
 8836SOL     OW35115   4.437   2.158   3.062  0.5225  0.6728  0.0152
 8836SOL    HW235116   4.374   2.091   3.090 -0.3983  1.9361  1.1259
 8836SOL    HW335117   4.479   2.186   3.143  2.3599  0.0683 -0.6728
 8836SOL    MW435118   4.434   2.153   3.076  0.6434  0.7597  0.0710
 8837SOL     OW35119   6.215   2.815   1.341 -0.3939  0.1259 -0.1357
 8837SOL    HW235120   6.151   2.744   1.338  0.0107 -0.2685  0.3336
 8837SOL    HW335121   6.252   2.818   1.253 -0.2869 -0.3720 -0.1129
 8837SOL    MW435122   6.211   2.806   1.329 -0.3264  0.0081 -0.0708
 8838SOL     OW35123   2.172   6.074   5.206  0.0133  0.5779 -0.2517
 8838SOL    HW235124   2.102   6.022   5.168  1.4213 -0.2734 -1.7730
 8838SOL    HW335125   2.234   6.010   5.242  1.3142  1.1641 -1.3378
 8838SOL    MW435126   2.171   6.059   5.206  0.3707  0.5429 -0.5957
 8839SOL     OW35127   4.440   2.948   6.378 -0.0840 -0.6613  0.2094
 8839SOL    HW235128   4.511   2.928   6.316  0.6948 -1.5834  1.3508
 8839SOL    HW335129   4.399   2.863   6.395 -0.8119 -0.2880  0.3543
 8839SOL    MW435130   4.444   2.934   6.372 -0.0773 -0.7337  0.3791
 8840SOL     OW35131   5.446   0.508   3.512 -0.2326  0.5378  0.6120
 8840SOL    HW235132   5.356   0.512   3.481  0.2063  1.0121 -0.6713
 8840SOL    HW335133   5.492   0.457   3.446  0.7135  1.4835  0.5129
 8840SOL    MW435134   5.440   0.502   3.499 -0.0499  0.7251  0.4296
 8841SOL     OW35135   3.790   5.743   1.868 -0.2006 -0.1524  0.1155
 8841SOL    HW235136   3.737   5.822   1.853 -2.0171 -1.1353  0.9403
 8841SOL    HW335137   3.792   5.699   1.784  2.1171  1.4412 -0.7564
 8841SOL    MW435138   3.783   5.748   1.855 -0.1345 -0.0718  0.1093
 8842SOL     OW35139   4.004   3.451   3.193 -0.0383 -0.0795  0.4693
 8842SOL    HW235140   3.971   3.520   3.250 -0.0426  0.3310 -0.0169
 8842SOL    HW335141   4.016   3.376   3.250  1.4325  0.7640  1.3443
 8842SOL    MW435142   4.001   3.451   3.208  0.1552  0.0860  0.5206
 8843SOL     OW35143   4.048   0.624   3.645 -0.3758 -0.8751  0.3972
 8843SOL    HW235144   4.070   0.664   3.729 -1.5046 -0.0267  0.3176
 8843SOL    HW335145   4.100   0.671   3.580 -0.9534 -0.1914  0.4185
 8843SOL    MW435146   4.058   0.635   3.647 -0.6010 -0.6730  0.3895
 8844SOL     OW35147   5.206   2.397   6.121  0.6551 -0.2641  0.1860
 8844SOL    HW235148   5.168   2.464   6.177  1.7501 -0.4740  1.2067
 8844SOL    HW335149   5.180   2.422   6.032 -0.2026  0.6621  0.6861
 8844SOL    MW435150   5.198   2.409   6.117  0.6864 -0.1696  0.3867
 8845SOL     OW35151   2.440   2.757   5.493 -0.5796  0.1576  0.2341
 8845SOL    HW235152   2.397   2.718   5.417  1.3435 -0.1538 -0.7639
 8845SOL    HW335153   2.522   2.708   5.502  0.2334  1.5947  1.1659
 8845SOL    MW435154   2.445   2.746   5.484 -0.2186  0.3061  0.2254
 8846SOL     OW35155   1.528   1.296   6.170  0.3366  0.0958  0.4636
 8846SOL    HW235156   1.533   1.386   6.138  0.7453 -0.6576 -1.7816
 8846SOL    HW335157   1.521   1.242   6.091 -0.3625 -1.8402  1.7439
 8846SOL    MW435158   1.528   1.300   6.155  0.2983 -0.2591  0.3363
 8847SOL     OW35159   2.629   2.041   3.292  0.0539 -0.2940  0.3813
 8847SOL    HW235160   2.671   2.126   3.299 -0.8404  0.1975 -0.0945
 8847SOL    HW335161   2.626   2.023   3.198 -0.5126 -0.4602  0.4260
 8847SOL    MW435162   2.634   2.050   3.281 -0.1388 -0.2511  0.3244
 8848SOL     OW35163   2.068   1.065   2.144  0.3411  0.0980 -0.3907
 8848SOL    HW235164   2.028   0.985   2.178  1.1220 -0.3137 -0.4178
 8848SOL    HW335165   2.134   1.034   2.082  1.2311  0.7385  0.2168
 8848SOL    MW435166   2.072   1.050   2.140  0.5615  0.1282 -0.3141
 8849SOL     OW35167   4.472   5.352   5.264 -0.2030 -0.3756 -0.3355
 8849SOL    HW235168   4.405   5.341   5.332 -0.7303 -1.5050 -1.0024
 8849SOL    HW335169   4.423   5.344   5.182  0.5207  0.3803 -0.8479
 8849SOL    MW435170   4.456   5.350   5.262 -0.1771 -0.4249 -0.4911
 8850SOL     OW35171   1.433   4.818   1.056 -0.1902  0.7259  0.1494
 8850SOL    HW235172   1.439   4.727   1.026 -0.8554  0.5334  0.5775
 8850SOL    HW335173   1.521   4.854   1.041  0.0145  0.0873 -0.2443
 8850SOL    MW435174   1.446   4.811   1.050 -0.2509  0.6163  0.1540
 8851SOL     OW35175   4.767   5.064   1.760 -0.6674 -0.2997  0.4223
 8851SOL    HW235176   4.743   5.011   1.837 -0.8430 -0.5764  0.1813
 8851SOL    HW335177   4.856   5.038   1.739 -0.1285  0.7288  1.3204
 8851SOL    MW435178   4.775   5.054   1.768 -0.6195 -0.2005  0.5090
 8852SOL     OW35179   4.291   3.162   3.095 -0.2128 -0.1483  0.2245
 8852SOL    HW235180   4.353   3.123   3.034 -1.3461  0.1941 -1.1834
 8852SOL    HW335181   4.340   3.235   3.135  0.6648 -0.6303  0.0661
 8852SOL    MW435182   4.306   3.167   3.092 -0.2465 -0.1667  0.0178
 8853SOL     OW35183   3.648   5.812   4.248 -0.5241 -0.1640 -0.8358
 8853SOL    HW235184   3.594   5.760   4.189 -0.2173 -0.4672 -0.8539
 8853SOL    HW335185   3.588   5.876   4.286 -0.5632  0.5742 -2.0937
 8853SOL    MW435186   3.633   5.814   4.245 -0.4888 -0.1066 -1.0042
 8854SOL     OW35187   2.571   1.603   2.305 -0.2955  0.2219  0.2367
 8854SOL    HW235188   2.620   1.576   2.382 -1.5326 -1.1395  0.5901
 8854SOL    HW335189   2.492   1.645   2.339 -0.1576  0.9531 -0.3081
 8854SOL    MW435190   2.567   1.605   2.319 -0.4405  0.1387  0.2115
 8855SOL     OW35191   3.487   5.331   5.945  0.0350 -0.0609  0.2375
 8855SOL    HW235192   3.402   5.375   5.940  0.3717  0.5202 -1.0020
 8855SOL    HW335193   3.475   5.262   6.009 -1.7720 -0.8149 -0.8293
 8855SOL    MW435194   3.474   5.328   5.953 -0.1590 -0.0837 -0.0668
 8856SOL     OW35195   5.406   4.667   1.276 -0.1054  0.4679 -0.1206
 8856SOL    HW235196   5.460   4.732   1.229  0.1513  1.8186  1.9042
 8856SOL    HW335197   5.458   4.587   1.273  0.4932  0.8681 -1.0392
 8856SOL    MW435198   5.420   4.665   1.270  0.0075  0.6989  0.0253
 8857SOL     OW35199   1.660   4.496   3.490  0.4665 -0.2829  0.3476
 8857SOL    HW235200   1.690   4.471   3.577 -1.6956 -0.0560  1.2189
 8857SOL    HW335201   1.573   4.457   3.483 -0.2116  1.3642 -0.9278
 8857SOL    MW435202   1.653   4.487   3.500  0.0918 -0.0356  0.2943
 8858SOL     OW35203   1.687   3.638   3.639  0.2587 -0.1798  0.0644
 8858SOL    HW235204   1.757   3.642   3.703 -0.2299  0.0305  0.5954
 8858SOL    HW335205   1.607   3.631   3.691 -0.0577 -1.3354 -0.5449
 8858SOL    MW435206   1.686   3.638   3.654  0.1525 -0.3045  0.0540
 8859SOL     OW35207   5.515   3.435   2.228 -0.2710 -0.6079  0.0660
 8859SOL    HW235208   5.535   3.429   2.135  0.5105 -0.9237  0.2439
 8859SOL    HW335209   5.510   3.530   2.245 -1.9459 -0.5425 -0.5853
 8859SOL    MW435210   5.517   3.447   2.218 -0.3889 -0.6410  0.0035
 8860SOL     OW35211   5.117   4.946   1.179 -0.1440  0.1464 -0.0504
 8860SOL    HW235212   5.171   4.992   1.115  1.5012 -0.4656  0.8487
 8860SOL    HW335213   5.080   4.872   1.130 -0.8910  1.0515 -0.8880
 8860SOL    MW435214   5.119   4.942   1.164 -0.0255  0.1851 -0.0422
 8861SOL     OW35215   6.208   4.007   6.174 -0.9581  0.3425  0.4879
 8861SOL    HW235216   6.121   3.973   6.196 -0.7083 -0.0952  0.8216
 8861SOL    HW335217   6.265   3.930   6.175 -0.8776  0.3195 -1.5026
 8861SOL    MW435218   6.204   3.992   6.177 -0.9145  0.2817  0.2693
 8862SOL     OW35219   6.069   3.032   1.240  0.6799  0.4545  0.1134
 8862SOL    HW235220   6.116   2.956   1.276  0.9675 -0.9693 -3.0043
 8862SOL    HW335221   5.982   2.999   1.221  1.4717  0.0454 -3.4779
 8862SOL    MW435222   6.064   3.018   1.243  0.8223  0.2127 -0.7718
 8863SOL     OW35223   5.761   0.468   0.895 -0.4649  0.1320 -0.0167
 8863SOL    HW235224   5.818   0.441   0.824  0.7181  0.3531  0.8204
 8863SOL    HW335225   5.713   0.544   0.860 -1.3244 -0.9202 -1.2049
 8863SOL    MW435226   5.762   0.475   0.881 -0.4222  0.0224 -0.0630
 8864SOL     OW35227   0.179   5.680   4.591 -0.2584  0.4699  0.0789
 8864SOL    HW235228   0.206   5.714   4.676 -1.2941  2.3208 -0.2825
 8864SOL    HW335229   0.221   5.737   4.527 -0.0585 -0.4693 -0.6646
 8864SOL    MW435230   0.188   5.692   4.594 -0.3687  0.5902 -0.0669
 8865SOL     OW35231   2.801   1.991   4.927  0.1627 -0.2935  0.5544
 8865SOL    HW235232   2.770   2.027   4.844 -0.1579 -0.2782  0.6790
 8865SOL    HW335233   2.897   1.999   4.923  0.0886  0.8423  0.7048
 8865SOL    MW435234   2.810   1.996   4.915  0.1106 -0.1416  0.5907
 8866SOL     OW35235   5.764   3.697   6.296 -0.2163  0.0718  0.2833
 8866SOL    HW235236   5.700   3.687   6.225 -2.0625  1.8779  1.5777
 8866SOL    HW335237   5.826   3.762   6.263  1.5607 -2.2731 -1.2991
 8866SOL    MW435238   5.764   3.704   6.282 -0.2254  0.0007  0.2453
 8867SOL     OW35239   6.267   2.104   4.638 -0.9035 -0.1536 -0.0695
 8867SOL    HW235240   6.314   2.046   4.578  0.1676 -0.2316  0.8288
 8867SOL    HW335241   6.323   2.181   4.647  0.6235 -1.4730  3.3337
 8867SOL    MW435242   6.280   2.106   4.631 -0.5607 -0.3380  0.4980
 8868SOL     OW35243   3.755   4.740   5.332  0.3678 -0.0070 -0.1115
 8868SOL    HW235244   3.832   4.796   5.316 -0.1462  0.1881 -2.1574
 8868SOL    HW335245   3.694   4.797   5.379  0.3819  0.7535 -0.9843
 8868SOL    MW435246   3.757   4.755   5.336  0.3018  0.1191 -0.4966
 8869SOL     OW35247   3.331   2.011   0.019 -0.5093  0.1283  0.3020
 8869SOL    HW235248   3.335   1.936   0.080  0.8659 -0.9738 -1.0743
 8869SOL    HW335249   3.321   2.087   0.076 -0.1107 -0.9354  1.8677
 8869SOL    MW435250   3.330   2.011   0.035 -0.2752 -0.1575  0.3270
 8870SOL     OW35251   3.366   4.622   0.303  0.1869  0.4578 -0.2260
 8870SOL    HW235252   3.287   4.579   0.270 -0.4304  1.5066 -0.1903
 8870SOL    HW335253   3.334   4.704   0.341  1.3228  0.9949 -0.3818
 8870SOL    MW435254   3.351   4.627   0.304  0.2553  0.6671 -0.2418
 8871SOL     OW35255   3.869   4.873   4.073 -0.2426 -0.1284 -0.2975
 8871SOL    HW235256   3.854   4.887   3.980  0.3587 -2.4843 -0.8174
 8871SOL    HW335257   3.819   4.794   4.094  1.3465 -0.8986  0.8355
 8871SOL    MW435258   3.861   4.864   4.064  0.0464 -0.5408 -0.2166
 8872SOL     OW35259   1.505   0.444   2.504 -0.0173 -0.5868  0.4706
 8872SOL    HW235260   1.492   0.354   2.475 -0.3895 -0.4930  0.3484
 8872SOL    HW335261   1.437   0.458   2.570  0.2001 -0.4761  0.6731
 8872SOL    MW435262   1.495   0.434   2.509 -0.0377 -0.5598  0.4812
 8873SOL     OW35263   1.245   0.177   6.253  0.3117 -0.3530  0.5393
 8873SOL    HW235264   1.229   0.110   6.320 -0.7353 -1.0826 -0.4012
 8873SOL    HW335265   1.232   0.131   6.170  1.4313  0.5691 -0.1755
 8873SOL    MW435266   1.241   0.162   6.250  0.3213 -0.3276  0.3209
 8874SOL     OW35267   0.501   5.893   1.596 -0.0632  0.4734  0.0744
 8874SOL    HW235268   0.520   5.857   1.683 -0.6177  0.4341  0.1855
 8874SOL    HW335269   0.426   5.842   1.565  0.6634 -0.0830 -0.7938
 8874SOL    MW435270   0.494   5.882   1.603 -0.0405  0.3948 -0.0255
 8875SOL     OW35271   2.560   1.602   5.223  0.4617 -0.1719 -0.5013
 8875SOL    HW235272   2.555   1.683   5.275  0.3106  0.3749 -1.3425
 8875SOL    HW335273   2.489   1.611   5.159  0.3844 -1.0241 -0.5375
 8875SOL    MW435274   2.550   1.614   5.221  0.4316 -0.2122 -0.6170
 8876SOL     OW35275   1.584   6.160   4.671 -0.1832 -0.0866  0.3665
 8876SOL    HW235276   1.550   6.094   4.730 -0.3334  0.9367  1.4497
 8876SOL    HW335277   1.663   6.193   4.714  0.1531  0.1146 -0.3861
 8876SOL    MW435278   1.590   6.156   4.684 -0.1587  0.0749  0.4101
 8877SOL     OW35279   2.732   5.204   5.429  0.0238 -0.0496 -0.2580
 8877SOL    HW235280   2.647   5.194   5.385 -0.2964  0.1452  0.3103
 8877SOL    HW335281   2.769   5.284   5.390  0.2617 -0.5118 -1.0043
 8877SOL    MW435282   2.726   5.213   5.418  0.0129 -0.0849 -0.2814
 8878SOL     OW35283   4.307   1.548   0.647  0.5355 -0.2870  0.3437
 8878SOL    HW235284   4.315   1.599   0.727 -0.4802  0.8074 -0.2110
 8878SOL    HW335285   4.283   1.460   0.676 -2.3865  0.6853  1.2137
 8878SOL    MW435286   4.304   1.543   0.661  0.0160 -0.0143  0.3853
 8879SOL     OW35287   5.125   2.943   0.796  0.2797 -0.1915  0.1804
 8879SOL    HW235288   5.173   3.026   0.787  0.6617 -0.5228 -1.1582
 8879SOL    HW335289   5.152   2.892   0.719 -0.9283 -1.0610  0.3076
 8879SOL    MW435290   5.135   2.947   0.785  0.1708 -0.3499  0.0206
 8880SOL     OW35291   5.556   2.299   3.660 -0.2925 -0.1323  0.3846
 8880SOL    HW235292   5.557   2.394   3.670  2.8565 -0.0386  0.1689
 8880SOL    HW335293   5.523   2.266   3.744  0.9207  1.1517  1.4129
 8880SOL    MW435294   5.552   2.307   3.673  0.2830  0.0495  0.4918
 8881NA      NA35295   5.891   3.105   4.230  0.0721  0.2796 -0.9385
 8882NA      NA35296   5.827   5.651   3.044  0.3946 -0.2336  0.4439
 8883NA      NA35297   1.314   2.180   5.097 -0.2093 -0.6328 -0.4538
 8884NA      NA35298   3.012   1.230   1.969 -0.3804  0.3702 -0.5471
 8885NA      NA35299   0.133   4.196   2.767  0.3234 -0.0635 -0.2339
 8886NA      NA35300   4.115   6.428   3.182 -0.0497 -0.3129  0.0918
 8887NA      NA35301   6.183   3.368   1.373  0.1977 -0.5713 -0.3682
   6.42842   6.42842   6.42842
