A-SYNC WITH LIG-47 in water
35301
  121NASP     N    1   5.440   0.023   3.544  0.4250  0.2670  0.3428
  121NASP    H1    2   5.497  -0.025   3.613 -1.3218  0.2545  1.8769
  121NASP    H2    3   5.463  -0.014   3.453 -0.7574 -0.7181  0.4024
  121NASP    H3    4   5.341   0.004   3.544  0.2074  1.2724  1.4800
  121NASP    CA    5   5.463   0.168   3.563  0.0821  0.2232 -0.6280
  121NASP    HA    6   5.410   0.194   3.654  1.1568  0.7489 -0.1371
  121NASP    CB    7   5.611   0.209   3.580 -0.5974  0.3186 -0.7546
  121NASP   HB1    8   5.653   0.170   3.673 -2.3159  0.1537 -0.0148
  121NASP   HB2    9   5.618   0.318   3.588  0.6539  0.1816  0.4746
  121NASP    CG   10   5.706   0.148   3.474  0.4376  0.2109  0.5781
  121NASP   OD1   11   5.661   0.068   3.391 -0.3114  0.1935 -0.3882
  121NASP   OD2   12   5.825   0.173   3.487 -0.4052 -0.2891 -0.4333
  121NASP     C   13   5.412   0.247   3.442 -0.1796 -0.0578  0.1453
  121NASP     O   14   5.381   0.197   3.335  0.1482  0.2442  0.5906
  122ASN      N   15   5.395   0.375   3.460  0.0196 -0.4938  0.0578
  122ASN      H   16   5.428   0.411   3.548 -1.4400  1.1202 -0.0115
  122ASN     CA   17   5.351   0.470   3.358  0.2474  0.2956 -0.5723
  122ASN     HA   18   5.331   0.419   3.264 -2.8690 -1.1398  0.7119
  122ASN     CB   19   5.222   0.537   3.402 -0.0577 -0.7324 -0.0776
  122ASN    HB1   20   5.191   0.598   3.317 -1.9489 -0.5800  0.6714
  122ASN    HB2   21   5.223   0.587   3.498 -0.3981 -1.5064  0.3452
  122ASN     CG   22   5.111   0.437   3.424 -0.0372  0.1041 -0.1605
  122ASN    OD1   23   5.077   0.394   3.536 -0.5809  0.3380  0.1856
  122ASN    ND2   24   5.059   0.400   3.313  0.4224 -0.0334 -0.1305
  122ASN   HD21   25   4.975   0.343   3.309 -0.2077  0.7824  1.0664
  122ASN   HD22   26   5.089   0.449   3.230 -1.8640  0.7612 -0.5624
  122ASN      C   27   5.464   0.568   3.320  0.1662 -0.1327  0.0137
  122ASN      O   28   5.527   0.623   3.409  0.1415  0.0685  0.7446
  123GLU      N   29   5.485   0.592   3.187  0.1174  0.4255 -0.3690
  123GLU      H   30   5.416   0.540   3.135 -1.3714 -1.7122  3.3759
  123GLU     CA   31   5.592   0.673   3.115  0.1801 -0.2111 -0.2076
  123GLU     HA   32   5.631   0.750   3.182 -1.3860  0.2182  0.2574
  123GLU     CB   33   5.702   0.576   3.072  0.6676 -0.4159 -0.2864
  123GLU    HB1   34   5.784   0.637   3.035  0.3205  1.7578  2.1803
  123GLU    HB2   35   5.662   0.506   2.999 -0.9069  0.9214 -0.7787
  123GLU     CG   36   5.762   0.498   3.187 -0.2915 -0.4181  0.3936
  123GLU    HG1   37   5.693   0.422   3.223  0.6473 -1.1675  0.6566
  123GLU    HG2   38   5.789   0.562   3.271  1.5239 -0.7938  0.1482
  123GLU     CD   39   5.887   0.417   3.155 -0.2016 -0.4405 -0.5357
  123GLU    OE1   40   5.897   0.362   3.047 -0.4581  0.3027 -0.4948
  123GLU    OE2   41   5.971   0.406   3.251  0.3905 -0.0823 -0.2972
  123GLU      C   42   5.556   0.750   2.989 -0.4254  0.5641 -0.3335
  123GLU      O   43   5.577   0.873   2.981 -0.5869 -0.2752 -0.2192
  124ALA      N   44   5.484   0.684   2.898 -0.5297 -0.4970 -0.0067
  124ALA      H   45   5.457   0.590   2.922 -0.1480  0.1221  3.5075
  124ALA     CA   46   5.464   0.743   2.762  0.8867 -0.0985  0.1069
  124ALA     HA   47   5.561   0.761   2.716  0.3505 -0.2041 -1.1141
  124ALA     CB   48   5.388   0.640   2.680 -0.2878  0.8387  0.1179
  124ALA    HB1   49   5.388   0.670   2.575 -0.1792  2.7860  0.6407
  124ALA    HB2   50   5.286   0.633   2.718 -1.0215  1.8148 -1.5691
  124ALA    HB3   51   5.443   0.546   2.683 -0.6728  0.5177 -1.6091
  124ALA      C   52   5.379   0.871   2.759 -0.1809  0.4820 -0.0370
  124ALA      O   53   5.411   0.953   2.676 -0.8066  0.0891  0.3363
  125TYR      N   54   5.279   0.882   2.852 -0.4330  0.3340  0.6573
  125TYR      H   55   5.271   0.811   2.923 -0.8502 -0.9644 -0.6366
  125TYR     CA   56   5.195   1.001   2.864 -0.2638 -0.3864  0.3412
  125TYR     HA   57   5.152   1.028   2.767  1.3915  0.1366 -0.2848
  125TYR     CB   58   5.082   0.972   2.964  0.6445  0.2747  0.1320
  125TYR    HB1   59   5.052   0.869   2.943  1.3948 -0.1142  0.8769
  125TYR    HB2   60   4.993   1.028   2.934  0.9477  0.3008 -0.7373
  125TYR     CG   61   5.117   0.997   3.114  0.5741  0.0979 -0.0047
  125TYR    CD1   62   5.170   0.896   3.192  0.1192  0.5484  0.4213
  125TYR    HD1   63   5.188   0.804   3.138 -2.2759  0.6692 -0.7193
  125TYR    CE1   64   5.212   0.901   3.324 -0.0445  0.5753  0.1186
  125TYR    HE1   65   5.256   0.814   3.371 -0.8527 -0.3080 -0.7065
  125TYR     CZ   66   5.195   1.030   3.384 -0.0320  0.3064  0.5890
  125TYR     OH   67   5.230   1.050   3.511 -0.4833 -0.0400 -0.0759
  125TYR     HH   68   5.231   1.142   3.539  1.3224 -0.2221  0.5495
  125TYR    CE2   69   5.135   1.139   3.310 -0.1391 -0.0676  0.0036
  125TYR    HE2   70   5.122   1.236   3.358  0.3695  0.4408 -0.8637
  125TYR    CD2   71   5.096   1.120   3.176  0.1362  0.4727  0.0764
  125TYR    HD2   72   5.057   1.207   3.124 -0.0390  0.4731  0.2087
  125TYR      C   73   5.273   1.136   2.901  0.0183  0.2456  0.2136
  125TYR      O   74   5.219   1.247   2.889  0.1618 -0.0083 -0.0744
  126GLU      N   75   5.399   1.123   2.945 -0.0491  0.0754 -0.0725
  126GLU      H   76   5.451   1.037   2.944  1.6432  1.0589 -0.7038
  126GLU     CA   77   5.492   1.237   2.963 -0.2105 -0.3473 -0.3588
  126GLU     HA   78   5.431   1.328   2.965 -0.7713 -0.7240  0.0611
  126GLU     CB   79   5.554   1.228   3.100 -1.1604  0.5039 -0.5709
  126GLU    HB1   80   5.592   1.327   3.127 -0.9018  0.3118 -0.2126
  126GLU    HB2   81   5.631   1.151   3.091 -1.9263 -0.3908  0.3551
  126GLU     CG   82   5.465   1.209   3.227  0.1522  0.5592 -0.0686
  126GLU    HG1   83   5.416   1.112   3.219  0.1224  0.3177  2.3368
  126GLU    HG2   84   5.389   1.286   3.232  0.8754  1.4201 -1.5992
  126GLU     CD   85   5.541   1.210   3.361 -0.6408  0.5201  0.3700
  126GLU    OE1   86   5.669   1.196   3.367 -0.0341  0.2614 -0.2707
  126GLU    OE2   87   5.476   1.246   3.459 -0.4006  0.3472  0.1910
  126GLU      C   88   5.590   1.257   2.850  0.2227 -0.3947  0.3781
  126GLU      O   89   5.659   1.358   2.848  0.2878  0.8170 -0.4556
  127MET      N   90   5.594   1.164   2.754 -0.5486 -0.1877 -0.1714
  127MET      H   91   5.531   1.085   2.755  1.1733 -1.7160 -2.5001
  127MET     CA   92   5.675   1.181   2.630  0.8406  0.3886 -0.9196
  127MET     HA   93   5.776   1.208   2.660  1.4744 -1.9157 -0.7872
  127MET     CB   94   5.684   1.047   2.558 -0.4046  0.3166 -0.7513
  127MET    HB1   95   5.738   1.066   2.465  0.8626 -0.4605 -0.2019
  127MET    HB2   96   5.584   1.008   2.540 -0.2136 -1.3305  1.3906
  127MET     CG   97   5.780   0.951   2.635  0.6317 -0.0877 -0.4156
  127MET    HG1   98   5.751   0.937   2.739  0.0635 -0.6724 -0.6421
  127MET    HG2   99   5.878   0.996   2.651 -0.2393  0.9138  2.7518
  127MET     SD  100   5.805   0.796   2.554  0.2570  0.3587 -0.3167
  127MET     CE  101   5.942   0.724   2.650  0.1897 -0.0457  0.3773
  127MET    HE1  102   5.904   0.707   2.750 -2.5715 -0.8958 -0.7176
  127MET    HE2  103   6.026   0.794   2.650  0.2211 -0.0831  0.4707
  127MET    HE3  104   5.973   0.628   2.609  0.8073  0.8437 -1.3365
  127MET      C  105   5.625   1.280   2.528  0.0136 -0.4261  0.6105
  127MET      O  106   5.516   1.262   2.470  0.6298  0.0911  0.1909
  128PRO      N  107   5.700   1.381   2.485 -0.2873 -0.2517 -0.1751
  128PRO     CD  108   5.827   1.423   2.549  0.0237 -0.2123 -0.0766
  128PRO    HD1  109   5.903   1.346   2.553  1.7245  1.4340  0.4575
  128PRO    HD2  110   5.805   1.452   2.652  0.1162  0.6354 -0.2867
  128PRO     CG  111   5.873   1.549   2.473 -0.5788  0.4731  0.1096
  128PRO    HG1  112   5.949   1.512   2.404  0.8750  1.1570  1.2865
  128PRO    HG2  113   5.926   1.600   2.554 -1.4435  2.4337 -0.4935
  128PRO     CB  114   5.739   1.609   2.428 -0.2362  0.0053 -0.2579
  128PRO    HB1  115   5.695   1.669   2.509 -0.4656 -0.2332 -0.2051
  128PRO    HB2  116   5.744   1.677   2.343 -1.6574 -0.6028 -0.8560
  128PRO     CA  117   5.652   1.487   2.397 -0.0933 -0.5121 -0.3416
  128PRO     HA  118   5.550   1.516   2.426 -0.4320 -1.0039 -1.0156
  128PRO      C  119   5.647   1.450   2.245 -0.3147 -0.1664 -0.2096
  128PRO      O  120   5.707   1.349   2.195 -0.4980 -0.4294  0.4053
  129SER      N  121   5.566   1.526   2.163 -0.0520  0.5748 -0.1838
  129SER      H  122   5.515   1.605   2.199 -0.0504  1.1574 -1.4383
  129SER     CA  123   5.565   1.510   2.013  0.4795  0.2338 -0.3137
  129SER     HA  124   5.566   1.404   1.989 -1.1699  0.2569 -0.6296
  129SER     CB  125   5.432   1.568   1.950  0.3086 -0.1662  0.0851
  129SER    HB1  126   5.345   1.520   1.995 -0.0534  0.1622 -0.2604
  129SER    HB2  127   5.429   1.540   1.845 -0.9412  0.0362  0.0561
  129SER     OG  128   5.423   1.710   1.970 -0.4144 -0.2138  0.3190
  129SER    HG1  129   5.349   1.743   1.919 -0.9823 -1.5374  0.2448
  129SER      C  130   5.689   1.569   1.952  0.6284 -0.7951  0.3267
  129SER      O  131   5.729   1.681   1.989  0.5246  0.2270  0.1477
  130GLU      N  132   5.751   1.506   1.850 -0.4339  0.4870 -0.7241
  130GLU      H  133   5.720   1.413   1.825  0.4999  0.1302 -0.6141
  130GLU     CA  134   5.848   1.575   1.766  0.2168 -0.3025  0.3754
  130GLU     HA  135   5.910   1.643   1.825  2.7984 -3.0174  0.9985
  130GLU     CB  136   5.951   1.467   1.711  0.3184  0.1027 -0.5247
  130GLU    HB1  137   6.004   1.429   1.798  0.0692  4.0462  1.5840
  130GLU    HB2  138   6.029   1.523   1.659  0.6175 -0.1963 -0.4008
  130GLU     CG  139   5.886   1.358   1.625  0.0351  0.1895 -0.8003
  130GLU    HG1  140   5.826   1.403   1.545 -2.2735 -1.3647 -0.0573
  130GLU    HG2  141   5.828   1.296   1.693  1.8244 -1.3461 -0.5920
  130GLU     CD  142   5.996   1.277   1.562 -0.5851 -0.1409  0.2941
  130GLU    OE1  143   6.075   1.226   1.647 -0.0397 -0.1401  0.5858
  130GLU    OE2  144   6.011   1.279   1.442 -0.1126 -0.1486  0.6602
  130GLU      C  145   5.770   1.644   1.652  0.3353 -0.6207  0.6766
  130GLU      O  146   5.642   1.628   1.632  0.0562 -0.0163  0.3657
  131GLU      N  147   5.837   1.739   1.586  0.3036  0.0369  0.5260
  131GLU      H  148   5.937   1.744   1.599  0.5591 -2.0696 -0.2579
  131GLU     CA  149   5.778   1.812   1.474 -0.0313  0.0557  0.3085
  131GLU     HA  150   5.673   1.827   1.500 -0.4965 -1.2628 -0.7105
  131GLU     CB  151   5.862   1.942   1.469  0.0951  0.4642 -0.3310
  131GLU    HB1  152   5.837   1.987   1.373 -1.2571  0.6912  0.1075
  131GLU    HB2  153   5.970   1.925   1.462  0.1951  0.6600  0.6045
  131GLU     CG  154   5.838   2.034   1.584 -0.3226  0.5600 -0.5512
  131GLU    HG1  155   5.875   1.984   1.673  0.9694 -2.1405 -2.4779
  131GLU    HG2  156   5.731   2.056   1.577 -0.5565  0.1939  1.3686
  131GLU     CD  157   5.911   2.160   1.552 -0.0262  0.3645 -0.2080
  131GLU    OE1  158   5.862   2.249   1.481  0.4087 -0.3547  0.3390
  131GLU    OE2  159   6.018   2.183   1.617  0.6868 -0.2574 -0.3953
  131GLU      C  160   5.768   1.727   1.351  1.2046 -0.5785  0.2886
  131GLU      O  161   5.845   1.640   1.329  0.1552  0.7646 -0.1921
  132GLY      N  162   5.669   1.759   1.267  0.5519  0.6181  0.0861
  132GLY      H  163   5.595   1.821   1.299 -1.5802 -2.3144  1.3832
  132GLY     CA  164   5.659   1.683   1.139  0.4103 -0.2980  0.7429
  132GLY    HA1  165   5.762   1.667   1.107  0.2006  0.2826 -0.2536
  132GLY    HA2  166   5.601   1.745   1.071 -0.2229  0.3948  1.8793
  132GLY      C  167   5.586   1.548   1.146 -0.4524 -0.1778 -0.4664
  132GLY      O  168   5.565   1.484   1.043 -0.2464 -0.2586  0.1054
  133TYR      N  169   5.561   1.491   1.259  0.6413 -0.3394  0.4404
  133TYR      H  170   5.576   1.548   1.342 -1.8133 -0.2046  0.8854
  133TYR     CA  171   5.506   1.352   1.284 -0.0534  0.6261 -0.0618
  133TYR     HA  172   5.553   1.298   1.201  1.8018  0.1658  1.2379
  133TYR     CB  173   5.557   1.294   1.419 -0.1154  0.2980  0.3258
  133TYR    HB1  174   5.504   1.338   1.503 -1.6268  0.3033 -0.6024
  133TYR    HB2  175   5.661   1.325   1.433 -0.1024 -0.1147  1.1833
  133TYR     CG  176   5.558   1.140   1.436  0.3051 -0.4521  0.7122
  133TYR    CD1  177   5.458   1.077   1.514 -0.9963 -0.9106  0.3191
  133TYR    HD1  178   5.386   1.133   1.570 -0.8805 -1.0499  0.6111
  133TYR    CE1  179   5.459   0.936   1.520  0.6078  0.0736 -0.2412
  133TYR    HE1  180   5.386   0.877   1.574  1.6663 -3.2364 -2.1576
  133TYR     CZ  181   5.552   0.854   1.460  0.4198  0.4168 -0.1266
  133TYR     OH  182   5.549   0.716   1.471  0.0328  0.0852  0.1872
  133TYR     HH  183   5.475   0.669   1.511  0.2061 -2.1224 -1.8515
  133TYR    CE2  184   5.646   0.921   1.381 -0.2054  0.3818 -1.0039
  133TYR    HE2  185   5.727   0.859   1.345 -0.8186 -1.1550  0.1390
  133TYR    CD2  186   5.656   1.058   1.369 -1.2817 -0.3391  0.6657
  133TYR    HD2  187   5.736   1.108   1.315 -1.4291 -0.9742 -0.1543
  133TYR      C  188   5.358   1.341   1.272  0.0174  0.2598  0.2785
  133TYR      O  189   5.304   1.233   1.291 -0.0254 -0.3405  0.3726
  134GLN      N  190   5.292   1.453   1.241  0.2230  0.2555 -0.0538
  134GLN      H  191   5.354   1.531   1.224  0.7229  1.0027  4.0921
  134GLN     CA  192   5.149   1.472   1.233  0.9648  0.1515  0.2297
  134GLN     HA  193   5.098   1.405   1.302 -2.2871  2.4075  0.2356
  134GLN     CB  194   5.119   1.615   1.268 -0.7015 -0.4242  0.1912
  134GLN    HB1  195   5.012   1.628   1.261 -0.5961  1.0431  0.9346
  134GLN    HB2  196   5.177   1.688   1.212  0.3347 -1.2914  0.0829
  134GLN     CG  197   5.151   1.640   1.414 -0.1167 -0.4421  1.1702
  134GLN    HG1  198   5.096   1.563   1.468 -2.1104  0.8482  1.0510
  134GLN    HG2  199   5.112   1.733   1.455  1.7386  1.1670 -0.4731
  134GLN     CD  200   5.300   1.648   1.451 -0.0261 -0.3650 -0.0619
  134GLN    OE1  201   5.374   1.732   1.404 -0.7352 -0.5131  0.1404
  134GLN    NE2  202   5.337   1.567   1.543  0.4389 -0.5297 -0.1703
  134GLN   HE21  203   5.427   1.573   1.587  1.1887 -2.0198 -1.3687
  134GLN   HE22  204   5.263   1.509   1.582  0.6840 -1.0809 -0.5043
  134GLN      C  205   5.102   1.428   1.097  0.3986  0.0462 -0.8183
  134GLN      O  206   5.173   1.413   0.997  0.3545 -0.2962 -0.5217
  135ASP      N  207   4.975   1.393   1.086  0.8004 -0.1877 -0.4618
  135ASP      H  208   4.929   1.412   1.174  0.6493  1.1520 -0.8068
  135ASP     CA  209   4.900   1.372   0.957  0.3460  1.1642 -0.3952
  135ASP     HA  210   4.958   1.293   0.909 -1.0608  0.8809 -1.7042
  135ASP     CB  211   4.756   1.317   0.970  0.0068 -0.2503 -0.3176
  135ASP    HB1  212   4.726   1.303   0.867  2.2603  0.7572 -1.1782
  135ASP    HB2  213   4.690   1.387   1.023  1.7817 -1.0366  3.2509
  135ASP     CG  214   4.753   1.174   1.030  0.4019  0.0614 -0.4809
  135ASP    OD1  215   4.646   1.110   1.047 -0.3685  0.3480 -0.3007
  135ASP    OD2  216   4.858   1.116   1.068  0.2206  0.0747  0.6056
  135ASP      C  217   4.898   1.483   0.858 -0.1692  0.4577  0.0493
  135ASP      O  218   4.887   1.604   0.895  0.3091  0.1154  0.1920
  136TYR      N  219   4.907   1.449   0.729 -0.5004  0.2848  0.4356
  136TYR      H  220   4.916   1.352   0.704  0.7464  0.5937 -0.4252
  136TYR     CA  221   4.917   1.549   0.618 -0.2820  0.0170 -0.0668
  136TYR     HA  222   5.001   1.615   0.640  1.1123 -1.2077 -1.3535
  136TYR     CB  223   4.949   1.480   0.484 -0.4890 -0.1253 -0.5872
  136TYR    HB1  224   4.877   1.399   0.474 -1.0675  0.1748  0.8682
  136TYR    HB2  225   5.047   1.431   0.485  0.0779  0.9128 -1.8387
  136TYR     CG  226   4.958   1.559   0.356  0.7674  0.0543  0.0866
  136TYR    CD1  227   5.076   1.632   0.332  0.3473 -0.0827 -0.1437
  136TYR    HD1  228   5.161   1.620   0.398  1.2185  0.7105 -1.0788
  136TYR    CE1  229   5.083   1.711   0.217  0.1661 -0.4460 -0.0356
  136TYR    HE1  230   5.174   1.768   0.206 -0.8883  1.3472  0.1068
  136TYR     CZ  231   4.973   1.732   0.134  0.5191 -0.7188  0.2358
  136TYR     OH  232   5.006   1.811   0.028 -0.4032  0.1444  0.0495
  136TYR     HH  233   5.075   1.875   0.042 -1.1088  1.1094 -0.7278
  136TYR    CE2  234   4.851   1.668   0.158 -0.3588 -0.2611  0.2322
  136TYR    HE2  235   4.767   1.689   0.093 -1.6420 -1.2575  1.4976
  136TYR    CD2  236   4.846   1.576   0.267 -0.2444  0.2655  0.2270
  136TYR    HD2  237   4.760   1.516   0.291  1.7827 -1.9461  2.6371
  136TYR      C  238   4.787   1.628   0.603 -0.3759  0.0859 -0.4560
  136TYR      O  239   4.682   1.564   0.615 -0.4436  0.1994 -0.1273
  137GLU      N  240   4.794   1.750   0.558  0.0148 -0.0506 -0.4442
  137GLU      H  241   4.886   1.788   0.540  0.8081 -1.3626  0.6432
  137GLU     CA  242   4.673   1.833   0.528 -0.3574  0.4062 -0.0155
  137GLU     HA  243   4.581   1.788   0.564  1.0082  0.7843  4.6221
  137GLU     CB  244   4.676   1.966   0.600 -0.0993 -0.6932 -0.1979
  137GLU    HB1  245   4.596   2.026   0.556 -1.0924 -1.9436 -0.1381
  137GLU    HB2  246   4.771   2.017   0.581 -1.0208  0.9901 -0.5174
  137GLU     CG  247   4.660   1.942   0.756 -1.0884  0.0648 -0.4706
  137GLU    HG1  248   4.741   1.876   0.787 -0.5003  1.1171  0.2984
  137GLU    HG2  249   4.567   1.888   0.775  0.0954 -1.2903  2.0923
  137GLU     CD  250   4.673   2.076   0.832 -0.1277  0.7540 -0.5838
  137GLU    OE1  251   4.567   2.137   0.867  0.3798  0.3666  0.1264
  137GLU    OE2  252   4.789   2.120   0.848  1.0203  0.2716  0.3790
  137GLU      C  253   4.654   1.857   0.377  0.1836  0.2130 -0.0104
  137GLU      O  254   4.734   1.926   0.314  0.1935 -0.2365  0.1131
  138PRO      N  255   4.547   1.805   0.315  0.0959  0.1403 -0.5262
  138PRO     CD  256   4.476   1.682   0.352 -0.3918 -0.4272  0.3618
  138PRO    HD1  257   4.434   1.689   0.453  2.3676  1.7779  1.5061
  138PRO    HD2  258   4.548   1.601   0.344 -0.2523 -0.1680 -1.4114
  138PRO     CG  259   4.366   1.670   0.240 -0.2048 -0.1687  0.5366
  138PRO    HG1  260   4.270   1.720   0.256 -1.3989 -2.4368  0.8048
  138PRO    HG2  261   4.345   1.569   0.206 -0.5701  0.9150 -2.8633
  138PRO     CB  262   4.437   1.740   0.114 -0.4830  0.1698  0.3393
  138PRO    HB1  263   4.508   1.671   0.069  0.7925  1.7703 -0.2174
  138PRO    HB2  264   4.358   1.775   0.047 -2.3512  0.4025  2.5630
  138PRO     CA  265   4.506   1.856   0.184 -0.1827  0.5276 -0.6752
  138PRO     HA  266   4.590   1.882   0.119 -0.8576  0.9567 -1.3925
  138PRO      C  267   4.418   1.976   0.206 -0.1439  0.1158 -0.9171
  138PRO      O  268   4.398   2.022   0.320 -0.4892  0.2684  0.1678
  139GLU      N  269   4.368   2.035   0.098  0.0629 -0.1458 -0.2979
  139GLU      H  270   4.374   1.987   0.009 -0.1290 -1.1287  0.2088
  139GLU     CA  271   4.302   2.164   0.102  0.8262  0.7822  0.2040
  139GLU     HA  272   4.338   2.229   0.182  0.9677  0.6903  0.2141
  139GLU     CB  273   4.324   2.234  -0.032  0.1409  0.1868  0.2127
  139GLU    HB1  274   4.244   2.307  -0.045 -0.0175  0.0374  0.3355
  139GLU    HB2  275   4.317   2.160  -0.112 -1.3832  0.1218  0.3657
  139GLU     CG  276   4.460   2.304  -0.048 -0.7400 -0.3114  0.1933
  139GLU    HG1  277   4.534   2.224  -0.039  2.7510  2.7710  1.7605
  139GLU    HG2  278   4.479   2.373   0.035 -0.1688 -0.5220  0.2464
  139GLU     CD  279   4.480   2.383  -0.172  0.1456  0.1909 -0.1336
  139GLU    OE1  280   4.378   2.423  -0.229 -0.0959 -0.4441 -0.2164
  139GLU    OE2  281   4.597   2.405  -0.209  0.4453 -0.1593 -0.5546
  139GLU      C  282   4.152   2.143   0.131 -0.0700  0.3172 -0.1594
  139GLU      O  283   4.097   2.218   0.212 -0.5996 -0.4136 -0.2398
  140CALA     N  284   4.095   2.028   0.093  0.8907  0.1774  0.6711
  140CALA     H  285   4.149   1.964   0.037  1.5426  1.1583  0.1481
  140CALA    CA  286   3.962   1.981   0.124 -0.1235 -0.3008  0.5352
  140CALA    HA  287   3.945   2.020   0.225 -2.0753  1.5946 -0.4515
  140CALA    CB  288   3.850   2.037   0.028 -0.0773  0.3963 -0.5611
  140CALA   HB1  289   3.875   2.026  -0.078  0.9785  0.7661 -0.3586
  140CALA   HB2  290   3.839   2.144   0.044 -1.1755  0.3383 -0.8199
  140CALA   HB3  291   3.751   1.997   0.052  0.4710 -0.2937  0.6360
  140CALA     C  292   3.961   1.829   0.120 -0.3324  0.2445  0.2489
  140CALA   OC1  293   4.017   1.780   0.021 -0.0984  0.4476  0.1903
  140CALA   OC2  294   3.921   1.759   0.214  0.0062 -0.5865  0.0410
  141L47      C  295   4.957   1.569   6.215  0.7507 -0.1286 -0.2415
  141L47      H  296   4.982   1.642   6.137  1.8508 -2.2894 -2.0239
  141L47     H1  297   4.890   1.613   6.290 -0.1817  2.0368 -2.2163
  141L47     H2  298   4.900   1.490   6.165  0.9095  0.7590 -1.9023
  141L47     C1  299   5.084   1.519   6.277  0.2212 -0.7930  0.4887
  141L47      O  300   5.193   1.566   6.238  1.2422 -0.2711 -0.0792
  141L47      N  301   5.078   1.434   6.392  0.3214 -0.2982  0.1439
  141L47     C2  302   4.958   1.354   6.431  0.1920 -0.4182  0.5845
  141L47     H3  303   4.926   1.302   6.340 -3.3575  0.7252  1.0574
  141L47     H4  304   4.874   1.420   6.454 -0.9231 -1.8220  0.6922
  141L47     C3  305   4.995   1.267   6.554  0.2331  0.5608  0.2527
  141L47     H5  306   4.970   1.160   6.547  1.9984  0.1291  0.0122
  141L47     H6  307   4.953   1.305   6.647  0.1710  3.9604 -1.0262
  141L47     C4  308   5.147   1.264   6.541  0.0689 -0.5015  0.5351
  141L47     C5  309   5.186   1.367   6.451  0.2142 -0.1220  0.2866
  141L47     C6  310   5.321   1.399   6.437 -0.5011  0.8020 -0.5789
  141L47     H7  311   5.363   1.467   6.364  3.3235 -0.3984  0.2604
  141L47     C7  312   5.417   1.336   6.516  0.2796 -0.3313 -0.6816
  141L47     H8  313   5.517   1.377   6.509 -0.0391  1.0113  1.7255
  141L47     C8  314   5.379   1.234   6.605  0.1199 -0.4210 -0.2344
  141L47     C9  315   5.241   1.199   6.621  0.1949  0.4741  0.3014
  141L47     H9  316   5.209   1.130   6.699  0.6772  0.3181  0.3655
  141L47      S  317   5.502   1.168   6.718 -0.4787  0.0426 -0.2404
  141L47     O1  318   5.450   1.092   6.839 -0.2866  0.1139  0.5456
  141L47     O2  319   5.612   1.266   6.721 -0.3035 -0.5005 -0.2203
  141L47     N1  320   5.570   1.038   6.631 -0.2462 -0.2467 -0.5051
  141L47    C10  321   5.677   0.963   6.701  0.1047  0.1950 -0.0749
  141L47    H10  322   5.641   0.860   6.707 -0.9146  0.5005 -0.7233
  141L47    H11  323   5.703   1.012   6.796  0.6034 -1.6305  0.7648
  141L47    C11  324   5.806   0.982   6.619  0.1050  0.3574 -0.1919
  141L47    H12  325   5.892   0.964   6.685  0.5017 -0.6799 -0.9633
  141L47    H13  326   5.804   1.088   6.591 -1.5546  1.0181  2.0610
  141L47    C12  327   5.811   0.899   6.490 -0.7960 -0.0786 -0.0972
  141L47    H14  328   5.810   0.791   6.503 -0.8031 -0.2922 -1.7551
  141L47    H15  329   5.909   0.921   6.449 -0.7911 -0.9549 -0.5731
  141L47     N2  330   5.694   0.931   6.394 -0.2312  0.0804 -0.1902
  141L47    H16  331   5.683   1.033   6.406 -1.5358 -0.1898  1.0614
  141L47    H17  332   5.726   0.916   6.297  0.8239 -0.0497  0.1642
  141L47    C13  333   5.561   0.867   6.436 -0.5075  0.2195  0.4038
  141L47    H18  334   5.588   0.768   6.472 -0.7809  0.8170  2.3336
  141L47    H19  335   5.497   0.864   6.348  1.0555 -4.2207 -0.8358
  141L47    C14  336   5.482   0.955   6.541  0.0121  0.0966 -0.3313
  141L47    H20  337   5.414   1.017   6.481 -2.6057 -0.3922  1.9349
  141L47    H21  338   5.415   0.891   6.600 -1.8436 -0.6123 -3.0160
  142SOL     OW  339   3.381   3.227   5.704 -0.5099  0.2703 -0.5350
  142SOL    HW2  340   3.325   3.170   5.757  1.6176 -0.1862  1.3256
  142SOL    HW3  341   3.331   3.309   5.697 -1.4853 -0.1478  0.9566
  142SOL    MW4  342   3.367   3.230   5.710 -0.3579  0.1549 -0.0927
  143SOL     OW  343   3.093   4.027   4.769  0.5840  0.2866 -0.1739
  143SOL    HW2  344   3.121   4.001   4.857  0.4704  0.8859  0.0440
  143SOL    HW3  345   3.148   4.102   4.748 -0.0926  0.7935 -0.1848
  143SOL    MW4  346   3.104   4.034   4.778  0.4797  0.4326 -0.1466
  144SOL     OW  347   4.856   1.538   3.401  0.2781  0.2130 -0.5788
  144SOL    HW2  348   4.915   1.574   3.336  0.8291  1.5549  0.6177
  144SOL    HW3  349   4.913   1.516   3.475 -0.2627 -1.7201 -0.6752
  144SOL    MW4  350   4.871   1.540   3.402  0.2795  0.1350 -0.4337
  145SOL     OW  351   6.071   3.558   4.662 -0.5264 -0.6812 -0.2003
  145SOL    HW2  352   6.049   3.591   4.575  1.3617  1.4938  0.0405
  145SOL    HW3  353   6.108   3.471   4.647  0.6990  0.0604 -1.7323
  145SOL    MW4  354   6.073   3.551   4.649 -0.1156 -0.2964 -0.3706
  146SOL     OW  355   0.215   2.600   5.267 -0.2209 -0.4302 -0.3755
  146SOL    HW2  356   0.263   2.579   5.348 -0.4824 -1.4701 -0.4689
  146SOL    HW3  357   0.132   2.553   5.276 -0.5218 -0.0197 -0.9652
  146SOL    MW4  358   0.210   2.591   5.279 -0.2951 -0.5133 -0.4656
  147SOL     OW  359   4.631   6.387   0.208 -0.6587 -0.1820  0.2361
  147SOL    HW2  360   4.594   6.461   0.255 -0.4702  0.3738 -0.4630
  147SOL    HW3  361   4.558   6.350   0.159 -0.3412  0.8760 -1.0946
  147SOL    MW4  362   4.617   6.391   0.207 -0.5919  0.0309 -0.0317
  148SOL     OW  363   5.615   6.126   1.416  0.1741  0.3360  0.0118
  148SOL    HW2  364   5.616   6.206   1.468  0.2519  0.2197  0.1895
  148SOL    HW3  365   5.703   6.091   1.425  0.0788  0.1208  0.1033
  148SOL    MW4  366   5.626   6.132   1.424  0.1718  0.2923  0.0473
  149SOL     OW  367   4.839   4.572   0.953  0.1730  0.0630 -0.2035
  149SOL    HW2  368   4.930   4.597   0.942  0.2702 -0.4376 -0.5478
  149SOL    HW3  369   4.804   4.635   1.016  0.4948  0.8850 -0.8233
  149SOL    MW4  370   4.846   4.584   0.960  0.2283  0.1054 -0.3307
  150SOL     OW  371   4.964   0.610   0.552  0.1125  0.1831  0.0723
  150SOL    HW2  372   4.905   0.600   0.478  0.2410  0.3302 -0.0515
  150SOL    HW3  373   4.917   0.667   0.613 -0.3447 -0.6144  0.4845
  150SOL    MW4  374   4.950   0.616   0.550  0.0691  0.0973  0.1103
  151SOL     OW  375   1.392   5.665   5.337 -0.3792  0.3455 -0.5373
  151SOL    HW2  376   1.449   5.644   5.263  0.2805 -0.2470  0.1207
  151SOL    HW3  377   1.356   5.751   5.315 -0.6143 -0.0485 -1.7840
  151SOL    MW4  378   1.395   5.674   5.324 -0.3232  0.2153 -0.6149
  152SOL     OW  379   5.629   2.095   2.835 -0.1742  0.3279 -0.1797
  152SOL    HW2  380   5.657   2.102   2.744  1.0918 -0.2897  0.1383
  152SOL    HW3  381   5.589   2.008   2.842 -0.5040  0.4758 -0.1990
  152SOL    MW4  382   5.628   2.085   2.824 -0.0507  0.2659 -0.1403
  153SOL     OW  383   5.480   3.634   2.525  0.7552  0.0180 -0.2874
  153SOL    HW2  384   5.538   3.632   2.449  2.5814  2.7663  0.8853
  153SOL    HW3  385   5.528   3.683   2.591  0.3984 -4.4043  3.7551
  153SOL    MW4  386   5.494   3.641   2.524  0.9491 -0.2029  0.4007
  154SOL     OW  387   0.442   4.093   3.350  0.1587 -0.0509 -0.1538
  154SOL    HW2  388   0.490   4.135   3.279 -0.0037 -0.9020 -0.7874
  154SOL    HW3  389   0.360   4.143   3.356  0.0081 -0.2121 -0.8318
  154SOL    MW4  390   0.437   4.105   3.342  0.1174 -0.1844 -0.3268
  155SOL     OW  391   5.563   0.130   5.382 -0.3847  0.7219 -0.4614
  155SOL    HW2  392   5.523   0.120   5.295  1.3706  0.5578 -1.2988
  155SOL    HW3  393   5.592   0.221   5.384  3.2643 -0.2423 -1.8131
  155SOL    MW4  394   5.561   0.141   5.371  0.3284  0.5730 -0.7502
  156SOL     OW  395   5.841   6.138   6.305  0.4621  0.2632 -0.2560
  156SOL    HW2  396   5.805   6.087   6.232  0.3860  0.1374 -0.1289
  156SOL    HW3  397   5.842   6.078   6.379  3.3254 -0.5787 -0.8629
  156SOL    MW4  398   5.836   6.124   6.305  0.8298  0.1355 -0.3193
  157SOL     OW  399   4.816   3.720   6.228 -0.1371 -0.2522  0.5132
  157SOL    HW2  400   4.784   3.660   6.161  1.8139 -3.2918  2.0575
  157SOL    HW3  401   4.746   3.724   6.293 -0.2166 -1.0550  0.4828
  157SOL    MW4  402   4.803   3.713   6.228  0.1098 -0.7591  0.7129
  158SOL     OW  403   3.028   5.538   0.833 -0.2740 -0.4423 -0.0509
  158SOL    HW2  404   3.102   5.478   0.827  0.2336  0.2329 -0.7855
  158SOL    HW3  405   2.977   5.521   0.753 -1.0802 -1.1058  0.5913
  158SOL    MW4  406   3.031   5.528   0.821 -0.3134 -0.4408 -0.0631
  159SOL     OW  407   3.442   5.885   1.942  0.1140 -0.7758  0.0480
  159SOL    HW2  408   3.460   5.794   1.919  1.1274 -0.5665 -0.0785
  159SOL    HW3  409   3.528   5.921   1.964 -0.0945  0.4340 -0.9672
  159SOL    MW4  410   3.456   5.878   1.942  0.2202 -0.5886 -0.1026
  160SOL     OW  411   0.049   5.101   4.955  0.7637 -0.3992 -0.0442
  160SOL    HW2  412   0.020   5.117   5.045  1.9616 -1.1003  0.4989
  160SOL    HW3  413   0.117   5.168   4.940  1.1552 -0.8076 -0.1167
  160SOL    MW4  414   0.054   5.112   4.965  0.9734 -0.5456  0.0179
  161SOL     OW  415   2.218   4.079   6.413 -0.1063 -0.1436 -0.4358
  161SOL    HW2  416   2.146   4.019   6.394  2.1561 -3.2389  0.0237
  161SOL    HW3  417   2.256   4.099   6.328  0.0514 -0.6075 -0.4751
  161SOL    MW4  418   2.214   4.074   6.399  0.2130 -0.6132 -0.3804
  162SOL     OW  419   0.883   4.660   0.277 -0.3019  0.0057  0.3452
  162SOL    HW2  420   0.860   4.679   0.368 -1.6121 -0.5811  0.1633
  162SOL    HW3  421   0.799   4.656   0.231  0.2951 -0.3503 -0.7625
  162SOL    MW4  422   0.869   4.662   0.283 -0.3960 -0.1187  0.1750
  163SOL     OW  423   3.335   0.043   4.973 -0.2487 -0.3316 -0.1543
  163SOL    HW2  424   3.294   0.113   5.024  2.3628  1.1944  0.0230
  163SOL    HW3  425   3.343  -0.030   5.035 -1.2335 -0.1193  0.2360
  163SOL    MW4  426   3.331   0.042   4.988 -0.0341 -0.1023 -0.0794
  164SOL     OW  427   5.224   6.103   2.977 -0.2369 -0.3342 -0.0167
  164SOL    HW2  428   5.188   6.088   2.890  0.5997 -1.2333 -0.2177
  164SOL    HW3  429   5.152   6.082   3.037 -0.9059  0.5727 -0.4868
  164SOL    MW4  430   5.209   6.098   2.974 -0.2148 -0.3332 -0.1052
  165SOL     OW  431   2.886   3.841   3.469 -0.3417 -0.2697  0.2477
  165SOL    HW2  432   2.883   3.766   3.528 -0.2392 -0.1218  0.4422
  165SOL    HW3  433   2.799   3.843   3.429  0.1428 -1.4502 -0.9606
  165SOL    MW4  434   2.874   3.831   3.471 -0.2642 -0.4059  0.1139
  166SOL     OW  435   2.615   5.857   2.023 -0.0106 -0.5359  0.0273
  166SOL    HW2  436   2.648   5.946   2.033 -1.6875  0.0462  1.0469
  166SOL    HW3  437   2.628   5.835   1.931  0.5041  0.7381 -0.2146
  166SOL    MW4  438   2.621   5.866   2.013 -0.1639 -0.2910  0.1299
  167SOL     OW  439   4.506   0.013   4.245  0.5253  0.3031  0.1274
  167SOL    HW2  440   4.450   0.091   4.240  0.9695  0.6344  0.2243
  167SOL    HW3  441   4.445  -0.061   4.243  0.1189  0.6435 -0.3724
  167SOL    MW4  442   4.491   0.014   4.244  0.5303  0.3917  0.0742
  168SOL     OW  443   6.322   1.352   0.139 -0.0060 -0.1865  0.0083
  168SOL    HW2  444   6.318   1.316   0.228 -1.7096  0.9645  0.4371
  168SOL    HW3  445   6.396   1.412   0.142  0.9440 -1.3169  0.1596
  168SOL    MW4  446   6.332   1.355   0.152 -0.1054 -0.1837  0.0848
  169SOL     OW  447   0.822   3.365   4.468  0.2979  0.9509  0.0069
  169SOL    HW2  448   0.863   3.380   4.553 -0.2806  0.1015  0.4514
  169SOL    HW3  449   0.851   3.277   4.443 -0.0130  0.9616 -0.3965
  169SOL    MW4  450   0.831   3.355   4.476  0.1806  0.8402  0.0123
  170SOL     OW  451   3.805   5.857   4.908  0.1440  0.0045 -0.0570
  170SOL    HW2  452   3.884   5.870   4.856 -0.1450  1.4882 -0.1742
  170SOL    HW3  453   3.735   5.896   4.856 -0.0758  1.9967  1.6118
  170SOL    MW4  454   3.807   5.864   4.894  0.0769  0.4631  0.1477
  171SOL     OW  455   3.497   5.575   2.211  0.2351 -0.1011 -0.1037
  171SOL    HW2  456   3.512   5.481   2.209  2.4321  0.2076  0.0393
  171SOL    HW3  457   3.412   5.587   2.169 -0.5895 -2.2217  0.8574
  171SOL    MW4  458   3.488   5.564   2.205  0.4162 -0.3402  0.0420
  172SOL     OW  459   2.653   5.702   3.795  0.0537 -0.4311 -0.0243
  172SOL    HW2  460   2.640   5.696   3.889 -2.1873 -2.4294 -0.3747
  172SOL    HW3  461   2.736   5.656   3.780 -0.4804 -1.7488  0.8352
  172SOL    MW4  462   2.662   5.695   3.805 -0.3125 -0.8686  0.0429
  173SOL     OW  463   2.661   3.830   5.549  0.3231  0.1457 -0.1333
  173SOL    HW2  464   2.612   3.778   5.486 -2.0315 -0.1791  1.8228
  173SOL    HW3  465   2.743   3.851   5.504 -0.4807 -1.5290 -2.5925
  173SOL    MW4  466   2.665   3.826   5.535 -0.0936 -0.1181 -0.1997
  174SOL     OW  467   6.191   5.396   5.474 -0.6842  0.0838 -0.2271
  174SOL    HW2  468   6.205   5.312   5.516 -1.1587 -0.6700 -1.5195
  174SOL    HW3  469   6.095   5.403   5.466 -0.6201  0.4182 -0.7533
  174SOL    MW4  470   6.180   5.386   5.479 -0.7384  0.0285 -0.4670
  175SOL     OW  471   0.439   5.702   4.614 -0.9798  0.1269  0.0859
  175SOL    HW2  472   0.476   5.681   4.528 -2.6666  0.9065 -0.8949
  175SOL    HW3  473   0.480   5.785   4.638 -0.9910  0.2425 -0.2893
  175SOL    MW4  474   0.449   5.710   4.606 -1.2038  0.2450 -0.0930
  176SOL     OW  475   2.787   1.831   4.285 -0.4984  0.1552  0.0644
  176SOL    HW2  476   2.808   1.921   4.309  0.2769 -0.3404  1.3289
  176SOL    HW3  477   2.701   1.837   4.243 -1.1661  1.2937  1.5106
  176SOL    MW4  478   2.778   1.844   4.283 -0.4842  0.2400  0.4220
  177SOL     OW  479   3.508   2.588   5.766  0.4518 -0.0523 -0.0305
  177SOL    HW2  480   3.428   2.571   5.816  0.4908 -0.6730 -0.1759
  177SOL    HW3  481   3.485   2.565   5.676  0.9950 -0.8946  0.0354
  177SOL    MW4  482   3.495   2.583   5.761  0.5286 -0.2453 -0.0410
  178SOL     OW  483   5.370   5.521   5.602  0.1282  0.1168 -0.4796
  178SOL    HW2  484   5.453   5.515   5.555  1.1357  0.7195  1.1128
  178SOL    HW3  485   5.390   5.486   5.689 -1.0360  1.1293  0.2216
  178SOL    MW4  486   5.384   5.516   5.607  0.1075  0.3299 -0.1770
  179SOL     OW  487   1.443   0.914   5.219 -0.2713 -0.3300  0.0703
  179SOL    HW2  488   1.532   0.922   5.185 -0.7037  1.7674 -0.6817
  179SOL    HW3  489   1.430   0.993   5.272 -1.0520 -1.5432  1.7944
  179SOL    MW4  490   1.453   0.925   5.222 -0.4314 -0.2133  0.1986
  180SOL     OW  491   0.513   3.839   5.141  0.3466  0.1735 -0.2911
  180SOL    HW2  492   0.526   3.748   5.169  1.4795  0.2847 -0.4162
  180SOL    HW3  493   0.451   3.874   5.205  0.3416 -0.5261  0.1064
  180SOL    MW4  494   0.506   3.832   5.153  0.4954  0.0959 -0.2552
  181SOL     OW  495   2.152   1.121   3.990 -0.2124  0.5865  0.4147
  181SOL    HW2  496   2.185   1.044   3.944 -1.3335 -1.4486  2.7584
  181SOL    HW3  497   2.228   1.177   4.001  0.8054 -0.5241 -0.6799
  181SOL    MW4  498   2.166   1.118   3.985 -0.2261  0.1715  0.5795
  182SOL     OW  499   1.697   0.875   2.629 -0.0603  0.6783  0.0322
  182SOL    HW2  500   1.703   0.866   2.534  1.4217 -0.8738  0.2068
  182SOL    HW3  501   1.604   0.886   2.647 -0.4266  0.4384 -1.5595
  182SOL    MW4  502   1.686   0.875   2.619  0.0869  0.4418 -0.1548
  183SOL     OW  503   2.985   0.932   3.961 -0.0219  0.1200 -0.1316
  183SOL    HW2  504   2.891   0.936   3.947  0.0215 -2.1690 -1.6029
  183SOL    HW3  505   2.995   0.909   4.053 -0.9221 -0.3368 -0.1435
  183SOL    MW4  506   2.974   0.930   3.971 -0.1349 -0.2423 -0.3273
  184SOL     OW  507   1.495   4.144   0.176  0.3854 -0.0842  0.1282
  184SOL    HW2  508   1.560   4.103   0.119 -0.4036 -2.1625  0.6349
  184SOL    HW3  509   1.418   4.157   0.121  0.1005 -0.7868  0.3495
  184SOL    MW4  510   1.493   4.140   0.162  0.2437 -0.4511  0.2243
  185SOL     OW  511   1.571   3.146   3.386  0.5939  0.6270 -0.2446
  185SOL    HW2  512   1.632   3.219   3.398  1.2446  0.1546 -0.6292
  185SOL    HW3  513   1.601   3.102   3.307 -0.1510  0.2814 -0.3463
  185SOL    MW4  514   1.583   3.150   3.377  0.5815  0.5191 -0.3088
  186SOL     OW  515   4.161   3.519   2.872 -0.2769 -0.7757 -0.0529
  186SOL    HW2  516   4.208   3.564   2.802  2.8492  1.4385  3.1234
  186SOL    HW3  517   4.082   3.571   2.885 -0.4861 -0.7333 -1.3055
  186SOL    MW4  518   4.157   3.532   2.864  0.1079 -0.4780  0.2009
  187SOL     OW  519   3.281   3.800   2.180 -0.5197 -0.1684 -0.0425
  187SOL    HW2  520   3.245   3.718   2.145 -0.4325 -0.6628  0.9724
  187SOL    HW3  521   3.203   3.853   2.201 -0.6762 -0.9092  1.3834
  187SOL    MW4  522   3.266   3.796   2.179 -0.5288 -0.3314  0.2795
  188SOL     OW  523   6.231   5.168   3.452 -0.5625  0.1815  0.1148
  188SOL    HW2  524   6.294   5.223   3.500 -0.6974 -0.5924  1.2256
  188SOL    HW3  525   6.150   5.175   3.503 -1.6198  1.6873 -1.6540
  188SOL    MW4  526   6.228   5.176   3.465 -0.7198  0.2781  0.0280
  189SOL     OW  527   3.920   0.880   4.285  0.2215 -0.0898 -1.3467
  189SOL    HW2  528   3.954   0.942   4.349 -2.3324 -1.1214  1.2083
  189SOL    HW3  529   3.952   0.794   4.314 -2.1882 -0.7500 -0.4467
  189SOL    MW4  530   3.929   0.877   4.297 -0.4334 -0.3130 -0.8908
  190SOL     OW  531   0.263   4.974   4.292 -0.1413  0.8452  0.1963
  190SOL    HW2  532   0.188   5.033   4.281  0.7694  1.9956 -0.1300
  190SOL    HW3  533   0.243   4.899   4.236 -0.2568  1.9576 -1.3243
  190SOL    MW4  534   0.251   4.972   4.283 -0.0364  1.1437 -0.0474
  191SOL     OW  535   1.975   2.478   1.395 -0.3282 -0.6953 -0.2511
  191SOL    HW2  536   1.920   2.410   1.434 -0.3166 -1.6751 -1.8559
  191SOL    HW3  537   1.913   2.541   1.359 -0.4779 -1.9830 -2.3790
  191SOL    MW4  538   1.960   2.478   1.395 -0.3464 -0.9945 -0.7435
  192SOL     OW  539   0.250   6.270   5.964 -0.3645  0.3930  0.2321
  192SOL    HW2  540   0.208   6.330   6.026  0.3044  0.6776  0.4117
  192SOL    HW3  541   0.344   6.283   5.977 -0.2150  0.1154 -0.5140
  192SOL    MW4  542   0.257   6.280   5.973 -0.2566  0.3939  0.1574
  193SOL     OW  543   3.092   4.894   3.769 -0.5288  0.1098 -0.2627
  193SOL    HW2  544   3.102   4.980   3.729 -0.0501 -0.3944 -1.2616
  193SOL    HW3  545   3.129   4.904   3.856 -0.5108  0.9204 -0.3508
  193SOL    MW4  546   3.098   4.907   3.775 -0.4633  0.1502 -0.4061
  194SOL     OW  547   0.711   5.217   0.898  0.8522  0.1066  0.3614
  194SOL    HW2  548   0.617   5.199   0.898  0.8346  0.1908  0.2079
  194SOL    HW3  549   0.730   5.248   0.986  0.6730  0.4057  0.2947
  194SOL    MW4  550   0.701   5.219   0.909  0.8262  0.1571  0.3324
  195SOL     OW  551   1.538   3.555   2.779 -0.0161 -0.0206  0.0404
  195SOL    HW2  552   1.540   3.486   2.712  0.2859 -1.2550  1.2799
  195SOL    HW3  553   1.567   3.511   2.859  1.6329  1.8910  0.5701
  195SOL    MW4  554   1.542   3.540   2.781  0.2413  0.0688  0.2738
  196SOL     OW  555   3.408   1.142   5.704  0.2370  0.6322  0.5459
  196SOL    HW2  556   3.384   1.219   5.757  0.2780 -0.0242  1.5427
  196SOL    HW3  557   3.338   1.079   5.719  0.7307  0.0785  0.5801
  196SOL    MW4  558   3.396   1.144   5.713  0.3075  0.4725  0.6819
  197SOL     OW  559   3.599   4.892   3.707 -0.1096  0.6931  0.1346
  197SOL    HW2  560   3.667   4.949   3.741  2.0847 -0.9429 -1.2936
  197SOL    HW3  561   3.586   4.826   3.776  2.0543 -0.7760 -0.7652
  197SOL    MW4  562   3.606   4.890   3.721  0.4654  0.2835 -0.1725
  198SOL     OW  563   3.045   3.956   3.733 -0.1901  0.2252  0.8794
  198SOL    HW2  564   3.027   4.043   3.768  1.3210  0.7571  0.4188
  198SOL    HW3  565   3.009   3.896   3.798 -1.2050  1.1792  1.2311
  198SOL    MW4  566   3.038   3.960   3.746 -0.1246  0.4212  0.8650
  199SOL     OW  567   1.643   5.692   3.557  0.0309  0.2263  0.4151
  199SOL    HW2  568   1.600   5.755   3.498  0.2074 -0.2014 -0.1751
  199SOL    HW3  569   1.734   5.719   3.559  0.4952 -1.0916 -1.3060
  199SOL    MW4  570   1.649   5.704   3.550  0.1155 -0.0040  0.1102
  200SOL     OW  571   3.439   0.564   1.836  0.2222 -0.6189 -0.1248
  200SOL    HW2  572   3.472   0.493   1.891  1.6913  0.2587  0.1610
  200SOL    HW3  573   3.486   0.642   1.865 -1.8972  0.6739  0.0924
  200SOL    MW4  574   3.449   0.565   1.847  0.1364 -0.3325 -0.0584
  201SOL     OW  575   1.174   3.021   4.375  0.3700  0.0724 -0.4794
  201SOL    HW2  576   1.122   3.084   4.325 -1.9531 -1.9534 -0.8395
  201SOL    HW3  577   1.166   2.940   4.325  3.4074 -0.5271 -0.1349
  201SOL    MW4  578   1.166   3.019   4.362  0.4642 -0.2740 -0.4815
  202SOL     OW  579   0.892   3.940   6.160 -0.5634  0.3141 -0.0430
  202SOL    HW2  580   0.797   3.939   6.168 -0.5832 -0.1773 -0.3262
  202SOL    HW3  581   0.913   4.031   6.141 -0.9299  0.5350  0.5497
  202SOL    MW4  582   0.882   3.952   6.159 -0.6144  0.2784 -0.0022
  203SOL     OW  583   3.695   4.796   2.770  0.2313  0.4636  0.9233
  203SOL    HW2  584   3.735   4.841   2.844  0.3664 -1.5524  2.1437
  203SOL    HW3  585   3.601   4.805   2.785  0.0351  4.1025 -1.2724
  203SOL    MW4  586   3.688   4.803   2.782  0.2232  0.6777  0.7946
  204SOL     OW  587   5.249   2.818   4.886 -0.6606  0.0341 -0.2340
  204SOL    HW2  588   5.339   2.849   4.885 -0.3629 -0.7256  1.1015
  204SOL    HW3  589   5.246   2.754   4.957 -2.3619  0.4247  0.0965
  204SOL    MW4  590   5.260   2.814   4.896 -0.8458 -0.0146 -0.0142
  205SOL     OW  591   4.535   5.009   0.834  0.4013  0.2814  0.1638
  205SOL    HW2  592   4.472   5.074   0.868  1.4328  1.7528 -0.6217
  205SOL    HW3  593   4.493   4.925   0.850 -2.0995  1.2036 -0.9197
  205SOL    MW4  594   4.521   5.007   0.841  0.2074  0.5972 -0.0828
  206SOL     OW  595   1.567   3.814   3.378  0.3281  0.4422  0.0904
  206SOL    HW2  596   1.641   3.755   3.396  0.8750  0.8719 -0.6776
  206SOL    HW3  597   1.597   3.900   3.408  0.6226  0.8492 -1.2904
  206SOL    MW4  598   1.581   3.817   3.384  0.4391  0.5526 -0.1931
  207SOL     OW  599   2.656   6.190   1.481 -0.0687  0.3359 -0.5255
  207SOL    HW2  600   2.724   6.147   1.429 -1.1331  2.0589 -3.6068
  207SOL    HW3  601   2.699   6.269   1.515  0.7807 -1.0489  1.8755
  207SOL    MW4  602   2.671   6.195   1.479 -0.0971  0.3805 -0.6153
  208SOL     OW  603   4.947   0.827   4.972 -0.6733 -0.4291 -0.5031
  208SOL    HW2  604   5.023   0.886   4.974 -0.9866  0.0021 -1.0063
  208SOL    HW3  605   4.908   0.835   5.058 -0.8348  0.2674 -0.6337
  208SOL    MW4  606   4.952   0.836   4.984 -0.7359 -0.2803 -0.5867
  209SOL     OW  607   1.491   6.155   0.419  0.1518 -0.2266 -0.3355
  209SOL    HW2  608   1.468   6.063   0.407 -1.7541  0.3000 -1.2169
  209SOL    HW3  609   1.584   6.160   0.398 -0.1585 -1.6238 -2.4037
  209SOL    MW4  610   1.500   6.143   0.414 -0.1406 -0.3415 -0.7247
  210SOL     OW  611   1.900   3.839   1.832  0.0356 -0.4315  0.6857
  210SOL    HW2  612   1.951   3.861   1.754 -1.3073  1.2273  0.2217
  210SOL    HW3  613   1.933   3.898   1.900 -0.4499 -0.1860  0.7087
  210SOL    MW4  614   1.911   3.850   1.831 -0.2056 -0.1803  0.6275
  211SOL     OW  615   3.564   2.859   5.192  0.2901  0.1086 -0.0657
  211SOL    HW2  616   3.640   2.873   5.135 -0.5765 -0.4808 -1.4310
  211SOL    HW3  617   3.495   2.912   5.152 -0.5402 -0.9116 -0.0187
  211SOL    MW4  618   3.565   2.868   5.179  0.0663 -0.1038 -0.2397
  212SOL     OW  619   3.286   1.792   0.300  0.9070 -0.1246 -0.1343
  212SOL    HW2  620   3.313   1.765   0.212  0.6654 -1.2739  0.1326
  212SOL    HW3  621   3.274   1.887   0.293 -0.2254 -0.3392 -1.6630
  212SOL    MW4  622   3.288   1.801   0.287  0.7257 -0.3046 -0.3008
  213SOL     OW  623   2.299   0.260   4.780  0.0375 -0.4666  0.5453
  213SOL    HW2  624   2.218   0.225   4.742  0.0486  0.0981 -0.0140
  213SOL    HW3  625   2.360   0.264   4.706  0.6214 -1.0057  0.9891
  213SOL    MW4  626   2.296   0.256   4.765  0.1160 -0.4632  0.5300
  214SOL     OW  627   2.995   5.356   3.216 -0.1633 -0.5402  0.4005
  214SOL    HW2  628   3.029   5.428   3.164 -2.5780  0.7191  0.4394
  214SOL    HW3  629   2.964   5.292   3.152 -0.2106 -0.4671  0.3518
  214SOL    MW4  630   2.996   5.357   3.201 -0.4882 -0.3644  0.3992
  215SOL     OW  631   4.735   5.526   1.119  0.0766  0.1891 -0.1801
  215SOL    HW2  632   4.812   5.484   1.158  1.0326  1.3354 -0.7470
  215SOL    HW3  633   4.700   5.460   1.059  0.3696 -0.5002  0.3887
  215SOL    MW4  634   4.741   5.511   1.116  0.2414  0.2494 -0.1799
  216SOL     OW  635   1.108   4.754   4.838  0.1949  0.0062  0.3242
  216SOL    HW2  636   1.108   4.713   4.752  1.6930 -1.2918  0.8962
  216SOL    HW3  637   1.200   4.779   4.853  0.1416 -0.6465  1.9091
  216SOL    MW4  638   1.120   4.752   4.829  0.3855 -0.2512  0.6088
  217SOL     OW  639   0.712   0.273   2.738  0.5129  0.0414  0.7077
  217SOL    HW2  640   0.750   0.272   2.650  1.0155 -1.0256  0.9050
  217SOL    HW3  641   0.627   0.314   2.728  1.8147  2.8357  0.2892
  217SOL    MW4  642   0.706   0.278   2.725  0.7510  0.2693  0.6785
  218SOL     OW  643   5.731   1.954   0.377 -0.2137 -0.2659 -0.5328
  218SOL    HW2  644   5.698   1.984   0.293 -1.2078  1.1643  0.3258
  218SOL    HW3  645   5.716   2.027   0.436 -1.5495 -1.9567  1.3910
  218SOL    MW4  646   5.724   1.967   0.374 -0.5211 -0.3003 -0.1657
  219SOL     OW  647   3.429   4.637   5.582  0.8206 -0.7578  0.7295
  219SOL    HW2  648   3.460   4.686   5.658  0.5981 -2.1486  1.7525
  219SOL    HW3  649   3.340   4.611   5.605  0.0016  0.4574 -0.8582
  219SOL    MW4  650   3.422   4.640   5.595  0.6832 -0.7809  0.6550
  220SOL     OW  651   2.681   1.770   0.043  0.0831  0.7313  0.3209
  220SOL    HW2  652   2.759   1.806   0.087  0.7192  0.1308 -0.2972
  220SOL    HW3  653   2.705   1.769  -0.050 -0.2049 -0.5745  0.2509
  220SOL    MW4  654   2.695   1.775   0.037  0.1291  0.4798  0.2301
  221SOL     OW  655   5.403   2.665   0.710 -1.0206 -0.1340  0.2163
  221SOL    HW2  656   5.498   2.667   0.719 -0.7925  2.9987 -1.3288
  221SOL    HW3  657   5.383   2.579   0.672  0.9143 -1.5728  2.2372
  221SOL    MW4  658   5.413   2.654   0.706 -0.7352  0.0895  0.2791
  222SOL     OW  659   4.329   2.228   0.752  0.3501 -0.4214  0.2291
  222SOL    HW2  660   4.391   2.196   0.818  0.3565  1.8375  1.3976
  222SOL    HW3  661   4.380   2.236   0.672  0.5455 -2.3826  0.1041
  222SOL    MW4  662   4.344   2.225   0.750  0.3767 -0.3821  0.3668
  223SOL     OW  663   0.714   2.067   6.339  0.0300 -0.4000 -0.6497
  223SOL    HW2  664   0.631   2.023   6.357 -0.4318  1.2513  1.6942
  223SOL    HW3  665   0.690   2.159   6.326  1.5814  0.5579  2.3586
  223SOL    MW4  666   0.700   2.073   6.339  0.1737 -0.0557  0.0565
  224SOL     OW  667   2.132   2.273   3.217 -0.2442  0.6758 -0.0150
  224SOL    HW2  668   2.124   2.365   3.191  1.1701  0.5393 -1.0491
  224SOL    HW3  669   2.183   2.233   3.146  1.3732 -0.3328  1.6449
  224SOL    MW4  670   2.137   2.280   3.204  0.1558  0.5247  0.0676
  225SOL     OW  671   0.087   5.103   0.381 -0.6086  0.1824  0.0880
  225SOL    HW2  672   0.012   5.145   0.422 -2.0061 -0.8856 -1.2447
  225SOL    HW3  673   0.161   5.160   0.403 -1.3834  0.2056  3.1604
  225SOL    MW4  674   0.087   5.116   0.389 -0.8952  0.0445  0.3175
  226SOL     OW  675   3.652   1.602   0.582  0.0127  0.0070 -0.2310
  226SOL    HW2  676   3.714   1.555   0.527 -0.5656 -1.0606  0.0116
  226SOL    HW3  677   3.650   1.553   0.664 -0.3196  0.6749  0.1699
  226SOL    MW4  678   3.660   1.589   0.586 -0.1075 -0.0457 -0.1461
  227SOL     OW  679   3.242   2.097   4.658 -0.0453 -0.2318  0.4270
  227SOL    HW2  680   3.209   2.175   4.704 -0.3337  0.0384 -0.2296
  227SOL    HW3  681   3.259   2.034   4.728  0.2886  0.4557  0.9730
  227SOL    MW4  682   3.240   2.099   4.673 -0.0393 -0.1054  0.4124
  228SOL     OW  683   4.125   2.720   1.894 -0.1269  0.1400  0.5624
  228SOL    HW2  684   4.183   2.765   1.956  0.1378  0.3642  0.1605
  228SOL    HW3  685   4.180   2.652   1.854 -0.2740  0.0444  0.5210
  228SOL    MW4  686   4.140   2.717   1.897 -0.1114  0.1569  0.5039
  229SOL     OW  687   0.130   3.086   5.913  0.7716 -0.6837 -0.5571
  229SOL    HW2  688   0.183   3.007   5.924  1.7250  0.0755  0.5684
  229SOL    HW3  689   0.179   3.138   5.849  1.2046 -0.1446  0.2037
  229SOL    MW4  690   0.144   3.082   5.906  0.9545 -0.5124 -0.3082
  230SOL     OW  691   5.350   4.724   2.657 -0.4805  0.2873 -0.2645
  230SOL    HW2  692   5.293   4.653   2.627 -0.0707  0.2967 -1.0890
  230SOL    HW3  693   5.415   4.734   2.587  0.8253 -0.0450  0.8704
  230SOL    MW4  694   5.351   4.716   2.644 -0.2542  0.2447 -0.2235
  231SOL     OW  695   1.557   1.782   1.888 -0.0842  0.6861 -0.3051
  231SOL    HW2  696   1.489   1.822   1.942 -1.4578 -0.2815 -1.2500
  231SOL    HW3  697   1.525   1.694   1.870  1.5261  0.1196 -0.6379
  231SOL    MW4  698   1.544   1.775   1.893 -0.0530  0.4837 -0.4737
  232SOL     OW  699   2.210   2.902   0.108 -0.1987  0.7481 -0.7165
  232SOL    HW2  700   2.300   2.883   0.083 -0.2495 -0.1128 -0.2622
  232SOL    HW3  701   2.213   2.993   0.139  1.0547 -0.0525  1.7089
  232SOL    MW4  702   2.222   2.912   0.109 -0.0400  0.5289 -0.3365
  233SOL     OW  703   1.653   6.328   6.203  0.0458 -0.6078  0.1805
  233SOL    HW2  704   1.592   6.375   6.146  0.7801  0.6456  0.3648
  233SOL    HW3  705   1.623   6.238   6.203 -1.6523 -0.0765  0.0755
  233SOL    MW4  706   1.641   6.323   6.196 -0.0814 -0.3723  0.1910
  234SOL     OW  707   4.135   3.037   2.616 -0.1390 -1.0232 -0.3013
  234SOL    HW2  708   4.052   3.057   2.572  0.6640  2.3108 -0.5903
  234SOL    HW3  709   4.182   2.981   2.555 -0.6308  0.3348 -2.0075
  234SOL    MW4  710   4.130   3.033   2.602 -0.0979 -0.4041 -0.5645
  235SOL     OW  711   0.908   4.473   4.548  0.2664 -0.0149  0.2743
  235SOL    HW2  712   0.975   4.541   4.538  0.1918 -0.0373 -0.4470
  235SOL    HW3  713   0.906   4.429   4.463 -1.0617  0.3453  0.0911
  235SOL    MW4  714   0.917   4.476   4.535  0.0813  0.0297  0.1549
  236SOL     OW  715   0.236   6.057   0.586  0.2330  0.4034  0.1086
  236SOL    HW2  716   0.156   6.099   0.555  0.6787  0.6988 -0.6548
  236SOL    HW3  717   0.252   6.098   0.671 -0.6290  0.0597  0.4577
  236SOL    MW4  718   0.227   6.068   0.593  0.1781  0.3970  0.0539
  237SOL     OW  719   5.746   5.675   2.653  0.3590 -0.6576 -0.5037
  237SOL    HW2  720   5.692   5.706   2.725 -2.2735  1.5818 -3.1979
  237SOL    HW3  721   5.725   5.581   2.647 -2.4207 -0.1212 -0.6650
  237SOL    MW4  722   5.736   5.667   2.662 -0.3551 -0.2913 -0.8805
  238SOL     OW  723   5.893   2.919   2.962  0.0452  0.1402  0.2158
  238SOL    HW2  724   5.845   2.966   3.031 -3.2800 -1.6666 -0.6052
  238SOL    HW3  725   5.845   2.837   2.953  2.5400 -1.2165 -1.8526
  238SOL    MW4  726   5.880   2.914   2.970 -0.0644 -0.2772 -0.1654
  239SOL     OW  727   3.252   5.717   3.245 -0.4984 -0.0101 -0.0798
  239SOL    HW2  728   3.345   5.741   3.251 -0.3434 -0.4000 -0.8428
  239SOL    HW3  729   3.219   5.729   3.334  0.4678 -0.5838  0.3769
  239SOL    MW4  730   3.260   5.722   3.258 -0.3505 -0.1373 -0.1202
  240SOL     OW  731   3.253   5.783   2.492  0.0063 -0.0455 -0.4324
  240SOL    HW2  732   3.332   5.733   2.472  0.8612  1.5119 -1.1390
  240SOL    HW3  733   3.190   5.756   2.425  0.8715  0.6930 -1.5926
  240SOL    MW4  734   3.255   5.772   2.480  0.2332  0.2574 -0.6787
  241SOL     OW  735   2.595   4.642   2.569 -0.7046  0.0632  0.2321
  241SOL    HW2  736   2.529   4.584   2.606 -1.5022 -0.6366 -2.1457
  241SOL    HW3  737   2.572   4.729   2.602 -1.6358 -0.4444  0.9584
  241SOL    MW4  738   2.583   4.646   2.579 -0.9327 -0.0961  0.0142
  242SOL     OW  739   6.091   1.490   1.094 -0.3815  0.0064 -0.3501
  242SOL    HW2  740   6.024   1.449   1.149 -0.7585  1.1096  0.0319
  242SOL    HW3  741   6.041   1.542   1.031  0.1190  0.9515  0.0257
  242SOL    MW4  742   6.075   1.491   1.093 -0.3652  0.2766 -0.2501
  243SOL     OW  743   3.489   4.419   5.405 -0.8036  0.4413  0.6448
  243SOL    HW2  744   3.493   4.485   5.475 -0.0912 -0.7362  1.7596
  243SOL    HW3  745   3.483   4.335   5.451 -0.9874 -0.3309 -0.7284
  243SOL    MW4  746   3.489   4.417   5.421 -0.7338  0.1840  0.6107
  244SOL     OW  747   2.544   1.076   6.243 -0.1828 -0.0036 -0.2051
  244SOL    HW2  748   2.523   0.995   6.197 -1.4654  0.3879 -0.3331
  244SOL    HW3  749   2.598   1.049   6.317 -0.3361 -0.9319 -0.4265
  244SOL    MW4  750   2.549   1.062   6.247 -0.3722 -0.0744 -0.2512
  245SOL     OW  751   2.839   2.600   3.238  0.6567 -0.8816 -0.0531
  245SOL    HW2  752   2.796   2.583   3.154  2.1645 -2.5156 -0.5738
  245SOL    HW3  753   2.920   2.548   3.234  0.1410 -2.1250  2.9753
  245SOL    MW4  754   2.844   2.591   3.226  0.7876 -1.2613  0.2778
  246SOL     OW  755   3.690   5.981   2.030 -0.0731  0.1068  0.2940
  246SOL    HW2  756   3.700   5.929   2.110 -1.0562 -0.9020 -0.2109
  246SOL    HW3  757   3.758   5.947   1.971  0.2215  0.3959  0.4639
  246SOL    MW4  758   3.700   5.970   2.032 -0.1639  0.0119  0.2498
  247SOL     OW  759   3.629   4.332   4.725 -0.1550 -0.4220 -0.5772
  247SOL    HW2  760   3.724   4.319   4.727 -0.0613 -0.0160 -1.5542
  247SOL    HW3  761   3.602   4.334   4.816  0.7080 -1.0552 -0.2989
  247SOL    MW4  762   3.638   4.330   4.737 -0.0288 -0.4519 -0.6694
  248SOL     OW  763   3.577   5.939   2.547  0.3355 -0.9440  0.1641
  248SOL    HW2  764   3.672   5.939   2.533  0.2897 -1.6982 -0.1972
  248SOL    HW3  765   3.541   5.979   2.468  0.4098  0.4888  0.8335
  248SOL    MW4  766   3.585   5.944   2.535  0.3393 -0.8545  0.2048
  249SOL     OW  767   2.651   3.510   3.525  0.4537  0.0999  0.1522
  249SOL    HW2  768   2.588   3.574   3.558 -0.3392 -1.4467  1.8050
  249SOL    HW3  769   2.597   3.439   3.490  1.2378 -1.0510  1.1945
  249SOL    MW4  770   2.636   3.509   3.524  0.4525 -0.2560  0.5078
  250SOL     OW  771   6.315   0.831   4.107  0.7337  0.4188  0.0042
  250SOL    HW2  772   6.409   0.815   4.105  0.4205 -1.7169 -0.3456
  250SOL    HW3  773   6.300   0.899   4.041  2.0970  1.2824  0.5710
  250SOL    MW4  774   6.325   0.838   4.098  0.8722  0.2510  0.0329
  251SOL     OW  775   3.313   4.651   4.449  0.2938  0.4816 -0.2286
  251SOL    HW2  776   3.342   4.712   4.381 -0.2067 -2.4870 -3.3582
  251SOL    HW3  777   3.394   4.625   4.494  0.8239  1.4005 -0.6154
  251SOL    MW4  778   3.328   4.656   4.446  0.2977  0.2111 -0.6926
  252SOL     OW  779   6.081   0.615   1.669 -0.7123  0.0310  0.3505
  252SOL    HW2  780   6.109   0.703   1.696 -0.8200 -0.0243  0.6448
  252SOL    HW3  781   5.987   0.625   1.651 -1.8038 -0.8951  4.4233
  252SOL    MW4  782   6.072   0.628   1.671 -0.8705 -0.0985  0.9267
  253SOL     OW  783   1.795   2.695   4.974 -0.2963 -0.1019  0.0099
  253SOL    HW2  784   1.819   2.689   4.882 -0.5851 -0.4144 -0.0450
  253SOL    HW3  785   1.856   2.759   5.011  1.3550 -1.6730  0.1182
  253SOL    MW4  786   1.806   2.703   4.967 -0.1166 -0.3504  0.0170
  254SOL     OW  787   6.374   0.184   4.471  0.3333 -0.2728  0.3478
  254SOL    HW2  788   6.468   0.193   4.482  0.3544  2.2081 -0.9603
  254SOL    HW3  789   6.339   0.187   4.560  1.4482 -0.5594  0.8122
  254SOL    MW4  790   6.381   0.186   4.484  0.4832  0.0167  0.2365
  255SOL     OW  791   5.600   4.339   4.025  0.1773 -0.3394  0.0384
  255SOL    HW2  792   5.556   4.377   4.102 -0.6461 -0.0946 -0.5348
  255SOL    HW3  793   5.566   4.250   4.019  0.9687 -0.6838  0.5042
  255SOL    MW4  794   5.590   4.332   4.035  0.1731 -0.3525  0.0243
  256SOL     OW  795   4.373   4.099   1.644  0.3914 -0.1990  0.0327
  256SOL    HW2  796   4.447   4.054   1.603 -1.2442 -1.9016 -1.1814
  256SOL    HW3  797   4.354   4.172   1.584 -0.8779 -1.6482 -1.4214
  256SOL    MW4  798   4.380   4.103   1.630  0.0081 -0.6148 -0.3193
  257SOL     OW  799   2.859   5.856   0.749  0.4466  0.0457 -0.3361
  257SOL    HW2  800   2.849   5.878   0.657 -1.4115  0.4176 -0.0980
  257SOL    HW3  801   2.890   5.938   0.790 -1.4699  0.7681 -0.2378
  257SOL    MW4  802   2.862   5.870   0.743 -0.0514  0.1900 -0.2917
  258SOL     OW  803   0.204   3.827   4.794  0.2856  0.2842 -0.3761
  258SOL    HW2  804   0.112   3.805   4.783  0.4456 -0.9733  0.5433
  258SOL    HW3  805   0.204   3.898   4.859  0.0093 -0.7270  0.7759
  258SOL    MW4  806   0.192   3.833   4.801  0.2702 -0.0151 -0.1028
  259SOL     OW  807   5.608   0.037   4.072 -0.4236  0.4552  0.0547
  259SOL    HW2  808   5.700   0.058   4.063 -0.7419  1.4459 -1.1293
  259SOL    HW3  809   5.592   0.037   4.167  0.7698  0.2660  0.2679
  259SOL    MW4  810   5.618   0.039   4.084 -0.3082  0.5609 -0.0734
  260SOL     OW  811   2.707   0.962   0.020 -0.3324 -0.4656 -0.2858
  260SOL    HW2  812   2.701   0.867   0.034 -1.0245 -0.4136 -0.1908
  260SOL    HW3  813   2.698   1.000   0.107 -0.6806 -0.2916 -0.3938
  260SOL    MW4  814   2.705   0.954   0.033 -0.4697 -0.4358 -0.2875
  261SOL     OW  815   3.897   6.211   5.553  0.3091 -0.3346 -0.2289
  261SOL    HW2  816   3.841   6.192   5.478 -0.6182  1.3732 -0.0349
  261SOL    HW3  817   3.953   6.134   5.562 -0.8270 -1.3650 -1.5109
  261SOL    MW4  818   3.897   6.198   5.544  0.0369 -0.2453 -0.3725
  262SOL     OW  819   4.822   1.598   2.248 -0.7662  0.2664  0.4570
  262SOL    HW2  820   4.825   1.534   2.320 -1.0407 -0.5614 -0.2471
  262SOL    HW3  821   4.913   1.603   2.218 -0.8944 -0.5502 -0.1134
  262SOL    MW4  822   4.834   1.590   2.253 -0.8194  0.0494  0.2888
  263SOL     OW  823   0.120   2.742   4.850 -0.0465 -0.5527  0.6739
  263SOL    HW2  824   0.057   2.674   4.826 -0.2282 -0.4165  0.7625
  263SOL    HW3  825   0.205   2.699   4.845 -0.1426 -0.7274  0.5124
  263SOL    MW4  826   0.123   2.727   4.846 -0.0831 -0.5578  0.6643
  264SOL     OW  827   4.888   1.110   1.332  0.3474  0.2509  0.2360
  264SOL    HW2  828   4.872   1.102   1.238  0.3528  0.1738  0.2416
  264SOL    HW3  829   4.869   1.023   1.367  1.7883 -0.1342  0.0959
  264SOL    MW4  830   4.883   1.098   1.324  0.5382  0.1899  0.2183
  265SOL     OW  831   5.232   2.842   0.554 -0.6507 -0.9021  0.1521
  265SOL    HW2  832   5.283   2.803   0.625  0.2492 -0.3949 -0.1892
  265SOL    HW3  833   5.156   2.881   0.597  1.4648  2.3282  1.3942
  265SOL    MW4  834   5.229   2.842   0.569 -0.2529 -0.4090  0.2710
  266SOL     OW  835   2.985   4.521   2.311  0.2037  0.0865 -0.5228
  266SOL    HW2  836   2.910   4.514   2.252 -0.4220 -0.4614  0.3066
  266SOL    HW3  837   2.946   4.525   2.398  1.1329  0.1358 -0.1014
  266SOL    MW4  838   2.970   4.521   2.314  0.2437  0.0207 -0.3578
  267SOL     OW  839   1.773   1.074   3.606 -0.2654  0.7114  0.1796
  267SOL    HW2  840   1.680   1.080   3.629 -0.0144 -0.2699  1.5891
  267SOL    HW3  841   1.819   1.100   3.686  0.6968  1.5551 -0.6155
  267SOL    MW4  842   1.767   1.078   3.619 -0.1053  0.6932  0.2606
  268SOL     OW  843   3.783   3.904   1.354  0.0176  0.1119 -0.2605
  268SOL    HW2  844   3.854   3.899   1.290 -0.0091  0.9297 -0.3558
  268SOL    HW3  845   3.791   3.823   1.404 -0.0199 -0.5958 -1.3579
  268SOL    MW4  846   3.794   3.892   1.352  0.0091  0.1265 -0.4178
  269SOL     OW  847   3.523   1.220   2.743  0.6017 -0.1576  0.4220
  269SOL    HW2  848   3.592   1.215   2.677  1.9307  2.9091  1.3694
  269SOL    HW3  849   3.557   1.171   2.817  0.5595 -0.8696 -0.0221
  269SOL    MW4  850   3.536   1.213   2.744  0.7715  0.1531  0.4884
  270SOL     OW  851   5.224   0.688   0.808  0.0755  0.2490 -0.1666
  270SOL    HW2  852   5.251   0.621   0.745 -1.4205  0.7767 -1.4222
  270SOL    HW3  853   5.288   0.759   0.797  2.0057 -1.1059  1.5574
  270SOL    MW4  854   5.236   0.688   0.798  0.1328  0.1399 -0.1048
  271SOL     OW  855   0.530   5.359   5.366 -0.0255 -0.3417  0.8194
  271SOL    HW2  856   0.482   5.339   5.286  0.5016  0.2152  0.3572
  271SOL    HW3  857   0.602   5.296   5.368  0.3892  0.1107  0.4660
  271SOL    MW4  858   0.533   5.348   5.356  0.0988 -0.2085  0.7118
  272SOL     OW  859   3.480   5.972   4.349 -0.9541  0.3820 -0.1373
  272SOL    HW2  860   3.575   5.983   4.354 -1.0056  0.6113  0.3210
  272SOL    HW3  861   3.456   5.927   4.429 -1.2654  0.5560 -0.1303
  272SOL    MW4  862   3.489   5.968   4.360 -1.0020  0.4352 -0.0759
  273SOL     OW  863   3.898   0.371   0.734  0.3244  0.3143  0.2680
  273SOL    HW2  864   3.912   0.287   0.779 -1.6890 -0.7384 -0.9066
  273SOL    HW3  865   3.955   0.432   0.779  1.8714 -1.6826  1.1893
  273SOL    MW4  866   3.907   0.368   0.746  0.2628 -0.0881  0.2346
  274SOL     OW  867   4.520   6.069   0.329 -0.5692  0.2582 -0.3395
  274SOL    HW2  868   4.495   6.113   0.248 -0.9620 -2.0092 -1.5441
  274SOL    HW3  869   4.563   5.988   0.300 -0.5230 -0.5206  1.7081
  274SOL    MW4  870   4.523   6.064   0.314 -0.6149 -0.1437 -0.2282
  275SOL     OW  871   3.459   2.870   1.661 -0.1243  0.3178  0.9271
  275SOL    HW2  872   3.402   2.889   1.586 -0.7163 -1.5784  0.8561
  275SOL    HW3  873   3.547   2.867   1.624 -0.4204 -0.6947  0.2640
  275SOL    MW4  874   3.463   2.872   1.646 -0.2415 -0.0659  0.8302
  276SOL     OW  875   2.320   2.233   4.475  0.0959  0.2592 -0.4330
  276SOL    HW2  876   2.366   2.152   4.450 -1.2023 -1.1735  1.4680
  276SOL    HW3  877   2.240   2.232   4.422  0.1066  0.3217 -0.4499
  276SOL    MW4  878   2.315   2.222   4.465 -0.0740  0.0784 -0.1844
  277SOL     OW  879   4.043   3.381   2.197  0.0977  0.0769 -0.1122
  277SOL    HW2  880   3.995   3.300   2.211 -0.2529  0.5839  1.8186
  277SOL    HW3  881   4.101   3.361   2.124 -1.2680 -1.3208 -0.8832
  277SOL    MW4  882   4.044   3.368   2.189 -0.1287 -0.0406  0.0408
  278SOL     OW  883   0.261   4.903   0.462  0.4119 -0.1843 -0.0316
  278SOL    HW2  884   0.184   4.955   0.441 -0.4919 -0.2112  2.7233
  278SOL    HW3  885   0.334   4.952   0.426 -0.6841  1.2645 -0.3907
  278SOL    MW4  886   0.260   4.916   0.455  0.1480  0.0033  0.2845
  279SOL     OW  887   4.080   5.253   0.733  0.0427 -0.1286 -0.9082
  279SOL    HW2  888   4.078   5.303   0.815 -0.4841 -0.0432 -0.9714
  279SOL    HW3  889   4.030   5.306   0.671 -1.3096 -1.1536 -0.7340
  279SOL    MW4  890   4.073   5.267   0.736 -0.2052 -0.2526 -0.8936
  280SOL     OW  891   6.099   5.076   2.174 -0.0689  1.1941  0.1286
  280SOL    HW2  892   6.121   4.994   2.220 -1.3597  1.4404  1.2746
  280SOL    HW3  893   6.170   5.089   2.112 -0.5999 -1.6309 -1.2200
  280SOL    MW4  894   6.111   5.067   2.172 -0.3092  0.8538  0.1019
  281SOL     OW  895   4.184   5.235   2.997  0.1463 -0.1238  0.0557
  281SOL    HW2  896   4.223   5.174   2.934  0.9331 -0.8818  1.2345
  281SOL    HW3  897   4.100   5.259   2.957  0.0772 -1.5136 -0.7281
  281SOL    MW4  898   4.178   5.230   2.983  0.2410 -0.4072  0.1078
  282SOL     OW  899   5.496   0.113   0.442 -0.2653 -0.4886 -0.4499
  282SOL    HW2  900   5.428   0.050   0.465 -0.3661 -0.0130  0.5849
  282SOL    HW3  901   5.575   0.081   0.487 -0.1242 -0.2995 -0.5610
  282SOL    MW4  902   5.498   0.100   0.451 -0.2599 -0.4009 -0.3280
  283SOL     OW  903   4.030   1.619   2.313  0.6305 -0.0382  0.5934
  283SOL    HW2  904   3.990   1.664   2.388 -1.4617  0.1033 -0.5254
  283SOL    HW3  905   3.977   1.540   2.303 -0.3690  0.8553 -1.8319
  283SOL    MW4  906   4.018   1.615   2.322  0.2226  0.0983  0.1258
  284SOL     OW  907   2.778   5.872   0.489  0.3042  1.0254 -0.2795
  284SOL    HW2  908   2.695   5.833   0.516  0.6755  0.9498  0.8390
  284SOL    HW3  909   2.789   5.846   0.398  0.1769 -0.8916  0.2089
  284SOL    MW4  910   2.769   5.863   0.481  0.3364  0.7625 -0.0675
  285SOL     OW  911   0.185   4.977   3.371 -0.3913 -0.2534 -0.3782
  285SOL    HW2  912   0.235   4.904   3.335  0.2398  0.0043 -0.0255
  285SOL    HW3  913   0.116   4.992   3.306  0.5100 -0.0289 -1.3147
  285SOL    MW4  914   0.182   4.970   3.357 -0.1891 -0.1898 -0.4552
  286SOL     OW  915   3.695   0.690   2.139  0.2229 -0.3147  0.4660
  286SOL    HW2  916   3.666   0.721   2.053 -1.2130 -0.6794  0.8017
  286SOL    HW3  917   3.780   0.733   2.152  0.6112 -0.4715 -1.2480
  286SOL    MW4  918   3.703   0.700   2.129  0.0847 -0.3835  0.2841
  287SOL     OW  919   5.367   2.177   3.125 -0.2464  0.4828 -0.2117
  287SOL    HW2  920   5.318   2.260   3.126 -1.0493  0.0405 -1.0934
  287SOL    HW3  921   5.446   2.197   3.074 -0.6553  0.5961 -0.8150
  287SOL    MW4  922   5.371   2.191   3.119 -0.4063  0.4394 -0.4077
  288SOL     OW  923   6.103   4.464   1.470 -0.2261  0.6948  0.0118
  288SOL    HW2  924   6.039   4.405   1.509  0.2307  0.0004 -0.2688
  288SOL    HW3  925   6.058   4.549   1.466 -0.3931  0.7244  1.7347
  288SOL    MW4  926   6.089   4.468   1.474 -0.1878  0.6071  0.2021
  289SOL     OW  927   4.378   0.962   6.310 -0.4630  0.4671  0.1524
  289SOL    HW2  928   4.452   0.962   6.370 -2.4357 -0.4867  2.7670
  289SOL    HW3  929   4.383   0.877   6.266  0.5964  0.8847 -0.5826
  289SOL    MW4  930   4.388   0.951   6.312 -0.5835  0.3964  0.4004
  290SOL     OW  931   6.133   4.383   3.411 -0.0780  0.2864 -0.1182
  290SOL    HW2  932   6.153   4.291   3.392  1.0945  0.7095 -1.0620
  290SOL    HW3  933   6.210   4.414   3.460 -0.8332  0.5655  0.9203
  290SOL    MW4  934   6.146   4.375   3.415 -0.0230  0.3790 -0.1057
  291SOL     OW  935   5.415   5.533   6.138  0.2576  0.3862 -0.2273
  291SOL    HW2  936   5.425   5.549   6.232  0.5036  0.0132 -0.1880
  291SOL    HW3  937   5.486   5.582   6.098  1.0069 -0.5743 -0.1074
  291SOL    MW4  938   5.426   5.541   6.145  0.3889  0.2103 -0.2063
  292SOL     OW  939   3.506   0.360   2.016 -0.2613 -0.1209  0.3863
  292SOL    HW2  940   3.582   0.323   2.061  0.2102  0.6925  0.2787
  292SOL    HW3  941   3.470   0.286   1.967  0.3820 -0.5519  0.5366
  292SOL    MW4  942   3.511   0.345   2.015 -0.1142 -0.0704  0.3920
  293SOL     OW  943   5.323   5.702   4.835  0.6175  0.4987 -0.0681
  293SOL    HW2  944   5.398   5.758   4.815  2.2937 -1.3944  0.7126
  293SOL    HW3  945   5.335   5.677   4.926 -0.3856 -0.7155 -0.2535
  293SOL    MW4  946   5.334   5.706   4.844  0.7063  0.0887  0.0104
  294SOL     OW  947   3.385   1.490   4.939  0.0748 -0.5474 -0.7824
  294SOL    HW2  948   3.373   1.441   4.858 -1.4773 -1.2862 -0.1493
  294SOL    HW3  949   3.409   1.424   5.004 -0.8907 -0.3135 -0.1699
  294SOL    MW4  950   3.387   1.475   4.937 -0.2574 -0.6141 -0.6181
  295SOL     OW  951   3.833   1.815   0.654 -0.3196  0.2861  0.1023
  295SOL    HW2  952   3.893   1.804   0.580 -0.2380  1.1231  0.0312
  295SOL    HW3  953   3.777   1.738   0.651  0.5436 -0.3616 -0.0250
  295SOL    MW4  954   3.834   1.803   0.644 -0.1950  0.3111  0.0761
  296SOL     OW  955   5.414   5.741   5.802  0.3350  0.3553 -0.0129
  296SOL    HW2  956   5.381   5.804   5.867  0.4298  0.4447 -0.0521
  296SOL    HW3  957   5.488   5.699   5.846  1.1891  1.2979 -0.5249
  296SOL    MW4  958   5.419   5.743   5.817  0.4602  0.4915 -0.0856
  297SOL     OW  959   1.367   4.363   6.254 -0.0206  0.3842  0.2701
  297SOL    HW2  960   1.315   4.288   6.226 -0.4974  0.5086  0.7810
  297SOL    HW3  961   1.364   4.423   6.180  0.5946 -0.2126 -0.2434
  297SOL    MW4  962   1.359   4.361   6.241 -0.0024  0.3219  0.2698
  298SOL     OW  963   1.865   5.750   0.205  0.2779  0.1326 -0.0183
  298SOL    HW2  964   1.824   5.679   0.155 -2.6409  2.0003 -0.4997
  298SOL    HW3  965   1.866   5.719   0.295 -1.1178 -0.4494 -0.1878
  298SOL    MW4  966   1.860   5.736   0.210 -0.2913  0.3023 -0.1042
  299SOL     OW  967   4.769   0.653   4.792  0.2614 -0.0692  0.1004
  299SOL    HW2  968   4.851   0.631   4.837 -0.1022 -0.1346  0.7414
  299SOL    HW3  969   4.774   0.607   4.709 -0.3596 -2.4120  1.2937
  299SOL    MW4  970   4.780   0.644   4.787  0.1315 -0.3869  0.3424
  300SOL     OW  971   3.996   2.422   1.604 -0.0955 -0.4891  0.5551
  300SOL    HW2  972   3.962   2.475   1.532  3.1202  1.5268  0.3384
  300SOL    HW3  973   4.077   2.383   1.571  0.4027 -1.1794  2.4326
  300SOL    MW4  974   4.002   2.424   1.590  0.3945 -0.3142  0.7743
  301SOL     OW  975   0.032   6.117   3.362 -0.7388  0.8889 -0.2384
  301SOL    HW2  976  -0.056   6.129   3.396 -1.4155  1.2842 -2.0150
  301SOL    HW3  977   0.056   6.203   3.326  0.7338  1.0320  0.9782
  301SOL    MW4  978   0.024   6.130   3.362 -0.6338  0.9599 -0.3123
  302SOL     OW  979   6.412   2.984   5.634  0.5530 -0.0187  0.3426
  302SOL    HW2  980   6.394   2.890   5.623  0.6892 -0.0012 -0.0508
  302SOL    HW3  981   6.497   2.996   5.591 -0.2154  0.5988 -1.0587
  302SOL    MW4  982   6.421   2.973   5.627  0.4696  0.0651  0.1058
  303SOL     OW  983   2.310   1.280   2.736  0.1682 -0.0302  0.3451
  303SOL    HW2  984   2.250   1.349   2.765  0.3810 -0.0332  0.8043
  303SOL    HW3  985   2.391   1.296   2.785  0.2203 -0.6064  0.4544
  303SOL    MW4  986   2.313   1.291   2.746  0.2031 -0.1066  0.4201
  304SOL     OW  987   0.200   1.964   1.150  0.3872  0.4139  0.3346
  304SOL    HW2  988   0.218   2.056   1.169 -2.0243  0.7111  1.5123
  304SOL    HW3  989   0.185   1.924   1.235  1.1339 -1.0495 -0.1770
  304SOL    MW4  990   0.200   1.970   1.164  0.1676  0.2601  0.4225
  305SOL     OW  991   4.998   2.826   2.865 -0.2571 -0.3141  0.1449
  305SOL    HW2  992   5.088   2.847   2.840 -0.1012 -0.3783  0.6511
  305SOL    HW3  993   5.000   2.821   2.960 -1.1301  1.2746  0.2891
  305SOL    MW4  994   5.010   2.828   2.874 -0.3517 -0.1129  0.2307
  306SOL     OW  995   2.636   4.112   5.634 -0.1887  0.4272  0.5235
  306SOL    HW2  996   2.624   4.025   5.597  0.6899  0.8509 -0.8328
  306SOL    HW3  997   2.576   4.169   5.585  1.7226  1.1780 -1.0924
  306SOL    MW4  998   2.627   4.108   5.623  0.1794  0.5822  0.1314
  307SOL     OW  999   1.333   5.387   5.418  0.6435  0.2451 -0.3399
  307SOL    HW2 1000   1.416   5.361   5.457  2.4341  2.3014 -2.4961
  307SOL    HW3 1001   1.340   5.482   5.406 -2.5053  0.6841  0.3672
  307SOL    MW4 1002   1.345   5.396   5.421  0.4643  0.5743 -0.5311
  308SOL     OW 1003   4.996   3.515   6.285  0.0747  0.0718  0.0975
  308SOL    HW2 1004   4.945   3.593   6.266  2.6656  1.3760 -2.3040
  308SOL    HW3 1005   4.983   3.459   6.208  2.0798  0.4411 -0.5842
  308SOL    MW4 1006   4.988   3.518   6.272  0.6811  0.2926 -0.3093
  309SOL     OW 1007   1.572   5.415   2.549  0.0213 -0.0734  0.3714
  309SOL    HW2 1008   1.582   5.400   2.455  1.1882 -0.6878  0.5719
  309SOL    HW3 1009   1.655   5.385   2.587  0.0371  1.2761  1.4755
  309SOL    MW4 1010   1.584   5.409   2.542  0.1773  0.0235  0.5435
  310SOL     OW 1011   5.965   5.177   5.041 -0.4263  0.0409  0.1276
  310SOL    HW2 1012   5.994   5.138   4.959 -0.7924 -0.8853  0.4221
  310SOL    HW3 1013   6.008   5.125   5.109 -0.5452  0.4572  0.5249
  310SOL    MW4 1014   5.975   5.165   5.039 -0.4903 -0.0264  0.2189
  311SOL     OW 1015   0.571   0.449   3.574  0.1744  0.1137 -0.3331
  311SOL    HW2 1016   0.574   0.359   3.541 -0.1652 -0.2937  0.7089
  311SOL    HW3 1017   0.514   0.495   3.512 -1.0793 -0.8209  0.0752
  311SOL    MW4 1018   0.564   0.443   3.561 -0.0358 -0.0633 -0.1418
  312SOL     OW 1019   5.720   5.357   3.301 -0.1551  0.3642 -0.3147
  312SOL    HW2 1020   5.637   5.333   3.259  0.0777 -0.4066 -0.3465
  312SOL    HW3 1021   5.767   5.274   3.311 -0.6082  0.3237  2.3528
  312SOL    MW4 1022   5.715   5.343   3.297 -0.1842  0.2571  0.0331
  313SOL     OW 1023   4.645   4.401   0.801 -0.2100 -0.4890 -0.2185
  313SOL    HW2 1024   4.628   4.328   0.861  1.0992 -1.5077 -1.0128
  313SOL    HW3 1025   4.697   4.463   0.853 -1.8598  0.2265  0.6511
  313SOL    MW4 1026   4.650   4.399   0.816 -0.2549 -0.5290 -0.2086
  314SOL     OW 1027   1.589   1.418   2.434  0.9847  0.5705  0.8455
  314SOL    HW2 1028   1.538   1.367   2.370  0.2123  1.0911  1.0293
  314SOL    HW3 1029   1.524   1.447   2.498  1.3293  2.1778  0.4946
  314SOL    MW4 1030   1.573   1.415   2.434  0.9283  0.8512  0.8234
  315SOL     OW 1031   2.399   4.120   5.028  0.1805  0.4399 -1.0754
  315SOL    HW2 1032   2.469   4.054   5.018  1.1600  1.3816 -0.5973
  315SOL    HW3 1033   2.334   4.094   4.963  0.1238 -1.5063 -0.3260
  315SOL    MW4 1034   2.400   4.108   5.018  0.3023  0.3074 -0.9134
  316SOL     OW 1035   5.123   4.559   5.555 -0.0357  0.1649  0.2362
  316SOL    HW2 1036   5.038   4.515   5.550  0.2280 -0.5580  1.5491
  316SOL    HW3 1037   5.145   4.580   5.465 -1.8575  0.8459 -0.0872
  316SOL    MW4 1038   5.115   4.556   5.543 -0.2413  0.1594  0.3667
  317SOL     OW 1039   4.309   3.938   4.133 -0.3863  0.0767  0.3551
  317SOL    HW2 1040   4.384   3.915   4.078 -0.6611 -0.5591  0.2415
  317SOL    HW3 1041   4.248   3.980   4.073 -0.5645 -0.3589  0.2265
  317SOL    MW4 1042   4.311   3.940   4.118 -0.4461 -0.0647  0.3231
  318SOL     OW 1043   3.377   2.276   1.826  0.1883 -0.3234 -0.1334
  318SOL    HW2 1044   3.343   2.358   1.861 -0.0794 -0.4096 -0.1925
  318SOL    HW3 1045   3.472   2.284   1.834  0.1047 -0.9198  1.9020
  318SOL    MW4 1046   3.385   2.288   1.831  0.1420 -0.4135  0.1274
  319SOL     OW 1047   1.641   1.945   0.072 -0.2949 -0.6938  0.3279
  319SOL    HW2 1048   1.667   1.853   0.074  0.0941 -0.6969 -2.0363
  319SOL    HW3 1049   1.582   1.952  -0.003  0.3084  1.1031 -0.0373
  319SOL    MW4 1050   1.637   1.934   0.062 -0.1640 -0.4571 -0.0322
  320SOL     OW 1051   6.249   4.416   1.728  0.0109 -0.1303 -0.0388
  320SOL    HW2 1052   6.332   4.373   1.710 -0.4526 -1.5689  1.0440
  320SOL    HW3 1053   6.243   4.486   1.663  2.5841  0.7834  0.5900
  320SOL    MW4 1054   6.259   4.420   1.717  0.2892 -0.1996  0.1870
  321SOL     OW 1055   4.973   2.146   4.982  0.2593  0.2327 -0.1343
  321SOL    HW2 1056   5.053   2.093   4.985  0.4149  0.4737  0.0023
  321SOL    HW3 1057   4.904   2.086   5.009  0.3182 -0.1180 -0.7364
  321SOL    MW4 1058   4.975   2.131   4.986  0.2876  0.2182 -0.1957
  322SOL     OW 1059   2.163   2.948   6.036 -0.2273 -0.6905  0.6518
  322SOL    HW2 1060   2.114   2.944   5.954  2.4440 -2.3025 -1.0220
  322SOL    HW3 1061   2.181   2.856   6.057  1.5995 -0.1952  1.4449
  322SOL    MW4 1062   2.159   2.935   6.028  0.3662 -0.8378  0.5356
  323SOL     OW 1063   0.258   3.872   4.533  0.6439 -0.3172  0.3883
  323SOL    HW2 1064   0.228   3.853   4.622 -0.1007 -0.4283  0.1216
  323SOL    HW3 1065   0.340   3.824   4.524 -0.4152 -2.1844  0.2477
  323SOL    MW4 1066   0.265   3.863   4.544  0.4059 -0.5782  0.3346
  324SOL     OW 1067   3.314   6.172   6.213 -0.4273  0.2385  0.2700
  324SOL    HW2 1068   3.395   6.221   6.221 -0.1870 -0.2173  0.6617
  324SOL    HW3 1069   3.341   6.080   6.204 -0.8258  0.2457 -1.4857
  324SOL    MW4 1070   3.328   6.166   6.213 -0.4482  0.1793  0.0900
  325SOL     OW 1071   5.405   1.837   5.112 -0.2332  0.0286 -0.4498
  325SOL    HW2 1072   5.460   1.912   5.137  0.4622 -1.1318  1.7385
  325SOL    HW3 1073   5.447   1.762   5.153 -2.6967 -1.1005  0.1628
  325SOL    MW4 1074   5.418   1.837   5.120 -0.4665 -0.2735 -0.0803
  326SOL     OW 1075   1.771   4.829   3.764  0.4050 -0.2803  0.3588
  326SOL    HW2 1076   1.738   4.873   3.842  0.0408  1.3689 -0.6551
  326SOL    HW3 1077   1.857   4.868   3.749  0.0318  0.2001 -0.6254
  326SOL    MW4 1078   1.778   4.840   3.772  0.3077  0.0007  0.0951
  327SOL     OW 1079   2.589   0.166   3.436  0.2308  0.2704  0.2007
  327SOL    HW2 1080   2.556   0.137   3.351  1.3235 -1.4612  0.3209
  327SOL    HW3 1081   2.520   0.223   3.470 -1.3317 -0.9459 -0.7803
  327SOL    MW4 1082   2.576   0.170   3.429  0.1688 -0.1185  0.0871
  328SOL     OW 1083   1.948   4.366   4.431  0.9007 -0.3517 -0.2639
  328SOL    HW2 1084   1.890   4.411   4.369  1.5394 -0.6683 -1.1061
  328SOL    HW3 1085   1.933   4.411   4.514 -1.9322 -1.5701  0.0174
  328SOL    MW4 1086   1.938   4.378   4.433  0.6112 -0.5543 -0.3379
  329SOL     OW 1087   4.277   3.682   1.627  0.2148  0.1163 -0.5215
  329SOL    HW2 1088   4.372   3.671   1.620  0.3423  1.6942 -1.7972
  329SOL    HW3 1089   4.257   3.756   1.570 -1.7782 -0.0914 -0.1638
  329SOL    MW4 1090   4.287   3.690   1.619 -0.0314  0.2971 -0.6427
  330SOL     OW 1091   5.913   0.685   3.841 -0.1639  0.3420  0.4387
  330SOL    HW2 1092   5.973   0.684   3.916 -0.3225 -1.4298  0.5851
  330SOL    HW3 1093   5.943   0.613   3.786 -0.5066  1.1651 -0.8567
  330SOL    MW4 1094   5.925   0.675   3.844 -0.2300  0.2168  0.2871
  331SOL     OW 1095   4.501   4.620   0.735 -0.6672  0.3764 -0.0633
  331SOL    HW2 1096   4.538   4.535   0.756  1.0766  0.3934 -2.5601
  331SOL    HW3 1097   4.418   4.600   0.691  0.0743 -0.1161 -1.2805
  331SOL    MW4 1098   4.495   4.606   0.732 -0.3393  0.3136 -0.5533
  332SOL     OW 1099   5.813   2.568   3.561 -0.3782  0.0049  0.2674
  332SOL    HW2 1100   5.724   2.563   3.596 -1.3752 -2.3689 -2.2704
  332SOL    HW3 1101   5.837   2.477   3.543  3.8347  0.1360  3.4771
  332SOL    MW4 1102   5.805   2.555   3.563  0.0461 -0.2910  0.3561
  333SOL     OW 1103   4.107   6.410   4.344 -0.3311 -0.1885  0.5537
  333SOL    HW2 1104   4.158   6.491   4.351 -0.3535 -0.2899  2.2384
  333SOL    HW3 1105   4.165   6.343   4.379 -1.1012 -0.5439  1.1507
  333SOL    MW4 1106   4.121   6.412   4.349 -0.4357 -0.2488  0.8547
  334SOL     OW 1107   5.515   1.011   4.261  0.0293  0.2549  0.0168
  334SOL    HW2 1108   5.473   0.932   4.226 -2.1709  1.1617  0.4657
  334SOL    HW3 1109   5.565   0.980   4.336 -0.6180 -0.7585  0.0473
  334SOL    MW4 1110   5.516   0.996   4.266 -0.3464  0.2409  0.0800
  335SOL     OW 1111   6.172   2.006   4.680  0.6165  1.1640 -0.0892
  335SOL    HW2 1112   6.235   2.078   4.678  0.5934  1.1786 -0.5405
  335SOL    HW3 1113   6.157   1.985   4.587 -1.5048  2.4515 -0.1234
  335SOL    MW4 1114   6.178   2.013   4.667  0.3336  1.3358 -0.1532
  336SOL     OW 1115   5.102   3.940   1.585  0.1046  0.2712 -0.6959
  336SOL    HW2 1116   5.058   3.972   1.664 -0.4749 -1.0012 -0.4736
  336SOL    HW3 1117   5.194   3.965   1.597  0.0308  0.0667  0.4039
  336SOL    MW4 1118   5.108   3.948   1.597  0.0184  0.0764 -0.5215
  337SOL     OW 1119   4.470   5.456   2.114  0.1057  0.3417  0.6269
  337SOL    HW2 1120   4.385   5.431   2.152  0.1762  1.0159  1.2714
  337SOL    HW3 1121   4.447   5.515   2.042  0.0332  1.9372  1.8862
  337SOL    MW4 1122   4.456   5.461   2.110  0.1055  0.6412  0.8781
  338SOL     OW 1123   4.651   0.338   3.659  0.8036  0.6528 -0.0994
  338SOL    HW2 1124   4.726   0.279   3.669  0.1374 -0.4761 -1.4844
  338SOL    HW3 1125   4.637   0.343   3.565 -2.6525 -1.5313  0.1364
  338SOL    MW4 1126   4.659   0.331   3.648  0.2597  0.2157 -0.2510
  339SOL     OW 1127   2.957   1.995   3.792 -0.0383  0.5185  0.0370
  339SOL    HW2 1128   2.936   1.921   3.848 -0.0849  1.5600  1.4520
  339SOL    HW3 1129   2.947   1.962   3.703 -0.5028 -1.0275  0.6380
  339SOL    MW4 1130   2.953   1.981   3.787 -0.1058  0.4519  0.3030
  340SOL     OW 1131   1.729   3.741   1.011  0.7755 -0.0752  0.1841
  340SOL    HW2 1132   1.820   3.770   1.002  0.4874  0.2222 -4.3642
  340SOL    HW3 1133   1.734   3.646   1.011  1.1094 -0.0595  0.6198
  340SOL    MW4 1134   1.742   3.733   1.010  0.7816 -0.0339 -0.3585
  341SOL     OW 1135   6.325   5.775   4.560 -0.1014 -0.2311 -0.2919
  341SOL    HW2 1136   6.378   5.841   4.515  2.6090 -1.1983  1.2056
  341SOL    HW3 1137   6.317   5.808   4.650 -0.9689 -0.7321 -0.1746
  341SOL    MW4 1138   6.331   5.788   4.566  0.1418 -0.4248 -0.0789
  342SOL     OW 1139   5.511   1.322   4.763 -0.2979 -0.0152 -0.3751
  342SOL    HW2 1140   5.510   1.406   4.717  0.4020 -0.6493 -1.6063
  342SOL    HW3 1141   5.556   1.340   4.846  1.7730  0.4124 -1.5218
  342SOL    MW4 1142   5.517   1.335   4.768  0.0677 -0.0424 -0.6888
  343SOL     OW 1143   2.548   6.204   3.225  0.2599  0.7564 -0.0012
  343SOL    HW2 1144   2.635   6.210   3.265 -0.0553  0.2719  0.7842
  343SOL    HW3 1145   2.526   6.294   3.204  0.5570  1.0021  0.6832
  343SOL    MW4 1146   2.557   6.217   3.228  0.2575  0.7249  0.1927
  344SOL     OW 1147   4.872   2.773   5.982  0.0859 -0.2784  0.2823
  344SOL    HW2 1148   4.858   2.867   5.971 -0.0997 -0.3035  0.2940
  344SOL    HW3 1149   4.964   2.765   6.005  0.5108 -0.2315 -1.3166
  344SOL    MW4 1150   4.882   2.785   5.984  0.1175 -0.2755  0.0729
  345SOL     OW 1151   2.851   3.322   0.212  0.5518 -0.1201  0.2912
  345SOL    HW2 1152   2.922   3.323   0.276 -0.4423 -0.7382  1.4304
  345SOL    HW3 1153   2.828   3.229   0.203 -0.0244  0.0614 -0.1666
  345SOL    MW4 1154   2.857   3.310   0.219  0.3446 -0.1777  0.3811
  346SOL     OW 1155   1.216   1.403   1.328 -0.3369 -0.1779  0.2269
  346SOL    HW2 1156   1.299   1.355   1.326  0.2292  0.6627  1.7049
  346SOL    HW3 1157   1.171   1.375   1.249  2.6051  1.6075 -2.3137
  346SOL    MW4 1158   1.221   1.393   1.318  0.1260  0.1686  0.0867
  347SOL     OW 1159   1.180   3.945   4.433 -0.0339  0.3119  0.5084
  347SOL    HW2 1160   1.220   3.967   4.349 -1.2515  0.4024 -0.0717
  347SOL    HW3 1161   1.225   4.001   4.497  1.6876 -0.5727  0.1116
  347SOL    MW4 1162   1.191   3.956   4.431  0.0326  0.2071  0.3795
  348SOL     OW 1163   3.072   3.920   4.342 -0.4045  0.7153  0.3534
  348SOL    HW2 1164   3.006   3.946   4.406 -0.3933  0.2509  0.5599
  348SOL    HW3 1165   3.067   3.987   4.274  0.7202  2.1788  1.6171
  348SOL    MW4 1166   3.063   3.932   4.342 -0.2547  0.8471  0.5474
  349SOL     OW 1167   4.445   5.799   0.975 -0.4478 -0.2019  0.1306
  349SOL    HW2 1168   4.453   5.764   0.886 -0.7368  1.3867 -0.5557
  349SOL    HW3 1169   4.536   5.808   1.005 -0.3455 -0.6479 -0.0298
  349SOL    MW4 1170   4.458   5.795   0.967 -0.4724 -0.0512  0.0189
  350SOL     OW 1171   1.237   5.830   2.945  0.2839 -0.0408  0.3179
  350SOL    HW2 1172   1.164   5.842   2.885  0.4520 -1.7324 -0.2815
  350SOL    HW3 1173   1.314   5.855   2.894  0.2501  0.4795  0.5164
  350SOL    MW4 1174   1.238   5.835   2.930  0.3016 -0.1954  0.2650
  351SOL     OW 1175   4.320   2.303   5.964 -0.3645  0.5388  0.8440
  351SOL    HW2 1176   4.351   2.349   6.042  0.7966 -1.0664  1.3855
  351SOL    HW3 1177   4.362   2.349   5.891 -0.7359  1.4945  1.2214
  351SOL    MW4 1178   4.330   2.315   5.965 -0.2603  0.4531  0.9652
  352SOL     OW 1179   1.021   1.190   3.449 -0.0966  0.8396  0.0302
  352SOL    HW2 1180   1.085   1.201   3.379 -0.3656 -0.5299 -0.4540
  352SOL    HW3 1181   1.074   1.168   3.526  0.0832  0.5599 -0.1698
  352SOL    MW4 1182   1.036   1.188   3.450 -0.1084  0.6220 -0.0600
  353SOL     OW 1183   1.291   6.090   1.422 -0.3846 -0.4405  0.1870
  353SOL    HW2 1184   1.264   6.105   1.513 -1.2689 -1.1247  0.0488
  353SOL    HW3 1185   1.302   6.178   1.385 -0.0547 -0.1581  0.9362
  353SOL    MW4 1186   1.289   6.104   1.429 -0.4578 -0.4935  0.2676
  354SOL     OW 1187   4.938   2.683   1.550  0.4865 -0.9699  0.2780
  354SOL    HW2 1188   4.972   2.697   1.638  1.5459 -0.3280 -0.2144
  354SOL    HW3 1189   4.855   2.638   1.563  0.0401  0.1811  1.6612
  354SOL    MW4 1190   4.931   2.679   1.563  0.5674 -0.7334  0.3955
  355SOL     OW 1191   1.420   2.670   1.582  0.0766  0.0539 -0.1143
  355SOL    HW2 1192   1.335   2.707   1.561  0.4605  1.2359  0.3149
  355SOL    HW3 1193   1.401   2.591   1.633 -0.7790 -0.7992 -1.6955
  355SOL    MW4 1194   1.407   2.664   1.586  0.0143  0.0973 -0.2663
  356SOL     OW 1195   5.782   5.206   5.729 -0.8226 -0.1034 -0.2510
  356SOL    HW2 1196   5.785   5.148   5.804 -0.4956 -1.1293 -1.0344
  356SOL    HW3 1197   5.874   5.233   5.716 -0.2902 -2.5747 -2.2497
  356SOL    MW4 1198   5.795   5.202   5.737 -0.7092 -0.5648 -0.6180
  357SOL     OW 1199   3.974   5.436   0.535  0.0423  0.3055 -0.2562
  357SOL    HW2 1200   4.000   5.458   0.446 -3.4904 -0.4824 -1.6562
  357SOL    HW3 1201   3.987   5.517   0.584  0.2567  1.3560 -1.9593
  357SOL    MW4 1202   3.979   5.450   0.530 -0.3955  0.3402 -0.6656
  358SOL     OW 1203   1.842   0.533   1.247  0.1664  0.3582 -0.2180
  358SOL    HW2 1204   1.843   0.469   1.176  2.8909  0.2354 -0.1680
  358SOL    HW3 1205   1.769   0.505   1.303 -0.8063 -0.6886 -1.9134
  358SOL    MW4 1206   1.833   0.521   1.245  0.3975  0.2039 -0.4351
  359SOL     OW 1207   3.020   2.461   1.856 -0.6722 -0.4186  0.1871
  359SOL    HW2 1208   2.943   2.489   1.906 -0.8308 -3.2693  1.7898
  359SOL    HW3 1209   3.001   2.370   1.833  1.4510 -0.6186 -1.0294
  359SOL    MW4 1210   3.007   2.452   1.860 -0.4130 -0.8211  0.2381
  360SOL     OW 1211   4.911   2.129   2.709  0.1055  0.3548  0.0581
  360SOL    HW2 1212   5.003   2.132   2.735  0.2463  1.4731 -0.5423
  360SOL    HW3 1213   4.913   2.127   2.613 -0.4829 -0.5428  0.0502
  360SOL    MW4 1214   4.923   2.129   2.700  0.0464  0.3839 -0.0222
  361SOL     OW 1215   1.556   6.209   1.259 -0.2802  0.2853  1.0793
  361SOL    HW2 1216   1.486   6.271   1.278 -0.4669 -0.2837  2.3245
  361SOL    HW3 1217   1.627   6.263   1.224 -0.8527  1.0368  1.0463
  361SOL    MW4 1218   1.556   6.224   1.257 -0.3803  0.3094  1.2392
  362SOL     OW 1219   4.750   5.649   3.838 -0.4185  0.1365 -0.6238
  362SOL    HW2 1220   4.751   5.745   3.838  0.2858  0.1425  0.0697
  362SOL    HW3 1221   4.665   5.626   3.873 -0.1030  0.5340  0.4406
  362SOL    MW4 1222   4.739   5.659   3.843 -0.2839  0.1897 -0.3919
  363SOL     OW 1223   1.208   3.524   3.909 -0.5637 -0.5967 -0.1857
  363SOL    HW2 1224   1.233   3.472   3.985  0.3461  2.9539  2.2057
  363SOL    HW3 1225   1.117   3.549   3.926 -0.5793 -0.3284 -0.6324
  363SOL    MW4 1226   1.199   3.520   3.921 -0.4457 -0.0928  0.0709
  364SOL     OW 1227   1.125   6.324   5.406  0.0652  0.7524 -0.2556
  364SOL    HW2 1228   1.085   6.248   5.363 -0.6126 -0.3616  2.1656
  364SOL    HW3 1229   1.206   6.289   5.445  0.1541  1.4661  0.2200
  364SOL    MW4 1230   1.131   6.309   5.406 -0.0125  0.6996  0.1266
  365SOL     OW 1231   0.323   3.534   5.893  0.1523  0.2300  0.0517
  365SOL    HW2 1232   0.388   3.521   5.963  0.5171  0.3547 -0.2635
  365SOL    HW3 1233   0.241   3.552   5.940  1.0619  3.9161  0.5183
  365SOL    MW4 1234   0.321   3.535   5.909  0.3204  0.7328  0.0717
  366SOL     OW 1235   6.192   0.954   0.412  0.1929 -0.4820  0.0437
  366SOL    HW2 1236   6.149   0.875   0.380 -1.1914  0.0683  0.4621
  366SOL    HW3 1237   6.272   0.961   0.360  1.1685 -2.9922  1.0607
  366SOL    MW4 1238   6.197   0.944   0.401  0.1390 -0.7406  0.2331
  367SOL     OW 1239   2.078   1.435   4.000  1.1884 -0.0706  0.3844
  367SOL    HW2 1240   2.132   1.367   3.960  0.1790 -1.1991  0.8827
  367SOL    HW3 1241   2.036   1.479   3.926  0.8267 -0.8727  0.0958
  367SOL    MW4 1242   2.080   1.432   3.985  1.0075 -0.3253  0.4120
  368SOL     OW 1243   3.787   5.903   0.208  0.1390 -0.4568 -0.3240
  368SOL    HW2 1244   3.761   5.969   0.144  0.2115 -0.5799 -0.4817
  368SOL    HW3 1245   3.816   5.829   0.155  1.1357 -0.1959 -0.1474
  368SOL    MW4 1246   3.787   5.902   0.193  0.2801 -0.4386 -0.3215
  369SOL     OW 1247   4.174   5.420   2.125 -0.1332 -0.3185  0.1052
  369SOL    HW2 1248   4.135   5.490   2.176 -0.4268 -0.1138 -0.3952
  369SOL    HW3 1249   4.181   5.456   2.036  0.5709 -0.5887  0.0425
  369SOL    MW4 1250   4.170   5.434   2.120 -0.0790 -0.3271  0.0309
  370SOL     OW 1251   2.072   0.976   5.447 -0.4265 -0.0003 -0.2859
  370SOL    HW2 1252   2.077   1.040   5.376  2.1373 -0.3737 -0.5327
  370SOL    HW3 1253   2.017   0.906   5.412  0.5929 -0.0644 -1.8407
  370SOL    MW4 1254   2.065   0.975   5.433  0.0462 -0.0580 -0.5236
  371SOL     OW 1255   5.514   5.019   5.944 -0.0900  0.5361  0.9218
  371SOL    HW2 1256   5.491   4.989   6.032  0.3173  1.2524  1.2841
  371SOL    HW3 1257   5.517   5.114   5.951  2.1986  0.5434  0.7309
  371SOL    MW4 1258   5.512   5.027   5.957  0.2657  0.6316  0.9444
  372SOL     OW 1259   0.787   4.751   0.536  0.4852  0.0681 -0.0718
  372SOL    HW2 1260   0.871   4.730   0.576  0.7930  0.1546 -0.6492
  372SOL    HW3 1261   0.792   4.845   0.519 -0.7615  0.6087  2.2330
  372SOL    MW4 1262   0.799   4.761   0.539  0.3613  0.1509  0.1561
  373SOL     OW 1263   0.153   4.380   0.653 -0.5493 -0.1092 -0.0243
  373SOL    HW2 1264   0.141   4.474   0.643 -0.7200 -0.2861 -1.9865
  373SOL    HW3 1265   0.240   4.371   0.691  0.3735  0.8337 -1.7893
  373SOL    MW4 1266   0.163   4.391   0.656 -0.4500 -0.0082 -0.5161
  374SOL     OW 1267   5.740   2.019   4.647  0.1076 -0.4775 -0.0686
  374SOL    HW2 1268   5.739   1.966   4.567 -0.8547 -2.6015  1.2556
  374SOL    HW3 1269   5.654   2.061   4.649  0.8783  1.2580 -1.1291
  374SOL    MW4 1270   5.728   2.018   4.636  0.0823 -0.5288 -0.0338
  375SOL     OW 1271   4.724   1.337   3.858 -0.2134  0.5451  0.5500
  375SOL    HW2 1272   4.786   1.410   3.867 -0.6549  1.0805 -0.6370
  375SOL    HW3 1273   4.670   1.360   3.783 -0.5697 -0.8668  0.3461
  375SOL    MW4 1274   4.725   1.350   3.850 -0.3186  0.4294  0.3665
  376SOL     OW 1275   0.880   5.194   3.689  0.4987 -0.4444 -0.5210
  376SOL    HW2 1276   0.932   5.275   3.691  0.1729 -0.2142  2.5641
  376SOL    HW3 1277   0.802   5.217   3.638  1.0812  0.7279 -0.9177
  376SOL    MW4 1278   0.877   5.208   3.682  0.5326 -0.2593 -0.1663
  377SOL     OW 1279   5.328   6.279   0.761  0.0233 -0.2398 -0.5927
  377SOL    HW2 1280   5.378   6.304   0.839 -1.9405  1.4424  0.2231
  377SOL    HW3 1281   5.288   6.195   0.785 -0.8965  0.4564  0.4403
  377SOL    MW4 1282   5.329   6.271   0.775 -0.3572  0.0740 -0.3488
  378SOL     OW 1283   0.368   0.096   1.556 -0.0643 -0.1516 -0.3866
  378SOL    HW2 1284   0.419   0.139   1.625 -3.4733  2.3753  0.8640
  378SOL    HW3 1285   0.415   0.014   1.539  2.7828  0.6531  2.5149
  378SOL    MW4 1286   0.381   0.091   1.563 -0.1384  0.2880  0.1612
  379SOL     OW 1287   5.724   1.560   0.720  0.1867 -0.7489 -0.4664
  379SOL    HW2 1288   5.672   1.487   0.686 -0.9517 -0.1543 -0.0472
  379SOL    HW3 1289   5.787   1.579   0.650 -0.1086 -1.5244 -0.9570
  379SOL    MW4 1290   5.725   1.553   0.706 -0.0025 -0.7728 -0.4758
  380SOL     OW 1291   0.599   0.736   4.313  0.3618 -0.1359 -0.0741
  380SOL    HW2 1292   0.579   0.805   4.249 -1.2730  0.7514  1.2889
  380SOL    HW3 1293   0.694   0.734   4.317  0.5208 -0.0808 -2.3311
  380SOL    MW4 1294   0.609   0.745   4.305  0.1671 -0.0116 -0.1921
  381SOL     OW 1295   1.687   1.913   0.502 -0.9089  0.1085  0.1122
  381SOL    HW2 1296   1.732   1.981   0.551  1.4286 -1.1272 -0.1665
  381SOL    HW3 1297   1.631   1.960   0.440  2.4536  1.9503 -1.8025
  381SOL    MW4 1298   1.686   1.928   0.500 -0.1568  0.1885 -0.1772
  382SOL     OW 1299   2.248   1.213   5.865 -0.1733 -0.1278 -0.2419
  382SOL    HW2 1300   2.324   1.217   5.922  0.3058 -0.4470 -0.8440
  382SOL    HW3 1301   2.271   1.148   5.798 -1.1124 -0.4865 -0.2315
  382SOL    MW4 1302   2.261   1.205   5.864 -0.2340 -0.2172 -0.3200
  383SOL     OW 1303   6.379   2.589   1.023  0.4936 -0.0662  0.0892
  383SOL    HW2 1304   6.411   2.507   0.983  0.6327 -0.1156  0.3039
  383SOL    HW3 1305   6.381   2.573   1.117  0.9103  0.3306  0.1490
  383SOL    MW4 1306   6.383   2.576   1.030  0.5669 -0.0204  0.1254
  384SOL     OW 1307   1.603   1.812   0.957  0.4009 -0.2750  0.8348
  384SOL    HW2 1308   1.676   1.769   1.001 -0.1433 -0.9590  1.0841
  384SOL    HW3 1309   1.612   1.904   0.982  0.7514 -0.4718  1.4705
  384SOL    MW4 1310   1.614   1.819   0.966  0.3753 -0.3912  0.9516
  385SOL     OW 1311   6.046   0.552   1.109  0.1089  0.0415 -0.0254
  385SOL    HW2 1312   6.049   0.629   1.165 -0.2580  0.9134 -1.1739
  385SOL    HW3 1313   6.138   0.531   1.093  0.4596 -2.6270  3.9871
  385SOL    MW4 1314   6.059   0.559   1.114  0.1067 -0.1956  0.3525
  386SOL     OW 1315   1.453   2.576   3.329 -0.8316 -0.0094  0.1760
  386SOL    HW2 1316   1.546   2.571   3.350 -0.5875 -0.4004 -0.9420
  386SOL    HW3 1317   1.433   2.670   3.327 -0.6314  0.0607  1.0892
  386SOL    MW4 1318   1.462   2.588   3.332 -0.7730 -0.0517  0.1490
  387SOL     OW 1319   6.023   5.819   1.568 -0.1067  0.0683  0.8073
  387SOL    HW2 1320   5.976   5.888   1.520  0.1633  0.7373  1.4814
  387SOL    HW3 1321   6.086   5.867   1.623 -0.7170 -0.6475  2.1664
  387SOL    MW4 1322   6.025   5.834   1.569 -0.1516  0.0621  1.0756
  388SOL     OW 1323   1.264   2.008   3.729  0.1432  0.0626  0.0691
  388SOL    HW2 1324   1.169   1.999   3.738 -0.1276  1.6090 -0.7204
  388SOL    HW3 1325   1.295   1.922   3.703 -1.4510  0.1306 -2.4209
  388SOL    MW4 1326   1.256   1.996   3.727 -0.1029  0.2756 -0.3636
  389SOL     OW 1327   3.816   0.710   5.636 -0.4760 -0.2229  0.5304
  389SOL    HW2 1328   3.776   0.752   5.712 -0.8896 -0.7292  0.5977
  389SOL    HW3 1329   3.909   0.701   5.659 -0.1288  1.6954  0.0447
  389SOL    MW4 1330   3.823   0.714   5.649 -0.4848 -0.0366  0.4752
  390SOL     OW 1331   3.689   3.971   0.832 -0.4832  0.3258 -0.6419
  390SOL    HW2 1332   3.601   4.007   0.840 -0.7114 -0.5800  1.7558
  390SOL    HW3 1333   3.680   3.900   0.768 -1.7786 -0.4513  0.3546
  390SOL    MW4 1334   3.677   3.966   0.824 -0.6842  0.1038 -0.1941
  391SOL     OW 1335   2.622   6.328   1.864  0.0418  0.4156  0.5783
  391SOL    HW2 1336   2.563   6.287   1.801 -0.7623  0.4178  1.3249
  391SOL    HW3 1337   2.571   6.398   1.904  1.0421  1.4499  0.1318
  391SOL    MW4 1338   2.608   6.332   1.861  0.0677  0.5523  0.6179
  392SOL     OW 1339   1.872   5.703   3.888  0.1344 -0.2102  0.2795
  392SOL    HW2 1340   1.923   5.622   3.887  0.7945  0.1252  2.2458
  392SOL    HW3 1341   1.781   5.674   3.889  0.2888 -0.8523 -1.4363
  392SOL    MW4 1342   1.867   5.688   3.888  0.2418 -0.2507  0.3126
  393SOL     OW 1343   4.041   0.640   2.292 -0.4501 -0.2118 -0.5669
  393SOL    HW2 1344   3.998   0.565   2.251 -1.8762 -1.3191  2.5584
  393SOL    HW3 1345   4.133   0.614   2.299 -0.9379 -1.8586  0.5888
  393SOL    MW4 1346   4.047   0.626   2.288 -0.7026 -0.5752 -0.0021
  394SOL     OW 1347   1.745   6.346   2.278  0.9732 -0.0548  0.3265
  394SOL    HW2 1348   1.769   6.429   2.237 -1.9019  1.1146  0.7657
  394SOL    HW3 1349   1.710   6.293   2.206 -0.2440  0.4178  0.5481
  394SOL    MW4 1350   1.743   6.350   2.263  0.4333  0.1619  0.4137
  395SOL     OW 1351   1.851   0.369   6.217  0.0146 -0.1026 -0.8380
  395SOL    HW2 1352   1.841   0.294   6.158  0.3789  0.7324 -2.0042
  395SOL    HW3 1353   1.765   0.381   6.256 -0.7608  0.4576 -2.6220
  395SOL    MW4 1354   1.839   0.360   6.214 -0.0396  0.0815 -1.2272
  396SOL     OW 1355   1.918   4.638   2.918 -0.2447 -0.6060  0.6403
  396SOL    HW2 1356   2.012   4.625   2.928 -0.0535  0.7123  0.8344
  396SOL    HW3 1357   1.906   4.655   2.825 -0.4257 -1.6881  0.4629
  396SOL    MW4 1358   1.929   4.639   2.907 -0.2434 -0.5749  0.6425
  397SOL     OW 1359   5.384   4.297   5.918  0.3666  0.3378 -0.6586
  397SOL    HW2 1360   5.469   4.257   5.900  0.1926 -0.8981  1.0011
  397SOL    HW3 1361   5.321   4.226   5.907  0.1903 -0.5013  3.8745
  397SOL    MW4 1362   5.387   4.282   5.914  0.3204  0.0640  0.1584
  398SOL     OW 1363   4.290   2.120   3.180 -0.4947  0.8765 -0.2141
  398SOL    HW2 1364   4.336   2.101   3.099 -1.0692 -3.3220  0.2453
  398SOL    HW3 1365   4.200   2.138   3.153 -0.3685  0.9482 -0.5910
  398SOL    MW4 1366   4.284   2.120   3.166 -0.5538  0.3321 -0.2032
  399SOL     OW 1367   6.415   4.169   5.464 -0.4937  0.3014  0.3402
  399SOL    HW2 1368   6.492   4.208   5.422 -0.3177 -0.7044 -0.3125
  399SOL    HW3 1369   6.427   4.074   5.451 -1.7792  0.1322  0.3399
  399SOL    MW4 1370   6.427   4.161   5.457 -0.6401  0.1464  0.2541
  400SOL     OW 1371   1.130   1.921   4.461 -0.1677 -0.3226 -0.7820
  400SOL    HW2 1372   1.129   2.017   4.465 -1.2604 -0.3318 -0.2959
  400SOL    HW3 1373   1.127   1.894   4.552 -0.8345 -0.8067 -0.9434
  400SOL    MW4 1374   1.129   1.930   4.473 -0.3999 -0.3877 -0.7391
  401SOL     OW 1375   5.013   3.702   5.694  0.0232  0.2521 -0.0675
  401SOL    HW2 1376   5.097   3.742   5.673 -0.1332  0.3310 -0.5549
  401SOL    HW3 1377   4.967   3.697   5.610 -0.0724 -0.6928  0.0379
  401SOL    MW4 1378   5.018   3.707   5.680 -0.0101  0.1378 -0.1179
  402SOL     OW 1379   3.047   3.721   5.158  0.0178 -0.0429  0.0834
  402SOL    HW2 1380   3.064   3.734   5.252  0.6656 -0.4881  0.0289
  402SOL    HW3 1381   3.104   3.784   5.115 -1.0393  0.8981  0.0088
  402SOL    MW4 1382   3.057   3.731   5.165 -0.0362  0.0225  0.0664
  403SOL     OW 1383   4.174   4.737   4.362  0.1556  0.3911 -0.7633
  403SOL    HW2 1384   4.100   4.706   4.414 -0.4803 -0.2986 -2.0315
  403SOL    HW3 1385   4.179   4.830   4.380 -0.2043  0.2112  0.3287
  403SOL    MW4 1386   4.165   4.745   4.371  0.0242  0.2764 -0.7865
  404SOL     OW 1387   6.179   2.176   4.925 -0.3327  0.6811  0.3393
  404SOL    HW2 1388   6.111   2.121   4.963 -0.5700 -0.2490 -1.3671
  404SOL    HW3 1389   6.142   2.264   4.925 -2.3643 -0.0633 -2.2081
  404SOL    MW4 1390   6.165   2.181   4.930 -0.6321  0.4602 -0.2219
  405SOL     OW 1391   0.603   1.301   6.399  0.2748  0.0477  0.0862
  405SOL    HW2 1392   0.531   1.298   6.336 -0.8331 -1.8872  1.3498
  405SOL    HW3 1393   0.596   1.388   6.439 -1.0085  0.0877 -0.1906
  405SOL    MW4 1394   0.593   1.312   6.396 -0.0407 -0.2023  0.2164
  406SOL     OW 1395   3.408   0.276   4.098  0.1034  0.0156 -0.5185
  406SOL    HW2 1396   3.371   0.350   4.145  1.2522  1.1640 -1.3469
  406SOL    HW3 1397   3.332   0.225   4.070 -0.7940  1.5075 -0.9293
  406SOL    MW4 1398   3.393   0.279   4.100  0.1365  0.3639 -0.6820
  407SOL     OW 1399   1.059   3.572   2.256 -0.3973 -0.3707  0.0706
  407SOL    HW2 1400   0.989   3.534   2.202  0.8127 -2.0019 -0.4227
  407SOL    HW3 1401   1.050   3.528   2.341  0.7478 -1.4867 -0.3688
  407SOL    MW4 1402   1.048   3.561   2.260 -0.0866 -0.7332 -0.0525
  408SOL     OW 1403   3.670   3.345   1.882  0.0477 -0.7919  0.2043
  408SOL    HW2 1404   3.630   3.286   1.819  0.0351  0.5213 -1.0808
  408SOL    HW3 1405   3.609   3.418   1.890  0.9256 -0.0344  0.2761
  408SOL    MW4 1406   3.657   3.347   1.875  0.1619 -0.5187  0.0442
  409SOL     OW 1407   4.822   1.588   1.650 -0.3575 -0.8392 -0.0485
  409SOL    HW2 1408   4.771   1.508   1.635 -0.5850 -0.4795 -1.3069
  409SOL    HW3 1409   4.833   1.626   1.563 -0.2960  0.5394  0.5355
  409SOL    MW4 1410   4.817   1.582   1.636 -0.3794 -0.6099 -0.1375
  410SOL     OW 1411   2.978   3.849   0.256  0.8373  0.1542 -0.5821
  410SOL    HW2 1412   3.046   3.783   0.263 -1.0354 -1.6477  3.0967
  410SOL    HW3 1413   2.901   3.802   0.223 -0.0425  0.8248  0.4176
  410SOL    MW4 1414   2.976   3.834   0.253  0.4741  0.0050  0.0352
  411SOL     OW 1415   3.553   2.812   3.672 -0.2010  0.3338 -0.4702
  411SOL    HW2 1416   3.599   2.786   3.752 -1.3708  2.7811  1.0971
  411SOL    HW3 1417   3.465   2.776   3.683 -0.6114  1.3904 -0.2243
  411SOL    MW4 1418   3.547   2.804   3.684 -0.4095  0.7961 -0.2310
  412SOL     OW 1419   2.422   3.528   2.601  0.2488 -0.0359  0.1294
  412SOL    HW2 1420   2.513   3.509   2.626 -0.4274 -1.0150  2.0251
  412SOL    HW3 1421   2.424   3.618   2.570  1.8241  0.0426  0.3601
  412SOL    MW4 1422   2.434   3.537   2.600  0.3674 -0.1547  0.4099
  413SOL     OW 1423   5.297   4.804   0.344 -0.0522 -0.7286 -0.3081
  413SOL    HW2 1424   5.327   4.719   0.311 -0.5909 -0.0689 -2.6085
  413SOL    HW3 1425   5.323   4.867   0.278  0.6827  1.0303  1.5356
  413SOL    MW4 1426   5.304   4.801   0.331 -0.0263 -0.4095 -0.3683
  414SOL     OW 1427   3.947   4.564   6.386  0.1195  0.0789 -0.3039
  414SOL    HW2 1428   3.895   4.550   6.307 -0.8633  0.1298  0.3130
  414SOL    HW3 1429   3.951   4.478   6.428  2.4442 -0.4544 -1.4301
  414SOL    MW4 1430   3.941   4.551   6.381  0.2965  0.0152 -0.3711
  415SOL     OW 1431   1.732   2.451   2.722  0.3293 -0.5597  0.2570
  415SOL    HW2 1432   1.698   2.466   2.634  1.1463 -1.5012 -0.2441
  415SOL    HW3 1433   1.688   2.371   2.752  0.2746 -0.4080  0.5858
  415SOL    MW4 1434   1.722   2.442   2.714  0.4299 -0.6639  0.2343
  416SOL     OW 1435   2.201   3.508   5.881 -0.5691 -0.3218 -0.3238
  416SOL    HW2 1436   2.171   3.559   5.956 -1.4169 -1.2514  0.0056
  416SOL    HW3 1437   2.276   3.459   5.914  0.5462  1.0190 -0.7736
  416SOL    MW4 1438   2.207   3.508   5.895 -0.5338 -0.2676 -0.3397
  417SOL     OW 1439   0.317   1.281   6.252 -0.1499  0.1284  0.3772
  417SOL    HW2 1440   0.347   1.253   6.166 -0.3381  0.4712  0.1943
  417SOL    HW3 1441   0.272   1.364   6.235  0.9737  0.8790  0.9944
  417SOL    MW4 1442   0.315   1.288   6.239 -0.0265  0.2727  0.4345
  418SOL     OW 1443   2.077   3.768   0.731  0.1099  0.2260 -0.3851
  418SOL    HW2 1444   2.057   3.842   0.788  3.0265  1.0673 -0.2773
  418SOL    HW3 1445   2.077   3.805   0.642  1.0035  0.2719 -0.3813
  418SOL    MW4 1446   2.075   3.783   0.727  0.6126  0.3430 -0.3704
  419SOL     OW 1447   5.859   1.887   0.080  0.3349  0.5694 -0.7002
  419SOL    HW2 1448   5.841   1.793   0.071  1.5642  0.2575 -0.0925
  419SOL    HW3 1449   5.953   1.892   0.098  0.1953  1.8921 -0.2354
  419SOL    MW4 1450   5.869   1.875   0.081  0.4786  0.7027 -0.5587
  420SOL     OW 1451   2.391   1.551   0.463 -0.2051  0.1941 -0.1683
  420SOL    HW2 1452   2.429   1.638   0.453 -0.4990  0.4905  1.0891
  420SOL    HW3 1453   2.327   1.561   0.534 -0.0836 -1.0909  0.1512
  420SOL    MW4 1454   2.388   1.564   0.471 -0.2279  0.0637  0.0398
  421SOL     OW 1455   1.482   4.758   5.755  0.2784 -0.4166 -0.0759
  421SOL    HW2 1456   1.501   4.752   5.661  1.7665 -0.3566  0.2020
  421SOL    HW3 1457   1.516   4.676   5.792 -0.1683 -0.3785  0.4380
  421SOL    MW4 1458   1.489   4.746   5.748  0.4158 -0.4036  0.0285
  422SOL     OW 1459   2.778   6.061   4.701 -0.5367 -0.1629  0.1442
  422SOL    HW2 1460   2.775   6.033   4.609 -0.2815 -0.1648  0.1370
  422SOL    HW3 1461   2.715   6.003   4.745 -0.9076  0.0587 -0.0864
  422SOL    MW4 1462   2.769   6.049   4.694 -0.5520 -0.1339  0.1128
  423SOL     OW 1463   3.122   3.493   0.091  0.2514 -0.5394  0.2940
  423SOL    HW2 1464   3.047   3.523   0.039  0.5901 -1.2000 -0.6120
  423SOL    HW3 1465   3.195   3.496   0.030  0.9565  0.0028  1.1477
  423SOL    MW4 1466   3.121   3.497   0.076  0.3891 -0.5550  0.2871
  424SOL     OW 1467   0.401   2.195   5.158  0.3784 -0.2631 -0.0387
  424SOL    HW2 1468   0.382   2.110   5.198  2.1729 -1.6469 -1.9018
  424SOL    HW3 1469   0.457   2.239   5.221 -0.0474 -0.7344  0.6821
  424SOL    MW4 1470   0.405   2.189   5.171  0.5590 -0.5079 -0.1894
  425SOL     OW 1471   4.495   1.123   6.081 -0.4531 -0.2906  0.5938
  425SOL    HW2 1472   4.444   1.203   6.087 -3.4418 -1.7309 -2.3200
  425SOL    HW3 1473   4.441   1.056   6.123  0.5191 -1.3481  0.2163
  425SOL    MW4 1474   4.481   1.125   6.087 -0.7191 -0.6202  0.1596
  426SOL     OW 1475   1.859   2.954   6.264 -0.1665 -0.2053  0.1612
  426SOL    HW2 1476   1.939   3.005   6.277 -0.5299  0.3349  0.3059
  426SOL    HW3 1477   1.818   2.992   6.186 -0.9289  0.3797  0.8254
  426SOL    MW4 1478   1.864   2.966   6.255 -0.3151 -0.0569  0.2679
  427SOL     OW 1479   3.702   5.714   0.535 -0.3539 -0.1364 -0.2218
  427SOL    HW2 1480   3.774   5.707   0.597 -0.7294 -1.5441  0.0811
  427SOL    HW3 1481   3.736   5.675   0.454 -0.7690 -0.8636 -0.0599
  427SOL    MW4 1482   3.716   5.708   0.532 -0.4582 -0.4181 -0.1605
  428SOL     OW 1483   1.888   0.411   5.156  0.1516 -0.3140 -0.0025
  428SOL    HW2 1484   1.839   0.464   5.093  0.9677  1.7710  1.0239
  428SOL    HW3 1485   1.926   0.340   5.104  0.0753  0.8261 -1.6951
  428SOL    MW4 1486   1.886   0.409   5.141  0.2492  0.1115 -0.0904
  429SOL     OW 1487   2.499   0.068   1.594  0.1565 -0.2733  0.0937
  429SOL    HW2 1488   2.594   0.057   1.597  0.6889  3.1503 -0.2235
  429SOL    HW3 1489   2.476   0.105   1.679 -0.3167  1.9836 -0.9419
  429SOL    MW4 1490   2.508   0.072   1.605  0.1643  0.4761 -0.0848
  430SOL     OW 1491   4.764   4.639   2.555 -0.4366  0.2765 -0.3899
  430SOL    HW2 1492   4.721   4.556   2.535 -1.6655  0.4200  1.4324
  430SOL    HW3 1493   4.785   4.633   2.648  0.7910  1.4386 -0.5629
  430SOL    MW4 1494   4.761   4.627   2.564 -0.4367  0.4488 -0.1723
  431SOL     OW 1495   0.487   1.210   2.510  0.0894 -0.1457 -0.0134
  431SOL    HW2 1496   0.541   1.222   2.432 -1.6510  0.4698 -1.1755
  431SOL    HW3 1497   0.450   1.296   2.527 -1.4569 -0.7821  0.0243
  431SOL    MW4 1498   0.490   1.223   2.502 -0.3442 -0.1484 -0.1617
  432SOL     OW 1499   3.854   3.586   2.587 -0.2152 -0.4280 -0.1329
  432SOL    HW2 1500   3.779   3.586   2.528 -0.1344  1.0809 -0.2763
  432SOL    HW3 1501   3.930   3.594   2.530  0.0705 -1.7303  0.0267
  432SOL    MW4 1502   3.855   3.587   2.572 -0.1669 -0.4007 -0.1308
  433SOL     OW 1503   0.383   1.505   4.448 -0.0808  0.0160 -0.4377
  433SOL    HW2 1504   0.288   1.507   4.455 -0.1190 -0.9402 -0.4608
  433SOL    HW3 1505   0.413   1.585   4.490 -0.9167  0.5496 -0.8352
  433SOL    MW4 1506   0.375   1.515   4.454 -0.1961 -0.0397 -0.4932
  434SOL     OW 1507   1.241   3.913   3.672 -0.0247 -0.2637 -0.4347
  434SOL    HW2 1508   1.237   3.917   3.576 -2.2950 -0.6791 -0.4107
  434SOL    HW3 1509   1.257   3.821   3.691  2.2498  0.0857 -0.3814
  434SOL    MW4 1510   1.243   3.901   3.662 -0.0241 -0.2724 -0.4245
  435SOL     OW 1511   3.284   0.953   0.801 -0.3286  0.4228 -0.1041
  435SOL    HW2 1512   3.204   0.912   0.834  1.2384 -2.0863  0.8709
  435SOL    HW3 1513   3.296   0.916   0.713  0.8671 -1.0129  0.6139
  435SOL    MW4 1514   3.275   0.943   0.794  0.0359 -0.0977  0.1193
  436SOL     OW 1515   2.087   0.390   0.891 -0.2048  0.1125  0.4402
  436SOL    HW2 1516   2.073   0.484   0.890 -1.1929 -0.0071  1.3328
  436SOL    HW3 1517   2.152   0.377   0.960  1.6979  0.3214 -1.2240
  436SOL    MW4 1518   2.094   0.400   0.900 -0.0841  0.1243  0.3384
  437SOL     OW 1519   4.137   3.029   2.184 -0.4351 -0.5694 -0.3320
  437SOL    HW2 1520   4.056   3.077   2.202  0.0822  0.8824 -1.6007
  437SOL    HW3 1521   4.120   2.940   2.215 -2.2092 -0.0973  0.1767
  437SOL    MW4 1522   4.124   3.024   2.191 -0.6009 -0.3156 -0.4322
  438SOL     OW 1523   4.124   3.135   6.103  0.2364 -0.4359  0.4898
  438SOL    HW2 1524   4.191   3.130   6.035  1.4571  1.9676  1.3814
  438SOL    HW3 1525   4.169   3.111   6.184 -0.1143  0.6317  1.0209
  438SOL    MW4 1526   4.139   3.131   6.105  0.3512  0.0221  0.6775
  439SOL     OW 1527   1.619   1.707   1.414 -0.4554 -0.2946  0.3044
  439SOL    HW2 1528   1.696   1.713   1.358 -2.0933 -1.5012 -2.2585
  439SOL    HW3 1529   1.633   1.773   1.482  2.0757  0.6209 -1.0038
  439SOL    MW4 1530   1.631   1.716   1.416 -0.3375 -0.3330 -0.2063
  440SOL     OW 1531   0.947   3.613   0.574  0.4709  0.1973 -0.1926
  440SOL    HW2 1532   1.000   3.595   0.496 -0.8098  1.0058 -1.3042
  440SOL    HW3 1533   0.983   3.556   0.641  1.8216 -0.3039 -1.2930
  440SOL    MW4 1534   0.959   3.603   0.572  0.4801  0.2379 -0.4844
  441SOL     OW 1535   0.796   5.207   4.176  0.1929  0.2909 -0.3694
  441SOL    HW2 1536   0.708   5.219   4.212  0.8728  1.2032  1.0881
  441SOL    HW3 1537   0.783   5.152   4.099 -1.5847 -0.0649  0.1364
  441SOL    MW4 1538   0.783   5.201   4.171  0.0481  0.3643 -0.1104
  442SOL     OW 1539   3.345   1.833   2.167  0.0325  0.2097  0.0935
  442SOL    HW2 1540   3.398   1.835   2.247 -0.4460 -0.2602  0.4313
  442SOL    HW3 1541   3.380   1.759   2.117 -0.1312  0.0594  0.1990
  442SOL    MW4 1542   3.356   1.824   2.171 -0.0523  0.1279  0.1520
  443SOL     OW 1543   0.271   2.594   6.054  0.4608  0.2101 -0.0001
  443SOL    HW2 1544   0.337   2.542   6.009 -0.8547 -1.2279 -0.3643
  443SOL    HW3 1545   0.214   2.530   6.096 -1.6524  1.2528 -1.0605
  443SOL    MW4 1546   0.272   2.579   6.053  0.0084  0.1579 -0.1881
  444SOL     OW 1547   3.493   5.666   2.471  0.2830 -0.2843 -0.1446
  444SOL    HW2 1548   3.519   5.753   2.503  0.4448 -0.4882  0.2859
  444SOL    HW3 1549   3.507   5.670   2.376  1.7253 -0.3199  0.0368
  444SOL    MW4 1550   3.499   5.678   2.462  0.4947 -0.3159 -0.0639
  445SOL     OW 1551   5.453   0.123   5.933 -0.0229  0.6119 -0.1067
  445SOL    HW2 1552   5.535   0.114   5.884 -0.8539  0.6695 -1.5612
  445SOL    HW3 1553   5.428   0.033   5.954 -0.1298  0.5245 -0.5974
  445SOL    MW4 1554   5.461   0.110   5.930 -0.1467  0.6080 -0.3634
  446SOL     OW 1555   1.776   3.185   1.414  0.0856 -0.1216  0.7576
  446SOL    HW2 1556   1.742   3.109   1.462 -0.8330  0.3791  0.9258
  446SOL    HW3 1557   1.714   3.256   1.435 -0.2056  0.1752 -0.9704
  446SOL    MW4 1558   1.763   3.184   1.423 -0.0741 -0.0164  0.5518
  447SOL     OW 1559   0.737   1.282   2.674  0.1830 -0.0106  0.1710
  447SOL    HW2 1560   0.644   1.267   2.658  0.5229 -2.3418  0.0831
  447SOL    HW3 1561   0.752   1.251   2.763  0.8568  0.4850  0.2379
  447SOL    MW4 1562   0.726   1.276   2.683  0.3168 -0.2528  0.1683
  448SOL     OW 1563   2.061   4.317   6.356  0.1725  0.1705  0.2161
  448SOL    HW2 1564   2.067   4.400   6.404  2.7420 -0.2774  0.8000
  448SOL    HW3 1565   2.110   4.254   6.410 -1.4301 -1.6749 -0.3852
  448SOL    MW4 1566   2.068   4.320   6.370  0.3001 -0.1321  0.2138
  449SOL     OW 1567   5.675   4.533   6.411 -0.0859 -0.4084  0.8317
  449SOL    HW2 1568   5.662   4.442   6.382  0.9260 -0.4053  0.3265
  449SOL    HW3 1569   5.640   4.586   6.339 -2.6895 -0.3390  2.0348
  449SOL    MW4 1570   5.669   4.528   6.397 -0.2959 -0.3988  0.9238
  450SOL     OW 1571   3.902   5.854   3.770  0.3424  0.1831 -0.3654
  450SOL    HW2 1572   3.970   5.905   3.814  2.9808 -2.5646 -0.8903
  450SOL    HW3 1573   3.940   5.831   3.685 -1.8482 -0.3126 -1.2903
  450SOL    MW4 1574   3.916   5.857   3.764  0.4015 -0.2448 -0.5567
  451SOL     OW 1575   1.055   2.888   3.525 -0.0315 -0.1522 -0.2599
  451SOL    HW2 1576   0.983   2.948   3.504  1.4457  1.5495 -0.7834
  451SOL    HW3 1577   1.131   2.946   3.536  1.3907 -1.9219 -0.3744
  451SOL    MW4 1578   1.056   2.904   3.523  0.3510 -0.1612 -0.3440
  452SOL     OW 1579   3.964   4.179   0.329  0.2936 -0.3223  0.0732
  452SOL    HW2 1580   3.894   4.238   0.356 -0.0298  0.3845 -2.1864
  452SOL    HW3 1581   4.033   4.191   0.395 -0.0960  1.9700  0.1140
  452SOL    MW4 1582   3.964   4.188   0.341  0.1995  0.0734 -0.2196
  453SOL     OW 1583   0.316   6.339   2.629  0.2784 -0.0799  0.0197
  453SOL    HW2 1584   0.345   6.249   2.647  1.0330 -0.3437 -2.2675
  453SOL    HW3 1585   0.226   6.330   2.600  0.9642 -0.3778 -2.1518
  453SOL    MW4 1586   0.308   6.326   2.628  0.4685 -0.1540 -0.5686
  454SOL     OW 1587   3.379   1.298   0.173  0.4509 -0.2723  0.5521
  454SOL    HW2 1588   3.418   1.319   0.258  0.9268  1.6613 -0.1116
  454SOL    HW3 1589   3.326   1.374   0.151  1.0296 -0.3432 -1.2665
  454SOL    MW4 1590   3.377   1.310   0.181  0.5900 -0.0266  0.2246
  455SOL     OW 1591   3.488   1.543   4.182  0.1537  0.2334 -0.3099
  455SOL    HW2 1592   3.548   1.617   4.170  0.1283  0.1746 -0.8101
  455SOL    HW3 1593   3.538   1.482   4.237  0.4984  0.2549 -0.5908
  455SOL    MW4 1594   3.503   1.545   4.188  0.1958  0.2285 -0.4130
  456SOL     OW 1595   6.058   3.854   5.029 -0.3423  0.7022  0.3031
  456SOL    HW2 1596   6.106   3.848   4.946 -1.1147  1.0895 -0.1803
  456SOL    HW3 1597   6.026   3.944   5.032 -1.2246  0.3928  0.5040
  456SOL    MW4 1598   6.060   3.865   5.018 -0.5606  0.7125  0.2659
  457SOL     OW 1599   3.014   3.553   4.841 -0.3572 -0.1223 -0.2358
  457SOL    HW2 1600   3.006   3.636   4.794  2.2849 -0.8159 -2.1614
  457SOL    HW3 1601   3.086   3.567   4.903 -0.6447 -0.6417  0.2255
  457SOL    MW4 1602   3.022   3.566   4.843 -0.0466 -0.2823 -0.4290
  458SOL     OW 1603   3.293   0.728   2.999 -0.1453 -0.2174 -0.5021
  458SOL    HW2 1604   3.255   0.807   2.962  1.5877  0.1248 -1.6404
  458SOL    HW3 1605   3.366   0.759   3.053  1.3522 -1.0582 -1.9611
  458SOL    MW4 1606   3.297   0.743   3.001  0.2809 -0.2832 -0.8448
  459SOL     OW 1607   2.910   3.231   5.427 -0.1388 -0.6258 -0.2558
  459SOL    HW2 1608   2.975   3.300   5.438 -0.5993 -0.1749 -0.3043
  459SOL    HW3 1609   2.897   3.196   5.515  0.6252 -1.1496 -0.3401
  459SOL    MW4 1610   2.917   3.236   5.440 -0.0988 -0.6354 -0.2733
  460SOL     OW 1611   4.337   1.188   1.057  0.3937  0.4283 -0.6389
  460SOL    HW2 1612   4.282   1.124   1.013  1.2259 -1.1320  0.4629
  460SOL    HW3 1613   4.427   1.160   1.038  0.8086  1.7951 -0.8341
  460SOL    MW4 1614   4.342   1.176   1.049  0.5582  0.4027 -0.5193
  461SOL     OW 1615   0.655   0.323   0.861 -0.0648  0.4254  0.0196
  461SOL    HW2 1616   0.697   0.245   0.826  0.2737  0.0736  1.1581
  461SOL    HW3 1617   0.570   0.292   0.892  0.0434  0.5189  0.4114
  461SOL    MW4 1618   0.650   0.309   0.860 -0.0059  0.3913  0.2215
  462SOL     OW 1619   0.033   5.035   2.780  0.1456  0.3597  0.3838
  462SOL    HW2 1620   0.006   5.111   2.832 -2.5084  0.3994 -0.8945
  462SOL    HW3 1621   0.055   5.072   2.694  0.4627 -0.1481  0.2461
  462SOL    MW4 1622   0.032   5.050   2.776 -0.1627  0.2979  0.1969
  463SOL     OW 1623   0.653   6.431   3.356  0.5964  0.6660  0.5200
  463SOL    HW2 1624   0.578   6.423   3.298  2.3928  2.1487 -2.2511
  463SOL    HW3 1625   0.664   6.344   3.394 -1.7507  0.1155  0.1051
  463SOL    MW4 1626   0.645   6.418   3.353  0.5238  0.7890  0.0997
  464SOL     OW 1627   2.376   1.767   1.425  0.0232 -0.7867 -0.1464
  464SOL    HW2 1628   2.374   1.755   1.520  0.9283 -0.4830 -0.0788
  464SOL    HW3 1629   2.343   1.684   1.389 -1.3076 -0.5368  0.4332
  464SOL    MW4 1630   2.371   1.754   1.433 -0.0330 -0.7137 -0.0610
  465SOL     OW 1631   0.345   5.730   5.289  0.4308  0.3443 -0.2372
  465SOL    HW2 1632   0.286   5.658   5.313 -0.4374  0.4641 -1.8738
  465SOL    HW3 1633   0.422   5.717   5.344 -0.6527 -0.4844  1.1536
  465SOL    MW4 1634   0.347   5.719   5.299  0.1733  0.2508 -0.2696
  466SOL     OW 1635   3.916   1.461   5.248  0.6352 -0.5496  0.0288
  466SOL    HW2 1636   3.972   1.384   5.238 -0.2136 -1.2451  0.4450
  466SOL    HW3 1637   3.920   1.482   5.342  1.6638  0.5604 -0.2351
  466SOL    MW4 1638   3.924   1.454   5.259  0.6589 -0.4949  0.0489
  467SOL     OW 1639   4.833   2.549   4.835 -0.2475  0.3022 -0.3647
  467SOL    HW2 1640   4.906   2.601   4.802  0.7981 -0.5133  0.5936
  467SOL    HW3 1641   4.848   2.461   4.801 -0.9006  0.1633 -0.3171
  467SOL    MW4 1642   4.845   2.544   4.826 -0.1957  0.1763 -0.2320
  468SOL     OW 1643   2.608   5.918   2.483  0.0561  0.3109 -0.1574
  468SOL    HW2 1644   2.551   5.876   2.418 -0.1507  1.7294 -0.9394
  468SOL    HW3 1645   2.694   5.881   2.467 -0.1776 -0.0589 -0.5927
  468SOL    MW4 1646   2.612   5.907   2.472 -0.0020  0.4493 -0.3180
  469SOL     OW 1647   5.623   5.650   4.513 -0.1132 -0.2323  0.3512
  469SOL    HW2 1648   5.669   5.649   4.597  0.8286  1.0321 -0.1132
  469SOL    HW3 1649   5.642   5.737   4.477  0.7931 -1.2690 -1.8633
  469SOL    MW4 1650   5.632   5.662   4.519  0.1307 -0.2023 -0.0023
  470SOL     OW 1651   4.686   5.565   1.880  0.0410 -0.0150 -0.5264
  470SOL    HW2 1652   4.709   5.521   1.961  0.4613  0.1855 -0.5340
  470SOL    HW3 1653   4.598   5.599   1.894  0.4657  0.8362  0.1936
  470SOL    MW4 1654   4.678   5.564   1.892  0.1525  0.1237 -0.4324
  471SOL     OW 1655   3.600   6.054   3.104  0.2181  0.1887  0.6765
  471SOL    HW2 1656   3.596   6.059   3.008 -0.4079 -1.0927  0.6209
  471SOL    HW3 1657   3.548   6.129   3.134 -1.0221 -0.3675 -0.0047
  471SOL    MW4 1658   3.593   6.065   3.095 -0.0281 -0.0538  0.5793
  472SOL     OW 1659   0.092   1.877   5.213 -0.6164  0.4094  0.6687
  472SOL    HW2 1660   0.069   1.969   5.226 -0.0460  0.7524 -0.5953
  472SOL    HW3 1661   0.180   1.879   5.177  0.1538 -0.7352  2.3238
  472SOL    MW4 1662   0.100   1.889   5.210 -0.4395  0.3037  0.7203
  473SOL     OW 1663   5.313   0.269   4.733 -0.5334 -0.0599  0.8093
  473SOL    HW2 1664   5.355   0.263   4.648 -1.1583  1.1116  0.3979
  473SOL    HW3 1665   5.371   0.221   4.792  1.2113  1.2184  0.1972
  473SOL    MW4 1666   5.326   0.262   4.730 -0.3857  0.2633  0.6742
  474SOL     OW 1667   3.650   0.847   5.830  0.2745 -0.0571 -0.3382
  474SOL    HW2 1668   3.581   0.874   5.769 -0.4612  1.0386  0.9153
  474SOL    HW3 1669   3.700   0.927   5.845  0.4633 -0.3175  0.4578
  474SOL    MW4 1670   3.648   0.861   5.824  0.2024  0.0531 -0.0678
  475SOL     OW 1671   0.220   3.773   5.540 -0.0974  0.5568 -0.1223
  475SOL    HW2 1672   0.294   3.784   5.480  0.6980  1.1526  0.9125
  475SOL    HW3 1673   0.209   3.860   5.580 -0.7246  0.2275  0.4442
  475SOL    MW4 1674   0.228   3.786   5.537 -0.0752  0.5920  0.0889
  476SOL     OW 1675   2.027   5.313   6.279  0.5398 -0.6373  0.5362
  476SOL    HW2 1676   1.961   5.327   6.211  1.7634 -0.6095 -0.6961
  476SOL    HW3 1677   2.031   5.396   6.325  1.6255  0.3095 -1.1576
  476SOL    MW4 1678   2.019   5.326   6.276  0.8445 -0.5087  0.1502
  477SOL     OW 1679   0.848   3.007   1.051  0.1825 -0.1888  0.6334
  477SOL    HW2 1680   0.938   3.013   1.019 -0.7296 -0.5705 -2.3137
  477SOL    HW3 1681   0.852   2.941   1.120  2.0326 -0.8882 -0.0690
  477SOL    MW4 1682   0.860   2.999   1.056  0.3062 -0.3314  0.1519
  478SOL     OW 1683   1.643   4.045   2.026  0.1043 -0.5118  0.1852
  478SOL    HW2 1684   1.624   4.036   1.933 -0.2575  0.2744  0.1777
  478SOL    HW3 1685   1.572   4.099   2.061  0.2958 -0.7018  0.8950
  478SOL    MW4 1686   1.631   4.051   2.018  0.0818 -0.4331  0.2778
  479SOL     OW 1687   6.169   5.383   5.023 -0.5124 -0.1734 -0.3658
  479SOL    HW2 1688   6.096   5.327   5.046  0.2973 -0.5719  1.3806
  479SOL    HW3 1689   6.166   5.454   5.087 -1.4886  1.8327 -2.4924
  479SOL    MW4 1690   6.159   5.385   5.034 -0.5343  0.0387 -0.4159
  480SOL     OW 1691   1.428   3.928   0.372 -0.0391 -0.6114  0.1990
  480SOL    HW2 1692   1.438   3.875   0.292  1.2397 -0.3717  0.1703
  480SOL    HW3 1693   1.423   4.018   0.340  3.8527 -0.1342  0.4120
  480SOL    MW4 1694   1.429   3.933   0.357  0.6431 -0.5168  0.2233
  481SOL     OW 1695   1.108   6.237   0.636  0.8505  0.2195 -0.1092
  481SOL    HW2 1696   1.127   6.322   0.677  1.5692  0.4061 -0.7959
  481SOL    HW3 1697   1.100   6.257   0.543 -0.1001 -0.3028 -0.1452
  481SOL    MW4 1698   1.110   6.251   0.629  0.8199  0.1752 -0.2046
  482SOL     OW 1699   6.056   3.706   3.809 -0.2075  0.1246  0.2268
  482SOL    HW2 1700   5.971   3.726   3.850  0.4607  0.1596  1.6725
  482SOL    HW3 1701   6.074   3.616   3.837  0.1751  0.0790 -0.1713
  482SOL    MW4 1702   6.047   3.697   3.818 -0.0688  0.1232  0.3650
  483SOL     OW 1703   5.911   1.547   5.398  0.2904 -0.2821 -0.4842
  483SOL    HW2 1704   5.864   1.510   5.473  1.8029 -1.6245 -0.1385
  483SOL    HW3 1705   5.903   1.641   5.410 -2.4154 -0.4117 -0.5528
  483SOL    MW4 1706   5.904   1.554   5.410  0.1329 -0.4763 -0.4477
  484SOL     OW 1707   5.618   2.952   5.509 -0.0635  0.0219  0.0807
  484SOL    HW2 1708   5.694   3.005   5.531  0.0683 -0.6236  1.2368
  484SOL    HW3 1709   5.598   2.976   5.418  0.3517  1.5821  0.3715
  484SOL    MW4 1710   5.625   2.962   5.500  0.0087  0.1426  0.2716
  485SOL     OW 1711   6.074   6.332   3.708  0.2252  0.2350 -0.5735
  485SOL    HW2 1712   6.007   6.268   3.686 -0.0985  0.1718  0.5375
  485SOL    HW3 1713   6.157   6.284   3.701  0.0316 -0.1287 -0.3691
  485SOL    MW4 1714   6.076   6.317   3.704  0.1569  0.1787 -0.4000
  486SOL     OW 1715   5.266   3.930   0.882 -0.4259  0.6565  0.0592
  486SOL    HW2 1716   5.332   3.958   0.946 -1.0322  0.4498  0.7859
  486SOL    HW3 1717   5.308   3.859   0.833  0.6613  1.9160 -0.9379
  486SOL    MW4 1718   5.280   3.924   0.884 -0.3624  0.7954  0.0235
  487SOL     OW 1719   1.668   1.507   5.023  0.4270 -0.0384 -0.3560
  487SOL    HW2 1720   1.760   1.507   5.048  0.3239 -1.2982  0.0772
  487SOL    HW3 1721   1.661   1.576   4.958  1.0248  2.3391  1.9234
  487SOL    MW4 1722   1.679   1.516   5.018  0.4923  0.1091  0.0019
  488SOL     OW 1723   3.610   3.692   1.134  0.0941 -0.0589 -0.1455
  488SOL    HW2 1724   3.547   3.752   1.096 -0.1921  0.4320  1.0668
  488SOL    HW3 1725   3.614   3.619   1.072 -2.0079 -0.3223 -0.0584
  488SOL    MW4 1726   3.602   3.690   1.121 -0.2210 -0.0289  0.0259
  489SOL     OW 1727   2.763   5.195   6.334  0.6254 -0.1830 -0.6418
  489SOL    HW2 1728   2.751   5.119   6.392  2.5797  0.2610  0.4645
  489SOL    HW3 1729   2.811   5.258   6.388  0.4515  1.1956 -2.0466
  489SOL    MW4 1730   2.768   5.193   6.349  0.8603  0.0575 -0.6812
  490SOL     OW 1731   6.344   0.750   2.208  0.4025  0.3202 -0.2601
  490SOL    HW2 1732   6.335   0.655   2.220  0.2503  0.3030 -0.4914
  490SOL    HW3 1733   6.256   0.779   2.185  0.1173  0.7523  1.3095
  490SOL    MW4 1734   6.332   0.741   2.206  0.3448  0.3749 -0.0835
  491SOL     OW 1735   2.726   2.159   1.751  0.2226 -0.0601 -0.2553
  491SOL    HW2 1736   2.716   2.112   1.668 -2.5854  1.6072 -0.9942
  491SOL    HW3 1737   2.820   2.175   1.758  0.8435 -2.4408 -1.8088
  491SOL    MW4 1738   2.737   2.155   1.741 -0.0659 -0.1543 -0.5578
  492SOL     OW 1739   5.663   3.441   2.997 -0.1479  0.2704 -0.4156
  492SOL    HW2 1740   5.652   3.346   2.999  0.8951  0.1278 -0.6182
  492SOL    HW3 1741   5.600   3.471   2.932 -1.1024 -0.1731  0.2733
  492SOL    MW4 1742   5.654   3.432   2.989 -0.1362  0.1931 -0.3514
  493SOL     OW 1743   6.104   0.077   2.735 -0.0372 -0.3575 -0.2161
  493SOL    HW2 1744   6.118   0.146   2.800 -0.5078  0.9181 -1.4198
  493SOL    HW3 1745   6.156   0.003   2.766  1.7189  1.0418  0.3129
  493SOL    MW4 1746   6.112   0.076   2.748  0.1324 -0.0046 -0.3051
  494SOL     OW 1747   2.014   4.947   2.652 -0.4754 -0.2912 -0.2082
  494SOL    HW2 1748   1.988   4.855   2.647  1.7052 -0.9166 -0.9867
  494SOL    HW3 1749   2.039   4.960   2.743  0.2569 -0.7972 -0.3287
  494SOL    MW4 1750   2.014   4.937   2.663 -0.0911 -0.4405 -0.3268
  495SOL     OW 1751   0.068   3.926   1.078  0.7945  0.6278  0.3525
  495SOL    HW2 1752   0.109   3.959   1.158  0.6322 -0.7340  1.0439
  495SOL    HW3 1753  -0.005   3.873   1.110  0.9889 -0.2882 -0.6700
  495SOL    MW4 1754   0.064   3.923   1.093  0.7987  0.3273  0.3088
  496SOL     OW 1755   5.803   0.247   5.036 -0.7707 -0.5545 -0.5669
  496SOL    HW2 1756   5.866   0.317   5.028 -0.8697 -0.5823 -1.7224
  496SOL    HW3 1757   5.841   0.173   4.988 -1.0172 -1.0428 -0.0322
  496SOL    MW4 1758   5.816   0.246   5.029 -0.8163 -0.6226 -0.6488
  497SOL     OW 1759   3.699   1.398   1.217  0.8537  0.5378  0.3759
  497SOL    HW2 1760   3.614   1.354   1.216  0.1362  1.9053 -0.2217
  497SOL    HW3 1761   3.735   1.376   1.303 -0.4217  0.5343  0.9372
  497SOL    MW4 1762   3.693   1.389   1.228  0.5907  0.7177  0.3711
  498SOL     OW 1763   1.022   5.984   5.772  0.6696 -0.4692  0.3085
  498SOL    HW2 1764   0.995   5.905   5.818  0.0454 -0.6242 -0.3090
  498SOL    HW3 1765   1.097   6.016   5.822  0.8962 -1.4168  0.6006
  498SOL    MW4 1766   1.029   5.978   5.785  0.6171 -0.6147  0.2655
  499SOL     OW 1767   5.416   4.958   0.101  0.1445  0.0828  0.4199
  499SOL    HW2 1768   5.342   5.001   0.058 -0.1815 -0.5672  0.3286
  499SOL    HW3 1769   5.493   4.989   0.053 -0.2165 -0.6260 -0.6329
  499SOL    MW4 1770   5.417   4.968   0.089  0.0538 -0.0965  0.2689
  500SOL     OW 1771   4.641   5.203   5.704  0.0487 -0.6086 -0.1200
  500SOL    HW2 1772   4.553   5.223   5.673 -0.6789 -0.4588  1.9096
  500SOL    HW3 1773   4.695   5.207   5.625 -1.3019  1.8723 -1.0430
  500SOL    MW4 1774   4.636   5.207   5.689 -0.2255 -0.2615  0.0260
  501SOL     OW 1775   5.196   4.701   5.806  0.5132 -0.0924  0.0743
  501SOL    HW2 1776   5.222   4.793   5.808  1.7565 -0.4070 -0.6447
  501SOL    HW3 1777   5.194   4.679   5.713  0.9057 -0.9681  0.2681
  501SOL    MW4 1778   5.199   4.710   5.794  0.7290 -0.2495  0.0050
  502SOL     OW 1779   3.523   5.691   4.914  0.7280  0.6903 -0.7929
  502SOL    HW2 1780   3.505   5.613   4.966  1.9414  0.3541 -0.8501
  502SOL    HW3 1781   3.612   5.716   4.938  0.9744  1.0661 -2.0184
  502SOL    MW4 1782   3.532   5.684   4.924  0.9206  0.6955 -0.9621
  503SOL     OW 1783   6.396   2.187   2.266 -0.1004  0.3310 -0.1385
  503SOL    HW2 1784   6.385   2.280   2.245  1.6557  0.4492 -0.7529
  503SOL    HW3 1785   6.472   2.185   2.325  0.6907 -0.7875 -1.1374
  503SOL    MW4 1786   6.405   2.199   2.271  0.2356  0.1990 -0.3514
  504SOL     OW 1787   0.979   0.881   2.104  0.0638  0.2140 -0.3475
  504SOL    HW2 1788   0.969   0.876   2.199  0.2988 -0.5253 -0.3549
  504SOL    HW3 1789   0.890   0.869   2.070 -0.0359  0.5827 -0.2241
  504SOL    MW4 1790   0.966   0.879   2.112  0.0816  0.1651 -0.3322
  505SOL     OW 1791   3.437   3.021   0.937  0.3468  0.2061  0.5185
  505SOL    HW2 1792   3.456   3.080   0.865  1.5604 -1.7218 -0.8587
  505SOL    HW3 1793   3.364   2.967   0.906  0.6723 -0.4293  0.8277
  505SOL    MW4 1794   3.430   3.022   0.924  0.5498 -0.1321  0.3776
  506SOL     OW 1795   5.956   2.209   4.694 -0.5741  0.1652 -0.1460
  506SOL    HW2 1796   6.038   2.164   4.714 -0.7834 -0.1068  0.0987
  506SOL    HW3 1797   5.891   2.139   4.687 -0.5233  0.2292 -1.7687
  506SOL    MW4 1798   5.959   2.194   4.696 -0.5950  0.1377 -0.3278
  507SOL     OW 1799   1.469   0.874   4.780  0.5015  0.0732 -0.1287
  507SOL    HW2 1800   1.541   0.832   4.828  1.4857  2.1354  0.3190
  507SOL    HW3 1801   1.403   0.891   4.847  0.4462 -0.0446 -0.1533
  507SOL    MW4 1802   1.470   0.871   4.795  0.6240  0.3297 -0.0729
  508SOL     OW 1803   4.588   4.322   5.963  0.7342 -0.5284  0.3222
  508SOL    HW2 1804   4.493   4.310   5.960  0.4417  1.0516  1.8470
  508SOL    HW3 1805   4.608   4.340   6.055  2.1189  1.8047 -0.3352
  508SOL    MW4 1806   4.578   4.323   5.974  0.8783 -0.0121  0.4367
  509SOL     OW 1807   0.041   0.714   0.004 -0.1910  0.0002 -0.0198
  509SOL    HW2 1808   0.078   0.633  -0.031  0.1041  0.2255 -0.2328
  509SOL    HW3 1809   0.025   0.769  -0.072  1.3693  0.8789  0.2404
  509SOL    MW4 1810   0.044   0.711  -0.010  0.0538  0.1459 -0.0136
  510SOL     OW 1811   1.646   3.731   2.604 -0.9367  0.0812  0.2447
  510SOL    HW2 1812   1.570   3.740   2.547 -1.9195 -1.8002  1.1626
  510SOL    HW3 1813   1.618   3.672   2.674  1.1461 -0.1088  1.0184
  510SOL    MW4 1814   1.633   3.724   2.606 -0.7916 -0.1921  0.4679
  511SOL     OW 1815   2.338   3.127   5.646 -0.3569  0.2239  0.2819
  511SOL    HW2 1816   2.327   3.106   5.738  1.2438  0.0019  0.4357
  511SOL    HW3 1817   2.358   3.220   5.644 -3.2627  0.9601 -0.1063
  511SOL    MW4 1818   2.339   3.136   5.658 -0.5291  0.2918  0.2509
  512SOL     OW 1819   3.328   1.432   1.678  0.0209 -0.1526 -0.0641
  512SOL    HW2 1820   3.275   1.490   1.732 -1.7117 -1.0999 -0.6656
  512SOL    HW3 1821   3.401   1.406   1.734 -0.2052  1.0973  0.8399
  512SOL    MW4 1822   3.331   1.436   1.692 -0.2375 -0.1127 -0.0242
  513SOL     OW 1823   5.323   2.144   6.184  0.1796 -0.4504 -0.5945
  513SOL    HW2 1824   5.233   2.151   6.216  0.0529  2.1870 -1.3215
  513SOL    HW3 1825   5.342   2.230   6.146  2.6050 -1.3267 -1.5598
  513SOL    MW4 1826   5.314   2.156   6.183  0.4829 -0.2180 -0.8178
  514SOL     OW 1827   3.700   1.190   6.079  0.6757 -0.0615 -0.2077
  514SOL    HW2 1828   3.608   1.166   6.078  1.4785 -3.9795  1.1384
  514SOL    HW3 1829   3.706   1.260   6.145 -1.2111 -0.2135  0.1762
  514SOL    MW4 1830   3.689   1.196   6.088  0.5327 -0.5985  0.0206
  515SOL     OW 1831   5.145   5.880   0.030  0.2911  0.0626  0.3760
  515SOL    HW2 1832   5.087   5.804   0.038 -1.9040  1.7853  1.9343
  515SOL    HW3 1833   5.118   5.939   0.100  3.0284  1.6292  0.2670
  515SOL    MW4 1834   5.134   5.878   0.040  0.3626  0.4966  0.5672
  516SOL     OW 1835   5.280   2.239   5.180  1.2525  0.4506  0.1143
  516SOL    HW2 1836   5.328   2.243   5.263 -0.0020 -1.0762  0.9657
  516SOL    HW3 1837   5.347   2.217   5.115  1.7849 -1.6085  1.2694
  516SOL    MW4 1838   5.295   2.237   5.182  1.1573 -0.0225  0.3790
  517SOL     OW 1839   2.713   2.074   5.911  0.8416  0.1648  0.2259
  517SOL    HW2 1840   2.794   2.037   5.876  0.4724  0.8777 -1.5033
  517SOL    HW3 1841   2.644   2.018   5.877  0.5466 -0.0222  1.1110
  517SOL    MW4 1842   2.715   2.062   5.902  0.7540  0.2342  0.1145
  518SOL     OW 1843   4.798   1.780   2.529  0.2794  0.0008  0.1775
  518SOL    HW2 1844   4.877   1.810   2.484  0.8695 -0.9676  0.5212
  518SOL    HW3 1845   4.823   1.695   2.566 -0.3166  0.5614  1.9593
  518SOL    MW4 1846   4.812   1.773   2.528  0.2786 -0.0530  0.4579
  519SOL     OW 1847   6.128   4.432   0.673 -0.7572 -0.6118  0.3814
  519SOL    HW2 1848   6.119   4.521   0.708 -0.5962 -1.1156  1.7367
  519SOL    HW3 1849   6.134   4.445   0.578 -0.5588  0.8353  0.5664
  519SOL    MW4 1850   6.127   4.446   0.665 -0.7098 -0.4873  0.5846
  520SOL     OW 1851   6.247   1.706   5.116 -0.5458  0.0217  0.1402
  520SOL    HW2 1852   6.316   1.762   5.151 -0.7147 -0.3580  1.1329
  520SOL    HW3 1853   6.190   1.765   5.067  1.1564  0.1498 -1.8317
  520SOL    MW4 1854   6.249   1.721   5.114 -0.3435 -0.0115  0.0110
  521SOL     OW 1855   3.789   0.451   1.850 -0.3125 -0.1330 -0.1169
  521SOL    HW2 1856   3.698   0.474   1.836 -0.3673  0.4365  1.0599
  521SOL    HW3 1857   3.834   0.535   1.864  0.2081 -0.4594  0.2395
  521SOL    MW4 1858   3.783   0.465   1.850 -0.2510 -0.1009  0.0854
  522SOL     OW 1859   2.479   0.470   4.169 -0.3276  0.7104  0.0620
  522SOL    HW2 1860   2.421   0.442   4.240 -1.2740  0.3370 -0.8200
  522SOL    HW3 1861   2.436   0.547   4.132 -0.7487 -0.0730 -1.1525
  522SOL    MW4 1862   2.465   0.477   4.173 -0.5080  0.5578 -0.2146
  523SOL     OW 1863   3.996   0.390   0.470  0.1966 -0.3792 -0.0580
  523SOL    HW2 1864   3.980   0.391   0.564  2.9248 -1.7146  0.5321
  523SOL    HW3 1865   4.024   0.479   0.449 -1.5573  0.2468  0.0958
  523SOL    MW4 1866   3.997   0.402   0.479  0.3252 -0.4728  0.0402
  524SOL     OW 1867   0.444   0.188   0.420 -0.1368  0.0007 -0.1841
  524SOL    HW2 1868   0.491   0.105   0.411  1.7152  1.0818 -0.9414
  524SOL    HW3 1869   0.412   0.188   0.511  1.7887 -0.5654  0.5364
  524SOL    MW4 1870   0.446   0.177   0.431  0.3616  0.0687 -0.1890
  525SOL     OW 1871   3.013   3.588   0.876  0.5450 -0.1529  0.3284
  525SOL    HW2 1872   2.935   3.641   0.892 -0.6613 -2.0773  1.2326
  525SOL    HW3 1873   3.024   3.536   0.956  2.6142 -0.1357  0.1156
  525SOL    MW4 1874   3.004   3.588   0.889  0.6588 -0.4045  0.4196
  526SOL     OW 1875   1.526   1.154   3.912  0.5790  0.4702 -0.0624
  526SOL    HW2 1876   1.584   1.221   3.875  1.2128  0.1686  0.3704
  526SOL    HW3 1877   1.438   1.192   3.904  1.0430  2.0413  1.5287
  526SOL    MW4 1878   1.522   1.168   3.906  0.7239  0.6377  0.2046
  527SOL     OW 1879   0.272   1.776   2.770 -0.0336 -0.4558  0.0987
  527SOL    HW2 1880   0.240   1.834   2.702 -0.1296 -0.1273  0.4185
  527SOL    HW3 1881   0.193   1.740   2.810 -0.0251  0.3105  0.8492
  527SOL    MW4 1882   0.258   1.779   2.767 -0.0451 -0.3113  0.2399
  528SOL     OW 1883   1.669   2.145   4.695  0.0331 -0.1452 -0.7226
  528SOL    HW2 1884   1.759   2.115   4.678  0.6943 -0.3799  2.5040
  528SOL    HW3 1885   1.640   2.092   4.769 -0.9769  3.0281  1.3815
  528SOL    MW4 1886   1.677   2.134   4.702 -0.0129  0.2425 -0.0193
  529SOL     OW 1887   5.221   5.130   2.420 -0.2437  0.4220 -0.2621
  529SOL    HW2 1888   5.140   5.090   2.390 -0.6718  0.7569  0.4163
  529SOL    HW3 1889   5.279   5.127   2.344 -0.7744 -0.1291 -0.6525
  529SOL    MW4 1890   5.218   5.125   2.406 -0.3702  0.3934 -0.2241
  530SOL     OW 1891   2.275   1.184   1.867  0.2419  0.1701  0.4450
  530SOL    HW2 1892   2.317   1.100   1.853  0.9095  0.4134  0.9410
  530SOL    HW3 1893   2.200   1.184   1.808  1.0385 -0.2001 -0.5859
  530SOL    MW4 1894   2.271   1.173   1.857  0.4351  0.1533  0.3745
  531SOL     OW 1895   3.045   1.495   1.353 -0.2265 -0.0551  0.1688
  531SOL    HW2 1896   2.972   1.525   1.299 -0.5701  0.1802  0.7599
  531SOL    HW3 1897   3.123   1.518   1.302 -0.5256  0.7518  0.0677
  531SOL    MW4 1898   3.046   1.502   1.339 -0.3113  0.0824  0.2334
  532SOL     OW 1899   4.635   5.742   4.122  0.1403  0.0870 -0.2561
  532SOL    HW2 1900   4.668   5.770   4.208 -0.0009  0.2071 -0.2420
  532SOL    HW3 1901   4.582   5.665   4.141  2.2606 -1.5273 -0.5147
  532SOL    MW4 1902   4.633   5.736   4.136  0.4014 -0.1102 -0.2884
  533SOL     OW 1903   2.646   3.647   3.133 -0.6282  0.6900  0.6751
  533SOL    HW2 1904   2.700   3.722   3.159 -0.2870  0.1712  1.5330
  533SOL    HW3 1905   2.566   3.685   3.098 -0.3660  1.4560  0.8957
  533SOL    MW4 1906   2.643   3.662   3.132 -0.5486  0.7226  0.8174
  534SOL     OW 1907   2.629   1.358   5.187 -0.1161 -0.2111 -0.4552
  534SOL    HW2 1908   2.628   1.434   5.245 -1.1065 -0.8118  0.3512
  534SOL    HW3 1909   2.710   1.367   5.137 -0.0246  1.1623 -0.1081
  534SOL    MW4 1910   2.640   1.369   5.188 -0.2347 -0.1091 -0.3030
  535SOL     OW 1911   4.446   5.879   5.324 -0.6786  0.0698 -0.3520
  535SOL    HW2 1912   4.516   5.938   5.353 -0.6757 -0.7351  1.4080
  535SOL    HW3 1913   4.422   5.912   5.238  0.5493  1.5399 -0.1903
  535SOL    MW4 1914   4.452   5.891   5.316 -0.5162  0.1576 -0.0985
  536SOL     OW 1915   3.630   4.312   1.094 -0.1409  0.3633 -0.5955
  536SOL    HW2 1916   3.565   4.351   1.036  0.2977  0.1636 -1.2394
  536SOL    HW3 1917   3.593   4.228   1.119 -0.9093  0.9925  0.4726
  536SOL    MW4 1918   3.616   4.306   1.090 -0.1844  0.4199 -0.5395
  537SOL     OW 1919   2.161   4.054   2.449 -0.4272 -0.0765  0.0851
  537SOL    HW2 1920   2.150   4.055   2.544 -0.5060 -0.3668  0.0785
  537SOL    HW3 1921   2.073   4.073   2.415 -1.2167 -3.3359  0.0140
  537SOL    MW4 1922   2.148   4.057   2.457 -0.5418 -0.5448  0.0749
  538SOL     OW 1923   4.927   1.089   0.432  0.2033  0.2353 -0.1243
  538SOL    HW2 1924   4.879   1.085   0.515 -2.0003  0.8103 -1.2900
  538SOL    HW3 1925   5.004   1.142   0.452  0.9764 -1.5568  2.0646
  538SOL    MW4 1926   4.931   1.096   0.446  0.0145  0.0747  0.0107
  539SOL     OW 1927   4.157   4.963   2.044  0.5422  0.2136 -0.2532
  539SOL    HW2 1928   4.192   4.972   1.955 -0.0590 -0.2256 -0.5346
  539SOL    HW3 1929   4.215   5.018   2.098  2.3281 -1.2930 -0.5323
  539SOL    MW4 1930   4.169   4.971   2.040  0.6985 -0.0431 -0.3271
  540SOL     OW 1931   1.867   5.154   3.499 -0.3947 -0.1352 -0.4418
  540SOL    HW2 1932   1.913   5.147   3.583 -0.6032  1.8073 -0.1138
  540SOL    HW3 1933   1.795   5.092   3.506 -0.4673  0.0661  0.8732
  540SOL    MW4 1934   1.864   5.145   3.511 -0.4318  0.1476 -0.2250
  541SOL     OW 1935   3.023   1.239   0.206  0.0709  0.3383  0.2787
  541SOL    HW2 1936   3.061   1.319   0.170 -1.5455  1.4599  0.9269
  541SOL    HW3 1937   3.075   1.169   0.168  1.4144  1.6752 -0.4833
  541SOL    MW4 1938   3.034   1.241   0.196  0.0349  0.6627  0.2637
  542SOL     OW 1939   0.095   1.395   2.637 -0.0325  0.2151  0.0826
  542SOL    HW2 1940   0.053   1.475   2.605 -0.0775 -0.3953 -1.4745
  542SOL    HW3 1941   0.108   1.342   2.558  0.3345 -1.1552  1.0360
  542SOL    MW4 1942   0.091   1.398   2.622  0.0100 -0.0462  0.0029
  543SOL     OW 1943   4.498   1.309   2.680  0.0219 -0.1042 -0.2637
  543SOL    HW2 1944   4.440   1.261   2.622  0.0673  0.0401 -0.4291
  543SOL    HW3 1945   4.571   1.250   2.696  0.0896 -0.0821 -0.4850
  543SOL    MW4 1946   4.500   1.295   2.675  0.0368 -0.0822 -0.3147
  544SOL     OW 1947   1.520   1.498   2.048  0.0790 -0.3544  0.1192
  544SOL    HW2 1948   1.519   1.578   2.099  1.6221  0.7055 -1.4036
  544SOL    HW3 1949   1.502   1.428   2.111  0.1356  1.0455  1.7255
  544SOL    MW4 1950   1.517   1.499   2.063  0.2901 -0.0299  0.1302
  545SOL     OW 1951   1.017   1.601   2.688 -0.1473 -0.2707 -0.0588
  545SOL    HW2 1952   0.929   1.589   2.652 -0.7148 -0.3812  1.3077
  545SOL    HW3 1953   1.026   1.532   2.754  1.4841 -1.0897 -1.0888
  545SOL    MW4 1954   1.006   1.590   2.692 -0.0069 -0.3933 -0.0144
  546SOL     OW 1955   5.569   4.819   0.467  0.2496 -0.5458 -0.4027
  546SOL    HW2 1956   5.613   4.775   0.394  0.3892 -0.6046 -0.2829
  546SOL    HW3 1957   5.476   4.814   0.445  0.0671 -2.7702  0.6243
  546SOL    MW4 1958   5.563   4.813   0.454  0.2439 -0.8470 -0.2514
  547SOL     OW 1959   6.292   1.821   0.506  0.2060 -0.3419 -0.4183
  547SOL    HW2 1960   6.234   1.790   0.576  2.6615 -3.4836  0.4336
  547SOL    HW3 1961   6.266   1.772   0.429  0.0801  0.1605 -0.6982
  547SOL    MW4 1962   6.281   1.811   0.505  0.5134 -0.6901 -0.3428
  548SOL     OW 1963   0.720   1.795   2.872 -0.0118  0.1667  0.2554
  548SOL    HW2 1964   0.774   1.866   2.838  1.5966 -1.0308  0.1463
  548SOL    HW3 1965   0.641   1.837   2.904  0.1987  1.8033 -1.2392
  548SOL    MW4 1966   0.717   1.810   2.871  0.2282  0.2246  0.0438
  549SOL     OW 1967   4.883   3.334   0.109  0.3204  0.2229  0.4698
  549SOL    HW2 1968   4.861   3.359   0.019  0.4968  0.8717  0.6087
  549SOL    HW3 1969   4.809   3.364   0.161 -1.2592 -2.7414  0.2080
  549SOL    MW4 1970   4.870   3.341   0.104  0.1353 -0.0826  0.4536
  550SOL     OW 1971   3.002   2.301   2.609 -0.1296 -0.1376  0.1111
  550SOL    HW2 1972   2.913   2.294   2.642 -0.5536 -1.7798 -1.2417
  550SOL    HW3 1973   2.996   2.367   2.540 -0.4259 -0.5806 -0.2971
  550SOL    MW4 1974   2.990   2.309   2.604 -0.2247 -0.4127 -0.1212
  551SOL     OW 1975   5.351   3.230   4.054 -0.3593  0.0916 -0.2837
  551SOL    HW2 1976   5.272   3.223   4.108  0.3110 -2.3088  0.4954
  551SOL    HW3 1977   5.418   3.181   4.102  0.5507 -1.3213 -2.7968
  551SOL    MW4 1978   5.349   3.223   4.067 -0.1508 -0.4115 -0.5125
  552SOL     OW 1979   1.190   4.150   6.218 -0.3519  0.5463 -0.4797
  552SOL    HW2 1980   1.185   4.141   6.313 -0.1929  1.1318 -0.4132
  552SOL    HW3 1981   1.258   4.088   6.191 -0.9011 -0.1515 -0.2979
  552SOL    MW4 1982   1.198   4.140   6.227 -0.4034  0.5315 -0.4469
  553SOL     OW 1983   3.936   4.027   2.703 -0.4808  0.0149 -0.1851
  553SOL    HW2 1984   4.025   4.025   2.669 -0.3821 -3.6480 -0.1034
  553SOL    HW3 1985   3.880   4.028   2.625 -0.2992 -1.5966 -0.3580
  553SOL    MW4 1986   3.940   4.027   2.688 -0.4438 -0.6810 -0.1971
  554SOL     OW 1987   3.929   2.056   2.898 -0.1092  0.5121  0.3378
  554SOL    HW2 1988   3.957   2.047   2.989 -0.7250 -2.5611  0.3390
  554SOL    HW3 1989   3.888   2.142   2.894  0.6366  1.0585  2.7452
  554SOL    MW4 1990   3.927   2.066   2.910 -0.0920  0.1787  0.6556
  555SOL     OW 1991   4.783   5.576   2.182  0.5547  0.7223 -0.1996
  555SOL    HW2 1992   4.811   5.588   2.273 -0.9508 -0.8434  0.5237
  555SOL    HW3 1993   4.863   5.548   2.136  1.0235  0.0467  0.9714
  555SOL    MW4 1994   4.798   5.574   2.188  0.4179  0.4266  0.0503
  556SOL     OW 1995   1.438   0.303   1.185  0.0303  0.5391 -0.3257
  556SOL    HW2 1996   1.453   0.384   1.136 -1.6987  1.1866  0.1225
  556SOL    HW3 1997   1.346   0.283   1.168 -0.0522 -0.3382  1.0325
  556SOL    MW4 1998   1.428   0.311   1.176 -0.2087  0.5088 -0.0874
  557SOL     OW 1999   1.680   0.896   1.653 -0.3530 -0.3302  0.1500
  557SOL    HW2 2000   1.594   0.936   1.648 -1.3201 -2.3900 -0.9611
  557SOL    HW3 2001   1.716   0.903   1.564  0.6344  0.4643  0.5868
  557SOL    MW4 2002   1.674   0.902   1.641 -0.3504 -0.4972  0.0611
  558SOL     OW 2003   2.229   5.491   2.234 -0.2954  0.2048  0.2256
  558SOL    HW2 2004   2.246   5.437   2.157 -2.5394 -1.4851  0.8009
  558SOL    HW3 2005   2.315   5.502   2.275  0.6375 -0.5586 -1.4302
  558SOL    MW4 2006   2.243   5.485   2.229 -0.4684 -0.1189  0.0831
  559SOL     OW 2007   5.689   1.059   5.613  0.0223  0.5426  0.3347
  559SOL    HW2 2008   5.627   1.062   5.539 -0.7634 -1.2441  0.8575
  559SOL    HW3 2009   5.699   1.150   5.640  0.0291  1.1925 -1.7199
  559SOL    MW4 2010   5.682   1.071   5.607 -0.0804  0.3926  0.1326
  560SOL     OW 2011   1.373   5.535   4.707 -0.0811 -0.1381 -0.2121
  560SOL    HW2 2012   1.451   5.507   4.756 -0.1184 -1.4791 -0.8761
  560SOL    HW3 2013   1.300   5.510   4.764 -0.0893 -0.8600 -0.5238
  560SOL    MW4 2014   1.374   5.528   4.721 -0.0871 -0.4103 -0.3408
  561SOL     OW 2015   2.091   0.630   1.361  0.6196  0.4536 -0.4257
  561SOL    HW2 2016   2.132   0.543   1.357 -1.3166 -0.6087  0.8403
  561SOL    HW3 2017   2.002   0.616   1.328 -0.3167  1.4937  1.4608
  561SOL    MW4 2018   2.084   0.617   1.356  0.2406  0.4507 -0.0098
  562SOL     OW 2019   2.752   3.031   4.015  0.1353  0.3015  0.0475
  562SOL    HW2 2020   2.803   3.007   4.093  0.7208  1.3487  0.0120
  562SOL    HW3 2021   2.668   3.061   4.051 -0.1346 -0.5763  0.1693
  562SOL    MW4 2022   2.748   3.032   4.030  0.1769  0.3239  0.0589
  563SOL     OW 2023   4.643   3.268   2.370  0.4976 -0.0137  0.3665
  563SOL    HW2 2024   4.585   3.202   2.407 -0.1830  1.8083  2.7413
  563SOL    HW3 2025   4.603   3.291   2.287 -0.3834 -1.0706  0.4713
  563SOL    MW4 2026   4.630   3.262   2.364  0.2916  0.0872  0.6936
  564SOL     OW 2027   6.059   0.902   5.177  0.3658  0.9258  0.0202
  564SOL    HW2 2028   6.013   0.834   5.127  0.3829 -0.8653  2.2669
  564SOL    HW3 2029   6.143   0.911   5.133  2.2902 -3.8740  1.9361
  564SOL    MW4 2030   6.064   0.894   5.165  0.6219  0.0562  0.5694
  565SOL     OW 2031   0.703   1.628   3.696  0.5413  0.3155  0.1898
  565SOL    HW2 2032   0.741   1.681   3.626  2.3323  1.6484  2.0361
  565SOL    HW3 2033   0.645   1.688   3.742 -1.3830 -0.8195 -0.6527
  565SOL    MW4 2034   0.701   1.643   3.693  0.5237  0.3416  0.3222
  566SOL     OW 2035   2.800   0.786   5.072 -0.5202  0.2259 -0.1655
  566SOL    HW2 2036   2.807   0.870   5.117  0.4384 -0.4482  1.0165
  566SOL    HW3 2037   2.741   0.803   4.998 -0.9667  1.7285  0.4941
  566SOL    MW4 2038   2.793   0.799   5.068 -0.4527  0.3352  0.0775
  567SOL     OW 2039   3.515   4.579   3.653 -0.2629  0.0273 -0.4715
  567SOL    HW2 2040   3.547   4.661   3.614 -1.4573 -0.2383 -2.1380
  567SOL    HW3 2041   3.591   4.521   3.653  0.7019  1.2045  1.0893
  567SOL    MW4 2042   3.529   4.582   3.648 -0.2932  0.1475 -0.4854
  568SOL     OW 2043   5.663   5.279   4.425 -0.6002 -0.0615  0.1498
  568SOL    HW2 2044   5.690   5.352   4.368 -0.4796  0.0876  0.3982
  568SOL    HW3 2045   5.742   5.257   4.474 -0.6502 -0.3301  0.1099
  568SOL    MW4 2046   5.677   5.286   4.424 -0.5909 -0.0772  0.1773
  569SOL     OW 2047   1.323   1.979   0.706 -0.0513 -0.0712 -0.5942
  569SOL    HW2 2048   1.271   1.957   0.783 -0.9188  1.9626 -0.5543
  569SOL    HW3 2049   1.394   1.914   0.707 -1.9129 -2.2236 -0.0410
  569SOL    MW4 2050   1.326   1.968   0.717 -0.4114 -0.0868 -0.5159
  570SOL     OW 2051   3.033   2.514   3.572  1.0568  0.0393 -0.0693
  570SOL    HW2 2052   2.960   2.465   3.535 -0.3532  3.5124 -2.3832
  570SOL    HW3 2053   3.111   2.476   3.531  0.3238 -1.7860  0.1384
  570SOL    MW4 2054   3.034   2.502   3.562  0.7741  0.2567 -0.3472
  571SOL     OW 2055   1.023   2.328   6.342  0.2657 -0.3057 -0.1018
  571SOL    HW2 2056   1.100   2.345   6.396  0.2408 -0.4452 -0.0221
  571SOL    HW3 2057   0.955   2.384   6.379  0.9422  1.6480 -1.6331
  571SOL    MW4 2058   1.024   2.338   6.354  0.3517 -0.0664 -0.2933
  572SOL     OW 2059   1.727   6.002   3.568  0.0235 -0.0908  0.3101
  572SOL    HW2 2060   1.818   5.995   3.597  0.2799  3.4940  0.8103
  572SOL    HW3 2061   1.731   5.997   3.472  1.1003  2.1410  0.1934
  572SOL    MW4 2062   1.739   6.000   3.559  0.1994  0.6766  0.3607
  573SOL     OW 2063   1.616   2.816   4.467  0.9227  0.0134  0.2601
  573SOL    HW2 2064   1.706   2.848   4.462  0.6285  1.1134  1.3262
  573SOL    HW3 2065   1.571   2.879   4.524 -0.7647  0.0493 -1.0023
  573SOL    MW4 2066   1.622   2.829   4.474  0.6612  0.1633  0.2342
  574SOL     OW 2067   3.655   0.991   2.360  0.2349  0.1941  0.5501
  574SOL    HW2 2068   3.739   0.972   2.319 -0.0099  0.1810  0.0487
  574SOL    HW3 2069   3.645   0.924   2.427  0.7565  0.3701  0.8094
  574SOL    MW4 2070   3.665   0.980   2.364  0.2714  0.2156  0.5182
  575SOL     OW 2071   5.924   1.379   2.954 -0.1100  0.1084  0.2381
  575SOL    HW2 2072   5.922   1.367   3.049 -0.2972  0.8823  0.3463
  575SOL    HW3 2073   5.832   1.373   2.927 -0.2468  1.3471  0.3302
  575SOL    MW4 2074   5.911   1.377   2.963 -0.1528  0.3739  0.2645
  576SOL     OW 2075   4.053   3.737   0.981  0.0574  0.0423  0.1809
  576SOL    HW2 2076   4.092   3.783   0.907 -0.0975  1.3057  0.8597
  576SOL    HW3 2077   4.127   3.720   1.040  0.2276 -1.2072 -0.3610
  576SOL    MW4 2078   4.068   3.741   0.979  0.0594  0.0441  0.1989
  577SOL     OW 2079   2.860   0.312   5.903  0.0591  0.3470  0.0145
  577SOL    HW2 2080   2.833   0.311   5.811  1.0146  1.1608 -0.2802
  577SOL    HW3 2081   2.875   0.219   5.924 -3.7990 -0.3649  0.5031
  577SOL    MW4 2082   2.858   0.299   5.894 -0.3239  0.3604  0.0401
  578SOL     OW 2083   0.047   2.427   5.575  0.3588 -0.4988  0.0804
  578SOL    HW2 2084   0.138   2.441   5.550  0.3574  1.7280  1.1284
  578SOL    HW3 2085  -0.000   2.419   5.492  1.4748 -1.6580 -0.4683
  578SOL    MW4 2086   0.052   2.428   5.561  0.5059 -0.3580  0.1463
  579SOL     OW 2087   6.199   0.442   5.447  0.0973 -0.5221  0.3698
  579SOL    HW2 2088   6.144   0.377   5.490 -2.7051  2.9891  2.6784
  579SOL    HW3 2089   6.163   0.450   5.359 -0.4475 -1.1104  0.5376
  579SOL    MW4 2090   6.187   0.435   5.441 -0.3443 -0.1365  0.6965
  580SOL     OW 2091   0.378   3.153   6.382 -0.3735 -0.0638 -0.3269
  580SOL    HW2 2092   0.361   3.080   6.441 -1.9452  0.2759 -0.3230
  580SOL    HW3 2093   0.366   3.231   6.436  1.7308  0.2525 -0.2109
  580SOL    MW4 2094   0.374   3.154   6.397 -0.3032  0.0228 -0.3111
  581SOL     OW 2095   6.288   5.313   0.945  0.8825  0.4961  0.2121
  581SOL    HW2 2096   6.297   5.274   1.031  0.2984  0.1242  0.1112
  581SOL    HW3 2097   6.274   5.239   0.886  0.0749  0.8270 -0.0234
  581SOL    MW4 2098   6.287   5.298   0.948  0.6989  0.4907  0.1677
  582SOL     OW 2099   1.786   2.451   1.877  0.5236  0.3262 -0.2110
  582SOL    HW2 2100   1.807   2.363   1.846 -3.2005 -0.5882 -0.5615
  582SOL    HW3 2101   1.795   2.446   1.972  1.9340  0.1061 -0.3367
  582SOL    MW4 2102   1.790   2.439   1.885  0.2184  0.1765 -0.2739
  583SOL     OW 2103   0.311   4.004   2.404 -0.0036  0.3079 -0.0357
  583SOL    HW2 2104   0.314   4.100   2.413 -0.5067  0.3737 -0.5577
  583SOL    HW3 2105   0.301   3.973   2.494 -0.2575  0.7639  0.0978
  583SOL    MW4 2106   0.310   4.013   2.417 -0.1035  0.3767 -0.0870
  584SOL     OW 2107   1.898   3.065   5.248 -0.0180  0.1486 -0.2951
  584SOL    HW2 2108   1.946   3.135   5.204 -1.9044  0.6006 -1.7560
  584SOL    HW3 2109   1.870   3.104   5.332  2.1149 -0.1465  0.6066
  584SOL    MW4 2110   1.900   3.079   5.254  0.0145  0.1693 -0.3689
  585SOL     OW 2111   0.128   2.494   3.934  0.5027  0.4216  0.1701
  585SOL    HW2 2112   0.063   2.516   4.001  0.7139  1.8168 -0.0484
  585SOL    HW3 2113   0.105   2.550   3.859  1.3100  0.1430 -0.2943
  585SOL    MW4 2114   0.116   2.504   3.933  0.6370  0.5689  0.0800
  586SOL     OW 2115   2.245   4.894   0.066  0.0637 -0.4061  0.3874
  586SOL    HW2 2116   2.161   4.875   0.108  0.0819  0.3402  0.7895
  586SOL    HW3 2117   2.311   4.879   0.135  0.1755 -0.1258  0.3463
  586SOL    MW4 2118   2.243   4.890   0.081  0.0809 -0.2706  0.4351
  587SOL     OW 2119   6.041   1.134   0.027 -0.3712 -0.0483 -0.4719
  587SOL    HW2 2120   6.028   1.145  -0.067 -1.2941 -0.6218 -0.4234
  587SOL    HW3 2121   6.103   1.060   0.034 -1.4584 -0.9960 -0.6139
  587SOL    MW4 2122   6.048   1.125   0.015 -0.6364 -0.2490 -0.4843
  588SOL     OW 2123   3.203   5.042   4.255  1.0357  0.1280 -0.1062
  588SOL    HW2 2124   3.179   5.125   4.214  1.1336  0.3739  0.3299
  588SOL    HW3 2125   3.244   4.991   4.185 -2.0376 -0.8999 -1.3343
  588SOL    MW4 2126   3.205   5.046   4.241  0.6431  0.0249 -0.2107
  589SOL     OW 2127   6.139   4.416   4.601  0.5635  1.4903 -0.2355
  589SOL    HW2 2128   6.054   4.454   4.578  0.3268  1.2478  0.2309
  589SOL    HW3 2129   6.131   4.393   4.693  1.1836  1.5843 -0.1539
  589SOL    MW4 2130   6.127   4.418   4.610  0.6141  1.4707 -0.1632
  590SOL     OW 2131   6.382   5.382   4.137 -0.3845  0.6314 -0.2565
  590SOL    HW2 2132   6.372   5.477   4.128 -0.6968  0.3929 -3.8898
  590SOL    HW3 2133   6.467   5.363   4.097  0.9577 -0.4869  2.7971
  590SOL    MW4 2134   6.392   5.392   4.131 -0.2486  0.4524 -0.3330
  591SOL     OW 2135   3.183   4.224   2.755 -0.1742 -0.5473 -0.7576
  591SOL    HW2 2136   3.092   4.196   2.766  0.0599 -0.7542  0.9437
  591SOL    HW3 2137   3.226   4.196   2.836  0.6078  2.7064  0.0625
  591SOL    MW4 2138   3.176   4.216   2.767 -0.0401 -0.1453 -0.4249
  592SOL     OW 2139   3.020   2.870   5.789 -0.2983  0.2545 -0.0574
  592SOL    HW2 2140   3.035   2.849   5.697  0.3832 -0.0374  0.1128
  592SOL    HW3 2141   2.945   2.815   5.815  0.8698 -1.3184  0.1302
  592SOL    MW4 2142   3.012   2.860   5.781 -0.0542  0.0085 -0.0102
  593SOL     OW 2143   0.343   4.920   1.266  0.2381  0.0313 -0.8007
  593SOL    HW2 2144   0.381   4.911   1.353  0.0566  1.3867 -0.5650
  593SOL    HW3 2145   0.411   4.887   1.207  0.3451 -0.9354 -0.1553
  593SOL    MW4 2146   0.357   4.914   1.269  0.2283  0.0826 -0.6845
  594SOL     OW 2147   2.069   1.978   3.269 -0.5592  0.1725  0.1885
  594SOL    HW2 2148   2.153   1.935   3.251  0.2586  1.2686  1.1735
  594SOL    HW3 2149   2.078   2.064   3.228 -1.0919  0.3910  0.5250
  594SOL    MW4 2150   2.082   1.984   3.262 -0.5216  0.3459  0.3629
  595SOL     OW 2151   3.215   4.786   1.299 -0.9410  0.3278 -0.0978
  595SOL    HW2 2152   3.294   4.762   1.347 -1.0338 -0.4293 -0.2976
  595SOL    HW3 2153   3.148   4.798   1.366 -0.5569  1.4359  0.1065
  595SOL    MW4 2154   3.217   4.784   1.314 -0.9025  0.3741 -0.0972
  596SOL     OW 2155   1.162   0.269   1.174 -0.0641 -0.3734  0.8651
  596SOL    HW2 2156   1.109   0.226   1.107  0.9223  0.2618 -0.3742
  596SOL    HW3 2157   1.102   0.281   1.248 -1.5996  0.2044 -0.4192
  596SOL    MW4 2158   1.147   0.265   1.175 -0.1365 -0.2134  0.5321
  597SOL     OW 2159   5.932   2.783   1.840 -0.4134 -0.0361  0.0860
  597SOL    HW2 2160   5.945   2.695   1.876  0.2636 -0.9965 -2.2965
  597SOL    HW3 2161   5.842   2.805   1.863 -0.5958 -1.3486  0.7471
  597SOL    MW4 2162   5.922   2.774   1.847 -0.3482 -0.3360 -0.1411
  598SOL     OW 2163   1.777   2.733   2.225 -0.0008 -0.1951  0.3363
  598SOL    HW2 2164   1.736   2.735   2.139  0.6710  0.2236  0.0143
  598SOL    HW3 2165   1.862   2.691   2.210  0.0632 -0.2478  0.8207
  598SOL    MW4 2166   1.783   2.727   2.212  0.0962 -0.1468  0.3577
  599SOL     OW 2167   0.810   3.895   0.920  0.0964 -0.4839  0.0117
  599SOL    HW2 2168   0.845   3.964   0.864 -1.4304  0.5417  0.2646
  599SOL    HW3 2169   0.887   3.848   0.951  1.0596 -0.2342 -1.8455
  599SOL    MW4 2170   0.825   3.898   0.917  0.0221 -0.3157 -0.2000
  600SOL     OW 2171   1.272   6.204   6.190  0.5886  0.4325  0.0886
  600SOL    HW2 2172   1.265   6.143   6.264  0.4529  1.6623  1.1219
  600SOL    HW3 2173   1.252   6.151   6.113  1.0848 -0.9610  0.8969
  600SOL    MW4 2174   1.268   6.189   6.190  0.6362  0.4109  0.3316
  601SOL     OW 2175   2.876   5.437   1.456  0.2795  0.0608  0.4187
  601SOL    HW2 2176   2.862   5.531   1.445 -0.4975 -0.2291 -1.3532
  601SOL    HW3 2177   2.959   5.431   1.504 -0.4428  1.6435  1.9971
  601SOL    MW4 2178   2.885   5.449   1.461  0.0817  0.2313  0.3932
  602SOL     OW 2179   2.468   1.499   4.651  0.1786  0.2794 -0.6147
  602SOL    HW2 2180   2.518   1.431   4.695 -2.9040 -1.2513  0.8945
  602SOL    HW3 2181   2.509   1.581   4.677  1.5831 -0.8488  0.8530
  602SOL    MW4 2182   2.480   1.501   4.660 -0.0428 -0.0714 -0.2220
  603SOL     OW 2183   2.304   2.614   3.683 -0.3020 -0.7163 -0.1682
  603SOL    HW2 2184   2.360   2.537   3.686  0.3412 -0.2282  0.7437
  603SOL    HW3 2185   2.323   2.654   3.598  0.6289 -0.6438  0.0648
  603SOL    MW4 2186   2.314   2.609   3.672 -0.0943 -0.6424 -0.0171
  604SOL     OW 2187   2.883   0.315   2.282 -0.3667  0.0525 -0.1846
  604SOL    HW2 2188   2.820   0.386   2.272 -0.5754  0.1676  1.5782
  604SOL    HW3 2189   2.850   0.245   2.225 -0.6520  1.0267 -1.2395
  604SOL    MW4 2190   2.870   0.315   2.273 -0.4319  0.1962 -0.0912
  605SOL     OW 2191   1.701   3.463   1.231  0.1153 -0.1406  0.1621
  605SOL    HW2 2192   1.638   3.525   1.267 -0.4890  0.9121 -2.4805
  605SOL    HW3 2193   1.785   3.509   1.234  0.0503 -0.0220  0.1649
  605SOL    MW4 2194   1.704   3.477   1.236  0.0270  0.0139 -0.1862
  606SOL     OW 2195   0.239   4.245   5.169  0.1657  0.4504  0.3767
  606SOL    HW2 2196   0.226   4.270   5.260  0.8151  0.3297  0.5025
  606SOL    HW3 2197   0.334   4.244   5.157  0.1641 -1.3749  0.2132
  606SOL    MW4 2198   0.250   4.248   5.179  0.2512  0.1936  0.3717
  607SOL     OW 2199   5.526   3.385   4.575  0.2338  0.0412  0.3488
  607SOL    HW2 2200   5.451   3.401   4.517 -0.4967 -0.0005  1.2477
  607SOL    HW3 2201   5.593   3.446   4.545 -0.1490  0.0718 -0.4858
  607SOL    MW4 2202   5.525   3.395   4.563  0.0869  0.0398  0.3573
  608SOL     OW 2203   5.181   4.643   5.297 -0.0227  0.2034  0.2965
  608SOL    HW2 2204   5.255   4.703   5.311  0.0168 -0.0498  1.2043
  608SOL    HW3 2205   5.112   4.698   5.262  0.7698  0.3466 -1.1275
  608SOL    MW4 2206   5.182   4.658   5.294  0.0871  0.1889  0.2284
  609SOL     OW 2207   3.001   5.437   4.461 -0.2155  0.4555  0.7709
  609SOL    HW2 2208   3.066   5.502   4.486 -1.4649  1.8053  0.6839
  609SOL    HW3 2209   2.964   5.406   4.543 -0.4929  0.7991  0.7774
  609SOL    MW4 2210   3.005   5.441   4.475 -0.4170  0.6789  0.7603
  610SOL     OW 2211   4.587   4.183   0.170  0.8247 -0.1450 -0.7683
  610SOL    HW2 2212   4.662   4.144   0.215  0.2126  0.7597  1.1434
  610SOL    HW3 2213   4.577   4.131   0.090  3.4993 -0.2400 -1.1231
  610SOL    MW4 2214   4.596   4.171   0.165  1.0968 -0.0382 -0.5629
  611SOL     OW 2215   0.770   5.599   3.872 -0.2487 -0.5363  0.2644
  611SOL    HW2 2216   0.826   5.528   3.904  0.2607  0.0062  0.6098
  611SOL    HW3 2217   0.809   5.624   3.789  0.8357  0.7121  1.1088
  611SOL    MW4 2218   0.783   5.593   3.865 -0.0384 -0.3000  0.4214
  612SOL     OW 2219   1.413   5.126   5.797 -0.3007 -0.5602 -0.2359
  612SOL    HW2 2220   1.494   5.097   5.838  0.5326 -0.6509 -1.8770
  612SOL    HW3 2221   1.357   5.152   5.870  1.9423  1.4787  0.8727
  612SOL    MW4 2222   1.416   5.126   5.812  0.1052 -0.3032 -0.3062
  613SOL     OW 2223   5.687   0.393   2.648 -0.0875 -0.4986 -0.0246
  613SOL    HW2 2224   5.760   0.422   2.703  0.7391 -1.2572 -0.6735
  613SOL    HW3 2225   5.646   0.322   2.698  0.9044 -1.4525 -0.5242
  613SOL    MW4 2226   5.691   0.387   2.662  0.1524 -0.7246 -0.1761
  614SOL     OW 2227   2.059   0.065   2.427  0.0494  0.1042  0.1641
  614SOL    HW2 2228   1.974   0.041   2.464  0.1730 -0.1689  0.2787
  614SOL    HW3 2229   2.122   0.027   2.488  0.2551 -0.2437 -0.2637
  614SOL    MW4 2230   2.056   0.057   2.440  0.0928  0.0222  0.1227
  615SOL     OW 2231   1.907   3.926   5.768 -0.3908 -0.2582  0.0639
  615SOL    HW2 2232   1.889   3.963   5.682 -0.9160  0.8771  0.6269
  615SOL    HW3 2233   1.928   3.834   5.752  0.2526  0.1171 -1.3320
  615SOL    MW4 2234   1.907   3.919   5.755 -0.3752 -0.0589 -0.0460
  616SOL     OW 2235   5.962   2.687   0.436  0.9505  0.1493 -0.5965
  616SOL    HW2 2236   6.039   2.630   0.431  0.0614 -1.0586 -1.6379
  616SOL    HW3 2237   5.944   2.710   0.344 -0.5168 -0.4846 -0.5050
  616SOL    MW4 2238   5.970   2.682   0.423  0.6396 -0.0937 -0.7218
  617SOL     OW 2239   1.007   6.160   2.383  0.4197  0.4883 -0.3561
  617SOL    HW2 2240   1.080   6.221   2.375  1.2720 -0.6378 -1.6879
  617SOL    HW3 2241   0.938   6.196   2.327 -0.3358  1.8622  1.3549
  617SOL    MW4 2242   1.007   6.173   2.375  0.4325  0.5210 -0.3061
  618SOL     OW 2243   5.708   3.370   2.585  0.2440  0.4133  0.7351
  618SOL    HW2 2244   5.689   3.415   2.503  1.0782 -0.2331  0.1709
  618SOL    HW3 2245   5.785   3.317   2.567  0.5122  0.3360  1.9729
  618SOL    MW4 2246   5.715   3.369   2.572  0.3894  0.3178  0.8240
  619SOL     OW 2247   4.674   5.224   0.313 -0.5780  0.1584 -0.0991
  619SOL    HW2 2248   4.754   5.246   0.265  0.4441 -0.6987  1.1722
  619SOL    HW3 2249   4.687   5.134   0.342 -1.5358  0.3790  1.0702
  619SOL    MW4 2250   4.686   5.215   0.310 -0.5695  0.0744  0.2229
  620SOL     OW 2251   1.460   2.949   5.305  0.3621  0.1711 -0.0891
  620SOL    HW2 2252   1.522   3.021   5.317  1.3835 -0.5961 -0.7030
  620SOL    HW3 2253   1.405   2.953   5.384  0.0288  1.9618 -0.3658
  620SOL    MW4 2254   1.461   2.959   5.317  0.4529  0.3061 -0.2066
  621SOL     OW 2255   2.417   4.010   5.471 -0.7656 -0.0965 -0.1647
  621SOL    HW2 2256   2.355   4.082   5.483  0.0039  0.8967 -1.8649
  621SOL    HW3 2257   2.380   3.959   5.399  0.1972  0.3121 -0.9646
  621SOL    MW4 2258   2.404   4.012   5.463 -0.5370  0.0884 -0.4946
  622SOL     OW 2259   1.769   0.640   2.506 -0.4567 -0.2815  0.1310
  622SOL    HW2 2260   1.700   0.664   2.567  0.6531 -0.0636  1.3346
  622SOL    HW3 2261   1.753   0.547   2.487 -0.9591 -0.2831  0.5422
  622SOL    MW4 2262   1.758   0.631   2.512 -0.3766 -0.2529  0.3441
  623SOL     OW 2263   1.126   4.549   1.659 -0.2652 -0.3657  0.1450
  623SOL    HW2 2264   1.094   4.493   1.730  2.0752 -2.0758 -0.0222
  623SOL    HW3 2265   1.174   4.619   1.703  0.8289 -1.1955  0.3411
  623SOL    MW4 2266   1.128   4.551   1.675  0.1879 -0.7008  0.1488
  624SOL     OW 2267   5.475   0.745   6.173  0.3096 -0.3196 -0.2086
  624SOL    HW2 2268   5.499   0.668   6.225 -0.0665  0.5952  1.4055
  624SOL    HW3 2269   5.382   0.734   6.155  0.0988  0.0380  0.5915
  624SOL    MW4 2270   5.466   0.734   6.178  0.2322 -0.1517  0.1099
  625SOL     OW 2271   4.902   4.412   1.340 -0.2410  0.3140 -0.5353
  625SOL    HW2 2272   4.871   4.322   1.332 -1.9321  0.8883 -0.6836
  625SOL    HW3 2273   4.966   4.421   1.269 -0.1687 -0.7046 -0.6170
  625SOL    MW4 2274   4.907   4.402   1.330 -0.4546  0.2554 -0.5657
  626SOL     OW 2275   1.807   4.356   6.242  0.2666 -0.4255 -0.1666
  626SOL    HW2 2276   1.778   4.439   6.282 -1.9775 -1.2080 -0.0269
  626SOL    HW3 2277   1.874   4.323   6.301  1.0833  1.1902 -0.1342
  626SOL    MW4 2278   1.812   4.363   6.255  0.0783 -0.3155 -0.1439
  627SOL     OW 2279   2.849   2.356   0.469 -0.4205  0.3294 -0.2394
  627SOL    HW2 2280   2.938   2.358   0.435 -0.2673  0.5968  0.1722
  627SOL    HW3 2281   2.825   2.448   0.480 -0.7019  0.2573 -0.2206
  627SOL    MW4 2282   2.857   2.368   0.466 -0.4374  0.3551 -0.1826
  628SOL     OW 2283   1.490   1.268   1.272  0.0243  0.1667 -0.7041
  628SOL    HW2 2284   1.493   1.331   1.201  0.6318 -1.2118 -1.9515
  628SOL    HW3 2285   1.578   1.268   1.309  0.4302 -0.9010 -1.6099
  628SOL    MW4 2286   1.502   1.276   1.268  0.1580 -0.1561 -0.9882
  629SOL     OW 2287   5.739   5.394   3.580  0.3623 -0.1673 -0.9075
  629SOL    HW2 2288   5.727   5.308   3.620 -1.0504  0.2443 -0.3752
  629SOL    HW3 2289   5.757   5.375   3.488  2.3307 -1.0774 -0.3923
  629SOL    MW4 2290   5.740   5.381   3.573  0.4356 -0.2331 -0.7693
  630SOL     OW 2291   6.350   4.304   0.807 -0.2215 -0.1835 -0.3435
  630SOL    HW2 2292   6.277   4.348   0.764  0.1752 -0.0960 -0.9534
  630SOL    HW3 2293   6.425   4.323   0.750 -0.0284 -1.5814 -0.5820
  630SOL    MW4 2294   6.350   4.313   0.794 -0.1437 -0.3564 -0.4554
  631SOL     OW 2295   3.190   2.758   4.764  0.1347  0.0768 -0.5790
  631SOL    HW2 2296   3.258   2.733   4.827 -1.5540  0.2821  1.4346
  631SOL    HW3 2297   3.149   2.675   4.741  0.3802  0.0616 -0.9576
  631SOL    MW4 2298   3.194   2.743   4.770 -0.0557  0.1019 -0.3633
  632SOL     OW 2299   3.513   2.904   1.312 -0.4006 -1.0457 -0.4762
  632SOL    HW2 2300   3.571   2.882   1.386 -0.2862 -1.0634 -0.5716
  632SOL    HW3 2301   3.436   2.943   1.354  0.1817  0.0933 -0.4191
  632SOL    MW4 2302   3.511   2.906   1.328 -0.3087 -0.8978 -0.4812
  633SOL     OW 2303   5.098   1.323   6.044  0.3102 -0.1967  0.1851
  633SOL    HW2 2304   5.168   1.285   6.098  1.3578  2.4531  0.8632
  633SOL    HW3 2305   5.086   1.260   5.972  1.8316 -1.7827  1.2336
  633SOL    MW4 2306   5.106   1.309   6.042  0.6491 -0.0564  0.4129
  634SOL     OW 2307   1.396   5.148   2.208  0.4692  0.2395  0.2152
  634SOL    HW2 2308   1.334   5.204   2.161  1.6347 -0.0388 -1.7620
  634SOL    HW3 2309   1.362   5.059   2.194 -0.8153  0.2878  2.4956
  634SOL    MW4 2310   1.383   5.144   2.200  0.4535  0.2092  0.2552
  635SOL     OW 2311   0.173   4.322   0.041  0.1196 -0.4692  0.3512
  635SOL    HW2 2312   0.244   4.269   0.078  0.9132 -0.4491 -1.0515
  635SOL    HW3 2313   0.093   4.280   0.071  0.7350 -1.7288  0.2967
  635SOL    MW4 2314   0.172   4.310   0.050  0.3055 -0.6327  0.1590
  636SOL     OW 2315   1.851   4.511   3.601 -0.1769 -0.0145  0.6817
  636SOL    HW2 2316   1.908   4.576   3.560 -2.0112 -0.0202 -2.1036
  636SOL    HW3 2317   1.899   4.428   3.593 -0.3904  0.0263 -1.3208
  636SOL    MW4 2318   1.865   4.509   3.595 -0.4471 -0.0099  0.0500
  637SOL     OW 2319   2.410   2.155   0.556  0.0241 -0.4311  0.2467
  637SOL    HW2 2320   2.385   2.069   0.523 -0.8165  0.1408 -0.6689
  637SOL    HW3 2321   2.505   2.150   0.566  0.3131 -0.7329 -2.0660
  637SOL    MW4 2322   2.419   2.143   0.553 -0.0486 -0.3955 -0.1793
  638SOL     OW 2323   2.504   3.484   4.547  0.5379 -0.1366  0.0987
  638SOL    HW2 2324   2.521   3.464   4.639  0.0646 -0.4848  0.1083
  638SOL    HW3 2325   2.409   3.495   4.541  0.4841 -0.8529 -0.4913
  638SOL    MW4 2326   2.494   3.483   4.558  0.4684 -0.2771  0.0221
  639SOL     OW 2327   2.816   2.850   3.088  0.2798  0.0921  0.0751
  639SOL    HW2 2328   2.827   2.776   3.148 -0.9162 -1.8254 -1.9233
  639SOL    HW3 2329   2.725   2.844   3.059  0.6116  1.3832 -1.3605
  639SOL    MW4 2330   2.806   2.839   3.092  0.1658  0.0095 -0.3780
  640SOL     OW 2331   5.133   2.458   0.019  0.2660  0.0778  0.1522
  640SOL    HW2 2332   5.132   2.452  -0.076 -1.4845  0.4767  0.1252
  640SOL    HW3 2333   5.043   2.479   0.044  0.7879  0.4956  1.8654
  640SOL    MW4 2334   5.121   2.460   0.010  0.1039  0.1855  0.3747
  641SOL     OW 2335   5.859   0.414   0.358  0.0698 -0.0276 -0.5483
  641SOL    HW2 2336   5.845   0.504   0.388 -0.2962 -0.9126  2.1421
  641SOL    HW3 2337   5.947   0.391   0.389 -0.7091 -1.3115  0.8057
  641SOL    MW4 2338   5.869   0.423   0.366 -0.0812 -0.3138 -0.0147
  642SOL     OW 2339   3.997   0.703   1.315  0.7297  0.3407  0.2517
  642SOL    HW2 2340   4.061   0.768   1.347  1.1731  0.0773 -0.0852
  642SOL    HW3 2341   3.973   0.653   1.393  1.5879 -0.1105  0.2466
  642SOL    MW4 2342   4.002   0.705   1.329  0.9014  0.2464  0.2066
  643SOL     OW 2343   3.635   4.631   2.387  0.5073 -0.2848  0.2305
  643SOL    HW2 2344   3.553   4.585   2.367 -0.3342  1.3495 -0.3003
  643SOL    HW3 2345   3.631   4.647   2.481 -0.1373  0.4115  0.0917
  643SOL    MW4 2346   3.624   4.627   2.396  0.3112  0.0227  0.1421
  644SOL     OW 2347   2.128   2.717   1.620  0.1134 -0.1114 -0.5348
  644SOL    HW2 2348   2.071   2.744   1.548  0.7593  2.4552 -0.2002
  644SOL    HW3 2349   2.115   2.623   1.628 -1.1609 -0.2089 -2.9560
  644SOL    MW4 2350   2.119   2.708   1.612  0.0305  0.2144 -0.8101
  645SOL     OW 2351   2.500   0.036   3.695 -0.2240  0.5127 -0.1731
  645SOL    HW2 2352   2.514   0.046   3.601 -2.0080  1.3705 -0.3757
  645SOL    HW3 2353   2.515   0.123   3.731  1.4199 -0.0110  0.5234
  645SOL    MW4 2354   2.504   0.048   3.687 -0.2425  0.5568 -0.1079
  646SOL     OW 2355   5.237   0.536   5.823 -0.2180  0.0645 -0.0264
  646SOL    HW2 2356   5.331   0.531   5.842 -0.3315 -1.0837  0.3514
  646SOL    HW3 2357   5.212   0.445   5.805 -1.1941  0.4055 -0.4438
  646SOL    MW4 2358   5.246   0.523   5.823 -0.3618 -0.0420 -0.0316
  647SOL     OW 2359   4.342   0.731   6.146 -0.2169 -0.4293  0.0917
  647SOL    HW2 2360   4.348   0.780   6.065 -1.3754  0.4619  0.5079
  647SOL    HW3 2361   4.414   0.668   6.142  1.5819  1.5338 -0.2844
  647SOL    MW4 2362   4.352   0.729   6.135 -0.1324 -0.0527  0.0970
  648SOL     OW 2363   0.875   4.067   0.280 -0.0836 -0.8003 -0.3184
  648SOL    HW2 2364   0.953   4.012   0.282  0.6493  0.0962 -1.7541
  648SOL    HW3 2365   0.910   4.157   0.279 -1.2452 -0.2436  2.3296
  648SOL    MW4 2366   0.890   4.072   0.280 -0.1402 -0.6086 -0.1585
  649SOL     OW 2367   3.824   6.421   0.523 -0.3659 -0.1203  0.0112
  649SOL    HW2 2368   3.833   6.488   0.591 -1.4165  0.1752 -0.1201
  649SOL    HW3 2369   3.910   6.418   0.481  0.9665 -1.7357  2.6115
  649SOL    MW4 2370   3.836   6.430   0.526 -0.3287 -0.2944  0.3369
  650SOL     OW 2371   0.219   4.808   4.511  0.1932  0.5791 -0.5076
  650SOL    HW2 2372   0.223   4.867   4.436 -2.2637  0.2348 -1.0027
  650SOL    HW3 2373   0.175   4.860   4.579 -2.5762 -0.7165 -1.1451
  650SOL    MW4 2374   0.213   4.823   4.510 -0.4963  0.3627 -0.6571
  651SOL     OW 2375   0.212   4.348   5.415 -0.2738 -0.2578 -0.7958
  651SOL    HW2 2376   0.176   4.437   5.418  1.4997  0.5104 -0.6080
  651SOL    HW3 2377   0.256   4.338   5.500  0.4037 -0.9242 -1.2196
  651SOL    MW4 2378   0.213   4.359   5.427  0.0496 -0.2444 -0.8270
  652SOL     OW 2379   2.463   0.608   4.976  0.3299 -0.0593 -0.2944
  652SOL    HW2 2380   2.388   0.667   4.967 -0.1238 -0.7311 -0.9831
  652SOL    HW3 2381   2.493   0.594   4.887  2.0294  1.1402  0.0561
  652SOL    MW4 2382   2.457   0.614   4.963  0.4943  0.0103 -0.3390
  653SOL     OW 2383   1.486   2.292   1.467 -0.7697 -0.1409  0.3012
  653SOL    HW2 2384   1.521   2.231   1.532  0.7968 -0.4819 -0.7907
  653SOL    HW3 2385   1.418   2.242   1.421  0.9707 -1.4270 -1.0609
  653SOL    MW4 2386   1.482   2.277   1.469 -0.3334 -0.3556 -0.0225
  654SOL     OW 2387   1.916   1.539   3.789  0.7553  0.1129  0.0994
  654SOL    HW2 2388   1.904   1.582   3.704  0.2447 -0.0681  0.0730
  654SOL    HW3 2389   1.834   1.490   3.802  1.0048 -0.2001  0.4988
  654SOL    MW4 2390   1.903   1.538   3.780  0.7208  0.0477  0.1486
  655SOL     OW 2391   5.624   5.164   2.704 -0.5202  0.5089  0.1408
  655SOL    HW2 2392   5.646   5.254   2.680 -0.5262  0.2182 -0.9717
  655SOL    HW3 2393   5.703   5.114   2.685 -0.5444  0.2566  0.6857
  655SOL    MW4 2394   5.637   5.170   2.699 -0.5242  0.4372  0.0659
  656SOL     OW 2395   0.964   0.265   4.053  0.3858  0.0898  0.2297
  656SOL    HW2 2396   0.988   0.344   4.005  0.0048  2.4641  3.6285
  656SOL    HW3 2397   0.874   0.247   4.024  0.6060  0.6430 -0.8679
  656SOL    MW4 2398   0.955   0.273   4.043  0.3646  0.4760  0.5333
  657SOL     OW 2399   4.091   0.252   5.924 -0.2611  0.2526  0.0984
  657SOL    HW2 2400   4.118   0.306   5.998 -0.6974  2.9279 -1.5697
  657SOL    HW3 2401   4.148   0.279   5.852 -2.3924  0.6194 -1.5583
  657SOL    MW4 2402   4.102   0.263   5.924 -0.5999  0.6540 -0.3403
  658SOL     OW 2403   2.430   5.450   5.891 -0.3170  0.4534 -0.4200
  658SOL    HW2 2404   2.483   5.486   5.962  1.7285 -1.7332 -0.7009
  658SOL    HW3 2405   2.354   5.413   5.934 -0.4126  1.4401  0.3003
  658SOL    MW4 2406   2.427   5.450   5.906 -0.0597  0.2951 -0.3621
  659SOL     OW 2407   0.368   4.302   0.815  0.3119 -0.2868 -0.1116
  659SOL    HW2 2408   0.318   4.224   0.837  0.3430 -0.1257  0.5364
  659SOL    HW3 2409   0.348   4.364   0.884 -1.4094  1.0745 -1.7156
  659SOL    MW4 2410   0.359   4.300   0.827  0.0889 -0.0860 -0.2377
  660SOL     OW 2411   0.544   1.083   3.209 -0.0314 -0.1307 -0.2898
  660SOL    HW2 2412   0.480   1.016   3.233  0.1173 -0.2545 -0.2380
  660SOL    HW3 2413   0.626   1.053   3.249 -0.1227  0.4507  0.3515
  660SOL    MW4 2414   0.546   1.070   3.217 -0.0238 -0.0703 -0.1983
  661SOL     OW 2415   0.332   3.324   0.796 -0.5176  0.4360 -0.2667
  661SOL    HW2 2416   0.391   3.346   0.868  0.7283  0.0348 -1.1269
  661SOL    HW3 2417   0.381   3.347   0.717 -0.4854 -2.1306 -1.0849
  661SOL    MW4 2418   0.346   3.330   0.795 -0.3490  0.0444 -0.4881
  662SOL     OW 2419   0.566   4.468   5.768 -0.2607 -0.3246 -0.3261
  662SOL    HW2 2420   0.513   4.548   5.774 -1.1670 -0.9856  0.8288
  662SOL    HW3 2421   0.649   4.491   5.812 -0.3186  0.1338 -0.4549
  662SOL    MW4 2422   0.570   4.482   5.775 -0.3879 -0.3513 -0.1907
  663SOL     OW 2423   1.640   0.178   3.531 -0.1763 -0.2493  0.3830
  663SOL    HW2 2424   1.705   0.109   3.537  0.4005  0.1497 -0.7438
  663SOL    HW3 2425   1.620   0.184   3.437 -0.0918  1.2012  0.4311
  663SOL    MW4 2426   1.646   0.170   3.519 -0.0891 -0.0053  0.2406
  664SOL     OW 2427   4.255   3.331   4.061  0.1534  0.9747 -0.3900
  664SOL    HW2 2428   4.241   3.405   4.001 -0.0155  0.7396 -0.6444
  664SOL    HW3 2429   4.333   3.287   4.027 -1.7407 -1.0844 -2.4497
  664SOL    MW4 2430   4.263   3.335   4.049 -0.1188  0.6720 -0.6953
  665SOL     OW 2431   0.056   3.542   1.919 -0.2840 -0.1239 -0.4415
  665SOL    HW2 2432   0.127   3.591   1.961 -1.8759  1.3602  0.6749
  665SOL    HW3 2433   0.092   3.513   1.835  1.5368  0.7908 -0.0166
  665SOL    MW4 2434   0.070   3.544   1.914 -0.2538  0.1926 -0.2381
  666SOL     OW 2435   0.833   1.244   0.757  0.3823  0.2925 -0.2026
  666SOL    HW2 2436   0.748   1.205   0.780  0.4155  0.7796  0.8114
  666SOL    HW3 2437   0.890   1.170   0.738 -0.2849 -0.0400 -0.9901
  666SOL    MW4 2438   0.829   1.229   0.757  0.2986  0.3129 -0.1727
  667SOL     OW 2439   3.340   4.273   3.856 -0.1267  0.4909 -0.3817
  667SOL    HW2 2440   3.302   4.213   3.920 -0.5793  1.4108  0.2344
  667SOL    HW3 2441   3.433   4.253   3.856 -0.3852 -0.8070 -0.8477
  667SOL    MW4 2442   3.347   4.263   3.864 -0.2205  0.4410 -0.3619
  668SOL     OW 2443   1.867   3.668   0.269 -0.0660  0.1728  0.6212
  668SOL    HW2 2444   1.809   3.594   0.286 -0.5980  0.1636 -1.0315
  668SOL    HW3 2445   1.909   3.646   0.186  1.4222  0.7370  1.2055
  668SOL    MW4 2446   1.865   3.655   0.260  0.0602  0.2460  0.4802
  669SOL     OW 2447   4.309   4.119   0.256  0.7862 -0.4931  0.1439
  669SOL    HW2 2448   4.400   4.096   0.235  0.5868 -0.4300 -0.8432
  669SOL    HW3 2449   4.258   4.084   0.183  0.1523  0.5163  0.0736
  669SOL    MW4 2450   4.315   4.112   0.244  0.6763 -0.3516  0.0044
  670SOL     OW 2451   2.139   2.605   0.915 -0.1425  0.0258 -0.4786
  670SOL    HW2 2452   2.216   2.624   0.861  0.8003 -0.5316  0.6086
  670SOL    HW3 2453   2.148   2.663   0.991 -0.5663 -0.3284 -0.1483
  670SOL    MW4 2454   2.151   2.615   0.918 -0.0740 -0.0944 -0.2916
  671SOL     OW 2455   5.354   5.729   1.305  0.4758  0.2636 -0.1084
  671SOL    HW2 2456   5.366   5.779   1.224 -2.2985 -0.6307 -1.1908
  671SOL    HW3 2457   5.378   5.790   1.375  3.3413  0.9256 -1.5299
  671SOL    MW4 2458   5.359   5.744   1.304  0.4878  0.2329 -0.4388
  672SOL     OW 2459   0.312   0.836   3.669 -1.3277 -0.2154 -0.3100
  672SOL    HW2 2460   0.382   0.880   3.622 -0.3049 -0.4609  0.9265
  672SOL    HW3 2461   0.303   0.885   3.751 -1.8459 -0.8406  0.0233
  672SOL    MW4 2462   0.320   0.848   3.674 -1.2612 -0.3303 -0.1029
  673SOL     OW 2463   1.607   5.144   4.237 -0.9531  0.6722  0.2889
  673SOL    HW2 2464   1.658   5.225   4.239 -0.6137  0.5330 -1.2762
  673SOL    HW3 2465   1.672   5.075   4.224 -1.3771  0.3134  0.0367
  673SOL    MW4 2466   1.622   5.145   4.235 -0.9643  0.6065  0.0491
  674SOL     OW 2467   2.847   4.904   5.935  0.8609 -0.1190 -0.5764
  674SOL    HW2 2468   2.773   4.919   5.876  0.7128  1.0772 -0.1062
  674SOL    HW3 2469   2.923   4.938   5.888  0.5684  1.9590  0.3701
  674SOL    MW4 2470   2.847   4.910   5.921  0.8028  0.3130 -0.3895
  675SOL     OW 2471   1.359   2.547   4.774 -0.0111 -0.3345 -0.0577
  675SOL    HW2 2472   1.445   2.506   4.773 -0.8732 -2.2432  0.1853
  675SOL    HW3 2473   1.311   2.504   4.704 -1.3465 -0.6797  1.0293
  675SOL    MW4 2474   1.364   2.536   4.765 -0.3010 -0.6318  0.1178
  676SOL     OW 2475   3.819   1.409   3.640 -0.2088  0.3069  0.0673
  676SOL    HW2 2476   3.747   1.448   3.690  0.7252  2.4649 -0.1410
  676SOL    HW3 2477   3.776   1.365   3.567 -1.3539  1.2356  0.1489
  676SOL    MW4 2478   3.804   1.409   3.637 -0.2367  0.7142  0.0506
  677SOL     OW 2479   0.561   4.805   1.139 -0.0628  0.3132  0.3601
  677SOL    HW2 2480   0.589   4.752   1.064  0.8437  0.0667  0.8629
  677SOL    HW3 2481   0.633   4.866   1.154 -0.3895  0.5911  0.8211
  677SOL    MW4 2482   0.574   4.806   1.131  0.0137  0.3174  0.4873
  678SOL     OW 2483   1.379   4.803   6.054  0.0602 -0.0034  0.3514
  678SOL    HW2 2484   1.348   4.824   6.142  1.7931  0.9294  0.7863
  678SOL    HW3 2485   1.318   4.848   5.995 -1.1189 -0.6476  1.0504
  678SOL    MW4 2486   1.367   4.812   6.058  0.1333  0.0347  0.5010
  679SOL     OW 2487   4.423   1.120   3.131  0.2119 -0.4632 -0.3394
  679SOL    HW2 2488   4.435   1.197   3.187 -0.7722 -0.8436  0.4366
  679SOL    HW3 2489   4.406   1.048   3.192  0.2675 -1.1286 -1.0874
  679SOL    MW4 2490   4.422   1.121   3.147  0.0894 -0.6012 -0.3357
  680SOL     OW 2491   1.570   1.233   4.890  0.1507  0.0511  0.1686
  680SOL    HW2 2492   1.587   1.186   4.971 -0.0186  0.2969  0.3465
  680SOL    HW3 2493   1.561   1.324   4.916  1.9744  0.4151 -0.3661
  680SOL    MW4 2494   1.571   1.239   4.904  0.3690  0.1315  0.1215
  681SOL     OW 2495   0.917   1.148   2.498 -0.5943  0.2915 -0.1816
  681SOL    HW2 2496   0.862   1.139   2.420 -0.6367  0.6520 -0.1976
  681SOL    HW3 2497   0.865   1.201   2.558 -1.3899 -1.6280  0.9065
  681SOL    MW4 2498   0.903   1.154   2.495 -0.7049  0.0858 -0.0401
  682SOL     OW 2499   0.078   3.659   2.260 -0.4334 -0.0194 -0.2469
  682SOL    HW2 2500   0.120   3.733   2.217  0.3733 -0.2004  0.2033
  682SOL    HW3 2501   0.141   3.631   2.327 -0.8126 -0.9765 -0.2659
  682SOL    MW4 2502   0.092   3.665   2.263 -0.3770 -0.1695 -0.1900
  683SOL     OW 2503   0.898   0.581   2.275 -0.6122 -0.3557 -0.3794
  683SOL    HW2 2504   0.838   0.586   2.201 -0.5001 -2.4067 -0.6662
  683SOL    HW3 2505   0.970   0.525   2.245 -1.1325 -2.2291  1.5863
  683SOL    MW4 2506   0.900   0.574   2.261 -0.6661 -0.8735 -0.1579
  684SOL     OW 2507   2.180   4.089   4.559 -0.0989  0.8093  0.3516
  684SOL    HW2 2508   2.129   4.054   4.633  2.8648 -3.9967  0.5769
  684SOL    HW3 2509   2.136   4.055   4.481  1.8557 -2.5333  0.5153
  684SOL    MW4 2510   2.167   4.080   4.559  0.5500 -0.2658  0.4030
  685SOL     OW 2511   0.699   1.425   5.764  0.3834 -0.4606 -0.0813
  685SOL    HW2 2512   0.642   1.368   5.713 -0.1435 -1.5474  1.6536
  685SOL    HW3 2513   0.651   1.508   5.769 -0.6507 -1.0806  0.6155
  685SOL    MW4 2514   0.685   1.429   5.758  0.1775 -0.6858  0.2395
  686SOL     OW 2515   0.102   1.053   3.393  0.3865 -0.0529 -0.0624
  686SOL    HW2 2516   0.014   1.017   3.405  0.1112  0.7933  0.5539
  686SOL    HW3 2517   0.112   1.058   3.298 -0.1959 -0.2380 -0.1413
  686SOL    MW4 2518   0.091   1.049   3.382  0.2733  0.0343  0.0085
  687SOL     OW 2519   0.587   0.693   2.334  0.4086 -0.5049  0.5237
  687SOL    HW2 2520   0.666   0.710   2.386  1.8218  1.8331 -2.0732
  687SOL    HW3 2521   0.558   0.780   2.306  1.0190 -1.5335 -4.1260
  687SOL    MW4 2522   0.594   0.706   2.337  0.6756 -0.3321 -0.4324
  688SOL     OW 2523   0.529   2.941   6.235 -0.0021 -0.0793  0.2651
  688SOL    HW2 2524   0.495   3.027   6.258 -0.7203  0.0916 -1.3135
  688SOL    HW3 2525   0.547   2.946   6.141  2.8315 -0.7139  0.6947
  688SOL    MW4 2526   0.527   2.953   6.226  0.2770 -0.1405  0.1135
  689SOL     OW 2527   4.267   5.562   3.909  0.0702  0.8441  0.6485
  689SOL    HW2 2528   4.274   5.556   3.813  0.2855  0.8167  0.6676
  689SOL    HW3 2529   4.344   5.517   3.942  0.4588  1.6170  0.8200
  689SOL    MW4 2530   4.278   5.555   3.900  0.1499  0.9424  0.6736
  690SOL     OW 2531   3.377   3.219   3.000  0.2413  0.0264 -0.0697
  690SOL    HW2 2532   3.445   3.154   3.018  0.8150 -0.4345 -3.2044
  690SOL    HW3 2533   3.302   3.167   2.971 -0.1056  0.6727 -0.3481
  690SOL    MW4 2534   3.376   3.203   2.998  0.2712  0.0508 -0.5200
  691SOL     OW 2535   3.391   2.483   3.752  0.1906  0.4675  0.3391
  691SOL    HW2 2536   3.345   2.402   3.771  0.8260  0.3140  1.2554
  691SOL    HW3 2537   3.457   2.492   3.821  1.8250  0.4746 -1.1232
  691SOL    MW4 2538   3.394   2.474   3.764  0.4901  0.4482  0.2671
  692SOL     OW 2539   1.934   2.150   2.344  0.5148  0.1886 -0.4780
  692SOL    HW2 2540   1.856   2.203   2.361  0.1140 -0.8659  1.2287
  692SOL    HW3 2541   2.001   2.187   2.402  0.4131 -0.7511  0.2534
  692SOL    MW4 2542   1.933   2.162   2.354  0.4485 -0.0745 -0.1563
  693SOL     OW 2543   3.198   0.131   5.415 -0.4468 -1.0635 -0.2512
  693SOL    HW2 2544   3.191   0.094   5.327  1.4424 -1.7805 -0.1515
  693SOL    HW3 2545   3.131   0.199   5.418 -0.9511 -1.4307 -2.0283
  693SOL    MW4 2546   3.188   0.135   5.404 -0.2641 -1.2065 -0.4725
  694SOL     OW 2547   0.850   4.332   0.678 -0.2420  0.0335  0.1236
  694SOL    HW2 2548   0.821   4.338   0.587 -1.7489  0.8333  0.6113
  694SOL    HW3 2549   0.817   4.248   0.709  1.0277 -0.6449 -0.2801
  694SOL    MW4 2550   0.842   4.322   0.670 -0.2733  0.0495  0.1346
  695SOL     OW 2551   4.860   4.036   5.729 -0.1048  0.0014  0.2570
  695SOL    HW2 2552   4.903   3.975   5.788  0.3794 -1.2449 -1.2978
  695SOL    HW3 2553   4.931   4.072   5.675 -0.5285  1.0872  0.3950
  695SOL    MW4 2554   4.875   4.033   5.730 -0.0968 -0.0198  0.0700
  696SOL     OW 2555   4.854   2.312   0.390 -0.2516  0.5357  0.0603
  696SOL    HW2 2556   4.844   2.278   0.479 -0.9084  0.0861 -0.1798
  696SOL    HW3 2557   4.884   2.237   0.339  0.3761  0.8571 -0.0523
  696SOL    MW4 2558   4.857   2.298   0.395 -0.2554  0.5188  0.0138
  697SOL     OW 2559   5.084   1.641   4.687  0.0237  0.0940  0.1816
  697SOL    HW2 2560   5.148   1.603   4.627 -2.0859 -0.0376 -2.1531
  697SOL    HW3 2561   5.116   1.618   4.775  2.5652 -0.8182 -0.8954
  697SOL    MW4 2562   5.096   1.633   4.691  0.0807 -0.0437 -0.2685
  698SOL     OW 2563   5.834   5.109   1.281 -0.2655 -0.3201 -0.0700
  698SOL    HW2 2564   5.768   5.089   1.215  0.4891  0.4131 -1.0852
  698SOL    HW3 2565   5.910   5.057   1.256  0.1463  0.2283 -0.0054
  698SOL    MW4 2566   5.835   5.100   1.269 -0.1116 -0.1510 -0.1954
  699SOL     OW 2567   5.961   1.297   3.769  0.0199 -0.3940  0.1133
  699SOL    HW2 2568   5.929   1.219   3.724 -0.3749  0.2300 -0.7056
  699SOL    HW3 2569   6.052   1.276   3.791 -0.2218 -1.2552  0.3074
  699SOL    MW4 2570   5.969   1.284   3.766 -0.0641 -0.4253  0.0309
  700SOL     OW 2571   3.758   2.987   5.012 -0.6963 -0.5154  0.0476
  700SOL    HW2 2572   3.832   3.008   4.956 -0.4361 -2.0043 -0.2050
  700SOL    HW3 2573   3.747   3.064   5.068 -0.2948  0.5711 -1.3176
  700SOL    MW4 2574   3.766   3.000   5.012 -0.6090 -0.5685 -0.1658
  701SOL     OW 2575   5.779   1.952   1.929  0.8761  0.0070  0.8909
  701SOL    HW2 2576   5.754   1.874   1.977  0.8457  0.0977  1.0232
  701SOL    HW3 2577   5.699   1.979   1.883  1.3750 -1.1676 -0.7454
  701SOL    MW4 2578   5.765   1.946   1.929  0.9379 -0.1360  0.6925
  702SOL     OW 2579   0.633   0.867   1.119  0.2067  0.3248 -0.1455
  702SOL    HW2 2580   0.619   0.784   1.073  0.5070 -0.3544  0.9412
  702SOL    HW3 2581   0.650   0.930   1.050  0.6550 -0.6629 -0.9709
  702SOL    MW4 2582   0.634   0.864   1.104  0.3055  0.1048 -0.1110
  703SOL     OW 2583   0.835   5.962   2.061 -0.4902 -0.5946  0.6739
  703SOL    HW2 2584   0.900   5.933   2.125 -1.4056 -0.4874  1.6936
  703SOL    HW3 2585   0.794   6.039   2.102 -0.7297 -0.1991 -0.2820
  703SOL    MW4 2586   0.838   5.969   2.075 -0.6426 -0.5283  0.6823
  704SOL     OW 2587   3.265   6.206   1.076  0.0201  0.1098  0.0780
  704SOL    HW2 2588   3.327   6.232   1.144 -1.0193  0.9474  0.7316
  704SOL    HW3 2589   3.209   6.141   1.119  0.1475 -0.3075 -0.3731
  704SOL    MW4 2590   3.266   6.201   1.091 -0.1003  0.1653  0.1047
  705SOL     OW 2591   2.564   2.046   0.871 -0.6176  0.9991  0.6294
  705SOL    HW2 2592   2.469   2.060   0.867 -1.0081 -1.2869  0.4444
  705SOL    HW3 2593   2.589   2.081   0.956 -1.9746  0.0613  1.4618
  705SOL    MW4 2594   2.555   2.053   0.882 -0.8482  0.5737  0.7148
  706SOL     OW 2595   5.239   0.453   6.272 -0.9806  0.0878  0.2343
  706SOL    HW2 2596   5.334   0.468   6.265 -0.9645 -0.4110 -0.6641
  706SOL    HW3 2597   5.221   0.379   6.214 -1.9610  0.3225  0.2173
  706SOL    MW4 2598   5.249   0.446   6.264 -1.1078  0.0530  0.1135
  707SOL     OW 2599   2.162   1.972   1.425 -0.4075 -0.2351  0.5324
  707SOL    HW2 2600   2.186   2.035   1.493  0.8699  2.0967 -1.8721
  707SOL    HW3 2601   2.235   1.911   1.421  0.4757  0.8208 -0.0167
  707SOL    MW4 2602   2.175   1.972   1.433 -0.1225  0.2119  0.1427
  708SOL     OW 2603   3.668   2.567   1.769 -0.1593 -0.1308  0.2845
  708SOL    HW2 2604   3.659   2.473   1.750 -0.0782 -0.3740  1.3974
  708SOL    HW3 2605   3.762   2.583   1.762 -0.2364  0.0313 -0.5667
  708SOL    MW4 2606   3.679   2.556   1.765 -0.1588 -0.1415  0.3190
  709SOL     OW 2607   1.139   0.131   1.662  0.8964  0.8434 -0.4849
  709SOL    HW2 2608   1.221   0.179   1.675  1.5978  0.0775 -1.8167
  709SOL    HW3 2609   1.146   0.096   1.573 -0.0551 -0.8151  0.0535
  709SOL    MW4 2610   1.151   0.133   1.652  0.8634  0.5236 -0.5896
  710SOL     OW 2611   5.307   4.303   3.107 -0.1580 -0.4211 -0.1477
  710SOL    HW2 2612   5.221   4.333   3.136 -0.1497 -0.3223 -0.2247
  710SOL    HW3 2613   5.369   4.361   3.152 -0.1345 -0.4441 -0.1507
  710SOL    MW4 2614   5.304   4.315   3.117 -0.1538 -0.4111 -0.1583
  711SOL     OW 2615   6.007   4.922   1.886 -0.2227 -0.0602 -0.2204
  711SOL    HW2 2616   5.975   4.851   1.832  0.2135 -1.5315  1.3672
  711SOL    HW3 2617   6.102   4.920   1.876 -0.1572 -0.1629  0.3589
  711SOL    MW4 2618   6.015   4.912   1.878 -0.1565 -0.2678  0.0655
  712SOL     OW 2619   5.567   1.713   3.029 -0.1250  0.0446  0.1624
  712SOL    HW2 2620   5.634   1.680   3.089  2.8277  1.0366 -2.3081
  712SOL    HW3 2621   5.578   1.660   2.950 -2.8917 -0.2669 -0.1115
  712SOL    MW4 2622   5.578   1.702   3.027 -0.1004  0.1344 -0.1997
  713SOL     OW 2623   0.183   5.526   5.072 -0.7206  0.7345  0.4578
  713SOL    HW2 2624   0.114   5.486   5.124 -0.4253  0.3163  0.5389
  713SOL    HW3 2625   0.264   5.487   5.106 -0.2628  2.5551  1.6062
  713SOL    MW4 2626   0.185   5.516   5.083 -0.6212  0.9195  0.6200
  714SOL     OW 2627   3.096   3.643   4.247 -0.3173 -0.7253 -0.3512
  714SOL    HW2 2628   3.078   3.737   4.244  1.2045 -0.4380 -1.9222
  714SOL    HW3 2629   3.055   3.613   4.328  0.9717  1.6754  1.2806
  714SOL    MW4 2630   3.088   3.651   4.257  0.0536 -0.3706 -0.3431
  715SOL     OW 2631   4.209   3.848   0.776 -0.2115 -0.3488 -0.2724
  715SOL    HW2 2632   4.166   3.872   0.694 -2.2600 -3.2504 -0.2057
  715SOL    HW3 2633   4.287   3.800   0.748  0.2453  0.4847 -0.4628
  715SOL    MW4 2634   4.213   3.845   0.761 -0.4215 -0.6217 -0.2887
  716SOL     OW 2635   2.285   4.673   3.737  0.0987 -0.5233 -0.0885
  716SOL    HW2 2636   2.206   4.649   3.785 -1.2799  2.0047 -0.8893
  716SOL    HW3 2637   2.299   4.601   3.675 -0.9501 -1.5031  0.7805
  716SOL    MW4 2638   2.276   4.660   3.735 -0.2216 -0.3190 -0.0795
  717SOL     OW 2639   3.679   4.808   0.209 -0.4849  0.2377 -0.8465
  717SOL    HW2 2640   3.642   4.871   0.271  1.6240  0.3901  0.3606
  717SOL    HW3 2641   3.616   4.736   0.207 -0.8725  0.4646  1.0987
  717SOL    MW4 2642   3.666   4.807   0.217 -0.2578  0.2878 -0.4306
  718SOL     OW 2643   5.981   3.607   3.097 -0.1875  0.4345 -0.3453
  718SOL    HW2 2644   6.001   3.596   3.004 -0.0963  0.4029 -0.3219
  718SOL    HW3 2645   5.966   3.518   3.129  0.9494  0.3375 -0.0656
  718SOL    MW4 2646   5.981   3.594   3.089 -0.0255  0.4175 -0.3053
  719SOL     OW 2647   3.605   2.504   3.908  0.0255  0.1374  0.4383
  719SOL    HW2 2648   3.626   2.597   3.910 -1.7207  0.6879 -1.8511
  719SOL    HW3 2649   3.686   2.461   3.884  0.0456  1.5476 -2.4447
  719SOL    MW4 2650   3.618   2.511   3.905 -0.2022  0.3961 -0.2441
  720SOL     OW 2651   2.764   3.464   1.157 -0.3587 -1.2904  0.1085
  720SOL    HW2 2652   2.700   3.401   1.191 -1.5458 -0.5531 -0.7020
  720SOL    HW3 2653   2.759   3.455   1.062 -0.9225  0.3522 -0.0483
  720SOL    MW4 2654   2.755   3.454   1.149 -0.5897 -0.9764 -0.0191
  721SOL     OW 2655   1.514   1.075   3.639 -0.1138  0.3320 -0.7061
  721SOL    HW2 2656   1.477   0.989   3.617 -0.0892  0.2389 -0.3865
  721SOL    HW3 2657   1.534   1.069   3.732  1.6481  0.0336 -1.0748
  721SOL    MW4 2658   1.512   1.063   3.649  0.1219  0.2804 -0.7126
  722SOL     OW 2659   5.362   5.499   1.633  0.0397 -0.7199 -0.1870
  722SOL    HW2 2660   5.454   5.477   1.618  0.6983 -0.1270  2.4696
  722SOL    HW3 2661   5.363   5.591   1.659 -1.3310 -0.6697 -0.2244
  722SOL    MW4 2662   5.375   5.508   1.634 -0.0542 -0.6351  0.1586
  723SOL     OW 2663   2.299   0.426   1.109  0.0628 -0.4481  0.2834
  723SOL    HW2 2664   2.385   0.386   1.100  0.2333  0.2410 -1.7298
  723SOL    HW3 2665   2.271   0.405   1.198  2.0603 -1.1571  0.7848
  723SOL    MW4 2666   2.307   0.418   1.120  0.3488 -0.4507  0.0839
  724SOL     OW 2667   2.212   6.114   5.977  0.2678  0.1278  0.4505
  724SOL    HW2 2668   2.134   6.132   5.924 -0.0783  0.9832  1.2201
  724SOL    HW3 2669   2.226   6.195   6.026  0.0953 -0.8789  2.2549
  724SOL    MW4 2670   2.203   6.127   5.976  0.1994  0.1078  0.7901
  725SOL     OW 2671   6.047   5.480   1.229 -0.0117 -0.3133 -0.2200
  725SOL    HW2 2672   6.089   5.394   1.229  1.0025  0.1466 -1.3726
  725SOL    HW3 2673   5.958   5.462   1.200  0.7261 -0.7898 -2.3749
  725SOL    MW4 2674   6.041   5.466   1.225  0.2195 -0.3155 -0.6564
  726SOL     OW 2675   0.209   4.063   3.740  0.4699 -0.7692 -0.3972
  726SOL    HW2 2676   0.138   4.056   3.804  1.1520 -0.5804  0.4031
  726SOL    HW3 2677   0.182   4.008   3.667 -1.0696  0.2640 -0.6498
  726SOL    MW4 2678   0.196   4.055   3.739  0.3568 -0.6080 -0.3249
  727SOL     OW 2679   0.953   4.039   5.819  0.0944  0.2498  0.3448
  727SOL    HW2 2680   0.990   3.957   5.851 -0.5512  0.0962  0.7137
  727SOL    HW3 2681   0.892   4.012   5.750  1.3447  0.5661 -0.9312
  727SOL    MW4 2682   0.950   4.024   5.814  0.1742  0.2712  0.2251
  728SOL     OW 2683   3.646   2.734   5.953  0.0433 -0.1162  0.0480
  728SOL    HW2 2684   3.738   2.749   5.930  0.7276 -1.6034  1.5606
  728SOL    HW3 2685   3.617   2.665   5.893 -0.1246  0.4135 -0.4869
  728SOL    MW4 2686   3.654   2.726   5.942  0.1114 -0.2425  0.1770
  729SOL     OW 2687   4.885   3.298   1.150 -0.4483 -0.5808  0.1599
  729SOL    HW2 2688   4.974   3.273   1.172 -0.9514 -0.9042  1.9234
  729SOL    HW3 2689   4.894   3.384   1.109  0.5824 -0.0430  1.4625
  729SOL    MW4 2690   4.898   3.306   1.147 -0.3786 -0.5525  0.5644
  730SOL     OW 2691   4.850   0.815   0.689 -0.3777 -0.0995 -0.5497
  730SOL    HW2 2692   4.909   0.883   0.720 -1.3271  1.0473 -1.1674
  730SOL    HW3 2693   4.767   0.834   0.732 -0.5778 -1.0525 -0.4979
  730SOL    MW4 2694   4.847   0.827   0.698 -0.5294 -0.0740 -0.6243
  731SOL     OW 2695   6.123   0.504   5.187 -0.6768 -0.0756  0.4439
  731SOL    HW2 2696   6.043   0.556   5.177 -1.0745 -0.6057  0.8639
  731SOL    HW3 2697   6.194   0.567   5.170 -1.1548  0.5814  0.8291
  731SOL    MW4 2698   6.122   0.519   5.183 -0.7923 -0.0589  0.5502
  732SOL     OW 2699   0.240   6.071   4.935 -0.1087 -0.5523  0.1163
  732SOL    HW2 2700   0.237   6.011   5.009  0.9768 -1.0491 -0.2301
  732SOL    HW3 2701   0.167   6.043   4.879 -0.9612 -0.1499  0.9894
  732SOL    MW4 2702   0.230   6.059   4.937 -0.0780 -0.5647  0.1858
  733SOL     OW 2703   3.908   5.457   3.790  0.6486  0.1434 -0.3903
  733SOL    HW2 2704   3.989   5.409   3.811  1.5742  1.5063 -0.6861
  733SOL    HW3 2705   3.917   5.479   3.697 -0.0349  0.3755 -0.4046
  733SOL    MW4 2706   3.920   5.454   3.781  0.6806  0.3538 -0.4312
  734SOL     OW 2707   3.839   1.244   0.806  0.4098 -0.7276  0.2481
  734SOL    HW2 2708   3.806   1.328   0.838 -0.7378 -0.2924 -1.8516
  734SOL    HW3 2709   3.932   1.259   0.789  0.4954 -0.2757  1.0995
  734SOL    MW4 2710   3.847   1.257   0.808  0.2697 -0.6106  0.0834
  735SOL     OW 2711   3.520   1.518   2.734 -0.4935 -0.0026 -0.3119
  735SOL    HW2 2712   3.568   1.436   2.743 -0.3442  0.2251  1.3746
  735SOL    HW3 2713   3.487   1.536   2.822 -3.4856 -0.0257 -1.3063
  735SOL    MW4 2714   3.522   1.510   2.747 -0.8686  0.0244 -0.2206
  736SOL     OW 2715   4.298   3.433   5.960  0.8267 -0.2065  0.0747
  736SOL    HW2 2716   4.297   3.342   5.930  1.7253 -0.2504  0.1535
  736SOL    HW3 2717   4.220   3.440   6.015  0.8985 -1.0133  0.2979
  736SOL    MW4 2718   4.288   3.422   5.963  0.9547 -0.3187  0.1145
  737SOL     OW 2719   5.418   1.836   4.808 -0.5411 -0.1301  0.2891
  737SOL    HW2 2720   5.426   1.853   4.902 -1.4585 -0.9227  0.5242
  737SOL    HW3 2721   5.454   1.915   4.766  1.1894 -0.3373  1.2764
  737SOL    MW4 2722   5.424   1.849   4.815 -0.4339 -0.2620  0.4504
  738SOL     OW 2723   2.770   5.923   5.626 -0.4173 -0.0296  0.3025
  738SOL    HW2 2724   2.786   6.001   5.572  0.6895 -1.1794 -1.0879
  738SOL    HW3 2725   2.675   5.920   5.636 -0.5592  0.8796 -0.5812
  738SOL    MW4 2726   2.760   5.933   5.620 -0.2900 -0.0613  0.0024
  739SOL     OW 2727   4.473   2.140   2.194  0.3428 -0.0533 -0.0558
  739SOL    HW2 2728   4.496   2.147   2.287 -1.7628  1.2233  0.4522
  739SOL    HW3 2729   4.553   2.161   2.147  1.4102 -0.5531  1.4620
  739SOL    MW4 2730   4.487   2.144   2.200  0.2058  0.0492  0.2114
  740SOL     OW 2731   1.287   1.611   2.248 -0.3442  0.0208 -0.1321
  740SOL    HW2 2732   1.269   1.578   2.337 -0.5915  0.6858  0.0661
  740SOL    HW3 2733   1.301   1.531   2.196 -0.8512 -0.4005  0.3618
  740SOL    MW4 2734   1.286   1.596   2.253 -0.4437  0.0530 -0.0408
  741SOL     OW 2735   0.631   3.025   5.384  0.0698 -0.9490 -0.0857
  741SOL    HW2 2736   0.681   2.994   5.308  1.8962 -1.5653  1.2951
  741SOL    HW3 2737   0.580   2.949   5.413 -0.1308 -0.9000 -0.3107
  741SOL    MW4 2738   0.631   3.011   5.378  0.2843 -1.0238  0.0668
  742SOL     OW 2739   2.270   6.325   5.203 -0.5470 -0.6431 -0.3959
  742SOL    HW2 2740   2.307   6.338   5.116 -0.5710 -1.9114 -0.6136
  742SOL    HW3 2741   2.289   6.406   5.250 -0.9316  0.2289 -1.7138
  742SOL    MW4 2742   2.277   6.337   5.198 -0.6009 -0.6954 -0.5985
  743SOL     OW 2743   3.702   5.107   2.061 -0.2038 -0.1124  0.3395
  743SOL    HW2 2744   3.771   5.157   2.016 -0.2079 -0.3168  0.1075
  743SOL    HW3 2745   3.660   5.172   2.118 -0.1463  0.1297  0.1106
  743SOL    MW4 2746   3.706   5.122   2.062 -0.1967 -0.1074  0.2787
  744SOL     OW 2747   3.623   3.035   4.046 -0.3529  0.1133  0.2482
  744SOL    HW2 2748   3.528   3.034   4.035 -0.5333 -2.3648  1.3623
  744SOL    HW3 2749   3.636   3.067   4.136 -0.1717 -0.1117  0.3031
  744SOL    MW4 2750   3.613   3.039   4.057 -0.3528 -0.2433  0.4024
  745SOL     OW 2751   0.020   4.699   3.443  0.4908 -0.5314  0.0399
  745SOL    HW2 2752  -0.011   4.769   3.385  4.2707  1.3224 -0.0781
  745SOL    HW3 2753   0.092   4.658   3.394  1.4468 -1.2914  1.9706
  745SOL    MW4 2754   0.026   4.703   3.429  1.1156 -0.3871  0.2791
  746SOL     OW 2755   4.156   4.209   5.036 -0.1836 -0.0399 -0.0373
  746SOL    HW2 2756   4.180   4.153   4.962  0.2571  0.2205 -0.0978
  746SOL    HW3 2757   4.232   4.205   5.094  0.1964  1.1310 -0.4288
  746SOL    MW4 2758   4.169   4.201   5.034 -0.0753  0.1490 -0.0969
  747SOL     OW 2759   1.743   0.078   0.946 -0.4911 -0.4691  0.9518
  747SOL    HW2 2760   1.668   0.058   1.002 -1.0952 -1.6030 -0.2043
  747SOL    HW3 2761   1.704   0.104   0.863  0.3944  0.6897  0.8763
  747SOL    MW4 2762   1.728   0.079   0.943 -0.4540 -0.4658  0.7893
  748SOL     OW 2763   2.784   2.243   3.771  0.2347 -0.7821  0.4432
  748SOL    HW2 2764   2.765   2.246   3.677  1.5127 -2.4464  0.0802
  748SOL    HW3 2765   2.827   2.159   3.784  1.4062  0.0368  2.2830
  748SOL    MW4 2766   2.787   2.232   3.760  0.5579 -0.8936  0.6380
  749SOL     OW 2767   1.220   4.624   5.320  0.5075  0.0754  0.0923
  749SOL    HW2 2768   1.177   4.539   5.311  0.9903 -0.0376 -1.5409
  749SOL    HW3 2769   1.149   4.684   5.344  0.0471 -0.6558  0.6246
  749SOL    MW4 2770   1.205   4.620   5.322  0.5104 -0.0359 -0.0529
  750SOL     OW 2771   3.125   3.616   1.430  0.4115 -0.4209  0.9828
  750SOL    HW2 2772   3.164   3.660   1.354 -1.8683  1.4481  0.7721
  750SOL    HW3 2773   3.195   3.614   1.495  1.3865  1.1673  0.0557
  750SOL    MW4 2774   3.140   3.622   1.429  0.2393  0.0353  0.8327
  751SOL     OW 2775   3.680   6.186   5.378  0.3736 -0.6586  0.7284
  751SOL    HW2 2776   3.704   6.155   5.291  0.3700 -0.5636  0.6936
  751SOL    HW3 2777   3.655   6.278   5.366  1.6141 -0.2600  1.0235
  751SOL    MW4 2778   3.680   6.194   5.365  0.5368 -0.5934  0.7627
  752SOL     OW 2779   4.545   1.041   1.941 -0.3935  0.3250  0.4612
  752SOL    HW2 2780   4.631   1.063   1.906 -0.5682  1.6845  0.8632
  752SOL    HW3 2781   4.485   1.054   1.867 -0.3400 -0.1123  0.3329
  752SOL    MW4 2782   4.548   1.045   1.927 -0.4095  0.4467  0.4973
  753SOL     OW 2783   4.987   2.254   3.902  0.4425  0.2771 -0.3880
  753SOL    HW2 2784   5.036   2.187   3.855  1.0801  1.7949 -2.0119
  753SOL    HW3 2785   5.053   2.305   3.949 -0.0920 -0.5588  1.3525
  753SOL    MW4 2786   5.002   2.252   3.902  0.4561  0.3671 -0.3726
  754SOL     OW 2787   4.311   1.133   4.565 -0.7786 -0.0508 -0.1338
  754SOL    HW2 2788   4.372   1.129   4.638  0.6411  0.7372 -1.2322
  754SOL    HW3 2789   4.296   1.227   4.551 -0.2617 -0.1510 -1.4547
  754SOL    MW4 2790   4.317   1.145   4.573 -0.5231  0.0400 -0.4530
  755SOL     OW 2791   5.304   2.449   0.325  0.4915 -0.2174  0.1174
  755SOL    HW2 2792   5.295   2.377   0.262 -0.0482 -1.6346  1.7545
  755SOL    HW3 2793   5.217   2.460   0.363  1.1819 -0.6604  1.9343
  755SOL    MW4 2794   5.292   2.441   0.322  0.5114 -0.4629  0.5731
  756SOL     OW 2795   3.251   4.632   4.060  0.5773  0.2842 -0.4024
  756SOL    HW2 2796   3.259   4.610   3.967  0.5815 -0.7512 -0.1721
  756SOL    HW3 2797   3.319   4.579   4.103 -0.0304  0.0480  0.2875
  756SOL    MW4 2798   3.261   4.622   4.053  0.4977  0.1164 -0.2810
  757SOL     OW 2799   0.851   0.098   3.712 -0.3454 -0.0659 -0.1134
  757SOL    HW2 2800   0.830   0.134   3.798 -0.0060 -1.8786  0.7624
  757SOL    HW3 2801   0.901   0.167   3.669  0.0256  0.6338  1.3863
  757SOL    MW4 2802   0.855   0.112   3.718 -0.2516 -0.2127  0.2000
  758SOL     OW 2803   0.365   6.401   4.402  0.2545 -0.0973  0.2129
  758SOL    HW2 2804   0.404   6.400   4.314  0.3567  0.9688  0.2378
  758SOL    HW3 2805   0.439   6.392   4.462  0.1237 -1.5465  0.1969
  758SOL    MW4 2806   0.380   6.399   4.398  0.2507 -0.1478  0.2141
  759SOL     OW 2807   3.827   4.129   6.072  0.2167  0.2300 -0.1659
  759SOL    HW2 2808   3.807   4.038   6.092  0.8993  0.1448  0.1660
  759SOL    HW3 2809   3.836   4.171   6.158  1.1247  0.3250 -0.2917
  759SOL    MW4 2810   3.826   4.122   6.086  0.4266  0.2313 -0.1387
  760SOL     OW 2811   1.002   0.020   0.045 -0.3334  0.1710  0.3712
  760SOL    HW2 2812   0.969   0.094  -0.006 -0.8083 -0.5579 -0.4011
  760SOL    HW3 2813   0.973   0.038   0.135 -1.9253  0.1050 -0.0866
  760SOL    MW4 2814   0.994   0.032   0.050 -0.6061  0.0661  0.2089
  761SOL     OW 2815   0.514   0.636   1.474 -0.3694 -0.6675  0.6362
  761SOL    HW2 2816   0.591   0.693   1.479  0.2086 -1.2135 -1.0598
  761SOL    HW3 2817   0.516   0.586   1.555 -0.0774  0.6994  1.5130
  761SOL    MW4 2818   0.524   0.637   1.485 -0.2546 -0.5592  0.5281
  762SOL     OW 2819   0.215   5.441   5.815  0.6502  0.7452 -0.0692
  762SOL    HW2 2820   0.299   5.454   5.860  0.2779  0.2191  0.8163
  762SOL    HW3 2821   0.220   5.350   5.783 -0.2954  0.0629  1.6089
  762SOL    MW4 2822   0.227   5.431   5.817  0.4764  0.5858  0.2691
  763SOL     OW 2823   1.831   0.150   2.116  0.3369  1.0943 -0.6550
  763SOL    HW2 2824   1.914   0.124   2.076  0.1363  0.8460 -0.9191
  763SOL    HW3 2825   1.834   0.246   2.118  0.4212  1.1042 -1.1143
  763SOL    MW4 2826   1.842   0.159   2.111  0.3216  1.0628 -0.7504
  764SOL     OW 2827   2.467   6.401   1.080  0.3165 -0.6648  0.2477
  764SOL    HW2 2828   2.509   6.487   1.073  1.0570 -1.0101  0.3093
  764SOL    HW3 2829   2.374   6.418   1.068  0.4583  0.1475  0.2673
  764SOL    MW4 2830   2.460   6.414   1.078  0.4329 -0.6032  0.2584
  765SOL     OW 2831   1.237   3.553   6.206  0.0168 -0.3393 -0.5057
  765SOL    HW2 2832   1.230   3.487   6.274  1.1361  0.8618  0.8511
  765SOL    HW3 2833   1.191   3.629   6.242  0.5063  0.2718 -1.1463
  765SOL    MW4 2834   1.230   3.555   6.220  0.2290 -0.1002 -0.4112
  766SOL     OW 2835   4.813   1.704   3.708 -0.3235  0.2084  0.0677
  766SOL    HW2 2836   4.814   1.621   3.661 -0.3881  0.4004 -0.2701
  766SOL    HW3 2837   4.760   1.686   3.786  0.0119 -0.1846  0.2126
  766SOL    MW4 2838   4.806   1.690   3.712 -0.2877  0.1819  0.0423
  767SOL     OW 2839   3.309   3.858   0.281  0.2639 -0.0816 -0.6672
  767SOL    HW2 2840   3.249   3.785   0.296  0.5126 -0.4364 -1.3371
  767SOL    HW3 2841   3.348   3.875   0.367 -1.3621  0.6791 -0.0411
  767SOL    MW4 2842   3.306   3.850   0.294  0.0822 -0.0280 -0.6730
  768SOL     OW 2843   0.687   6.044   1.230  0.1072  0.2017  0.1164
  768SOL    HW2 2844   0.672   5.962   1.183 -1.0469  0.1443  0.5364
  768SOL    HW3 2845   0.693   6.018   1.322  0.1378  0.5432  0.2121
  768SOL    MW4 2846   0.686   6.029   1.236 -0.0410  0.2392  0.1845
  769SOL     OW 2847   4.064   4.240   2.046 -0.1866  0.5524 -0.2255
  769SOL    HW2 2848   4.091   4.216   1.957 -1.2545 -0.7910 -0.2049
  769SOL    HW3 2849   4.147   4.248   2.094  0.3140 -1.3712 -0.6910
  769SOL    MW4 2850   4.079   4.238   2.040 -0.2614  0.1214 -0.2842
  770SOL     OW 2851   1.951   5.515   5.517  0.3695 -0.1043 -0.4397
  770SOL    HW2 2852   2.014   5.586   5.519  0.2672 -0.0032 -0.7272
  770SOL    HW3 2853   1.924   5.504   5.608  0.2665  0.3312 -0.4156
  770SOL    MW4 2854   1.955   5.523   5.529  0.3424 -0.0335 -0.4744
  771SOL     OW 2855   6.201   6.218   6.080  0.0054  0.1250  0.2855
  771SOL    HW2 2856   6.169   6.303   6.112 -0.6517  0.1245 -0.3509
  771SOL    HW3 2857   6.260   6.239   6.009  1.0161  0.0987  1.0907
  771SOL    MW4 2858   6.205   6.232   6.075  0.0521  0.1215  0.3078
  772SOL     OW 2859   4.014   1.135   2.356 -0.1916  0.4788  0.0650
  772SOL    HW2 2860   3.960   1.100   2.286 -0.7592  1.3044  0.0734
  772SOL    HW3 2861   4.083   1.185   2.312  0.8133 -0.8525  0.0406
  772SOL    MW4 2862   4.016   1.137   2.341 -0.1339  0.4121  0.0629
  773SOL     OW 2863   3.706   0.167   0.169 -0.5164  0.2573  0.0774
  773SOL    HW2 2864   3.775   0.123   0.219 -1.0347  0.2396  0.7853
  773SOL    HW3 2865   3.663   0.097   0.121 -1.0297  0.0541  0.8299
  773SOL    MW4 2866   3.710   0.152   0.169 -0.6525  0.2281  0.2701
  774SOL     OW 2867   6.047   5.061   1.061  0.0534 -0.1335 -0.3703
  774SOL    HW2 2868   6.108   4.997   1.025  2.5573  1.8681  0.0320
  774SOL    HW3 2869   6.017   5.112   0.986 -0.2182 -0.3704 -0.4248
  774SOL    MW4 2870   6.051   5.059   1.047  0.3479  0.0994 -0.3244
  775SOL     OW 2871   4.427   0.889   4.013 -0.5906  0.4849 -0.8458
  775SOL    HW2 2872   4.373   0.919   4.087 -1.3513 -0.6437 -0.9116
  775SOL    HW3 2873   4.398   0.943   3.940 -1.0712  0.4517 -0.6903
  775SOL    MW4 2874   4.416   0.900   4.013 -0.7543  0.3316 -0.8340
  776SOL     OW 2875   3.419   0.204   0.310  0.0035 -0.2173  0.1338
  776SOL    HW2 2876   3.506   0.192   0.271  1.3071 -0.5161  2.8741
  776SOL    HW3 2877   3.412   0.298   0.324 -0.7354 -0.0338 -1.2587
  776SOL    MW4 2878   3.430   0.215   0.306  0.0780 -0.2325  0.3116
  777SOL     OW 2879   6.110   2.585   3.709  0.2129  0.4968 -0.0643
  777SOL    HW2 2880   6.019   2.586   3.681  0.6969 -2.3932 -2.2700
  777SOL    HW3 2881   6.123   2.498   3.746  2.1463  0.6960 -0.1672
  777SOL    MW4 2882   6.100   2.574   3.710  0.5318  0.1418 -0.3689
  778SOL     OW 2883   4.031   3.491   5.806 -0.1094 -0.4441  0.4228
  778SOL    HW2 2884   3.960   3.515   5.747 -1.0448  1.1689  2.0712
  778SOL    HW3 2885   4.109   3.489   5.751 -1.1105 -0.2057 -1.0717
  778SOL    MW4 2886   4.032   3.494   5.791 -0.3649 -0.1998  0.4431
  779SOL     OW 2887   0.932   4.629   1.048 -0.3672  0.1965  0.7065
  779SOL    HW2 2888   0.929   4.543   1.007  0.3872  0.3186  0.3724
  779SOL    HW3 2889   0.857   4.676   1.012 -0.7355 -0.2926  0.8323
  779SOL    MW4 2890   0.922   4.624   1.038 -0.3163  0.1481  0.6791
  780SOL     OW 2891   4.994   2.435   2.674 -0.3342 -0.2265 -0.2077
  780SOL    HW2 2892   4.955   2.349   2.688  0.9659 -0.6400  1.0576
  780SOL    HW3 2893   4.920   2.495   2.672 -1.1123 -1.1010  1.1971
  780SOL    MW4 2894   4.979   2.432   2.675 -0.2653 -0.3965  0.1446
  781SOL     OW 2895   0.222   5.989   2.800  0.2189 -0.1004  0.2048
  781SOL    HW2 2896   0.249   5.957   2.886  0.1775  0.2696  0.3540
  781SOL    HW3 2897   0.128   5.974   2.797  0.3024 -0.6193  0.0080
  781SOL    MW4 2898   0.213   5.983   2.811  0.2244 -0.1200  0.1985
  782SOL     OW 2899   5.880   0.080   4.035 -0.2145  0.4390 -0.1822
  782SOL    HW2 2900   5.934   0.008   4.001 -0.4613  0.3601 -0.4126
  782SOL    HW3 2901   5.928   0.159   4.013 -0.8253  0.4410 -1.5706
  782SOL    MW4 2902   5.893   0.081   4.028 -0.3276  0.4289 -0.3958
  783SOL     OW 2903   2.505   1.255   6.004  0.0358  0.3695 -0.5047
  783SOL    HW2 2904   2.545   1.341   5.991 -1.0535  1.1471  1.0885
  783SOL    HW3 2905   2.508   1.241   6.098 -1.4462 -0.5252 -0.5668
  783SOL    MW4 2906   2.511   1.265   6.014 -0.3035  0.3541 -0.3027
  784SOL     OW 2907   5.863   3.746   1.195  0.4589 -0.3221  0.1055
  784SOL    HW2 2908   5.944   3.746   1.246  0.1571 -0.1736  0.5982
  784SOL    HW3 2909   5.884   3.794   1.115  0.6700  0.3243  0.5404
  784SOL    MW4 2910   5.876   3.752   1.192  0.4469 -0.2172  0.2279
  785SOL     OW 2911   0.906   5.365   6.043  0.1600 -0.1937  0.3929
  785SOL    HW2 2912   0.848   5.423   6.092 -2.0370 -2.1979  0.3340
  785SOL    HW3 2913   0.943   5.306   6.108  0.6688 -0.1285  0.1716
  785SOL    MW4 2914   0.903   5.365   6.058 -0.0628 -0.4496  0.3559
  786SOL     OW 2915   0.821   1.567   4.106  0.5475  0.4315  0.3206
  786SOL    HW2 2916   0.762   1.629   4.147  0.6652  0.0446  1.0995
  786SOL    HW3 2917   0.888   1.622   4.064  1.0086  0.8498  1.5304
  786SOL    MW4 2918   0.822   1.582   4.106  0.6238  0.4356  0.5830
  787SOL     OW 2919   4.397   5.775   4.594  0.1859  0.4190 -0.0545
  787SOL    HW2 2920   4.373   5.827   4.518 -1.3277 -1.3007 -0.8236
  787SOL    HW3 2921   4.377   5.685   4.569 -0.2897 -0.2055  2.3544
  787SOL    MW4 2922   4.391   5.770   4.581 -0.0766  0.1097  0.1618
  788SOL     OW 2923   3.552   2.134   4.304  0.5866 -0.2305 -0.3468
  788SOL    HW2 2924   3.457   2.131   4.291  0.4683  0.5889  0.3120
  788SOL    HW3 2925   3.588   2.142   4.215  0.1276 -1.9330 -0.7339
  788SOL    MW4 2926   3.544   2.134   4.290  0.5104 -0.3470 -0.3110
  789SOL     OW 2927   1.370   0.165   1.510 -0.7577  0.1999 -0.4881
  789SOL    HW2 2928   1.456   0.133   1.535 -1.2856 -1.7034 -0.9513
  789SOL    HW3 2929   1.383   0.258   1.492  1.1752 -0.0417 -0.5101
  789SOL    MW4 2930   1.383   0.173   1.511 -0.5723 -0.0831 -0.5521
  790SOL     OW 2931   5.026   2.275   2.433 -0.2419 -0.2263 -0.9542
  790SOL    HW2 2932   5.008   2.338   2.503  1.7797 -1.2299  0.5775
  790SOL    HW3 2933   4.943   2.229   2.421 -1.2400  1.4681 -0.8365
  790SOL    MW4 2934   5.012   2.277   2.441 -0.1069 -0.1351 -0.7366
  791SOL     OW 2935   4.955   5.444   1.256  0.1538 -0.5614  0.4201
  791SOL    HW2 2936   4.989   5.356   1.273  0.7453 -0.4117  0.0458
  791SOL    HW3 2937   4.994   5.499   1.324  0.7469 -0.3738 -0.0600
  791SOL    MW4 2938   4.965   5.440   1.267  0.3101 -0.5169  0.3074
  792SOL     OW 2939   0.775   1.209   5.528 -0.5678  0.2671 -0.4602
  792SOL    HW2 2940   0.785   1.264   5.450  2.0018  1.7776  0.8132
  792SOL    HW3 2941   0.746   1.124   5.493  0.9322  0.7353 -3.1322
  792SOL    MW4 2942   0.772   1.205   5.513 -0.0309  0.5282 -0.6447
  793SOL     OW 2943   5.769   2.795   3.417  0.2780 -0.0308 -0.0288
  793SOL    HW2 2944   5.830   2.861   3.451  1.4960 -0.3529 -1.5011
  793SOL    HW3 2945   5.793   2.714   3.462  1.4674 -0.3183 -1.1231
  793SOL    MW4 2946   5.780   2.793   3.428  0.5956 -0.1112 -0.3674
  794SOL     OW 2947   3.731   4.179   5.421 -0.1642  0.2628 -0.3449
  794SOL    HW2 2948   3.738   4.204   5.329 -1.3534 -0.2234 -0.5934
  794SOL    HW3 2949   3.638   4.187   5.441  0.2429  1.7311  1.2385
  794SOL    MW4 2950   3.720   4.183   5.411 -0.2674  0.3924 -0.1688
  795SOL     OW 2951   5.291   6.423   1.257 -0.2045 -0.2451 -0.3169
  795SOL    HW2 2952   5.290   6.351   1.321 -0.2867 -0.9722 -1.1178
  795SOL    HW3 2953   5.202   6.426   1.223  0.1056 -0.5880 -1.1800
  795SOL    MW4 2954   5.279   6.414   1.261 -0.1744 -0.3863 -0.5365
  796SOL     OW 2955   6.036   1.142   2.899  0.3252 -0.0753 -0.9233
  796SOL    HW2 2956   5.974   1.081   2.938 -0.1925  0.2092 -1.2984
  796SOL    HW3 2957   6.007   1.228   2.928  0.5859  0.0542 -1.0439
  796SOL    MW4 2958   6.024   1.145   2.908  0.2913 -0.0207 -0.9887
  797SOL     OW 2959   2.268   1.511   1.672 -0.2403  0.2236  0.3400
  797SOL    HW2 2960   2.190   1.547   1.631 -1.2300 -3.2508 -1.2064
  797SOL    HW3 2961   2.258   1.530   1.766 -1.6295  1.9795 -0.1198
  797SOL    MW4 2962   2.256   1.518   1.679 -0.5542 -0.0031  0.0753
  798SOL     OW 2963   4.460   1.880   5.442 -0.0309 -0.2850 -0.0685
  798SOL    HW2 2964   4.535   1.932   5.412  0.9289 -0.3984  1.9230
  798SOL    HW3 2965   4.398   1.945   5.475 -0.7004 -0.2088 -1.4330
  798SOL    MW4 2966   4.462   1.895   5.442  0.0074 -0.2899  0.0142
  799SOL     OW 2967   5.662   4.983   0.665 -0.4912  0.4785 -0.0612
  799SOL    HW2 2968   5.574   4.994   0.701 -0.4630  1.3819 -0.2406
  799SOL    HW3 2969   5.649   4.931   0.586 -0.7014 -0.4481  0.5634
  799SOL    MW4 2970   5.649   4.977   0.659 -0.5153  0.4754 -0.0024
  800SOL     OW 2971   3.589   4.877   1.924 -0.4776 -0.5102  0.1902
  800SOL    HW2 2972   3.507   4.880   1.875 -0.4005 -2.1071 -0.0988
  800SOL    HW3 2973   3.599   4.965   1.959 -0.7651  0.5749 -2.2583
  800SOL    MW4 2974   3.579   4.889   1.922 -0.5054 -0.5778 -0.1710
  801SOL     OW 2975   5.848   2.898   0.575  0.2309 -0.4955  0.0578
  801SOL    HW2 2976   5.909   2.836   0.536  0.3069 -0.3420 -0.0679
  801SOL    HW3 2977   5.892   2.929   0.654  0.5647  0.0483 -0.3352
  801SOL    MW4 2978   5.862   2.893   0.580  0.2850 -0.4035 -0.0106
  802SOL     OW 2979   3.734   5.737   1.295 -0.1864  0.3002 -0.1849
  802SOL    HW2 2980   3.772   5.682   1.364 -0.4284  1.5407  0.9833
  802SOL    HW3 2981   3.679   5.800   1.343  0.8910  2.2173 -1.3701
  802SOL    MW4 2982   3.732   5.738   1.311 -0.0761  0.7168 -0.1872
  803SOL     OW 2983   0.852   1.439   0.974  0.1563 -0.3647 -0.2999
  803SOL    HW2 2984   0.857   1.378   0.901 -1.9982  0.0642 -0.8657
  803SOL    HW3 2985   0.764   1.427   1.010  0.0604  1.5997  0.2653
  803SOL    MW4 2986   0.841   1.429   0.969 -0.1406 -0.0489 -0.3000
  804SOL     OW 2987   5.262   3.593   2.955  0.4387 -0.4243 -0.2566
  804SOL    HW2 2988   5.263   3.527   3.024  0.3222  0.2701  0.4210
  804SOL    HW3 2989   5.329   3.564   2.893 -0.1123 -1.5551 -0.3377
  804SOL    MW4 2990   5.271   3.580   2.956  0.3506 -0.4818 -0.1779
  805SOL     OW 2991   0.455   0.375   3.825  0.3605 -0.3992 -0.1595
  805SOL    HW2 2992   0.478   0.456   3.873 -2.4539  0.5443 -0.2351
  805SOL    HW3 2993   0.510   0.378   3.747  2.1675  0.0809  1.0415
  805SOL    MW4 2994   0.465   0.386   3.821  0.2276 -0.2114 -0.0110
  806SOL     OW 2995   2.881   0.809   5.820  0.2630 -0.1595  0.2138
  806SOL    HW2 2996   2.837   0.884   5.860  0.3111 -1.3435  2.7454
  806SOL    HW3 2997   2.850   0.808   5.730 -2.8282  0.6669  1.1203
  806SOL    MW4 2998   2.871   0.818   5.813 -0.1385 -0.2067  0.6674
  807SOL     OW 2999   3.929   5.211   2.572  0.5374 -0.1214  0.0232
  807SOL    HW2 3000   3.945   5.236   2.481  0.6560  0.1304  0.1123
  807SOL    HW3 3001   3.844   5.168   2.570  0.5863 -0.2130 -0.2247
  807SOL    MW4 3002   3.920   5.209   2.559  0.5595 -0.1002  0.0022
  808SOL     OW 3003   1.159   2.590   0.677  0.3078  0.0989  0.6726
  808SOL    HW2 3004   1.173   2.554   0.765  0.0816 -0.6149  0.4307
  808SOL    HW3 3005   1.068   2.568   0.657  1.3066 -2.9974 -1.1347
  808SOL    MW4 3006   1.149   2.582   0.686  0.4098 -0.4038  0.4022
  809SOL     OW 3007   3.617   0.214   1.559 -0.0357 -0.4089 -0.3105
  809SOL    HW2 3008   3.634   0.301   1.595 -1.4942 -0.9296  1.8360
  809SOL    HW3 3009   3.546   0.227   1.496  0.8583  0.1676 -1.2157
  809SOL    MW4 3010   3.610   0.227   1.555 -0.1102 -0.4015 -0.1468
  810SOL     OW 3011   5.903   3.419   0.232 -0.0296  0.0094 -0.0573
  810SOL    HW2 3012   5.963   3.350   0.259  1.0658  1.6175  1.9121
  810SOL    HW3 3013   5.817   3.389   0.260  0.3274 -0.8232  0.1734
  810SOL    MW4 3014   5.899   3.406   0.239  0.1620  0.1117  0.2330
  811SOL     OW 3015   2.350   3.682   0.447 -0.6000 -0.2824 -0.6527
  811SOL    HW2 3016   2.371   3.633   0.367  0.0985 -0.1193 -0.5764
  811SOL    HW3 3017   2.395   3.766   0.436  0.0227 -0.4922  0.1826
  811SOL    MW4 3018   2.358   3.686   0.435 -0.4257 -0.2885 -0.5324
  812SOL     OW 3019   5.873   0.935   3.010  0.1451 -0.1593 -0.5741
  812SOL    HW2 3020   5.792   0.901   2.973 -0.7396  0.1387  1.0071
  812SOL    HW3 3021   5.857   0.940   3.104  1.4136  1.4739 -0.3906
  812SOL    MW4 3022   5.860   0.931   3.018  0.1957  0.0955 -0.3412
  813SOL     OW 3023   5.703   0.918   3.650  0.4739  0.4540 -0.2445
  813SOL    HW2 3024   5.702   0.887   3.741  0.6730  0.9152 -0.0776
  813SOL    HW3 3025   5.774   0.983   3.648 -1.1461  2.3389 -0.0700
  813SOL    MW4 3026   5.712   0.923   3.662  0.2864  0.7636 -0.1995
  814SOL     OW 3027   1.084   4.982   4.296  0.5149  0.1300 -0.0234
  814SOL    HW2 3028   1.017   4.947   4.237 -0.4288 -0.1824  1.1914
  814SOL    HW3 3029   1.056   5.072   4.315 -0.8571 -0.6803  2.2245
  814SOL    MW4 3030   1.071   4.989   4.291  0.2094 -0.0181  0.4335
  815SOL     OW 3031   1.971   2.761   2.507  0.6321 -0.5996 -0.4485
  815SOL    HW2 3032   2.017   2.677   2.515  1.9308  0.2325  4.3047
  815SOL    HW3 3033   1.882   2.741   2.536  0.2609 -0.7288 -1.6520
  815SOL    MW4 3034   1.966   2.747   2.512  0.7545 -0.5069  0.0198
  816SOL     OW 3035   3.982   1.036   4.783 -0.3386 -0.2186 -0.4736
  816SOL    HW2 3036   3.919   1.025   4.854 -0.6153 -1.4784 -0.9080
  816SOL    HW3 3037   4.049   0.969   4.799  0.3783  0.4481 -0.5878
  816SOL    MW4 3038   3.983   1.026   4.794 -0.2805 -0.2969 -0.5460
  817SOL     OW 3039   4.382   5.423   2.568  0.2616  0.6286 -1.0681
  817SOL    HW2 3040   4.447   5.357   2.542  0.2702 -0.3635  1.2611
  817SOL    HW3 3041   4.403   5.444   2.658 -0.9272  2.4657 -1.1604
  817SOL    MW4 3042   4.393   5.417   2.576  0.1059  0.7401 -0.7729
  818SOL     OW 3043   0.900   0.071   0.301  0.0161 -0.3435 -0.0321
  818SOL    HW2 3044   0.915   0.164   0.289  0.3246 -0.3746  0.0974
  818SOL    HW3 3045   0.815   0.065   0.344  0.4454 -0.0757  0.8712
  818SOL    MW4 3046   0.891   0.082   0.305  0.1134 -0.3123  0.1041
  819SOL     OW 3047   4.958   1.701   3.171 -0.0119 -0.2797  0.2800
  819SOL    HW2 3048   5.037   1.678   3.121  0.2308  0.3639  0.3541
  819SOL    HW3 3049   4.988   1.768   3.232 -0.5830 -0.1665  0.4326
  819SOL    MW4 3050   4.973   1.707   3.172 -0.0552 -0.1798  0.3099
  820SOL     OW 3051   0.264   0.012   3.440  0.4183  0.2930 -0.7873
  820SOL    HW2 3052   0.287   0.099   3.406 -2.1568 -0.2014 -4.3586
  820SOL    HW3 3053   0.170   0.016   3.454 -0.1467 -2.3684 -2.9594
  820SOL    MW4 3054   0.255   0.024   3.437  0.0040 -0.1234 -1.5451
  821SOL     OW 3055   2.793   5.765   3.432  0.1921 -0.8709  0.2783
  821SOL    HW2 3056   2.780   5.676   3.465 -0.0820 -0.1520  2.2742
  821SOL    HW3 3057   2.746   5.768   3.349 -1.5680 -1.9948  1.1843
  821SOL    MW4 3058   2.785   5.754   3.425 -0.0763 -0.9244  0.6611
  822SOL     OW 3059   0.286   6.031   3.488 -0.3056 -0.0995  0.5143
  822SOL    HW2 3060   0.208   6.078   3.458 -0.9938 -1.0125  0.8540
  822SOL    HW3 3061   0.303   5.967   3.419 -0.1058 -0.1890  0.6489
  822SOL    MW4 3062   0.278   6.029   3.475 -0.3700 -0.2318  0.5769
  823SOL     OW 3063   4.099   3.299   0.695 -0.1492 -0.2815 -0.6557
  823SOL    HW2 3064   4.094   3.395   0.696  0.2762 -0.1830  2.1898
  823SOL    HW3 3065   4.187   3.280   0.727 -0.0875 -1.6555 -1.5804
  823SOL    MW4 3066   4.110   3.309   0.700 -0.0850 -0.4498 -0.4023
  824SOL     OW 3067   2.089   2.232   5.311 -1.0077  0.5038  0.1487
  824SOL    HW2 3068   2.023   2.164   5.326 -0.6487  0.0563 -0.2687
  824SOL    HW3 3069   2.112   2.223   5.219 -0.2103  0.5114  0.3394
  824SOL    MW4 3070   2.084   2.222   5.301 -0.8551  0.4458  0.1188
  825SOL     OW 3071   2.081   0.490   6.361 -0.4160  0.1350 -0.2585
  825SOL    HW2 3072   2.149   0.499   6.294  0.9821 -0.3211  1.0434
  825SOL    HW3 3073   2.005   0.456   6.313  0.7712 -0.9253 -1.5013
  825SOL    MW4 3074   2.080   0.486   6.346 -0.0749 -0.0651 -0.2507
  826SOL     OW 3075   4.004   5.651   5.356  0.1332  0.0825  0.6212
  826SOL    HW2 3076   4.084   5.688   5.393  0.0350  0.2551  0.6651
  826SOL    HW3 3077   3.999   5.689   5.268  0.5379 -0.5817  0.3065
  826SOL    MW4 3078   4.014   5.661   5.349  0.1737  0.0177  0.5854
  827SOL     OW 3079   3.173   1.385   4.001 -0.9107 -0.1660 -0.1010
  827SOL    HW2 3080   3.145   1.471   4.032  1.8348  1.7055 -2.2488
  827SOL    HW3 3081   3.145   1.382   3.909 -0.3902 -1.2864 -0.2427
  827SOL    MW4 3082   3.166   1.396   3.993 -0.4798 -0.0669 -0.4031
  828SOL     OW 3083   2.170   1.422   5.304 -0.1598  0.0868 -0.3856
  828SOL    HW2 3084   2.085   1.464   5.310 -0.2575 -0.0365 -0.8742
  828SOL    HW3 3085   2.201   1.416   5.395 -0.4452  0.5829 -0.2564
  828SOL    MW4 3086   2.163   1.426   5.317 -0.2103  0.1360 -0.4330
  829SOL     OW 3087   2.869   5.685   0.996  0.8124 -0.0086  0.1716
  829SOL    HW2 3088   2.860   5.756   0.932 -1.0457 -2.7451 -2.8845
  829SOL    HW3 3089   2.929   5.623   0.955  1.3863 -0.8605  2.1764
  829SOL    MW4 3090   2.876   5.686   0.982  0.6430 -0.4820  0.0329
  830SOL     OW 3091   2.257   4.205   0.857  0.0030  0.5621  0.2599
  830SOL    HW2 3092   2.243   4.215   0.952 -0.0913  1.0706  0.1958
  830SOL    HW3 3093   2.347   4.175   0.849  0.4014  1.6938  0.4513
  830SOL    MW4 3094   2.267   4.202   0.869  0.0431  0.7785  0.2767
  831SOL     OW 3095   4.711   1.221   0.286  0.6855 -0.5177 -0.4260
  831SOL    HW2 3096   4.794   1.206   0.332  0.7485  1.2475  0.1163
  831SOL    HW3 3097   4.648   1.238   0.356  0.2008 -0.3666 -0.8961
  831SOL    MW4 3098   4.714   1.221   0.301  0.6299 -0.2648 -0.4164
  832SOL     OW 3099   5.897   6.080   1.494  0.3511  0.4369  0.1652
  832SOL    HW2 3100   5.898   6.114   1.584 -1.8322  0.3981  0.2385
  832SOL    HW3 3101   5.920   6.156   1.440 -1.3431  1.2684  0.5613
  832SOL    MW4 3102   5.900   6.095   1.499 -0.1605  0.5415  0.2271
  833SOL     OW 3103   4.677   1.963   5.739 -0.4448 -1.0658 -0.1913
  833SOL    HW2 3104   4.710   1.927   5.821  2.0021  0.4720 -0.3938
  833SOL    HW3 3105   4.660   1.886   5.684  2.1153 -2.0794  0.2779
  833SOL    MW4 3106   4.679   1.948   5.742  0.2158 -0.9966 -0.1561
  834SOL     OW 3107   4.954   5.605   6.188 -0.1608 -0.5685  0.0101
  834SOL    HW2 3108   4.935   5.513   6.170 -0.2146 -0.1956 -2.0106
  834SOL    HW3 3109   5.036   5.623   6.142 -0.8455  0.7118 -0.7705
  834SOL    MW4 3110   4.962   5.595   6.180 -0.2582 -0.3504 -0.3595
  835SOL     OW 3111   1.297   3.235   5.447 -0.2668  0.0843 -0.4833
  835SOL    HW2 3112   1.277   3.311   5.391  0.0620  0.7611  0.3000
  835SOL    HW3 3113   1.389   3.215   5.427 -0.4337 -0.2777 -0.8872
  835SOL    MW4 3114   1.307   3.242   5.437 -0.2454  0.1258 -0.4332
  836SOL     OW 3115   6.233   1.067   6.107  0.3997  0.5110 -0.2282
  836SOL    HW2 3116   6.312   1.016   6.123  0.7533  0.9792 -0.4810
  836SOL    HW3 3117   6.240   1.143   6.165  0.7193  1.1751 -1.1144
  836SOL    MW4 3118   6.244   1.070   6.117  0.4885  0.6604 -0.3784
  837SOL     OW 3119   1.973   3.202   3.378 -0.3708 -0.5672 -0.7846
  837SOL    HW2 3120   2.014   3.141   3.439  0.2775  0.2742 -0.3557
  837SOL    HW3 3121   1.948   3.149   3.303  0.0407 -1.3795 -0.3529
  837SOL    MW4 3122   1.975   3.187   3.376 -0.2309 -0.5634 -0.6711
  838SOL     OW 3123   4.856   5.274   0.543  0.7628 -0.4247  0.2172
  838SOL    HW2 3124   4.896   5.187   0.546 -1.4588 -1.4986  1.0789
  838SOL    HW3 3125   4.803   5.274   0.463 -1.3704 -0.9608  1.5357
  838SOL    MW4 3126   4.854   5.263   0.533  0.1882 -0.6371  0.5048
  839SOL     OW 3127   2.292   4.844   1.753  0.4805  0.0694  0.0607
  839SOL    HW2 3128   2.295   4.761   1.801 -2.0044  0.4750  1.0676
  839SOL    HW3 3129   2.260   4.821   1.666  1.4101 -0.1887 -0.2333
  839SOL    MW4 3130   2.288   4.830   1.748  0.2753  0.0888  0.1548
  840SOL     OW 3131   1.433   6.306   2.203 -0.4324  0.2231  0.5405
  840SOL    HW2 3132   1.365   6.307   2.271 -0.5914 -0.7880  0.4003
  840SOL    HW3 3133   1.417   6.387   2.153 -1.8234 -0.2159  0.2294
  840SOL    MW4 3134   1.422   6.317   2.205 -0.6369  0.0318  0.4809
  841SOL     OW 3135   0.026   4.579   0.110 -0.2063  0.4312  0.2670
  841SOL    HW2 3136  -0.066   4.556   0.118 -0.0209 -0.0158  1.3167
  841SOL    HW3 3137   0.044   4.636   0.184  0.8048 -1.0603  1.2329
  841SOL    MW4 3138   0.016   4.583   0.121 -0.0484  0.1755  0.5329
  842SOL     OW 3139   5.922   1.218   4.253 -0.3401  0.0822 -0.0334
  842SOL    HW2 3140   5.889   1.139   4.209 -1.3616  0.7499 -0.5154
  842SOL    HW3 3141   5.965   1.268   4.184  1.5936 -0.6748  0.5475
  842SOL    MW4 3142   5.923   1.214   4.238 -0.2197  0.0704 -0.0203
  843SOL     OW 3143   4.855   0.482   0.314 -0.4231 -0.5090  0.2140
  843SOL    HW2 3144   4.804   0.401   0.317  0.2881 -1.0247 -0.8485
  843SOL    HW3 3145   4.924   0.464   0.249  0.2857  0.6330  0.6279
  843SOL    MW4 3146   4.858   0.469   0.305 -0.2357 -0.4264  0.1284
  844SOL     OW 3147   0.506   0.638   2.702  0.4104  0.2421 -0.1084
  844SOL    HW2 3148   0.579   0.652   2.642  0.7250  1.2895  0.4859
  844SOL    HW3 3149   0.535   0.677   2.785 -0.9825  1.0900  0.0181
  844SOL    MW4 3150   0.520   0.645   2.705  0.2681  0.4922 -0.0133
  845SOL     OW 3151   6.425   1.696   2.617  0.0123  0.0950  0.3412
  845SOL    HW2 3152   6.331   1.702   2.603  0.0206  1.7762  0.7142
  845SOL    HW3 3153   6.436   1.688   2.712  0.2305 -1.1968  0.2214
  845SOL    MW4 3154   6.414   1.696   2.627  0.0422  0.1464  0.3746
  846SOL     OW 3155   0.381   4.586   4.614  0.4408 -0.0226 -0.1759
  846SOL    HW2 3156   0.475   4.600   4.603  0.5615 -1.1417 -0.7310
  846SOL    HW3 3157   0.340   4.661   4.570  1.0324 -1.2349 -3.0205
  846SOL    MW4 3158   0.388   4.598   4.606  0.5348 -0.3302 -0.6245
  847SOL     OW 3159   0.022   1.641   3.270 -0.0558 -0.2069  0.1658
  847SOL    HW2 3160   0.044   1.718   3.323 -2.0922 -0.2543  1.1748
  847SOL    HW3 3161   0.107   1.602   3.248  1.0392  2.2678 -0.3496
  847SOL    MW4 3162   0.036   1.646   3.274 -0.1800  0.1134  0.2309
  848SOL     OW 3163   0.849   4.294   5.420  0.3782  0.2090  0.2560
  848SOL    HW2 3164   0.767   4.343   5.415 -0.3965 -0.8803  1.6579
  848SOL    HW3 3165   0.883   4.313   5.508 -0.1009 -1.9181  0.9650
  848SOL    MW4 3166   0.843   4.303   5.431  0.2128 -0.2153  0.5345
  849SOL     OW 3167   2.023   6.142   3.844  0.4739 -0.8546 -0.0410
  849SOL    HW2 3168   2.104   6.192   3.835 -0.1642  0.4468  1.0541
  849SOL    HW3 3169   2.008   6.137   3.938 -1.1994 -0.2577 -0.2482
  849SOL    MW4 3170   2.032   6.148   3.855  0.1690 -0.6042  0.0761
  850SOL     OW 3171   5.651   0.613   0.213  0.3497  0.1835 -0.0211
  850SOL    HW2 3172   5.692   0.660   0.286  0.3423 -1.1986  0.9077
  850SOL    HW3 3173   5.575   0.569   0.253 -0.0186 -0.1014 -0.9985
  850SOL    MW4 3174   5.646   0.614   0.228  0.3002 -0.0364 -0.0275
  851SOL     OW 3175   2.660   0.331   4.910  0.0245 -0.2478  0.4753
  851SOL    HW2 3176   2.703   0.415   4.893  0.9684 -0.5389  1.2947
  851SOL    HW3 3177   2.593   0.323   4.842 -0.5112  1.4600  0.7618
  851SOL    MW4 3178   2.657   0.341   4.899  0.0783 -0.0609  0.6212
  852SOL     OW 3179   4.986   5.575   3.678  0.2367 -0.7792 -0.8933
  852SOL    HW2 3180   4.925   5.624   3.733  0.4490 -1.6595  0.1645
  852SOL    HW3 3181   5.073   5.595   3.714  0.3461 -1.6902 -0.6151
  852SOL    MW4 3182   4.989   5.584   3.690  0.2791 -1.0155 -0.7170
  853SOL     OW 3183   3.108   2.540   4.606  0.3952  0.6922 -0.6725
  853SOL    HW2 3184   3.158   2.562   4.528  1.3403  0.0576 -0.2750
  853SOL    HW3 3185   3.020   2.570   4.588  0.9521  2.0046 -1.3376
  853SOL    MW4 3186   3.103   2.547   4.593  0.5934  0.7817 -0.7078
  854SOL     OW 3187   1.941   4.254   1.769 -0.1102 -0.0959  0.1690
  854SOL    HW2 3188   2.021   4.295   1.803  0.2852 -1.3410  0.8052
  854SOL    HW3 3189   1.883   4.327   1.751  0.5861  0.7573  1.2330
  854SOL    MW4 3190   1.944   4.269   1.771  0.0338 -0.1476  0.3933
  855SOL     OW 3191   3.449   1.433   5.376 -0.5389  0.4884 -1.0119
  855SOL    HW2 3192   3.375   1.491   5.395 -1.3635  0.2118 -3.0419
  855SOL    HW3 3193   3.437   1.359   5.435 -0.1447  1.7967  0.7798
  855SOL    MW4 3194   3.437   1.431   5.386 -0.5957  0.6245 -1.0433
  856SOL     OW 3195   2.190   0.609   4.216 -0.1229  0.2637 -0.0055
  856SOL    HW2 3196   2.136   0.573   4.145  0.2987  1.0688 -0.7625
  856SOL    HW3 3197   2.185   0.703   4.204  1.0711  0.3722  0.1833
  856SOL    MW4 3198   2.182   0.616   4.205  0.0903  0.3842 -0.0804
  857SOL     OW 3199   5.893   1.510   5.112  0.2739 -0.1411 -0.2134
  857SOL    HW2 3200   5.987   1.497   5.097  0.4439 -0.0809  0.7197
  857SOL    HW3 3201   5.885   1.519   5.207 -0.5178  1.1615 -0.3812
  857SOL    MW4 3202   5.904   1.510   5.122  0.1918  0.0387 -0.1124
  858SOL     OW 3203   1.807   0.642   2.932  0.1677 -0.2744  0.1935
  858SOL    HW2 3204   1.897   0.641   2.899 -0.1756 -1.0057 -0.7518
  858SOL    HW3 3205   1.816   0.647   3.027  1.2112 -0.9028  0.1372
  858SOL    MW4 3206   1.820   0.643   2.940  0.2601 -0.4538  0.0613
  859SOL     OW 3207   2.872   0.516   5.133  0.0280 -0.0970 -0.3235
  859SOL    HW2 3208   2.914   0.488   5.052  1.2001 -0.1472  0.2810
  859SOL    HW3 3209   2.851   0.608   5.119 -0.7325 -0.3651 -1.0556
  859SOL    MW4 3210   2.875   0.524   5.120  0.0823 -0.1390 -0.3404
  860SOL     OW 3211   1.143   2.971   2.322 -0.2071 -0.0901  0.2097
  860SOL    HW2 3212   1.060   2.948   2.281 -0.0341  1.8627 -1.3967
  860SOL    HW3 3213   1.170   3.052   2.278  2.5014 -0.6046  0.7501
  860SOL    MW4 3214   1.136   2.979   2.310  0.1731  0.0997  0.0690
  861SOL     OW 3215   3.703   6.237   1.466 -0.0260 -0.1825  0.1708
  861SOL    HW2 3216   3.642   6.273   1.402 -2.6906 -2.3164  1.2666
  861SOL    HW3 3217   3.736   6.313   1.514 -0.4874  1.1923 -1.6018
  861SOL    MW4 3218   3.699   6.252   1.464 -0.4384 -0.2827  0.0815
  862SOL     OW 3219   5.232   0.509   3.032  0.3780 -0.1137 -0.2143
  862SOL    HW2 3220   5.167   0.524   2.963 -0.8713  0.6469  1.0623
  862SOL    HW3 3221   5.293   0.445   2.996 -1.0093 -0.7367 -1.5137
  862SOL    MW4 3222   5.232   0.503   3.018  0.0301 -0.0955 -0.2173
  863SOL     OW 3223   5.023   4.585   2.033  0.0676 -0.4002  0.4602
  863SOL    HW2 3224   4.986   4.658   1.984 -1.3028 -1.3320  0.0232
  863SOL    HW3 3225   4.946   4.535   2.061  0.9405 -1.2154  1.4514
  863SOL    MW4 3226   5.008   4.588   2.030  0.0020 -0.6307  0.5333
  864SOL     OW 3227   3.119   6.411   0.611 -0.6817 -0.1731  0.1224
  864SOL    HW2 3228   3.195   6.409   0.554  0.2851 -0.6034  1.3757
  864SOL    HW3 3229   3.155   6.408   0.700 -2.1391  0.0934  0.7628
  864SOL    MW4 3230   3.134   6.411   0.615 -0.7464 -0.1947  0.3723
  865SOL     OW 3231   6.240   5.532   5.790 -0.3736 -0.1051 -0.2055
  865SOL    HW2 3232   6.301   5.524   5.717 -0.1421 -2.2576  0.1496
  865SOL    HW3 3233   6.295   5.552   5.865 -0.3848  0.1912 -0.2744
  865SOL    MW4 3234   6.255   5.534   5.790 -0.3446 -0.3500 -0.1678
  866SOL     OW 3235   0.036   3.253   2.056 -0.5021  0.0030  0.2796
  866SOL    HW2 3236   0.088   3.317   2.105  1.0072 -0.1415 -1.0699
  866SOL    HW3 3237  -0.009   3.304   1.988  0.6020 -0.3234 -0.7168
  866SOL    MW4 3238   0.037   3.268   2.054 -0.1573 -0.0591 -0.0299
  867SOL     OW 3239   2.325   0.335   2.548 -0.3603  0.4123 -0.1557
  867SOL    HW2 3240   2.417   0.355   2.569 -0.2618  0.2132 -0.3906
  867SOL    HW3 3241   2.331   0.272   2.476 -0.6738 -0.1460  0.3017
  867SOL    MW4 3242   2.338   0.329   2.542 -0.3887  0.3124 -0.1263
  868SOL     OW 3243   0.337   2.534   5.500 -0.6532  0.0475 -0.6255
  868SOL    HW2 3244   0.319   2.503   5.588  1.4177  0.8389  0.1462
  868SOL    HW3 3245   0.387   2.615   5.513  0.1625 -0.0965 -2.5064
  868SOL    MW4 3246   0.342   2.541   5.513 -0.2723  0.1329 -0.7718
  869SOL     OW 3247   0.262   2.107   0.042 -0.1808  0.0350  0.0044
  869SOL    HW2 3248   0.323   2.091   0.115 -0.9679  0.0683  0.6774
  869SOL    HW3 3249   0.198   2.168   0.077 -0.3555  0.3467 -0.8450
  869SOL    MW4 3250   0.262   2.113   0.057 -0.3077  0.0805 -0.0188
  870SOL     OW 3251   5.701   5.313   5.117 -0.0421  0.2206 -0.4831
  870SOL    HW2 3252   5.767   5.254   5.082  0.0945 -0.6369  1.1038
  870SOL    HW3 3253   5.708   5.392   5.064  2.3967  0.2331 -0.2647
  870SOL    MW4 3254   5.711   5.315   5.106  0.2977  0.1091 -0.2449
  871SOL     OW 3255   1.445   4.956   5.378 -0.0510 -0.3217  0.6201
  871SOL    HW2 3256   1.419   5.032   5.325 -0.5251 -0.5761  0.4830
  871SOL    HW3 3257   1.533   4.978   5.409  0.0245  0.0559  0.1544
  871SOL    MW4 3258   1.453   4.969   5.375 -0.1036 -0.3055  0.5406
  872SOL     OW 3259   2.765   4.350   5.418 -0.5616  0.2183  0.3062
  872SOL    HW2 3260   2.856   4.351   5.448 -0.0094 -0.6490 -1.2372
  872SOL    HW3 3261   2.714   4.359   5.499  0.8312 -1.8909  1.5143
  872SOL    MW4 3262   2.770   4.352   5.433 -0.3050 -0.1744  0.2620
  873SOL     OW 3263   6.408   5.475   5.268 -0.0980 -0.2231 -0.0345
  873SOL    HW2 3264   6.352   5.407   5.305  0.6649 -0.3914  0.8336
  873SOL    HW3 3265   6.350   5.549   5.253 -0.9990 -1.1255 -1.2300
  873SOL    MW4 3266   6.393   5.476   5.271 -0.1162 -0.3644 -0.0777
  874SOL     OW 3267   4.243   3.125   5.399 -0.4539  0.5178 -0.3746
  874SOL    HW2 3268   4.223   3.066   5.472 -2.0212 -1.8223 -2.5013
  874SOL    HW3 3269   4.334   3.107   5.378 -0.1757  0.7530  0.5734
  874SOL    MW4 3270   4.252   3.115   5.406 -0.6240  0.2401 -0.5301
  875SOL     OW 3271   0.051   0.474   2.005  0.1242 -0.3983 -0.2108
  875SOL    HW2 3272   0.104   0.405   2.046  0.1920 -0.4400 -0.3668
  875SOL    HW3 3273  -0.025   0.484   2.062  1.6017  1.6019  1.5904
  875SOL    MW4 3274   0.048   0.466   2.018  0.3281 -0.1399  0.0063
  876SOL     OW 3275   2.619   4.234   3.248  0.1825 -0.3594 -0.2319
  876SOL    HW2 3276   2.598   4.288   3.324  0.7674  0.6608 -0.7709
  876SOL    HW3 3277   2.556   4.262   3.181 -1.4302 -2.3881  0.3047
  876SOL    MW4 3278   2.608   4.245   3.249  0.0469 -0.4925 -0.2322
  877SOL     OW 3279   3.673   2.125   4.051 -1.4189 -0.0383 -0.4609
  877SOL    HW2 3280   3.753   2.177   4.062 -0.8331 -1.1880  1.0206
  877SOL    HW3 3281   3.635   2.157   3.969  0.6690  0.4165 -1.3129
  877SOL    MW4 3282   3.679   2.136   4.041 -1.0661 -0.1300 -0.3778
  878SOL     OW 3283   1.588   5.604   3.063 -0.0696 -0.4055 -0.1752
  878SOL    HW2 3284   1.586   5.524   3.009  1.4474 -0.7107  0.1923
  878SOL    HW3 3285   1.663   5.592   3.121 -0.2052  1.0226  0.3229
  878SOL    MW4 3286   1.598   5.592   3.063  0.1126 -0.2573 -0.0610
  879SOL     OW 3287   0.475   5.711   0.365 -0.4035 -0.5126 -0.2043
  879SOL    HW2 3288   0.519   5.640   0.411 -1.9152 -0.8667  0.7456
  879SOL    HW3 3289   0.386   5.712   0.400 -1.5555 -0.6065 -2.8974
  879SOL    MW4 3290   0.470   5.702   0.376 -0.7549 -0.5717 -0.4343
  880SOL     OW 3291   3.131   1.590   1.812  0.5256 -0.0731  0.1606
  880SOL    HW2 3292   3.105   1.603   1.720  0.2706 -0.8555  0.1059
  880SOL    HW3 3293   3.049   1.598   1.861  0.1701 -2.2394  0.0234
  880SOL    MW4 3294   3.116   1.592   1.806  0.4451 -0.4621  0.1353
  881SOL     OW 3295   2.863   3.289   3.322  0.3169 -0.0754  0.0116
  881SOL    HW2 3296   2.913   3.276   3.403 -0.5410  0.7742  0.7045
  881SOL    HW3 3297   2.892   3.374   3.289 -0.7901  0.5292  0.5340
  881SOL    MW4 3298   2.873   3.299   3.328  0.0577  0.1165  0.1719
  882SOL     OW 3299   1.812   1.613   1.740 -0.3322 -0.7065 -0.0225
  882SOL    HW2 3300   1.814   1.571   1.826 -1.1438  0.2472  0.4846
  882SOL    HW3 3301   1.771   1.550   1.682 -0.2474 -1.1548  0.4031
  882SOL    MW4 3302   1.807   1.599   1.744 -0.4281 -0.6398  0.1006
  883SOL     OW 3303   3.709   1.644   2.151 -0.3685  0.0861  0.4698
  883SOL    HW2 3304   3.716   1.639   2.246 -0.9601 -1.1646  0.4777
  883SOL    HW3 3305   3.754   1.565   2.120 -2.4901 -0.9560 -0.1199
  883SOL    MW4 3306   3.716   1.633   2.159 -0.7265 -0.2164  0.3931
  884SOL     OW 3307   2.931   1.137   2.902  0.6426  0.3984 -0.0405
  884SOL    HW2 3308   2.868   1.166   2.967  0.0830 -1.2708  0.1914
  884SOL    HW3 3309   2.880   1.087   2.839  1.7629 -1.3155  0.3580
  884SOL    MW4 3310   2.916   1.134   2.902  0.7165 -0.0480  0.0427
  885SOL     OW 3311   0.309   5.237   6.335 -0.8408  0.1554  0.2881
  885SOL    HW2 3312   0.317   5.146   6.305 -0.2582  0.0698  0.6922
  885SOL    HW3 3313   0.222   5.264   6.305 -0.8530 -0.3995 -0.2006
  885SOL    MW4 3314   0.298   5.228   6.327 -0.7655  0.0709  0.2770
  886SOL     OW 3315   0.041   2.258   0.241  0.2832  0.1988 -0.2387
  886SOL    HW2 3316  -0.040   2.218   0.273  0.1017  0.5018 -0.3109
  886SOL    HW3 3317   0.012   2.337   0.196  0.6196  0.2957 -0.2868
  886SOL    MW4 3318   0.027   2.263   0.239  0.3037  0.2515 -0.2546
  887SOL     OW 3319   1.575   0.176   2.673  0.7097 -0.4786 -0.3587
  887SOL    HW2 3320   1.499   0.231   2.692  0.2167 -0.8264 -1.2508
  887SOL    HW3 3321   1.540   0.105   2.619  1.6777 -0.6173 -0.8218
  887SOL    MW4 3322   1.560   0.174   2.668  0.7724 -0.5428 -0.5375
  888SOL     OW 3323   1.803   2.215   5.964 -1.0883 -0.6150  0.1730
  888SOL    HW2 3324   1.811   2.215   6.059 -1.6465  0.1415  0.2311
  888SOL    HW3 3325   1.747   2.139   5.945 -0.2850 -1.2742  0.3665
  888SOL    MW4 3326   1.797   2.205   5.974 -1.0559 -0.6022  0.2062
  889SOL     OW 3327   4.074   1.660   5.068 -0.9252  0.1706  0.5139
  889SOL    HW2 3328   4.130   1.617   5.003 -1.0805  0.5260  0.1352
  889SOL    HW3 3329   4.070   1.599   5.141 -2.2251 -1.0900 -0.5467
  889SOL    MW4 3330   4.081   1.646   5.069 -1.1172  0.0512  0.3240
  890SOL     OW 3331   3.262   2.725   2.261 -0.1680 -0.5656  1.0188
  890SOL    HW2 3332   3.342   2.680   2.289  1.5147  0.0441 -2.3895
  890SOL    HW3 3333   3.292   2.813   2.236 -2.2963  0.3502  1.5113
  890SOL    MW4 3334   3.277   2.731   2.262 -0.2268 -0.3643  0.6341
  891SOL     OW 3335   4.253   2.733   5.261  0.5963  0.6382  0.2943
  891SOL    HW2 3336   4.227   2.675   5.189  3.9260 -0.3124 -0.3235
  891SOL    HW3 3337   4.249   2.821   5.223 -0.9427  0.4931  0.0695
  891SOL    MW4 3338   4.249   2.737   5.246  0.8326  0.4936  0.1831
  892SOL     OW 3339   3.428   1.058   6.107 -0.1689  0.2169  0.7267
  892SOL    HW2 3340   3.387   1.079   6.024 -0.5195  0.8135  1.0423
  892SOL    HW3 3341   3.355   1.054   6.170  0.0809 -0.2895  0.9957
  892SOL    MW4 3342   3.413   1.060   6.105 -0.1822  0.2288  0.8038
  893SOL     OW 3343   5.849   4.162   0.040 -0.3189 -0.3504  0.1140
  893SOL    HW2 3344   5.785   4.177  -0.029 -0.3422  0.9431  0.3922
  893SOL    HW3 3345   5.797   4.156   0.120 -0.1889 -0.5265  0.1867
  893SOL    MW4 3346   5.834   4.163   0.041 -0.3048 -0.2030  0.1603
  894SOL     OW 3347   1.595   1.456   1.522  0.1506 -0.2346 -0.4803
  894SOL    HW2 3348   1.617   1.533   1.470 -0.1261 -0.2262 -0.5887
  894SOL    HW3 3349   1.637   1.383   1.477  2.6209  0.1473  1.0354
  894SOL    MW4 3350   1.603   1.456   1.509  0.4400 -0.1831 -0.2946
  895SOL     OW 3351   1.466   0.979   4.371  0.1656 -0.2069 -0.4014
  895SOL    HW2 3352   1.379   0.973   4.411 -0.0130  0.4663 -0.6790
  895SOL    HW3 3353   1.527   0.977   4.445 -0.1826  1.6702 -0.0006
  895SOL    MW4 3354   1.463   0.978   4.386  0.0961  0.1296 -0.3851
  896SOL     OW 3355   2.363   5.197   3.091  0.3849 -0.3993  0.0100
  896SOL    HW2 3356   2.307   5.128   3.125  0.8046 -0.0132  1.5501
  896SOL    HW3 3357   2.437   5.201   3.151  1.1577  0.3408 -0.9415
  896SOL    MW4 3358   2.365   5.189   3.103  0.5423 -0.2507  0.0876
  897SOL     OW 3359   2.229   4.140   4.066  0.4910  0.1885 -0.1919
  897SOL    HW2 3360   2.320   4.111   4.072  0.4256 -0.4731 -1.8708
  897SOL    HW3 3361   2.229   4.204   3.994 -0.4840 -0.3658 -0.7053
  897SOL    MW4 3362   2.241   4.145   4.057  0.3537  0.0281 -0.4812
  898SOL     OW 3363   6.020   5.798   0.234  0.0581 -0.3698 -0.3412
  898SOL    HW2 3364   5.956   5.838   0.176 -0.9149 -0.2155  0.8080
  898SOL    HW3 3365   6.044   5.866   0.296 -0.7646 -1.1985  0.9351
  898SOL    MW4 3366   6.015   5.812   0.235 -0.1788 -0.4588 -0.0212
  899SOL     OW 3367   5.840   0.716   4.526 -0.0896  0.2662  0.0127
  899SOL    HW2 3368   5.790   0.797   4.513 -0.4210 -0.0632 -0.8214
  899SOL    HW3 3369   5.931   0.746   4.537 -0.3610  0.8177  0.8756
  899SOL    MW4 3370   5.846   0.731   4.526 -0.1691  0.2955  0.0165
  900SOL     OW 3371   1.750   5.532   0.043 -0.3251  0.1678  0.1936
  900SOL    HW2 3372   1.792   5.548  -0.042 -1.8769  0.7348 -0.4980
  900SOL    HW3 3373   1.793   5.454   0.076 -0.3067 -0.6067 -1.5420
  900SOL    MW4 3374   1.761   5.524   0.036 -0.5274  0.1405 -0.1267
  901SOL     OW 3375   2.502   5.186   3.357  0.4579  0.5383 -0.5044
  901SOL    HW2 3376   2.432   5.200   3.420  0.5035  1.0900 -0.5707
  901SOL    HW3 3377   2.555   5.266   3.362  1.4346 -0.1161 -0.0102
  901SOL    MW4 3378   2.500   5.198   3.366  0.5928  0.5248 -0.4479
  902SOL     OW 3379   2.614   1.962   3.055  0.0045  0.4707  0.2261
  902SOL    HW2 3380   2.606   2.029   2.986  1.0918  0.3827  0.0044
  902SOL    HW3 3381   2.546   1.898   3.033  0.1501  0.5903 -0.6094
  902SOL    MW4 3382   2.604   1.962   3.043  0.1671  0.4749  0.0866
  903SOL     OW 3383   1.211   1.131   3.665 -0.3950 -0.1153  0.0838
  903SOL    HW2 3384   1.143   1.081   3.710 -0.6141  0.8305  0.8344
  903SOL    HW3 3385   1.291   1.079   3.677 -0.3048  0.3912  2.1766
  903SOL    MW4 3386   1.213   1.118   3.673 -0.4120  0.0763  0.4589
  904SOL     OW 3387   0.479   1.963   0.984 -0.0124  0.1015 -0.1937
  904SOL    HW2 3388   0.566   1.932   1.008 -0.9212 -3.5889 -1.0540
  904SOL    HW3 3389   0.425   1.947   1.061 -0.3788  0.2327 -0.4190
  904SOL    MW4 3390   0.483   1.957   0.997 -0.1807 -0.3681 -0.3369
  905SOL     OW 3391   5.414   3.124   5.607  0.0101  0.0745  0.1778
  905SOL    HW2 3392   5.488   3.069   5.581 -1.6616 -0.9135 -3.0899
  905SOL    HW3 3393   5.402   3.184   5.533 -2.5702  0.0037  0.4504
  905SOL    MW4 3394   5.422   3.125   5.594 -0.5509 -0.0652 -0.2173
  906SOL     OW 3395   6.405   2.947   2.144 -0.2945  0.0128 -0.1186
  906SOL    HW2 3396   6.446   3.026   2.179  0.9897 -0.4604 -0.5017
  906SOL    HW3 3397   6.324   2.978   2.104 -0.1951  1.0135  0.4249
  906SOL    MW4 3398   6.400   2.961   2.143 -0.1119  0.0824 -0.0975
  907SOL     OW 3399   3.104   2.048   5.550 -0.0625 -0.4459  0.4317
  907SOL    HW2 3400   3.095   1.967   5.500 -1.4503  0.7799 -1.4481
  907SOL    HW3 3401   3.189   2.083   5.525 -0.3583 -0.2958 -0.3868
  907SOL    MW4 3402   3.114   2.042   5.540 -0.2846 -0.2643  0.0757
  908SOL     OW 3403   2.331   5.598   0.307  0.5909  0.1808 -0.2104
  908SOL    HW2 3404   2.411   5.567   0.265 -0.1518 -0.5231 -1.1322
  908SOL    HW3 3405   2.289   5.653   0.242  0.1375  0.2512  0.1387
  908SOL    MW4 3406   2.336   5.601   0.293  0.4331  0.0972 -0.2859
  909SOL     OW 3407   5.513   6.163   0.492  0.4867  0.6369 -0.1665
  909SOL    HW2 3408   5.558   6.171   0.576  0.8732  1.3411 -0.4376
  909SOL    HW3 3409   5.583   6.153   0.428  0.1779 -0.3262 -0.3694
  909SOL    MW4 3410   5.528   6.163   0.495  0.4970  0.6027 -0.2290
  910SOL     OW 3411   2.798   5.705   4.823  0.1654  0.4459 -0.3365
  910SOL    HW2 3412   2.847   5.733   4.746  0.8835  0.2720  0.0501
  910SOL    HW3 3413   2.864   5.696   4.892 -0.4826  0.7035  0.3294
  910SOL    MW4 3414   2.813   5.707   4.822  0.1746  0.4569 -0.1976
  911SOL     OW 3415   3.258   1.648   0.736  0.6603 -0.7551 -0.2725
  911SOL    HW2 3416   3.286   1.720   0.792 -0.8306  0.4401 -0.9865
  911SOL    HW3 3417   3.311   1.656   0.657  0.9873 -0.8832 -0.0672
  911SOL    MW4 3418   3.268   1.658   0.733  0.5068 -0.6143 -0.3396
  912SOL     OW 3419   5.859   1.490   5.747  0.1359  0.1884  0.1138
  912SOL    HW2 3420   5.831   1.498   5.838  3.3726 -1.1282  1.3723
  912SOL    HW3 3421   5.931   1.552   5.739  1.2713 -1.1960 -0.8738
  912SOL    MW4 3422   5.865   1.499   5.758  0.7127 -0.1679  0.1496
  913SOL     OW 3423   3.701   2.635   1.259  0.0034  1.1341  0.5819
  913SOL    HW2 3424   3.650   2.616   1.337  0.5350 -0.8968  0.4855
  913SOL    HW3 3425   3.700   2.553   1.209  1.6505  1.6565 -0.3852
  913SOL    MW4 3426   3.695   2.622   1.263  0.2909  0.9351  0.4415
  914SOL     OW 3427   0.685   0.032   5.876 -0.6053  0.1234 -0.4985
  914SOL    HW2 3428   0.668   0.048   5.783 -1.9859  0.3092 -0.2303
  914SOL    HW3 3429   0.755  -0.034   5.876 -0.8070 -0.1188 -1.6772
  914SOL    MW4 3430   0.692   0.025   5.864 -0.8141  0.1160 -0.6186
  915SOL     OW 3431   1.119   3.935   3.085 -0.5156 -0.1560 -0.1111
  915SOL    HW2 3432   1.132   3.895   3.171  0.9421 -1.3675 -0.8427
  915SOL    HW3 3433   1.160   4.021   3.092 -2.0116  0.5122  0.9173
  915SOL    MW4 3434   1.126   3.941   3.097 -0.5207 -0.2277 -0.0719
  916SOL     OW 3435   0.649   3.394   1.949 -0.0649  0.0139  0.1954
  916SOL    HW2 3436   0.558   3.407   1.924 -1.0040 -1.4324  2.5504
  916SOL    HW3 3437   0.697   3.390   1.865 -2.5442 -1.9881 -1.2629
  916SOL    MW4 3438   0.644   3.395   1.934 -0.5159 -0.4410  0.3137
  917SOL     OW 3439   0.218   2.693   2.730 -0.2555 -0.1060  0.4115
  917SOL    HW2 3440   0.269   2.772   2.745  2.5560 -1.8234  0.7843
  917SOL    HW3 3441   0.195   2.696   2.637  1.2780  0.3925  0.0221
  917SOL    MW4 3442   0.222   2.704   2.720  0.3178 -0.2668  0.4093
  918SOL     OW 3443   6.397   0.752   1.649 -0.5204  0.3847 -0.3461
  918SOL    HW2 3444   6.487   0.770   1.676  0.1459 -1.0225 -1.4743
  918SOL    HW3 3445   6.378   0.667   1.689 -0.5919 -0.2940 -1.7851
  918SOL    MW4 3446   6.407   0.743   1.658 -0.4419  0.1095 -0.6848
  919SOL     OW 3447   3.789   5.116   0.472 -0.1108  0.8672 -0.0282
  919SOL    HW2 3448   3.718   5.052   0.469 -0.8146  1.5664  0.8271
  919SOL    HW3 3449   3.852   5.078   0.533 -0.2148  0.6760 -0.0385
  919SOL    MW4 3450   3.788   5.102   0.480 -0.2174  0.9342  0.0833
  920SOL     OW 3451   0.758   1.404   0.287 -0.1122 -0.0289  0.5811
  920SOL    HW2 3452   0.693   1.423   0.355 -2.4070  0.0835 -1.4907
  920SOL    HW3 3453   0.803   1.487   0.273 -0.8874  0.4244  0.7249
  920SOL    MW4 3454   0.755   1.418   0.294 -0.5173  0.0457  0.3267
  921SOL     OW 3455   0.188   4.694   5.669  0.5430 -0.4216  0.2916
  921SOL    HW2 3456   0.281   4.688   5.689  0.5444 -1.0118  0.1149
  921SOL    HW3 3457   0.150   4.614   5.705 -0.2843  0.8495  2.3897
  921SOL    MW4 3458   0.195   4.683   5.676  0.4340 -0.3318  0.5451
  922SOL     OW 3459   6.027   4.536   5.301 -0.4926 -0.0239 -0.3852
  922SOL    HW2 3460   5.965   4.520   5.372  0.7400  0.3889  0.8352
  922SOL    HW3 3461   5.981   4.596   5.242 -1.5910 -0.4709 -0.0092
  922SOL    MW4 3462   6.013   4.542   5.303 -0.4749 -0.0284 -0.1746
  923SOL     OW 3463   6.332   4.948   4.500 -0.0181  0.0166 -0.0797
  923SOL    HW2 3464   6.239   4.931   4.487 -0.6431  2.3998  0.7110
  923SOL    HW3 3465   6.341   4.960   4.594  0.8797  0.7839 -0.2468
  923SOL    MW4 3466   6.321   4.948   4.510  0.0179  0.4323  0.0026
  924SOL     OW 3467   3.425   4.067   5.123  0.2562 -0.2396 -0.8530
  924SOL    HW2 3468   3.399   4.147   5.168  0.4044 -0.3312 -0.6046
  924SOL    HW3 3469   3.429   4.092   5.030  1.9256  0.4806 -0.6147
  924SOL    MW4 3470   3.422   4.081   5.117  0.4960 -0.1566 -0.7888
  925SOL     OW 3471   4.441   1.087   1.668 -0.0034 -0.1598  0.2335
  925SOL    HW2 3472   4.353   1.095   1.633 -0.0877  1.2022  0.7164
  925SOL    HW3 3473   4.496   1.135   1.606  0.7202 -2.4228 -1.0244
  925SOL    MW4 3474   4.437   1.094   1.655  0.0810 -0.2787  0.1312
  926SOL     OW 3475   0.034   1.571   4.924 -0.3341  0.0435 -0.5139
  926SOL    HW2 3476  -0.035   1.633   4.902  0.1852  0.2523 -1.6230
  926SOL    HW3 3477   0.033   1.568   5.019 -1.3834  0.5929 -0.4878
  926SOL    MW4 3478   0.025   1.579   4.933 -0.4040  0.1435 -0.6568
  927SOL     OW 3479   4.848   6.242   4.534 -0.5996  0.6492  0.0352
  927SOL    HW2 3480   4.815   6.314   4.481 -1.0325  0.1176 -0.4344
  927SOL    HW3 3481   4.870   6.281   4.618  0.4628  1.5959 -0.6485
  927SOL    MW4 3482   4.847   6.257   4.538 -0.5166  0.7039 -0.1170
  928SOL     OW 3483   0.917   5.654   0.784 -0.7096  0.2318  0.2473
  928SOL    HW2 3484   0.902   5.724   0.847 -0.6981  1.1537 -0.7386
  928SOL    HW3 3485   1.003   5.674   0.746 -1.0920  0.1941 -0.6710
  928SOL    MW4 3486   0.927   5.666   0.787 -0.7585  0.3485 -0.0039
  929SOL     OW 3487   0.606   6.379   0.371  0.1636  0.4167  0.4087
  929SOL    HW2 3488   0.546   6.318   0.413 -0.3085  1.9096  2.0417
  929SOL    HW3 3489   0.610   6.351   0.280 -1.5032 -0.8783  0.6882
  929SOL    MW4 3490   0.599   6.367   0.365 -0.1186  0.4428  0.6611
  930SOL     OW 3491   2.449   2.251   4.077 -0.4131  0.1158 -0.7645
  930SOL    HW2 3492   2.429   2.329   4.130 -0.0644  0.3554 -0.9850
  930SOL    HW3 3493   2.540   2.231   4.098 -0.9929 -1.2685  0.6220
  930SOL    MW4 3494   2.458   2.259   4.087 -0.4436 -0.0352 -0.6107
  931SOL     OW 3495   2.147   0.388   3.025 -0.1318 -0.0757  0.3410
  931SOL    HW2 3496   2.109   0.417   3.108 -1.6304 -1.1633  0.0762
  931SOL    HW3 3497   2.118   0.297   3.016  0.1260 -0.0270 -1.3023
  931SOL    MW4 3498   2.138   0.380   3.035 -0.2955 -0.2128  0.0892
  932SOL     OW 3499   0.793   1.717   0.839  0.5823 -0.3633  0.4226
  932SOL    HW2 3500   0.774   1.630   0.876 -2.9536  0.1489  0.1898
  932SOL    HW3 3501   0.833   1.699   0.754  1.2060 -1.7113  0.9666
  932SOL    MW4 3502   0.796   1.703   0.833  0.1981 -0.4736  0.4637
  933SOL     OW 3503   3.781   6.180   0.608 -0.8607  0.2418  0.0949
  933SOL    HW2 3504   3.799   6.267   0.572 -0.9716 -0.3477 -1.4602
  933SOL    HW3 3505   3.724   6.138   0.543 -1.2681 -0.7939  1.0852
  933SOL    MW4 3506   3.776   6.186   0.595 -0.9291  0.0274  0.0204
  934SOL     OW 3507   0.016   4.810   5.060 -0.2407  0.3448 -0.0582
  934SOL    HW2 3508   0.005   4.901   5.031 -0.7399  0.2122 -0.2989
  934SOL    HW3 3509   0.011   4.815   5.155 -3.1453  0.2514 -0.1036
  934SOL    MW4 3510   0.014   4.823   5.068 -0.6898  0.3150 -0.0959
  935SOL     OW 3511   6.316   4.309   4.081  0.1913 -0.2255 -0.2013
  935SOL    HW2 3512   6.345   4.398   4.060  0.3510 -0.5507 -1.4639
  935SOL    HW3 3513   6.330   4.301   4.175  0.2457  1.0568 -0.0788
  935SOL    MW4 3514   6.322   4.320   4.090  0.2196 -0.0993 -0.3517
  936SOL     OW 3515   6.311   1.928   5.673 -0.1427  0.5493  0.7072
  936SOL    HW2 3516   6.264   1.905   5.592  0.3149 -0.2393  0.6539
  936SOL    HW3 3517   6.330   2.021   5.664  1.7080  0.0581 -1.0466
  936SOL    MW4 3518   6.307   1.937   5.661  0.1619  0.3804  0.4688
  937SOL     OW 3519   1.741   3.439   1.572  0.0074 -0.4168  0.0181
  937SOL    HW2 3520   1.773   3.430   1.661 -0.8002 -0.0753  0.3563
  937SOL    HW3 3521   1.815   3.474   1.523 -0.3850  2.2593  1.1790
  937SOL    MW4 3522   1.755   3.442   1.577 -0.1509 -0.0187  0.2159
  938SOL     OW 3523   1.760   3.003   0.096 -0.0638 -0.0637  0.7344
  938SOL    HW2 3524   1.674   3.021   0.059  0.4845  0.5600 -0.2758
  938SOL    HW3 3525   1.813   2.974   0.021  0.0641 -2.4862  1.6777
  938SOL    MW4 3526   1.756   3.001   0.081  0.0254 -0.3011  0.7256
  939SOL     OW 3527   2.052   6.356   2.170  0.1271 -0.0449 -0.1260
  939SOL    HW2 3528   2.070   6.262   2.176  2.1268  0.3123  0.1845
  939SOL    HW3 3529   2.053   6.386   2.261  0.2368  0.4142 -0.2800
  939SOL    MW4 3530   2.054   6.347   2.183  0.4054  0.0628 -0.1054
  940SOL     OW 3531   2.843   5.324   0.713  0.5210 -0.4079  0.1924
  940SOL    HW2 3532   2.901   5.304   0.639  0.5471  0.4617 -0.0288
  940SOL    HW3 3533   2.894   5.301   0.791  2.2964  2.9154  0.1627
  940SOL    MW4 3534   2.858   5.318   0.713  0.7587  0.1453  0.1593
  941SOL     OW 3535   1.548   3.713   0.168  0.6422  0.2814 -0.0684
  941SOL    HW2 3536   1.597   3.707   0.087  0.6564 -0.2507 -0.0263
  941SOL    HW3 3537   1.574   3.635   0.218 -1.1201 -0.6944 -0.5568
  941SOL    MW4 3538   1.558   3.702   0.164  0.4116  0.0825 -0.1272
  942SOL     OW 3539   0.998   3.511   0.114  1.0127  0.3335 -0.3283
  942SOL    HW2 3540   0.936   3.561   0.061  1.9337  2.0552  0.1458
  942SOL    HW3 3541   0.943   3.466   0.178  0.2394  2.0369  0.2622
  942SOL    MW4 3542   0.982   3.511   0.115  1.0322  0.7854 -0.1878
  943SOL     OW 3543   0.517   5.769   3.645 -0.1998  0.2085  0.0712
  943SOL    HW2 3544   0.455   5.800   3.710 -0.9552  0.0401 -0.5522
  943SOL    HW3 3545   0.514   5.673   3.651  0.5777  0.2083  0.5652
  943SOL    MW4 3546   0.508   5.760   3.654 -0.1969  0.1863  0.0541
  944SOL     OW 3547   3.830   3.590   2.079  0.2252 -0.0146 -0.3779
  944SOL    HW2 3548   3.904   3.537   2.050  0.4442  1.3683 -2.5845
  944SOL    HW3 3549   3.871   3.663   2.127  0.0747 -0.5904  0.6620
  944SOL    MW4 3550   3.846   3.593   2.082  0.2342  0.0919 -0.5319
  945SOL     OW 3551   3.080   1.587   3.179 -0.4104 -0.1608 -0.1845
  945SOL    HW2 3552   3.085   1.573   3.084 -1.6026 -1.9386 -0.0404
  945SOL    HW3 3553   3.124   1.511   3.217 -2.1040 -0.7708  0.6665
  945SOL    MW4 3554   3.086   1.575   3.171 -0.7911 -0.4758 -0.0532
  946SOL     OW 3555   0.716   0.230   1.528 -0.0257 -0.0317  0.2407
  946SOL    HW2 3556   0.668   0.219   1.446 -0.8626  0.1445  0.6985
  946SOL    HW3 3557   0.654   0.204   1.596 -0.0291  1.7270  0.9585
  946SOL    MW4 3558   0.702   0.225   1.526 -0.1365  0.2236  0.3958
  947SOL     OW 3559   1.592   4.554   1.202  0.1418 -0.1609  0.7494
  947SOL    HW2 3560   1.636   4.494   1.261 -1.7735 -1.3127  1.0954
  947SOL    HW3 3561   1.602   4.514   1.115  0.7315  0.1783  0.6561
  947SOL    MW4 3562   1.599   4.541   1.198 -0.0331 -0.2681  0.7827
  948SOL     OW 3563   0.668   2.571   5.306  0.0971  0.2510  0.2103
  948SOL    HW2 3564   0.704   2.596   5.221  1.3124 -0.6256  0.4392
  948SOL    HW3 3565   0.741   2.582   5.367  0.0656 -1.7181  0.6645
  948SOL    MW4 3566   0.682   2.576   5.303  0.2533 -0.1244  0.3004
  949SOL     OW 3567   5.975   0.933   4.172 -0.1643 -0.5219  0.5315
  949SOL    HW2 3568   5.973   0.946   4.077 -2.5853  0.6179  0.6656
  949SOL    HW3 3569   5.900   0.878   4.191 -0.6735  0.5894  1.9294
  949SOL    MW4 3570   5.965   0.928   4.162 -0.5509 -0.2249  0.7336
  950SOL     OW 3571   4.158   0.161   2.043 -0.2219 -0.3196  0.1766
  950SOL    HW2 3572   4.067   0.151   2.018 -0.1287 -0.8853  0.0685
  950SOL    HW3 3573   4.156   0.172   2.139 -0.5045  0.9787  0.0427
  950SOL    MW4 3574   4.146   0.161   2.053 -0.2469 -0.2229  0.1447
  951SOL     OW 3575   3.422   0.172   2.301  0.2076 -0.2758 -0.2079
  951SOL    HW2 3576   3.405   0.234   2.373 -0.7921  0.2492 -0.8816
  951SOL    HW3 3577   3.338   0.131   2.284  0.5668 -0.8111 -0.7172
  951SOL    MW4 3578   3.409   0.175   2.309  0.1231 -0.2772 -0.3640
  952SOL     OW 3579   5.347   3.979   6.052 -0.1862 -1.0930  0.1319
  952SOL    HW2 3580   5.354   4.014   6.140  0.0178  0.7502 -0.5650
  952SOL    HW3 3581   5.437   3.965   6.024 -0.1609  0.0839 -0.4196
  952SOL    MW4 3582   5.359   3.981   6.060 -0.1560 -0.6945 -0.0328
  953SOL     OW 3583   0.494   4.232   5.041 -0.1777  0.1046 -0.5130
  953SOL    HW2 3584   0.470   4.166   4.976  0.7304  0.4590 -1.2244
  953SOL    HW3 3585   0.564   4.192   5.092 -0.8734 -0.1642  0.2520
  953SOL    MW4 3586   0.500   4.218   5.039 -0.1496  0.1159 -0.5059
  954SOL     OW 3587   5.007   0.532   5.205  0.3428  0.3379 -0.1622
  954SOL    HW2 3588   4.916   0.532   5.234  0.5379  0.0464  0.4586
  954SOL    HW3 3589   5.043   0.613   5.240  0.7342 -0.2902  0.9240
  954SOL    MW4 3590   5.000   0.543   5.213  0.4202  0.2166  0.0630
  955SOL     OW 3591   1.793   5.788   1.154  0.4519  0.0912 -0.4004
  955SOL    HW2 3592   1.809   5.859   1.216 -0.5982 -1.0608  1.2702
  955SOL    HW3 3593   1.879   5.773   1.113  1.4458  0.2342  1.4971
  955SOL    MW4 3594   1.807   5.796   1.157  0.4445 -0.0419  0.0704
  956SOL     OW 3595   4.901   0.103   5.248 -0.0268  0.2737  0.4363
  956SOL    HW2 3596   4.882   0.188   5.287 -0.4802  0.9668 -1.2243
  956SOL    HW3 3597   4.928   0.048   5.322 -0.6234  1.5850  1.6660
  956SOL    MW4 3598   4.902   0.107   5.263 -0.1654  0.5382  0.3794
  957SOL     OW 3599   5.934   2.240   3.519 -1.1813 -0.0985  0.3839
  957SOL    HW2 3600   6.011   2.238   3.463 -0.4754 -0.4276  1.3365
  957SOL    HW3 3601   5.872   2.179   3.479 -1.0981  0.4202 -0.5715
  957SOL    MW4 3602   5.936   2.232   3.506 -1.0772 -0.0735  0.3835
  958SOL     OW 3603   6.101   4.605   4.954  0.4292 -0.0813 -0.4934
  958SOL    HW2 3604   6.174   4.613   5.014 -0.5295  1.4529  0.5382
  958SOL    HW3 3605   6.115   4.673   4.889  0.1668 -0.0947 -0.5653
  958SOL    MW4 3606   6.112   4.615   4.953  0.2681  0.1194 -0.3668
  959SOL     OW 3607   1.112   0.528   5.980  0.2925  0.0240 -0.4509
  959SOL    HW2 3608   1.138   0.523   6.072  2.2217 -0.7544 -0.9982
  959SOL    HW3 3609   1.177   0.585   5.940 -1.0217  1.0445 -1.2127
  959SOL    MW4 3610   1.124   0.535   5.987  0.3736  0.0559 -0.6236
  960SOL     OW 3611   4.785   1.105   5.201 -0.1181 -0.3116 -0.1139
  960SOL    HW2 3612   4.690   1.121   5.208 -0.4877 -1.7206 -1.3370
  960SOL    HW3 3613   4.796   1.066   5.115  1.2999 -2.0090  0.7730
  960SOL    MW4 3614   4.774   1.102   5.191  0.0202 -0.7214 -0.1582
  961SOL     OW 3615   0.022   3.528   1.051 -0.2336 -0.9165  0.1286
  961SOL    HW2 3616   0.046   3.473   0.977 -0.3582  0.4232 -0.9318
  961SOL    HW3 3617   0.090   3.595   1.056 -1.1415  0.0382  0.1130
  961SOL    MW4 3618   0.034   3.529   1.042 -0.3699 -0.6138 -0.0133
  962SOL     OW 3619   5.786   1.621   3.197 -0.1606 -0.2749 -0.5858
  962SOL    HW2 3620   5.813   1.530   3.210 -2.3530 -0.8971  0.0443
  962SOL    HW3 3621   5.736   1.643   3.276 -0.5847  1.1247 -1.2050
  962SOL    MW4 3622   5.783   1.612   3.210 -0.5058 -0.1723 -0.5844
  963SOL     OW 3623   3.442   0.704   1.567  0.5192  0.4558 -0.3545
  963SOL    HW2 3624   3.506   0.774   1.577  0.0125  0.9221 -0.3054
  963SOL    HW3 3625   3.419   0.679   1.657  0.0569  0.8313 -0.3642
  963SOL    MW4 3626   3.447   0.710   1.580  0.3913  0.5669 -0.3493
  964SOL     OW 3627   3.710   0.248   2.172 -0.0322  0.2106 -0.6174
  964SOL    HW2 3628   3.767   0.325   2.180  2.7812 -1.7574 -0.3125
  964SOL    HW3 3629   3.645   0.259   2.242  0.7845  1.8982 -0.0762
  964SOL    MW4 3630   3.709   0.260   2.182  0.4468  0.1736 -0.5058
  965SOL     OW 3631   2.742   2.505   0.969 -0.5443  0.0864 -0.1836
  965SOL    HW2 3632   2.779   2.530   1.053 -1.2355 -1.7363  0.7012
  965SOL    HW3 3633   2.652   2.479   0.989 -0.5800 -0.8289 -1.4067
  965SOL    MW4 3634   2.735   2.505   0.982 -0.6402 -0.2748 -0.2282
  966SOL     OW 3635   4.197   6.168   0.567  0.5357  0.1677  0.2350
  966SOL    HW2 3636   4.132   6.131   0.626  0.4620  0.9016  0.6214
  966SOL    HW3 3637   4.161   6.153   0.479  0.4069 -0.4694  0.3887
  966SOL    MW4 3638   4.184   6.161   0.563  0.5090  0.1805  0.3063
  967SOL     OW 3639   5.491   1.976   5.528  0.3056 -0.0249 -0.7173
  967SOL    HW2 3640   5.573   2.019   5.551  0.6873 -0.1785 -1.7616
  967SOL    HW3 3641   5.430   2.047   5.509 -0.1139  0.1194  1.0031
  967SOL    MW4 3642   5.494   1.991   5.529  0.3006 -0.0261 -0.6281
  968SOL     OW 3643   2.557   4.664   2.888 -0.3478  0.4493  0.2484
  968SOL    HW2 3644   2.591   4.574   2.883 -0.8738  0.0756  2.3040
  968SOL    HW3 3645   2.618   4.716   2.835  0.8009 -0.8915  0.1877
  968SOL    MW4 3646   2.570   4.659   2.880 -0.2657  0.2231  0.5116
  969SOL     OW 3647   3.857   1.991   2.473 -0.1357 -0.4467  0.0721
  969SOL    HW2 3648   3.874   2.006   2.380  0.8147  0.3534  0.3684
  969SOL    HW3 3649   3.929   1.935   2.502 -1.0007 -1.5896  0.1033
  969SOL    MW4 3650   3.869   1.985   2.465 -0.1244 -0.4920  0.1153
  970SOL     OW 3651   3.566   4.798   4.774 -0.5511  0.1519  0.2930
  970SOL    HW2 3652   3.646   4.797   4.827 -0.5100 -0.8342  0.2277
  970SOL    HW3 3653   3.566   4.714   4.728 -0.7191  0.8852 -1.0896
  970SOL    MW4 3654   3.576   4.786   4.775 -0.5679  0.1185  0.1020
  971SOL     OW 3655   3.853   4.717   2.231  0.1001 -0.1602 -0.1689
  971SOL    HW2 3656   3.922   4.668   2.187  0.2855 -0.7192  0.7028
  971SOL    HW3 3657   3.799   4.649   2.273 -0.4377  0.3181 -0.0720
  971SOL    MW4 3658   3.855   4.701   2.231  0.0536 -0.1708 -0.0411
  972SOL     OW 3659   0.083   3.264   3.386 -0.0011  0.4239 -0.4428
  972SOL    HW2 3660   0.062   3.297   3.473  0.7106  0.1860 -0.1666
  972SOL    HW3 3661   0.171   3.299   3.368 -0.0528  0.2921 -0.9701
  972SOL    MW4 3662   0.092   3.273   3.395  0.0859  0.3752 -0.4760
  973SOL     OW 3663   4.652   1.769   3.285  0.1680  0.2568 -0.0394
  973SOL    HW2 3664   4.629   1.792   3.375 -0.9693  1.5281 -0.6166
  973SOL    HW3 3665   4.721   1.704   3.293 -0.5355 -0.3033  1.7609
  973SOL    MW4 3666   4.658   1.764   3.298 -0.0749  0.3507  0.1220
  974SOL     OW 3667   0.304   0.800   1.667 -0.4291 -0.5515  0.1615
  974SOL    HW2 3668   0.288   0.728   1.728  2.8485 -1.0475  0.5758
  974SOL    HW3 3669   0.340   0.758   1.589 -1.2400  0.4160 -0.7590
  974SOL    MW4 3670   0.306   0.785   1.665 -0.1036 -0.4893  0.0947
  975SOL     OW 3671   2.320   2.555   3.045 -0.4687  0.4532  0.4012
  975SOL    HW2 3672   2.324   2.634   3.100  0.8164  0.6026  0.1146
  975SOL    HW3 3673   2.403   2.510   3.060 -0.8057 -0.3790 -0.1424
  975SOL    MW4 3674   2.331   2.560   3.054 -0.3436  0.3631  0.2917
  976SOL     OW 3675   1.158   5.674   2.396  0.2735 -0.4415  0.4031
  976SOL    HW2 3676   1.150   5.760   2.354 -0.2283 -0.4885  0.4020
  976SOL    HW3 3677   1.207   5.621   2.333 -0.6148 -0.5628 -0.1977
  976SOL    MW4 3678   1.163   5.678   2.382  0.0901 -0.4637  0.3237
  977SOL     OW 3679   6.393   0.108   4.866  0.1511 -0.0243 -0.4498
  977SOL    HW2 3680   6.339   0.058   4.805 -0.3526  0.6180 -0.5411
  977SOL    HW3 3681   6.394   0.197   4.830 -0.1874  0.3718  0.4917
  977SOL    MW4 3682   6.386   0.113   4.853  0.0400  0.1127 -0.3376
  978SOL     OW 3683   1.397   6.033   2.149 -0.3696 -0.3612 -0.1947
  978SOL    HW2 3684   1.320   6.051   2.095 -1.3624 -2.7323  0.3123
  978SOL    HW3 3685   1.426   6.119   2.179 -2.5589  0.6292 -0.7327
  978SOL    MW4 3686   1.391   6.047   2.146 -0.7894 -0.5433 -0.1988
  979SOL     OW 3687   3.884   4.773   0.780 -0.0040 -0.2354  0.0345
  979SOL    HW2 3688   3.804   4.783   0.727  0.1685  0.3609 -0.1246
  979SOL    HW3 3689   3.937   4.849   0.757  0.0805  0.0309  1.0692
  979SOL    MW4 3690   3.880   4.784   0.770  0.0299 -0.1216  0.1500
  980SOL     OW 3691   6.254   5.190   3.991 -0.0849  0.4817 -0.2601
  980SOL    HW2 3692   6.284   5.255   4.055  0.2240  0.4923 -0.4135
  980SOL    HW3 3693   6.191   5.237   3.936 -1.9427 -0.0510  1.2924
  980SOL    MW4 3694   6.250   5.205   3.993 -0.2893  0.4129 -0.0755
  981SOL     OW 3695   6.251   6.225   5.340  0.1204 -0.0953  0.0017
  981SOL    HW2 3696   6.293   6.208   5.256 -0.9276  1.5753 -0.9108
  981SOL    HW3 3697   6.324   6.246   5.399  0.7871 -0.0367 -0.8200
  981SOL    MW4 3698   6.266   6.226   5.337  0.0701  0.1329 -0.2271
  982SOL     OW 3699   5.256   2.454   3.508 -0.4501 -0.3685 -0.5073
  982SOL    HW2 3700   5.178   2.402   3.527 -0.5286 -0.1822 -0.3068
  982SOL    HW3 3701   5.237   2.498   3.425 -1.1575  0.8064  0.2505
  982SOL    MW4 3702   5.243   2.453   3.500 -0.5538 -0.1889 -0.3809
  983SOL     OW 3703   3.552   2.452   4.177 -0.4248 -0.6519 -0.2732
  983SOL    HW2 3704   3.562   2.430   4.085  0.1479 -0.6896 -0.2074
  983SOL    HW3 3705   3.589   2.540   4.185  0.1117 -0.9017  0.0368
  983SOL    MW4 3706   3.558   2.461   4.166 -0.2784 -0.6898 -0.2236
  984SOL     OW 3707   5.857   0.126   5.295 -0.0997  0.3328  0.2932
  984SOL    HW2 3708   5.839   0.166   5.210 -1.3132  0.3059  0.5094
  984SOL    HW3 3709   5.827   0.191   5.359  1.4469  0.6532  0.7421
  984SOL    MW4 3710   5.850   0.140   5.292 -0.0557  0.3715  0.3810
  985SOL     OW 3711   4.328   4.553   5.091 -0.9915 -0.1861 -0.1406
  985SOL    HW2 3712   4.354   4.644   5.103 -1.1713  0.0897 -1.6200
  985SOL    HW3 3713   4.401   4.513   5.043  0.2448 -1.5275  2.6522
  985SOL    MW4 3714   4.341   4.560   5.086 -0.8521 -0.3267  0.0327
  986SOL     OW 3715   4.783   5.280   4.274 -0.2362  0.0403 -0.4248
  986SOL    HW2 3716   4.801   5.355   4.218 -2.5673  0.0556 -1.2872
  986SOL    HW3 3717   4.744   5.215   4.215 -0.2383 -1.0225  0.6994
  986SOL    MW4 3718   4.780   5.281   4.259 -0.5441 -0.0979 -0.3903
  987SOL     OW 3719   5.446   0.326   1.665 -0.2261  0.3298  0.0519
  987SOL    HW2 3720   5.396   0.402   1.635 -1.5488 -0.0572  1.1856
  987SOL    HW3 3721   5.507   0.309   1.594 -1.2070  1.2798 -1.0709
  987SOL    MW4 3722   5.448   0.334   1.652 -0.5300  0.4041  0.0533
  988SOL     OW 3723   6.398   5.574   1.138  0.1304 -0.1363 -0.0534
  988SOL    HW2 3724   6.339   5.573   1.062 -0.8501  0.6675  0.6602
  988SOL    HW3 3725   6.348   5.619   1.206  1.0763 -0.6465  1.0082
  988SOL    MW4 3726   6.383   5.580   1.137  0.1259 -0.0975  0.1808
  989SOL     OW 3727   1.569   4.428   3.968 -0.2118 -0.1307  0.2091
  989SOL    HW2 3728   1.630   4.476   3.913 -0.5791  0.2192  0.1065
  989SOL    HW3 3729   1.571   4.338   3.934 -1.7905  0.4356 -1.5795
  989SOL    MW4 3730   1.577   4.422   3.956 -0.4686 -0.0098 -0.0404
  990SOL     OW 3731   5.556   0.225   4.915 -0.3961 -0.3930  0.0340
  990SOL    HW2 3732   5.638   0.250   4.957  0.7203 -0.7347 -1.8314
  990SOL    HW3 3733   5.489   0.275   4.961  0.9159  0.3112  1.2471
  990SOL    MW4 3734   5.558   0.235   4.926 -0.0757 -0.3452 -0.0521
  991SOL     OW 3735   5.192   2.842   0.278 -0.1397  0.3186  0.2282
  991SOL    HW2 3736   5.270   2.793   0.251 -1.9398 -2.0694 -1.0428
  991SOL    HW3 3737   5.184   2.825   0.372 -0.4598 -1.5547 -0.0993
  991SOL    MW4 3738   5.201   2.833   0.287 -0.4194 -0.2436  0.0173
  992SOL     OW 3739   6.190   2.560   0.255 -0.1379  0.2124  0.5135
  992SOL    HW2 3740   6.193   2.651   0.226  0.9730  0.5938  1.7302
  992SOL    HW3 3741   6.120   2.521   0.202  0.3470  1.3797 -1.0701
  992SOL    MW4 3742   6.181   2.567   0.245  0.0727  0.4167  0.4651
  993SOL     OW 3743   1.004   5.222   2.337 -0.1500  0.0584 -0.0735
  993SOL    HW2 3744   0.915   5.230   2.374 -0.1864  0.8164 -0.3138
  993SOL    HW3 3745   1.061   5.253   2.407 -0.2229  1.5610 -0.6477
  993SOL    MW4 3746   1.000   5.227   2.351 -0.1644  0.3566 -0.1810
  994SOL     OW 3747   1.987   4.745   4.591  0.4826 -0.3141  0.0093
  994SOL    HW2 3748   1.953   4.829   4.622  1.7334  0.1450  0.1831
  994SOL    HW3 3749   2.022   4.763   4.504  0.3917 -0.7573 -0.1269
  994SOL    MW4 3750   1.987   4.758   4.584  0.6357 -0.3120  0.0142
  995SOL     OW 3751   1.315   6.033   6.418  0.2433  0.0831 -0.1924
  995SOL    HW2 3752   1.297   5.971   6.489  1.0874 -0.4155 -0.3976
  995SOL    HW3 3753   1.367   6.102   6.459 -1.0087  0.8840  0.1217
  995SOL    MW4 3754   1.319   6.034   6.433  0.1895  0.1230 -0.1780
  996SOL     OW 3755   3.911   5.909   1.875  0.2121 -0.0507  0.4703
  996SOL    HW2 3756   3.931   5.816   1.881 -1.1720 -0.3087  1.5304
  996SOL    HW3 3757   3.924   5.930   1.783  0.0344 -1.4156  0.1107
  996SOL    MW4 3758   3.915   5.900   1.864  0.0061 -0.2648  0.5628
  997SOL     OW 3759   3.026   5.276   5.733  0.3499  0.2518 -0.4941
  997SOL    HW2 3760   3.090   5.341   5.704  0.9051  0.3584  0.9069
  997SOL    HW3 3761   3.001   5.304   5.821 -0.7001 -0.4829 -0.5419
  997SOL    MW4 3762   3.031   5.288   5.740  0.2846  0.1689 -0.3155
  998SOL     OW 3763   2.148   5.561   4.438  0.2656 -0.1365  0.2355
  998SOL    HW2 3764   2.121   5.645   4.474  0.7325 -0.7990  2.2612
  998SOL    HW3 3765   2.244   5.567   4.434  0.3034 -0.5783  0.4397
  998SOL    MW4 3766   2.157   5.573   4.442  0.3322 -0.2822  0.5297
  999SOL     OW 3767   4.650   3.210   4.402 -0.0214 -0.3287 -0.3583
  999SOL    HW2 3768   4.645   3.170   4.316 -0.9526  0.3921 -0.6507
  999SOL    HW3 3769   4.626   3.301   4.388 -1.1306 -0.4087  0.7860
  999SOL    MW4 3770   4.646   3.216   4.389 -0.2906 -0.2442 -0.2459
 1000SOL     OW 3771   1.133   5.770   1.981  0.6609  0.4984 -0.2490
 1000SOL    HW2 3772   1.166   5.804   1.898 -0.1039  0.6559 -0.4993
 1000SOL    HW3 3773   1.054   5.722   1.957  0.3697  0.6402  0.4008
 1000SOL    MW4 3774   1.127   5.768   1.967  0.5216  0.5379 -0.1963
 1001SOL     OW 3775   1.725   2.112   4.194 -0.4122 -0.0875  0.6100
 1001SOL    HW2 3776   1.752   2.104   4.103 -1.0347  1.5893  0.2352
 1001SOL    HW3 3777   1.788   2.059   4.243  1.2058  0.6351 -0.5936
 1001SOL    MW4 3778   1.737   2.104   4.189 -0.2809  0.2291  0.4018
 1002SOL     OW 3779   4.222   0.087   4.763  0.1336  0.4631  0.1209
 1002SOL    HW2 3780   4.263   0.127   4.839  1.2754 -0.4175  0.0026
 1002SOL    HW3 3781   4.177   0.010   4.798  1.1401 -0.2671 -0.1468
 1002SOL    MW4 3782   4.221   0.082   4.778  0.4171  0.2506  0.0700
 1003SOL     OW 3783   5.058   1.778   0.963 -0.1317 -0.1032 -0.1857
 1003SOL    HW2 3784   5.054   1.843   0.893 -1.1438  0.6830  0.5660
 1003SOL    HW3 3785   4.992   1.713   0.940 -0.6259  0.2745  0.1264
 1003SOL    MW4 3786   5.049   1.778   0.951 -0.3305  0.0503 -0.0453
 1004SOL     OW 3787   1.083   5.012   0.521 -0.1419  0.5476 -0.1281
 1004SOL    HW2 3788   1.066   4.975   0.608 -1.4455 -1.0914 -1.0096
 1004SOL    HW3 3789   1.033   5.094   0.521  1.6748  1.7441  1.3876
 1004SOL    MW4 3790   1.074   5.018   0.533 -0.0742  0.4892 -0.0444
 1005SOL     OW 3791   1.648   2.451   4.011 -0.2174 -0.4568  0.3985
 1005SOL    HW2 3792   1.731   2.451   4.059 -0.6510  4.0148  1.6106
 1005SOL    HW3 3793   1.674   2.463   3.920  0.4881 -0.4808  0.5883
 1005SOL    MW4 3794   1.662   2.453   4.005 -0.1815  0.1300  0.5835
 1006SOL     OW 3795   4.845   4.059   0.255 -0.0539  0.3328 -0.0313
 1006SOL    HW2 3796   4.859   3.996   0.325  0.2765  0.7713  0.3030
 1006SOL    HW3 3797   4.905   4.031   0.185  0.5460  0.6278  0.3559
 1006SOL    MW4 3798   4.855   4.047   0.255  0.0688  0.4296  0.0639
 1007SOL     OW 3799   3.568   2.535   1.504 -0.6385 -0.1190  0.6433
 1007SOL    HW2 3800   3.477   2.525   1.530 -0.3817  0.2896  1.7436
 1007SOL    HW3 3801   3.612   2.568   1.582  0.4972 -0.5201  0.1981
 1007SOL    MW4 3802   3.562   2.538   1.518 -0.4548 -0.1180  0.7297
 1008SOL     OW 3803   5.425   3.913   0.468 -0.6915 -0.6696 -0.2869
 1008SOL    HW2 3804   5.375   3.951   0.397 -1.2163 -0.4054  0.2207
 1008SOL    HW3 3805   5.409   3.819   0.461 -1.2540 -0.5871 -0.1324
 1008SOL    MW4 3806   5.416   3.905   0.458 -0.8349 -0.6238 -0.1995
 1009SOL     OW 3807   3.334   3.666   1.250 -0.3789  0.0153  0.1847
 1009SOL    HW2 3808   3.396   3.716   1.304 -0.8253 -0.4780  1.1863
 1009SOL    HW3 3809   3.363   3.575   1.258 -1.7315 -0.3488  1.4307
 1009SOL    MW4 3810   3.346   3.661   1.258 -0.6162 -0.0978  0.4812
 1010SOL     OW 3811   2.987   0.972   3.263 -0.3821 -0.3626  0.3527
 1010SOL    HW2 3812   2.905   1.018   3.276 -0.7989 -0.7515 -0.7442
 1010SOL    HW3 3813   3.050   1.040   3.240 -0.3982 -0.0732  1.1252
 1010SOL    MW4 3814   2.985   0.987   3.262 -0.4392 -0.3757  0.3099
 1011SOL     OW 3815   5.544   5.265   6.324  0.4427  0.3783  0.9163
 1011SOL    HW2 3816   5.627   5.307   6.303 -0.3217  0.9941 -1.0516
 1011SOL    HW3 3817   5.496   5.262   6.241 -1.7950  0.6872  2.1197
 1011SOL    MW4 3818   5.549   5.270   6.311  0.0466  0.5003  0.8154
 1012SOL     OW 3819   2.295   6.097   2.361  0.0079  0.3844 -0.1315
 1012SOL    HW2 3820   2.348   6.109   2.283 -0.8358  0.6814 -0.6713
 1012SOL    HW3 3821   2.304   6.179   2.410 -1.1447  1.0368 -0.9710
 1012SOL    MW4 3822   2.303   6.109   2.357 -0.2555  0.5097 -0.3135
 1013SOL     OW 3823   2.364   5.872   5.189  0.1279 -0.1055 -0.5699
 1013SOL    HW2 3824   2.294   5.931   5.216  0.8067 -0.0187  1.1267
 1013SOL    HW3 3825   2.405   5.845   5.271  1.7588 -0.5526 -1.4974
 1013SOL    MW4 3826   2.360   5.876   5.203  0.4327 -0.1530 -0.4685
 1014SOL     OW 3827   5.328   0.754   4.941  0.2569  0.4461 -0.4142
 1014SOL    HW2 3828   5.410   0.786   4.904 -0.9527  1.1501 -2.6363
 1014SOL    HW3 3829   5.309   0.674   4.892 -0.0896 -0.0550  0.5186
 1014SOL    MW4 3830   5.336   0.748   4.930  0.0516  0.4728 -0.5843
 1015SOL     OW 3831   2.253   0.441   6.141 -0.2796 -0.8149  0.2225
 1015SOL    HW2 3832   2.273   0.357   6.099 -0.6019  0.1779 -2.0742
 1015SOL    HW3 3833   2.339   0.478   6.162 -0.1223 -1.5143  0.8243
 1015SOL    MW4 3834   2.267   0.435   6.138 -0.3013 -0.7762 -0.0011
 1016SOL     OW 3835   0.936   2.710   3.973 -0.0111 -0.1564  0.2031
 1016SOL    HW2 3836   0.997   2.641   3.947  0.8967 -0.3871  2.7469
 1016SOL    HW3 3837   0.957   2.783   3.914  1.1960 -0.9797 -0.4278
 1016SOL    MW4 3838   0.947   2.711   3.962  0.2679 -0.2954  0.4555
 1017SOL     OW 3839   4.455   0.472   5.182 -0.2915 -0.4662  0.0310
 1017SOL    HW2 3840   4.534   0.514   5.148 -1.2892  0.7699 -0.8552
 1017SOL    HW3 3841   4.404   0.543   5.220 -1.0420 -1.2261  0.4769
 1017SOL    MW4 3842   4.459   0.487   5.183 -0.5222 -0.4033 -0.0271
 1018SOL     OW 3843   3.456   6.005   0.024  0.1267  0.0567 -0.3769
 1018SOL    HW2 3844   3.410   5.959  -0.047  0.9627 -2.4081  0.5648
 1018SOL    HW3 3845   3.546   6.013  -0.008  0.8863 -2.4406  0.8835
 1018SOL    MW4 3846   3.462   6.000   0.010  0.3372 -0.5980 -0.0864
 1019SOL     OW 3847   3.232   5.007   0.681 -0.0968  0.1144 -0.0373
 1019SOL    HW2 3848   3.234   4.965   0.595 -0.4330 -2.2431  1.0129
 1019SOL    HW3 3849   3.139   5.023   0.698 -0.4397 -2.6411  1.2310
 1019SOL    MW4 3850   3.220   5.003   0.672 -0.1864 -0.5602  0.2686
 1020SOL     OW 3851   4.708   2.687   5.092  0.0154 -0.8118 -0.1568
 1020SOL    HW2 3852   4.697   2.773   5.051 -0.2013 -1.3880 -1.3612
 1020SOL    HW3 3853   4.727   2.628   5.018  2.2808 -1.4531  0.8365
 1020SOL    MW4 3854   4.709   2.691   5.077  0.2857 -0.9725 -0.1847
 1021SOL     OW 3855   3.802   4.797   4.211  0.0821  0.3536 -0.0321
 1021SOL    HW2 3856   3.866   4.785   4.140  0.0938  0.9118 -0.1200
 1021SOL    HW3 3857   3.761   4.881   4.192 -1.6499 -0.5899 -0.7396
 1021SOL    MW4 3858   3.805   4.807   4.199 -0.1448  0.3027 -0.1370
 1022SOL     OW 3859   0.833   5.068   3.940  0.1497  0.1911  0.1068
 1022SOL    HW2 3860   0.871   5.116   3.866 -1.0983  0.1507 -0.5864
 1022SOL    HW3 3861   0.897   4.999   3.959  0.3225 -0.0282 -1.1921
 1022SOL    MW4 3862   0.847   5.065   3.933  0.0078  0.1568 -0.1560
 1023SOL     OW 3863   4.350   0.844   3.176 -0.2989  0.5549  0.0570
 1023SOL    HW2 3864   4.422   0.803   3.129 -0.6507 -0.7227  0.5563
 1023SOL    HW3 3865   4.371   0.829   3.269 -1.2211  0.0940  0.2060
 1023SOL    MW4 3866   4.362   0.836   3.182 -0.4670  0.3255  0.1425
 1024SOL     OW 3867   0.153   4.284   3.588 -0.2703  0.6862 -0.2802
 1024SOL    HW2 3868   0.164   4.212   3.650  0.7168  1.9418  1.0509
 1024SOL    HW3 3869   0.236   4.331   3.589 -1.1657  2.3708 -0.4411
 1024SOL    MW4 3870   0.165   4.281   3.596 -0.2582  1.0742 -0.1258
 1025SOL     OW 3871   3.731   5.278   1.155  0.5859 -0.5290 -0.2139
 1025SOL    HW2 3872   3.826   5.282   1.165  1.0303  0.5394 -3.5818
 1025SOL    HW3 3873   3.702   5.368   1.164 -0.2092 -0.9098  1.2541
 1025SOL    MW4 3874   3.740   5.290   1.157  0.5396 -0.4383 -0.4646
 1026SOL     OW 3875   0.305   4.196   2.627 -0.1946  0.4986 -0.2766
 1026SOL    HW2 3876   0.256   4.271   2.660 -1.0771 -1.1790  2.6349
 1026SOL    HW3 3877   0.392   4.205   2.665 -0.1684  0.2804 -0.2794
 1026SOL    MW4 3878   0.310   4.207   2.636 -0.3076  0.2485  0.1072
 1027SOL     OW 3879   0.049   4.668   0.672  0.8115 -0.2250 -0.5679
 1027SOL    HW2 3880   0.135   4.700   0.697  1.8180 -2.2025 -1.3034
 1027SOL    HW3 3881   0.010   4.637   0.754  2.2359 -2.4466 -0.6471
 1027SOL    MW4 3882   0.055   4.668   0.686  1.1323 -0.7791 -0.6754
 1028SOL     OW 3883   4.380   0.264   4.944  0.5402 -0.6512  0.0676
 1028SOL    HW2 3884   4.344   0.275   5.032  0.7119 -0.6298  0.1353
 1028SOL    HW3 3885   4.474   0.249   4.958  0.3907 -1.8171 -0.0318
 1028SOL    MW4 3886   4.388   0.263   4.958  0.5431 -0.8022  0.0634
 1029SOL     OW 3887   3.698   0.611   6.239 -0.1196 -0.8588 -0.0951
 1029SOL    HW2 3888   3.678   0.700   6.269  1.8788 -0.5665  0.5136
 1029SOL    HW3 3889   3.630   0.592   6.174 -1.4026  0.5669  0.7503
 1029SOL    MW4 3890   3.686   0.620   6.234 -0.0252 -0.6321  0.0968
 1030SOL     OW 3891   1.132   4.522   5.833 -0.4597  0.4642  0.2177
 1030SOL    HW2 3892   1.152   4.450   5.774  0.0247  0.7266  0.0509
 1030SOL    HW3 3893   1.140   4.600   5.778 -0.0839  0.7060  0.6148
 1030SOL    MW4 3894   1.136   4.523   5.818 -0.3462  0.5307  0.2481
 1031SOL     OW 3895   3.124   0.349   3.072  0.2639 -0.0315 -0.4447
 1031SOL    HW2 3896   3.173   0.320   2.995 -1.0463 -1.7925 -0.6847
 1031SOL    HW3 3897   3.103   0.268   3.119  2.2715  1.0300  2.6235
 1031SOL    MW4 3898   3.128   0.334   3.068  0.3559 -0.1238 -0.0715
 1032SOL     OW 3899   1.930   2.045   4.644 -0.4842 -0.3425  0.5553
 1032SOL    HW2 3900   1.980   1.976   4.687 -0.9723 -0.2473  1.3056
 1032SOL    HW3 3901   1.982   2.124   4.656 -0.4573 -0.3795  0.6852
 1032SOL    MW4 3902   1.943   2.046   4.651 -0.5450 -0.3348  0.6714
 1033SOL     OW 3903   0.881   3.794   3.532  0.0840  1.2688 -0.5998
 1033SOL    HW2 3904   0.867   3.789   3.627 -2.0062 -0.7040 -0.9427
 1033SOL    HW3 3905   0.794   3.807   3.496  0.5716 -0.0102 -2.3539
 1033SOL    MW4 3906   0.868   3.795   3.540 -0.1275  0.8397 -0.8765
 1034SOL     OW 3907   3.767   1.920   3.238 -0.8863  0.2347  0.0343
 1034SOL    HW2 3908   3.804   1.842   3.196  1.3488  1.4363 -0.3874
 1034SOL    HW3 3909   3.676   1.921   3.209 -1.0176 -2.2355  0.1241
 1034SOL    MW4 3910   3.760   1.910   3.228 -0.6087  0.0673 -0.0095
 1035SOL     OW 3911   1.430   0.210   0.215 -0.1636  0.0591  0.0490
 1035SOL    HW2 3912   1.373   0.164   0.154  0.4089  1.0212 -1.2519
 1035SOL    HW3 3913   1.451   0.145   0.283 -2.0512 -0.5639  0.0755
 1035SOL    MW4 3914   1.425   0.195   0.216 -0.3371  0.1038 -0.1191
 1036SOL     OW 3915   2.578   4.349   3.870 -0.2010  0.2944 -0.1581
 1036SOL    HW2 3916   2.671   4.349   3.891  0.2022 -0.6814 -1.7286
 1036SOL    HW3 3917   2.561   4.438   3.839 -0.0285  0.7426  0.9881
 1036SOL    MW4 3918   2.588   4.361   3.868 -0.1250  0.2248 -0.2141
 1037SOL     OW 3919   0.162   0.893   4.115 -0.0507 -0.7114 -0.3341
 1037SOL    HW2 3920   0.207   0.952   4.055  1.3195 -1.8785 -0.4970
 1037SOL    HW3 3921   0.184   0.925   4.202 -0.0588 -0.4586 -0.4252
 1037SOL    MW4 3922   0.171   0.905   4.119  0.1290 -0.8320 -0.3676
 1038SOL     OW 3923   1.626   0.195   4.246 -0.2443 -0.5439 -0.0732
 1038SOL    HW2 3924   1.645   0.219   4.337  1.4327 -0.7112 -0.3538
 1038SOL    HW3 3925   1.531   0.181   4.245 -0.2518 -0.9547  1.7552
 1038SOL    MW4 3926   1.616   0.196   4.258 -0.0241 -0.6202  0.1310
 1039SOL     OW 3927   0.830   0.546   3.609  0.4571 -0.1314 -0.4607
 1039SOL    HW2 3928   0.871   0.478   3.556  0.3108 -0.0324 -0.7019
 1039SOL    HW3 3929   0.736   0.532   3.597  0.4177 -0.3389  0.0675
 1039SOL    MW4 3930   0.823   0.535   3.600  0.4326 -0.1457 -0.4228
 1040SOL     OW 3931   4.598   6.220   1.440 -0.0942  0.0004 -0.5549
 1040SOL    HW2 3932   4.635   6.170   1.513 -0.7804  0.3659  0.0525
 1040SOL    HW3 3933   4.589   6.155   1.370  2.3793  0.0398 -1.0077
 1040SOL    MW4 3934   4.602   6.205   1.440  0.1416  0.0538 -0.5345
 1041SOL     OW 3935   4.927   2.747   5.442 -0.1754 -0.1696 -0.2830
 1041SOL    HW2 3936   5.017   2.718   5.450 -0.6691 -1.4041  1.3702
 1041SOL    HW3 3937   4.928   2.837   5.474  0.1371 -0.8893  1.8468
 1041SOL    MW4 3938   4.939   2.755   5.447 -0.1993 -0.4274  0.2161
 1042SOL     OW 3939   2.513   5.828   5.428 -0.1473 -0.3560  0.0748
 1042SOL    HW2 3940   2.453   5.830   5.502 -0.4578 -0.9151 -0.1559
 1042SOL    HW3 3941   2.549   5.740   5.428  0.5504 -0.0802  0.1068
 1042SOL    MW4 3942   2.510   5.817   5.438 -0.0962 -0.3934  0.0486
 1043SOL     OW 3943   0.072   6.093   5.718  0.6078 -0.3321 -0.4138
 1043SOL    HW2 3944   0.040   6.015   5.764 -0.4616 -0.5784 -1.5257
 1043SOL    HW3 3945   0.167   6.090   5.730  0.4431 -0.8332  1.0478
 1043SOL    MW4 3946   0.080   6.082   5.726  0.4450 -0.4307 -0.3677
 1044SOL     OW 3947   1.817   1.184   4.736  0.4470 -0.4148  0.3236
 1044SOL    HW2 3948   1.837   1.261   4.683  0.6949 -0.5536  0.2121
 1044SOL    HW3 3949   1.761   1.217   4.806  0.5719 -0.1282  0.2887
 1044SOL    MW4 3950   1.813   1.198   4.738  0.4962 -0.3953  0.3043
 1045SOL     OW 3951   4.641   3.529   4.083 -0.0779 -0.5620  0.8396
 1045SOL    HW2 3952   4.664   3.565   3.997  1.1111  0.6590  1.6198
 1045SOL    HW3 3953   4.721   3.486   4.113 -0.9196 -2.2855  0.7435
 1045SOL    MW4 3954   4.655   3.528   4.076 -0.0321 -0.6283  0.9298
 1046SOL     OW 3955   1.292   0.414   2.526  1.1606 -0.4922 -0.3188
 1046SOL    HW2 3956   1.361   0.444   2.586  0.9259  1.1261 -0.8033
 1046SOL    HW3 3957   1.273   0.491   2.472 -1.3613 -0.7674  0.0967
 1046SOL    MW4 3958   1.299   0.428   2.527  0.7969 -0.3150 -0.3279
 1047SOL     OW 3959   0.045   4.900   6.223  0.5800 -0.3936 -0.1923
 1047SOL    HW2 3960   0.005   4.818   6.192  0.3886 -0.4883  0.3006
 1047SOL    HW3 3961  -0.019   4.936   6.285  2.5365 -2.1195  3.0721
 1047SOL    MW4 3962   0.031   4.894   6.227  0.8129 -0.6338  0.3034
 1048SOL     OW 3963   3.370   3.468   6.391  0.2284 -0.0987  0.1165
 1048SOL    HW2 3964   3.387   3.375   6.406 -0.3878 -0.0013  1.6165
 1048SOL    HW3 3965   3.438   3.513   6.441 -1.2021  0.2448  1.8561
 1048SOL    MW4 3966   3.381   3.462   6.400 -0.0416 -0.0405  0.5439
 1049SOL     OW 3967   3.789   1.694   4.152  0.0020  0.1623 -0.0654
 1049SOL    HW2 3968   3.785   1.770   4.094  1.7099  0.8374  0.6349
 1049SOL    HW3 3969   3.782   1.619   4.093 -2.6504  0.7880 -0.6861
 1049SOL    MW4 3970   3.787   1.694   4.137 -0.1226  0.3340 -0.0549
 1050SOL     OW 3971   5.261   6.396   0.509  0.8446 -0.4227  0.6075
 1050SOL    HW2 3972   5.295   6.351   0.586  0.8757 -0.8297  0.3583
 1050SOL    HW3 3973   5.275   6.335   0.437  0.7687 -0.0668  0.2847
 1050SOL    MW4 3974   5.268   6.382   0.510  0.8387 -0.4294  0.5320
 1051SOL     OW 3975   5.779   5.431   5.940 -0.1016 -0.0878  0.3763
 1051SOL    HW2 3976   5.788   5.387   6.024 -0.6035  1.1807  1.1195
 1051SOL    HW3 3977   5.787   5.361   5.875  1.4948 -0.9147  1.4178
 1051SOL    MW4 3978   5.781   5.416   5.942  0.0428 -0.0296  0.6118
 1052SOL     OW 3979   2.517   4.755   0.925 -0.2908 -0.2470 -0.6268
 1052SOL    HW2 3980   2.465   4.676   0.938 -0.9613  0.1501 -0.8007
 1052SOL    HW3 3981   2.595   4.726   0.879  1.6956 -1.5376  3.1646
 1052SOL    MW4 3982   2.520   4.741   0.920 -0.1172 -0.3649 -0.1495
 1053SOL     OW 3983   0.873   0.297   1.036  0.1811  0.1385 -0.3204
 1053SOL    HW2 3984   0.931   0.362   0.996  0.4513  0.2750  0.2875
 1053SOL    HW3 3985   0.793   0.299   0.982  0.2337  0.8899 -0.3711
 1053SOL    MW4 3986   0.870   0.305   1.023  0.2237  0.2557 -0.2469
 1054SOL     OW 3987   4.531   3.396   1.635  0.3224  0.0096 -0.7148
 1054SOL    HW2 3988   4.590   3.365   1.704  0.7194  0.4280 -0.8609
 1054SOL    HW3 3989   4.530   3.491   1.645  2.0420  0.2952 -2.5621
 1054SOL    MW4 3990   4.539   3.404   1.646  0.6017  0.1025 -0.9778
 1055SOL     OW 3991   3.590   4.032   5.868 -0.4901  0.3389 -0.2505
 1055SOL    HW2 3992   3.680   4.043   5.837 -0.4419  0.3919 -0.0938
 1055SOL    HW3 3993   3.563   3.948   5.833  0.0191 -0.2223  0.6499
 1055SOL    MW4 3994   3.599   4.023   5.859 -0.4166  0.2718 -0.1110
 1056SOL     OW 3995   0.355   6.001   4.515 -0.0360  0.7848 -0.2974
 1056SOL    HW2 3996   0.429   6.004   4.454 -0.1510 -0.0506 -0.4788
 1056SOL    HW3 3997   0.384   6.056   4.589  0.0769  1.8586 -1.1096
 1056SOL    MW4 3998   0.369   6.009   4.517 -0.0363  0.8163 -0.4285
 1057SOL     OW 3999   6.053   3.456   0.882 -0.0500 -0.3251  0.1623
 1057SOL    HW2 4000   5.962   3.467   0.908  0.0635  0.0224  0.4185
 1057SOL    HW3 4001   6.049   3.430   0.790 -0.3937  0.1676  0.0356
 1057SOL    MW4 4002   6.041   3.454   0.873 -0.0804 -0.2142  0.1794
 1058SOL     OW 4003   2.386   3.818   1.069 -0.2444 -0.8753  0.3446
 1058SOL    HW2 4004   2.446   3.745   1.085  2.3497  0.9035 -0.6071
 1058SOL    HW3 4005   2.390   3.833   0.974  0.7382  1.5717  0.6920
 1058SOL    MW4 4006   2.394   3.811   1.058  0.2275 -0.3178  0.2649
 1059SOL     OW 4007   6.421   3.685   2.847 -0.5594 -0.2671 -0.8245
 1059SOL    HW2 4008   6.412   3.736   2.766  0.6659 -0.6903 -1.2357
 1059SOL    HW3 4009   6.353   3.618   2.840 -0.4519 -0.3165 -1.5133
 1059SOL    MW4 4010   6.411   3.683   2.835 -0.3836 -0.3294 -0.9696
 1060SOL     OW 4011   0.783   3.058   0.598  0.9393  0.1328 -0.4202
 1060SOL    HW2 4012   0.732   3.055   0.517  0.0687  0.6340  0.0843
 1060SOL    HW3 4013   0.784   2.968   0.630 -0.4703  0.2612  0.0482
 1060SOL    MW4 4014   0.776   3.046   0.592  0.6385  0.2158 -0.2919
 1061SOL     OW 4015   4.188   2.835   0.831  0.9512  0.0963  0.5169
 1061SOL    HW2 4016   4.106   2.853   0.785  1.9960  1.9671 -0.7377
 1061SOL    HW3 4017   4.163   2.776   0.902 -1.0608 -1.3100 -1.2479
 1061SOL    MW4 4018   4.174   2.830   0.834  0.8235  0.1576  0.1185
 1062SOL     OW 4019   2.171   3.706   6.109  0.1186 -0.1196 -0.0285
 1062SOL    HW2 4020   2.218   3.704   6.192  1.9082 -1.4241 -0.9973
 1062SOL    HW3 4021   2.195   3.789   6.069 -2.2474  1.4181  1.4704
 1062SOL    MW4 4022   2.180   3.717   6.114  0.0426 -0.0888  0.0414
 1063SOL     OW 4023   5.324   3.319   5.817 -0.0473 -0.2612  0.5535
 1063SOL    HW2 4024   5.361   3.238   5.783  1.6349 -0.7912  3.3175
 1063SOL    HW3 4025   5.263   3.348   5.749 -1.5847 -4.3878 -0.1429
 1063SOL    MW4 4026   5.321   3.312   5.804 -0.0282 -0.8756  0.8263
 1064SOL     OW 4027   4.005   5.237   2.298 -0.3019  0.2602  0.5889
 1064SOL    HW2 4028   4.079   5.281   2.255  0.7037 -1.6380  0.2520
 1064SOL    HW3 4029   4.039   5.149   2.319 -3.4108 -1.9208 -2.5239
 1064SOL    MW4 4030   4.020   5.231   2.295 -0.5794 -0.2780  0.1338
 1065SOL     OW 4031   5.340   6.254   3.364  0.0744  0.2230 -0.1024
 1065SOL    HW2 4032   5.282   6.323   3.331 -0.0039 -0.6742 -1.9474
 1065SOL    HW3 4033   5.283   6.193   3.410 -0.1883  0.2651 -0.3709
 1065SOL    MW4 4034   5.325   6.255   3.366  0.0294  0.1102 -0.3813
 1066SOL     OW 4035   2.701   4.578   1.743 -0.3532  0.6257 -0.0462
 1066SOL    HW2 4036   2.785   4.589   1.787  0.0052  1.0368 -0.8048
 1066SOL    HW3 4037   2.707   4.635   1.666 -1.2033  0.4104 -0.2816
 1066SOL    MW4 4038   2.713   4.587   1.738 -0.4180  0.6515 -0.1773
 1067SOL     OW 4039   3.606   0.917   1.649  0.2230  0.2655  0.5742
 1067SOL    HW2 4040   3.599   0.997   1.597  0.5887 -2.0763 -3.5414
 1067SOL    HW3 4041   3.695   0.886   1.635 -0.4602 -1.8011  0.3658
 1067SOL    MW4 4042   3.617   0.923   1.640  0.1811 -0.3161  0.0037
 1068SOL     OW 4043   2.500   6.377   2.866 -0.2567 -0.0572 -0.1327
 1068SOL    HW2 4044   2.427   6.334   2.911  0.9382 -1.0321  0.9578
 1068SOL    HW3 4045   2.480   6.470   2.870  0.5635  0.1257  4.0609
 1068SOL    MW4 4046   2.488   6.384   2.872  0.0092 -0.1617  0.5645
 1069SOL     OW 4047   5.426   5.442   5.273 -0.0589  0.4133 -0.3530
 1069SOL    HW2 4048   5.375   5.385   5.216 -0.1382 -0.3200  0.4407
 1069SOL    HW3 4049   5.493   5.385   5.310 -0.8298  0.5563  1.3245
 1069SOL    MW4 4050   5.428   5.427   5.270 -0.1710  0.3354 -0.0270
 1070SOL     OW 4051   2.317   6.190   4.166 -0.2260 -0.0126  0.1737
 1070SOL    HW2 4052   2.407   6.222   4.166 -0.6823  1.3516  0.0491
 1070SOL    HW3 4053   2.281   6.220   4.250 -0.4064 -1.0357  0.4719
 1070SOL    MW4 4054   2.324   6.198   4.177 -0.3100  0.0324  0.1966
 1071SOL     OW 4055   1.671   3.978   1.761 -0.1541 -0.3116  0.5491
 1071SOL    HW2 4056   1.743   3.920   1.786 -0.6343 -1.4909 -0.6834
 1071SOL    HW3 4057   1.602   3.919   1.731 -0.4314  0.9027 -1.3919
 1071SOL    MW4 4058   1.671   3.962   1.760 -0.2540 -0.3070  0.1304
 1072SOL     OW 4059   5.279   3.815   5.631  0.6260 -0.8303  0.0040
 1072SOL    HW2 4060   5.339   3.775   5.693  0.8022  0.7920  0.9472
 1072SOL    HW3 4061   5.329   3.887   5.592 -0.8000  0.8962  1.2012
 1072SOL    MW4 4062   5.294   3.819   5.634  0.4611 -0.3885  0.2864
 1073SOL     OW 4063   4.594   3.772   5.944 -0.3780  0.0497  0.0596
 1073SOL    HW2 4064   4.564   3.863   5.937  0.9487  0.3706 -2.4152
 1073SOL    HW3 4065   4.688   3.776   5.927 -0.0947 -1.6967  0.9758
 1073SOL    MW4 4066   4.603   3.785   5.941 -0.1656 -0.1383 -0.1461
 1074SOL     OW 4067   4.574   4.912   5.846 -0.2385  0.1971 -0.7590
 1074SOL    HW2 4068   4.626   4.914   5.765 -0.8081 -2.1245 -1.2512
 1074SOL    HW3 4069   4.638   4.894   5.915 -0.0268 -0.0016 -1.0033
 1074SOL    MW4 4070   4.590   4.910   5.844 -0.2857 -0.1354 -0.8562
 1075SOL     OW 4071   5.182   0.026   5.908  0.3422  0.0082 -0.4939
 1075SOL    HW2 4072   5.094   0.020   5.945  0.6384  1.5404  0.5574
 1075SOL    HW3 4073   5.196  -0.058   5.865 -1.0304 -0.8800  0.7076
 1075SOL    MW4 4074   5.173   0.014   5.907  0.2002  0.0932 -0.1966
 1076SOL     OW 4075   4.956   0.238   6.279  0.2340  0.3010 -0.1464
 1076SOL    HW2 4076   5.047   0.223   6.255  0.0392 -0.5917 -0.3810
 1076SOL    HW3 4077   4.940   0.178   6.352 -0.2807  0.1039 -0.4120
 1076SOL    MW4 4078   4.966   0.228   6.285  0.1404  0.1572 -0.2124
 1077SOL     OW 4079   1.991   0.133   3.874 -0.3202 -0.2614  0.4764
 1077SOL    HW2 4080   2.052   0.142   3.801 -0.5295  1.0240  0.4430
 1077SOL    HW3 4081   1.936   0.059   3.850 -0.1563 -0.0779 -0.5064
 1077SOL    MW4 4082   1.992   0.124   3.861 -0.3262 -0.0676  0.3423
 1078SOL     OW 4083   4.827   5.416   3.085  0.2378  0.3106 -0.3580
 1078SOL    HW2 4084   4.874   5.495   3.112  2.6663 -1.2506  0.3538
 1078SOL    HW3 4085   4.781   5.388   3.164 -0.1387  0.6822 -0.4433
 1078SOL    MW4 4086   4.827   5.423   3.099  0.5085  0.1536 -0.2754
 1079SOL     OW 4087   1.899   2.762   3.894 -0.5577  0.2043 -0.2651
 1079SOL    HW2 4088   1.862   2.849   3.908 -0.4672  0.0729  0.9806
 1079SOL    HW3 4089   1.993   2.773   3.907 -0.4836  0.0213 -0.6383
 1079SOL    MW4 4090   1.907   2.775   3.898 -0.5360  0.1628 -0.1500
 1080SOL     OW 4091   1.092   1.616   0.956  0.3138 -0.2927  0.6846
 1080SOL    HW2 4092   1.005   1.578   0.973  0.1252 -0.6258 -0.8730
 1080SOL    HW3 4093   1.118   1.578   0.872  2.5548 -1.2053  1.7240
 1080SOL    MW4 4094   1.084   1.606   0.947  0.5846 -0.4571  0.6162
 1081SOL     OW 4095   3.684   6.254   0.857 -0.7644  0.4874 -0.0028
 1081SOL    HW2 4096   3.698   6.200   0.779 -2.1766  0.1363 -0.0462
 1081SOL    HW3 4097   3.643   6.194   0.920  0.8353  0.6199  1.2318
 1081SOL    MW4 4098   3.681   6.239   0.855 -0.7397  0.4586  0.1544
 1082SOL     OW 4099   4.547   3.046   5.725  0.2235  0.2112 -0.1351
 1082SOL    HW2 4100   4.563   2.965   5.677 -0.5697 -0.3933  0.5982
 1082SOL    HW3 4101   4.579   3.027   5.814  1.9242  1.3969 -0.4360
 1082SOL    MW4 4102   4.554   3.032   5.731  0.3432  0.2878 -0.0780
 1083SOL     OW 4103   5.028   3.509   4.449 -0.1799  0.3923  0.4577
 1083SOL    HW2 4104   5.006   3.593   4.490 -0.6792  0.4193  0.1514
 1083SOL    HW3 4105   4.952   3.453   4.467  0.2884 -0.0983  0.9302
 1083SOL    MW4 4106   5.015   3.513   4.457 -0.1840  0.3311  0.4797
 1084SOL     OW 4107   0.656   4.347   1.910  0.4291 -0.3494 -0.0911
 1084SOL    HW2 4108   0.612   4.293   1.845 -1.4260  1.2476 -0.2412
 1084SOL    HW3 4109   0.605   4.428   1.913  3.0884  1.4694  0.0671
 1084SOL    MW4 4110   0.644   4.351   1.902  0.5352  0.1013 -0.0900
 1085SOL     OW 4111   1.883   2.080   3.670 -0.0043 -0.3354  0.0018
 1085SOL    HW2 4112   1.966   2.052   3.631  0.8963  0.5037  1.2347
 1085SOL    HW3 4113   1.816   2.041   3.614  1.2057 -1.5457 -0.6739
 1085SOL    MW4 4114   1.885   2.071   3.657  0.2742 -0.3844  0.0753
 1086SOL     OW 4115   4.645   6.018   1.644 -0.2086 -0.3053 -0.4391
 1086SOL    HW2 4116   4.602   6.061   1.718 -0.4107 -3.2717  1.2818
 1086SOL    HW3 4117   4.577   5.962   1.606  0.9217 -1.7610 -0.3926
 1086SOL    MW4 4118   4.630   6.017   1.648 -0.0861 -0.8888 -0.2059
 1087SOL     OW 4119   2.920   5.635   6.303 -0.3071 -0.2802  0.6068
 1087SOL    HW2 4120   2.938   5.576   6.229  0.9625  1.6388 -0.7179
 1087SOL    HW3 4121   2.825   5.630   6.315 -0.4771 -1.0457 -0.8165
 1087SOL    MW4 4122   2.910   5.626   6.295 -0.1620 -0.1280  0.2442
 1088SOL     OW 4123   4.841   4.383   5.299  0.1622 -0.0599 -0.1023
 1088SOL    HW2 4124   4.772   4.323   5.327 -0.5525  1.1538  0.7966
 1088SOL    HW3 4125   4.893   4.331   5.237 -1.4291 -1.0627 -0.6678
 1088SOL    MW4 4126   4.839   4.368   5.295 -0.1421 -0.0321 -0.0583
 1089SOL     OW 4127   3.087   2.809   3.959  0.2889  0.2220 -0.1125
 1089SOL    HW2 4128   3.150   2.798   3.887 -1.3302 -1.4819 -1.3668
 1089SOL    HW3 4129   3.110   2.741   4.022  0.0778 -0.0130 -0.2881
 1089SOL    MW4 4130   3.098   2.799   3.957  0.0474 -0.0338 -0.3011
 1090SOL     OW 4131   5.760   6.230   2.614 -0.4335 -0.7573  0.4575
 1090SOL    HW2 4132   5.711   6.244   2.533 -0.2704  1.6832  0.7240
 1090SOL    HW3 4133   5.785   6.318   2.643  1.4607 -1.7230  1.9705
 1090SOL    MW4 4134   5.757   6.243   2.607 -0.1621 -0.5627  0.6923
 1091SOL     OW 4135   1.716   5.888   1.747 -0.5158  0.6046 -0.3822
 1091SOL    HW2 4136   1.806   5.859   1.735 -0.6666 -1.2598  2.0965
 1091SOL    HW3 4137   1.670   5.861   1.668 -0.0106 -3.7044  0.5710
 1091SOL    MW4 4138   1.721   5.881   1.735 -0.4690 -0.2099  0.0706
 1092SOL     OW 4139   6.059   1.172   0.317  0.4542 -0.1710 -0.3297
 1092SOL    HW2 4140   6.032   1.157   0.226 -1.0212  0.9090 -0.1121
 1092SOL    HW3 4141   6.108   1.093   0.341 -0.0562 -0.9466 -1.7147
 1092SOL    MW4 4142   6.062   1.160   0.308  0.1922 -0.1309 -0.4837
 1093SOL     OW 4143   2.060   0.168   4.678 -0.2122 -0.3574  0.1988
 1093SOL    HW2 4144   2.004   0.237   4.714  1.1592 -0.5493  2.9516
 1093SOL    HW3 4145   2.050   0.176   4.583 -2.5562  1.5203  0.5133
 1093SOL    MW4 4146   2.051   0.178   4.670 -0.3406 -0.1350  0.6035
 1094SOL     OW 4147   0.357   2.012   4.379  0.2737 -0.7655 -0.2148
 1094SOL    HW2 4148   0.375   2.084   4.318 -0.6096 -0.9948 -0.7721
 1094SOL    HW3 4149   0.440   1.966   4.388  0.7963  0.1702 -0.0393
 1094SOL    MW4 4150   0.370   2.015   4.372  0.2261 -0.6723 -0.2652
 1095SOL     OW 4151   3.514   1.724   3.189 -0.1939 -0.7445 -0.0308
 1095SOL    HW2 4152   3.440   1.757   3.239  0.1039 -1.6475  1.0464
 1095SOL    HW3 4153   3.559   1.664   3.249  1.0497 -0.6919 -0.8708
 1095SOL    MW4 4154   3.510   1.720   3.204  0.0095 -0.8567  0.0005
 1096SOL     OW 4155   0.767   2.666   5.060 -0.6583 -0.2345  0.0017
 1096SOL    HW2 4156   0.860   2.644   5.067 -0.3984  0.8675  0.2151
 1096SOL    HW3 4157   0.745   2.648   4.968 -0.6895 -2.1244  0.3445
 1096SOL    MW4 4158   0.776   2.661   5.048 -0.6281 -0.3384  0.0751
 1097SOL     OW 4159   6.131   2.296   2.023  0.4877  0.4625  0.1385
 1097SOL    HW2 4160   6.134   2.227   1.957  1.7773 -0.3880  1.0255
 1097SOL    HW3 4161   6.174   2.371   1.982  0.1267  0.3647 -0.4248
 1097SOL    MW4 4162   6.137   2.297   2.009  0.6102  0.3374  0.1812
 1098SOL     OW 4163   5.870   1.343   3.228 -0.1689  0.4392  0.1097
 1098SOL    HW2 4164   5.938   1.334   3.295  0.9133  0.8987 -0.8894
 1098SOL    HW3 4165   5.795   1.296   3.263  0.9988 -0.9732  0.8041
 1098SOL    MW4 4166   5.869   1.336   3.241  0.1279  0.3135  0.0695
 1099SOL     OW 4167   5.672   6.316   5.478 -0.3371  0.2114 -0.6844
 1099SOL    HW2 4168   5.662   6.404   5.442  0.4982  0.1005 -1.2165
 1099SOL    HW3 4169   5.763   6.292   5.459  0.1930  0.1830  1.6110
 1099SOL    MW4 4170   5.682   6.324   5.471 -0.1570  0.1931 -0.4518
 1100SOL     OW 4171   3.549   3.997   4.620  0.1675 -0.0710  0.2638
 1100SOL    HW2 4172   3.593   3.912   4.607 -0.4244 -0.3753  0.2281
 1100SOL    HW3 4173   3.463   3.986   4.580 -0.1919  0.3025  0.9189
 1100SOL    MW4 4174   3.544   3.984   4.613  0.0420 -0.0618  0.3455
 1101SOL     OW 4175   0.695   0.505   5.410  0.2228 -0.3395  0.2368
 1101SOL    HW2 4176   0.719   0.457   5.331  0.6045  0.7344 -0.3211
 1101SOL    HW3 4177   0.614   0.463   5.440  0.7519 -1.5603 -0.0052
 1101SOL    MW4 4178   0.687   0.493   5.403  0.3430 -0.3589  0.1312
 1102SOL     OW 4179   2.460   6.239   1.295  0.1859 -0.4818 -0.6924
 1102SOL    HW2 4180   2.533   6.231   1.357 -1.9564  0.5181  2.1461
 1102SOL    HW3 4181   2.492   6.300   1.229  2.0593 -0.4242  0.1763
 1102SOL    MW4 4182   2.474   6.246   1.294  0.1504 -0.3422 -0.2033
 1103SOL     OW 4183   2.391   6.153   2.100  0.1455  0.3117  0.4972
 1103SOL    HW2 4184   2.487   6.150   2.102  0.4881 -0.7497 -4.7068
 1103SOL    HW3 4185   2.371   6.246   2.090  0.7502  0.3989  0.0088
 1103SOL    MW4 4186   2.401   6.165   2.099  0.2705  0.1832 -0.2539
 1104SOL     OW 4187   0.913   6.271   4.720 -0.3936 -0.0070  0.0296
 1104SOL    HW2 4188   0.973   6.208   4.680  0.1060  1.1562 -1.1171
 1104SOL    HW3 4189   0.970   6.334   4.763 -0.8625  0.0628  0.5527
 1104SOL    MW4 4190   0.929   6.271   4.720 -0.3895  0.1557 -0.0527
 1105SOL     OW 4191   3.834   4.840   4.877 -0.4727  0.3273  0.0572
 1105SOL    HW2 4192   3.865   4.930   4.872 -1.3360  0.6598  0.5948
 1105SOL    HW3 4193   3.892   4.798   4.941  1.9693 -0.3889 -2.3858
 1105SOL    MW4 4194   3.846   4.846   4.885 -0.2644  0.2767 -0.1942
 1106SOL     OW 4195   1.558   4.709   4.249 -0.4893 -0.3585  0.2302
 1106SOL    HW2 4196   1.553   4.636   4.311 -1.6785  1.0627  1.9113
 1106SOL    HW3 4197   1.500   4.775   4.286 -0.2858  1.0388 -1.8106
 1106SOL    MW4 4198   1.550   4.708   4.262 -0.6193  0.0134  0.1827
 1107SOL     OW 4199   5.277   2.051   1.476 -0.2819 -0.0335 -0.2296
 1107SOL    HW2 4200   5.189   2.034   1.443  0.5852 -1.4031 -2.0097
 1107SOL    HW3 4201   5.323   2.092   1.403  1.0639 -1.1018 -0.0281
 1107SOL    MW4 4202   5.272   2.054   1.462  0.0101 -0.3552 -0.4379
 1108SOL     OW 4203   3.473   2.517   3.455 -0.2174 -0.0476 -0.3890
 1108SOL    HW2 4204   3.460   2.490   3.546 -0.5080 -1.8414 -0.9127
 1108SOL    HW3 4205   3.459   2.436   3.405 -0.5233  1.0065 -2.0600
 1108SOL    MW4 4206   3.469   2.503   3.460 -0.2961 -0.1452 -0.6786
 1109SOL     OW 4207   4.269   2.602   5.802  0.4182 -0.0871 -0.1526
 1109SOL    HW2 4208   4.243   2.619   5.711  1.9627 -1.1690 -0.8444
 1109SOL    HW3 4209   4.332   2.530   5.795  1.2037  0.3830  1.7094
 1109SOL    MW4 4210   4.274   2.595   5.789  0.7256 -0.1678  0.0018
 1110SOL     OW 4211   5.457   6.280   6.083  0.2774 -0.2293  0.1812
 1110SOL    HW2 4212   5.491   6.205   6.034 -1.3962  0.0058 -1.4381
 1110SOL    HW3 4213   5.516   6.288   6.158  0.5812 -3.0767  0.3465
 1110SOL    MW4 4214   5.469   6.271   6.086  0.0966 -0.5740 -0.0106
 1111SOL     OW 4215   3.981   4.771   5.302 -0.0823  0.1157  0.0595
 1111SOL    HW2 4216   4.073   4.791   5.319 -0.3373  1.8959 -0.4617
 1111SOL    HW3 4217   3.978   4.675   5.297  1.5125 -0.0463  1.2617
 1111SOL    MW4 4218   3.993   4.761   5.303  0.0944  0.3292  0.1493
 1112SOL     OW 4219   6.055   2.090   4.205 -0.3221 -0.1094  0.4169
 1112SOL    HW2 4220   6.109   2.117   4.280 -0.6052 -0.0012  0.5825
 1112SOL    HW3 4221   6.110   2.029   4.157  0.3629  0.8068  0.0069
 1112SOL    MW4 4222   6.069   2.086   4.209 -0.2690  0.0258  0.3846
 1113SOL     OW 4223   2.558   0.265   1.355  0.2569  0.3911  0.7321
 1113SOL    HW2 4224   2.533   0.356   1.371  3.2870  1.3759  0.4088
 1113SOL    HW3 4225   2.532   0.218   1.435  0.3899  1.9205  1.7067
 1113SOL    MW4 4226   2.551   0.271   1.368  0.6743  0.7228  0.8180
 1114SOL     OW 4227   3.413   5.923   5.240 -0.4448  0.1220 -0.7564
 1114SOL    HW2 4228   3.486   5.862   5.251 -1.9208 -1.9121 -1.6605
 1114SOL    HW3 4229   3.443   5.983   5.172  0.5319 -0.4536 -0.8620
 1114SOL    MW4 4230   3.427   5.923   5.233 -0.5107 -0.2223 -0.8897
 1115SOL     OW 4231   4.048   1.792   2.550 -0.3235 -0.5964  0.2942
 1115SOL    HW2 4232   4.131   1.774   2.505 -0.7339  0.6569 -1.0593
 1115SOL    HW3 4233   4.070   1.787   2.643  1.4224  0.2333 -0.0183
 1115SOL    MW4 4234   4.062   1.789   2.556 -0.1473 -0.3216  0.0744
 1116SOL     OW 4235   2.551   4.475   3.373  0.5934  0.0487  0.0567
 1116SOL    HW2 4236   2.629   4.514   3.414  0.6411  0.9385 -0.8527
 1116SOL    HW3 4237   2.530   4.534   3.301 -0.4958 -0.5885 -0.1598
 1116SOL    MW4 4238   2.559   4.488   3.369  0.4560  0.0820 -0.0918
 1117SOL     OW 4239   0.429   3.040   0.734  0.4304  0.2864 -0.1285
 1117SOL    HW2 4240   0.380   3.122   0.740 -0.1740 -0.1455  1.9988
 1117SOL    HW3 4241   0.498   3.049   0.800  3.1163  0.7263 -2.7973
 1117SOL    MW4 4242   0.431   3.052   0.744  0.7050  0.2875 -0.1999
 1118SOL     OW 4243   3.025   0.380   1.944  0.3536 -0.0059  0.1245
 1118SOL    HW2 4244   3.094   0.380   2.010  1.2645  2.1948 -0.7060
 1118SOL    HW3 4245   3.068   0.412   1.865 -0.6294 -2.8619 -1.7039
 1118SOL    MW4 4246   3.040   0.385   1.942  0.3441 -0.0924 -0.2263
 1119SOL     OW 4247   4.057   1.264   0.591 -0.4039 -0.3535 -0.0468
 1119SOL    HW2 4248   4.141   1.283   0.549  0.2618  0.4340  1.5561
 1119SOL    HW3 4249   4.000   1.337   0.563  0.3607  0.7792  1.2441
 1119SOL    MW4 4250   4.060   1.276   0.582 -0.2152 -0.1001  0.3350
 1120SOL     OW 4251   3.969   2.374   2.373  0.3569 -0.0036 -0.4444
 1120SOL    HW2 4252   4.045   2.339   2.419  0.6240  1.7003  0.4772
 1120SOL    HW3 4253   3.991   2.366   2.280 -0.0702 -3.2227 -0.3828
 1120SOL    MW4 4254   3.982   2.369   2.366  0.3358 -0.2035 -0.3146
 1121SOL     OW 4255   4.130   2.466   6.170  0.0254  0.1784  0.4329
 1121SOL    HW2 4256   4.095   2.380   6.194 -0.2774 -0.5013 -2.1803
 1121SOL    HW3 4257   4.225   2.456   6.175 -0.0157 -0.1687  0.5349
 1121SOL    MW4 4258   4.138   2.454   6.174 -0.0199  0.0429  0.1016
 1122SOL     OW 4259   1.907   2.449   4.123  0.3197 -0.4476 -0.4853
 1122SOL    HW2 4260   1.888   2.435   4.215 -0.2665 -1.6352 -0.7553
 1122SOL    HW3 4261   1.979   2.512   4.121 -0.0295  0.0018  0.7537
 1122SOL    MW4 4262   1.914   2.455   4.135  0.1963 -0.5450 -0.3575
 1123SOL     OW 4263   1.010   4.143   1.412 -0.4321 -0.4038  0.3132
 1123SOL    HW2 4264   1.086   4.164   1.358 -1.1261 -0.7948 -0.8543
 1123SOL    HW3 4265   0.995   4.222   1.465 -1.5017  1.2040 -2.2148
 1123SOL    MW4 4266   1.018   4.156   1.412 -0.6648 -0.2433 -0.1744
 1124SOL     OW 4267   5.697   6.316   3.761  0.0541 -0.8255  0.0286
 1124SOL    HW2 4268   5.708   6.343   3.853 -0.3734 -1.0929  0.1592
 1124SOL    HW3 4269   5.616   6.265   3.760  0.1981 -1.0512 -0.4519
 1124SOL    MW4 4270   5.688   6.313   3.773  0.0167 -0.8905 -0.0176
 1125SOL     OW 4271   1.511   2.547   3.020  0.6199 -0.2529 -0.3036
 1125SOL    HW2 4272   1.573   2.473   3.019  2.7030  1.3929  0.2519
 1125SOL    HW3 4273   1.523   2.586   3.107  1.6903  2.4096 -1.5703
 1125SOL    MW4 4274   1.521   2.542   3.032  1.0360  0.3156 -0.3974
 1126SOL     OW 4275   5.838   0.211   2.196 -0.0368 -0.4220  0.3067
 1126SOL    HW2 4276   5.799   0.152   2.260 -0.4670 -0.2602  0.1956
 1126SOL    HW3 4277   5.776   0.212   2.123  0.2699 -0.3159  0.0466
 1126SOL    MW4 4278   5.825   0.204   2.195 -0.0531 -0.3867  0.2577
 1127SOL     OW 4279   4.010   1.764   4.526  0.0785 -0.3354 -0.2373
 1127SOL    HW2 4280   3.931   1.719   4.496 -0.0414 -0.0620 -0.3394
 1127SOL    HW3 4281   3.996   1.780   4.619 -0.0850 -0.0858 -0.3047
 1127SOL    MW4 4282   3.998   1.760   4.534  0.0411 -0.2664 -0.2597
 1128SOL     OW 4283   4.394   3.037   1.679 -0.6237 -0.0049 -0.0796
 1128SOL    HW2 4284   4.380   2.944   1.698 -0.4663 -0.2100 -0.9141
 1128SOL    HW3 4285   4.488   3.044   1.663 -0.5887  0.3588  0.2936
 1128SOL    MW4 4286   4.405   3.025   1.679 -0.5983  0.0160 -0.1405
 1129SOL     OW 4287   6.398   2.717   5.729 -0.2743  0.8573 -0.5692
 1129SOL    HW2 4288   6.304   2.704   5.738 -0.3296  1.6846  0.2735
 1129SOL    HW3 4289   6.432   2.631   5.704 -1.1730  0.3847 -0.2197
 1129SOL    MW4 4290   6.390   2.704   5.727 -0.4002  0.9041 -0.4119
 1130SOL     OW 4291   2.635   1.668   3.223  0.3597 -0.0333 -0.2252
 1130SOL    HW2 4292   2.562   1.621   3.184 -0.8456  0.1522  1.6688
 1130SOL    HW3 4293   2.704   1.602   3.233  0.1820 -0.4002 -1.2979
 1130SOL    MW4 4294   2.635   1.653   3.219  0.1773 -0.0572 -0.1169
 1131SOL     OW 4295   1.529   5.107   2.544  0.2256  0.2768 -0.0398
 1131SOL    HW2 4296   1.624   5.104   2.546  0.1786 -1.3371  0.7591
 1131SOL    HW3 4297   1.506   5.088   2.453  0.6549  0.9643 -0.3028
 1131SOL    MW4 4298   1.538   5.104   2.532  0.2760  0.1546  0.0309
 1132SOL     OW 4299   3.504   3.030   1.974 -0.1200 -0.8181 -0.1635
 1132SOL    HW2 4300   3.499   3.091   1.900 -0.8223  1.0932  1.3696
 1132SOL    HW3 4301   3.430   2.972   1.962 -0.7296  0.0103 -0.5467
 1132SOL    MW4 4302   3.494   3.031   1.963 -0.2931 -0.4567 -0.0117
 1133SOL     OW 4303   4.898   4.784   2.335 -0.4805  0.2323 -0.3333
 1133SOL    HW2 4304   4.851   4.760   2.256 -0.2929  1.9058 -0.9746
 1133SOL    HW3 4305   4.859   4.729   2.403 -0.6191 -1.2618 -1.5630
 1133SOL    MW4 4306   4.887   4.773   2.334 -0.4740  0.2560 -0.5802
 1134SOL     OW 4307   5.182   4.500   3.820  0.0087 -0.3250  0.6375
 1134SOL    HW2 4308   5.152   4.415   3.852  1.1794 -0.8346  0.4297
 1134SOL    HW3 4309   5.199   4.486   3.726 -1.8773  0.7280  0.0851
 1134SOL    MW4 4310   5.180   4.487   3.812 -0.0856 -0.2533  0.5372
 1135SOL     OW 4311   4.751   0.371   4.026  0.4234 -0.3016  0.1000
 1135SOL    HW2 4312   4.751   0.312   3.951 -0.7650 -0.4969  0.2325
 1135SOL    HW3 4313   4.691   0.441   4.001  0.5679  0.0006  0.5893
 1135SOL    MW4 4314   4.743   0.373   4.013  0.2857 -0.2875  0.1820
 1136SOL     OW 4315   2.808   5.569   4.296  0.3245  0.0789  0.7883
 1136SOL    HW2 4316   2.729   5.590   4.345  0.6228 -1.0445  1.7770
 1136SOL    HW3 4317   2.865   5.527   4.359  1.3493  0.0253 -0.1515
 1136SOL    MW4 4318   2.805   5.566   4.310  0.4991 -0.0764  0.7947
 1137SOL     OW 4319   0.111   1.817   3.933  0.2288  0.0810 -0.1550
 1137SOL    HW2 4320   0.181   1.841   3.872 -1.3768  0.5143 -1.9347
 1137SOL    HW3 4321   0.128   1.725   3.953  0.1900 -0.4354 -2.2239
 1137SOL    MW4 4322   0.122   1.808   3.928  0.0119  0.0701 -0.6628
 1138SOL     OW 4323   4.994   1.049   2.090 -0.2769  0.0188  0.2401
 1138SOL    HW2 4324   5.029   0.966   2.124  1.2831  0.7897  0.5884
 1138SOL    HW3 4325   4.962   1.027   2.002  0.8827 -0.7798  0.0038
 1138SOL    MW4 4326   4.994   1.035   2.082  0.0819  0.0151  0.2549
 1139SOL     OW 4327   0.284   1.904   3.737  0.0759  0.2424 -0.1083
 1139SOL    HW2 4328   0.299   1.829   3.679 -2.0341 -0.9798  0.8293
 1139SOL    HW3 4329   0.246   1.970   3.680  0.3190 -0.0363 -0.6022
 1139SOL    MW4 4330   0.281   1.903   3.722 -0.1704  0.0443 -0.0497
 1140SOL     OW 4331   4.197   6.282   1.803  0.3737  0.4038  0.1469
 1140SOL    HW2 4332   4.124   6.230   1.837  2.4165 -0.7304  3.3280
 1140SOL    HW3 4333   4.233   6.229   1.732 -1.1272  0.4394 -0.6839
 1140SOL    MW4 4334   4.192   6.268   1.798  0.4452  0.2588  0.4570
 1141SOL     OW 4335   3.047   6.121   2.075 -0.0973  0.0237  0.0848
 1141SOL    HW2 4336   3.131   6.083   2.104  0.1405  0.3405 -0.1917
 1141SOL    HW3 4337   2.994   6.124   2.155  0.6552  1.1534  0.5596
 1141SOL    MW4 4338   3.051   6.116   2.090  0.0334  0.2146  0.1110
 1142SOL     OW 4339   6.170   3.831   0.098 -0.0776 -0.0377  0.2483
 1142SOL    HW2 4340   6.129   3.882   0.028 -0.0842 -1.6356 -0.9756
 1142SOL    HW3 4341   6.165   3.741   0.067  1.0024 -0.6588  1.7953
 1142SOL    MW4 4342   6.164   3.826   0.085  0.0640 -0.3305  0.2909
 1143SOL     OW 4343   0.579   1.416   1.053  0.5925  0.2636  0.5030
 1143SOL    HW2 4344   0.593   1.493   1.108  2.3468 -0.0627  0.5739
 1143SOL    HW3 4345   0.535   1.450   0.974 -1.4200  0.8238  1.7797
 1143SOL    MW4 4346   0.575   1.431   1.050  0.5584  0.2944  0.6808
 1144SOL     OW 4347   2.919   3.334   4.686 -0.0978 -0.2311 -0.2568
 1144SOL    HW2 4348   2.969   3.398   4.737  0.9875 -0.0481 -1.4879
 1144SOL    HW3 4349   2.911   3.373   4.599 -2.2740 -0.3465 -0.1690
 1144SOL    MW4 4350   2.925   3.348   4.681 -0.2418 -0.2221 -0.4076
 1145SOL     OW 4351   3.525   0.162   2.784 -0.5107  0.0578  0.3138
 1145SOL    HW2 4352   3.563   0.119   2.860 -1.7063  0.2525  1.0460
 1145SOL    HW3 4353   3.555   0.110   2.709 -1.4319 -1.7294  1.1182
 1145SOL    MW4 4354   3.534   0.149   2.784 -0.7900 -0.1523  0.5165
 1146SOL     OW 4355   4.712   3.407   5.316  0.0420 -0.0856 -0.1160
 1146SOL    HW2 4356   4.693   3.342   5.384 -1.6798 -0.2051 -0.6590
 1146SOL    HW3 4357   4.773   3.363   5.257  0.5509 -0.4384  0.6569
 1146SOL    MW4 4358   4.718   3.392   5.317 -0.1180 -0.1479 -0.0857
 1147SOL     OW 4359   2.322   3.146   5.128 -0.1180  0.2979 -0.7871
 1147SOL    HW2 4360   2.370   3.076   5.083 -1.3456 -0.6179 -0.7270
 1147SOL    HW3 4361   2.316   3.117   5.219 -1.7007 -0.1553 -1.0031
 1147SOL    MW4 4362   2.328   3.133   5.134 -0.4888  0.1172 -0.8077
 1148SOL     OW 4363   5.546   5.268   0.735  0.5300  0.0410 -0.6012
 1148SOL    HW2 4364   5.455   5.287   0.712 -0.0166 -2.0701 -0.3959
 1148SOL    HW3 4365   5.590   5.254   0.652  0.1666 -0.8636 -0.6595
 1148SOL    MW4 4366   5.540   5.268   0.721  0.4099 -0.3569 -0.5818
 1149SOL     OW 4367   1.990   3.971   4.035  1.5190  0.2859 -0.1239
 1149SOL    HW2 4368   2.011   3.892   3.986  1.8529  1.4371 -1.9319
 1149SOL    HW3 4369   2.068   4.026   4.025  0.7362  1.4187 -0.1225
 1149SOL    MW4 4370   2.003   3.968   4.027  1.4598  0.5872 -0.3623
 1150SOL     OW 4371   1.312   3.465   1.155 -0.7561 -0.2299  0.2519
 1150SOL    HW2 4372   1.385   3.422   1.111 -0.2957  1.1245 -0.3664
 1150SOL    HW3 4373   1.259   3.393   1.191 -0.5429 -1.3430 -1.5362
 1150SOL    MW4 4374   1.314   3.450   1.154 -0.6672 -0.1981 -0.0656
 1151SOL     OW 4375   1.816   1.266   2.512  0.6259 -0.3580  0.7648
 1151SOL    HW2 4376   1.735   1.315   2.497  1.1070  0.4213  0.7005
 1151SOL    HW3 4377   1.803   1.224   2.597  1.0418  1.5972  1.8505
 1151SOL    MW4 4378   1.804   1.267   2.521  0.7442  0.0028  0.8996
 1152SOL     OW 4379   1.943   4.346   1.067  0.1646 -0.4965  0.4754
 1152SOL    HW2 4380   1.878   4.287   1.028  0.0411  0.1374 -0.3213
 1152SOL    HW3 4381   1.907   4.368   1.153  0.8441 -2.5997  1.3726
 1152SOL    MW4 4382   1.930   4.341   1.073  0.2380 -0.6904  0.4886
 1153SOL     OW 4383   2.815   6.265   0.733 -0.4405  0.1744  0.0395
 1153SOL    HW2 4384   2.731   6.222   0.742 -1.0491  1.0297 -1.2299
 1153SOL    HW3 4385   2.844   6.244   0.644  1.6459 -1.6906  1.0425
 1153SOL    MW4 4386   2.808   6.257   0.722 -0.2455  0.0412  0.0043
 1154SOL     OW 4387   3.680   5.407   3.990 -0.4948 -0.2223  0.8493
 1154SOL    HW2 4388   3.707   5.414   3.899 -2.9065  1.0820  0.1543
 1154SOL    HW3 4389   3.680   5.497   4.023 -3.1641 -0.1942  0.9645
 1154SOL    MW4 4390   3.684   5.419   3.982 -1.1652 -0.0465  0.7728
 1155SOL     OW 4391   2.078   1.322   6.262 -0.1168 -0.1441  0.1724
 1155SOL    HW2 4392   1.985   1.331   6.282  0.3432 -0.3548  2.8673
 1155SOL    HW3 4393   2.089   1.230   6.237 -0.6415 -0.1043 -0.2059
 1155SOL    MW4 4394   2.067   1.311   6.261 -0.1254 -0.1667  0.4780
 1156SOL     OW 4395   5.614   5.435   4.038  0.1538 -0.3397 -0.6267
 1156SOL    HW2 4396   5.536   5.386   4.061  0.9821 -0.7754  1.4735
 1156SOL    HW3 4397   5.584   5.498   3.972 -1.8469 -0.7938 -0.2179
 1156SOL    MW4 4398   5.600   5.437   4.032 -0.0008 -0.4571 -0.2956
 1157SOL     OW 4399   3.106   0.888   1.278 -0.1717 -0.2684 -0.0758
 1157SOL    HW2 4400   3.129   0.927   1.194  2.5947 -1.0302  0.2318
 1157SOL    HW3 4401   3.024   0.930   1.303 -1.1975 -0.1544 -3.2103
 1157SOL    MW4 4402   3.098   0.898   1.270  0.0579 -0.3539 -0.4488
 1158SOL     OW 4403   3.917   1.107   3.100 -0.1563  0.5566  0.2642
 1158SOL    HW2 4404   3.941   1.048   3.029  1.6604  1.8688 -0.2695
 1158SOL    HW3 4405   3.997   1.154   3.122 -1.5250  2.9698  0.5283
 1158SOL    MW4 4406   3.930   1.106   3.094 -0.0972  1.0481  0.2286
 1159SOL     OW 4407   3.900   5.511   6.177 -0.5025  0.4560 -0.1103
 1159SOL    HW2 4408   3.965   5.581   6.181 -0.9890  0.9490 -0.7042
 1159SOL    HW3 4409   3.854   5.525   6.094  0.0386 -1.1616 -0.7131
 1159SOL    MW4 4410   3.903   5.522   6.167 -0.4953  0.3076 -0.2682
 1160SOL     OW 4411   5.972   2.331   4.429 -0.8746 -0.2418 -0.3060
 1160SOL    HW2 4412   5.940   2.288   4.509 -1.4310  0.0340 -0.3803
 1160SOL    HW3 4413   5.969   2.425   4.450 -0.4598 -0.1965 -0.4438
 1160SOL    MW4 4414   5.967   2.338   4.442 -0.8933 -0.1994 -0.3340
 1161SOL     OW 4415   4.328   0.217   4.268  0.1842 -0.0664  0.3672
 1161SOL    HW2 4416   4.400   0.279   4.278  0.6261 -0.0281 -2.3753
 1161SOL    HW3 4417   4.283   0.244   4.189 -0.7478 -2.1504  0.1049
 1161SOL    MW4 4418   4.332   0.229   4.259  0.1195 -0.3363 -0.0293
 1162SOL     OW 4419   4.958   5.068   0.030  0.4163  0.2342  0.3741
 1162SOL    HW2 4420   4.991   4.992   0.078  0.0345  0.6915  1.3885
 1162SOL    HW3 4421   4.872   5.041  -0.002  1.5223 -0.8146 -1.9212
 1162SOL    MW4 4422   4.951   5.055   0.032  0.5118  0.1562  0.2051
 1163SOL     OW 4423   0.771   5.903   3.406  0.0783  0.1845  0.0137
 1163SOL    HW2 4424   0.713   5.960   3.456 -1.3178 -0.5968 -0.6458
 1163SOL    HW3 4425   0.723   5.821   3.397  1.3483 -0.5459 -0.4632
 1163SOL    MW4 4426   0.757   5.900   3.411  0.0617 -0.0150 -0.1362
 1164SOL     OW 4427   5.218   1.238   2.023 -0.4308 -0.3164  0.4331
 1164SOL    HW2 4428   5.286   1.212   2.086 -1.4698  2.7113  3.1011
 1164SOL    HW3 4429   5.168   1.158   2.007  0.4028 -1.4417  2.9076
 1164SOL    MW4 4430   5.220   1.224   2.030 -0.4579 -0.0654  1.1116
 1165SOL     OW 4431   2.346   4.266   1.316  0.5202 -0.0433  0.1975
 1165SOL    HW2 4432   2.293   4.280   1.395  1.6490  1.7896  0.6916
 1165SOL    HW3 4433   2.315   4.183   1.281 -0.6678 -0.4466  2.0565
 1165SOL    MW4 4434   2.335   4.257   1.322  0.5124  0.1453  0.5080
 1166SOL     OW 4435   5.421   5.874   5.551  0.1769 -0.1496  0.3664
 1166SOL    HW2 4436   5.350   5.830   5.505 -1.1098  1.7311  0.4821
 1166SOL    HW3 4437   5.422   5.834   5.638  1.2284 -2.2159 -0.5123
 1166SOL    MW4 4438   5.412   5.863   5.556  0.1459 -0.1741  0.2657
 1167SOL     OW 4439   3.834   2.582   2.728  0.2093 -0.5118  0.0597
 1167SOL    HW2 4440   3.886   2.605   2.652  1.8959 -2.4797  0.5296
 1167SOL    HW3 4441   3.830   2.662   2.780  0.4929  0.3796 -1.2555
 1167SOL    MW4 4442   3.840   2.595   2.725  0.4692 -0.6538 -0.0519
 1168SOL     OW 4443   0.652   5.642   3.379  0.0985 -0.1301  0.0649
 1168SOL    HW2 4444   0.565   5.676   3.358 -0.2542 -0.8288  0.3632
 1168SOL    HW3 4445   0.674   5.584   3.306 -0.3817 -1.1989  0.7441
 1168SOL    MW4 4446   0.644   5.639   3.367 -0.0114 -0.3633  0.1939
 1169SOL     OW 4447   1.436   3.989   1.502 -0.2033  0.1985  0.1831
 1169SOL    HW2 4448   1.416   3.904   1.541  1.2803 -0.7618 -1.0574
 1169SOL    HW3 4449   1.490   4.034   1.567 -0.5865  0.0219  0.6341
 1169SOL    MW4 4450   1.440   3.984   1.516 -0.0581  0.0485  0.0789
 1170SOL     OW 4451   1.861   3.208   1.908 -0.4527 -0.1754 -0.9756
 1170SOL    HW2 4452   1.887   3.195   1.816  2.5149 -0.4218 -0.1929
 1170SOL    HW3 4453   1.927   3.160   1.958 -2.1149 -0.1865  1.3144
 1170SOL    MW4 4454   1.873   3.200   1.902 -0.2804 -0.2093 -0.5702
 1171SOL     OW 4455   5.276   3.990   5.285 -0.6754  0.0384 -0.2936
 1171SOL    HW2 4456   5.335   3.916   5.280 -0.1664  0.3718  0.6369
 1171SOL    HW3 4457   5.278   4.028   5.197  2.8403  1.8091  0.3682
 1171SOL    MW4 4458   5.284   3.985   5.272 -0.1444  0.3160 -0.0835
 1172SOL     OW 4459   3.417   0.398   2.478 -0.5282  0.5453  0.1909
 1172SOL    HW2 4460   3.422   0.485   2.439 -1.6504  0.0491 -1.1493
 1172SOL    HW3 4461   3.506   0.378   2.506 -0.2531  2.0971  0.4779
 1172SOL    MW4 4462   3.429   0.407   2.477 -0.6399  0.6846  0.0520
 1173SOL     OW 4463   2.171   6.259   1.338 -0.3330  0.1439  0.2103
 1173SOL    HW2 4464   2.149   6.170   1.363  2.5377 -0.6421  0.3317
 1173SOL    HW3 4465   2.266   6.257   1.322 -0.2105  3.0957 -0.0999
 1173SOL    MW4 4466   2.181   6.247   1.339  0.0620  0.4296  0.1854
 1174SOL     OW 4467   1.360   2.195   2.431 -0.3132 -0.3735  0.1164
 1174SOL    HW2 4468   1.301   2.212   2.357 -0.7919 -0.7791  0.4017
 1174SOL    HW3 4469   1.310   2.137   2.488  0.7129 -1.4854 -0.0825
 1174SOL    MW4 4470   1.345   2.190   2.428 -0.2410 -0.5737  0.1278
 1175SOL     OW 4471   0.706   0.390   6.066 -0.4458 -0.4388 -0.2685
 1175SOL    HW2 4472   0.780   0.331   6.051 -0.2016 -0.4058  0.7584
 1175SOL    HW3 4473   0.633   0.331   6.086 -0.3844 -0.4189  0.0108
 1175SOL    MW4 4474   0.706   0.374   6.066 -0.4055 -0.4318 -0.0961
 1176SOL     OW 4475   1.946   3.729   2.827  0.2107  0.0609  0.2648
 1176SOL    HW2 4476   1.913   3.785   2.757  0.7401 -0.4542 -0.4191
 1176SOL    HW3 4477   1.950   3.642   2.788 -0.8959 -0.5289  1.4053
 1176SOL    MW4 4478   1.942   3.725   2.813  0.1345 -0.0849  0.3250
 1177SOL     OW 4479   0.923   2.335   4.096  0.6825  0.0396  0.6555
 1177SOL    HW2 4480   0.863   2.395   4.142  0.6359 -0.7493  1.6619
 1177SOL    HW3 4481   0.883   2.248   4.108  0.1228 -0.1074 -1.7764
 1177SOL    MW4 4482   0.910   2.331   4.104  0.6025 -0.0839  0.4675
 1178SOL     OW 4483   2.954   0.155   4.461  0.7721  0.5855 -0.0226
 1178SOL    HW2 4484   3.010   0.081   4.485 -1.9251 -1.2595  1.1041
 1178SOL    HW3 4485   2.910   0.126   4.381 -0.2696  0.9956  0.3881
 1178SOL    MW4 4486   2.956   0.141   4.453  0.2788  0.3962  0.1802
 1179SOL     OW 4487   0.223   5.400   1.541 -0.3976  0.5749  0.4412
 1179SOL    HW2 4488   0.243   5.490   1.515 -0.7900  0.6180  0.2725
 1179SOL    HW3 4489   0.133   5.387   1.512 -1.0306  0.7861  2.2053
 1179SOL    MW4 4490   0.214   5.410   1.533 -0.5329  0.6085  0.6517
 1180SOL     OW 4491   2.380   3.711   2.122  0.4975  0.1818 -0.2177
 1180SOL    HW2 4492   2.329   3.776   2.170  0.3884  0.4904 -0.7509
 1180SOL    HW3 4493   2.384   3.636   2.182 -0.1633  0.3315  0.0258
 1180SOL    MW4 4494   2.374   3.710   2.137  0.3960  0.2423 -0.2560
 1181SOL     OW 4495   4.568   0.613   0.364  0.0259  0.7093  0.3281
 1181SOL    HW2 4496   4.551   0.690   0.418  0.2296  1.1130 -0.1743
 1181SOL    HW3 4497   4.595   0.545   0.426  1.6139  1.5541  0.6168
 1181SOL    MW4 4498   4.569   0.614   0.379  0.2623  0.8740  0.2999
 1182SOL     OW 4499   6.232   0.513   0.666  0.5380  0.0417  0.2699
 1182SOL    HW2 4500   6.286   0.583   0.628 -1.0123  1.1238 -0.0299
 1182SOL    HW3 4501   6.147   0.554   0.680 -0.3151 -1.7124  0.4090
 1182SOL    MW4 4502   6.228   0.528   0.663  0.2209 -0.0469  0.2487
 1183SOL     OW 4503   1.289   2.221   5.267  0.7763 -0.3821  0.6281
 1183SOL    HW2 4504   1.222   2.278   5.228 -1.1445 -2.6215  0.4472
 1183SOL    HW3 4505   1.356   2.213   5.199 -1.1249 -1.8913 -1.1943
 1183SOL    MW4 4506   1.289   2.227   5.253  0.2721 -0.8767  0.3638
 1184SOL     OW 4507   1.958   1.843   5.130 -0.2682  0.3600  0.0926
 1184SOL    HW2 4508   1.889   1.908   5.143 -0.2994  0.2858  0.2956
 1184SOL    HW3 4509   2.033   1.893   5.098  0.0275  0.6482  1.1823
 1184SOL    MW4 4510   1.959   1.858   5.127 -0.2333  0.3882  0.2631
 1185SOL     OW 4511   3.882   0.516   1.524 -0.5039 -0.0337  0.1661
 1185SOL    HW2 4512   3.830   0.492   1.448 -0.4485  0.7963 -0.1475
 1185SOL    HW3 4513   3.924   0.435   1.552 -1.5550 -0.6157  0.1112
 1185SOL    MW4 4514   3.880   0.502   1.518 -0.6352 -0.0009  0.1175
 1186SOL     OW 4515   2.947   4.518   0.350 -0.5925 -0.0451  0.1283
 1186SOL    HW2 4516   3.039   4.534   0.327 -0.7057  0.5310  0.0477
 1186SOL    HW3 4517   2.949   4.441   0.407 -0.0889 -0.2001 -0.0928
 1186SOL    MW4 4518   2.960   4.510   0.354 -0.5410  0.0104  0.0885
 1187SOL     OW 4519   3.380   3.935   2.500 -0.3270 -0.5274 -0.5642
 1187SOL    HW2 4520   3.358   4.028   2.500 -1.0766 -0.6916 -1.2252
 1187SOL    HW3 4521   3.436   3.923   2.577  1.2818  0.8112 -1.4431
 1187SOL    MW4 4522   3.385   3.946   2.510 -0.2137 -0.3725 -0.7674
 1188SOL     OW 4523   5.032   0.239   1.726  0.1667 -0.0812  0.0628
 1188SOL    HW2 4524   4.964   0.279   1.781  0.4635 -1.1908  1.2986
 1188SOL    HW3 4525   5.002   0.253   1.637 -1.1918  0.3127  0.5508
 1188SOL    MW4 4526   5.019   0.246   1.722  0.0266 -0.1756  0.2903
 1189SOL     OW 4527   5.067   3.114   4.421 -0.3842 -0.0801  0.0761
 1189SOL    HW2 4528   5.025   3.028   4.434 -1.3061  0.3072 -0.2153
 1189SOL    HW3 4529   5.113   3.131   4.503  0.7890 -1.3769 -0.2943
 1189SOL    MW4 4530   5.067   3.105   4.434 -0.3510 -0.2001 -0.0112
 1190SOL     OW 4531   4.178   4.814   3.369 -0.1550 -0.6850 -0.6265
 1190SOL    HW2 4532   4.115   4.884   3.352 -0.4454 -0.4502  1.2216
 1190SOL    HW3 4533   4.126   4.734   3.370  0.0514 -0.8545 -1.9364
 1190SOL    MW4 4534   4.163   4.813   3.367 -0.1661 -0.6764 -0.5555
 1191SOL     OW 4535   4.105   3.829   5.091 -0.7344 -0.7044 -0.2488
 1191SOL    HW2 4536   4.136   3.742   5.118  0.1658 -0.3262 -0.0187
 1191SOL    HW3 4537   4.015   3.833   5.122 -0.6482 -1.3957  0.1122
 1191SOL    MW4 4538   4.098   3.818   5.099 -0.6042 -0.7457 -0.1708
 1192SOL     OW 4539   1.044   0.541   1.519  0.5375 -0.0976 -0.2727
 1192SOL    HW2 4540   1.011   0.509   1.435 -1.2515 -0.6601  0.5968
 1192SOL    HW3 4541   1.068   0.462   1.567  2.4413  0.2613 -0.5486
 1192SOL    MW4 4542   1.043   0.527   1.514  0.5527 -0.1245 -0.1944
 1193SOL     OW 4543   0.243   3.447   5.014 -0.0342  0.1780 -0.0677
 1193SOL    HW2 4544   0.205   3.515   5.070  0.0288  1.1870 -1.2090
 1193SOL    HW3 4545   0.336   3.447   5.037  0.3181  1.8095 -1.3483
 1193SOL    MW4 4546   0.250   3.456   5.025  0.0206  0.5264 -0.3872
 1194SOL     OW 4547   5.187   4.091   5.862 -0.3850 -0.4045 -0.1479
 1194SOL    HW2 4548   5.254   4.047   5.914 -0.7144 -0.4332  0.2609
 1194SOL    HW3 4549   5.130   4.132   5.927 -0.3600  0.2180 -0.5106
 1194SOL    MW4 4550   5.188   4.091   5.878 -0.4251 -0.3262 -0.1418
 1195SOL     OW 4551   1.717   1.570   4.612  0.6776 -0.2341  0.1424
 1195SOL    HW2 4552   1.731   1.604   4.524 -1.2056  1.1299  0.3094
 1195SOL    HW3 4553   1.800   1.527   4.635  1.4530  0.0032 -1.9860
 1195SOL    MW4 4554   1.730   1.569   4.603  0.5314 -0.0228 -0.1164
 1196SOL     OW 4555   4.937   5.950   0.854  0.3880  0.2777  0.4574
 1196SOL    HW2 4556   4.890   5.873   0.823  0.5987  0.5534 -0.5965
 1196SOL    HW3 4557   4.869   6.009   0.885  0.1312  0.2017  0.0407
 1196SOL    MW4 4558   4.922   5.947   0.854  0.3819  0.3040  0.2633
 1197SOL     OW 4559   3.472   0.098   3.509 -0.2684  0.1211  0.0234
 1197SOL    HW2 4560   3.535   0.156   3.466  0.2273  1.5040  2.4618
 1197SOL    HW3 4561   3.387   0.131   3.482  0.0311  0.9873  0.1065
 1197SOL    MW4 4562   3.469   0.110   3.500 -0.1635  0.4178  0.3561
 1198SOL     OW 4563   4.232   2.486   0.715  0.3135 -0.2003  0.2674
 1198SOL    HW2 4564   4.140   2.466   0.733 -0.0558  1.5070  0.4199
 1198SOL    HW3 4565   4.276   2.401   0.716 -1.5984 -1.3174 -1.9180
 1198SOL    MW4 4566   4.226   2.472   0.717  0.0125 -0.1224 -0.0008
 1199SOL     OW 4567   5.392   2.681   6.250  0.4472 -0.0786  0.6391
 1199SOL    HW2 4568   5.459   2.717   6.192  0.3134 -1.4016 -0.3770
 1199SOL    HW3 4569   5.329   2.753   6.262  0.3766  0.1768 -1.0097
 1199SOL    MW4 4570   5.393   2.695   6.244  0.4203 -0.2194  0.2875
 1200SOL     OW 4571   0.975   2.080   0.461  0.0399 -0.1076 -0.1723
 1200SOL    HW2 4572   1.013   1.996   0.483  0.2924 -0.0409 -0.3435
 1200SOL    HW3 4573   0.906   2.060   0.398  1.2067 -0.0457 -1.5128
 1200SOL    MW4 4574   0.971   2.067   0.455  0.2271 -0.0906 -0.3718
 1201SOL     OW 4575   5.819   3.598   2.692 -0.1787  0.5038  0.1432
 1201SOL    HW2 4576   5.780   3.523   2.646 -0.6463 -0.9472  2.7140
 1201SOL    HW3 4577   5.745   3.655   2.711 -0.0613  0.8511 -0.4165
 1201SOL    MW4 4578   5.804   3.595   2.688 -0.2249  0.3582  0.4085
 1202SOL     OW 4579   1.938   1.670   2.053 -0.2414 -0.5664  0.3600
 1202SOL    HW2 4580   1.883   1.593   2.038 -0.4521 -0.1764 -0.9606
 1202SOL    HW3 4581   1.892   1.741   2.009  1.1363 -0.1532 -0.4602
 1202SOL    MW4 4582   1.925   1.669   2.045 -0.0875 -0.4604  0.0775
 1203SOL     OW 4583   0.029   4.016   1.725  1.0833  0.5467 -0.0613
 1203SOL    HW2 4584   0.013   4.110   1.714  0.5477  0.6419  1.3158
 1203SOL    HW3 4585   0.013   3.978   1.638  0.7091  1.6405 -0.4831
 1203SOL    MW4 4586   0.025   4.023   1.712  0.9633  0.7036  0.0647
 1204SOL     OW 4587   3.506   3.388   1.557 -0.1262  0.7318 -0.7732
 1204SOL    HW2 4588   3.600   3.404   1.559 -0.1990  1.1113  0.6876
 1204SOL    HW3 4589   3.467   3.475   1.570 -0.6550  0.4481 -0.4488
 1204SOL    MW4 4590   3.513   3.402   1.559 -0.2055  0.7444 -0.5377
 1205SOL     OW 4591   0.085   2.984   0.498  0.2518 -0.5930  0.1459
 1205SOL    HW2 4592   0.085   2.932   0.579  1.4037 -1.8530 -0.6299
 1205SOL    HW3 4593   0.172   3.025   0.496  0.0873 -0.2541 -0.2749
 1205SOL    MW4 4594   0.097   2.983   0.509  0.3821 -0.7145 -0.0119
 1206SOL     OW 4595   5.935   5.247   4.522 -0.2992  0.1043 -0.4408
 1206SOL    HW2 4596   5.941   5.331   4.567 -0.8823  0.5652 -1.2115
 1206SOL    HW3 4597   6.022   5.233   4.486  0.5053 -0.7849  1.6883
 1206SOL    MW4 4598   5.947   5.256   4.523 -0.2700  0.0478 -0.2615
 1207SOL     OW 4599   4.225   2.685   3.613  0.0504 -0.1911  0.1598
 1207SOL    HW2 4600   4.191   2.773   3.632 -0.0172 -0.0929 -0.3957
 1207SOL    HW3 4601   4.305   2.678   3.665  1.2182  1.0159 -1.3509
 1207SOL    MW4 4602   4.231   2.696   3.622  0.1956 -0.0189 -0.1128
 1208SOL     OW 4603   4.380   4.275   5.622 -0.6848 -0.8691  0.4153
 1208SOL    HW2 4604   4.463   4.227   5.614  0.2367  0.6707  0.3251
 1208SOL    HW3 4605   4.327   4.243   5.549 -0.0951 -1.7338  0.3502
 1208SOL    MW4 4606   4.384   4.265   5.611 -0.4854 -0.7800  0.3948
 1209SOL     OW 4607   0.686   0.715   0.556 -1.0166 -0.2730 -0.1040
 1209SOL    HW2 4608   0.595   0.688   0.569 -0.5698 -1.6375  0.3042
 1209SOL    HW3 4609   0.737   0.659   0.614  0.3346 -1.4704 -2.3155
 1209SOL    MW4 4610   0.681   0.704   0.565 -0.7794 -0.6110 -0.3419
 1210SOL     OW 4611   2.966   5.049   4.850 -0.2798  0.3023  0.5489
 1210SOL    HW2 4612   2.950   4.969   4.801  0.2522  0.3250  0.3314
 1210SOL    HW3 4613   3.062   5.055   4.856 -0.3328  0.1532  1.8360
 1210SOL    MW4 4614   2.977   5.040   4.844 -0.2166  0.2856  0.6900
 1211SOL     OW 4615   2.518   0.670   4.441  0.4409  0.0158 -0.3701
 1211SOL    HW2 4616   2.536   0.707   4.354 -0.0615  0.8594 -0.1300
 1211SOL    HW3 4617   2.448   0.606   4.426 -0.1030  0.6287 -0.5029
 1211SOL    MW4 4618   2.511   0.667   4.427  0.3029  0.2080 -0.3559
 1212SOL     OW 4619   1.691   0.277   5.317  0.6803 -0.3743  0.1089
 1212SOL    HW2 4620   1.742   0.198   5.336  0.2444 -1.3287 -2.3943
 1212SOL    HW3 4621   1.746   0.328   5.258 -0.0157  0.0712 -0.1658
 1212SOL    MW4 4622   1.705   0.273   5.312  0.5310 -0.4415 -0.2576
 1213SOL     OW 4623   4.832   2.230   6.401 -0.0191  0.4058 -0.4838
 1213SOL    HW2 4624   4.909   2.240   6.345 -1.7694 -0.2789 -3.2492
 1213SOL    HW3 4625   4.864   2.181   6.477  2.3532  0.5930 -1.2716
 1213SOL    MW4 4626   4.846   2.225   6.403  0.0630  0.3401 -0.9526
 1214SOL     OW 4627   2.369   5.178   1.565  0.0475 -0.3367  0.2539
 1214SOL    HW2 4628   2.410   5.134   1.639 -0.1539 -0.3650  0.3513
 1214SOL    HW3 4629   2.366   5.112   1.496  0.6084 -0.1847  0.0823
 1214SOL    MW4 4630   2.374   5.164   1.566  0.0949 -0.3204  0.2442
 1215SOL     OW 4631   0.426   5.020   1.717  0.3661  0.5847  0.0037
 1215SOL    HW2 4632   0.342   5.017   1.762  0.7473  1.6904  0.8219
 1215SOL    HW3 4633   0.484   4.964   1.769  0.9983  2.4117  1.3752
 1215SOL    MW4 4634   0.423   5.012   1.730  0.4998  0.9716  0.2926
 1216SOL     OW 4635   4.899   3.325   3.226  0.2803 -0.0154 -0.4110
 1216SOL    HW2 4636   4.812   3.297   3.252 -0.3629  1.2601 -1.1212
 1216SOL    HW3 4637   4.935   3.251   3.177 -0.3446 -0.5996  0.0050
 1216SOL    MW4 4638   4.893   3.312   3.223  0.1130  0.0758 -0.4498
 1217SOL     OW 4639   5.516   3.169   2.585  0.5023  0.3054 -0.1074
 1217SOL    HW2 4640   5.580   3.238   2.568 -0.7214  1.8143  1.0483
 1217SOL    HW3 4641   5.487   3.185   2.675 -2.2806  0.3623 -0.9262
 1217SOL    MW4 4642   5.521   3.180   2.595 -0.0263  0.5120 -0.0629
 1218SOL     OW 4643   2.023   1.254   3.114  0.1233 -0.0727 -0.0639
 1218SOL    HW2 4644   2.045   1.279   3.024 -0.6142 -1.6137 -0.7084
 1218SOL    HW3 4645   1.988   1.165   3.106 -0.1310 -0.1637  1.7336
 1218SOL    MW4 4646   2.021   1.245   3.101 -0.0076 -0.2880  0.0882
 1219SOL     OW 4647   1.364   1.954   4.908 -0.4584  0.1465  0.9047
 1219SOL    HW2 4648   1.353   1.864   4.875 -2.0256  0.2486  1.0578
 1219SOL    HW3 4649   1.321   1.953   4.993 -2.1901  1.4677  0.1192
 1219SOL    MW4 4650   1.357   1.942   4.915 -0.8936  0.3343  0.8213
 1220SOL     OW 4651   3.711   0.907   5.462  0.0743 -0.1412 -0.5467
 1220SOL    HW2 4652   3.631   0.925   5.511  0.8663  0.5507  0.5302
 1220SOL    HW3 4653   3.747   0.828   5.503  0.6382  0.3250 -0.1358
 1220SOL    MW4 4654   3.705   0.899   5.474  0.2532  0.0116 -0.3504
 1221SOL     OW 4655   6.077   5.311   3.821 -0.1449  0.1756 -0.3428
 1221SOL    HW2 4656   6.064   5.241   3.757  0.0285  0.4452 -0.6757
 1221SOL    HW3 4657   5.996   5.312   3.872 -0.0902 -0.3682 -0.2353
 1221SOL    MW4 4658   6.065   5.302   3.819 -0.1148  0.1394 -0.3726
 1222SOL     OW 4659   2.502   5.888   5.705  0.5981 -0.6242 -0.3477
 1222SOL    HW2 4660   2.480   5.839   5.784 -2.8552 -0.0520 -0.7940
 1222SOL    HW3 4661   2.423   5.937   5.685  1.6873  0.0122 -3.6478
 1222SOL    MW4 4662   2.489   5.888   5.713  0.2862 -0.4648 -0.8420
 1223SOL     OW 4663   0.714   5.851   4.018 -0.1419 -0.1996 -0.1105
 1223SOL    HW2 4664   0.800   5.865   4.058 -1.0709 -0.1416  1.9822
 1223SOL    HW3 4665   0.728   5.777   3.958  0.7759 -2.2746  2.4302
 1223SOL    MW4 4666   0.727   5.843   4.015 -0.1434 -0.4658  0.5008
 1224SOL     OW 4667   3.529   6.352   3.909 -0.4276  0.5208  0.4726
 1224SOL    HW2 4668   3.625   6.354   3.912 -0.3457 -1.0223 -0.1164
 1224SOL    HW3 4669   3.506   6.429   3.857  0.6218 -0.0033 -0.8548
 1224SOL    MW4 4670   3.539   6.362   3.902 -0.2783  0.2481  0.2198
 1225SOL     OW 4671   3.128   1.779   2.739  0.0153  0.1708 -0.3336
 1225SOL    HW2 4672   3.135   1.729   2.657 -0.3132 -0.6841  0.1565
 1225SOL    HW3 4673   3.105   1.715   2.805 -2.6575  1.2609 -0.0583
 1225SOL    MW4 4674   3.126   1.764   2.737 -0.3807  0.2019 -0.2326
 1226SOL     OW 4675   4.056   2.215   0.977 -0.3599 -0.1345 -0.6136
 1226SOL    HW2 4676   4.138   2.260   0.958 -1.2367  3.5844  3.1202
 1226SOL    HW3 4677   4.004   2.225   0.896  0.5002  3.4787 -0.8997
 1226SOL    MW4 4678   4.060   2.222   0.964 -0.3621  0.8329 -0.1587
 1227SOL     OW 4679   6.365   1.824   2.238  0.3853  0.5262 -0.4081
 1227SOL    HW2 4680   6.388   1.767   2.165 -0.7569 -0.4456 -0.0440
 1227SOL    HW3 4681   6.363   1.912   2.201  0.9146  0.1827 -1.2755
 1227SOL    MW4 4682   6.368   1.828   2.224  0.3045  0.3527 -0.4745
 1228SOL     OW 4683   0.614   5.520   1.536 -0.6586  0.1128  0.6881
 1228SOL    HW2 4684   0.700   5.542   1.502  0.6935 -1.9499  2.5302
 1228SOL    HW3 4685   0.598   5.431   1.506 -2.4679  0.6551 -0.1107
 1228SOL    MW4 4686   0.623   5.511   1.528 -0.7189 -0.0878  0.8258
 1229SOL     OW 4687   2.340   1.505   1.278 -0.1121  0.0557  0.2067
 1229SOL    HW2 4688   2.259   1.543   1.244 -0.0234 -1.0299 -1.3739
 1229SOL    HW3 4689   2.409   1.551   1.231  0.1932  0.8548  1.4211
 1229SOL    MW4 4690   2.338   1.516   1.267 -0.0601  0.0179  0.1583
 1230SOL     OW 4691   2.409   3.117   1.118 -0.0592 -0.5238  0.2230
 1230SOL    HW2 4692   2.471   3.044   1.114 -0.0382 -0.4683 -0.7876
 1230SOL    HW3 4693   2.375   3.124   1.029 -1.1932 -0.2614  0.6585
 1230SOL    MW4 4694   2.413   3.108   1.106 -0.2061 -0.4819  0.1471
 1231SOL     OW 4695   4.717   5.263   3.644 -0.2811 -0.0674 -0.3630
 1231SOL    HW2 4696   4.705   5.176   3.607  0.4385 -0.1688 -0.3777
 1231SOL    HW3 4697   4.741   5.246   3.735 -1.4391  0.1610 -0.0034
 1231SOL    MW4 4698   4.719   5.249   3.651 -0.3390 -0.0506 -0.3175
 1232SOL     OW 4699   5.060   4.002   0.461  0.1319  0.0640 -0.5401
 1232SOL    HW2 4700   5.112   3.972   0.387 -1.4612  2.1365 -2.6312
 1232SOL    HW3 4701   5.125   4.020   0.530  1.8980  0.2102 -2.1682
 1232SOL    MW4 4702   5.075   4.000   0.461  0.1547  0.3567 -1.0308
 1233SOL     OW 4703   0.916   6.379   4.456 -0.0103  0.3608 -0.4486
 1233SOL    HW2 4704   0.871   6.367   4.540 -0.2804  2.6356 -0.1948
 1233SOL    HW3 4705   0.853   6.349   4.391  0.5745 -2.3770  0.1289
 1233SOL    MW4 4706   0.902   6.374   4.459  0.0312  0.2997 -0.3389
 1234SOL     OW 4707   3.803   4.206   6.330  0.0929 -0.3286 -0.6322
 1234SOL    HW2 4708   3.740   4.135   6.340  0.9788 -0.9318  0.9447
 1234SOL    HW3 4709   3.880   4.177   6.378 -0.3338  2.6771  2.2497
 1234SOL    MW4 4710   3.805   4.193   6.338  0.1535 -0.0116 -0.0440
 1235SOL     OW 4711   3.900   0.441   3.665  0.3489 -0.0576  0.7356
 1235SOL    HW2 4712   3.915   0.414   3.756  0.0230  0.6406  1.0024
 1235SOL    HW3 4713   3.813   0.480   3.665  1.0819  1.6764  0.5421
 1235SOL    MW4 4714   3.891   0.442   3.677  0.4026  0.2633  0.7453
 1236SOL     OW 4715   3.717   0.049   5.374 -0.3152 -0.4605  0.0025
 1236SOL    HW2 4716   3.748   0.093   5.294 -1.5516 -1.6544 -1.1768
 1236SOL    HW3 4717   3.641   0.100   5.401  0.2270  0.0682  0.5677
 1236SOL    MW4 4718   3.711   0.062   5.367 -0.4068 -0.5482 -0.0785
 1237SOL     OW 4719   2.066   2.231   4.046 -0.0398 -0.0311 -0.0960
 1237SOL    HW2 4720   1.997   2.295   4.064 -0.8176 -1.3426  2.0120
 1237SOL    HW3 4721   2.019   2.151   4.024  0.8552 -0.4656 -0.4816
 1237SOL    MW4 4722   2.051   2.229   4.046 -0.0243 -0.2615  0.1312
 1238SOL     OW 4723   6.013   6.157   0.266  0.2640 -0.0393  0.0355
 1238SOL    HW2 4724   5.986   6.213   0.193  1.4159  0.2953 -0.1631
 1238SOL    HW3 4725   6.109   6.160   0.264  0.3809 -2.3433 -0.2094
 1238SOL    MW4 4726   6.022   6.165   0.256  0.4314 -0.2992 -0.0230
 1239SOL     OW 4727   4.695   5.996   6.034 -0.9024 -0.0245  0.1306
 1239SOL    HW2 4728   4.662   6.042   6.112  1.2489  0.7595  0.6428
 1239SOL    HW3 4729   4.723   5.911   6.066 -0.0318  0.2920  0.2349
 1239SOL    MW4 4730   4.694   5.991   6.048 -0.5037  0.1207  0.2119
 1240SOL     OW 4731   3.396   5.755   1.356 -0.3119 -0.2015  0.6406
 1240SOL    HW2 4732   3.326   5.802   1.401  0.5150  1.0594  0.6694
 1240SOL    HW3 4733   3.451   5.721   1.427 -0.6176 -0.7599  0.6123
 1240SOL    MW4 4734   3.394   5.757   1.372 -0.2431 -0.1088  0.6407
 1241SOL     OW 4735   4.217   5.833   5.480  0.5339  0.4323 -0.0212
 1241SOL    HW2 4736   4.298   5.858   5.436  0.2865  1.3866  0.0442
 1241SOL    HW3 4737   4.245   5.790   5.561  0.9774 -0.5754 -0.6939
 1241SOL    MW4 4738   4.231   5.830   5.485  0.5598  0.4253 -0.1014
 1242SOL     OW 4739   1.233   3.631   0.940 -0.4592  0.2895  0.0794
 1242SOL    HW2 4740   1.165   3.585   0.890 -0.6032  0.2622  0.2938
 1242SOL    HW3 4741   1.258   3.569   1.008 -0.0283  0.2018 -0.1587
 1242SOL    MW4 4742   1.227   3.617   0.942 -0.4213  0.2743  0.0763
 1243SOL     OW 4743   3.009   4.917   6.420 -0.2878  0.0667 -0.5999
 1243SOL    HW2 4744   3.029   4.944   6.331 -1.7979 -0.7630 -1.2215
 1243SOL    HW3 4745   2.916   4.934   6.430 -0.0774  0.4573  0.9470
 1243SOL    MW4 4746   3.000   4.922   6.410 -0.4593  0.0088 -0.4778
 1244SOL     OW 4747   6.228   2.543   3.443 -0.5947  0.0832  0.0236
 1244SOL    HW2 4748   6.195   2.558   3.532 -0.8562 -0.8751  0.0937
 1244SOL    HW3 4749   6.225   2.448   3.431  2.3094 -0.0942  0.0872
 1244SOL    MW4 4750   6.223   2.533   3.453 -0.2460 -0.0667  0.0413
 1245SOL     OW 4751   3.278   2.059   4.331 -0.2120 -0.1779 -0.5838
 1245SOL    HW2 4752   3.223   2.012   4.268 -1.1821  0.2992 -0.1103
 1245SOL    HW3 4753   3.230   2.140   4.349  0.3656 -0.0149  0.2832
 1245SOL    MW4 4754   3.264   2.064   4.325 -0.2638 -0.0935 -0.4069
 1246SOL     OW 4755   3.303   4.924   4.025 -0.1913 -0.0377  0.2504
 1246SOL    HW2 4756   3.382   4.955   3.981 -2.5138  0.5494 -4.1379
 1246SOL    HW3 4757   3.309   4.829   4.020  0.5196 -0.0182  0.5849
 1246SOL    MW4 4758   3.314   4.916   4.018 -0.4039  0.0423 -0.2844
 1247SOL     OW 4759   0.474   0.908   6.194 -0.5976 -0.0051 -0.6764
 1247SOL    HW2 4760   0.385   0.875   6.181 -0.4818 -0.0070 -1.5248
 1247SOL    HW3 4761   0.529   0.851   6.140  0.1022 -0.8094  0.7895
 1247SOL    MW4 4762   0.470   0.896   6.185 -0.4900 -0.1114 -0.5950
 1248SOL     OW 4763   0.701   2.373   4.881  0.0228 -0.1238 -0.2023
 1248SOL    HW2 4764   0.608   2.373   4.904 -0.1481  0.6413 -0.8471
 1248SOL    HW3 4765   0.736   2.296   4.926 -1.2046 -1.2995 -1.1475
 1248SOL    MW4 4766   0.693   2.363   4.890 -0.1617 -0.1780 -0.4121
 1249SOL     OW 4767   1.976   3.784   3.788  0.0721  0.2316  1.1358
 1249SOL    HW2 4768   1.882   3.786   3.768  0.3888 -0.6708 -0.5909
 1249SOL    HW3 4769   2.014   3.853   3.734  0.8838 -1.9945 -1.4029
 1249SOL    MW4 4770   1.969   3.793   3.778  0.2210 -0.1812  0.5730
 1250SOL     OW 4771   2.131   2.992   1.773 -0.1632  0.0791  0.3400
 1250SOL    HW2 4772   2.135   2.906   1.731 -1.3365  0.2675 -0.1907
 1250SOL    HW3 4773   2.067   3.041   1.721 -0.2615  0.9402  1.2475
 1250SOL    MW4 4774   2.123   2.988   1.760 -0.3310  0.2176  0.3897
 1251SOL     OW 4775   0.895   1.572   3.321  0.0633 -0.6020 -0.5139
 1251SOL    HW2 4776   0.935   1.608   3.242  0.3671 -0.7523 -0.4296
 1251SOL    HW3 4777   0.888   1.646   3.381 -2.4433  0.0980 -1.5561
 1251SOL    MW4 4778   0.899   1.586   3.318 -0.2273 -0.5295 -0.6403
 1252SOL     OW 4779   3.101   2.174   2.989  0.4207  0.0386 -0.4105
 1252SOL    HW2 4780   3.173   2.232   3.016 -0.6041  1.3179 -0.3200
 1252SOL    HW3 4781   3.134   2.128   2.912  1.2774  0.7133 -0.4562
 1252SOL    MW4 4782   3.115   2.176   2.983  0.3985  0.2964 -0.4046
 1253SOL     OW 4783   1.129   3.084   1.067 -0.2184  0.1586 -0.2095
 1253SOL    HW2 4784   1.184   3.093   0.989  0.2194 -0.9085 -0.0473
 1253SOL    HW3 4785   1.181   3.029   1.127 -0.6554  0.7479  0.7315
 1253SOL    MW4 4786   1.143   3.078   1.065 -0.2183  0.0956 -0.0639
 1254SOL     OW 4787   1.866   3.713   6.130 -0.5784 -0.2917  0.3466
 1254SOL    HW2 4788   1.958   3.690   6.143 -0.9152 -0.5645  2.4573
 1254SOL    HW3 4789   1.834   3.648   6.067  0.5123 -0.5635  0.0513
 1254SOL    MW4 4790   1.874   3.702   6.123 -0.4789 -0.3635  0.5861
 1255SOL     OW 4791   6.292   3.863   0.713  0.6191  0.2926  0.4125
 1255SOL    HW2 4792   6.254   3.790   0.762  1.0343 -0.0476  0.2259
 1255SOL    HW3 4793   6.269   3.845   0.622  0.3486  0.6233  0.4130
 1255SOL    MW4 4794   6.284   3.851   0.707  0.6382  0.2913  0.3879
 1256SOL     OW 4795   3.459   2.237   1.394 -0.0238  0.2264 -0.0788
 1256SOL    HW2 4796   3.442   2.153   1.438 -1.3676  0.6618  0.2690
 1256SOL    HW3 4797   3.482   2.212   1.304  0.8411 -0.5706  0.3461
 1256SOL    MW4 4798   3.460   2.222   1.388 -0.0870  0.1787  0.0231
 1257SOL     OW 4799   1.824   0.925   4.056 -0.3049  0.3436 -0.3559
 1257SOL    HW2 4800   1.818   0.853   4.118  0.8490  1.4278  1.0761
 1257SOL    HW3 4801   1.745   0.916   4.001  0.1213 -2.3225 -0.6423
 1257SOL    MW4 4802   1.812   0.914   4.057 -0.0965  0.1349 -0.2048
 1258SOL     OW 4803   2.280   2.153   3.012  0.3278  0.6418 -0.1500
 1258SOL    HW2 4804   2.262   2.220   2.946  2.1931  0.4130 -0.9614
 1258SOL    HW3 4805   2.367   2.174   3.044 -0.1118  0.0965  1.4789
 1258SOL    MW4 4806   2.289   2.165   3.007  0.5159  0.5396 -0.0421
 1259SOL     OW 4807   5.085   1.351   5.528  0.2286  0.2301  0.4589
 1259SOL    HW2 4808   5.033   1.355   5.448 -0.0848  1.5277  0.7065
 1259SOL    HW3 4809   5.124   1.438   5.536  2.3318 -0.6345  0.3578
 1259SOL    MW4 4810   5.084   1.363   5.519  0.4647  0.2872  0.4782
 1260SOL     OW 4811   4.588   1.052   4.957  0.2532  0.5255  1.2331
 1260SOL    HW2 4812   4.516   0.988   4.959 -0.1303  0.8929  0.2301
 1260SOL    HW3 4813   4.545   1.135   4.934  1.0986  0.5732 -0.3226
 1260SOL    MW4 4814   4.573   1.055   4.954  0.3141  0.5803  0.8955
 1261SOL     OW 4815   3.800   4.187   1.368  0.3552  0.7340  0.4251
 1261SOL    HW2 4816   3.781   4.098   1.338  1.8226  0.4461  0.2926
 1261SOL    HW3 4817   3.799   4.181   1.464 -3.2511  1.4263  0.5924
 1261SOL    MW4 4818   3.797   4.175   1.377  0.0730  0.7874  0.4297
 1262SOL     OW 4819   3.789   1.400   1.511 -0.0309  0.3066 -0.2756
 1262SOL    HW2 4820   3.727   1.472   1.524 -1.3691 -1.0569  1.3964
 1262SOL    HW3 4821   3.739   1.321   1.532  1.7407 -1.0269 -0.8207
 1262SOL    MW4 4822   3.774   1.399   1.515  0.0263 -0.0492 -0.1269
 1263SOL     OW 4823   0.431   5.233   0.840  0.0479  0.1733 -0.2248
 1263SOL    HW2 4824   0.408   5.223   0.932 -1.0257 -0.6718 -0.5595
 1263SOL    HW3 4825   0.414   5.147   0.801  2.6738 -0.1639 -0.7853
 1263SOL    MW4 4826   0.426   5.221   0.847  0.2527  0.0173 -0.3429
 1264SOL     OW 4827   0.892   2.688   0.991 -0.0950  0.3594 -0.1440
 1264SOL    HW2 4828   0.907   2.594   1.006  0.5879  0.3616 -0.7754
 1264SOL    HW3 4829   0.892   2.726   1.079 -1.4798 -0.3747  0.2175
 1264SOL    MW4 4830   0.894   2.680   1.005 -0.1876  0.2628 -0.1796
 1265SOL     OW 4831   0.630   2.336   6.336 -0.1704  0.1265  0.5565
 1265SOL    HW2 4832   0.535   2.329   6.334 -0.2728  1.3830  0.3082
 1265SOL    HW3 4833   0.647   2.418   6.384  0.6935  1.2239 -1.4970
 1265SOL    MW4 4834   0.620   2.346   6.342 -0.0699  0.4371  0.2528
 1266SOL     OW 4835   2.872   2.274   0.860 -0.0287 -0.0355 -0.1657
 1266SOL    HW2 4836   2.812   2.322   0.916 -0.1798 -1.3271  0.8496
 1266SOL    HW3 4837   2.935   2.339   0.830 -2.2145  1.4691 -1.7238
 1266SOL    MW4 4838   2.872   2.289   0.864 -0.3370 -0.0074 -0.2373
 1267SOL     OW 4839   1.416   0.579   3.208 -0.0002 -0.3491  0.2055
 1267SOL    HW2 4840   1.463   0.657   3.179 -0.1828 -0.0098  0.8202
 1267SOL    HW3 4841   1.366   0.607   3.284  0.3642 -1.1870  0.7791
 1267SOL    MW4 4842   1.416   0.593   3.214  0.0238 -0.4149  0.3623
 1268SOL     OW 4843   4.289   1.845   3.272  0.1350  0.1332  0.3179
 1268SOL    HW2 4844   4.268   1.814   3.184 -1.1653  1.0959  0.2584
 1268SOL    HW3 4845   4.309   1.938   3.261 -1.9515  0.7518  1.2568
 1268SOL    MW4 4846   4.289   1.853   3.259 -0.3118  0.3418  0.4339
 1269SOL     OW 4847   1.211   3.151   1.880 -0.7010  0.0888  0.1795
 1269SOL    HW2 4848   1.237   3.070   1.925  0.5827  0.7054  0.5850
 1269SOL    HW3 4849   1.283   3.212   1.896 -2.4604  1.9734  1.5370
 1269SOL    MW4 4850   1.224   3.148   1.888 -0.7638  0.4188  0.4121
 1270SOL     OW 4851   0.438   5.499   5.979 -0.5254  0.5097 -0.4807
 1270SOL    HW2 4852   0.478   5.426   6.025  0.5980  0.9681 -0.7030
 1270SOL    HW3 4853   0.472   5.577   6.023 -2.5802  0.9319  0.4943
 1270SOL    MW4 4854   0.447   5.500   5.991 -0.6483  0.6259 -0.3814
 1271SOL     OW 4855   1.094   6.093   5.057  0.0600 -0.5457 -0.6350
 1271SOL    HW2 4856   1.158   6.163   5.041  1.7461 -1.7208  0.6934
 1271SOL    HW3 4857   1.142   6.012   5.042 -1.2070 -1.4712  0.1226
 1271SOL    MW4 4858   1.109   6.092   5.053  0.1153 -0.8228 -0.3598
 1272SOL     OW 4859   0.163   1.882   6.343  0.1228  0.1280  0.2257
 1272SOL    HW2 4860   0.200   1.958   6.389 -2.0302  1.9469 -0.8561
 1272SOL    HW3 4861   0.135   1.917   6.258  1.3203 -2.4736 -1.3577
 1272SOL    MW4 4862   0.164   1.897   6.338 -0.0032  0.0248 -0.1259
 1273SOL     OW 4863   5.316   3.333   0.913 -0.0819 -0.2416  0.0122
 1273SOL    HW2 4864   5.300   3.257   0.856  0.5621 -1.5500  1.4978
 1273SOL    HW3 4865   5.388   3.305   0.970  1.1980  2.0421 -0.3544
 1273SOL    MW4 4866   5.323   3.319   0.913  0.1720 -0.1129  0.1599
 1274SOL     OW 4867   2.629   1.902   1.312  0.3865  0.1446 -0.0093
 1274SOL    HW2 4868   2.637   1.952   1.230  1.4416 -1.2106 -0.7793
 1274SOL    HW3 4869   2.543   1.860   1.306 -0.7620  2.2268  0.9061
 1274SOL    MW4 4870   2.619   1.903   1.300  0.3742  0.2405  0.0099
 1275SOL     OW 4871   4.523   3.073   5.347  0.1448 -0.2549  1.0527
 1275SOL    HW2 4872   4.545   2.983   5.325  1.3317  0.4304 -0.8339
 1275SOL    HW3 4873   4.601   3.106   5.393 -0.8255 -0.5410  3.0121
 1275SOL    MW4 4874   4.536   3.066   5.350  0.1734 -0.2022  1.0623
 1276SOL     OW 4875   6.049   5.716   4.911  0.3548 -0.2337 -0.3367
 1276SOL    HW2 4876   6.129   5.763   4.888  0.3324 -0.0429 -0.0380
 1276SOL    HW3 4877   6.044   5.645   4.847  0.1628  0.4189 -1.0589
 1276SOL    MW4 4878   6.059   5.713   4.900  0.3265 -0.1225 -0.3926
 1277SOL     OW 4879   3.502   3.877   1.358 -0.0916 -0.1575 -0.3948
 1277SOL    HW2 4880   3.594   3.889   1.335  0.0077  0.9145  0.4754
 1277SOL    HW3 4881   3.456   3.937   1.300 -0.2909 -0.9248 -1.0520
 1277SOL    MW4 4882   3.508   3.887   1.347 -0.1048 -0.1173 -0.3667
 1278SOL     OW 4883   0.558   3.382   0.200 -0.4078 -0.3594  0.0346
 1278SOL    HW2 4884   0.628   3.378   0.134 -0.3137  1.0914  0.0143
 1278SOL    HW3 4885   0.579   3.459   0.253 -2.3825  0.5907 -0.4445
 1278SOL    MW4 4886   0.570   3.392   0.198 -0.6559 -0.0427 -0.0313
 1279SOL     OW 4887   2.949   3.099   4.505 -0.5108  0.2231  0.4558
 1279SOL    HW2 4888   2.936   3.155   4.581 -0.8177 -0.0375  0.5993
 1279SOL    HW3 4889   2.891   3.024   4.520  0.7553 -0.7085  0.8348
 1279SOL    MW4 4890   2.940   3.097   4.517 -0.3842  0.0658  0.5248
 1280SOL     OW 4891   1.098   2.401   5.141  0.7221  0.0724  0.4026
 1280SOL    HW2 4892   1.019   2.349   5.153  0.0670  0.9636  0.0586
 1280SOL    HW3 4893   1.132   2.373   5.056  0.6992 -0.2203  0.4902
 1280SOL    MW4 4894   1.092   2.390   5.131  0.6326  0.1514  0.3688
 1281SOL     OW 4895   4.617   3.308   6.338 -0.0129  0.4122  0.0987
 1281SOL    HW2 4896   4.557   3.371   6.378 -1.6503 -0.7177 -0.5010
 1281SOL    HW3 4897   4.594   3.224   6.377  0.4297 -0.2172 -0.9432
 1281SOL    MW4 4898   4.606   3.305   6.348 -0.1705  0.1801 -0.1179
 1282SOL     OW 4899   3.275   2.327   6.100 -0.4224 -0.8188 -0.2735
 1282SOL    HW2 4900   3.228   2.408   6.082  0.9502  0.0074 -0.2681
 1282SOL    HW3 4901   3.323   2.344   6.181  0.0565 -1.5554 -0.3884
 1282SOL    MW4 4902   3.275   2.340   6.108 -0.1781 -0.8070 -0.2879
 1283SOL     OW 4903   2.048   4.543   0.482  0.1514  0.0161 -0.2915
 1283SOL    HW2 4904   2.043   4.588   0.566  0.5521  0.3896 -0.4644
 1283SOL    HW3 4905   1.975   4.480   0.484 -0.4604  0.7145 -0.0764
 1283SOL    MW4 4906   2.037   4.541   0.493  0.1235  0.1575 -0.2859
 1284SOL     OW 4907   0.128   0.616   5.687  0.0617  0.2815 -0.2208
 1284SOL    HW2 4908   0.198   0.552   5.672 -0.0899 -0.6819  2.6171
 1284SOL    HW3 4909   0.175   0.698   5.702  0.5919 -0.2403  1.1104
 1284SOL    MW4 4910   0.144   0.618   5.687  0.1116  0.0856  0.3293
 1285SOL     OW 4911   1.431   6.262   2.975  0.2339  0.1329  0.2121
 1285SOL    HW2 4912   1.354   6.216   3.008  1.1145 -1.7002 -0.1294
 1285SOL    HW3 4913   1.420   6.261   2.880 -0.5741  2.2556  0.2297
 1285SOL    MW4 4914   1.419   6.256   2.967  0.2435  0.1711  0.1694
 1286SOL     OW 4915   3.737   1.848   1.960 -0.4490 -0.3897 -0.3766
 1286SOL    HW2 4916   3.819   1.883   1.925 -0.0122 -0.2734  0.7124
 1286SOL    HW3 4917   3.763   1.802   2.040 -1.3931 -0.7481 -0.2618
 1286SOL    MW4 4918   3.751   1.846   1.966 -0.5160 -0.4217 -0.2178
 1287SOL     OW 4919   0.590   5.635   5.410  0.0215  0.3040  0.5714
 1287SOL    HW2 4920   0.675   5.645   5.367 -0.2326 -0.3759 -0.1033
 1287SOL    HW3 4921   0.567   5.543   5.397  0.5160 -0.3006  3.2517
 1287SOL    MW4 4922   0.598   5.624   5.403  0.0532  0.1345  0.8360
 1288SOL     OW 4923   2.813   2.887   2.380  0.1628  0.3756  0.1301
 1288SOL    HW2 4924   2.804   2.908   2.473  0.2373  0.4587  0.1184
 1288SOL    HW3 4925   2.755   2.950   2.336 -1.2779 -0.8131  0.2474
 1288SOL    MW4 4926   2.804   2.898   2.387 -0.0174  0.2297  0.1440
 1289SOL     OW 4927   3.773   5.342   2.892 -0.4083 -0.2631 -0.3728
 1289SOL    HW2 4928   3.723   5.312   2.816  1.6657 -1.0357 -1.5090
 1289SOL    HW3 4929   3.847   5.390   2.855 -1.3566  2.7566  1.2981
 1289SOL    MW4 4930   3.776   5.344   2.877 -0.2598  0.0333 -0.3022
 1290SOL     OW 4931   1.972   0.389   1.512 -0.1665 -0.3860 -0.3337
 1290SOL    HW2 4932   2.064   0.372   1.530  0.0210 -0.7284 -1.4948
 1290SOL    HW3 4933   1.962   0.483   1.527  0.4437 -0.2918 -0.4763
 1290SOL    MW4 4934   1.983   0.399   1.516 -0.0613 -0.4188 -0.5057
 1291SOL     OW 4935   5.480   4.672   5.883 -0.0624  0.2095 -0.0670
 1291SOL    HW2 4936   5.390   4.659   5.851  1.0242 -2.1354 -2.5877
 1291SOL    HW3 4937   5.514   4.744   5.831 -0.2012  0.5865  0.3511
 1291SOL    MW4 4938   5.472   4.680   5.872  0.0626 -0.0501 -0.3444
 1292SOL     OW 4939   1.302   3.137   5.702  0.5669  0.1856  0.0733
 1292SOL    HW2 4940   1.390   3.147   5.736  0.9254  1.9977 -1.2658
 1292SOL    HW3 4941   1.300   3.188   5.622 -2.3120  2.0705  1.1644
 1292SOL    MW4 4942   1.313   3.145   5.696  0.2343  0.6734  0.0406
 1293SOL     OW 4943   4.562   3.818   0.573 -0.1157 -0.1066  0.4795
 1293SOL    HW2 4944   4.648   3.777   0.567  0.0427  0.0194  1.6971
 1293SOL    HW3 4945   4.576   3.898   0.623 -0.4038  1.5361 -1.9159
 1293SOL    MW4 4946   4.575   3.823   0.579 -0.1328  0.1268  0.3241
 1294SOL     OW 4947   0.439   6.117   4.050  0.3173 -0.2399 -0.6125
 1294SOL    HW2 4948   0.404   6.034   4.015 -1.1612 -0.4613  1.2083
 1294SOL    HW3 4949   0.370   6.148   4.109  2.0004  0.9090  0.8288
 1294SOL    MW4 4950   0.425   6.110   4.053  0.3443 -0.1176 -0.1821
 1295SOL     OW 4951   4.130   4.266   0.813 -0.0323 -0.5376 -0.3810
 1295SOL    HW2 4952   4.186   4.198   0.853 -0.6634  0.3248  2.1591
 1295SOL    HW3 4953   4.042   4.229   0.818 -0.4414  0.5533  1.4336
 1295SOL    MW4 4954   4.126   4.252   0.819 -0.1696 -0.2799  0.1935
 1296SOL     OW 4955   0.289   4.345   1.570  0.1785 -0.3138  0.0324
 1296SOL    HW2 4956   0.317   4.397   1.645  2.9350 -2.0993  0.3605
 1296SOL    HW3 4957   0.310   4.400   1.494 -0.0516  0.3678  0.4494
 1296SOL    MW4 4958   0.295   4.359   1.570  0.5118 -0.4595  0.1307
 1297SOL     OW 4959   1.004   5.102   1.323 -0.0396  0.2223 -0.1179
 1297SOL    HW2 4960   1.035   5.184   1.284 -0.6558 -0.3546 -1.9476
 1297SOL    HW3 4961   1.047   5.034   1.271 -1.9969 -0.5821 -0.7631
 1297SOL    MW4 4962   1.014   5.104   1.311 -0.3792  0.0400 -0.4444
 1298SOL     OW 4963   0.290   5.999   5.410  0.5627 -0.0364 -0.0473
 1298SOL    HW2 4964   0.347   5.937   5.363  0.6313  0.1290 -0.1826
 1298SOL    HW3 4965   0.314   5.988   5.502  1.2304  0.4500 -0.1532
 1298SOL    MW4 4966   0.301   5.989   5.416  0.6599  0.0496 -0.0791
 1299SOL     OW 4967   1.506   3.287   6.367  0.2494 -0.4964  0.1928
 1299SOL    HW2 4968   1.502   3.193   6.384  0.0468 -0.2803  1.4428
 1299SOL    HW3 4969   1.415   3.316   6.370  0.4042 -0.0672  1.0651
 1299SOL    MW4 4970   1.493   3.278   6.370  0.2431 -0.4112  0.4728
 1300SOL     OW 4971   5.699   6.392   1.840  0.6659  0.2641  0.4214
 1300SOL    HW2 4972   5.717   6.479   1.876 -0.7274  0.6206  0.2908
 1300SOL    HW3 4973   5.716   6.332   1.914  0.7132  0.7213  0.7859
 1300SOL    MW4 4974   5.704   6.395   1.855  0.4883  0.3715  0.4523
 1301SOL     OW 4975   3.767   2.905   1.917 -0.2762  0.0680 -0.0074
 1301SOL    HW2 4976   3.673   2.921   1.928 -0.4239 -1.0910  0.5745
 1301SOL    HW3 4977   3.790   2.845   1.988  0.8558  0.1446 -0.2884
 1301SOL    MW4 4978   3.758   2.899   1.928 -0.1463 -0.0748  0.0323
 1302SOL     OW 4979   1.161   2.131   6.232  0.3129  0.7387 -0.1134
 1302SOL    HW2 4980   1.088   2.072   6.214  0.3114  0.4091  0.9284
 1302SOL    HW3 4981   1.120   2.212   6.263  0.4033  0.1419  1.6394
 1302SOL    MW4 4982   1.146   2.134   6.234  0.3246  0.6164  0.2553
 1303SOL     OW 4983   3.158   2.333   5.159  0.5314 -0.0523  0.2316
 1303SOL    HW2 4984   3.105   2.408   5.133 -0.5871 -0.0444  2.3162
 1303SOL    HW3 4985   3.240   2.342   5.110  0.3698  2.4517  0.3336
 1303SOL    MW4 4986   3.162   2.344   5.149  0.3625  0.2791  0.5201
 1304SOL     OW 4987   0.809   1.603   5.555  0.4306  0.0047  0.3441
 1304SOL    HW2 4988   0.743   1.546   5.593  0.5245 -0.8218 -0.6660
 1304SOL    HW3 4989   0.880   1.544   5.529  0.3828  0.5041 -1.0487
 1304SOL    MW4 4990   0.810   1.588   5.556  0.4367 -0.0384  0.0271
 1305SOL     OW 4991   1.351   1.525   1.819 -0.7307 -0.1265  0.5465
 1305SOL    HW2 4992   1.335   1.441   1.776  0.5798  0.3873 -1.0392
 1305SOL    HW3 4993   1.358   1.503   1.912  2.4387 -2.2740 -0.0519
 1305SOL    MW4 4994   1.350   1.511   1.826 -0.1396 -0.3420  0.2583
 1306SOL     OW 4995   0.613   1.753   4.136  0.0861  0.6058  0.0783
 1306SOL    HW2 4996   0.568   1.672   4.115  1.5240 -0.0573 -0.5966
 1306SOL    HW3 4997   0.623   1.797   4.052 -1.1027  1.7481  0.4963
 1306SOL    MW4 4998   0.608   1.748   4.122  0.1190  0.6690  0.0444
 1307SOL     OW 4999   5.329   5.057   2.922 -0.2167  0.0158 -0.0918
 1307SOL    HW2 5000   5.362   4.992   2.983  0.0368 -0.3971 -0.6537
 1307SOL    HW3 5001   5.276   5.006   2.860 -0.9688  0.5066  0.1295
 1307SOL    MW4 5002   5.326   5.042   2.922 -0.2825  0.0261 -0.1367
 1308SOL     OW 5003   0.464   1.858   2.960  0.0246 -0.6175  0.0805
 1308SOL    HW2 5004   0.469   1.949   2.990  1.3352 -0.4783 -0.5007
 1308SOL    HW3 5005   0.386   1.855   2.904 -0.5066 -0.0652  0.7766
 1308SOL    MW4 5006   0.454   1.870   2.957  0.1275 -0.5263  0.0957
 1309SOL     OW 5007   3.581   3.498   2.168  0.6305 -0.5203 -0.5539
 1309SOL    HW2 5008   3.601   3.404   2.161  3.4384 -0.0524  0.0074
 1309SOL    HW3 5009   3.659   3.541   2.134 -0.1284  1.6241  0.2921
 1309SOL    MW4 5010   3.594   3.491   2.162  0.9009 -0.1756 -0.3682
 1310SOL     OW 5011   6.261   3.523   3.438 -0.2596  0.4778  0.0280
 1310SOL    HW2 5012   6.292   3.547   3.526 -0.1367  0.5414 -0.0322
 1310SOL    HW3 5013   6.307   3.582   3.379 -1.3298  1.3274  0.0130
 1310SOL    MW4 5014   6.271   3.534   3.442 -0.3846  0.5982  0.0181
 1311SOL     OW 5015   1.075   3.256   2.550  0.6869 -0.3499  0.0295
 1311SOL    HW2 5016   1.006   3.253   2.484  0.0781  1.6481  0.5054
 1311SOL    HW3 5017   1.079   3.166   2.584  0.2474 -1.1547 -1.9016
 1311SOL    MW4 5018   1.066   3.243   2.546  0.5486 -0.1925 -0.1625
 1312SOL     OW 5019   0.967   3.383   1.528 -0.0868 -0.1654 -0.3492
 1312SOL    HW2 5020   1.001   3.296   1.549  2.9509 -0.1988 -4.3305
 1312SOL    HW3 5021   0.916   3.370   1.448 -2.9729  1.2626  1.0984
 1312SOL    MW4 5022   0.965   3.370   1.520 -0.0668  0.0186 -0.6835
 1313SOL     OW 5023   3.771   6.342   6.069  0.6423 -0.0437  0.1869
 1313SOL    HW2 5024   3.816   6.291   6.136  1.1498  1.2447  0.8819
 1313SOL    HW3 5025   3.838   6.359   6.003  0.4297 -0.4152 -0.1267
 1313SOL    MW4 5026   3.785   6.338   6.069  0.6812  0.0772  0.2372
 1314SOL     OW 5027   3.125   5.014   2.169  0.1358  0.4167 -0.1503
 1314SOL    HW2 5028   3.195   5.049   2.114  0.9632 -2.6227 -1.2410
 1314SOL    HW3 5029   3.045   5.027   2.117  0.1761  2.0115  0.1657
 1314SOL    MW4 5030   3.124   5.020   2.155  0.2503  0.2261 -0.2525
 1315SOL     OW 5031   5.574   3.960   4.351  0.3858 -0.0365 -0.3248
 1315SOL    HW2 5032   5.529   4.041   4.325  0.0271 -0.1162  0.0328
 1315SOL    HW3 5033   5.657   3.963   4.305 -0.0037  0.0959 -1.0312
 1315SOL    MW4 5034   5.579   3.971   4.342  0.2871 -0.0296 -0.3708
 1316SOL     OW 5035   4.996   5.248   2.691  0.3553 -0.0473  0.3724
 1316SOL    HW2 5036   5.076   5.196   2.694 -0.1620 -0.8209  1.5395
 1316SOL    HW3 5037   4.936   5.204   2.751 -1.3935 -0.1923 -1.3600
 1316SOL    MW4 5038   4.998   5.236   2.699  0.0563 -0.1685  0.2979
 1317SOL     OW 5039   4.676   2.811   3.823 -0.7880 -0.5690 -0.0021
 1317SOL    HW2 5040   4.712   2.728   3.855  2.0481 -1.0842 -3.7801
 1317SOL    HW3 5041   4.737   2.878   3.856  0.0525 -0.6837 -1.2709
 1317SOL    MW4 5042   4.689   2.809   3.832 -0.3029 -0.6521 -0.6680
 1318SOL     OW 5043   4.693   1.987   3.128 -0.2820  0.3031  0.8926
 1318SOL    HW2 5044   4.672   1.917   3.190  0.4292 -1.3240 -0.6096
 1318SOL    HW3 5045   4.639   2.061   3.156  0.6387 -0.0308  3.9534
 1318SOL    MW4 5046   4.683   1.987   3.140 -0.0667  0.0443  1.0982
 1319SOL     OW 5047   2.303   3.273   6.309 -0.2894  0.3911 -0.3282
 1319SOL    HW2 5048   2.328   3.299   6.397  0.7153  2.4873 -1.1683
 1319SOL    HW3 5049   2.381   3.229   6.274 -1.0808 -1.4961  0.1781
 1319SOL    MW4 5050   2.317   3.270   6.316 -0.2612  0.4187 -0.3722
 1320SOL     OW 5051   4.029   0.931   2.926  0.4863 -0.4848 -0.3432
 1320SOL    HW2 5052   4.037   0.864   2.993 -0.8156 -0.3966 -0.0903
 1320SOL    HW3 5053   4.120   0.954   2.905  0.9250 -0.3453  1.5343
 1320SOL    MW4 5054   4.042   0.925   2.932  0.3724 -0.4547 -0.0621
 1321SOL     OW 5055   4.907   4.529   0.448 -0.4447  0.3927 -0.1814
 1321SOL    HW2 5056   4.983   4.587   0.451 -0.0466  0.0789 -2.3743
 1321SOL    HW3 5057   4.933   4.458   0.390  0.2665 -3.8777  4.6985
 1321SOL    MW4 5058   4.920   4.527   0.441 -0.2983 -0.2121  0.1731
 1322SOL     OW 5059   2.195   3.879   2.824 -0.0400 -0.3305 -0.0625
 1322SOL    HW2 5060   2.101   3.863   2.829  0.0880 -0.8202  1.4440
 1322SOL    HW3 5061   2.235   3.793   2.840  0.6447  0.4248  2.9215
 1322SOL    MW4 5062   2.188   3.865   2.827  0.0672 -0.2955  0.5300
 1323SOL     OW 5063   4.398   0.845   4.989  0.6138  0.9160 -0.1634
 1323SOL    HW2 5064   4.347   0.800   4.921 -0.9473  2.3856 -0.0234
 1323SOL    HW3 5065   4.473   0.788   5.004 -0.6006 -0.9764 -0.9137
 1323SOL    MW4 5066   4.401   0.831   4.982  0.2476  0.8602 -0.2439
 1324SOL     OW 5067   2.870   1.082   0.510 -0.2959  0.8277 -0.1198
 1324SOL    HW2 5068   2.932   1.010   0.518 -1.3760 -0.2890 -1.2696
 1324SOL    HW3 5069   2.889   1.139   0.585  0.9908 -0.3252  0.4699
 1324SOL    MW4 5070   2.880   1.080   0.521 -0.2687  0.5282 -0.1937
 1325SOL     OW 5071   1.086   0.084   0.719 -0.0892  0.2712 -0.3094
 1325SOL    HW2 5072   1.163   0.129   0.683  0.3226 -0.6827 -0.6371
 1325SOL    HW3 5073   1.092   0.098   0.814  0.5838  0.0640 -0.3159
 1325SOL    MW4 5074   1.097   0.092   0.727  0.0540  0.1180 -0.3535
 1326SOL     OW 5075   5.215   4.227   1.416 -0.5217  0.3160  0.1130
 1326SOL    HW2 5076   5.251   4.240   1.328 -2.1737  1.7361 -0.4135
 1326SOL    HW3 5077   5.278   4.170   1.460 -0.5125 -1.9279 -2.5375
 1326SOL    MW4 5078   5.228   4.221   1.410 -0.7384  0.2073 -0.3062
 1327SOL     OW 5079   4.865   0.849   1.070 -0.6806 -0.4374  0.1245
 1327SOL    HW2 5080   4.958   0.835   1.053 -0.7556 -0.5631 -0.1887
 1327SOL    HW3 5081   4.849   0.941   1.048 -0.7957 -0.6192 -0.5894
 1327SOL    MW4 5082   4.875   0.859   1.065 -0.7057 -0.4780 -0.0110
 1328SOL     OW 5083   4.232   0.616   2.809 -0.5848 -0.3066 -0.1846
 1328SOL    HW2 5084   4.241   0.592   2.901 -1.7925  0.9793  0.3113
 1328SOL    HW3 5085   4.139   0.601   2.790 -0.4316 -0.1651 -1.0844
 1328SOL    MW4 5086   4.221   0.611   2.819 -0.7239 -0.1183 -0.2379
 1329SOL     OW 5087   5.747   5.695   1.992 -0.0768  0.4119  0.1768
 1329SOL    HW2 5088   5.788   5.742   1.920 -1.1883 -0.4221 -1.0509
 1329SOL    HW3 5089   5.810   5.701   2.064  1.8979 -0.2517 -1.3994
 1329SOL    MW4 5090   5.761   5.702   1.992  0.0371  0.2143 -0.1931
 1330SOL     OW 5091   5.999   0.937   4.841 -0.5922  0.1763  0.0092
 1330SOL    HW2 5092   5.935   0.974   4.902 -1.6357  0.0122 -0.9472
 1330SOL    HW3 5093   5.989   0.990   4.761 -2.2360 -2.1536 -1.4686
 1330SOL    MW4 5094   5.989   0.949   4.838 -0.9468 -0.1527 -0.3119
 1331SOL     OW 5095   1.639   4.941   1.480  0.0035 -0.1814  0.3213
 1331SOL    HW2 5096   1.678   4.970   1.398  0.3980 -1.5750 -0.0105
 1331SOL    HW3 5097   1.618   5.022   1.526  0.9128  0.6179 -0.6094
 1331SOL    MW4 5098   1.642   4.956   1.475  0.1755 -0.2598  0.1547
 1332SOL     OW 5099   1.428   4.667   4.029  0.2949  0.2218  0.4114
 1332SOL    HW2 5100   1.482   4.604   3.982 -2.2782 -1.0826 -1.0337
 1332SOL    HW3 5101   1.466   4.671   4.116  1.8114 -1.7379 -0.0826
 1332SOL    MW4 5102   1.440   4.659   4.034  0.1555 -0.2089  0.1555
 1333SOL     OW 5103   6.228   3.300   1.872  0.0371  0.0763 -0.1340
 1333SOL    HW2 5104   6.244   3.233   1.805 -0.5201  0.4538 -0.6555
 1333SOL    HW3 5105   6.202   3.250   1.950  0.4953 -0.3549 -0.2479
 1333SOL    MW4 5106   6.227   3.285   1.873  0.0240  0.0692 -0.2179
 1334SOL     OW 5107   5.543   2.459   3.184  0.2397  0.5136  0.1240
 1334SOL    HW2 5108   5.595   2.428   3.110 -1.8449 -0.7402 -0.9049
 1334SOL    HW3 5109   5.456   2.474   3.147 -0.3920  1.6704  1.9562
 1334SOL    MW4 5110   5.538   2.457   3.169 -0.1187  0.5008  0.2299
 1335SOL     OW 5111   3.945   5.087   4.758  0.7798 -0.3704  0.0536
 1335SOL    HW2 5112   4.016   5.150   4.761 -0.7499  1.4118  1.1937
 1335SOL    HW3 5113   3.919   5.084   4.666  0.4518  1.2287  0.0662
 1335SOL    MW4 5114   3.951   5.095   4.746  0.5347  0.0757  0.2057
 1336SOL     OW 5115   4.911   4.214   0.610  0.0696  0.0149  0.2996
 1336SOL    HW2 5116   4.963   4.150   0.560  0.7265  1.7685 -1.3887
 1336SOL    HW3 5117   4.825   4.174   0.619  1.1103 -2.1287  1.4465
 1336SOL    MW4 5118   4.907   4.200   0.605  0.2936 -0.0366  0.2282
 1337SOL     OW 5119   4.511   5.404   0.832  0.0971  0.4780 -0.0174
 1337SOL    HW2 5120   4.445   5.353   0.785 -0.0326  0.7989 -0.1835
 1337SOL    HW3 5121   4.593   5.356   0.817  0.0720  0.6241 -0.6399
 1337SOL    MW4 5122   4.513   5.391   0.824  0.0766  0.5396 -0.1215
 1338SOL     OW 5123   0.229   2.808   5.842 -0.0933  0.5575  0.3709
 1338SOL    HW2 5124   0.145   2.803   5.797  0.8711  0.2676 -1.4860
 1338SOL    HW3 5125   0.238   2.724   5.886 -0.3116  0.1587 -0.3272
 1338SOL    MW4 5126   0.220   2.797   5.842  0.0052  0.4666  0.0338
 1339SOL     OW 5127   1.796   5.948   6.088 -0.3896  0.0002  0.3637
 1339SOL    HW2 5128   1.850   5.909   6.019 -1.8974 -2.2560  0.3559
 1339SOL    HW3 5129   1.835   5.917   6.170 -1.3265 -1.2725  0.3653
 1339SOL    MW4 5130   1.809   5.939   6.090 -0.7121 -0.4654  0.3629
 1340SOL     OW 5131   4.053   0.789   3.815 -0.7316 -0.8472 -0.5588
 1340SOL    HW2 5132   4.032   0.864   3.871 -0.6485 -0.5423 -0.9265
 1340SOL    HW3 5133   4.123   0.743   3.861 -0.0881 -0.1372 -0.7950
 1340SOL    MW4 5134   4.059   0.793   3.829 -0.6357 -0.7133 -0.6385
 1341SOL     OW 5135   5.488   0.364   5.684 -0.8583  0.2540  0.2535
 1341SOL    HW2 5136   5.459   0.295   5.743 -0.9900 -0.0556 -0.1761
 1341SOL    HW3 5137   5.448   0.344   5.600 -0.5758  0.6289  0.0227
 1341SOL    MW4 5138   5.479   0.352   5.681 -0.8384  0.2627  0.1664
 1342SOL     OW 5139   2.911   1.696   3.599 -0.1820  0.1627  0.3330
 1342SOL    HW2 5140   2.854   1.728   3.529 -1.0885 -2.1048 -0.0373
 1342SOL    HW3 5141   2.999   1.698   3.560 -0.2433  1.7008  0.1946
 1342SOL    MW4 5142   2.915   1.701   3.585 -0.3097  0.0665  0.2659
 1343SOL     OW 5143   2.661   4.014   4.876 -0.8089  0.0769  0.1424
 1343SOL    HW2 5144   2.703   3.936   4.913 -1.1082 -0.1982 -0.0887
 1343SOL    HW3 5145   2.733   4.063   4.835 -0.7401 -0.5188 -0.4788
 1343SOL    MW4 5146   2.676   4.010   4.875 -0.8393 -0.0380  0.0300
 1344SOL     OW 5147   2.548   0.225   4.064 -0.3016 -0.4746 -0.2759
 1344SOL    HW2 5148   2.473   0.172   4.036 -1.2916  0.5767  0.3187
 1344SOL    HW3 5149   2.509   0.305   4.098  1.0622 -0.2693  0.8569
 1344SOL    MW4 5150   2.533   0.228   4.065 -0.2523 -0.3088 -0.0480
 1345SOL     OW 5151   1.131   4.025   2.592 -0.3936  0.4914  0.3818
 1345SOL    HW2 5152   1.216   4.032   2.635 -0.7954  1.3150  1.0669
 1345SOL    HW3 5153   1.116   4.113   2.556 -0.5975  0.1298 -0.4338
 1345SOL    MW4 5154   1.140   4.038   2.593 -0.4735  0.5523  0.3645
 1346SOL     OW 5155   5.961   1.682   4.167 -0.3132  0.4298  0.5245
 1346SOL    HW2 5156   5.874   1.721   4.153 -0.2304  0.8423  1.0912
 1346SOL    HW3 5157   5.969   1.677   4.263  0.1157  0.0024  0.4662
 1346SOL    MW4 5158   5.950   1.687   4.178 -0.2457  0.4279  0.5916
 1347SOL     OW 5159   1.019   3.134   5.421  0.0587 -0.0430  0.0283
 1347SOL    HW2 5160   1.027   3.040   5.403  0.5522  0.1186 -0.6378
 1347SOL    HW3 5161   1.108   3.161   5.445 -0.0671  0.2680  0.1495
 1347SOL    MW4 5162   1.032   3.125   5.422  0.1072  0.0194 -0.0436
 1348SOL     OW 5163   5.102   0.662   4.560 -0.2634  0.2508 -0.0830
 1348SOL    HW2 5164   5.011   0.635   4.555 -0.1148 -1.3816  3.1858
 1348SOL    HW3 5165   5.100   0.748   4.601 -0.3175  0.7780 -1.1437
 1348SOL    MW4 5166   5.090   0.670   4.564 -0.2509  0.1050  0.2083
 1349SOL     OW 5167   3.469   1.851   4.183 -0.2033 -0.1521 -0.1772
 1349SOL    HW2 5168   3.393   1.896   4.221 -1.1146 -0.5264 -1.4607
 1349SOL    HW3 5169   3.540   1.867   4.244 -1.2363  0.5180  0.8914
 1349SOL    MW4 5170   3.468   1.859   4.196 -0.4598 -0.1131 -0.2056
 1350SOL     OW 5171   5.232   2.082   2.483 -0.1165 -0.4661 -0.1355
 1350SOL    HW2 5172   5.212   2.092   2.576  0.9024  1.8856 -0.0868
 1350SOL    HW3 5173   5.167   2.136   2.438  2.9488  3.5679 -0.2493
 1350SOL    MW4 5174   5.221   2.090   2.489  0.4224  0.3764 -0.1441
 1351SOL     OW 5175   5.377   4.148   3.773  0.8044 -0.3651 -0.2291
 1351SOL    HW2 5176   5.350   4.142   3.681 -2.3054  0.4869  0.4832
 1351SOL    HW3 5177   5.406   4.239   3.783  0.3223 -0.2077 -0.2138
 1351SOL    MW4 5178   5.377   4.159   3.762  0.3305 -0.2319 -0.1331
 1352SOL     OW 5179   5.836   3.069   5.643 -0.0642  0.3601 -0.0168
 1352SOL    HW2 5180   5.811   3.159   5.619 -0.7470  0.3172  0.4821
 1352SOL    HW3 5181   5.911   3.049   5.587 -0.4461  0.9292 -0.7570
 1352SOL    MW4 5182   5.842   3.078   5.632 -0.2047  0.4295 -0.0487
 1353SOL     OW 5183   5.599   1.539   4.013  0.1076 -0.1185 -0.1002
 1353SOL    HW2 5184   5.638   1.453   3.995  0.2763  0.3619 -2.3532
 1353SOL    HW3 5185   5.674   1.598   4.019 -0.0769  0.1039  0.0096
 1353SOL    MW4 5186   5.614   1.535   4.011  0.1055 -0.0257 -0.3830
 1354SOL     OW 5187   3.740   6.136   3.517 -0.0837  0.4395  0.5429
 1354SOL    HW2 5188   3.790   6.218   3.516 -1.3146  1.2393  1.5176
 1354SOL    HW3 5189   3.659   6.157   3.470 -0.8656  0.1194  1.6948
 1354SOL    MW4 5190   3.736   6.150   3.511 -0.3493  0.5028  0.8235
 1355SOL     OW 5191   4.678   0.149   1.127  0.5178  0.3705  0.5757
 1355SOL    HW2 5192   4.728   0.194   1.195  0.2107  1.8927 -0.1587
 1355SOL    HW3 5193   4.620   0.217   1.091  0.7390 -0.3631 -1.2742
 1355SOL    MW4 5194   4.677   0.164   1.131  0.5065  0.4745  0.2348
 1356SOL     OW 5195   1.977   1.339   2.810 -0.2904 -0.4065 -0.0272
 1356SOL    HW2 5196   1.957   1.248   2.789 -1.6535  0.1312 -1.2396
 1356SOL    HW3 5197   1.896   1.374   2.846  0.5883  0.0238  1.6216
 1356SOL    MW4 5198   1.964   1.332   2.812 -0.3543 -0.2788  0.0304
 1357SOL     OW 5199   1.279   3.838   4.783 -0.2635  0.2904  0.2788
 1357SOL    HW2 5200   1.266   3.766   4.721 -1.7089  1.3508 -0.6917
 1357SOL    HW3 5201   1.197   3.842   4.832 -0.2843  1.4048  0.1714
 1357SOL    MW4 5202   1.266   3.829   4.781 -0.4570  0.5773  0.1366
 1358SOL     OW 5203   2.633   4.933   3.279  0.1498 -0.2442 -0.0918
 1358SOL    HW2 5204   2.699   4.907   3.342 -0.1828 -0.0938  0.3209
 1358SOL    HW3 5205   2.602   5.018   3.310 -0.3579 -0.3919 -0.1839
 1358SOL    MW4 5206   2.638   4.941   3.291  0.0389 -0.2438 -0.0495
 1359SOL     OW 5207   5.934   3.669   0.399 -0.4165  0.2862  0.6789
 1359SOL    HW2 5208   5.958   3.599   0.339 -1.8843  0.2438  0.0917
 1359SOL    HW3 5209   5.975   3.748   0.363  0.5623 -0.1150  0.8871
 1359SOL    MW4 5210   5.942   3.670   0.387 -0.4810  0.2277  0.6289
 1360SOL     OW 5211   1.455   1.528   2.678 -0.8119  0.2367 -0.6580
 1360SOL    HW2 5212   1.449   1.518   2.773 -0.5068  1.4707 -0.4874
 1360SOL    HW3 5213   1.467   1.622   2.665 -0.0137 -0.0095 -1.8695
 1360SOL    MW4 5214   1.456   1.539   2.689 -0.6663  0.3670 -0.7953
 1361SOL     OW 5215   3.659   1.477   5.557  0.3095  0.5401  0.1688
 1361SOL    HW2 5216   3.590   1.457   5.494  0.0513 -0.4111  0.7317
 1361SOL    HW3 5217   3.667   1.397   5.610  2.4927  0.2587 -0.4791
 1361SOL    MW4 5218   3.651   1.464   5.555  0.5635  0.3775  0.1576
 1362SOL     OW 5219   2.927   3.654   2.083  0.3237  0.0451 -0.6479
 1362SOL    HW2 5220   2.957   3.622   2.168  0.3432  2.1113  0.1739
 1362SOL    HW3 5221   2.852   3.598   2.061  0.7955 -1.0130  0.3472
 1362SOL    MW4 5222   2.921   3.642   2.091  0.3885  0.1781 -0.4082
 1363SOL     OW 5223   2.745   1.569   5.678 -0.1317  0.0585 -0.0448
 1363SOL    HW2 5224   2.670   1.519   5.646 -1.0080  1.0307  0.3920
 1363SOL    HW3 5225   2.756   1.639   5.614  0.7186 -0.3557 -0.3567
 1363SOL    MW4 5226   2.737   1.572   5.665 -0.1351  0.1322 -0.0283
 1364SOL     OW 5227   2.204   1.662   1.984 -0.0856  0.6127  0.0205
 1364SOL    HW2 5228   2.195   1.741   1.930  1.0232  0.1708 -0.8565
 1364SOL    HW3 5229   2.116   1.646   2.017 -0.3141  2.3030  0.3544
 1364SOL    MW4 5230   2.191   1.670   1.981  0.0306  0.7774 -0.0512
 1365SOL     OW 5231   5.908   5.644   0.689 -0.7349 -0.2513  0.4809
 1365SOL    HW2 5232   5.880   5.559   0.722  0.3759 -0.6101  0.5476
 1365SOL    HW3 5233   5.959   5.682   0.761  1.3769 -0.8627 -0.6009
 1365SOL    MW4 5234   5.911   5.638   0.703 -0.3097 -0.3793  0.3470
 1366SOL     OW 5235   4.252   5.936   3.187 -0.2035 -0.6021 -0.0386
 1366SOL    HW2 5236   4.328   5.894   3.226 -0.7718 -2.1493 -0.5381
 1366SOL    HW3 5237   4.236   6.012   3.243  2.0313  0.1108 -0.2596
 1366SOL    MW4 5238   4.260   5.941   3.199  0.0164 -0.7122 -0.1337
 1367SOL     OW 5239   5.010   5.031   0.537 -0.1788  0.3071  0.1433
 1367SOL    HW2 5240   5.035   4.995   0.622 -0.6169  1.8606  0.9742
 1367SOL    HW3 5241   5.093   5.052   0.494  0.0442 -0.4703  0.1815
 1367SOL    MW4 5242   5.024   5.029   0.543 -0.2072  0.4095  0.2580
 1368SOL     OW 5243   4.998   2.996   1.319  0.0262 -0.2131  0.2888
 1368SOL    HW2 5244   5.021   2.904   1.303 -0.6425 -0.4502  0.7015
 1368SOL    HW3 5245   5.083   3.040   1.328  0.3575 -0.7146 -0.3117
 1368SOL    MW4 5246   5.013   2.990   1.318 -0.0183 -0.3106  0.2641
 1369SOL     OW 5247   2.380   5.118   4.950 -0.1269  0.1513 -0.2830
 1369SOL    HW2 5248   2.377   5.204   4.909  2.4404  0.8453  0.8205
 1369SOL    HW3 5249   2.333   5.061   4.889 -1.3538  2.1687 -1.3344
 1369SOL    MW4 5250   2.373   5.121   4.937  0.0499  0.5090 -0.2761
 1370SOL     OW 5251   4.130   0.157   2.344 -0.2226 -0.1318 -0.4183
 1370SOL    HW2 5252   4.087   0.220   2.402 -1.6464 -1.2393 -0.2226
 1370SOL    HW3 5253   4.220   0.153   2.376 -0.2745  1.3154 -0.0342
 1370SOL    MW4 5254   4.136   0.165   2.356 -0.4173 -0.0870 -0.3418
 1371SOL     OW 5255   1.399   1.968   1.508  0.2611 -0.2040  0.3330
 1371SOL    HW2 5256   1.316   1.932   1.539  0.2808  1.0753  1.9928
 1371SOL    HW3 5257   1.396   1.955   1.413 -1.7126 -0.4133  0.3739
 1371SOL    MW4 5258   1.387   1.961   1.499  0.0033 -0.0628  0.5574
 1372SOL     OW 5259   0.280   2.232   1.162  0.2689 -0.1408  0.0898
 1372SOL    HW2 5260   0.371   2.204   1.174  0.4657  0.3234 -0.2932
 1372SOL    HW3 5261   0.254   2.266   1.248  0.2084 -0.9591  0.4075
 1372SOL    MW4 5262   0.289   2.233   1.175  0.2869 -0.1875  0.0812
 1373SOL     OW 5263   1.699   3.926   6.051 -1.0436 -0.4216 -0.7003
 1373SOL    HW2 5264   1.760   3.994   6.023  0.4838 -1.2140  0.5350
 1373SOL    HW3 5265   1.754   3.853   6.077 -2.5504 -1.4143 -0.1187
 1373SOL    MW4 5266   1.714   3.926   6.051 -1.0409 -0.6571 -0.4606
 1374SOL     OW 5267   0.590   1.808   0.535  0.4874 -0.5060 -0.0281
 1374SOL    HW2 5268   0.681   1.786   0.557  0.7592 -0.5420 -1.1239
 1374SOL    HW3 5269   0.587   1.904   0.542  0.0564 -0.6381  1.9790
 1374SOL    MW4 5270   0.602   1.818   0.539  0.4664 -0.5282  0.0921
 1375SOL     OW 5271   2.878   6.118   6.129 -0.3070 -0.1452  0.2674
 1375SOL    HW2 5272   2.957   6.161   6.095  0.9367 -0.7853  2.2095
 1375SOL    HW3 5273   2.821   6.109   6.052  0.5796  2.2672 -0.7880
 1375SOL    MW4 5274   2.881   6.123   6.114 -0.0260  0.0886  0.3844
 1376SOL     OW 5275   1.810   4.792   5.055 -0.0877  0.1307 -0.3869
 1376SOL    HW2 5276   1.721   4.823   5.033 -0.4529 -1.3774 -1.1423
 1376SOL    HW3 5277   1.839   4.747   4.977  0.2117 -1.8702  0.8214
 1376SOL    MW4 5278   1.802   4.790   5.042 -0.0964 -0.3323 -0.3271
 1377SOL     OW 5279   5.594   2.632   3.944  0.8036 -0.2992  0.6965
 1377SOL    HW2 5280   5.673   2.582   3.962  1.9221  0.7190 -1.0430
 1377SOL    HW3 5281   5.615   2.722   3.971  0.4542  0.0888 -0.2727
 1377SOL    MW4 5282   5.607   2.638   3.950  0.9051 -0.1137  0.3391
 1378SOL     OW 5283   3.826   1.936   3.506  0.4610 -0.8248 -0.1594
 1378SOL    HW2 5284   3.794   1.918   3.417  1.7411 -1.4210 -0.5235
 1378SOL    HW3 5285   3.921   1.933   3.497  0.5977 -1.6721  1.4101
 1378SOL    MW4 5286   3.834   1.934   3.493  0.6479 -1.0153 -0.0003
 1379SOL     OW 5287   6.242   4.122   3.485 -0.1004 -0.5481  0.0473
 1379SOL    HW2 5288   6.307   4.063   3.445 -1.2273 -2.4116  0.8692
 1379SOL    HW3 5289   6.275   4.138   3.573  1.0456  1.4807 -0.6659
 1379SOL    MW4 5290   6.255   4.117   3.491 -0.0978 -0.5263  0.0616
 1380SOL     OW 5291   0.764   3.627   6.049 -0.6447  0.1560  0.0418
 1380SOL    HW2 5292   0.802   3.634   5.961 -0.3541  0.7364  0.2070
 1380SOL    HW3 5293   0.682   3.580   6.036 -0.9763  0.8992 -0.6577
 1380SOL    MW4 5294   0.758   3.622   6.036 -0.6501  0.3306 -0.0287
 1381SOL     OW 5295   2.460   3.562   4.263  0.4048 -0.4759  0.0325
 1381SOL    HW2 5296   2.420   3.479   4.289 -0.6382 -0.0098 -0.0503
 1381SOL    HW3 5297   2.542   3.564   4.312  0.0608 -1.1776  0.6693
 1381SOL    MW4 5298   2.466   3.551   4.273  0.2218 -0.5070  0.1056
 1382SOL     OW 5299   4.357   0.161   0.787  0.0232 -0.6600  0.1717
 1382SOL    HW2 5300   4.384   0.076   0.822 -3.1487 -1.5174  0.9030
 1382SOL    HW3 5301   4.344   0.145   0.694  3.6691  0.3220 -0.6619
 1382SOL    MW4 5302   4.359   0.147   0.779  0.0858 -0.6436  0.1582
 1383SOL     OW 5303   1.676   3.483   3.884  0.3791 -0.4003 -0.7071
 1383SOL    HW2 5304   1.717   3.405   3.846 -1.9529 -2.0974  0.0449
 1383SOL    HW3 5305   1.694   3.477   3.978  0.4834  0.1819 -0.6839
 1383SOL    MW4 5306   1.684   3.472   3.891  0.0852 -0.5474 -0.6048
 1384SOL     OW 5307   3.046   0.818   4.227 -0.3178 -0.0732  0.0517
 1384SOL    HW2 5308   3.013   0.729   4.215 -1.8585  0.7569 -2.6034
 1384SOL    HW3 5309   3.141   0.808   4.219 -0.1793 -1.7469  2.4385
 1384SOL    MW4 5310   3.055   0.805   4.224 -0.5028 -0.1845  0.0163
 1385SOL     OW 5311   4.961   1.907   1.211  0.1345 -0.0001  0.4044
 1385SOL    HW2 5312   4.934   1.992   1.177 -0.5928 -0.4884 -0.2663
 1385SOL    HW3 5313   5.000   1.863   1.136 -1.2364 -0.9865  0.2382
 1385SOL    MW4 5314   4.963   1.913   1.196 -0.1424 -0.1946  0.2940
 1386SOL     OW 5315   4.507   0.137   3.489 -0.2468 -0.2474 -0.1313
 1386SOL    HW2 5316   4.509   0.178   3.402 -0.6177  1.1762  0.5063
 1386SOL    HW3 5317   4.597   0.110   3.505  0.2346  1.2957 -0.1338
 1386SOL    MW4 5318   4.519   0.138   3.480 -0.2322  0.1440 -0.0475
 1387SOL     OW 5319   4.263   3.672   2.662  0.0261  0.1345 -0.1146
 1387SOL    HW2 5320   4.282   3.679   2.568 -0.2040 -0.4531 -0.2095
 1387SOL    HW3 5321   4.335   3.719   2.704 -0.8576  2.0631 -0.6318
 1387SOL    MW4 5322   4.275   3.679   2.655 -0.1209  0.3115 -0.1954
 1388SOL     OW 5323   0.500   6.406   4.126  0.0489  0.0747 -0.0842
 1388SOL    HW2 5324   0.427   6.356   4.091 -0.5022 -0.0720  1.1996
 1388SOL    HW3 5325   0.483   6.496   4.102 -0.2828 -0.0296 -0.2401
 1388SOL    MW4 5326   0.488   6.411   4.118 -0.0675  0.0416  0.0646
 1389SOL     OW 5327   2.456   5.084   0.898 -0.0356 -0.6431 -0.0547
 1389SOL    HW2 5328   2.459   5.179   0.902  0.5155 -0.6445 -0.3836
 1389SOL    HW3 5329   2.456   5.056   0.989 -0.8513 -0.3128  0.0549
 1389SOL    MW4 5330   2.456   5.093   0.910 -0.0705 -0.5997 -0.0837
 1390SOL     OW 5331   2.997   1.564   5.389 -0.2001 -0.1202  0.4102
 1390SOL    HW2 5332   2.995   1.596   5.299 -1.1453  0.6092  0.6729
 1390SOL    HW3 5333   3.090   1.551   5.408  0.1029  0.9784 -0.2342
 1390SOL    MW4 5334   3.009   1.567   5.379 -0.2848  0.1210  0.3598
 1391SOL     OW 5335   3.622   4.839   0.664 -0.2112 -0.4103  0.4087
 1391SOL    HW2 5336   3.576   4.755   0.673 -2.8341  0.6826 -1.5420
 1391SOL    HW3 5337   3.611   4.881   0.749 -0.9996 -1.0638  0.6463
 1391SOL    MW4 5338   3.614   4.833   0.676 -0.6613 -0.3523  0.1827
 1392SOL     OW 5339   2.528   3.598   5.239  0.2280 -0.0287 -0.5295
 1392SOL    HW2 5340   2.476   3.678   5.234 -0.1293 -0.2990 -1.1709
 1392SOL    HW3 5341   2.614   3.627   5.270 -0.8465  0.1675  2.6884
 1392SOL    MW4 5342   2.533   3.612   5.243  0.0391 -0.0385 -0.1896
 1393SOL     OW 5343   4.234   1.495   5.265  0.4780  0.5038 -0.1036
 1393SOL    HW2 5344   4.264   1.483   5.355 -0.6059 -0.6516  0.1320
 1393SOL    HW3 5345   4.283   1.430   5.214  1.1104  1.1738 -0.3663
 1393SOL    MW4 5346   4.244   1.485   5.270  0.4184  0.4398 -0.1072
 1394SOL     OW 5347   3.220   0.992   2.960  0.5637 -0.5156  0.1175
 1394SOL    HW2 5348   3.186   1.072   3.001  1.7566  0.2282 -0.2709
 1394SOL    HW3 5349   3.170   0.985   2.879  1.7619  0.9936 -0.8207
 1394SOL    MW4 5350   3.209   1.002   2.955  0.8792 -0.2183 -0.0575
 1395SOL     OW 5351   1.204   6.340   2.393 -0.0913 -0.1043 -0.0172
 1395SOL    HW2 5352   1.134   6.403   2.380 -0.1818  0.4248  2.4662
 1395SOL    HW3 5353   1.202   6.322   2.487  0.3526 -3.3420 -0.5126
 1395SOL    MW4 5354   1.195   6.346   2.404 -0.0446 -0.4616  0.2451
 1396SOL     OW 5355   1.576   4.105   3.964 -0.1934 -0.2857  0.9267
 1396SOL    HW2 5356   1.540   4.032   4.014 -2.2459 -0.1274 -0.2345
 1396SOL    HW3 5357   1.564   4.079   3.872  1.2638  0.4870  0.4835
 1396SOL    MW4 5358   1.570   4.092   3.958 -0.2719 -0.1629  0.7150
 1397SOL     OW 5359   3.572   4.132   3.288 -0.2862  0.4829 -0.1079
 1397SOL    HW2 5360   3.579   4.087   3.204 -0.1329 -0.6207  0.4847
 1397SOL    HW3 5361   3.533   4.217   3.266 -0.2489  0.2108 -1.2877
 1397SOL    MW4 5362   3.568   4.137   3.274 -0.2610  0.3014 -0.1853
 1398SOL     OW 5363   5.285   2.812   3.349  0.1670 -0.0743  0.6743
 1398SOL    HW2 5364   5.366   2.839   3.393  0.2107  1.0466 -0.0510
 1398SOL    HW3 5365   5.269   2.880   3.283 -0.4812 -1.1320 -0.3125
 1398SOL    MW4 5366   5.294   2.824   3.346  0.0873 -0.0659  0.4484
 1399SOL     OW 5367   3.074   5.731   3.475 -0.0766 -0.2069  0.2219
 1399SOL    HW2 5368   2.982   5.750   3.460 -0.2790  1.7242  3.1077
 1399SOL    HW3 5369   3.075   5.643   3.514 -0.5550 -0.6463 -0.7290
 1399SOL    MW4 5370   3.062   5.722   3.478 -0.1665 -0.0101  0.4772
 1400SOL     OW 5371   0.300   1.637   2.275 -0.0603  0.2100 -0.8289
 1400SOL    HW2 5372   0.337   1.722   2.300 -0.0776  0.2390 -0.9009
 1400SOL    HW3 5373   0.223   1.659   2.223 -0.3177  0.1490 -0.4773
 1400SOL    MW4 5374   0.295   1.651   2.271 -0.0966  0.2058 -0.7920
 1401SOL     OW 5375   6.361   4.037   6.217  0.1093  0.1877 -0.1079
 1401SOL    HW2 5376   6.294   4.069   6.276 -1.3479 -0.7606 -1.1595
 1401SOL    HW3 5377   6.320   3.963   6.172  1.0408  0.9708 -2.4330
 1401SOL    MW4 5378   6.346   4.031   6.219  0.0399  0.1659 -0.5534
 1402SOL     OW 5379   1.418   1.392   0.849 -0.1377 -0.2867 -0.1724
 1402SOL    HW2 5380   1.347   1.454   0.833 -0.3110 -0.2265  0.7748
 1402SOL    HW3 5381   1.374   1.316   0.888  0.4684  0.3719  1.9549
 1402SOL    MW4 5382   1.403   1.390   0.852 -0.0806 -0.1919  0.2332
 1403SOL     OW 5383   2.646   5.515   1.774 -0.6318  0.0643 -0.1151
 1403SOL    HW2 5384   2.556   5.538   1.798 -0.9929 -2.6496  1.5406
 1403SOL    HW3 5385   2.688   5.493   1.857  1.2023  0.0657 -1.0017
 1403SOL    MW4 5386   2.640   5.515   1.788 -0.4374 -0.2936 -0.0137
 1404SOL     OW 5387   1.182   1.452   2.465 -0.2476 -0.4098 -0.0345
 1404SOL    HW2 5388   1.118   1.493   2.522 -0.2449  1.2324 -1.1514
 1404SOL    HW3 5389   1.130   1.416   2.393 -0.0110  0.0219 -0.4233
 1404SOL    MW4 5390   1.167   1.452   2.463 -0.2160 -0.1361 -0.2331
 1405SOL     OW 5391   1.232   5.852   5.002 -0.1906 -0.1440 -0.1958
 1405SOL    HW2 5392   1.219   5.759   5.015 -0.9936 -0.3094 -1.9016
 1405SOL    HW3 5393   1.246   5.861   4.908 -0.9622  1.5318 -0.1898
 1405SOL    MW4 5394   1.232   5.841   4.991 -0.3984  0.0552 -0.4201
 1406SOL     OW 5395   4.701   5.741   1.517 -0.4438 -0.0645  0.9361
 1406SOL    HW2 5396   4.727   5.652   1.494 -3.6515 -1.0981  0.6959
 1406SOL    HW3 5397   4.698   5.741   1.613  2.0641  0.6949  1.0795
 1406SOL    MW4 5398   4.704   5.729   1.527 -0.5362 -0.1006  0.9233
 1407SOL     OW 5399   3.692   5.250   4.790  0.2150  0.2382 -0.2141
 1407SOL    HW2 5400   3.631   5.177   4.794  0.2590  0.2372  0.5323
 1407SOL    HW3 5401   3.776   5.214   4.817  0.7858  0.0250 -2.0895
 1407SOL    MW4 5402   3.695   5.236   4.794  0.2961  0.2100 -0.3630
 1408SOL     OW 5403   3.246   5.343   0.893  0.4040 -1.0674 -0.5275
 1408SOL    HW2 5404   3.312   5.286   0.853  0.4602  0.3810 -2.6648
 1408SOL    HW3 5405   3.276   5.354   0.983  2.4397 -1.4023 -1.1102
 1408SOL    MW4 5406   3.259   5.337   0.899  0.6800 -0.9205 -0.8864
 1409SOL     OW 5407   0.867   2.522   0.011 -0.0927  0.2574 -0.5673
 1409SOL    HW2 5408   0.882   2.486   0.099 -1.5950 -1.2127 -0.8593
 1409SOL    HW3 5409   0.871   2.617   0.023 -1.1848  0.1311  1.3125
 1409SOL    MW4 5410   0.869   2.530   0.024 -0.4350  0.0468 -0.3578
 1410SOL     OW 5411   1.625   1.537   0.717  0.1290 -0.5175 -0.4126
 1410SOL    HW2 5412   1.545   1.507   0.761  0.3955 -0.8151 -0.1253
 1410SOL    HW3 5413   1.605   1.627   0.690 -0.8126 -1.0585 -1.6223
 1410SOL    MW4 5414   1.612   1.545   0.719  0.0399 -0.6281 -0.5343
 1411SOL     OW 5415   3.071   5.123   4.498 -0.3746  0.1730  0.1804
 1411SOL    HW2 5416   3.070   5.218   4.495 -0.8995  0.2073  1.2179
 1411SOL    HW3 5417   3.119   5.097   4.419  2.2059  1.3537  1.2429
 1411SOL    MW4 5418   3.077   5.132   4.487 -0.1034  0.3333  0.4575
 1412SOL     OW 5419   4.412   4.671   0.267 -0.0256 -0.4284  0.0915
 1412SOL    HW2 5420   4.325   4.635   0.250 -0.6026  0.5250  0.9278
 1412SOL    HW3 5421   4.471   4.596   0.261 -0.6361 -0.7700 -2.3885
 1412SOL    MW4 5422   4.408   4.656   0.264 -0.1823 -0.3477 -0.1254
 1413SOL     OW 5423   5.006   6.069   5.552 -0.2055  0.2652  0.4692
 1413SOL    HW2 5424   5.025   6.012   5.477 -2.5530  0.4881 -0.3831
 1413SOL    HW3 5425   5.022   6.157   5.520  1.7844  0.2484  1.2647
 1413SOL    MW4 5426   5.011   6.073   5.538 -0.2527  0.2924  0.4617
 1414SOL     OW 5427   0.490   6.394   6.045 -0.3277 -0.0239  0.1146
 1414SOL    HW2 5428   0.560   6.414   5.982  0.9912 -0.3715  1.4206
 1414SOL    HW3 5429   0.533   6.340   6.111 -1.5331  0.8108  1.6236
 1414SOL    MW4 5430   0.505   6.389   6.045 -0.3127  0.0403  0.4860
 1415SOL     OW 5431   4.473   6.349   1.682  0.3059  0.5260 -0.0151
 1415SOL    HW2 5432   4.550   6.387   1.639  1.7522 -1.5476  0.5990
 1415SOL    HW3 5433   4.424   6.308   1.611 -0.2635  1.8125 -0.4024
 1415SOL    MW4 5434   4.477   6.349   1.667  0.4216  0.4221  0.0148
 1416SOL     OW 5435   6.411   3.920   0.214  0.5418 -0.2072 -0.2502
 1416SOL    HW2 5436   6.353   3.898   0.141 -0.3718 -2.1419  0.9399
 1416SOL    HW3 5437   6.365   3.884   0.291  2.1180  0.5160  1.0698
 1416SOL    MW4 5438   6.397   3.912   0.215  0.6292 -0.3670  0.0810
 1417SOL     OW 5439   6.056   6.284   3.976 -0.1128  0.0453 -0.5498
 1417SOL    HW2 5440   6.081   6.303   3.886  1.5186  2.8910  0.3684
 1417SOL    HW3 5441   6.139   6.269   4.022 -0.4394  2.7267  1.1820
 1417SOL    MW4 5442   6.070   6.284   3.970  0.0594  0.7745 -0.2001
 1418SOL     OW 5443   3.114   0.681   5.001 -0.2337 -0.2546 -0.1611
 1418SOL    HW2 5444   3.128   0.671   5.095  2.2533 -0.9422 -0.5262
 1418SOL    HW3 5445   3.132   0.595   4.964 -1.3088 -0.0389 -1.2838
 1418SOL    MW4 5446   3.119   0.669   5.008 -0.0475 -0.3169 -0.3574
 1419SOL     OW 5447   4.188   0.314   5.135  0.4463 -0.2134  0.1032
 1419SOL    HW2 5448   4.141   0.343   5.057  0.7317 -0.8724 -0.3211
 1419SOL    HW3 5449   4.221   0.395   5.174  0.2979  0.1248 -0.4567
 1419SOL    MW4 5450   4.186   0.328   5.130  0.4643 -0.2558 -0.0267
 1420SOL     OW 5451   4.214   3.220   1.338  0.3849 -0.2038 -0.0531
 1420SOL    HW2 5452   4.281   3.262   1.392 -0.5059  1.2019  0.0051
 1420SOL    HW3 5453   4.161   3.292   1.305 -1.1743 -1.2692 -0.0066
 1420SOL    MW4 5454   4.215   3.235   1.341  0.0617 -0.1589 -0.0393
 1421SOL     OW 5455   4.257   3.123   3.726 -0.0617  0.0540 -0.3827
 1421SOL    HW2 5456   4.324   3.191   3.731 -0.9496  0.9267  0.0009
 1421SOL    HW3 5457   4.177   3.170   3.703 -0.5972 -0.9319 -0.5772
 1421SOL    MW4 5458   4.255   3.139   3.724 -0.2495  0.0391 -0.3578
 1422SOL     OW 5459   5.294   3.060   2.372  0.3181 -0.5614 -0.2462
 1422SOL    HW2 5460   5.250   3.008   2.305 -0.4273 -0.2060 -0.0413
 1422SOL    HW3 5461   5.350   3.119   2.323  0.0497 -0.5488 -0.5406
 1422SOL    MW4 5462   5.295   3.061   2.357  0.1843 -0.5129 -0.2580
 1423SOL     OW 5463   5.879   3.165   1.885  0.1706 -0.0984  0.0965
 1423SOL    HW2 5464   5.812   3.232   1.874  1.2736  0.7345 -2.3419
 1423SOL    HW3 5465   5.916   3.182   1.971 -0.9638  1.0954  0.3911
 1423SOL    MW4 5466   5.875   3.176   1.895  0.1664  0.1690 -0.1863
 1424SOL     OW 5467   4.019   3.534   1.671 -0.1101 -0.5226 -0.1069
 1424SOL    HW2 5468   4.112   3.517   1.653  0.2615  0.3908  0.8135
 1424SOL    HW3 5469   3.994   3.467   1.735 -0.1141 -0.8286 -0.4281
 1424SOL    MW4 5470   4.028   3.523   1.677 -0.0616 -0.4424 -0.0278
 1425SOL     OW 5471   5.740   4.554   5.818 -0.3521  0.5652  0.7270
 1425SOL    HW2 5472   5.650   4.588   5.826 -1.4201 -0.9482 -2.6054
 1425SOL    HW3 5473   5.766   4.578   5.729  2.1117 -0.1200  1.1915
 1425SOL    MW4 5474   5.731   4.562   5.807 -0.1680  0.2751  0.3486
 1426SOL     OW 5475   3.136   2.310   4.311 -0.2501  0.3425  0.7609
 1426SOL    HW2 5476   3.210   2.357   4.350  0.0939  1.3323 -0.9730
 1426SOL    HW3 5477   3.141   2.331   4.218 -1.4204 -1.3752  0.2631
 1426SOL    MW4 5478   3.146   2.319   4.304 -0.3592  0.2465  0.4665
 1427SOL     OW 5479   0.201   2.906   3.036 -0.2437  0.0440  0.1924
 1427SOL    HW2 5480   0.289   2.873   3.019 -0.5088 -0.5920  0.0480
 1427SOL    HW3 5481   0.202   2.931   3.128 -0.2273 -0.9347  0.4590
 1427SOL    MW4 5482   0.213   2.905   3.046 -0.2765 -0.1691  0.2085
 1428SOL     OW 5483   2.252   5.575   2.608 -0.2753  0.0609  0.5033
 1428SOL    HW2 5484   2.243   5.670   2.614 -0.8620  0.0558 -0.1070
 1428SOL    HW3 5485   2.320   5.553   2.671  0.4995  0.9849  0.0175
 1428SOL    MW4 5486   2.260   5.585   2.617 -0.2505  0.1821  0.3587
 1429SOL     OW 5487   0.332   4.476   3.627  0.5151 -0.2783 -0.2631
 1429SOL    HW2 5488   0.298   4.564   3.643  0.3344 -0.4433  0.2776
 1429SOL    HW3 5489   0.426   4.489   3.612  0.3677  0.0820 -0.9151
 1429SOL    MW4 5490   0.340   4.490   3.627  0.4718 -0.2526 -0.2777
 1430SOL     OW 5491   3.933   2.466   0.796  0.2042  0.3338  0.2031
 1430SOL    HW2 5492   3.937   2.471   0.700 -2.3003  0.2208  0.0159
 1430SOL    HW3 5493   3.856   2.518   0.819  1.1960  0.9911  2.2603
 1430SOL    MW4 5494   3.923   2.473   0.786  0.0047  0.4056  0.4498
 1431SOL     OW 5495   0.225   1.316   5.286  0.1862 -0.3064  0.2209
 1431SOL    HW2 5496   0.305   1.314   5.339  1.5714 -0.6971 -1.7788
 1431SOL    HW3 5497   0.178   1.237   5.310  2.0407 -1.8392 -0.8819
 1431SOL    MW4 5498   0.229   1.305   5.296  0.6137 -0.5602 -0.1884
 1432SOL     OW 5499   0.548   4.882   1.499  0.3173 -0.7002 -0.7771
 1432SOL    HW2 5500   0.576   4.942   1.430 -0.9711 -0.3257 -1.0065
 1432SOL    HW3 5501   0.510   4.938   1.566  1.7527 -1.0414  0.3724
 1432SOL    MW4 5502   0.547   4.897   1.499  0.3367 -0.6958 -0.6557
 1433SOL     OW 5503   3.616   3.776   3.414  0.0434 -0.0436 -0.7332
 1433SOL    HW2 5504   3.672   3.797   3.339 -0.2665  0.1289 -0.9234
 1433SOL    HW3 5505   3.533   3.820   3.394  0.7065  2.1062  0.8469
 1433SOL    MW4 5506   3.612   3.785   3.401  0.0900  0.2628 -0.5498
 1434SOL     OW 5507   2.361   6.268   4.601 -0.3553 -0.4323 -0.2028
 1434SOL    HW2 5508   2.365   6.209   4.676 -1.7238  1.4123  1.4243
 1434SOL    HW3 5509   2.452   6.287   4.580  0.1127 -2.8542 -0.6149
 1434SOL    MW4 5510   2.373   6.263   4.608 -0.4741 -0.5085 -0.0425
 1435SOL     OW 5511   2.283   2.600   2.709  0.0996 -0.1478  0.3641
 1435SOL    HW2 5512   2.297   2.523   2.764  0.4047 -0.0795  0.3823
 1435SOL    HW3 5513   2.312   2.573   2.621 -2.1114 -0.8740 -0.2046
 1435SOL    MW4 5514   2.289   2.587   2.704 -0.1518 -0.2346  0.2914
 1436SOL     OW 5515   2.779   4.536   3.562 -0.5107 -0.1047 -0.9683
 1436SOL    HW2 5516   2.813   4.594   3.631 -0.9456 -1.1206  0.1508
 1436SOL    HW3 5517   2.858   4.497   3.524 -0.0041  2.9052 -3.4290
 1436SOL    MW4 5518   2.794   4.538   3.566 -0.5013  0.1584 -1.1453
 1437SOL     OW 5519   6.381   1.698   6.073  0.1575  0.1435 -0.6873
 1437SOL    HW2 5520   6.361   1.671   5.984 -1.4267 -0.5336 -0.1751
 1437SOL    HW3 5521   6.298   1.685   6.121  1.0621  0.1432  0.9499
 1437SOL    MW4 5522   6.367   1.693   6.068  0.0679  0.0541 -0.4037
 1438SOL     OW 5523   0.993   5.429   3.558 -0.3746  0.7215 -0.7451
 1438SOL    HW2 5524   1.015   5.435   3.465 -0.6338 -1.4545 -0.9823
 1438SOL    HW3 5525   0.915   5.485   3.567 -1.8830 -0.9827 -2.4057
 1438SOL    MW4 5526   0.986   5.437   3.546 -0.6078  0.2096 -0.9955
 1439SOL     OW 5527   0.068   3.909   5.271 -0.3098  0.1268  0.4577
 1439SOL    HW2 5528   0.091   3.820   5.244  0.3044  0.5381 -0.4343
 1439SOL    HW3 5529  -0.024   3.918   5.247  0.1247  0.3653 -1.3418
 1439SOL    MW4 5530   0.059   3.898   5.264 -0.1714  0.2126  0.1026
 1440SOL     OW 5531   4.234   4.923   0.861 -0.6621 -0.1631 -0.4696
 1440SOL    HW2 5532   4.215   4.983   0.933  2.9266  1.1175 -0.3717
 1440SOL    HW3 5533   4.164   4.937   0.797 -1.5522  1.8906  0.8670
 1440SOL    MW4 5534   4.222   4.933   0.862 -0.3060  0.2769 -0.2803
 1441SOL     OW 5535   1.195   0.966   5.999  0.5331  0.0489  0.3118
 1441SOL    HW2 5536   1.280   0.923   5.989 -0.6983 -2.1920 -1.1589
 1441SOL    HW3 5537   1.139   0.925   5.933 -1.6845  1.5181  1.1818
 1441SOL    MW4 5538   1.199   0.955   5.989  0.0781 -0.0530  0.2325
 1442SOL     OW 5539   6.098   2.855   6.024  0.0706  0.1512  0.7002
 1442SOL    HW2 5540   6.099   2.903   6.107 -0.0782  0.3013  0.6160
 1442SOL    HW3 5541   6.185   2.815   6.019  0.1525  0.3109  0.8305
 1442SOL    MW4 5542   6.109   2.856   6.034  0.0618  0.1921  0.7062
 1443SOL     OW 5543   4.210   0.530   3.090  0.1121  0.4190 -0.2369
 1443SOL    HW2 5544   4.152   0.603   3.113  1.0126  0.3460  2.6728
 1443SOL    HW3 5545   4.169   0.453   3.128  1.1129  0.0523  0.1482
 1443SOL    MW4 5546   4.197   0.530   3.098  0.3629  0.3610  0.1978
 1444SOL     OW 5547   5.040   3.129   5.226  0.0895  0.3852 -0.0231
 1444SOL    HW2 5548   5.030   3.058   5.162 -0.1252 -0.3914  0.8580
 1444SOL    HW3 5549   4.973   3.193   5.201  0.5881  0.5101 -1.1014
 1444SOL    MW4 5550   5.030   3.128   5.214  0.1270  0.2992 -0.0491
 1445SOL     OW 5551   4.464   5.675   0.713 -0.0334  0.2996 -0.4223
 1445SOL    HW2 5552   4.505   5.726   0.644 -1.5591  1.0671 -0.8172
 1445SOL    HW3 5553   4.487   5.585   0.694 -1.2765  0.3863 -2.5692
 1445SOL    MW4 5554   4.472   5.670   0.702 -0.3987  0.4123 -0.7577
 1446SOL     OW 5555   3.358   5.259   2.076 -0.1316 -0.1476  0.3727
 1446SOL    HW2 5556   3.443   5.295   2.099 -0.1348 -0.3426  0.6998
 1446SOL    HW3 5557   3.303   5.277   2.152 -0.4969  0.3420 -0.0005
 1446SOL    MW4 5558   3.362   5.266   2.089 -0.1802 -0.1087  0.3666
 1447SOL     OW 5559   3.463   5.266   1.755 -0.5962 -0.5709 -0.2054
 1447SOL    HW2 5560   3.531   5.314   1.801 -0.6435  0.5763 -1.2733
 1447SOL    HW3 5561   3.510   5.197   1.708 -0.3322 -0.6206  0.1326
 1447SOL    MW4 5562   3.478   5.263   1.755 -0.5676 -0.4261 -0.3017
 1448SOL     OW 5563   3.243   1.533   0.438 -0.4904 -0.0688 -0.6316
 1448SOL    HW2 5564   3.320   1.480   0.418 -0.6670 -0.1033 -1.2420
 1448SOL    HW3 5565   3.242   1.601   0.371 -0.8964  0.0314 -0.5267
 1448SOL    MW4 5566   3.253   1.535   0.427 -0.5673 -0.0601 -0.6983
 1449SOL     OW 5567   5.438   2.751   2.249 -0.2063 -0.3824 -0.2278
 1449SOL    HW2 5568   5.367   2.689   2.267 -0.1154 -0.4501 -0.1016
 1449SOL    HW3 5569   5.502   2.735   2.318 -0.4380  0.2547  0.1406
 1449SOL    MW4 5570   5.437   2.740   2.260 -0.2248 -0.3072 -0.1625
 1450SOL     OW 5571   2.799   2.285   2.357 -0.2156  0.7763  0.2525
 1450SOL    HW2 5572   2.875   2.335   2.326 -0.7858  0.4003 -1.9135
 1450SOL    HW3 5573   2.836   2.216   2.412  1.0557  0.5060 -0.8790
 1450SOL    MW4 5574   2.814   2.283   2.360 -0.1231  0.6911 -0.1826
 1451SOL     OW 5575   1.522   3.726   1.295 -0.6812 -0.3181  0.2238
 1451SOL    HW2 5576   1.432   3.709   1.324  0.0760 -0.4164  2.7900
 1451SOL    HW3 5577   1.517   3.725   1.199 -3.2981 -0.8279  0.2834
 1451SOL    MW4 5578   1.509   3.724   1.286 -0.9266 -0.3984  0.5702
 1452SOL     OW 5579   6.268   4.571   3.175  0.0562 -0.3855 -0.1165
 1452SOL    HW2 5580   6.252   4.646   3.118 -0.6070 -1.4147 -1.3352
 1452SOL    HW3 5581   6.209   4.503   3.142  1.1090 -1.6571  0.5419
 1452SOL    MW4 5582   6.258   4.572   3.163  0.1076 -0.6891 -0.1905
 1453SOL     OW 5583   2.275   1.509   6.048 -0.0415 -0.3241 -0.2783
 1453SOL    HW2 5584   2.194   1.554   6.023  0.2660  0.6743  0.4585
 1453SOL    HW3 5585   2.246   1.434   6.099 -0.5880 -1.2866 -1.9522
 1453SOL    MW4 5586   2.261   1.505   6.052 -0.0730 -0.3193 -0.4020
 1454SOL     OW 5587   3.142   4.007   3.386  0.0652 -0.0544  0.6723
 1454SOL    HW2 5588   3.058   3.968   3.408  0.0125  0.0919  0.7293
 1454SOL    HW3 5589   3.164   4.061   3.462  1.1384 -1.6191  1.5340
 1454SOL    MW4 5590   3.134   4.009   3.399  0.1998 -0.2415  0.7935
 1455SOL     OW 5591   5.628   3.283   1.958  0.0066  0.5783 -0.1961
 1455SOL    HW2 5592   5.589   3.365   1.989 -1.5655 -0.1716 -0.1161
 1455SOL    HW3 5593   5.554   3.229   1.931  0.9600 -1.0454  0.2710
 1455SOL    MW4 5594   5.613   3.287   1.958 -0.0750  0.2652 -0.1239
 1456SOL     OW 5595   0.438   4.651   5.359 -0.0283 -0.3080  0.6577
 1456SOL    HW2 5596   0.431   4.672   5.266 -0.2476 -1.5611  0.3681
 1456SOL    HW3 5597   0.521   4.690   5.386  1.4218 -2.1946 -0.7420
 1456SOL    MW4 5598   0.448   4.659   5.350  0.1341 -0.7223  0.4348
 1457SOL     OW 5599   6.216   0.134   6.170 -0.1687  0.0152  0.6162
 1457SOL    HW2 5600   6.188   0.109   6.258  0.5684 -1.0119  0.5765
 1457SOL    HW3 5601   6.302   0.174   6.183  0.0798 -0.4215  0.3388
 1457SOL    MW4 5602   6.224   0.136   6.183 -0.0387 -0.1779  0.5743
 1458SOL     OW 5603   0.072   5.170   4.348  0.3830 -0.2937 -0.2519
 1458SOL    HW2 5604   0.018   5.233   4.300  0.8329 -2.2214 -3.6356
 1458SOL    HW3 5605   0.008   5.112   4.389 -0.1658 -0.6287 -1.5036
 1458SOL    MW4 5606   0.056   5.170   4.347  0.3699 -0.5922 -0.8635
 1459SOL     OW 5607   3.289   4.165   3.003  0.1546 -0.2233  0.7690
 1459SOL    HW2 5608   3.378   4.201   3.011  0.0958  0.1731 -0.1923
 1459SOL    HW3 5609   3.302   4.070   3.001  0.5869 -0.1618  0.4221
 1459SOL    MW4 5610   3.303   4.157   3.004  0.2039 -0.1629  0.5964
 1460SOL     OW 5611   0.592   1.204   1.258  0.0116 -0.0323  0.3638
 1460SOL    HW2 5612   0.574   1.269   1.190 -2.4434 -1.1363 -0.1637
 1460SOL    HW3 5613   0.581   1.251   1.340  1.1231  0.8562  0.0299
 1460SOL    MW4 5614   0.588   1.219   1.259 -0.1657 -0.0608  0.2501
 1461SOL     OW 5615   4.948   5.390   1.680  0.1471  0.1167  0.1262
 1461SOL    HW2 5616   4.984   5.466   1.725  1.5991 -0.6433  0.2731
 1461SOL    HW3 5617   4.923   5.330   1.750  2.2108 -0.9761 -0.0010
 1461SOL    MW4 5618   4.949   5.392   1.695  0.6110 -0.1278  0.1288
 1462SOL     OW 5619   4.282   5.487   3.647  0.1747  0.2076  0.4988
 1462SOL    HW2 5620   4.354   5.429   3.672  0.5294  0.2193 -0.4279
 1462SOL    HW3 5621   4.225   5.432   3.594  0.1706  0.5311  0.1662
 1462SOL    MW4 5622   4.284   5.472   3.643  0.2209  0.2518  0.3327
 1463SOL     OW 5623   2.841   5.114   3.844 -0.2338  0.4033 -0.1231
 1463SOL    HW2 5624   2.807   5.201   3.864 -0.5994  0.0981  0.6018
 1463SOL    HW3 5625   2.894   5.090   3.919  0.3001  0.2132 -0.5540
 1463SOL    MW4 5626   2.843   5.123   3.856 -0.2116  0.3379 -0.0843
 1464SOL     OW 5627   3.362   2.223   5.446 -0.2994 -0.4399  0.6052
 1464SOL    HW2 5628   3.406   2.219   5.361 -0.2005  0.6123  0.5947
 1464SOL    HW3 5629   3.430   2.252   5.507 -0.9088  1.0667  0.6133
 1464SOL    MW4 5630   3.377   2.226   5.442 -0.3668 -0.1023  0.6049
 1465SOL     OW 5631   4.624   4.519   1.295  0.4085  0.3169  0.2396
 1465SOL    HW2 5632   4.578   4.519   1.379  0.2668 -2.6620  0.2524
 1465SOL    HW3 5633   4.717   4.511   1.319  0.4803  0.7491  0.1155
 1465SOL    MW4 5634   4.630   4.518   1.310  0.3993 -0.0191  0.2249
 1466SOL     OW 5635   0.806   4.645   1.808  0.0812  0.4264  0.0228
 1466SOL    HW2 5636   0.807   4.724   1.755  1.1913 -0.9799 -2.2141
 1466SOL    HW3 5637   0.824   4.676   1.897  0.9228  2.6383 -0.8361
 1466SOL    MW4 5638   0.809   4.659   1.813  0.3387  0.5327 -0.3857
 1467SOL     OW 5639   6.186   4.796   4.760 -0.3643 -0.2677 -0.4731
 1467SOL    HW2 5640   6.140   4.798   4.676 -1.6764 -0.7153  0.2083
 1467SOL    HW3 5641   6.261   4.739   4.745  0.8303  1.5958 -1.9985
 1467SOL    MW4 5642   6.190   4.789   4.747 -0.3798 -0.0809 -0.5844
 1468SOL     OW 5643   2.899   4.369   5.079  0.1198 -0.8039 -0.0427
 1468SOL    HW2 5644   2.833   4.327   5.024 -0.7736  0.0613  0.3216
 1468SOL    HW3 5645   2.945   4.429   5.021  1.8329 -2.6536 -0.7182
 1468SOL    MW4 5646   2.896   4.371   5.064  0.2279 -0.9338 -0.0838
 1469SOL     OW 5647   3.614   4.119   2.801 -0.0566  0.1512  0.1837
 1469SOL    HW2 5648   3.587   4.200   2.759  1.0988  0.5367  0.1506
 1469SOL    HW3 5649   3.709   4.127   2.810 -0.0141 -0.8832  0.8401
 1469SOL    MW4 5650   3.623   4.131   2.797  0.1015  0.0656  0.2659
 1470SOL     OW 5651   1.834   3.550   5.553 -0.0146 -0.5950 -0.6448
 1470SOL    HW2 5652   1.911   3.588   5.596 -0.1736  0.3193 -1.1321
 1470SOL    HW3 5653   1.775   3.625   5.541 -0.2398 -0.9520 -1.8707
 1470SOL    MW4 5654   1.836   3.565   5.557 -0.0653 -0.5214 -0.8708
 1471SOL     OW 5655   0.392   2.141   1.635 -0.1753 -0.2807 -0.1685
 1471SOL    HW2 5656   0.448   2.099   1.570 -1.1249  0.8450 -1.7929
 1471SOL    HW3 5657   0.307   2.099   1.624  0.0022 -1.1597  1.4744
 1471SOL    MW4 5658   0.388   2.130   1.625 -0.2772 -0.2482 -0.1660
 1472SOL     OW 5659   5.060   2.945   4.048 -0.2457  0.0128  0.4992
 1472SOL    HW2 5660   5.082   2.926   3.957 -0.0203  2.1121  0.0614
 1472SOL    HW3 5661   5.136   2.914   4.098  0.2309  0.0691 -0.1745
 1472SOL    MW4 5662   5.073   2.939   4.043 -0.1531  0.2972  0.3526
 1473SOL     OW 5663   2.389   0.176   1.841  0.6959  0.2494  0.4499
 1473SOL    HW2 5664   2.360   0.132   1.921  1.7305 -0.6934  0.3286
 1473SOL    HW3 5665   2.451   0.242   1.870  0.3235  0.5825  0.4989
 1473SOL    MW4 5666   2.393   0.179   1.855  0.7832  0.1690  0.4403
 1474SOL     OW 5667   0.978   0.610   4.026 -0.1302 -0.1120 -0.3183
 1474SOL    HW2 5668   1.055   0.571   3.985 -0.4634 -0.3447 -0.7269
 1474SOL    HW3 5669   0.904   0.570   3.981 -0.5048 -0.3470  0.4887
 1474SOL    MW4 5670   0.978   0.600   4.015 -0.2236 -0.1737 -0.2657
 1475SOL     OW 5671   0.781   2.831   4.181  0.1109 -0.2933  0.8607
 1475SOL    HW2 5672   0.821   2.820   4.267 -0.0667  2.3641  1.3862
 1475SOL    HW3 5673   0.848   2.802   4.119  1.0573 -0.2737  1.8457
 1475SOL    MW4 5674   0.795   2.826   4.184  0.2123  0.0599  1.0600
 1476SOL     OW 5675   4.566   4.955   3.849 -0.2126  0.0475 -0.0938
 1476SOL    HW2 5676   4.567   4.975   3.756  0.0576  0.3530 -0.0282
 1476SOL    HW3 5677   4.527   4.868   3.855 -2.4979  0.9879 -0.3192
 1476SOL    MW4 5678   4.561   4.946   3.838 -0.4785  0.2119 -0.1149
 1477SOL     OW 5679   5.942   6.412   4.927 -0.5567 -0.5841 -0.1058
 1477SOL    HW2 5680   5.940   6.322   4.959 -1.4480 -0.2487  0.8367
 1477SOL    HW3 5681   5.930   6.404   4.832  1.8120 -1.5790 -0.4102
 1477SOL    MW4 5682   5.940   6.399   4.919 -0.3617 -0.6711 -0.0216
 1478SOL     OW 5683   3.192   3.576   2.043 -0.2870  0.3319 -0.2627
 1478SOL    HW2 5684   3.196   3.512   1.972  1.7669  0.1628 -0.0418
 1478SOL    HW3 5685   3.101   3.608   2.041 -1.4239 -2.6153 -0.3118
 1478SOL    MW4 5686   3.180   3.572   2.033 -0.1660 -0.0793 -0.2401
 1479SOL     OW 5687   3.844   1.958   5.515  0.0531 -0.0592 -0.1698
 1479SOL    HW2 5688   3.908   1.904   5.468  1.6599  2.5840 -1.2491
 1479SOL    HW3 5689   3.786   1.894   5.556  2.4929 -2.6145 -0.3094
 1479SOL    MW4 5690   3.845   1.942   5.514  0.5870 -0.0476 -0.3306
 1480SOL     OW 5691   5.731   3.173   5.909  0.0837 -0.9104 -0.1368
 1480SOL    HW2 5692   5.726   3.121   5.829  0.1963  1.6913 -1.9650
 1480SOL    HW3 5693   5.819   3.209   5.909  0.1613 -1.0397  1.3156
 1480SOL    MW4 5694   5.742   3.171   5.899  0.1088 -0.5842 -0.1864
 1481SOL     OW 5695   3.024   1.833   1.048 -0.3643 -0.4037 -0.1632
 1481SOL    HW2 5696   3.061   1.753   1.011 -0.8899 -0.1617 -1.2281
 1481SOL    HW3 5697   2.930   1.823   1.040 -0.4487  0.1636  0.0452
 1481SOL    MW4 5698   3.017   1.821   1.042 -0.4448 -0.2969 -0.2762
 1482SOL     OW 5699   4.375   5.254   5.626 -0.0671  0.2131 -0.1375
 1482SOL    HW2 5700   4.317   5.253   5.703  0.8289 -0.2030  0.5403
 1482SOL    HW3 5701   4.375   5.346   5.599 -0.9916  0.2346 -0.1152
 1482SOL    MW4 5702   4.367   5.266   5.633 -0.0709  0.1610 -0.0451
 1483SOL     OW 5703   0.992   3.139   0.455  0.0364 -0.1417 -0.0004
 1483SOL    HW2 5704   0.915   3.106   0.501 -0.5742 -1.2196 -1.7013
 1483SOL    HW3 5705   1.064   3.123   0.516 -0.6996 -1.6950  0.5274
 1483SOL    MW4 5706   0.991   3.132   0.469 -0.1412 -0.4888 -0.1552
 1484SOL     OW 5707   4.653   5.013   3.569 -0.2741  0.0810 -0.7278
 1484SOL    HW2 5708   4.648   4.991   3.476  0.2011  2.4800 -1.3824
 1484SOL    HW3 5709   4.736   4.976   3.598 -1.1344 -2.0417 -0.8142
 1484SOL    MW4 5710   4.663   5.005   3.560 -0.3249  0.1174 -0.8256
 1485SOL     OW 5711   2.699   2.579   3.964 -0.3340  0.5266 -0.1290
 1485SOL    HW2 5712   2.733   2.663   3.934  0.9165  0.3685  0.7690
 1485SOL    HW3 5713   2.770   2.542   4.016 -1.8364  0.1120  1.7299
 1485SOL    MW4 5714   2.713   2.585   3.967 -0.3672  0.4511  0.2347
 1486SOL     OW 5715   3.332   2.601   5.534 -0.4458  0.0861 -0.3737
 1486SOL    HW2 5716   3.375   2.613   5.449  0.5591 -1.3217 -0.0825
 1486SOL    HW3 5717   3.260   2.541   5.515  0.1493 -0.7117 -0.1243
 1486SOL    MW4 5718   3.328   2.595   5.520 -0.2347 -0.2049 -0.3024
 1487SOL     OW 5719   2.140   3.347   3.847  0.0650 -0.5462  0.8181
 1487SOL    HW2 5720   2.142   3.432   3.802 -2.1642 -0.3222  1.0107
 1487SOL    HW3 5721   2.131   3.370   3.940  2.4969 -1.0218  1.2201
 1487SOL    MW4 5722   2.139   3.361   3.853  0.0918 -0.5794  0.8965
 1488SOL     OW 5723   6.313   2.924   3.140 -0.3829  0.2887  0.1712
 1488SOL    HW2 5724   6.399   2.955   3.169 -1.2748  1.7502  1.4541
 1488SOL    HW3 5725   6.328   2.834   3.112  1.4568  0.3130  0.9227
 1488SOL    MW4 5726   6.326   2.916   3.140 -0.2579  0.4847  0.4396
 1489SOL     OW 5727   3.404   1.600   1.466  0.3310 -0.1988  0.5873
 1489SOL    HW2 5728   3.320   1.647   1.464  1.2416  1.5473  0.9691
 1489SOL    HW3 5729   3.387   1.524   1.522 -1.1553 -0.2120  0.1585
 1489SOL    MW4 5730   3.391   1.596   1.473  0.2550  0.0298  0.5811
 1490SOL     OW 5731   3.127   3.775   6.255 -0.0106  0.1942 -0.1099
 1490SOL    HW2 5732   3.199   3.741   6.203  0.7136  2.1040 -0.4473
 1490SOL    HW3 5733   3.169   3.812   6.333 -0.8913 -0.9157  0.9211
 1490SOL    MW4 5734   3.142   3.776   6.259 -0.0313  0.2997 -0.0184
 1491SOL     OW 5735   0.347   6.006   5.679  0.5528  0.4783 -0.1155
 1491SOL    HW2 5736   0.345   5.911   5.693 -1.2081  0.5364  0.2917
 1491SOL    HW3 5737   0.426   6.035   5.723  0.7918 -0.7324  0.2940
 1491SOL    MW4 5738   0.357   5.997   5.687  0.3520  0.3262 -0.0077
 1492SOL     OW 5739   0.074   5.320   1.173 -0.0100  0.1340  0.6187
 1492SOL    HW2 5740   0.030   5.401   1.149 -0.9786 -0.2761  0.9812
 1492SOL    HW3 5741   0.062   5.313   1.268  0.6508 -0.1006  0.6933
 1492SOL    MW4 5742   0.067   5.330   1.182 -0.0506  0.0489  0.6764
 1493SOL     OW 5743   5.802   4.794   6.230 -0.6297  0.3857 -0.1965
 1493SOL    HW2 5744   5.889   4.774   6.264 -1.3163 -1.0945  0.7946
 1493SOL    HW3 5745   5.784   4.883   6.263 -0.4646 -0.2436  1.7101
 1493SOL    MW4 5746   5.811   4.803   6.239 -0.6985  0.1073  0.1858
 1494SOL     OW 5747   0.820   3.307   5.525 -0.9022  0.5437  0.0373
 1494SOL    HW2 5748   0.876   3.235   5.495 -0.4274  0.8855  0.1009
 1494SOL    HW3 5749   0.849   3.324   5.614  0.5403  2.3048 -0.7057
 1494SOL    MW4 5750   0.831   3.299   5.533 -0.6493  0.8212 -0.0524
 1495SOL     OW 5751   1.520   5.323   5.623 -0.2877  0.8039 -0.4335
 1495SOL    HW2 5752   1.599   5.340   5.675  0.5023 -0.8280 -1.0581
 1495SOL    HW3 5753   1.477   5.251   5.668 -0.9114  1.0359 -0.6516
 1495SOL    MW4 5754   1.525   5.316   5.636 -0.2657  0.6192 -0.5447
 1496SOL     OW 5755   1.789   0.729   1.047 -0.5368 -0.0273  0.4071
 1496SOL    HW2 5756   1.810   0.680   1.127  0.1025  1.4129  1.1704
 1496SOL    HW3 5757   1.772   0.818   1.078  1.0634  0.9028 -1.1847
 1496SOL    MW4 5758   1.789   0.734   1.062 -0.2413  0.2855  0.2978
 1497SOL     OW 5759   3.956   3.123   4.857 -0.4728 -0.2491 -0.0779
 1497SOL    HW2 5760   3.901   3.200   4.848  0.3142  0.4268  0.7271
 1497SOL    HW3 5761   4.019   3.130   4.785 -2.5588 -2.0675 -2.2718
 1497SOL    MW4 5762   3.957   3.134   4.846 -0.6442 -0.3998 -0.2611
 1498SOL     OW 5763   5.515   2.280   3.668  0.6059  0.1176 -0.0916
 1498SOL    HW2 5764   5.544   2.261   3.579  1.3754 -1.2320  0.4076
 1498SOL    HW3 5765   5.503   2.375   3.670 -1.8362 -0.0360 -2.2899
 1498SOL    MW4 5766   5.518   2.290   3.657  0.3852 -0.0807 -0.3158
 1499SOL     OW 5767   4.725   3.178   5.525 -0.2709  0.0126  0.3244
 1499SOL    HW2 5768   4.794   3.120   5.495  0.7240  1.6693 -0.7331
 1499SOL    HW3 5769   4.671   3.124   5.583 -0.0488 -2.2500 -1.4599
 1499SOL    MW4 5770   4.727   3.164   5.529 -0.1103 -0.0674 -0.0506
 1500SOL     OW 5771   1.802   5.301   0.631 -0.2489  0.5123 -0.0690
 1500SOL    HW2 5772   1.771   5.357   0.702 -1.0726 -0.3403  0.2579
 1500SOL    HW3 5773   1.891   5.332   0.613  0.0539  0.6163  1.4783
 1500SOL    MW4 5774   1.810   5.312   0.638 -0.3177  0.4135  0.1783
 1501SOL     OW 5775   6.096   0.841   6.218 -0.4045 -0.2901 -0.2934
 1501SOL    HW2 5776   6.004   0.821   6.200 -0.1235 -2.3866  0.3421
 1501SOL    HW3 5777   6.117   0.913   6.159 -2.9000  1.4350  0.7157
 1501SOL    MW4 5778   6.086   0.848   6.208 -0.6967 -0.3391 -0.0764
 1502SOL     OW 5779   5.865   1.040   6.001 -0.0076  0.6695  0.8029
 1502SOL    HW2 5780   5.894   1.109   5.941 -1.1756  2.2262  1.9807
 1502SOL    HW3 5781   5.794   0.996   5.955  1.0440 -0.1102 -0.1434
 1502SOL    MW4 5782   5.860   1.043   5.987 -0.0229  0.7720  0.8334
 1503SOL     OW 5783   6.216   2.754   5.432  0.0291  0.0322  0.1393
 1503SOL    HW2 5784   6.151   2.736   5.364 -1.2379 -0.8761  1.5245
 1503SOL    HW3 5785   6.294   2.780   5.384 -0.4596 -1.6735 -1.7211
 1503SOL    MW4 5786   6.217   2.755   5.416 -0.2025 -0.3127  0.0766
 1504SOL     OW 5787   4.588   4.736   4.122 -0.4356 -0.3050  0.0614
 1504SOL    HW2 5788   4.531   4.702   4.053  0.0706  1.4326 -1.3010
 1504SOL    HW3 5789   4.545   4.817   4.151  1.3136  1.1373 -1.1120
 1504SOL    MW4 5790   4.575   4.743   4.117 -0.1380  0.1146 -0.2732
 1505SOL     OW 5791   3.531   3.074   4.842 -0.6659  0.2046 -0.2793
 1505SOL    HW2 5792   3.539   3.090   4.748 -1.0972 -0.8632 -0.5125
 1505SOL    HW3 5793   3.621   3.063   4.873 -0.2538  3.2615 -0.0103
 1505SOL    MW4 5794   3.544   3.075   4.834 -0.6684  0.4671 -0.2746
 1506SOL     OW 5795   2.368   1.683   3.441  0.4760 -0.3848 -0.1089
 1506SOL    HW2 5796   2.435   1.690   3.509 -0.4636 -1.1497  0.9098
 1506SOL    HW3 5797   2.363   1.589   3.421  1.0936 -0.1367 -1.6287
 1506SOL    MW4 5798   2.376   1.671   3.447  0.4335 -0.4530 -0.1750
 1507SOL     OW 5799   4.904   1.854   2.833 -1.1087 -0.2810  0.0493
 1507SOL    HW2 5800   4.872   1.794   2.766 -2.4640 -0.4158  0.7720
 1507SOL    HW3 5801   4.896   1.941   2.793  0.2727 -0.5083 -0.7711
 1507SOL    MW4 5802   4.899   1.858   2.819 -1.1052 -0.3288  0.0364
 1508SOL     OW 5803   2.866   3.970   5.430 -0.5090 -0.4027  0.3923
 1508SOL    HW2 5804   2.935   3.978   5.364  0.6218 -2.3967  1.2649
 1508SOL    HW3 5805   2.909   3.988   5.513 -1.0794 -1.3625  0.9185
 1508SOL    MW4 5806   2.881   3.973   5.432 -0.4351 -0.7924  0.5768
 1509SOL     OW 5807   4.195   4.456   3.937  0.3461 -0.1931 -0.6446
 1509SOL    HW2 5808   4.135   4.506   3.882  0.2692 -0.1321 -0.5035
 1509SOL    HW3 5809   4.188   4.495   4.024 -0.1868 -0.8485 -0.3842
 1509SOL    MW4 5810   4.186   4.468   3.941  0.2656 -0.2715 -0.5917
 1510SOL     OW 5811   0.920   0.737   1.670 -0.1324 -0.3221  0.0466
 1510SOL    HW2 5812   0.955   0.680   1.601 -0.4704 -0.2771 -0.1626
 1510SOL    HW3 5813   0.925   0.825   1.634  1.3648 -0.0820  0.7670
 1510SOL    MW4 5814   0.926   0.741   1.656  0.0205 -0.2845  0.1140
 1511SOL     OW 5815   0.445   5.076   4.473  0.4117  0.3175 -0.0387
 1511SOL    HW2 5816   0.435   5.037   4.560  1.0994 -1.5608 -0.7555
 1511SOL    HW3 5817   0.395   5.019   4.415  0.0814  1.4667 -0.9234
 1511SOL    MW4 5818   0.437   5.063   4.477  0.4589  0.2213 -0.2500
 1512SOL     OW 5819   1.781   4.938   4.234  0.2955  0.1150 -0.0536
 1512SOL    HW2 5820   1.872   4.916   4.251 -0.1213 -2.0723 -0.4129
 1512SOL    HW3 5821   1.733   4.905   4.310  0.0675  4.9728  2.3501
 1512SOL    MW4 5822   1.787   4.931   4.247  0.2104  0.4673  0.2161
 1513SOL     OW 5823   4.623   4.249   1.542 -0.0156 -0.6582  0.1502
 1513SOL    HW2 5824   4.556   4.267   1.476  0.0449 -0.6935  0.0792
 1513SOL    HW3 5825   4.664   4.167   1.513  1.3163  0.3080 -0.8310
 1513SOL    MW4 5826   4.619   4.240   1.530  0.1681 -0.5354  0.0113
 1514SOL     OW 5827   1.838   5.360   1.823  0.1801  0.1124 -0.5560
 1514SOL    HW2 5828   1.781   5.436   1.822 -0.4436 -0.3448 -1.5384
 1514SOL    HW3 5829   1.844   5.333   1.731  2.9666  0.8444 -0.6905
 1514SOL    MW4 5830   1.832   5.366   1.810  0.4655  0.1487 -0.7034
 1515SOL     OW 5831   2.164   3.093   1.285 -0.3615 -0.2238  0.1084
 1515SOL    HW2 5832   2.241   3.079   1.230  0.0325 -0.2750  0.6535
 1515SOL    HW3 5833   2.199   3.136   1.364 -0.6122 -1.6634  1.0581
 1515SOL    MW4 5834   2.179   3.096   1.288 -0.3426 -0.4205  0.3056
 1516SOL     OW 5835   0.141   1.524   1.371  0.3250  0.1978  0.1851
 1516SOL    HW2 5836   0.091   1.512   1.290  0.1716 -1.5244  0.4968
 1516SOL    HW3 5837   0.088   1.585   1.422 -0.3285  0.1368 -0.3988
 1516SOL    MW4 5838   0.127   1.531   1.367  0.2185 -0.0375  0.1492
 1517SOL     OW 5839   6.034   3.032   0.762  0.3068  0.3350 -0.1564
 1517SOL    HW2 5840   6.015   3.117   0.722  1.2846  0.8844  0.5158
 1517SOL    HW3 5841   5.986   3.033   0.845 -0.6342 -0.2648 -0.6711
 1517SOL    MW4 5842   6.025   3.044   0.767  0.3116  0.3283 -0.1356
 1518SOL     OW 5843   1.924   4.235   5.061  0.1601  0.1397 -0.2596
 1518SOL    HW2 5844   1.923   4.286   5.142  0.3207  1.0738 -0.8248
 1518SOL    HW3 5845   1.839   4.191   5.059 -0.2392  0.8840 -0.0500
 1518SOL    MW4 5846   1.912   4.236   5.072  0.1286  0.3611 -0.3065
 1519SOL     OW 5847   5.166   4.655   3.438 -0.0478  0.0838  0.0817
 1519SOL    HW2 5848   5.161   4.568   3.476 -1.2838  0.2312  0.2911
 1519SOL    HW3 5849   5.078   4.673   3.405  0.0941  1.3674  0.3157
 1519SOL    MW4 5850   5.154   4.646   3.439 -0.1922  0.2726  0.1402
 1520SOL     OW 5851   5.339   4.951   0.954 -0.6667 -0.0976  0.4526
 1520SOL    HW2 5852   5.264   4.910   0.997 -0.9588  0.0020  0.0446
 1520SOL    HW3 5853   5.416   4.913   0.998 -0.9058 -1.5840 -0.3600
 1520SOL    MW4 5854   5.340   4.940   0.966 -0.7368 -0.2806  0.2916
 1521SOL     OW 5855   4.030   5.011   0.228  0.4630 -0.3432  0.2130
 1521SOL    HW2 5856   4.089   5.024   0.154 -0.3884 -0.2836 -0.4673
 1521SOL    HW3 5857   3.970   4.943   0.198 -0.3665  0.2339  0.5547
 1521SOL    MW4 5858   4.030   5.003   0.214  0.2412 -0.2592  0.1683
 1522SOL     OW 5859   2.793   3.927   2.579 -0.2978  0.7535  0.6176
 1522SOL    HW2 5860   2.712   3.920   2.628  0.3223  0.7610  1.6707
 1522SOL    HW3 5861   2.860   3.889   2.636  0.2464 -0.4845 -0.7689
 1522SOL    MW4 5862   2.791   3.921   2.593 -0.1442  0.5911  0.5736
 1523SOL     OW 5863   5.489   0.176   0.861  0.1337  0.0615  0.7675
 1523SOL    HW2 5864   5.408   0.208   0.822 -0.0203  2.6526  2.9314
 1523SOL    HW3 5865   5.463   0.101   0.914 -0.6821  0.3038  0.7221
 1523SOL    MW4 5866   5.475   0.171   0.863  0.0058  0.4353  1.0470
 1524SOL     OW 5867   4.322   2.417   3.010  0.0488  0.7456 -0.0905
 1524SOL    HW2 5868   4.358   2.332   3.034  0.5255  0.7963 -0.6008
 1524SOL    HW3 5869   4.239   2.397   2.967  0.5825  0.4581 -1.0355
 1524SOL    MW4 5870   4.316   2.403   3.007  0.1821  0.7144 -0.2825
 1525SOL     OW 5871   2.790   0.586   3.872  0.6075 -0.1806  0.0329
 1525SOL    HW2 5872   2.885   0.586   3.860  0.5059 -1.1350 -0.9505
 1525SOL    HW3 5873   2.758   0.523   3.807 -0.5576 -1.1646  1.5049
 1525SOL    MW4 5874   2.798   0.578   3.862  0.4404 -0.4364  0.0974
 1526SOL     OW 5875   5.953   3.914   6.364 -0.5111 -0.0003  0.2623
 1526SOL    HW2 5876   5.928   3.989   6.417 -0.5281  1.0731 -1.1965
 1526SOL    HW3 5877   5.898   3.842   6.396 -0.1872  0.4690  1.9742
 1526SOL    MW4 5878   5.943   3.914   6.375 -0.4706  0.2032  0.2957
 1527SOL     OW 5879   1.210   5.199   3.369  0.1101  0.4427 -0.2097
 1527SOL    HW2 5880   1.270   5.264   3.406  1.5319 -0.1869 -1.2990
 1527SOL    HW3 5881   1.258   5.116   3.375 -0.2599  0.0598 -1.9373
 1527SOL    MW4 5882   1.224   5.197   3.375  0.2489  0.3091 -0.5813
 1528SOL     OW 5883   5.435   3.548   1.623 -0.9409  0.4140  0.0579
 1528SOL    HW2 5884   5.354   3.498   1.628 -0.6181 -0.5860 -2.7532
 1528SOL    HW3 5885   5.504   3.484   1.643 -0.6997  0.5252 -0.4105
 1528SOL    MW4 5886   5.434   3.533   1.626 -0.8665  0.2967 -0.3748
 1529SOL     OW 5887   6.321   4.762   2.064 -0.1026  0.3047  0.4702
 1529SOL    HW2 5888   6.414   4.738   2.065  0.1697  1.0691 -1.8200
 1529SOL    HW3 5889   6.275   4.682   2.040  0.3748  0.7459 -2.2458
 1529SOL    MW4 5890   6.327   4.749   2.061 -0.0037  0.4638 -0.1903
 1530SOL     OW 5891   0.362   5.944   3.826  0.3889  0.1974  0.0949
 1530SOL    HW2 5892   0.277   5.908   3.850  0.6358 -0.1292  0.4959
 1530SOL    HW3 5893   0.341   6.021   3.773 -0.1551 -1.7763 -2.7942
 1530SOL    MW4 5894   0.348   5.950   3.823  0.3497 -0.1061 -0.2334
 1531SOL     OW 5895   4.142   6.230   5.875  0.5533 -0.0659  0.1358
 1531SOL    HW2 5896   4.069   6.292   5.874  0.3861 -0.2183  1.4483
 1531SOL    HW3 5897   4.197   6.258   5.947  1.6397 -0.1630 -0.6352
 1531SOL    MW4 5898   4.139   6.242   5.884  0.6746 -0.0988  0.2072
 1532SOL     OW 5899   6.409   1.167   5.003  0.2338  0.4589 -0.4013
 1532SOL    HW2 5900   6.402   1.234   5.071  0.7977  1.7962 -1.6135
 1532SOL    HW3 5901   6.503   1.156   4.990  0.1383 -0.3027 -0.4861
 1532SOL    MW4 5902   6.421   1.174   5.011  0.2956  0.5349 -0.5724
 1533SOL     OW 5903   1.178   4.678   3.843  0.3214  0.3005  0.0223
 1533SOL    HW2 5904   1.090   4.651   3.870  0.7614  0.3968  1.6679
 1533SOL    HW3 5905   1.227   4.684   3.925  1.4505  1.7726 -0.7254
 1533SOL    MW4 5906   1.172   4.675   3.858  0.5284  0.5074  0.1408
 1534SOL     OW 5907   4.543   2.339   5.519 -0.1151 -0.1150  0.3313
 1534SOL    HW2 5908   4.611   2.296   5.467  0.0458 -0.0917  0.5239
 1534SOL    HW3 5909   4.557   2.433   5.503 -1.1490 -0.1549 -0.9648
 1534SOL    MW4 5910   4.554   2.346   5.510 -0.2303 -0.1172  0.1857
 1535SOL     OW 5911   1.315   2.120   2.843  0.1712 -0.3887  0.2239
 1535SOL    HW2 5912   1.262   2.116   2.922  1.3930  0.3682  1.1138
 1535SOL    HW3 5913   1.269   2.064   2.780  0.2806 -2.7670  2.1238
 1535SOL    MW4 5914   1.302   2.112   2.845  0.3468 -0.6026  0.5920
 1536SOL     OW 5915   2.640   4.721   4.308  0.2752  0.5954  0.1726
 1536SOL    HW2 5916   2.579   4.666   4.258 -1.0618  0.0560  2.2584
 1536SOL    HW3 5917   2.587   4.796   4.337  1.1705  1.2053  0.2622
 1536SOL    MW4 5918   2.625   4.723   4.305  0.2169  0.6047  0.4596
 1537SOL     OW 5919   0.925   5.156   3.285  0.4919  0.7506  0.7178
 1537SOL    HW2 5920   0.838   5.194   3.297  0.7492  2.6396 -2.4432
 1537SOL    HW3 5921   0.984   5.221   3.322  0.6670 -0.0976  1.9975
 1537SOL    MW4 5922   0.921   5.169   3.292  0.5489  0.8879  0.4696
 1538SOL     OW 5923   4.216   5.234   5.296 -0.2134 -0.0306 -0.3027
 1538SOL    HW2 5924   4.176   5.179   5.363  0.2677  0.2313  0.2101
 1538SOL    HW3 5925   4.303   5.196   5.283 -1.1435 -1.5838 -2.5727
 1538SOL    MW4 5926   4.223   5.222   5.303 -0.2726 -0.2010 -0.5346
 1539SOL     OW 5927   3.699   0.651   3.985 -0.6199  0.1620  0.3383
 1539SOL    HW2 5928   3.657   0.570   4.016 -1.5420 -0.4806 -2.2802
 1539SOL    HW3 5929   3.626   0.710   3.967 -0.2241  0.2243 -1.1961
 1539SOL    MW4 5930   3.684   0.648   3.986 -0.6893  0.0855 -0.2096
 1540SOL     OW 5931   3.777   1.150   2.095  0.1260 -0.1738 -0.1367
 1540SOL    HW2 5932   3.697   1.191   2.130 -0.7185  0.6685 -2.8362
 1540SOL    HW3 5933   3.751   1.061   2.073  0.2025 -0.1980 -0.1285
 1540SOL    MW4 5934   3.763   1.144   2.097  0.0247 -0.0659 -0.4918
 1541SOL     OW 5935   1.126   3.983   3.416 -0.6165  0.0468  0.6467
 1541SOL    HW2 5936   1.112   3.891   3.394 -0.8700  0.8966 -3.5019
 1541SOL    HW3 5937   1.042   4.013   3.450 -0.2486 -1.3682  3.0281
 1541SOL    MW4 5938   1.113   3.975   3.418 -0.6014 -0.0277  0.4135
 1542SOL     OW 5939   0.416   0.690   0.307  0.0392 -0.9344  0.0530
 1542SOL    HW2 5940   0.400   0.603   0.269 -1.2018 -1.3554  1.4468
 1542SOL    HW3 5941   0.334   0.737   0.294  0.1533 -0.5297  0.7669
 1542SOL    MW4 5942   0.403   0.684   0.300 -0.1095 -0.9366  0.3311
 1543SOL     OW 5943   3.493   3.388   5.102 -0.1200 -0.1429 -0.2431
 1543SOL    HW2 5944   3.462   3.417   5.016 -0.2212 -0.4068 -0.2993
 1543SOL    HW3 5945   3.415   3.350   5.143  0.0893 -0.6498 -0.3115
 1543SOL    MW4 5946   3.478   3.387   5.096 -0.1057 -0.2446 -0.2595
 1544SOL     OW 5947   6.171   5.142   0.339 -0.0127  0.4206 -0.0379
 1544SOL    HW2 5948   6.081   5.150   0.371  0.2633  0.9558  0.6103
 1544SOL    HW3 5949   6.224   5.189   0.403  0.8780 -0.9390  0.2595
 1544SOL    MW4 5950   6.166   5.149   0.351  0.1412  0.3118  0.0868
 1545SOL     OW 5951   2.404   4.085   0.276  0.0869  0.6039  0.0447
 1545SOL    HW2 5952   2.350   4.138   0.335  0.6510 -1.4752  2.6679
 1545SOL    HW3 5953   2.342   4.029   0.230 -0.2555  1.1296 -0.1419
 1545SOL    MW4 5954   2.389   4.084   0.278  0.1162  0.3990  0.3662
 1546SOL     OW 5955   2.690   5.384   3.266 -0.8430 -0.5440  0.1286
 1546SOL    HW2 5956   2.638   5.452   3.223 -0.4708 -1.4861 -1.9338
 1546SOL    HW3 5957   2.762   5.367   3.206  0.6016 -0.8657  1.8828
 1546SOL    MW4 5958   2.692   5.391   3.253 -0.6033 -0.7108  0.0879
 1547SOL     OW 5959   2.805   3.820   5.027 -0.0872 -0.2726 -0.1512
 1547SOL    HW2 5960   2.869   3.772   5.079  0.0758  0.0746 -0.0242
 1547SOL    HW3 5961   2.752   3.753   4.985 -0.7566 -0.5491  1.1075
 1547SOL    MW4 5962   2.807   3.805   5.028 -0.1540 -0.2633  0.0317
 1548SOL     OW 5963   3.964   4.803   4.625 -0.1569 -0.1261  0.1652
 1548SOL    HW2 5964   3.935   4.825   4.714 -0.7549  2.7146 -0.6049
 1548SOL    HW3 5965   3.887   4.764   4.584 -0.1165 -0.7488  0.6783
 1548SOL    MW4 5966   3.950   4.801   4.631 -0.2305  0.1665  0.1313
 1549SOL     OW 5967   1.424   5.220   1.815  0.5384  0.6444 -0.2062
 1549SOL    HW2 5968   1.376   5.294   1.778  1.2053  1.6323  0.8456
 1549SOL    HW3 5969   1.504   5.214   1.763  0.2107  0.2467 -0.6837
 1549SOL    MW4 5970   1.428   5.229   1.803  0.5831  0.7223 -0.1304
 1550SOL     OW 5971   6.190   2.755   0.002  0.1188 -0.1380  0.0063
 1550SOL    HW2 5972   6.272   2.773  -0.045  1.0431 -1.3108  1.0688
 1550SOL    HW3 5973   6.160   2.672  -0.033 -0.6359  0.3042 -0.3952
 1550SOL    MW4 5974   6.197   2.746  -0.009  0.1411 -0.2344  0.0935
 1551SOL     OW 5975   3.634   2.620   4.563  0.1291  0.4683 -0.2092
 1551SOL    HW2 5976   3.573   2.551   4.591  0.5307  0.6626  1.2595
 1551SOL    HW3 5977   3.659   2.664   4.645 -0.4411  2.6418 -1.1328
 1551SOL    MW4 5978   3.629   2.617   4.578  0.1068  0.7807 -0.1373
 1552SOL     OW 5979   5.889   6.165   3.641  0.2361 -0.1544  0.1746
 1552SOL    HW2 5980   5.834   6.237   3.671 -1.3943 -0.8317 -1.0717
 1552SOL    HW3 5981   5.883   6.167   3.546  3.3840  0.4650 -0.1434
 1552SOL    MW4 5982   5.881   6.174   3.633  0.4363 -0.1620 -0.0318
 1553SOL     OW 5983   0.322   0.740   2.527  0.5309  0.7571  0.5171
 1553SOL    HW2 5984   0.394   0.702   2.578  0.2584 -0.2229  0.2018
 1553SOL    HW3 5985   0.257   0.766   2.592  1.1143  1.5425  0.7972
 1553SOL    MW4 5986   0.323   0.738   2.542  0.5719  0.7314  0.5125
 1554SOL     OW 5987   4.399   0.829   2.087 -0.3179 -0.5371  0.2901
 1554SOL    HW2 5988   4.402   0.742   2.050  2.9394 -0.6643  0.5789
 1554SOL    HW3 5989   4.456   0.882   2.031  0.8231  0.4307  2.2479
 1554SOL    MW4 5990   4.407   0.825   2.075  0.2624 -0.4262  0.5865
 1555SOL     OW 5991   2.782   2.625   6.362  0.6476 -0.3480 -0.5847
 1555SOL    HW2 5992   2.837   2.694   6.326  1.3590 -0.5367  0.0970
 1555SOL    HW3 5993   2.749   2.660   6.445 -1.5726  0.3672 -1.6949
 1555SOL    MW4 5994   2.785   2.638   6.368  0.4486 -0.2785 -0.6412
 1556SOL     OW 5995   2.288   6.326   3.752 -0.2516 -0.0463  0.0281
 1556SOL    HW2 5996   2.330   6.242   3.771 -1.0552 -0.6980 -0.9317
 1556SOL    HW3 5997   2.360   6.387   3.737  0.3432 -0.5252  0.8497
 1556SOL    MW4 5998   2.303   6.323   3.753 -0.2792 -0.1955  0.0099
 1557SOL     OW 5999   6.047   1.401   4.071  0.0137  0.0304  0.3704
 1557SOL    HW2 6000   5.967   1.390   4.019 -1.4475 -0.8803  2.6566
 1557SOL    HW3 6001   6.032   1.481   4.121  1.2070  0.6502 -0.2196
 1557SOL    MW4 6002   6.034   1.410   4.070 -0.0217 -0.0080  0.5942
 1558SOL     OW 6003   1.993   4.880   1.560  0.5602 -0.1127  0.6800
 1558SOL    HW2 6004   1.960   4.907   1.475  1.0073 -0.4295  0.3956
 1558SOL    HW3 6005   2.034   4.958   1.597  1.1817 -0.1980  0.1934
 1558SOL    MW4 6006   1.994   4.894   1.554  0.7012 -0.1658  0.5783
 1559SOL     OW 6007   4.245   3.339   1.688 -0.5185 -0.2495  0.3433
 1559SOL    HW2 6008   4.238   3.243   1.687 -0.3395 -0.2658  0.4694
 1559SOL    HW3 6009   4.335   3.356   1.661  0.0163 -0.1943  2.0141
 1559SOL    MW4 6010   4.256   3.328   1.684 -0.4244 -0.2444  0.5804
 1560SOL     OW 6011   5.278   6.036   2.357  0.2105 -0.2260 -0.3458
 1560SOL    HW2 6012   5.366   6.025   2.320  0.7868  2.6053 -0.0083
 1560SOL    HW3 6013   5.221   6.043   2.280  0.4044 -1.0718 -0.5777
 1560SOL    MW4 6014   5.282   6.035   2.342  0.3121  0.0360 -0.3319
 1561SOL     OW 6015   5.934   2.995   3.537  0.6976  0.1796 -0.3647
 1561SOL    HW2 6016   5.871   3.066   3.528  1.4344  0.7949 -0.8565
 1561SOL    HW3 6017   6.018   3.035   3.514  1.0178 -1.0477 -1.4125
 1561SOL    MW4 6018   5.937   3.010   3.533  0.8371  0.0989 -0.5678
 1562SOL     OW 6019   5.991   3.076   0.104 -0.4430  0.0484 -1.0297
 1562SOL    HW2 6020   5.981   3.158   0.057  0.0559  2.6579  2.9713
 1562SOL    HW3 6021   5.903   3.056   0.137 -0.0417  0.7877  0.5936
 1562SOL    MW4 6022   5.978   3.084   0.102 -0.3243  0.4902 -0.2876
 1563SOL     OW 6023   3.614   4.941   4.543 -0.5864  0.8064  0.0572
 1563SOL    HW2 6024   3.587   4.890   4.620  0.5266 -0.5927 -0.4405
 1563SOL    HW3 6025   3.540   4.999   4.526 -2.0635 -0.8694  0.4473
 1563SOL    MW4 6026   3.601   4.942   4.551 -0.6345  0.4007  0.0430
 1564SOL     OW 6027   1.327   0.484   2.952 -0.4189  0.2228 -0.6613
 1564SOL    HW2 6028   1.347   0.530   3.034 -0.4497 -0.1032 -0.4707
 1564SOL    HW3 6029   1.233   0.498   2.939 -0.7044 -0.8567  0.0732
 1564SOL    MW4 6030   1.317   0.492   2.961 -0.4606  0.0374 -0.5393
 1565SOL     OW 6031   5.541   1.137   3.721 -0.7744  0.3018  0.1532
 1565SOL    HW2 6032   5.513   1.179   3.640 -0.8477 -0.4341 -0.2091
 1565SOL    HW3 6033   5.586   1.057   3.692  1.0364  1.0475  0.7392
 1565SOL    MW4 6034   5.543   1.132   3.706 -0.5452  0.3031  0.1827
 1566SOL     OW 6035   1.724   1.894   1.596  0.1830 -0.6131  0.0931
 1566SOL    HW2 6036   1.732   1.818   1.654  1.3294  0.3254  1.2291
 1566SOL    HW3 6037   1.681   1.960   1.650 -0.5035 -0.3312 -0.7826
 1566SOL    MW4 6038   1.720   1.892   1.611  0.2437 -0.4521  0.1274
 1567SOL     OW 6039   1.531   4.550   2.195  0.8629  0.2737  0.7470
 1567SOL    HW2 6040   1.493   4.545   2.107  0.6429 -0.2050  0.8673
 1567SOL    HW3 6041   1.542   4.644   2.211 -2.2891  0.6347  1.5434
 1567SOL    MW4 6042   1.527   4.562   2.186  0.4180  0.2582  0.8680
 1568SOL     OW 6043   4.002   3.097   1.898  0.4348  0.5278  0.0891
 1568SOL    HW2 6044   4.081   3.073   1.947 -0.1024  0.4708  0.9480
 1568SOL    HW3 6045   3.938   3.030   1.922  0.4169 -0.0046 -1.3858
 1568SOL    MW4 6046   4.004   3.085   1.908  0.3615  0.4500  0.0078
 1569SOL     OW 6047   4.579   3.335   3.112 -0.3899  0.4766 -0.4660
 1569SOL    HW2 6048   4.658   3.356   3.062 -0.6089 -1.5761 -1.7683
 1569SOL    HW3 6049   4.604   3.260   3.166 -0.5952  1.7467  1.4984
 1569SOL    MW4 6050   4.593   3.328   3.113 -0.4459  0.3734 -0.3786
 1570SOL     OW 6051   0.360   5.916   2.047 -0.0782 -0.5644 -0.1783
 1570SOL    HW2 6052   0.309   5.956   2.118 -1.2329 -1.0459 -0.7196
 1570SOL    HW3 6053   0.318   5.947   1.967  2.1766  1.2849 -0.7697
 1570SOL    MW4 6054   0.348   5.926   2.046  0.0669 -0.3839 -0.3277
 1571SOL     OW 6055   5.690   2.915   1.873 -0.3131 -0.4678 -0.4875
 1571SOL    HW2 6056   5.716   2.991   1.926 -0.9696 -1.3394  1.1450
 1571SOL    HW3 6057   5.686   2.949   1.784 -1.9306  1.8159  0.3573
 1571SOL    MW4 6058   5.693   2.930   1.868 -0.6131 -0.2815 -0.1607
 1572SOL     OW 6059   2.621   2.131   1.133  0.1111 -0.2363  0.4062
 1572SOL    HW2 6060   2.650   2.191   1.202 -1.1747 -0.1115  0.8687
 1572SOL    HW3 6061   2.527   2.147   1.125  0.0470 -1.0129 -0.6353
 1572SOL    MW4 6062   2.613   2.141   1.141 -0.0670 -0.3223  0.3298
 1573SOL     OW 6063   4.528   3.441   2.133  0.5352  0.3937  0.2294
 1573SOL    HW2 6064   4.448   3.405   2.095 -0.6483  2.2068  0.8513
 1573SOL    HW3 6065   4.507   3.452   2.226  0.5030  3.2471 -0.0109
 1573SOL    MW4 6066   4.515   3.438   2.141  0.3748  1.0094  0.2798
 1574SOL     OW 6067   0.864   1.206   1.843  0.1827  1.1188  0.3237
 1574SOL    HW2 6068   0.889   1.298   1.833  0.8310  1.0266  1.0165
 1574SOL    HW3 6069   0.833   1.180   1.756  1.3669  1.5801 -0.2598
 1574SOL    MW4 6070   0.863   1.215   1.830  0.4244  1.1675  0.3381
 1575SOL     OW 6071   4.433   5.499   4.562 -0.1689  0.2115  0.0603
 1575SOL    HW2 6072   4.528   5.513   4.568 -0.1469 -0.3356  1.3910
 1575SOL    HW3 6073   4.403   5.501   4.653 -1.4555  0.4853 -0.3569
 1575SOL    MW4 6074   4.441   5.501   4.575 -0.3357  0.1755  0.1808
 1576SOL     OW 6075   3.958   5.979   1.618 -0.2131 -0.4679  0.4597
 1576SOL    HW2 6076   3.917   5.986   1.532  0.3386 -2.6957 -0.0426
 1576SOL    HW3 6077   4.038   6.031   1.611 -0.5404 -0.0177 -0.0970
 1576SOL    MW4 6078   3.963   5.987   1.606 -0.1835 -0.7024  0.3200
 1577SOL     OW 6079   1.644   5.318   6.340 -0.2840  0.0670  0.2324
 1577SOL    HW2 6080   1.685   5.317   6.254 -0.1059 -0.1991  0.3197
 1577SOL    HW3 6081   1.671   5.402   6.378  1.1502 -0.5925  0.7468
 1577SOL    MW4 6082   1.653   5.329   6.334 -0.0713 -0.0551  0.3118
 1578SOL     OW 6083   0.285   1.975   4.998  0.0880 -0.1885  0.0893
 1578SOL    HW2 6084   0.272   1.883   4.974  0.7443 -0.0795 -0.6998
 1578SOL    HW3 6085   0.199   2.015   4.985  0.0265 -0.4894 -0.4800
 1578SOL    MW4 6086   0.272   1.968   4.993  0.1665 -0.2138 -0.0899
 1579SOL     OW 6087   1.018   2.465   6.074 -0.2424 -0.4866  0.3613
 1579SOL    HW2 6088   1.097   2.515   6.055 -0.4504 -0.4484 -0.4364
 1579SOL    HW3 6089   1.034   2.427   6.160  0.8619 -0.9079 -0.0096
 1579SOL    MW4 6090   1.030   2.466   6.083 -0.1242 -0.5372  0.2071
 1580SOL     OW 6091   4.072   3.321   3.681  0.4448  0.2721  0.2683
 1580SOL    HW2 6092   4.011   3.335   3.753 -0.4019 -0.5596 -0.2679
 1580SOL    HW3 6093   4.040   3.377   3.610 -0.1499 -0.7166 -0.2631
 1580SOL    MW4 6094   4.060   3.330   3.681  0.2546  0.0320  0.1274
 1581SOL     OW 6095   0.313   1.394   5.961 -0.4419 -0.4817  0.5410
 1581SOL    HW2 6096   0.403   1.360   5.964 -0.4135 -0.4659 -0.0653
 1581SOL    HW3 6097   0.324   1.489   5.968 -0.0495 -0.0135 -3.6311
 1581SOL    MW4 6098   0.326   1.402   5.962 -0.3864 -0.4178 -0.0895
 1582SOL     OW 6099   2.897   2.788   3.596  0.5739 -0.0504 -0.6204
 1582SOL    HW2 6100   2.911   2.693   3.588 -0.0079 -0.0581 -1.7408
 1582SOL    HW3 6101   2.857   2.798   3.682 -1.3916 -1.1060 -1.3413
 1582SOL    MW4 6102   2.894   2.777   3.606  0.2378 -0.1907 -0.8634
 1583SOL     OW 6103   3.437   5.153   2.949 -0.2617 -0.0874  0.2523
 1583SOL    HW2 6104   3.529   5.138   2.969 -0.5796  0.5044  2.3510
 1583SOL    HW3 6105   3.403   5.199   3.025 -2.5830 -1.3273  0.0506
 1583SOL    MW4 6106   3.445   5.157   2.962 -0.6099 -0.1729  0.5026
 1584SOL     OW 6107   1.473   4.324   1.772  0.2405  0.0321 -0.5109
 1584SOL    HW2 6108   1.417   4.339   1.696 -0.0853 -0.0757 -0.2940
 1584SOL    HW3 6109   1.430   4.254   1.821 -0.5308  1.3038  0.7047
 1584SOL    MW4 6110   1.460   4.317   1.769  0.0957  0.1857 -0.3219
 1585SOL     OW 6111   4.901   5.489   0.836 -0.1759  0.6050  0.7884
 1585SOL    HW2 6112   4.947   5.484   0.752 -0.3680 -0.4050  0.7306
 1585SOL    HW3 6113   4.967   5.522   0.898  1.4986 -3.1738  1.2731
 1585SOL    MW4 6114   4.916   5.493   0.833  0.0197 -0.0268  0.8447
 1586SOL     OW 6115   3.031   1.851   3.268  0.3385  0.5972 -0.9866
 1586SOL    HW2 6116   2.997   1.898   3.191 -0.6373 -2.4604 -2.5928
 1586SOL    HW3 6117   3.045   1.762   3.237 -0.9841 -1.0621  2.6134
 1586SOL    MW4 6118   3.028   1.845   3.254  0.0352 -0.0252 -0.7235
 1587SOL     OW 6119   0.824   4.879   1.669 -0.2553 -0.0925 -0.3793
 1587SOL    HW2 6120   0.861   4.814   1.608 -0.3718  0.9638 -1.6380
 1587SOL    HW3 6121   0.738   4.900   1.631  0.0825  1.3066 -0.4196
 1587SOL    MW4 6122   0.818   4.873   1.656 -0.2261  0.2315 -0.5507
 1588SOL     OW 6123   3.886   2.593   5.503  0.3549 -0.5947  0.1418
 1588SOL    HW2 6124   3.871   2.676   5.548  1.5934 -0.6555  0.7103
 1588SOL    HW3 6125   3.801   2.550   5.502 -0.2247  0.5447  0.1325
 1588SOL    MW4 6126   3.873   2.598   5.509  0.4419 -0.4524  0.2156
 1589SOL     OW 6127   5.589   6.303   0.213  0.4822  0.1212  0.0834
 1589SOL    HW2 6128   5.605   6.323   0.120  0.5074  0.5369  0.1759
 1589SOL    HW3 6129   5.651   6.358   0.260  0.1336  0.2669  0.3673
 1589SOL    MW4 6130   5.599   6.313   0.207  0.4395  0.1953  0.1331
 1590SOL     OW 6131   1.885   0.358   4.763 -0.4438 -0.3343  0.0955
 1590SOL    HW2 6132   1.809   0.305   4.788 -0.1533 -0.6931  0.2340
 1590SOL    HW3 6133   1.942   0.357   4.840 -0.3435  0.0156  0.0294
 1590SOL    MW4 6134   1.883   0.351   4.776 -0.3923 -0.3355  0.1050
 1591SOL     OW 6135   0.618   2.476   3.935 -0.3042 -0.5069 -0.4712
 1591SOL    HW2 6136   0.665   2.489   4.017 -1.8889 -2.0195  0.7467
 1591SOL    HW3 6137   0.529   2.507   3.953 -0.7991 -1.2829 -1.4597
 1591SOL    MW4 6138   0.612   2.482   3.948 -0.5786 -0.8089 -0.4409
 1592SOL     OW 6139   0.633   2.966   2.649  0.0717 -0.5917 -0.7004
 1592SOL    HW2 6140   0.705   2.934   2.704  0.1688 -1.9504 -1.5870
 1592SOL    HW3 6141   0.674   2.982   2.564 -0.8107 -2.1999 -1.4675
 1592SOL    MW4 6142   0.648   2.964   2.645 -0.0319 -0.9831 -0.9186
 1593SOL     OW 6143   0.945   1.412   0.567 -0.7025  0.2729  0.1013
 1593SOL    HW2 6144   0.935   1.373   0.480 -0.1308  0.7163 -0.1734
 1593SOL    HW3 6145   0.894   1.356   0.625  0.0194 -0.8255 -0.2984
 1593SOL    MW4 6146   0.937   1.399   0.563 -0.5319  0.1865  0.0123
 1594SOL     OW 6147   2.196   4.701   2.498 -0.1242  0.0319  0.3097
 1594SOL    HW2 6148   2.174   4.690   2.405  1.2318 -0.5982  0.0319
 1594SOL    HW3 6149   2.223   4.793   2.506  1.2695 -0.2996 -0.2894
 1594SOL    MW4 6150   2.197   4.712   2.487  0.2386 -0.0950  0.1940
 1595SOL     OW 6151   0.193   2.640   3.700  0.1656 -0.2198  0.2258
 1595SOL    HW2 6152   0.281   2.671   3.721 -0.1253  0.5881  0.2818
 1595SOL    HW3 6153   0.205   2.584   3.623  0.7986 -0.5715  0.5726
 1595SOL    MW4 6154   0.206   2.637   3.693  0.2107 -0.1596  0.2790
 1596SOL     OW 6155   3.933   4.292   4.693 -0.3221  0.4539 -0.0161
 1596SOL    HW2 6156   3.921   4.385   4.714 -1.2893  0.1589  0.8414
 1596SOL    HW3 6157   3.917   4.286   4.599 -2.1731  0.8721  0.2393
 1596SOL    MW4 6158   3.929   4.303   4.684 -0.6939  0.4702  0.1307
 1597SOL     OW 6159   5.250   0.500   1.098  0.0330  0.3764  0.0558
 1597SOL    HW2 6160   5.207   0.586   1.093 -0.4648  0.1349  0.1757
 1597SOL    HW3 6161   5.320   0.505   1.032 -0.3950  0.6539 -0.3867
 1597SOL    MW4 6162   5.254   0.512   1.088 -0.0892  0.3811  0.0133
 1598SOL     OW 6163   4.120   3.381   5.434 -0.0947  0.1830 -0.1396
 1598SOL    HW2 6164   4.158   3.302   5.397  1.3443 -0.0812  1.7981
 1598SOL    HW3 6165   4.029   3.358   5.451  0.0427 -0.7109 -0.5519
 1598SOL    MW4 6166   4.113   3.368   5.431  0.1133  0.0302  0.0617
 1599SOL     OW 6167   5.269   6.045   0.373 -0.4630 -0.6167  0.1765
 1599SOL    HW2 6168   5.229   6.110   0.315  0.1297  0.3859  0.8713
 1599SOL    HW3 6169   5.352   6.084   0.399  0.8572 -2.4996 -0.9531
 1599SOL    MW4 6170   5.275   6.059   0.369 -0.2106 -0.7328  0.1191
 1600SOL     OW 6171   1.056   6.340   3.341  0.2759  0.1498 -0.0530
 1600SOL    HW2 6172   1.054   6.357   3.247  0.5007 -0.1575 -0.1161
 1600SOL    HW3 6173   1.145   6.363   3.368  0.3655 -0.2343 -0.0100
 1600SOL    MW4 6174   1.068   6.345   3.332  0.3174  0.0586 -0.0557
 1601SOL     OW 6175   0.886   2.962   1.938  0.1899  0.0951 -0.2752
 1601SOL    HW2 6176   0.933   2.899   1.992  0.1589 -0.0190 -0.3799
 1601SOL    HW3 6177   0.794   2.945   1.957  0.0639 -1.3322 -1.8623
 1601SOL    MW4 6178   0.880   2.952   1.948  0.1692 -0.1083 -0.4984
 1602SOL     OW 6179   0.368   1.119   0.843  0.1553 -0.0385 -0.3985
 1602SOL    HW2 6180   0.315   1.066   0.903  0.8707  0.0466  0.3175
 1602SOL    HW3 6181   0.347   1.210   0.867  0.8603 -0.0047  0.1022
 1602SOL    MW4 6182   0.358   1.124   0.854  0.3427 -0.0228 -0.2379
 1603SOL     OW 6183   3.425   5.390   5.692 -0.5964  0.1293 -0.1340
 1603SOL    HW2 6184   3.431   5.339   5.773 -3.0369  0.2451  0.1782
 1603SOL    HW3 6185   3.502   5.363   5.642 -0.8163 -2.5305  0.7865
 1603SOL    MW4 6186   3.436   5.380   5.696 -0.9474 -0.2063  0.0286
 1604SOL     OW 6187   3.735   6.062   3.791 -0.0629  0.1523  0.6914
 1604SOL    HW2 6188   3.722   6.081   3.698  0.9954  1.4829  0.7881
 1604SOL    HW3 6189   3.779   5.977   3.792  0.4325  0.3887 -0.0655
 1604SOL    MW4 6190   3.739   6.053   3.779  0.1421  0.3591  0.6043
 1605SOL     OW 6191   3.092   4.411   6.339 -0.1132  0.2384  0.3078
 1605SOL    HW2 6192   3.114   4.504   6.330  1.3848 -0.2113 -1.2754
 1605SOL    HW3 6193   3.109   4.374   6.252  1.3005 -1.8986  1.4211
 1605SOL    MW4 6194   3.097   4.419   6.326  0.2710 -0.1029  0.2458
 1606SOL     OW 6195   0.631   4.671   0.152  0.0597 -0.9668 -0.4804
 1606SOL    HW2 6196   0.648   4.648   0.061 -1.9462 -3.0573 -0.4223
 1606SOL    HW3 6197   0.571   4.603   0.183 -0.4542  0.4941  1.9875
 1606SOL    MW4 6198   0.625   4.659   0.144 -0.2727 -1.0499 -0.1472
 1607SOL     OW 6199   0.555   1.638   2.100  0.0056 -0.0834  0.6397
 1607SOL    HW2 6200   0.477   1.653   2.154  0.1296  0.3537  0.7011
 1607SOL    HW3 6201   0.621   1.697   2.137  0.3982 -0.5217  0.6509
 1607SOL    MW4 6202   0.553   1.647   2.112  0.0737 -0.0836  0.6493
 1608SOL     OW 6203   6.267   1.304   4.221 -0.5533  0.3691 -0.3825
 1608SOL    HW2 6204   6.211   1.328   4.148  0.1613 -0.6816 -1.2984
 1608SOL    HW3 6205   6.213   1.249   4.277 -1.7515  2.7523  0.9951
 1608SOL    MW4 6206   6.253   1.300   4.219 -0.6171  0.5449 -0.3216
 1609SOL     OW 6207   1.499   0.357   4.736  0.3117 -0.0782 -0.1220
 1609SOL    HW2 6208   1.455   0.398   4.810 -1.1531 -1.2982 -0.2554
 1609SOL    HW3 6209   1.530   0.430   4.682 -1.1826  0.8694  0.2209
 1609SOL    MW4 6210   1.497   0.372   4.738 -0.0787 -0.1141 -0.0943
 1610SOL     OW 6211   2.483   4.887   2.679  0.2881  0.2782 -0.2659
 1610SOL    HW2 6212   2.471   4.959   2.741  0.7929  0.3012 -0.1904
 1610SOL    HW3 6213   2.408   4.894   2.620  0.5922  1.1843 -0.5689
 1610SOL    MW4 6214   2.472   4.897   2.680  0.3948  0.4008 -0.2960
 1611SOL     OW 6215   3.233   5.974   3.140  0.1263 -0.2487  0.2972
 1611SOL    HW2 6216   3.271   5.975   3.052 -1.0734 -1.3406 -0.2761
 1611SOL    HW3 6217   3.243   5.884   3.170 -1.4407 -0.4478  0.3379
 1611SOL    MW4 6218   3.239   5.962   3.132 -0.2387 -0.4190  0.2270
 1612SOL     OW 6219   3.915   4.457   5.331 -0.2844  0.1442  0.2124
 1612SOL    HW2 6220   3.921   4.373   5.285  1.0297  1.3883 -2.0828
 1612SOL    HW3 6221   3.938   4.437   5.422  0.3364 -1.9074 -0.3585
 1612SOL    MW4 6222   3.919   4.443   5.337 -0.0291  0.0377 -0.1658
 1613SOL     OW 6223   4.239   0.180   1.096  0.3314 -0.3906  0.1287
 1613SOL    HW2 6224   4.297   0.114   1.133 -1.0672 -2.8305 -1.6815
 1613SOL    HW3 6225   4.181   0.204   1.168  0.9478 -1.0396  0.8637
 1613SOL    MW4 6226   4.239   0.174   1.110  0.2282 -0.7981 -0.0132
 1614SOL     OW 6227   0.301   5.323   4.421 -0.0312 -0.3343 -0.3395
 1614SOL    HW2 6228   0.360   5.266   4.469 -0.1446  0.6189  0.9816
 1614SOL    HW3 6229   0.232   5.265   4.389 -0.8797 -0.8046  2.1095
 1614SOL    MW4 6230   0.300   5.308   4.423 -0.1581 -0.2706  0.1579
 1615SOL     OW 6231   6.182   5.513   2.152 -0.4594  0.3049 -0.4538
 1615SOL    HW2 6232   6.136   5.589   2.188  0.4420 -0.1605  1.8575
 1615SOL    HW3 6233   6.268   5.547   2.127 -0.3505  0.2122 -0.2053
 1615SOL    MW4 6234   6.187   5.528   2.153 -0.3261  0.2312 -0.1161
 1616SOL     OW 6235   1.607   5.412   4.814 -0.0234  0.1116  0.5425
 1616SOL    HW2 6236   1.634   5.320   4.818  2.4922  0.7771  0.7496
 1616SOL    HW3 6237   1.681   5.461   4.851 -1.2748  2.2316  0.4288
 1616SOL    MW4 6238   1.620   5.406   4.819  0.1434  0.4791  0.5548
 1617SOL     OW 6239   4.819   0.633   2.792 -0.4838  0.1220  0.1976
 1617SOL    HW2 6240   4.906   0.602   2.768 -0.1107 -0.0430  1.6316
 1617SOL    HW3 6241   4.825   0.651   2.886 -2.1764 -0.5644  0.4845
 1617SOL    MW4 6242   4.831   0.631   2.802 -0.6579  0.0097  0.4246
 1618SOL     OW 6243   5.643   1.351   5.015  0.1484 -0.1581 -0.2180
 1618SOL    HW2 6244   5.717   1.411   5.022  0.3858 -0.2287 -1.8234
 1618SOL    HW3 6245   5.660   1.284   5.081  2.0166 -0.6802 -1.1726
 1618SOL    MW4 6246   5.655   1.350   5.025  0.4262 -0.2363 -0.5557
 1619SOL     OW 6247   3.091   6.317   2.482 -0.0194 -0.1345 -0.1523
 1619SOL    HW2 6248   3.114   6.345   2.571  0.7039  0.8352 -0.6202
 1619SOL    HW3 6249   3.118   6.225   2.478  0.9588  0.1160  0.3004
 1619SOL    MW4 6250   3.097   6.309   2.493  0.2051  0.0265 -0.1543
 1620SOL     OW 6251   6.016   5.117   3.631 -0.3463  0.7949 -0.6166
 1620SOL    HW2 6252   5.921   5.109   3.624 -0.3003 -0.8353  0.3018
 1620SOL    HW3 6253   6.049   5.029   3.616  0.9599  1.1392  0.1218
 1620SOL    MW4 6254   6.008   5.105   3.628 -0.1679  0.6252 -0.3980
 1621SOL     OW 6255   5.434   4.455   1.006 -0.1266 -0.0529  0.2864
 1621SOL    HW2 6256   5.452   4.362   0.988 -0.0902 -0.0727  0.4223
 1621SOL    HW3 6257   5.422   4.494   0.920  1.3511  0.1225  0.1395
 1621SOL    MW4 6258   5.435   4.448   0.992  0.0731 -0.0324  0.2850
 1622SOL     OW 6259   2.554   6.242   5.795 -0.2519  0.5393  0.3144
 1622SOL    HW2 6260   2.583   6.162   5.840 -0.2750  0.9194  1.0167
 1622SOL    HW3 6261   2.635   6.286   5.772 -0.2131 -0.1902 -1.0220
 1622SOL    MW4 6262   2.569   6.237   5.798 -0.2498  0.4932  0.2307
 1623SOL     OW 6263   1.639   3.291   0.521 -0.5934 -0.1472  0.4050
 1623SOL    HW2 6264   1.732   3.289   0.501 -0.5001  1.2089  0.5963
 1623SOL    HW3 6265   1.620   3.205   0.558  0.7136 -0.2432  0.9104
 1623SOL    MW4 6266   1.649   3.280   0.523 -0.4086  0.0190  0.4969
 1624SOL     OW 6267   1.387   2.588   2.760  0.6371  0.8309  0.4102
 1624SOL    HW2 6268   1.305   2.638   2.762  0.3972  0.5091 -0.5325
 1624SOL    HW3 6269   1.434   2.616   2.838 -0.3226  1.1049  0.9102
 1624SOL    MW4 6270   1.382   2.598   2.770  0.4788  0.8246  0.3518
 1625SOL     OW 6271   4.346   1.405   1.502 -0.0769 -0.1832 -0.7723
 1625SOL    HW2 6272   4.293   1.482   1.483 -1.4823 -0.8111  0.3706
 1625SOL    HW3 6273   4.282   1.338   1.528  1.1771 -1.4432 -0.8069
 1625SOL    MW4 6274   4.331   1.406   1.503 -0.0969 -0.4323 -0.6260
 1626SOL     OW 6275   0.297   5.618   6.374  0.5891  0.0319  0.3071
 1626SOL    HW2 6276   0.212   5.662   6.371  0.3887 -0.0234  2.7463
 1626SOL    HW3 6277   0.318   5.599   6.283 -1.3760  1.2521 -0.4614
 1626SOL    MW4 6278   0.288   5.621   6.362  0.3034  0.1856  0.5275
 1627SOL     OW 6279   5.489   1.614   4.656 -0.4069 -0.1626  0.3704
 1627SOL    HW2 6280   5.468   1.698   4.698  0.5170  1.3829 -2.0119
 1627SOL    HW3 6281   5.426   1.608   4.584 -0.3703 -1.4773  0.4277
 1627SOL    MW4 6282   5.478   1.624   4.652 -0.2802 -0.1322  0.0637
 1628SOL     OW 6283   1.437   5.895   0.374 -0.5488  0.7796 -0.6133
 1628SOL    HW2 6284   1.492   5.832   0.328  0.8564  2.1148 -0.8319
 1628SOL    HW3 6285   1.453   5.877   0.467 -3.0439 -1.6145 -0.5136
 1628SOL    MW4 6286   1.446   5.885   0.381 -0.6926  0.6399 -0.6290
 1629SOL     OW 6287   5.492   3.906   1.270 -0.0237 -0.6471 -0.2700
 1629SOL    HW2 6288   5.510   3.852   1.193  2.2301  0.4406 -0.5917
 1629SOL    HW3 6289   5.495   3.844   1.343  3.3471 -0.9938 -0.5340
 1629SOL    MW4 6290   5.495   3.891   1.269  0.7184 -0.5494 -0.3473
 1630SOL     OW 6291   3.235   1.074   6.334 -0.0488 -0.4799  0.0956
 1630SOL    HW2 6292   3.218   1.045   6.424  1.5059  0.7896  0.8337
 1630SOL    HW3 6293   3.173   1.145   6.319 -0.3736 -0.7563  0.1235
 1630SOL    MW4 6294   3.225   1.079   6.344  0.1134 -0.3488  0.1967
 1631SOL     OW 6295   4.522   0.017   3.968 -0.7337  0.0205 -0.5213
 1631SOL    HW2 6296   4.617   0.026   3.964 -0.8176  1.8692  0.5653
 1631SOL    HW3 6297   4.503  -0.000   4.060 -1.4599 -0.5310 -0.7595
 1631SOL    MW4 6298   4.532   0.016   3.980 -0.8406  0.1917 -0.4094
 1632SOL     OW 6299   5.774   2.371   0.263 -0.1338 -0.1566  0.2710
 1632SOL    HW2 6300   5.727   2.338   0.186  2.4410  0.1057 -1.5599
 1632SOL    HW3 6301   5.733   2.455   0.282 -0.1425  0.3134 -1.5860
 1632SOL    MW4 6302   5.763   2.377   0.255  0.2048 -0.0600 -0.2156
 1633SOL     OW 6303   1.283   3.029   3.576  0.0382 -0.6342  0.1037
 1633SOL    HW2 6304   1.278   3.113   3.622  0.8787 -0.4951 -0.0404
 1633SOL    HW3 6305   1.283   2.963   3.645  2.4186 -0.3876  0.4262
 1633SOL    MW4 6306   1.283   3.031   3.591  0.4631 -0.5833  0.1272
 1634SOL     OW 6307   3.739   0.709   3.696  0.1357  0.6164  0.0247
 1634SOL    HW2 6308   3.738   0.683   3.788  1.8183 -0.1362 -0.1435
 1634SOL    HW3 6309   3.768   0.800   3.697  2.2266  0.0031  0.1652
 1634SOL    MW4 6310   3.743   0.718   3.708  0.6335  0.4362  0.0211
 1635SOL     OW 6311   5.470   4.990   4.804  0.1693  0.0354 -0.2110
 1635SOL    HW2 6312   5.425   5.055   4.751 -1.0340  0.1954  0.9569
 1635SOL    HW3 6313   5.558   4.986   4.767  0.0591  1.8026 -0.7624
 1635SOL    MW4 6314   5.476   4.998   4.792 -0.0040  0.2896 -0.1297
 1636SOL     OW 6315   4.829   4.396   0.084  0.4738  0.1973  1.3702
 1636SOL    HW2 6316   4.885   4.449   0.026 -3.3810 -0.5559 -3.7491
 1636SOL    HW3 6317   4.783   4.460   0.137  0.8524  1.4317  0.2842
 1636SOL    MW4 6318   4.831   4.411   0.083  0.0152  0.2608  0.5515
 1637SOL     OW 6319   1.193   0.405   5.191 -0.0498 -0.5283  0.2803
 1637SOL    HW2 6320   1.167   0.393   5.283 -1.3544  1.2445  0.2082
 1637SOL    HW3 6321   1.218   0.497   5.186 -0.3393 -0.5097 -1.2284
 1637SOL    MW4 6322   1.193   0.416   5.203 -0.2601 -0.2920  0.0718
 1638SOL     OW 6323   1.027   2.714   2.481 -0.3910 -0.0091  0.0736
 1638SOL    HW2 6324   0.995   2.647   2.542 -0.3140 -0.7204 -0.6538
 1638SOL    HW3 6325   0.951   2.738   2.428  0.2265 -1.7829 -1.7320
 1638SOL    MW4 6326   1.013   2.709   2.482 -0.2994 -0.3370 -0.2606
 1639SOL     OW 6327   2.465   4.552   4.168 -0.1939 -0.6060 -0.2199
 1639SOL    HW2 6328   2.515   4.579   4.091 -1.1558  0.4245 -0.5237
 1639SOL    HW3 6329   2.376   4.540   4.135 -0.3320 -1.5478  0.4662
 1639SOL    MW4 6330   2.460   4.554   4.154 -0.3391 -0.5943 -0.1695
 1640SOL     OW 6331   0.978   4.944   5.175  0.1097 -0.1146 -0.3255
 1640SOL    HW2 6332   0.954   4.860   5.137 -0.3532 -1.8339  3.3531
 1640SOL    HW3 6333   1.067   4.960   5.144  1.1886 -3.3074  0.7596
 1640SOL    MW4 6334   0.987   4.935   5.166  0.1910 -0.7627  0.3030
 1641SOL     OW 6335   5.589   4.058   2.108  0.3005  0.2334  0.5970
 1641SOL    HW2 6336   5.670   4.027   2.068  1.1694  0.9772  1.7147
 1641SOL    HW3 6337   5.590   4.153   2.095 -0.7658  0.1755 -0.0187
 1641SOL    MW4 6338   5.600   4.067   2.101  0.2745  0.3239  0.6632
 1642SOL     OW 6339   0.731   2.368   0.435  0.1323 -0.3575  0.2183
 1642SOL    HW2 6340   0.744   2.289   0.488  0.6385 -0.3982  0.0369
 1642SOL    HW3 6341   0.642   2.359   0.401 -0.0891 -0.4808  0.8110
 1642SOL    MW4 6342   0.721   2.356   0.438  0.1698 -0.3791  0.2726
 1643SOL     OW 6343   0.100   3.371   0.372  0.5409 -0.3726 -0.1967
 1643SOL    HW2 6344   0.154   3.297   0.401  0.7830  0.0230  0.3932
 1643SOL    HW3 6345   0.027   3.372   0.434 -0.1484 -0.8884 -0.9750
 1643SOL    MW4 6346   0.098   3.361   0.384  0.4819 -0.3885 -0.2216
 1644SOL     OW 6347   1.368   4.869   1.449 -0.1166 -0.0398  0.2956
 1644SOL    HW2 6348   1.363   4.780   1.415  0.7712  0.1372 -0.3337
 1644SOL    HW3 6349   1.461   4.881   1.470 -0.2745  0.6418  0.6379
 1644SOL    MW4 6350   1.380   4.859   1.448 -0.0203  0.0735  0.2577
 1645SOL     OW 6351   0.319   5.932   3.050  0.0838  0.0150 -0.1459
 1645SOL    HW2 6352   0.245   5.923   3.110 -1.0260  0.9357 -1.3322
 1645SOL    HW3 6353   0.386   5.874   3.087  0.3819  2.2433  3.2989
 1645SOL    MW4 6354   0.318   5.923   3.063 -0.0233  0.4305  0.1521
 1646SOL     OW 6355   2.316   0.380   2.080  0.3594 -0.1493  0.3066
 1646SOL    HW2 6356   2.401   0.336   2.075  0.3309 -0.1797  0.0670
 1646SOL    HW3 6357   2.270   0.335   2.151  0.4260 -0.3420  0.2296
 1646SOL    MW4 6358   2.321   0.368   2.089  0.3645 -0.1787  0.2648
 1647SOL     OW 6359   6.425   4.617   6.245  0.2487  0.2953  0.0303
 1647SOL    HW2 6360   6.458   4.619   6.335 -1.2330  1.6833  0.5970
 1647SOL    HW3 6361   6.345   4.566   6.250 -0.0693  0.7438 -0.4143
 1647SOL    MW4 6362   6.419   4.611   6.258  0.0112  0.5376  0.0464
 1648SOL     OW 6363   3.690   0.715   4.245  0.4675 -0.7280 -0.1954
 1648SOL    HW2 6364   3.704   0.714   4.150 -3.0589  0.7177 -0.8993
 1648SOL    HW3 6365   3.757   0.775   4.278  2.0168 -1.5469 -1.6508
 1648SOL    MW4 6366   3.701   0.722   4.237  0.2066 -0.6453 -0.4803
 1649SOL     OW 6367   0.128   6.319   3.219  0.4941  0.1891 -0.2091
 1649SOL    HW2 6368   0.191   6.363   3.277 -0.5965  0.2572  0.9854
 1649SOL    HW3 6369   0.162   6.333   3.131  1.1501  1.8828  0.2635
 1649SOL    MW4 6370   0.141   6.327   3.215  0.4368  0.4215  0.0109
 1650SOL     OW 6371   1.940   3.620   1.233 -0.5158  0.5339 -0.2322
 1650SOL    HW2 6372   2.022   3.577   1.208  0.0885  0.8646  1.0968
 1650SOL    HW3 6373   1.943   3.705   1.190 -0.2356  0.4817 -0.3162
 1650SOL    MW4 6374   1.951   3.625   1.224 -0.3991  0.5707 -0.0679
 1651SOL     OW 6375   3.325   2.681   6.122 -0.0347  0.2756 -0.5242
 1651SOL    HW2 6376   3.302   2.652   6.033  1.7370  0.6919 -1.1653
 1651SOL    HW3 6377   3.264   2.634   6.179 -1.2005 -0.0232 -1.9493
 1651SOL    MW4 6378   3.314   2.671   6.117  0.0452  0.2911 -0.7968
 1652SOL     OW 6379   5.806   5.287   2.101 -0.2478  0.1732 -0.0639
 1652SOL    HW2 6380   5.775   5.324   2.184 -0.5300  1.2714 -0.6512
 1652SOL    HW3 6381   5.797   5.192   2.113 -1.2632  0.3609  0.7757
 1652SOL    MW4 6382   5.801   5.279   2.114 -0.4190  0.3429 -0.0306
 1653SOL     OW 6383   4.186   2.876   6.405 -0.0430 -0.1922  0.7402
 1653SOL    HW2 6384   4.225   2.959   6.379  1.7753 -0.4075  2.4836
 1653SOL    HW3 6385   4.261   2.821   6.428 -1.2214 -2.1727  0.0761
 1653SOL    MW4 6386   4.201   2.880   6.405  0.0414 -0.4819  0.8826
 1654SOL     OW 6387   5.735   0.456   4.408  0.6200 -0.3508 -0.0212
 1654SOL    HW2 6388   5.642   0.469   4.388  0.5882  0.0700  0.3587
 1654SOL    HW3 6389   5.759   0.534   4.460  1.3767 -0.0834 -0.7517
 1654SOL    MW4 6390   5.726   0.468   4.412  0.7156 -0.2600 -0.0674
 1655SOL     OW 6391   5.065   0.503   2.797 -0.2725 -0.6361 -0.3010
 1655SOL    HW2 6392   5.115   0.485   2.718 -1.0743 -0.7714 -0.7886
 1655SOL    HW3 6393   5.060   0.419   2.842  0.3627 -0.5165  0.0192
 1655SOL    MW4 6394   5.071   0.490   2.793 -0.2945 -0.6382 -0.3231
 1656SOL     OW 6395   5.450   1.795   0.570  0.2849  0.5659 -0.2529
 1656SOL    HW2 6396   5.481   1.876   0.530 -1.1006  0.5069 -1.5392
 1656SOL    HW3 6397   5.488   1.795   0.658  0.3030  2.5884 -0.2302
 1656SOL    MW4 6398   5.459   1.805   0.576  0.1045  0.8249 -0.4196
 1657SOL     OW 6399   3.407   4.215   5.795 -0.0047 -0.1156  1.0386
 1657SOL    HW2 6400   3.463   4.142   5.820  0.5323 -0.4146 -0.9087
 1657SOL    HW3 6401   3.467   4.290   5.789 -0.1962  0.0401  1.0712
 1657SOL    MW4 6402   3.422   4.216   5.797  0.0409 -0.1345  0.7860
 1658SOL     OW 6403   3.321   2.893   4.551  0.0122  0.1675  0.1194
 1658SOL    HW2 6404   3.312   2.866   4.460 -0.3518 -1.1714  0.5209
 1658SOL    HW3 6405   3.278   2.823   4.601  1.3173  0.2154  1.3882
 1658SOL    MW4 6406   3.314   2.880   4.546  0.1364 -0.0028  0.3398
 1659SOL     OW 6407   4.899   5.762   4.092  0.0743 -0.9116  0.1626
 1659SOL    HW2 6408   4.805   5.779   4.084  0.4435  1.8236  0.4296
 1659SOL    HW3 6409   4.930   5.758   4.002  0.3180  3.2546 -0.1528
 1659SOL    MW4 6410   4.890   5.764   4.079  0.1552 -0.0010  0.1563
 1660SOL     OW 6411   6.066   3.869   1.731  0.2976  0.2671  0.1548
 1660SOL    HW2 6412   6.089   3.961   1.742  1.7830 -0.1756  0.9488
 1660SOL    HW3 6413   6.023   3.845   1.814  0.4495  0.1017  0.1872
 1660SOL    MW4 6414   6.063   3.878   1.744  0.5136  0.1869  0.2638
 1661SOL     OW 6415   1.387   3.421   4.521  0.9798 -0.4022 -0.0093
 1661SOL    HW2 6416   1.470   3.444   4.479  0.8479  1.5630  0.6886
 1661SOL    HW3 6417   1.345   3.506   4.540 -2.0245 -1.3083 -1.8993
 1661SOL    MW4 6418   1.392   3.435   4.518  0.5660 -0.2625 -0.1666
 1662SOL     OW 6419   3.850   0.110   4.912  0.5460  0.5261  0.6187
 1662SOL    HW2 6420   3.918   0.046   4.891 -0.7537 -1.4676  2.0829
 1662SOL    HW3 6421   3.787   0.103   4.840  0.1438 -0.2681  1.0376
 1662SOL    MW4 6422   3.850   0.101   4.900  0.3215  0.1583  0.8671
 1663SOL     OW 6423   1.855   2.391   5.313 -0.3589 -0.5096  0.3639
 1663SOL    HW2 6424   1.880   2.481   5.332 -0.1253 -0.4995  0.0236
 1663SOL    HW3 6425   1.937   2.342   5.317 -0.2939 -0.4938 -0.6625
 1663SOL    MW4 6426   1.869   2.396   5.316 -0.3195 -0.5062  0.1836
 1664SOL     OW 6427   6.156   5.289   2.340 -0.3335  0.0838  0.1551
 1664SOL    HW2 6428   6.148   5.206   2.293 -0.1108  0.1454  0.0057
 1664SOL    HW3 6429   6.158   5.355   2.271  0.6871  0.1235  0.2158
 1664SOL    MW4 6430   6.155   5.287   2.325 -0.1695  0.0972  0.1434
 1665SOL     OW 6431   1.606   1.635   3.972 -0.1623  0.5056 -0.4811
 1665SOL    HW2 6432   1.527   1.618   3.921 -1.3028  1.8590  0.7614
 1665SOL    HW3 6433   1.583   1.611   4.061  0.5925  1.5473  0.0207
 1665SOL    MW4 6434   1.593   1.629   3.977 -0.2132  0.8216 -0.2510
 1666SOL     OW 6435   4.544   5.622   2.373  0.3660 -0.1165 -0.5018
 1666SOL    HW2 6436   4.477   5.583   2.429 -1.1065  0.7902 -1.5643
 1666SOL    HW3 6437   4.522   5.593   2.285  1.2486  0.3662 -0.8976
 1666SOL    MW4 6438   4.533   5.613   2.369  0.2882  0.0668 -0.6942
 1667SOL     OW 6439   3.533   4.449   6.287 -0.5217  0.1724  0.1852
 1667SOL    HW2 6440   3.618   4.436   6.244  0.3263  0.3662  1.7271
 1667SOL    HW3 6441   3.532   4.541   6.311 -0.6880 -0.0561  1.1155
 1667SOL    MW4 6442   3.544   4.459   6.285 -0.4318  0.1678  0.5113
 1668SOL     OW 6443   4.407   1.259   0.219 -0.6495 -0.0406 -0.0624
 1668SOL    HW2 6444   4.434   1.168   0.236  0.0017 -0.1947 -1.7285
 1668SOL    HW3 6445   4.364   1.287   0.300 -0.8177 -1.8158  0.5050
 1668SOL    MW4 6446   4.405   1.250   0.232 -0.5858 -0.2951 -0.2074
 1669SOL     OW 6447   0.797   6.113   4.105  0.6624  0.0282  0.2674
 1669SOL    HW2 6448   0.837   6.157   4.030 -0.8838 -1.1323 -1.3116
 1669SOL    HW3 6449   0.720   6.068   4.069 -1.9774  1.9022  3.0656
 1669SOL    MW4 6450   0.792   6.113   4.090  0.1101  0.1223  0.4283
 1670SOL     OW 6451   6.173   4.134   1.431 -0.2689  0.3989 -0.0121
 1670SOL    HW2 6452   6.129   4.135   1.516  0.6983 -2.9141  0.6587
 1670SOL    HW3 6453   6.222   4.217   1.429 -0.2561  0.5503  2.7132
 1670SOL    MW4 6454   6.174   4.145   1.442 -0.1396 -0.0182  0.4360
 1671SOL     OW 6455   3.150   1.853   4.111 -0.0422 -0.1490  0.1250
 1671SOL    HW2 6456   3.171   1.763   4.134  0.5735  0.0250  0.2664
 1671SOL    HW3 6457   3.065   1.848   4.067 -0.9437 -0.5759  1.8107
 1671SOL    MW4 6458   3.141   1.841   4.109 -0.0799 -0.1824  0.3661
 1672SOL     OW 6459   0.213   4.469   5.031  0.1983 -0.4702  0.2331
 1672SOL    HW2 6460   0.119   4.489   5.034 -0.0227 -0.7091 -2.4622
 1672SOL    HW3 6461   0.221   4.385   5.075 -1.0279 -0.9178 -0.3493
 1672SOL    MW4 6462   0.202   4.461   5.037  0.0074 -0.5607 -0.1993
 1673SOL     OW 6463   3.258   0.836   0.541  0.2308 -0.0934  0.1919
 1673SOL    HW2 6464   3.271   0.907   0.478 -0.2390 -0.9908 -0.9654
 1673SOL    HW3 6465   3.163   0.828   0.549  0.2242 -1.6209 -0.9566
 1673SOL    MW4 6466   3.247   0.845   0.533  0.1680 -0.4134 -0.1123
 1674SOL     OW 6467   3.973   5.907   0.412  0.5450  0.2826 -0.0492
 1674SOL    HW2 6468   4.051   5.860   0.381  0.1864  0.4309 -1.2175
 1674SOL    HW3 6469   3.906   5.889   0.346 -0.0544  1.1587  0.3014
 1674SOL    MW4 6470   3.975   5.898   0.399  0.4186  0.4177 -0.1571
 1675SOL     OW 6471   2.507   0.053   3.194  0.1365  0.1761  0.1246
 1675SOL    HW2 6472   2.562   0.129   3.175  0.8754 -0.1324  0.9544
 1675SOL    HW3 6473   2.419   0.089   3.205  0.7315  1.1700  2.1188
 1675SOL    MW4 6474   2.503   0.067   3.193  0.3125  0.2666  0.4972
 1676SOL     OW 6475   2.314   1.928   1.146  0.1706  0.0953 -0.1749
 1676SOL    HW2 6476   2.239   1.872   1.166 -0.8568  1.5815  0.2501
 1676SOL    HW3 6477   2.297   2.010   1.192  1.2857  1.0347 -1.3398
 1676SOL    MW4 6478   2.302   1.931   1.155  0.1821  0.4153 -0.2725
 1677SOL     OW 6479   5.346   3.302   3.557 -0.6825 -0.3734  0.0917
 1677SOL    HW2 6480   5.253   3.293   3.539 -0.6623  0.4553 -0.5066
 1677SOL    HW3 6481   5.362   3.244   3.632 -1.7592 -0.1796  0.4912
 1677SOL    MW4 6482   5.336   3.293   3.564 -0.8219 -0.2385  0.0655
 1678SOL     OW 6483   3.603   0.397   3.652  0.4691  0.5447  0.1537
 1678SOL    HW2 6484   3.522   0.432   3.615  0.4357  0.2356 -0.0798
 1678SOL    HW3 6485   3.592   0.406   3.747  0.0794  0.3314  0.1333
 1678SOL    MW4 6486   3.591   0.403   3.659  0.4132  0.4758  0.1202
 1679SOL     OW 6487   2.771   1.683   6.186  0.2797 -0.0821 -0.0729
 1679SOL    HW2 6488   2.795   1.776   6.180  1.6880 -0.4191 -0.2004
 1679SOL    HW3 6489   2.847   1.641   6.227 -0.2431 -1.2096 -0.2075
 1679SOL    MW4 6490   2.784   1.690   6.190  0.3965 -0.2753 -0.1075
 1680SOL     OW 6491   4.293   3.419   2.301  0.0043 -0.6153  0.1482
 1680SOL    HW2 6492   4.270   3.370   2.379  0.0502 -1.7312 -0.5222
 1680SOL    HW3 6493   4.214   3.418   2.247 -0.4127  1.1485  0.6496
 1680SOL    MW4 6494   4.280   3.413   2.304 -0.0446 -0.5298  0.1259
 1681SOL     OW 6495   1.806   3.855   2.167  0.4650 -0.6699  0.2929
 1681SOL    HW2 6496   1.746   3.920   2.129  1.0194 -0.8667 -0.9592
 1681SOL    HW3 6497   1.817   3.884   2.258 -1.9519 -0.9270  0.7472
 1681SOL    MW4 6498   1.799   3.868   2.174  0.2193 -0.7298  0.1876
 1682SOL     OW 6499   1.062   0.250   2.529 -0.1284  0.1630 -0.8379
 1682SOL    HW2 6500   1.127   0.320   2.528  0.2880 -0.2365 -1.5408
 1682SOL    HW3 6501   1.055   0.221   2.438  1.3342 -2.2258 -0.2596
 1682SOL    MW4 6502   1.069   0.255   2.517  0.1196 -0.2049 -0.8544
 1683SOL     OW 6503   5.128   1.058   1.767 -0.4038 -0.7865  0.6765
 1683SOL    HW2 6504   5.161   1.126   1.708  0.8315 -0.8007  1.3122
 1683SOL    HW3 6505   5.125   0.979   1.714 -0.1716 -0.6115  0.4020
 1683SOL    MW4 6506   5.132   1.057   1.752 -0.2102 -0.7653  0.7242
 1684SOL     OW 6507   0.769   5.192   5.492  0.0829  0.1668 -0.3354
 1684SOL    HW2 6508   0.700   5.172   5.555  1.3599 -1.7427  0.5475
 1684SOL    HW3 6509   0.820   5.262   5.534 -0.3021  0.3783 -0.2135
 1684SOL    MW4 6510   0.766   5.199   5.506  0.2006 -0.0572 -0.2028
 1685SOL     OW 6511   3.954   1.358   1.126 -0.1648 -0.5692 -0.0393
 1685SOL    HW2 6512   3.952   1.264   1.108 -1.5491 -0.6607  0.4733
 1685SOL    HW3 6513   3.862   1.385   1.125  0.1737  0.6824  0.3616
 1685SOL    MW4 6514   3.942   1.349   1.123 -0.3028 -0.4161  0.0812
 1686SOL     OW 6515   4.577   2.671   1.288 -0.2465  0.0832  0.3114
 1686SOL    HW2 6516   4.634   2.747   1.299  0.0022 -0.1794  0.8953
 1686SOL    HW3 6517   4.584   2.649   1.195 -0.2642  0.7267  0.1558
 1686SOL    MW4 6518   4.585   2.678   1.277 -0.2160  0.1334  0.3679
 1687SOL     OW 6519   3.375   3.205   2.670 -0.0125 -0.4416 -0.2060
 1687SOL    HW2 6520   3.439   3.246   2.728  0.8442 -1.3085 -0.5187
 1687SOL    HW3 6521   3.375   3.113   2.696  0.2423 -0.8020 -1.4450
 1687SOL    MW4 6522   3.384   3.198   2.681  0.1342 -0.6035 -0.4107
 1688SOL     OW 6523   0.947   1.923   2.401 -0.4732 -0.0846 -0.4513
 1688SOL    HW2 6524   0.999   1.900   2.324  2.3952  2.1753  0.6446
 1688SOL    HW3 6525   0.907   2.007   2.378 -0.2878  0.1916  0.2299
 1688SOL    MW4 6526   0.949   1.931   2.388 -0.0703  0.2500 -0.2168
 1689SOL     OW 6527   6.178   0.936   2.530 -0.3866 -0.4641 -0.2995
 1689SOL    HW2 6528   6.262   0.904   2.498 -0.7545 -1.9033  0.0807
 1689SOL    HW3 6529   6.121   0.935   2.453 -0.0371  0.5971 -0.5754
 1689SOL    MW4 6530   6.181   0.931   2.516 -0.3890 -0.5140 -0.2857
 1690SOL     OW 6531   1.316   3.966   4.155  0.0768  0.8592 -0.2187
 1690SOL    HW2 6532   1.382   3.916   4.107  3.3578  3.5904  0.9714
 1690SOL    HW3 6533   1.293   4.038   4.096 -1.8416  0.0470 -0.5390
 1690SOL    MW4 6534   1.322   3.969   4.141  0.2565  1.1124 -0.1039
 1691SOL     OW 6535   6.207   5.030   4.209 -0.1722 -0.0428 -0.5958
 1691SOL    HW2 6536   6.218   5.083   4.288  1.9670  1.4743 -1.8071
 1691SOL    HW3 6537   6.221   5.092   4.137 -1.7760 -1.4266 -2.2055
 1691SOL    MW4 6538   6.210   5.045   4.210 -0.1016 -0.0252 -0.9680
 1692SOL     OW 6539   2.406   0.674   1.106 -0.2268  0.6014 -0.5723
 1692SOL    HW2 6540   2.491   0.636   1.088  0.1292  1.4164 -0.6530
 1692SOL    HW3 6541   2.344   0.603   1.092  0.3790  0.1859 -1.1761
 1692SOL    MW4 6542   2.409   0.660   1.102 -0.0999  0.6541 -0.6626
 1693SOL     OW 6543   1.913   2.622   4.731  0.2648  0.6144 -0.2065
 1693SOL    HW2 6544   2.006   2.609   4.753  0.3885 -0.4811 -1.2095
 1693SOL    HW3 6545   1.876   2.534   4.734 -0.4594  0.8797 -0.9696
 1693SOL    MW4 6546   1.921   2.608   4.734  0.1855  0.5049 -0.4395
 1694SOL     OW 6547   4.351   6.187   4.216 -0.5335 -0.1666 -0.1914
 1694SOL    HW2 6548   4.313   6.118   4.271 -0.2906 -0.3043 -0.1901
 1694SOL    HW3 6549   4.408   6.140   4.155 -1.3515 -0.0777 -1.0411
 1694SOL    MW4 6550   4.354   6.172   4.215 -0.6094 -0.1730 -0.3034
 1695SOL     OW 6551   4.552   1.962   3.539  0.0220  0.4289  0.0817
 1695SOL    HW2 6552   4.525   2.045   3.498  0.9026  0.4137 -0.5604
 1695SOL    HW3 6553   4.647   1.961   3.529 -0.0222 -0.8511 -0.2654
 1695SOL    MW4 6554   4.561   1.973   3.532  0.1324  0.2580 -0.0488
 1696SOL     OW 6555   0.415   3.561   1.652  0.1606  0.0280 -0.1261
 1696SOL    HW2 6556   0.509   3.577   1.645  0.2143 -0.5410 -0.7835
 1696SOL    HW3 6557   0.377   3.609   1.579 -0.1840  1.1273  0.7422
 1696SOL    MW4 6558   0.422   3.569   1.642  0.1223  0.0980 -0.0983
 1697SOL     OW 6559   3.700   3.761   4.178  0.0358 -0.2862 -0.0714
 1697SOL    HW2 6560   3.782   3.768   4.129 -0.7599 -1.2583 -1.5953
 1697SOL    HW3 6561   3.678   3.668   4.175 -1.6478  0.0989 -0.6061
 1697SOL    MW4 6562   3.708   3.750   4.171 -0.2913 -0.3636 -0.3430
 1698SOL     OW 6563   3.355   0.435   0.761  0.1737 -0.4693 -0.0522
 1698SOL    HW2 6564   3.419   0.363   0.758 -0.7035 -1.2785  0.1668
 1698SOL    HW3 6565   3.315   0.435   0.674 -0.3818 -0.7804  0.1944
 1698SOL    MW4 6566   3.358   0.425   0.749 -0.0153 -0.6171  0.0092
 1699SOL     OW 6567   5.349   5.868   0.573 -0.1395 -0.5695  0.3721
 1699SOL    HW2 6568   5.318   5.788   0.530 -2.3123  0.5875 -0.3914
 1699SOL    HW3 6569   5.318   5.939   0.516  1.3265  0.8389  1.2575
 1699SOL    MW4 6570   5.341   5.867   0.559 -0.2328 -0.2311  0.3882
 1700SOL     OW 6571   1.373   0.317   3.580  0.3880  0.0559  0.1406
 1700SOL    HW2 6572   1.444   0.254   3.570  0.3549 -0.0602  0.6444
 1700SOL    HW3 6573   1.360   0.351   3.491 -0.5070 -1.6247 -0.4153
 1700SOL    MW4 6574   1.381   0.314   3.567  0.2655 -0.1812  0.1337
 1701SOL     OW 6575   0.327   6.008   6.397  0.0293 -0.4185  0.0622
 1701SOL    HW2 6576   0.357   5.982   6.484 -0.8539 -0.0932  0.4699
 1701SOL    HW3 6577   0.392   6.072   6.367  0.2294 -0.3829  0.5616
 1701SOL    MW4 6578   0.339   6.013   6.404 -0.0608 -0.3709  0.1819
 1702SOL     OW 6579   4.722   2.914   1.268 -0.4001 -0.6842 -0.4050
 1702SOL    HW2 6580   4.787   2.984   1.276 -1.2128  0.0132  0.3042
 1702SOL    HW3 6581   4.649   2.954   1.222 -1.1883 -0.8229  0.6951
 1702SOL    MW4 6582   4.721   2.928   1.263 -0.6113 -0.6105 -0.1663
 1703SOL     OW 6583   5.549   2.506   6.397 -0.2920  0.3149 -0.1347
 1703SOL    HW2 6584   5.542   2.413   6.376 -1.2767  0.4267 -0.3307
 1703SOL    HW3 6585   5.503   2.550   6.326  1.0144  1.0236 -0.5744
 1703SOL    MW4 6586   5.542   2.499   6.385 -0.2495  0.4231 -0.2186
 1704SOL     OW 6587   4.867   0.141   0.746 -0.0506 -0.4420  0.2078
 1704SOL    HW2 6588   4.822   0.076   0.800  1.4173 -0.9826  0.8385
 1704SOL    HW3 6589   4.824   0.224   0.767 -1.5990 -1.1016 -0.2094
 1704SOL    MW4 6590   4.855   0.143   0.756 -0.0612 -0.6004  0.2360
 1705SOL     OW 6591   4.945   0.199   2.602  0.0662  0.6219 -0.0275
 1705SOL    HW2 6592   4.975   0.116   2.565  0.9959  1.0518 -0.2832
 1705SOL    HW3 6593   4.938   0.258   2.527 -1.1006  0.6418  0.0798
 1705SOL    MW4 6594   4.948   0.196   2.587  0.0349  0.6812 -0.0471
 1706SOL     OW 6595   5.003   2.314   5.980 -0.1455  0.4358  0.3316
 1706SOL    HW2 6596   5.037   2.396   6.017 -0.8929 -0.3239  2.9250
 1706SOL    HW3 6597   4.910   2.315   6.002  0.3761 -2.5057  3.4608
 1706SOL    MW4 6598   4.995   2.325   5.988 -0.1753 -0.0526  1.0867
 1707SOL     OW 6599   4.931   4.665   3.842 -0.2284 -0.2798  0.2083
 1707SOL    HW2 6600   5.024   4.645   3.832 -0.1742  0.8546 -2.4580
 1707SOL    HW3 6601   4.917   4.670   3.937  3.4762  3.8251  0.8906
 1707SOL    MW4 6602   4.942   4.663   3.853  0.2675  0.4115 -0.0535
 1708SOL     OW 6603   6.166   3.222   3.275  0.0317  0.6782  0.1855
 1708SOL    HW2 6604   6.250   3.268   3.268  0.7337 -0.6673 -0.6699
 1708SOL    HW3 6605   6.189   3.130   3.271 -1.5029  0.2771 -0.0222
 1708SOL    MW4 6606   6.180   3.216   3.273 -0.0782  0.4477  0.0452
 1709SOL     OW 6607   4.580   2.808   5.310  0.1937  0.6026  0.4245
 1709SOL    HW2 6608   4.626   2.774   5.233 -1.3900 -0.1927 -0.2116
 1709SOL    HW3 6609   4.529   2.734   5.342 -0.6693  1.4633  1.0797
 1709SOL    MW4 6610   4.579   2.794   5.304 -0.1291  0.6113  0.4270
 1710SOL     OW 6611   2.305   4.080   1.841 -0.0634  0.4284  0.0263
 1710SOL    HW2 6612   2.397   4.108   1.844 -0.1670  1.4592 -2.8811
 1710SOL    HW3 6613   2.307   3.989   1.871  1.8891  0.4463  0.1088
 1710SOL    MW4 6614   2.318   4.072   1.845  0.1806  0.5667 -0.3464
 1711SOL     OW 6615   0.218   4.059   0.793 -0.0065 -0.6415  0.4441
 1711SOL    HW2 6616   0.174   4.084   0.711 -0.2743 -0.6860  0.5703
 1711SOL    HW3 6617   0.183   3.972   0.812 -1.0076 -0.0754  1.3323
 1711SOL    MW4 6618   0.207   4.051   0.785 -0.1739 -0.5727  0.5780
 1712SOL     OW 6619   4.153   1.208   3.933  0.4962 -0.0055  0.0072
 1712SOL    HW2 6620   4.109   1.220   3.849  0.8283  0.2391 -0.1362
 1712SOL    HW3 6621   4.133   1.118   3.958 -0.5808  0.2863  0.2407
 1712SOL    MW4 6622   4.145   1.197   3.925  0.3979  0.0653  0.0191
 1713SOL     OW 6623   2.945   4.208   3.785 -0.3166 -0.2825 -0.1393
 1713SOL    HW2 6624   2.969   4.265   3.712 -0.3223 -0.7247 -0.4931
 1713SOL    HW3 6625   2.917   4.268   3.854  2.7988  0.3917  0.7186
 1713SOL    MW4 6626   2.945   4.224   3.784  0.0937 -0.2519 -0.0728
 1714SOL     OW 6627   0.750   3.314   4.145 -0.4253 -0.6778 -0.1504
 1714SOL    HW2 6628   0.759   3.408   4.160 -0.2763 -0.5712 -0.8805
 1714SOL    HW3 6629   0.662   3.293   4.178 -0.6934 -0.1699 -0.5279
 1714SOL    MW4 6630   0.739   3.324   4.152 -0.4410 -0.5968 -0.2965
 1715SOL     OW 6631   0.192   4.969   3.005 -0.1776  0.3564 -0.2238
 1715SOL    HW2 6632   0.270   4.917   2.987 -0.7611 -0.0173 -1.7802
 1715SOL    HW3 6633   0.146   4.973   2.922 -2.0730  0.1676  0.7658
 1715SOL    MW4 6634   0.196   4.962   2.992 -0.5046  0.2822 -0.2986
 1716SOL     OW 6635   3.025   4.814   2.608  0.1392  0.2466  0.1233
 1716SOL    HW2 6636   2.961   4.831   2.677 -1.0773  0.4633 -1.0157
 1716SOL    HW3 6637   3.036   4.898   2.564  0.3531 -0.0531 -0.4059
 1716SOL    MW4 6638   3.018   4.827   2.611  0.0069  0.2356 -0.0968
 1717SOL     OW 6639   3.863   5.739   6.362  0.0903  0.0430 -0.2887
 1717SOL    HW2 6640   3.845   5.653   6.323  3.6267 -0.0529 -2.1540
 1717SOL    HW3 6641   3.814   5.800   6.307 -1.7783 -0.6439  0.5330
 1717SOL    MW4 6642   3.854   5.735   6.349  0.3104 -0.0603 -0.4264
 1718SOL     OW 6643   3.591   6.077   1.049  0.0740  0.4336  0.4413
 1718SOL    HW2 6644   3.667   6.020   1.062 -0.8172 -0.6425  1.0933
 1718SOL    HW3 6645   3.516   6.023   1.072 -0.8553  1.7053  0.5105
 1718SOL    MW4 6646   3.591   6.063   1.054 -0.1662  0.4594  0.5364
 1719SOL     OW 6647   4.849   3.762   4.859  0.4111  0.1193 -0.6008
 1719SOL    HW2 6648   4.860   3.845   4.811 -0.3443 -0.1698 -1.2993
 1719SOL    HW3 6649   4.936   3.744   4.896  0.7830  0.8149 -1.1050
 1719SOL    MW4 6650   4.862   3.771   4.858  0.3605  0.1729 -0.7595
 1720SOL     OW 6651   3.373   2.680   4.962  0.2616  0.3092  0.5617
 1720SOL    HW2 6652   3.359   2.677   5.057 -1.0827 -0.6178  0.3640
 1720SOL    HW3 6653   3.372   2.589   4.934  0.4131  0.5787 -0.3827
 1720SOL    MW4 6654   3.371   2.668   4.971  0.1043  0.2225  0.4110
 1721SOL     OW 6655   0.913   0.938   1.469 -0.0808 -0.0226 -0.1784
 1721SOL    HW2 6656   0.956   1.023   1.473  1.0393 -0.5798  0.0635
 1721SOL    HW3 6657   0.963   0.888   1.405  0.0834 -0.9137  0.6102
 1721SOL    MW4 6658   0.925   0.943   1.461  0.0886 -0.2137 -0.0424
 1722SOL     OW 6659   4.775   2.938   0.164  0.2664  0.1805 -0.0535
 1722SOL    HW2 6660   4.684   2.966   0.160  0.3196  0.6301  1.2399
 1722SOL    HW3 6661   4.811   2.958   0.078 -1.2448 -1.4800 -1.1446
 1722SOL    MW4 6662   4.768   2.944   0.152  0.0740  0.0208 -0.0268
 1723SOL     OW 6663   3.076   0.278   6.191  0.3562 -0.0549 -0.1403
 1723SOL    HW2 6664   3.013   0.245   6.255 -1.0565  0.2260 -1.3226
 1723SOL    HW3 6665   3.025   0.341   6.138  1.3768 -0.5001 -1.7197
 1723SOL    MW4 6666   3.061   0.282   6.192  0.3045 -0.0766 -0.5046
 1724SOL     OW 6667   0.263   2.430   4.587  0.2726 -0.0260  0.3483
 1724SOL    HW2 6668   0.214   2.510   4.566  2.4263  1.0914 -0.8270
 1724SOL    HW3 6669   0.204   2.359   4.563 -1.2179  1.2152  0.1569
 1724SOL    MW4 6670   0.249   2.432   4.581  0.3601  0.2852  0.1680
 1725SOL     OW 6671   6.155   4.425   3.784 -0.2197  0.3268 -0.3232
 1725SOL    HW2 6672   6.230   4.445   3.727 -0.0229  0.5359  0.0090
 1725SOL    HW3 6673   6.139   4.506   3.832  0.7872 -0.3620  1.2606
 1725SOL    MW4 6674   6.163   4.438   3.782 -0.0608  0.2635 -0.0704
 1726SOL     OW 6675   3.291   1.809   4.768 -0.1360 -0.1491  0.6098
 1726SOL    HW2 6676   3.360   1.790   4.831 -0.5617  1.8496  1.7710
 1726SOL    HW3 6677   3.221   1.748   4.791 -0.1687  0.3391  1.9472
 1726SOL    MW4 6678   3.291   1.799   4.780 -0.1965  0.1790  0.9395
 1727SOL     OW 6679   1.838   6.339   3.771  0.2779 -0.0134  0.2129
 1727SOL    HW2 6680   1.747   6.310   3.775  0.4077 -0.3501  0.8213
 1727SOL    HW3 6681   1.890   6.263   3.797  0.7314  0.1998 -0.0423
 1727SOL    MW4 6682   1.833   6.325   3.775  0.3549 -0.0297  0.2595
 1728SOL     OW 6683   3.477   4.822   4.291 -0.5149  0.4713  0.3085
 1728SOL    HW2 6684   3.511   4.891   4.235  0.4464 -1.0824 -1.0783
 1728SOL    HW3 6685   3.540   4.815   4.362  0.2463 -0.0735 -0.4169
 1728SOL    MW4 6686   3.490   4.830   4.293 -0.2877  0.1944  0.0298
 1729SOL     OW 6687   3.479   0.197   5.412  0.0177 -0.0353  0.4295
 1729SOL    HW2 6688   3.474   0.266   5.477  1.0284  0.8641 -0.4054
 1729SOL    HW3 6689   3.388   0.174   5.394 -0.4018  1.7798  0.0180
 1729SOL    MW4 6690   3.466   0.203   5.418  0.0957  0.3229  0.2651
 1730SOL     OW 6691   5.949   4.206   3.152  0.3128 -0.3587 -0.2485
 1730SOL    HW2 6692   5.938   4.172   3.241  2.0877  0.3905  0.3059
 1730SOL    HW3 6693   5.985   4.132   3.102  1.2336 -0.2313  0.1912
 1730SOL    MW4 6694   5.953   4.192   3.157  0.6685 -0.2431 -0.1173
 1731SOL     OW 6695   1.382   4.007   1.227  0.4480 -0.0354 -0.3283
 1731SOL    HW2 6696   1.422   3.951   1.160  1.9689 -0.2897  0.7476
 1731SOL    HW3 6697   1.431   3.987   1.307  0.3429  2.0746  0.3154
 1731SOL    MW4 6698   1.394   3.997   1.228  0.6348  0.2094 -0.1014
 1732SOL     OW 6699   1.456   1.174   0.346  0.7925  0.4012  0.0467
 1732SOL    HW2 6700   1.398   1.226   0.290 -0.5946  0.4497  1.4567
 1732SOL    HW3 6701   1.429   1.196   0.435  2.4778 -0.1870  0.7391
 1732SOL    MW4 6702   1.445   1.183   0.350  0.8318  0.3300  0.3241
 1733SOL     OW 6703   5.001   5.412   4.857  0.0509 -0.0847  0.3897
 1733SOL    HW2 6704   5.066   5.420   4.787 -0.0866  1.8431  0.4339
 1733SOL    HW3 6705   4.923   5.455   4.822 -0.5726 -0.6156  1.1003
 1733SOL    MW4 6706   4.999   5.418   4.843 -0.0495  0.0996  0.4893
 1734SOL     OW 6707   1.354   0.157   4.180  0.3443 -0.4410  0.4911
 1734SOL    HW2 6708   1.269   0.148   4.223  0.0170  0.1777 -0.0034
 1734SOL    HW3 6709   1.341   0.227   4.116  1.6116  0.6618  1.3870
 1734SOL    MW4 6710   1.341   0.165   4.177  0.4684 -0.2139  0.5440
 1735SOL     OW 6711   0.545   3.275   4.860  0.1524 -0.8124  0.1233
 1735SOL    HW2 6712   0.499   3.191   4.865 -0.9566 -0.1937  0.8450
 1735SOL    HW3 6713   0.523   3.310   4.774 -0.5210 -0.6463  0.3581
 1735SOL    MW4 6714   0.536   3.269   4.849 -0.0828 -0.7089  0.2495
 1736SOL     OW 6715   4.156   6.094   5.494  0.3142 -0.5070 -0.4196
 1736SOL    HW2 6716   4.212   6.132   5.561 -0.5062  0.7482 -0.4276
 1736SOL    HW3 6717   4.164   5.999   5.507  1.1407 -0.3053  0.6252
 1736SOL    MW4 6718   4.165   6.086   5.504  0.3150 -0.3148 -0.2828
 1737SOL     OW 6719   1.336   5.946   2.401  0.1167 -0.1831  0.3064
 1737SOL    HW2 6720   1.341   5.974   2.310 -0.6871 -0.9745  0.0011
 1737SOL    HW3 6721   1.427   5.935   2.429  0.4012  1.0596 -0.0697
 1737SOL    MW4 6722   1.349   5.948   2.393  0.0482 -0.1235  0.2165
 1738SOL     OW 6723   3.264   1.596   5.457  0.0330  0.2432  0.4833
 1738SOL    HW2 6724   3.270   1.600   5.552 -1.2953 -0.5014  0.6174
 1738SOL    HW3 6725   3.235   1.683   5.430  0.5918  0.5104  0.7364
 1738SOL    MW4 6726   3.261   1.608   5.466 -0.0685  0.1802  0.5343
 1739SOL     OW 6727   5.873   4.458   2.838 -0.5488  0.1474  0.3047
 1739SOL    HW2 6728   5.932   4.533   2.831  0.4354 -0.6737 -0.5864
 1739SOL    HW3 6729   5.928   4.386   2.869 -0.9291 -0.7609 -1.0151
 1739SOL    MW4 6730   5.888   4.459   2.841 -0.4691 -0.0808  0.0130
 1740SOL     OW 6731   0.588   4.009   0.124  0.2655 -0.1851  0.0664
 1740SOL    HW2 6732   0.589   4.071   0.196 -0.5085 -0.2864  0.1671
 1740SOL    HW3 6733   0.635   4.053   0.053 -2.3626  1.5526 -0.7149
 1740SOL    MW4 6734   0.595   4.023   0.124 -0.1833  0.0308 -0.0234
 1741SOL     OW 6735   3.234   5.568   1.159  0.4151  0.3322 -0.7995
 1741SOL    HW2 6736   3.237   5.603   1.070  0.2072  2.3292 -0.0715
 1741SOL    HW3 6737   3.325   5.568   1.188  0.7416 -2.1331 -1.6164
 1741SOL    MW4 6738   3.246   5.572   1.151  0.4307  0.2704 -0.8112
 1742SOL     OW 6739   5.185   4.404   3.564  0.1588  0.3279 -0.0278
 1742SOL    HW2 6740   5.113   4.340   3.563 -0.4579  1.0027 -1.2683
 1742SOL    HW3 6741   5.263   4.353   3.540 -0.1770 -0.1153 -0.1995
 1742SOL    MW4 6742   5.186   4.388   3.561  0.0331  0.3584 -0.2142
 1743SOL     OW 6743   1.948   1.396   4.610  0.2847  0.2646 -0.4229
 1743SOL    HW2 6744   1.928   1.366   4.521 -0.0976 -1.5537  0.2283
 1743SOL    HW3 6745   2.023   1.454   4.600 -0.2558  0.7424 -2.0182
 1743SOL    MW4 6746   1.955   1.399   4.597  0.1630  0.0878 -0.5475
 1744SOL     OW 6747   1.681   3.772   5.419  0.2483  0.1468  0.0035
 1744SOL    HW2 6748   1.715   3.765   5.329 -0.1334 -1.0261 -0.0636
 1744SOL    HW3 6749   1.606   3.713   5.421  0.4059 -0.0390  1.1628
 1744SOL    MW4 6750   1.676   3.763   5.407  0.2187 -0.0324  0.1476
 1745SOL     OW 6751   3.030   2.025   3.511  0.3550 -0.0775 -0.0176
 1745SOL    HW2 6752   3.028   1.964   3.437 -1.6200  0.7099 -0.6946
 1745SOL    HW3 6753   3.063   2.107   3.473 -0.3725  0.2422  0.0279
 1745SOL    MW4 6754   3.034   2.028   3.496 -0.0016  0.0685 -0.1010
 1746SOL     OW 6755   1.661   0.083   0.005  0.0972  0.4154 -0.1732
 1746SOL    HW2 6756   1.683   0.026  -0.069 -0.8713  0.4163 -0.4747
 1746SOL    HW3 6757   1.677   0.171  -0.027 -0.6581  0.4351 -0.5081
 1746SOL    MW4 6758   1.666   0.087  -0.009 -0.1302  0.4181 -0.2572
 1747SOL     OW 6759   0.646   4.281   4.111 -0.0696  0.6073  0.2277
 1747SOL    HW2 6760   0.677   4.204   4.063  0.1477 -0.3763  1.8405
 1747SOL    HW3 6761   0.600   4.244   4.187  1.4007  2.0373  1.9080
 1747SOL    MW4 6762   0.644   4.266   4.115  0.1531  0.6662  0.6622
 1748SOL     OW 6763   1.059   3.385   5.302 -0.0757  0.5332  0.4069
 1748SOL    HW2 6764   1.018   3.308   5.341 -1.6150  1.1214  0.0155
 1748SOL    HW3 6765   1.048   3.454   5.368 -0.6434  0.9549 -0.1176
 1748SOL    MW4 6766   1.052   3.384   5.316 -0.3537  0.6664  0.2860
 1749SOL     OW 6767   3.733   0.381   4.757  0.0132 -0.4324  0.1491
 1749SOL    HW2 6768   3.721   0.349   4.846 -0.7548  0.5132  0.4039
 1749SOL    HW3 6769   3.655   0.350   4.710 -0.8744  1.1905  0.4626
 1749SOL    MW4 6770   3.721   0.372   4.762 -0.2052 -0.0935  0.2241
 1750SOL     OW 6771   3.138   3.627   0.334 -0.4763 -0.4330 -0.0623
 1750SOL    HW2 6772   3.123   3.580   0.252  1.0422  0.1241 -0.6851
 1750SOL    HW3 6773   3.058   3.612   0.384 -0.6805 -2.3684 -0.8589
 1750SOL    MW4 6774   3.126   3.619   0.330 -0.3029 -0.6149 -0.2496
 1751SOL     OW 6775   2.242   6.243   6.391  0.2453  0.0853  0.4157
 1751SOL    HW2 6776   2.159   6.214   6.430 -1.0717  2.2200 -0.5930
 1751SOL    HW3 6777   2.281   6.300   6.458  0.9247 -0.8938  0.8774
 1751SOL    MW4 6778   2.236   6.247   6.405  0.1612  0.2378  0.3436
 1752SOL     OW 6779   1.636   0.145   1.903  0.0503 -0.2566 -0.7885
 1752SOL    HW2 6780   1.564   0.085   1.925 -0.2226  0.5118  0.5133
 1752SOL    HW3 6781   1.703   0.126   1.969 -0.3887  1.4385  0.1935
 1752SOL    MW4 6782   1.636   0.134   1.914 -0.0437  0.0685 -0.4872
 1753SOL     OW 6783   2.104   5.591   6.070 -0.4947 -0.5592  0.0561
 1753SOL    HW2 6784   2.043   5.616   6.140 -0.2014 -1.0172  0.4782
 1753SOL    HW3 6785   2.117   5.497   6.082  1.4097 -0.2237  0.8462
 1753SOL    MW4 6786   2.097   5.582   6.081 -0.2048 -0.5754  0.2161
 1754SOL     OW 6787   6.223   3.098   2.446 -0.0464  0.0152 -0.5615
 1754SOL    HW2 6788   6.204   3.026   2.385 -1.0030 -0.4473  0.2536
 1754SOL    HW3 6789   6.317   3.090   2.464 -0.3113 -1.6604  0.2628
 1754SOL    MW4 6790   6.233   3.087   2.440 -0.2076 -0.2669 -0.3452
 1755SOL     OW 6791   5.092   2.049   5.602 -0.9706  0.1306 -0.2179
 1755SOL    HW2 6792   5.061   1.959   5.607  1.3640 -0.6774  0.8615
 1755SOL    HW3 6793   5.116   2.072   5.692 -2.6104  2.2933 -0.2479
 1755SOL    MW4 6794   5.091   2.040   5.614 -0.8789  0.3093 -0.0794
 1756SOL     OW 6795   1.034   6.048   4.576  0.5305 -0.3301  0.4271
 1756SOL    HW2 6796   1.074   6.070   4.492  0.4004 -2.0387 -0.1176
 1756SOL    HW3 6797   0.946   6.019   4.554  0.0838  0.3087  1.2949
 1756SOL    MW4 6798   1.027   6.047   4.562  0.4544 -0.4713  0.4698
 1757SOL     OW 6799   2.421   3.288   0.161 -0.3610 -0.5679  0.0373
 1757SOL    HW2 6800   2.417   3.365   0.218 -2.8932 -1.2057  0.8253
 1757SOL    HW3 6801   2.445   3.217   0.220  0.5532 -0.6578 -0.4220
 1757SOL    MW4 6802   2.424   3.289   0.177 -0.5745 -0.6639  0.0806
 1758SOL     OW 6803   1.734   1.317   0.582 -0.1018  0.1082 -0.4166
 1758SOL    HW2 6804   1.717   1.327   0.489 -2.8961 -1.1226 -0.1350
 1758SOL    HW3 6805   1.704   1.399   0.621  0.2180  0.2584 -0.4757
 1758SOL    MW4 6806   1.728   1.329   0.575 -0.4283 -0.0343 -0.3872
 1759SOL     OW 6807   4.528   5.621   5.294 -0.5798 -0.2393 -0.0252
 1759SOL    HW2 6808   4.477   5.703   5.296 -0.6528 -0.2863  1.5238
 1759SOL    HW3 6809   4.485   5.565   5.359 -0.0158 -1.2085 -0.4650
 1759SOL    MW4 6810   4.516   5.625   5.303 -0.5150 -0.3734  0.1211
 1760SOL     OW 6811   1.005   3.227   2.029 -0.0720  0.3081 -0.0171
 1760SOL    HW2 6812   1.094   3.207   2.000  0.0464  0.3251  0.3312
 1760SOL    HW3 6813   0.954   3.149   2.007  0.3005 -0.2186  0.9655
 1760SOL    MW4 6814   1.010   3.214   2.022 -0.0072  0.2408  0.1585
 1761SOL     OW 6815   1.596   0.179   3.832  0.2908  0.1882  0.1400
 1761SOL    HW2 6816   1.642   0.259   3.858 -0.4013  0.6229  0.0658
 1761SOL    HW3 6817   1.624   0.164   3.741  0.5081  0.2854  0.1915
 1761SOL    MW4 6818   1.605   0.188   3.823  0.2282  0.2584  0.1370
 1762SOL     OW 6819   3.464   5.130   3.595  0.6752 -0.1581  0.7822
 1762SOL    HW2 6820   3.368   5.130   3.599  0.5288 -0.7053 -1.2457
 1762SOL    HW3 6821   3.489   5.050   3.641  0.2053  0.3149  1.8802
 1762SOL    MW4 6822   3.454   5.119   3.601  0.5939 -0.1679  0.6595
 1763SOL     OW 6823   2.092   2.662   5.882 -0.5308  0.5984 -0.6744
 1763SOL    HW2 6824   2.101   2.574   5.918 -2.8305  0.8401  0.7304
 1763SOL    HW3 6825   2.182   2.693   5.872  0.3684 -0.4105  2.7640
 1763SOL    MW4 6826   2.105   2.655   5.886 -0.7156  0.4972 -0.0354
 1764SOL     OW 6827   5.354   3.727   0.717  0.0050 -0.0981  0.4911
 1764SOL    HW2 6828   5.407   3.657   0.756  0.2879  0.4621  1.1251
 1764SOL    HW3 6829   5.276   3.682   0.683  0.6968 -0.8716 -0.1016
 1764SOL    MW4 6830   5.350   3.712   0.718  0.1336 -0.1263  0.4965
 1765SOL     OW 6831   0.594   1.191   4.169 -0.1948 -0.1350  0.2011
 1765SOL    HW2 6832   0.524   1.256   4.174  0.0722  0.0872  1.1989
 1765SOL    HW3 6833   0.617   1.174   4.260  0.7892 -0.4934 -0.1081
 1765SOL    MW4 6834   0.587   1.197   4.181 -0.0297 -0.1530  0.2920
 1766SOL     OW 6835   2.874   5.357   5.188 -0.3253  0.0250  0.3639
 1766SOL    HW2 6836   2.876   5.274   5.141  2.8622  0.0341  0.2217
 1766SOL    HW3 6837   2.881   5.332   5.280 -0.9825  0.1092  0.4370
 1766SOL    MW4 6838   2.875   5.343   5.194  0.0085  0.0373  0.3548
 1767SOL     OW 6839   1.003   3.889   0.564 -0.0341  0.0812  0.4677
 1767SOL    HW2 6840   1.005   3.793   0.571  0.3875 -0.2154 -2.3340
 1767SOL    HW3 6841   0.910   3.911   0.560 -0.2023  0.0375  2.9063
 1767SOL    MW4 6842   0.991   3.879   0.564 -0.0007  0.0363  0.4198
 1768SOL     OW 6843   5.552   4.074   3.953  0.1088 -0.0374 -0.0123
 1768SOL    HW2 6844   5.508   4.012   4.011  0.0444  0.6510  0.6840
 1768SOL    HW3 6845   5.486   4.095   3.886  0.3469 -1.2074 -0.6288
 1768SOL    MW4 6846   5.537   4.069   3.951  0.1317 -0.1009 -0.0018
 1769SOL     OW 6847   1.792   6.282   3.446  0.0866 -0.5152  0.0361
 1769SOL    HW2 6848   1.737   6.225   3.499  0.1774 -0.1800  0.4948
 1769SOL    HW3 6849   1.743   6.292   3.364 -1.3715  1.0841  1.0092
 1769SOL    MW4 6850   1.778   6.276   3.442 -0.0938 -0.2599  0.2250
 1770SOL     OW 6851   4.867   4.241   5.904  0.1364 -0.5172  0.2405
 1770SOL    HW2 6852   4.784   4.272   5.940  0.1256  0.7018 -0.7867
 1770SOL    HW3 6853   4.843   4.183   5.832  0.1549  0.1815 -0.3420
 1770SOL    MW4 6854   4.853   4.238   5.899  0.1374 -0.2642  0.0281
 1771SOL     OW 6855   5.294   4.500   1.458  0.0413  0.0006  0.2427
 1771SOL    HW2 6856   5.277   4.406   1.462  1.2888 -0.2891 -0.6418
 1771SOL    HW3 6857   5.258   4.529   1.375 -1.9653  0.7064  1.2864
 1771SOL    MW4 6858   5.287   4.492   1.448 -0.0589  0.0555  0.2637
 1772SOL     OW 6859   5.502   4.510   3.541 -0.3616  0.1543 -1.0500
 1772SOL    HW2 6860   5.524   4.466   3.623  0.0844  0.9710 -0.7251
 1772SOL    HW3 6861   5.568   4.579   3.532 -1.2342  0.9579 -1.3982
 1772SOL    MW4 6862   5.514   4.513   3.551 -0.4179  0.3681 -1.0531
 1773SOL     OW 6863   5.534   2.110   1.802 -0.0051  0.0968 -0.3672
 1773SOL    HW2 6864   5.504   2.100   1.893 -0.0833 -0.5618 -0.4602
 1773SOL    HW3 6865   5.489   2.040   1.754  1.9931 -1.2232 -0.4230
 1773SOL    MW4 6866   5.524   2.099   1.808  0.2482 -0.1643 -0.3868
 1774SOL     OW 6867   2.844   2.764   5.025 -0.2976 -0.3028  0.0432
 1774SOL    HW2 6868   2.834   2.774   5.120 -0.7978  0.7290 -0.1066
 1774SOL    HW3 6869   2.766   2.717   4.997  0.1677 -1.2090  0.2158
 1774SOL    MW4 6870   2.833   2.759   5.034 -0.3022 -0.2863  0.0462
 1775SOL     OW 6871   5.045   2.461   0.875 -0.1716 -0.0530 -0.2002
 1775SOL    HW2 6872   5.083   2.395   0.932 -0.1594  1.3511  1.5029
 1775SOL    HW3 6873   5.097   2.539   0.891 -1.3592  0.8740 -0.7176
 1775SOL    MW4 6874   5.057   2.462   0.885 -0.3267  0.2546 -0.0438
 1776SOL     OW 6875   0.259   2.307   6.058  0.1789  0.1712 -0.0859
 1776SOL    HW2 6876   0.237   2.215   6.072  0.1429  0.1103 -0.5093
 1776SOL    HW3 6877   0.354   2.306   6.043 -0.3144 -0.4244 -4.5104
 1776SOL    MW4 6878   0.269   2.295   6.058  0.1091  0.0846 -0.7255
 1777SOL     OW 6879   1.159   4.691   2.830  0.0919 -0.2180 -0.0122
 1777SOL    HW2 6880   1.209   4.630   2.775  0.8704  1.2909 -1.0269
 1777SOL    HW3 6881   1.218   4.713   2.901  0.3014  0.3268 -0.3465
 1777SOL    MW4 6882   1.174   4.686   2.832  0.2223  0.0530 -0.1902
 1778SOL     OW 6883   5.577   5.531   0.495 -0.4611 -0.7382  0.2778
 1778SOL    HW2 6884   5.550   5.444   0.465 -0.0982 -0.9974  0.6734
 1778SOL    HW3 6885   5.606   5.576   0.416  2.2784 -2.0662  0.4112
 1778SOL    MW4 6886   5.577   5.525   0.481 -0.0518 -0.9476  0.3476
 1779SOL     OW 6887   3.820   5.169   1.446 -0.1244 -0.9596  0.1090
 1779SOL    HW2 6888   3.752   5.137   1.386 -0.6620 -1.3351  0.8962
 1779SOL    HW3 6889   3.837   5.259   1.417 -1.2831 -0.7010  0.1628
 1779SOL    MW4 6890   3.813   5.177   1.434 -0.3482 -0.9750  0.2200
 1780SOL     OW 6891   0.569   4.887   1.910 -0.3166  0.5859 -0.4450
 1780SOL    HW2 6892   0.520   4.911   1.988 -0.1261  1.9373 -0.7186
 1780SOL    HW3 6893   0.574   4.792   1.913 -1.6103  0.5258  0.3964
 1780SOL    MW4 6894   0.563   4.878   1.920 -0.4621  0.7562 -0.3701
 1781SOL     OW 6895   3.493   4.324   1.619 -0.0939  0.4676  0.7028
 1781SOL    HW2 6896   3.489   4.390   1.550 -0.6412  0.2281  0.4963
 1781SOL    HW3 6897   3.510   4.373   1.699  1.0584  0.7061  0.3339
 1781SOL    MW4 6898   3.495   4.339   1.620 -0.0140  0.4675  0.6269
 1782SOL     OW 6899   2.286   0.473   4.433  0.1357 -0.5602 -0.1476
 1782SOL    HW2 6900   2.275   0.381   4.410  0.6144 -0.6598 -0.0030
 1782SOL    HW3 6901   2.246   0.521   4.362  1.0652 -0.8708 -0.9072
 1782SOL    MW4 6902   2.280   0.467   4.421  0.3215 -0.6143 -0.2288
 1783SOL     OW 6903   6.245   1.233   4.792  0.1318  0.2630  0.6464
 1783SOL    HW2 6904   6.267   1.165   4.727 -0.2547  0.7616 -0.0174
 1783SOL    HW3 6905   6.299   1.211   4.868 -0.9322 -1.5588  0.9371
 1783SOL    MW4 6906   6.255   1.221   4.793 -0.0596  0.0885  0.5972
 1784SOL     OW 6907   6.019   2.382   5.743 -0.0715 -0.2353 -0.3341
 1784SOL    HW2 6908   5.955   2.376   5.813  0.8680  1.5329  0.7615
 1784SOL    HW3 6909   6.103   2.366   5.786  0.6938  2.4935 -0.6233
 1784SOL    MW4 6910   6.022   2.379   5.758  0.1535  0.3580 -0.2277
 1785SOL     OW 6911   6.162   5.306   6.190 -0.6749  0.4571  0.6221
 1785SOL    HW2 6912   6.113   5.345   6.118 -0.1153 -0.3241 -0.2121
 1785SOL    HW3 6913   6.125   5.218   6.199 -0.6123  0.4814  1.1699
 1785SOL    MW4 6914   6.151   5.299   6.182 -0.5928  0.3573  0.5843
 1786SOL     OW 6915   2.814   4.775   3.414 -0.6738 -0.2317  0.0891
 1786SOL    HW2 6916   2.908   4.756   3.409 -0.6528 -0.3764  0.8911
 1786SOL    HW3 6917   2.778   4.702   3.464 -1.2339 -0.2248 -0.3004
 1786SOL    MW4 6918   2.822   4.763   3.420 -0.7449 -0.2499  0.1435
 1787SOL     OW 6919   5.445   5.909   1.506  0.1915 -0.4712  0.3490
 1787SOL    HW2 6920   5.522   5.852   1.501  0.2779 -0.4980  1.7059
 1787SOL    HW3 6921   5.475   5.991   1.466  1.2705 -0.1549  1.7055
 1787SOL    MW4 6922   5.459   5.913   1.500  0.3453 -0.4330  0.7070
 1788SOL     OW 6923   3.835   0.945   0.428 -0.1492 -0.1420  0.2240
 1788SOL    HW2 6924   3.832   0.947   0.333  1.5660 -0.4378  0.1178
 1788SOL    HW3 6925   3.810   1.033   0.456  2.2087  0.8963 -0.6773
 1788SOL    MW4 6926   3.832   0.957   0.419  0.3882 -0.0440  0.0911
 1789SOL     OW 6927   4.624   0.678   5.017 -0.1158 -0.3560  0.6064
 1789SOL    HW2 6928   4.682   0.725   5.077 -0.8192 -0.5744  1.4856
 1789SOL    HW3 6929   4.672   0.674   4.935 -0.1225  2.1570  0.3874
 1789SOL    MW4 6930   4.638   0.684   5.014 -0.2095 -0.0533  0.6935
 1790SOL     OW 6931   5.574   2.699   2.489  0.0489 -0.6198  0.4866
 1790SOL    HW2 6932   5.511   2.641   2.532  0.4571 -0.2390  1.6493
 1790SOL    HW3 6933   5.649   2.643   2.471  0.2996 -0.5508  1.2769
 1790SOL    MW4 6934   5.576   2.684   2.493  0.1358 -0.5605  0.7443
 1791SOL     OW 6935   6.363   1.623   5.779  0.5332 -0.6959  0.2899
 1791SOL    HW2 6936   6.397   1.689   5.719  0.5377 -0.8566  0.1170
 1791SOL    HW3 6937   6.360   1.542   5.728 -1.0380 -0.4897 -0.0164
 1791SOL    MW4 6938   6.367   1.621   5.764  0.3265 -0.6899  0.2267
 1792SOL     OW 6939   5.229   5.062   6.351 -0.6499  0.0921  0.2197
 1792SOL    HW2 6940   5.230   5.158   6.351 -0.3233  0.2152  3.5113
 1792SOL    HW3 6941   5.138   5.039   6.367 -0.6961 -0.1303 -0.3816
 1792SOL    MW4 6942   5.217   5.072   6.353 -0.6129  0.0790  0.5746
 1793SOL     OW 6943   2.939   0.214   1.560  0.3286 -0.1868 -0.1825
 1793SOL    HW2 6944   3.022   0.214   1.607  1.0295  0.9291 -1.3294
 1793SOL    HW3 6945   2.887   0.283   1.602  1.1219  1.1160 -1.2493
 1793SOL    MW4 6946   2.943   0.223   1.571  0.5258  0.1323 -0.4746
 1794SOL     OW 6947   5.940   1.133   5.493 -0.2458  0.0461  0.5154
 1794SOL    HW2 6948   5.857   1.097   5.526 -0.2045 -0.0408  0.5252
 1794SOL    HW3 6949   5.998   1.057   5.487 -0.3487  0.0072 -0.0510
 1794SOL    MW4 6950   5.936   1.118   5.497 -0.2539  0.0295  0.4419
 1795SOL     OW 6951   4.527   1.011   0.310 -0.7679  0.6484  0.2114
 1795SOL    HW2 6952   4.609   1.053   0.284 -0.4495 -0.4581 -0.6372
 1795SOL    HW3 6953   4.544   0.980   0.399  0.1427 -0.4994 -0.3253
 1795SOL    MW4 6954   4.540   1.012   0.319 -0.6057  0.3510  0.0286
 1796SOL     OW 6955   5.797   5.263   1.525 -0.2892  0.4153 -1.1378
 1796SOL    HW2 6956   5.836   5.214   1.453  1.5162  1.5959 -1.0162
 1796SOL    HW3 6957   5.850   5.240   1.601  2.1652  4.1400 -1.4789
 1796SOL    MW4 6958   5.809   5.253   1.525  0.2728  1.0625 -1.1667
 1797SOL     OW 6959   3.198   0.193   1.074  0.5119  0.1473 -0.3076
 1797SOL    HW2 6960   3.171   0.122   1.015  1.1092 -0.4534  0.1193
 1797SOL    HW3 6961   3.149   0.269   1.044 -0.6220 -0.5791 -0.4065
 1797SOL    MW4 6962   3.188   0.193   1.063  0.4411 -0.0278 -0.2643
 1798SOL     OW 6963   1.795   5.631   3.266 -0.2456  0.3973 -0.2656
 1798SOL    HW2 6964   1.861   5.684   3.311  0.8867 -1.6347  0.5743
 1798SOL    HW3 6965   1.756   5.577   3.335 -0.0457 -1.1952 -1.3422
 1798SOL    MW4 6966   1.798   5.631   3.281 -0.0698 -0.0809 -0.2968
 1799SOL     OW 6967   2.082   2.592   3.392  0.0842  0.8011  0.5490
 1799SOL    HW2 6968   2.048   2.591   3.481  2.1831  0.3739  1.4252
 1799SOL    HW3 6969   2.098   2.685   3.374 -0.6612  0.9181  0.4835
 1799SOL    MW4 6970   2.080   2.604   3.401  0.2628  0.7602  0.6560
 1800SOL     OW 6971   0.187   5.536   5.450 -0.7105  0.6039  0.4929
 1800SOL    HW2 6972   0.117   5.495   5.399 -1.2184 -1.5111  2.7135
 1800SOL    HW3 6973   0.141   5.582   5.520 -0.0191 -1.8388  2.7279
 1800SOL    MW4 6974   0.171   5.537   5.453 -0.6863  0.0025  1.0808
 1801SOL     OW 6975   0.829   0.628   5.736 -0.7169 -0.2594  0.2271
 1801SOL    HW2 6976   0.745   0.601   5.773 -0.4953  0.9143  1.7194
 1801SOL    HW3 6977   0.863   0.550   5.692 -1.9283 -1.1646  0.8451
 1801SOL    MW4 6978   0.822   0.614   5.735 -0.8475 -0.2240  0.5055
 1802SOL     OW 6979   4.370   1.090   3.800 -0.6611 -0.1033  0.0346
 1802SOL    HW2 6980   4.318   1.153   3.850 -0.4326 -0.1325  0.3126
 1802SOL    HW3 6981   4.460   1.123   3.806 -0.8635  0.9712 -1.9865
 1802SOL    MW4 6982   4.375   1.103   3.807 -0.6576  0.0346 -0.1954
 1803SOL     OW 6983   4.841   5.261   3.364  0.2103  0.1525  0.2440
 1803SOL    HW2 6984   4.748   5.277   3.381  0.4183 -0.5832  2.3475
 1803SOL    HW3 6985   4.885   5.292   3.443  1.6969 -0.2115 -0.4129
 1803SOL    MW4 6986   4.835   5.268   3.376  0.4339  0.0074  0.4349
 1804SOL     OW 6987   6.238   6.378   3.342 -0.1457 -0.1409 -0.3339
 1804SOL    HW2 6988   6.175   6.416   3.403  0.5507  0.9454 -0.2716
 1804SOL    HW3 6989   6.324   6.393   3.382  0.2179 -0.9064 -0.7863
 1804SOL    MW4 6990   6.241   6.385   3.355 -0.0058 -0.0986 -0.3854
 1805SOL     OW 6991   6.169   0.085   5.306  0.0839  0.4133 -0.0098
 1805SOL    HW2 6992   6.156   0.117   5.217  1.2770  2.3014  0.4400
 1805SOL    HW3 6993   6.158  -0.010   5.299 -0.4066  0.5730 -2.0397
 1805SOL    MW4 6994   6.166   0.077   5.293  0.1766  0.6835 -0.2182
 1806SOL     OW 6995   5.056   2.381   5.224 -0.0270 -0.1899  0.1630
 1806SOL    HW2 6996   5.130   2.320   5.216 -0.8850 -1.6149  2.1819
 1806SOL    HW3 6997   4.984   2.327   5.257 -0.8863  1.8737  1.9129
 1806SOL    MW4 6998   5.057   2.365   5.227 -0.2536 -0.1056  0.6603
 1807SOL     OW 6999   4.259   2.990   1.222  0.6867 -0.3143  0.4650
 1807SOL    HW2 7000   4.268   2.914   1.280 -3.5885 -0.9947  0.5782
 1807SOL    HW3 7001   4.252   3.065   1.281  1.9085 -0.1992  0.4894
 1807SOL    MW4 7002   4.259   2.990   1.237  0.2839 -0.3889  0.4831
 1808SOL     OW 7003   3.513   3.163   1.726 -0.3383  0.0579 -0.3989
 1808SOL    HW2 7004   3.495   3.235   1.665 -3.0069 -2.4820 -2.9422
 1808SOL    HW3 7005   3.594   3.123   1.694  0.4455  1.0553  0.2521
 1808SOL    MW4 7006   3.521   3.167   1.714 -0.5870 -0.1456 -0.6485
 1809SOL     OW 7007   1.954   0.226   4.429  0.3318 -0.3894 -0.7427
 1809SOL    HW2 7008   1.869   0.205   4.469  0.3484 -0.1598 -0.5819
 1809SOL    HW3 7009   1.964   0.161   4.360 -0.4393  0.2066 -1.4301
 1809SOL    MW4 7010   1.944   0.214   4.425  0.2322 -0.2805 -0.8122
 1810SOL     OW 7011   4.597   3.583   3.235 -0.1555  0.2004  0.0577
 1810SOL    HW2 7012   4.617   3.646   3.165 -1.0933  1.5356  0.9526
 1810SOL    HW3 7013   4.604   3.498   3.192  2.2975  0.7976 -0.9125
 1810SOL    MW4 7014   4.601   3.580   3.220  0.0444  0.4554  0.0478
 1811SOL     OW 7015   3.280   3.943   6.422 -0.6665  0.6314 -0.3161
 1811SOL    HW2 7016   3.300   4.036   6.420 -0.2537  0.5650  0.5066
 1811SOL    HW3 7017   3.316   3.912   6.505 -0.4224 -0.3435 -0.7692
 1811SOL    MW4 7018   3.287   3.951   6.433 -0.5799  0.4941 -0.2674
 1812SOL     OW 7019   1.971   2.901   1.426  0.5140  0.4410 -0.1758
 1812SOL    HW2 7020   2.004   2.947   1.349  0.5196  0.6950 -0.0200
 1812SOL    HW3 7021   1.986   2.961   1.499  1.0104 -0.0153  0.1099
 1812SOL    MW4 7022   1.977   2.915   1.425  0.5802  0.4143 -0.1175
 1813SOL     OW 7023   0.463   6.236   6.300  0.3286 -0.2472 -0.1303
 1813SOL    HW2 7024   0.551   6.201   6.281 -0.4354 -2.2339 -0.2870
 1813SOL    HW3 7025   0.476   6.294   6.374  2.3192  2.3092 -2.2777
 1813SOL    MW4 7026   0.477   6.239   6.307  0.4905 -0.1720 -0.4343
 1814SOL     OW 7027   1.573   3.017   1.286 -0.4077  0.3593  0.0005
 1814SOL    HW2 7028   1.618   2.963   1.352  2.3369  0.7308 -1.4142
 1814SOL    HW3 7029   1.551   3.098   1.332 -0.3309 -0.1422  0.9420
 1814SOL    MW4 7030   1.576   3.020   1.301 -0.0355  0.3421 -0.0620
 1815SOL     OW 7031   2.300   4.030   0.563  0.4969  0.1472  0.0093
 1815SOL    HW2 7032   2.389   4.051   0.535  0.1006  0.5517 -1.0055
 1815SOL    HW3 7033   2.251   4.111   0.550 -0.0664 -0.1356  0.3396
 1815SOL    MW4 7034   2.305   4.044   0.557  0.3703  0.1632 -0.0810
 1816SOL     OW 7035   2.123   4.884   5.620 -0.3456  0.1703  0.0620
 1816SOL    HW2 7036   2.163   4.900   5.534  0.8966  0.0288  0.5795
 1816SOL    HW3 7037   2.188   4.831   5.667 -0.6368  0.9043  1.3601
 1816SOL    MW4 7038   2.137   4.879   5.615 -0.2202  0.2485  0.3016
 1817SOL     OW 7039   4.315   2.206   4.442 -0.3691  0.1424 -0.9889
 1817SOL    HW2 7040   4.246   2.198   4.376  0.0325 -1.1058 -1.2979
 1817SOL    HW3 7041   4.281   2.159   4.518 -0.3223  0.5052 -0.7437
 1817SOL    MW4 7042   4.302   2.199   4.443 -0.3099  0.0256 -0.9973
 1818SOL     OW 7043   5.733   4.149   2.374  0.1824  0.4837 -0.3557
 1818SOL    HW2 7044   5.719   4.164   2.468  0.9357  0.6843 -0.2645
 1818SOL    HW3 7045   5.750   4.055   2.367  2.5105  0.8131  0.0631
 1818SOL    MW4 7046   5.734   4.139   2.386  0.5889  0.5536 -0.2884
 1819SOL     OW 7047   2.775   2.840   5.290 -0.1937 -0.3337 -0.5977
 1819SOL    HW2 7048   2.727   2.876   5.365 -0.3237 -0.7664 -0.4674
 1819SOL    HW3 7049   2.787   2.747   5.312  1.4032 -0.0772 -0.2667
 1819SOL    MW4 7050   2.770   2.832   5.303 -0.0002 -0.3569 -0.5369
 1820SOL     OW 7051   6.030   3.470   2.833  0.0086 -0.1674  0.1797
 1820SOL    HW2 7052   5.947   3.500   2.794  0.5225  0.3472 -0.5441
 1820SOL    HW3 7053   6.004   3.401   2.894 -0.9824  0.1669  0.1553
 1820SOL    MW4 7054   6.016   3.465   2.836 -0.0543 -0.0554  0.0810
 1821SOL     OW 7055   3.463   5.357   2.745  0.3294 -0.4029 -0.0026
 1821SOL    HW2 7056   3.449   5.443   2.784  2.9990 -0.0432  0.3687
 1821SOL    HW3 7057   3.431   5.295   2.810  2.0652  0.2589  1.5403
 1821SOL    MW4 7058   3.457   5.360   2.758  0.9106 -0.2681  0.2499
 1822SOL     OW 7059   3.900   0.192   1.825  0.0672  0.3192  0.2102
 1822SOL    HW2 7060   3.861   0.279   1.827 -0.4396  0.0899  1.9031
 1822SOL    HW3 7061   3.864   0.148   1.902  2.2987 -0.5172  0.8513
 1822SOL    MW4 7062   3.890   0.198   1.835  0.2947  0.1786  0.5181
 1823SOL     OW 7063   2.694   5.268   4.541 -0.0839 -0.0601  0.0843
 1823SOL    HW2 7064   2.754   5.304   4.606  0.2460 -0.5691  0.0624
 1823SOL    HW3 7065   2.648   5.198   4.587 -0.5442  0.2152  0.0518
 1823SOL    MW4 7066   2.696   5.263   4.555 -0.1011 -0.0910  0.0771
 1824SOL     OW 7067   5.501   1.269   0.873 -0.4668  0.3933  0.1279
 1824SOL    HW2 7068   5.506   1.190   0.927  0.5310 -0.0052 -0.5103
 1824SOL    HW3 7069   5.484   1.340   0.935  1.6991  0.0969  1.1456
 1824SOL    MW4 7070   5.500   1.268   0.888 -0.0494  0.3016  0.1779
 1825SOL     OW 7071   3.439   3.398   1.274 -0.3066  0.6184  0.0551
 1825SOL    HW2 7072   3.454   3.387   1.368  0.6217 -0.4738 -0.2049
 1825SOL    HW3 7073   3.382   3.326   1.250 -0.8127  1.0850 -0.1687
 1825SOL    MW4 7074   3.434   3.387   1.283 -0.2509  0.5359 -0.0087
 1826SOL     OW 7075   1.821   1.312   3.484 -0.6358  0.0023  0.2303
 1826SOL    HW2 7076   1.735   1.347   3.509 -1.2177  0.0874 -1.7159
 1826SOL    HW3 7077   1.819   1.221   3.512 -1.0930  0.1871  0.8186
 1826SOL    MW4 7078   1.809   1.305   3.491 -0.7729  0.0379  0.0511
 1827SOL     OW 7079   4.997   0.242   2.889  0.2870  0.5770  0.6023
 1827SOL    HW2 7080   4.976   0.224   2.797 -0.9488  0.5577  0.8823
 1827SOL    HW3 7081   5.030   0.158   2.923  2.5840  1.0437 -0.2906
 1827SOL    MW4 7082   4.999   0.228   2.881  0.4270  0.6360  0.5215
 1828SOL     OW 7083   2.139   6.079   2.956  0.0678  0.4349  0.2280
 1828SOL    HW2 7084   2.075   6.022   3.000 -0.0025 -0.8161 -1.3955
 1828SOL    HW3 7085   2.102   6.092   2.868  1.4959  0.6271 -0.3611
 1828SOL    MW4 7086   2.125   6.073   2.950  0.2470  0.2952 -0.0639
 1829SOL     OW 7087   1.844   0.330   1.043  0.1308  0.0893 -0.4833
 1829SOL    HW2 7088   1.920   0.332   0.984  0.3987 -0.2241 -0.1557
 1829SOL    HW3 7089   1.803   0.246   1.027  0.6367 -0.3199  0.3044
 1829SOL    MW4 7090   1.849   0.319   1.034  0.2329 -0.0061 -0.3361
 1830SOL     OW 7091   3.386   2.642   5.231 -0.8745  0.0844  0.1661
 1830SOL    HW2 7092   3.451   2.711   5.217 -1.0045  0.3716  0.9542
 1830SOL    HW3 7093   3.306   2.689   5.254 -1.2427 -0.2890 -0.3249
 1830SOL    MW4 7094   3.384   2.657   5.232 -0.9402  0.0731  0.2053
 1831SOL     OW 7095   2.534   3.358   4.008  0.1324  0.7028 -0.0828
 1831SOL    HW2 7096   2.514   3.448   4.035  0.0373  0.7353 -0.2616
 1831SOL    HW3 7097   2.491   3.348   3.923 -1.7952 -0.2570  0.9303
 1831SOL    MW4 7098   2.526   3.369   4.000 -0.1345  0.5804  0.0273
 1832SOL     OW 7099   3.867   0.466   2.199 -0.5812  0.1830  0.3216
 1832SOL    HW2 7100   3.903   0.440   2.115  1.4379  1.2275  0.7897
 1832SOL    HW3 7101   3.798   0.529   2.178 -0.5077 -0.0264 -0.5643
 1832SOL    MW4 7102   3.863   0.471   2.185 -0.3051  0.2932  0.2665
 1833SOL     OW 7103   5.054   4.180   2.303  0.2895 -0.7264 -0.2253
 1833SOL    HW2 7104   5.083   4.266   2.334 -0.7147 -0.1512 -0.8180
 1833SOL    HW3 7105   5.111   4.160   2.230  0.3991 -0.4743 -0.2076
 1833SOL    MW4 7106   5.065   4.189   2.298  0.1715 -0.6172 -0.3012
 1834SOL     OW 7107   2.111   4.424   0.745  1.4021  0.5887 -0.3369
 1834SOL    HW2 7108   2.055   4.380   0.681  1.1129  2.1005 -1.1763
 1834SOL    HW3 7109   2.154   4.353   0.792 -0.5628 -0.6180 -0.2377
 1834SOL    MW4 7110   2.109   4.409   0.742  1.1047  0.6289 -0.4345
 1835SOL     OW 7111   1.708   6.302   3.155  0.3295  0.0508 -0.0945
 1835SOL    HW2 7112   1.670   6.249   3.086  0.3645 -1.4358  0.9863
 1835SOL    HW3 7113   1.802   6.292   3.145  0.4753  2.0807 -1.4916
 1835SOL    MW4 7114   1.715   6.294   3.145  0.3534  0.1225 -0.1362
 1836SOL     OW 7115   2.428   3.808   2.501  0.3729 -0.0225  0.0597
 1836SOL    HW2 7116   2.503   3.830   2.445 -0.3134  1.2146 -0.4286
 1836SOL    HW3 7117   2.352   3.819   2.444 -0.1940 -1.0924  0.5937
 1836SOL    MW4 7118   2.428   3.813   2.486  0.2076 -0.0005  0.0657
 1837SOL     OW 7119   0.586   1.843   4.934 -0.3501  0.1606 -0.3533
 1837SOL    HW2 7120   0.573   1.812   4.844  0.9000 -0.5606 -0.2964
 1837SOL    HW3 7121   0.546   1.930   4.934  1.2874  0.9869 -2.1451
 1837SOL    MW4 7122   0.579   1.851   4.922  0.0309  0.1744 -0.5822
 1838SOL     OW 7123   2.718   3.947   2.975  0.5051  0.2153 -0.1441
 1838SOL    HW2 7124   2.650   3.961   3.041 -0.0280 -1.4432 -0.2797
 1838SOL    HW3 7125   2.670   3.942   2.893  1.0232  0.9530 -0.4966
 1838SOL    MW4 7126   2.703   3.948   2.973  0.5031  0.0938 -0.2085
 1839SOL     OW 7127   5.808   2.961   2.221  0.3433  0.0306 -0.4175
 1839SOL    HW2 7128   5.744   2.967   2.292 -1.0231  0.8817 -1.6531
 1839SOL    HW3 7129   5.801   2.871   2.190 -0.9461  0.3525 -1.1199
 1839SOL    MW4 7130   5.799   2.950   2.227 -0.0071  0.1854 -0.6732
 1840SOL     OW 7131   3.343   5.890   6.216 -0.7271 -0.0481 -0.0366
 1840SOL    HW2 7132   3.249   5.879   6.199 -0.3148 -0.7392 -2.2033
 1840SOL    HW3 7133   3.376   5.801   6.228 -0.0328 -0.0079 -1.4226
 1840SOL    MW4 7134   3.335   5.877   6.216 -0.5811 -0.1340 -0.5053
 1841SOL     OW 7135   2.847   6.053   4.031  0.0601 -0.7344  0.1088
 1841SOL    HW2 7136   2.843   5.984   4.097 -1.2021  0.2623  1.1429
 1841SOL    HW3 7137   2.799   6.017   3.956 -2.0071 -0.4553  1.2140
 1841SOL    MW4 7138   2.840   6.039   4.030 -0.3792 -0.5661  0.3911
 1842SOL     OW 7139   0.049   0.417   2.967 -0.1331 -0.3122  0.1974
 1842SOL    HW2 7140   0.016   0.503   2.993 -0.8005 -0.1540 -1.0519
 1842SOL    HW3 7141   0.037   0.362   3.044  1.9334  1.1025  1.6258
 1842SOL    MW4 7142   0.043   0.421   2.980  0.0515 -0.1046  0.2211
 1843SOL     OW 7143   4.185   1.094   1.296  0.2204 -0.2554 -0.4213
 1843SOL    HW2 7144   4.262   1.128   1.251 -1.2256  2.9627 -0.7062
 1843SOL    HW3 7145   4.113   1.110   1.235 -1.1303 -0.1119  1.1500
 1843SOL    MW4 7146   4.186   1.100   1.282 -0.1486  0.1881 -0.2515
 1844SOL     OW 7147   1.401   1.587   5.080 -0.0758 -0.5045 -0.8593
 1844SOL    HW2 7148   1.438   1.654   5.137 -0.5989 -1.2676  0.4412
 1844SOL    HW3 7149   1.475   1.531   5.056 -0.1317 -1.2726  0.6550
 1844SOL    MW4 7150   1.415   1.588   5.084 -0.1522 -0.7065 -0.4879
 1845SOL     OW 7151   6.205   3.632   5.368 -0.4718  0.0679 -0.1628
 1845SOL    HW2 7152   6.216   3.711   5.315  1.6435 -0.0860 -0.0361
 1845SOL    HW3 7153   6.126   3.648   5.419 -0.5420  1.7444 -0.7501
 1845SOL    MW4 7154   6.196   3.644   5.367 -0.2019  0.2688 -0.2236
 1846SOL     OW 7155   4.602   4.466   1.811  0.7192 -0.3964 -0.0214
 1846SOL    HW2 7156   4.672   4.400   1.809 -0.0557 -1.2176 -1.7785
 1846SOL    HW3 7157   4.522   4.415   1.825  0.1648  0.2366 -0.8530
 1846SOL    MW4 7158   4.601   4.450   1.813  0.5438 -0.4213 -0.3630
 1847SOL     OW 7159   4.673   4.914   5.556 -0.1618 -0.4421  0.4726
 1847SOL    HW2 7160   4.678   4.835   5.502  1.1256 -0.5665  0.7329
 1847SOL    HW3 7161   4.763   4.948   5.556 -0.6869  1.0101  0.3902
 1847SOL    MW4 7162   4.686   4.908   5.549 -0.0612 -0.2669  0.4961
 1848SOL     OW 7163   1.730   3.089   1.057  0.4708  0.0332  0.2355
 1848SOL    HW2 7164   1.672   3.062   1.128  1.1515  1.3819  1.3628
 1848SOL    HW3 7165   1.813   3.110   1.100  1.3840 -0.5137 -1.1605
 1848SOL    MW4 7166   1.734   3.088   1.072  0.6811  0.1390  0.2000
 1849SOL     OW 7167   3.099   2.540   1.602  0.0931  0.3422 -0.4609
 1849SOL    HW2 7168   3.053   2.556   1.684  1.3817  3.2729 -0.2011
 1849SOL    HW3 7169   3.167   2.476   1.625 -0.2984  0.2373  0.4476
 1849SOL    MW4 7170   3.102   2.534   1.616  0.2115  0.7150 -0.3068
 1850SOL     OW 7171   2.099   0.797   4.676  0.1824  0.4896 -0.3449
 1850SOL    HW2 7172   2.167   0.838   4.624  1.2638  0.1456  0.7468
 1850SOL    HW3 7173   2.120   0.704   4.675 -0.2842  0.3756 -0.0110
 1850SOL    MW4 7174   2.111   0.790   4.669  0.2635  0.4292 -0.1568
 1851SOL     OW 7175   1.333   4.411   1.526  0.0122  0.0210 -0.5586
 1851SOL    HW2 7176   1.309   4.352   1.455 -0.1093  0.4036 -0.8403
 1851SOL    HW3 7177   1.249   4.433   1.568  0.0033  0.3858 -0.7676
 1851SOL    MW4 7178   1.318   4.406   1.522 -0.0050  0.1196 -0.6233
 1852SOL     OW 7179   4.083   6.139   0.301  0.2869  0.1218 -0.2715
 1852SOL    HW2 7180   4.112   6.117   0.213 -2.2868  0.0276 -1.1557
 1852SOL    HW3 7181   4.040   6.060   0.333 -1.7963  1.1859 -0.2960
 1852SOL    MW4 7182   4.081   6.126   0.294 -0.3275  0.2498 -0.3914
 1853SOL     OW 7183   4.809   0.399   1.835  0.3344 -0.5696 -0.2158
 1853SOL    HW2 7184   4.832   0.476   1.886 -3.6569  0.2312  0.6807
 1853SOL    HW3 7185   4.760   0.433   1.760  0.2825 -2.1472 -0.9491
 1853SOL    MW4 7186   4.805   0.414   1.832 -0.1990 -0.6721 -0.1943
 1854SOL     OW 7187   4.560   4.916   3.319 -0.1639 -0.1345 -0.3710
 1854SOL    HW2 7188   4.535   4.845   3.260 -0.1467 -1.9122  1.6216
 1854SOL    HW3 7189   4.485   4.927   3.377  0.3201  0.5997  0.1375
 1854SOL    MW4 7190   4.547   4.908   3.319 -0.0978 -0.2721 -0.0410
 1855SOL     OW 7191   2.677   5.804   1.775 -0.3327 -0.4678  0.0077
 1855SOL    HW2 7192   2.684   5.709   1.771 -0.3214 -0.4234 -1.4308
 1855SOL    HW3 7193   2.767   5.835   1.776 -0.3184 -0.4545 -0.7241
 1855SOL    MW4 7194   2.690   5.796   1.774 -0.3294 -0.4602 -0.2786
 1856SOL     OW 7195   6.393   5.360   1.443 -0.2092  0.3461  0.1856
 1856SOL    HW2 7196   6.366   5.449   1.421 -0.6377  0.3320  0.6481
 1856SOL    HW3 7197   6.313   5.317   1.472  0.2330  0.1976  1.2192
 1856SOL    MW4 7198   6.379   5.366   1.444 -0.2074  0.3247  0.3830
 1857SOL     OW 7199   0.827   2.719   4.757 -0.1047  0.1381  0.1762
 1857SOL    HW2 7200   0.904   2.765   4.792  0.3298  0.3608 -1.0024
 1857SOL    HW3 7201   0.861   2.633   4.732  0.3859  1.0291 -2.5405
 1857SOL    MW4 7202   0.842   2.714   4.758  0.0174  0.2850 -0.3378
 1858SOL     OW 7203   1.113   1.716   0.073  0.3011  0.2618 -0.3569
 1858SOL    HW2 7204   1.166   1.796   0.078 -0.5579  0.8233  0.0119
 1858SOL    HW3 7205   1.175   1.645   0.089  0.6502  1.0129  2.0315
 1858SOL    MW4 7206   1.128   1.717   0.076  0.2339  0.4350  0.0069
 1859SOL     OW 7207   0.981   3.520   3.096  0.1305 -0.1802 -0.4797
 1859SOL    HW2 7208   1.058   3.559   3.053  0.6185  0.7018  1.1106
 1859SOL    HW3 7209   0.908   3.574   3.068  0.3672  0.0829 -0.5966
 1859SOL    MW4 7210   0.982   3.533   3.087  0.2262 -0.0291 -0.2853
 1860SOL     OW 7211   5.162   1.960   4.015 -0.0163 -0.7989 -0.4290
 1860SOL    HW2 7212   5.227   1.894   4.037  1.6913  0.2899 -1.9206
 1860SOL    HW3 7213   5.091   1.911   3.974  1.2927 -1.7365 -1.6860
 1860SOL    MW4 7214   5.161   1.945   4.012  0.3817 -0.7789 -0.7916
 1861SOL     OW 7215   1.485   0.498   2.719 -0.5332 -0.1093  0.4820
 1861SOL    HW2 7216   1.419   0.493   2.788  0.8447 -1.3164  1.7819
 1861SOL    HW3 7217   1.565   0.465   2.760  1.2897  2.6792 -0.5811
 1861SOL    MW4 7218   1.487   0.493   2.733 -0.1109  0.0993  0.5133
 1862SOL     OW 7219   5.149   2.060   1.972 -0.7845  0.4034  0.2408
 1862SOL    HW2 7220   5.060   2.083   1.999 -0.1010  0.2801  2.8542
 1862SOL    HW3 7221   5.152   2.081   1.879 -2.6762  3.1698  0.6718
 1862SOL    MW4 7222   5.137   2.066   1.964 -0.9439  0.7521  0.6425
 1863SOL     OW 7223   5.086   4.237   5.173 -0.5961 -0.1036  0.0734
 1863SOL    HW2 7224   5.114   4.213   5.261  1.5595  0.9565 -0.2532
 1863SOL    HW3 7225   5.055   4.155   5.135 -3.8171 -0.1920  2.4844
 1863SOL    MW4 7226   5.085   4.223   5.179 -0.7367  0.0246  0.3484
 1864SOL     OW 7227   0.939   1.760   4.333  0.2249 -0.0450  0.5315
 1864SOL    HW2 7228   0.984   1.828   4.384 -0.5309  0.6882  0.2485
 1864SOL    HW3 7229   0.938   1.795   4.243 -0.1206 -0.4601  0.3742
 1864SOL    MW4 7230   0.945   1.774   4.328  0.0796 -0.0031  0.4734
 1865SOL     OW 7231   6.173   4.542   1.963 -0.6083 -0.0743  0.9540
 1865SOL    HW2 7232   6.151   4.480   2.033  0.9537 -1.0532  0.6232
 1865SOL    HW3 7233   6.198   4.486   1.889  2.3128  0.8638  1.0954
 1865SOL    MW4 7234   6.173   4.526   1.963 -0.0168 -0.0797  0.9290
 1866SOL     OW 7235   3.427   3.485   0.353  0.0086  0.1039 -0.3927
 1866SOL    HW2 7236   3.348   3.534   0.375 -0.7469  0.4395 -3.4303
 1866SOL    HW3 7237   3.400   3.393   0.357 -0.6672  0.2246 -1.7032
 1866SOL    MW4 7238   3.413   3.480   0.356 -0.1803  0.1641 -0.9664
 1867SOL     OW 7239   5.470   2.339   2.161 -0.0480  0.3188 -0.2467
 1867SOL    HW2 7240   5.445   2.339   2.253  0.3489  4.1127 -0.0164
 1867SOL    HW3 7241   5.457   2.248   2.133  2.7323 -1.7466  4.2174
 1867SOL    MW4 7242   5.465   2.327   2.169  0.3712  0.5469  0.3727
 1868SOL     OW 7243   1.919   0.914   3.328 -0.6022 -0.1683  0.3050
 1868SOL    HW2 7244   1.934   0.954   3.243  0.8140 -2.5277 -0.6461
 1868SOL    HW3 7245   1.825   0.921   3.342 -0.7298  1.0897 -0.9945
 1868SOL    MW4 7246   1.909   0.920   3.319 -0.4322 -0.3137  0.0081
 1869SOL     OW 7247   2.548   4.917   1.155 -0.3889  0.1974  0.0214
 1869SOL    HW2 7248   2.516   4.852   1.092  1.4949 -1.5595  0.7479
 1869SOL    HW3 7249   2.481   4.921   1.222 -0.9758 -0.2663 -0.5280
 1869SOL    MW4 7250   2.535   4.909   1.155 -0.2178 -0.0956  0.0448
 1870SOL     OW 7251   3.928   3.686   2.988  0.3982  0.3805  0.7773
 1870SOL    HW2 7252   3.871   3.723   2.921 -0.8264  0.7176  1.9727
 1870SOL    HW3 7253   3.897   3.596   2.999 -0.2777  0.7289  1.8102
 1870SOL    MW4 7254   3.916   3.679   2.980  0.1474  0.4709  1.0713
 1871SOL     OW 7255   6.139   0.099   5.901  0.6168 -0.3106 -0.1683
 1871SOL    HW2 7256   6.064   0.045   5.927 -0.3047  1.0466  0.1072
 1871SOL    HW3 7257   6.190   0.109   5.982  0.8765 -0.9091 -0.2601
 1871SOL    MW4 7258   6.136   0.093   5.915  0.5295 -0.2105 -0.1441
 1872SOL     OW 7259   0.465   1.653   1.695 -0.3961 -0.6568  0.1491
 1872SOL    HW2 7260   0.485   1.731   1.746  0.1391  0.4571 -1.6859
 1872SOL    HW3 7261   0.383   1.621   1.732 -1.2218  1.4193  0.2297
 1872SOL    MW4 7262   0.457   1.659   1.706 -0.4344 -0.2359 -0.0824
 1873SOL     OW 7263   3.666   5.036   4.201  0.3115  0.3123  0.0416
 1873SOL    HW2 7264   3.690   5.081   4.282  2.4031  1.9017 -1.3494
 1873SOL    HW3 7265   3.611   5.099   4.154 -5.5697 -2.4625  2.2118
 1873SOL    MW4 7266   3.662   5.050   4.205 -0.1885  0.1559  0.1444
 1874SOL     OW 7267   5.950   2.138   3.783 -0.3938  0.4231  0.1033
 1874SOL    HW2 7268   5.886   2.179   3.840 -1.4697 -0.6959 -0.2555
 1874SOL    HW3 7269   5.929   2.170   3.695 -2.6306 -2.3379 -0.5300
 1874SOL    MW4 7270   5.939   2.148   3.779 -0.8309 -0.0888 -0.0276
 1875SOL     OW 7271   4.549   5.391   6.067  0.0642  0.1353  0.5253
 1875SOL    HW2 7272   4.471   5.382   6.012  0.8444  1.5584 -0.9016
 1875SOL    HW3 7273   4.602   5.314   6.045 -0.6273 -0.4880  1.0026
 1875SOL    MW4 7274   4.546   5.379   6.057  0.0759  0.2409  0.4000
 1876SOL     OW 7275   2.647   1.327   2.388  0.3374 -0.2560 -0.4661
 1876SOL    HW2 7276   2.620   1.250   2.338 -1.0629 -0.5257  0.6230
 1876SOL    HW3 7277   2.647   1.298   2.479  0.5869  0.8153 -0.1089
 1876SOL    MW4 7278   2.643   1.313   2.394  0.1856 -0.1503 -0.2753
 1877SOL     OW 7279   2.867   2.285   6.026  0.0791  0.0273 -0.5925
 1877SOL    HW2 7280   2.791   2.227   6.019 -0.8004  1.1104 -0.2742
 1877SOL    HW3 7281   2.910   2.259   6.106 -1.7675  1.4367  0.9679
 1877SOL    MW4 7282   2.862   2.274   6.035 -0.2806  0.3561 -0.3446
 1878SOL     OW 7283   0.203   1.263   0.424 -0.2845 -0.0393  0.2149
 1878SOL    HW2 7284   0.181   1.250   0.516 -0.8430 -0.6077  0.0022
 1878SOL    HW3 7285   0.192   1.358   0.411  1.3853  0.3270  1.1306
 1878SOL    MW4 7286   0.199   1.274   0.435 -0.1379 -0.0660  0.3077
 1879SOL     OW 7287   0.774   1.944   0.339  0.1381  0.4176 -0.0895
 1879SOL    HW2 7288   0.704   1.998   0.376  0.2786  1.3450 -1.1215
 1879SOL    HW3 7289   0.795   1.986   0.256  0.8971 -0.7135 -0.4937
 1879SOL    MW4 7290   0.768   1.957   0.333  0.2568  0.3907 -0.2790
 1880SOL     OW 7291   0.562   5.379   3.883 -0.8251  0.1102  0.5197
 1880SOL    HW2 7292   0.559   5.364   3.978  1.7886 -1.8697  0.3839
 1880SOL    HW3 7293   0.620   5.454   3.872 -2.2332  1.2335  0.4976
 1880SOL    MW4 7294   0.569   5.387   3.894 -0.6660 -0.0028  0.4989
 1881SOL     OW 7295   4.517   5.487   0.425 -0.5663  0.5126  0.4040
 1881SOL    HW2 7296   4.422   5.483   0.415 -0.6038  1.6573  0.2644
 1881SOL    HW3 7297   4.539   5.408   0.475 -1.5813  0.2287  0.4157
 1881SOL    MW4 7298   4.507   5.476   0.431 -0.7051  0.6261  0.3871
 1882SOL     OW 7299   4.059   3.777   1.852 -0.0775  0.0257  0.4792
 1882SOL    HW2 7300   4.074   3.713   1.782 -2.9405 -0.8130  0.5373
 1882SOL    HW3 7301   4.109   3.743   1.926  0.9468 -0.4360 -0.3956
 1882SOL    MW4 7302   4.068   3.764   1.853 -0.3201 -0.1459  0.3714
 1883SOL     OW 7303   6.093   6.163   0.933 -0.0464 -0.3736  0.1143
 1883SOL    HW2 7304   6.118   6.255   0.935 -0.9299 -0.0616 -1.4564
 1883SOL    HW3 7305   6.028   6.157   0.863  1.1171 -2.4548 -0.9062
 1883SOL    MW4 7306   6.088   6.174   0.924 -0.0094 -0.6071 -0.2276
 1884SOL     OW 7307   2.478   1.191   1.086 -0.2499 -0.7068  0.4089
 1884SOL    HW2 7308   2.394   1.234   1.102 -0.6878 -0.9649 -1.0181
 1884SOL    HW3 7309   2.458   1.123   1.021  1.5180  0.9880 -2.0841
 1884SOL    MW4 7310   2.464   1.188   1.079 -0.0744 -0.5172 -0.1083
 1885SOL     OW 7311   4.578   5.571   0.167  0.4164  0.1977  0.0765
 1885SOL    HW2 7312   4.565   5.519   0.246  0.0536  1.2588  0.7302
 1885SOL    HW3 7313   4.626   5.513   0.108 -2.0323 -1.7891 -0.1672
 1885SOL    MW4 7314   4.582   5.557   0.169  0.0454  0.0756  0.1306
 1886SOL     OW 7315   3.152   5.089   5.190 -0.0732 -0.3022 -0.8297
 1886SOL    HW2 7316   3.174   4.997   5.174 -0.0730 -0.4671  0.0946
 1886SOL    HW3 7317   3.236   5.132   5.200 -0.0642 -0.7034  1.4117
 1886SOL    MW4 7318   3.166   5.082   5.189 -0.0720 -0.3769 -0.4120
 1887SOL     OW 7319   5.645   3.345   0.317 -0.0354 -0.1345 -0.2471
 1887SOL    HW2 7320   5.667   3.264   0.363 -0.4181 -1.0907 -1.6693
 1887SOL    HW3 7321   5.589   3.316   0.244 -0.3045  1.4353 -0.6901
 1887SOL    MW4 7322   5.640   3.330   0.314 -0.1214 -0.0535 -0.4932
 1888SOL     OW 7323   3.912   5.286   3.367  0.3399 -0.2265  0.3599
 1888SOL    HW2 7324   3.830   5.304   3.413  0.3605 -0.3954  0.4659
 1888SOL    HW3 7325   3.980   5.302   3.433  0.5414  1.9403 -0.2833
 1888SOL    MW4 7326   3.910   5.290   3.382  0.3692  0.0371  0.2891
 1889SOL     OW 7327   5.614   2.021   5.197 -0.0782 -0.0882  0.3420
 1889SOL    HW2 7328   5.634   1.931   5.221 -0.9337 -0.7500 -1.2971
 1889SOL    HW3 7329   5.668   2.039   5.121  1.4762  1.4637  1.7161
 1889SOL    MW4 7330   5.623   2.012   5.190  0.0140  0.0293  0.3071
 1890SOL     OW 7331   4.899   6.033   1.995 -0.3582 -0.3444 -0.2164
 1890SOL    HW2 7332   4.843   6.107   1.973  0.3980  0.1048 -0.6557
 1890SOL    HW3 7333   4.849   5.984   2.061 -1.2534  0.0518 -0.5822
 1890SOL    MW4 7334   4.885   6.036   2.001 -0.3765 -0.2328 -0.3226
 1891SOL     OW 7335   5.029   5.656   1.787 -0.0729  0.2625 -0.0836
 1891SOL    HW2 7336   4.969   5.730   1.788 -0.6710 -0.2083 -0.1817
 1891SOL    HW3 7337   5.098   5.681   1.725  0.2636  1.1331  0.6271
 1891SOL    MW4 7338   5.031   5.669   1.779 -0.1074  0.3153 -0.0028
 1892SOL     OW 7339   3.696   2.350   2.831  0.0743  0.1384  0.0221
 1892SOL    HW2 7340   3.672   2.305   2.751 -0.1133  1.1834 -0.5238
 1892SOL    HW3 7341   3.755   2.420   2.803  1.1525 -0.3549  0.9651
 1892SOL    MW4 7342   3.701   2.354   2.817  0.1918  0.2112  0.0745
 1893SOL     OW 7343   1.615   2.749   3.728  0.0538  0.5633 -0.5260
 1893SOL    HW2 7344   1.664   2.810   3.783  0.0200  0.2187 -0.1080
 1893SOL    HW3 7345   1.659   2.665   3.739 -0.3209  0.3617 -0.5447
 1893SOL    MW4 7346   1.627   2.746   3.737 -0.0001  0.4913 -0.4733
 1894SOL     OW 7347   1.426   1.079   2.657 -0.0712  0.7974 -0.3859
 1894SOL    HW2 7348   1.338   1.115   2.660 -0.1957  0.4155  1.9538
 1894SOL    HW3 7349   1.415   0.986   2.678  0.8900  0.7398 -0.0852
 1894SOL    MW4 7350   1.413   1.071   2.660  0.0392  0.7395 -0.0375
 1895SOL     OW 7351   1.307   1.796   0.282  0.1141 -0.8610  0.0563
 1895SOL    HW2 7352   1.361   1.875   0.281 -1.2820  0.2711  3.2003
 1895SOL    HW3 7353   1.369   1.725   0.299  1.1739 -0.2596 -1.1386
 1895SOL    MW4 7354   1.323   1.797   0.284  0.0697 -0.6323  0.3135
 1896SOL     OW 7355   4.903   1.336   5.297 -0.5055  0.2095 -0.4278
 1896SOL    HW2 7356   4.897   1.384   5.214  0.8996  1.0200 -0.0871
 1896SOL    HW3 7357   4.873   1.247   5.275 -2.6520  1.0495 -1.1841
 1896SOL    MW4 7358   4.898   1.330   5.283 -0.6034  0.4273 -0.4826
 1897SOL     OW 7359   5.765   4.543   2.126 -0.4903  0.3802 -0.0640
 1897SOL    HW2 7360   5.691   4.590   2.088 -0.5063  1.1736  0.9217
 1897SOL    HW3 7361   5.818   4.517   2.050 -0.7188  1.5817 -0.6569
 1897SOL    MW4 7362   5.762   4.546   2.111 -0.5226  0.6434 -0.0122
 1898SOL     OW 7363   0.949   5.204   5.251  0.8282 -0.4567  0.1399
 1898SOL    HW2 7364   0.910   5.186   5.336 -0.9848  1.8829 -0.0900
 1898SOL    HW3 7365   0.968   5.118   5.215  2.1671 -1.5201  3.0702
 1898SOL    MW4 7366   0.946   5.191   5.257  0.7656 -0.2883  0.4962
 1899SOL     OW 7367   3.489   3.164   0.687  0.1476 -0.4014  0.2216
 1899SOL    HW2 7368   3.497   3.249   0.732 -0.6727  0.5725 -1.3840
 1899SOL    HW3 7369   3.430   3.182   0.614 -0.6348 -2.5516  0.2633
 1899SOL    MW4 7370   3.482   3.178   0.683 -0.0639 -0.5566  0.0153
 1900SOL     OW 7371   4.903   4.759   1.841 -0.3389  0.0910  0.0327
 1900SOL    HW2 7372   4.846   4.836   1.840  0.2517  0.5349 -0.7236
 1900SOL    HW3 7373   4.885   4.715   1.759 -0.0154 -0.0837  0.0556
 1900SOL    MW4 7374   4.893   4.764   1.830 -0.2183  0.1265 -0.0640
 1901SOL     OW 7375   5.387   3.638   5.821  0.0780 -0.2466  0.3989
 1901SOL    HW2 7376   5.308   3.616   5.870 -0.2872  2.9389  1.4806
 1901SOL    HW3 7377   5.450   3.663   5.889  1.8468 -2.0212 -0.4818
 1901SOL    MW4 7378   5.385   3.638   5.837  0.2632 -0.0605  0.4254
 1902SOL     OW 7379   2.728   2.190   4.035 -0.1191 -0.5407 -0.3963
 1902SOL    HW2 7380   2.729   2.225   3.945 -1.8431  1.5579  0.3099
 1902SOL    HW3 7381   2.711   2.097   4.025  1.1251 -0.6182 -2.2824
 1902SOL    MW4 7382   2.726   2.183   4.022 -0.1824 -0.2740 -0.5520
 1903SOL     OW 7383   2.709   3.519   0.679  0.2724  0.2559  0.0494
 1903SOL    HW2 7384   2.724   3.479   0.593 -0.3365  0.0053  0.0550
 1903SOL    HW3 7385   2.615   3.512   0.693  0.4410 -0.3073  1.0245
 1903SOL    MW4 7386   2.699   3.512   0.670  0.2143  0.1486  0.1788
 1904SOL     OW 7387   5.795   1.777   2.784 -0.2038  0.2031  0.1962
 1904SOL    HW2 7388   5.878   1.743   2.816 -1.0702 -2.2900 -0.0061
 1904SOL    HW3 7389   5.819   1.840   2.716  1.5042  0.6875  1.1798
 1904SOL    MW4 7390   5.809   1.781   2.779 -0.0928 -0.0619  0.2993
 1905SOL     OW 7391   0.077   2.459   2.786  0.2890 -0.1623  0.0560
 1905SOL    HW2 7392   0.121   2.543   2.786  0.2909 -0.1634  0.0503
 1905SOL    HW3 7393   0.134   2.401   2.735  1.1246 -0.6045  1.4316
 1905SOL    MW4 7394   0.090   2.462   2.779  0.3995 -0.2208  0.2367
 1906SOL     OW 7395   0.939   4.888   3.002  0.1667  0.1454  0.4373
 1906SOL    HW2 7396   0.897   4.912   3.085  1.5194  1.2302  0.8636
 1906SOL    HW3 7397   0.983   4.968   2.974 -0.9324  0.0399 -1.7975
 1906SOL    MW4 7398   0.940   4.902   3.010  0.2001  0.2747  0.1987
 1907SOL     OW 7399   0.310   4.549   2.392  0.0944 -0.0622 -0.1121
 1907SOL    HW2 7400   0.276   4.620   2.447  0.7434 -0.0836  0.3305
 1907SOL    HW3 7401   0.401   4.572   2.377 -0.1721  0.1492 -1.5369
 1907SOL    MW4 7402   0.317   4.562   2.398  0.1449 -0.0372 -0.2417
 1908SOL     OW 7403   0.207   3.177   2.936  0.3751 -0.0026  0.2561
 1908SOL    HW2 7404   0.288   3.225   2.919  0.4481 -0.5158 -0.9160
 1908SOL    HW3 7405   0.235   3.088   2.955  0.0510 -0.4168 -1.1279
 1908SOL    MW4 7406   0.221   3.172   2.936  0.3420 -0.1250 -0.0812
 1909SOL     OW 7407   0.799   5.363   4.521 -0.0501  0.2281 -0.1191
 1909SOL    HW2 7408   0.722   5.342   4.574  0.5139 -1.6153  0.0470
 1909SOL    HW3 7409   0.850   5.422   4.576 -0.3056 -0.3005  0.7144
 1909SOL    MW4 7410   0.796   5.368   4.535 -0.0094 -0.0848  0.0128
 1910SOL     OW 7411   0.906   2.516   1.450 -0.2229 -0.2716 -1.1264
 1910SOL    HW2 7412   0.827   2.467   1.429 -0.4536  0.1023 -1.1277
 1910SOL    HW3 7413   0.911   2.585   1.383  0.0466 -0.2303 -1.0661
 1910SOL    MW4 7414   0.896   2.519   1.438 -0.2178 -0.2168 -1.1186
 1911SOL     OW 7415   1.347   5.942   5.315  0.2174  0.2485  0.5470
 1911SOL    HW2 7416   1.347   6.021   5.369 -1.6683  1.9875 -1.7731
 1911SOL    HW3 7417   1.408   5.962   5.243 -1.9076  0.6131 -1.2573
 1911SOL    MW4 7418   1.355   5.955   5.313 -0.3118  0.5261  0.0028
 1912SOL     OW 7419   3.598   6.119   2.784 -0.4338 -0.5616  0.1102
 1912SOL    HW2 7420   3.672   6.178   2.763 -1.0026  0.3346  0.5460
 1912SOL    HW3 7421   3.612   6.043   2.728  1.9302 -1.3192  1.5766
 1912SOL    MW4 7422   3.610   6.117   2.774 -0.1969 -0.5434  0.3612
 1913SOL     OW 7423   3.822   4.959   1.772 -0.2868  0.0008  0.2988
 1913SOL    HW2 7424   3.851   4.888   1.714 -3.0223  1.1865 -2.8076
 1913SOL    HW3 7425   3.743   4.924   1.814 -1.3681  0.9621 -0.8782
 1913SOL    MW4 7426   3.816   4.945   1.770 -0.7904  0.2841 -0.2664
 1914SOL     OW 7427   4.435   0.217   1.400  0.5341 -0.3546  0.2709
 1914SOL    HW2 7428   4.380   0.143   1.424  0.3603  0.3515  2.1837
 1914SOL    HW3 7429   4.524   0.187   1.418  0.6573 -0.7650 -0.8782
 1914SOL    MW4 7430   4.440   0.203   1.405  0.5274 -0.3156  0.3717
 1915SOL     OW 7431   2.479   5.770   0.030  0.9460 -0.1768  0.0983
 1915SOL    HW2 7432   2.514   5.690   0.072 -0.6087 -0.3668  1.1237
 1915SOL    HW3 7433   2.403   5.739  -0.019  0.4901  0.6299  0.2888
 1915SOL    MW4 7434   2.474   5.755   0.029  0.6807 -0.0954  0.2587
 1916SOL     OW 7435   3.738   5.112   3.796 -0.3306 -0.3058 -0.3265
 1916SOL    HW2 7436   3.761   5.144   3.883  2.0976  0.5971 -1.2059
 1916SOL    HW3 7437   3.677   5.177   3.761  0.3037  0.4502 -0.0508
 1916SOL    MW4 7438   3.733   5.125   3.802  0.0735 -0.0869 -0.4061
 1917SOL     OW 7439   5.916   4.787   5.970 -0.1369 -0.1606  0.3085
 1917SOL    HW2 7440   5.893   4.708   5.920  0.1459 -0.7468  1.0802
 1917SOL    HW3 7441   5.870   4.777   6.053 -0.4062  0.6855  0.2618
 1917SOL    MW4 7442   5.907   4.775   5.974 -0.1351 -0.1263  0.4041
 1918SOL     OW 7443   1.447   3.807   1.717  0.9881 -0.1153  0.6426
 1918SOL    HW2 7444   1.412   3.832   1.802  0.3364  0.1351  0.3062
 1918SOL    HW3 7445   1.492   3.724   1.733  0.8511 -0.0779  1.2255
 1918SOL    MW4 7446   1.449   3.799   1.730  0.8840 -0.0773  0.6751
 1919SOL     OW 7447   1.541   2.014   2.243  0.1127 -0.4317  0.1356
 1919SOL    HW2 7448   1.473   2.074   2.273  0.4206 -0.1172  0.2088
 1919SOL    HW3 7449   1.582   1.981   2.323  0.1567 -0.4911  0.0891
 1919SOL    MW4 7450   1.538   2.018   2.257  0.1591 -0.3981  0.1392
 1920SOL     OW 7451   4.940   4.453   4.898 -0.7898  0.5895 -0.3227
 1920SOL    HW2 7452   4.884   4.388   4.855  0.5798 -0.3112 -0.8157
 1920SOL    HW3 7453   5.028   4.433   4.867 -0.2071  2.1170  0.2532
 1920SOL    MW4 7454   4.944   4.442   4.888 -0.5322  0.6722 -0.3118
 1921SOL     OW 7455   3.591   5.702   2.945 -0.0991 -0.2609 -0.3298
 1921SOL    HW2 7456   3.583   5.724   3.037  1.0163  0.0582 -0.2950
 1921SOL    HW3 7457   3.684   5.687   2.931 -0.4876 -2.7456 -0.8683
 1921SOL    MW4 7458   3.602   5.703   2.955 -0.0032 -0.5466 -0.3963
 1922SOL     OW 7459   3.007   2.102   4.062  0.3682 -0.6506 -0.6150
 1922SOL    HW2 7460   2.952   2.073   3.988  0.3836 -0.2043 -0.8042
 1922SOL    HW3 7461   3.090   2.056   4.048  0.0500 -1.3230 -0.3310
 1922SOL    MW4 7462   3.011   2.092   4.050  0.3282 -0.6804 -0.6025
 1923SOL     OW 7463   4.342   5.456   3.097 -0.0537 -0.3937  0.9480
 1923SOL    HW2 7464   4.331   5.482   3.189  0.9407 -0.0469  0.9848
 1923SOL    HW3 7465   4.281   5.383   3.085  0.3829 -0.9755  2.1131
 1923SOL    MW4 7466   4.333   5.450   3.108  0.1351 -0.4247  1.1066
 1924SOL     OW 7467   2.615   3.233   3.432  0.5516  0.1292  0.2779
 1924SOL    HW2 7468   2.698   3.260   3.393  1.6330 -4.1980 -0.9763
 1924SOL    HW3 7469   2.639   3.200   3.518  1.0823 -4.3887 -1.3246
 1924SOL    MW4 7470   2.629   3.232   3.438  0.7643 -1.0378 -0.0990
 1925SOL     OW 7471   3.201   0.534   0.265  0.3690  0.6688  0.2001
 1925SOL    HW2 7472   3.158   0.487   0.193  0.7995  1.1516 -0.3831
 1925SOL    HW3 7473   3.291   0.543   0.236  0.4737  1.1408  0.6756
 1925SOL    MW4 7474   3.207   0.529   0.252  0.4396  0.7948  0.1859
 1926SOL     OW 7475   1.935   0.470   4.256  0.1477 -0.4672  0.2948
 1926SOL    HW2 7476   2.029   0.471   4.271 -0.0282 -2.3920  1.9130
 1926SOL    HW3 7477   1.901   0.403   4.316 -2.1530 -0.4450 -0.8585
 1926SOL    MW4 7478   1.943   0.461   4.266 -0.1790 -0.7183  0.3562
 1927SOL     OW 7479   2.085   1.501   2.321  0.0439  0.1486 -0.1647
 1927SOL    HW2 7480   2.133   1.575   2.358  2.1684 -1.1614 -0.0710
 1927SOL    HW3 7481   2.076   1.440   2.394 -0.4951 -0.2449 -0.5539
 1927SOL    MW4 7482   2.090   1.503   2.336  0.2531 -0.0761 -0.2037
 1928SOL     OW 7483   4.118   5.542   2.564 -0.2124  0.2151  0.8297
 1928SOL    HW2 7484   4.213   5.537   2.571 -0.2944 -1.2191  1.1593
 1928SOL    HW3 7485   4.097   5.632   2.589  1.0171  0.4264  1.1582
 1928SOL    MW4 7486   4.127   5.553   2.568 -0.0610  0.0537  0.9165
 1929SOL     OW 7487   3.426   5.639   6.398  0.1646 -0.1245 -0.3296
 1929SOL    HW2 7488   3.331   5.630   6.405  0.0001  0.8784 -1.0469
 1929SOL    HW3 7489   3.454   5.672   6.483 -0.0045 -1.2361  0.1789
 1929SOL    MW4 7490   3.417   5.642   6.410  0.1206 -0.1389 -0.3571
 1930SOL     OW 7491   2.434   3.534   0.681  0.0506  0.6854 -0.2439
 1930SOL    HW2 7492   2.355   3.506   0.728  0.2961 -1.1576 -0.8419
 1930SOL    HW3 7493   2.401   3.577   0.602 -0.3481  0.9645  0.0703
 1930SOL    MW4 7494   2.419   3.536   0.676  0.0304  0.4791 -0.2814
 1931SOL     OW 7495   2.537   4.694   3.187  0.4839  0.0972  0.4696
 1931SOL    HW2 7496   2.559   4.689   3.094 -3.2469 -0.2899 -0.5433
 1931SOL    HW3 7497   2.585   4.771   3.218  1.1274  0.7912 -2.0019
 1931SOL    MW4 7498   2.547   4.704   3.178  0.0766  0.1377  0.0099
 1932SOL     OW 7499   5.686   6.148   4.269  0.0124 -0.3329  0.0664
 1932SOL    HW2 7500   5.746   6.164   4.342 -0.2139 -1.3208  0.4794
 1932SOL    HW3 7501   5.740   6.160   4.190  0.5419 -0.4203  0.4149
 1932SOL    MW4 7502   5.701   6.152   4.268  0.0524 -0.4748  0.1669
 1933SOL     OW 7503   5.657   5.699   0.279  0.1812 -0.1700  0.1608
 1933SOL    HW2 7504   5.709   5.656   0.211 -1.1513 -3.3127  0.9816
 1933SOL    HW3 7505   5.723   5.739   0.337  1.4336  0.1843 -1.4331
 1933SOL    MW4 7506   5.673   5.699   0.278  0.1706 -0.5379  0.0588
 1934SOL     OW 7507   4.926   4.006   4.716  0.0499 -0.6265 -0.3299
 1934SOL    HW2 7508   4.904   4.098   4.727 -0.7668 -1.0130  1.8854
 1934SOL    HW3 7509   4.995   4.005   4.650 -0.8113  1.4275 -1.3483
 1934SOL    MW4 7510   4.932   4.018   4.709 -0.1715 -0.4065 -0.1720
 1935SOL     OW 7511   2.802   0.156   4.201  0.2497 -0.4140 -0.2373
 1935SOL    HW2 7512   2.722   0.166   4.150  0.2532 -2.0685 -0.6283
 1935SOL    HW3 7513   2.834   0.068   4.180  0.9568 -0.6690  1.6341
 1935SOL    MW4 7514   2.796   0.145   4.192  0.3435 -0.6660 -0.0420
 1936SOL     OW 7515   2.553   6.220   2.623 -0.3066  0.5597 -0.2470
 1936SOL    HW2 7516   2.582   6.138   2.664  1.0698  0.4434 -1.3632
 1936SOL    HW3 7517   2.536   6.279   2.697  0.5417 -0.1486  0.5424
 1936SOL    MW4 7518   2.555   6.217   2.638 -0.0130  0.4509 -0.2901
 1937SOL     OW 7519   1.282   3.634   3.659  0.0758  0.3667  0.0493
 1937SOL    HW2 7520   1.363   3.587   3.641  1.4485  2.4027  0.5915
 1937SOL    HW3 7521   1.247   3.592   3.738  1.3659  0.3629  0.6480
 1937SOL    MW4 7522   1.288   3.622   3.667  0.4271  0.6348  0.1998
 1938SOL     OW 7523   2.593   5.340   4.166 -0.6485 -0.4027  0.2902
 1938SOL    HW2 7524   2.671   5.344   4.222  1.0756 -5.2462 -1.2001
 1938SOL    HW3 7525   2.627   5.348   4.077 -1.9314 -1.6327 -0.3523
 1938SOL    MW4 7526   2.608   5.341   4.162 -0.5903 -1.2041  0.0088
 1939SOL     OW 7527   1.394   3.351   1.942  0.2535  0.1373  0.0594
 1939SOL    HW2 7528   1.439   3.380   1.863  0.3424 -0.7013 -0.2071
 1939SOL    HW3 7529   1.361   3.432   1.982  2.2707  0.8371  0.4478
 1939SOL    MW4 7530   1.396   3.366   1.937  0.5313  0.1189  0.0755
 1940SOL     OW 7531   0.897   0.764   6.064 -0.2013  0.0092  0.3065
 1940SOL    HW2 7532   0.910   0.849   6.022 -1.3823  1.0661  1.9741
 1940SOL    HW3 7533   0.943   0.703   6.007  1.7852  1.9072 -0.3089
 1940SOL    MW4 7534   0.905   0.767   6.051 -0.0950  0.3991  0.4453
 1941SOL     OW 7535   2.796   2.751   1.577  0.4718 -0.0510 -0.5509
 1941SOL    HW2 7536   2.702   2.756   1.560  0.4400  2.7119 -0.0176
 1941SOL    HW3 7537   2.823   2.667   1.539 -1.9847 -0.3873 -1.7542
 1941SOL    MW4 7538   2.787   2.741   1.570  0.1435  0.2692 -0.6393
 1942SOL     OW 7539   3.625   5.062   5.118 -0.2281 -0.2310 -0.1574
 1942SOL    HW2 7540   3.617   4.978   5.163  0.8538 -0.5544 -0.5306
 1942SOL    HW3 7541   3.590   5.045   5.030 -1.7275  0.2249  0.3184
 1942SOL    MW4 7542   3.619   5.049   5.112 -0.2832 -0.2136 -0.1439
 1943SOL     OW 7543   5.490   4.180   0.932 -0.3190  0.0420  0.6883
 1943SOL    HW2 7544   5.492   4.203   0.839  0.1114  0.5920  0.8222
 1943SOL    HW3 7545   5.553   4.108   0.940  1.0925  1.2347  0.8434
 1943SOL    MW4 7546   5.499   4.174   0.921 -0.0760  0.2719  0.7265
 1944SOL     OW 7547   5.244   1.514   0.770  0.2550  0.7561  0.2730
 1944SOL    HW2 7548   5.328   1.560   0.774  1.8384 -1.8873  0.1239
 1944SOL    HW3 7549   5.238   1.470   0.855 -0.8498  0.6667  0.1580
 1944SOL    MW4 7550   5.254   1.514   0.782  0.3181  0.3956  0.2381
 1945SOL     OW 7551   3.126   6.023   4.054 -0.0363 -0.3397  0.0472
 1945SOL    HW2 7552   3.175   6.105   4.054  2.2479 -1.5880  0.8793
 1945SOL    HW3 7553   3.035   6.048   4.040  0.5092  2.3575  0.8464
 1945SOL    MW4 7554   3.121   6.037   4.053  0.3370 -0.1486  0.2624
 1946SOL     OW 7555   4.119   4.118   3.747  0.8919  0.3052  0.3573
 1946SOL    HW2 7556   4.145   4.112   3.839  0.9486  0.0209  0.3233
 1946SOL    HW3 7557   4.023   4.114   3.749  0.8048  1.7466  0.5130
 1946SOL    MW4 7558   4.110   4.117   3.759  0.8879  0.4578  0.3733
 1947SOL     OW 7559   5.700   1.482   4.520 -0.2845  0.0489  0.6167
 1947SOL    HW2 7560   5.767   1.546   4.497 -0.2240  0.2022  1.2185
 1947SOL    HW3 7561   5.637   1.531   4.573 -1.3713  0.1488 -0.7011
 1947SOL    MW4 7562   5.700   1.497   4.524 -0.4199  0.0823  0.5223
 1948SOL     OW 7563   5.356   4.965   1.642  0.0915 -0.0629 -0.0919
 1948SOL    HW2 7564   5.283   5.025   1.660 -1.5334 -1.9981  0.1146
 1948SOL    HW3 7565   5.421   5.019   1.597 -0.7768  2.1171  1.1129
 1948SOL    MW4 7566   5.355   4.980   1.639 -0.2375 -0.0306  0.0943
 1949SOL     OW 7567   4.626   1.885   4.120  0.3258  0.2400 -0.4005
 1949SOL    HW2 7568   4.575   1.908   4.198  0.1959 -2.7753  0.5257
 1949SOL    HW3 7569   4.682   1.961   4.104  0.2266  1.0323  2.5182
 1949SOL    MW4 7570   4.626   1.898   4.128  0.2956 -0.0533  0.1068
 1950SOL     OW 7571   3.359   6.119   1.834 -0.2379 -0.7198 -0.6207
 1950SOL    HW2 7572   3.429   6.133   1.771  0.9143  0.1510  0.8004
 1950SOL    HW3 7573   3.371   6.028   1.864 -0.7056 -1.0888 -1.5072
 1950SOL    MW4 7574   3.370   6.109   1.830 -0.1476 -0.6536 -0.5502
 1951SOL     OW 7575   3.232   5.408   2.569  0.4735  0.2321  0.0550
 1951SOL    HW2 7576   3.211   5.500   2.584 -1.1370 -0.0064 -0.6025
 1951SOL    HW3 7577   3.307   5.391   2.626  0.1367  1.6732  0.9621
 1951SOL    MW4 7578   3.239   5.418   2.578  0.2166  0.3908  0.0879
 1952SOL     OW 7579   3.631   3.428   3.303 -0.6669  0.1375 -0.2137
 1952SOL    HW2 7580   3.627   3.444   3.397 -0.2728  0.9083 -0.3166
 1952SOL    HW3 7581   3.544   3.394   3.281 -0.9054  0.3656  0.3577
 1952SOL    MW4 7582   3.619   3.426   3.312 -0.6464  0.2693 -0.1519
 1953SOL     OW 7583   3.869   4.205   2.917  0.1703  0.3912 -0.3721
 1953SOL    HW2 7584   3.905   4.151   2.846  0.2554  0.0076 -0.0424
 1953SOL    HW3 7585   3.904   4.292   2.900  1.0739  0.0814 -0.1965
 1953SOL    MW4 7586   3.879   4.209   2.905  0.3007  0.2997 -0.3055
 1954SOL     OW 7587   3.435   1.784   0.556 -0.0324 -0.4001  0.8822
 1954SOL    HW2 7588   3.501   1.718   0.536  1.1950  1.5880 -2.6993
 1954SOL    HW3 7589   3.372   1.778   0.484  0.1991  2.2994  0.3231
 1954SOL    MW4 7590   3.435   1.775   0.544  0.1601  0.2184  0.3359
 1955SOL     OW 7591   1.144   6.282   2.660  0.5387  0.0459  0.0166
 1955SOL    HW2 7592   1.053   6.311   2.671  0.7195 -0.2697  3.5396
 1955SOL    HW3 7593   1.140   6.187   2.672  1.4087  0.1571  1.3682
 1955SOL    MW4 7594   1.131   6.274   2.663  0.6774  0.0189  0.6597
 1956SOL     OW 7595   4.163   2.121   2.737  0.7017 -0.0410  0.7330
 1956SOL    HW2 7596   4.168   2.211   2.769  0.9106  1.3062 -2.6958
 1956SOL    HW3 7597   4.084   2.086   2.779 -0.1584  2.1933  1.1675
 1956SOL    MW4 7598   4.153   2.128   2.747  0.6158  0.4315  0.3379
 1957SOL     OW 7599   0.556   2.582   0.137 -0.1821 -0.3770 -0.2624
 1957SOL    HW2 7600   0.584   2.592   0.046 -0.6342 -0.9485 -0.4748
 1957SOL    HW3 7601   0.610   2.643   0.186 -0.0223  0.0270 -0.9340
 1957SOL    MW4 7602   0.567   2.591   0.132 -0.2207 -0.3991 -0.3790
 1958SOL     OW 7603   3.150   1.283   0.506  0.0574 -0.1087  0.5844
 1958SOL    HW2 7604   3.174   1.374   0.488 -0.2881  0.1634  1.4500
 1958SOL    HW3 7605   3.066   1.271   0.462 -0.2263  0.2030  1.0289
 1958SOL    MW4 7606   3.142   1.293   0.498 -0.0256 -0.0317  0.7572
 1959SOL     OW 7607   5.466   1.565   0.397 -0.0651  0.3781 -0.4685
 1959SOL    HW2 7608   5.410   1.499   0.438  0.3673  0.9199  1.0450
 1959SOL    HW3 7609   5.470   1.637   0.461  0.3510  1.4124 -1.6134
 1959SOL    MW4 7610   5.459   1.566   0.411  0.0468  0.5861 -0.4199
 1960SOL     OW 7611   6.428   5.888   1.113 -0.0923 -0.1799 -0.1055
 1960SOL    HW2 7612   6.371   5.952   1.155  0.1461 -0.7125  1.0601
 1960SOL    HW3 7613   6.507   5.886   1.167 -0.2404 -1.7178  0.0953
 1960SOL    MW4 7614   6.431   5.896   1.125 -0.0804 -0.4531  0.0748
 1961SOL     OW 7615   6.151   4.735   5.473  0.1073 -0.4334  0.0752
 1961SOL    HW2 7616   6.106   4.672   5.417 -0.6737  0.1448  0.0370
 1961SOL    HW3 7617   6.121   4.715   5.561  0.0530 -0.2720  0.0930
 1961SOL    MW4 7618   6.141   4.724   5.477 -0.0029 -0.3358  0.0725
 1962SOL     OW 7619   0.503   4.239   6.173  0.0291 -0.1928  0.0343
 1962SOL    HW2 7620   0.468   4.327   6.180 -0.8183 -0.5035 -0.1805
 1962SOL    HW3 7621   0.426   4.183   6.159  0.5359 -0.9754  0.2692
 1962SOL    MW4 7622   0.488   4.243   6.172 -0.0158 -0.3370  0.0369
 1963SOL     OW 7623   4.269   0.550   4.201 -0.6376  0.3507 -0.0525
 1963SOL    HW2 7624   4.242   0.472   4.152 -0.3352  0.3771 -0.2651
 1963SOL    HW3 7625   4.295   0.612   4.133 -1.2597  0.7860  0.0979
 1963SOL    MW4 7626   4.269   0.548   4.186 -0.6798  0.4116 -0.0607
 1964SOL     OW 7627   5.477   4.961   3.215  0.2954 -0.0246  0.6033
 1964SOL    HW2 7628   5.435   4.875   3.220  0.1110  0.0813  0.8560
 1964SOL    HW3 7629   5.552   4.954   3.275  0.9831 -0.4028 -0.2692
 1964SOL    MW4 7630   5.481   4.949   3.224  0.3618 -0.0605  0.5215
 1965SOL     OW 7631   1.596   5.611   5.132  0.5277  0.1106  0.4713
 1965SOL    HW2 7632   1.572   5.522   5.109  0.6356  0.3565 -0.6960
 1965SOL    HW3 7633   1.690   5.607   5.152  1.1931  0.3572 -2.1828
 1965SOL    MW4 7634   1.605   5.599   5.131  0.6297  0.1756 -0.0329
 1966SOL     OW 7635   4.908   3.699   4.203  0.4693  1.0614 -0.1972
 1966SOL    HW2 7636   4.917   3.616   4.157  2.9423  0.4148  1.1988
 1966SOL    HW3 7637   4.889   3.673   4.294  0.6537  2.0269  0.1239
 1966SOL    MW4 7638   4.907   3.684   4.209  0.8199  1.1035  0.0294
 1967SOL     OW 7639   3.884   1.478   3.301 -0.1197  0.1697  0.6133
 1967SOL    HW2 7640   3.829   1.535   3.355  0.1086  0.7187  0.2776
 1967SOL    HW3 7641   3.895   1.526   3.219 -0.0564 -0.4373  0.2621
 1967SOL    MW4 7642   3.878   1.492   3.297 -0.0812  0.1620  0.5226
 1968SOL     OW 7643   4.501   3.011   0.102  0.0495 -0.0337  0.4906
 1968SOL    HW2 7644   4.442   3.033   0.174 -0.7841  3.3377 -1.0122
 1968SOL    HW3 7645   4.480   2.920   0.080 -0.2230 -0.9284  3.8623
 1968SOL    MW4 7646   4.490   3.002   0.109 -0.0964  0.2931  0.7372
 1969SOL     OW 7647   4.339   5.193   1.015  0.1470 -0.0297 -0.0579
 1969SOL    HW2 7648   4.412   5.242   1.052  1.9398 -1.9367 -0.8550
 1969SOL    HW3 7649   4.319   5.127   1.081 -0.0558 -0.2463 -0.3344
 1969SOL    MW4 7650   4.346   5.191   1.029  0.3568 -0.3099 -0.1995
 1970SOL     OW 7651   3.240   5.045   1.890  0.7998  0.2575  0.0509
 1970SOL    HW2 7652   3.241   5.048   1.795  2.8150 -1.4626 -0.0535
 1970SOL    HW3 7653   3.307   5.107   1.917  3.0916 -2.0440  0.0838
 1970SOL    MW4 7654   3.249   5.053   1.881  1.3681 -0.2731  0.0415
 1971SOL     OW 7655   1.299   3.419   0.480  0.3848 -0.6566  0.4259
 1971SOL    HW2 7656   1.335   3.347   0.428 -0.8467 -1.1663  0.2447
 1971SOL    HW3 7657   1.375   3.473   0.502  0.8303  0.4508 -3.1954
 1971SOL    MW4 7658   1.314   3.416   0.476  0.2811 -0.5777 -0.0758
 1972SOL     OW 7659   5.951   3.488   6.349  0.1701  0.3673  0.1160
 1972SOL    HW2 7660   6.044   3.502   6.366  0.5112 -1.1566 -0.3520
 1972SOL    HW3 7661   5.912   3.481   6.436  0.4831  1.0217  0.3170
 1972SOL    MW4 7662   5.958   3.489   6.363  0.2564  0.2526  0.0807
 1973SOL     OW 7663   1.509   3.005   2.640  0.0697 -0.4102  0.3555
 1973SOL    HW2 7664   1.487   2.938   2.576  0.1395  0.5220 -0.6786
 1973SOL    HW3 7665   1.604   3.001   2.648  0.3216  0.9828 -1.3723
 1973SOL    MW4 7666   1.519   2.996   2.633  0.1121 -0.1034 -0.0089
 1974SOL     OW 7667   3.088   5.023   6.153 -0.4249  0.4301  0.1568
 1974SOL    HW2 7668   3.034   5.080   6.098  0.0999 -0.4608 -1.3281
 1974SOL    HW3 7669   3.133   5.083   6.213  0.4744  1.6758 -1.6740
 1974SOL    MW4 7670   3.087   5.038   6.154 -0.2370  0.4769 -0.2807
 1975SOL     OW 7671   0.593   0.237   4.639 -0.0948  0.1872 -0.2458
 1975SOL    HW2 7672   0.655   0.251   4.711 -0.4796  0.9577 -0.0669
 1975SOL    HW3 7673   0.594   0.142   4.626  1.3060  0.1973 -0.4059
 1975SOL    MW4 7674   0.602   0.226   4.647  0.0393  0.2902 -0.2433
 1976SOL     OW 7675   3.754   1.492   3.975  0.4854 -0.2742  0.1640
 1976SOL    HW2 7676   3.756   1.396   3.978  1.9139 -0.2601  0.7386
 1976SOL    HW3 7677   3.828   1.515   3.918 -1.8577  0.4556 -2.8054
 1976SOL    MW4 7678   3.764   1.482   3.968  0.3647 -0.1761 -0.1520
 1977SOL     OW 7679   0.184   4.748   4.154 -0.1480  0.2110 -0.2359
 1977SOL    HW2 7680   0.211   4.660   4.183 -0.5101  0.3657  0.6003
 1977SOL    HW3 7681   0.195   4.746   4.059  2.4813  0.1719  0.0135
 1977SOL    MW4 7682   0.189   4.736   4.145  0.1511  0.2263 -0.0926
 1978SOL     OW 7683   5.673   4.004   6.169  0.1771  0.2990 -0.3531
 1978SOL    HW2 7684   5.642   3.934   6.226 -0.1981  1.5817  1.0852
 1978SOL    HW3 7685   5.768   3.995   6.168  0.0693 -1.0467 -1.3228
 1978SOL    MW4 7686   5.681   3.994   6.176  0.1133  0.2907 -0.2913
 1979SOL     OW 7687   4.444   4.223   3.529 -0.2558 -0.0795  0.1224
 1979SOL    HW2 7688   4.532   4.257   3.512 -0.3670 -0.1546 -0.6235
 1979SOL    HW3 7689   4.406   4.210   3.443 -0.6095 -1.0907  0.4160
 1979SOL    MW4 7690   4.450   4.226   3.516 -0.3172 -0.2228  0.0627
 1980SOL     OW 7691   0.536   1.703   2.694 -0.3385  0.1075 -0.0575
 1980SOL    HW2 7692   0.607   1.718   2.757 -0.6539 -0.0222  0.3298
 1980SOL    HW3 7693   0.459   1.687   2.748 -0.2698 -1.7428 -0.4211
 1980SOL    MW4 7694   0.535   1.703   2.710 -0.3710 -0.1538 -0.0544
 1981SOL     OW 7695   2.251   5.875   2.551  0.9312 -0.6028  0.2439
 1981SOL    HW2 7696   2.323   5.908   2.604  1.8174  0.2472 -1.4210
 1981SOL    HW3 7697   2.234   5.944   2.487 -0.6641 -1.2390 -0.0663
 1981SOL    MW4 7698   2.258   5.888   2.549  0.8376 -0.5746 -0.0167
 1982SOL     OW 7699   4.984   3.122   0.252  0.0123 -0.0595 -0.1190
 1982SOL    HW2 7700   4.948   3.180   0.185 -0.0686 -0.0126 -0.0348
 1982SOL    HW3 7701   4.938   3.039   0.239  0.2117 -0.1426 -0.3154
 1982SOL    MW4 7702   4.973   3.119   0.241  0.0280 -0.0642 -0.1338
 1983SOL     OW 7703   1.458   1.293   2.233  0.1888  0.1297 -0.3820
 1983SOL    HW2 7704   1.462   1.208   2.277 -1.4148  0.8810  1.3624
 1983SOL    HW3 7705   1.369   1.297   2.197  0.5101  0.7611 -1.1199
 1983SOL    MW4 7706   1.447   1.282   2.234  0.0196  0.3121 -0.2492
 1984SOL     OW 7707   0.987   5.439   3.278  0.4141  0.0120  0.3460
 1984SOL    HW2 7708   0.948   5.520   3.245  0.8261 -0.1432 -0.5341
 1984SOL    HW3 7709   1.047   5.411   3.209  1.1200 -0.4426  1.1365
 1984SOL    MW4 7710   0.990   5.446   3.265  0.5616 -0.0684  0.3342
 1985SOL     OW 7711   1.695   4.751   2.501  0.1441  0.5044  0.7160
 1985SOL    HW2 7712   1.647   4.766   2.419  0.0819  0.5093  0.7538
 1985SOL    HW3 7713   1.644   4.796   2.568  0.8922  1.6336  0.5528
 1985SOL    MW4 7714   1.682   4.759   2.499  0.2346  0.6540  0.6995
 1986SOL     OW 7715   4.213   0.210   0.491 -0.1499  0.4372  0.5912
 1986SOL    HW2 7716   4.173   0.134   0.533 -0.2796 -0.4009 -0.9595
 1986SOL    HW3 7717   4.141   0.272   0.481 -0.1731  0.5387  1.3499
 1986SOL    MW4 7718   4.198   0.208   0.495 -0.1700  0.3400  0.4867
 1987SOL     OW 7719   3.680   1.770   6.313 -0.3985  0.5281  0.6863
 1987SOL    HW2 7720   3.610   1.795   6.252 -0.0595 -3.2987 -1.5563
 1987SOL    HW3 7721   3.759   1.808   6.275 -0.4990 -0.0064 -0.0874
 1987SOL    MW4 7722   3.681   1.778   6.300 -0.3670 -0.0473  0.2883
 1988SOL     OW 7723   1.011   1.434   3.553  0.6846  0.5795  0.2876
 1988SOL    HW2 7724   1.019   1.351   3.506 -0.2598 -0.0515  1.2056
 1988SOL    HW3 7725   0.967   1.492   3.491  1.2784  0.3774 -0.3320
 1988SOL    MW4 7726   1.006   1.430   3.538  0.6383  0.4696  0.3270
 1989SOL     OW 7727   4.647   0.662   1.049  0.7265 -0.2777  0.1076
 1989SOL    HW2 7728   4.719   0.718   1.080 -0.3838  0.7223  0.9806
 1989SOL    HW3 7729   4.571   0.689   1.101 -0.8038  0.1283 -2.1786
 1989SOL    MW4 7730   4.646   0.673   1.060  0.3781 -0.0922 -0.0789
 1990SOL     OW 7731   2.657   2.277   4.380 -1.1824  0.1541  0.6514
 1990SOL    HW2 7732   2.634   2.370   4.379  0.7796  0.6772  0.9887
 1990SOL    HW3 7733   2.748   2.274   4.351 -0.9551 -1.5813  1.4331
 1990SOL    MW4 7734   2.666   2.289   4.376 -0.8936 -0.0058  0.7990
 1991SOL     OW 7735   1.135   2.420   0.384 -0.3450  0.2354  0.5688
 1991SOL    HW2 7736   1.122   2.515   0.375 -0.3219  0.2371  0.5521
 1991SOL    HW3 7737   1.069   2.381   0.327  2.4444  0.2847 -3.1446
 1991SOL    MW4 7738   1.125   2.428   0.375  0.0261  0.2421  0.0766
 1992SOL     OW 7739   3.338   4.667   3.164 -0.3865  0.4006 -0.7895
 1992SOL    HW2 7740   3.292   4.585   3.184 -1.0948  1.0507  0.3546
 1992SOL    HW3 7741   3.299   4.698   3.083  0.0373 -0.4825 -1.3564
 1992SOL    MW4 7742   3.327   4.660   3.156 -0.4241  0.3699 -0.7134
 1993SOL     OW 7743   1.746   5.380   4.138  0.1353  0.1844 -0.3946
 1993SOL    HW2 7744   1.675   5.424   4.092  0.5024  0.9988 -0.2080
 1993SOL    HW3 7745   1.764   5.436   4.214  0.2908 -0.5427  0.1258
 1993SOL    MW4 7746   1.739   5.393   4.142  0.2042  0.1960 -0.3013
 1994SOL     OW 7747   0.821   5.628   3.617  0.4268  0.0400  0.1982
 1994SOL    HW2 7748   0.775   5.624   3.533  2.2267 -2.4802 -0.7804
 1994SOL    HW3 7749   0.873   5.708   3.612 -1.7262  1.5462  0.2696
 1994SOL    MW4 7750   0.822   5.638   3.606  0.3802 -0.0938  0.0785
 1995SOL     OW 7751   3.980   4.615   1.237 -0.2093  0.4158 -0.7130
 1995SOL    HW2 7752   3.950   4.584   1.322 -0.4397  1.2464 -0.4870
 1995SOL    HW3 7753   3.938   4.556   1.174  1.3757 -1.3510 -0.2007
 1995SOL    MW4 7754   3.971   4.603   1.240 -0.0306  0.2923 -0.6156
 1996SOL     OW 7755   3.212   4.052   1.975 -0.7103 -0.3433 -0.2089
 1996SOL    HW2 7756   3.230   4.124   1.915  1.6484  1.1628  2.0946
 1996SOL    HW3 7757   3.264   3.979   1.941 -1.3826 -0.3270 -1.3269
 1996SOL    MW4 7758   3.221   4.052   1.963 -0.4878 -0.1424 -0.0525
 1997SOL     OW 7759   0.145   3.782   0.796  0.0430  0.3658 -0.1786
 1997SOL    HW2 7760   0.052   3.800   0.788 -0.1522  0.7948  2.2344
 1997SOL    HW3 7761   0.159   3.767   0.890  2.3848  0.2428 -0.4747
 1997SOL    MW4 7762   0.135   3.782   0.807  0.3262  0.4062  0.1007
 1998SOL     OW 7763   2.981   0.519   4.590 -0.1835  0.8774 -0.0761
 1998SOL    HW2 7764   2.987   0.611   4.565  0.3999  0.6946 -0.6443
 1998SOL    HW3 7765   3.029   0.472   4.521  0.4031  0.2398  0.7370
 1998SOL    MW4 7766   2.988   0.525   4.577 -0.0291  0.7692 -0.0438
 1999SOL     OW 7767   4.383   3.636   0.671 -0.5455 -0.3977  0.5203
 1999SOL    HW2 7768   4.344   3.585   0.599  0.4596  0.6749 -0.8549
 1999SOL    HW3 7769   4.443   3.696   0.627 -0.7692  1.1264  2.1724
 1999SOL    MW4 7770   4.386   3.638   0.655 -0.4424 -0.0551  0.5568
 2000SOL     OW 7771   1.156   1.878   0.927 -0.5926 -0.0511 -0.1116
 2000SOL    HW2 7772   1.134   1.786   0.941  3.7965 -0.9668  2.7710
 2000SOL    HW3 7773   1.113   1.925   0.998 -1.0897 -0.1974 -0.3136
 2000SOL    MW4 7774   1.148   1.872   0.938 -0.0791 -0.1912  0.2420
 2001SOL     OW 7775   3.501   3.015   5.993  0.3294  0.0486 -0.1244
 2001SOL    HW2 7776   3.497   2.949   5.924  1.4374  0.6201 -0.7585
 2001SOL    HW3 7777   3.564   2.980   6.056  0.1660  0.0463  0.0385
 2001SOL    MW4 7778   3.509   3.001   5.993  0.4540  0.1237 -0.1866
 2002SOL     OW 7779   4.670   2.925   6.244 -0.2282  0.6984  0.7469
 2002SOL    HW2 7780   4.644   2.834   6.232  0.4987  0.5011  0.6731
 2002SOL    HW3 7781   4.751   2.922   6.295 -0.7333  1.3479  1.6336
 2002SOL    MW4 7782   4.677   2.913   6.249 -0.1989  0.7581  0.8542
 2003SOL     OW 7783   3.902   5.500   1.349 -0.4711 -0.1816  0.0561
 2003SOL    HW2 7784   3.922   5.482   1.257 -2.2501  1.3701 -0.6910
 2003SOL    HW3 7785   3.958   5.574   1.372  0.7403 -1.2223  0.5903
 2003SOL    MW4 7786   3.912   5.507   1.340 -0.5460 -0.1142  0.0280
 2004SOL     OW 7787   0.863   3.724   5.294  0.2605  0.0630  0.2108
 2004SOL    HW2 7788   0.782   3.707   5.343  0.4223 -0.1877  0.3886
 2004SOL    HW3 7789   0.894   3.808   5.328 -1.4319  1.6590 -1.8298
 2004SOL    MW4 7790   0.856   3.733   5.305  0.0586  0.2405 -0.0350
 2005SOL     OW 7791   4.970   6.325   6.306  0.8947  0.6836 -0.3200
 2005SOL    HW2 7792   4.950   6.251   6.248 -1.2346  2.2735 -1.7420
 2005SOL    HW3 7793   5.055   6.356   6.276  0.6432  0.3670 -1.4113
 2005SOL    MW4 7794   4.979   6.319   6.294  0.5806  0.8516 -0.6516
 2006SOL     OW 7795   1.884   3.288   6.168 -0.7459  0.2459 -0.8772
 2006SOL    HW2 7796   1.947   3.234   6.214  0.9110  1.6213 -1.4413
 2006SOL    HW3 7797   1.828   3.225   6.121 -0.9862 -1.0567  1.0512
 2006SOL    MW4 7798   1.885   3.273   6.168 -0.5590  0.2555 -0.6972
 2007SOL     OW 7799   1.279   4.728   1.819 -0.3785 -0.1942 -0.0684
 2007SOL    HW2 7800   1.352   4.681   1.861  0.3981  0.6994 -0.3776
 2007SOL    HW3 7801   1.281   4.815   1.857 -0.9127  0.0262 -0.5245
 2007SOL    MW4 7802   1.289   4.733   1.829 -0.3465 -0.0472 -0.1694
 2008SOL     OW 7803   0.954   5.614   5.738 -0.5035  0.2646  0.8471
 2008SOL    HW2 7804   1.023   5.571   5.788 -0.2977 -0.2070  0.1770
 2008SOL    HW3 7805   0.873   5.575   5.770 -0.3285 -0.5278  0.3529
 2008SOL    MW4 7806   0.953   5.603   5.749 -0.4533  0.0978  0.6935
 2009SOL     OW 7807   6.297   6.160   1.554  0.1374 -0.5743 -0.0298
 2009SOL    HW2 7808   6.249   6.120   1.627  0.2767 -0.8923 -0.1101
 2009SOL    HW3 7809   6.358   6.221   1.597  0.5059 -1.0594  0.1546
 2009SOL    MW4 7810   6.299   6.163   1.570  0.2044 -0.6802 -0.0161
 2010SOL     OW 7811   4.642   4.792   0.038  0.8012  0.7729 -0.0191
 2010SOL    HW2 7812   4.709   4.740   0.082  0.5790 -1.0620 -1.6693
 2010SOL    HW3 7813   4.562   4.740   0.047  0.4680  1.0288 -1.3244
 2010SOL    MW4 7814   4.641   4.778   0.045  0.7279  0.5645 -0.4091
 2011SOL     OW 7815   6.274   1.654   0.278 -0.6281 -0.0450  0.2980
 2011SOL    HW2 7816   6.357   1.642   0.233 -0.4824  0.1436  0.5123
 2011SOL    HW3 7817   6.251   1.566   0.309 -1.8560 -0.6400 -2.0380
 2011SOL    MW4 7818   6.282   1.641   0.276 -0.7709 -0.0986  0.0181
 2012SOL     OW 7819   4.955   6.266   1.490  0.3347 -0.0506  0.2353
 2012SOL    HW2 7820   4.901   6.217   1.428  0.9062 -1.1524  0.5852
 2012SOL    HW3 7821   5.043   6.262   1.453 -0.1101  4.0558 -1.7843
 2012SOL    MW4 7822   4.960   6.259   1.477  0.3514  0.3458  0.0150
 2013SOL     OW 7823   3.338   5.086   5.797 -0.2099  0.0758 -0.3801
 2013SOL    HW2 7824   3.355   5.159   5.857 -1.1276  0.5739 -0.6981
 2013SOL    HW3 7825   3.358   5.122   5.710 -1.6753  0.3007 -0.6418
 2013SOL    MW4 7826   3.343   5.101   5.793 -0.5243  0.1712 -0.4566
 2014SOL     OW 7827   4.996   0.261   1.071  0.1659  0.4915 -0.6105
 2014SOL    HW2 7828   4.970   0.186   1.125  1.0573  1.3213  1.0400
 2014SOL    HW3 7829   5.028   0.222   0.990 -0.5759 -0.8338 -0.3034
 2014SOL    MW4 7830   4.997   0.246   1.067  0.1856  0.4261 -0.3522
 2015SOL     OW 7831   1.467   0.208   5.127  0.0149  0.6241  0.0790
 2015SOL    HW2 7832   1.518   0.180   5.203 -1.5819  0.9144  1.2947
 2015SOL    HW3 7833   1.379   0.174   5.142 -0.8621  2.4524 -0.6007
 2015SOL    MW4 7834   1.462   0.200   5.139 -0.3115  0.9037  0.1497
 2016SOL     OW 7835   1.919   0.823   5.979 -0.2531 -0.4933 -0.5177
 2016SOL    HW2 7836   1.922   0.729   5.961 -0.9394 -0.5091 -0.5862
 2016SOL    HW3 7837   1.951   0.864   5.899  0.6235 -0.6822 -0.2731
 2016SOL    MW4 7838   1.923   0.816   5.966 -0.2280 -0.5203 -0.4945
 2017SOL     OW 7839   4.832   6.041   5.264  1.0527 -0.1516  0.5862
 2017SOL    HW2 7840   4.882   6.089   5.198  1.1049 -1.2186 -0.1685
 2017SOL    HW3 7841   4.884   5.962   5.280  0.2638 -0.6442  0.7561
 2017SOL    MW4 7842   4.846   6.037   5.257  0.9555 -0.3574  0.5091
 2018SOL     OW 7843   5.629   2.666   5.847  0.4721 -0.2402  0.2715
 2018SOL    HW2 7844   5.701   2.728   5.856  0.5810 -0.4176  0.6280
 2018SOL    HW3 7845   5.560   2.699   5.904  1.0644 -1.2144  1.6002
 2018SOL    MW4 7846   5.630   2.678   5.855  0.5646 -0.3922  0.4938
 2019SOL     OW 7847   0.485   4.523   4.958 -0.2494  0.2593  0.2115
 2019SOL    HW2 7848   0.506   4.448   5.013 -0.7428 -0.2258 -0.2600
 2019SOL    HW3 7849   0.391   4.517   4.943  0.2148 -1.1436 -2.8478
 2019SOL    MW4 7850   0.475   4.513   4.964 -0.2533  0.0102 -0.2544
 2020SOL     OW 7851   1.238   6.164   1.696  0.2476  0.1147  0.0891
 2020SOL    HW2 7852   1.324   6.205   1.698  1.3868 -2.2013  0.6970
 2020SOL    HW3 7853   1.179   6.230   1.734  1.7037  1.7386 -0.3592
 2020SOL    MW4 7854   1.241   6.178   1.701  0.5900  0.0234  0.1101
 2021SOL     OW 7855   0.540   5.511   5.698 -0.5313  0.5518  0.1670
 2021SOL    HW2 7856   0.461   5.459   5.679  0.5186 -1.6042  1.3989
 2021SOL    HW3 7857   0.576   5.531   5.611 -0.8139 -1.0858 -0.3788
 2021SOL    MW4 7858   0.534   5.507   5.684 -0.4301  0.0513  0.2575
 2022SOL     OW 7859   0.213   0.965   1.016 -0.5358 -0.0633 -0.5197
 2022SOL    HW2 7860   0.140   0.903   1.019  0.0822 -0.7986  0.0743
 2022SOL    HW3 7861   0.255   0.955   1.102  0.8684 -0.4267 -1.2092
 2022SOL    MW4 7862   0.209   0.955   1.028 -0.2690 -0.2083 -0.5323
 2023SOL     OW 7863   3.580   0.710   1.197 -0.9372 -0.1665 -0.5720
 2023SOL    HW2 7864   3.552   0.736   1.109 -1.9035 -1.5565 -0.6968
 2023SOL    HW3 7865   3.514   0.648   1.226 -0.5631  0.1668  1.1051
 2023SOL    MW4 7866   3.568   0.705   1.189 -1.0154 -0.3059 -0.3672
 2024SOL     OW 7867   6.144   2.339   3.820  0.0710 -0.1739  0.3660
 2024SOL    HW2 7868   6.081   2.271   3.795  0.3982 -0.5508  0.5502
 2024SOL    HW3 7869   6.153   2.330   3.915  1.0307 -0.6886  0.2412
 2024SOL    MW4 7870   6.137   2.329   3.829  0.2408 -0.2916  0.3738
 2025SOL     OW 7871   2.326   3.823   4.255  0.0319 -0.4164 -0.3334
 2025SOL    HW2 7872   2.377   3.899   4.282 -0.6757 -0.5439  1.5350
 2025SOL    HW3 7873   2.374   3.748   4.290 -1.4759 -0.5221  1.6652
 2025SOL    MW4 7874   2.339   3.823   4.263 -0.2604 -0.4472  0.1768
 2026SOL     OW 7875   1.693   3.452   5.237 -0.1110 -0.4775 -0.2873
 2026SOL    HW2 7876   1.775   3.433   5.282 -0.0710 -0.2207 -0.2457
 2026SOL    HW3 7877   1.643   3.503   5.301 -0.7019 -1.4536  0.0480
 2026SOL    MW4 7878   1.697   3.457   5.251 -0.1837 -0.5724 -0.2376
 2027SOL     OW 7879   3.642   1.748   5.625  0.1256  0.2333 -0.4065
 2027SOL    HW2 7880   3.635   1.661   5.585  0.1378 -0.2497  0.6262
 2027SOL    HW3 7881   3.594   1.741   5.708 -1.0820  1.6182 -0.9403
 2027SOL    MW4 7882   3.635   1.736   5.631 -0.0321  0.3523 -0.3406
 2028SOL     OW 7883   4.183   1.725   3.027 -0.6422 -0.4873  0.4146
 2028SOL    HW2 7884   4.185   1.638   2.987  0.7173  0.7159 -2.4977
 2028SOL    HW3 7885   4.199   1.785   2.954 -2.2807  2.3045  2.1544
 2028SOL    MW4 7886   4.185   1.721   3.012 -0.6790  0.0398  0.2599
 2029SOL     OW 7887   2.718   4.433   0.645  0.1721 -0.0668  0.2636
 2029SOL    HW2 7888   2.716   4.373   0.720  1.6075 -0.6193 -0.1054
 2029SOL    HW3 7889   2.802   4.415   0.602  0.4752  1.9340 -0.0884
 2029SOL    MW4 7890   2.729   4.423   0.650  0.4015  0.1243  0.1685
 2030SOL     OW 7891   0.641   0.638   0.963 -0.3851  0.4554 -0.2055
 2030SOL    HW2 7892   0.554   0.671   0.941 -0.6186 -0.0967 -0.1366
 2030SOL    HW3 7893   0.624   0.558   1.014  0.1612  0.4008 -0.1026
 2030SOL    MW4 7894   0.627   0.631   0.967 -0.3438  0.3753 -0.1828
 2031SOL     OW 7895   5.435   4.667   0.799 -0.1976 -0.8944 -0.5670
 2031SOL    HW2 7896   5.468   4.634   0.716 -0.3409  1.1928 -1.5190
 2031SOL    HW3 7897   5.340   4.656   0.793 -0.1664 -1.2618 -0.4241
 2031SOL    MW4 7898   5.427   4.661   0.787 -0.2124 -0.6675 -0.6737
 2032SOL     OW 7899   2.280   3.636   2.924 -0.0351  0.2361  0.1362
 2032SOL    HW2 7900   2.305   3.656   3.014 -1.8101 -2.4621  1.3274
 2032SOL    HW3 7901   2.324   3.553   2.905 -0.8889  0.0107 -0.9331
 2032SOL    MW4 7902   2.289   3.628   2.933 -0.3819 -0.1496  0.1523
 2033SOL     OW 7903   4.133   2.373   2.093  0.2838 -0.0980 -0.1247
 2033SOL    HW2 7904   4.078   2.396   2.018  1.5556  0.7667 -0.8318
 2033SOL    HW3 7905   4.179   2.454   2.115 -0.7946 -0.0726  2.2653
 2033SOL    MW4 7906   4.132   2.386   2.086  0.3093  0.0194  0.0973
 2034SOL     OW 7907   2.210   3.058   3.024 -0.6608  1.0054 -0.3975
 2034SOL    HW2 7908   2.268   3.124   3.063 -0.4105  0.8324 -0.4698
 2034SOL    HW3 7909   2.252   3.036   2.941 -0.1335 -0.0653  0.1353
 2034SOL    MW4 7910   2.223   3.064   3.018 -0.5582  0.8413 -0.3367
 2035SOL     OW 7911   5.559   5.589   3.150  0.2111 -0.1571 -0.0847
 2035SOL    HW2 7912   5.565   5.639   3.069  0.6190  1.5627  0.9673
 2035SOL    HW3 7913   5.619   5.633   3.210 -0.0377 -1.4259  1.1485
 2035SOL    MW4 7914   5.568   5.601   3.147  0.2321 -0.0976  0.2168
 2036SOL     OW 7915   0.629   3.145   0.353  0.1877  0.0912  0.1437
 2036SOL    HW2 7916   0.573   3.220   0.332 -2.4091 -1.8515 -0.4847
 2036SOL    HW3 7917   0.568   3.072   0.359  2.3561 -1.6881  2.5692
 2036SOL    MW4 7918   0.613   3.145   0.351  0.1311 -0.3998  0.3808
 2037SOL     OW 7919   5.730   1.333   3.900 -0.1568  0.3856 -0.1920
 2037SOL    HW2 7920   5.815   1.319   3.859 -0.9615 -1.2295 -1.4630
 2037SOL    HW3 7921   5.666   1.311   3.831 -1.5726 -1.2637  1.5178
 2037SOL    MW4 7922   5.732   1.328   3.885 -0.4498 -0.0451 -0.1341
 2038SOL     OW 7923   5.476   2.684   4.561  0.3732  0.1023  0.6489
 2038SOL    HW2 7924   5.436   2.770   4.568  1.0970  0.5017  0.0217
 2038SOL    HW3 7925   5.433   2.632   4.629 -1.9225  0.2053 -0.6444
 2038SOL    MW4 7926   5.465   2.688   4.571  0.1658  0.1686  0.3955
 2039SOL     OW 7927   3.679   4.540   5.235  0.4523 -0.1285  0.6529
 2039SOL    HW2 7928   3.760   4.520   5.283  0.6547 -0.8363  0.0366
 2039SOL    HW3 7929   3.610   4.499   5.287  0.1424  2.4592  2.4773
 2039SOL    MW4 7930   3.681   4.532   5.248  0.4382  0.1195  0.8123
 2040SOL     OW 7931   4.562   4.448   4.987  0.2314  0.1594 -0.0862
 2040SOL    HW2 7932   4.621   4.496   5.046  0.2632 -0.4912  0.4174
 2040SOL    HW3 7933   4.610   4.444   4.904  0.2433  0.9604 -0.1305
 2040SOL    MW4 7934   4.576   4.454   4.984  0.2371  0.1792 -0.0256
 2041SOL     OW 7935   0.455   5.826   1.625 -0.0289  0.3873  0.3332
 2041SOL    HW2 7936   0.411   5.807   1.708 -1.7729  1.6217 -0.2677
 2041SOL    HW3 7937   0.408   5.773   1.560  1.2752 -0.5137  0.0680
 2041SOL    MW4 7938   0.443   5.816   1.627 -0.0869  0.4313  0.2189
 2042SOL     OW 7939   3.217   3.199   6.325  0.0296 -0.5632  0.1639
 2042SOL    HW2 7940   3.222   3.108   6.294 -0.3752 -0.4488 -0.2532
 2042SOL    HW3 7941   3.281   3.204   6.396  2.2043 -0.4348 -1.6592
 2042SOL    MW4 7942   3.226   3.188   6.330  0.2631 -0.5311 -0.1316
 2043SOL     OW 7943   3.911   3.153   2.259  0.2227  0.0103  0.9239
 2043SOL    HW2 7944   3.824   3.157   2.218  0.8578  0.5744 -0.4076
 2043SOL    HW3 7945   3.897   3.102   2.339 -1.4954  0.7496  1.1396
 2043SOL    MW4 7946   3.897   3.147   2.264  0.0798  0.1823  0.7767
 2044SOL     OW 7947   3.098   0.864   6.207  0.3388  0.6599  0.2363
 2044SOL    HW2 7948   3.146   0.926   6.263  1.7750 -0.8105  0.7163
 2044SOL    HW3 7949   3.065   0.798   6.268 -3.5221  2.2222  0.1165
 2044SOL    MW4 7950   3.100   0.864   6.222  0.0189  0.6721  0.2838
 2045SOL     OW 7951   2.464   5.414   4.564  0.3397  0.2115 -0.0950
 2045SOL    HW2 7952   2.551   5.376   4.559  0.0550 -0.7555  1.4861
 2045SOL    HW3 7953   2.429   5.384   4.649 -1.1252  1.4201 -0.2162
 2045SOL    MW4 7954   2.471   5.405   4.575  0.1089  0.2433  0.0976
 2046SOL     OW 7955   0.031   1.039   0.313 -0.0764 -0.2081  0.0374
 2046SOL    HW2 7956   0.023   1.047   0.218 -0.5853  0.1177  0.1044
 2046SOL    HW3 7957   0.087   1.112   0.340  2.8446 -2.1208 -0.3570
 2046SOL    MW4 7958   0.037   1.049   0.304  0.2419 -0.4175 -0.0058
 2047SOL     OW 7959   2.483   4.581   5.360 -0.5574  0.1467 -0.4446
 2047SOL    HW2 7960   2.515   4.503   5.314 -1.9801  0.3015 -1.7867
 2047SOL    HW3 7961   2.487   4.558   5.453 -0.5179 -1.3538 -0.7951
 2047SOL    MW4 7962   2.487   4.568   5.366 -0.7399 -0.0308 -0.6679
 2048SOL     OW 7963   4.616   0.024   5.209 -0.3690  0.2317  0.2002
 2048SOL    HW2 7964   4.616   0.108   5.254  1.0297  1.4509 -1.8804
 2048SOL    HW3 7965   4.709   0.002   5.200 -0.7261 -1.7319  0.9973
 2048SOL    MW4 7966   4.628   0.032   5.214 -0.2315  0.1335  0.0309
 2049SOL     OW 7967   2.181   2.722   6.248 -0.4586 -0.1352  0.2210
 2049SOL    HW2 7968   2.211   2.639   6.286  0.4644 -0.2020 -0.5949
 2049SOL    HW3 7969   2.208   2.788   6.311 -1.9485 -0.4924  1.2911
 2049SOL    MW4 7970   2.189   2.720   6.261 -0.5334 -0.1911  0.2545
 2050SOL     OW 7971   1.418   4.188   2.163 -0.1007  0.2786 -0.3453
 2050SOL    HW2 7972   1.369   4.257   2.207  0.1717  0.6191 -0.5744
 2050SOL    HW3 7973   1.379   4.107   2.196  0.1969  0.5251  0.6406
 2050SOL    MW4 7974   1.406   4.186   2.173 -0.0255  0.3561 -0.2455
 2051SOL     OW 7975   4.084   0.321   3.195  0.1256  0.3303  0.5357
 2051SOL    HW2 7976   3.996   0.350   3.219  0.2384  0.3672  0.9227
 2051SOL    HW3 7977   4.122   0.289   3.277  1.6772  3.4094  1.1863
 2051SOL    MW4 7978   4.078   0.321   3.209  0.3452  0.7414  0.6726
 2052SOL     OW 7979   5.212   5.046   3.319  0.3245 -0.4961 -0.2049
 2052SOL    HW2 7980   5.201   5.141   3.321  0.7165 -0.4313 -0.7366
 2052SOL    HW3 7981   5.305   5.033   3.298  0.0858 -0.9843 -0.9934
 2052SOL    MW4 7982   5.223   5.057   3.316  0.3448 -0.5520 -0.3791
 2053SOL     OW 7983   2.473   1.593   0.856  1.0939 -0.6244  0.5181
 2053SOL    HW2 7984   2.468   1.634   0.942  0.4442  0.7514 -0.1322
 2053SOL    HW3 7985   2.515   1.660   0.801  0.3274 -0.9749 -0.5090
 2053SOL    MW4 7986   2.478   1.608   0.860  0.9071 -0.4891  0.2968
 2054SOL     OW 7987   0.872   0.904   2.671 -0.0171  0.0210  0.6045
 2054SOL    HW2 7988   0.859   0.912   2.765 -0.5461 -0.8078  0.6167
 2054SOL    HW3 7989   0.834   0.983   2.633 -2.8174 -1.1200  0.8416
 2054SOL    MW4 7990   0.866   0.915   2.678 -0.4563 -0.2389  0.6374
 2055SOL     OW 7991   2.980   1.245   5.457 -0.5110 -0.0928 -0.3228
 2055SOL    HW2 7992   3.062   1.229   5.410 -1.8472 -2.0263 -2.2026
 2055SOL    HW3 7993   2.974   1.340   5.461  1.9426  0.1207  0.1612
 2055SOL    MW4 7994   2.990   1.255   5.451 -0.3636 -0.3197 -0.5070
 2056SOL     OW 7995   4.299   5.827   2.742 -0.2491 -0.0523  0.0354
 2056SOL    HW2 7996   4.379   5.775   2.748  0.6002  0.8788 -2.2440
 2056SOL    HW3 7997   4.328   5.917   2.762 -1.2978 -0.0697  1.8751
 2056SOL    MW4 7998   4.313   5.832   2.746 -0.2754  0.0683 -0.0226
 2057SOL     OW 7999   1.520   2.234   1.120 -0.1274  0.1487  0.2022
 2057SOL    HW2 8000   1.525   2.222   1.025 -0.7998 -0.2930  0.2199
 2057SOL    HW3 8001   1.577   2.310   1.137 -0.8011  0.8735 -0.6723
 2057SOL    MW4 8002   1.528   2.242   1.110 -0.3050  0.1861  0.0892
 2058SOL     OW 8003   4.789   1.815   5.949  0.4426  0.1857  0.1766
 2058SOL    HW2 8004   4.858   1.847   6.007 -0.2792 -0.4513  1.4226
 2058SOL    HW3 8005   4.729   1.769   6.007  0.7983 -2.3805 -1.3343
 2058SOL    MW4 8006   4.790   1.813   5.964  0.3943 -0.2369  0.1417
 2059SOL     OW 8007   4.068   1.541   0.289 -0.2804  0.2181  0.3194
 2059SOL    HW2 8008   4.026   1.624   0.270 -0.8094 -0.2254 -0.4819
 2059SOL    HW3 8009   4.098   1.508   0.204 -0.4577 -0.6074  0.5642
 2059SOL    MW4 8010   4.066   1.547   0.276 -0.3736  0.0507  0.2460
 2060SOL     OW 8011   4.880   4.953   0.953 -0.3120 -0.1763 -0.5899
 2060SOL    HW2 8012   4.821   4.929   0.881 -1.1969 -1.6812  0.5835
 2060SOL    HW3 8013   4.896   5.047   0.940 -2.0539  0.0323 -1.5851
 2060SOL    MW4 8014   4.874   4.962   0.942 -0.6586 -0.3473 -0.5664
 2061SOL     OW 8015   6.383   3.319   5.198  0.2554  0.3056  0.3373
 2061SOL    HW2 8016   6.416   3.374   5.268  1.4932  0.8830 -0.6545
 2061SOL    HW3 8017   6.460   3.273   5.165 -0.6533 -1.6809  0.7986
 2061SOL    MW4 8018   6.397   3.320   5.203  0.2988  0.1197  0.2673
 2062SOL     OW 8019   3.332   3.704   4.920  0.4187 -0.0272 -0.0651
 2062SOL    HW2 8020   3.396   3.767   4.887 -1.3734  2.2504  0.5035
 2062SOL    HW3 8021   3.364   3.680   5.007  1.7735 -0.9726 -0.7830
 2062SOL    MW4 8022   3.345   3.709   4.927  0.3610  0.1486 -0.0848
 2063SOL     OW 8023   5.751   6.397   1.185 -0.2710 -0.2152 -0.0513
 2063SOL    HW2 8024   5.732   6.304   1.171 -1.1885  0.1631 -1.5511
 2063SOL    HW3 8025   5.789   6.401   1.273 -1.2852 -1.8611  0.5019
 2063SOL    MW4 8026   5.754   6.385   1.195 -0.5259 -0.3825 -0.1762
 2064SOL     OW 8027   3.632   3.299   3.911  0.3831  0.0301 -0.3919
 2064SOL    HW2 8028   3.596   3.282   3.824  3.4587 -0.1917 -1.7434
 2064SOL    HW3 8029   3.659   3.213   3.943 -1.9846 -0.1068  1.4999
 2064SOL    MW4 8030   3.631   3.286   3.904  0.4765 -0.0172 -0.3206
 2065SOL     OW 8031   0.384   3.447   5.442  0.2976 -0.2424 -0.2482
 2065SOL    HW2 8032   0.438   3.369   5.453  1.2608  0.2728 -1.1434
 2065SOL    HW3 8033   0.374   3.482   5.530  2.2366  0.1622 -0.1464
 2065SOL    MW4 8034   0.389   3.441   5.455  0.6805 -0.1211 -0.3529
 2066SOL     OW 8035   4.070   5.579   4.095  0.0389 -0.3805 -0.8607
 2066SOL    HW2 8036   3.996   5.602   4.040  0.1675  0.0263 -0.8661
 2066SOL    HW3 8037   4.144   5.571   4.035  0.0406 -0.5909 -0.8313
 2066SOL    MW4 8038   4.070   5.581   4.080  0.0561 -0.3546 -0.8575
 2067SOL     OW 8039   5.410   4.166   1.203  0.6647  0.1961  0.1767
 2067SOL    HW2 8040   5.461   4.187   1.124 -2.2198 -0.6832 -2.0890
 2067SOL    HW3 8041   5.449   4.084   1.234  1.5835  0.3239 -0.5710
 2067SOL    MW4 8042   5.422   4.158   1.197  0.4054  0.0969 -0.2209
 2068SOL     OW 8043   1.829   3.277   0.170  0.4342 -0.2225  0.3020
 2068SOL    HW2 8044   1.832   3.189   0.132  0.4119 -0.6774  1.3378
 2068SOL    HW3 8045   1.814   3.335   0.095 -2.8641 -1.3620 -0.0799
 2068SOL    MW4 8046   1.827   3.273   0.155 -0.0039 -0.4328  0.3883
 2069SOL     OW 8047   0.389   2.511   2.967  0.6461 -0.3305 -0.0503
 2069SOL    HW2 8048   0.464   2.560   2.999 -0.4952  1.3136  0.2391
 2069SOL    HW3 8049   0.388   2.527   2.872  0.6218 -0.2918 -0.0435
 2069SOL    MW4 8050   0.399   2.520   2.958  0.4923 -0.1085 -0.0112
 2070SOL     OW 8051   4.777   2.834   2.150  0.2213  0.2847 -0.2465
 2070SOL    HW2 8052   4.871   2.829   2.134  0.1951 -2.3305 -0.0880
 2070SOL    HW3 8053   4.769   2.853   2.243  0.6780 -1.3187  0.1541
 2070SOL    MW4 8054   4.789   2.836   2.160  0.2781 -0.2719 -0.1728
 2071SOL     OW 8055   0.951   0.806   6.345  0.5157  0.2668  0.1420
 2071SOL    HW2 8056   0.948   0.775   6.255  0.9872  0.2939  0.1159
 2071SOL    HW3 8057   0.993   0.734   6.394  1.7919  0.9267  0.0481
 2071SOL    MW4 8058   0.956   0.792   6.340  0.7463  0.3574  0.1262
 2072SOL     OW 8059   5.708   5.127   0.283  0.3937 -0.3107 -0.0072
 2072SOL    HW2 8060   5.729   5.044   0.239 -0.3615 -0.7850  0.4951
 2072SOL    HW3 8061   5.774   5.135   0.352  0.8049 -0.2180 -0.4158
 2072SOL    MW4 8062   5.719   5.117   0.287  0.3483 -0.3610  0.0052
 2073SOL     OW 8063   1.009   6.046   0.253  0.2865 -0.2334  0.1720
 2073SOL    HW2 8064   1.097   6.009   0.250  0.2516 -0.3121  0.1357
 2073SOL    HW3 8065   0.954   5.974   0.285 -0.1887 -0.9560 -2.0823
 2073SOL    MW4 8066   1.014   6.032   0.257  0.2192 -0.3391 -0.1302
 2074SOL     OW 8067   2.025   5.042   2.314  0.2304 -0.4853 -0.7206
 2074SOL    HW2 8068   1.993   4.987   2.385  1.2101 -0.4785 -0.2622
 2074SOL    HW3 8069   1.967   5.119   2.316 -2.4204 -2.2564 -2.6168
 2074SOL    MW4 8070   2.013   5.045   2.323  0.0099 -0.7181 -0.9103
 2075SOL     OW 8071   2.228   5.764   5.866 -0.9517 -0.3979 -0.2164
 2075SOL    HW2 8072   2.187   5.705   5.930  1.1444 -0.9572  0.7172
 2075SOL    HW3 8073   2.287   5.818   5.919 -0.6336  0.4973 -1.4506
 2075SOL    MW4 8074   2.230   5.763   5.882 -0.6332 -0.3536 -0.2561
 2076SOL     OW 8075   5.034   6.016   1.622 -0.2256 -0.3466 -0.4982
 2076SOL    HW2 8076   5.022   5.942   1.563 -0.6392 -0.0312 -0.8209
 2076SOL    HW3 8077   5.008   6.092   1.570 -0.6188 -0.0651  0.0922
 2076SOL    MW4 8078   5.029   6.016   1.607 -0.3321 -0.2678 -0.4629
 2077SOL     OW 8079   3.020   6.260   1.389  0.1404 -0.1271  0.5572
 2077SOL    HW2 8080   3.018   6.230   1.479  1.8022 -1.1995  0.2867
 2077SOL    HW3 8081   2.989   6.185   1.338 -0.1086  0.2230  0.1925
 2077SOL    MW4 8082   3.016   6.246   1.394  0.3268 -0.2224  0.4734
 2078SOL     OW 8083   0.458   1.872   2.293 -0.4119 -0.4762 -0.0864
 2078SOL    HW2 8084   0.455   1.958   2.251 -1.7726 -1.7888 -2.9216
 2078SOL    HW3 8085   0.461   1.892   2.387  0.1763  2.6342 -0.6504
 2078SOL    MW4 8086   0.458   1.886   2.300 -0.5138 -0.2390 -0.5349
 2079SOL     OW 8087   4.634   4.332   4.345 -0.2279 -0.4144  0.2081
 2079SOL    HW2 8088   4.557   4.389   4.345 -0.8229 -1.1995  0.8202
 2079SOL    HW3 8089   4.648   4.311   4.437  0.4882 -0.5902  0.0612
 2079SOL    MW4 8090   4.626   4.337   4.357 -0.2119 -0.5412  0.2695
 2080SOL     OW 8091   2.083   3.100   6.269 -0.2118 -0.1668  0.4699
 2080SOL    HW2 8092   2.152   3.154   6.307 -0.4394 -0.4159  1.2565
 2080SOL    HW3 8093   2.122   3.063   6.190 -0.1711  1.4269 -0.2890
 2080SOL    MW4 8094   2.097   3.102   6.263 -0.2364  0.0106  0.4735
 2081SOL     OW 8095   4.099   5.263   3.858  0.3457 -0.0035 -0.0213
 2081SOL    HW2 8096   4.186   5.280   3.892  0.1619 -0.3773  0.6571
 2081SOL    HW3 8097   4.112   5.248   3.764  0.7243  2.1167 -0.3650
 2081SOL    MW4 8098   4.112   5.263   3.850  0.3714  0.2269  0.0229
 2082SOL     OW 8099   6.173   5.209   1.277 -0.0599 -0.3528  0.5012
 2082SOL    HW2 8100   6.249   5.153   1.292 -1.2417 -2.0078  0.5981
 2082SOL    HW3 8101   6.122   5.163   1.211  0.8348  2.5966 -2.5346
 2082SOL    MW4 8102   6.176   5.196   1.270 -0.0978 -0.1820  0.1134
 2083SOL     OW 8103   3.702   2.600   0.876  0.3165 -0.4645  0.2057
 2083SOL    HW2 8104   3.684   2.531   0.939 -2.7313 -0.2903 -0.3303
 2083SOL    HW3 8105   3.661   2.678   0.913  0.7449  0.2514 -0.7801
 2083SOL    MW4 8106   3.694   2.601   0.889 -0.0291 -0.3470  0.0049
 2084SOL     OW 8107   3.744   1.410   6.237 -0.3814 -0.1080 -0.7572
 2084SOL    HW2 8108   3.767   1.477   6.173 -0.2004  0.6870  0.1293
 2084SOL    HW3 8109   3.781   1.441   6.319  0.1641 -1.5570 -0.4310
 2084SOL    MW4 8110   3.751   1.423   6.239 -0.2856 -0.1942 -0.5972
 2085SOL     OW 8111   1.447   4.277   5.536  0.3279 -0.0441 -0.6600
 2085SOL    HW2 8112   1.432   4.304   5.626  0.4740  0.4654 -0.7835
 2085SOL    HW3 8113   1.433   4.183   5.536  0.8734 -0.1300  0.0154
 2085SOL    MW4 8114   1.443   4.268   5.548  0.4192  0.0118 -0.5872
 2086SOL     OW 8115   0.557   3.888   0.432  0.3515  0.1216  0.0840
 2086SOL    HW2 8116   0.579   3.821   0.368  0.6685 -0.1450  0.4705
 2086SOL    HW3 8117   0.477   3.928   0.398  0.7194  0.2367 -0.6715
 2086SOL    MW4 8118   0.549   3.885   0.419  0.4418  0.1016  0.0353
 2087SOL     OW 8119   3.513   4.716   6.360 -0.2783  0.5211  0.0054
 2087SOL    HW2 8120   3.420   4.709   6.379 -0.2256 -0.5334 -0.0264
 2087SOL    HW3 8121   3.518   4.771   6.282 -1.0254 -0.7899 -1.0185
 2087SOL    MW4 8122   3.501   4.722   6.352 -0.3699  0.2090 -0.1339
 2088SOL     OW 8123   0.631   6.336   0.093  0.3606  0.3094  0.5225
 2088SOL    HW2 8124   0.662   6.421   0.062  1.8856 -0.0658  0.9367
 2088SOL    HW3 8125   0.695   6.273   0.058 -1.8230 -0.9655 -1.5221
 2088SOL    MW4 8126   0.644   6.339   0.084  0.2737  0.0917  0.3074
 2089SOL     OW 8127   4.925   5.725   2.984 -0.1725  0.4351  0.8508
 2089SOL    HW2 8128   4.919   5.665   2.909  0.7115  0.9361  0.3679
 2089SOL    HW3 8129   4.835   5.755   2.997 -0.1663  1.2559 -0.7836
 2089SOL    MW4 8130   4.912   5.721   2.976 -0.0551  0.6095  0.5715
 2090SOL     OW 8131   2.266   1.392   5.574  0.6474 -0.1000 -0.1103
 2090SOL    HW2 8132   2.281   1.438   5.656  1.7417  0.5497 -0.6361
 2090SOL    HW3 8133   2.267   1.299   5.597 -0.4430  0.0991  0.7985
 2090SOL    MW4 8134   2.268   1.386   5.588  0.6479  0.0120 -0.0598
 2091SOL     OW 8135   3.101   4.007   5.275 -0.5383  0.0340  0.0163
 2091SOL    HW2 8136   3.121   4.101   5.278 -0.0021 -0.0866  0.4938
 2091SOL    HW3 8137   3.087   3.988   5.182  2.9839 -0.1159 -0.6225
 2091SOL    MW4 8138   3.102   4.017   5.263 -0.0028 -0.0017 -0.0050
 2092SOL     OW 8139   1.073   5.148   6.182 -0.1746 -0.0483  0.0779
 2092SOL    HW2 8140   1.104   5.089   6.114  0.9741  1.3991 -0.7083
 2092SOL    HW3 8141   1.152   5.194   6.211 -1.0763  1.3530  0.4058
 2092SOL    MW4 8142   1.088   5.146   6.177 -0.1421  0.3275  0.0174
 2093SOL     OW 8143   1.562   0.383   1.655 -0.3596  0.1424  1.0853
 2093SOL    HW2 8144   1.632   0.410   1.714 -0.4842  1.3614  0.7039
 2093SOL    HW3 8145   1.606   0.369   1.571 -0.6598  1.7577  0.6205
 2093SOL    MW4 8146   1.577   0.385   1.652 -0.4156  0.5164  0.9737
 2094SOL     OW 8147   2.070   3.425   2.011  0.3591 -0.6628  0.3740
 2094SOL    HW2 8148   2.005   3.470   2.066  0.1718  0.2584 -0.5624
 2094SOL    HW3 8149   2.069   3.334   2.042  0.0899 -0.2337  1.7178
 2094SOL    MW4 8150   2.061   3.419   2.023  0.2988 -0.4846  0.4277
 2095SOL     OW 8151   3.230   3.434   1.802  0.0970  0.1096  0.2717
 2095SOL    HW2 8152   3.135   3.445   1.800  0.0989  0.2194  0.6454
 2095SOL    HW3 8153   3.247   3.356   1.749 -0.4053 -1.2547  2.0306
 2095SOL    MW4 8154   3.220   3.425   1.795  0.0310 -0.0559  0.5531
 2096SOL     OW 8155   1.640   1.998   3.571 -0.0006  0.0449  0.0620
 2096SOL    HW2 8156   1.618   1.918   3.523 -0.1519 -0.3045  0.7037
 2096SOL    HW3 8157   1.643   1.971   3.663  0.4444  0.6698  0.2399
 2096SOL    MW4 8158   1.638   1.984   3.577  0.0381  0.0812  0.1701
 2097SOL     OW 8159   3.026   1.097   4.981  0.4508  0.0074 -0.4811
 2097SOL    HW2 8160   2.973   1.023   4.953 -0.5045 -0.0705  1.3279
 2097SOL    HW3 8161   3.087   1.060   5.045  0.5376  0.6362 -0.1960
 2097SOL    MW4 8162   3.027   1.083   4.986  0.3362  0.0800 -0.2048
 2098SOL     OW 8163   6.014   4.095   5.836 -0.6933  0.3961  0.4470
 2098SOL    HW2 8164   5.975   4.127   5.917 -0.9569  1.9225 -0.2527
 2098SOL    HW3 8165   6.066   4.019   5.863 -1.5579  0.2797  1.8823
 2098SOL    MW4 8166   6.016   4.089   5.850 -0.8421  0.5821  0.5441
 2099SOL     OW 8167   4.691   1.030   5.613 -0.2055  0.0197 -0.0272
 2099SOL    HW2 8168   4.659   0.941   5.625 -0.8044 -0.0156 -1.5731
 2099SOL    HW3 8169   4.723   1.056   5.699 -0.5176 -1.4855  0.5802
 2099SOL    MW4 8170   4.691   1.022   5.626 -0.3257 -0.1836 -0.1510
 2100SOL     OW 8171   2.314   3.771   3.881 -0.3476  0.3392 -0.1410
 2100SOL    HW2 8172   2.335   3.856   3.842 -0.3296 -0.2678 -1.5188
 2100SOL    HW3 8173   2.292   3.715   3.806  0.4501 -1.1054  0.6640
 2100SOL    MW4 8174   2.314   3.775   3.866 -0.2400  0.0685 -0.2166
 2101SOL     OW 8175   2.258   5.450   1.614 -0.7719 -0.3004 -0.5160
 2101SOL    HW2 8176   2.282   5.363   1.647 -0.6300  0.6831  2.2209
 2101SOL    HW3 8177   2.310   5.511   1.667 -2.4181  1.5329 -0.8843
 2101SOL    MW4 8178   2.268   5.447   1.625 -0.9704  0.0712 -0.2035
 2102SOL     OW 8179   0.554   4.963   4.720  0.7897 -0.4364 -0.2056
 2102SOL    HW2 8180   0.566   5.052   4.754  2.2786 -0.8094  0.3155
 2102SOL    HW3 8181   0.625   4.913   4.758 -0.1074 -1.9066 -0.3947
 2102SOL    MW4 8182   0.565   4.968   4.729  0.8678 -0.6795 -0.1618
 2103SOL     OW 8183   2.397   3.850   5.258  0.2356  0.8059 -0.1611
 2103SOL    HW2 8184   2.472   3.901   5.227 -1.0708  1.4496 -2.5129
 2103SOL    HW3 8185   2.320   3.900   5.230 -1.1004 -0.7901  0.4587
 2103SOL    MW4 8186   2.397   3.863   5.250 -0.1131  0.6803 -0.3896
 2104SOL     OW 8187   5.512   5.232   3.175 -0.2771  0.2622 -0.4981
 2104SOL    HW2 8188   5.436   5.284   3.202 -0.5828 -1.3256  2.0878
 2104SOL    HW3 8189   5.497   5.146   3.214  3.6023  0.3111  1.6228
 2104SOL    MW4 8190   5.500   5.228   3.184  0.1944  0.0591  0.1229
 2105SOL     OW 8191   4.995   3.425   5.440 -0.3821  0.1784 -1.0773
 2105SOL    HW2 8192   5.031   3.418   5.528 -1.9191 -1.1214 -0.5013
 2105SOL    HW3 8193   4.923   3.487   5.449 -1.0041 -0.5049 -1.2316
 2105SOL    MW4 8194   4.990   3.432   5.453 -0.6670 -0.0832 -1.0217
 2106SOL     OW 8195   4.986   3.278   1.636 -0.1295 -0.9196 -0.1800
 2106SOL    HW2 8196   5.022   3.195   1.607  1.8697  0.4023 -1.7476
 2106SOL    HW3 8197   4.918   3.300   1.572  0.3342 -0.6788 -0.5903
 2106SOL    MW4 8198   4.981   3.270   1.624  0.1954 -0.7134 -0.4409
 2107SOL     OW 8199   4.105   4.489   4.950  0.0074  0.3923  0.2650
 2107SOL    HW2 8200   4.181   4.506   5.006  1.4833 -0.9885 -1.1967
 2107SOL    HW3 8201   4.074   4.403   4.979  0.7051 -0.2739 -0.8943
 2107SOL    MW4 8202   4.111   4.480   4.962  0.2942  0.1222 -0.0808
 2108SOL     OW 8203   4.448   5.226   4.254  0.2998  0.4246 -0.3552
 2108SOL    HW2 8204   4.366   5.259   4.290  0.0476  0.1376 -0.6688
 2108SOL    HW3 8205   4.515   5.259   4.314 -0.1300 -0.1650  0.4548
 2108SOL    MW4 8206   4.446   5.235   4.267  0.2098  0.3090 -0.2897
 2109SOL     OW 8207   1.561   1.074   0.676  0.7922 -0.2987  0.6508
 2109SOL    HW2 8208   1.593   0.997   0.629 -0.6659 -1.3580  1.3304
 2109SOL    HW3 8209   1.632   1.138   0.669  1.4286 -1.1547 -1.2168
 2109SOL    MW4 8210   1.575   1.073   0.669  0.6838 -0.5514  0.4940
 2110SOL     OW 8211   6.179   4.475   6.278  0.4805 -0.1699  0.3454
 2110SOL    HW2 8212   6.166   4.404   6.342 -0.4161  0.1697  0.5588
 2110SOL    HW3 8213   6.135   4.550   6.317 -1.8224 -0.4389 -1.5106
 2110SOL    MW4 8214   6.171   4.475   6.291  0.0584 -0.1606  0.1287
 2111SOL     OW 8215   6.151   1.428   0.402 -0.5721  0.5336  1.0280
 2111SOL    HW2 8216   6.068   1.469   0.428 -1.1931  0.6300 -0.8957
 2111SOL    HW3 8217   6.128   1.337   0.386 -0.1337  0.3867  1.2466
 2111SOL    MW4 8218   6.137   1.422   0.403 -0.5962  0.5269  0.8030
 2112SOL     OW 8219   3.624   4.809   5.276  0.3463 -0.4718  0.0645
 2112SOL    HW2 8220   3.638   4.718   5.251  0.6261 -0.5619  0.5334
 2112SOL    HW3 8221   3.532   4.814   5.302  0.2593 -0.5538 -0.2288
 2112SOL    MW4 8222   3.614   4.798   5.276  0.3717 -0.4945  0.0877
 2113SOL     OW 8223   0.600   4.616   1.518  0.7028 -0.4453 -0.4469
 2113SOL    HW2 8224   0.691   4.638   1.539  0.0135  0.7721  1.5103
 2113SOL    HW3 8225   0.556   4.700   1.510 -0.5085 -1.0185 -0.0664
 2113SOL    MW4 8226   0.607   4.630   1.520  0.4520 -0.3603 -0.1384
 2114SOL     OW 8227   5.550   0.748   2.263  0.6401 -0.2137  0.4900
 2114SOL    HW2 8228   5.571   0.675   2.321  1.1223  0.9738  1.8819
 2114SOL    HW3 8229   5.629   0.802   2.263  0.8773 -0.4496 -1.7756
 2114SOL    MW4 8230   5.563   0.746   2.270  0.7350 -0.0882  0.3747
 2115SOL     OW 8231   2.557   4.977   4.422  0.2869  0.4768 -0.2503
 2115SOL    HW2 8232   2.470   4.941   4.435 -0.0996  1.3668 -0.3005
 2115SOL    HW3 8233   2.557   5.007   4.331  1.4880 -1.7379 -1.0527
 2115SOL    MW4 8234   2.546   4.976   4.411  0.3944  0.3020 -0.3628
 2116SOL     OW 8235   0.307   5.386   3.285  0.0616  0.3665  0.4644
 2116SOL    HW2 8236   0.263   5.375   3.201  2.2213  0.3438 -0.7271
 2116SOL    HW3 8237   0.240   5.423   3.343 -0.7117  3.2957 -2.0518
 2116SOL    MW4 8238   0.293   5.389   3.282  0.2445  0.7500 -0.0248
 2117SOL     OW 8239   4.113   1.497   1.322 -0.0966 -0.3045 -0.0985
 2117SOL    HW2 8240   4.047   1.440   1.281 -1.9620  0.4710  1.6358
 2117SOL    HW3 8241   4.072   1.583   1.326  1.2359  0.3330  0.5742
 2117SOL    MW4 8242   4.099   1.501   1.317 -0.1669 -0.1181  0.2191
 2118SOL     OW 8243   1.288   4.892   2.181  0.3383  0.7976  0.0696
 2118SOL    HW2 8244   1.259   4.884   2.090  1.6980  2.8773 -0.6315
 2118SOL    HW3 8245   1.208   4.911   2.230 -0.5152 -1.0228 -0.5438
 2118SOL    MW4 8246   1.274   4.894   2.176  0.4051  0.8318 -0.1039
 2119SOL     OW 8247   5.585   5.258   5.417  0.1263 -0.7330 -0.2099
 2119SOL    HW2 8248   5.645   5.234   5.346  0.3415 -0.1450 -0.2344
 2119SOL    HW3 8249   5.633   5.238   5.497 -0.7755 -3.0749 -0.1758
 2119SOL    MW4 8250   5.599   5.253   5.418  0.0357 -0.9644 -0.2087
 2120SOL     OW 8251   5.014   0.821   2.476  0.2351  0.2497  0.2793
 2120SOL    HW2 8252   4.942   0.853   2.531 -0.8426 -3.0867  1.0609
 2120SOL    HW3 8253   4.975   0.811   2.389  0.9634  2.1684 -0.3285
 2120SOL    MW4 8254   4.999   0.824   2.472  0.1890  0.0627  0.3023
 2121SOL     OW 8255   6.183   1.621   6.231  0.1733  0.0346 -0.3260
 2121SOL    HW2 8256   6.169   1.603   6.324 -0.0974 -0.5804 -0.4798
 2121SOL    HW3 8257   6.154   1.541   6.187 -1.5163  0.9978 -1.0759
 2121SOL    MW4 8258   6.177   1.608   6.237 -0.0854  0.0806 -0.4452
 2122SOL     OW 8259   4.482   3.080   0.655  0.1240 -0.3398 -0.5423
 2122SOL    HW2 8260   4.474   3.021   0.580  1.2552 -0.9447 -0.2154
 2122SOL    HW3 8261   4.530   3.029   0.720 -2.6195 -0.6016  1.4519
 2122SOL    MW4 8262   4.487   3.065   0.654 -0.0887 -0.4542 -0.2361
 2123SOL     OW 8263   6.043   4.199   0.351 -0.1801 -0.4456  0.0841
 2123SOL    HW2 8264   6.031   4.193   0.446  2.2997 -0.6871  0.4314
 2123SOL    HW3 8265   6.132   4.233   0.340 -1.1672  1.7320 -2.1693
 2123SOL    MW4 8266   6.053   4.203   0.362  0.0168 -0.1901 -0.1674
 2124SOL     OW 8267   2.884   5.875   2.428 -0.0226 -0.5625  0.0498
 2124SOL    HW2 8268   2.938   5.801   2.403  0.3244 -0.5233  0.6671
 2124SOL    HW3 8269   2.947   5.944   2.449 -0.3268  0.5215 -2.2484
 2124SOL    MW4 8270   2.899   5.875   2.427 -0.0169 -0.4143 -0.1720
 2125SOL     OW 8271   2.874   4.258   1.083 -0.5564  0.0468  0.2048
 2125SOL    HW2 8272   2.904   4.327   1.142  2.6502 -0.5126 -0.5955
 2125SOL    HW3 8273   2.883   4.177   1.133  1.3616 -0.3353 -0.6419
 2125SOL    MW4 8274   2.879   4.257   1.097  0.1197 -0.0774 -0.0125
 2126SOL     OW 8275   0.779   3.080   4.433  0.4267  0.0963 -0.1010
 2126SOL    HW2 8276   0.781   2.984   4.426  1.2728  0.0343  0.7911
 2126SOL    HW3 8277   0.704   3.106   4.380 -0.9086 -1.1818  1.0635
 2126SOL    MW4 8278   0.769   3.071   4.425  0.3621 -0.0805  0.1704
 2127SOL     OW 8279   1.972   3.179   1.633  0.2740  0.2356 -0.2452
 2127SOL    HW2 8280   2.051   3.231   1.617  0.8136 -0.4523  0.1343
 2127SOL    HW3 8281   1.924   3.183   1.551  0.8015  0.5017 -0.5493
 2127SOL    MW4 8282   1.976   3.186   1.620  0.4148  0.1800 -0.2353
 2128SOL     OW 8283   4.913   1.878   5.275 -0.3193  0.0946 -0.4832
 2128SOL    HW2 8284   5.000   1.905   5.246 -0.4953 -0.3552 -1.4756
 2128SOL    HW3 8285   4.899   1.793   5.233 -2.3307  1.3764 -2.5820
 2128SOL    MW4 8286   4.922   1.870   5.266 -0.6079  0.2044 -0.8911
 2129SOL     OW 8287   5.454   1.518   5.171  0.6018 -0.4045  0.2328
 2129SOL    HW2 8288   5.512   1.497   5.097  0.8914  0.6081  0.1514
 2129SOL    HW3 8289   5.503   1.490   5.248  1.5098  0.9813  0.2095
 2129SOL    MW4 8290   5.468   1.512   5.171  0.7598 -0.0881  0.2190
 2130SOL     OW 8291   5.232   3.137   0.742  0.1868  0.4465  0.1784
 2130SOL    HW2 8292   5.297   3.127   0.673  0.7454  2.8363  0.2925
 2130SOL    HW3 8293   5.180   3.213   0.716 -0.9780  0.1005  1.3474
 2130SOL    MW4 8294   5.234   3.146   0.730  0.1068  0.7162  0.3477
 2131SOL     OW 8295   5.762   2.712   4.597 -0.3079  0.3196 -0.2115
 2131SOL    HW2 8296   5.750   2.727   4.691  0.0200 -0.0211 -0.1109
 2131SOL    HW3 8297   5.673   2.706   4.562 -0.4329  0.2653  0.1080
 2131SOL    MW4 8298   5.749   2.713   4.605 -0.2811  0.2675 -0.1561
 2132SOL     OW 8299   2.950   4.201   0.072 -0.1476 -0.1367  0.0230
 2132SOL    HW2 8300   2.905   4.129   0.027  0.5575 -1.0710  0.7811
 2132SOL    HW3 8301   2.992   4.251   0.002 -1.9029  0.4793 -0.6689
 2132SOL    MW4 8302   2.949   4.198   0.057 -0.2862 -0.1787  0.0317
 2133SOL     OW 8303   3.184   1.679   3.515  0.2789  0.2066 -0.3227
 2133SOL    HW2 8304   3.208   1.722   3.598 -0.9557  3.0196 -1.2925
 2133SOL    HW3 8305   3.238   1.723   3.449 -1.0126  0.2758 -1.3853
 2133SOL    MW4 8306   3.195   1.691   3.517 -0.0544  0.5869 -0.5909
 2134SOL     OW 8307   4.720   3.890   1.820 -0.0620  0.1666  0.1507
 2134SOL    HW2 8308   4.678   3.916   1.902  0.1750  0.5311  0.1595
 2134SOL    HW3 8309   4.745   3.798   1.835  0.8298  0.5031  0.8528
 2134SOL    MW4 8310   4.718   3.881   1.833  0.0869  0.2591  0.2445
 2135SOL     OW 8311   2.189   2.094   1.684  0.0713 -0.3835  0.5949
 2135SOL    HW2 8312   2.180   2.141   1.767  2.9261  0.3640  0.5771
 2135SOL    HW3 8313   2.270   2.043   1.694  0.3719 -0.4316 -1.6362
 2135SOL    MW4 8314   2.199   2.094   1.696  0.4876 -0.2912  0.2982
 2136SOL     OW 8315   3.182   0.211   1.693 -0.0486  0.4272 -0.5898
 2136SOL    HW2 8316   3.231   0.196   1.774 -0.8453 -1.9349 -0.4501
 2136SOL    HW3 8317   3.168   0.123   1.658 -2.0400  1.2058 -1.8944
 2136SOL    MW4 8318   3.187   0.197   1.699 -0.4165  0.2183 -0.7435
 2137SOL     OW 8319   5.530   4.545   0.561 -0.2900 -0.3844  0.3755
 2137SOL    HW2 8320   5.572   4.543   0.475  0.8184  0.0053  0.8907
 2137SOL    HW3 8321   5.475   4.467   0.562 -2.0843  0.7552 -1.5373
 2137SOL    MW4 8322   5.528   4.534   0.550 -0.3805 -0.1826  0.1911
 2138SOL     OW 8323   1.798   1.271   4.401 -0.1595 -0.0747  0.3325
 2138SOL    HW2 8324   1.708   1.264   4.371 -0.2957 -1.3886  0.9818
 2138SOL    HW3 8325   1.849   1.226   4.334 -0.1740 -0.7058  0.7355
 2138SOL    MW4 8326   1.793   1.265   4.388 -0.1794 -0.3313  0.4713
 2139SOL     OW 8327   0.108   2.046   1.608 -0.0527  0.1523 -0.2366
 2139SOL    HW2 8328   0.094   2.000   1.691 -1.3413 -0.1088 -0.5799
 2139SOL    HW3 8329   0.020   2.061   1.574  0.4322  0.9982 -1.1604
 2139SOL    MW4 8330   0.094   2.042   1.615 -0.1587  0.2295 -0.4038
 2140SOL     OW 8331   4.972   3.079   2.591 -0.7965  0.6499  0.6572
 2140SOL    HW2 8332   4.939   3.083   2.680  0.5824 -0.4281  1.2563
 2140SOL    HW3 8333   5.067   3.088   2.599 -0.5884 -0.0282 -0.6345
 2140SOL    MW4 8334   4.980   3.081   2.604 -0.5871  0.4182  0.5658
 2141SOL     OW 8335   4.711   5.186   5.989  0.2796 -0.0030 -0.6001
 2141SOL    HW2 8336   4.699   5.099   6.028 -2.2421  0.3809 -0.3474
 2141SOL    HW3 8337   4.678   5.178   5.900  0.4836  0.5760 -0.7342
 2141SOL    MW4 8338   4.705   5.174   5.983 -0.0262  0.1240 -0.5845
 2142SOL     OW 8339   0.318   2.100   2.755  0.1663  0.2077 -0.3135
 2142SOL    HW2 8340   0.226   2.077   2.768  0.3566 -1.2151 -1.2351
 2142SOL    HW3 8341   0.357   2.093   2.842 -0.3761 -0.2575 -0.1008
 2142SOL    MW4 8342   0.311   2.096   2.768  0.1199 -0.0414 -0.4071
 2143SOL     OW 8343   3.802   3.738   4.676  0.0887 -0.7138 -0.0010
 2143SOL    HW2 8344   3.869   3.802   4.697 -0.1875  0.1855 -1.6709
 2143SOL    HW3 8345   3.748   3.731   4.755  0.8699  0.1581  0.6171
 2143SOL    MW4 8346   3.804   3.745   4.689  0.1553 -0.4801 -0.1398
 2144SOL     OW 8347   4.793   4.495   3.264  0.2118 -0.9557 -0.0915
 2144SOL    HW2 8348   4.710   4.485   3.216  0.4010 -1.3952 -0.3332
 2144SOL    HW3 8349   4.794   4.422   3.326 -1.2275  0.9957  2.4256
 2144SOL    MW4 8350   4.782   4.484   3.266  0.0469 -0.7562  0.2087
 2145SOL     OW 8351   4.741   0.040   4.399 -0.0776 -0.2844 -0.1335
 2145SOL    HW2 8352   4.677   0.013   4.333  1.3070 -1.2090 -1.1569
 2145SOL    HW3 8353   4.688   0.071   4.472 -1.6831 -0.4678 -1.1581
 2145SOL    MW4 8354   4.725   0.041   4.400 -0.1067 -0.4306 -0.4037
 2146SOL     OW 8355   6.015   1.630   2.887  0.2194  0.0282 -0.0657
 2146SOL    HW2 8356   6.096   1.613   2.839  0.8393 -0.0689  0.9886
 2146SOL    HW3 8357   5.985   1.543   2.914 -1.4895 -0.1993 -2.3505
 2146SOL    MW4 8358   6.022   1.616   2.884  0.0757 -0.0146 -0.2281
 2147SOL     OW 8359   1.132   3.715   4.170 -0.5669 -0.2209 -0.2136
 2147SOL    HW2 8360   1.173   3.801   4.160 -0.1816 -0.5644 -1.8719
 2147SOL    HW3 8361   1.205   3.655   4.180 -0.8453 -0.3549  1.2234
 2147SOL    MW4 8362   1.147   3.719   4.170 -0.5528 -0.2839 -0.2428
 2148SOL     OW 8363   4.817   3.649   5.474 -0.0484  0.5194 -1.0939
 2148SOL    HW2 8364   4.744   3.591   5.452  0.5846 -0.0301 -1.8004
 2148SOL    HW3 8365   4.788   3.736   5.444 -0.5663  0.3854 -1.0034
 2148SOL    MW4 8366   4.803   3.653   5.468 -0.0332  0.4292 -1.1752
 2149SOL     OW 8367   3.738   2.958   6.228 -0.4955  0.5308 -0.4245
 2149SOL    HW2 8368   3.668   2.895   6.245 -0.7567  0.6359 -1.0847
 2149SOL    HW3 8369   3.787   2.962   6.311 -0.2729 -0.7683 -0.4679
 2149SOL    MW4 8370   3.735   2.950   6.241 -0.5006  0.3733 -0.5173
 2150SOL     OW 8371   0.196   3.902   2.165 -0.2700 -0.5248  0.3345
 2150SOL    HW2 8372   0.243   3.914   2.248  1.6494 -0.9989 -0.6232
 2150SOL    HW3 8373   0.245   3.833   2.120 -1.1211 -0.0907 -1.3133
 2150SOL    MW4 8374   0.209   3.894   2.170 -0.1291 -0.5301 -0.0093
 2151SOL     OW 8375   4.213   3.280   2.527  0.0203 -0.3404  0.0162
 2151SOL    HW2 8376   4.209   3.191   2.560 -1.1735 -0.0418  0.7471
 2151SOL    HW3 8377   4.142   3.326   2.572 -1.1374  0.3222 -2.3183
 2151SOL    MW4 8378   4.203   3.275   2.538 -0.2899 -0.2136 -0.1954
 2152SOL     OW 8379   1.030   4.653   0.665  0.2811 -0.5390 -0.1240
 2152SOL    HW2 8380   1.049   4.733   0.714  0.5652 -1.0517  0.6141
 2152SOL    HW3 8381   1.104   4.595   0.684 -0.5653 -1.4640  0.4042
 2152SOL    MW4 8382   1.042   4.656   0.674  0.2069 -0.7287  0.0430
 2153SOL     OW 8383   0.340   3.766   3.952 -0.3046 -0.0308 -0.0978
 2153SOL    HW2 8384   0.371   3.694   4.008  0.8615  0.8000  0.3571
 2153SOL    HW3 8385   0.349   3.844   4.006 -2.0344  0.4329 -0.4113
 2153SOL    MW4 8386   0.345   3.767   3.967 -0.3790  0.1400 -0.0791
 2154SOL     OW 8387   0.200   4.924   2.150  0.0962 -0.9734 -0.2324
 2154SOL    HW2 8388   0.161   5.009   2.172 -0.4193 -1.0064 -0.9563
 2154SOL    HW3 8389   0.198   4.874   2.231  1.3893  0.0647  0.4780
 2154SOL    MW4 8390   0.194   4.929   2.164  0.1988 -0.8407 -0.2342
 2155SOL     OW 8391   3.011   5.735   1.263  0.2031 -0.2497  0.1167
 2155SOL    HW2 8392   3.070   5.666   1.232 -0.7774 -0.1899 -2.0502
 2155SOL    HW3 8393   2.938   5.734   1.201 -1.1736  0.9179  1.6418
 2155SOL    MW4 8394   3.009   5.726   1.251 -0.1079 -0.0878  0.0320
 2156SOL     OW 8395   2.106   3.460   0.195  0.6966 -0.1301 -0.5190
 2156SOL    HW2 8396   2.110   3.366   0.179 -2.3673 -0.3768 -0.5417
 2156SOL    HW3 8397   2.077   3.498   0.112  3.7059  1.1850 -1.1049
 2156SOL    MW4 8398   2.103   3.453   0.182  0.6894  0.0109 -0.5993
 2157SOL     OW 8399   1.348   2.918   4.643 -0.1987  0.3786 -0.0275
 2157SOL    HW2 8400   1.379   2.990   4.698  1.4101  0.5355 -1.0523
 2157SOL    HW3 8401   1.319   2.851   4.704 -0.0149  1.1838  0.9674
 2157SOL    MW4 8402   1.348   2.919   4.658  0.0378  0.5055 -0.0315
 2158SOL     OW 8403   1.886   3.582   0.662  0.2649 -0.4393  0.6363
 2158SOL    HW2 8404   1.818   3.631   0.615 -0.2114  0.0488  1.8078
 2158SOL    HW3 8405   1.957   3.646   0.675  1.1300 -1.0355 -0.8794
 2158SOL    MW4 8406   1.887   3.597   0.657  0.3162 -0.4536  0.5909
 2159SOL     OW 8407   2.038   4.874   3.714  0.0791 -0.1874  0.3053
 2159SOL    HW2 8408   2.075   4.821   3.785 -0.1902  0.5641  1.0344
 2159SOL    HW3 8409   2.097   4.950   3.708  0.0726 -0.2232 -0.2472
 2159SOL    MW4 8410   2.051   4.877   3.723  0.0427 -0.0930  0.3286
 2160SOL     OW 8411   6.035   2.388   0.115  0.2324  0.2934 -0.4877
 2160SOL    HW2 8412   6.078   2.307   0.142 -0.1892 -0.3355 -1.6494
 2160SOL    HW3 8413   5.955   2.392   0.168  1.4982  1.3185  1.4681
 2160SOL    MW4 8414   6.030   2.378   0.126  0.3438  0.3457 -0.3829
 2161SOL     OW 8415   4.620   5.516   3.599  0.7453  0.5316 -0.3484
 2161SOL    HW2 8416   4.681   5.546   3.667 -0.9630  1.5939  0.8280
 2161SOL    HW3 8417   4.640   5.423   3.588  3.6214  1.1567 -1.2345
 2161SOL    MW4 8418   4.630   5.508   3.607  0.8994  0.7543 -0.3101
 2162SOL     OW 8419   4.108   3.217   0.131 -0.1851  0.0464  0.4584
 2162SOL    HW2 8420   4.058   3.278   0.185 -0.8428 -2.2549  2.6736
 2162SOL    HW3 8421   4.047   3.145   0.113  1.6505 -1.9433  1.6162
 2162SOL    MW4 8422   4.093   3.215   0.136 -0.0297 -0.5197  0.9034
 2163SOL     OW 8423   0.205   2.442   3.180 -0.3711  0.5266  0.4622
 2163SOL    HW2 8424   0.254   2.444   3.099 -0.7696 -1.1332  0.1361
 2163SOL    HW3 8425   0.113   2.437   3.153 -0.4964 -0.2661  0.9926
 2163SOL    MW4 8426   0.199   2.442   3.166 -0.4402  0.2030  0.4891
 2164SOL     OW 8427   5.520   1.742   4.239  0.0562 -0.0343 -0.0114
 2164SOL    HW2 8428   5.581   1.730   4.166 -1.1925 -0.0236 -1.1022
 2164SOL    HW3 8429   5.496   1.653   4.265 -0.4507 -0.0322 -0.4575
 2164SOL    MW4 8430   5.525   1.729   4.233 -0.1754 -0.0326 -0.2142
 2165SOL     OW 8431   4.352   4.657   5.506 -0.2379 -0.0269  0.5975
 2165SOL    HW2 8432   4.359   4.685   5.597 -2.2725  1.4051  0.3604
 2165SOL    HW3 8433   4.323   4.734   5.459  1.0631 -0.6558 -1.3637
 2165SOL    MW4 8434   4.349   4.671   5.512 -0.3347  0.0791  0.3074
 2166SOL     OW 8435   5.242   4.981   5.806  0.4779 -0.1686  0.0910
 2166SOL    HW2 8436   5.336   4.974   5.821  0.2722 -0.9755  1.1506
 2166SOL    HW3 8437   5.216   5.061   5.850  0.7573  0.4297 -0.7927
 2166SOL    MW4 8438   5.251   4.990   5.814  0.4876 -0.1961  0.1142
 2167SOL     OW 8439   3.918   6.421   5.816 -0.1504  0.0635 -0.3173
 2167SOL    HW2 8440   3.829   6.420   5.779 -0.8022 -0.4458  1.1649
 2167SOL    HW3 8441   3.974   6.446   5.743 -1.3166 -1.2561 -1.7486
 2167SOL    MW4 8442   3.914   6.424   5.801 -0.3902 -0.1778 -0.3106
 2168SOL     OW 8443   0.583   5.706   2.170 -0.2690  0.5731 -0.5806
 2168SOL    HW2 8444   0.595   5.746   2.257 -0.4038 -0.0897 -0.2474
 2168SOL    HW3 8445   0.536   5.771   2.120 -3.9895 -0.5240  1.1148
 2168SOL    MW4 8446   0.578   5.720   2.175 -0.7776  0.3409 -0.3130
 2169SOL     OW 8447   3.468   5.625   1.858 -0.7422 -0.4231  0.1629
 2169SOL    HW2 8448   3.474   5.652   1.766 -0.6853  1.0362  0.5651
 2169SOL    HW3 8449   3.400   5.558   1.859  0.4720 -1.7318 -1.2015
 2169SOL    MW4 8450   3.460   5.620   1.846 -0.5745 -0.4032  0.0360
 2170SOL     OW 8451   1.239   0.852   0.904 -0.1150 -0.0236  0.2400
 2170SOL    HW2 8452   1.243   0.765   0.943  0.8174 -0.0719  0.0701
 2170SOL    HW3 8453   1.245   0.837   0.810  2.1783  0.2852  0.2707
 2170SOL    MW4 8454   1.241   0.839   0.897  0.3106  0.0107  0.2216
 2171SOL     OW 8455   4.446   0.806   3.446  0.2520 -0.3762 -0.2684
 2171SOL    HW2 8456   4.499   0.751   3.503 -0.9728  0.0043  1.3373
 2171SOL    HW3 8457   4.370   0.829   3.500 -0.7020  0.4685 -1.8944
 2171SOL    MW4 8458   4.443   0.802   3.460 -0.0355 -0.2146 -0.2711
 2172SOL     OW 8459   3.363   2.575   2.886  0.6101 -0.1507 -0.2376
 2172SOL    HW2 8460   3.422   2.634   2.934 -1.4233  0.0878  2.1523
 2172SOL    HW3 8461   3.410   2.556   2.805  2.7821  2.1216  0.3561
 2172SOL    MW4 8462   3.377   2.580   2.882  0.6284  0.1805  0.1560
 2173SOL     OW 8463   2.932   1.573   4.181  0.4263  0.1817  0.1399
 2173SOL    HW2 8464   3.024   1.596   4.198  0.3384  0.5422  0.1394
 2173SOL    HW3 8465   2.884   1.654   4.196 -0.1632 -0.5017  2.3163
 2173SOL    MW4 8466   2.938   1.587   4.185  0.3369  0.1391  0.4270
 2174SOL     OW 8467   5.940   3.823   3.252 -0.1632 -0.1066  0.2089
 2174SOL    HW2 8468   5.970   3.745   3.207 -0.0675 -0.0479  0.1704
 2174SOL    HW3 8469   5.845   3.814   3.255 -0.0097 -1.7401  2.9716
 2174SOL    MW4 8470   5.931   3.812   3.246 -0.1303 -0.3144  0.5683
 2175SOL     OW 8471   4.987   5.662   0.318  0.1213 -0.3576  0.3323
 2175SOL    HW2 8472   4.995   5.661   0.223 -1.2258  2.1242  0.1274
 2175SOL    HW3 8473   4.998   5.754   0.342 -0.4344 -0.8087  2.5040
 2175SOL    MW4 8474   4.990   5.674   0.309 -0.1297 -0.0897  0.5918
 2176SOL     OW 8475   4.815   1.892   3.510 -0.1614 -0.2542 -0.4506
 2176SOL    HW2 8476   4.809   1.820   3.573 -0.1684 -0.6142 -0.8555
 2176SOL    HW3 8477   4.905   1.887   3.477 -0.1937 -0.1475 -0.5557
 2176SOL    MW4 8478   4.826   1.882   3.514 -0.1666 -0.2876 -0.5179
 2177SOL     OW 8479   4.166   2.372   3.974 -0.7174  0.3160  0.6315
 2177SOL    HW2 8480   4.144   2.403   3.886 -0.1316 -2.6781 -0.7293
 2177SOL    HW3 8481   4.084   2.336   4.008 -1.0772  1.9890  1.6019
 2177SOL    MW4 8482   4.153   2.371   3.967 -0.6876  0.1417  0.5800
 2178SOL     OW 8483   4.450   4.934   4.259  0.2338 -0.1363  0.1511
 2178SOL    HW2 8484   4.475   5.026   4.248 -1.2875  0.2525 -0.3391
 2178SOL    HW3 8485   4.484   4.910   4.345 -1.0568  1.5260  1.2038
 2178SOL    MW4 8486   4.458   4.943   4.269 -0.1372  0.1343  0.2253
 2179SOL     OW 8487   1.097   5.876   3.423  0.4209 -0.1751  0.5934
 2179SOL    HW2 8488   1.007   5.904   3.408  1.0255  1.3451 -0.4331
 2179SOL    HW3 8489   1.121   5.828   3.343  0.6073 -0.3593  0.7567
 2179SOL    MW4 8490   1.088   5.873   3.410  0.5253  0.0011  0.4795
 2180SOL     OW 8491   3.182   5.202   6.339 -0.1673  0.0467 -0.2433
 2180SOL    HW2 8492   3.243   5.218   6.411 -1.9207  1.5428  0.9914
 2180SOL    HW3 8493   3.103   5.248   6.364 -1.9236 -1.9908 -1.6749
 2180SOL    MW4 8494   3.180   5.210   6.352 -0.6304 -0.0247 -0.2693
 2181SOL     OW 8495   4.187   1.165   1.552 -0.1012  0.5564 -0.1835
 2181SOL    HW2 8496   4.098   1.161   1.586  0.4738  2.1284  1.6660
 2181SOL    HW3 8497   4.178   1.142   1.459 -2.0497 -1.7202  0.4700
 2181SOL    MW4 8498   4.174   1.162   1.544 -0.2824  0.4634  0.1467
 2182SOL     OW 8499   3.691   4.362   0.106 -0.0636 -0.2734  0.0208
 2182SOL    HW2 8500   3.733   4.311   0.037  0.7532  0.7457 -0.2707
 2182SOL    HW3 8501   3.614   4.401   0.064  0.5209  0.4737 -0.3722
 2182SOL    MW4 8502   3.686   4.361   0.092  0.1213 -0.0403 -0.0695
 2183SOL     OW 8503   5.998   1.391   2.167  0.0375  0.2245  0.2018
 2183SOL    HW2 8504   6.034   1.368   2.253  0.5482  0.5925  0.0911
 2183SOL    HW3 8505   5.904   1.376   2.176  0.0836  0.2614  0.8306
 2183SOL    MW4 8506   5.991   1.386   2.180  0.1110  0.2779  0.2702
 2184SOL     OW 8507   5.101   2.702   2.427 -0.1888  0.0502 -0.6096
 2184SOL    HW2 8508   5.093   2.629   2.366 -0.4376  0.8930 -1.6040
 2184SOL    HW3 8509   5.026   2.693   2.485 -1.3250  0.6010 -1.9375
 2184SOL    MW4 8510   5.090   2.691   2.427 -0.3715  0.2340 -0.9160
 2185SOL     OW 8511   3.443   4.461   6.032  0.3972  0.4927 -0.2156
 2185SOL    HW2 8512   3.507   4.417   5.974  0.0745  1.1351 -1.0775
 2185SOL    HW3 8513   3.486   4.462   6.117  0.6593 -0.9814 -0.2956
 2185SOL    MW4 8514   3.457   4.455   6.035  0.3892  0.3830 -0.3399
 2186SOL     OW 8515   4.405   1.254   4.818  0.8637 -0.0242 -0.0357
 2186SOL    HW2 8516   4.444   1.310   4.751 -1.8615  1.3832 -0.5754
 2186SOL    HW3 8517   4.314   1.282   4.824  0.1471 -2.3436  1.9360
 2186SOL    MW4 8518   4.398   1.265   4.810  0.4096 -0.1446  0.1533
 2187SOL     OW 8519   5.217   0.811   2.164 -0.3190  0.2940 -0.7980
 2187SOL    HW2 8520   5.276   0.855   2.225  1.7942 -0.9723 -1.8168
 2187SOL    HW3 8521   5.240   0.847   2.078 -0.5524 -0.7146 -1.2977
 2187SOL    MW4 8522   5.227   0.822   2.161 -0.0710 -0.0062 -0.9983
 2188SOL     OW 8523   0.483   1.292   5.384 -0.4294  0.0455 -0.0094
 2188SOL    HW2 8524   0.499   1.265   5.475  0.5262  0.2634 -0.1041
 2188SOL    HW3 8525   0.473   1.210   5.336 -2.6185 -0.0843  0.5429
 2188SOL    MW4 8526   0.484   1.278   5.390 -0.5921  0.0571  0.0510
 2189SOL     OW 8527   2.352   1.830   4.532  0.3915  0.6295 -0.4066
 2189SOL    HW2 8528   2.283   1.810   4.469  1.7732  0.5923 -2.0064
 2189SOL    HW3 8529   2.403   1.899   4.490  2.4692 -0.6921 -0.2269
 2189SOL    MW4 8530   2.350   1.836   4.518  0.8479  0.4502 -0.5939
 2190SOL     OW 8531   2.583   2.222   6.169  0.8515 -0.0240 -0.1772
 2190SOL    HW2 8532   2.576   2.238   6.263 -1.3061  0.3687 -0.3579
 2190SOL    HW3 8533   2.534   2.141   6.155 -0.6083  1.0018 -1.2216
 2190SOL    MW4 8534   2.576   2.213   6.180  0.3742  0.1632 -0.3388
 2191SOL     OW 8535   5.770   5.549   5.635  0.1386 -0.3314  0.3175
 2191SOL    HW2 8536   5.722   5.617   5.588  1.5612 -0.2935 -1.1769
 2191SOL    HW3 8537   5.854   5.589   5.656 -0.3650 -0.4399  2.7560
 2191SOL    MW4 8538   5.775   5.563   5.631  0.2599 -0.3407  0.4421
 2192SOL     OW 8539   1.557   4.829   1.118 -0.3322 -0.1568 -0.1047
 2192SOL    HW2 8540   1.544   4.745   1.162 -0.1316  0.1453  0.5422
 2192SOL    HW3 8541   1.473   4.875   1.129 -0.2672 -0.0632  0.0024
 2192SOL    MW4 8542   1.544   4.824   1.125 -0.2972 -0.1046 -0.0052
 2193SOL     OW 8543   3.965   3.470   4.193  0.2635 -0.0852  0.0179
 2193SOL    HW2 8544   4.020   3.548   4.192 -0.5540  0.5057 -0.3076
 2193SOL    HW3 8545   3.920   3.474   4.278 -0.3444  0.2223 -0.3074
 2193SOL    MW4 8546   3.966   3.481   4.204  0.0754  0.0334 -0.0680
 2194SOL     OW 8547   0.721   2.118   4.238  0.1878  0.1786  0.0199
 2194SOL    HW2 8548   0.695   2.027   4.223  0.3454 -0.1440  1.5923
 2194SOL    HW3 8549   0.642   2.169   4.220  0.7211  0.0677 -3.4163
 2194SOL    MW4 8550   0.708   2.113   4.234  0.2789  0.1214 -0.2260
 2195SOL     OW 8551   3.118   1.616   4.859 -0.7114 -0.3245  0.1924
 2195SOL    HW2 8552   3.085   1.618   4.949 -1.7376  0.1267 -0.1834
 2195SOL    HW3 8553   3.195   1.559   4.863  1.2390  2.2487  1.9843
 2195SOL    MW4 8554   3.123   1.609   4.871 -0.5894  0.0745  0.3793
 2196SOL     OW 8555   4.572   6.408   2.807 -0.2189  0.6554  0.0039
 2196SOL    HW2 8556   4.533   6.495   2.800  0.8503  1.1202 -0.3696
 2196SOL    HW3 8557   4.619   6.396   2.724  0.6945  0.2585  0.5634
 2196SOL    MW4 8558   4.573   6.418   2.795  0.0427  0.6643  0.0284
 2197SOL     OW 8559   1.410   2.674   0.453 -0.1410  0.2602  0.0249
 2197SOL    HW2 8560   1.471   2.683   0.526 -1.4799 -0.0946  1.2377
 2197SOL    HW3 8561   1.334   2.726   0.478 -0.1689  1.1228 -1.6828
 2197SOL    MW4 8562   1.408   2.682   0.466 -0.3214  0.3272 -0.0404
 2198SOL     OW 8563   4.781   1.810   1.991  0.1276 -0.7089 -0.2089
 2198SOL    HW2 8564   4.848   1.825   1.924 -0.2737 -0.6246 -0.5933
 2198SOL    HW3 8565   4.771   1.715   1.994  1.4250 -0.8512  1.0053
 2198SOL    MW4 8566   4.789   1.799   1.982  0.2458 -0.7166 -0.0994
 2199SOL     OW 8567   1.081   3.140   2.899  0.0612  0.3468 -0.4921
 2199SOL    HW2 8568   1.045   3.087   2.828  0.2826 -2.4216  1.3262
 2199SOL    HW3 8569   1.155   3.186   2.859 -0.4111 -0.3624 -2.2795
 2199SOL    MW4 8570   1.086   3.139   2.884  0.0281 -0.1120 -0.4880
 2200SOL     OW 8571   5.850   2.625   2.443 -0.5098  0.5833 -0.1990
 2200SOL    HW2 8572   5.868   2.677   2.522 -2.3447 -1.3502  1.6427
 2200SOL    HW3 8573   5.922   2.562   2.439  1.1971  2.5238 -1.8818
 2200SOL    MW4 8574   5.862   2.624   2.453 -0.5267  0.5842 -0.1780
 2201SOL     OW 8575   5.702   0.222   1.971 -0.2497 -0.0345  0.1925
 2201SOL    HW2 8576   5.731   0.296   1.919 -3.0416 -1.4292 -3.8454
 2201SOL    HW3 8577   5.619   0.249   2.009 -0.0514 -0.2895  0.8293
 2201SOL    MW4 8578   5.695   0.235   1.969 -0.5919 -0.2522 -0.2562
 2202SOL     OW 8579   5.619   5.700   6.009  0.0457  0.4735  0.3248
 2202SOL    HW2 8580   5.661   5.741   6.084  1.0399 -0.5672  0.3700
 2202SOL    HW3 8581   5.691   5.665   5.957 -0.7106 -0.6179 -0.0340
 2202SOL    MW4 8582   5.634   5.701   6.012  0.0771  0.1922  0.2834
 2203SOL     OW 8583   0.374   1.147   2.952 -0.6507 -0.6443  0.2645
 2203SOL    HW2 8584   0.305   1.149   3.019 -0.0380  0.6064  0.9058
 2203SOL    HW3 8585   0.454   1.132   3.002 -0.3292 -0.9800 -0.3483
 2203SOL    MW4 8586   0.375   1.146   2.968 -0.5274 -0.5236  0.2683
 2204SOL     OW 8587   3.325   3.007   2.213  0.5373 -0.1831  0.1970
 2204SOL    HW2 8588   3.331   3.053   2.130  1.0130 -0.5248  0.0376
 2204SOL    HW3 8589   3.232   3.012   2.237  0.8088  2.4184  1.0937
 2204SOL    MW4 8590   3.314   3.014   2.206  0.6359  0.1151  0.2943
 2205SOL     OW 8591   5.719   2.214   0.485 -0.2289 -0.2373  0.4686
 2205SOL    HW2 8592   5.785   2.254   0.542 -0.3426  0.2563  0.2581
 2205SOL    HW3 8593   5.722   2.266   0.405 -1.7725  0.6173  0.9262
 2205SOL    MW4 8594   5.728   2.227   0.482 -0.4476 -0.0594  0.5012
 2206SOL     OW 8595   1.520   1.171   3.135 -0.5700  0.3971  0.0864
 2206SOL    HW2 8596   1.533   1.170   3.040 -0.0864 -0.8658  0.1497
 2206SOL    HW3 8597   1.428   1.193   3.147 -0.7429  0.1082 -0.6980
 2206SOL    MW4 8598   1.510   1.174   3.124 -0.5290  0.1924 -0.0087
 2207SOL     OW 8599   3.072   4.816   1.551  0.1925 -0.1483 -0.0572
 2207SOL    HW2 8600   3.127   4.884   1.591 -0.0545 -0.6353  1.1555
 2207SOL    HW3 8601   3.078   4.742   1.611  0.7927 -1.3792 -1.5696
 2207SOL    MW4 8602   3.080   4.815   1.564  0.2391 -0.3750 -0.0967
 2208SOL     OW 8603   1.034   0.405   4.712 -0.4227 -0.1228  0.0049
 2208SOL    HW2 8604   1.076   0.468   4.771  0.9462 -0.7095 -0.2951
 2208SOL    HW3 8605   1.036   0.448   4.626  0.7891 -0.6555 -0.2595
 2208SOL    MW4 8606   1.040   0.419   4.708 -0.0822 -0.2705 -0.0695
 2209SOL     OW 8607   5.594   0.584   0.904  0.2972  0.0921  0.1765
 2209SOL    HW2 8608   5.587   0.631   0.987  1.1021  0.7629 -0.1222
 2209SOL    HW3 8609   5.552   0.499   0.921 -2.8881  1.5265  0.1836
 2209SOL    MW4 8610   5.588   0.579   0.917 -0.0169  0.3698  0.1380
 2210SOL     OW 8611   0.761   6.084   4.525 -0.1739 -0.6340 -0.6594
 2210SOL    HW2 8612   0.682   6.062   4.476 -1.0114  0.8892 -0.0484
 2210SOL    HW3 8613   0.800   6.156   4.476 -0.6039  0.3785  0.4537
 2210SOL    MW4 8614   0.756   6.090   4.512 -0.3412 -0.2994 -0.4319
 2211SOL     OW 8615   1.018   3.210   3.671 -0.2372 -0.0328  0.7406
 2211SOL    HW2 8616   1.111   3.233   3.674  0.2011 -1.7671  2.0124
 2211SOL    HW3 8617   0.979   3.259   3.744 -0.1499  0.0258  0.7478
 2211SOL    MW4 8618   1.025   3.220   3.681 -0.1679 -0.2539  0.9093
 2212SOL     OW 8619   2.836   0.208   6.353 -0.3371 -0.2881  0.1761
 2212SOL    HW2 8620   2.789   0.260   6.289  0.4618  0.0197 -0.1675
 2212SOL    HW3 8621   2.819   0.117   6.328  0.2309 -0.1690 -0.6700
 2212SOL    MW4 8622   2.828   0.202   6.342 -0.1567 -0.2318  0.0191
 2213SOL     OW 8623   1.345   3.036   1.580 -0.1207  0.6008  0.1475
 2213SOL    HW2 8624   1.291   3.088   1.640  0.2953  0.4160  0.6898
 2213SOL    HW3 8625   1.358   3.093   1.504 -3.3238 -0.2929 -1.2591
 2213SOL    MW4 8626   1.339   3.051   1.578 -0.4884  0.4585  0.0334
 2214SOL     OW 8627   2.028   2.057   5.909 -0.0379  0.4476 -0.1551
 2214SOL    HW2 8628   1.959   2.124   5.902 -1.2211 -0.6736  0.4150
 2214SOL    HW3 8629   2.103   2.096   5.865 -0.9341  1.8391 -0.5282
 2214SOL    MW4 8630   2.029   2.071   5.903 -0.3122  0.4833 -0.1291
 2215SOL     OW 8631   0.796   6.304   0.964 -0.3253  0.1843  0.1820
 2215SOL    HW2 8632   0.711   6.263   0.949  0.8561 -2.1218 -0.5381
 2215SOL    HW3 8633   0.860   6.243   0.928  1.8307  0.6068  2.9509
 2215SOL    MW4 8634   0.793   6.291   0.958  0.1151 -0.0642  0.4523
 2216SOL     OW 8635   0.761   1.212   2.974 -0.4799 -0.0711  0.3959
 2216SOL    HW2 8636   0.735   1.275   3.040  0.4542  0.1000  0.6177
 2216SOL    HW3 8637   0.856   1.203   2.985 -0.6626 -1.9793  0.7996
 2216SOL    MW4 8638   0.770   1.219   2.984 -0.3807 -0.3003  0.4784
 2217SOL     OW 8639   1.124   0.613   0.590  0.1740 -0.0484  0.1036
 2217SOL    HW2 8640   1.212   0.620   0.629  0.2694 -1.2896  0.1264
 2217SOL    HW3 8641   1.129   0.538   0.532 -1.3897 -1.2972  1.5024
 2217SOL    MW4 8642   1.137   0.604   0.588 -0.0197 -0.3769  0.2911
 2218SOL     OW 8643   6.353   2.230   4.648  0.2672 -0.0742 -0.0708
 2218SOL    HW2 8644   6.317   2.218   4.560  1.5180 -1.3263 -0.4469
 2218SOL    HW3 8645   6.443   2.199   4.641  0.3586 -0.2918  1.6875
 2218SOL    MW4 8646   6.360   2.224   4.636  0.4443 -0.2681  0.1115
 2219SOL     OW 8647   0.950   2.566   1.921  0.8537  0.0690 -0.6431
 2219SOL    HW2 8648   0.981   2.483   1.885  1.0730 -0.0998 -0.0781
 2219SOL    HW3 8649   0.893   2.541   1.994  1.4705  0.4132 -0.0245
 2219SOL    MW4 8650   0.947   2.552   1.926  0.9640  0.0921 -0.4869
 2220SOL     OW 8651   4.431   5.513   5.544  0.0319  0.6392  0.3018
 2220SOL    HW2 8652   4.515   5.506   5.588 -0.5123  0.9306  1.4223
 2220SOL    HW3 8653   4.379   5.570   5.600 -1.1695 -0.1489  0.0306
 2220SOL    MW4 8654   4.435   5.520   5.557 -0.1984  0.5737  0.4138
 2221SOL     OW 8655   4.180   1.464   1.998 -0.5643  0.5202  0.3854
 2221SOL    HW2 8656   4.235   1.399   1.954 -0.2211  0.5189  0.8160
 2221SOL    HW3 8657   4.221   1.548   1.978 -0.3314  0.5089  0.8165
 2221SOL    MW4 8658   4.192   1.466   1.989 -0.4883  0.5186  0.4991
 2222SOL     OW 8659   3.258   6.213   0.077  0.2174 -0.3405 -0.4789
 2222SOL    HW2 8660   3.267   6.199  -0.017  0.2349  1.9916 -0.8790
 2222SOL    HW3 8661   3.313   6.146   0.117  0.9989 -0.7400 -2.1514
 2222SOL    MW4 8662   3.266   6.202   0.070  0.3228 -0.0856 -0.7524
 2223SOL     OW 8663   1.041   1.165   3.000 -0.6810  0.0450 -0.2438
 2223SOL    HW2 8664   1.068   1.091   2.945 -1.1037 -0.4923  0.2510
 2223SOL    HW3 8665   1.067   1.243   2.951  2.4736 -0.4018  0.5279
 2223SOL    MW4 8666   1.048   1.165   2.987 -0.3206 -0.0848 -0.0767
 2224SOL     OW 8667   3.597   6.261   2.274  0.9197  0.2267 -0.5020
 2224SOL    HW2 8668   3.600   6.319   2.350  1.2979  0.3497 -0.6071
 2224SOL    HW3 8669   3.689   6.247   2.251  0.8106  0.1130 -0.8778
 2224SOL    MW4 8670   3.609   6.266   2.281  0.9552  0.2279 -0.5654
 2225SOL     OW 8671   1.622   5.930   6.360 -0.6782 -0.6993  0.1500
 2225SOL    HW2 8672   1.596   5.966   6.275 -2.5235  1.9750  1.6950
 2225SOL    HW3 8673   1.586   5.841   6.360 -1.8958 -0.2579 -1.3227
 2225SOL    MW4 8674   1.614   5.923   6.349 -1.0823 -0.2882  0.1595
 2226SOL     OW 8675   1.949   6.207   5.921  0.1679  0.1885  0.1564
 2226SOL    HW2 8676   1.961   6.276   5.987  1.3749  1.1552 -1.0202
 2226SOL    HW3 8677   1.921   6.130   5.971  1.0930  0.8725  1.7911
 2226SOL    MW4 8678   1.947   6.206   5.936  0.4492  0.4063  0.2169
 2227SOL     OW 8679   1.623   5.435   2.274 -0.4675 -0.1100 -0.6987
 2227SOL    HW2 8680   1.650   5.526   2.289  0.0687 -0.3779  0.0502
 2227SOL    HW3 8681   1.595   5.433   2.183  0.3190  0.6213 -0.9760
 2227SOL    MW4 8682   1.623   5.447   2.264 -0.2930 -0.0488 -0.6365
 2228SOL     OW 8683   4.534   0.144   5.643  0.2792 -0.3370  0.0812
 2228SOL    HW2 8684   4.448   0.179   5.666  0.6836  0.2106  0.7631
 2228SOL    HW3 8685   4.596   0.208   5.676  0.9443 -0.5044 -0.8095
 2228SOL    MW4 8686   4.530   0.157   5.650  0.4203 -0.2869  0.0537
 2229SOL     OW 8687   2.834   4.742   3.730 -0.1418  0.4763 -0.4156
 2229SOL    HW2 8688   2.915   4.792   3.740  0.0198  0.3277 -0.9698
 2229SOL    HW3 8689   2.823   4.698   3.814 -0.0913  1.1543 -0.0463
 2229SOL    MW4 8690   2.843   4.743   3.743 -0.1138  0.5462 -0.4400
 2230SOL     OW 8691   3.017   3.881   2.290 -0.0268  0.2119 -0.2186
 2230SOL    HW2 8692   3.045   3.971   2.305  1.7221 -0.2415 -0.4654
 2230SOL    HW3 8693   3.055   3.832   2.363 -0.1953 -0.4519 -0.5675
 2230SOL    MW4 8694   3.026   3.886   2.301  0.1817  0.0645 -0.2972
 2231SOL     OW 8695   4.327   0.290   3.624  0.2963 -0.3797  1.0732
 2231SOL    HW2 8696   4.328   0.370   3.571 -1.6756 -0.7728  0.3663
 2231SOL    HW3 8697   4.399   0.237   3.589  1.0933  0.7091  1.0046
 2231SOL    MW4 8698   4.337   0.293   3.612  0.1413 -0.2879  0.9709
 2232SOL     OW 8699   0.184   4.921   1.862  0.0175 -0.8581  0.4019
 2232SOL    HW2 8700   0.129   4.988   1.821  1.3805  0.5336  0.7548
 2232SOL    HW3 8701   0.170   4.933   1.956 -1.7119 -2.8440  0.4642
 2232SOL    MW4 8702   0.175   4.932   1.869 -0.0309 -0.9365  0.4567
 2233SOL     OW 8703   5.127   5.792   4.621 -0.1389 -0.0845  0.4093
 2233SOL    HW2 8704   5.157   5.870   4.573  0.5216  2.0220  3.9295
 2233SOL    HW3 8705   5.203   5.766   4.673 -1.3376 -1.0641  1.7299
 2233SOL    MW4 8706   5.141   5.799   4.621 -0.2099  0.0641  1.0480
 2234SOL     OW 8707   5.957   4.973   0.693 -0.5000  0.1352 -0.6524
 2234SOL    HW2 8708   6.019   4.900   0.706  0.2852  0.7618 -0.8255
 2234SOL    HW3 8709   5.871   4.931   0.695 -0.0840 -0.7353 -0.2552
 2234SOL    MW4 8710   5.954   4.958   0.695 -0.3415  0.1031 -0.6228
 2235SOL     OW 8711   3.536   0.765   0.208 -0.1868 -0.1589  0.1262
 2235SOL    HW2 8712   3.536   0.750   0.303 -2.8090 -2.6398 -0.1274
 2235SOL    HW3 8713   3.489   0.847   0.196  1.2131  0.8028  0.9814
 2235SOL    MW4 8714   3.530   0.774   0.219 -0.3481 -0.3593  0.2056
 2236SOL     OW 8715   5.836   2.053   5.361 -0.4195 -0.1555  0.1240
 2236SOL    HW2 8716   5.908   2.030   5.302 -1.3279  1.9374 -1.9802
 2236SOL    HW3 8717   5.760   2.060   5.303 -1.7310  0.3702  1.8463
 2236SOL    MW4 8718   5.835   2.051   5.345 -0.7124  0.1900  0.0736
 2237SOL     OW 8719   2.703   0.850   3.957  0.1967 -0.2907 -0.3400
 2237SOL    HW2 8720   2.666   0.904   3.887 -2.7693  0.3746  1.5405
 2237SOL    HW3 8721   2.714   0.764   3.917  0.0248  0.4148 -2.0096
 2237SOL    MW4 8722   2.700   0.846   3.942 -0.2173 -0.1099 -0.3122
 2238SOL     OW 8723   2.320   4.693   5.679  0.7753 -0.1179 -0.0982
 2238SOL    HW2 8724   2.405   4.728   5.652  0.0344  1.3672 -0.6152
 2238SOL    HW3 8725   2.307   4.727   5.768  1.8291 -2.4654  1.0333
 2238SOL    MW4 8726   2.329   4.702   5.687  0.8166 -0.2317 -0.0171
 2239SOL     OW 8727   1.697   3.061   5.053  0.5423 -0.1633  0.1698
 2239SOL    HW2 8728   1.759   3.064   5.125  1.9259  0.7226 -1.0026
 2239SOL    HW3 8729   1.669   3.152   5.042  1.4190 -0.0277 -1.2585
 2239SOL    MW4 8730   1.701   3.074   5.061  0.8405 -0.0285 -0.1733
 2240SOL     OW 8731   2.337   3.478   1.663  0.0850 -0.2136 -0.1565
 2240SOL    HW2 8732   2.370   3.449   1.748  0.8518 -0.4430 -0.5155
 2240SOL    HW3 8733   2.271   3.544   1.683  1.4813  1.0075  0.6034
 2240SOL    MW4 8734   2.333   3.483   1.677  0.3704 -0.0828 -0.1036
 2241SOL     OW 8735   1.662   4.193   2.343 -0.2956 -0.5183 -0.2361
 2241SOL    HW2 8736   1.580   4.178   2.296 -0.1500  1.0485 -1.0750
 2241SOL    HW3 8737   1.650   4.279   2.384  0.8636 -0.3338 -0.2437
 2241SOL    MW4 8738   1.649   4.203   2.342 -0.1235 -0.2872 -0.3478
 2242SOL     OW 8739   1.010   3.123   4.590 -0.0184 -0.6703 -0.1112
 2242SOL    HW2 8740   0.918   3.109   4.570 -0.3727  2.4754 -1.3057
 2242SOL    HW3 8741   1.057   3.084   4.516 -0.7015  1.0670 -1.5392
 2242SOL    MW4 8742   1.004   3.116   4.578 -0.1552 -0.0261 -0.4572
 2243SOL     OW 8743   0.610   0.716   5.060 -0.9773  0.1031  0.0619
 2243SOL    HW2 8744   0.650   0.801   5.077 -0.9849  0.2696 -0.7112
 2243SOL    HW3 8745   0.666   0.677   4.993  0.5526 -1.5978  2.1651
 2243SOL    MW4 8746   0.623   0.722   5.053 -0.7764 -0.0993  0.2374
 2244SOL     OW 8747   0.734   4.933   0.842 -0.2770  0.1413 -0.1912
 2244SOL    HW2 8748   0.674   4.934   0.767  0.0738  1.3042 -0.4716
 2244SOL    HW3 8749   0.730   5.022   0.877 -0.0637 -0.2636  0.8793
 2244SOL    MW4 8750   0.725   4.945   0.837 -0.2025  0.2413 -0.0869
 2245SOL     OW 8751   2.729   1.555   2.907 -0.3550  0.5451 -0.2373
 2245SOL    HW2 8752   2.733   1.544   3.002 -1.5734  0.0249 -0.2310
 2245SOL    HW3 8753   2.687   1.641   2.894 -1.2447  0.1157 -0.2891
 2245SOL    MW4 8754   2.724   1.565   2.918 -0.6332  0.4198 -0.2433
 2246SOL     OW 8755   4.913   1.874   3.916  0.6745  0.3393  0.2271
 2246SOL    HW2 8756   4.873   1.824   3.845  1.0076  0.0036  0.2727
 2246SOL    HW3 8757   4.892   1.825   3.996  0.2148  0.7707  0.3722
 2246SOL    MW4 8758   4.905   1.861   3.917  0.6578  0.3519  0.2523
 2247SOL     OW 8759   2.201   2.407   5.959  0.1744 -0.0341  0.1999
 2247SOL    HW2 8760   2.187   2.377   5.870 -0.4017 -2.1098  0.9397
 2247SOL    HW3 8761   2.296   2.397   5.973  0.0626 -1.1032  0.2680
 2247SOL    MW4 8762   2.212   2.402   5.949  0.0837 -0.4490  0.3065
 2248SOL     OW 8763   3.372   0.549   1.333  0.1945 -0.1522  0.5765
 2248SOL    HW2 8764   3.379   0.578   1.424 -1.7899  0.1270  0.6830
 2248SOL    HW3 8765   3.278   0.547   1.316  0.5311  0.0311 -1.5478
 2248SOL    MW4 8766   3.361   0.553   1.343 -0.0229 -0.0912  0.3102
 2249SOL     OW 8767   4.085   2.913   3.668  0.1976 -0.7102 -0.1144
 2249SOL    HW2 8768   4.026   2.949   3.602  0.7300 -0.2465 -0.3461
 2249SOL    HW3 8769   4.139   2.987   3.695  0.5086 -1.0714  0.2731
 2249SOL    MW4 8770   4.084   2.927   3.663  0.3089 -0.6967 -0.0938
 2250SOL     OW 8771   5.682   2.503   2.045  0.2955 -0.2949 -0.4854
 2250SOL    HW2 8772   5.622   2.531   1.976 -1.8174  1.4884  1.8704
 2250SOL    HW3 8773   5.625   2.463   2.111  1.6187  1.3148  1.7966
 2250SOL    MW4 8774   5.666   2.501   2.045  0.1913  0.1528  0.1265
 2251SOL     OW 8775   3.124   5.315   4.170 -0.0166 -0.5325 -0.2575
 2251SOL    HW2 8776   3.068   5.388   4.143 -2.0892 -1.6227  0.8524
 2251SOL    HW3 8777   3.194   5.355   4.221  0.1718  0.8685 -1.5489
 2251SOL    MW4 8778   3.126   5.330   4.173 -0.2652 -0.4915 -0.2814
 2252SOL     OW 8779   5.842   4.218   0.869 -0.4896  0.0813 -0.6339
 2252SOL    HW2 8780   5.876   4.155   0.806 -1.1637 -2.0431  0.9921
 2252SOL    HW3 8781   5.835   4.168   0.951 -0.9436  2.3310  0.7844
 2252SOL    MW4 8782   5.846   4.203   0.872 -0.6384  0.0978 -0.2323
 2253SOL     OW 8783   3.419   2.820   0.144 -0.3644  0.1238 -0.0122
 2253SOL    HW2 8784   3.449   2.848   0.057  0.7434  0.6146  0.5075
 2253SOL    HW3 8785   3.467   2.740   0.161  0.2530  0.6194  0.6018
 2253SOL    MW4 8786   3.429   2.813   0.134 -0.1368  0.2539  0.1373
 2254SOL     OW 8787   6.328   1.778   4.740 -0.1572 -0.1661  0.0337
 2254SOL    HW2 8788   6.268   1.836   4.693  0.9294  0.8903 -0.0894
 2254SOL    HW3 8789   6.415   1.806   4.713  0.5980  1.2961  3.5009
 2254SOL    MW4 8790   6.332   1.789   4.730  0.0858  0.1662  0.4749
 2255SOL     OW 8791   1.946   5.858   3.036  0.2996 -0.3817  0.2862
 2255SOL    HW2 8792   1.889   5.876   2.961  0.0177 -1.3783  0.2410
 2255SOL    HW3 8793   2.015   5.802   3.001  1.3470  0.8414  0.3360
 2255SOL    MW4 8794   1.947   5.853   3.022  0.4006 -0.3518  0.2868
 2256SOL     OW 8795   3.139   3.389   4.107  0.1339 -0.1080  0.1835
 2256SOL    HW2 8796   3.108   3.462   4.162 -2.0804 -0.1181 -0.9253
 2256SOL    HW3 8797   3.207   3.428   4.052 -0.5046  0.9613  0.1113
 2256SOL    MW4 8798   3.144   3.404   4.107 -0.2425  0.0318  0.0277
 2257SOL     OW 8799   2.687   3.002   0.657 -0.6870 -0.5013  0.0910
 2257SOL    HW2 8800   2.724   2.996   0.745 -1.4082 -1.8125  0.3266
 2257SOL    HW3 8801   2.681   2.912   0.627 -0.4796 -0.0812 -1.3185
 2257SOL    MW4 8802   2.691   2.990   0.664 -0.7548 -0.6189 -0.0639
 2258SOL     OW 8803   2.942   4.649   4.004  1.0776  0.3602 -0.6327
 2258SOL    HW2 8804   3.029   4.622   4.033  0.1036  0.3698  2.7873
 2258SOL    HW3 8805   2.929   4.735   4.044  0.0824  1.1117 -2.4613
 2258SOL    MW4 8806   2.952   4.657   4.013  0.8178  0.4606 -0.4227
 2259SOL     OW 8807   6.352   2.927   5.153 -0.1992  0.1650  0.3823
 2259SOL    HW2 8808   6.406   2.875   5.212  1.3848  0.0148 -1.1309
 2259SOL    HW3 8809   6.413   2.961   5.088 -1.8150  0.6004 -0.9801
 2259SOL    MW4 8810   6.367   2.925   5.152 -0.2034  0.2026  0.0029
 2260SOL     OW 8811   1.610   5.673   6.191 -0.5315 -0.6644  0.0437
 2260SOL    HW2 8812   1.530   5.712   6.226 -0.1805 -0.4727  0.6548
 2260SOL    HW3 8813   1.582   5.589   6.155 -0.8932 -0.9525  0.9486
 2260SOL    MW4 8814   1.595   5.667   6.191 -0.5329 -0.6771  0.2437
 2261SOL     OW 8815   3.859   3.664   4.990 -0.3058 -0.3978  0.3802
 2261SOL    HW2 8816   3.951   3.670   4.964  0.1676 -0.5424  1.9491
 2261SOL    HW3 8817   3.856   3.592   5.053 -1.2373  0.4536  1.3593
 2261SOL    MW4 8818   3.871   3.656   4.995 -0.3662 -0.3046  0.7164
 2262SOL     OW 8819   4.552   1.264   5.517 -0.1653 -0.6239  0.3016
 2262SOL    HW2 8820   4.611   1.193   5.540  0.2798 -0.4797 -0.3566
 2262SOL    HW3 8821   4.609   1.337   5.495 -0.6058 -0.2459  0.4037
 2262SOL    MW4 8822   4.567   1.264   5.517 -0.1647 -0.5550  0.2282
 2263SOL     OW 8823   1.160   0.457   3.854  0.0720  0.1697 -0.6951
 2263SOL    HW2 8824   1.220   0.419   3.918 -1.1541 -0.0240  0.3683
 2263SOL    HW3 8825   1.138   0.385   3.795  0.4825  0.1223 -0.7951
 2263SOL    MW4 8826   1.165   0.443   3.855 -0.0356  0.1379 -0.5680
 2264SOL     OW 8827   5.853   1.958   6.241  0.5741 -0.4336 -0.2980
 2264SOL    HW2 8828   5.862   1.936   6.334 -0.9102  3.6719  1.0278
 2264SOL    HW3 8829   5.759   1.951   6.223  0.7824 -0.6736 -1.3682
 2264SOL    MW4 8830   5.842   1.954   6.251  0.4058  0.0764 -0.2643
 2265SOL     OW 8831   1.898   3.581   2.164  0.3135  0.1131 -0.0666
 2265SOL    HW2 8832   1.812   3.548   2.190  0.1897 -2.6857 -3.3043
 2265SOL    HW3 8833   1.883   3.674   2.145 -1.6930 -0.0462  0.5127
 2265SOL    MW4 8834   1.885   3.589   2.165  0.0324 -0.2772 -0.4174
 2266SOL     OW 8835   1.923   0.739   0.628 -0.7750 -0.3436 -0.5621
 2266SOL    HW2 8836   1.974   0.794   0.570 -2.1852 -0.5945 -2.1078
 2266SOL    HW3 8837   1.911   0.657   0.581 -0.1743 -1.3666  0.9776
 2266SOL    MW4 8838   1.928   0.735   0.614 -0.8818 -0.5117 -0.5629
 2267SOL     OW 8839   2.240   1.545   2.922  0.7906  0.0512 -0.1484
 2267SOL    HW2 8840   2.267   1.580   2.837  0.1267  0.5127 -0.1671
 2267SOL    HW3 8841   2.146   1.561   2.927  0.6152 -0.9925  0.1937
 2267SOL    MW4 8842   2.231   1.552   2.912  0.6799 -0.0256 -0.1058
 2268SOL     OW 8843   4.790   3.340   1.421 -0.2856 -0.6273 -0.1197
 2268SOL    HW2 8844   4.733   3.264   1.429 -1.5191  0.2059 -0.5870
 2268SOL    HW3 8845   4.839   3.325   1.339 -1.3083 -0.4373 -0.7842
 2268SOL    MW4 8846   4.789   3.328   1.411 -0.5833 -0.4923 -0.2690
 2269SOL     OW 8847   0.484   3.282   5.165 -0.3106 -0.0672 -0.4315
 2269SOL    HW2 8848   0.499   3.203   5.114 -0.3436 -0.8905  0.8037
 2269SOL    HW3 8849   0.571   3.310   5.194 -0.0551  1.5195 -2.4902
 2269SOL    MW4 8850   0.497   3.276   5.162 -0.2813  0.0335 -0.5402
 2270SOL     OW 8851   3.912   2.471   3.353 -0.7193  0.2353  0.0180
 2270SOL    HW2 8852   3.855   2.453   3.427 -1.9571 -1.0683 -1.1835
 2270SOL    HW3 8853   3.854   2.507   3.286  0.6150  2.7523  0.1180
 2270SOL    MW4 8854   3.897   2.473   3.354 -0.7066  0.3954 -0.1273
 2271SOL     OW 8855   2.418   5.700   4.776  0.3625 -0.3413 -0.2858
 2271SOL    HW2 8856   2.486   5.760   4.807  1.1791 -1.7663  0.7957
 2271SOL    HW3 8857   2.388   5.655   4.854 -1.7023  0.0907 -0.7870
 2271SOL    MW4 8858   2.423   5.702   4.790  0.1978 -0.4723 -0.2093
 2272SOL     OW 8859   2.848   5.314   1.191  0.3148 -0.5020  0.2946
 2272SOL    HW2 8860   2.778   5.254   1.218 -0.4077  0.5405  0.7930
 2272SOL    HW3 8861   2.859   5.372   1.266  0.6117  0.3432 -0.3947
 2272SOL    MW4 8862   2.840   5.314   1.204  0.2586 -0.2529  0.2694
 2273SOL     OW 8863   3.215   0.067   0.164 -0.6367  0.4169  0.1864
 2273SOL    HW2 8864   3.261  -0.014   0.145  0.2327  0.9726 -0.1186
 2273SOL    HW3 8865   3.268   0.111   0.230 -0.2564  1.4458 -0.7610
 2273SOL    MW4 8866   3.228   0.062   0.170 -0.4718  0.6260  0.0211
 2274SOL     OW 8867   0.020   2.891   6.334 -0.0541  0.7082 -0.3358
 2274SOL    HW2 8868   0.005   2.950   6.261 -0.1212  0.0847 -0.8332
 2274SOL    HW3 8869   0.100   2.843   6.310 -1.2216 -0.9909 -1.0030
 2274SOL    MW4 8870   0.029   2.892   6.322 -0.2170  0.4018 -0.4895
 2275SOL     OW 8871   5.474   4.302   1.618  0.6357  0.5058  0.4516
 2275SOL    HW2 8872   5.443   4.392   1.633 -0.2305  0.3200 -0.1296
 2275SOL    HW3 8873   5.528   4.282   1.694 -1.2840  0.5946  1.9088
 2275SOL    MW4 8874   5.477   4.312   1.630  0.2681  0.4930  0.5672
 2276SOL     OW 8875   3.784   4.645   4.442 -0.2107  0.0250 -0.0773
 2276SOL    HW2 8876   3.820   4.559   4.421  0.7614  0.4243 -0.1064
 2276SOL    HW3 8877   3.768   4.686   4.357 -0.1097  0.0977 -0.0612
 2276SOL    MW4 8878   3.787   4.639   4.428 -0.0691  0.0873 -0.0790
 2277SOL     OW 8879   2.411   2.389   4.722  0.0220 -0.0466  0.0403
 2277SOL    HW2 8880   2.506   2.406   4.725 -0.5225  3.7299  1.3003
 2277SOL    HW3 8881   2.394   2.368   4.630  1.7472  2.6514 -1.0441
 2277SOL    MW4 8882   2.421   2.389   4.710  0.1778  0.8076  0.0634
 2278SOL     OW 8883   4.211   0.877   4.789 -0.1723 -0.3474  0.2995
 2278SOL    HW2 8884   4.194   0.794   4.744  1.7001 -0.7845  0.3193
 2278SOL    HW3 8885   4.251   0.932   4.723 -0.1459  0.0636  0.6552
 2278SOL    MW4 8886   4.214   0.873   4.774  0.0782 -0.3509  0.3491
 2279SOL     OW 8887   1.980   0.866   5.113  0.7212 -0.3677 -0.1566
 2279SOL    HW2 8888   1.962   0.908   5.028  0.6415 -0.5879 -0.2508
 2279SOL    HW3 8889   2.075   0.854   5.115  1.2360  2.9030  1.3312
 2279SOL    MW4 8890   1.990   0.870   5.102  0.7786  0.0347  0.0273
 2280SOL     OW 8891   1.360   3.398   5.220 -0.1728 -0.5939 -0.4817
 2280SOL    HW2 8892   1.322   3.465   5.163  0.1210 -1.3743 -1.6236
 2280SOL    HW3 8893   1.356   3.317   5.169  0.1810 -1.3080  0.5768
 2280SOL    MW4 8894   1.355   3.396   5.206 -0.0873 -0.7911 -0.4927
 2281SOL     OW 8895   0.493   2.263   4.233 -0.1884 -0.4982  0.2342
 2281SOL    HW2 8896   0.426   2.272   4.165 -0.0328 -0.3761  0.0992
 2281SOL    HW3 8897   0.465   2.323   4.302  0.0279 -0.1088 -0.0160
 2281SOL    MW4 8898   0.481   2.272   4.233 -0.1393 -0.4307  0.1834
 2282SOL     OW 8899   3.355   3.468   3.953  0.1023  0.0034  0.2149
 2282SOL    HW2 8900   3.432   3.411   3.950  0.0059 -0.0898 -0.4752
 2282SOL    HW3 8901   3.387   3.554   3.924  0.0837  0.1286  0.5521
 2282SOL    MW4 8902   3.369   3.472   3.949  0.0871  0.0076  0.1684
 2283SOL     OW 8903   2.030   5.753   1.019 -0.3545  0.5606  0.2188
 2283SOL    HW2 8904   2.004   5.669   1.056  0.7496  0.5974  1.1537
 2283SOL    HW3 8905   2.120   5.767   1.051 -0.6974  2.3316  0.5605
 2283SOL    MW4 8906   2.039   5.744   1.028 -0.2541  0.7991  0.3872
 2284SOL     OW 8907   3.199   6.300   4.790 -0.3690  0.5016 -0.3134
 2284SOL    HW2 8908   3.221   6.362   4.859 -1.1478  1.1062 -0.5938
 2284SOL    HW3 8909   3.110   6.271   4.811 -0.0322 -0.5149 -0.2022
 2284SOL    MW4 8910   3.190   6.304   4.802 -0.4273  0.4473 -0.3357
 2285SOL     OW 8911   4.642   3.956   2.630 -0.0860  0.2523  0.2448
 2285SOL    HW2 8912   4.733   3.982   2.640  0.1177 -0.1214 -0.5346
 2285SOL    HW3 8913   4.640   3.906   2.548 -1.5590  2.9491 -1.5223
 2285SOL    MW4 8914   4.653   3.953   2.620 -0.2535  0.5588 -0.0912
 2286SOL     OW 8915   4.917   6.285   4.789 -0.3282  0.3842  0.0937
 2286SOL    HW2 8916   4.904   6.190   4.781  0.7766  0.0934  1.4781
 2286SOL    HW3 8917   4.829   6.319   4.805 -0.4500 -0.7035  2.0239
 2286SOL    MW4 8918   4.903   6.277   4.790 -0.1985  0.2023  0.5310
 2287SOL     OW 8919   0.521   3.240   2.605 -0.7083 -0.0350 -0.5160
 2287SOL    HW2 8920   0.574   3.160   2.607  0.8429  0.9626  0.5012
 2287SOL    HW3 8921   0.522   3.272   2.695 -0.4595  1.6437 -1.0845
 2287SOL    MW4 8922   0.529   3.234   2.617 -0.4708  0.3181 -0.4568
 2288SOL     OW 8923   1.621   2.201   5.400  0.1082  0.1014  0.3318
 2288SOL    HW2 8924   1.600   2.148   5.323  0.2754  1.9523 -1.0496
 2288SOL    HW3 8925   1.702   2.246   5.376  1.3979 -0.9342  2.4897
 2288SOL    MW4 8926   1.629   2.200   5.387  0.3004  0.2090  0.4342
 2289SOL     OW 8927   5.778   5.714   1.679  0.0797  0.0877 -0.0567
 2289SOL    HW2 8928   5.745   5.628   1.655 -1.9169  1.3280 -2.3092
 2289SOL    HW3 8929   5.871   5.711   1.659 -0.0731 -1.3609 -0.6687
 2289SOL    MW4 8930   5.786   5.703   1.673 -0.2039  0.0602 -0.4347
 2290SOL     OW 8931   4.912   1.658   5.765 -0.4903  0.1668 -0.0804
 2290SOL    HW2 8932   4.869   1.722   5.822 -0.5697 -0.7307  0.8854
 2290SOL    HW3 8933   4.927   1.706   5.683 -2.0370  0.9330  0.0375
 2290SOL    MW4 8934   4.908   1.673   5.762 -0.7049  0.1494  0.0626
 2291SOL     OW 8935   0.370   5.207   1.397  0.1540  0.1579 -0.4886
 2291SOL    HW2 8936   0.328   5.283   1.437  1.2936  1.0596 -0.9218
 2291SOL    HW3 8937   0.455   5.201   1.442 -0.0476 -1.0450 -0.2566
 2291SOL    MW4 8938   0.376   5.217   1.408  0.2778  0.1181 -0.5151
 2292SOL     OW 8939   6.093   1.315   3.400 -0.2884  0.4808 -0.0289
 2292SOL    HW2 8940   6.146   1.352   3.329 -0.7473  1.4734  0.1138
 2292SOL    HW3 8941   6.156   1.280   3.462  0.1445  0.2513 -0.5933
 2292SOL    MW4 8942   6.108   1.315   3.399 -0.2919  0.5815 -0.0845
 2293SOL     OW 8943   5.785   5.444   1.137 -0.3133 -0.1814 -0.4585
 2293SOL    HW2 8944   5.728   5.486   1.201  3.1570  0.7975  2.3185
 2293SOL    HW3 8945   5.754   5.354   1.133 -2.9475  0.6468 -0.3550
 2293SOL    MW4 8946   5.774   5.438   1.145 -0.2030  0.0570 -0.0784
 2294SOL     OW 8947   5.801   0.685   1.688  0.4667 -0.4784  0.0530
 2294SOL    HW2 8948   5.787   0.603   1.735  0.5984 -0.5387 -0.0111
 2294SOL    HW3 8949   5.805   0.659   1.596 -0.3967 -0.2832 -0.0449
 2294SOL    MW4 8950   5.800   0.671   1.682  0.3702 -0.4606  0.0316
 2295SOL     OW 8951   1.239   0.133   2.938 -0.2719 -0.6488 -0.3745
 2295SOL    HW2 8952   1.270   0.106   2.851 -0.8385 -1.4158 -0.3424
 2295SOL    HW3 8953   1.191   0.058   2.971 -1.4217  0.2010 -0.0549
 2295SOL    MW4 8954   1.237   0.120   2.931 -0.4984 -0.6379 -0.3281
 2296SOL     OW 8955   0.489   1.480   0.795  0.1277  0.4702 -0.6843
 2296SOL    HW2 8956   0.491   1.572   0.768  1.6515  0.7647  0.3467
 2296SOL    HW3 8957   0.396   1.461   0.807 -0.1946  1.9691 -0.5868
 2296SOL    MW4 8958   0.477   1.490   0.793  0.2862  0.7068 -0.5354
 2297SOL     OW 8959   5.299   1.818   6.230  0.4987 -0.1504  0.7761
 2297SOL    HW2 8960   5.274   1.726   6.227 -0.3216  0.0181  1.7037
 2297SOL    HW3 8961   5.272   1.853   6.145 -0.7303 -0.4034  1.0434
 2297SOL    MW4 8962   5.292   1.810   6.219  0.2283 -0.1615  0.9338
 2298SOL     OW 8963   4.417   1.714   1.637 -0.1781  0.1803  0.3236
 2298SOL    HW2 8964   4.322   1.720   1.643 -0.2250  0.9380 -0.8483
 2298SOL    HW3 8965   4.436   1.723   1.544  0.8964 -2.5529  0.1739
 2298SOL    MW4 8966   4.407   1.716   1.626 -0.0425 -0.0803  0.1492
 2299SOL     OW 8967   5.120   1.114   1.058  0.0863 -0.1539  0.7753
 2299SOL    HW2 8968   5.153   1.189   1.008 -1.9022 -0.4792 -1.2122
 2299SOL    HW3 8969   5.029   1.136   1.078 -0.4673 -1.8928  0.3817
 2299SOL    MW4 8970   5.113   1.127   1.054 -0.2491 -0.4263  0.4611
 2300SOL     OW 8971   3.370   0.772   6.257 -0.1418  0.2252  0.4418
 2300SOL    HW2 8972   3.425   0.850   6.261  2.7643 -1.7062  1.8690
 2300SOL    HW3 8973   3.413   0.709   6.315 -2.9010 -2.1327  0.1824
 2300SOL    MW4 8974   3.383   0.774   6.265 -0.1224 -0.3407  0.5959
 2301SOL     OW 8975   5.368   4.230   4.684 -0.5440 -0.7541 -0.1407
 2301SOL    HW2 8976   5.323   4.280   4.752  2.1386  0.2928  1.0188
 2301SOL    HW3 8977   5.443   4.192   4.728  0.9935 -0.5149 -2.3649
 2301SOL    MW4 8978   5.372   4.232   4.699  0.0128 -0.5844 -0.2812
 2302SOL     OW 8979   2.526   2.921   5.067 -0.8469  0.5578  0.1675
 2302SOL    HW2 8980   2.612   2.961   5.080 -0.2058 -0.9704  0.8975
 2302SOL    HW3 8981   2.520   2.855   5.136 -1.3816 -1.3608 -1.6414
 2302SOL    MW4 8982   2.536   2.918   5.078 -0.8329  0.1031  0.0251
 2303SOL     OW 8983   4.624   6.074   5.439 -0.5017  0.0332  0.1004
 2303SOL    HW2 8984   4.635   6.158   5.483 -2.4642  1.3864 -1.7709
 2303SOL    HW3 8985   4.698   6.068   5.379 -0.8357  0.8900 -0.4120
 2303SOL    MW4 8986   4.635   6.084   5.437 -0.8047  0.3248 -0.2141
 2304SOL     OW 8987   3.978   0.105   6.339 -0.1389 -0.1415 -0.2978
 2304SOL    HW2 8988   4.008   0.082   6.251  2.1324  3.8344 -0.8217
 2304SOL    HW3 8989   3.907   0.168   6.325 -1.6725 -1.5346  0.8465
 2304SOL    MW4 8990   3.973   0.110   6.325 -0.0416  0.1993 -0.2160
 2305SOL     OW 8991   1.811   3.069   5.518 -0.4732 -0.4943  0.5248
 2305SOL    HW2 8992   1.761   3.000   5.560 -0.3282 -0.5052  0.6806
 2305SOL    HW3 8993   1.819   3.137   5.585  1.5014 -1.3515  1.2248
 2305SOL    MW4 8994   1.805   3.069   5.532 -0.1935 -0.6089  0.6377
 2306SOL     OW 8995   2.079   5.982   1.422 -0.0645  0.7958 -0.1223
 2306SOL    HW2 8996   1.995   6.002   1.383 -1.8684 -1.2560  2.3752
 2306SOL    HW3 8997   2.075   6.019   1.510  1.4984  0.3309  0.1907
 2306SOL    MW4 8998   2.068   5.989   1.429 -0.0963  0.4637  0.2485
 2307SOL     OW 8999   3.291   4.628   5.892 -0.0189  0.7320 -0.1291
 2307SOL    HW2 9000   3.332   4.569   5.956  0.7683  0.4599 -0.8720
 2307SOL    HW3 9001   3.362   4.681   5.858 -0.1610 -0.0381 -1.7544
 2307SOL    MW4 9002   3.305   4.627   5.896  0.0662  0.5945 -0.4416
 2308SOL     OW 9003   3.221   0.349   2.165  0.1174  0.0013 -0.0578
 2308SOL    HW2 9004   3.198   0.265   2.204  0.4229  0.3917  0.9821
 2308SOL    HW3 9005   3.316   0.349   2.161  0.1598  0.6127  0.6844
 2308SOL    MW4 9006   3.230   0.338   2.169  0.1633  0.1335  0.1773
 2309SOL     OW 9007   4.685   2.363   5.083 -0.6829  0.0022 -0.0917
 2309SOL    HW2 9008   4.769   2.317   5.087 -1.4545 -1.3940  0.8129
 2309SOL    HW3 9009   4.649   2.341   4.998  0.2514  1.3839 -0.8915
 2309SOL    MW4 9010   4.691   2.354   5.073 -0.6614  0.0003 -0.0779
 2310SOL     OW 9011   3.329   2.400   1.590  0.4580 -0.4630 -0.0924
 2310SOL    HW2 9012   3.352   2.343   1.664 -0.3984 -1.0671 -0.2756
 2310SOL    HW3 9013   3.354   2.350   1.513 -0.7028 -0.7972 -0.2701
 2310SOL    MW4 9014   3.335   2.386   1.590  0.1919 -0.5868 -0.1400
 2311SOL     OW 9015   4.513   6.074   4.031  0.0710 -0.1336 -0.0471
 2311SOL    HW2 9016   4.505   5.980   4.016  0.8569 -0.1607 -0.3950
 2311SOL    HW3 9017   4.601   6.084   4.069  0.4079  0.5471 -0.9649
 2311SOL    MW4 9018   4.524   6.063   4.034  0.2191 -0.0474 -0.2141
 2312SOL     OW 9019   0.450   4.984   4.013 -0.3200 -0.2386  0.1639
 2312SOL    HW2 9020   0.496   5.022   3.939  0.7510 -1.3786  0.2272
 2312SOL    HW3 9021   0.381   4.931   3.974 -1.8158  1.6516  0.0728
 2312SOL    MW4 9022   0.447   4.982   3.998 -0.3761 -0.1396  0.1603
 2313SOL     OW 9023   5.758   3.238   5.221  0.0515 -0.2695 -0.4481
 2313SOL    HW2 9024   5.847   3.213   5.246 -0.3135 -1.0971  0.0327
 2313SOL    HW3 9025   5.705   3.161   5.240 -0.8681  0.4155 -0.1957
 2313SOL    MW4 9026   5.763   3.225   5.227 -0.1180 -0.2883 -0.3513
 2314SOL     OW 9027   1.781   3.014   2.670  0.6319 -0.5620  0.1749
 2314SOL    HW2 9028   1.829   3.042   2.591  0.5533  0.1508  0.3698
 2314SOL    HW3 9029   1.775   2.919   2.662 -1.0930 -0.3725 -1.6963
 2314SOL    MW4 9030   1.786   3.005   2.658  0.3940 -0.4430 -0.0463
 2315SOL     OW 9031   3.445   5.852   5.516  0.1862 -0.3008 -0.9043
 2315SOL    HW2 9032   3.409   5.927   5.468  0.9807 -0.3240 -1.5576
 2315SOL    HW3 9033   3.539   5.870   5.523  0.2707 -0.8883 -0.4226
 2315SOL    MW4 9034   3.453   5.864   5.511  0.3022 -0.3814 -0.9270
 2316SOL     OW 9035   2.201   3.383   3.345 -0.3337  0.5578 -0.0991
 2316SOL    HW2 9036   2.246   3.374   3.261 -3.2794 -0.3537 -1.7361
 2316SOL    HW3 9037   2.120   3.333   3.334  0.2781 -1.8751  4.2627
 2316SOL    MW4 9038   2.196   3.375   3.332 -0.6416  0.1166  0.2604
 2317SOL     OW 9039   2.304   5.022   0.475  0.0324 -0.3509 -0.2760
 2317SOL    HW2 9040   2.226   4.971   0.496  0.3625 -0.7358  0.0470
 2317SOL    HW3 9041   2.377   4.962   0.494  0.3751 -0.3783 -1.5919
 2317SOL    MW4 9042   2.303   5.007   0.480  0.1211 -0.4053 -0.4070
 2318SOL     OW 9043   1.843   3.021   4.196  0.1465  0.4169 -0.2824
 2318SOL    HW2 9044   1.933   2.990   4.201 -0.0694 -0.3122 -0.7269
 2318SOL    HW3 9045   1.790   2.942   4.204 -0.4136  0.6069 -1.8421
 2318SOL    MW4 9046   1.848   3.007   4.198  0.0441  0.3458 -0.5468
 2319SOL     OW 9047   3.109   3.188   5.001 -0.4685  0.1638 -0.6192
 2319SOL    HW2 9048   3.068   3.206   5.086  1.4645 -0.1961  0.4506
 2319SOL    HW3 9049   3.069   3.106   4.972  0.2654 -0.7885  0.9416
 2319SOL    MW4 9050   3.098   3.179   5.009 -0.1167 -0.0093 -0.2721
 2320SOL     OW 9051   6.364   2.497   5.320 -0.2583  0.0473 -0.2291
 2320SOL    HW2 9052   6.329   2.579   5.356 -0.1498  0.0092 -0.0349
 2320SOL    HW3 9053   6.335   2.496   5.229  1.7955  1.5078 -0.9769
 2320SOL    MW4 9054   6.356   2.508   5.313  0.0270  0.2350 -0.3021
 2321SOL     OW 9055   3.893   4.133   4.087 -0.2553  0.0379 -0.4798
 2321SOL    HW2 9056   3.879   4.132   3.993 -1.4947 -2.9783 -0.3888
 2321SOL    HW3 9057   3.986   4.152   4.097 -0.0511  0.1865 -2.3238
 2321SOL    MW4 9058   3.903   4.135   4.076 -0.3919 -0.3404 -0.7111
 2322SOL     OW 9059   1.497   5.704   2.570  0.1758 -0.4301 -0.0883
 2322SOL    HW2 9060   1.517   5.613   2.590 -0.8903 -1.2166 -2.2323
 2322SOL    HW3 9061   1.445   5.734   2.644 -1.4267 -2.3226 -0.3730
 2322SOL    MW4 9062   1.493   5.696   2.582 -0.1763 -0.7835 -0.4087
 2323SOL     OW 9063   2.097   6.282   4.878  0.5527  0.6770  0.0248
 2323SOL    HW2 9064   2.052   6.295   4.795  0.7947  1.0996 -0.0375
 2323SOL    HW3 9065   2.169   6.344   4.878  0.0115  1.3393  0.9440
 2323SOL    MW4 9066   2.101   6.292   4.867  0.5132  0.8202  0.1379
 2324SOL     OW 9067   0.282   3.106   4.389 -0.4303 -0.3283  0.1552
 2324SOL    HW2 9068   0.239   3.106   4.304  0.2583 -0.7297 -0.2050
 2324SOL    HW3 9069   0.315   3.017   4.399  1.8797  0.3989 -0.4064
 2324SOL    MW4 9070   0.281   3.094   4.380 -0.0347 -0.2854  0.0336
 2325SOL     OW 9071   4.899   1.121   6.102  0.2461 -0.1000  0.2299
 2325SOL    HW2 9072   4.976   1.177   6.112 -0.1548  0.9173 -1.8586
 2325SOL    HW3 9073   4.930   1.034   6.127  1.6903  0.5211  0.7344
 2325SOL    MW4 9074   4.913   1.117   6.106  0.3837  0.1162  0.0209
 2326SOL     OW 9075   2.376   3.087   5.926 -0.1950 -0.1790  0.2214
 2326SOL    HW2 9076   2.307   3.034   5.965 -0.3654  0.3676  0.6659
 2326SOL    HW3 9077   2.453   3.031   5.927 -0.7987 -1.0833 -0.9927
 2326SOL    MW4 9078   2.377   3.073   5.931 -0.2971 -0.2262  0.1199
 2327SOL     OW 9079   2.246   4.154   2.748  0.0370 -0.1538  0.1436
 2327SOL    HW2 9080   2.331   4.172   2.708 -0.7752 -2.1868 -2.8290
 2327SOL    HW3 9081   2.258   4.069   2.791 -0.4728 -0.5193 -0.4136
 2327SOL    MW4 9082   2.259   4.145   2.748 -0.1374 -0.4703 -0.3221
 2328SOL     OW 9083   5.524   2.638   1.855 -0.1348 -0.2494  0.2706
 2328SOL    HW2 9084   5.543   2.614   1.765 -2.7019 -1.0762 -0.1495
 2328SOL    HW3 9085   5.562   2.725   1.866 -0.1293  0.0441 -1.7466
 2328SOL    MW4 9086   5.531   2.647   1.845 -0.4727 -0.3198 -0.0509
 2329SOL     OW 9087   0.200   0.272   5.158 -0.0371  0.4885  0.0315
 2329SOL    HW2 9088   0.179   0.312   5.242  0.7265 -0.5892  0.7451
 2329SOL    HW3 9089   0.134   0.204   5.146  0.4880 -0.0688  0.2710
 2329SOL    MW4 9090   0.189   0.269   5.167  0.1329  0.2728  0.1572
 2330SOL     OW 9091   4.405   4.649   4.629 -0.1273 -0.3818 -0.0746
 2330SOL    HW2 9092   4.330   4.591   4.622 -0.2404 -0.1039 -1.5441
 2330SOL    HW3 9093   4.368   4.734   4.654  0.0942 -1.0101  2.5989
 2330SOL    MW4 9094   4.390   4.653   4.631 -0.1130 -0.4280  0.0843
 2331SOL     OW 9095   0.291   4.067   2.972  0.2543 -0.4542 -0.7253
 2331SOL    HW2 9096   0.269   3.982   2.933 -0.1540 -0.4488 -0.5084
 2331SOL    HW3 9097   0.221   4.125   2.944 -0.0203 -0.4387 -0.0290
 2331SOL    MW4 9098   0.279   4.063   2.963  0.1642 -0.4515 -0.6048
 2332SOL     OW 9099   3.761   4.809   1.153 -0.8282  0.3160 -0.5929
 2332SOL    HW2 9100   3.809   4.744   1.102 -0.1856  1.3772 -1.3786
 2332SOL    HW3 9101   3.825   4.842   1.216 -1.3800 -0.3694  0.3595
 2332SOL    MW4 9102   3.776   4.805   1.154 -0.8162  0.3656 -0.5709
 2333SOL     OW 9103   3.995   3.952   1.175 -0.2998  0.2149  0.4480
 2333SOL    HW2 9104   3.960   4.027   1.127 -0.0470  0.0700  0.0302
 2333SOL    HW3 9105   4.005   3.884   1.109 -1.2382 -0.4361  0.9616
 2333SOL    MW4 9106   3.992   3.953   1.160 -0.3902  0.1099  0.4607
 2334SOL     OW 9107   0.556   5.300   6.132 -0.0236  0.1392 -0.2628
 2334SOL    HW2 9108   0.498   5.255   6.192  0.7092  0.0813  0.4119
 2334SOL    HW3 9109   0.594   5.230   6.078 -0.5030  0.1691 -0.6455
 2334SOL    MW4 9110   0.554   5.285   6.133  0.0099  0.1355 -0.2243
 2335SOL     OW 9111   4.297   1.732   1.153  0.0870  0.1957 -0.5544
 2335SOL    HW2 9112   4.298   1.640   1.126 -2.0211 -0.0095 -0.1134
 2335SOL    HW3 9113   4.206   1.750   1.174  0.5808  2.1881  0.1369
 2335SOL    MW4 9114   4.286   1.722   1.152 -0.1260  0.4315 -0.4050
 2336SOL     OW 9115   3.948   2.210   4.039  1.2505  1.1598 -0.1537
 2336SOL    HW2 9116   3.986   2.160   3.967  0.8313 -0.2475  0.5725
 2336SOL    HW3 9117   4.004   2.192   4.114 -0.7434 -1.0286  0.9669
 2336SOL    MW4 9118   3.960   2.201   4.040  0.9321  0.6854  0.0899
 2337SOL     OW 9119   3.678   0.714   5.268 -0.2732  0.0240  0.1924
 2337SOL    HW2 9120   3.740   0.778   5.302 -0.0316 -0.8535  1.4972
 2337SOL    HW3 9121   3.598   0.764   5.252  0.6904  1.1347 -1.3422
 2337SOL    MW4 9122   3.676   0.729   5.271 -0.1142  0.0548  0.1621
 2338SOL     OW 9123   4.321   6.250   5.671 -0.7184 -0.2028 -0.1411
 2338SOL    HW2 9124   4.253   6.277   5.733 -1.2862  1.2318 -1.3533
 2338SOL    HW3 9125   4.392   6.217   5.727 -0.4452  2.7066  1.4350
 2338SOL    MW4 9126   4.322   6.249   5.687 -0.7573  0.3704 -0.0931
 2339SOL     OW 9127   1.206   3.502   5.757  0.2424  0.0859  0.3306
 2339SOL    HW2 9128   1.243   3.583   5.790 -0.0011  0.2591  0.1802
 2339SOL    HW3 9129   1.216   3.440   5.829 -0.5292  0.5274  0.8318
 2339SOL    MW4 9130   1.212   3.504   5.771  0.1084  0.1670  0.3769
 2340SOL     OW 9131   0.725   3.134   3.627 -0.1363  0.0164  0.5309
 2340SOL    HW2 9132   0.816   3.146   3.602 -0.7777  1.0989 -1.5537
 2340SOL    HW3 9133   0.677   3.197   3.573 -2.0649 -0.0939  2.0113
 2340SOL    MW4 9134   0.731   3.144   3.616 -0.4754  0.1446  0.4512
 2341SOL     OW 9135   5.273   0.607   1.876 -0.2677 -0.0284  0.0016
 2341SOL    HW2 9136   5.341   0.554   1.918 -0.7464 -0.8656 -0.2706
 2341SOL    HW3 9137   5.306   0.697   1.883  0.1164 -0.2543  1.2917
 2341SOL    MW4 9138   5.286   0.612   1.882 -0.2802 -0.1687  0.1359
 2342SOL     OW 9139   4.100   3.510   3.415  0.1372  0.1857 -0.4666
 2342SOL    HW2 9140   4.183   3.555   3.431 -0.2231  1.0990 -1.0781
 2342SOL    HW3 9141   4.094   3.505   3.320 -0.6290  0.3474 -0.4312
 2342SOL    MW4 9142   4.110   3.515   3.405 -0.0114  0.3276 -0.5426
 2343SOL     OW 9143   4.930   3.178   2.312  0.5208 -0.2921  0.1286
 2343SOL    HW2 9144   4.837   3.187   2.292  0.1290  0.3196  1.9788
 2343SOL    HW3 9145   4.932   3.125   2.392  1.7248  0.2674  0.4908
 2343SOL    MW4 9146   4.918   3.172   2.320  0.6280 -0.1376  0.4205
 2344SOL     OW 9147   0.722   1.995   3.903  0.5318 -0.0876  0.1510
 2344SOL    HW2 9148   0.696   1.939   3.830  1.2352 -0.7534  0.3921
 2344SOL    HW3 9149   0.660   2.067   3.902 -0.1610 -0.6813 -0.4058
 2344SOL    MW4 9150   0.711   1.997   3.893  0.5332 -0.2537  0.1093
 2345SOL     OW 9151   0.168   0.356   1.714  0.1731 -0.0611  0.2386
 2345SOL    HW2 9152   0.179   0.263   1.697 -0.1283 -0.5060  2.2870
 2345SOL    HW3 9153   0.087   0.363   1.763  2.1729  0.7084  3.7958
 2345SOL    MW4 9154   0.159   0.345   1.718  0.3972 -0.0183  0.9782
 2346SOL     OW 9155   3.019   1.564   2.890  0.2149 -0.0893  0.2975
 2346SOL    HW2 9156   2.924   1.570   2.877  0.3752  1.0122 -0.5024
 2346SOL    HW3 9157   3.041   1.474   2.867 -0.7664 -0.6348  1.4182
 2346SOL    MW4 9158   3.009   1.553   2.885  0.1066 -0.0160  0.3398
 2347SOL     OW 9159   0.927   2.231   3.831  0.1320 -0.3141  0.2236
 2347SOL    HW2 9160   0.855   2.174   3.856 -0.7203  0.0860 -1.2003
 2347SOL    HW3 9161   0.940   2.288   3.907 -0.2090 -1.2034  0.9660
 2347SOL    MW4 9162   0.919   2.231   3.844 -0.0255 -0.3787  0.1336
 2348SOL     OW 9163   4.863   5.235   3.886 -0.0922 -0.2562  0.0746
 2348SOL    HW2 9164   4.896   5.314   3.929 -0.6909  1.0636 -1.7487
 2348SOL    HW3 9165   4.942   5.190   3.855  0.2725 -0.6292  1.4717
 2348SOL    MW4 9166   4.878   5.239   3.887 -0.1231 -0.1313  0.0184
 2349SOL     OW 9167   5.340   6.055   4.970  0.4693 -0.1975  0.9499
 2349SOL    HW2 9168   5.321   6.101   5.052 -0.9257 -1.4781  1.3890
 2349SOL    HW3 9169   5.282   5.979   4.971  1.3767 -0.9646 -0.6203
 2349SOL    MW4 9170   5.330   6.051   4.981  0.4050 -0.4677  0.8007
 2350SOL     OW 9171   2.346   2.996   2.797 -0.3190 -0.3060  0.2873
 2350SOL    HW2 9172   2.274   2.935   2.779  0.7706 -2.0924  1.5726
 2350SOL    HW3 9173   2.415   2.940   2.834  0.4704  1.8556  2.2930
 2350SOL    MW4 9174   2.346   2.980   2.800 -0.0711 -0.2565  0.7215
 2351SOL     OW 9175   6.176   4.858   1.485  0.2354  0.3059  0.1470
 2351SOL    HW2 9176   6.094   4.827   1.446  1.5695 -2.4331 -0.7569
 2351SOL    HW3 9177   6.229   4.887   1.411  0.9594 -0.2286  0.4408
 2351SOL    MW4 9178   6.172   4.858   1.470  0.5070 -0.1260  0.0665
 2352SOL     OW 9179   1.219   2.790   4.230 -0.0203  0.7148 -0.6404
 2352SOL    HW2 9180   1.285   2.735   4.271 -0.4554  1.1373  0.6632
 2352SOL    HW3 9181   1.145   2.731   4.214 -0.4453  0.8573  0.6570
 2352SOL    MW4 9182   1.218   2.775   4.233 -0.1338  0.7894 -0.2972
 2353SOL     OW 9183   3.974   0.336   5.547 -0.3675 -0.0912  0.4326
 2353SOL    HW2 9184   3.987   0.290   5.465 -1.3096 -0.3294  0.4077
 2353SOL    HW3 9185   3.992   0.271   5.615  1.0509  0.2799  0.4402
 2353SOL    MW4 9186   3.978   0.322   5.545 -0.3047 -0.0736  0.4303
 2354SOL     OW 9187   3.436   0.402   5.209 -0.4200 -0.2778  0.0032
 2354SOL    HW2 9188   3.490   0.340   5.259  1.2948  1.2404  0.1586
 2354SOL    HW3 9189   3.484   0.414   5.127 -1.3905 -0.0857 -0.5489
 2354SOL    MW4 9190   3.450   0.395   5.205 -0.3218 -0.0522 -0.0491
 2355SOL     OW 9191   5.427   2.656   1.108  0.0236  0.5167  0.6821
 2355SOL    HW2 9192   5.474   2.739   1.095  0.6541  0.0726  0.0511
 2355SOL    HW3 9193   5.360   2.655   1.040  1.9176 -0.8072 -1.3080
 2355SOL    MW4 9194   5.425   2.667   1.097  0.3567  0.2834  0.3363
 2356SOL     OW 9195   1.425   0.832   5.974  0.6557 -0.3394 -0.3358
 2356SOL    HW2 9196   1.507   0.878   5.990  0.9150 -1.2072  0.9332
 2356SOL    HW3 9197   1.402   0.792   6.058 -0.3628 -1.2327 -1.0073
 2356SOL    MW4 9198   1.433   0.833   5.987  0.5555 -0.5718 -0.2569
 2357SOL     OW 9199   5.036   0.911   0.152 -0.2276 -0.5134  0.4108
 2357SOL    HW2 9200   4.963   0.864   0.112 -0.4868 -0.2739  0.6054
 2357SOL    HW3 9201   5.073   0.848   0.214  1.3362 -1.5882 -1.4856
 2357SOL    MW4 9202   5.031   0.896   0.155 -0.0555 -0.6236  0.1863
 2358SOL     OW 9203   0.511   5.579   0.121 -0.1559 -0.1623 -0.1458
 2358SOL    HW2 9204   0.493   5.629   0.201  2.1097  1.4054 -0.5316
 2358SOL    HW3 9205   0.442   5.606   0.061 -1.8185 -1.2612  1.1667
 2358SOL    MW4 9206   0.499   5.590   0.124 -0.0763 -0.1004 -0.0235
 2359SOL     OW 9207   4.319   1.384   0.757  0.0271  0.2706  1.3374
 2359SOL    HW2 9208   4.243   1.379   0.815 -0.0881 -0.5642  1.1343
 2359SOL    HW3 9209   4.379   1.445   0.800 -0.6188  0.6841  1.6613
 2359SOL    MW4 9210   4.317   1.391   0.770 -0.0733  0.2150  1.3534
 2360SOL     OW 9211   2.291   1.688   5.444 -0.1180 -0.0805  0.1315
 2360SOL    HW2 9212   2.290   1.690   5.540 -0.4760  0.8195  0.1122
 2360SOL    HW3 9213   2.206   1.652   5.420 -1.2569  2.4261  0.1174
 2360SOL    MW4 9214   2.280   1.683   5.453 -0.3155  0.3689  0.1271
 2361SOL     OW 9215   5.590   3.569   0.092 -0.3480  0.1422 -0.0282
 2361SOL    HW2 9216   5.601   3.477   0.069 -0.5618  0.2161 -0.4361
 2361SOL    HW3 9217   5.497   3.577   0.113 -0.3668  0.3084 -0.1778
 2361SOL    MW4 9218   5.579   3.558   0.092 -0.3787  0.1739 -0.1017
 2362SOL     OW 9219   0.717   3.980   1.821  0.1585 -0.1044 -0.0810
 2362SOL    HW2 9220   0.662   3.907   1.849  1.2442 -0.6528  0.6901
 2362SOL    HW3 9221   0.655   4.046   1.790 -0.9047 -0.8814  0.3304
 2362SOL    MW4 9222   0.702   3.979   1.821  0.1615 -0.2793  0.0750
 2363SOL     OW 9223   3.807   1.822   2.812 -1.0593  0.3128 -0.1134
 2363SOL    HW2 9224   3.728   1.839   2.759 -1.3978  2.2894  0.9333
 2363SOL    HW3 9225   3.846   1.909   2.825 -1.5297  0.1059  3.6848
 2363SOL    MW4 9226   3.802   1.836   2.806 -1.1660  0.5463  0.5258
 2364SOL     OW 9227   0.939   4.926   0.205 -0.2879  0.2406  0.1785
 2364SOL    HW2 9228   0.942   4.935   0.110 -1.7993  0.1069  0.1017
 2364SOL    HW3 9229   0.910   4.837   0.220 -0.5073  0.4044  0.7634
 2364SOL    MW4 9230   0.936   4.916   0.194 -0.5162  0.2446  0.2455
 2365SOL     OW 9231   0.305   4.268   2.286 -0.4407 -0.1646 -0.4089
 2365SOL    HW2 9232   0.328   4.356   2.317  0.0468  0.0169 -1.2599
 2365SOL    HW3 9233   0.375   4.246   2.225 -2.7149  0.6150 -3.5310
 2365SOL    MW4 9234   0.317   4.277   2.282 -0.6764 -0.0378 -0.9331
 2366SOL     OW 9235   2.952   5.493   6.085 -0.2216  0.4695  0.3641
 2366SOL    HW2 9236   2.932   5.401   6.066  0.4689  0.3536  0.1775
 2366SOL    HW3 9237   2.904   5.542   6.018  0.7456  0.1531 -0.6046
 2366SOL    MW4 9238   2.943   5.487   6.074 -0.0029  0.4124  0.2117
 2367SOL     OW 9239   4.333   3.109   0.303 -0.3908 -0.1394 -0.2151
 2367SOL    HW2 9240   4.389   3.180   0.333 -1.3739  0.6229 -0.1435
 2367SOL    HW3 9241   4.268   3.151   0.247 -2.5408 -0.5553  1.8435
 2367SOL    MW4 9242   4.332   3.124   0.299 -0.8042 -0.0937  0.0660
 2368SOL     OW 9243   2.395   1.304   6.307  0.2640  0.2579  0.3381
 2368SOL    HW2 9244   2.441   1.225   6.279 -0.6897  0.0108 -0.5686
 2368SOL    HW3 9245   2.465   1.365   6.333  1.1352  0.0812 -1.4698
 2368SOL    MW4 9246   2.410   1.302   6.307  0.2531  0.2020 -0.0201
 2369SOL     OW 9247   3.033   5.290   0.511 -0.7121  0.1598 -0.0745
 2369SOL    HW2 9248   3.093   5.222   0.482  0.0258  0.9101 -0.3398
 2369SOL    HW3 9249   2.978   5.308   0.435 -1.0691 -0.3047  0.0712
 2369SOL    MW4 9250   3.034   5.284   0.497 -0.6618  0.1975 -0.0902
 2370SOL     OW 9251   4.809   2.101   2.425 -0.2387 -0.2686  0.1278
 2370SOL    HW2 9252   4.807   2.020   2.374  2.5228  0.6538 -1.6283
 2370SOL    HW3 9253   4.717   2.114   2.451 -0.6709 -4.5117  1.5690
 2370SOL    MW4 9254   4.796   2.092   2.422  0.0687 -0.7068  0.0862
 2371SOL     OW 9255   0.723   1.167   3.610  0.1197 -0.6689  0.1586
 2371SOL    HW2 9256   0.795   1.132   3.557 -0.8161 -1.3857 -0.6840
 2371SOL    HW3 9257   0.759   1.173   3.699  1.2702 -0.8298 -0.2861
 2371SOL    MW4 9258   0.737   1.163   3.615  0.1480 -0.7847 -0.0112
 2372SOL     OW 9259   4.996   3.756   4.579 -0.3052  0.0814  0.5282
 2372SOL    HW2 9260   4.934   3.818   4.617  0.4500  0.6831  0.7983
 2372SOL    HW3 9261   5.041   3.717   4.654 -1.9080 -2.0559  0.4671
 2372SOL    MW4 9262   4.993   3.759   4.594 -0.4170 -0.1212  0.5558
 2373SOL     OW 9263   0.304   0.905   4.635 -0.0683  0.3838  0.4892
 2373SOL    HW2 9264   0.259   0.830   4.597  0.1078 -0.5423  2.0065
 2373SOL    HW3 9265   0.244   0.979   4.623 -0.6150 -0.1798 -0.2690
 2373SOL    MW4 9266   0.290   0.905   4.629 -0.1172  0.1873  0.5893
 2374SOL     OW 9267   2.842   6.062   1.309 -0.3895 -0.4599  0.0335
 2374SOL    HW2 9268   2.803   5.975   1.317  1.5178 -1.6164 -2.1747
 2374SOL    HW3 9269   2.797   6.101   1.233 -0.2447 -0.0858  0.1387
 2374SOL    MW4 9270   2.831   6.056   1.300 -0.1188 -0.5631 -0.2440
 2375SOL     OW 9271   5.930   1.645   0.889 -0.2902 -0.7359 -0.2207
 2375SOL    HW2 9272   5.866   1.603   0.830 -0.2761 -0.7892 -0.1972
 2375SOL    HW3 9273   5.898   1.735   0.897 -0.9228 -1.0192  0.5837
 2375SOL    MW4 9274   5.917   1.651   0.882 -0.3718 -0.7803 -0.1114
 2376SOL     OW 9275   0.798   0.650   4.845 -0.6483 -0.4526  0.2006
 2376SOL    HW2 9276   0.812   0.601   4.764  2.4077  1.5447 -0.6186
 2376SOL    HW3 9277   0.863   0.614   4.906 -1.7106 -0.6905  1.2358
 2376SOL    MW4 9278   0.808   0.639   4.842 -0.3852 -0.2205  0.2291
 2377SOL     OW 9279   1.639   0.661   3.443  0.2646 -0.6621  0.5612
 2377SOL    HW2 9280   1.682   0.717   3.508  1.6548 -0.7308 -0.2437
 2377SOL    HW3 9281   1.665   0.698   3.359  2.0959 -3.0240 -0.0392
 2377SOL    MW4 9282   1.648   0.673   3.441  0.6896 -0.9828  0.3758
 2378SOL     OW 9283   3.451   4.152   2.180 -0.5810  0.4409 -0.3181
 2378SOL    HW2 9284   3.407   4.167   2.096 -2.7672  1.3670  0.9149
 2378SOL    HW3 9285   3.431   4.061   2.201 -2.0682  0.8815  0.2779
 2378SOL    MW4 9286   3.442   4.142   2.172 -1.0657  0.6212 -0.0768
 2379SOL     OW 9287   0.789   0.542   2.822  0.4465  0.1853  0.0242
 2379SOL    HW2 9288   0.827   0.538   2.910 -1.4399  0.1153  0.8877
 2379SOL    HW3 9289   0.750   0.456   2.809 -2.1696  1.1842  0.5510
 2379SOL    MW4 9290   0.789   0.530   2.832 -0.1475  0.3078  0.2076
 2380SOL     OW 9291   3.036   1.889   0.486 -0.0432 -0.0815  0.7160
 2380SOL    HW2 9292   3.061   1.818   0.427  0.6068  0.7046  0.0271
 2380SOL    HW3 9293   2.948   1.866   0.515 -0.9432  0.1850 -1.6257
 2380SOL    MW4 9294   3.028   1.877   0.482 -0.0762  0.0574  0.3162
 2381SOL     OW 9295   0.264   1.157   5.011 -0.5494  0.0943  0.1105
 2381SOL    HW2 9296   0.326   1.135   4.941 -1.3236 -1.7059 -0.0834
 2381SOL    HW3 9297   0.309   1.131   5.091  0.3657  2.2222  0.3371
 2381SOL    MW4 9298   0.278   1.150   5.012 -0.5308  0.1375  0.1148
 2382SOL     OW 9299   1.160   0.078   4.453  0.0947  0.5136 -0.1993
 2382SOL    HW2 9300   1.092   0.020   4.488  1.0355 -1.4310 -1.3773
 2382SOL    HW3 9301   1.188   0.131   4.528 -0.2740 -1.1323  1.1752
 2382SOL    MW4 9302   1.155   0.077   4.468  0.1702  0.0399 -0.1734
 2383SOL     OW 9303   5.651   4.580   1.120  0.5248 -0.2597  0.3985
 2383SOL    HW2 9304   5.573   4.546   1.078  0.7399 -0.0319 -0.1938
 2383SOL    HW3 9305   5.666   4.522   1.195 -0.9590  0.4793  1.3108
 2383SOL    MW4 9306   5.643   4.568   1.125  0.3574 -0.1321  0.4407
 2384SOL     OW 9307   2.216   0.987   2.159 -0.4457  0.2532 -0.1926
 2384SOL    HW2 9308   2.225   1.081   2.177  2.0802 -0.1127  0.9292
 2384SOL    HW3 9309   2.255   0.945   2.236 -0.5052 -1.6892 -1.1833
 2384SOL    MW4 9310   2.223   0.994   2.172 -0.1203 -0.0514 -0.1753
 2385SOL     OW 9311   2.820   0.134   0.290  0.5438  0.5642  0.1393
 2385SOL    HW2 9312   2.870   0.161   0.367  0.7208 -2.0429  1.0438
 2385SOL    HW3 9313   2.878   0.074   0.243 -0.2872  0.5874 -0.9732
 2385SOL    MW4 9314   2.834   0.130   0.294  0.4576  0.2233  0.1119
 2386SOL     OW 9315   5.765   4.280   0.525 -0.6996  0.7148 -0.2734
 2386SOL    HW2 9316   5.673   4.280   0.552 -0.7325 -2.9583  0.0943
 2386SOL    HW3 9317   5.810   4.230   0.593  0.9166 -0.5429 -2.1689
 2386SOL    MW4 9318   5.759   4.273   0.537 -0.4907  0.0642 -0.4750
 2387SOL     OW 9319   0.892   4.250   4.792  0.2901 -0.0335 -0.1180
 2387SOL    HW2 9320   0.843   4.168   4.783 -0.3677  0.2894  0.4041
 2387SOL    HW3 9321   0.879   4.294   4.708 -1.0304  0.4165  0.2933
 2387SOL    MW4 9322   0.884   4.245   4.780  0.0291  0.0684  0.0052
 2388SOL     OW 9323   5.211   6.329   2.105  0.3533 -0.2942 -0.5502
 2388SOL    HW2 9324   5.146   6.263   2.129  0.2618 -0.1523 -0.4137
 2388SOL    HW3 9325   5.248   6.358   2.188  0.2910 -0.0659 -0.6043
 2388SOL    MW4 9326   5.207   6.324   2.119  0.3330 -0.2453 -0.5394
 2389SOL     OW 9327   1.321   1.204   0.595 -0.1695  0.3633 -0.2460
 2389SOL    HW2 9328   1.386   1.147   0.637 -2.0032 -0.0662  2.2573
 2389SOL    HW3 9329   1.322   1.284   0.648 -0.2708  1.1778 -1.4384
 2389SOL    MW4 9330   1.330   1.207   0.607 -0.4248  0.4141 -0.0730
 2390SOL     OW 9331   4.944   3.736   3.137 -0.1023  0.2852 -0.3632
 2390SOL    HW2 9332   4.965   3.691   3.054 -0.5544 -0.0676 -0.2877
 2390SOL    HW3 9333   5.003   3.812   3.138 -1.0664  1.0877 -1.6873
 2390SOL    MW4 9334   4.955   3.740   3.126 -0.2892  0.3446 -0.5279
 2391SOL     OW 9335   3.820   1.392   2.868  0.7023 -0.0151  0.6617
 2391SOL    HW2 9336   3.807   1.463   2.805  1.7874  0.6671  1.1839
 2391SOL    HW3 9337   3.891   1.339   2.832  0.1777 -0.6182  0.4806
 2391SOL    MW4 9338   3.827   1.394   2.855  0.7763 -0.0046  0.7067
 2392SOL     OW 9339   2.650   1.718   0.333  0.2657  0.2135 -0.3000
 2392SOL    HW2 9340   2.623   1.730   0.242 -0.7592  1.5685  0.1351
 2392SOL    HW3 9341   2.651   1.623   0.346 -0.5155  0.0235 -1.4632
 2392SOL    MW4 9342   2.646   1.707   0.323  0.0274  0.3672 -0.3961
 2393SOL     OW 9343   5.157   0.285   5.745  0.3220  0.0087  0.0183
 2393SOL    HW2 9344   5.180   0.203   5.788 -1.2653 -0.0737  0.8114
 2393SOL    HW3 9345   5.187   0.274   5.655 -1.2463 -2.1375 -0.3374
 2393SOL    MW4 9346   5.164   0.272   5.739 -0.0944 -0.2853  0.0760
 2394SOL     OW 9347   2.986   2.023   0.815 -0.5569  0.0716  0.0097
 2394SOL    HW2 9348   2.934   2.100   0.841 -0.6442 -0.7134  2.3597
 2394SOL    HW3 9349   3.015   1.984   0.898  0.7443 -1.6009 -1.1615
 2394SOL    MW4 9350   2.983   2.028   0.830 -0.3967 -0.2527  0.1652
 2395SOL     OW 9351   0.794   0.670   1.258 -0.1042 -0.8210  0.1202
 2395SOL    HW2 9352   0.729   0.601   1.268 -1.1660 -0.1806 -1.7481
 2395SOL    HW3 9353   0.754   0.731   1.195  1.7512  0.2904 -0.0548
 2395SOL    MW4 9354   0.780   0.669   1.251  0.0005 -0.5899 -0.1494
 2396SOL     OW 9355   1.656   4.014   5.595  0.0044 -0.4792  0.3808
 2396SOL    HW2 9356   1.623   3.955   5.528 -1.0410 -0.9035  1.2402
 2396SOL    HW3 9357   1.721   4.068   5.549 -2.1580  0.6953 -1.5366
 2396SOL    MW4 9358   1.660   4.014   5.580 -0.4188 -0.3802  0.2412
 2397SOL     OW 9359   2.646   3.967   5.215 -0.2250 -0.4468 -0.1584
 2397SOL    HW2 9360   2.702   3.925   5.150  0.4896 -0.5561  0.5162
 2397SOL    HW3 9361   2.704   3.985   5.289 -0.7664  0.7134  0.0114
 2397SOL    MW4 9362   2.661   3.964   5.216 -0.2022 -0.3081 -0.0470
 2398SOL     OW 9363   6.303   4.769   2.529  0.2842  0.1178  0.1050
 2398SOL    HW2 9364   6.221   4.764   2.578  0.0344 -2.6023 -0.3865
 2398SOL    HW3 9365   6.277   4.799   2.442 -0.0740  0.0180  0.1769
 2398SOL    MW4 9366   6.289   4.772   2.524  0.2040 -0.2542  0.0496
 2399SOL     OW 9367   1.429   3.819   4.419  0.7731  0.2632 -0.0609
 2399SOL    HW2 9368   1.465   3.906   4.401 -0.5716  0.7352 -0.5944
 2399SOL    HW3 9369   1.342   3.837   4.455  1.1638 -0.8272  1.5599
 2399SOL    MW4 9370   1.423   3.833   4.422  0.6472  0.1816  0.0825
 2400SOL     OW 9371   6.392   4.671   4.391  0.3656  0.0730 -0.0417
 2400SOL    HW2 9372   6.387   4.730   4.466 -0.5991  0.5857 -0.4888
 2400SOL    HW3 9373   6.481   4.682   4.358  0.3107  1.0061  0.1073
 2400SOL    MW4 9374   6.403   4.680   4.397  0.2311  0.2637 -0.0810
 2401SOL     OW 9375   5.799   2.443   5.891 -0.4873 -0.2238 -0.4313
 2401SOL    HW2 9376   5.737   2.508   5.858 -0.8553 -0.8339 -0.9621
 2401SOL    HW3 9377   5.745   2.382   5.941 -0.4158 -1.0635 -1.3455
 2401SOL    MW4 9378   5.783   2.444   5.893 -0.5264 -0.4151 -0.6219
 2402SOL     OW 9379   6.387   1.377   2.054 -0.3408 -0.0175 -0.2936
 2402SOL    HW2 9380   6.477   1.346   2.065 -0.2060  0.3933 -0.2273
 2402SOL    HW3 9381   6.367   1.361   1.962  0.1357  0.7673 -0.5427
 2402SOL    MW4 9382   6.396   1.370   2.043 -0.2602  0.1402 -0.3177
 2403SOL     OW 9383   4.288   5.874   4.872  1.0540 -0.1615 -0.1215
 2403SOL    HW2 9384   4.289   5.964   4.840  1.9217  0.2298  0.9290
 2403SOL    HW3 9385   4.327   5.823   4.801  2.2556  0.5803 -0.0307
 2403SOL    MW4 9386   4.294   5.879   4.859  1.3270 -0.0120  0.0291
 2404SOL     OW 9387   4.492   6.281   0.492  0.4433 -0.8101 -0.2401
 2404SOL    HW2 9388   4.419   6.247   0.544  2.7265 -2.0214  2.3816
 2404SOL    HW3 9389   4.515   6.209   0.433 -1.1238 -0.0043 -1.9331
 2404SOL    MW4 9390   4.485   6.267   0.491  0.5378 -0.8636 -0.1176
 2405SOL     OW 9391   4.699   0.080   2.503 -0.2410  0.7168 -0.0429
 2405SOL    HW2 9392   4.747   0.025   2.442  0.2083  0.9155  0.1240
 2405SOL    HW3 9393   4.767   0.131   2.547 -0.6105  1.0367  0.1620
 2405SOL    MW4 9394   4.714   0.080   2.501 -0.2305  0.7853  0.0062
 2406SOL     OW 9395   2.223   2.749   5.542 -0.1451 -0.2963  0.1787
 2406SOL    HW2 9396   2.172   2.817   5.585  0.6227 -0.3807  1.2698
 2406SOL    HW3 9397   2.313   2.764   5.572  0.5618  0.0499 -1.9395
 2406SOL    MW4 9398   2.228   2.760   5.552  0.0495 -0.2617  0.0432
 2407SOL     OW 9399   3.060   0.110   3.186  0.7001  0.1155 -0.0583
 2407SOL    HW2 9400   3.114   0.036   3.160  2.9428  1.1520  1.3076
 2407SOL    HW3 9401   2.985   0.071   3.230  0.7709 -1.3678 -1.1794
 2407SOL    MW4 9402   3.057   0.095   3.188  1.0053  0.0566 -0.0260
 2408SOL     OW 9403   2.580   1.483   6.370  0.3838 -0.3676 -0.1969
 2408SOL    HW2 9404   2.585   1.578   6.375 -1.7413 -0.0398 -2.3688
 2408SOL    HW3 9405   2.648   1.459   6.307 -0.4030 -0.0159 -1.2142
 2408SOL    MW4 9406   2.589   1.492   6.363 -0.0004 -0.2779 -0.6177
 2409SOL     OW 9407   0.118   3.312   1.253 -0.5949 -0.5919  0.3281
 2409SOL    HW2 9408   0.096   3.375   1.184 -0.6749 -0.2851  0.6330
 2409SOL    HW3 9409   0.138   3.231   1.205  1.3848  0.1594 -0.2110
 2409SOL    MW4 9410   0.118   3.310   1.237 -0.3443 -0.4523  0.2972
 2410SOL     OW 9411   1.971   2.330   3.545  0.2438  0.4650 -0.2280
 2410SOL    HW2 9412   1.964   2.247   3.594  0.8893  0.7326  0.3328
 2410SOL    HW3 9413   2.063   2.334   3.519  0.2310  1.0450 -0.1877
 2410SOL    MW4 9414   1.982   2.319   3.548  0.3273  0.5768 -0.1487
 2411SOL     OW 9415   0.510   1.581   3.473  0.0787 -0.3939 -0.3531
 2411SOL    HW2 9416   0.560   1.532   3.408 -0.3027 -0.8898 -0.2811
 2411SOL    HW3 9417   0.557   1.568   3.555  0.6545  0.3705 -0.5463
 2411SOL    MW4 9418   0.522   1.573   3.476  0.1044 -0.3585 -0.3691
 2412SOL     OW 9419   2.381   4.305   2.476  0.0722 -0.7688  0.2689
 2412SOL    HW2 9420   2.409   4.337   2.391 -0.0390  2.6185  1.3781
 2412SOL    HW3 9421   2.313   4.241   2.457 -0.3540  0.3265 -2.1601
 2412SOL    MW4 9422   2.376   4.301   2.462  0.0013 -0.1774  0.0948
 2413SOL     OW 9423   0.160   2.352   1.958  0.2836 -0.4272 -0.1131
 2413SOL    HW2 9424   0.250   2.362   1.924  1.2521  0.0013  2.3977
 2413SOL    HW3 9425   0.160   2.402   2.039 -3.0338  1.7936 -1.2804
 2413SOL    MW4 9426   0.172   2.360   1.964 -0.0263 -0.0777  0.0642
 2414SOL     OW 9427   4.554   5.725   2.775  1.0078  0.0987 -0.3878
 2414SOL    HW2 9428   4.623   5.782   2.741  0.1260  2.1215  0.9946
 2414SOL    HW3 9429   4.565   5.730   2.870  0.1289 -1.1182 -0.1993
 2414SOL    MW4 9430   4.565   5.733   2.783  0.7755  0.2050 -0.1806
 2415SOL     OW 9431   4.646   2.128   1.944 -0.4181 -0.0144 -0.8436
 2415SOL    HW2 9432   4.628   2.049   1.893  1.4395 -0.8668 -0.2801
 2415SOL    HW3 9433   4.686   2.188   1.881  2.6321 -1.3638 -0.3706
 2415SOL    MW4 9434   4.649   2.125   1.929  0.2294 -0.3049 -0.7068
 2416SOL     OW 9435   0.125   0.267   4.110 -0.6813 -0.7056 -0.1984
 2416SOL    HW2 9436   0.214   0.239   4.086 -1.5207 -2.8409 -1.0334
 2416SOL    HW3 9437   0.074   0.187   4.112 -2.0045  0.0344  3.3561
 2416SOL    MW4 9438   0.130   0.253   4.107 -0.9666 -0.8897  0.1604
 2417SOL     OW 9439   0.154   1.878   5.619 -0.5524  0.0688 -0.2167
 2417SOL    HW2 9440   0.201   1.861   5.701  0.6176 -2.0641 -1.2443
 2417SOL    HW3 9441   0.063   1.889   5.645  0.1691  2.7574  1.6783
 2417SOL    MW4 9442   0.149   1.878   5.634 -0.3028  0.1421 -0.1023
 2418SOL     OW 9443   5.096   5.535   1.036 -0.5011 -0.1209  0.4320
 2418SOL    HW2 9444   5.091   5.631   1.039 -2.0918 -0.0899 -1.4550
 2418SOL    HW3 9445   5.046   5.507   1.113  0.1294  0.5501  1.1023
 2418SOL    MW4 9446   5.089   5.544   1.047 -0.6278 -0.0283  0.2715
 2419SOL     OW 9447   3.150   3.775   2.513  0.2008  0.0539 -0.6445
 2419SOL    HW2 9448   3.119   3.782   2.603  1.6818 -0.4270 -0.0630
 2419SOL    HW3 9449   3.227   3.832   2.510  0.6526 -0.5675 -1.3551
 2419SOL    MW4 9450   3.156   3.783   2.525  0.4558 -0.0916 -0.6615
 2420SOL     OW 9451   6.401   3.917   1.966  0.2955  0.1411 -0.3006
 2420SOL    HW2 9452   6.470   3.907   2.032 -0.0216 -1.5947 -0.1745
 2420SOL    HW3 9453   6.443   3.966   1.895  0.6738  1.9766  1.1088
 2420SOL    MW4 9454   6.416   3.922   1.966  0.3035  0.1543 -0.0980
 2421SOL     OW 9455   2.734   2.669   0.228  0.2389  0.2059  0.1441
 2421SOL    HW2 9456   2.800   2.704   0.288  0.2314 -0.4185  0.5293
 2421SOL    HW3 9457   2.650   2.697   0.266  0.2791  1.0907 -0.4040
 2421SOL    MW4 9458   2.732   2.677   0.241  0.2432  0.2402  0.1226
 2422SOL     OW 9459   0.922   5.611   2.666  0.0047  0.0019 -0.7460
 2422SOL    HW2 9460   0.869   5.556   2.724  0.6892 -1.0183 -1.0558
 2422SOL    HW3 9461   0.890   5.591   2.578  0.5387 -0.2304 -0.8933
 2422SOL    MW4 9462   0.911   5.601   2.662  0.1655 -0.1633 -0.8063
 2423SOL     OW 9463   3.223   2.323   5.711  0.1354 -0.5279  0.2343
 2423SOL    HW2 9464   3.274   2.246   5.738  1.9757  0.4750 -0.2256
 2423SOL    HW3 9465   3.247   2.337   5.619 -0.0389  0.6957  0.3618
 2423SOL    MW4 9466   3.233   2.314   5.702  0.3552 -0.2341  0.1905
 2424SOL     OW 9467   1.152   4.601   2.035  0.3938  0.6496  0.0848
 2424SOL    HW2 9468   1.057   4.613   2.038  0.1599 -1.0660  0.3508
 2424SOL    HW3 9469   1.179   4.643   1.953 -1.0008 -1.2793 -1.4519
 2424SOL    MW4 9470   1.143   4.608   2.025  0.1789  0.1688 -0.0829
 2425SOL     OW 9471   0.655   5.361   4.761 -0.1563 -0.5062  0.1671
 2425SOL    HW2 9472   0.742   5.393   4.787 -0.0519  0.4775 -1.2556
 2425SOL    HW3 9473   0.594   5.424   4.798 -0.2490 -1.0092  0.8813
 2425SOL    MW4 9474   0.659   5.373   4.769 -0.1548 -0.4428  0.0737
 2426SOL     OW 9475   1.834   1.821   3.355 -0.8297  0.5369  0.4604
 2426SOL    HW2 9476   1.771   1.876   3.307 -0.7505  1.3960  1.3247
 2426SOL    HW3 9477   1.918   1.864   3.341  0.2990 -2.3580 -3.4992
 2426SOL    MW4 9478   1.837   1.834   3.347 -0.6703  0.2683  0.0520
 2427SOL     OW 9479   6.226   3.566   6.386  0.0840  0.1036 -0.2248
 2427SOL    HW2 9480   6.284   3.525   6.451  0.0503  0.3679 -0.0271
 2427SOL    HW3 9481   6.285   3.605   6.322  0.1299  0.6127  0.1254
 2427SOL    MW4 9482   6.241   3.566   6.386  0.0856  0.2056 -0.1525
 2428SOL     OW 9483   2.996   3.199   0.885  0.1607  0.2307  0.3378
 2428SOL    HW2 9484   2.922   3.258   0.894 -0.5283 -0.6839  0.7626
 2428SOL    HW3 9485   2.963   3.114   0.910  0.6491 -0.7276 -2.0244
 2428SOL    MW4 9486   2.982   3.196   0.890  0.1342 -0.0164  0.0822
 2429SOL     OW 9487   1.362   2.642   4.419 -0.2443  0.3773  0.0662
 2429SOL    HW2 9488   1.401   2.554   4.416 -0.6309  0.2250 -0.7983
 2429SOL    HW3 9489   1.435   2.699   4.443 -0.2197 -0.2962  1.6919
 2429SOL    MW4 9490   1.377   2.638   4.422 -0.2920  0.2683  0.1666
 2430SOL     OW 9491   2.258   3.753   1.395 -0.0345 -0.3318 -0.3409
 2430SOL    HW2 9492   2.335   3.804   1.373 -1.0598  0.3530 -2.6959
 2430SOL    HW3 9493   2.246   3.693   1.321 -1.9012 -0.2019 -0.2008
 2430SOL    MW4 9494   2.266   3.752   1.382 -0.4161 -0.2243 -0.6331
 2431SOL     OW 9495   5.831   5.507   0.113 -0.1131 -0.1910  0.4797
 2431SOL    HW2 9496   5.914   5.505   0.160 -0.5101  3.1710  1.6165
 2431SOL    HW3 9497   5.850   5.558   0.034 -0.9810  0.2381  0.5397
 2431SOL    MW4 9498   5.845   5.514   0.109 -0.2800  0.3092  0.6376
 2432SOL     OW 9499   0.642   3.470   2.376 -0.0157  0.0999 -0.5140
 2432SOL    HW2 9500   0.727   3.434   2.401 -0.7103 -0.6353  0.9465
 2432SOL    HW3 9501   0.604   3.405   2.318  0.1727  0.1567 -0.7022
 2432SOL    MW4 9502   0.648   3.457   2.372 -0.0825  0.0104 -0.3462
 2433SOL     OW 9503   1.838   3.907   4.259  0.7172 -0.6151 -0.2610
 2433SOL    HW2 9504   1.895   3.980   4.285 -0.4068  0.4493 -0.7097
 2433SOL    HW3 9505   1.852   3.899   4.165  0.5974 -0.7742 -0.2654
 2433SOL    MW4 9506   1.848   3.916   4.250  0.5531 -0.4957 -0.3208
 2434SOL     OW 9507   5.162   0.999   4.913 -0.0179 -0.0247 -0.0951
 2434SOL    HW2 9508   5.214   0.920   4.926 -1.0007 -0.3997  1.8850
 2434SOL    HW3 9509   5.127   0.990   4.825  0.7992 -1.2275 -0.3220
 2434SOL    MW4 9510   5.164   0.988   4.903 -0.0398 -0.2329  0.1362
 2435SOL     OW 9511   6.239   0.101   0.223 -0.2376  0.0114 -0.3418
 2435SOL    HW2 9512   6.174   0.031   0.232  1.0831 -1.0844  1.5017
 2435SOL    HW3 9513   6.282   0.104   0.309  0.9372  1.9011 -0.9506
 2435SOL    MW4 9514   6.236   0.092   0.236  0.0916  0.1162 -0.1789
 2436SOL     OW 9515   4.089   5.605   2.304 -0.2968  0.2206  0.2218
 2436SOL    HW2 9516   4.082   5.581   2.396  0.8677 -0.5519  0.1336
 2436SOL    HW3 9517   4.083   5.700   2.303  2.2458  0.4618  1.4018
 2436SOL    MW4 9518   4.087   5.614   2.316  0.1923  0.1505  0.3658
 2437SOL     OW 9519   3.937   6.056   4.212 -0.9883 -0.3338 -0.1743
 2437SOL    HW2 9520   3.984   5.973   4.214 -0.8156 -0.2448 -0.4160
 2437SOL    HW3 9521   3.855   6.037   4.167 -1.8550 -0.8194  1.5325
 2437SOL    MW4 9522   3.933   6.043   4.206 -1.0799 -0.3861  0.0190
 2438SOL     OW 9523   0.297   3.281   4.623  0.3222  0.4498 -0.6530
 2438SOL    HW2 9524   0.296   3.206   4.563  0.7710 -0.5779  0.5939
 2438SOL    HW3 9525   0.388   3.311   4.622  0.2167  0.7641 -0.8851
 2438SOL    MW4 9526   0.309   3.275   4.615  0.3675  0.3557 -0.5191
 2439SOL     OW 9527   0.917   0.222   6.317  0.3336  0.1065 -0.0870
 2439SOL    HW2 9528   0.894   0.315   6.326 -1.0548 -0.1675 -0.6583
 2439SOL    HW3 9529   0.914   0.205   6.223  0.3110 -0.5822  0.0334
 2439SOL    MW4 9530   0.914   0.232   6.306  0.1475 -0.0205 -0.1465
 2440SOL     OW 9531   1.932   1.616   4.195  0.5286 -0.2395 -0.4501
 2440SOL    HW2 9532   1.902   1.667   4.120 -0.3519 -0.4142 -0.2280
 2440SOL    HW3 9533   2.014   1.575   4.165  0.5426  0.2306 -1.0766
 2440SOL    MW4 9534   1.939   1.618   4.181  0.4143 -0.2005 -0.5035
 2441SOL     OW 9535   5.055   3.080   6.139 -0.2254  0.0818  0.0017
 2441SOL    HW2 9536   5.105   3.162   6.140  1.0808 -0.6114 -1.8955
 2441SOL    HW3 9537   4.993   3.092   6.068 -0.9642 -0.0788  0.6136
 2441SOL    MW4 9538   5.054   3.092   6.130 -0.1505 -0.0309 -0.1678
 2442SOL     OW 9539   6.203   2.540   0.753 -0.4324  0.1732 -0.5355
 2442SOL    HW2 9540   6.245   2.592   0.822  0.4464  0.0403 -0.9447
 2442SOL    HW3 9541   6.187   2.455   0.793 -0.0824  0.1517 -0.4324
 2442SOL    MW4 9542   6.207   2.536   0.767 -0.2703  0.1528 -0.5759
 2443SOL     OW 9543   2.321   2.329   2.023 -0.5201  0.1105 -0.7336
 2443SOL    HW2 9544   2.375   2.270   1.969 -1.3231 -0.0206 -1.4212
 2443SOL    HW3 9545   2.327   2.413   1.978  1.0833  0.7296  0.5604
 2443SOL    MW4 9546   2.329   2.332   2.010 -0.4145  0.1749 -0.6536
 2444SOL     OW 9547   0.742   3.264   6.023 -0.3027 -0.2487 -0.5053
 2444SOL    HW2 9548   0.769   3.206   6.094 -0.0466 -0.5063 -0.8088
 2444SOL    HW3 9549   0.687   3.330   6.065  1.2793  0.6434  0.2363
 2444SOL    MW4 9550   0.738   3.265   6.038 -0.0602 -0.1650 -0.4475
 2445SOL     OW 9551   1.982   2.532   3.140 -0.4232  0.1343  0.3402
 2445SOL    HW2 9552   2.011   2.540   3.231 -1.1730  2.2084  0.4384
 2445SOL    HW3 9553   2.016   2.610   3.097 -2.1229  0.4154 -0.5710
 2445SOL    MW4 9554   1.990   2.544   3.146 -0.7464  0.4451  0.2329
 2446SOL     OW 9555   2.061   1.785   5.798 -0.2267  0.3483  0.1398
 2446SOL    HW2 9556   2.154   1.785   5.776 -0.0003  1.2187  1.0244
 2446SOL    HW3 9557   2.047   1.868   5.844 -1.3246 -0.0098  0.4887
 2446SOL    MW4 9558   2.071   1.795   5.801 -0.3417  0.4159  0.3025
 2447SOL     OW 9559   2.504   3.071   0.317  0.6019  0.0731  0.6435
 2447SOL    HW2 9560   2.515   3.150   0.370  0.3828 -1.3793  2.9952
 2447SOL    HW3 9561   2.593   3.050   0.287  1.2060 -0.4507  2.6376
 2447SOL    MW4 9562   2.517   3.079   0.320  0.6527 -0.1876  1.2169
 2448SOL     OW 9563   1.012   0.857   3.352 -0.3988  0.2020 -0.7472
 2448SOL    HW2 9564   1.100   0.890   3.370 -1.0626  1.5853  0.1906
 2448SOL    HW3 9565   0.982   0.820   3.435 -1.4997  1.8057 -0.3573
 2448SOL    MW4 9566   1.019   0.857   3.365 -0.6316  0.5961 -0.5720
 2449SOL     OW 9567   1.234   3.377   4.156  0.4056  0.0562  0.7763
 2449SOL    HW2 9568   1.291   3.311   4.116 -0.3731  0.4481 -1.1085
 2449SOL    HW3 9569   1.293   3.441   4.194  1.2617  0.4138 -1.0489
 2449SOL    MW4 9570   1.249   3.376   4.156  0.4158  0.1551  0.2868
 2450SOL     OW 9571   3.994   3.230   0.410  0.3126 -0.4868  0.3215
 2450SOL    HW2 9572   4.055   3.265   0.474  0.4192 -1.2132  0.6242
 2450SOL    HW3 9573   3.907   3.253   0.443  0.4010 -0.0579  0.2505
 2450SOL    MW4 9574   3.991   3.237   0.422  0.3383 -0.5260  0.3520
 2451SOL     OW 9575   2.189   5.760   2.173 -0.4158 -0.3546  0.0901
 2451SOL    HW2 9576   2.140   5.769   2.255  0.3107  0.1394  0.4850
 2451SOL    HW3 9577   2.193   5.666   2.158  0.0858 -0.4982  1.0280
 2451SOL    MW4 9578   2.183   5.749   2.182 -0.2538 -0.3083  0.2659
 2452SOL     OW 9579   0.694   2.965   3.354  0.2756  0.2147 -0.3437
 2452SOL    HW2 9580   0.725   3.013   3.431 -1.5316 -0.0064  0.5775
 2452SOL    HW3 9581   0.626   3.020   3.317 -0.0026 -0.4447 -0.8304
 2452SOL    MW4 9582   0.689   2.979   3.359  0.0005  0.0985 -0.2864
 2453SOL     OW 9583   4.304   2.972   3.957  0.2850 -0.1404 -0.1048
 2453SOL    HW2 9584   4.292   3.013   3.872 -1.1712  0.8558  0.5318
 2453SOL    HW3 9585   4.215   2.947   3.984  0.6349  0.1322  1.3787
 2453SOL    MW4 9586   4.290   2.974   3.950  0.1390  0.0270  0.1749
 2454SOL     OW 9587   3.464   1.549   6.029  0.2989 -0.5341 -0.3172
 2454SOL    HW2 9588   3.558   1.538   6.015  0.2858 -1.7824  0.3671
 2454SOL    HW3 9589   3.456   1.574   6.121 -0.1096 -2.8577  0.3699
 2454SOL    MW4 9590   3.475   1.551   6.039  0.2432 -1.0053 -0.1362
 2455SOL     OW 9591   0.038   5.354   6.191 -0.0150 -0.2120  0.2863
 2455SOL    HW2 9592   0.051   5.424   6.126 -1.6671 -0.3742 -0.2517
 2455SOL    HW3 9593  -0.056   5.352   6.206  0.2819 -0.3696  2.5190
 2455SOL    MW4 9594   0.027   5.363   6.184 -0.1938 -0.2542  0.5099
 2456SOL     OW 9595   0.408   5.716   0.760  0.0255 -0.3243  0.1012
 2456SOL    HW2 9596   0.459   5.636   0.752  1.7962  0.8566 -1.3228
 2456SOL    HW3 9597   0.341   5.696   0.825  1.3238 -2.4760  0.8740
 2456SOL    MW4 9598   0.406   5.703   0.768  0.4304 -0.4524  0.0153
 2457SOL     OW 9599   5.892   4.480   2.541 -0.4058  0.2294 -0.1498
 2457SOL    HW2 9600   5.924   4.393   2.519 -1.0772  0.0805 -0.5396
 2457SOL    HW3 9601   5.832   4.466   2.615  0.2476  0.4855  0.4458
 2457SOL    MW4 9602   5.889   4.467   2.548 -0.4082  0.2436 -0.1227
 2458SOL     OW 9603   3.926   3.824   4.019 -0.0646 -0.1354  1.2328
 2458SOL    HW2 9604   4.002   3.783   4.060  1.2877 -0.3319 -1.2871
 2458SOL    HW3 9605   3.939   3.918   4.033  1.1984 -0.1009  0.0372
 2458SOL    MW4 9606   3.938   3.831   4.026  0.2804 -0.1567  0.7426
 2459SOL     OW 9607   3.351   3.499   2.979  0.3085  0.3845 -0.0048
 2459SOL    HW2 9608   3.363   3.404   2.969 -4.0170 -0.3743 -0.0800
 2459SOL    HW3 9609   3.367   3.534   2.891  1.5922 -0.2782 -0.0594
 2459SOL    MW4 9610   3.355   3.491   2.966 -0.0928  0.1969 -0.0219
 2460SOL     OW 9611   3.913   4.154   0.699  0.3073 -0.7195 -0.3955
 2460SOL    HW2 9612   3.850   4.143   0.770 -0.9448 -1.7342 -1.6052
 2460SOL    HW3 9613   3.900   4.245   0.671  0.3904 -0.4936  0.2645
 2460SOL    MW4 9614   3.903   4.165   0.705  0.1531 -0.8236 -0.4680
 2461SOL     OW 9615   0.016   6.401   3.566 -0.3495 -0.2201  0.3989
 2461SOL    HW2 9616   0.076   6.437   3.631  0.5699  0.5044 -0.7961
 2461SOL    HW3 9617  -0.005   6.313   3.599  0.3625 -0.0058  1.4869
 2461SOL    MW4 9618   0.021   6.394   3.579 -0.1343 -0.0963  0.3848
 2462SOL     OW 9619   2.039   0.502   3.275 -0.1731  0.2019  0.5485
 2462SOL    HW2 9620   2.127   0.539   3.274  0.3091 -0.9118  0.4827
 2462SOL    HW3 9621   2.015   0.498   3.368  0.2803 -0.4867  0.6377
 2462SOL    MW4 9622   2.047   0.507   3.287 -0.0497 -0.0359  0.5516
 2463SOL     OW 9623   3.697   2.748   3.929  0.3171  0.6596 -0.0572
 2463SOL    HW2 9624   3.783   2.721   3.962 -0.0972  0.1486  0.6393
 2463SOL    HW3 9625   3.676   2.827   3.980  0.1006  0.4228  0.2235
 2463SOL    MW4 9626   3.706   2.755   3.940  0.2339  0.5609  0.0717
 2464SOL     OW 9627   4.182   4.940   0.441 -0.2118  0.0930  0.3014
 2464SOL    HW2 9628   4.251   4.999   0.471 -0.1393  0.1664 -0.0056
 2464SOL    HW3 9629   4.150   4.979   0.360 -0.6260  0.0640  0.4487
 2464SOL    MW4 9630   4.187   4.953   0.434 -0.2569  0.0989  0.2803
 2465SOL     OW 9631   3.904   5.084   4.476 -0.2278 -0.0852  0.0553
 2465SOL    HW2 9632   3.838   5.018   4.494  0.4830 -0.0346  3.6385
 2465SOL    HW3 9633   3.986   5.035   4.466 -0.2495  0.0683 -1.0143
 2465SOL    MW4 9634   3.906   5.069   4.477 -0.1369 -0.0583  0.3870
 2466SOL     OW 9635   0.527   1.565   0.074  0.4049 -0.0685 -0.0962
 2466SOL    HW2 9636   0.514   1.580   0.168 -0.4031  0.5962 -0.2996
 2466SOL    HW3 9637   0.445   1.593   0.034  0.3924 -1.2344 -0.9260
 2466SOL    MW4 9638   0.515   1.571   0.081  0.2966 -0.1346 -0.2325
 2467SOL     OW 9639   4.715   3.803   0.067  0.0947 -0.7363  0.4426
 2467SOL    HW2 9640   4.795   3.855   0.076  0.1925 -0.4575 -1.5093
 2467SOL    HW3 9641   4.648   3.857   0.109  0.4340  0.3939 -0.4087
 2467SOL    MW4 9642   4.717   3.817   0.074  0.1523 -0.5504  0.0728
 2468SOL     OW 9643   4.679   0.967   4.127  0.3577  0.0585 -0.1636
 2468SOL    HW2 9644   4.697   0.908   4.200  0.3604 -0.0424 -0.2450
 2468SOL    HW3 9645   4.593   0.941   4.096  1.0462 -1.0299 -1.2650
 2468SOL    MW4 9646   4.670   0.956   4.132  0.4489 -0.0984 -0.3197
 2469SOL     OW 9647   2.926   0.047   5.998 -0.3410  0.5736 -0.1163
 2469SOL    HW2 9648   2.998  -0.015   6.011  0.1823  1.3703  0.8690
 2469SOL    HW3 9649   2.874   0.041   6.077 -0.9029  0.6185 -0.4760
 2469SOL    MW4 9650   2.929   0.038   6.010 -0.3461  0.6846 -0.0337
 2470SOL     OW 9651   3.000   0.568   2.629  0.5548  0.4289  0.2225
 2470SOL    HW2 9652   2.997   0.564   2.533  0.1981 -0.5192  0.2672
 2470SOL    HW3 9653   3.080   0.521   2.652  0.4827  0.3976  0.4071
 2470SOL    MW4 9654   3.010   0.562   2.619  0.4982  0.2997  0.2527
 2471SOL     OW 9655   1.659   4.511   0.369 -0.0873 -0.3334  0.0751
 2471SOL    HW2 9656   1.693   4.535   0.455  0.6973 -0.0698 -0.2883
 2471SOL    HW3 9657   1.616   4.427   0.382  0.9929 -0.8338  0.5175
 2471SOL    MW4 9658   1.658   4.503   0.382  0.1588 -0.3646  0.0855
 2472SOL     OW 9659   0.454   5.482   3.628  0.2015 -0.0188  0.0616
 2472SOL    HW2 9660   0.363   5.478   3.597  0.1459  0.1764  0.1932
 2472SOL    HW3 9661   0.451   5.444   3.716  0.1722  0.3363  0.2202
 2472SOL    MW4 9662   0.441   5.477   3.636  0.1903  0.0538  0.0999
 2473SOL     OW 9663   4.691   1.434   4.131  0.4358  0.0448  0.0074
 2473SOL    HW2 9664   4.692   1.413   4.038  0.4792 -0.5127  0.1333
 2473SOL    HW3 9665   4.754   1.506   4.140  0.3684  0.1553 -0.4023
 2473SOL    MW4 9666   4.700   1.441   4.120  0.4327 -0.0142 -0.0300
 2474SOL     OW 9667   4.455   4.723   2.281  0.2498 -0.1386 -0.3223
 2474SOL    HW2 9668   4.407   4.696   2.203  1.6293 -1.2076 -0.8369
 2474SOL    HW3 9669   4.432   4.657   2.347 -0.5192  0.4834  0.0608
 2474SOL    MW4 9670   4.445   4.711   2.279  0.3303 -0.1976 -0.3397
 2475SOL     OW 9671   2.946   3.091   0.602  0.8041 -0.7871 -0.3385
 2475SOL    HW2 9672   2.975   3.123   0.688  1.2865 -1.8683 -0.0886
 2475SOL    HW3 9673   2.857   3.059   0.618  0.4377  0.0965 -0.5220
 2475SOL    MW4 9674   2.938   3.091   0.616  0.8194 -0.8132 -0.3297
 2476SOL     OW 9675   5.018   4.037   1.335  0.3785  0.3746 -0.4227
 2476SOL    HW2 9676   5.032   3.985   1.415  1.6825 -1.4567 -1.7532
 2476SOL    HW3 9677   5.090   4.100   1.335  0.4096  0.3402 -0.1857
 2476SOL    MW4 9678   5.030   4.038   1.346  0.5546  0.1285 -0.5670
 2477SOL     OW 9679   6.259   6.033   0.063  0.4147 -0.2391  0.2454
 2477SOL    HW2 9680   6.348   5.999   0.062  0.6547  0.3301 -1.7423
 2477SOL    HW3 9681   6.208   5.970   0.013  0.1028  0.3795 -0.2343
 2477SOL    MW4 9682   6.264   6.020   0.056  0.4052 -0.0824 -0.0802
 2478SOL     OW 9683   2.318   4.368   6.211 -0.3015 -0.8504 -0.2492
 2478SOL    HW2 9684   2.283   4.390   6.297  1.0573 -0.4798  0.2213
 2478SOL    HW3 9685   2.241   4.371   6.153 -0.9979  0.3126  0.6781
 2478SOL    MW4 9686   2.303   4.371   6.215 -0.2141 -0.6481 -0.0648
 2479SOL     OW 9687   2.652   3.670   4.861  0.0376 -0.3069 -0.5278
 2479SOL    HW2 9688   2.644   3.719   4.780 -0.6677 -0.9245 -0.8491
 2479SOL    HW3 9689   2.616   3.584   4.840  0.5106 -0.6983  0.2425
 2479SOL    MW4 9690   2.646   3.665   4.848  0.0070 -0.4400 -0.4686
 2480SOL     OW 9691   5.906   1.874   5.732  0.3425 -0.0986  0.1940
 2480SOL    HW2 9692   5.847   1.896   5.805 -0.5431 -0.7136 -0.3210
 2480SOL    HW3 9693   5.958   1.953   5.720  1.1015 -0.2541  2.0327
 2480SOL    MW4 9694   5.905   1.887   5.740  0.3258 -0.2003  0.3687
 2481SOL     OW 9695   2.705   1.828   2.398  0.2976  0.6543  0.1114
 2481SOL    HW2 9696   2.724   1.740   2.430 -0.2941  0.3210 -0.4163
 2481SOL    HW3 9697   2.695   1.817   2.303 -1.5654  0.9490  0.2324
 2481SOL    MW4 9698   2.706   1.815   2.389 -0.0263  0.6492  0.0577
 2482SOL     OW 9699   0.024   5.146   1.733 -0.0230 -0.6222 -0.1671
 2482SOL    HW2 9700  -0.057   5.155   1.683  0.8102 -1.7503 -1.8219
 2482SOL    HW3 9701   0.034   5.229   1.779 -2.6668 -0.8470  0.9739
 2482SOL    MW4 9702   0.014   5.158   1.733 -0.2619 -0.8007 -0.2348
 2483SOL     OW 9703   2.680   0.627   1.023 -0.5485 -0.3029  0.3775
 2483SOL    HW2 9704   2.736   0.691   0.980 -0.3351  0.0141  1.1244
 2483SOL    HW3 9705   2.739   0.558   1.051 -0.8044 -0.9533 -0.6170
 2483SOL    MW4 9706   2.695   0.626   1.021 -0.5541 -0.3469  0.3448
 2484SOL     OW 9707   2.689   2.166   0.585  0.3547  0.2808  0.2999
 2484SOL    HW2 9708   2.716   2.158   0.677 -0.8369  1.8869  0.8257
 2484SOL    HW3 9709   2.763   2.210   0.543  1.7172 -2.0957  0.0068
 2484SOL    MW4 9710   2.703   2.171   0.592  0.3773  0.1792  0.3306
 2485SOL     OW 9711   2.251   5.824   1.850 -0.4882  0.0521 -0.2037
 2485SOL    HW2 9712   2.317   5.865   1.796 -1.2683  0.6135 -0.7525
 2485SOL    HW3 9713   2.263   5.862   1.937 -0.4588  0.5676 -0.4346
 2485SOL    MW4 9714   2.261   5.834   1.854 -0.5872  0.1942 -0.3066
 2486SOL     OW 9715   5.910   5.855   3.006 -0.2135 -0.2360 -0.6406
 2486SOL    HW2 9716   5.848   5.920   2.972 -1.9113 -2.2682 -1.6520
 2486SOL    HW3 9717   5.915   5.789   2.938  2.5413 -0.5550 -0.2330
 2486SOL    MW4 9718   5.903   5.855   2.993 -0.0740 -0.5462 -0.7203
 2487SOL     OW 9719   6.151   3.328   1.106 -0.6577 -0.8738  0.5115
 2487SOL    HW2 9720   6.169   3.395   1.171 -2.4898  0.1974 -0.0154
 2487SOL    HW3 9721   6.139   3.376   1.024  2.0402 -2.2103 -0.8073
 2487SOL    MW4 9722   6.152   3.343   1.104 -0.5435 -0.9088  0.2680
 2488SOL     OW 9723   0.206   2.356   4.861 -0.4258  0.4009  0.5383
 2488SOL    HW2 9724   0.283   2.367   4.917 -0.2590  0.9470  0.2059
 2488SOL    HW3 9725   0.239   2.372   4.772 -0.3862 -1.7610  0.1027
 2488SOL    MW4 9726   0.221   2.360   4.857 -0.3986  0.1877  0.4370
 2489SOL     OW 9727   3.984   6.333   1.390  0.2081 -0.1586 -0.3007
 2489SOL    HW2 9728   3.959   6.397   1.456 -1.9158 -0.3925 -0.7903
 2489SOL    HW3 9729   3.917   6.265   1.397 -1.0351  0.5515 -3.6819
 2489SOL    MW4 9730   3.972   6.332   1.400 -0.2361 -0.0958 -0.8114
 2490SOL     OW 9731   4.105   2.653   0.214 -0.7238 -0.0295  0.1174
 2490SOL    HW2 9732   4.120   2.681   0.124 -0.0442 -0.3367  0.1304
 2490SOL    HW3 9733   4.132   2.728   0.267  1.0585 -0.6714  0.1511
 2490SOL    MW4 9734   4.110   2.667   0.209 -0.3990 -0.1548  0.1236
 2491SOL     OW 9735   5.266   1.445   2.432 -0.1536  0.0085  0.3151
 2491SOL    HW2 9736   5.296   1.511   2.495  0.7739 -0.4342  0.3509
 2491SOL    HW3 9737   5.305   1.363   2.461 -0.9144 -0.4861 -0.0011
 2491SOL    MW4 9738   5.275   1.443   2.444 -0.1316 -0.1151  0.2781
 2492SOL     OW 9739   3.570   5.945   1.409 -0.2614 -0.8953 -0.4263
 2492SOL    HW2 9740   3.486   5.901   1.401 -0.3777 -0.6453 -0.5511
 2492SOL    HW3 9741   3.567   5.987   1.495 -0.5088 -0.3565 -0.7016
 2492SOL    MW4 9742   3.559   5.945   1.420 -0.3094 -0.7912 -0.4791
 2493SOL     OW 9743   2.102   1.276   2.145  0.3404  0.1353 -0.1899
 2493SOL    HW2 9744   2.089   1.289   2.051 -0.7045  1.6680  0.1275
 2493SOL    HW3 9745   2.084   1.362   2.183  0.7283 -0.4718  1.4218
 2493SOL    MW4 9746   2.098   1.289   2.137  0.2537  0.2574  0.0646
 2494SOL     OW 9747   6.212   1.244   3.793 -0.5662 -0.0088 -0.5600
 2494SOL    HW2 9748   6.264   1.179   3.841  2.4894  2.7176  0.2777
 2494SOL    HW3 9749   6.252   1.247   3.706 -0.5643  0.7897 -0.5385
 2494SOL    MW4 9750   6.224   1.236   3.788 -0.1628  0.4563 -0.4466
 2495SOL     OW 9751   0.020   0.061   5.182 -0.0207 -0.0422  0.1597
 2495SOL    HW2 9752   0.071  -0.019   5.196 -0.4298 -0.6294 -1.4843
 2495SOL    HW3 9753  -0.043   0.062   5.255  1.5074  0.0687  1.5370
 2495SOL    MW4 9754   0.018   0.051   5.194  0.1269 -0.1050  0.1245
 2496SOL     OW 9755   4.114   1.613   4.158  0.3338 -0.1550 -0.5122
 2496SOL    HW2 9756   4.090   1.520   4.164  1.0809 -0.2969  0.7981
 2496SOL    HW3 9757   4.031   1.659   4.146 -0.4951 -0.7528  2.2546
 2496SOL    MW4 9758   4.100   1.607   4.157  0.3230 -0.2526  0.0257
 2497SOL     OW 9759   5.935   2.335   6.256  0.7792  0.4131  0.3244
 2497SOL    HW2 9760   5.915   2.426   6.234 -0.5424  0.5310  1.9071
 2497SOL    HW3 9761   5.942   2.333   6.351  0.6103 -1.1805  0.3346
 2497SOL    MW4 9762   5.934   2.346   6.265  0.5825  0.2184  0.5345
 2498SOL     OW 9763   5.116   5.631   1.414 -0.2443  0.0146 -0.0055
 2498SOL    HW2 9764   5.135   5.538   1.429 -2.2642 -0.5199 -0.4095
 2498SOL    HW3 9765   5.192   5.664   1.367  0.4147 -1.5014 -0.0633
 2498SOL    MW4 9766   5.128   5.623   1.410 -0.4238 -0.2559 -0.0664
 2499SOL     OW 9767   0.274   3.373   2.157 -0.5056  0.3484 -1.0219
 2499SOL    HW2 9768   0.254   3.457   2.200 -3.2865  0.2727 -1.9701
 2499SOL    HW3 9769   0.297   3.397   2.068 -0.9780  0.1441 -1.2016
 2499SOL    MW4 9770   0.274   3.388   2.151 -0.9349  0.3115 -1.1707
 2500SOL     OW 9771   1.422   2.015   6.043 -0.5301 -0.7128 -0.0346
 2500SOL    HW2 9772   1.342   1.970   6.016 -0.9589 -0.1887  0.3470
 2500SOL    HW3 9773   1.393   2.102   6.072  0.1916 -0.4599 -0.0326
 2500SOL    MW4 9774   1.408   2.021   6.043 -0.4915 -0.6103  0.0160
 2501SOL     OW 9775   1.264   5.338   4.256 -0.3986  0.2705 -0.1251
 2501SOL    HW2 9776   1.201   5.301   4.318 -0.4374  0.0158 -0.3150
 2501SOL    HW3 9777   1.276   5.270   4.190 -1.8007  1.2124 -1.4334
 2501SOL    MW4 9778   1.257   5.324   4.256 -0.5888  0.3612 -0.3227
 2502SOL     OW 9779   3.898   2.786   5.863 -0.1250 -0.1501 -0.2989
 2502SOL    HW2 9780   3.952   2.713   5.893 -1.3981  0.0302  2.8838
 2502SOL    HW3 9781   3.928   2.860   5.916 -1.3352  0.7149 -0.7907
 2502SOL    MW4 9782   3.909   2.786   5.874 -0.4527 -0.0122  0.0561
 2503SOL     OW 9783   5.252   5.660   3.799  0.7512  0.2764 -0.0064
 2503SOL    HW2 9784   5.266   5.716   3.723  0.2605 -0.7852 -0.9144
 2503SOL    HW3 9785   5.340   5.636   3.828  0.9496  1.1093  0.0867
 2503SOL    MW4 9786   5.266   5.664   3.793  0.7126  0.2462 -0.1139
 2504SOL     OW 9787   1.802   4.182   1.370  0.1531 -0.1410  0.0056
 2504SOL    HW2 9788   1.785   4.097   1.331  2.5695 -0.9224  0.4432
 2504SOL    HW3 9789   1.754   4.181   1.453 -1.4201 -0.2481 -0.8854
 2504SOL    MW4 9790   1.794   4.171   1.376  0.2643 -0.2582 -0.0542
 2505SOL     OW 9791   6.037   3.194   0.338 -0.2057 -0.0772 -0.3643
 2505SOL    HW2 9792   6.045   3.135   0.264  0.6084 -0.8719  0.3424
 2505SOL    HW3 9793   6.123   3.192   0.381 -0.8034 -0.0120  0.8837
 2505SOL    MW4 9794   6.050   3.186   0.334 -0.1771 -0.1735 -0.1064
 2506SOL     OW 9795   4.768   0.826   4.364  0.4578 -0.2051 -0.1678
 2506SOL    HW2 9796   4.723   0.743   4.374  0.5678 -0.2290  0.1433
 2506SOL    HW3 9797   4.861   0.806   4.377  0.4869 -0.0391 -0.1062
 2506SOL    MW4 9798   4.774   0.813   4.367  0.4761 -0.1864 -0.1187
 2507SOL     OW 9799   2.549   1.405   3.627  0.1668 -0.2356  0.0924
 2507SOL    HW2 9800   2.557   1.415   3.722  1.3430 -1.5054  0.1616
 2507SOL    HW3 9801   2.579   1.488   3.591 -0.5415  0.3512  0.8229
 2507SOL    MW4 9802   2.554   1.417   3.635  0.2286 -0.3257  0.1979
 2508SOL     OW 9803   2.357   0.043   3.999  0.4171 -0.3531  0.6744
 2508SOL    HW2 9804   2.335  -0.004   3.918  1.7103 -1.4278  0.9068
 2508SOL    HW3 9805   2.409  -0.020   4.049  0.1323  0.5081  2.0885
 2508SOL    MW4 9806   2.361   0.028   3.995  0.5501 -0.3813  0.8916
 2509SOL     OW 9807   1.616   0.607   0.854  0.1078 -0.0072  0.2727
 2509SOL    HW2 9808   1.549   0.571   0.912 -1.0623  0.3773 -0.7999
 2509SOL    HW3 9809   1.674   0.656   0.912  0.0451 -1.1667  1.3567
 2509SOL    MW4 9810   1.615   0.609   0.869 -0.0548 -0.1095  0.2742
 2510SOL     OW 9811   5.209   0.026   3.205  0.3568  0.0185 -0.1926
 2510SOL    HW2 9812   5.267   0.004   3.132  1.9012  0.9491  0.6886
 2510SOL    HW3 9813   5.246   0.106   3.241 -1.6928  0.8236  0.2526
 2510SOL    MW4 9814   5.222   0.033   3.200  0.2901  0.2475 -0.0176
 2511SOL     OW 9815   3.140   1.190   3.224  0.4193  0.2932 -0.2796
 2511SOL    HW2 9816   3.184   1.248   3.161  0.3163  0.5447 -0.1221
 2511SOL    HW3 9817   3.138   1.240   3.305  1.9960 -0.6460  0.3874
 2511SOL    MW4 9818   3.146   1.204   3.226  0.6137  0.2024 -0.1708
 2512SOL     OW 9819   1.041   0.130   2.287 -0.3265 -0.1827 -0.0186
 2512SOL    HW2 9820   1.072   0.215   2.254 -0.4106  0.2975  1.1039
 2512SOL    HW3 9821   0.946   0.131   2.270 -0.2426 -0.2967 -0.5145
 2512SOL    MW4 9822   1.032   0.142   2.280 -0.3265 -0.1344  0.0641
 2513SOL     OW 9823   4.883   1.583   5.158  0.2803  0.3520  0.1560
 2513SOL    HW2 9824   4.920   1.613   5.075 -0.4252  2.1642  0.4418
 2513SOL    HW3 9825   4.794   1.555   5.136  0.1076  0.7930  0.2744
 2513SOL    MW4 9826   4.876   1.584   5.144  0.1644  0.6492  0.2093
 2514SOL     OW 9827   4.108   0.963   6.241  0.3640  0.1231 -0.6137
 2514SOL    HW2 9828   4.084   0.877   6.276  1.0288  0.1025 -0.1889
 2514SOL    HW3 9829   4.200   0.974   6.265 -0.0440  1.5042  0.4815
 2514SOL    MW4 9830   4.117   0.953   6.249  0.3978  0.3026 -0.4132
 2515SOL     OW 9831   4.971   4.040   1.810 -0.5376  0.1574 -0.4764
 2515SOL    HW2 9832   4.931   4.119   1.774 -0.9032 -0.2391 -0.9507
 2515SOL    HW3 9833   4.897   3.986   1.838 -0.2712  1.0528  2.2740
 2515SOL    MW4 9834   4.956   4.044   1.809 -0.5507  0.2232 -0.1761
 2516SOL     OW 9835   3.098   0.431   1.322 -0.0001  0.4087  0.1126
 2516SOL    HW2 9836   3.102   0.336   1.332 -0.3221  0.2777 -0.9492
 2516SOL    HW3 9837   3.053   0.461   1.401  1.4245 -0.1642  1.2080
 2516SOL    MW4 9838   3.093   0.422   1.334  0.1454  0.3158  0.1171
 2517SOL     OW 9839   2.305   0.779   3.336 -0.3762 -0.1956  0.4708
 2517SOL    HW2 9840   2.308   0.841   3.263  0.6381 -0.2153  0.4839
 2517SOL    HW3 9841   2.392   0.783   3.375 -0.6440 -0.8142  1.1574
 2517SOL    MW4 9842   2.317   0.787   3.331 -0.2777 -0.2798  0.5631
 2518SOL     OW 9843   2.379   1.720   6.193 -0.1361 -0.4113  0.3006
 2518SOL    HW2 9844   2.340   1.682   6.272  0.4873 -1.7147  0.0191
 2518SOL    HW3 9845   2.367   1.653   6.126  0.0939  0.3277 -0.4994
 2518SOL    MW4 9846   2.372   1.706   6.194 -0.0235 -0.4857  0.1579
 2519SOL     OW 9847   0.976   1.658   1.969 -0.1912 -0.4399  0.1381
 2519SOL    HW2 9848   0.952   1.576   1.926  0.6585 -0.2947 -0.6345
 2519SOL    HW3 9849   0.907   1.719   1.943 -0.0125 -0.5164 -0.5319
 2519SOL    MW4 9850   0.963   1.655   1.960 -0.0555 -0.4308 -0.0522
 2520SOL     OW 9851   1.086   4.952   2.374  0.0995  0.2951  0.0143
 2520SOL    HW2 9852   1.082   5.048   2.370  0.4641  0.4106  1.7056
 2520SOL    HW3 9853   1.079   4.932   2.467 -0.1539 -1.3510 -0.3338
 2520SOL    MW4 9854   1.084   4.962   2.386  0.1141  0.0931  0.1915
 2521SOL     OW 9855   0.591   3.696   3.423 -0.3474 -0.3976  0.1526
 2521SOL    HW2 9856   0.525   3.693   3.493 -0.3807 -1.7093  0.0940
 2521SOL    HW3 9857   0.609   3.789   3.411 -0.8601 -0.1068  1.4263
 2521SOL    MW4 9858   0.585   3.708   3.431 -0.4195 -0.5323  0.3129
 2522SOL     OW 9859   5.822   2.981   4.967 -0.1591 -0.6726 -0.2204
 2522SOL    HW2 9860   5.768   3.041   5.019  0.9364 -0.4475  0.7116
 2522SOL    HW3 9861   5.906   2.979   5.013  0.8535 -0.5140 -1.9705
 2522SOL    MW4 9862   5.826   2.989   4.980  0.1190 -0.6219 -0.3283
 2523SOL     OW 9863   4.925   0.816   5.892  0.6633  0.2334  0.8179
 2523SOL    HW2 9864   4.973   0.809   5.975  0.3945  0.8478  1.0275
 2523SOL    HW3 9865   4.852   0.875   5.911  1.4751  1.6454 -0.2490
 2523SOL    MW4 9866   4.922   0.823   5.906  0.7350  0.5008  0.7048
 2524SOL     OW 9867   4.192   4.346   2.943 -0.0952 -0.0688  0.1005
 2524SOL    HW2 9868   4.245   4.368   3.020  1.1381  0.6218 -0.9066
 2524SOL    HW3 9869   4.111   4.395   2.956 -0.2191 -0.5499  1.3097
 2524SOL    MW4 9870   4.189   4.355   2.955  0.0512 -0.0412  0.1272
 2525SOL     OW 9871   1.190   0.645   1.085 -0.0382  0.1304 -0.1100
 2525SOL    HW2 9872   1.110   0.622   1.037 -0.8719 -0.4766  1.5166
 2525SOL    HW3 9873   1.162   0.711   1.147  0.9751  0.6967 -0.2447
 2525SOL    MW4 9874   1.176   0.650   1.087 -0.0145  0.1250  0.0869
 2526SOL     OW 9875   5.364   2.152   4.101 -0.0394 -0.2022 -0.4478
 2526SOL    HW2 9876   5.354   2.245   4.078  0.8550 -0.0684 -0.3433
 2526SOL    HW3 9877   5.285   2.111   4.067 -0.4919  0.6136 -0.4195
 2526SOL    MW4 9878   5.352   2.159   4.093  0.0189 -0.0769 -0.4302
 2527SOL     OW 9879   6.296   6.093   2.575 -0.3083  0.7776  0.0867
 2527SOL    HW2 9880   6.311   6.001   2.599 -0.8217  0.7367  0.2495
 2527SOL    HW3 9881   6.206   6.110   2.601 -0.6094  0.9715 -1.0741
 2527SOL    MW4 9882   6.286   6.083   2.582 -0.4158  0.7978 -0.0450
 2528SOL     OW 9883   6.229   3.658   0.891 -0.3652 -0.2688  0.1266
 2528SOL    HW2 9884   6.308   3.605   0.902  0.2081  0.3459 -0.8675
 2528SOL    HW3 9885   6.158   3.595   0.881  0.1387 -0.8393  0.1112
 2528SOL    MW4 9886   6.230   3.643   0.891 -0.2230 -0.2629 -0.0066
 2529SOL     OW 9887   1.651   2.416   4.766 -0.0024  0.7813  0.4200
 2529SOL    HW2 9888   1.652   2.322   4.746  1.6561  0.6012  1.1922
 2529SOL    HW3 9889   1.685   2.458   4.687 -0.2998  0.6920  0.2445
 2529SOL    MW4 9890   1.656   2.409   4.753  0.1772  0.7457  0.4987
 2530SOL     OW 9891   2.644   4.541   4.525  0.0948  0.8529  0.3724
 2530SOL    HW2 9892   2.548   4.535   4.525  0.1240  0.2833  0.6401
 2530SOL    HW3 9893   2.664   4.600   4.452 -0.4226  0.1437 -0.3651
 2530SOL    MW4 9894   2.634   4.548   4.515  0.0304  0.6842  0.3104
 2531SOL     OW 9895   4.093   4.803   5.666 -0.3296 -0.0173 -0.2548
 2531SOL    HW2 9896   4.184   4.783   5.686  0.5317  1.8850 -1.9223
 2531SOL    HW3 9897   4.054   4.823   5.751  0.7353 -1.0809  0.5103
 2531SOL    MW4 9898   4.100   4.803   5.680 -0.0755  0.0934 -0.3738
 2532SOL     OW 9899   0.830   3.780   0.236  0.0369  0.3378 -0.0980
 2532SOL    HW2 9900   0.809   3.872   0.223  0.3215  0.6078  1.2652
 2532SOL    HW3 9901   0.921   3.779   0.266 -0.4874 -0.2267  1.5812
 2532SOL    MW4 9902   0.839   3.792   0.238  0.0053  0.2990  0.3034
 2533SOL     OW 9903   1.726   5.945   3.286  0.4951 -0.2306  0.2513
 2533SOL    HW2 9904   1.689   5.977   3.204 -1.5161 -0.3948  1.0429
 2533SOL    HW3 9905   1.803   5.894   3.259 -0.3068 -0.5567 -1.5664
 2533SOL    MW4 9906   1.731   5.942   3.271  0.1239 -0.2953  0.1159
 2534SOL     OW 9907   4.234   2.026   5.603 -0.2472 -0.1427  0.2187
 2534SOL    HW2 9908   4.235   2.101   5.544 -1.4951  0.8865  1.4585
 2534SOL    HW3 9909   4.296   2.048   5.672 -0.6476 -0.2412  0.6114
 2534SOL    MW4 9910   4.242   2.039   5.604 -0.4647 -0.0199  0.4341
 2535SOL     OW 9911   2.640   0.843   4.863  0.0530 -0.0521  0.7040
 2535SOL    HW2 9912   2.607   0.773   4.807 -0.4530  2.6272 -2.7252
 2535SOL    HW3 9913   2.561   0.888   4.894  0.3111  1.5243 -0.7793
 2535SOL    MW4 9914   2.625   0.840   4.860  0.0203  0.5094  0.0558
 2536SOL     OW 9915   3.212   3.307   1.018  0.0475 -0.9595  0.0851
 2536SOL    HW2 9916   3.217   3.243   1.088 -0.1013  0.2913  1.2819
 2536SOL    HW3 9917   3.138   3.278   0.964 -0.2224 -1.6127  0.7880
 2536SOL    MW4 9918   3.203   3.295   1.020 -0.0077 -0.8807  0.3357
 2537SOL     OW 9919   1.571   2.291   0.211  0.0283  0.0242  0.1612
 2537SOL    HW2 9920   1.547   2.273   0.120 -0.4284 -0.3118  0.3415
 2537SOL    HW3 9921   1.533   2.378   0.229  0.0135  0.0365  0.0699
 2537SOL    MW4 9922   1.562   2.300   0.202 -0.0339 -0.0185  0.1729
 2538SOL     OW 9923   1.455   2.377   1.959 -0.3018  0.0898 -0.9440
 2538SOL    HW2 9924   1.435   2.424   2.040 -1.5814  0.2158 -1.3029
 2538SOL    HW3 9925   1.550   2.374   1.955 -0.2207  0.7719  0.1656
 2538SOL    MW4 9926   1.465   2.383   1.969 -0.4599  0.1964 -0.8450
 2539SOL     OW 9927   5.058   0.940   4.636  0.4282 -0.6692 -0.1906
 2539SOL    HW2 9928   4.972   0.978   4.655  1.2649  0.8940  0.6504
 2539SOL    HW3 9929   5.085   0.985   4.555  1.3385  0.4498  0.7036
 2539SOL    MW4 9930   5.050   0.951   4.628  0.6587 -0.3154  0.0383
 2540SOL     OW 9931   5.170   5.489   4.092  0.9488 -0.4824 -0.0679
 2540SOL    HW2 9932   5.179   5.541   4.012 -0.5884 -0.6245 -0.3646
 2540SOL    HW3 9933   5.162   5.555   4.162  0.2018 -0.3224 -0.2966
 2540SOL    MW4 9934   5.170   5.505   4.091  0.6474 -0.4800 -0.1372
 2541SOL     OW 9935   5.703   3.673   1.821 -0.1760 -0.4839  0.5497
 2541SOL    HW2 9936   5.643   3.647   1.890  0.9184  0.2039  1.8001
 2541SOL    HW3 9937   5.784   3.695   1.866  0.6964 -0.3736 -0.9927
 2541SOL    MW4 9938   5.706   3.673   1.836  0.0835 -0.3786  0.5112
 2542SOL     OW 9939   4.264   4.500   0.641  0.0074  0.7562 -0.0361
 2542SOL    HW2 9940   4.225   4.527   0.558  0.2566  0.7823 -0.1467
 2542SOL    HW3 9941   4.193   4.507   0.704 -0.4563 -0.2052 -0.4207
 2542SOL    MW4 9942   4.250   4.504   0.638 -0.0209  0.6328 -0.1014
 2543SOL     OW 9943   6.310   5.446   0.019  0.2070 -0.2270 -0.0290
 2543SOL    HW2 9944   6.394   5.407   0.041  1.1254  2.0406  0.8442
 2543SOL    HW3 9945   6.246   5.376   0.032  1.8650 -1.8278 -0.1066
 2543SOL    MW4 9946   6.313   5.432   0.024  0.5469 -0.1390  0.0760
 2544SOL     OW 9947   2.476   0.816   6.136 -0.1196  0.0670  0.0397
 2544SOL    HW2 9948   2.496   0.727   6.164 -1.9612 -0.0228  1.2146
 2544SOL    HW3 9949   2.482   0.812   6.040  0.6517 -1.0796  0.1121
 2544SOL    MW4 9950   2.480   0.804   6.127 -0.2608 -0.0961  0.2043
 2545SOL     OW 9951   3.351   4.571   4.985  0.4657  0.3243  0.1926
 2545SOL    HW2 9952   3.268   4.599   4.949  0.2248 -1.9565 -1.2190
 2545SOL    HW3 9953   3.417   4.613   4.930  0.1481 -0.7811 -1.0682
 2545SOL    MW4 9954   3.349   4.580   4.973  0.3920 -0.1224 -0.1600
 2546SOL     OW 9955   4.460   1.820   2.618 -0.5797 -0.1792 -0.0375
 2546SOL    HW2 9956   4.519   1.853   2.686 -2.6497 -0.5407  2.0490
 2546SOL    HW3 9957   4.496   1.735   2.593 -0.7242 -0.8703  1.9549
 2546SOL    MW4 9958   4.473   1.813   2.624 -0.8719 -0.3181  0.5007
 2547SOL     OW 9959   3.813   2.935   4.660 -0.5052 -0.3668  0.4520
 2547SOL    HW2 9960   3.874   2.995   4.703  0.9309 -0.6333 -1.1371
 2547SOL    HW3 9961   3.869   2.869   4.618 -1.8233 -0.1414 -1.7754
 2547SOL    MW4 9962   3.828   2.934   4.660 -0.4896 -0.3723 -0.0515
 2548SOL     OW 9963   6.285   4.910   1.842 -0.1322  0.1784  0.3840
 2548SOL    HW2 9964   6.291   4.848   1.915  0.6801 -0.1318  0.0643
 2548SOL    HW3 9965   6.284   4.854   1.764  0.1761  0.5523  0.1094
 2548SOL    MW4 9966   6.285   4.894   1.842  0.0156  0.1868  0.3056
 2549SOL     OW 9967   5.100   0.110   4.673  0.3873 -0.7433  0.6236
 2549SOL    HW2 9968   5.183   0.149   4.700 -0.2934  0.7010  0.7420
 2549SOL    HW3 9969   5.104   0.020   4.704  2.3862 -1.0704 -0.4186
 2549SOL    MW4 9970   5.111   0.103   4.680  0.5612 -0.5959  0.5017
 2550SOL     OW 9971   1.856   3.981   5.229  0.4004  0.5941 -0.6159
 2550SOL    HW2 9972   1.797   4.045   5.190  0.2978  0.0226 -1.4206
 2550SOL    HW3 9973   1.836   3.983   5.323 -1.3852 -0.0663 -0.9425
 2550SOL    MW4 9974   1.846   3.990   5.236  0.1513  0.4315 -0.7652
 2551SOL     OW 9975   3.825   4.188   5.807  0.4617 -0.1885 -0.8086
 2551SOL    HW2 9976   3.886   4.124   5.770 -1.2022 -1.3753 -1.6321
 2551SOL    HW3 9977   3.823   4.169   5.900  1.3970 -0.0544 -0.7478
 2551SOL    MW4 9978   3.833   4.177   5.814  0.3656 -0.3274 -0.9092
 2552SOL     OW 9979   4.448   0.793   2.764 -0.0856  0.1370  0.7114
 2552SOL    HW2 9980   4.461   0.816   2.672  0.1696 -0.3932  0.6095
 2552SOL    HW3 9981   4.373   0.734   2.764  0.9768 -1.2895  0.6052
 2552SOL    MW4 9982   4.440   0.788   2.752  0.0883 -0.1211  0.6840
 2553SOL     OW 9983   0.408   4.353   1.086 -0.4006 -0.1396 -0.1752
 2553SOL    HW2 9984   0.425   4.273   1.136  1.7990  0.2101 -0.2681
 2553SOL    HW3 9985   0.472   4.416   1.119 -2.1487  1.6535 -0.0301
 2553SOL    MW4 9986   0.418   4.350   1.097 -0.3410  0.1431 -0.1683
 2554SOL     OW 9987   2.166   4.864   5.335 -0.3709  0.7582 -0.2658
 2554SOL    HW2 9988   2.202   4.776   5.345 -0.1093  1.0624  2.2638
 2554SOL    HW3 9989   2.241   4.922   5.347 -0.8181  1.3319 -0.2062
 2554SOL    MW4 9990   2.181   4.860   5.338 -0.3954  0.8740  0.0758
 2555SOL     OW 9991   5.125   1.920   4.736 -0.3669 -0.1563 -0.1758
 2555SOL    HW2 9992   5.218   1.919   4.759 -0.4845 -1.5205  0.3421
 2555SOL    HW3 9993   5.105   1.829   4.715 -1.6098  0.1072 -0.1765
 2555SOL    MW4 9994   5.135   1.908   4.736 -0.5464 -0.3015 -0.1075
 2556SOL     OW 9995   5.167   3.756   6.041  0.1930  0.3446 -0.6901
 2556SOL    HW2 9996   5.228   3.830   6.036  1.1186 -0.2414  0.9887
 2556SOL    HW3 9997   5.214   3.691   6.094 -0.9541 -1.0976 -1.3795
 2556SOL    MW4 9998   5.181   3.757   6.047  0.1638  0.0770 -0.5596
 2557SOL     OW 9999   1.686   6.049   2.622  0.0630  0.1581 -0.4617
 2557SOL    HW210000   1.727   5.971   2.660  0.8011 -0.0102 -1.5573
 2557SOL    HW310001   1.756   6.091   2.573  0.4082  2.9499  2.1362
 2557SOL    MW410002   1.700   6.044   2.621  0.2060  0.5042 -0.2635
 2558SOL     OW10003   1.535   4.954   5.004 -0.6633  0.3057 -0.2118
 2558SOL    HW210004   1.559   5.040   5.037 -0.8796 -0.1290  1.1490
 2558SOL    HW310005   1.480   4.916   5.073 -2.4622 -0.0519 -1.7363
 2558SOL    MW410006   1.531   4.960   5.018 -0.9292  0.2011 -0.2334
 2559SOL     OW10007   4.468   3.320   5.670 -0.3781  0.4643  1.0936
 2559SOL    HW210008   4.471   3.226   5.687 -0.0678  0.5846  1.7513
 2559SOL    HW310009   4.535   3.357   5.728  2.8421  0.6609 -2.4165
 2559SOL    MW410010   4.477   3.313   5.680  0.0877  0.5061  0.7173
 2560SOL     OW10011   0.274   2.798   6.246  0.2805 -0.3529  0.1288
 2560SOL    HW210012   0.358   2.844   6.249  0.4241 -0.6120  0.1243
 2560SOL    HW310013   0.284   2.735   6.175  0.7796 -1.7174  1.3479
 2560SOL    MW410014   0.287   2.796   6.237  0.3653 -0.5671  0.2891
 2561SOL     OW10015   4.401   2.690   0.790 -0.4850 -0.3050  0.2813
 2561SOL    HW210016   4.314   2.731   0.791 -0.3621 -0.0427  1.0069
 2561SOL    HW310017   4.385   2.601   0.758 -0.8965  0.0007 -0.3842
 2561SOL    MW410018   4.387   2.683   0.786 -0.5231 -0.2301  0.2892
 2562SOL     OW10019   4.248   4.878   4.692 -0.4289 -0.4460  0.0649
 2562SOL    HW210020   4.169   4.877   4.639 -0.0720  0.4896 -0.5081
 2562SOL    HW310021   4.292   4.959   4.668 -1.1807  1.0379  3.1359
 2562SOL    MW410022   4.243   4.889   4.682 -0.4810 -0.1268  0.3945
 2563SOL     OW10023   3.703   2.850   1.515 -0.3805 -0.4453 -0.0094
 2563SOL    HW210024   3.746   2.791   1.577  0.2912 -0.9717 -0.9433
 2563SOL    HW310025   3.751   2.933   1.524  2.3656 -1.5615 -2.4678
 2563SOL    MW410026   3.715   2.853   1.525  0.0704 -0.6620 -0.4570
 2564SOL     OW10027   0.584   5.846   3.148 -0.3266 -0.2321 -0.2664
 2564SOL    HW210028   0.665   5.869   3.103 -1.7015  0.1225 -2.7241
 2564SOL    HW310029   0.556   5.927   3.191  0.4030 -0.2555  0.2587
 2564SOL    MW410030   0.591   5.860   3.148 -0.4118 -0.1884 -0.5214
 2565SOL     OW10031   2.721   1.066   5.954 -0.2339 -0.4431 -0.5190
 2565SOL    HW210032   2.650   1.123   5.984 -0.9238 -0.6508 -1.6771
 2565SOL    HW310033   2.770   1.044   6.033 -0.3106  1.2524  0.0508
 2565SOL    MW410034   2.718   1.071   5.968 -0.3350 -0.2468 -0.5966
 2566SOL     OW10035   6.130   0.478   3.737  0.1412 -0.1523 -0.0290
 2566SOL    HW210036   6.126   0.402   3.795  0.4190 -0.9889 -1.0579
 2566SOL    HW310037   6.050   0.472   3.684 -0.1065  0.5907  0.2506
 2566SOL    MW410038   6.119   0.467   3.738  0.1451 -0.1647 -0.1278
 2567SOL     OW10039   4.434   6.021   5.091 -1.0220  0.3437 -0.1861
 2567SOL    HW210040   4.364   5.988   5.036 -0.2734 -3.1577  0.6989
 2567SOL    HW310041   4.513   5.978   5.058 -0.1012  0.4238  1.7726
 2567SOL    MW410042   4.436   6.011   5.080 -0.8017 -0.1077  0.1891
 2568SOL     OW10043   1.808   5.095   2.547 -0.2923 -0.3725 -0.2390
 2568SOL    HW210044   1.816   5.189   2.565 -2.8637 -0.1873  0.2749
 2568SOL    HW310045   1.873   5.054   2.603 -1.0721  0.9388  1.7232
 2568SOL    MW410046   1.818   5.102   2.556 -0.7345 -0.1751  0.0877
 2569SOL     OW10047   1.264   2.099   4.699  0.6747 -0.6875  0.7320
 2569SOL    HW210048   1.320   2.117   4.624  2.2172  2.6979  2.4512
 2569SOL    HW310049   1.321   2.058   4.764  0.0366 -1.1642  1.0113
 2569SOL    MW410050   1.279   2.096   4.698  0.7940 -0.3037  0.9957
 2570SOL     OW10051   3.205   5.058   3.338 -0.3981  0.6802 -0.3449
 2570SOL    HW210052   3.288   5.014   3.355 -0.4564 -0.3571 -2.4704
 2570SOL    HW310053   3.158   4.999   3.279 -2.1076  1.8499 -0.2261
 2570SOL    MW410054   3.209   5.044   3.333 -0.6313  0.6976 -0.6097
 2571SOL     OW10055   2.957   0.130   1.881 -0.1284  0.4169 -0.1011
 2571SOL    HW210056   2.976   0.217   1.916  0.0574  0.5952 -0.6437
 2571SOL    HW310057   3.020   0.073   1.925 -0.4093  0.5104  0.4381
 2571SOL    MW410058   2.968   0.134   1.891 -0.1409  0.4527 -0.1016
 2572SOL     OW10059   3.327   6.403   4.538  0.0558  0.1062  0.0361
 2572SOL    HW210060   3.278   6.357   4.607 -1.7217  0.4169 -0.9608
 2572SOL    HW310061   3.301   6.360   4.457  0.3676  1.1940 -0.6592
 2572SOL    MW410062   3.317   6.392   4.537 -0.1375  0.2907 -0.1872
 2573SOL     OW10063   1.680   4.941   0.253 -0.0263 -0.3240  0.0836
 2573SOL    HW210064   1.720   4.998   0.187 -0.5401  0.7029  0.6425
 2573SOL    HW310065   1.610   4.993   0.290  0.6259 -0.6549  1.8585
 2573SOL    MW410066   1.676   4.955   0.249 -0.0080 -0.2322  0.3915
 2574SOL     OW10067   4.986   1.263   2.682  0.4680  0.1855  0.4864
 2574SOL    HW210068   5.051   1.225   2.624 -0.5031  0.3072 -0.7465
 2574SOL    HW310069   5.032   1.332   2.729  0.8821  1.4002 -1.5845
 2574SOL    MW410070   5.000   1.267   2.680  0.3945  0.3618  0.0505
 2575SOL     OW10071   4.264   6.412   1.449  0.4183  0.3145  0.5661
 2575SOL    HW210072   4.193   6.393   1.389  0.5575  2.0079 -0.1988
 2575SOL    HW310073   4.224   6.406   1.536 -0.3256  0.0000  0.2104
 2575SOL    MW410074   4.250   6.409   1.453  0.3385  0.4964  0.4183
 2576SOL     OW10075   3.415   0.892   2.229 -0.0297  0.0550  0.7908
 2576SOL    HW210076   3.506   0.868   2.251  0.4765  0.3975 -0.8101
 2576SOL    HW310077   3.423   0.977   2.186 -0.8498 -0.8960 -1.3711
 2576SOL    MW410078   3.428   0.900   2.226 -0.0711 -0.0253  0.2944
 2577SOL     OW10079   4.037   4.203   1.772 -0.0653  0.7248 -0.2479
 2577SOL    HW210080   3.946   4.188   1.748  0.3715 -1.9523 -0.4894
 2577SOL    HW310081   4.088   4.162   1.702  1.3039  0.5965  0.7756
 2577SOL    MW410082   4.032   4.196   1.760  0.1730  0.3547 -0.1448
 2578SOL     OW10083   0.266   0.174   2.608  0.5732  0.2850 -0.5528
 2578SOL    HW210084   0.302   0.086   2.616  0.3808  0.2973  0.6835
 2578SOL    HW310085   0.233   0.194   2.696 -0.4694  1.1178 -1.1051
 2578SOL    MW410086   0.266   0.165   2.621  0.4102  0.3965 -0.4625
 2579SOL     OW10087   0.797   3.554   4.272 -0.0636 -0.1973  0.1877
 2579SOL    HW210088   0.728   3.610   4.306 -1.2254  0.4445 -2.8964
 2579SOL    HW310089   0.809   3.487   4.339 -1.1969  1.6482  2.3611
 2579SOL    MW410090   0.790   3.552   4.285 -0.3664  0.1309  0.0675
 2580SOL     OW10091   1.804   2.120   0.227 -0.3573 -0.1927 -0.2778
 2580SOL    HW210092   1.728   2.177   0.233  1.2737  2.2014 -0.7817
 2580SOL    HW310093   1.778   2.049   0.168 -2.6046 -0.2622  0.7241
 2580SOL    MW410094   1.791   2.118   0.220 -0.4386  0.1140 -0.2121
 2581SOL     OW10095   4.189   4.455   1.763  0.1123 -0.6168 -0.0745
 2581SOL    HW210096   4.115   4.397   1.743 -0.8618  1.4883 -3.3359
 2581SOL    HW310097   4.152   4.522   1.820 -0.0253 -0.5889 -0.1951
 2581SOL    MW410098   4.174   4.456   1.768 -0.0344 -0.3354 -0.5207
 2582SOL     OW10099   4.062   1.228   5.129  0.2135  0.4498  0.6003
 2582SOL    HW210100   4.124   1.166   5.168  1.1503  0.2681 -1.0794
 2582SOL    HW310101   4.098   1.247   5.043 -1.0285  1.9353  0.3641
 2582SOL    MW410102   4.075   1.222   5.123  0.1732  0.6219  0.3475
 2583SOL     OW10103   1.597   0.830   0.173  0.0443 -0.0606  0.2702
 2583SOL    HW210104   1.587   0.853   0.080 -0.1211 -1.4404 -0.0735
 2583SOL    HW310105   1.511   0.849   0.211 -0.1159 -0.1895 -0.0219
 2583SOL    MW410106   1.584   0.835   0.166  0.0014 -0.2597  0.1863
 2584SOL     OW10107   2.408   1.860   2.543 -0.2143 -0.0832 -0.9313
 2584SOL    HW210108   2.489   1.811   2.529 -1.6971 -2.1352 -2.9411
 2584SOL    HW310109   2.360   1.810   2.609  0.7044  1.9785  1.4586
 2584SOL    MW410110   2.413   1.847   2.550 -0.2887 -0.0819 -0.8811
 2585SOL     OW10111   0.836   2.340   3.471 -0.3725  0.0480  0.6608
 2585SOL    HW210112   0.906   2.364   3.531 -0.8246  0.4002  1.0572
 2585SOL    HW310113   0.757   2.379   3.509 -0.4737  1.4062 -0.8526
 2585SOL    MW410114   0.835   2.348   3.484 -0.4455  0.2736  0.5134
 2586SOL     OW10115   3.585   4.074   3.944 -0.0142  0.5231 -0.1425
 2586SOL    HW210116   3.580   4.050   4.037  1.1378 -0.9524 -0.4393
 2586SOL    HW310117   3.521   4.018   3.901 -0.3286  0.9935 -0.3019
 2586SOL    MW410118   3.576   4.064   3.951  0.0963  0.3905 -0.2027
 2587SOL     OW10119   1.961   1.637   5.331  0.3385  0.2702 -0.4369
 2587SOL    HW210120   1.947   1.709   5.270 -1.4119  0.8606  0.5550
 2587SOL    HW310121   1.950   1.677   5.418 -3.4780 -1.5351  0.1411
 2587SOL    MW410122   1.958   1.652   5.335 -0.3960  0.1099 -0.2298
 2588SOL     OW10123   2.260   1.743   2.333  0.1176 -0.4305 -0.1970
 2588SOL    HW210124   2.331   1.715   2.276  0.1283 -0.1209 -0.3359
 2588SOL    HW310125   2.304   1.792   2.403 -0.0786  1.3103 -1.2091
 2588SOL    MW410126   2.275   1.746   2.335  0.0931 -0.1599 -0.3489
 2589SOL     OW10127   0.998   1.416   5.784  0.0264 -0.0825  0.0213
 2589SOL    HW210128   1.042   1.438   5.702  0.9090 -0.6318  0.3297
 2589SOL    HW310129   0.907   1.401   5.759  0.1555  0.3802 -0.7534
 2589SOL    MW410130   0.992   1.417   5.770  0.1599 -0.0939 -0.0402
 2590SOL     OW10131   3.067   0.833   2.028  0.1521 -0.1767 -0.0108
 2590SOL    HW210132   3.013   0.853   2.104  2.0450  1.4196  1.0200
 2590SOL    HW310133   3.137   0.776   2.062  1.0374  0.5714 -0.5166
 2590SOL    MW410134   3.069   0.828   2.042  0.5186  0.1326  0.0585
 2591SOL     OW10135   3.322   0.778   4.182 -0.2163 -0.3084  0.3944
 2591SOL    HW210136   3.378   0.840   4.229 -1.3699  1.9227 -1.0178
 2591SOL    HW310137   3.339   0.796   4.090 -1.6518 -1.0913 -0.0495
 2591SOL    MW410138   3.332   0.789   4.176 -0.5579 -0.1173  0.1495
 2592SOL     OW10139   2.443   4.192   4.553 -0.4110 -0.2303  0.0186
 2592SOL    HW210140   2.389   4.253   4.503  0.1433 -0.1517 -0.4881
 2592SOL    HW310141   2.379   4.132   4.593 -1.0547  1.4311  1.5914
 2592SOL    MW410142   2.427   4.192   4.551 -0.4228 -0.0007  0.1593
 2593SOL     OW10143   4.219   1.597   4.827 -0.1182 -0.2546 -0.0683
 2593SOL    HW210144   4.282   1.663   4.798 -0.2055 -0.6610 -1.2388
 2593SOL    HW310145   4.228   1.526   4.763 -1.2230 -0.6428  0.1902
 2593SOL    MW410146   4.229   1.596   4.814 -0.2755 -0.3594 -0.1886
 2594SOL     OW10147   5.833   3.510   0.688 -0.0243 -0.1529  0.1323
 2594SOL    HW210148   5.785   3.528   0.769 -2.6534 -1.7016 -0.9629
 2594SOL    HW310149   5.766   3.491   0.624  2.0577 -2.3674 -1.5891
 2594SOL    MW410150   5.818   3.510   0.690 -0.0965 -0.6494 -0.2393
 2595SOL     OW10151   1.692   2.343   3.107  0.1839 -0.0096  0.1979
 2595SOL    HW210152   1.617   2.307   3.154  0.1248 -1.5497 -0.9988
 2595SOL    HW310153   1.768   2.317   3.159  0.0421 -0.5673  0.1250
 2595SOL    MW410154   1.692   2.335   3.120  0.1574 -0.2864  0.0304
 2596SOL     OW10155   3.056   0.673   3.836 -0.6365  0.0192 -0.0840
 2596SOL    HW210156   3.035   0.761   3.867  0.5901  0.2510  0.1428
 2596SOL    HW310157   3.094   0.629   3.911 -0.9073 -0.5947 -0.2979
 2596SOL    MW410158   3.058   0.679   3.850 -0.5104 -0.0312 -0.0823
 2597SOL     OW10159   5.567   3.449   5.285  0.1856  0.5054  0.0050
 2597SOL    HW210160   5.636   3.391   5.251 -1.6523 -1.2040 -0.9996
 2597SOL    HW310161   5.609   3.496   5.358  2.4080 -0.4077 -0.6100
 2597SOL    MW410162   5.582   3.448   5.290  0.2363  0.1594 -0.2087
 2598SOL     OW10163   1.926   0.507   5.610  0.5020 -0.0024  0.3114
 2598SOL    HW210164   1.894   0.519   5.521 -0.7762 -2.0490  0.4347
 2598SOL    HW310165   1.859   0.548   5.665 -0.6341 -1.9366  0.4467
 2598SOL    MW410166   1.913   0.514   5.606  0.1835 -0.5276  0.3455
 2599SOL     OW10167   4.302   4.691   0.992 -0.1646  0.5595  0.0540
 2599SOL    HW210168   4.279   4.775   0.953 -0.1137  0.7070  0.3394
 2599SOL    HW310169   4.387   4.706   1.033 -0.3229  0.4698  0.4192
 2599SOL    MW410170   4.311   4.704   0.993 -0.1788  0.5671  0.1399
 2600SOL     OW10171   4.370   2.570   1.478  0.1082 -0.4352  0.1629
 2600SOL    HW210172   4.453   2.599   1.440  0.6686 -2.2851 -0.1052
 2600SOL    HW310173   4.304   2.627   1.438  1.1841  0.8385  0.1229
 2600SOL    MW410174   4.372   2.581   1.468  0.3241 -0.5112  0.1222
 2601SOL     OW10175   0.401   5.670   1.929 -0.2687  0.7925 -0.2262
 2601SOL    HW210176   0.367   5.752   1.964  2.1305  0.8245  2.3612
 2601SOL    HW310177   0.341   5.648   1.858 -1.3120  4.4686 -0.6928
 2601SOL    MW410178   0.389   5.677   1.924 -0.0898  1.2818  0.0536
 2602SOL     OW10179   4.664   1.699   1.014  0.1045 -0.0838 -0.2307
 2602SOL    HW210180   4.744   1.666   0.975  0.9735  2.0779 -0.4158
 2602SOL    HW310181   4.594   1.655   0.966  1.1474 -1.5418 -0.4896
 2602SOL    MW410182   4.665   1.689   1.003  0.3568  0.0091 -0.2893
 2603SOL     OW10183   0.914   4.683   1.501 -0.0223  0.0943 -0.3710
 2603SOL    HW210184   0.984   4.627   1.534 -0.7734 -0.0377  1.0827
 2603SOL    HW310185   0.946   4.714   1.416  2.7926  1.8359  1.1826
 2603SOL    MW410186   0.928   4.679   1.494  0.2500  0.3066  0.0258
 2604SOL     OW10187   4.726   5.821   2.078 -0.5256  0.4333  0.4530
 2604SOL    HW210188   4.754   5.746   2.129 -0.9524  0.3782  0.6138
 2604SOL    HW310189   4.727   5.790   1.987 -0.7898  0.2038  0.5282
 2604SOL    MW410190   4.730   5.807   2.072 -0.6167  0.3957  0.4841
 2605SOL     OW10191   0.220   4.541   0.963 -0.6708 -0.2070 -0.1286
 2605SOL    HW210192   0.259   4.558   1.049 -4.4287  1.0042  1.5186
 2605SOL    HW310193   0.251   4.613   0.908 -0.5709  0.7121  1.0840
 2605SOL    MW410194   0.229   4.553   0.967 -1.1534  0.0740  0.2487
 2606SOL     OW10195   0.805   4.050   4.055  0.2421  0.1704 -0.2418
 2606SOL    HW210196   0.837   4.041   4.145 -0.3085 -0.9418 -0.1457
 2606SOL    HW310197   0.883   4.073   4.004  0.0797  4.2235  0.9458
 2606SOL    MW410198   0.820   4.052   4.060  0.1480  0.5584 -0.0724
 2607SOL     OW10199   2.003   3.510   1.497 -0.0325 -0.0081  0.3855
 2607SOL    HW210200   1.989   3.547   1.410  1.0207 -1.6593 -0.5406
 2607SOL    HW310201   2.045   3.581   1.546 -0.9623  1.0609 -0.3103
 2607SOL    MW410202   2.007   3.524   1.492 -0.0162 -0.0849  0.1715
 2608SOL     OW10203   5.585   2.292   6.057  0.1663 -0.7341 -0.0988
 2608SOL    HW210204   5.552   2.382   6.064  1.0914 -0.3324 -0.6757
 2608SOL    HW310205   5.518   2.245   6.008 -1.1546 -0.8174  1.7063
 2608SOL    MW410206   5.572   2.298   6.052  0.1141 -0.6921  0.0632
 2609SOL     OW10207   5.416   5.313   1.331  0.3594  0.0857 -0.1116
 2609SOL    HW210208   5.334   5.329   1.378  0.7366 -0.3997  0.7200
 2609SOL    HW310209   5.388   5.277   1.246 -0.3144  0.8360 -0.2117
 2609SOL    MW410210   5.401   5.310   1.326  0.3203  0.1206 -0.0151
 2610SOL     OW10211   6.021   2.077   2.191  0.7049 -0.2104 -0.3488
 2610SOL    HW210212   6.079   2.095   2.265 -0.6153 -0.0183  0.6756
 2610SOL    HW310213   6.032   2.152   2.132 -1.9958  2.3833  2.1158
 2610SOL    MW410214   6.030   2.089   2.193  0.1744  0.1572  0.1116
 2611SOL     OW10215   3.766   2.108   0.464  0.0890 -0.6712 -0.0082
 2611SOL    HW210216   3.700   2.084   0.529 -0.1543  0.2684  0.1170
 2611SOL    HW310217   3.850   2.096   0.508 -0.0881  0.5311  0.7086
 2611SOL    MW410218   3.768   2.104   0.478  0.0335 -0.3886  0.1029
 2612SOL     OW10219   1.375   4.881   3.223 -0.2742  0.5338  0.1522
 2612SOL    HW210220   1.280   4.867   3.226 -0.0429 -1.4296 -0.5530
 2612SOL    HW310221   1.407   4.845   3.306  0.0719 -0.9778 -0.6074
 2612SOL    MW410222   1.366   4.875   3.235 -0.1980  0.0753 -0.0411
 2613SOL     OW10223   1.498   0.769   5.496 -0.1088 -0.0101  0.4810
 2613SOL    HW210224   1.498   0.734   5.407  0.2863 -0.7221  0.7481
 2613SOL    HW310225   1.462   0.698   5.549  0.2429  0.1704  0.9683
 2613SOL    MW410226   1.493   0.755   5.491 -0.0103 -0.0802  0.5805
 2614SOL     OW10227   1.163   6.425   5.949 -0.0152 -0.4717  0.0722
 2614SOL    HW210228   1.197   6.443   6.037  2.5970  0.1343 -0.9855
 2614SOL    HW310229   1.203   6.492   5.894 -1.5668 -0.8615 -1.6338
 2614SOL    MW410230   1.173   6.436   5.953  0.1247 -0.4432 -0.2924
 2615SOL     OW10231   3.371   2.418   4.412 -0.1107 -0.5398  0.1066
 2615SOL    HW210232   3.423   2.368   4.476  1.6784  0.5033 -0.4789
 2615SOL    HW310233   3.416   2.404   4.329 -1.7870 -0.9839 -0.7644
 2615SOL    MW410234   3.384   2.409   4.409 -0.0959 -0.4608 -0.0856
 2616SOL     OW10235   3.014   5.645   2.364  0.3784  0.1042 -0.5939
 2616SOL    HW210236   2.983   5.566   2.408  0.9394 -0.5416 -1.3191
 2616SOL    HW310237   2.948   5.663   2.297  0.3754  0.1066 -0.5905
 2616SOL    MW410238   3.001   5.637   2.361  0.4520  0.0193 -0.6892
 2617SOL     OW10239   0.714   1.145   1.606 -0.2810 -0.3651 -0.3352
 2617SOL    HW210240   0.687   1.065   1.561 -3.5078 -1.1450  2.6172
 2617SOL    HW310241   0.649   1.210   1.580 -1.2692 -0.4161  1.8437
 2617SOL    MW410242   0.702   1.143   1.597 -0.8371 -0.4747  0.3418
 2618SOL     OW10243   1.983   4.673   4.871  0.5040 -0.3073 -0.6027
 2618SOL    HW210244   2.069   4.672   4.912  1.0467 -0.9507 -1.7159
 2618SOL    HW310245   1.997   4.719   4.788 -0.4403  0.4220 -0.3823
 2618SOL    MW410246   1.996   4.679   4.866  0.4510 -0.2960 -0.7205
 2619SOL     OW10247   6.131   1.691   1.383  0.5474  0.2452  0.1894
 2619SOL    HW210248   6.044   1.659   1.359  1.2617 -0.3964 -1.7553
 2619SOL    HW310249   6.150   1.760   1.319  1.5808  0.1802  0.4030
 2619SOL    MW410250   6.122   1.696   1.371  0.7780  0.1520 -0.0390
 2620SOL     OW10251   6.368   2.744   6.015  0.5700 -1.0283 -0.4720
 2620SOL    HW210252   6.429   2.695   6.070  0.8922  0.1685  0.2685
 2620SOL    HW310253   6.403   2.734   5.926 -1.1462 -4.7896 -0.9037
 2620SOL    MW410254   6.381   2.736   6.010  0.3861 -1.3666 -0.4313
 2621SOL     OW10255   1.159   2.470   3.378  0.3704 -0.0857  0.8402
 2621SOL    HW210256   1.195   2.559   3.384  0.1558  0.0139  0.6600
 2621SOL    HW310257   1.116   2.457   3.463 -0.7155  0.4758  0.3985
 2621SOL    MW410258   1.158   2.480   3.390  0.1988  0.0015  0.7581
 2622SOL     OW10259   5.011   5.519   0.561 -0.8940  0.5772  1.0450
 2622SOL    HW210260   4.970   5.436   0.538  0.3191  0.0201  0.8069
 2622SOL    HW310261   5.013   5.568   0.478 -0.2599  0.2234  0.8381
 2622SOL    MW410262   5.006   5.515   0.547 -0.6503  0.4570  0.9863
 2623SOL     OW10263   0.470   5.311   0.124 -0.5062 -0.0339  0.3727
 2623SOL    HW210264   0.412   5.293   0.050  0.6485  2.0304 -1.1432
 2623SOL    HW310265   0.485   5.405   0.120  2.7211 -0.4117  0.8052
 2623SOL    MW410266   0.465   5.321   0.114  0.0720  0.1886  0.2297
 2624SOL     OW10267   4.841   0.038   0.454 -0.1467  0.1055 -0.2289
 2624SOL    HW210268   4.819   0.022   0.546 -1.4591  0.8801 -0.3905
 2624SOL    HW310269   4.929   0.076   0.458 -0.5955  1.1172  0.8207
 2624SOL    MW410270   4.850   0.041   0.467 -0.3791  0.3412 -0.1118
 2625SOL     OW10271   4.346   3.694   0.258  0.2286  0.3545  0.2923
 2625SOL    HW210272   4.315   3.628   0.320 -1.0578  1.2892  0.6747
 2625SOL    HW310273   4.272   3.712   0.201 -0.3244  3.1682  1.6820
 2625SOL    MW410274   4.332   3.688   0.259 -0.0141  0.8490  0.5261
 2626SOL     OW10275   3.903   5.933   3.095  0.0419 -0.0507 -0.0272
 2626SOL    HW210276   3.934   5.933   3.185  1.6753  0.2733 -0.5514
 2626SOL    HW310277   3.811   5.960   3.101 -0.0282 -0.5660  1.5660
 2626SOL    MW410278   3.895   5.937   3.108  0.2482 -0.0759  0.1138
 2627SOL     OW10279   2.709   5.804   6.095  0.9578 -0.1483  0.9079
 2627SOL    HW210280   2.666   5.852   6.166 -1.0374 -0.3868 -0.0626
 2627SOL    HW310281   2.659   5.723   6.088  0.7512  0.1190 -1.1145
 2627SOL    MW410282   2.696   5.800   6.104  0.6673 -0.1445  0.5130
 2628SOL     OW10283   5.666   3.576   0.459 -0.3363 -0.0779  0.6020
 2628SOL    HW210284   5.649   3.492   0.418  0.2637 -0.0733  0.3400
 2628SOL    HW310285   5.757   3.595   0.439 -0.2129  0.2206  1.4083
 2628SOL    MW410286   5.675   3.568   0.451 -0.2408 -0.0380  0.6738
 2629SOL     OW10287   2.851   1.613   1.901  0.4108 -0.0458  0.0036
 2629SOL    HW210288   2.827   1.616   1.994 -1.3694 -0.2235 -0.4297
 2629SOL    HW310289   2.802   1.539   1.865  1.1723 -0.0551 -1.0747
 2629SOL    MW410290   2.841   1.604   1.909  0.2764 -0.0704 -0.1958
 2630SOL     OW10291   0.452   3.719   4.875 -0.4734 -0.0495  0.0227
 2630SOL    HW210292   0.363   3.747   4.852 -0.2051  0.3124 -0.5963
 2630SOL    HW310293   0.470   3.763   4.958 -1.3387 -1.1235  0.8132
 2630SOL    MW410294   0.443   3.729   4.883 -0.5521 -0.1435  0.0453
 2631SOL     OW10295   5.321   5.445   3.284 -0.5564 -0.4605 -0.0732
 2631SOL    HW210296   5.389   5.499   3.244 -0.4215 -0.9794 -0.5678
 2631SOL    HW310297   5.325   5.465   3.377 -1.6148  1.6342 -0.4144
 2631SOL    MW410298   5.330   5.455   3.291 -0.6782 -0.2526 -0.1835
 2632SOL     OW10299   0.568   6.134   1.799 -0.3691 -0.3374  0.3511
 2632SOL    HW210300   0.601   6.044   1.796  1.7293  0.3843 -0.4792
 2632SOL    HW310301   0.578   6.161   1.890  1.6514 -0.1153  0.1257
 2632SOL    MW410302   0.574   6.126   1.810  0.1744 -0.2129  0.2118
 2633SOL     OW10303   1.781   1.638   1.090 -0.0332 -0.0073 -0.0232
 2633SOL    HW210304   1.819   1.645   1.178  2.3469 -1.0442 -0.8806
 2633SOL    HW310305   1.704   1.582   1.101  0.4060 -0.3842  1.3500
 2633SOL    MW410306   1.776   1.632   1.103  0.3388 -0.1938  0.0449
 2634SOL     OW10307   1.533   2.608   2.092  0.2578  0.8478  0.0335
 2634SOL    HW210308   1.455   2.624   2.146 -1.1923  0.4649 -1.8275
 2634SOL    HW310309   1.513   2.650   2.009  0.9655 -1.3800 -1.3361
 2634SOL    MW410310   1.520   2.616   2.089  0.1599  0.5034 -0.3927
 2635SOL     OW10311   0.602   4.447   0.781 -0.1809  0.2179  0.2670
 2635SOL    HW210312   0.675   4.394   0.749 -0.6836 -0.6817  0.5814
 2635SOL    HW310313   0.533   4.384   0.800 -0.9898  1.0460  0.1289
 2635SOL    MW410314   0.603   4.432   0.780 -0.3540  0.2085  0.2903
 2636SOL     OW10315   0.410   1.457   3.860  0.3770 -0.7799 -0.3112
 2636SOL    HW210316   0.493   1.422   3.892  0.0384 -1.6919 -0.3913
 2636SOL    HW310317   0.349   1.443   3.932 -0.2003 -2.0997 -1.0296
 2636SOL    MW410318   0.413   1.451   3.873  0.2562 -1.0744 -0.4166
 2637SOL     OW10319   3.186   5.088   2.852 -0.5652  0.2469 -0.1685
 2637SOL    HW210320   3.184   4.992   2.852 -0.5696  0.1828 -2.4158
 2637SOL    HW310321   3.271   5.110   2.890  0.7257 -0.8189 -2.1937
 2637SOL    MW410322   3.197   5.078   2.857 -0.3954  0.0978 -0.7322
 2638SOL     OW10323   4.820   3.318   2.574  0.6136 -0.1697 -0.5321
 2638SOL    HW210324   4.756   3.300   2.505  1.1281 -1.5804 -0.6775
 2638SOL    HW310325   4.868   3.235   2.585  2.6425  0.9180 -0.6591
 2638SOL    MW410326   4.818   3.304   2.567  0.9492 -0.2123 -0.5680
 2639SOL     OW10327   5.783   2.032   4.175  0.3753 -0.2858 -0.4230
 2639SOL    HW210328   5.755   2.120   4.200  2.2259  0.3788 -0.5604
 2639SOL    HW310329   5.878   2.037   4.169  0.4769 -2.1132 -1.1782
 2639SOL    MW410330   5.792   2.044   4.177  0.6329 -0.4392 -0.5408
 2640SOL     OW10331   6.327   5.160   2.009 -0.1217 -0.1393 -0.3056
 2640SOL    HW210332   6.346   5.082   1.958 -1.7412 -1.0818  0.4540
 2640SOL    HW310333   6.324   5.231   1.944 -1.1720 -1.1429 -1.3903
 2640SOL    MW410334   6.329   5.159   1.993 -0.4740 -0.3960 -0.3485
 2641SOL     OW10335   0.319   4.547   6.393 -0.5079 -0.5530 -0.3793
 2641SOL    HW210336   0.288   4.623   6.443  0.6601 -0.4913  0.2757
 2641SOL    HW310337   0.261   4.475   6.421 -0.3269 -0.3558  0.5358
 2641SOL    MW410338   0.307   4.547   6.403 -0.3299 -0.5188 -0.1722
 2642SOL     OW10339   1.656   2.665   0.073 -0.3429  0.3546  0.0551
 2642SOL    HW210340   1.676   2.590   0.017 -2.1127 -0.4563  0.4181
 2642SOL    HW310341   1.741   2.699   0.101  0.5104 -0.7953 -1.0482
 2642SOL    MW410342   1.670   2.660   0.069 -0.4638  0.0959 -0.0426
 2643SOL     OW10343   4.502   2.642   2.929  0.1178  0.6979  0.2126
 2643SOL    HW210344   4.453   2.567   2.962 -2.1416  0.3976 -3.3128
 2643SOL    HW310345   4.441   2.716   2.938  1.2456  1.5742  0.9928
 2643SOL    MW410346   4.487   2.642   2.935 -0.0315  0.7739 -0.1496
 2644SOL     OW10347   1.334   0.918   0.311  0.4926  0.1792  0.6183
 2644SOL    HW210348   1.255   0.887   0.355  0.0805  0.3293 -0.0091
 2644SOL    HW310349   1.332   1.013   0.323  0.3212  0.2316  0.1850
 2644SOL    MW410350   1.323   0.926   0.319  0.4156  0.2059  0.4784
 2645SOL     OW10351   6.306   4.784   3.729 -0.0579  0.1820 -0.4235
 2645SOL    HW210352   6.336   4.706   3.682  0.6869  0.9327 -1.2303
 2645SOL    HW310353   6.224   4.808   3.685 -0.7778 -0.6603  0.4235
 2645SOL    MW410354   6.299   4.777   3.717 -0.0546  0.1699 -0.4182
 2646SOL     OW10355   6.281   0.103   5.624 -0.6832 -0.0623 -0.7821
 2646SOL    HW210356   6.269   0.060   5.709 -0.9283 -0.3803 -0.9776
 2646SOL    HW310357   6.297   0.032   5.563 -0.5576  0.1636 -1.0152
 2646SOL    MW410358   6.282   0.088   5.627 -0.6990 -0.0744 -0.8386
 2647SOL     OW10359   3.867   2.898   4.247 -0.5412  0.6312 -0.4849
 2647SOL    HW210360   3.872   2.974   4.304 -0.0362  0.7113 -0.6290
 2647SOL    HW310361   3.941   2.843   4.274 -0.2494  0.7063 -1.1079
 2647SOL    MW410362   3.877   2.901   4.258 -0.4361  0.6517 -0.5861
 2648SOL     OW10363   0.111   0.448   1.282 -0.5729 -0.5861  0.3312
 2648SOL    HW210364   0.082   0.536   1.255 -0.7375 -1.4161 -2.5099
 2648SOL    HW310365   0.049   0.423   1.350 -1.8150  0.6909 -0.2659
 2648SOL    MW410366   0.099   0.457   1.287 -0.7585 -0.5271 -0.1224
 2649SOL     OW10367   5.868   3.499   2.195 -0.1207  0.1652 -0.2371
 2649SOL    HW210368   5.863   3.405   2.176 -0.7787  0.1366  0.0525
 2649SOL    HW310369   5.919   3.503   2.277  2.6016  0.2829 -1.8117
 2649SOL    MW410370   5.874   3.487   2.203  0.1517  0.1769 -0.4066
 2650SOL     OW10371   1.670   3.460   0.285  0.5066  0.0717  0.3995
 2650SOL    HW210372   1.635   3.413   0.361  0.8517 -0.3530  0.3060
 2650SOL    HW310373   1.719   3.393   0.236  1.0762  0.5479  0.3010
 2650SOL    MW410374   1.672   3.445   0.288  0.6273  0.0785  0.3742
 2651SOL     OW10375   2.423   1.584   2.145 -0.0866  0.1520 -0.8507
 2651SOL    HW210376   2.425   1.491   2.124 -1.4957 -0.6829  2.1818
 2651SOL    HW310377   2.343   1.616   2.102 -0.9046 -0.6254  0.0539
 2651SOL    MW410378   2.413   1.576   2.136 -0.3805 -0.0608 -0.3312
 2652SOL     OW10379   2.675   2.428   4.686 -0.6291 -0.1222 -0.2592
 2652SOL    HW210380   2.722   2.361   4.736  0.2581 -1.1972 -2.4039
 2652SOL    HW310381   2.744   2.490   4.660 -0.9422  0.0331 -0.7284
 2652SOL    MW410382   2.691   2.427   4.689 -0.5533 -0.2435 -0.6041
 2653SOL     OW10383   4.880   0.557   2.108 -0.6981 -0.5694 -0.0108
 2653SOL    HW210384   4.806   0.528   2.161 -1.3827  1.1107  0.0339
 2653SOL    HW310385   4.955   0.509   2.142 -1.3020 -0.3059  1.8048
 2653SOL    MW410386   4.880   0.547   2.120 -0.8681 -0.3130  0.2346
 2654SOL     OW10387   0.476   3.605   2.579 -0.2758  0.3423 -1.4786
 2654SOL    HW210388   0.524   3.548   2.518  0.3228 -0.8755  0.0583
 2654SOL    HW310389   0.535   3.678   2.595  1.4276 -1.3727  0.7574
 2654SOL    MW410390   0.490   3.607   2.573  0.0280 -0.0446 -0.9808
 2655SOL     OW10391   4.760   1.448   5.803 -0.2989  0.0977  0.0924
 2655SOL    HW210392   4.676   1.495   5.805  0.1930  1.0008  2.2709
 2655SOL    HW310393   4.825   1.517   5.791  0.1416 -0.8427 -5.2776
 2655SOL    MW410394   4.757   1.464   5.802 -0.1759  0.0928 -0.3287
 2656SOL     OW10395   2.780   3.300   4.929 -0.4095 -0.1580 -0.8498
 2656SOL    HW210396   2.840   3.298   4.855 -1.0040 -0.0293 -1.3464
 2656SOL    HW310397   2.820   3.359   4.992  0.2851 -0.5648 -0.9081
 2656SOL    MW410398   2.793   3.307   4.928 -0.3963 -0.1947 -0.9230
 2657SOL     OW10399   3.689   3.648   5.383 -0.0726  0.0399 -0.1588
 2657SOL    HW210400   3.651   3.720   5.333  0.8501 -0.7317 -2.0564
 2657SOL    HW310401   3.615   3.591   5.404 -0.3724 -0.0438 -1.3909
 2657SOL    MW410402   3.674   3.650   5.379  0.0096 -0.0729 -0.5717
 2658SOL     OW10403   3.216   4.268   0.565  0.1691 -0.5057 -0.3302
 2658SOL    HW210404   3.242   4.263   0.474 -0.9922 -1.0446 -0.6465
 2658SOL    HW310405   3.291   4.235   0.614  0.9716  0.2088 -1.0430
 2658SOL    MW410406   3.229   4.263   0.560  0.1218 -0.4825 -0.4660
 2659SOL     OW10407   3.213   6.050   0.826  0.2922 -0.0246 -0.6117
 2659SOL    HW210408   3.123   6.040   0.856 -0.1631 -0.2958 -1.9869
 2659SOL    HW310409   3.263   6.072   0.905 -0.9785  0.1751  0.1566
 2659SOL    MW410410   3.208   6.052   0.840  0.0644 -0.0341 -0.6918
 2660SOL     OW10411   3.546   0.029   2.499 -0.6650 -0.7113  0.1043
 2660SOL    HW210412   3.486  -0.044   2.515 -1.2532 -0.4697 -0.8873
 2660SOL    HW310413   3.501   0.082   2.434  0.0828  0.1546  0.2831
 2660SOL    MW410414   3.532   0.026   2.492 -0.6440 -0.5652 -0.0029
 2661SOL     OW10415   2.756   0.730   0.249 -0.3893  0.1723  0.3666
 2661SOL    HW210416   2.724   0.654   0.200  0.0468 -1.0992  1.9866
 2661SOL    HW310417   2.681   0.759   0.300 -0.2651  0.1856  0.5416
 2661SOL    MW410418   2.742   0.724   0.249 -0.3154  0.0063  0.6034
 2662SOL     OW10419   4.422   4.201   5.142  0.7673  0.3056 -0.3550
 2662SOL    HW210420   4.395   4.117   5.177 -1.0019  0.7485 -0.5845
 2662SOL    HW310421   4.447   4.252   5.219  0.4517  0.0461 -0.0783
 2662SOL    MW410422   4.422   4.197   5.157  0.4922  0.3298 -0.3487
 2663SOL     OW10423   0.639   6.194   3.830  0.2854 -0.1253 -0.1468
 2663SOL    HW210424   0.641   6.127   3.761  0.2373  0.0319 -0.3027
 2663SOL    HW310425   0.571   6.164   3.890  0.9352 -0.7214  0.3020
 2663SOL    MW410426   0.630   6.182   3.829  0.3648 -0.1832 -0.1082
 2664SOL     OW10427   3.391   5.241   5.243 -0.4046 -0.1109  0.2118
 2664SOL    HW210428   3.406   5.321   5.194 -2.0550 -0.3306 -0.7449
 2664SOL    HW310429   3.469   5.188   5.228 -1.0826 -0.4491 -2.8122
 2664SOL    MW410430   3.403   5.244   5.234 -0.7118 -0.1845 -0.3134
 2665SOL     OW10431   1.769   2.450   2.150  0.1666 -0.4641 -0.2033
 2665SOL    HW210432   1.731   2.367   2.123  0.1294 -1.1330  1.7141
 2665SOL    HW310433   1.695   2.510   2.157 -0.0158 -0.7014 -0.1103
 2665SOL    MW410434   1.755   2.447   2.147  0.1376 -0.5836  0.0620
 2666SOL     OW10435   4.983   3.385   3.789 -0.2834 -0.2689  0.0358
 2666SOL    HW210436   5.055   3.447   3.802  0.6636 -0.8146 -2.2584
 2666SOL    HW310437   5.020   3.300   3.812 -0.4498 -0.4441 -0.3406
 2666SOL    MW410438   4.997   3.382   3.794 -0.1804 -0.3640 -0.3166
 2667SOL     OW10439   5.850   5.225   0.063 -0.1800 -0.1812 -0.2801
 2667SOL    HW210440   5.795   5.217   0.141  1.1072 -0.3455  0.6490
 2667SOL    HW310441   5.862   5.319   0.051  0.1417 -0.1663  0.1216
 2667SOL    MW410442   5.844   5.236   0.072  0.0323 -0.2009 -0.1046
 2668SOL     OW10443   1.994   4.008   0.875  0.4787  0.0130 -0.0057
 2668SOL    HW210444   1.916   4.050   0.838  1.1811  1.4028  0.0385
 2668SOL    HW310445   2.062   4.075   0.871  1.1189 -0.4463  1.9895
 2668SOL    MW410446   1.993   4.022   0.869  0.6558  0.1358  0.2634
 2669SOL     OW10447   6.007   0.923   2.296  0.4465 -0.0524  0.2018
 2669SOL    HW210448   6.001   0.828   2.291  1.1101 -0.1098  0.3826
 2669SOL    HW310449   6.054   0.948   2.216  1.7453 -0.0370  0.9383
 2669SOL    MW410450   6.012   0.914   2.285  0.7054 -0.0579  0.3229
 2670SOL     OW10451   5.255   2.908   4.235 -0.2136 -0.1513 -0.0611
 2670SOL    HW210452   5.225   2.827   4.276  2.6155 -0.6934  1.0964
 2670SOL    HW310453   5.202   2.976   4.276 -1.4373 -1.2178  0.2033
 2670SOL    MW410454   5.244   2.906   4.246 -0.0018 -0.3635  0.1265
 2671SOL     OW10455   0.254   4.072   4.353  0.6564  0.1605 -0.6100
 2671SOL    HW210456   0.257   3.993   4.407 -1.6013 -0.6683 -1.5757
 2671SOL    HW310457   0.184   4.125   4.392  0.1893  0.3339 -1.6540
 2671SOL    MW410458   0.245   4.068   4.365  0.2969  0.0740 -0.8751
 2672SOL     OW10459   5.834   4.881   0.165  0.6965 -0.1304 -0.0542
 2672SOL    HW210460   5.787   4.800   0.182  1.5976 -0.6093  0.1904
 2672SOL    HW310461   5.823   4.896   0.071 -0.9781  0.4377  0.1977
 2672SOL    MW410462   5.827   4.872   0.155  0.5944 -0.1186  0.0113
 2673SOL     OW10463   6.120   4.177   1.713 -0.4594  0.3191 -0.0473
 2673SOL    HW210464   6.143   4.146   1.801 -0.5831  0.0357 -0.1155
 2673SOL    HW310465   6.173   4.256   1.701 -0.3997  0.3269  0.2601
 2673SOL    MW410466   6.130   4.184   1.723 -0.4679  0.2828 -0.0157
 2674SOL     OW10467   2.225   1.302   1.137  0.7215  0.8460 -0.1236
 2674SOL    HW210468   2.263   1.363   1.199  0.0446  2.4366 -1.2001
 2674SOL    HW310469   2.228   1.347   1.053  2.4203 -1.5624 -1.4883
 2674SOL    MW410470   2.230   1.316   1.134  0.8563  0.7381 -0.4457
 2675SOL     OW10471   4.879   3.845   3.664  0.0007  0.9170 -0.1486
 2675SOL    HW210472   4.948   3.907   3.687  0.4006 -0.5232  3.2261
 2675SOL    HW310473   4.798   3.891   3.682  0.1002  1.8474 -1.9127
 2675SOL    MW410474   4.878   3.859   3.670  0.0666  0.8497  0.0639
 2676SOL     OW10475   1.162   2.204   4.155 -0.5141  0.6234  0.3024
 2676SOL    HW210476   1.232   2.268   4.164 -0.4293  0.6569 -0.5048
 2676SOL    HW310477   1.081   2.256   4.155 -0.4625  0.7061 -0.0408
 2676SOL    MW410478   1.160   2.219   4.156 -0.4961  0.6387  0.1506
 2677SOL     OW10479   1.918   3.131   4.454 -0.1554 -0.0217 -0.3221
 2677SOL    HW210480   1.832   3.134   4.498  0.4027 -1.4674  0.9715
 2677SOL    HW310481   1.897   3.106   4.364 -1.0865 -1.1132  0.1582
 2677SOL    MW410482   1.904   3.128   4.448 -0.2046 -0.3565 -0.0881
 2678SOL     OW10483   0.061   0.447   5.352 -0.3391 -0.4970  0.0563
 2678SOL    HW210484   0.091   0.425   5.441 -0.6089 -0.5576  0.1350
 2678SOL    HW310485  -0.031   0.470   5.364 -0.6306 -1.4152 -0.3445
 2678SOL    MW410486   0.053   0.447   5.366 -0.4132 -0.6261  0.0138
 2679SOL     OW10487   4.853   1.948   4.355  0.2637  0.3588  0.0440
 2679SOL    HW210488   4.904   2.005   4.413  0.6595 -0.8286  0.9158
 2679SOL    HW310489   4.821   1.879   4.412 -0.1416 -0.3287 -0.9930
 2679SOL    MW410490   4.856   1.947   4.370  0.2624  0.1114  0.0222
 2680SOL     OW10491   0.205   3.574   3.529  0.1144  0.0919  0.0216
 2680SOL    HW210492   0.115   3.591   3.557 -0.0939  0.6079 -0.8985
 2680SOL    HW310493   0.200   3.578   3.433  0.9932 -0.5232 -0.0533
 2680SOL    MW410494   0.192   3.577   3.520  0.2029  0.0788 -0.1097
 2681SOL     OW10495   1.927   4.681   2.640  0.0672 -0.1677 -0.0504
 2681SOL    HW210496   1.865   4.698   2.570 -0.4915 -1.3968  0.1131
 2681SOL    HW310497   1.994   4.625   2.600  0.5279  0.3092  0.0364
 2681SOL    MW410498   1.928   4.676   2.626  0.0543 -0.2669 -0.0174
 2682SOL     OW10499   3.643   0.468   0.157 -0.2576 -0.4267 -0.2075
 2682SOL    HW210500   3.711   0.533   0.140  0.3393 -0.7821  0.7442
 2682SOL    HW310501   3.690   0.385   0.161 -0.5552 -0.5484  1.5721
 2682SOL    MW410502   3.658   0.466   0.155 -0.2181 -0.4896  0.1529
 2683SOL     OW10503   5.376   3.075   3.711  0.1349 -0.4570  0.1388
 2683SOL    HW210504   5.446   3.079   3.776 -0.7354 -0.1564  1.0882
 2683SOL    HW310505   5.415   3.029   3.637  1.8586  1.1738 -0.0317
 2683SOL    MW410506   5.390   3.069   3.710  0.2475 -0.2022  0.2415
 2684SOL     OW10507   3.135   5.944   4.842  0.0356 -0.1646 -0.0305
 2684SOL    HW210508   3.175   5.911   4.923  0.2836  1.7708  0.6937
 2684SOL    HW310509   3.076   6.014   4.871  0.0045  0.4547 -1.5097
 2684SOL    MW410510   3.133   5.949   4.857  0.0642  0.1724 -0.1301
 2685SOL     OW10511   5.742   4.912   5.015 -0.0000  0.1061 -0.0890
 2685SOL    HW210512   5.758   4.845   4.948 -2.0848 -1.2180  0.6383
 2685SOL    HW310513   5.763   4.995   4.972  0.8088 -0.8653 -1.6518
 2685SOL    MW410514   5.747   4.914   5.000 -0.1684 -0.1968 -0.1992
 2686SOL     OW10515   1.779   5.800   2.742 -0.1216 -0.1761 -0.4970
 2686SOL    HW210516   1.695   5.756   2.754 -0.5084  0.4793 -0.8161
 2686SOL    HW310517   1.843   5.728   2.743 -0.3544 -0.4771  2.7253
 2686SOL    MW410518   1.777   5.785   2.744 -0.2033 -0.1293 -0.1139
 2687SOL     OW10519   5.695   2.262   0.828 -0.9853  0.3071 -0.3239
 2687SOL    HW210520   5.705   2.331   0.763 -0.9819  0.8247  0.2250
 2687SOL    HW310521   5.734   2.297   0.908  0.5446 -0.9489 -0.4549
 2687SOL    MW410522   5.701   2.276   0.830 -0.7830  0.2097 -0.2688
 2688SOL     OW10523   4.888   5.229   1.940  0.2090  0.4201  0.1098
 2688SOL    HW210524   4.965   5.197   1.987  0.1798 -0.2945 -0.3029
 2688SOL    HW310525   4.826   5.251   2.009 -0.1900 -1.5066  0.4437
 2688SOL    MW410526   4.890   5.228   1.955  0.1525  0.0717  0.0994
 2689SOL     OW10527   1.224   0.606   2.343 -0.3452  0.2357 -0.4007
 2689SOL    HW210528   1.164   0.672   2.379 -0.3914 -0.6405  1.2096
 2689SOL    HW310529   1.310   0.648   2.344 -0.7457  1.1856 -1.8969
 2689SOL    MW410530   1.227   0.620   2.348 -0.4042  0.2455 -0.3857
 2690SOL     OW10531   1.273   2.833   6.031 -0.3879 -0.3253  0.1980
 2690SOL    HW210532   1.226   2.849   6.113  2.8433 -0.7968  2.3177
 2690SOL    HW310533   1.282   2.920   5.992 -1.0732  0.0687  0.8766
 2690SOL    MW410534   1.268   2.847   6.037 -0.0520 -0.3355  0.5672
 2691SOL     OW10535   3.855   5.001   6.204  0.3432 -0.3975 -0.2977
 2691SOL    HW210536   3.864   4.971   6.295 -0.1545  1.4726  0.4065
 2691SOL    HW310537   3.822   4.924   6.157 -0.6341 -1.0489  1.3556
 2691SOL    MW410538   3.852   4.987   6.210  0.1486 -0.2367  0.0133
 2692SOL     OW10539   1.211   5.371   1.656 -0.1989 -0.3259  0.0873
 2692SOL    HW210540   1.126   5.407   1.680 -0.0961  0.7618 -1.0825
 2692SOL    HW310541   1.191   5.286   1.617 -0.6743 -0.3875  0.4469
 2692SOL    MW410542   1.197   5.364   1.654 -0.2481 -0.1905 -0.0196
 2693SOL     OW10543   0.408   0.804   0.892 -0.3573  0.0529 -0.3413
 2693SOL    HW210544   0.363   0.872   0.942  0.9928  0.3199  0.5695
 2693SOL    HW310545   0.343   0.736   0.879 -0.9067  0.2183  1.3230
 2693SOL    MW410546   0.393   0.804   0.897 -0.2516  0.1100 -0.0016
 2694SOL     OW10547   5.902   0.764   5.571 -0.1000 -0.8171 -0.0609
 2694SOL    HW210548   5.922   0.801   5.657  0.4841 -1.3456  0.0374
 2694SOL    HW310549   5.983   0.772   5.522  0.4340 -3.0008  0.3418
 2694SOL    MW410550   5.915   0.770   5.576  0.0475 -1.1750  0.0052
 2695SOL     OW10551   1.353   5.090   4.106  0.4335  0.2184 -0.2959
 2695SOL    HW210552   1.329   5.009   4.151 -0.7277  0.2743 -0.7710
 2695SOL    HW310553   1.442   5.108   4.135  1.0165 -1.6379 -0.7682
 2695SOL    MW410554   1.362   5.082   4.116  0.3572 -0.0192 -0.4209
 2696SOL     OW10555   1.858   3.556   1.836  0.8520 -0.1267 -0.2434
 2696SOL    HW210556   1.881   3.648   1.840 -1.8952  0.6002  1.3937
 2696SOL    HW310557   1.931   3.511   1.880  1.7767  1.3367 -0.2164
 2696SOL    MW410558   1.871   3.562   1.842  0.6115  0.1623 -0.0239
 2697SOL     OW10559   0.055   1.901   1.852 -0.0645 -0.0557  0.1149
 2697SOL    HW210560  -0.011   1.841   1.885 -2.6088  2.5968  0.2509
 2697SOL    HW310561   0.078   1.956   1.927 -0.2458  1.2031 -0.7168
 2697SOL    MW410562   0.050   1.900   1.866 -0.4241  0.4603  0.0231
 2698SOL     OW10563   2.141   3.877   5.502  0.2602  0.9530 -0.0848
 2698SOL    HW210564   2.226   3.879   5.545  1.0669 -3.3759 -1.0471
 2698SOL    HW310565   2.154   3.822   5.424 -2.9724  1.8045 -1.3811
 2698SOL    MW410566   2.154   3.870   5.498 -0.0599  0.4942 -0.3828
 2699SOL     OW10567   2.494   3.206   0.813  0.3577  0.5625  0.1704
 2699SOL    HW210568   2.414   3.226   0.765  0.9731  1.7870 -0.4019
 2699SOL    HW310569   2.527   3.126   0.773  0.7723  1.4636 -1.3930
 2699SOL    MW410570   2.488   3.198   0.802  0.4936  0.8429 -0.1113
 2700SOL     OW10571   4.489   3.772   2.822 -0.5133 -0.1834  0.1313
 2700SOL    HW210572   4.552   3.816   2.765  0.2146 -0.5192  0.6624
 2700SOL    HW310573   4.533   3.766   2.907 -1.6475  0.4714  0.7950
 2700SOL    MW410574   4.503   3.777   2.826 -0.5669 -0.1413  0.2889
 2701SOL     OW10575   6.176   2.684   3.032  0.3914 -0.6977 -0.0146
 2701SOL    HW210576   6.121   2.650   2.961 -1.4088  1.3627  0.2784
 2701SOL    HW310577   6.119   2.684   3.108  2.0427 -2.1002  1.3033
 2701SOL    MW410578   6.161   2.680   3.032  0.3717 -0.6109  0.1980
 2702SOL     OW10579   1.169   2.042   3.082 -0.0387 -0.2615 -0.7194
 2702SOL    HW210580   1.095   2.093   3.050  0.0156 -0.4850 -1.2002
 2702SOL    HW310581   1.162   1.958   3.038 -0.7939 -1.1183  0.9232
 2702SOL    MW410582   1.159   2.038   3.072 -0.1311 -0.4040 -0.5661
 2703SOL     OW10583   0.584   2.247   0.933 -0.3544 -0.1905  0.1339
 2703SOL    HW210584   0.551   2.163   0.903  0.5972 -1.3591  2.1705
 2703SOL    HW310585   0.578   2.243   1.029  3.4961  0.3590  0.5674
 2703SOL    MW410586   0.579   2.235   0.942  0.2792 -0.2722  0.4598
 2704SOL     OW10587   6.174   3.058   3.876 -0.4393 -0.0577 -0.2916
 2704SOL    HW210588   6.169   3.109   3.957  0.0756 -0.3056 -0.0956
 2704SOL    HW310589   6.099   2.999   3.880 -2.1172  1.8586 -1.3637
 2704SOL    MW410590   6.164   3.057   3.888 -0.5927  0.1624 -0.4072
 2705SOL     OW10591   2.873   0.925   2.205 -0.4101  0.0111 -0.2864
 2705SOL    HW210592   2.785   0.956   2.224 -1.2645 -2.6139  0.4390
 2705SOL    HW310593   2.925   0.950   2.282 -0.7253  0.7138 -0.2924
 2705SOL    MW410594   2.868   0.933   2.218 -0.5644 -0.2426 -0.1915
 2706SOL     OW10595   2.135   2.210   5.011  0.0366  0.4270 -0.0989
 2706SOL    HW210596   2.152   2.116   5.013  0.7683  0.5409  2.8768
 2706SOL    HW310597   2.043   2.217   4.985  0.0052 -1.0833 -0.4738
 2706SOL    MW410598   2.125   2.199   5.008  0.1290  0.2428  0.2442
 2707SOL     OW10599   2.070   2.985   5.600 -0.1919  0.6151 -0.2030
 2707SOL    HW210600   2.008   3.022   5.537 -2.3896  0.5378  1.7722
 2707SOL    HW310601   2.130   3.057   5.618 -0.5591  1.1758 -1.1231
 2707SOL    MW410602   2.070   3.000   5.594 -0.5303  0.6789 -0.0638
 2708SOL     OW10603   4.496   2.195   3.378  0.3806  0.8046 -0.2397
 2708SOL    HW210604   4.413   2.210   3.332  0.7475  1.9985 -0.5271
 2708SOL    HW310605   4.560   2.247   3.331  1.3238 -0.1283 -0.0322
 2708SOL    MW410606   4.493   2.204   3.366  0.5535  0.8390 -0.2503
 2709SOL     OW10607   1.906   1.733   1.324 -0.2022  0.1556  0.0234
 2709SOL    HW210608   1.904   1.829   1.317  1.4607  0.1857 -0.2135
 2709SOL    HW310609   1.956   1.715   1.404  0.3644 -0.5399 -0.4830
 2709SOL    MW410610   1.912   1.743   1.334  0.0920  0.0678 -0.0746
 2710SOL     OW10611   3.663   2.298   1.815 -0.0937 -0.0217 -0.3687
 2710SOL    HW210612   3.701   2.243   1.883  0.4285 -0.5489 -1.0670
 2710SOL    HW310613   3.660   2.242   1.737  1.1216  1.1217 -1.2965
 2710SOL    MW410614   3.668   2.283   1.814  0.1355  0.0596 -0.5832
 2711SOL     OW10615   3.616   4.936   0.946  0.1261 -0.8043 -0.0645
 2711SOL    HW210616   3.684   5.002   0.932 -0.9225  0.2091 -0.5254
 2711SOL    HW310617   3.651   4.880   1.016  0.9722  0.3274  0.4422
 2711SOL    MW410618   3.629   4.937   0.954  0.0994 -0.5213 -0.0585
 2712SOL     OW10619   1.318   1.746   3.617  0.0196  0.0726  0.1343
 2712SOL    HW210620   1.253   1.758   3.548  1.2449 -0.8816 -1.2407
 2712SOL    HW310621   1.402   1.758   3.573  0.8163  0.9324  1.7927
 2712SOL    MW410622   1.321   1.749   3.603  0.2864  0.0602  0.1717
 2713SOL     OW10623   2.555   4.854   5.587  0.4290  0.0283  0.7114
 2713SOL    HW210624   2.624   4.791   5.566  1.3660  1.2163  0.0933
 2713SOL    HW310625   2.565   4.872   5.680  1.8237  1.1574  0.3743
 2713SOL    MW410626   2.565   4.848   5.596  0.7366  0.3340  0.5853
 2714SOL     OW10627   3.381   3.959   0.552 -0.0488 -0.3298  0.5074
 2714SOL    HW210628   3.411   3.975   0.642  1.2884 -1.7636  0.3611
 2714SOL    HW310629   3.286   3.973   0.556  0.1128  0.5283  1.9221
 2714SOL    MW410630   3.372   3.963   0.565  0.1489 -0.4058  0.6747
 2715SOL     OW10631   3.415   0.588   0.053 -0.0312 -0.4580 -0.2198
 2715SOL    HW210632   3.454   0.649   0.117 -0.3591  1.2922 -1.6095
 2715SOL    HW310633   3.489   0.535   0.024  0.5611  0.2140  0.0091
 2715SOL    MW410634   3.430   0.589   0.058  0.0037 -0.1384 -0.3729
 2716SOL     OW10635   3.946   3.981   0.133 -0.0498 -0.0780  0.0502
 2716SOL    HW210636   3.984   3.899   0.165 -2.7194 -1.0024  1.1328
 2716SOL    HW310637   3.970   4.046   0.199  1.6395 -0.0532 -0.5462
 2716SOL    MW410638   3.954   3.979   0.146 -0.1792 -0.1967  0.1143
 2717SOL     OW10639   4.593   0.212   1.936  0.2866  0.3797 -0.3394
 2717SOL    HW210640   4.667   0.269   1.914 -0.0811  1.0427  0.1201
 2717SOL    HW310641   4.529   0.228   1.867 -0.3604  1.5323  0.5087
 2717SOL    MW410642   4.595   0.221   1.924  0.1527  0.6193 -0.1669
 2718SOL     OW10643   2.439   2.911   3.825 -0.2301 -0.2063  0.1169
 2718SOL    HW210644   2.458   2.868   3.909  1.7632 -1.5193 -0.9348
 2718SOL    HW310645   2.443   2.841   3.760 -0.5738  0.9743 -1.2367
 2718SOL    MW410646   2.442   2.897   3.828 -0.0124 -0.2237 -0.2004
 2719SOL     OW10647   3.600   6.280   4.488 -0.9622 -0.0876 -0.1379
 2719SOL    HW210648   3.631   6.256   4.400  1.5881 -2.1581  1.1879
 2719SOL    HW310649   3.531   6.217   4.506 -1.6445  0.4812 -0.7152
 2719SOL    MW410650   3.595   6.269   4.479 -0.7158 -0.2858 -0.0391
 2720SOL     OW10651   1.883   2.032   1.400  0.1146  0.1868  0.9267
 2720SOL    HW210652   1.976   2.020   1.419  0.6126  1.0508 -0.7880
 2720SOL    HW310653   1.838   1.985   1.470  1.8212  0.5395  2.3268
 2720SOL    MW410654   1.890   2.025   1.412  0.4054  0.3473  0.8852
 2721SOL     OW10655   0.622   5.226   1.496 -0.0115  0.2172 -0.0744
 2721SOL    HW210656   0.683   5.194   1.562 -0.5098 -0.2838  0.1480
 2721SOL    HW310657   0.664   5.203   1.412  0.2739  0.2045  0.0685
 2721SOL    MW410658   0.636   5.219   1.493 -0.0396  0.1494 -0.0262
 2722SOL     OW10659   0.973   0.457   5.568 -0.3197  0.3478  0.1638
 2722SOL    HW210660   1.060   0.428   5.595  0.6004  1.9998 -0.8616
 2722SOL    HW310661   0.953   0.404   5.490  0.1857  0.6190 -0.1509
 2722SOL    MW410662   0.982   0.446   5.561 -0.1316  0.6015 -0.0130
 2723SOL     OW10663   2.295   6.096   5.665  0.5587  0.3331 -0.5326
 2723SOL    HW210664   2.305   6.181   5.622  0.1381  1.2038  1.0492
 2723SOL    HW310665   2.301   6.114   5.758  1.3662 -1.5108 -0.1751
 2723SOL    MW410666   2.297   6.109   5.671  0.6097  0.2047 -0.2768
 2724SOL     OW10667   4.186   4.757   3.057  0.2406 -0.4029 -0.5982
 2724SOL    HW210668   4.222   4.823   3.117 -2.2030 -0.1012  0.6423
 2724SOL    HW310669   4.259   4.737   2.997  2.2102  0.6360  1.3063
 2724SOL    MW410670   4.201   4.763   3.057  0.1781 -0.2260 -0.1833
 2725SOL     OW10671   4.375   0.563   1.961  0.2875  0.4596 -0.0809
 2725SOL    HW210672   4.405   0.576   1.871 -2.2625  1.3276 -0.8879
 2725SOL    HW310673   4.288   0.524   1.952  1.1260 -2.1993  2.1216
 2725SOL    MW410674   4.367   0.560   1.948  0.0617  0.2233  0.1032
 2726SOL     OW10675   1.221   3.082   0.595  0.6616  0.3023  0.2819
 2726SOL    HW210676   1.240   3.102   0.687 -0.5850 -0.5845  0.7566
 2726SOL    HW310677   1.199   2.989   0.595  1.2282  0.1514 -1.0247
 2726SOL    MW410678   1.221   3.073   0.607  0.5719  0.1654  0.1721
 2727SOL     OW10679   2.899   5.026   1.061 -0.4360 -0.0889 -0.1627
 2727SOL    HW210680   2.839   5.025   0.986 -0.1987  0.8831 -0.3779
 2727SOL    HW310681   2.945   5.110   1.054 -0.3909  0.0016  1.0695
 2727SOL    MW410682   2.897   5.037   1.050 -0.3988  0.0513 -0.0285
 2728SOL     OW10683   0.011   0.658   0.559  0.3598 -0.2428 -0.2866
 2728SOL    HW210684   0.089   0.616   0.596 -1.1962 -1.3678  2.0086
 2728SOL    HW310685   0.019   0.750   0.586 -0.8956 -1.0720  3.6051
 2728SOL    MW410686   0.023   0.665   0.568 -0.0111 -0.5006  0.5297
 2729SOL     OW10687   1.073   0.548   2.794 -0.1759  0.2332  0.0262
 2729SOL    HW210688   0.980   0.561   2.777 -0.2760  0.7630  0.9271
 2729SOL    HW310689   1.083   0.453   2.803 -0.6060  0.1634 -0.1854
 2729SOL    MW410690   1.062   0.537   2.793 -0.2458  0.2939  0.1172
 2730SOL     OW10691   0.709   3.622   5.572 -0.0081 -0.4112  0.6320
 2730SOL    HW210692   0.614   3.620   5.559  0.0334  1.4067 -0.2140
 2730SOL    HW310693   0.724   3.563   5.646 -1.6418 -1.7002  0.0224
 2730SOL    MW410694   0.698   3.614   5.580 -0.2182 -0.3414  0.4399
 2731SOL     OW10695   5.614   4.428   5.253  0.0268  0.1049 -0.5089
 2731SOL    HW210696   5.607   4.368   5.327 -0.2447  0.5140 -0.1960
 2731SOL    HW310697   5.585   4.512   5.288 -1.2062  0.0669 -1.3693
 2731SOL    MW410698   5.609   4.431   5.267 -0.1717  0.1539 -0.5812
 2732SOL     OW10699   4.785   3.922   3.959  0.1287 -0.6293  0.0796
 2732SOL    HW210700   4.782   4.009   3.998 -0.8175  0.0639 -1.4493
 2732SOL    HW310701   4.867   3.884   3.990  0.1533  0.4763  1.4341
 2732SOL    MW410702   4.796   3.928   3.968  0.0071 -0.3920  0.0566
 2733SOL     OW10703   4.371   3.767   4.360 -0.0786 -0.1388  0.0307
 2733SOL    HW210704   4.327   3.772   4.444  1.5868 -0.6558  0.9931
 2733SOL    HW310705   4.338   3.842   4.310 -2.1209 -0.6241  0.5952
 2733SOL    MW410706   4.361   3.778   4.364 -0.1283 -0.2711  0.2322
 2734SOL     OW10707   1.703   0.165   4.970 -0.1649  0.2400 -0.4535
 2734SOL    HW210708   1.622   0.183   5.017 -1.3167 -1.4036 -1.7160
 2734SOL    HW310709   1.684   0.088   4.917  1.8949  0.4600 -1.6220
 2734SOL    MW410710   1.690   0.157   4.969 -0.0451  0.0522 -0.7742
 2735SOL     OW10711   4.893   5.457   4.083 -0.2708  0.3415  0.0329
 2735SOL    HW210712   4.868   5.549   4.073 -0.3321  0.2608 -0.5996
 2735SOL    HW310713   4.988   5.459   4.095 -0.1182  0.4226 -1.0931
 2735SOL    MW410714   4.902   5.469   4.084 -0.2588  0.3416 -0.1991
 2736SOL     OW10715   4.610   3.819   3.560  0.1858 -0.3585  0.2814
 2736SOL    HW210716   4.675   3.764   3.517  1.7342  1.2224  0.5093
 2736SOL    HW310717   4.555   3.850   3.488  0.3928 -0.7679 -0.0596
 2736SOL    MW410718   4.611   3.816   3.545  0.4174 -0.2040  0.2665
 2737SOL     OW10719   0.015   0.102   1.877  0.4917 -0.3615 -0.4586
 2737SOL    HW210720   0.102   0.139   1.889 -0.3536  1.3633  0.8210
 2737SOL    HW310721  -0.006   0.060   1.961 -0.6512  0.9967 -0.0180
 2737SOL    MW410722   0.024   0.101   1.890  0.2294  0.0452 -0.2316
 2738SOL     OW10723   2.748   4.215   0.817  0.2889 -0.2475  0.0776
 2738SOL    HW210724   2.662   4.174   0.808  0.5831 -0.6596 -1.0140
 2738SOL    HW310725   2.767   4.210   0.910 -0.8065 -0.2752  0.3169
 2738SOL    MW410726   2.739   4.209   0.828  0.1832 -0.3055 -0.0348
 2739SOL     OW10727   2.069   0.935   0.506 -0.3630 -0.2074 -0.0764
 2739SOL    HW210728   2.089   0.976   0.590 -1.0992  0.2705 -0.1300
 2739SOL    HW310729   2.044   1.007   0.449 -1.4978 -0.6892 -0.2191
 2739SOL    MW410730   2.068   0.950   0.510 -0.6098 -0.2079 -0.1023
 2740SOL     OW10731   0.817   1.032   3.233  0.4895  0.4983 -0.0584
 2740SOL    HW210732   0.889   0.991   3.280 -0.0759  0.3253  0.6763
 2740SOL    HW310733   0.848   1.120   3.213  1.1027  0.2507 -0.2308
 2740SOL    MW410734   0.830   1.038   3.236  0.4958  0.4428  0.0158
 2741SOL     OW10735   2.442   0.073   0.772 -0.4760  0.0189 -0.0318
 2741SOL    HW210736   2.373   0.124   0.813  2.9394  4.4619  0.9911
 2741SOL    HW310737   2.431   0.089   0.678 -1.2059  0.1113  0.0627
 2741SOL    MW410738   2.431   0.082   0.765 -0.1217  0.6173  0.1156
 2742SOL     OW10739   0.058   6.008   3.838  0.0007 -0.3148 -0.2819
 2742SOL    HW210740  -0.000   5.952   3.890 -1.4184  0.0922 -1.3673
 2742SOL    HW310741   0.069   5.960   3.756  0.7508 -0.1144 -0.3046
 2742SOL    MW410742   0.052   5.994   3.834 -0.0875 -0.2347 -0.4281
 2743SOL     OW10743   1.308   1.428   3.587 -0.3327 -0.5717 -0.1624
 2743SOL    HW210744   1.218   1.458   3.572  0.3388  1.7661  0.0677
 2743SOL    HW310745   1.299   1.359   3.652 -1.7413  2.4968  3.2755
 2743SOL    MW410746   1.295   1.423   3.594 -0.4300  0.1416  0.3215
 2744SOL     OW10747   2.730   3.350   0.903 -0.2622 -0.0740  0.0396
 2744SOL    HW210748   2.645   3.306   0.915  0.0627 -0.6233  0.3256
 2744SOL    HW310749   2.719   3.399   0.821 -1.2619  0.8296  0.6879
 2744SOL    MW410750   2.717   3.351   0.894 -0.3512 -0.0272  0.1629
 2745SOL     OW10751   3.287   4.530   3.809 -0.3939  0.1813  0.6103
 2745SOL    HW210752   3.292   4.438   3.832  0.5525 -0.0413 -0.3681
 2745SOL    HW310753   3.371   4.548   3.765 -1.5990  0.8285 -1.5697
 2745SOL    MW410754   3.299   4.521   3.806 -0.4280  0.2373  0.1936
 2746SOL     OW10755   5.897   0.416   3.617  0.2833  0.3716  0.2264
 2746SOL    HW210756   5.878   0.329   3.582 -0.1458  0.2943  0.6375
 2746SOL    HW310757   5.854   0.476   3.556 -0.7812  0.2227  0.8003
 2746SOL    MW410758   5.889   0.412   3.604  0.0863  0.3417  0.3564
 2747SOL     OW10759   2.057   0.494   2.426  0.4010 -0.1333  0.9101
 2747SOL    HW210760   2.021   0.441   2.497 -0.1694  0.3740  1.0092
 2747SOL    HW310761   2.042   0.585   2.454 -0.6304  0.0773 -0.2576
 2747SOL    MW410762   2.050   0.499   2.439  0.1896 -0.0386  0.7691
 2748SOL     OW10763   0.933   1.992   6.165 -0.0848  0.3651 -0.3465
 2748SOL    HW210764   0.869   2.000   6.237  1.7320  0.7818  1.3107
 2748SOL    HW310765   0.910   2.063   6.105  0.5313  2.3947  1.6767
 2748SOL    MW410766   0.921   2.003   6.167  0.2362  0.6879  0.1391
 2749SOL     OW10767   0.137   1.857   1.388  0.1168  0.5574 -0.1274
 2749SOL    HW210768   0.067   1.792   1.393  2.3071 -1.9383  0.5287
 2749SOL    HW310769   0.129   1.906   1.470  0.5775 -1.3979  1.1694
 2749SOL    MW410770   0.127   1.855   1.400  0.4665 -0.0299  0.1303
 2750SOL     OW10771   3.986   1.573   3.855  0.6164 -0.8394 -0.1778
 2750SOL    HW210772   4.019   1.574   3.765  1.5874 -0.9504  0.1620
 2750SOL    HW310773   4.051   1.623   3.905  0.8082 -1.9274  0.7013
 2750SOL    MW410774   3.999   1.580   3.850  0.7698 -0.9976 -0.0170
 2751SOL     OW10775   5.677   2.980   2.488  0.2137 -0.0983 -0.5219
 2751SOL    HW210776   5.632   2.896   2.497 -0.8910  0.1611 -2.7465
 2751SOL    HW310777   5.618   3.043   2.530  0.6803 -0.3232  0.4873
 2751SOL    MW410778   5.663   2.977   2.495  0.1295 -0.0937 -0.6823
 2752SOL     OW10779   4.816   6.189   0.369 -0.1844 -0.4163 -0.3968
 2752SOL    HW210780   4.823   6.284   0.377 -1.6938 -0.3731  0.9955
 2752SOL    HW310781   4.730   6.175   0.329 -1.2105 -1.2177  1.9448
 2752SOL    MW410782   4.806   6.199   0.364 -0.5189 -0.5164  0.0958
 2753SOL     OW10783   5.677   3.308   1.461 -0.6587  0.5309 -0.1803
 2753SOL    HW210784   5.688   3.339   1.551 -0.0110 -0.1980  0.0060
 2753SOL    HW310785   5.762   3.324   1.420  0.1293 -1.9768  0.2590
 2753SOL    MW410786   5.689   3.314   1.467 -0.4693  0.1039 -0.0978
 2754SOL     OW10787   2.946   3.934   1.968  0.1284 -0.1880 -0.1814
 2754SOL    HW210788   3.039   3.956   1.980  0.5902 -1.3583 -1.4126
 2754SOL    HW310789   2.908   4.013   1.930  0.3427  0.7064  1.3572
 2754SOL    MW410790   2.953   3.947   1.964  0.2176 -0.2244 -0.1408
 2755SOL     OW10791   5.655   0.232   1.477  0.0315 -0.2927 -0.0144
 2755SOL    HW210792   5.720   0.243   1.546  0.3618  0.0847 -0.3808
 2755SOL    HW310793   5.692   0.277   1.401 -0.5860 -0.1982 -0.2712
 2755SOL    MW410794   5.668   0.239   1.477 -0.0064 -0.2304 -0.0966
 2756SOL     OW10795   2.643   0.741   5.343 -0.3886  0.1302 -0.1350
 2756SOL    HW210796   2.642   0.799   5.267 -0.6322 -0.5157 -0.6344
 2756SOL    HW310797   2.627   0.654   5.307  0.8507 -0.3721  0.5007
 2756SOL    MW410798   2.640   0.738   5.328 -0.2572 -0.0213 -0.1170
 2757SOL     OW10799   1.563   5.991   0.781 -0.3509 -0.3165  0.0900
 2757SOL    HW210800   1.558   5.942   0.863  0.7570  0.6293  0.7625
 2757SOL    HW310801   1.509   6.068   0.796 -1.4949 -0.9354 -0.6987
 2757SOL    MW410802   1.555   5.995   0.794 -0.3556 -0.2733  0.0747
 2758SOL     OW10803   2.358   3.294   3.111  0.3804 -0.1117 -0.1046
 2758SOL    HW210804   2.372   3.318   3.020 -1.0883  0.5689 -0.1813
 2758SOL    HW310805   2.440   3.252   3.138  0.3595 -1.6088 -2.1365
 2758SOL    MW410806   2.371   3.292   3.103  0.1838 -0.2195 -0.3828
 2759SOL     OW10807   0.660   6.046   5.762 -0.1377 -0.4311  0.1152
 2759SOL    HW210808   0.687   5.966   5.717 -0.4607  0.4086 -1.6483
 2759SOL    HW310809   0.705   6.116   5.715 -0.2491  0.4803  1.3193
 2759SOL    MW410810   0.670   6.044   5.750 -0.1950 -0.2001  0.0414
 2760SOL     OW10811   5.314   5.177   4.677  0.0082  0.2083 -0.2301
 2760SOL    HW210812   5.300   5.270   4.693  1.6775  0.8096 -1.9535
 2760SOL    HW310813   5.286   5.163   4.587 -0.7284 -1.1145  0.1675
 2760SOL    MW410814   5.309   5.188   4.667  0.1312  0.1131 -0.4050
 2761SOL     OW10815   3.808   5.132   0.917  0.4560  0.1145 -0.3253
 2761SOL    HW210816   3.763   5.195   0.973  0.4799  0.0982 -0.2877
 2761SOL    HW310817   3.816   5.175   0.832 -0.1225 -0.0886 -0.4907
 2761SOL    MW410818   3.803   5.146   0.913  0.3828  0.0855 -0.3421
 2762SOL     OW10819   1.734   3.782   0.479  0.4513 -0.3638  0.4452
 2762SOL    HW210820   1.772   3.741   0.401 -1.5537  0.3576 -0.9807
 2762SOL    HW310821   1.651   3.736   0.493 -0.7261  1.5895  0.2253
 2762SOL    MW410822   1.728   3.770   0.471  0.0314 -0.0109  0.2280
 2763SOL     OW10823   1.258   1.985   2.604  0.4199  0.1247  0.2198
 2763SOL    HW210824   1.314   1.908   2.617 -0.1498 -0.9320 -2.8736
 2763SOL    HW310825   1.170   1.953   2.623  0.4629  1.0621  2.3712
 2763SOL    MW410826   1.254   1.970   2.608  0.3504  0.1089  0.0955
 2764SOL     OW10827   4.509   0.216   3.221 -0.2321  0.0027  0.1936
 2764SOL    HW210828   4.474   0.304   3.229  0.2600  0.0540  2.2890
 2764SOL    HW310829   4.587   0.226   3.167  0.2570  1.0006  1.0571
 2764SOL    MW410830   4.515   0.229   3.215 -0.1027  0.1411  0.5840
 2765SOL     OW10831   1.076   0.387   2.171 -0.2782 -0.6675  0.1275
 2765SOL    HW210832   1.131   0.461   2.146 -0.8809 -0.3647 -0.3206
 2765SOL    HW310833   1.004   0.388   2.108 -0.6387 -1.2346  0.5222
 2765SOL    MW410834   1.073   0.397   2.160 -0.4053 -0.7024  0.1205
 2766SOL     OW10835   6.413   5.409   2.377  0.5730  0.2357 -0.5606
 2766SOL    HW210836   6.323   5.377   2.376  0.4015  0.7044 -0.4671
 2766SOL    HW310837   6.414   5.477   2.445  0.9603  0.3323 -0.6594
 2766SOL    MW410838   6.401   5.414   2.386  0.6015  0.3103 -0.5613
 2767SOL     OW10839   0.910   2.092   0.137  0.6646  0.8309 -0.3432
 2767SOL    HW210840   0.852   2.109   0.063 -0.3247  1.5156  0.5602
 2767SOL    HW310841   0.982   2.040   0.100 -0.9711 -0.8431 -1.3259
 2767SOL    MW410842   0.912   2.087   0.122  0.3182  0.7004 -0.3537
 2768SOL     OW10843   4.717   0.030   3.044  0.1220 -0.0217  0.2891
 2768SOL    HW210844   4.800  -0.015   3.027  0.0572 -0.3591  0.8720
 2768SOL    HW310845   4.668   0.019   2.962 -0.0413 -1.3334  0.5444
 2768SOL    MW410846   4.722   0.023   3.031  0.0919 -0.2393  0.3997
 2769SOL     OW10847   1.855   4.866   5.629  0.2453  0.0277 -0.6457
 2769SOL    HW210848   1.839   4.800   5.697 -0.5507 -1.1679 -1.9172
 2769SOL    HW310849   1.947   4.888   5.637  0.1453 -0.0310  0.8562
 2769SOL    MW410850   1.865   4.860   5.639  0.1271 -0.1378 -0.6153
 2770SOL     OW10851   4.187   2.681   5.549  0.1480  0.6106 -0.1778
 2770SOL    HW210852   4.115   2.618   5.543 -0.5340  1.4159 -0.7199
 2770SOL    HW310853   4.199   2.713   5.460  1.3994  0.2611 -0.1482
 2770SOL    MW410854   4.179   2.677   5.537  0.2231  0.6707 -0.2454
 2771SOL     OW10855   2.009   6.037   0.901  0.4227  0.1939  0.3705
 2771SOL    HW210856   1.948   6.040   0.827 -0.2677  2.4625  0.9490
 2771SOL    HW310857   1.988   5.956   0.946 -1.8556  0.6277  0.2378
 2771SOL    MW410858   1.998   6.027   0.897  0.0310  0.5504  0.4293
 2772SOL     OW10859   3.590   6.091   1.657 -0.0752 -0.1794 -0.0402
 2772SOL    HW210860   3.628   6.159   1.602 -1.4329 -0.1262 -0.9742
 2772SOL    HW310861   3.663   6.034   1.680  0.8852  0.9907 -0.1386
 2772SOL    MW410862   3.604   6.092   1.653 -0.1276 -0.0180 -0.1764
 2773SOL     OW10863   2.457   5.811   2.248 -0.1947  0.1100  0.2792
 2773SOL    HW210864   2.362   5.820   2.240 -0.3913 -0.5088  1.6022
 2773SOL    HW310865   2.491   5.835   2.162 -1.6907 -1.5017 -0.8291
 2773SOL    MW410866   2.449   5.815   2.235 -0.4180 -0.1843  0.3075
 2774SOL     OW10867   3.718   3.259   0.497 -0.1673 -0.1598 -0.5653
 2774SOL    HW210868   3.688   3.346   0.523 -2.4881 -0.9772 -0.2965
 2774SOL    HW310869   3.738   3.214   0.579 -0.6865 -0.4371 -0.5840
 2774SOL    MW410870   3.717   3.264   0.511 -0.5420 -0.3042 -0.5323
 2775SOL     OW10871   3.271   1.131   4.102 -0.3017 -0.4251  0.4255
 2775SOL    HW210872   3.217   1.102   4.175  0.6548 -0.6451  1.0706
 2775SOL    HW310873   3.227   1.210   4.070 -0.6291 -0.1984  1.3833
 2775SOL    MW410874   3.258   1.138   4.108 -0.2187 -0.4242  0.6370
 2776SOL     OW10875   1.084   2.497   4.280  0.0265  0.2369  0.0096
 2776SOL    HW210876   0.989   2.506   4.284  0.1604  2.9355 -0.6284
 2776SOL    HW310877   1.104   2.502   4.186  0.8045 -0.7675  0.1011
 2776SOL    MW410878   1.074   2.499   4.268  0.1468  0.4604 -0.0625
 2777SOL     OW10879   1.707   1.689   0.130 -0.4552  0.3594  0.7801
 2777SOL    HW210880   1.725   1.610   0.078  0.6851  0.6078  0.7778
 2777SOL    HW310881   1.778   1.693   0.193 -0.8466  1.0533  1.1901
 2777SOL    MW410882   1.719   1.679   0.131 -0.3564  0.4837  0.8339
 2778SOL     OW10883   0.072   1.555   4.048 -0.0662  0.0200  0.5780
 2778SOL    HW210884   0.011   1.518   3.985  0.4639 -2.1795  1.2571
 2778SOL    HW310885   0.021   1.618   4.097 -1.4636 -0.8621  0.3125
 2778SOL    MW410886   0.057   1.558   4.046 -0.1807 -0.3866  0.6326
 2779SOL     OW10887   4.796   0.725   1.630 -0.2586  0.2263 -0.1788
 2779SOL    HW210888   4.830   0.727   1.541  0.9443 -1.1757  0.2231
 2779SOL    HW310889   4.714   0.775   1.626  0.5681  1.5261 -1.7134
 2779SOL    MW410890   4.790   0.732   1.618  0.0092  0.2128 -0.3283
 2780SOL     OW10891   5.299   3.373   4.761  0.4425  0.0784 -0.4364
 2780SOL    HW210892   5.388   3.369   4.725  1.3702 -0.0825  1.7351
 2780SOL    HW310893   5.312   3.387   4.855 -1.8043 -1.2972  0.1422
 2780SOL    MW410894   5.313   3.374   4.769  0.2685 -0.1243 -0.0735
 2781SOL     OW10895   1.743   0.930   2.335 -0.0356  0.2177  0.3185
 2781SOL    HW210896   1.835   0.906   2.336 -0.0188  0.0126 -1.6203
 2781SOL    HW310897   1.701   0.860   2.284 -1.2703  0.3002  1.1781
 2781SOL    MW410898   1.749   0.917   2.328 -0.1963  0.2015  0.1761
 2782SOL     OW10899   3.930   4.482   2.904 -0.2154 -0.0584 -0.0844
 2782SOL    HW210900   3.877   4.492   2.825 -0.2591  2.0630  0.1448
 2782SOL    HW310901   3.896   4.548   2.964  0.7314 -0.6877  1.1956
 2782SOL    MW410902   3.919   4.492   2.901 -0.0962  0.1385  0.1147
 2783SOL     OW10903   1.544   3.234   5.831 -0.1692 -0.3137  0.4172
 2783SOL    HW210904   1.638   3.230   5.815 -0.0221  1.0122  0.8623
 2783SOL    HW310905   1.536   3.281   5.913 -1.2451  0.0235  0.1288
 2783SOL    MW410906   1.555   3.239   5.839 -0.2917 -0.0943  0.4379
 2784SOL     OW10907   3.830   2.008   5.221 -0.3457  0.0260  0.6173
 2784SOL    HW210908   3.872   1.953   5.288  0.8492  1.2982  0.9530
 2784SOL    HW310909   3.802   2.086   5.268 -0.2635  0.5661 -0.2089
 2784SOL    MW410910   3.832   2.011   5.236 -0.1772  0.2651  0.5526
 2785SOL     OW10911   2.246   1.407   0.881 -0.2730 -0.4049  0.1018
 2785SOL    HW210912   2.309   1.470   0.846  0.9054 -1.5447  0.0925
 2785SOL    HW310913   2.237   1.340   0.813 -2.1121  0.1142 -0.2221
 2785SOL    MW410914   2.253   1.406   0.867 -0.3601 -0.4868  0.0578
 2786SOL     OW10915   5.454   2.040   4.625  0.0250 -0.3730 -0.2365
 2786SOL    HW210916   5.402   1.992   4.560 -0.1355 -0.3714 -0.1108
 2786SOL    HW310917   5.401   2.118   4.645 -0.8754 -1.3154  1.3291
 2786SOL    MW410918   5.440   2.044   4.619 -0.1150 -0.4971 -0.0133
 2787SOL     OW10919   3.776   2.764   2.971 -0.6886  0.4571  0.7533
 2787SOL    HW210920   3.705   2.802   2.919 -1.0138  0.6882  1.3524
 2787SOL    HW310921   3.732   2.721   3.045 -0.3963 -1.9575 -0.3917
 2787SOL    MW410922   3.761   2.764   2.974 -0.6929  0.1690  0.6812
 2788SOL     OW10923   0.611   6.410   5.586 -0.1659 -0.1523  0.1391
 2788SOL    HW210924   0.591   6.481   5.526 -0.2093 -0.2223  0.0719
 2788SOL    HW310925   0.570   6.333   5.548 -1.0343 -0.0127  0.7592
 2788SOL    MW410926   0.603   6.409   5.573 -0.2862 -0.1431  0.2121
 2789SOL     OW10927   0.867   2.634   5.779  0.1330 -0.1967  0.1298
 2789SOL    HW210928   0.952   2.676   5.763 -0.8033  1.0512 -2.0165
 2789SOL    HW310929   0.889   2.554   5.827  2.5073  0.1684 -0.2067
 2789SOL    MW410930   0.881   2.629   5.783  0.3228  0.0161 -0.1978
 2790SOL     OW10931   5.124   0.808   3.661  0.4193 -0.2909 -0.3975
 2790SOL    HW210932   5.160   0.879   3.608  2.0979 -1.5386 -1.0415
 2790SOL    HW310933   5.147   0.832   3.751 -0.6050  0.8138 -0.4022
 2790SOL    MW410934   5.132   0.820   3.666  0.5057 -0.3097 -0.4831
 2791SOL     OW10935   6.304   5.822   3.932 -0.1181  0.5117  0.2348
 2791SOL    HW210936   6.273   5.795   3.845  0.4921 -1.4583  0.5943
 2791SOL    HW310937   6.224   5.845   3.980 -1.0653 -3.1562  0.6968
 2791SOL    MW410938   6.289   5.821   3.927 -0.1625 -0.2321  0.3432
 2792SOL     OW10939   0.009   0.483   6.153  0.5601  0.4102 -0.5198
 2792SOL    HW210940   0.047   0.411   6.202  1.0252  1.5688  0.9279
 2792SOL    HW310941   0.077   0.551   6.153 -0.2250  1.2263 -0.9321
 2792SOL    MW410942   0.023   0.483   6.159  0.5179  0.6708 -0.3832
 2793SOL     OW10943   1.981   5.505   1.161 -0.1417  0.0369 -0.3962
 2793SOL    HW210944   2.039   5.430   1.158  0.5194  0.3931  1.7524
 2793SOL    HW310945   2.006   5.552   1.241 -1.9298  1.3853 -0.5576
 2793SOL    MW410946   1.992   5.502   1.171 -0.2904  0.2618 -0.1340
 2794SOL     OW10947   2.588   0.307   2.034  0.1991 -0.5017 -0.0966
 2794SOL    HW210948   2.653   0.244   2.067  0.2898 -0.1347  0.4404
 2794SOL    HW310949   2.640   0.380   2.003  0.1178 -0.8782 -1.1613
 2794SOL    MW410950   2.604   0.308   2.035  0.2003 -0.5029 -0.1662
 2795SOL     OW10951   3.935   4.199   4.422  0.2571 -0.5316  0.3624
 2795SOL    HW210952   3.844   4.208   4.395  0.6011  1.1387 -0.4316
 2795SOL    HW310953   3.973   4.286   4.405  1.5023 -0.5849  2.5406
 2795SOL    MW410954   3.928   4.212   4.416  0.4668 -0.3182  0.5450
 2796SOL     OW10955   4.739   5.807   4.393 -0.0089 -1.1146  0.2973
 2796SOL    HW210956   4.788   5.738   4.438  1.4236  1.3138  2.7777
 2796SOL    HW310957   4.689   5.850   4.463  1.9376  2.5486 -0.2996
 2796SOL    MW410958   4.739   5.804   4.409  0.4369 -0.3109  0.5458
 2797SOL     OW10959   4.316   2.878   2.473  0.6304  0.3751 -0.4733
 2797SOL    HW210960   4.366   2.808   2.516  1.7307 -0.3544 -2.7680
 2797SOL    HW310961   4.334   2.866   2.379 -0.7485  2.5444 -1.0859
 2797SOL    MW410962   4.325   2.867   2.466  0.5936  0.5651 -0.8569
 2798SOL     OW10963   0.445   3.524   4.072 -0.5629 -0.2918  0.1385
 2798SOL    HW210964   0.381   3.467   4.030 -0.8022 -0.8529  1.2464
 2798SOL    HW310965   0.447   3.496   4.163  3.2561 -2.2089 -0.3187
 2798SOL    MW410966   0.437   3.513   4.078 -0.0906 -0.6188  0.2244
 2799SOL     OW10967   1.254   1.475   3.303 -0.0622  0.4445  0.2842
 2799SOL    HW210968   1.205   1.556   3.320 -0.7570 -0.1866  1.4998
 2799SOL    HW310969   1.303   1.459   3.384  0.0595 -0.3424  0.0684
 2799SOL    MW410970   1.254   1.483   3.316 -0.1378  0.2574  0.4161
 2800SOL     OW10971   3.770   0.417   5.698 -0.1945 -0.1060  0.8163
 2800SOL    HW210972   3.770   0.512   5.685  2.7447 -0.1653 -0.3213
 2800SOL    HW310973   3.842   0.385   5.644  1.2812 -2.5417  3.8852
 2800SOL    MW410974   3.779   0.425   5.689  0.3880 -0.4352  1.0711
 2801SOL     OW10975   4.715   4.895   6.132  0.1533  0.3845  0.3837
 2801SOL    HW210976   4.805   4.919   6.111  0.0173  0.4675 -0.0994
 2801SOL    HW310977   4.698   4.935   6.217  0.0222  1.7540 -0.2727
 2801SOL    MW410978   4.724   4.903   6.140  0.1181  0.5761  0.2334
 2802SOL     OW10979   6.207   3.842   4.017 -0.3295  0.2594 -0.0611
 2802SOL    HW210980   6.284   3.891   3.989  1.0868 -1.3735  0.7432
 2802SOL    HW310981   6.174   3.802   3.936  1.8242 -1.8308 -0.0540
 2802SOL    MW410982   6.213   3.843   4.003  0.1415 -0.2318  0.0460
 2803SOL     OW10983   5.964   0.479   6.101  0.0698  0.0951 -0.1814
 2803SOL    HW210984   6.014   0.445   6.027  0.1061 -0.3676  0.0531
 2803SOL    HW310985   6.030   0.517   6.159 -0.0024  0.9250 -0.6157
 2803SOL    MW410986   5.979   0.480   6.099  0.0651  0.1436 -0.2077
 2804SOL     OW10987   3.576   3.036   4.583  0.6762  0.1228 -0.2692
 2804SOL    HW210988   3.655   2.991   4.615 -0.1530 -0.0084  1.7585
 2804SOL    HW310989   3.511   2.966   4.575 -0.0640  0.6344  1.0078
 2804SOL    MW410990   3.578   3.021   4.586  0.4691  0.1730  0.1668
 2805SOL     OW10991   6.011   4.106   2.661 -0.2744  0.1452  0.4970
 2805SOL    HW210992   5.997   4.021   2.618  0.9176 -1.3171  2.8023
 2805SOL    HW310993   5.960   4.102   2.741 -1.3596  2.2522 -0.0179
 2805SOL    MW410994   6.003   4.094   2.666 -0.2603  0.2303  0.7332
 2806SOL     OW10995   4.628   3.085   5.988  0.1273 -0.4358 -0.8153
 2806SOL    HW210996   4.600   3.171   6.020  1.5759  0.1188 -0.9351
 2806SOL    HW310997   4.634   3.030   6.066 -0.8495 -0.4479 -0.7430
 2806SOL    MW410998   4.625   3.089   6.002  0.1895 -0.3642 -0.8216
 2807SOL     OW10999   4.325   2.529   3.298  0.1248 -0.0599 -0.1963
 2807SOL    HW211000   4.239   2.568   3.314  0.3517  0.0309  0.9515
 2807SOL    HW311001   4.319   2.491   3.211 -0.7241  0.8952 -0.5823
 2807SOL    MW411002   4.313   2.529   3.289  0.0427  0.0781 -0.0958
 2808SOL     OW11003   5.640   4.802   4.592  0.0516  0.0925  0.1783
 2808SOL    HW211004   5.670   4.744   4.523  0.4406 -0.9982  1.2241
 2808SOL    HW311005   5.546   4.785   4.598  0.1782 -0.5078  0.5347
 2808SOL    MW411006   5.631   4.792   4.584  0.1196 -0.1306  0.3633
 2809SOL     OW11007   2.055   5.164   3.709  0.3134  0.1250 -0.6301
 2809SOL    HW211008   2.018   5.136   3.793  1.1860  1.0614  0.0899
 2809SOL    HW311009   2.019   5.251   3.695  3.0851  1.6379  0.7311
 2809SOL    MW411010   2.045   5.172   3.718  0.7942  0.4481 -0.3555
 2810SOL     OW11011   2.161   0.885   2.941  0.7215 -0.2697 -0.2165
 2810SOL    HW211012   2.194   0.950   2.879  0.2202 -1.5354 -1.8833
 2810SOL    HW311013   2.221   0.889   3.015  0.8138  1.9303 -0.3481
 2810SOL    MW411014   2.173   0.894   2.942  0.6675 -0.1465 -0.4538
 2811SOL     OW11015   2.144   1.672   1.164 -0.1616 -0.1279 -0.6653
 2811SOL    HW211016   2.105   1.703   1.083 -1.2207  1.1912  0.3089
 2811SOL    HW311017   2.078   1.689   1.231  1.0581 -0.2667  0.6240
 2811SOL    MW411018   2.130   1.678   1.163 -0.1404  0.0279 -0.3667
 2812SOL     OW11019   5.245   6.012   4.512 -0.1571  0.0079 -0.7256
 2812SOL    HW211020   5.163   6.019   4.462 -0.7083 -1.8139 -0.1694
 2812SOL    HW311021   5.313   6.026   4.446 -0.9011  0.7211 -1.3726
 2812SOL    MW411022   5.243   6.014   4.496 -0.3280 -0.1384 -0.7375
 2813SOL     OW11023   6.086   0.382   1.496 -0.0770 -0.0178  0.3647
 2813SOL    HW211024   6.088   0.474   1.525  1.3071  0.2301 -0.4151
 2813SOL    HW311025   6.178   0.359   1.486 -0.3741 -1.8054  1.4375
 2813SOL    MW411026   6.098   0.391   1.499  0.0664 -0.2209  0.4033
 2814SOL     OW11027   3.775   4.825   5.498  0.3312  0.0011 -0.3689
 2814SOL    HW211028   3.721   4.813   5.420  1.1361 -0.7449 -0.8272
 2814SOL    HW311029   3.864   4.806   5.469  0.4678 -1.8599  1.0792
 2814SOL    MW411030   3.780   4.821   5.484  0.4554 -0.3429 -0.2383
 2815SOL     OW11031   3.253   1.600   5.731 -0.1212  0.1362 -0.7547
 2815SOL    HW211032   3.335   1.640   5.759  0.1528 -0.1006 -1.2220
 2815SOL    HW311033   3.246   1.521   5.784  0.1372 -0.0390 -0.9830
 2815SOL    MW411034   3.262   1.595   5.742 -0.0510  0.0819 -0.8465
 2816SOL     OW11035   0.397   3.079   2.087  0.4727 -0.1541  0.0401
 2816SOL    HW211036   0.343   3.108   2.014  0.5197 -2.3215 -0.9542
 2816SOL    HW311037   0.335   3.067   2.159  0.0693 -0.0428 -0.2818
 2816SOL    MW411038   0.382   3.081   2.087  0.4257 -0.4254 -0.1336
 2817SOL     OW11039   3.597   6.327   0.099  0.7901 -0.3960 -0.5894
 2817SOL    HW211040   3.541   6.284   0.164  1.8941  0.8557  1.2981
 2817SOL    HW311041   3.551   6.316   0.016 -1.9306 -0.0184  0.7549
 2817SOL    MW411042   3.584   6.320   0.097  0.5768 -0.1810 -0.1630
 2818SOL     OW11043   4.511   1.784   2.937  0.5427 -0.0869 -0.1578
 2818SOL    HW211044   4.455   1.713   2.906 -1.2165  0.1499  2.2177
 2818SOL    HW311045   4.555   1.749   3.014  2.1110  0.4278 -0.7782
 2818SOL    MW411046   4.509   1.770   2.943  0.5175  0.0122  0.0738
 2819SOL     OW11047   4.421   6.365   1.183 -0.0427 -0.5178 -0.0102
 2819SOL    HW211048   4.509   6.402   1.183 -0.7205  1.2024  0.7509
 2819SOL    HW311049   4.404   6.342   1.275  0.1759 -2.3855 -0.3850
 2819SOL    MW411050   4.430   6.367   1.196 -0.1032 -0.5373  0.0408
 2820SOL     OW11051   6.041   2.715   5.229  0.1832 -0.7759 -0.4210
 2820SOL    HW211052   5.950   2.687   5.236  0.3882 -1.4755 -0.4351
 2820SOL    HW311053   6.078   2.659   5.160  0.5376 -0.2799 -0.6361
 2820SOL    MW411054   6.034   2.704   5.221  0.2570 -0.8028 -0.4513
 2821SOL     OW11055   6.420   5.730   3.404  0.2598 -0.1346  0.5837
 2821SOL    HW211056   6.324   5.726   3.401  0.1085 -0.4134  3.3180
 2821SOL    HW311057   6.444   5.786   3.330 -2.0147  0.1058 -0.0413
 2821SOL    MW411058   6.410   5.737   3.394 -0.0603 -0.1397  0.8620
 2822SOL     OW11059   1.174   0.683   1.780  0.4410  0.1698  0.0419
 2822SOL    HW211060   1.093   0.684   1.728  1.0274  0.1893 -0.8782
 2822SOL    HW311061   1.243   0.663   1.718  1.2967  1.1808  0.6221
 2822SOL    MW411062   1.172   0.681   1.765  0.6313  0.3058 -0.0029
 2823SOL     OW11063   5.276   0.022   2.353  0.3042  0.4726  0.4895
 2823SOL    HW211064   5.334   0.085   2.395 -1.3640  0.3422  3.2121
 2823SOL    HW311065   5.189   0.062   2.357 -0.2560 -0.5034 -0.9591
 2823SOL    MW411066   5.272   0.035   2.359  0.0102  0.3266  0.6576
 2824SOL     OW11067   5.168   0.598   4.144  0.6106  0.1649 -0.2791
 2824SOL    HW211068   5.126   0.592   4.058 -2.7300 -1.5071  1.2673
 2824SOL    HW311069   5.198   0.509   4.161  0.6867  0.3497  0.5573
 2824SOL    MW411070   5.166   0.585   4.135  0.1799 -0.0313  0.0353
 2825SOL     OW11071   3.271   3.469   5.646  0.4787 -0.4271 -0.0869
 2825SOL    HW211072   3.278   3.514   5.730  0.8501 -1.2587  0.3383
 2825SOL    HW311073   3.178   3.452   5.635  0.5067 -0.9833  0.5174
 2825SOL    MW411074   3.260   3.473   5.655  0.5314 -0.6102  0.0489
 2826SOL     OW11075   5.603   5.088   2.365  0.3771 -0.3948  0.2424
 2826SOL    HW211076   5.674   5.025   2.359  0.0873 -0.8674  1.6190
 2826SOL    HW311077   5.590   5.103   2.459 -1.8395 -0.8982  0.0846
 2826SOL    MW411078   5.610   5.082   2.376  0.0464 -0.5236  0.4032
 2827SOL     OW11079   3.271   1.516   2.176 -0.0097  0.3775 -0.6337
 2827SOL    HW211080   3.178   1.538   2.183 -0.0825 -0.1666  0.4657
 2827SOL    HW311081   3.275   1.425   2.206  1.0644  0.8507  0.7490
 2827SOL    MW411082   3.259   1.507   2.181  0.1224  0.3681 -0.3062
 2828SOL     OW11083   0.230   1.316   5.724 -0.6513  0.3850  0.3158
 2828SOL    HW211084   0.214   1.387   5.662 -0.0706  0.6079  0.4125
 2828SOL    HW311085   0.262   1.361   5.803 -1.3665  0.1051  0.7716
 2828SOL    MW411086   0.232   1.332   5.727 -0.6691  0.3775  0.3887
 2829SOL     OW11087   6.010   5.418   4.200  0.7951 -0.7993 -0.2623
 2829SOL    HW211088   5.923   5.444   4.232  0.2935 -1.4299 -1.0655
 2829SOL    HW311089   5.995   5.395   4.108  2.0206  0.0952 -0.7039
 2829SOL    MW411090   5.996   5.419   4.192  0.8906 -0.7645 -0.4265
 2830SOL     OW11091   1.799   3.813   3.038 -0.0476  0.0070  0.5849
 2830SOL    HW211092   1.839   3.769   2.963 -0.6016 -0.7997  0.7514
 2830SOL    HW311093   1.706   3.819   3.015 -0.0942  0.4573  0.8803
 2830SOL    MW411094   1.792   3.808   3.025 -0.1269 -0.0400  0.6458
 2831SOL     OW11095   0.367   2.760   0.800  0.1000 -0.1577  0.1876
 2831SOL    HW211096   0.458   2.751   0.830  0.8141  1.4908 -1.3032
 2831SOL    HW311097   0.363   2.848   0.763 -1.9472 -0.4464 -0.3765
 2831SOL    MW411098   0.379   2.770   0.799 -0.0759  0.0217 -0.0835
 2832SOL     OW11099   0.539   2.251   5.975  0.0429 -0.0816  0.0409
 2832SOL    HW211100   0.583   2.310   5.914 -0.4864  0.2427 -0.0434
 2832SOL    HW311101   0.598   2.177   5.984  0.1541 -0.1134 -0.8317
 2832SOL    MW411102   0.552   2.249   5.968 -0.0123 -0.0430 -0.0853
 2833SOL     OW11103   5.345   5.443   0.931  1.0289 -0.3244 -0.1575
 2833SOL    HW211104   5.270   5.494   0.962  1.6695 -0.4483  1.7305
 2833SOL    HW311105   5.396   5.504   0.879  0.5059  0.2527 -0.0060
 2833SOL    MW411106   5.342   5.458   0.928  1.0444 -0.2646  0.1116
 2834SOL     OW11107   6.372   4.670   0.406 -0.4582 -0.2997  0.2552
 2834SOL    HW211108   6.279   4.664   0.428 -0.3935 -0.7040  0.4304
 2834SOL    HW311109   6.416   4.622   0.476 -0.1122 -0.0488  0.2093
 2834SOL    MW411110   6.365   4.663   0.418 -0.4040 -0.3199  0.2723
 2835SOL     OW11111   5.286   5.868   3.595  0.1085 -0.3811 -0.1860
 2835SOL    HW211112   5.341   5.851   3.518 -2.3523 -0.5889 -2.0494
 2835SOL    HW311113   5.222   5.932   3.565 -0.2251  0.4517  2.1034
 2835SOL    MW411114   5.284   5.874   3.581 -0.2602 -0.2987 -0.1298
 2836SOL     OW11115   2.300   0.848   4.481 -0.6060  0.4000  0.4809
 2836SOL    HW211116   2.249   0.856   4.400 -3.6172 -1.1692  2.0488
 2836SOL    HW311117   2.368   0.784   4.460 -1.6263 -0.3634 -0.7050
 2836SOL    MW411118   2.302   0.841   4.467 -1.1379  0.0923  0.5313
 2837SOL     OW11119   2.805   1.793   0.580  0.2148  0.1692  0.4790
 2837SOL    HW211120   2.725   1.813   0.629 -0.1511 -0.3406  0.0964
 2837SOL    HW311121   2.775   1.743   0.503  0.6322  1.8615 -0.8580
 2837SOL    MW411122   2.790   1.789   0.576  0.2216  0.3252  0.2521
 2838SOL     OW11123   4.495   0.211   0.055 -0.3277 -0.7061  0.5036
 2838SOL    HW211124   4.477   0.213   0.149 -2.3171 -1.7261  0.1905
 2838SOL    HW311125   4.432   0.272   0.017  0.4535 -0.3081 -0.1988
 2838SOL    MW411126   4.484   0.219   0.063 -0.4871 -0.7882  0.3696
 2839SOL     OW11127   2.877   2.851   1.931  0.2078 -0.4352  0.3024
 2839SOL    HW211128   2.927   2.822   2.007  0.8467 -0.9390 -0.2978
 2839SOL    HW311129   2.926   2.818   1.856 -0.1909  0.4033 -0.3421
 2839SOL    MW411130   2.890   2.843   1.931  0.2395 -0.3911  0.1381
 2840SOL     OW11131   5.535   2.520   5.046 -0.3194 -0.1025  0.4056
 2840SOL    HW211132   5.554   2.454   5.114 -2.2312 -0.6588  0.4646
 2840SOL    HW311133   5.555   2.603   5.088  1.1399 -0.5690  0.6956
 2840SOL    MW411134   5.540   2.522   5.061 -0.3791 -0.2374  0.4516
 2841SOL     OW11135   0.252   3.198   2.560 -0.0215 -0.1773 -0.0827
 2841SOL    HW211136   0.346   3.208   2.571  0.1030  0.2390 -1.3297
 2841SOL    HW311137   0.213   3.250   2.629  0.6683  1.1911 -0.6882
 2841SOL    MW411138   0.259   3.206   2.570  0.0860  0.0581 -0.3272
 2842SOL     OW11139   6.174   3.059   2.022 -0.0628  0.0155  0.0472
 2842SOL    HW211140   6.126   3.011   2.090 -0.1010  0.7236  0.5341
 2842SOL    HW311141   6.158   3.010   1.942 -0.4182 -0.5639  0.4642
 2842SOL    MW411142   6.165   3.046   2.021 -0.1147  0.0325  0.1664
 2843SOL     OW11143   1.379   3.266   0.264  0.4556  0.6825  0.3657
 2843SOL    HW211144   1.472   3.266   0.240  0.3831  2.4333 -0.0035
 2843SOL    HW311145   1.333   3.283   0.182 -0.0176  2.5942  0.9733
 2843SOL    MW411146   1.385   3.268   0.250  0.3836  1.1657  0.3971
 2844SOL     OW11147   1.426   4.340   5.827  0.0889  0.0605  0.0478
 2844SOL    HW211148   1.400   4.267   5.884 -1.6631 -0.2215 -1.0234
 2844SOL    HW311149   1.418   4.418   5.881  3.4477 -0.5587  1.6881
 2844SOL    MW411150   1.421   4.340   5.842  0.3009 -0.0584  0.1229
 2845SOL     OW11151   1.275   3.519   3.033 -0.0271  0.4016  0.4281
 2845SOL    HW211152   1.267   3.499   3.126  0.6569  1.3767  0.7044
 2845SOL    HW311153   1.300   3.611   3.030  1.9605 -0.1154 -0.6451
 2845SOL    MW411154   1.277   3.528   3.045  0.3254  0.4620  0.3229
 2846SOL     OW11155   4.579   4.282   4.628 -0.2285  0.0873 -0.1433
 2846SOL    HW211156   4.490   4.265   4.657 -0.0051  0.4807  0.7934
 2846SOL    HW311157   4.593   4.375   4.646  0.3603  0.0370 -0.3169
 2846SOL    MW411158   4.569   4.292   4.634 -0.1213  0.1326 -0.0426
 2847SOL     OW11159   1.370   1.296   1.674  0.3408  0.3243  0.2296
 2847SOL    HW211160   1.438   1.345   1.628  1.6013  0.1304  1.7763
 2847SOL    HW311161   1.394   1.204   1.663 -0.1012  0.2139  0.1554
 2847SOL    MW411162   1.382   1.290   1.666  0.4488  0.2841  0.4239
 2848SOL     OW11163   6.225   2.196   6.120 -0.7480 -0.7394  0.1540
 2848SOL    HW211164   6.244   2.244   6.038 -0.1498 -1.1168  0.0631
 2848SOL    HW311165   6.136   2.164   6.109 -0.3816 -1.5180 -0.7318
 2848SOL    MW411166   6.216   2.198   6.107 -0.6207 -0.8919  0.0251
 2849SOL     OW11167   4.882   0.237   4.803  0.5858 -0.0000  0.3870
 2849SOL    HW211168   4.888   0.332   4.814 -0.6766  0.5512 -2.7086
 2849SOL    HW311169   4.952   0.216   4.742  0.2279 -0.9205  0.2796
 2849SOL    MW411170   4.892   0.247   4.797  0.3721 -0.0488 -0.0356
 2850SOL     OW11171   3.578   2.000   2.139  0.4233 -0.0914 -1.1360
 2850SOL    HW211172   3.643   1.952   2.089  0.3469 -2.1083  0.5394
 2850SOL    HW311173   3.495   1.956   2.119 -0.0264  0.7826 -1.2487
 2850SOL    MW411174   3.575   1.988   2.130  0.3539 -0.2421 -0.9298
 2851SOL     OW11175   0.359   3.565   2.835 -0.1570  0.6196 -0.1691
 2851SOL    HW211176   0.376   3.597   2.747  0.9229  0.6689  0.0405
 2851SOL    HW311177   0.351   3.644   2.888  2.9363  0.6728  0.4278
 2851SOL    MW411178   0.360   3.579   2.831  0.3936  0.6331 -0.0627
 2852SOL     OW11179   0.336   5.314   5.560 -0.2774  0.4250  0.3495
 2852SOL    HW211180   0.280   5.391   5.558 -1.8465 -0.6862 -0.9086
 2852SOL    HW311181   0.392   5.323   5.482  0.2726  0.8017  0.7847
 2852SOL    MW411182   0.336   5.326   5.549 -0.4119  0.3281  0.2410
 2853SOL     OW11183   3.333   0.318   3.282 -0.1063 -0.3263 -0.6708
 2853SOL    HW211184   3.300   0.248   3.337  0.5770 -0.4815 -0.4543
 2853SOL    HW311185   3.270   0.324   3.210 -1.7117  0.7039  0.7328
 2853SOL    MW411186   3.320   0.310   3.280 -0.2280 -0.2108 -0.4570
 2854SOL     OW11187   1.221   1.190   0.173 -0.0144  0.1743  0.1019
 2854SOL    HW211188   1.126   1.181   0.177 -0.2240  1.7071 -0.6149
 2854SOL    HW311189   1.246   1.146   0.091 -0.3895  1.5379 -0.7768
 2854SOL    MW411190   1.212   1.183   0.162 -0.0916  0.5565 -0.1086
 2855SOL     OW11191   2.775   2.732   5.901 -0.1374  0.2974  0.3525
 2855SOL    HW211192   2.690   2.687   5.893  0.4191 -0.9775  1.2553
 2855SOL    HW311193   2.822   2.682   5.968  1.0344  1.4651  0.4397
 2855SOL    MW411194   2.770   2.719   5.909  0.0906  0.2833  0.4831
 2856SOL     OW11195   6.317   4.549   2.855  0.3611 -0.1866  0.5930
 2856SOL    HW211196   6.228   4.581   2.842  0.2575 -0.9482 -0.7554
 2856SOL    HW311197   6.307   4.459   2.886  0.6141 -0.9547 -1.4084
 2856SOL    MW411198   6.304   4.542   2.857  0.3808 -0.3885  0.1510
 2857SOL     OW11199   0.166   5.273   0.742  0.0690  0.2344 -0.2284
 2857SOL    HW211200   0.122   5.346   0.786  0.5607  0.6711 -0.4537
 2857SOL    HW311201   0.255   5.273   0.776  0.1059 -0.1967 -0.3106
 2857SOL    MW411202   0.172   5.282   0.752  0.1387  0.2352 -0.2690
 2858SOL     OW11203   2.708   4.433   2.908  0.2114  0.3844 -0.2046
 2858SOL    HW211204   2.639   4.375   2.938 -0.8767  1.1083 -1.2299
 2858SOL    HW311205   2.746   4.388   2.832  2.5724 -1.1708  1.7441
 2858SOL    MW411206   2.704   4.420   2.902  0.3793  0.2747 -0.0828
 2859SOL     OW11207   5.505   2.904   2.982  0.3436 -0.3207  0.3952
 2859SOL    HW211208   5.546   2.853   3.052  1.1729  1.5432  1.3124
 2859SOL    HW311209   5.438   2.956   3.026  1.1961  1.2342 -0.0840
 2859SOL    MW411210   5.501   2.904   2.997  0.5655  0.1303  0.4530
 2860SOL     OW11211   4.087   6.224   4.066 -0.3743 -0.0725 -0.1780
 2860SOL    HW211212   4.022   6.177   4.118 -0.1941  0.1545  0.2580
 2860SOL    HW311213   4.166   6.224   4.120  0.0693 -0.5550 -0.8013
 2860SOL    MW411214   4.089   6.218   4.080 -0.2920 -0.1063 -0.2027
 2861SOL     OW11215   0.945   3.422   0.962  0.0074 -0.2045 -0.4415
 2861SOL    HW211216   1.002   3.355   0.924  2.8993  1.0937  1.2036
 2861SOL    HW311217   0.958   3.413   1.057 -0.4671  1.8648 -0.1268
 2861SOL    MW411218   0.954   3.412   0.970  0.3264  0.2398 -0.1829
 2862SOL     OW11219   2.514   1.393   1.467 -0.1495 -1.3051 -0.3029
 2862SOL    HW211220   2.453   1.431   1.404  0.5138 -0.7555 -0.6278
 2862SOL    HW311221   2.570   1.336   1.414  0.6959 -0.5015 -0.3048
 2862SOL    MW411222   2.514   1.391   1.451  0.0496 -1.1266 -0.3460
 2863SOL     OW11223   2.663   5.871   1.434  0.0308  0.4246  0.8514
 2863SOL    HW211224   2.608   5.932   1.482  0.7787  1.7420  0.0839
 2863SOL    HW311225   2.603   5.825   1.376 -0.4700  0.7990  1.0614
 2863SOL    MW411226   2.648   5.873   1.433  0.0634  0.6478  0.7779
 2864SOL     OW11227   4.178   0.887   0.152 -0.4043 -0.1243  0.0424
 2864SOL    HW211228   4.210   0.838   0.076  1.7805  0.1391  0.7189
 2864SOL    HW311229   4.171   0.977   0.120  0.8922  0.0568  0.2236
 2864SOL    MW411230   4.181   0.892   0.137  0.0550 -0.0656  0.1556
 2865SOL     OW11231   0.819   6.255   0.648  0.1762  0.6282  0.2474
 2865SOL    HW211232   0.807   6.344   0.682  1.7442 -0.0463  2.7832
 2865SOL    HW311233   0.908   6.231   0.674  0.2330 -1.2780 -1.4536
 2865SOL    MW411234   0.829   6.264   0.656  0.3906  0.2877  0.3575
 2866SOL     OW11235   2.031   0.127   1.807  0.1595 -0.5359  0.4008
 2866SOL    HW211236   1.951   0.141   1.755  0.1636 -0.5477  0.3914
 2866SOL    HW311237   2.046   0.033   1.803  0.4284 -0.4831  0.0214
 2866SOL    MW411238   2.022   0.117   1.799  0.1955 -0.5305  0.3495
 2867SOL     OW11239   2.678   5.565   0.732  0.6266 -0.1577  0.5185
 2867SOL    HW211240   2.713   5.484   0.769  0.8661  0.5218  1.8328
 2867SOL    HW311241   2.585   5.548   0.720  1.1170 -1.6515 -2.0969
 2867SOL    MW411242   2.671   5.552   0.735  0.7229 -0.2651  0.3468
 2868SOL     OW11243   4.917   4.901   4.196  0.0034  0.5369  0.3482
 2868SOL    HW211244   4.901   4.810   4.170 -2.0088  0.6391  1.0941
 2868SOL    HW311245   4.839   4.949   4.167  0.0325  1.6062  1.9090
 2868SOL    MW411246   4.905   4.895   4.189 -0.2582  0.6915  0.6525
 2869SOL     OW11247   2.582   6.277   4.905  0.5431  0.0541  0.0332
 2869SOL    HW211248   2.646   6.341   4.936  0.5575 -0.8014  1.8700
 2869SOL    HW311249   2.589   6.203   4.965 -1.7894 -0.2988 -0.0030
 2869SOL    MW411250   2.591   6.276   4.917  0.2372 -0.1053  0.2708
 2870SOL     OW11251   1.134   5.701   5.541 -0.1642 -0.3480  0.3556
 2870SOL    HW211252   1.064   5.661   5.592  0.5091 -1.2453  0.5949
 2870SOL    HW311253   1.206   5.713   5.603 -0.4961  1.6976  0.4111
 2870SOL    MW411254   1.135   5.697   5.556 -0.1192 -0.1965  0.3945
 2871SOL     OW11255   6.128   4.008   4.520  0.1349 -0.1862  0.0951
 2871SOL    HW211256   6.057   3.989   4.581  1.8271 -1.5085  1.8010
 2871SOL    HW311257   6.105   3.961   4.440  0.1002 -2.4986  1.3809
 2871SOL    MW411258   6.116   3.999   4.518  0.3536 -0.6657  0.4898
 2872SOL     OW11259   5.114   5.043   4.891  0.1099 -0.5117  0.4592
 2872SOL    HW211260   5.172   5.098   4.838 -1.4319 -1.2239 -2.1187
 2872SOL    HW311261   5.047   5.104   4.924  0.0132 -0.3753  0.0125
 2872SOL    MW411262   5.113   5.058   4.889 -0.1063 -0.5877  0.0601
 2873SOL     OW11263   3.869   2.155   1.236  0.3704  0.8215  0.4355
 2873SOL    HW211264   3.833   2.226   1.290  1.5876  0.7066  1.4555
 2873SOL    HW311265   3.962   2.176   1.228  0.0012  1.6834 -3.0459
 2873SOL    MW411266   3.877   2.167   1.242  0.4823  0.9201  0.1108
 2874SOL     OW11267   0.223   1.473   3.195 -0.2484  0.0648  0.0819
 2874SOL    HW211268   0.306   1.513   3.170  0.4728 -1.2822  0.2267
 2874SOL    HW311269   0.188   1.438   3.113  0.0296 -0.5973  0.2372
 2874SOL    MW411270   0.230   1.473   3.181 -0.1166 -0.2003  0.1215
 2875SOL     OW11271   1.841   2.704   1.293 -0.2060  0.2142 -0.0997
 2875SOL    HW211272   1.746   2.702   1.287 -0.1505  0.1055 -1.3379
 2875SOL    HW311273   1.861   2.784   1.341 -0.9136  0.5156 -0.2946
 2875SOL    MW411274   1.831   2.714   1.299 -0.2920  0.2396 -0.2888
 2876SOL     OW11275   5.554   4.946   1.832  0.0764 -0.2197 -0.0697
 2876SOL    HW211276   5.551   5.030   1.877 -0.8690 -1.3196  2.0543
 2876SOL    HW311277   5.477   4.946   1.775  0.9540  0.9325 -1.3389
 2876SOL    MW411278   5.543   4.957   1.830  0.0674 -0.2128  0.0431
 2877SOL     OW11279   1.489   2.151   0.840 -0.5517 -0.5748  0.1543
 2877SOL    HW211280   1.570   2.130   0.793 -1.1885 -0.4405 -1.0476
 2877SOL    HW311281   1.420   2.111   0.787 -1.5023  1.6180 -0.3386
 2877SOL    MW411282   1.490   2.143   0.827 -0.7612 -0.2678 -0.0693
 2878SOL     OW11283   4.023   3.733   5.947  0.0598  0.3022 -0.0733
 2878SOL    HW211284   4.024   3.796   5.875  0.7944  0.0071 -0.3363
 2878SOL    HW311285   4.024   3.647   5.905 -1.0261  0.1053  0.2814
 2878SOL    MW411286   4.023   3.730   5.932  0.0135  0.2373 -0.0612
 2879SOL     OW11287   5.175   5.369   1.480 -0.2888 -0.2845 -0.5953
 2879SOL    HW211288   5.100   5.349   1.536  1.6979 -2.9978  1.3465
 2879SOL    HW311289   5.228   5.429   1.532 -0.8026  1.2928 -1.7917
 2879SOL    MW411290   5.172   5.374   1.494 -0.0945 -0.4343 -0.4970
 2880SOL     OW11291   5.106   3.499   2.625 -0.0271 -0.0576 -0.2032
 2880SOL    HW211292   5.070   3.448   2.698  0.7085  0.9414  0.8853
 2880SOL    HW311293   5.130   3.433   2.560  1.2333 -1.1803  1.3165
 2880SOL    MW411294   5.104   3.483   2.626  0.2363 -0.0739  0.1409
 2881SOL     OW11295   1.529   1.803   0.697  0.3146 -0.5750 -0.0259
 2881SOL    HW211296   1.568   1.822   0.782  1.5537  0.1203 -0.7114
 2881SOL    HW311297   1.592   1.839   0.634 -1.0100 -0.2660 -1.2142
 2881SOL    MW411298   1.543   1.810   0.700  0.3033 -0.4425 -0.2731
 2882SOL     OW11299   0.703   1.308   6.027  0.0437  0.1368 -0.3379
 2882SOL    HW211300   0.712   1.337   5.936  1.7971  0.5103 -0.0836
 2882SOL    HW311301   0.788   1.268   6.048 -0.6399 -0.7503  0.8686
 2882SOL    MW411302   0.716   1.306   6.018  0.1848  0.0690 -0.1451
 2883SOL     OW11303   2.251   5.858   4.317 -0.1576  0.0670  0.1472
 2883SOL    HW211304   2.175   5.839   4.371  0.2034 -2.6632 -0.1783
 2883SOL    HW311305   2.227   5.826   4.229  0.1618  2.2232 -0.7876
 2883SOL    MW411306   2.238   5.851   4.312 -0.0679 -0.0088 -0.0191
 2884SOL     OW11307   1.748   3.406   6.361 -0.1731  0.0045 -0.7658
 2884SOL    HW211308   1.789   3.362   6.286 -0.9008  0.6554 -1.5679
 2884SOL    HW311309   1.666   3.359   6.375  0.6680 -1.1277  0.6709
 2884SOL    MW411310   1.743   3.394   6.353 -0.1581 -0.0590 -0.6820
 2885SOL     OW11311   2.683   5.303   1.602 -0.0066  0.2717 -0.2029
 2885SOL    HW211312   2.740   5.344   1.537  2.4644 -0.9290  1.0374
 2885SOL    HW311313   2.667   5.371   1.667  0.1127  0.5977 -0.5130
 2885SOL    MW411314   2.688   5.317   1.602  0.3351  0.1563 -0.0801
 2886SOL     OW11315   0.891   1.469   1.794 -0.1019 -0.5317  0.1391
 2886SOL    HW211316   0.801   1.500   1.805 -0.9000 -2.2018 -1.0928
 2886SOL    HW311317   0.909   1.482   1.701  0.4339 -1.3819  0.1087
 2886SOL    MW411318   0.882   1.474   1.783 -0.1365 -0.8642 -0.0275
 2887SOL     OW11319   0.221   2.136   5.470 -0.3437 -0.6387 -0.5855
 2887SOL    HW211320   0.145   2.148   5.413 -1.5329 -0.7033  0.9249
 2887SOL    HW311321   0.193   2.070   5.534 -0.0002  1.2636  1.6356
 2887SOL    MW411322   0.207   2.129   5.470 -0.4553 -0.3962 -0.0931
 2888SOL     OW11323   5.167   3.287   1.143  0.2688 -0.0439  0.1186
 2888SOL    HW211324   5.205   3.321   1.062 -0.5849  2.2618  0.6146
 2888SOL    HW311325   5.175   3.359   1.206 -2.0693 -0.5678  1.1254
 2888SOL    MW411326   5.173   3.301   1.141 -0.1523  0.1912  0.3169
 2889SOL     OW11327   0.671   3.385   6.365  0.8730  0.0895 -0.1104
 2889SOL    HW211328   0.730   3.453   6.397  1.1473 -0.6538  1.0452
 2889SOL    HW311329   0.586   3.428   6.357  0.3745  0.0209  3.2761
 2889SOL    MW411330   0.667   3.400   6.368  0.8434 -0.0176  0.4889
 2890SOL     OW11331   3.889   3.233   1.043 -0.4103  0.6556  0.1138
 2890SOL    HW211332   3.970   3.191   1.015  0.2707  1.2263  1.1688
 2890SOL    HW311333   3.853   3.174   1.109  0.0221  1.2154  0.8611
 2890SOL    MW411334   3.895   3.219   1.048 -0.2634  0.8048  0.3516
 2891SOL     OW11335   3.788   1.882   3.960  0.1947 -0.1827 -0.5471
 2891SOL    HW211336   3.755   1.969   3.984  1.6976 -0.1435  1.7268
 2891SOL    HW311337   3.867   1.900   3.909  0.7555 -0.1919  0.3071
 2891SOL    MW411338   3.794   1.896   3.957  0.4670 -0.1787 -0.1344
 2892SOL     OW11339   0.167   2.402   0.932  0.0119 -0.0539  0.0129
 2892SOL    HW211340   0.245   2.454   0.913 -1.4477  2.9568  1.5919
 2892SOL    HW311341   0.184   2.362   1.017 -0.1332  0.5313  0.3176
 2892SOL    MW411342   0.180   2.403   0.941 -0.1998  0.4205  0.2614
 2893SOL     OW11343   1.649   1.782   5.691 -0.0917 -0.3990 -0.6937
 2893SOL    HW211344   1.602   1.755   5.612 -1.1300  1.8230 -0.9311
 2893SOL    HW311345   1.648   1.878   5.688  0.5574 -0.2421  1.6190
 2893SOL    MW411346   1.643   1.791   5.680 -0.1431 -0.0851 -0.4199
 2894SOL     OW11347   5.712   6.020   2.877 -0.3953 -0.4022  0.6191
 2894SOL    HW211348   5.681   6.045   2.790  0.4487  0.3504  0.5199
 2894SOL    HW311349   5.636   6.032   2.934 -0.2582  1.7331  0.4434
 2894SOL    MW411350   5.698   6.025   2.873 -0.2658 -0.0212  0.5828
 2895SOL     OW11351   4.659   2.758   4.508 -0.1302 -0.2065  0.1471
 2895SOL    HW211352   4.624   2.842   4.538 -2.1734 -0.2246 -1.9995
 2895SOL    HW311353   4.614   2.693   4.562 -1.3160 -0.0755 -0.6535
 2895SOL    MW411354   4.649   2.761   4.519 -0.5563 -0.1916 -0.2417
 2896SOL     OW11355   4.893   2.709   2.636 -0.3298 -0.7926 -0.2139
 2896SOL    HW211356   4.934   2.741   2.716 -0.1448 -1.2517 -0.1219
 2896SOL    HW311357   4.806   2.679   2.663 -1.0083  0.8083 -0.5295
 2896SOL    MW411358   4.887   2.709   2.650 -0.3949 -0.6420 -0.2434
 2897SOL     OW11359   5.131   1.496   2.202  0.1993  0.3229  0.5798
 2897SOL    HW211360   5.145   1.427   2.137 -0.8774  0.6045  0.0297
 2897SOL    HW311361   5.185   1.470   2.276  4.0562  1.5724 -1.4690
 2897SOL    MW411362   5.140   1.484   2.203  0.5662  0.5249  0.2369
 2898SOL     OW11363   4.325   0.505   0.720  0.0878  0.2010 -0.0597
 2898SOL    HW211364   4.377   0.444   0.667  0.1273  0.5871 -0.4694
 2898SOL    HW311365   4.264   0.449   0.768 -0.6655 -0.0818 -1.2999
 2898SOL    MW411366   4.324   0.489   0.719 -0.0064  0.2146 -0.2774
 2899SOL     OW11367   6.291   0.892   3.428  0.6854  0.7269 -0.0874
 2899SOL    HW211368   6.272   0.838   3.506  2.9103 -0.0979 -0.0441
 2899SOL    HW311369   6.205   0.913   3.393 -0.3607  0.0464  1.8779
 2899SOL    MW411370   6.277   0.887   3.434  0.8409  0.5283  0.1776
 2900SOL     OW11371   6.337   0.809   4.703 -0.3617  0.1261 -0.3458
 2900SOL    HW211372   6.424   0.796   4.741 -0.2165  2.5058  0.2679
 2900SOL    HW311373   6.324   0.732   4.648  1.2021 -1.3700  1.2222
 2900SOL    MW411374   6.347   0.797   4.701 -0.1362  0.2427 -0.0579
 2901SOL     OW11375   3.395   3.686   5.206 -0.2901 -0.1726  0.0371
 2901SOL    HW211376   3.468   3.747   5.216  0.7119 -0.9421 -2.1649
 2901SOL    HW311377   3.428   3.603   5.240  0.3548 -0.8201 -2.0283
 2901SOL    MW411378   3.409   3.684   5.212 -0.0728 -0.3596 -0.5259
 2902SOL     OW11379   1.731   2.826   3.491  0.0169 -0.0780  0.4875
 2902SOL    HW211380   1.740   2.735   3.461  1.3406  0.3241 -0.3971
 2902SOL    HW311381   1.669   2.820   3.565 -0.2192 -1.6356  0.2093
 2902SOL    MW411382   1.724   2.813   3.497  0.1604 -0.2305  0.3341
 2903SOL     OW11383   4.308   0.487   0.317  0.2379  0.5195 -0.6462
 2903SOL    HW211384   4.394   0.510   0.351  1.0902 -1.3150 -1.4551
 2903SOL    HW311385   4.299   0.393   0.334 -1.6347  0.6627 -0.5607
 2903SOL    MW411386   4.318   0.478   0.324  0.1033  0.2963 -0.7416
 2904SOL     OW11387   3.640   0.888   6.322  0.0073  0.8063 -0.2321
 2904SOL    HW211388   3.608   0.926   6.404  0.1628 -0.5809  0.5169
 2904SOL    HW311389   3.724   0.930   6.307 -0.4138  1.6977 -0.1497
 2904SOL    MW411390   3.647   0.899   6.331 -0.0278  0.7409 -0.1224
 2905SOL     OW11391   0.971   2.200   2.987 -0.4715  0.2393 -0.1999
 2905SOL    HW211392   0.938   2.253   3.060  0.1919  1.9832 -1.1067
 2905SOL    HW311393   1.019   2.262   2.932  2.9729 -1.8188  0.1843
 2905SOL    MW411394   0.973   2.216   2.989  0.0705  0.1979 -0.2688
 2906SOL     OW11395   4.166   6.322   0.015 -0.2680  0.3584 -0.2963
 2906SOL    HW211396   4.107   6.379  -0.034 -2.0308  0.6123  1.9243
 2906SOL    HW311397   4.117   6.241   0.028  0.8790 -0.3955 -0.5014
 2906SOL    MW411398   4.152   6.319   0.011 -0.3492  0.2925 -0.0303
 2907SOL     OW11399   2.815   0.952   2.720 -0.6893 -0.0062 -0.5835
 2907SOL    HW211400   2.759   1.009   2.667 -3.2238  0.5566  2.3977
 2907SOL    HW311401   2.763   0.872   2.733  0.6954 -0.9316 -0.5468
 2907SOL    MW411402   2.801   0.949   2.714 -0.8410 -0.0540 -0.1854
 2908SOL     OW11403   4.388   5.102   4.595  0.2970 -0.0847  0.6820
 2908SOL    HW211404   4.333   5.168   4.636  0.9447  0.5886  0.4983
 2908SOL    HW311405   4.465   5.151   4.565 -0.8677 -0.1504 -2.8766
 2908SOL    MW411406   4.391   5.117   4.596  0.2288 -0.0046  0.1883
 2909SOL     OW11407   5.213   2.939   5.566 -0.0095  0.0867 -0.5068
 2909SOL    HW211408   5.235   2.933   5.473  1.5962 -1.2079 -0.0985
 2909SOL    HW311409   5.269   3.010   5.598 -0.1544  0.1624 -0.4225
 2909SOL    MW411410   5.224   2.948   5.558  0.1832 -0.0741 -0.4418
 2910SOL     OW11411   0.033   1.084   1.885 -0.2694  0.0394  0.0478
 2910SOL    HW211412   0.082   1.077   1.803  1.9930 -0.4480  1.3553
 2910SOL    HW311413   0.061   1.007   1.935 -2.0551  0.0174  1.0823
 2910SOL    MW411414   0.043   1.073   1.880 -0.2065 -0.0278  0.3568
 2911SOL     OW11415   3.399   1.889   1.275 -0.3718 -0.2059  0.4720
 2911SOL    HW211416   3.374   1.915   1.363 -1.2213  0.0561  0.1591
 2911SOL    HW311417   3.495   1.901   1.273 -0.6374  2.8094  0.4227
 2911SOL    MW411418   3.409   1.894   1.286 -0.5189  0.2265  0.4242
 2912SOL     OW11419   4.051   3.758   3.785 -0.4210  0.3020 -0.0995
 2912SOL    HW211420   4.133   3.801   3.762  0.1644 -0.2448  0.8655
 2912SOL    HW311421   4.010   3.817   3.849  0.6815 -0.7765  1.7074
 2912SOL    MW411422   4.056   3.771   3.791 -0.1983  0.0875  0.2662
 2913SOL     OW11423   0.980   6.197   1.482  0.3636  0.5349  0.3004
 2913SOL    HW211424   1.016   6.285   1.471  0.1565  0.5859  0.0222
 2913SOL    HW311425   1.054   6.144   1.513  1.0648  0.3266 -1.5578
 2913SOL    MW411426   0.995   6.201   1.484  0.4288  0.5141  0.0186
 2914SOL     OW11427   0.135   4.631   5.417 -0.7619  0.7193  0.0731
 2914SOL    HW211428   0.221   4.656   5.384 -0.5379  0.3512  0.3687
 2914SOL    HW311429   0.140   4.646   5.512 -0.7731  0.0026  0.1939
 2914SOL    MW411430   0.147   4.637   5.426 -0.7338  0.5762  0.1281
 2915SOL     OW11431   4.872   3.287   5.746  0.8749  0.4632  0.0566
 2915SOL    HW211432   4.844   3.261   5.658  1.9119  0.6761 -0.3443
 2915SOL    HW311433   4.799   3.340   5.779  1.1706  1.7791 -1.3208
 2915SOL    MW411434   4.859   3.290   5.739  1.0508  0.6649 -0.1780
 2916SOL     OW11435   2.030   3.491   3.035 -0.1363 -0.1111 -0.4759
 2916SOL    HW211436   2.099   3.542   2.993  0.3212 -0.6349 -0.3588
 2916SOL    HW311437   1.974   3.462   2.963  0.3435 -0.5537 -0.6697
 2916SOL    MW411438   2.032   3.494   3.020 -0.0127 -0.2386 -0.4860
 2917SOL     OW11439   0.120   5.208   2.215 -0.5863 -0.3832  0.4902
 2917SOL    HW211440   0.043   5.185   2.163 -0.3986 -0.2880  0.1686
 2917SOL    HW311441   0.090   5.278   2.273 -0.3729  0.6621 -0.6286
 2917SOL    MW411442   0.106   5.214   2.216 -0.5334 -0.2327  0.3002
 2918SOL     OW11443   1.985   0.621   2.077  0.3788 -0.4268 -0.5363
 2918SOL    HW211444   1.903   0.598   2.121  0.6085  1.9452  1.2880
 2918SOL    HW311445   2.020   0.537   2.047  0.0510 -2.2913  3.5940
 2918SOL    MW411446   1.979   0.606   2.079  0.3658 -0.3598  0.2493
 2919SOL     OW11447   3.128   2.553   6.251  0.0817 -0.0568  0.2688
 2919SOL    HW211448   3.108   2.495   6.324  1.4787 -1.5084 -0.4263
 2919SOL    HW311449   3.050   2.550   6.195  0.4868 -2.1515 -0.2680
 2919SOL    MW411450   3.115   2.545   6.253  0.3195 -0.5247  0.1063
 2920SOL     OW11451   1.433   0.809   2.725 -0.3217 -0.6658 -0.5966
 2920SOL    HW211452   1.349   0.778   2.691  0.5076 -0.8406 -2.6645
 2920SOL    HW311453   1.487   0.730   2.731  0.3440 -0.2824 -1.3555
 2920SOL    MW411454   1.429   0.794   2.721 -0.1245 -0.6383 -0.9696
 2921SOL     OW11455   5.484   3.488   2.767 -0.1562  0.3078 -0.4154
 2921SOL    HW211456   5.438   3.404   2.768 -0.8327  0.6157 -2.0836
 2921SOL    HW311457   5.497   3.507   2.674  1.7458  1.1239 -0.0323
 2921SOL    MW411458   5.480   3.480   2.755  0.0055  0.4561 -0.5849
 2922SOL     OW11459   5.547   2.695   5.581 -0.6296 -0.5854 -0.3000
 2922SOL    HW211460   5.579   2.783   5.560  1.0864 -1.4727 -1.6236
 2922SOL    HW311461   5.601   2.666   5.654 -0.1085 -1.1281 -0.8915
 2922SOL    MW411462   5.558   2.703   5.588 -0.3344 -0.7740 -0.5527
 2923SOL     OW11463   0.303   3.160   0.502  0.4037  0.6550 -0.6646
 2923SOL    HW211464   0.342   3.247   0.508  0.3216  0.6651 -0.2484
 2923SOL    HW311465   0.376   3.100   0.519  0.0967  0.6910  0.9718
 2923SOL    MW411466   0.318   3.164   0.505  0.3523  0.6611 -0.3938
 2924SOL     OW11467   6.160   4.376   2.183  0.5840 -0.3323 -0.1965
 2924SOL    HW211468   6.088   4.367   2.246  0.2991 -0.7843 -0.5729
 2924SOL    HW311469   6.231   4.415   2.232  0.7446 -1.6960  0.7067
 2924SOL    MW411470   6.160   4.380   2.197  0.5676 -0.5719 -0.1270
 2925SOL     OW11471   6.229   1.070   5.831  0.3399 -0.0959 -0.0705
 2925SOL    HW211472   6.248   1.096   5.921  0.2601 -0.2378 -0.0114
 2925SOL    HW311473   6.207   0.977   5.838 -1.2716  0.2617 -0.0055
 2925SOL    MW411474   6.228   1.061   5.844  0.1168 -0.0675 -0.0541
 2926SOL     OW11475   4.742   4.552   2.830  0.6613  0.3929 -0.0627
 2926SOL    HW211476   4.804   4.482   2.851  1.3424  1.2360  0.7663
 2926SOL    HW311477   4.732   4.602   2.911 -1.5033 -0.0017 -0.0060
 2926SOL    MW411478   4.749   4.549   2.843  0.4656  0.4521  0.0542
 2927SOL     OW11479   2.848   6.233   3.284 -0.4317  0.1044  0.4222
 2927SOL    HW211480   2.906   6.221   3.359 -0.3826 -1.7115  0.1547
 2927SOL    HW311481   2.819   6.324   3.289  1.1520  0.5826  1.4820
 2927SOL    MW411482   2.851   6.243   3.294 -0.2163 -0.0721  0.5267
 2928SOL     OW11483   1.487   1.786   3.412 -0.1342  0.1979 -0.4969
 2928SOL    HW211484   1.523   1.743   3.335 -0.6786  0.6767 -1.0238
 2928SOL    HW311485   1.424   1.850   3.378 -1.2155 -0.3630  0.3841
 2928SOL    MW411486   1.483   1.789   3.397 -0.3487  0.1871 -0.4501
 2929SOL     OW11487   0.934   3.351   5.807 -0.1916  0.0622 -0.5695
 2929SOL    HW211488   0.872   3.336   5.879 -2.6860 -0.0395 -2.5765
 2929SOL    HW311489   0.979   3.268   5.796  0.7593  0.2845  1.2799
 2929SOL    MW411490   0.932   3.338   5.815 -0.3952  0.0781 -0.5903
 2930SOL     OW11491   4.262   0.298   5.707 -0.1027  0.3971 -0.0056
 2930SOL    HW211492   4.224   0.318   5.622  1.7459 -1.1822 -1.2616
 2930SOL    HW311493   4.319   0.373   5.726  2.4886 -0.8604 -2.0863
 2930SOL    MW411494   4.265   0.311   5.699  0.4831  0.0228 -0.4458
 2931SOL     OW11495   6.109   6.042   2.988 -0.2366 -0.3066 -0.3340
 2931SOL    HW211496   6.098   6.086   3.072 -3.4492  1.9668 -1.7292
 2931SOL    HW311497   6.057   5.962   2.996  0.4331 -0.6933  0.2039
 2931SOL    MW411498   6.101   6.038   3.000 -0.5721 -0.0576 -0.4471
 2932SOL     OW11499   0.351   1.474   2.511  0.4163  0.2050  0.1859
 2932SOL    HW211500   0.330   1.543   2.449  0.1625 -0.1876 -0.1628
 2932SOL    HW311501   0.274   1.467   2.567 -1.1712 -2.3554 -2.0972
 2932SOL    MW411502   0.338   1.482   2.511  0.1734 -0.1846 -0.1613
 2933SOL     OW11503   2.319   5.577   3.419 -0.0763  0.7673  0.0852
 2933SOL    HW211504   2.251   5.637   3.450 -0.6099 -0.6539  1.7860
 2933SOL    HW311505   2.372   5.558   3.496  1.1392  0.3924 -0.8123
 2933SOL    MW411506   2.317   5.583   3.433  0.0136  0.5303  0.1912
 2934SOL     OW11507   5.805   0.768   6.183 -0.7152 -0.0664  0.1687
 2934SOL    HW211508   5.739   0.754   6.115 -2.1413  0.4967  1.3570
 2934SOL    HW311509   5.811   0.683   6.228 -1.0559  0.0219  0.3911
 2934SOL    MW411510   5.797   0.755   6.180 -0.9483  0.0195  0.3548
 2935SOL     OW11511   2.451   6.120   3.847  0.0493 -0.3637  0.2364
 2935SOL    HW211512   2.499   6.061   3.788 -0.3706 -0.9538  0.4833
 2935SOL    HW311513   2.435   6.068   3.925 -4.3997 -1.6017 -1.2198
 2935SOL    MW411514   2.455   6.105   3.849 -0.5931 -0.6049  0.0768
 2936SOL     OW11515   3.229   5.433   6.146  0.3417  0.0128 -0.0376
 2936SOL    HW211516   3.201   5.360   6.200 -1.2255 -1.5093 -2.6756
 2936SOL    HW311517   3.150   5.463   6.102  1.6230  0.3748 -2.2967
 2936SOL    MW411518   3.215   5.427   6.147  0.3040 -0.1403 -0.6837
 2937SOL     OW11519   6.289   0.670   5.601 -0.3085 -0.4629  0.2019
 2937SOL    HW211520   6.252   0.600   5.547  2.0078 -0.5934 -1.3739
 2937SOL    HW311521   6.380   0.644   5.614  0.0072  1.1633  1.5248
 2937SOL    MW411522   6.296   0.657   5.596  0.0388 -0.2656  0.1685
 2938SOL     OW11523   5.385   2.353   5.677 -0.1744 -0.3163 -0.1496
 2938SOL    HW211524   5.300   2.392   5.699 -0.1765 -0.5748  0.3125
 2938SOL    HW311525   5.398   2.285   5.743  0.9921  0.5772  0.5796
 2938SOL    MW411526   5.375   2.349   5.688 -0.0208 -0.2325  0.0076
 2939SOL     OW11527   0.888   4.092   3.538  0.0121  0.3351 -0.0241
 2939SOL    HW211528   0.944   4.114   3.612  1.7423 -1.0830 -0.8337
 2939SOL    HW311529   0.867   4.000   3.550  0.3537  0.0688 -1.2764
 2939SOL    MW411530   0.893   4.083   3.549  0.2855  0.1129 -0.2962
 2940SOL     OW11531   4.005   4.117   3.158 -0.6056 -0.5684 -0.4379
 2940SOL    HW211532   3.956   4.138   3.079 -1.8336  0.8988  0.6363
 2940SOL    HW311533   3.944   4.137   3.230  0.4298 -1.9252  0.8777
 2940SOL    MW411534   3.990   4.123   3.157 -0.6310 -0.5538 -0.1226
 2941SOL     OW11535   4.342   3.248   0.809  0.2419 -0.4121 -0.4541
 2941SOL    HW211536   4.402   3.191   0.760 -2.2434 -2.0385 -1.7978
 2941SOL    HW311537   4.330   3.205   0.893  1.7309  0.5155  0.2846
 2941SOL    MW411538   4.349   3.235   0.813  0.1105 -0.5043 -0.5340
 2942SOL     OW11539   1.444   1.880   6.272  0.5377 -0.1269 -0.4637
 2942SOL    HW211540   1.364   1.828   6.273 -0.4402  1.3420 -0.4806
 2942SOL    HW311541   1.435   1.938   6.196  0.9547  1.0206  0.3302
 2942SOL    MW411542   1.433   1.881   6.262  0.4637  0.2183 -0.3612
 2943SOL     OW11543   2.536   3.378   4.808  0.2288  0.4271 -0.2183
 2943SOL    HW211544   2.622   3.338   4.822 -0.3948 -1.8654 -2.2019
 2943SOL    HW311545   2.506   3.401   4.895  2.5496  0.6814  0.5997
 2943SOL    MW411546   2.544   3.376   4.821  0.4527  0.1582 -0.3721
 2944SOL     OW11547   4.653   4.413   0.510  0.0561  0.0953 -0.3323
 2944SOL    HW211548   4.739   4.451   0.493  0.4314 -1.0670 -1.1133
 2944SOL    HW311549   4.648   4.408   0.605  1.0486 -0.2354 -0.2831
 2944SOL    MW411550   4.664   4.418   0.520  0.2366 -0.1017 -0.4289
 2945SOL     OW11551   2.931   5.323   5.458  0.2875 -0.3600  0.5437
 2945SOL    HW211552   2.963   5.235   5.478  0.3487 -0.1058  1.6229
 2945SOL    HW311553   3.004   5.381   5.480  0.1764 -0.0112  0.0284
 2945SOL    MW411554   2.945   5.319   5.463  0.2809 -0.2805  0.6181
 2946SOL     OW11555   1.838   0.022   2.610  0.8012  0.9183 -0.0528
 2946SOL    HW211556   1.816   0.110   2.640 -0.1805  0.5274  0.4292
 2946SOL    HW311557   1.754  -0.016   2.584  1.2338  0.1848 -0.4352
 2946SOL    MW411558   1.824   0.029   2.610  0.7287  0.7699 -0.0397
 2947SOL     OW11559   3.183   2.829   2.528 -0.6802 -0.3360 -0.5384
 2947SOL    HW211560   3.100   2.793   2.557 -0.7382  0.0968 -0.1619
 2947SOL    HW311561   3.200   2.786   2.444 -0.2750 -1.9585  0.3292
 2947SOL    MW411562   3.174   2.819   2.521 -0.6344 -0.4929 -0.3743
 2948SOL     OW11563   0.052   2.846   0.753 -0.4460  0.7750 -0.7299
 2948SOL    HW211564  -0.040   2.847   0.778 -0.1735 -2.8908  1.2143
 2948SOL    HW311565   0.096   2.896   0.821 -0.8636  1.1254 -0.7159
 2948SOL    MW411566   0.046   2.852   0.766 -0.4651  0.3376 -0.4715
 2949SOL     OW11567   5.797   3.123   4.734  0.4121 -0.0296 -0.3229
 2949SOL    HW211568   5.753   3.205   4.757  1.1553  0.6044 -1.0680
 2949SOL    HW311569   5.810   3.079   4.818 -2.4559 -0.7253 -0.1320
 2949SOL    MW411570   5.793   3.128   4.748  0.1318 -0.0378 -0.3960
 2950SOL     OW11571   3.117   6.237   6.027  0.3467  0.5181  0.0484
 2950SOL    HW211572   3.184   6.207   6.089 -0.6157 -0.7968  0.4913
 2950SOL    HW311573   3.118   6.171   5.958 -0.4842  0.4896  0.0588
 2950SOL    MW411574   3.126   6.224   6.026  0.1101  0.3409  0.1082
 2951SOL     OW11575   5.527   1.029   1.847 -0.2305 -0.5579 -0.3056
 2951SOL    HW211576   5.500   1.113   1.810  0.4501 -0.4650 -0.6214
 2951SOL    HW311577   5.597   1.051   1.909  0.7706 -0.9718 -1.2470
 2951SOL    MW411578   5.533   1.043   1.850 -0.0086 -0.6003 -0.4714
 2952SOL     OW11579   1.869   1.048   1.835  0.6744  0.1541 -0.0269
 2952SOL    HW211580   1.800   1.052   1.901  0.0708  0.5127 -0.6616
 2952SOL    HW311581   1.912   0.964   1.850  0.2558  0.0351  0.5412
 2952SOL    MW411582   1.865   1.037   1.845  0.5395  0.1857 -0.0357
 2953SOL     OW11583   1.991   5.235   2.012  0.0963 -0.0267 -0.4593
 2953SOL    HW211584   1.940   5.249   2.092  0.4507 -0.4233 -0.1606
 2953SOL    HW311585   1.943   5.283   1.944  1.7918  3.6337  0.6789
 2953SOL    MW411586   1.978   5.244   2.014  0.3667  0.4039 -0.2697
 2954SOL     OW11587   4.827   2.282   4.791  0.3138  0.0296 -0.4566
 2954SOL    HW211588   4.861   2.230   4.864  0.7120  2.3461  1.1366
 2954SOL    HW311589   4.733   2.266   4.792  0.1379  0.8548  1.3731
 2954SOL    MW411590   4.819   2.273   4.801  0.3432  0.4441 -0.0050
 2955SOL     OW11591   4.716   5.218   0.802 -0.1477 -0.1264 -0.1368
 2955SOL    HW211592   4.668   5.138   0.779  1.3544 -1.4940  1.2938
 2955SOL    HW311593   4.768   5.237   0.724  0.0052 -0.9563 -0.2513
 2955SOL    MW411594   4.717   5.210   0.788  0.0707 -0.4164  0.0368
 2956SOL     OW11595   1.334   3.869   1.959 -0.1163 -0.0553 -0.1260
 2956SOL    HW211596   1.370   3.863   2.048  0.0949  0.4427 -0.1705
 2956SOL    HW311597   1.324   3.963   1.944 -0.6715 -0.1606 -0.4246
 2956SOL    MW411598   1.338   3.881   1.969 -0.1617 -0.0035 -0.1713
 2957SOL     OW11599   0.151   5.852   4.394  0.1111  0.4970  0.4023
 2957SOL    HW211600   0.196   5.780   4.351  1.7694  1.9276 -0.3384
 2957SOL    HW311601   0.220   5.908   4.428 -1.0544  2.6003 -0.4624
 2957SOL    MW411602   0.166   5.850   4.393  0.1761  0.9632  0.1905
 2958SOL     OW11603   0.170   5.037   1.525  0.3180 -0.0128  0.8098
 2958SOL    HW211604   0.128   5.100   1.584  0.6467  0.1767  0.8445
 2958SOL    HW311605   0.240   5.087   1.483 -3.2012  1.7018 -4.0498
 2958SOL    MW411606   0.174   5.052   1.527 -0.1029  0.2384  0.1732
 2959SOL     OW11607   0.120   5.475   0.372  0.6596 -0.3370 -0.4455
 2959SOL    HW211608   0.100   5.567   0.384 -0.6662 -0.4521 -1.5392
 2959SOL    HW311609   0.068   5.430   0.438 -0.0644 -0.4031 -1.0477
 2959SOL    MW411610   0.110   5.481   0.382  0.3891 -0.3609 -0.6692
 2960SOL     OW11611   6.089   4.763   6.284  0.4505 -0.4460 -0.0110
 2960SOL    HW211612   6.132   4.831   6.336 -0.6036  1.5623 -1.6164
 2960SOL    HW311613   6.138   4.761   6.202  0.7624 -2.0006  0.1961
 2960SOL    MW411614   6.101   4.772   6.280  0.3526 -0.3861 -0.1955
 2961SOL     OW11615   3.201   5.493   0.424  0.8127 -0.0500  0.6968
 2961SOL    HW211616   3.237   5.562   0.480  0.2103  0.0172  1.0123
 2961SOL    HW311617   3.159   5.432   0.485 -1.3953  0.9278  0.2351
 2961SOL    MW411618   3.200   5.494   0.439  0.4419  0.0879  0.6775
 2962SOL     OW11619   4.392   2.827   1.954  0.1799  0.6518  0.3660
 2962SOL    HW211620   4.440   2.909   1.950 -0.4817  1.0373  0.1229
 2962SOL    HW311621   4.446   2.764   1.905 -0.1110  1.3582 -0.9029
 2962SOL    MW411622   4.405   2.829   1.947  0.0542  0.7959  0.1665
 2963SOL     OW11623   4.784   5.992   0.050 -0.2547 -0.9089 -0.7154
 2963SOL    HW211624   4.864   6.030   0.087 -0.7084  0.8755 -1.4570
 2963SOL    HW311625   4.758   5.925   0.114  1.2050 -0.7566  0.0947
 2963SOL    MW411626   4.791   5.988   0.064 -0.1220 -0.6534 -0.7064
 2964SOL     OW11627   5.358   4.022   4.995  0.0978  0.1793 -0.1966
 2964SOL    HW211628   5.428   3.966   4.963  0.3280 -1.6141  2.9882
 2964SOL    HW311629   5.401   4.104   5.019  0.8687 -0.3944  0.4211
 2964SOL    MW411630   5.373   4.025   4.994  0.2299 -0.1330  0.3051
 2965SOL     OW11631   4.697   0.462   1.572 -0.0355 -0.7860  0.2983
 2965SOL    HW211632   4.621   0.510   1.604  0.7260 -0.4909  1.7367
 2965SOL    HW311633   4.770   0.524   1.578  0.4699 -1.2870 -0.3797
 2965SOL    MW411634   4.697   0.477   1.577  0.1316 -0.8132  0.3986
 2966SOL     OW11635   2.708   5.398   2.905 -0.5302  0.0079  0.0357
 2966SOL    HW211636   2.714   5.453   2.827 -1.6518  0.4921  0.2651
 2966SOL    HW311637   2.631   5.431   2.952 -0.8312 -1.3214  0.5343
 2966SOL    MW411638   2.699   5.410   2.901 -0.7179 -0.1036  0.1318
 2967SOL     OW11639   0.140   3.894   3.530  0.2403 -0.1532  0.1231
 2967SOL    HW211640   0.189   3.835   3.474  0.7938  1.8206 -1.5885
 2967SOL    HW311641   0.080   3.939   3.471 -0.7358  0.4281  1.5084
 2967SOL    MW411642   0.139   3.892   3.515  0.1845  0.1839  0.0800
 2968SOL     OW11643   5.033   2.450   1.433 -0.3014  0.4598 -0.1221
 2968SOL    HW211644   4.965   2.384   1.420 -0.6897  0.7673  0.3193
 2968SOL    HW311645   4.994   2.513   1.494  1.6208 -1.2192  3.1248
 2968SOL    MW411646   5.019   2.450   1.440 -0.0990  0.2789  0.3645
 2969SOL     OW11647   1.141   5.444   5.875  0.4270  0.0664 -0.1547
 2969SOL    HW211648   1.093   5.387   5.935 -2.3676  0.3595 -1.9236
 2969SOL    HW311649   1.178   5.385   5.809  0.6577  0.0081  0.0271
 2969SOL    MW411650   1.139   5.429   5.874  0.0887  0.0974 -0.3641
 2970SOL     OW11651   0.326   2.921   0.146 -0.0173  0.1422 -0.2847
 2970SOL    HW211652   0.322   2.831   0.114 -1.4400 -0.1509  0.6364
 2970SOL    HW311653   0.239   2.938   0.182  0.7533  1.2831  1.1593
 2970SOL    MW411654   0.314   2.911   0.146 -0.1033  0.2541  0.0273
 2971SOL     OW11655   0.134   1.379   4.734 -0.3651 -0.0350  0.0597
 2971SOL    HW211656   0.069   1.392   4.803 -0.4268  1.9838 -0.2936
 2971SOL    HW311657   0.118   1.451   4.673  0.8620 -0.7065 -1.1074
 2971SOL    MW411658   0.124   1.390   4.735 -0.2114  0.1428 -0.1409
 2972SOL     OW11659   2.774   4.500   2.108  0.2561 -0.1391  0.4724
 2972SOL    HW211660   2.689   4.478   2.071 -0.3977  0.9599  1.2421
 2972SOL    HW311661   2.820   4.417   2.117 -0.1815 -0.5964 -1.2539
 2972SOL    MW411662   2.769   4.486   2.104  0.1121 -0.0545  0.3462
 2973SOL     OW11663   0.558   1.341   1.501  0.0530  0.3219 -0.2969
 2973SOL    HW211664   0.605   1.425   1.501  0.1977  0.2427  0.2478
 2973SOL    HW311665   0.471   1.363   1.534 -1.1769  0.9306 -3.5313
 2973SOL    MW411666   0.553   1.355   1.505 -0.0901  0.3918 -0.6518
 2974SOL     OW11667   5.645   3.531   3.255 -0.3502 -0.0926 -0.2118
 2974SOL    HW211668   5.654   3.527   3.160  3.2008  0.0628 -0.0129
 2974SOL    HW311669   5.687   3.452   3.287  0.8985  1.1063  1.2793
 2974SOL    MW411670   5.652   3.520   3.247  0.2831  0.0861  0.0112
 2975SOL     OW11671   4.388   3.561   4.888  0.0163 -0.3236 -0.4324
 2975SOL    HW211672   4.453   3.616   4.844 -0.0451 -0.6207 -0.8957
 2975SOL    HW311673   4.424   3.547   4.976  0.3904 -0.1646 -0.5591
 2975SOL    MW411674   4.401   3.567   4.894  0.0576 -0.3419 -0.5103
 2976SOL     OW11675   1.958   1.353   1.602 -0.1179  0.1511 -0.4501
 2976SOL    HW211676   1.973   1.264   1.571  2.2038  0.7797 -1.3861
 2976SOL    HW311677   2.000   1.356   1.688  0.2485  0.4426 -0.6333
 2976SOL    MW411678   1.966   1.342   1.609  0.2368  0.2725 -0.5977
 2977SOL     OW11679   3.470   1.752   5.845 -0.0122  0.5740  0.2277
 2977SOL    HW211680   3.474   1.716   5.934 -0.2312  0.5971  0.2477
 2977SOL    HW311681   3.437   1.841   5.856 -1.4684  0.0895  0.0062
 2977SOL    MW411682   3.466   1.759   5.858 -0.2332  0.5132  0.2011
 2978SOL     OW11683   6.113   2.664   5.729 -0.2156 -0.4872  0.0068
 2978SOL    HW211684   6.100   2.571   5.746 -0.6538 -0.5431 -0.6044
 2978SOL    HW311685   6.106   2.673   5.634  1.1762 -0.0344 -0.0828
 2978SOL    MW411686   6.111   2.653   5.719 -0.0898 -0.4348 -0.0856
 2979SOL     OW11687   6.035   3.424   5.210  0.4323  0.5716 -0.2259
 2979SOL    HW211688   5.988   3.374   5.276  0.1303  1.8271  0.5547
 2979SOL    HW311689   6.095   3.479   5.260 -0.6325  2.4150 -0.8907
 2979SOL    MW411690   6.037   3.425   5.225  0.2520  0.9804 -0.2106
 2980SOL     OW11691   3.585   0.273   0.735  0.1748  0.0695  0.6802
 2980SOL    HW211692   3.652   0.300   0.798  0.4756  0.2211  0.3052
 2980SOL    HW311693   3.630   0.278   0.650  0.4500 -2.2272  0.6312
 2980SOL    MW411694   3.600   0.277   0.732  0.2508 -0.2135  0.6242
 2981SOL     OW11695   1.725   1.731   4.836  0.0311  0.4862 -0.2343
 2981SOL    HW211696   1.710   1.711   4.744  0.4004  0.3506 -0.2656
 2981SOL    HW311697   1.815   1.704   4.853  0.0929  0.8634  0.0694
 2981SOL    MW411698   1.735   1.725   4.826  0.0880  0.5181 -0.1983
 2982SOL     OW11699   0.562   1.853   1.898 -0.0449 -0.0309 -0.0123
 2982SOL    HW211700   0.540   1.779   1.955 -0.4543  1.3190  1.6662
 2982SOL    HW311701   0.654   1.839   1.874 -0.4604 -1.6894 -0.7427
 2982SOL    MW411702   0.571   1.842   1.902 -0.1537 -0.0716  0.1128
 2983SOL     OW11703   3.888   1.287   4.396  0.4036 -0.1547 -0.4601
 2983SOL    HW211704   3.926   1.208   4.435 -0.1595 -0.1732  0.0707
 2983SOL    HW311705   3.936   1.299   4.314  0.5882 -0.9689 -0.4801
 2983SOL    MW411706   3.899   1.278   4.390  0.3536 -0.2646 -0.3927
 2984SOL     OW11707   3.824   4.671   0.438 -0.2285 -0.4250  0.8687
 2984SOL    HW211708   3.743   4.706   0.476 -0.0235 -1.7215  2.6136
 2984SOL    HW311709   3.800   4.645   0.350 -1.7905 -1.0185  1.4444
 2984SOL    MW411710   3.810   4.672   0.432 -0.4075 -0.6744  1.1749
 2985SOL     OW11711   2.452   4.341   1.652  0.0282  0.6120 -0.1090
 2985SOL    HW211712   2.477   4.397   1.579  0.7034 -1.9780 -2.0314
 2985SOL    HW311713   2.356   4.335   1.645 -0.0131  1.2061 -0.1065
 2985SOL    MW411714   2.442   4.347   1.642  0.1119  0.3487 -0.3623
 2986SOL     OW11715   6.423   6.300   5.534  0.0277  0.1961  0.5940
 2986SOL    HW211716   6.425   6.237   5.606 -0.8229 -3.2409 -2.0871
 2986SOL    HW311717   6.515   6.308   5.507  0.0748 -0.3976  0.5715
 2986SOL    MW411718   6.436   6.293   5.540 -0.0783 -0.3357  0.2373
 2987SOL     OW11719   0.527   5.085   2.683 -0.5094  0.0675  0.2468
 2987SOL    HW211720   0.530   5.118   2.772  2.3944 -0.7856  0.5491
 2987SOL    HW311721   0.537   4.990   2.692 -0.9049 -0.1120 -0.9803
 2987SOL    MW411722   0.528   5.077   2.696 -0.1784 -0.0687  0.1248
 2988SOL     OW11723   5.526   3.176   4.926  0.0973  0.2797  0.3429
 2988SOL    HW211724   5.542   3.087   4.897 -1.3775  0.6362 -1.7814
 2988SOL    HW311725   5.446   3.170   4.979  0.1977  0.2988  0.4985
 2988SOL    MW411726   5.517   3.164   4.929 -0.0841  0.3293  0.0832
 2989SOL     OW11727   4.209   2.056   2.299 -0.0307  0.9175  0.7074
 2989SOL    HW211728   4.288   2.064   2.246 -0.7479 -1.4999 -0.8726
 2989SOL    HW311729   4.221   1.976   2.349 -1.1116  1.0004  1.1249
 2989SOL    MW411730   4.221   2.047   2.299 -0.2679  0.6095  0.5540
 2990SOL     OW11731   3.999   1.747   0.898  0.0022 -0.1371  0.0736
 2990SOL    HW211732   4.028   1.835   0.925 -0.1475  0.4928 -1.6961
 2990SOL    HW311733   3.952   1.762   0.817  2.1495 -2.1386 -1.6675
 2990SOL    MW411734   3.997   1.761   0.891  0.2658 -0.3181 -0.3896
 2991SOL     OW11735   1.120   4.794   3.195  0.1060 -0.0516 -0.0100
 2991SOL    HW211736   1.076   4.826   3.273 -0.6853 -0.5013 -0.2667
 2991SOL    HW311737   1.056   4.805   3.125  0.0639 -1.5631 -0.2309
 2991SOL    MW411738   1.106   4.800   3.196 -0.0040 -0.3103 -0.0730
 2992SOL     OW11739   2.396   5.496   0.732 -0.6682 -0.1442 -0.1281
 2992SOL    HW211740   2.349   5.578   0.746 -1.0015 -0.2081 -0.8314
 2992SOL    HW311741   2.371   5.468   0.643 -1.2159 -1.4390  0.4035
 2992SOL    MW411742   2.387   5.503   0.722 -0.7845 -0.3235 -0.1508
 2993SOL     OW11743   4.383   6.012   0.775 -0.1972 -0.3329  0.0608
 2993SOL    HW211744   4.336   5.945   0.726 -0.0485 -0.0187 -0.5188
 2993SOL    HW311745   4.462   5.968   0.807  0.2823 -0.2375 -0.9701
 2993SOL    MW411746   4.388   5.997   0.773 -0.1143 -0.2789 -0.1517
 2994SOL     OW11747   2.828   1.348   1.089 -0.4464 -0.7794 -0.1704
 2994SOL    HW211748   2.797   1.416   1.029  0.6495  0.3110  0.4394
 2994SOL    HW311749   2.922   1.341   1.070  0.7582  1.9809  3.4668
 2994SOL    MW411750   2.836   1.356   1.079 -0.1429 -0.2713  0.3899
 2995SOL     OW11751   0.618   2.017   5.664  0.3294 -0.1613 -0.4869
 2995SOL    HW211752   0.588   1.953   5.600 -1.5307  1.3492 -1.2267
 2995SOL    HW311753   0.621   1.968   5.747 -0.5152 -1.3480 -1.1216
 2995SOL    MW411754   0.614   2.002   5.667 -0.0275 -0.1186 -0.6682
 2996SOL     OW11755   0.173   0.815   0.233  0.0921 -0.3417 -0.3570
 2996SOL    HW211756   0.135   0.803   0.146 -1.8392 -3.0033  0.6977
 2996SOL    HW311757   0.133   0.897   0.265  1.9239  1.4721 -2.3611
 2996SOL    MW411758   0.163   0.825   0.226  0.0789 -0.4536 -0.4822
 2997SOL     OW11759   5.744   3.774   5.309  1.0399  0.3780 -0.0930
 2997SOL    HW211760   5.755   3.869   5.301  1.9843  0.4074  1.2136
 2997SOL    HW311761   5.782   3.738   5.228  1.0126  1.0886 -0.4266
 2997SOL    MW411762   5.751   3.782   5.297  1.1609  0.4756  0.0353
 2998SOL     OW11763   5.710   4.246   3.396 -0.6491 -0.1678  0.2330
 2998SOL    HW211764   5.733   4.322   3.449  2.6405 -0.5198 -0.4634
 2998SOL    HW311765   5.772   4.178   3.422 -3.2659 -2.6127  0.6052
 2998SOL    MW411766   5.721   4.247   3.406 -0.5603 -0.5368  0.1902
 2999SOL     OW11767   5.793   1.881   4.878  0.0359  0.1750  0.4495
 2999SOL    HW211768   5.760   1.910   4.793 -0.5796  0.2549  0.7072
 2999SOL    HW311769   5.784   1.786   4.875  0.0850  0.1723  0.3937
 2999SOL    MW411770   5.787   1.872   4.866 -0.0389  0.1852  0.4762
 3000SOL     OW11771   4.782   0.595   3.104 -0.1341  0.5649 -0.3265
 3000SOL    HW211772   4.822   0.607   3.190 -1.5966 -0.1347  0.4959
 3000SOL    HW311773   4.703   0.649   3.107 -0.0676  0.7354 -1.3377
 3000SOL    MW411774   4.776   0.604   3.116 -0.3183  0.4951 -0.3514
 3001SOL     OW11775   3.128   2.340   4.796 -0.3408 -0.2687 -0.2360
 3001SOL    HW211776   3.040   2.313   4.823  0.2388 -1.7403  0.2846
 3001SOL    HW311777   3.113   2.403   4.725 -1.8084  0.0181  0.2924
 3001SOL    MW411778   3.115   2.345   4.790 -0.4580 -0.4250 -0.0976
 3002SOL     OW11779   5.031   0.523   6.045  0.0938  0.2251 -0.0361
 3002SOL    HW211780   5.078   0.451   6.087 -2.9490 -2.2944 -0.5233
 3002SOL    HW311781   5.030   0.500   5.952 -1.7078  0.3211 -0.0735
 3002SOL    MW411782   5.037   0.510   6.038 -0.5454 -0.0946 -0.1053
 3003SOL     OW11783   2.702   1.178   3.086 -0.3212  0.4041 -0.0372
 3003SOL    HW211784   2.692   1.085   3.070  0.4074  0.6822 -2.4002
 3003SOL    HW311785   2.720   1.184   3.180 -1.6180 -1.6891  0.4151
 3003SOL    MW411786   2.703   1.167   3.097 -0.3961  0.1646 -0.2893
 3004SOL     OW11787   4.642   3.781   4.503  0.3955  0.2985  0.2723
 3004SOL    HW211788   4.697   3.850   4.466  1.5538 -1.2781 -1.0880
 3004SOL    HW311789   4.553   3.804   4.477  0.8729  0.8118 -0.9910
 3004SOL    MW411790   4.637   3.793   4.495  0.6113  0.1582 -0.0738
 3005SOL     OW11791   5.139   1.515   5.258  0.0744  0.0605  0.4324
 3005SOL    HW211792   5.207   1.528   5.192 -0.8857 -0.1846 -0.6443
 3005SOL    HW311793   5.060   1.551   5.219 -0.3933  0.5262  1.7470
 3005SOL    MW411794   5.137   1.521   5.244 -0.1139  0.0896  0.4638
 3006SOL     OW11795   0.129   4.421   5.693  0.5531  0.4586  0.2811
 3006SOL    HW211796   0.062   4.362   5.728  0.1102  0.6324 -0.2592
 3006SOL    HW311797   0.209   4.397   5.740  0.6811 -1.4392 -0.8103
 3006SOL    MW411798   0.131   4.410   5.704  0.5116  0.2311  0.0658
 3007SOL     OW11799   0.791   1.604   6.399 -0.2028 -0.1018 -0.1624
 3007SOL    HW211800   0.701   1.585   6.425  0.0210  0.0135  0.7199
 3007SOL    HW311801   0.828   1.652   6.473  0.4099  0.3678 -0.7647
 3007SOL    MW411802   0.784   1.608   6.412 -0.0924 -0.0246 -0.1255
 3008SOL     OW11803   1.815   6.351   1.354 -0.3317  0.4171 -0.2316
 3008SOL    HW211804   1.836   6.444   1.352 -0.7549  0.4991 -1.0044
 3008SOL    HW311805   1.851   6.316   1.272 -2.8659  0.5006 -1.4500
 3008SOL    MW411806   1.823   6.358   1.343 -0.7219  0.4389 -0.4943
 3009SOL     OW11807   4.870   3.226   4.583 -0.0309  0.6076 -0.5920
 3009SOL    HW211808   4.950   3.192   4.542  0.2769 -0.3327  0.7104
 3009SOL    HW311809   4.803   3.218   4.515  0.7999  0.6313 -1.4370
 3009SOL    MW411810   4.872   3.220   4.569  0.1193  0.4867 -0.5316
 3010SOL     OW11811   1.221   1.831   5.561  0.5527 -0.0305 -0.3344
 3010SOL    HW211812   1.146   1.827   5.620  0.2969 -0.4482 -0.6748
 3010SOL    HW311813   1.234   1.924   5.544 -0.0573  0.0337 -0.4766
 3010SOL    MW411814   1.213   1.843   5.566  0.4385 -0.0772 -0.3981
 3011SOL     OW11815   5.764   4.047   5.270  0.4034 -0.1101 -0.0531
 3011SOL    HW211816   5.742   4.051   5.177  1.6118 -0.0315 -0.3525
 3011SOL    HW311817   5.698   4.101   5.313 -1.9165 -2.4105 -0.4986
 3011SOL    MW411818   5.753   4.055   5.264  0.2568 -0.4032 -0.1514
 3012SOL     OW11819   5.472   3.164   3.328  0.4068  0.2184 -0.5194
 3012SOL    HW211820   5.412   3.191   3.398  0.8042  0.0224 -0.0948
 3012SOL    HW311821   5.526   3.096   3.369  1.0326  0.5185 -0.8437
 3012SOL    MW411822   5.471   3.159   3.343  0.5418  0.2322 -0.5062
 3013SOL     OW11823   1.419   2.333   4.134  0.2547  0.1910 -0.3236
 3013SOL    HW211824   1.448   2.357   4.222  0.1259  1.5806 -0.6432
 3013SOL    HW311825   1.493   2.355   4.077 -0.6538  1.9439 -0.8956
 3013SOL    MW411826   1.432   2.339   4.138  0.1178  0.6056 -0.4413
 3014SOL     OW11827   0.925   4.477   2.389 -0.1361 -0.4202 -0.0394
 3014SOL    HW211828   0.902   4.422   2.314  0.0148 -0.5754  0.0253
 3014SOL    HW311829   0.999   4.529   2.358  1.1658 -1.8158  0.5671
 3014SOL    MW411830   0.932   4.476   2.375  0.0556 -0.6248  0.0491
 3015SOL     OW11831   2.772   0.550   4.151 -0.3946 -0.3754 -0.1893
 3015SOL    HW211832   2.769   0.595   4.067 -0.2674 -2.3299 -1.3097
 3015SOL    HW311833   2.687   0.505   4.157  0.0039 -1.0971  0.2089
 3015SOL    MW411834   2.760   0.550   4.141 -0.3252 -0.7285 -0.2846
 3016SOL     OW11835   1.283   6.043   3.306 -0.7930 -0.8696 -0.0392
 3016SOL    HW211836   1.324   6.111   3.359 -1.2378 -0.9901  0.4716
 3016SOL    HW311837   1.203   6.021   3.354 -0.7003 -1.6795 -0.2505
 3016SOL    MW411838   1.278   6.049   3.319 -0.8395 -0.9924  0.0003
 3017SOL     OW11839   1.045   6.378   2.070  0.0902 -0.1645 -0.3295
 3017SOL    HW211840   1.068   6.460   2.114  1.8907 -0.4869 -0.5866
 3017SOL    HW311841   1.063   6.395   1.978  0.1246 -0.7273 -0.4274
 3017SOL    MW411842   1.051   6.391   2.064  0.3323 -0.2813 -0.3764
 3018SOL     OW11843   1.952   3.582   0.015  0.1501  0.7320  0.4955
 3018SOL    HW211844   1.877   3.544  -0.031  0.8228  0.6403 -0.5831
 3018SOL    HW311845   1.952   3.674  -0.011 -0.2493  0.9993  1.4142
 3018SOL    MW411846   1.942   3.589   0.005  0.1862  0.7552  0.4744
 3019SOL     OW11847   4.230   3.969   3.100  0.2016 -0.4818  0.4453
 3019SOL    HW211848   4.158   4.030   3.117  2.0678  2.0417 -0.1464
 3019SOL    HW311849   4.250   3.980   3.007  1.6643 -0.7543  0.6976
 3019SOL    MW411850   4.223   3.978   3.090  0.6408 -0.1848  0.4005
 3020SOL     OW11851   1.253   4.282   1.287  0.5274  0.0020  0.4651
 3020SOL    HW211852   1.242   4.308   1.196  0.9304 -1.0962  0.0883
 3020SOL    HW311853   1.296   4.196   1.283  0.0260 -0.3330  1.6698
 3020SOL    MW411854   1.257   4.274   1.274  0.5144 -0.1871  0.5743
 3021SOL     OW11855   5.790   2.687   5.343 -0.5962 -0.4302 -0.3340
 3021SOL    HW211856   5.793   2.671   5.438  0.1746  0.7929 -0.1385
 3021SOL    HW311857   5.813   2.779   5.333 -0.9883 -0.4585 -1.7030
 3021SOL    MW411858   5.793   2.697   5.354 -0.5462 -0.2726 -0.4888
 3022SOL     OW11859   4.357   1.754   5.215 -0.0786  0.8504 -0.2428
 3022SOL    HW211860   4.323   1.671   5.247 -0.0540  0.5039 -1.0734
 3022SOL    HW311861   4.394   1.796   5.292  0.2429 -0.0784  0.1268
 3022SOL    MW411862   4.358   1.749   5.229 -0.0329  0.6821 -0.3036
 3023SOL     OW11863   3.631   1.614   1.597  0.0715 -0.0037  0.4235
 3023SOL    HW211864   3.596   1.645   1.681 -1.7054 -3.4906  1.1793
 3023SOL    HW311865   3.559   1.625   1.535  0.7669  0.9076 -0.2478
 3023SOL    MW411866   3.617   1.620   1.600 -0.0712 -0.3435  0.4346
 3024SOL     OW11867   5.392   3.413   3.852 -0.1591 -0.0573  1.1566
 3024SOL    HW211868   5.377   3.350   3.922  0.9884  1.5269  2.9369
 3024SOL    HW311869   5.487   3.414   3.842 -0.3087 -0.4549 -0.6893
 3024SOL    MW411870   5.403   3.405   3.860 -0.0274  0.0993  1.1480
 3025SOL     OW11871   3.219   5.960   1.469  0.1514  0.6475 -0.5904
 3025SOL    HW211872   3.198   5.988   1.380 -0.3224 -0.5596 -0.8815
 3025SOL    HW311873   3.248   6.039   1.513 -1.1041  1.5831 -1.3729
 3025SOL    MW411874   3.220   5.974   1.463 -0.0768  0.6117 -0.7321
 3026SOL     OW11875   3.914   2.977   0.460  0.1782  0.0323  0.2549
 3026SOL    HW211876   3.916   3.071   0.441 -0.2567  0.2297  1.1392
 3026SOL    HW311877   3.869   2.938   0.385 -0.4982  0.6555  0.3205
 3026SOL    MW411878   3.908   2.984   0.447  0.0316  0.1406  0.3802
 3027SOL     OW11879   4.525   0.709   5.752  0.9381  0.3415  0.1697
 3027SOL    HW211880   4.491   0.642   5.811 -1.2950  1.3634  0.1425
 3027SOL    HW311881   4.517   0.670   5.664 -0.6579  0.7087  0.1235
 3027SOL    MW411882   4.519   0.695   5.748  0.4329  0.5248  0.1600
 3028SOL     OW11883   5.541   0.743   5.367 -0.1436 -0.2223  0.1764
 3028SOL    HW211884   5.621   0.794   5.351 -0.9748  1.3077  0.7265
 3028SOL    HW311885   5.523   0.699   5.284  1.4961 -0.9528  0.1639
 3028SOL    MW411886   5.550   0.744   5.354 -0.0369 -0.1168  0.2473
 3029SOL     OW11887   4.649   0.187   4.621  0.3011 -0.3289  0.2595
 3029SOL    HW211888   4.723   0.192   4.681  0.7647  0.3673 -0.3343
 3029SOL    HW311889   4.608   0.274   4.626  0.5083 -0.1656 -0.6013
 3029SOL    MW411890   4.654   0.199   4.629  0.3896 -0.2155  0.0676
 3030SOL     OW11891   4.882   4.714   3.400  0.0200 -0.5745 -0.1155
 3030SOL    HW211892   4.846   4.636   3.356 -4.1353 -0.2016  2.0798
 3030SOL    HW311893   4.857   4.787   3.344  0.4851 -0.5273 -0.2667
 3030SOL    MW411894   4.874   4.713   3.386 -0.4669 -0.5191  0.1542
 3031SOL     OW11895   5.976   5.978   5.298  0.0078 -0.2590 -0.0993
 3031SOL    HW211896   5.954   6.008   5.209 -3.7478 -0.7091  0.5212
 3031SOL    HW311897   5.950   5.886   5.299  1.9951 -0.8851  0.9543
 3031SOL    MW411898   5.970   5.970   5.286 -0.2255 -0.4010  0.1216
 3032SOL     OW11899   4.789   2.924   2.428  0.3789  0.2115 -0.4187
 3032SOL    HW211900   4.706   2.960   2.459  0.8557  0.8967  0.1065
 3032SOL    HW311901   4.840   2.909   2.509 -0.4842 -3.5504 -0.3472
 3032SOL    MW411902   4.785   2.926   2.443  0.3280 -0.1945 -0.3400
 3033SOL     OW11903   5.022   3.517   5.171  0.3132  0.0173  0.0363
 3033SOL    HW211904   4.960   3.458   5.127 -0.8691  1.1519  0.1307
 3033SOL    HW311905   5.037   3.476   5.257  0.0476 -0.4989 -0.1597
 3033SOL    MW411906   5.016   3.504   5.177  0.1222  0.0989  0.0229
 3034SOL     OW11907   0.069   2.796   5.369 -0.5258  0.0826  0.3589
 3034SOL    HW211908   0.127   2.865   5.399 -1.5862  1.1273  0.1152
 3034SOL    HW311909   0.127   2.725   5.340  0.5582  0.3044  1.8921
 3034SOL    MW411910   0.084   2.795   5.369 -0.5227  0.2497  0.5291
 3035SOL     OW11911   0.713   5.617   5.902 -0.4634  0.6456 -0.1848
 3035SOL    HW211912   0.632   5.581   5.866  0.6237 -1.5662 -0.6170
 3035SOL    HW311913   0.709   5.596   5.995 -0.3519  0.4169 -0.2294
 3035SOL    MW411914   0.702   5.609   5.910 -0.3053  0.3236 -0.2477
 3036SOL     OW11915   4.577   2.183   3.826  0.5466  0.1782  0.2022
 3036SOL    HW211916   4.507   2.189   3.891  0.7347 -0.5544  0.4937
 3036SOL    HW311917   4.603   2.090   3.828  0.6665  0.1793 -0.8084
 3036SOL    MW411918   4.571   2.171   3.835  0.5872  0.0817  0.1073
 3037SOL     OW11919   0.890   3.623   5.031  0.8068  0.3607 -0.2142
 3037SOL    HW211920   0.801   3.593   5.011  0.9198 -0.5692  0.5813
 3037SOL    HW311921   0.881   3.666   5.116  0.8451  1.7102 -0.8624
 3037SOL    MW411922   0.877   3.625   5.040  0.8268  0.4160 -0.1947
 3038SOL     OW11923   3.010   3.162   3.522 -0.4674  0.0359 -0.2057
 3038SOL    HW211924   3.097   3.203   3.526 -0.1543 -0.5970 -0.3140
 3038SOL    HW311925   2.988   3.144   3.613 -0.1284 -0.5185 -0.2283
 3038SOL    MW411926   3.019   3.165   3.534 -0.3814 -0.1208 -0.2230
 3039SOL     OW11927   0.081   3.715   3.898  0.7220  0.0453  0.1718
 3039SOL    HW211928   0.038   3.699   3.982 -2.0175 -0.2871 -1.1667
 3039SOL    HW311929   0.172   3.735   3.920 -0.3165  1.9790  3.3660
 3039SOL    MW411930   0.087   3.716   3.912  0.2235  0.2566  0.4166
 3040SOL     OW11931   0.569   0.793   4.748  0.0153 -0.2738 -0.5099
 3040SOL    HW211932   0.593   0.849   4.674  0.0778 -1.0125 -1.0576
 3040SOL    HW311933   0.653   0.757   4.778  0.0974  0.6418  0.4550
 3040SOL    MW411934   0.583   0.796   4.743  0.0344 -0.2504 -0.4548
 3041SOL     OW11935   4.622   1.673   6.135 -0.3680  0.0740  0.0315
 3041SOL    HW211936   4.575   1.619   6.072  0.1362 -0.2165 -0.1011
 3041SOL    HW311937   4.630   1.618   6.212 -1.2032  0.5184  0.4494
 3041SOL    MW411938   4.617   1.659   6.137 -0.4117  0.0943  0.0691
 3042SOL     OW11939   3.021   4.121   4.133  0.0211  0.0474  0.2679
 3042SOL    HW211940   2.945   4.070   4.105  0.4352 -1.2398  1.3995
 3042SOL    HW311941   2.986   4.209   4.147 -0.9789 -0.2037 -0.4757
 3042SOL    MW411942   3.006   4.126   4.131 -0.0562 -0.1556  0.3191
 3043SOL     OW11943   5.083   3.340   3.516  0.0251 -0.1401 -0.4773
 3043SOL    HW211944   5.045   3.352   3.603  2.0225 -0.9273  0.5785
 3043SOL    HW311945   5.063   3.421   3.469 -0.8467  0.4171  0.7983
 3043SOL    MW411946   5.075   3.352   3.521  0.1736 -0.1705 -0.1697
 3044SOL     OW11947   1.236   0.048   6.217  0.0499  0.1859 -0.1020
 3044SOL    HW211948   1.238   0.070   6.310  0.6437  0.3137 -0.1360
 3044SOL    HW311949   1.237  -0.047   6.215 -2.4143  0.0996  0.0465
 3044SOL    MW411950   1.237   0.038   6.229 -0.1969  0.1914 -0.0869
 3045SOL     OW11951   3.666   2.478   0.619  0.3374  0.5137 -0.2999
 3045SOL    HW211952   3.677   2.510   0.709  3.2798 -0.5239 -0.1531
 3045SOL    HW311953   3.688   2.553   0.564 -0.3170  0.8334 -0.1256
 3045SOL    MW411954   3.671   2.492   0.624  0.6393  0.4190 -0.2575
 3046SOL     OW11955   5.987   3.504   3.403 -0.2243  0.6847  0.2473
 3046SOL    HW211956   5.945   3.570   3.459  1.1285  1.9164 -0.1196
 3046SOL    HW311957   6.080   3.522   3.411  0.0819 -0.0623 -1.2576
 3046SOL    MW411958   5.994   3.515   3.411 -0.0054  0.7486  0.0004
 3047SOL     OW11959   3.706   1.756   5.146  0.7109 -0.3465 -0.3034
 3047SOL    HW211960   3.757   1.686   5.186 -1.2025 -0.2469  2.6575
 3047SOL    HW311961   3.745   1.836   5.180  0.5144 -0.1595 -0.5201
 3047SOL    MW411962   3.718   1.757   5.156  0.4325 -0.3087  0.0587
 3048SOL     OW11963   1.097   1.113   0.443 -0.1084  0.1230  0.1702
 3048SOL    HW211964   1.189   1.130   0.465  0.0590 -0.1646 -0.2858
 3048SOL    HW311965   1.092   1.018   0.433  0.0023  0.2903 -1.7660
 3048SOL    MW411966   1.109   1.103   0.445 -0.0717  0.1071 -0.1454
 3049SOL     OW11967   6.320   1.683   0.949  0.8266  0.6628 -0.5873
 3049SOL    HW211968   6.395   1.741   0.943  0.1694  1.5435 -0.4929
 3049SOL    HW311969   6.345   1.617   1.014  0.6769  2.2432  1.1353
 3049SOL    MW411970   6.333   1.682   0.957  0.7201  0.9875 -0.3475
 3050SOL     OW11971   4.444   0.539   3.762  0.3363 -0.4422 -0.0403
 3050SOL    HW211972   4.500   0.576   3.694 -0.2191 -0.6454 -0.6170
 3050SOL    HW311973   4.472   0.447   3.769  1.3495 -0.0689  1.0118
 3050SOL    MW411974   4.455   0.531   3.754  0.3967 -0.4197  0.0224
 3051SOL     OW11975   2.523   4.211   3.598 -0.1816 -0.7693 -0.1411
 3051SOL    HW211976   2.590   4.147   3.574 -1.3925 -1.2153 -2.6858
 3051SOL    HW311977   2.562   4.260   3.671  1.9253 -2.5297  0.0264
 3051SOL    MW411978   2.537   4.209   3.605 -0.0634 -1.0604 -0.4547
 3052SOL     OW11979   1.219   1.393   6.218 -0.1302 -0.1381 -0.6269
 3052SOL    HW211980   1.273   1.472   6.207 -2.1370  1.1795 -1.4951
 3052SOL    HW311981   1.205   1.362   6.129  0.4705 -1.3838 -0.2998
 3052SOL    MW411982   1.225   1.400   6.205 -0.3157 -0.1286 -0.6983
 3053SOL     OW11983   1.475   2.396   4.390  0.2395  0.1606  0.9201
 3053SOL    HW211984   1.458   2.304   4.408  1.6841 -0.7124 -1.5239
 3053SOL    HW311985   1.563   2.411   4.425  0.2141  0.4357  0.8674
 3053SOL    MW411986   1.485   2.386   4.397  0.4268  0.0817  0.5907
 3054SOL     OW11987   1.621   0.373   6.357  0.6863 -0.0580 -0.2088
 3054SOL    HW211988   1.566   0.447   6.332  0.3582  0.4086  1.6706
 3054SOL    HW311989   1.648   0.393   6.447  2.0108 -1.4073 -0.2668
 3054SOL    MW411990   1.617   0.385   6.366  0.8178 -0.1745  0.0315
 3055SOL     OW11991   3.820   3.605   3.765  0.4234  0.2717  0.5935
 3055SOL    HW211992   3.831   3.551   3.843  4.2005 -2.6903 -1.6405
 3055SOL    HW311993   3.906   3.647   3.753 -0.3157  1.3197 -1.5139
 3055SOL    MW411994   3.833   3.604   3.774  0.8242  0.0191  0.0207
 3056SOL     OW11995   3.749   4.430   4.104  0.2220 -0.2279  0.1367
 3056SOL    HW211996   3.819   4.449   4.041  0.7644 -1.1093  0.4447
 3056SOL    HW311997   3.773   4.345   4.140 -1.9772 -1.4374 -1.0646
 3056SOL    MW411998   3.762   4.421   4.100  0.0034 -0.5038  0.0188
 3057SOL     OW11999   0.623   1.111   0.185 -0.0348  0.0842  0.2606
 3057SOL    HW212000   0.635   1.179   0.119 -0.1591  1.8672  2.0097
 3057SOL    HW312001   0.702   1.056   0.178  1.0056  1.5538  0.1095
 3057SOL    MW412002   0.635   1.113   0.175  0.0860  0.5134  0.4715
 3058SOL     OW12003   1.133   4.393   0.591  0.0007 -0.2548 -0.2581
 3058SOL    HW212004   1.038   4.406   0.586  0.1973  1.3025 -0.5791
 3058SOL    HW312005   1.144   4.302   0.618 -1.5648 -1.3302 -2.8542
 3058SOL    MW412006   1.122   4.382   0.594 -0.1799 -0.1912 -0.6430
 3059SOL     OW12007   0.663   2.902   1.593 -0.2357  0.1060 -0.3049
 3059SOL    HW212008   0.661   2.810   1.618  2.3014 -0.3947 -1.6562
 3059SOL    HW312009   0.585   2.914   1.538 -0.7119 -1.1636  0.0702
 3059SOL    MW412010   0.653   2.891   1.589  0.0362 -0.1276 -0.4337
 3060SOL     OW12011   5.745   4.782   2.924  0.3311 -0.5917  0.5155
 3060SOL    HW212012   5.656   4.748   2.933  0.1429 -1.0821 -2.3075
 3060SOL    HW312013   5.734   4.877   2.921 -0.0311 -0.6244  0.7035
 3060SOL    MW412014   5.732   4.790   2.925  0.2585 -0.6607  0.1679
 3061SOL     OW12015   3.036   0.195   4.878  0.2995  0.0768 -0.2431
 3061SOL    HW212016   3.092   0.216   4.803  1.5293  0.8083  0.8319
 3061SOL    HW312017   3.097   0.181   4.950 -0.8396 -0.8600  0.5859
 3061SOL    MW412018   3.052   0.196   4.878  0.3114  0.0497  0.0081
 3062SOL     OW12019   2.148   4.743   2.203  0.2801  0.6109  0.1616
 3062SOL    HW212020   2.109   4.817   2.157 -0.9345  0.2823  0.6227
 3062SOL    HW312021   2.089   4.670   2.187 -0.9480  0.7660  3.2363
 3062SOL    MW412022   2.135   4.743   2.195 -0.0422  0.5880  0.6281
 3063SOL     OW12023   0.550   4.202   0.312 -0.0809 -0.2248 -0.0817
 3063SOL    HW212024   0.522   4.291   0.292 -0.8551 -0.8657 -2.1077
 3063SOL    HW312025   0.471   4.158   0.343  0.5560  0.0514  2.1385
 3063SOL    MW412026   0.536   4.208   0.314 -0.0990 -0.2729 -0.0560
 3064SOL     OW12027   5.712   4.141   0.291 -0.6015  0.2587  0.0425
 3064SOL    HW212028   5.721   4.050   0.320  0.0991  0.7094  1.3276
 3064SOL    HW312029   5.726   4.192   0.371 -0.8004  1.5054 -0.7053
 3064SOL    MW412030   5.715   4.135   0.306 -0.5353  0.4827  0.1134
 3065SOL     OW12031   3.685   1.845   4.355  0.3076 -0.8462 -0.2616
 3065SOL    HW212032   3.742   1.922   4.357  1.0859 -1.4196  0.6992
 3065SOL    HW312033   3.734   1.780   4.303  1.4750 -1.9913  2.1119
 3065SOL    MW412034   3.699   1.847   4.348  0.5643 -1.0730  0.1783
 3066SOL     OW12035   2.307   5.518   1.356 -0.5442  0.4783  0.1304
 3066SOL    HW212036   2.352   5.440   1.324 -0.7999  1.1947 -2.1407
 3066SOL    HW312037   2.283   5.497   1.446 -0.6134 -2.0502 -0.4247
 3066SOL    MW412038   2.310   5.505   1.364 -0.5871  0.2392 -0.2425
 3067SOL     OW12039   2.661   0.889   2.996 -0.4933  0.1319  0.0114
 3067SOL    HW212040   2.730   0.838   2.953 -0.8176  1.3193 -2.0586
 3067SOL    HW312041   2.608   0.923   2.924 -2.3388  0.5413  1.4780
 3067SOL    MW412042   2.663   0.887   2.981 -0.7796  0.3426 -0.0682
 3068SOL     OW12043   4.935   2.695   1.848 -0.1717 -0.2893  0.3338
 3068SOL    HW212044   4.966   2.605   1.843  1.4637  0.2835 -3.0449
 3068SOL    HW312045   5.015   2.747   1.856 -0.8621  0.9230 -0.3609
 3068SOL    MW412046   4.950   2.690   1.848 -0.0470 -0.0537 -0.2037
 3069SOL     OW12047   6.392   3.089   6.148 -0.4762 -0.1103 -0.1248
 3069SOL    HW212048   6.423   3.108   6.060 -0.8263 -0.3532 -0.2998
 3069SOL    HW312049   6.321   3.151   6.163  1.5169  2.0729  1.1452
 3069SOL    MW412050   6.387   3.100   6.138 -0.2594  0.1457  0.0196
 3070SOL     OW12051   3.472   1.753   2.392 -0.2385 -0.3322  0.2230
 3070SOL    HW212052   3.440   1.664   2.406 -1.6037  0.2233  0.7885
 3070SOL    HW312053   3.486   1.788   2.480  1.2542 -0.2932 -0.0015
 3070SOL    MW412054   3.470   1.746   2.405 -0.2216 -0.2538  0.2680
 3071SOL     OW12055   0.489   1.234   2.014 -0.8617  0.1357  0.0818
 3071SOL    HW212056   0.520   1.144   2.021  0.2132  0.5420  0.8766
 3071SOL    HW312057   0.548   1.275   1.952  0.5377  1.0196  1.8896
 3071SOL    MW412058   0.501   1.228   2.007 -0.5353  0.3060  0.4252
 3072SOL     OW12059   2.209   4.542   2.866  0.0651  0.1232  0.0110
 3072SOL    HW212060   2.270   4.520   2.796  0.1223  0.4795 -0.0531
 3072SOL    HW312061   2.240   4.626   2.899 -2.1234  1.8617 -2.0275
 3072SOL    MW412062   2.221   4.550   2.861 -0.2161  0.3996 -0.2664
 3073SOL     OW12063   4.199   5.193   2.571 -0.2554  0.1486  0.1368
 3073SOL    HW212064   4.107   5.218   2.586  0.0585  1.3450  0.1627
 3073SOL    HW312065   4.241   5.274   2.542  0.8054 -0.3855  0.1621
 3073SOL    MW412066   4.192   5.207   2.569 -0.0740  0.2359  0.1436
 3074SOL     OW12067   4.072   4.949   2.347  0.0917  0.1434 -0.0726
 3074SOL    HW212068   3.978   4.940   2.361  0.1972 -0.4865  0.2835
 3074SOL    HW312069   4.088   4.901   2.265  0.0229  0.7129 -0.4216
 3074SOL    MW412070   4.062   4.941   2.338  0.0966  0.1354 -0.0717
 3075SOL     OW12071   4.805   3.940   4.320 -0.6604  0.3868  0.1577
 3075SOL    HW212072   4.730   3.986   4.281 -1.2055 -0.2265  0.4668
 3075SOL    HW312073   4.829   3.875   4.255 -2.0171 -1.1143  1.0758
 3075SOL    MW412074   4.798   3.938   4.306 -0.9113  0.1078  0.3196
 3076SOL     OW12075   1.206   3.610   4.612  0.4913 -0.2135  0.0789
 3076SOL    HW212076   1.147   3.587   4.684  0.0548  1.7513  0.4085
 3076SOL    HW312077   1.152   3.600   4.533  0.2294 -0.0293  0.2349
 3076SOL    MW412078   1.191   3.605   4.611  0.3992  0.0700  0.1430
 3077SOL     OW12079   1.081   5.795   5.296 -0.3695  0.3525 -0.3019
 3077SOL    HW212080   1.130   5.745   5.361 -0.5897  0.2823 -0.1884
 3077SOL    HW312081   1.147   5.848   5.251  0.0821 -1.0502 -1.3727
 3077SOL    MW412082   1.096   5.795   5.298 -0.3390  0.1582 -0.4282
 3078SOL     OW12083   1.799   3.125   0.783  0.2773  0.0505 -0.0359
 3078SOL    HW212084   1.753   3.101   0.864 -1.3955  0.8044 -0.7272
 3078SOL    HW312085   1.865   3.189   0.812  1.5072 -1.6494  1.0888
 3078SOL    MW412086   1.802   3.131   0.798  0.2189 -0.0743  0.0213
 3079SOL     OW12087   4.100   0.010   0.937 -0.5932 -0.0735  0.0230
 3079SOL    HW212088   4.015   0.054   0.928 -0.3657  0.4071  0.1792
 3079SOL    HW312089   4.155   0.074   0.981 -0.8818 -1.2979  2.3299
 3079SOL    MW412090   4.096   0.024   0.942 -0.6012 -0.1716  0.3480
 3080SOL     OW12091   3.741   2.325   1.474  0.2727 -0.2999 -0.0812
 3080SOL    HW212092   3.680   2.398   1.469  0.6374 -0.0778 -2.5017
 3080SOL    HW312093   3.823   2.364   1.506 -0.1312 -0.1095  0.7474
 3080SOL    MW412094   3.744   2.340   1.478  0.2675 -0.2455 -0.2913
 3081SOL     OW12095   1.200   1.149   5.002  0.2264 -0.1650 -0.2549
 3081SOL    HW212096   1.248   1.168   5.082  1.3749 -1.5489 -0.5792
 3081SOL    HW312097   1.125   1.208   5.005  1.8263  1.9543  0.3506
 3081SOL    MW412098   1.196   1.159   5.013  0.5890 -0.0679 -0.2178
 3082SOL     OW12099   4.084   0.493   1.135 -0.0806 -0.4378  0.0494
 3082SOL    HW212100   4.061   0.572   1.184 -0.6039  0.1042 -1.0187
 3082SOL    HW312101   4.042   0.422   1.183 -0.4115  0.0475  0.4961
 3082SOL    MW412102   4.075   0.494   1.148 -0.1933 -0.3022 -0.0326
 3083SOL     OW12103   0.922   2.533   2.673 -0.0514  0.0826 -0.4225
 3083SOL    HW212104   0.890   2.556   2.760  1.5412  0.9225 -0.0173
 3083SOL    HW312105   0.989   2.467   2.689  0.9810  0.9846 -0.8911
 3083SOL    MW412106   0.926   2.528   2.687  0.2949  0.3124 -0.4309
 3084SOL     OW12107   0.010   0.237   3.181  0.3693  0.0430 -0.2488
 3084SOL    HW212108  -0.051   0.274   3.245  1.0073 -0.4803  0.6759
 3084SOL    HW312109  -0.021   0.148   3.166  0.2687  0.1378 -0.6046
 3084SOL    MW412110  -0.002   0.230   3.188  0.4402 -0.0135 -0.1737
 3085SOL     OW12111   1.439   3.998   5.424  0.7996  0.4399 -0.4090
 3085SOL    HW212112   1.457   3.983   5.331 -0.2892  0.8241 -0.6955
 3085SOL    HW312113   1.384   3.923   5.450  0.5182  0.6975 -0.2579
 3085SOL    MW412114   1.434   3.986   5.415  0.6188  0.5246 -0.4269
 3086SOL     OW12115   5.975   2.363   2.391 -0.0490  0.4278 -0.7121
 3086SOL    HW212116   5.897   2.311   2.369 -0.1400  0.3979 -0.3266
 3086SOL    HW312117   6.048   2.312   2.358 -0.2062  0.5615 -1.2747
 3086SOL    MW412118   5.974   2.350   2.384 -0.0817  0.4415 -0.7354
 3087SOL     OW12119   4.272   5.235   6.184  0.4903 -0.2288  0.1413
 3087SOL    HW212120   4.259   5.244   6.089 -1.3496 -2.6713  0.0570
 3087SOL    HW312121   4.241   5.317   6.220  0.4011  0.4143 -1.3247
 3087SOL    MW412122   4.266   5.247   6.176  0.2358 -0.4662 -0.0633
 3088SOL     OW12123   2.528   5.056   5.166  0.1498  0.9591 -0.4887
 3088SOL    HW212124   2.618   5.045   5.137  0.5887  2.5574  0.1249
 3088SOL    HW312125   2.485   5.104   5.095 -0.5956 -0.8849 -1.3364
 3088SOL    MW412126   2.534   5.061   5.153  0.1093  0.9267 -0.5196
 3089SOL     OW12127   0.156   0.553   2.410 -0.0184  0.0501  0.1293
 3089SOL    HW212128   0.222   0.609   2.451  0.7698 -1.6082  1.2490
 3089SOL    HW312129   0.117   0.503   2.482 -0.0616 -1.4555 -0.8731
 3089SOL    MW412130   0.160   0.554   2.425  0.0799 -0.3673  0.1448
 3090SOL     OW12131   5.977   5.496   1.485 -0.4696 -0.1604  0.3308
 3090SOL    HW212132   6.021   5.495   1.400  1.1246  0.6524  1.1109
 3090SOL    HW312133   5.915   5.423   1.480 -0.8688  0.2561 -1.7444
 3090SOL    MW412134   5.975   5.486   1.473 -0.3119  0.0018  0.1600
 3091SOL     OW12135   6.402   3.629   3.663 -0.3929  0.5243 -0.5040
 3091SOL    HW212136   6.387   3.719   3.633 -0.0638  0.8348  0.2335
 3091SOL    HW312137   6.458   3.639   3.740 -2.0691 -0.1483  0.8734
 3091SOL    MW412138   6.407   3.642   3.669 -0.5706  0.4765 -0.2250
 3092SOL     OW12139   3.370   3.362   3.278  0.1229  0.0523  0.1411
 3092SOL    HW212140   3.335   3.312   3.204  1.9419  1.3084 -1.6578
 3092SOL    HW312141   3.309   3.434   3.289  0.0854  0.1180 -0.4495
 3092SOL    MW412142   3.358   3.365   3.270  0.3579  0.2267 -0.1741
 3093SOL     OW12143   5.973   1.820   0.396  0.2443  0.0176 -0.7551
 3093SOL    HW212144   5.991   1.878   0.469  1.2858  0.8182 -1.6243
 3093SOL    HW312145   5.891   1.853   0.358  0.1961  0.1651 -0.5214
 3093SOL    MW412146   5.964   1.832   0.401  0.3753  0.1427 -0.8389
 3094SOL     OW12147   1.070   4.699   6.300  0.2279 -0.2144  0.1282
 3094SOL    HW212148   1.159   4.730   6.317  0.1293  0.0438  0.1917
 3094SOL    HW312149   1.015   4.776   6.317 -0.1900 -0.8433  1.9488
 3094SOL    MW412150   1.075   4.713   6.305  0.1598 -0.2633  0.3768
 3095SOL     OW12151   4.618   3.965   1.124  0.4244 -0.3230 -0.0819
 3095SOL    HW212152   4.642   4.010   1.205  1.4562  0.0736 -0.5798
 3095SOL    HW312153   4.529   3.934   1.139  0.6532 -0.4041  1.2611
 3095SOL    MW412154   4.609   3.967   1.137  0.5907 -0.2814  0.0296
 3096SOL     OW12155   3.532   0.984   3.643  0.2985 -0.4099 -0.5454
 3096SOL    HW212156   3.488   0.959   3.562 -1.1509 -1.7831  0.5872
 3096SOL    HW312157   3.470   1.042   3.687  1.9462  2.0545 -1.2883
 3096SOL    MW412158   3.518   0.988   3.639  0.3247 -0.2659 -0.4940
 3097SOL     OW12159   0.730   2.013   0.781 -0.2609 -0.2833 -0.2374
 3097SOL    HW212160   0.741   1.920   0.800 -1.4420 -0.7978 -1.7795
 3097SOL    HW312161   0.783   2.058   0.846  0.4038 -2.0389  0.4933
 3097SOL    MW412162   0.739   2.006   0.792 -0.3290 -0.5828 -0.3444
 3098SOL     OW12163   0.219   5.334   4.799 -0.3321  0.5751 -0.0517
 3098SOL    HW212164   0.244   5.422   4.828 -0.2209  0.3241  0.6272
 3098SOL    HW312165   0.164   5.349   4.722 -0.8863  1.2693  0.4662
 3098SOL    MW412166   0.215   5.348   4.792 -0.3906  0.6335  0.1062
 3099SOL     OW12167   0.517   6.185   5.478 -0.0715 -0.7104 -0.0536
 3099SOL    HW212168   0.571   6.112   5.509  2.3117  0.5568 -1.0267
 3099SOL    HW312169   0.524   6.182   5.383 -3.9962 -2.0715 -0.5039
 3099SOL    MW412170   0.525   6.175   5.470 -0.2749 -0.7228 -0.2414
 3100SOL     OW12171   0.893   3.298   2.336 -0.5748  0.0659  0.5032
 3100SOL    HW212172   0.902   3.310   2.242  3.1472 -0.6011  0.6360
 3100SOL    HW312173   0.831   3.225   2.345  0.4295 -1.1508 -1.5630
 3100SOL    MW412174   0.886   3.290   2.325  0.0488 -0.1826  0.2481
 3101SOL     OW12175   1.597   4.460   5.395  0.0831 -0.2983  0.1071
 3101SOL    HW212176   1.551   4.387   5.438 -0.8055 -0.2630 -0.7485
 3101SOL    HW312177   1.561   4.538   5.438 -0.0955 -0.3046 -0.0290
 3101SOL    MW412178   1.586   4.461   5.407 -0.0577 -0.2945 -0.0238
 3102SOL     OW12179   0.896   0.172   6.060  0.2313  0.0248  0.1080
 3102SOL    HW212180   0.984   0.154   6.027 -0.7109  0.3482 -2.9576
 3102SOL    HW312181   0.861   0.086   6.082  1.2924 -0.1016  1.3790
 3102SOL    MW412182   0.903   0.158   6.058  0.2470  0.0508 -0.1288
 3103SOL     OW12183   3.034   3.310   0.444 -0.7572  0.5422 -0.7192
 3103SOL    HW212184   3.019   3.385   0.502 -0.2416 -0.4168  0.6932
 3103SOL    HW312185   3.004   3.234   0.494 -0.9086 -0.2637 -1.9716
 3103SOL    MW412186   3.028   3.310   0.458 -0.7092  0.3094 -0.6981
 3104SOL     OW12187   4.359   5.742   5.709 -0.2684 -0.2471  0.0422
 3104SOL    HW212188   4.452   5.763   5.697 -0.7030  1.2233 -0.9246
 3104SOL    HW312189   4.349   5.734   5.804  0.9750 -1.1264  0.1259
 3104SOL    MW412190   4.370   5.743   5.720 -0.1617 -0.1691 -0.0743
 3105SOL     OW12191   6.231   2.854   3.623 -0.1646 -0.3133  0.3648
 3105SOL    HW212192   6.182   2.790   3.674  1.6190 -1.2097  1.0298
 3105SOL    HW312193   6.266   2.915   3.688 -2.7622  2.1664 -0.3095
 3105SOL    MW412194   6.229   2.854   3.638 -0.2720 -0.1044  0.3636
 3106SOL     OW12195   3.100   6.036   2.525 -0.0198 -0.6286  0.1079
 3106SOL    HW212196   3.162   5.964   2.525 -1.2550 -1.7296 -0.0921
 3106SOL    HW312197   3.085   6.055   2.617  0.3757 -0.5718  0.1603
 3106SOL    MW412198   3.106   6.029   2.537 -0.1306 -0.7663  0.0884
 3107SOL     OW12199   1.417   4.735   5.141  0.1310 -0.1866 -0.2897
 3107SOL    HW212200   1.491   4.675   5.134  1.2754  1.1456 -0.1377
 3107SOL    HW312201   1.356   4.692   5.201 -0.0735 -2.1165 -1.7772
 3107SOL    MW412202   1.419   4.722   5.148  0.2550 -0.2655 -0.4659
 3108SOL     OW12203   5.405   2.812   5.964  0.0207 -0.0791 -0.6139
 3108SOL    HW212204   5.436   2.900   5.943 -0.5759  0.2085 -0.2880
 3108SOL    HW312205   5.362   2.782   5.884 -0.6831  0.3285 -0.3951
 3108SOL    MW412206   5.404   2.819   5.950 -0.1509  0.0127 -0.5420
 3109SOL     OW12207   4.757   2.381   4.130  0.0604  0.0785  0.1929
 3109SOL    HW212208   4.674   2.400   4.173  0.5123  0.7500  0.7993
 3109SOL    HW312209   4.752   2.288   4.107 -0.8297  0.1040  0.2752
 3109SOL    MW412210   4.746   2.371   4.133  0.0026  0.1705  0.2838
 3110SOL     OW12211   1.786   0.243   3.044 -0.0143  0.0711  0.5242
 3110SOL    HW212212   1.741   0.164   3.014  0.2287  0.3148 -0.5252
 3110SOL    HW312213   1.738   0.271   3.122  0.4883 -1.6625  1.5086
 3110SOL    MW412214   1.774   0.236   3.050  0.0841 -0.1255  0.5156
 3111SOL     OW12215   1.926   4.312   0.571  0.0549  0.1236 -0.0877
 3111SOL    HW212216   1.890   4.268   0.494  0.6406  3.5168 -2.5036
 3111SOL    HW312217   1.865   4.290   0.642 -1.1813 -2.1718 -1.7356
 3111SOL    MW412218   1.913   4.303   0.570 -0.0309  0.2685 -0.6238
 3112SOL     OW12219   0.238   1.780   4.312  0.3132 -0.2121  0.3735
 3112SOL    HW212220   0.287   1.861   4.324  0.4763  0.1048 -2.0070
 3112SOL    HW312221   0.148   1.808   4.296  0.2823 -0.5285 -0.0206
 3112SOL    MW412222   0.232   1.795   4.312  0.3306 -0.2120  0.0074
 3113SOL     OW12223   1.331   3.253   3.240 -0.0978 -0.0093 -0.2460
 3113SOL    HW212224   1.388   3.198   3.294  1.3728  1.2512 -0.4247
 3113SOL    HW312225   1.261   3.280   3.300 -0.9612 -2.1429 -0.2062
 3113SOL    MW412226   1.330   3.249   3.255 -0.0177 -0.1245 -0.2643
 3114SOL     OW12227   2.420   2.354   0.791 -0.1218  0.1693  0.4379
 3114SOL    HW212228   2.416   2.276   0.736 -1.2363 -1.2854  2.4753
 3114SOL    HW312229   2.394   2.426   0.732  1.2428 -0.8686 -1.5574
 3114SOL    MW412230   2.416   2.353   0.776 -0.0888 -0.1596  0.4435
 3115SOL     OW12231   2.937   5.705   5.268  0.3399  0.3659 -0.2265
 3115SOL    HW212232   2.916   5.654   5.189  0.1532 -0.6544  0.4641
 3115SOL    HW312233   2.878   5.670   5.335  1.7190 -0.0281  0.8330
 3115SOL    MW412234   2.926   5.693   5.266  0.4972  0.1793  0.0044
 3116SOL     OW12235   5.411   5.259   3.725  0.3246 -0.7241  0.1821
 3116SOL    HW212236   5.375   5.198   3.789  0.6750 -0.6283  0.4753
 3116SOL    HW312237   5.505   5.244   3.729  0.4580  0.1736  0.6103
 3116SOL    MW412238   5.419   5.249   3.734  0.3884 -0.5930  0.2773
 3117SOL     OW12239   4.280   1.006   2.876  0.1494  0.3486 -0.1672
 3117SOL    HW212240   4.326   1.054   2.946  0.4638 -0.1185 -0.0446
 3117SOL    HW312241   4.336   0.930   2.859  0.7787  1.1657 -1.8935
 3117SOL    MW412242   4.294   1.002   2.883  0.2739  0.3947 -0.3788
 3118SOL     OW12243   0.824   4.248   2.680  0.1575 -0.1144 -0.1173
 3118SOL    HW212244   0.889   4.247   2.750  0.7541  1.3761 -0.5969
 3118SOL    HW312245   0.820   4.158   2.649  0.3429 -0.6776  1.3971
 3118SOL    MW412246   0.832   4.236   2.686  0.2607  0.0079  0.0192
 3119SOL     OW12247   6.148   5.529   3.453 -0.8224  0.0715 -0.4918
 3119SOL    HW212248   6.159   5.487   3.368 -1.6676 -1.4129  0.0865
 3119SOL    HW312249   6.053   5.541   3.462 -1.1917 -3.0606  1.6338
 3119SOL    MW412250   6.137   5.525   3.443 -0.9826 -0.5376 -0.1351
 3120SOL     OW12251   3.655   5.476   4.282 -0.4746 -0.0055 -0.1085
 3120SOL    HW212252   3.596   5.407   4.312  1.3305 -0.6146  2.2913
 3120SOL    HW312253   3.729   5.429   4.244 -0.3414  0.6848 -0.7306
 3120SOL    MW412254   3.657   5.461   4.281 -0.2189  0.0052  0.1261
 3121SOL     OW12255   5.333   4.717   3.218  0.2887  0.1572 -0.3078
 3121SOL    HW212256   5.263   4.731   3.154  1.6978  1.8308 -1.6029
 3121SOL    HW312257   5.289   4.716   3.302 -1.2098  2.7720 -0.9505
 3121SOL    MW412258   5.318   4.719   3.220  0.2769  0.7230 -0.5635
 3122SOL     OW12259   3.895   4.432   3.504 -0.0917 -0.4028 -0.6149
 3122SOL    HW212260   3.980   4.438   3.548 -0.7366 -0.9470  0.7957
 3122SOL    HW312261   3.897   4.347   3.459  0.8015  0.4233 -2.1773
 3122SOL    MW412262   3.906   4.421   3.504 -0.0590 -0.3656 -0.6349
 3123SOL     OW12263   3.391   5.229   0.088  0.0288  0.4519 -0.1115
 3123SOL    HW212264   3.442   5.150   0.070 -0.6609 -0.5205  1.9000
 3123SOL    HW312265   3.439   5.299   0.044  2.0227 -0.7063  0.0910
 3123SOL    MW412266   3.404   5.228   0.080  0.2009  0.1708  0.1806
 3124SOL     OW12267   5.030   0.259   0.183 -0.2297 -0.6902  0.7990
 3124SOL    HW212268   4.974   0.182   0.170 -1.0831 -0.1874  1.4454
 3124SOL    HW312269   5.049   0.259   0.277 -0.8903  0.3247  0.9455
 3124SOL    MW412270   5.025   0.248   0.194 -0.4295 -0.4899  0.9036
 3125SOL     OW12271   3.405   0.115   1.884 -0.3793 -0.1967  0.0522
 3125SOL    HW212272   3.443   0.079   1.804  1.1888  1.6190 -0.1115
 3125SOL    HW312273   3.406   0.042   1.946 -0.3891 -1.2794 -1.1732
 3125SOL    MW412274   3.411   0.101   1.882 -0.1737 -0.1000 -0.1311
 3126SOL     OW12275   4.606   4.113   5.599  0.0626  0.3555 -0.2222
 3126SOL    HW212276   4.611   4.026   5.559 -0.0560 -0.8439  2.1551
 3126SOL    HW312277   4.683   4.117   5.656 -1.1043  0.8825  1.3766
 3126SOL    MW412278   4.617   4.102   5.601 -0.1070  0.2668  0.3024
 3127SOL     OW12279   3.103   5.712   3.930  0.2686  0.0861  0.5048
 3127SOL    HW212280   3.053   5.700   3.850  1.6537  1.4135 -0.6322
 3127SOL    HW312281   3.082   5.801   3.958  0.7549  0.0813  0.8982
 3127SOL    MW412282   3.094   5.722   3.923  0.5155  0.2606  0.4066
 3128SOL     OW12283   2.548   4.633   3.869 -1.0479  0.7928  0.1565
 3128SOL    HW212284   2.465   4.634   3.822  0.1808  1.4792 -2.1642
 3128SOL    HW312285   2.565   4.725   3.890 -0.6404  0.7176  0.1638
 3128SOL    MW412286   2.540   4.646   3.866 -0.8320  0.8734 -0.1487
 3129SOL     OW12287   5.391   5.311   0.136 -0.2313  0.3994 -0.0950
 3129SOL    HW212288   5.439   5.292   0.055 -1.9520 -0.3429 -1.0032
 3129SOL    HW312289   5.433   5.257   0.203 -1.3816 -2.3388 -1.4114
 3129SOL    MW412290   5.403   5.302   0.134 -0.6101 -0.0598 -0.3885
 3130SOL     OW12291   4.133   1.284   4.845 -0.2243  0.1894 -0.2843
 3130SOL    HW212292   4.097   1.197   4.836  1.0283 -0.2957 -0.9096
 3130SOL    HW312293   4.071   1.341   4.801 -2.3540  0.0212  2.2720
 3130SOL    MW412294   4.120   1.280   4.838 -0.3400  0.1032 -0.0295
 3131SOL     OW12295   1.865   4.969   3.089  0.0989 -0.0460 -0.7839
 3131SOL    HW212296   1.846   4.907   3.160 -0.1020  1.8598  0.9427
 3131SOL    HW312297   1.781   5.013   3.072  0.7825  1.7015  0.0764
 3131SOL    MW412298   1.851   4.967   3.096  0.1626  0.4360 -0.4426
 3132SOL     OW12299   0.849   5.162   2.720 -0.3812  0.4239  0.0032
 3132SOL    HW212300   0.934   5.198   2.695  1.0508 -1.6642  1.5477
 3132SOL    HW312301   0.826   5.206   2.802  0.4337 -0.7032  0.8671
 3132SOL    MW412302   0.857   5.172   2.727 -0.0848 -0.0003  0.3210
 3133SOL     OW12303   6.157   5.051   2.699 -0.1004 -0.0453  0.0040
 3133SOL    HW212304   6.121   5.000   2.771  2.7534 -1.7367  0.3793
 3133SOL    HW312305   6.243   5.012   2.681  0.7046  2.3535 -2.1729
 3133SOL    MW412306   6.164   5.039   2.706  0.3823  0.0480 -0.2337
 3134SOL     OW12307   0.459   5.727   2.594  0.2000 -0.0991  0.0339
 3134SOL    HW212308   0.510   5.647   2.610  0.0186 -0.1909  0.1598
 3134SOL    HW312309   0.446   5.765   2.681 -1.3767 -0.9616  0.2237
 3134SOL    MW412310   0.464   5.721   2.608 -0.0319 -0.2250  0.0755
 3135SOL     OW12311   4.619   1.415   3.607  0.5940 -0.0162  0.2983
 3135SOL    HW212312   4.609   1.338   3.551  1.4988  0.1741 -0.1550
 3135SOL    HW312313   4.533   1.455   3.609  0.6670  0.3084 -1.4853
 3135SOL    MW412314   4.607   1.410   3.600  0.7230  0.0517  0.0032
 3136SOL     OW12315   1.730   3.920   1.286 -0.0299  0.5308 -0.1449
 3136SOL    HW212316   1.784   3.867   1.227 -0.5666 -0.2615  0.0644
 3136SOL    HW312317   1.662   3.861   1.316 -1.8523  1.8481 -1.4524
 3136SOL    MW412318   1.728   3.905   1.282 -0.3411  0.6001 -0.2898
 3137SOL     OW12319   0.448   5.699   4.110 -0.3041  0.2160 -0.0965
 3137SOL    HW212320   0.437   5.605   4.122 -0.5878  0.3173  0.4939
 3137SOL    HW312321   0.542   5.711   4.095  0.0149 -0.0115  1.4702
 3137SOL    MW412322   0.459   5.688   4.110 -0.2994  0.1994  0.1881
 3138SOL     OW12323   1.622   4.013   0.607 -0.5620  0.1179 -0.1488
 3138SOL    HW212324   1.606   4.074   0.535 -0.5073  0.8500  0.4459
 3138SOL    HW312325   1.655   3.934   0.565 -1.8657  0.0275 -1.0439
 3138SOL    MW412326   1.624   4.011   0.592 -0.7268  0.2026 -0.1884
 3139SOL     OW12327   1.804   6.127   4.930  0.3680 -0.0340  0.0601
 3139SOL    HW212328   1.848   6.197   4.882  0.9000 -0.8764 -0.7148
 3139SOL    HW312329   1.730   6.102   4.875  0.2571 -0.1731  0.2716
 3139SOL    MW412330   1.800   6.133   4.917  0.4236 -0.1635 -0.0142
 3140SOL     OW12331   3.895   4.442   1.444 -0.3072  0.3143 -0.1622
 3140SOL    HW212332   3.823   4.478   1.496 -2.3792 -1.4020 -1.6436
 3140SOL    HW312333   3.854   4.373   1.391  1.9306  0.8957 -2.9182
 3140SOL    MW412334   3.880   4.438   1.444 -0.2854  0.1645 -0.7213
 3141SOL     OW12335   2.930   3.477   1.804 -0.3208  0.0910  0.8820
 3141SOL    HW212336   2.874   3.413   1.760  0.2546 -0.0964  0.3979
 3141SOL    HW312337   2.905   3.561   1.765  1.9318 -0.3206 -1.8199
 3141SOL    MW412338   2.920   3.480   1.793  0.0523  0.0119  0.4616
 3142SOL     OW12339   5.113   4.310   4.106 -0.2683 -0.3334  0.1428
 3142SOL    HW212340   5.063   4.386   4.135 -1.6817 -0.3131 -2.1024
 3142SOL    HW312341   5.096   4.244   4.173 -2.0767  0.1703  0.2360
 3142SOL    MW412342   5.104   4.311   4.119 -0.6934 -0.2642 -0.1411
 3143SOL     OW12343   2.458   5.113   2.837 -0.3125  0.2144 -0.3349
 3143SOL    HW212344   2.435   5.119   2.930  0.5715 -1.3291  0.0269
 3143SOL    HW312345   2.432   5.197   2.800 -2.2646  0.2259  0.9506
 3143SOL    MW412346   2.452   5.124   2.844 -0.4535  0.0123 -0.1175
 3144SOL     OW12347   3.416   0.973   4.529  0.6547 -0.1520  0.1426
 3144SOL    HW212348   3.335   0.988   4.480 -1.3009 -3.2800  2.0533
 3144SOL    HW312349   3.480   0.950   4.462 -1.7374 -3.6761 -1.2934
 3144SOL    MW412350   3.414   0.972   4.513  0.0811 -1.0297  0.2052
 3145SOL     OW12351   5.674   0.458   3.842 -0.4218  0.2525 -0.2637
 3145SOL    HW212352   5.714   0.486   3.924  0.6874  1.0644 -1.0355
 3145SOL    HW312353   5.748   0.453   3.781 -1.1687 -0.6761 -1.1232
 3145SOL    MW412354   5.689   0.461   3.845 -0.3740  0.2371 -0.4790
 3146SOL     OW12355   6.172   4.587   0.181  0.0846  0.3058  0.9641
 3146SOL    HW212356   6.155   4.680   0.198 -0.0170  0.3910  0.4283
 3146SOL    HW312357   6.085   4.547   0.178  0.1245  0.2076  1.1170
 3146SOL    MW412358   6.159   4.594   0.183  0.0765  0.3041  0.9136
 3147SOL     OW12359   1.448   3.003   0.036 -0.2370 -0.3250 -0.1554
 3147SOL    HW212360   1.371   2.951   0.015  0.7536 -2.1492  0.4627
 3147SOL    HW312361   1.460   2.992   0.131  1.4019 -1.0332 -0.4076
 3147SOL    MW412362   1.440   2.995   0.046  0.1100 -0.6591 -0.1071
 3148SOL     OW12363   1.107   1.727   4.682  0.1665  0.3461 -0.1811
 3148SOL    HW212364   1.033   1.673   4.711  2.0347 -3.7681 -2.2902
 3148SOL    HW312365   1.176   1.709   4.745  0.8584  0.2051 -0.9704
 3148SOL    MW412366   1.106   1.718   4.694  0.5043 -0.2153 -0.5635
 3149SOL     OW12367   1.115   1.530   4.336  0.0489 -0.2009 -0.2516
 3149SOL    HW212368   1.050   1.461   4.349  0.6387 -0.4427  1.8478
 3149SOL    HW312369   1.065   1.612   4.348 -0.5102 -0.2359 -2.0612
 3149SOL    MW412370   1.099   1.532   4.340  0.0530 -0.2374 -0.2134
 3150SOL     OW12371   2.369   4.506   2.648 -0.0614 -0.8817 -0.3841
 3150SOL    HW212372   2.314   4.574   2.608  1.4501  1.1265  0.7498
 3150SOL    HW312373   2.364   4.432   2.587 -0.4496  0.8549 -2.6105
 3150SOL    MW412374   2.361   4.505   2.635  0.0868 -0.3876 -0.5282
 3151SOL     OW12375   1.046   3.058   5.841 -0.0913 -0.4844 -0.2652
 3151SOL    HW212376   1.092   3.057   5.925 -1.1214 -1.2635  0.3157
 3151SOL    HW312377   1.113   3.083   5.777  1.2198 -1.8654  0.4933
 3151SOL    MW412378   1.061   3.061   5.844 -0.0542 -0.7694 -0.0885
 3152SOL     OW12379   0.603   1.469   1.872 -0.0489  0.1725 -0.2689
 3152SOL    HW212380   0.578   1.514   1.952  0.7313  1.1402 -0.5409
 3152SOL    HW312381   0.555   1.515   1.803 -0.0271 -0.0799 -0.4550
 3152SOL    MW412382   0.593   1.481   1.873  0.0569  0.2669 -0.3293
 3153SOL     OW12383   4.461   4.967   2.476 -0.0761  0.5684 -0.0640
 3153SOL    HW212384   4.457   4.902   2.406  0.8496 -1.6938  1.8180
 3153SOL    HW312385   4.378   4.959   2.522 -0.4852  1.6886 -0.5835
 3153SOL    MW412386   4.450   4.957   2.473 -0.0080  0.4178  0.1157
 3154SOL     OW12387   5.349   3.579   6.141  0.3748 -0.1720 -0.3606
 3154SOL    HW212388   5.431   3.625   6.157  0.3649 -0.6884  1.4480
 3154SOL    HW312389   5.322   3.549   6.228 -2.1881  0.7527 -0.7597
 3154SOL    MW412390   5.356   3.581   6.155  0.0354 -0.1181 -0.1747
 3155SOL     OW12391   5.968   2.343   0.672 -0.0414  0.0655 -0.1463
 3155SOL    HW212392   5.920   2.426   0.675 -0.3725 -0.1135 -0.4220
 3155SOL    HW312393   6.017   2.341   0.754 -0.8502  0.0522  0.3558
 3155SOL    MW412394   5.968   2.354   0.683 -0.1918  0.0401 -0.1164
 3156SOL     OW12395   0.796   1.520   2.339 -0.2130  0.1664 -0.3286
 3156SOL    HW212396   0.761   1.598   2.296 -1.3541 -0.0532  0.1674
 3156SOL    HW312397   0.783   1.536   2.433  1.7025  0.3849 -0.0674
 3156SOL    MW412398   0.789   1.532   2.346 -0.1108  0.1662 -0.2287
 3157SOL     OW12399   1.768   3.079   6.044 -0.3083  0.1862  0.0996
 3157SOL    HW212400   1.674   3.068   6.033 -0.3118 -2.7232  1.8538
 3157SOL    HW312401   1.807   3.028   5.973  0.0220  2.0392 -1.1099
 3157SOL    MW412402   1.761   3.071   6.033 -0.2652  0.0468  0.1714
 3158SOL     OW12403   1.809   1.347   4.083  0.2614 -0.4186 -0.7366
 3158SOL    HW212404   1.899   1.353   4.049  1.1849 -0.1927  1.5597
 3158SOL    HW312405   1.805   1.413   4.151 -1.9438  0.0922 -1.3017
 3158SOL    MW412406   1.820   1.356   4.087  0.0923 -0.3214 -0.5082
 3159SOL     OW12407   1.423   4.805   4.794 -0.2233  0.1011 -0.6418
 3159SOL    HW212408   1.459   4.855   4.867 -0.3705  0.4062 -0.7758
 3159SOL    HW312409   1.435   4.713   4.819 -4.2975 -0.0032  1.9153
 3159SOL    MW412410   1.429   4.800   4.807 -0.7802  0.1276 -0.3221
 3160SOL     OW12411   3.941   2.567   1.360 -0.2733  0.5773  0.1398
 3160SOL    HW212412   3.863   2.619   1.338 -2.0979 -0.7060  3.0865
 3160SOL    HW312413   3.947   2.502   1.290 -0.9717  1.5358 -0.8507
 3160SOL    MW412414   3.932   2.565   1.348 -0.6062  0.5345  0.3979
 3161SOL     OW12415   3.077   2.987   6.043  0.1008 -0.6073  0.4646
 3161SOL    HW212416   3.102   3.075   6.017 -0.5029 -0.7701 -0.7469
 3161SOL    HW312417   3.086   2.935   5.964 -2.0256 -1.0881  0.4797
 3161SOL    MW412418   3.082   2.992   6.029 -0.2594 -0.6922  0.3068
 3162SOL     OW12419   1.321   2.842   3.794 -0.6019  0.0397 -0.1171
 3162SOL    HW212420   1.403   2.801   3.822  0.0474  0.5189 -1.2628
 3162SOL    HW312421   1.289   2.888   3.872 -1.2151 -2.3489  1.1496
 3162SOL    MW412422   1.327   2.842   3.808 -0.5971 -0.2123 -0.1011
 3163SOL     OW12423   6.209   6.029   3.465  0.3896  0.2480  0.8425
 3163SOL    HW212424   6.118   6.026   3.436  0.6197  0.9173  0.0234
 3163SOL    HW312425   6.220   5.951   3.519 -1.1728  1.0917  2.4506
 3163SOL    MW412426   6.199   6.019   3.468  0.2139  0.4476  0.9466
 3164SOL     OW12427   3.476   4.907   6.157  0.0750  0.2311  0.0223
 3164SOL    HW212428   3.496   4.967   6.229 -0.5241  1.6203 -0.9074
 3164SOL    HW312429   3.397   4.943   6.117 -0.4093 -1.2997 -0.4792
 3164SOL    MW412430   3.468   4.920   6.161 -0.0680  0.2124 -0.1665
 3165SOL     OW12431   6.193   6.285   1.321  0.1984  0.1481 -0.5993
 3165SOL    HW212432   6.236   6.248   1.398  0.5852  0.1342 -0.8147
 3165SOL    HW312433   6.222   6.376   1.319  1.1786 -0.1561 -1.3991
 3165SOL    MW412434   6.203   6.292   1.331  0.3788  0.1061 -0.7332
 3166SOL     OW12435   5.322   3.155   5.114 -0.2275 -0.2691  0.1483
 3166SOL    HW212436   5.331   3.203   5.197  0.7365  1.5156 -0.9216
 3166SOL    HW312437   5.233   3.121   5.115 -0.6387  0.7647  1.3763
 3166SOL    MW412438   5.312   3.156   5.125 -0.1545  0.1028  0.1692
 3167SOL     OW12439   5.147   0.312   5.247 -0.2114  0.4312  0.3503
 3167SOL    HW212440   5.095   0.239   5.216  1.8791 -0.0828 -2.2653
 3167SOL    HW312441   5.090   0.388   5.237 -1.0601 -0.3197 -0.7226
 3167SOL    MW412442   5.133   0.313   5.242 -0.0476  0.2643 -0.1363
 3168SOL     OW12443   6.118   0.244   2.942 -0.7952  0.6450  0.0125
 3168SOL    HW212444   6.195   0.300   2.933 -0.5270  0.4347  0.8751
 3168SOL    HW312445   6.055   0.299   2.990 -1.2537  0.8749 -0.8340
 3168SOL    MW412446   6.120   0.259   2.947 -0.8203  0.6476  0.0147
 3169SOL     OW12447   2.900   5.438   2.508  0.1329  0.0784 -0.1076
 3169SOL    HW212448   2.848   5.493   2.567  0.1524  0.4030 -0.3917
 3169SOL    HW312449   2.956   5.386   2.567 -0.5965 -0.3719  0.2075
 3169SOL    MW412450   2.900   5.438   2.524  0.0393  0.0618 -0.1035
 3170SOL     OW12451   4.014   6.332   4.838 -0.1886 -1.0788  0.1687
 3170SOL    HW212452   4.035   6.251   4.884  0.7126 -1.5239 -0.9543
 3170SOL    HW312453   3.964   6.303   4.761  1.4054 -0.7866 -1.0501
 3170SOL    MW412454   4.010   6.317   4.834  0.1406 -1.0990 -0.1403
 3171SOL     OW12455   2.640   5.191   0.412 -0.7670  0.2852 -0.5803
 3171SOL    HW212456   2.703   5.263   0.415 -0.7421  0.2389  0.6065
 3171SOL    HW312457   2.556   5.235   0.396 -0.8662  0.6857  0.8966
 3171SOL    MW412458   2.637   5.207   0.410 -0.7768  0.3319 -0.2289
 3172SOL     OW12459   0.152   0.028   0.898 -0.0467 -0.4464 -0.1551
 3172SOL    HW212460   0.151   0.116   0.936  3.0025  0.0112 -0.8473
 3172SOL    HW312461   0.088   0.032   0.827 -0.0197  1.1765 -0.1277
 3172SOL    MW412462   0.143   0.041   0.894  0.3592 -0.1719 -0.2429
 3173SOL     OW12463   2.934   5.320   4.709 -0.1100 -0.1352 -0.3840
 3173SOL    HW212464   2.859   5.332   4.767 -0.9220 -0.9522 -1.2527
 3173SOL    HW312465   2.970   5.235   4.733  0.7869  0.3962  0.2675
 3173SOL    MW412466   2.929   5.310   4.720 -0.0988 -0.1729 -0.4127
 3174SOL     OW12467   6.376   0.265   0.072 -0.0147  0.2528 -0.2061
 3174SOL    HW212468   6.347   0.351   0.102  1.8700  0.9295 -0.2520
 3174SOL    HW312469   6.339   0.204   0.136 -0.7769  1.1471  0.2321
 3174SOL    MW412470   6.367   0.268   0.084  0.1334  0.4600 -0.1543
 3175SOL     OW12471   2.181   0.906   4.229  0.8394  0.0609 -0.3641
 3175SOL    HW212472   2.106   0.965   4.222  0.6378 -0.2805 -1.1649
 3175SOL    HW312473   2.256   0.959   4.201  0.9029  0.3874  0.3912
 3175SOL    MW412474   2.181   0.921   4.224  0.8212  0.0590 -0.3701
 3176SOL     OW12475   6.403   4.852   5.344 -0.3716 -0.8091 -0.7205
 3176SOL    HW212476   6.461   4.778   5.362  0.2168 -0.4067 -0.9156
 3176SOL    HW312477   6.328   4.838   5.401  1.0760  0.0046  1.5671
 3176SOL    MW412478   6.401   4.841   5.354 -0.1030 -0.6486 -0.4444
 3177SOL     OW12479   1.718   1.442   0.307 -0.2767 -0.3727 -0.3019
 3177SOL    HW212480   1.732   1.534   0.285 -0.1012 -0.3416 -0.0658
 3177SOL    HW312481   1.694   1.401   0.224 -1.1083  0.0288 -0.2799
 3177SOL    MW412482   1.716   1.449   0.293 -0.3632 -0.3156 -0.2679
 3178SOL     OW12483   2.916   1.185   4.312  0.3401 -0.2834 -0.4483
 3178SOL    HW212484   2.914   1.193   4.217  0.4057  0.1837 -0.4119
 3178SOL    HW312485   2.848   1.120   4.332 -0.6020  0.5975 -0.7185
 3178SOL    MW412486   2.907   1.177   4.302  0.2244 -0.1055 -0.4791
 3179SOL     OW12487   0.615   2.076   3.249 -0.9931  0.1507 -0.6781
 3179SOL    HW212488   0.555   2.094   3.176 -1.3658  1.7001 -0.0338
 3179SOL    HW312489   0.578   1.999   3.292 -0.7627 -0.8030 -2.0887
 3179SOL    MW412490   0.602   2.068   3.245 -1.0119  0.2293 -0.7792
 3180SOL     OW12491   1.462   6.298   1.719 -0.0675 -0.7114  0.5143
 3180SOL    HW212492   1.551   6.266   1.732  0.4539  0.4883  0.0892
 3180SOL    HW312493   1.470   6.361   1.647 -1.4865 -1.5011 -0.3867
 3180SOL    MW412494   1.475   6.302   1.711 -0.1859 -0.6573  0.3394
 3181SOL     OW12495   3.454   2.137   5.033  0.6455 -0.1330  0.1576
 3181SOL    HW212496   3.488   2.083   4.962  3.8274 -2.1987  2.9427
 3181SOL    HW312497   3.382   2.085   5.070  0.0525  0.1943 -0.5148
 3181SOL    MW412498   3.449   2.123   5.029  0.9871 -0.3624  0.4363
 3182SOL     OW12499   4.322   0.550   3.513  0.1332 -0.1905  0.3204
 3182SOL    HW212500   4.240   0.598   3.526 -0.2906 -0.4440 -1.2213
 3182SOL    HW312501   4.370   0.562   3.595 -0.3956  2.0031  0.3647
 3182SOL    MW412502   4.317   0.558   3.525  0.0075  0.0654  0.1228
 3183SOL     OW12503   4.256   1.389   6.146  0.5393  0.5679  0.0825
 3183SOL    HW212504   4.216   1.475   6.143  1.5101  1.0240 -0.1514
 3183SOL    HW312505   4.308   1.389   6.227  2.6593  1.1972 -1.2103
 3183SOL    MW412506   4.257   1.400   6.156  0.9471  0.7111 -0.1189
 3184SOL     OW12507   3.361   2.623   0.445 -0.1622 -0.2236 -0.0325
 3184SOL    HW212508   3.365   2.549   0.504  3.4566  0.6176  1.0411
 3184SOL    HW312509   3.373   2.700   0.502  1.5984  0.7280 -1.5426
 3184SOL    MW412510   3.363   2.624   0.460  0.5475  0.0129 -0.0901
 3185SOL     OW12511   0.692   5.962   1.501 -0.2420 -0.2611 -0.3440
 3185SOL    HW212512   0.775   5.935   1.539 -0.0399 -0.3441 -0.8373
 3185SOL    HW312513   0.626   5.936   1.566  0.1707  0.5371  0.4247
 3185SOL    MW412514   0.694   5.955   1.515 -0.1609 -0.1667 -0.3076
 3186SOL     OW12515   1.266   0.089   2.656  0.4808  0.1380 -0.0244
 3186SOL    HW212516   1.188   0.133   2.625 -1.5344 -1.2931  2.5621
 3186SOL    HW312517   1.239  -0.003   2.666  2.8880 -0.6624 -0.1992
 3186SOL    MW412518   1.252   0.082   2.653  0.5325 -0.1564  0.2938
 3187SOL     OW12519   5.163   4.070   2.028 -0.2724 -0.4569  0.6788
 3187SOL    HW212520   5.098   4.064   1.957  0.8934 -1.3193 -0.3497
 3187SOL    HW312521   5.222   4.140   2.000 -0.0669 -0.4829  1.0413
 3187SOL    MW412522   5.162   4.079   2.015 -0.0914 -0.5741  0.5910
 3188SOL     OW12523   0.615   6.100   2.459  0.9511  0.5107  1.0138
 3188SOL    HW212524   0.556   6.084   2.532  0.4214 -1.8203  0.1946
 3188SOL    HW312525   0.633   6.012   2.424  0.2354  1.5673 -2.3585
 3188SOL    MW412526   0.610   6.086   2.464  0.7868  0.3426  0.4608
 3189SOL     OW12527   2.868   0.445   1.085 -0.1965  0.1311 -0.0217
 3189SOL    HW212528   2.887   0.393   1.163  3.3060  2.0451  0.6481
 3189SOL    HW312529   2.946   0.436   1.030 -1.0105  1.7457 -1.5579
 3189SOL    MW412530   2.881   0.437   1.088  0.1582  0.5967 -0.1360
 3190SOL     OW12531   0.359   0.624   3.483  0.2743 -0.6236  0.5551
 3190SOL    HW212532   0.333   0.705   3.527  0.5792 -0.0196 -0.3233
 3190SOL    HW312533   0.293   0.560   3.508 -0.5799  0.1828  0.4438
 3190SOL    MW412534   0.347   0.627   3.492  0.2019 -0.4375  0.4245
 3191SOL     OW12535   1.757   2.881   2.966  0.2403  0.1246  0.0742
 3191SOL    HW212536   1.706   2.912   3.042  2.9534  1.1761  1.6195
 3191SOL    HW312537   1.838   2.847   3.004  0.7927 -1.3976 -2.2560
 3191SOL    MW412538   1.761   2.881   2.981  0.6711  0.0625 -0.0293
 3192SOL     OW12539   6.329   0.510   1.746 -0.0533  0.8959 -0.1902
 3192SOL    HW212540   6.339   0.491   1.839  1.8824  2.4527 -0.0220
 3192SOL    HW312541   6.239   0.543   1.738 -0.5093 -0.0102  0.9603
 3192SOL    MW412542   6.318   0.512   1.757  0.1420  0.9818 -0.0162
 3193SOL     OW12543   1.605   3.607   4.539 -0.5224  0.1495  0.0125
 3193SOL    HW212544   1.690   3.631   4.501 -0.2199 -2.4029 -1.0899
 3193SOL    HW312545   1.549   3.682   4.520  1.1234  1.3586 -0.3817
 3193SOL    MW412546   1.609   3.620   4.532 -0.2653 -0.0277 -0.1849
 3194SOL     OW12547   5.119   1.090   2.461 -0.3782  0.7075  0.2851
 3194SOL    HW212548   5.206   1.102   2.422 -0.8538  0.9680 -0.7065
 3194SOL    HW312549   5.098   0.998   2.444  0.6294  0.0179  2.4747
 3194SOL    MW412550   5.128   1.079   2.454 -0.3080  0.6509  0.4432
 3195SOL     OW12551   0.689   2.982   4.747  0.3099  0.2796 -0.3854
 3195SOL    HW212552   0.747   2.916   4.708  0.2346  1.1022 -1.9975
 3195SOL    HW312553   0.747   3.039   4.797  0.3476 -1.0902  1.2027
 3195SOL    MW412554   0.704   2.981   4.748  0.3050  0.2074 -0.3886
 3196SOL     OW12555   2.934   6.095   0.898 -0.0867  0.0023 -0.1663
 3196SOL    HW212556   2.891   6.157   0.839  0.4022  0.7142  0.2169
 3196SOL    HW312557   2.890   6.107   0.982 -0.1038 -0.2949 -0.1307
 3196SOL    MW412558   2.922   6.104   0.901 -0.0245  0.0570 -0.1111
 3197SOL     OW12559   5.412   3.254   1.553  0.0608 -0.2946 -0.5324
 3197SOL    HW212560   5.506   3.251   1.533  0.3369  1.4542  0.3015
 3197SOL    HW312561   5.406   3.218   1.641  0.1146  0.6055 -0.1518
 3197SOL    MW412562   5.424   3.249   1.562  0.1044  0.0549 -0.3721
 3198SOL     OW12563   1.293   3.119   0.853 -0.0918  0.0294 -0.0464
 3198SOL    HW212564   1.366   3.056   0.853 -0.0775  0.0073 -1.7238
 3198SOL    HW312565   1.336   3.204   0.842 -0.3114 -0.0202 -1.4581
 3198SOL    MW412566   1.309   3.122   0.852 -0.1189  0.0199 -0.4540
 3199SOL     OW12567   3.339   5.567   4.094  0.0256  0.3293 -0.0647
 3199SOL    HW212568   3.417   5.602   4.052  0.3157  0.8383  0.8677
 3199SOL    HW312569   3.267   5.620   4.060  0.3423  1.1911  0.5827
 3199SOL    MW412570   3.340   5.579   4.084  0.1057  0.5102  0.1437
 3200SOL     OW12571   0.227   5.592   4.339 -0.3245  0.3793 -0.2502
 3200SOL    HW212572   0.141   5.556   4.317 -0.7097  0.4300  1.0809
 3200SOL    HW312573   0.278   5.516   4.366 -0.1466  0.4288 -0.4477
 3200SOL    MW412574   0.222   5.577   4.340 -0.3519  0.3925 -0.1006
 3201SOL     OW12575   4.062   6.076   4.587  0.7643  0.1050 -0.6746
 3201SOL    HW212576   3.984   6.130   4.573  1.3180  0.6920 -1.6518
 3201SOL    HW312577   4.104   6.114   4.665  0.2949  0.0429 -0.3876
 3201SOL    MW412578   4.057   6.088   4.595  0.7755  0.1742 -0.7657
 3202SOL     OW12579   5.187   4.715   2.963  0.1809 -0.0012 -1.0960
 3202SOL    HW212580   5.110   4.765   2.937 -0.7092 -1.0261 -0.5080
 3202SOL    HW312581   5.200   4.652   2.892 -0.3790 -0.7493 -0.5462
 3202SOL    MW412582   5.179   4.713   2.950 -0.0104 -0.2351 -0.9459
 3203SOL     OW12583   3.444   0.174   3.781 -0.3367  0.1324  0.2716
 3203SOL    HW212584   3.535   0.201   3.794 -0.8216  3.6198 -2.0196
 3203SOL    HW312585   3.439   0.150   3.688 -1.5237 -1.3152  0.6721
 3203SOL    MW412586   3.455   0.175   3.770 -0.5573  0.4015  0.0222
 3204SOL     OW12587   6.258   4.976   6.403  0.3476  0.5810  0.2124
 3204SOL    HW212588   6.217   5.062   6.409 -0.6805  0.0245  2.2751
 3204SOL    HW312589   6.280   4.953   6.494  3.1152 -0.1948 -0.5512
 3204SOL    MW412590   6.256   4.984   6.416  0.5771  0.4052  0.3838
 3205SOL     OW12591   0.866   0.392   1.969  0.2535 -0.7215  0.4609
 3205SOL    HW212592   0.785   0.442   1.967 -0.1721 -1.3944  0.5755
 3205SOL    HW312593   0.893   0.386   1.877  1.4687  1.5375  0.6042
 3205SOL    MW412594   0.859   0.397   1.956  0.3576 -0.5123  0.4950
 3206SOL     OW12595   6.245   0.479   2.169 -0.7845 -0.0109 -0.1879
 3206SOL    HW212596   6.260   0.444   2.257  1.4945 -1.0795 -0.9416
 3206SOL    HW312597   6.171   0.539   2.180  0.6951  1.4667  2.8891
 3206SOL    MW412598   6.237   0.482   2.182 -0.2886  0.0430  0.1186
 3207SOL     OW12599   1.233   2.326   0.083  0.1366  0.2082 -0.2493
 3207SOL    HW212600   1.309   2.379   0.107  1.1412 -0.8563 -0.9747
 3207SOL    HW312601   1.213   2.275   0.161 -0.2196  0.9109  0.1308
 3207SOL    MW412602   1.240   2.326   0.097  0.2222  0.1605 -0.2948
 3208SOL     OW12603   1.999   5.596   2.721  0.7691  0.6288 -0.4661
 3208SOL    HW212604   2.073   5.572   2.665  1.3468 -0.9984  0.9215
 3208SOL    HW312605   1.929   5.535   2.696  0.2287  1.4403 -1.0043
 3208SOL    MW412606   1.999   5.585   2.710  0.7741  0.5212 -0.3541
 3209SOL     OW12607   0.825   3.671   1.214 -0.1191 -0.5037  0.7851
 3209SOL    HW212608   0.875   3.732   1.268  0.8498 -1.4998  1.0602
 3209SOL    HW312609   0.751   3.722   1.181  1.9449  1.5219 -1.0060
 3209SOL    MW412610   0.822   3.685   1.217  0.2811 -0.3679  0.5851
 3210SOL     OW12611   2.191   4.491   4.381 -0.1001  0.3151 -0.3498
 3210SOL    HW212612   2.108   4.445   4.390 -0.3448  0.2837 -2.2866
 3210SOL    HW312613   2.249   4.427   4.340  0.9904  0.2430  1.2460
 3210SOL    MW412614   2.188   4.477   4.377  0.0115  0.3014 -0.3948
 3211SOL     OW12615   6.075   0.672   4.815  0.0567 -0.2270 -0.3389
 3211SOL    HW212616   6.169   0.668   4.795  0.9266  0.5832  3.0231
 3211SOL    HW312617   6.059   0.764   4.836 -1.3370 -0.5102 -0.0564
 3211SOL    MW412618   6.085   0.684   4.815 -0.0124 -0.1575  0.1419
 3212SOL     OW12619   2.999   3.743   5.901  0.0214  0.0039 -0.2551
 3212SOL    HW212620   3.000   3.802   5.976  1.0129  1.2299 -1.1936
 3212SOL    HW312621   2.983   3.801   5.826 -1.4600 -1.2520 -0.9535
 3212SOL    MW412622   2.997   3.759   5.901 -0.0432 -0.0000 -0.4711
 3213SOL     OW12623   5.282   2.179   3.484  0.4805 -0.1737  0.7252
 3213SOL    HW212624   5.248   2.158   3.571 -1.1372  0.7369  0.3513
 3213SOL    HW312625   5.314   2.268   3.492 -0.8587  0.3863  0.0904
 3213SOL    MW412626   5.281   2.188   3.496  0.0904  0.0203  0.5921
 3214SOL     OW12627   1.247   5.990   4.760  0.2590  0.1453  0.3263
 3214SOL    HW212628   1.176   5.992   4.696 -0.5725 -0.9401  1.1726
 3214SOL    HW312629   1.283   6.079   4.759 -1.1470  0.7425 -0.0920
 3214SOL    MW412630   1.243   6.002   4.751 -0.0362  0.0809  0.3827
 3215SOL     OW12631   1.759   1.566   5.827  0.5088 -0.2706 -0.1202
 3215SOL    HW212632   1.712   1.623   5.767  0.0399  0.5154  0.9685
 3215SOL    HW312633   1.777   1.487   5.775 -1.0521 -0.1652 -0.8888
 3215SOL    MW412634   1.755   1.563   5.812  0.2410 -0.1530 -0.0779
 3216SOL     OW12635   4.525   0.258   5.340 -0.3384 -0.3904 -0.2341
 3216SOL    HW212636   4.486   0.323   5.282 -1.4403 -0.7407  0.0927
 3216SOL    HW312637   4.453   0.227   5.394  0.5371 -0.5464  0.8909
 3216SOL    MW412638   4.511   0.262   5.339 -0.3683 -0.4572 -0.0426
 3217SOL     OW12639   1.430   3.129   4.787 -0.1955 -0.4080 -0.1207
 3217SOL    HW212640   1.364   3.191   4.756 -0.4951 -0.8039 -0.2868
 3217SOL    HW312641   1.435   3.143   4.881  0.7875  0.8763 -0.3328
 3217SOL    MW412642   1.422   3.139   4.795 -0.1054 -0.2908 -0.1706
 3218SOL     OW12643   0.927   5.810   5.977  0.1624  0.0103 -0.6374
 3218SOL    HW212644   0.871   5.743   5.937  1.2814 -0.9591 -0.6203
 3218SOL    HW312645   0.998   5.760   6.018  0.6619  1.1767 -0.0591
 3218SOL    MW412646   0.929   5.794   5.977  0.3759  0.0363 -0.5588
 3219SOL     OW12647   1.613   5.690   5.479 -0.2367  0.2064  0.5006
 3219SOL    HW212648   1.668   5.672   5.402 -0.6910  2.7191 -0.4960
 3219SOL    HW312649   1.524   5.681   5.446 -0.4362  0.3542  1.0025
 3219SOL    MW412650   1.609   5.686   5.464 -0.3230  0.5574  0.4354
 3220SOL     OW12651   0.119   3.026   3.289 -0.0034  0.3541  0.1746
 3220SOL    HW212652   0.088   3.105   3.333  3.3708  0.3697  2.9306
 3220SOL    HW312653   0.129   2.962   3.360  0.6841 -1.4200 -1.4512
 3220SOL    MW412654   0.116   3.028   3.304  0.5325  0.1221  0.3237
 3221SOL     OW12655   5.514   2.902   4.846 -0.0531 -0.1191 -0.4865
 3221SOL    HW212656   5.603   2.874   4.867 -0.7110 -2.1564 -0.1509
 3221SOL    HW312657   5.512   2.905   4.750  0.4881  0.3324 -0.4843
 3221SOL    MW412658   5.525   2.899   4.836 -0.0685 -0.3284 -0.4419
 3222SOL     OW12659   4.025   2.519   3.759  0.2085  0.1502 -0.1457
 3222SOL    HW212660   4.003   2.565   3.839 -0.5148 -0.7917  0.2271
 3222SOL    HW312661   4.065   2.585   3.703  1.2247  0.6994  1.1826
 3222SOL    MW412662   4.027   2.533   3.762  0.2472  0.0984  0.0787
 3223SOL     OW12663   6.169   6.148   4.580 -0.0894 -0.3421  0.2498
 3223SOL    HW212664   6.089   6.159   4.529  0.0956  0.3449  0.0873
 3223SOL    HW312665   6.181   6.053   4.586 -0.2494 -0.4434 -0.7888
 3223SOL    MW412666   6.160   6.137   4.574 -0.0861 -0.2648  0.0913
 3224SOL     OW12667   4.692   6.158   0.633  0.1766 -0.8028  0.5080
 3224SOL    HW212668   4.608   6.199   0.610  0.5486 -1.4745 -2.4232
 3224SOL    HW312669   4.752   6.188   0.565  1.2107 -3.8121 -0.0233
 3224SOL    MW412670   4.689   6.168   0.621  0.3621 -1.2884  0.0512
 3225SOL     OW12671   5.121   2.222   1.702  0.1047  0.1432 -0.8369
 3225SOL    HW212672   5.208   2.255   1.679 -0.0437 -0.1209 -1.8352
 3225SOL    HW312673   5.106   2.150   1.641 -0.4558 -0.3864 -0.0906
 3225SOL    MW412674   5.131   2.217   1.691  0.0112  0.0385 -0.8702
 3226SOL     OW12675   4.507   4.380   2.776 -0.0017  0.2250 -0.2362
 3226SOL    HW212676   4.537   4.447   2.837  1.1682 -0.9307  0.5386
 3226SOL    HW312677   4.545   4.404   2.692  0.9167  0.2253  0.1693
 3226SOL    MW412678   4.516   4.392   2.773  0.2739  0.0726 -0.0805
 3227SOL     OW12679   2.076   3.691   5.697 -0.0285  0.2497  0.1152
 3227SOL    HW212680   2.153   3.653   5.739 -0.9511 -1.8831  0.0085
 3227SOL    HW312681   2.111   3.741   5.623  1.2513 -0.8214 -0.0350
 3227SOL    MW412682   2.091   3.693   5.693  0.0186 -0.1730  0.0813
 3228SOL     OW12683   1.175   5.029   5.938 -0.2923 -0.0953 -0.2526
 3228SOL    HW212684   1.105   5.076   5.892 -0.2063  1.1484  0.8450
 3228SOL    HW312685   1.152   4.936   5.927 -1.3842  0.2408 -1.0244
 3228SOL    MW412686   1.163   5.023   5.930 -0.4250  0.1131 -0.2096
 3229SOL     OW12687   1.553   4.158   4.641 -0.1618  0.3780  0.3762
 3229SOL    HW212688   1.596   4.083   4.682  0.2278  0.4567  0.1187
 3229SOL    HW312689   1.568   4.146   4.547  0.0050  0.8391  0.3419
 3229SOL    MW412690   1.560   4.147   4.634 -0.0884  0.4492  0.3377
 3230SOL     OW12691   1.677   6.429   4.049 -0.2099  0.5657 -0.2519
 3230SOL    HW212692   1.663   6.483   3.971 -2.5512 -1.0043 -1.0462
 3230SOL    HW312693   1.654   6.487   4.122  3.5109  2.5627 -0.4393
 3230SOL    MW412694   1.672   6.444   4.048 -0.0279  0.6221 -0.3815
 3231SOL     OW12695   2.086   2.174   0.288  0.3417  0.1467  0.1538
 3231SOL    HW212696   2.085   2.200   0.380  1.0749 -1.0475  0.5164
 3231SOL    HW312697   1.996   2.149   0.269  0.1164  0.7128  0.4409
 3231SOL    MW412698   2.074   2.174   0.297  0.4087  0.0638  0.2396
 3232SOL     OW12699   0.935   1.496   3.809  0.6587 -0.2170  0.3062
 3232SOL    HW212700   0.961   1.458   3.725 -0.5506  0.8996 -0.6250
 3232SOL    HW312701   0.854   1.544   3.789  0.4706  0.2659  2.0688
 3232SOL    MW412702   0.927   1.497   3.795  0.4743 -0.0059  0.4159
 3233SOL     OW12703   2.084   3.960   1.344  0.0010  0.5291  0.2254
 3233SOL    HW212704   2.146   3.892   1.369 -0.1640  0.5855  0.7896
 3233SOL    HW312705   2.017   3.958   1.412 -0.2730  0.9132 -0.0290
 3233SOL    MW412706   2.083   3.951   1.356 -0.0569  0.5872  0.2663
 3234SOL     OW12707   0.632   2.496   3.554 -0.0142 -0.0215  0.0560
 3234SOL    HW212708   0.684   2.545   3.617 -1.1131  0.7271  0.4142
 3234SOL    HW312709   0.620   2.557   3.481  1.3802 -0.9354 -0.9680
 3234SOL    MW412710   0.637   2.511   3.553  0.0248 -0.0433 -0.0318
 3235SOL     OW12711   6.325   3.723   3.245 -0.3551 -0.2408 -0.5065
 3235SOL    HW212712   6.232   3.736   3.223 -0.5928  1.2049  1.1171
 3235SOL    HW312713   6.357   3.663   3.178 -2.4556 -0.7646 -1.1340
 3235SOL    MW412714   6.317   3.717   3.233 -0.6636 -0.1192 -0.3751
 3236SOL     OW12715   2.684   1.050   1.945 -0.2737  0.5492 -0.2443
 3236SOL    HW212716   2.731   1.108   1.885  0.6919  0.3767  0.3249
 3236SOL    HW312717   2.709   0.962   1.918 -0.1672  0.4599  0.1438
 3236SOL    MW412718   2.693   1.046   1.934 -0.1322  0.5146 -0.1180
 3237SOL     OW12719   4.248   1.053   5.227 -0.4693 -0.4965 -0.1589
 3237SOL    HW212720   4.229   1.024   5.316  0.7902 -0.7756  0.0407
 3237SOL    HW312721   4.344   1.059   5.224 -0.4934 -0.5551 -1.5166
 3237SOL    MW412722   4.258   1.050   5.239 -0.3063 -0.5410 -0.3117
 3238SOL     OW12723   1.155   5.348   2.138  0.2352  0.1450  0.1901
 3238SOL    HW212724   1.091   5.313   2.199 -0.5901 -0.4408 -0.9737
 3238SOL    HW312725   1.137   5.442   2.137 -0.2302  0.0609  0.3065
 3238SOL    MW412726   1.144   5.356   2.146  0.0649  0.0566  0.0519
 3239SOL     OW12727   4.050   0.651   4.364 -0.0740  0.5242 -0.2786
 3239SOL    HW212728   4.106   0.696   4.427 -0.1437  1.3615 -0.7884
 3239SOL    HW312729   4.107   0.634   4.289  0.2953 -1.4302  0.3889
 3239SOL    MW412730   4.065   0.655   4.362 -0.0344  0.3768 -0.2578
 3240SOL     OW12731   4.170   0.170   3.425  0.2578 -0.4064 -0.0129
 3240SOL    HW212732   4.208   0.082   3.432 -0.9250 -0.8913  0.7338
 3240SOL    HW312733   4.215   0.221   3.492 -0.0295 -0.8290  0.5103
 3240SOL    MW412734   4.181   0.165   3.435  0.0639 -0.5262  0.1547
 3241SOL     OW12735   4.004   5.285   1.200 -0.0323 -0.5815 -0.2427
 3241SOL    HW212736   4.080   5.280   1.258 -1.0278 -0.7565  1.0951
 3241SOL    HW312737   4.032   5.341   1.128  1.1853 -0.2046  0.4959
 3241SOL    MW412738   4.018   5.292   1.198 -0.0030 -0.5549  0.0312
 3242SOL     OW12739   4.077   5.712   6.084  0.2305 -0.9060  0.2053
 3242SOL    HW212740   4.031   5.705   6.000 -0.6565  0.9880  0.4714
 3242SOL    HW312741   4.164   5.742   6.061  0.2822 -1.2557 -0.0812
 3242SOL    MW412742   4.082   5.715   6.070  0.1203 -0.7022  0.2026
 3243SOL     OW12743   5.054   2.452   1.845  0.2806 -0.3505 -0.1344
 3243SOL    HW212744   5.122   2.456   1.912  0.4159  1.4024 -0.3324
 3243SOL    HW312745   5.079   2.378   1.789  3.0928  1.3186 -1.2938
 3243SOL    MW412746   5.066   2.443   1.846  0.6695  0.1010 -0.3135
 3244SOL     OW12747   3.722   4.288   0.384 -0.4117 -0.1434 -0.0983
 3244SOL    HW212748   3.690   4.198   0.379  0.3135 -0.4005 -0.2515
 3244SOL    HW312749   3.723   4.318   0.293  0.5083 -0.4040 -0.1819
 3244SOL    MW412750   3.718   4.280   0.372 -0.1946 -0.2117 -0.1295
 3245SOL     OW12751   2.153   3.198   0.910  0.0150  0.1526 -0.0309
 3245SOL    HW212752   2.084   3.260   0.935  0.7891  0.8575  0.4030
 3245SOL    HW312753   2.161   3.208   0.816  0.0463  0.6154  0.0193
 3245SOL    MW412754   2.145   3.208   0.901  0.1213  0.3067  0.0330
 3246SOL     OW12755   0.692   4.855   4.145  0.6329  0.4367 -0.1744
 3246SOL    HW212756   0.605   4.858   4.105  1.2379  0.6378 -1.5053
 3246SOL    HW312757   0.713   4.761   4.149 -0.2188  0.2691  1.5084
 3246SOL    MW412758   0.683   4.843   4.140  0.6003  0.4411 -0.1280
 3247SOL     OW12759   1.408   5.389   5.079 -0.3229 -0.3379  0.4023
 3247SOL    HW212760   1.452   5.366   4.997 -0.8223 -0.6154  0.2039
 3247SOL    HW312761   1.340   5.451   5.054  0.6337  0.9343  0.8584
 3247SOL    MW412762   1.405   5.394   5.065 -0.2626 -0.2066  0.4363
 3248SOL     OW12763   4.393   3.163   2.247  0.0952 -0.0982  0.0648
 3248SOL    HW212764   4.379   3.256   2.262  2.0305  0.1891  0.3691
 3248SOL    HW312765   4.307   3.129   2.225 -1.6569  0.8647  4.4691
 3248SOL    MW412766   4.380   3.171   2.246  0.1194  0.0667  0.6860
 3249SOL     OW12767   4.205   3.873   0.440  0.2577 -0.1320 -0.2992
 3249SOL    HW212768   4.227   3.964   0.418  0.7135  0.6434  2.8282
 3249SOL    HW312769   4.270   3.821   0.394  3.0659  1.5371  1.4440
 3249SOL    MW412770   4.217   3.878   0.431  0.6883  0.1905  0.3434
 3250SOL     OW12771   3.119   2.588   0.317 -0.2556  0.2681 -0.0754
 3250SOL    HW212772   3.205   2.590   0.358 -0.9191 -0.1000  1.4068
 3250SOL    HW312773   3.133   2.626   0.230  1.2846  0.7066  0.3299
 3250SOL    MW412774   3.132   2.593   0.311 -0.1400  0.2774  0.1736
 3251SOL     OW12775   4.210   0.988   0.599 -0.0476 -0.0135 -0.4269
 3251SOL    HW212776   4.191   0.913   0.655  0.1344  2.3502  3.1893
 3251SOL    HW312777   4.129   1.005   0.552 -0.7060 -1.2606  0.2227
 3251SOL    MW412778   4.197   0.981   0.600 -0.1105  0.1339  0.1359
 3252SOL     OW12779   4.616   3.515   1.304 -0.3348 -0.6545 -1.0453
 3252SOL    HW212780   4.668   3.449   1.349 -0.9705  0.3807  1.3728
 3252SOL    HW312781   4.530   3.511   1.345 -1.1622 -0.0442 -2.6215
 3252SOL    MW412782   4.612   3.506   1.316 -0.5278 -0.4374 -0.9342
 3253SOL     OW12783   3.720   3.309   4.885 -0.3906  0.4070  0.2365
 3253SOL    HW212784   3.638   3.261   4.870 -0.5880  0.6642  0.4896
 3253SOL    HW312785   3.700   3.369   4.956  0.3934 -0.4526  1.2125
 3253SOL    MW412786   3.707   3.311   4.892 -0.3132  0.3275  0.3986
 3254SOL     OW12787   0.768   6.302   5.165  0.3383 -0.0698 -0.3957
 3254SOL    HW212788   0.827   6.246   5.216  0.1495 -0.7375 -0.8997
 3254SOL    HW312789   0.825   6.347   5.103  0.3186 -0.7781 -0.9392
 3254SOL    MW412790   0.783   6.301   5.164  0.3108 -0.2514 -0.5339
 3255SOL     OW12791   0.114   4.126   0.552 -0.1339 -0.2951 -0.0475
 3255SOL    HW212792   0.125   4.220   0.570  0.3122 -0.4189  0.3367
 3255SOL    HW312793   0.020   4.111   0.560 -0.1613  0.0422  0.2873
 3255SOL    MW412794   0.103   4.137   0.555 -0.0786 -0.2670  0.0474
 3256SOL     OW12795   3.165   3.057   3.275  0.1820  0.5798  0.2940
 3256SOL    HW212796   3.115   3.052   3.194 -0.5808 -1.3804  0.8167
 3256SOL    HW312797   3.108   3.106   3.335 -0.4877 -0.3244  0.4267
 3256SOL    MW412798   3.150   3.063   3.273 -0.0070  0.2019  0.3805
 3257SOL     OW12799   3.020   0.597   2.331 -0.0414  0.2047 -0.4461
 3257SOL    HW212800   3.032   0.502   2.324 -0.4886  0.2297 -1.8595
 3257SOL    HW312801   3.101   0.634   2.296  0.2980  0.3650  0.4716
 3257SOL    MW412802   3.032   0.589   2.326 -0.0556  0.2292 -0.5115
 3258SOL     OW12803   0.420   6.209   2.311  0.8490  0.0975 -0.8053
 3258SOL    HW212804   0.477   6.173   2.380 -0.5331 -1.1718 -0.2734
 3258SOL    HW312805   0.431   6.304   2.319  1.7408 -0.0668  0.2663
 3258SOL    MW412806   0.429   6.217   2.322  0.7843 -0.0916 -0.5937
 3259SOL     OW12807   1.168   2.787   2.834  0.4131  0.3911  0.1398
 3259SOL    HW212808   1.126   2.827   2.758  2.2907  0.9072 -0.7083
 3259SOL    HW312809   1.215   2.859   2.876 -0.4300  0.0701  1.7063
 3259SOL    MW412810   1.169   2.802   2.829  0.5496  0.4169  0.2346
 3260SOL     OW12811   2.885   4.205   5.734  0.3147  0.1363  0.0149
 3260SOL    HW212812   2.929   4.254   5.664 -0.0019 -1.6481 -1.5248
 3260SOL    HW312813   2.798   4.186   5.698  0.5467 -1.8145  0.3962
 3260SOL    MW412814   2.879   4.209   5.720  0.3036 -0.3565 -0.1379
 3261SOL     OW12815   5.052   2.183   6.222  0.3066  0.2420  0.1433
 3261SOL    HW212816   5.038   2.092   6.198 -0.1392  0.3426  0.0039
 3261SOL    HW312817   5.040   2.232   6.141 -0.6828  0.5316  0.4498
 3261SOL    MW412818   5.049   2.178   6.208  0.1172  0.2934  0.1654
 3262SOL     OW12819   3.485   0.506   5.486 -0.1226 -0.1137  0.3656
 3262SOL    HW212820   3.453   0.495   5.397 -2.6313  1.5138  0.9598
 3262SOL    HW312821   3.505   0.600   5.492  0.7615 -0.3432  1.3254
 3262SOL    MW412822   3.484   0.517   5.475 -0.3369  0.0707  0.5706
 3263SOL     OW12823   0.486   2.913   0.368 -0.1237  0.5281  0.2016
 3263SOL    HW212824   0.419   2.913   0.300  2.1415  0.4019 -2.2051
 3263SOL    HW312825   0.498   2.821   0.391 -1.0362  0.5886  0.9656
 3263SOL    MW412826   0.479   2.901   0.362  0.0548  0.5194 -0.0151
 3264SOL     OW12827   1.809   1.788   6.132 -0.2722  0.0609 -0.1134
 3264SOL    HW212828   1.754   1.853   6.089  0.4885  2.6060  2.4252
 3264SOL    HW312829   1.861   1.749   6.061  0.1370  3.1661 -1.6563
 3264SOL    MW412830   1.809   1.791   6.117 -0.1178  0.8064  0.0179
 3265SOL     OW12831   5.287   2.963   6.406  0.1912 -0.0918 -0.5096
 3265SOL    HW212832   5.238   2.882   6.417 -0.3065  0.2475 -0.2209
 3265SOL    HW312833   5.379   2.935   6.399  0.1214 -0.6045  0.5520
 3265SOL    MW412834   5.293   2.948   6.406  0.1163 -0.1147 -0.3314
 3266SOL     OW12835   6.256   3.530   2.177  0.6053  0.2482 -0.2122
 3266SOL    HW212836   6.337   3.570   2.208  0.2171  1.9584 -1.2345
 3266SOL    HW312837   6.253   3.552   2.084 -0.7255 -0.3030 -0.3205
 3266SOL    MW412838   6.266   3.538   2.169  0.3785  0.4011 -0.3614
 3267SOL     OW12839   2.197   1.935   5.036  0.6955 -0.5198 -0.2685
 3267SOL    HW212840   2.276   1.938   5.090  0.0121 -0.1175  0.7385
 3267SOL    HW312841   2.211   1.860   4.978  1.6083 -0.7465  0.2249
 3267SOL    MW412842   2.209   1.925   5.035  0.7257 -0.4967 -0.0706
 3268SOL     OW12843   6.366   4.197   0.159 -0.3562 -0.9020  0.2972
 3268SOL    HW212844   6.382   4.105   0.183 -0.6236 -0.8628  0.6452
 3268SOL    HW312845   6.356   4.241   0.244 -0.6893 -0.6369  0.1178
 3268SOL    MW412846   6.367   4.190   0.174 -0.4354 -0.8618  0.3195
 3269SOL     OW12847   6.017   3.488   2.432  0.1917 -0.0005  0.4822
 3269SOL    HW212848   6.064   3.570   2.445 -0.5551  0.2650  1.7250
 3269SOL    HW312849   6.070   3.438   2.370  0.0279  1.9176 -1.3093
 3269SOL    MW412850   6.030   3.492   2.425  0.0716  0.2876  0.4098
 3270SOL     OW12851   3.219   4.038   3.964  0.0515 -0.4021 -0.1986
 3270SOL    HW212852   3.157   4.066   4.031  0.0098 -0.9760  0.0061
 3270SOL    HW312853   3.165   4.009   3.891  0.0882 -0.5616 -0.1615
 3270SOL    MW412854   3.204   4.038   3.964  0.0509 -0.4989 -0.1667
 3271SOL     OW12855   3.396   5.888   0.712  0.6280  0.2822  0.4226
 3271SOL    HW212856   3.385   5.856   0.623  1.5508  0.6472  0.1718
 3271SOL    HW312857   3.323   5.949   0.725  0.2519 -0.0878  0.0687
 3271SOL    MW412858   3.385   5.892   0.702  0.7001  0.2815  0.3428
 3272SOL     OW12859   4.111   1.898   3.485 -0.5395 -0.0623 -0.2401
 3272SOL    HW212860   4.157   1.891   3.402  0.7676  1.8063  0.2597
 3272SOL    HW312861   4.153   1.972   3.530 -1.7805 -0.4594  1.7101
 3272SOL    MW412862   4.122   1.907   3.480 -0.5308  0.1318  0.0831
 3273SOL     OW12863   0.233   0.663   4.512  0.3860  0.3381 -0.7927
 3273SOL    HW212864   0.271   0.587   4.556 -1.0554  0.5184  0.8630
 3273SOL    HW312865   0.200   0.629   4.429 -3.5218 -1.8537  1.3495
 3273SOL    MW412866   0.233   0.649   4.507 -0.3198  0.0727 -0.2916
 3274SOL     OW12867   5.605   2.033   2.552 -0.1481 -0.3538  0.5573
 3274SOL    HW212868   5.686   1.981   2.547 -0.5206 -0.8130 -1.8516
 3274SOL    HW312869   5.538   1.976   2.514 -1.3961  0.4653  1.4488
 3274SOL    MW412870   5.607   2.018   2.546 -0.3619 -0.3063  0.3571
 3275SOL     OW12871   4.351   3.510   1.385  0.1288  0.3887 -0.7085
 3275SOL    HW212872   4.293   3.546   1.452  0.4616  0.9447 -0.7089
 3275SOL    HW312873   4.328   3.557   1.305 -0.4982 -0.5106 -1.0699
 3275SOL    MW412874   4.341   3.521   1.383  0.0900  0.3434 -0.7562
 3276SOL     OW12875   2.482   2.896   0.016 -0.2444 -0.7466  0.7035
 3276SOL    HW212876   2.489   2.825  -0.048  0.6119  0.2019 -0.3154
 3276SOL    HW312877   2.477   2.976  -0.038 -0.4874  0.0087  1.8142
 3276SOL    MW412878   2.482   2.897   0.000 -0.1635 -0.5218  0.7156
 3277SOL     OW12879   6.135   2.035   0.877  0.3550  0.1393 -0.9722
 3277SOL    HW212880   6.231   2.034   0.882  0.5619  2.7868 -2.2830
 3277SOL    HW312881   6.115   2.016   0.785 -0.2092  1.5471 -1.1736
 3277SOL    MW412882   6.145   2.033   0.865  0.3078  0.6743 -1.1717
 3278SOL     OW12883   4.048   4.457   4.436 -0.2681 -0.2640  0.4636
 3278SOL    HW212884   4.102   4.479   4.360 -0.1805 -0.0187  0.5968
 3278SOL    HW312885   4.111   4.445   4.508 -0.3838 -0.0433  0.6035
 3278SOL    MW412886   4.063   4.458   4.436 -0.2718 -0.2025  0.4996
 3279SOL     OW12887   3.751   4.578   5.616  0.4732 -0.4208 -0.0606
 3279SOL    HW212888   3.845   4.563   5.605  0.9369 -0.9069  3.3072
 3279SOL    HW312889   3.737   4.667   5.584  2.3082  0.0158  0.1914
 3279SOL    MW412890   3.762   4.588   5.611  0.7764 -0.4273  0.4170
 3280SOL     OW12891   0.638   0.894   1.452 -0.5348 -0.1332 -0.6889
 3280SOL    HW212892   0.733   0.892   1.450 -0.4972  0.5112  0.0227
 3280SOL    HW312893   0.612   0.919   1.363  0.0978  3.0773 -0.1169
 3280SOL    MW412894   0.647   0.897   1.440 -0.4464  0.3754 -0.5195
 3281SOL     OW12895   0.925   2.417   5.551  0.2819 -0.1678 -0.4765
 3281SOL    HW212896   0.892   2.352   5.613 -1.4283  0.4119 -0.6998
 3281SOL    HW312897   0.918   2.376   5.466 -1.6606  0.5433 -0.7192
 3281SOL    MW412898   0.919   2.403   5.548 -0.2000  0.0025 -0.5380
 3282SOL     OW12899   2.270   3.854   3.493 -0.1998 -0.3131 -0.4921
 3282SOL    HW212900   2.325   3.811   3.558 -0.8220  1.2226  1.1215
 3282SOL    HW312901   2.214   3.784   3.458 -0.0660 -1.1170  0.8490
 3282SOL    MW412902   2.270   3.839   3.497 -0.2642 -0.2165 -0.1022
 3283SOL     OW12903   3.101   3.932   0.572  0.2173  0.8181  0.3657
 3283SOL    HW212904   3.033   3.905   0.511 -0.3129 -1.0764  1.7116
 3283SOL    HW312905   3.053   3.976   0.643  0.3624 -0.3628  1.2291
 3283SOL    MW412906   3.086   3.934   0.573  0.1665  0.4123  0.6571
 3284SOL     OW12907   0.845   3.483   1.770  0.1479  0.4293  0.2829
 3284SOL    HW212908   0.890   3.470   1.853  0.3642  0.1727  0.1269
 3284SOL    HW312909   0.902   3.442   1.705 -0.2450  0.2156  0.0664
 3284SOL    MW412910   0.859   3.476   1.772  0.1246  0.3672  0.2338
 3285SOL     OW12911   2.594   2.181   2.199  0.1349 -0.1866  0.2248
 3285SOL    HW212912   2.514   2.225   2.228 -0.0429 -0.9736  0.9820
 3285SOL    HW312913   2.665   2.232   2.236  0.0111  0.7313 -0.7549
 3285SOL    MW412914   2.593   2.193   2.208  0.0951 -0.1694  0.1954
 3286SOL     OW12915   4.562   1.708   5.622 -0.4400 -0.2310  0.7180
 3286SOL    HW212916   4.613   1.659   5.557 -0.6385 -1.5669  1.5359
 3286SOL    HW312917   4.496   1.755   5.570  0.1013 -0.3971 -0.1388
 3286SOL    MW412918   4.560   1.708   5.606 -0.3948 -0.4292  0.7128
 3287SOL     OW12919   1.209   4.191   4.008 -0.5072  0.2667 -0.0340
 3287SOL    HW212920   1.144   4.138   3.961  1.5457 -1.0783 -1.5397
 3287SOL    HW312921   1.274   4.212   3.942  0.9999  0.8678  1.5846
 3287SOL    MW412922   1.209   4.187   3.993 -0.0375  0.1686 -0.0191
 3288SOL     OW12923   0.068   6.301   2.505 -0.5183  0.0214  0.3917
 3288SOL    HW212924  -0.003   6.242   2.529 -0.8402  0.3004  0.1260
 3288SOL    HW312925   0.035   6.389   2.522 -0.7884  0.2387 -1.0752
 3288SOL    MW412926   0.054   6.305   2.510 -0.5964  0.0869  0.1631
 3289SOL     OW12927   0.281   4.120   6.040  0.1953 -0.1989  0.1661
 3289SOL    HW212928   0.214   4.120   6.108  1.2732 -1.0602  1.2713
 3289SOL    HW312929   0.282   4.030   6.008  0.5919 -0.0995 -0.1047
 3289SOL    MW412930   0.272   4.108   6.044  0.3899 -0.2994  0.2762
 3290SOL     OW12931   2.440   1.051   4.269 -0.1476 -0.1583 -0.7200
 3290SOL    HW212932   2.409   1.082   4.355  0.9092  0.9319 -0.7107
 3290SOL    HW312933   2.523   1.096   4.256 -0.9822  0.8782 -2.9965
 3290SOL    MW412934   2.447   1.061   4.279 -0.1183  0.1223 -1.0192
 3291SOL     OW12935   4.997   2.015   1.462  0.7971 -0.2897 -1.1195
 3291SOL    HW212936   4.989   1.993   1.369 -0.8977 -0.6417 -0.9084
 3291SOL    HW312937   4.950   2.098   1.471  0.8338 -0.3306 -0.5384
 3291SOL    MW412938   4.990   2.023   1.451  0.5783 -0.3415 -1.0150
 3292SOL     OW12939   5.319   5.622   0.467  0.5976  0.6851  0.2450
 3292SOL    HW212940   5.413   5.621   0.485  0.6700 -0.4544 -0.0707
 3292SOL    HW312941   5.311   5.658   0.379  0.7345  0.9206  0.3303
 3292SOL    MW412942   5.330   5.626   0.458  0.6252  0.5659  0.2146
 3293SOL     OW12943   3.195   3.267   5.960 -0.2597 -0.2443  0.6334
 3293SOL    HW212944   3.125   3.331   5.966 -0.0584  0.1629 -0.9604
 3293SOL    HW312945   3.264   3.301   6.018 -0.5829  0.4048  0.6425
 3293SOL    MW412946   3.195   3.280   5.968 -0.2758 -0.1049  0.4243
 3294SOL     OW12947   4.154   0.571   5.939  0.0056  0.1071  0.1816
 3294SOL    HW212948   4.065   0.577   5.903  0.1532 -1.0183 -0.4117
 3294SOL    HW312949   4.145   0.602   6.029 -1.4694 -2.0289  0.8744
 3294SOL    MW412950   4.141   0.576   5.946 -0.1696 -0.3232  0.1948
 3295SOL     OW12951   1.369   4.025   2.728 -0.1297  0.0433 -0.4951
 3295SOL    HW212952   1.381   3.932   2.746  2.6165  0.7347  2.3355
 3295SOL    HW312953   1.454   4.053   2.693 -0.9174  1.4799 -1.3184
 3295SOL    MW412954   1.382   4.016   2.726  0.1287  0.3241 -0.2302
 3296SOL     OW12955   3.784   2.188   4.541 -0.2308 -0.2085  0.2599
 3296SOL    HW212956   3.699   2.144   4.543 -0.2941 -0.1777 -0.7733
 3296SOL    HW312957   3.763   2.278   4.516  0.0332  0.0297  0.8771
 3296SOL    MW412958   3.770   2.194   4.538 -0.2043 -0.1730  0.2050
 3297SOL     OW12959   4.632   4.993   2.066  0.3964  0.0662  0.3254
 3297SOL    HW212960   4.660   5.085   2.062  1.1980 -0.1895 -2.3089
 3297SOL    HW312961   4.586   4.978   1.983 -0.5121 -1.6996  1.0889
 3297SOL    MW412962   4.630   5.003   2.054  0.3823 -0.2005  0.0786
 3298SOL     OW12963   5.754   4.986   5.537 -0.7155  0.1654 -0.1884
 3298SOL    HW212964   5.735   5.057   5.599 -1.4954  0.6283 -0.9465
 3298SOL    HW312965   5.849   4.982   5.533 -0.6193 -0.3681  1.5988
 3298SOL    MW412966   5.764   4.995   5.545 -0.8057  0.1561 -0.0526
 3299SOL     OW12967   1.471   3.825   1.031 -0.6960 -0.5334  0.3079
 3299SOL    HW212968   1.430   3.855   0.951 -0.9638 -0.9959  0.2681
 3299SOL    HW312969   1.564   3.816   1.009 -0.3996  1.3298  0.6351
 3299SOL    MW412970   1.478   3.828   1.018 -0.6923 -0.3486  0.3459
 3300SOL     OW12971   3.313   1.081   0.390  0.1926  0.0834  0.2278
 3300SOL    HW212972   3.385   1.076   0.454  0.8266  0.0301 -0.4724
 3300SOL    HW312973   3.271   1.164   0.408  1.9168  1.2651 -0.8655
 3300SOL    MW412974   3.317   1.091   0.401  0.5038  0.2323 -0.0089
 3301SOL     OW12975   4.437   2.176   1.237  0.2638 -0.0598  0.3327
 3301SOL    HW212976   4.424   2.130   1.154  1.0172 -1.0953  0.7616
 3301SOL    HW312977   4.382   2.129   1.299  0.6469 -0.0625  0.6708
 3301SOL    MW412978   4.428   2.163   1.234  0.4138 -0.1968  0.4339
 3302SOL     OW12979   1.036   2.796   2.083  0.2765  0.2804 -0.3067
 3302SOL    HW212980   1.029   2.704   2.057 -0.9248  1.0703 -3.0727
 3302SOL    HW312981   1.127   2.819   2.063  0.0940  0.1511 -1.3431
 3302SOL    MW412982   1.047   2.787   2.077  0.0939  0.3676 -0.8084
 3303SOL     OW12983   3.079   5.010   5.785  0.2370  0.5931 -0.1974
 3303SOL    HW212984   3.066   5.099   5.753  1.3800 -0.0919 -2.8218
 3303SOL    HW312985   3.174   5.004   5.801  0.1341 -0.0784  0.2088
 3303SOL    MW412986   3.090   5.021   5.783  0.3743  0.4141 -0.4901
 3304SOL     OW12987   4.362   0.162   1.769  0.0025 -0.2332 -0.2211
 3304SOL    HW212988   4.395   0.084   1.724  1.8419  0.0731  0.5093
 3304SOL    HW312989   4.321   0.128   1.849 -0.4155 -0.5410 -0.5614
 3304SOL    MW412990   4.361   0.147   1.773  0.1901 -0.2334 -0.1696
 3305SOL     OW12991   6.039   5.866   2.531 -0.5628 -0.1070 -0.1173
 3305SOL    HW212992   6.023   5.796   2.594  2.0511 -0.4298  0.2843
 3305SOL    HW312993   6.006   5.945   2.573 -1.9183 -0.7998  0.1746
 3305SOL    MW412994   6.032   5.867   2.545 -0.3968 -0.2409 -0.0258
 3306SOL     OW12995   4.644   1.073   3.840  0.1145 -0.7637  0.2466
 3306SOL    HW212996   4.681   1.161   3.838  0.1931 -0.8078 -0.7608
 3306SOL    HW312997   4.689   1.030   3.912 -0.6228  0.2991  1.4016
 3306SOL    MW412998   4.655   1.079   3.849  0.0276 -0.6293  0.2661
 3307SOL     OW12999   5.588   0.074   3.106 -0.2989  0.7234 -0.1804
 3307SOL    HW213000   5.517   0.012   3.090  0.1250 -0.0669  0.9060
 3307SOL    HW313001   5.597   0.076   3.201 -1.0113  3.2770 -0.1024
 3307SOL    MW413002   5.580   0.066   3.116 -0.3369  0.9561 -0.0268
 3308SOL     OW13003   4.476   5.316   3.768 -0.1536 -0.0796  0.0292
 3308SOL    HW213004   4.569   5.307   3.746 -0.6717 -1.8505 -1.7244
 3308SOL    HW313005   4.451   5.230   3.802 -1.2637  0.2444  0.0802
 3308SOL    MW413006   4.485   5.303   3.770 -0.3684 -0.2705 -0.1954
 3309SOL     OW13007   2.839   1.418   3.526 -0.3474 -0.2702  0.6268
 3309SOL    HW213008   2.812   1.413   3.617  0.1023 -1.7312  0.7009
 3309SOL    HW313009   2.877   1.506   3.517 -0.8730  0.0791  1.6998
 3309SOL    MW413010   2.841   1.429   3.536 -0.3574 -0.4169  0.7782
 3310SOL     OW13011   1.494   1.789   5.262  0.1876  0.4245 -0.4785
 3310SOL    HW213012   1.474   1.754   5.349  0.6424  0.1904 -0.4662
 3310SOL    HW313013   1.419   1.844   5.241 -0.4933 -0.4829 -0.4595
 3310SOL    MW413014   1.482   1.792   5.271  0.1578  0.2739 -0.4744
 3311SOL     OW13015   0.957   4.005   1.949 -0.2753 -0.3218 -0.6084
 3311SOL    HW213016   0.988   3.917   1.972  0.2370  0.3526  1.5643
 3311SOL    HW313017   0.870   3.991   1.912 -0.7485 -1.7046  0.8921
 3311SOL    MW413018   0.950   3.991   1.947 -0.2702 -0.4153 -0.1237
 3312SOL     OW13019   2.517   4.068   0.865  0.0815 -0.2335  0.1339
 3312SOL    HW213020   2.483   4.046   0.952 -0.4866 -0.1643 -0.0607
 3312SOL    HW313021   2.526   3.983   0.822 -0.9313 -0.1972 -0.1924
 3312SOL    MW413022   2.513   4.054   0.871 -0.1271 -0.2196  0.0651
 3313SOL     OW13023   3.943   5.583   4.652 -0.0669  0.2560 -0.2151
 3313SOL    HW213024   3.975   5.670   4.677  0.2607  0.0553  0.0720
 3313SOL    HW313025   3.873   5.566   4.715 -1.4413  1.1174 -1.4588
 3313SOL    MW413026   3.938   5.592   4.664 -0.2050  0.3432 -0.3413
 3314SOL     OW13027   0.679   6.198   3.460  0.5256  0.1841  0.6185
 3314SOL    HW213028   0.752   6.206   3.522 -0.5752  1.1498  1.8354
 3314SOL    HW313029   0.602   6.224   3.510 -0.4115  1.0178 -1.1744
 3314SOL    MW413030   0.679   6.202   3.475  0.2567  0.4215  0.5425
 3315SOL     OW13031   0.674   0.121   2.988  0.2862 -0.0201  0.2397
 3315SOL    HW213032   0.688   0.157   2.900 -1.7025  2.4607  0.8331
 3315SOL    HW313033   0.738   0.167   3.042 -0.9046  1.1802  0.6614
 3315SOL    MW413034   0.685   0.132   2.983 -0.1333  0.4656  0.3736
 3316SOL     OW13035   5.744   0.944   3.274 -0.4783 -0.2599 -0.1868
 3316SOL    HW213036   5.713   0.881   3.339 -0.8493 -0.6603 -0.7371
 3316SOL    HW313037   5.713   1.029   3.306 -1.6059 -0.5754 -0.3828
 3316SOL    MW413038   5.735   0.947   3.287 -0.6760 -0.3544 -0.2853
 3317SOL     OW13039   6.247   2.381   2.704 -0.1601 -0.1399  0.3561
 3317SOL    HW213040   6.193   2.459   2.717  0.4667  0.2791  0.5034
 3317SOL    HW313041   6.336   2.410   2.725  0.0776 -0.8978  0.4160
 3317SOL    MW413042   6.251   2.395   2.708 -0.0461 -0.1846  0.3834
 3318SOL     OW13043   3.734   3.339   0.095  0.4466 -0.3154  0.3406
 3318SOL    HW213044   3.817   3.386   0.085 -0.4250  1.3262  0.3947
 3318SOL    HW313045   3.716   3.303   0.008  1.3281 -0.9122  0.3951
 3318SOL    MW413046   3.742   3.341   0.082  0.4479 -0.1775  0.3549
 3319SOL     OW13047   3.643   2.941   0.661 -0.1125  0.3502  0.6465
 3319SOL    HW213048   3.682   2.910   0.743 -0.5927 -0.6147  0.5267
 3319SOL    HW313049   3.592   3.018   0.687  1.8194  1.6398  0.7988
 3319SOL    MW413050   3.641   2.947   0.675  0.0790  0.3930  0.6508
 3320SOL     OW13051   3.048   0.286   5.652  0.0631  0.6424  0.3664
 3320SOL    HW213052   3.053   0.191   5.666 -0.7283  0.4097 -0.7307
 3320SOL    HW313053   3.118   0.322   5.705  0.9428 -0.6429  0.1246
 3320SOL    MW413054   3.058   0.278   5.661  0.0747  0.4421  0.1897
 3321SOL     OW13055   1.720   0.559   5.794  0.3856  0.0611  0.2857
 3321SOL    HW213056   1.703   0.649   5.766 -2.5350  0.1538  1.9789
 3321SOL    HW313057   1.769   0.569   5.876 -0.5704  0.1823  0.8598
 3321SOL    MW413058   1.725   0.572   5.801 -0.1258  0.0893  0.5849
 3322SOL     OW13059   5.980   4.071   6.112 -0.1666 -0.6522  0.1263
 3322SOL    HW213060   6.048   4.138   6.125  0.1631 -0.9344 -0.1228
 3322SOL    HW313061   5.982   4.018   6.191 -1.7787  0.7946  1.2171
 3322SOL    MW413062   5.989   4.073   6.124 -0.3358 -0.4985  0.2373
 3323SOL     OW13063   2.695   2.058   3.509  0.3652  0.2233 -0.2774
 3323SOL    HW213064   2.744   1.988   3.465  0.2287  0.3237 -0.5918
 3323SOL    HW313065   2.630   2.086   3.444 -0.3405 -0.1511  0.2567
 3323SOL    MW413066   2.693   2.052   3.494  0.2541  0.1872 -0.2484
 3324SOL     OW13067   2.033   4.110   4.324  0.3147  0.0060 -0.3923
 3324SOL    HW213068   2.075   4.134   4.241  0.7856  0.7033  0.0367
 3324SOL    HW313069   2.007   4.194   4.362  0.0118 -0.3199  0.1173
 3324SOL    MW413070   2.035   4.125   4.318  0.3369  0.0550 -0.2685
 3325SOL     OW13071   4.955   4.953   4.466 -0.9435 -0.2187  0.2087
 3325SOL    HW213072   5.030   4.900   4.492 -0.3387  0.6734  0.3180
 3325SOL    HW313073   4.934   4.923   4.377 -2.4084 -2.5995  1.2623
 3325SOL    MW413074   4.962   4.942   4.458 -1.0570 -0.4151  0.3622
 3326SOL     OW13075   4.182   0.258   2.945  0.4128 -0.4982 -0.0408
 3326SOL    HW213076   4.161   0.281   3.036  1.2608  0.2014 -0.0164
 3326SOL    HW313077   4.098   0.265   2.899  0.2745  0.7045  0.3663
 3326SOL    MW413078   4.168   0.262   2.951  0.5064 -0.2472  0.0161
 3327SOL     OW13079   2.401   0.957   4.933 -0.0516 -0.4029  0.1165
 3327SOL    HW213080   2.322   0.910   4.906 -1.3137  1.8215 -0.3651
 3327SOL    HW313081   2.399   0.956   5.029 -0.3318 -0.8801  0.1041
 3327SOL    MW413082   2.390   0.951   4.942 -0.2551 -0.1724  0.0514
 3328SOL     OW13083   2.516   3.090   6.239 -0.2673  0.3935 -0.5096
 3328SOL    HW213084   2.599   3.091   6.287 -1.0735 -0.4732  0.9645
 3328SOL    HW313085   2.535   3.036   6.162  0.5140  0.1165 -0.1384
 3328SOL    MW413086   2.530   3.083   6.235 -0.2706  0.2426 -0.2661
 3329SOL     OW13087   3.660   3.230   5.807 -0.2448  0.1765  0.4097
 3329SOL    HW213088   3.680   3.170   5.879  0.5745  1.4228  1.2685
 3329SOL    HW313089   3.569   3.212   5.784 -1.2612  1.2251  3.2569
 3329SOL    MW413090   3.651   3.220   5.813 -0.2708  0.4793  0.8986
 3330SOL     OW13091   4.323   3.846   3.739  0.3458  0.6773 -0.2766
 3330SOL    HW213092   4.357   3.757   3.737 -1.1720 -0.0426  1.9882
 3330SOL    HW313093   4.402   3.901   3.745  1.2708 -0.6811  0.7835
 3330SOL    MW413094   4.338   3.842   3.740  0.2676  0.4031  0.1621
 3331SOL     OW13095   5.687   2.892   3.955 -0.2351  0.2781  0.2887
 3331SOL    HW213096   5.653   2.978   3.930 -2.2151 -0.3001  0.8917
 3331SOL    HW313097   5.722   2.905   4.043 -0.8017  0.4032  0.4989
 3331SOL    MW413098   5.687   2.905   3.963 -0.5711  0.2184  0.3960
 3332SOL     OW13099   4.942   3.021   5.478 -0.1741  0.3121  0.1693
 3332SOL    HW213100   5.021   3.008   5.531  0.8036  0.8477 -1.1024
 3332SOL    HW313101   4.975   3.046   5.392 -1.7680  2.4890  0.1172
 3332SOL    MW413102   4.957   3.023   5.474 -0.2554  0.6700 -0.0053
 3333SOL     OW13103   2.816   2.891   4.656 -0.2774  0.3948 -0.0727
 3333SOL    HW213104   2.737   2.886   4.709  0.2000  0.2952  0.6351
 3333SOL    HW313105   2.888   2.882   4.718  0.3668  2.4932 -0.4205
 3333SOL    MW413106   2.815   2.889   4.671 -0.1294  0.6585 -0.0252
 3334SOL     OW13107   2.685   1.806   2.107 -0.5861 -0.0096 -0.1672
 3334SOL    HW213108   2.739   1.883   2.091 -1.2869  0.1846 -1.7727
 3334SOL    HW313109   2.595   1.835   2.089 -0.6708 -1.6953 -2.9642
 3334SOL    MW413110   2.680   1.820   2.103 -0.6897 -0.2064 -0.7481
 3335SOL     OW13111   0.123   5.823   3.642 -0.2925 -0.7973 -0.2067
 3335SOL    HW213112   0.202   5.867   3.612 -0.9528  1.2220  0.8788
 3335SOL    HW313113   0.072   5.809   3.562 -0.2539  0.8262 -0.5389
 3335SOL    MW413114   0.127   5.827   3.628 -0.3745 -0.3167 -0.1073
 3336SOL     OW13115   5.562   6.150   2.111 -0.2861 -0.2856 -0.6010
 3336SOL    HW213116   5.496   6.127   2.045 -1.6390 -1.9771  1.2211
 3336SOL    HW313117   5.593   6.066   2.143  2.1289  0.4955 -0.7236
 3336SOL    MW413118   5.557   6.136   2.106 -0.1460 -0.4057 -0.3767
 3337SOL     OW13119   1.504   0.058   1.065 -0.4408 -0.1412 -0.1272
 3337SOL    HW213120   1.481   0.143   1.101  1.0579  0.6143 -0.8558
 3337SOL    HW313121   1.440   0.042   0.996 -0.7761  0.3466  0.0686
 3337SOL    MW413122   1.493   0.067   1.061 -0.2873  0.0228 -0.1975
 3338SOL     OW13123   3.884   0.651   0.118 -0.3818 -0.8761  0.2182
 3338SOL    HW213124   3.928   0.648   0.203 -1.0421  1.1246  0.6969
 3338SOL    HW313125   3.834   0.732   0.121 -0.6300 -0.9044 -2.0053
 3338SOL    MW413126   3.883   0.661   0.130 -0.5017 -0.6159 -0.0120
 3339SOL     OW13127   3.798   0.967   3.782  0.5453  0.4494  0.2295
 3339SOL    HW213128   3.867   1.024   3.746  0.6579 -0.1393 -0.5186
 3339SOL    HW313129   3.719   0.994   3.734  0.0072  1.8206  1.7959
 3339SOL    MW413130   3.796   0.978   3.771  0.4892  0.5526  0.3375
 3340SOL     OW13131   0.869   4.693   2.085  0.2739  0.2436  0.5329
 3340SOL    HW213132   0.868   4.777   2.130 -1.1967  0.6900 -0.2500
 3340SOL    HW313133   0.816   4.636   2.140 -0.2982  0.3842  0.1509
 3340SOL    MW413134   0.862   4.697   2.098  0.0044  0.3211  0.3792
 3341SOL     OW13135   1.982   3.465   2.669 -0.3132 -0.2810  0.1977
 3341SOL    HW213136   2.018   3.483   2.583  0.2227  1.5374  0.7518
 3341SOL    HW313137   2.027   3.386   2.699  1.0383  0.2727 -0.3330
 3341SOL    MW413138   1.993   3.457   2.662 -0.0641  0.0319  0.2008
 3342SOL     OW13139   2.833   0.931   1.570 -0.2905 -0.2341 -0.4711
 3342SOL    HW213140   2.803   0.872   1.639 -1.4133  2.2602  1.3003
 3342SOL    HW313141   2.918   0.961   1.599 -0.3157  0.0650 -0.7048
 3342SOL    MW413142   2.840   0.927   1.583 -0.4419  0.1345 -0.2682
 3343SOL     OW13143   2.717   6.033   3.512 -0.4778  0.7124 -0.3919
 3343SOL    HW213144   2.738   5.945   3.479  0.3922  0.9938 -0.6133
 3343SOL    HW313145   2.797   6.083   3.498 -0.5453  1.2101  0.8858
 3343SOL    MW413146   2.730   6.028   3.506 -0.3720  0.8152 -0.2525
 3344SOL     OW13147   0.822   5.669   5.272 -0.0421  0.3771  0.4511
 3344SOL    HW213148   0.874   5.589   5.268  0.1199  0.4188  1.3996
 3344SOL    HW313149   0.886   5.739   5.284 -0.3158  0.3474  2.4655
 3344SOL    MW413150   0.837   5.668   5.273 -0.0569  0.3787  0.8420
 3345SOL     OW13151   0.545   4.544   3.308  0.3059  0.0307 -0.4907
 3345SOL    HW213152   0.547   4.534   3.403  0.5789  0.5647 -0.4357
 3345SOL    HW313153   0.620   4.600   3.288  2.5430 -3.0486 -1.4236
 3345SOL    MW413154   0.555   4.550   3.318  0.6371 -0.3051 -0.6065
 3346SOL     OW13155   5.969   3.695   1.958 -0.4083 -0.4614  0.0270
 3346SOL    HW213156   6.017   3.626   1.913  1.0843 -0.0401  0.8710
 3346SOL    HW313157   5.941   3.655   2.040  1.3343  0.1451  0.9781
 3346SOL    MW413158   5.972   3.681   1.963  0.0185 -0.3258  0.2638
 3347SOL     OW13159   4.709   5.812   1.080 -0.2858 -0.4034 -0.1559
 3347SOL    HW213160   4.792   5.847   1.112 -1.1951  2.1726 -0.3474
 3347SOL    HW313161   4.716   5.718   1.092  1.4174 -0.0230  2.8393
 3347SOL    MW413162   4.721   5.805   1.086 -0.1811 -0.0133  0.2140
 3348SOL     OW13163   2.995   1.584   5.107  0.5208  0.5238  0.3480
 3348SOL    HW213164   2.967   1.492   5.102  0.6950  0.5074 -0.4483
 3348SOL    HW313165   2.914   1.634   5.094  0.3703  0.4955  1.1047
 3348SOL    MW413166   2.980   1.578   5.105  0.5240  0.5179  0.3427
 3349SOL     OW13167   1.882   5.873   4.127  0.3334 -0.6847 -0.2006
 3349SOL    HW213168   1.847   5.811   4.063  0.1806 -1.4900  0.6315
 3349SOL    HW313169   1.887   5.956   4.081  0.6008 -1.3345 -1.3719
 3349SOL    MW413170   1.878   5.876   4.113  0.3485 -0.8767 -0.2453
 3350SOL     OW13171   0.774   2.239   5.711  0.0820  0.3258  0.0152
 3350SOL    HW213172   0.743   2.161   5.666 -0.9731  0.9367 -0.3456
 3350SOL    HW313173   0.825   2.205   5.785  0.0898 -0.6930 -0.4379
 3350SOL    MW413174   0.777   2.224   5.715 -0.0562  0.2720 -0.0922
 3351SOL     OW13175   3.560   2.550   0.252  0.1689 -0.3337  0.4165
 3351SOL    HW213176   3.609   2.472   0.277  0.8959  0.6233  2.1664
 3351SOL    HW313177   3.530   2.587   0.335  0.3786  1.5982 -0.3200
 3351SOL    MW413178   3.562   2.544   0.266  0.2925  0.0475  0.5502
 3352SOL     OW13179   3.333   5.378   3.895 -0.0275 -0.0785  0.5854
 3352SOL    HW213180   3.329   5.439   3.969  1.3193  2.1705 -1.0378
 3352SOL    HW313181   3.268   5.411   3.833 -0.8457 -1.6671  0.5647
 3352SOL    MW413182   3.324   5.391   3.896  0.0422  0.0086  0.3685
 3353SOL     OW13183   3.151   0.478   6.414 -0.8453 -0.0085 -0.1877
 3353SOL    HW213184   3.232   0.528   6.426 -0.5546 -0.4310 -0.3792
 3353SOL    HW313185   3.141   0.471   6.319 -0.0518 -1.6530 -0.1698
 3353SOL    MW413186   3.160   0.484   6.403 -0.7022 -0.2812 -0.2106
 3354SOL     OW13187   2.744   5.068   2.725 -0.1932 -0.2085 -0.0116
 3354SOL    HW213188   2.743   5.078   2.629  0.9918  0.2973  0.0121
 3354SOL    HW313189   2.656   5.094   2.752 -0.2594  0.5630 -0.8929
 3354SOL    MW413190   2.732   5.073   2.716 -0.0456 -0.0400 -0.1247
 3355SOL     OW13191   0.651   5.983   5.071 -0.4461 -0.2794 -0.9040
 3355SOL    HW213192   0.713   6.042   5.027 -1.4362  1.4816 -0.0707
 3355SOL    HW313193   0.601   6.041   5.129 -2.3206 -1.7579 -0.9513
 3355SOL    MW413194   0.652   5.999   5.073 -0.8241 -0.2422 -0.8003
 3356SOL     OW13195   2.671   1.486   4.108 -0.1020 -0.5312 -0.4979
 3356SOL    HW213196   2.759   1.523   4.114 -0.7788  1.1259 -0.1993
 3356SOL    HW313197   2.614   1.555   4.143 -1.4748 -1.7480 -0.2520
 3356SOL    MW413198   2.675   1.500   4.114 -0.3724 -0.4731 -0.4261
 3357SOL     OW13199   1.625   0.848   3.872  0.4072  0.2853 -0.6640
 3357SOL    HW213200   1.546   0.895   3.896  0.3940  0.2833 -0.7043
 3357SOL    HW313201   1.616   0.763   3.915  1.8456  1.3675  2.0426
 3357SOL    MW413202   1.614   0.843   3.881  0.5952  0.4278 -0.3122
 3358SOL     OW13203   0.542   2.421   4.544  0.1621  0.4902  0.3945
 3358SOL    HW213204   0.565   2.365   4.618  1.1645  0.6639  0.2371
 3358SOL    HW313205   0.449   2.406   4.530  0.2705 -0.6247  0.7805
 3358SOL    MW413206   0.533   2.411   4.552  0.3087  0.3660  0.4247
 3359SOL     OW13207   0.026   2.612   4.535 -0.4787  0.0965  0.0331
 3359SOL    HW213208   0.006   2.550   4.465 -0.7767 -0.5419  0.6673
 3359SOL    HW313209   0.020   2.698   4.494 -2.1700 -0.1804 -0.3925
 3359SOL    MW413210   0.022   2.615   4.521 -0.7412 -0.0243  0.0606
 3360SOL     OW13211   1.864   3.367   4.896  0.3192 -0.3662 -0.2404
 3360SOL    HW213212   1.920   3.292   4.919  0.6399 -0.2812 -0.7070
 3360SOL    HW313213   1.784   3.354   4.946  1.6831  0.8319  2.4363
 3360SOL    MW413214   1.861   3.355   4.906  0.5415 -0.1969  0.0512
 3361SOL     OW13215   1.019   1.989   4.750 -0.7515 -0.1166 -0.5862
 3361SOL    HW213216   1.096   2.040   4.724 -0.7738  0.3867  0.3197
 3361SOL    HW313217   1.047   1.898   4.740  0.5009  0.0270  1.2047
 3361SOL    MW413218   1.033   1.984   4.745 -0.5892 -0.0312 -0.2304
 3362SOL     OW13219   2.856   4.391   3.988 -0.0598 -0.1007  0.4010
 3362SOL    HW213220   2.890   4.480   3.974 -0.5292 -0.1460 -1.2251
 3362SOL    HW313221   2.856   4.380   4.083  1.4651  1.0636  0.5770
 3362SOL    MW413222   2.860   4.402   3.999  0.0794  0.0470  0.2097
 3363SOL     OW13223   5.391   4.316   6.224 -0.4520 -0.4646 -0.1258
 3363SOL    HW213224   5.392   4.328   6.129 -1.1249  0.9225  0.0271
 3363SOL    HW313225   5.298   4.316   6.247 -0.3625 -2.0590  0.4186
 3363SOL    MW413226   5.379   4.317   6.214 -0.5290 -0.4920 -0.0338
 3364SOL     OW13227   2.003   0.703   3.696 -1.0915 -0.0966  0.1074
 3364SOL    HW213228   1.919   0.744   3.674 -0.8070  0.5929  0.2657
 3364SOL    HW313229   2.068   0.754   3.648 -0.5944  0.5481  1.4106
 3364SOL    MW413230   2.000   0.715   3.687 -0.9883  0.0794  0.3002
 3365SOL     OW13231   2.502   1.705   1.119 -0.1496 -0.0344  0.3186
 3365SOL    HW213232   2.586   1.736   1.088 -0.9020  0.5664 -1.2138
 3365SOL    HW313233   2.445   1.782   1.117 -0.4139 -0.0838  2.7084
 3365SOL    MW413234   2.505   1.719   1.115 -0.2837  0.0384  0.4317
 3366SOL     OW13235   0.941   4.942   6.345 -0.0406  0.3183 -0.3361
 3366SOL    HW213236   0.848   4.956   6.329 -0.1119 -0.9385 -1.1941
 3366SOL    HW313237   0.985   5.006   6.289 -0.3688  1.4333  0.6369
 3366SOL    MW413238   0.935   4.952   6.335 -0.0933  0.2996 -0.3209
 3367SOL     OW13239   5.847   1.804   5.461 -0.0767  0.0321 -0.0554
 3367SOL    HW213240   5.848   1.891   5.422  2.4373 -0.1659 -0.5885
 3367SOL    HW313241   5.864   1.819   5.554  0.6189  0.1197 -0.1897
 3367SOL    MW413242   5.849   1.817   5.468  0.3467  0.0176 -0.1435
 3368SOL     OW13243   4.687   1.339   1.689  0.3377 -0.2186  0.2083
 3368SOL    HW213244   4.638   1.310   1.611 -0.4296 -0.0220  0.6022
 3368SOL    HW313245   4.733   1.260   1.718 -2.3959 -1.3796  1.7643
 3368SOL    MW413246   4.686   1.325   1.682 -0.1242 -0.3459  0.4656
 3369SOL     OW13247   5.466   1.912   5.790 -0.1727  0.5202 -0.3240
 3369SOL    HW213248   5.443   1.945   5.703 -1.5633  0.2487 -0.0846
 3369SOL    HW313249   5.544   1.858   5.775  0.3046  1.4069 -1.2002
 3369SOL    MW413250   5.473   1.910   5.776 -0.2932  0.6014 -0.4080
 3370SOL     OW13251   4.701   2.623   5.788 -0.4369  0.1164 -0.0756
 3370SOL    HW213252   4.756   2.659   5.858 -1.4497  1.5265  0.0249
 3370SOL    HW313253   4.761   2.570   5.736  0.6742  0.3098  0.9561
 3370SOL    MW413254   4.717   2.621   5.790 -0.4240  0.3279  0.0738
 3371SOL     OW13255   2.183   2.626   4.806  0.3746  1.1782  0.1081
 3371SOL    HW213256   2.253   2.648   4.745  1.5683  1.2490  1.4517
 3371SOL    HW313257   2.152   2.710   4.840  1.5595  1.0672  1.5619
 3371SOL    MW413258   2.188   2.640   4.803  0.6884  1.1729  0.4772
 3372SOL     OW13259   1.181   4.380   4.210 -0.2586 -0.1314  0.1909
 3372SOL    HW213260   1.090   4.365   4.234 -0.7519  0.2196 -1.3623
 3372SOL    HW313261   1.196   4.322   4.135  1.5217 -1.9332  1.8142
 3372SOL    MW413262   1.171   4.370   4.203 -0.0888 -0.3228  0.2002
 3373SOL     OW13263   2.739   0.802   1.805 -0.3259  0.1738 -0.0959
 3373SOL    HW213264   2.803   0.731   1.810 -1.1582 -0.6200 -0.4163
 3373SOL    HW313265   2.664   0.764   1.758 -1.2170  0.9276  0.6569
 3373SOL    MW413266   2.737   0.787   1.800 -0.5532  0.1685 -0.0388
 3374SOL     OW13267   0.279   0.137   5.595  0.5971  0.0229 -0.1413
 3374SOL    HW213268   0.207   0.200   5.598 -0.4363 -1.1486  1.5438
 3374SOL    HW313269   0.307   0.130   5.686 -0.1373 -2.8079 -0.0434
 3374SOL    MW413270   0.273   0.144   5.608  0.3639 -0.5051  0.0939
 3375SOL     OW13271   6.184   2.183   5.332 -0.0875  0.3131 -0.2250
 3375SOL    HW213272   6.105   2.235   5.315  0.7340  2.1980  1.3654
 3375SOL    HW313273   6.157   2.093   5.315 -2.4957  0.9257 -0.0182
 3375SOL    MW413274   6.170   2.178   5.327 -0.2968  0.6426  0.0122
 3376SOL     OW13275   3.591   2.861   2.786  0.5219  0.2033  0.3087
 3376SOL    HW213276   3.608   2.874   2.693  0.1445  0.3695  0.2618
 3376SOL    HW313277   3.603   2.947   2.825 -2.6090  0.9323 -0.0995
 3376SOL    MW413278   3.595   2.874   2.779  0.0590  0.3214  0.2487
 3377SOL     OW13279   5.285   2.727   3.666  0.0312  0.2228 -0.0464
 3377SOL    HW213280   5.219   2.788   3.634 -0.2393  1.3238  2.3556
 3377SOL    HW313281   5.247   2.690   3.746  1.1511 -1.3885 -0.1990
 3377SOL    MW413282   5.271   2.730   3.673  0.1433  0.1555  0.2504
 3378SOL     OW13283   2.951   3.328   2.955 -0.3845 -0.5130 -0.1073
 3378SOL    HW213284   2.941   3.244   2.999 -0.9867 -0.4802 -0.1723
 3378SOL    HW313285   2.861   3.361   2.946 -0.0703  1.1707  1.9581
 3378SOL    MW413286   2.938   3.321   2.960 -0.4225 -0.2866  0.1566
 3379SOL     OW13287   0.477   4.288   4.656 -0.0763  0.8155 -0.0057
 3379SOL    HW213288   0.504   4.378   4.675 -0.0011  0.6447  0.7354
 3379SOL    HW313289   0.387   4.283   4.688 -0.8662  1.2544 -2.0567
 3379SOL    MW413290   0.469   4.299   4.663 -0.1706  0.8509 -0.1786
 3380SOL     OW13291   3.856   6.169   6.271 -0.7030 -0.4830  0.1456
 3380SOL    HW213292   3.939   6.124   6.252 -0.4807  0.2399 -0.6432
 3380SOL    HW313293   3.859   6.185   6.365  0.3357  0.0544  0.0406
 3380SOL    MW413294   3.867   6.165   6.281 -0.5367 -0.3168  0.0276
 3381SOL     OW13295   3.197   0.132   3.969 -0.8108 -0.1204  0.6929
 3381SOL    HW213296   3.236   0.103   3.886  2.9342  0.4827  2.0418
 3381SOL    HW313297   3.180   0.051   4.017 -0.6038 -0.4046  0.2934
 3381SOL    MW413298   3.200   0.117   3.965 -0.2894 -0.0783  0.8182
 3382SOL     OW13299   0.701   2.631   1.658 -0.3695 -0.3540  0.1635
 3382SOL    HW213300   0.790   2.665   1.664 -0.6941  0.5772 -0.1132
 3382SOL    HW313301   0.703   2.574   1.581  0.0244 -0.4534  0.2451
 3382SOL    MW413302   0.713   2.628   1.648 -0.3604 -0.2442  0.1378
 3383SOL     OW13303   2.686   0.508   2.369  0.3556 -0.4088  0.8579
 3383SOL    HW213304   2.744   0.567   2.320 -0.9083  2.0941  2.2026
 3383SOL    HW313305   2.600   0.521   2.330  0.2861 -2.6465  0.1462
 3383SOL    MW413306   2.683   0.517   2.357  0.1797 -0.3738  0.9414
 3384SOL     OW13307   1.259   4.145   2.958 -0.2583 -0.3236 -0.1483
 3384SOL    HW213308   1.295   4.113   2.875  0.0910 -0.7071  0.1458
 3384SOL    HW313309   1.202   4.218   2.933 -0.1674 -0.4448 -0.7255
 3384SOL    MW413310   1.257   4.150   2.944 -0.2002 -0.3902 -0.1857
 3385SOL     OW13311   0.662   1.981   5.963 -0.3752 -0.3993 -0.6387
 3385SOL    HW213312   0.735   1.920   5.968 -0.8732 -0.9963 -0.6192
 3385SOL    HW313313   0.594   1.942   6.017  0.3395  1.6813  2.0105
 3385SOL    MW413314   0.663   1.968   5.971 -0.3466 -0.2036 -0.2866
 3386SOL     OW13315   4.189   4.794   6.394  0.2484  0.1864 -0.1054
 3386SOL    HW213316   4.108   4.755   6.426  1.2302 -0.6496  1.5139
 3386SOL    HW313317   4.239   4.720   6.359  1.4329  0.1886  1.4498
 3386SOL    MW413318   4.185   4.779   6.393  0.5342  0.0764  0.3134
 3387SOL     OW13319   4.013   6.257   3.042 -0.2811 -0.4524  0.0974
 3387SOL    HW213320   4.051   6.242   3.129 -0.1356 -1.1349 -0.0828
 3387SOL    HW313321   4.087   6.283   2.988 -0.1888 -1.0723 -0.0780
 3387SOL    MW413322   4.028   6.259   3.047 -0.2497 -0.6242  0.0505
 3388SOL     OW13323   2.409   3.299   3.771  0.2043 -0.3703  0.2491
 3388SOL    HW213324   2.416   3.217   3.722  0.4854 -0.3670  0.2807
 3388SOL    HW313325   2.315   3.310   3.786 -0.0363  0.4153 -1.6298
 3388SOL    MW413326   2.397   3.289   3.767  0.2096 -0.2662  0.0054
 3389SOL     OW13327   4.431   5.466   2.839  0.2095 -0.2881  0.1982
 3389SOL    HW213328   4.454   5.559   2.842 -0.4820 -0.0891 -0.2754
 3389SOL    HW313329   4.404   5.445   2.928  0.7049 -0.1258  0.3882
 3389SOL    MW413330   4.430   5.476   2.851  0.1836 -0.2404  0.1608
 3390SOL     OW13331   0.188   4.414   4.519 -0.0871  0.1145 -0.0535
 3390SOL    HW213332   0.254   4.475   4.552 -0.0510 -0.0042  0.0938
 3390SOL    HW313333   0.193   4.422   4.424  0.1375  0.1074 -0.0415
 3390SOL    MW413334   0.197   4.423   4.511 -0.0527  0.0979 -0.0325
 3391SOL     OW13335   2.107   1.020   0.761  0.0782 -0.5500 -0.2047
 3391SOL    HW213336   2.071   1.108   0.766 -1.8285 -1.3101  0.2691
 3391SOL    HW313337   2.113   0.991   0.852  2.1940 -0.3805 -0.2420
 3391SOL    MW413338   2.103   1.027   0.773  0.1058 -0.6279 -0.1471
 3392SOL     OW13339   5.868   4.478   5.513 -0.1149  0.2966 -0.2103
 3392SOL    HW213340   5.865   4.397   5.563  1.4665 -0.0624 -0.6584
 3392SOL    HW313341   5.776   4.503   5.503 -0.6053 -1.1982  0.3107
 3392SOL    MW413342   5.855   4.471   5.518  0.0291  0.0520 -0.2007
 3393SOL     OW13343   1.678   5.812   4.952 -0.0840 -0.0701  0.3384
 3393SOL    HW213344   1.659   5.730   4.997  0.6274 -0.3082  0.2263
 3393SOL    HW313345   1.616   5.816   4.879  1.6902 -1.9237 -1.3825
 3393SOL    MW413346   1.668   5.802   4.948  0.2439 -0.3461  0.0966
 3394SOL     OW13347   1.304   1.821   4.264 -0.5400  0.3323 -0.1924
 3394SOL    HW213348   1.367   1.893   4.266 -0.2393  0.1473 -1.8064
 3394SOL    HW313349   1.249   1.835   4.341  0.1098  1.7351  0.0408
 3394SOL    MW413350   1.305   1.832   4.274 -0.4146  0.4930 -0.3746
 3395SOL     OW13351   1.398   5.782   1.243  0.0143  0.3646 -1.0026
 3395SOL    HW213352   1.479   5.733   1.260 -0.3054 -0.5792 -2.0734
 3395SOL    HW313353   1.329   5.717   1.254 -0.6691  1.2864  0.4415
 3395SOL    MW413354   1.400   5.767   1.247 -0.1181  0.3617 -0.9533
 3396SOL     OW13355   3.595   5.314   2.215 -0.6008 -0.1731  0.5322
 3396SOL    HW213356   3.671   5.370   2.194 -0.9800 -0.0287 -0.5306
 3396SOL    HW313357   3.588   5.318   2.310  0.2282  0.4785  0.5815
 3396SOL    MW413358   3.604   5.322   2.225 -0.5414 -0.0681  0.3985
 3397SOL     OW13359   2.335   2.817   3.145 -0.2907  0.3462  0.1755
 3397SOL    HW213360   2.292   2.902   3.137 -0.4042  0.3762  1.0353
 3397SOL    HW313361   2.383   2.822   3.227 -1.6017 -1.0002  1.0597
 3397SOL    MW413362   2.336   2.829   3.154 -0.4787  0.1725  0.4056
 3398SOL     OW13363   3.519   2.801   6.287 -0.7436  0.1185 -0.4163
 3398SOL    HW213364   3.581   2.745   6.333  0.1659  0.5042 -1.1349
 3398SOL    HW313365   3.464   2.741   6.238 -1.2171 -0.2506  0.5472
 3398SOL    MW413366   3.520   2.786   6.287 -0.6861  0.1207 -0.3840
 3399SOL     OW13367   0.386   1.005   1.233  0.1220  0.0152 -0.0907
 3399SOL    HW213368   0.420   1.091   1.256  0.8466  0.4016 -2.3613
 3399SOL    HW313369   0.449   0.970   1.171 -0.6225 -1.8004  0.1023
 3399SOL    MW413370   0.399   1.011   1.228  0.1194 -0.1734 -0.3648
 3400SOL     OW13371   1.425   2.508   2.451  0.4168  0.8449 -0.4087
 3400SOL    HW213372   1.394   2.418   2.463  1.6678  0.3219 -0.9517
 3400SOL    HW313373   1.407   2.550   2.535  0.6722 -0.1835  0.1861
 3400SOL    MW413374   1.419   2.501   2.464  0.6156  0.6402 -0.4018
 3401SOL     OW13375   4.919   5.863   1.370  0.0350  0.2356 -0.9101
 3401SOL    HW213376   4.845   5.851   1.430  0.1891  4.1985  0.3240
 3401SOL    HW313377   4.976   5.789   1.388 -0.7153  0.3626  2.7432
 3401SOL    MW413378   4.917   5.852   1.381 -0.0437  0.7752 -0.2653
 3402SOL     OW13379   5.825   0.343   5.727  0.1154  0.2641 -0.2327
 3402SOL    HW213380   5.858   0.341   5.637 -0.8133  1.7580 -0.6437
 3402SOL    HW313381   5.903   0.359   5.780  0.5825  0.0742 -0.8454
 3402SOL    MW413382   5.840   0.345   5.722  0.0545  0.4361 -0.3677
 3403SOL     OW13383   4.082   4.129   1.439  0.3875 -0.3595  0.2952
 3403SOL    HW213384   4.007   4.133   1.379  1.0274 -0.3558 -0.5159
 3403SOL    HW313385   4.119   4.217   1.437  0.4716 -0.3869  0.6199
 3403SOL    MW413386   4.077   4.141   1.431  0.4830 -0.3627  0.2311
 3404SOL     OW13387   0.828   3.930   3.131  0.2401  0.2584 -0.0523
 3404SOL    HW213388   0.811   3.987   3.056 -1.2084 -0.9727 -0.7387
 3404SOL    HW313389   0.922   3.934   3.144  0.1657  3.1028  0.2255
 3404SOL    MW413390   0.838   3.938   3.123  0.0391  0.4713 -0.1062
 3405SOL     OW13391   6.207   5.769   2.338 -0.4794 -0.0463 -0.2666
 3405SOL    HW213392   6.289   5.819   2.347 -1.0639  0.7729  0.6602
 3405SOL    HW313393   6.150   5.804   2.406 -1.7660 -0.2909 -1.1868
 3405SOL    MW413394   6.211   5.780   2.348 -0.7262  0.0295 -0.2657
 3406SOL     OW13395   4.740   1.719   4.484  0.1061  0.4917  0.1337
 3406SOL    HW213396   4.647   1.740   4.499 -0.4504 -0.8521 -1.1276
 3406SOL    HW313397   4.750   1.632   4.522  0.4668  0.0271 -0.9894
 3406SOL    MW413398   4.729   1.710   4.491  0.0803  0.2531 -0.1809
 3407SOL     OW13399   5.606   3.787   2.715 -0.0246 -0.3477 -0.2551
 3407SOL    HW213400   5.589   3.876   2.684 -1.1116 -0.9983 -1.6583
 3407SOL    HW313401   5.542   3.774   2.785 -0.0001 -0.1103 -0.1850
 3407SOL    MW413402   5.595   3.797   2.720 -0.1648 -0.4022 -0.4310
 3408SOL     OW13403   4.517   3.545   5.135 -0.1128 -0.0677 -0.2384
 3408SOL    HW213404   4.587   3.495   5.177 -0.7446  0.5748  1.7001
 3408SOL    HW313405   4.444   3.541   5.197 -0.9530  1.3280 -1.0784
 3408SOL    MW413406   4.516   3.538   5.149 -0.3070  0.2012 -0.0935
 3409SOL     OW13407   1.305   3.633   5.069  0.9612 -0.2116 -0.3625
 3409SOL    HW213408   1.380   3.661   5.017  2.5706 -1.6085  1.0865
 3409SOL    HW313409   1.289   3.706   5.129  1.9214 -0.3292  0.0657
 3409SOL    MW413410   1.313   3.646   5.070  1.3002 -0.4114 -0.1149
 3410SOL     OW13411   2.007   4.068   6.222  0.2628  0.5416  0.6115
 3410SOL    HW213412   1.968   4.078   6.135  1.7665  1.1316 -0.0246
 3410SOL    HW313413   2.005   4.155   6.260  0.5318  0.4857  0.7570
 3410SOL    MW413414   2.002   4.081   6.216  0.4967  0.6121  0.5467
 3411SOL     OW13415   3.710   2.722   0.472  0.3259 -0.0737  0.2744
 3411SOL    HW213416   3.700   2.796   0.532  0.0234  0.0707  0.0511
 3411SOL    HW313417   3.741   2.761   0.390  0.8265 -0.2804  0.3635
 3411SOL    MW413418   3.713   2.737   0.469  0.3521 -0.0819  0.2566
 3412SOL     OW13419   4.487   3.557   6.383  0.2035 -0.3007 -0.1736
 3412SOL    HW213420   4.405   3.590   6.422  0.0950 -0.3180 -0.3841
 3412SOL    HW313421   4.499   3.611   6.305  1.0394  0.5266  0.5011
 3412SOL    MW413422   4.477   3.569   6.378  0.2995 -0.1938 -0.1124
 3413SOL     OW13423   1.759   2.712   5.931  0.1214 -0.3486  0.1534
 3413SOL    HW213424   1.838   2.694   5.982 -0.0205 -0.1922  0.4247
 3413SOL    HW313425   1.720   2.626   5.915  0.1975 -0.4015  0.2568
 3413SOL    MW413426   1.764   2.699   5.935  0.1127 -0.3349  0.2029
 3414SOL     OW13427   4.893   3.297   0.462  0.1174  0.0386 -0.9233
 3414SOL    HW213428   4.923   3.244   0.388 -1.3060  1.2086 -2.4030
 3414SOL    HW313429   4.806   3.263   0.482  0.0514  0.4583 -0.4959
 3414SOL    MW413430   4.885   3.285   0.455 -0.0791  0.2483 -1.0622
 3415SOL     OW13431   4.073   0.686   6.340  0.2471  0.0088  0.4810
 3415SOL    HW213432   4.011   0.673   6.411  0.2451  1.0236  0.6789
 3415SOL    HW313433   4.156   0.651   6.374  0.0329 -0.3678  0.6198
 3415SOL    MW413434   4.076   0.680   6.354  0.2185  0.0930  0.5254
 3416SOL     OW13435   4.928   2.850   4.494  0.5557  0.1219  0.0750
 3416SOL    HW213436   4.956   2.814   4.579  0.8835 -0.4745 -0.2797
 3416SOL    HW313437   4.838   2.818   4.484  1.0615 -1.1886 -0.5374
 3416SOL    MW413438   4.920   2.841   4.504  0.6657 -0.1297 -0.0526
 3417SOL     OW13439   3.041   5.754   2.037  0.1456  0.3298  0.1120
 3417SOL    HW213440   2.951   5.742   2.068  0.4167 -0.9633  0.4482
 3417SOL    HW313441   3.033   5.773   1.944 -0.4876  0.6198  0.2229
 3417SOL    MW413442   3.028   5.755   2.029  0.0978  0.1974  0.1710
 3418SOL     OW13443   1.047   2.677   3.694  0.8439  0.2418 -0.3241
 3418SOL    HW213444   1.143   2.674   3.698  0.7939 -0.4206  1.7711
 3418SOL    HW313445   1.027   2.743   3.628  2.7658  1.4596  0.2348
 3418SOL    MW413446   1.057   2.685   3.686  1.0908  0.3151  0.0261
 3419SOL     OW13447   4.614   2.706   0.969  0.5467 -0.2407  0.0315
 3419SOL    HW213448   4.537   2.702   0.912  0.7755  0.9883 -0.4106
 3419SOL    HW313449   4.688   2.708   0.909  0.7836  1.2669  0.3250
 3419SOL    MW413450   4.614   2.706   0.954  0.6081  0.1204  0.0119
 3420SOL     OW13451   4.966   2.285   3.136 -0.1992 -0.3158 -0.1025
 3420SOL    HW213452   5.002   2.281   3.225  0.8297 -1.5698 -0.5315
 3420SOL    HW313453   4.978   2.196   3.102  1.0485  0.5542 -2.1054
 3420SOL    MW413454   4.972   2.272   3.143  0.1012 -0.3665 -0.4234
 3421SOL     OW13455   1.526   3.013   2.207 -0.0232  0.4317  0.3126
 3421SOL    HW213456   1.556   2.961   2.282 -0.7895  0.2043  0.4713
 3421SOL    HW313457   1.598   3.075   2.191  1.5795 -1.6122 -0.8289
 3421SOL    MW413458   1.539   3.015   2.215  0.0871  0.1321  0.1829
 3422SOL     OW13459   2.050   0.279   4.967 -0.0728 -0.4818 -0.1337
 3422SOL    HW213460   2.137   0.311   4.942  0.3488 -0.8163  0.8672
 3422SOL    HW313461   2.062   0.186   4.982 -0.0510 -0.1496  2.2615
 3422SOL    MW413462   2.063   0.271   4.966 -0.0143 -0.4821  0.3144
 3423SOL     OW13463   1.116   4.271   2.439  0.1066  0.3918 -0.0245
 3423SOL    HW213464   1.047   4.328   2.406 -1.6262 -0.6644  1.5439
 3423SOL    HW313465   1.198   4.312   2.410 -1.0881  2.8900 -0.1283
 3423SOL    MW413466   1.118   4.284   2.431 -0.2796  0.5821  0.1688
 3424SOL     OW13467   0.504   3.521   3.208  0.6621 -0.3203 -0.3056
 3424SOL    HW213468   0.410   3.538   3.211  0.6479 -0.2352 -1.0883
 3424SOL    HW313469   0.538   3.563   3.287  0.0359 -0.4027  0.0150
 3424SOL    MW413470   0.496   3.529   3.219  0.5776 -0.3199 -0.3665
 3425SOL     OW13471   3.337   2.979   4.025  0.6510 -0.3765 -0.0837
 3425SOL    HW213472   3.277   3.036   4.074 -0.1484 -1.3707  0.1174
 3425SOL    HW313473   3.298   2.974   3.937  0.8616 -0.4154 -0.1752
 3425SOL    MW413474   3.324   2.986   4.020  0.5733 -0.5128 -0.0692
 3426SOL     OW13475   5.291   2.475   3.110 -0.0466 -0.4086 -0.5257
 3426SOL    HW213476   5.282   2.525   3.029 -0.1796 -0.9593 -0.8542
 3426SOL    HW313477   5.231   2.518   3.171  0.5975  0.4677 -0.4873
 3426SOL    MW413478   5.282   2.488   3.107  0.0209 -0.3657 -0.5640
 3427SOL     OW13479   3.604   2.069   2.398 -0.5305  0.5193 -0.6546
 3427SOL    HW213480   3.608   2.035   2.309  1.7489  0.8878 -0.7552
 3427SOL    HW313481   3.687   2.044   2.438 -0.5485  2.2736  0.6331
 3427SOL    MW413482   3.615   2.062   2.392 -0.2321  0.7994 -0.4980
 3428SOL     OW13483   2.566   2.910   1.119 -0.0385  0.2763  0.2083
 3428SOL    HW213484   2.494   2.862   1.160  0.3039 -0.1442  0.3210
 3428SOL    HW313485   2.573   2.873   1.032 -0.9271  1.3377 -0.3405
 3428SOL    MW413486   2.557   2.899   1.113 -0.1106  0.3609  0.1508
 3429SOL     OW13487   3.515   0.729   0.487  0.0164  0.3232 -0.1552
 3429SOL    HW213488   3.423   0.728   0.510  0.0052 -0.3437 -0.2208
 3429SOL    HW313489   3.532   0.643   0.448  0.9798 -0.1028  1.1112
 3429SOL    MW413490   3.505   0.718   0.485  0.1420  0.1790  0.0032
 3430SOL     OW13491   2.685   5.548   5.194 -0.0664 -0.0387  0.3236
 3430SOL    HW213492   2.622   5.522   5.262  2.2650  1.5528  3.3348
 3430SOL    HW313493   2.747   5.476   5.190  0.7454  0.5959  1.1852
 3430SOL    MW413494   2.685   5.535   5.203  0.3483  0.2550  0.8346
 3431SOL     OW13495   2.463   4.536   1.421 -0.0838  0.9627 -0.2302
 3431SOL    HW213496   2.542   4.585   1.401 -0.0636  1.6109  1.3122
 3431SOL    HW313497   2.462   4.465   1.357  2.1034  0.5411  0.1219
 3431SOL    MW413498   2.473   4.533   1.410  0.2075  0.9926  0.0198
 3432SOL     OW13499   1.376   2.262   0.466  0.2294  0.2771 -0.1331
 3432SOL    HW213500   1.334   2.335   0.421 -0.0365  0.5663  0.5756
 3432SOL    HW313501   1.311   2.232   0.530  0.5618 -0.1961 -0.0082
 3432SOL    MW413502   1.362   2.268   0.468  0.2381  0.2529 -0.0231
 3433SOL     OW13503   0.825   5.563   4.237 -0.3865 -0.3896 -0.0228
 3433SOL    HW213504   0.894   5.624   4.264  1.9726 -1.2449 -3.4911
 3433SOL    HW313505   0.837   5.487   4.295  0.7401 -0.0118  0.2640
 3433SOL    MW413506   0.836   5.561   4.248  0.0734 -0.4526 -0.4425
 3434SOL     OW13507   1.176   0.666   2.053 -0.4821  0.5391 -0.0615
 3434SOL    HW213508   1.189   0.675   1.959  0.0870  0.2262 -0.0148
 3434SOL    HW313509   1.129   0.745   2.079 -1.1996  0.3398 -0.7089
 3434SOL    MW413510   1.172   0.677   2.044 -0.5017  0.4715 -0.1408
 3435SOL     OW13511   1.986   3.852   1.107 -0.1030  0.0082  0.3829
 3435SOL    HW213512   2.000   3.915   1.036 -0.5576 -0.5185 -0.1841
 3435SOL    HW313513   2.015   3.898   1.186  2.0520  0.0090 -0.3442
 3435SOL    MW413514   1.992   3.866   1.108  0.1213 -0.0612  0.2121
 3436SOL     OW13515   0.602   6.115   2.926  0.5520 -0.2473 -0.4928
 3436SOL    HW213516   0.543   6.099   3.000  1.4090  2.6335  0.9613
 3436SOL    HW313517   0.680   6.064   2.946  0.7123  0.3780  0.5494
 3436SOL    MW413518   0.604   6.106   2.938  0.6862  0.2153 -0.1635
 3437SOL     OW13519   5.499   2.880   1.612 -0.0101 -0.2954 -0.0252
 3437SOL    HW213520   5.570   2.944   1.605  0.8481 -0.9266  2.3753
 3437SOL    HW313521   5.542   2.796   1.620 -1.0885 -0.8636  0.0130
 3437SOL    MW413522   5.514   2.878   1.612 -0.0392 -0.4536  0.2966
 3438SOL     OW13523   4.967   4.084   2.928 -0.0749  0.2392 -0.1490
 3438SOL    HW213524   4.940   4.033   2.852  1.9613 -0.8913 -0.1643
 3438SOL    HW313525   5.062   4.089   2.922  0.1001  0.5534  2.0319
 3438SOL    MW413526   4.976   4.078   2.918  0.2169  0.1315  0.1367
 3439SOL     OW13527   5.292   3.011   3.160  0.0664  0.5812  0.1913
 3439SOL    HW213528   5.349   3.085   3.180  0.7231  0.3443 -0.7087
 3439SOL    HW313529   5.208   3.051   3.138  0.1590  1.0001  0.5844
 3439SOL    MW413530   5.289   3.026   3.160  0.1653  0.6052  0.1244
 3440SOL     OW13531   6.065   5.465   5.981 -0.0122 -0.0808 -0.3280
 3440SOL    HW213532   5.976   5.472   5.947 -0.1200  1.8079  0.2141
 3440SOL    HW313533   6.121   5.480   5.905 -0.1067 -1.7219 -0.7614
 3440SOL    MW413534   6.061   5.468   5.966 -0.0389 -0.0481 -0.3136
 3441SOL     OW13535   5.286   0.233   5.489  0.2125 -0.3022 -0.1411
 3441SOL    HW213536   5.307   0.139   5.481 -1.2525 -0.7149  0.5672
 3441SOL    HW313537   5.236   0.253   5.410 -1.0779 -0.5978  0.5784
 3441SOL    MW413538   5.282   0.223   5.477 -0.1510 -0.3956  0.0473
 3442SOL     OW13539   1.222   1.199   0.910 -0.2133  0.2322 -0.0955
 3442SOL    HW213540   1.249   1.114   0.943 -1.0415  0.1040  0.3032
 3442SOL    HW313541   1.149   1.224   0.967 -0.2774  0.9993 -0.4949
 3442SOL    MW413542   1.216   1.191   0.922 -0.3310  0.3165 -0.0956
 3443SOL     OW13543   3.867   6.193   2.251 -0.0885  0.1447 -0.3147
 3443SOL    HW213544   3.933   6.243   2.300 -0.2831 -0.7743  0.9370
 3443SOL    HW313545   3.914   6.156   2.177  0.4938  0.5598 -0.1590
 3443SOL    MW413546   3.882   6.195   2.248 -0.0374  0.0782 -0.1290
 3444SOL     OW13547   2.022   2.592   3.688 -0.4241 -0.0486 -0.0622
 3444SOL    HW213548   2.117   2.600   3.694 -0.2831 -1.3349 -0.2987
 3444SOL    HW313549   1.988   2.663   3.742  0.6546  1.2121 -0.9604
 3444SOL    MW413550   2.030   2.603   3.696 -0.2632 -0.0520 -0.2119
 3445SOL     OW13551   6.217   1.247   1.091  0.3129  0.6293  0.1181
 3445SOL    HW213552   6.239   1.195   1.014 -0.2521 -0.5271  0.6968
 3445SOL    HW313553   6.162   1.318   1.057  1.0764  0.8530 -0.6876
 3445SOL    MW413554   6.212   1.250   1.076  0.3391  0.5062  0.0881
 3446SOL     OW13555   5.997   1.228   5.849 -0.2091  0.2049 -0.2269
 3446SOL    HW213556   5.969   1.279   5.774 -1.0632  2.7983  1.7063
 3446SOL    HW313557   6.088   1.205   5.830 -1.2370 -1.9859 -3.3366
 3446SOL    MW413558   6.005   1.231   5.837 -0.4574  0.2580 -0.3821
 3447SOL     OW13559   1.644   2.949   1.559  0.2344  0.4339  0.2100
 3447SOL    HW213560   1.701   2.966   1.634  0.1612  3.4813 -0.3120
 3447SOL    HW313561   1.555   2.962   1.593  0.0570 -0.3200  0.0639
 3447SOL    MW413562   1.639   2.953   1.573  0.2013  0.7365  0.1219
 3448SOL     OW13563   0.368   1.346   4.191  0.0955 -0.0107 -0.1578
 3448SOL    HW213564   0.363   1.418   4.254  2.5795  0.2882 -0.2144
 3448SOL    HW313565   0.278   1.334   4.162 -1.0945  0.0918  3.1158
 3448SOL    MW413566   0.355   1.354   4.195  0.2663  0.0423  0.2667
 3449SOL     OW13567   5.884   5.137   3.350 -0.0866 -0.0697 -0.3500
 3449SOL    HW213568   5.893   5.108   3.260  0.8427 -1.9218  0.2886
 3449SOL    HW313569   5.837   5.066   3.394  0.9355  0.0237  0.9729
 3449SOL    MW413570   5.879   5.124   3.344  0.1708 -0.3018 -0.0912
 3450SOL     OW13571   1.309   4.480   4.622 -0.1463  0.6537  0.1538
 3450SOL    HW213572   1.384   4.494   4.680  0.3403 -2.2197  0.3278
 3450SOL    HW313573   1.248   4.428   4.674 -0.5568 -0.3390 -1.2622
 3450SOL    MW413574   1.310   4.475   4.637 -0.1363  0.1436 -0.0101
 3451SOL     OW13575   6.281   0.790   5.878 -0.2733 -0.0673 -0.1604
 3451SOL    HW213576   6.283   0.734   5.800  0.9571 -0.3389  0.0442
 3451SOL    HW313577   6.373   0.797   5.905 -0.8219 -1.7815  2.5313
 3451SOL    MW413578   6.293   0.783   5.872 -0.1834 -0.3293  0.2218
 3452SOL     OW13579   3.235   2.060   0.644  0.1304  0.0190 -0.1272
 3452SOL    HW213580   3.159   2.037   0.698  0.7849  0.5938  1.0764
 3452SOL    HW313581   3.231   1.998   0.571 -0.5523 -1.0785  0.7853
 3452SOL    MW413582   3.224   2.048   0.642  0.1267 -0.0500  0.1520
 3453SOL     OW13583   4.527   2.685   6.132  0.3221  0.0838  0.4098
 3453SOL    HW213584   4.456   2.732   6.089  0.5909 -1.4220 -1.8331
 3453SOL    HW313585   4.500   2.593   6.131  2.5442 -0.6419 -1.1930
 3453SOL    MW413586   4.514   2.679   6.126  0.6507 -0.2106 -0.0976
 3454SOL     OW13587   4.142   5.354   1.823  0.1415 -0.0181  0.2911
 3454SOL    HW213588   4.225   5.320   1.855  0.2878 -1.2549 -1.2777
 3454SOL    HW313589   4.076   5.296   1.861  0.0631  0.4067  0.8090
 3454SOL    MW413590   4.144   5.342   1.832  0.1505 -0.1252  0.1525
 3455SOL     OW13591   0.860   2.810   1.258 -0.5004 -0.0530  0.1981
 3455SOL    HW213592   0.869   2.883   1.320 -0.5256 -0.4763  0.7127
 3455SOL    HW313593   0.766   2.801   1.247 -0.5858 -1.1671  1.5653
 3455SOL    MW413594   0.849   2.819   1.265 -0.5150 -0.2559  0.4464
 3456SOL     OW13595   0.318   1.638   4.083  0.5900  0.0506  0.4815
 3456SOL    HW213596   0.230   1.600   4.076  0.2615  0.9333 -0.5820
 3456SOL    HW313597   0.308   1.706   4.151  1.0885 -1.4349  2.1173
 3456SOL    MW413598   0.305   1.642   4.091  0.6125 -0.0289  0.5570
 3457SOL     OW13599   4.333   6.353   3.420 -0.1276  0.5468 -0.6908
 3457SOL    HW213600   4.334   6.351   3.325 -0.3993  0.7134 -0.6970
 3457SOL    HW313601   4.406   6.410   3.444 -0.4724  1.0387 -0.8127
 3457SOL    MW413602   4.343   6.360   3.411 -0.2090  0.6337 -0.7077
 3458SOL     OW13603   2.192   4.981   0.823 -0.0807 -0.0025  0.1273
 3458SOL    HW213604   2.165   4.899   0.782 -2.0020 -0.2934  1.8428
 3458SOL    HW313605   2.288   4.980   0.816 -0.0225 -2.5130  0.2885
 3458SOL    MW413606   2.201   4.970   0.816 -0.3265 -0.3721  0.3749
 3459SOL     OW13607   0.858   1.790   5.971  0.3489 -0.0412 -0.4220
 3459SOL    HW213608   0.916   1.839   6.029  0.0599  0.4174 -0.5113
 3459SOL    HW313609   0.825   1.718   6.026  0.0232  0.4284  0.0082
 3459SOL    MW413610   0.861   1.787   5.986  0.2678  0.0813 -0.3770
 3460SOL     OW13611   4.676   2.555   3.328 -0.2791 -0.3161  0.0501
 3460SOL    HW213612   4.595   2.602   3.348 -1.4906 -2.0242 -0.5600
 3460SOL    HW313613   4.687   2.565   3.234 -0.0711 -0.5273  0.0519
 3460SOL    MW413614   4.667   2.562   3.318 -0.4115 -0.5693 -0.0302
 3461SOL     OW13615   6.022   1.955   3.257  0.6006  0.6198 -0.3046
 3461SOL    HW213616   5.977   1.927   3.177  1.7871 -1.3317 -0.3588
 3461SOL    HW313617   5.991   1.894   3.324 -0.2014  2.0923  0.7140
 3461SOL    MW413618   6.012   1.943   3.255  0.6513  0.5566 -0.1773
 3462SOL     OW13619   1.412   3.215   4.020 -0.1208  0.1134 -0.2682
 3462SOL    HW213620   1.378   3.126   4.032 -0.4252  0.1875 -0.5565
 3462SOL    HW313621   1.491   3.218   4.074 -0.0672 -0.3559 -0.3154
 3462SOL    MW413622   1.418   3.203   4.029 -0.1539  0.0612 -0.3125
 3463SOL     OW13623   0.090   6.012   1.434  0.4142 -0.1856  0.0511
 3463SOL    HW213624   0.163   6.073   1.443  1.0586 -0.9077 -0.1287
 3463SOL    HW313625   0.014   6.060   1.466  0.5742  1.3120 -1.6743
 3463SOL    MW413626   0.090   6.026   1.439  0.5203 -0.0833 -0.2003
 3464SOL     OW13627   0.315   0.202   5.886  0.2515 -0.2431  0.0487
 3464SOL    HW213628   0.370   0.150   5.944 -1.0230 -1.6394  0.0705
 3464SOL    HW313629   0.324   0.292   5.919  3.6348 -0.1166 -0.8980
 3464SOL    MW413630   0.323   0.207   5.898  0.5297 -0.4106 -0.0733
 3465SOL     OW13631   4.235   4.429   5.346 -0.7019 -1.0618  0.5615
 3465SOL    HW213632   4.254   4.467   5.260 -2.6429 -0.7190  0.2282
 3465SOL    HW313633   4.272   4.491   5.408 -0.5863 -0.5378 -0.0191
 3465SOL    MW413634   4.242   4.442   5.342 -0.9428 -0.9474  0.4409
 3466SOL     OW13635   3.443   1.315   5.134  0.3957 -0.0807  0.1749
 3466SOL    HW213636   3.409   1.351   5.216  0.0604  0.6221 -0.2570
 3466SOL    HW313637   3.538   1.328   5.139  0.2255  1.6343 -0.2947
 3466SOL    MW413638   3.451   1.321   5.145  0.3290  0.2383  0.0560
 3467SOL     OW13639   5.829   3.994   1.992  0.2500 -0.1591 -0.3480
 3467SOL    HW213640   5.864   4.069   1.944  0.2921  0.1474  0.1585
 3467SOL    HW313641   5.896   3.973   2.057 -0.5718  0.5659  0.7719
 3467SOL    MW413642   5.843   4.001   1.994  0.1471 -0.0230 -0.1334
 3468SOL     OW13643   2.636   0.161   2.443  0.3893  0.3116  0.9324
 3468SOL    HW213644   2.678   0.205   2.517  0.9403 -0.6933  1.2333
 3468SOL    HW313645   2.709   0.127   2.391 -0.0240 -0.6785  0.9818
 3468SOL    MW413646   2.651   0.162   2.446  0.4075  0.0484  0.9786
 3469SOL     OW13647   1.087   1.120   1.976 -0.3571  0.5441 -0.1671
 3469SOL    HW213648   1.018   1.157   1.921 -0.2033 -1.8329 -2.1464
 3469SOL    HW313649   1.045   1.049   2.024  0.7346 -1.4061 -1.9288
 3469SOL    MW413650   1.072   1.116   1.975 -0.1928 -0.0268 -0.6607
 3470SOL     OW13651   4.876   3.949   2.149 -0.4598  0.0928  0.2973
 3470SOL    HW213652   4.893   4.042   2.164  1.7106  0.1323 -1.7738
 3470SOL    HW313653   4.962   3.908   2.157 -1.0804 -1.4647 -0.6088
 3470SOL    MW413654   4.890   3.956   2.152 -0.2553 -0.1075 -0.0955
 3471SOL     OW13655   0.328   2.888   3.955  0.0368 -0.3810  0.1596
 3471SOL    HW213656   0.250   2.927   3.994 -0.0415  0.8306 -1.1213
 3471SOL    HW313657   0.396   2.954   3.964  0.7889 -1.2175  0.7802
 3471SOL    MW413658   0.327   2.902   3.961  0.1257 -0.3315  0.0725
 3472SOL     OW13659   4.781   0.387   1.289  0.6166 -0.2593 -0.2823
 3472SOL    HW213660   4.724   0.426   1.355 -1.7531 -3.2674 -0.3544
 3472SOL    HW313661   4.809   0.461   1.235 -0.5299  1.7621  1.7322
 3472SOL    MW413662   4.777   0.402   1.291  0.1527 -0.3895 -0.0261
 3473SOL     OW13663   4.351   4.628   6.251 -0.1612 -0.4788 -0.0496
 3473SOL    HW213664   4.369   4.552   6.306  0.7642 -0.0355  0.3023
 3473SOL    HW313665   4.324   4.592   6.167 -3.6690 -1.1920  1.2338
 3473SOL    MW413666   4.350   4.613   6.247 -0.5019 -0.5144  0.1661
 3474SOL     OW13667   5.978   5.759   3.739 -0.4721 -0.0435 -0.0873
 3474SOL    HW213668   5.926   5.693   3.785 -0.2174  0.8948  1.6173
 3474SOL    HW313669   5.945   5.842   3.771 -0.8227  0.7216 -2.2439
 3474SOL    MW413670   5.967   5.761   3.749 -0.4847  0.1813 -0.1469
 3475SOL     OW13671   0.209   2.157   4.557  0.2160  0.0181  0.5703
 3475SOL    HW213672   0.225   2.153   4.463 -0.8698 -0.7979  0.4028
 3475SOL    HW313673   0.296   2.150   4.596  0.6491  0.0112 -0.3575
 3475SOL    MW413674   0.223   2.156   4.550  0.1299 -0.0905  0.4258
 3476SOL     OW13675   0.501   0.132   2.348  0.7606  0.4996 -0.0488
 3476SOL    HW213676   0.516   0.226   2.358  0.9603  0.7574 -2.3387
 3476SOL    HW313677   0.521   0.096   2.434  1.5748  2.4382  0.6383
 3476SOL    MW413678   0.506   0.140   2.361  0.8944  0.7894 -0.2602
 3477SOL     OW13679   3.373   1.265   1.452  0.2847 -0.5755 -0.0186
 3477SOL    HW213680   3.326   1.312   1.520 -0.9475  0.8353 -1.7279
 3477SOL    HW313681   3.304   1.224   1.399  0.9707  0.4093 -1.7867
 3477SOL    MW413682   3.358   1.266   1.454  0.2126 -0.2594 -0.4774
 3478SOL     OW13683   5.061   5.609   0.037  0.0883  0.3996 -0.1470
 3478SOL    HW213684   5.036   5.612  -0.055  0.4652  0.8461 -0.2441
 3478SOL    HW313685   5.119   5.533   0.044  0.1348  0.4207 -0.2995
 3478SOL    MW413686   5.065   5.600   0.026  0.1442  0.4613 -0.1799
 3479SOL     OW13687   0.220   1.371   2.211  0.0954  0.2337 -0.4135
 3479SOL    HW213688   0.295   1.334   2.163  0.2479  0.6441 -0.5006
 3479SOL    HW313689   0.252   1.456   2.243  0.5031 -0.6631  1.7069
 3479SOL    MW413690   0.234   1.378   2.209  0.1693  0.1695 -0.1453
 3480SOL     OW13691   1.802   3.263   3.772 -0.1410  0.0497  0.0987
 3480SOL    HW213692   1.733   3.199   3.755  1.9860 -3.0958  2.2213
 3480SOL    HW313693   1.882   3.211   3.780  2.0150  3.1730  0.6151
 3480SOL    MW413694   1.803   3.248   3.771  0.4241  0.0468  0.4469
 3481SOL     OW13695   0.485   4.231   4.369  0.3509 -0.6250  0.0393
 3481SOL    HW213696   0.406   4.180   4.355  0.1041 -0.2185 -0.0725
 3481SOL    HW313697   0.476   4.265   4.458 -0.9121  1.6228 -0.8416
 3481SOL    MW413698   0.474   4.229   4.379  0.1517 -0.2748 -0.0917
 3482SOL     OW13699   2.482   5.340   0.929 -0.8592  0.0448  0.4766
 3482SOL    HW213700   2.549   5.392   0.973 -1.3494 -0.5318  1.9527
 3482SOL    HW313701   2.435   5.402   0.874  0.8599  0.4661 -0.5912
 3482SOL    MW413702   2.485   5.355   0.927 -0.6971  0.0243  0.5305
 3483SOL     OW13703   2.507   4.347   0.476  0.0935 -0.0724  0.0817
 3483SOL    HW213704   2.586   4.382   0.517  0.9298 -0.7564 -0.9017
 3483SOL    HW313705   2.523   4.252   0.470 -0.3891 -0.1043 -0.9698
 3483SOL    MW413706   2.519   4.339   0.481  0.1401 -0.1668 -0.1868
 3484SOL     OW13707   5.246   2.583   2.850 -0.0545  0.2178 -0.4827
 3484SOL    HW213708   5.258   2.674   2.823 -1.0640  1.3525  2.4911
 3484SOL    HW313709   5.151   2.572   2.854  0.0516 -1.0753 -1.0247
 3484SOL    MW413710   5.235   2.594   2.847 -0.1737  0.1969 -0.1619
 3485SOL     OW13711   2.859   3.932   3.997 -0.2716  0.0087 -0.1546
 3485SOL    HW213712   2.818   3.930   4.084  0.8072 -1.8859  0.3709
 3485SOL    HW313713   2.877   3.840   3.977 -0.2234  0.4303 -2.2830
 3485SOL    MW413714   2.856   3.919   4.006 -0.1229 -0.1856 -0.3661
 3486SOL     OW13715   4.941   0.614   0.866 -0.1491 -0.3457  0.0345
 3486SOL    HW213716   5.025   0.648   0.836 -0.6042  1.3120  0.5304
 3486SOL    HW313717   4.877   0.679   0.838 -1.4895 -2.1791 -1.4576
 3486SOL    MW413718   4.944   0.627   0.858 -0.3860 -0.3689 -0.0969
 3487SOL     OW13719   3.887   6.293   4.573 -0.3447 -0.1986  0.4305
 3487SOL    HW213720   3.795   6.289   4.547  0.0351 -1.2640 -0.8379
 3487SOL    HW313721   3.928   6.354   4.511 -0.1868  0.2882  1.0015
 3487SOL    MW413722   3.880   6.301   4.562 -0.2738 -0.2749  0.3385
 3488SOL     OW13723   4.043   2.920   3.983 -0.1522  0.1828  0.6592
 3488SOL    HW213724   4.011   2.949   3.897  0.8111  0.6777  0.4554
 3488SOL    HW313725   3.971   2.940   4.043 -0.8710 -0.2519 -0.0464
 3488SOL    MW413726   4.029   2.927   3.979 -0.1200  0.1907  0.5393
 3489SOL     OW13727   5.550   4.650   1.536 -0.0126 -0.0097 -0.1853
 3489SOL    HW213728   5.510   4.576   1.489  0.0653 -0.4179  0.3793
 3489SOL    HW313729   5.556   4.720   1.470  2.4134 -1.3448 -1.4999
 3489SOL    MW413730   5.545   4.650   1.521  0.3177 -0.2397 -0.2843
 3490SOL     OW13731   1.676   5.317   0.366  0.4899  0.2995 -0.6709
 3490SOL    HW213732   1.744   5.306   0.299 -0.8869 -0.5816 -1.9849
 3490SOL    HW313733   1.725   5.329   0.448  2.2119 -0.3907 -1.5460
 3490SOL    MW413734   1.692   5.317   0.368  0.5354  0.0922 -0.9598
 3491SOL     OW13735   4.739   4.319   3.522  0.1376  0.0783 -0.2798
 3491SOL    HW213736   4.814   4.259   3.523 -0.4754 -0.7307 -0.9892
 3491SOL    HW313737   4.759   4.383   3.591  2.5779  1.2900 -1.9527
 3491SOL    MW413738   4.752   4.319   3.532  0.3787  0.1315 -0.5941
 3492SOL     OW13739   1.818   6.084   0.711  0.0304 -0.0205 -0.6415
 3492SOL    HW213740   1.736   6.039   0.729  0.9324 -1.9428 -1.1835
 3492SOL    HW313741   1.812   6.110   0.619 -0.8591  1.8553 -0.1015
 3492SOL    MW413742   1.806   6.082   0.701  0.0321 -0.0266 -0.6417
 3493SOL     OW13743   0.753   2.665   3.739 -0.4510 -0.0509  0.3157
 3493SOL    HW213744   0.718   2.627   3.820  0.4253 -2.1449 -0.2264
 3493SOL    HW313745   0.848   2.667   3.752 -0.4431  2.0063  0.2862
 3493SOL    MW413746   0.761   2.660   3.751 -0.3343 -0.0558  0.2403
 3494SOL     OW13747   0.371   3.402   1.884 -0.4116 -0.2860 -0.0973
 3494SOL    HW213748   0.360   3.470   1.817 -0.6417 -1.1375 -0.9499
 3494SOL    HW313749   0.303   3.338   1.864 -1.5031  0.1558  1.8946
 3494SOL    MW413750   0.361   3.403   1.873 -0.5859 -0.3400  0.0530
 3495SOL     OW13751   2.059   4.813   1.104  0.2478  0.2399  0.1746
 3495SOL    HW213752   2.148   4.778   1.100  0.6593  1.0412  1.4954
 3495SOL    HW313753   2.046   4.855   1.019  0.9284 -0.3438 -0.2290
 3495SOL    MW413754   2.069   4.814   1.093  0.3919  0.2686  0.2956
 3496SOL     OW13755   1.711   1.358   3.827 -0.0152  0.2780 -0.1378
 3496SOL    HW213756   1.777   1.289   3.819 -1.3721 -1.0468 -0.4549
 3496SOL    HW313757   1.713   1.383   3.920  2.1216  1.5616 -0.4583
 3496SOL    MW413758   1.720   1.352   3.838  0.0877  0.2726 -0.2219
 3497SOL     OW13759   1.673   0.917   2.965 -0.5082 -0.1243 -0.1126
 3497SOL    HW213760   1.690   0.845   2.905  2.4572  0.8938 -0.6206
 3497SOL    HW313761   1.581   0.904   2.991 -0.3833 -3.5084 -0.8464
 3497SOL    MW413762   1.663   0.906   2.960 -0.1005 -0.4364 -0.2765
 3498SOL     OW13763   5.322   2.408   6.081 -0.1042  0.2448 -0.3734
 3498SOL    HW213764   5.274   2.451   6.152 -0.6186 -0.6501 -0.1655
 3498SOL    HW313765   5.281   2.442   6.001 -1.7441 -1.1683 -0.1996
 3498SOL    MW413766   5.310   2.418   6.080 -0.3884 -0.0597 -0.3230
 3499SOL     OW13767   5.373   3.193   6.278 -0.6556 -0.0481  0.2622
 3499SOL    HW213768   5.317   3.269   6.291 -0.0475  0.5490 -0.4821
 3499SOL    HW313769   5.324   3.120   6.316 -1.9937  0.4276 -0.4776
 3499SOL    MW413770   5.359   3.194   6.285 -0.7519  0.0934  0.0664
 3500SOL     OW13771   1.246   2.108   5.543  0.3224  0.5441  0.0300
 3500SOL    HW213772   1.298   2.159   5.605  0.2671  0.4067  0.1926
 3500SOL    HW313773   1.249   2.158   5.462 -0.2953  1.1573  0.3724
 3500SOL    MW413774   1.253   2.121   5.541  0.2336  0.6069  0.0966
 3501SOL     OW13775   1.800   1.255   6.311 -0.0642  0.0415  0.3266
 3501SOL    HW213776   1.771   1.223   6.225  0.0356 -1.0265  0.6727
 3501SOL    HW313777   1.836   1.178   6.354  2.5088  1.1169  0.2560
 3501SOL    MW413778   1.801   1.241   6.305  0.2884  0.0425  0.3630
 3502SOL     OW13779   4.198   4.947   4.954  0.0114 -0.6160  0.5877
 3502SOL    HW213780   4.223   4.919   4.866 -0.9385  0.2234  0.0168
 3502SOL    HW313781   4.141   4.877   4.986 -0.9859 -0.1679 -0.1504
 3502SOL    MW413782   4.194   4.934   4.947 -0.2455 -0.4461  0.4150
 3503SOL     OW13783   4.572   4.119   2.830  0.2548 -0.2967  0.0507
 3503SOL    HW213784   4.555   4.206   2.793 -0.3592 -0.4871 -0.1288
 3503SOL    HW313785   4.603   4.067   2.757 -0.1369 -0.4397 -0.0173
 3503SOL    MW413786   4.574   4.124   2.816  0.1221 -0.3407  0.0180
 3504SOL     OW13787   2.336   0.168   5.346 -0.0984 -0.0762  0.0699
 3504SOL    HW213788   2.316   0.201   5.258 -1.3408  0.4010  0.5064
 3504SOL    HW313789   2.382   0.241   5.388  0.1688 -0.1690 -0.0564
 3504SOL    MW413790   2.340   0.182   5.340 -0.2271 -0.0255  0.1108
 3505SOL     OW13791   1.777   2.736   2.721  0.3424 -0.0907 -0.0626
 3505SOL    HW213792   1.765   2.768   2.811  0.1116 -1.3883  0.3827
 3505SOL    HW313793   1.739   2.649   2.721  0.0478  0.0098 -1.5246
 3505SOL    MW413794   1.770   2.729   2.733  0.2731 -0.2486 -0.1967
 3506SOL     OW13795   5.307   6.264   0.156  0.3510  0.0073  0.0068
 3506SOL    HW213796   5.402   6.261   0.170  0.5081  2.7965 -0.0239
 3506SOL    HW313797   5.297   6.255   0.061  0.6545  0.5206 -0.0774
 3506SOL    MW413798   5.318   6.262   0.145  0.4117  0.4431 -0.0084
 3507SOL     OW13799   0.607   3.743   4.356  0.1399 -0.2126  0.2518
 3507SOL    HW213800   0.592   3.767   4.265  1.4705  0.6411  0.2251
 3507SOL    HW313801   0.625   3.826   4.401  1.0745 -0.7576  0.9494
 3507SOL    MW413802   0.608   3.757   4.350  0.4387 -0.1719  0.3403
 3508SOL     OW13803   1.838   3.942   0.180 -0.4652  0.2287  1.0746
 3508SOL    HW213804   1.777   3.958   0.108 -0.3437 -1.4679  0.5591
 3508SOL    HW313805   1.820   3.853   0.208  2.8213 -0.9699 -0.1589
 3508SOL    MW413806   1.827   3.933   0.174 -0.0155 -0.1533  0.8438
 3509SOL     OW13807   4.265   6.145   4.787  0.2755 -0.0260 -0.1829
 3509SOL    HW213808   4.324   6.197   4.842  0.6030  1.8444 -2.1589
 3509SOL    HW313809   4.310   6.139   4.702 -1.8786  0.5726 -1.4502
 3509SOL    MW413810   4.279   6.151   4.783  0.0345  0.2997 -0.6108
 3510SOL     OW13811   3.938   2.652   3.999  0.0571 -0.2090  1.2738
 3510SOL    HW213812   3.945   2.598   4.078 -1.2604 -0.6396  1.1342
 3510SOL    HW313813   3.984   2.733   4.021  3.1764 -1.7802  1.0701
 3510SOL    MW413814   3.945   2.655   4.013  0.2948 -0.4731  1.2285
 3511SOL     OW13815   3.371   3.038   5.068  0.5382  0.2327 -0.1803
 3511SOL    HW213816   3.419   3.061   4.989  0.0723 -0.2183 -0.5956
 3511SOL    HW313817   3.281   3.066   5.052  0.4061 -0.0046  0.1293
 3511SOL    MW413818   3.366   3.045   5.056  0.4593  0.1419 -0.1943
 3512SOL     OW13819   2.452   0.776   0.294 -0.1846  0.4967 -0.0270
 3512SOL    HW213820   2.419   0.705   0.238  1.9546 -0.1682 -0.5503
 3512SOL    HW313821   2.402   0.853   0.267 -0.4830 -0.1980 -1.5778
 3512SOL    MW413822   2.441   0.777   0.283  0.0583  0.3173 -0.3006
 3513SOL     OW13823   6.391   5.399   1.877  0.0409 -0.4205  0.5140
 3513SOL    HW213824   6.472   5.451   1.875 -1.4859  2.1917  1.9321
 3513SOL    HW313825   6.323   5.458   1.846 -2.1896 -0.6966  4.2695
 3513SOL    MW413826   6.393   5.413   1.873 -0.4548 -0.1123  1.1966
 3514SOL     OW13827   5.868   0.502   4.736  0.4400  0.3527  0.6005
 3514SOL    HW213828   5.868   0.565   4.665  2.2612 -1.8216 -1.5269
 3514SOL    HW313829   5.949   0.519   4.784  1.4559 -0.8772 -0.5898
 3514SOL    MW413830   5.879   0.512   4.733  0.8143 -0.0964  0.1628
 3515SOL     OW13831   0.010   2.686   1.835 -0.5827 -0.4468  0.0848
 3515SOL    HW213832  -0.031   2.604   1.860 -0.2772 -0.3820  0.8229
 3515SOL    HW313833  -0.063   2.744   1.814 -0.7854 -1.5725 -2.7484
 3515SOL    MW413834  -0.005   2.683   1.835 -0.5691 -0.5868 -0.1916
 3516SOL     OW13835   4.553   3.055   2.558 -0.4416  0.2363 -0.1865
 3516SOL    HW213836   4.552   3.040   2.653  2.3403 -1.0076 -0.2734
 3516SOL    HW313837   4.484   2.997   2.525 -1.7794  1.0434  1.0836
 3516SOL    MW413838   4.544   3.045   2.567 -0.2511  0.1787 -0.0304
 3517SOL     OW13839   0.657   5.645   1.790  0.7037 -0.0869  0.1486
 3517SOL    HW213840   0.571   5.630   1.830  0.0101  2.4897 -0.1990
 3517SOL    HW313841   0.659   5.588   1.714  0.8734 -2.9314  2.1311
 3517SOL    MW413842   0.646   5.636   1.785  0.6346 -0.1222  0.3643
 3518SOL     OW13843   2.854   1.036   6.218  0.0704  0.3513  0.3928
 3518SOL    HW213844   2.935   0.985   6.219 -0.0956 -0.0294 -1.5918
 3518SOL    HW313845   2.809   1.012   6.300  1.0560 -0.9302  0.5890
 3518SOL    MW413846   2.859   1.026   6.229  0.1785  0.1320  0.1568
 3519SOL     OW13847   3.587   3.891   5.261  0.0778 -0.2287 -0.3630
 3519SOL    HW213848   3.546   3.966   5.219  0.8949  0.5711  0.2245
 3519SOL    HW313849   3.562   3.898   5.353  1.6959  0.4458  0.0757
 3519SOL    MW413850   3.579   3.902   5.268  0.3991 -0.0342 -0.2276
 3520SOL     OW13851   1.167   0.768   2.678  0.2182  0.2704 -0.1619
 3520SOL    HW213852   1.119   0.690   2.705  0.0799  0.4374  0.0699
 3520SOL    HW313853   1.134   0.787   2.590  1.6808 -1.1120 -1.0821
 3520SOL    MW413854   1.156   0.760   2.670  0.3929  0.1101 -0.2527
 3521SOL     OW13855   2.264   2.466   6.322 -0.4446  0.3337  0.1004
 3521SOL    HW213856   2.241   2.426   6.406  0.0409  0.1912  0.1686
 3521SOL    HW313857   2.215   2.416   6.257 -1.2722  0.8024  0.3359
 3521SOL    MW413858   2.254   2.454   6.325 -0.4897  0.3767  0.1404
 3522SOL     OW13859   5.537   5.630   3.839 -0.2968 -0.2704 -0.5616
 3522SOL    HW213860   5.538   5.721   3.867  1.6991 -0.7449  1.1347
 3522SOL    HW313861   5.540   5.634   3.743  3.1365  1.5335 -0.5196
 3522SOL    MW413862   5.538   5.643   3.830  0.4195 -0.0950 -0.3323
 3523SOL     OW13863   6.120   0.231   4.649 -0.2483 -0.0578 -0.6926
 3523SOL    HW213864   6.061   0.253   4.577 -0.3077  0.4158 -0.4992
 3523SOL    HW313865   6.078   0.265   4.727  0.0289 -0.1811 -0.4858
 3523SOL    MW413866   6.107   0.238   4.649 -0.2196 -0.0116 -0.6398
 3524SOL     OW13867   1.856   1.933   2.634  0.1642  0.1802 -0.5810
 3524SOL    HW213868   1.832   1.840   2.625  1.3318 -0.4079  1.5902
 3524SOL    HW313869   1.781   1.980   2.600 -1.5788 -1.5831  0.5704
 3524SOL    MW413870   1.843   1.927   2.628  0.0882 -0.1301 -0.1426
 3525SOL     OW13871   6.091   3.362   1.550  0.3357 -0.6857  0.0200
 3525SOL    HW213872   6.152   3.413   1.496  0.4596  0.7476  1.4454
 3525SOL    HW313873   6.095   3.403   1.636 -3.3201  0.1298 -0.0252
 3525SOL    MW413874   6.099   3.374   1.554 -0.1303 -0.3890  0.2021
 3526SOL     OW13875   2.765   1.127   5.546 -0.1034  0.4734  0.2782
 3526SOL    HW213876   2.703   1.190   5.510  1.9597  2.9130  0.7446
 3526SOL    HW313877   2.850   1.153   5.510  0.9674 -1.5613  1.1537
 3526SOL    MW413878   2.768   1.138   5.536  0.3101  0.5268  0.4553
 3527SOL     OW13879   0.958   0.561   0.952 -0.3612  0.5948 -0.2611
 3527SOL    HW213880   0.880   0.595   0.996 -0.8972 -1.9627  0.9690
 3527SOL    HW313881   0.928   0.539   0.864 -0.6585  0.9941 -0.2579
 3527SOL    MW413882   0.943   0.562   0.946 -0.4711  0.3101 -0.0984
 3528SOL     OW13883   4.010   5.686   0.943  0.8014 -0.1064  0.3589
 3528SOL    HW213884   4.093   5.735   0.946  0.6858  0.2201 -1.0555
 3528SOL    HW313885   3.947   5.742   0.988  0.7500  0.9332 -0.9464
 3528SOL    MW413886   4.013   5.700   0.949  0.7794  0.0738  0.0001
 3529SOL     OW13887   3.860   2.680   2.075 -0.1864 -0.1424  0.4828
 3529SOL    HW213888   3.784   2.622   2.081  0.4641 -1.1138 -0.2801
 3529SOL    HW313889   3.912   2.643   2.003  0.4559  1.1571  0.2608
 3529SOL    MW413890   3.857   2.667   2.066 -0.0158 -0.0991  0.3529
 3530SOL     OW13891   6.198   0.969   4.318  0.6663 -0.7142 -0.6175
 3530SOL    HW213892   6.106   0.970   4.290  0.2021 -0.1205  0.8557
 3530SOL    HW313893   6.244   0.925   4.247 -0.8811 -1.7528 -1.0173
 3530SOL    MW413894   6.192   0.964   4.305  0.4009 -0.7729 -0.4759
 3531SOL     OW13895   3.245   2.617   3.343 -0.0779 -0.0017  0.5283
 3531SOL    HW213896   3.220   2.699   3.384  0.0147  1.8032 -2.6678
 3531SOL    HW313897   3.336   2.603   3.370  0.5326  2.0053 -0.3070
 3531SOL    MW413898   3.254   2.626   3.352  0.0148  0.5013 -0.0036
 3532SOL     OW13899   5.613   4.132   4.785 -0.1887 -0.5904 -0.1650
 3532SOL    HW213900   5.621   4.051   4.734  0.9616 -0.8665  0.3984
 3532SOL    HW313901   5.687   4.185   4.755  0.1701 -0.5320  0.7947
 3532SOL    MW413902   5.624   4.128   4.774  0.0104 -0.6191  0.0359
 3533SOL     OW13903   1.163   1.469   0.738 -0.0873 -0.0299  0.1142
 3533SOL    HW213904   1.101   1.416   0.688 -0.9877  2.1487 -1.2572
 3533SOL    HW313905   1.194   1.535   0.675  2.0637  0.2011  1.3370
 3533SOL    MW413906   1.159   1.471   0.723  0.0777  0.2880  0.0946
 3534SOL     OW13907   0.340   2.324   6.331 -0.1214  0.2304 -0.2259
 3534SOL    HW213908   0.284   2.328   6.254 -0.0470 -0.4380 -0.3209
 3534SOL    HW313909   0.331   2.234   6.363 -0.1454  0.4982  0.5407
 3534SOL    MW413910   0.332   2.312   6.325 -0.1147  0.1775 -0.1373
 3535SOL     OW13911   5.084   1.888   3.402 -0.2377  0.6577 -0.3828
 3535SOL    HW213912   5.116   1.939   3.327 -0.0574  0.0751 -0.7089
 3535SOL    HW313913   5.161   1.839   3.432 -0.8000 -0.7645 -1.1769
 3535SOL    MW413914   5.098   1.888   3.396 -0.2881  0.3932 -0.5306
 3536SOL     OW13915   2.491   3.126   4.464  0.2230 -0.8362  0.3476
 3536SOL    HW213916   2.463   3.093   4.549 -1.2400 -1.1089 -0.2126
 3536SOL    HW313917   2.575   3.169   4.481  0.6303 -2.0994  1.6561
 3536SOL    MW413918   2.499   3.127   4.477  0.0837 -1.0388  0.4463
 3537SOL     OW13919   6.334   3.362   0.579 -0.0795  0.5086 -0.2844
 3537SOL    HW213920   6.384   3.382   0.657 -0.5753  0.2281  0.1085
 3537SOL    HW313921   6.323   3.267   0.581 -0.3944  0.5381 -0.5082
 3537SOL    MW413922   6.339   3.352   0.589 -0.1865  0.4755 -0.2621
 3538SOL     OW13923   5.676   0.598   5.577 -0.0793 -0.1227 -0.0732
 3538SOL    HW213924   5.757   0.639   5.549  0.3640  1.0018  2.5389
 3538SOL    HW313925   5.607   0.658   5.548  0.0681 -0.5648 -1.4007
 3538SOL    MW413926   5.678   0.611   5.570 -0.0013 -0.0327  0.0963
 3539SOL     OW13927   3.628   4.381   5.834  0.1589  0.1810  0.6583
 3539SOL    HW213928   3.652   4.449   5.771  1.7076  1.0846  2.1553
 3539SOL    HW313929   3.686   4.308   5.814  0.8640  0.5817  1.2125
 3539SOL    MW413930   3.639   4.380   5.823  0.4563  0.3531  0.9289
 3540SOL     OW13931   2.458   4.640   6.056 -0.1942 -0.9315 -0.6885
 3540SOL    HW213932   2.396   4.697   6.011 -0.1341 -0.6621 -0.4375
 3540SOL    HW313933   2.424   4.634   6.145  1.0239  0.5809 -0.0744
 3540SOL    MW413934   2.446   4.647   6.062 -0.0256 -0.6964 -0.5744
 3541SOL     OW13935   4.554   4.592   1.558  0.3643 -0.0507 -0.4031
 3541SOL    HW213936   4.552   4.555   1.647  1.0200 -0.2545 -0.4681
 3541SOL    HW313937   4.478   4.650   1.555 -0.3913 -0.9878 -0.1215
 3541SOL    MW413938   4.544   4.595   1.570  0.3511 -0.2013 -0.3745
 3542SOL     OW13939   0.949   1.188   6.126  0.1452  0.1568 -0.0721
 3542SOL    HW213940   1.002   1.121   6.169  1.7573  1.0489 -0.6047
 3542SOL    HW313941   0.920   1.246   6.197  0.6167  0.1536  0.1230
 3542SOL    MW413942   0.952   1.187   6.141  0.4201  0.2741 -0.1167
 3543SOL     OW13943   5.408   5.258   6.050  0.7124 -0.4044  0.1200
 3543SOL    HW213944   5.388   5.350   6.068  0.5459 -0.3225 -0.4667
 3543SOL    HW313945   5.325   5.212   6.064  1.0849 -0.6608  1.6492
 3543SOL    MW413946   5.394   5.264   6.054  0.7396 -0.4274  0.2443
 3544SOL     OW13947   4.277   3.983   5.250 -0.1458  0.1384 -0.4047
 3544SOL    HW213948   4.213   3.949   5.188 -0.6105  0.6289 -0.2036
 3544SOL    HW313949   4.307   3.906   5.298 -1.1608 -0.0058  0.0260
 3544SOL    MW413950   4.272   3.968   5.248 -0.3410  0.1841 -0.3213
 3545SOL     OW13951   2.547   5.039   1.744  0.3796 -0.1426 -0.0206
 3545SOL    HW213952   2.641   5.059   1.745  0.3125  0.2852  2.1683
 3545SOL    HW313953   2.541   4.952   1.782 -0.1555  0.1254  0.5231
 3545SOL    MW413954   2.559   5.030   1.749  0.3001 -0.0508  0.3399
 3546SOL     OW13955   0.058   4.279   6.196 -0.1676 -0.3702 -0.2021
 3546SOL    HW213956   0.101   4.300   6.279  1.6475 -1.0646 -0.9198
 3546SOL    HW313957  -0.003   4.209   6.218  0.0352 -0.3056  0.6007
 3546SOL    MW413958   0.056   4.273   6.210  0.0987 -0.4533 -0.1909
 3547SOL     OW13959   1.917   2.406   1.088 -0.0278  0.5609 -0.3466
 3547SOL    HW213960   1.871   2.448   1.015 -1.0685  0.2293  0.0915
 3547SOL    HW313961   1.862   2.424   1.164  0.7603  0.4424  0.2644
 3547SOL    MW413962   1.904   2.414   1.088 -0.0611  0.5015 -0.2082
 3548SOL     OW13963   1.857   4.526   0.853  0.5544  0.0016 -0.3232
 3548SOL    HW213964   1.938   4.476   0.862  1.1493  0.9860 -0.1479
 3548SOL    HW313965   1.855   4.584   0.929 -2.1153 -2.4492  1.7221
 3548SOL    MW413966   1.867   4.527   0.864  0.2807 -0.1919 -0.0303
 3549SOL     OW13967   1.203   2.115   0.286  0.2003  0.8125  0.7036
 3549SOL    HW213968   1.133   2.119   0.351  0.5869 -0.4223  1.2355
 3549SOL    HW313969   1.282   2.140   0.334  0.3998  0.4359  0.5800
 3549SOL    MW413970   1.204   2.119   0.301  0.2777  0.5999  0.7574
 3550SOL     OW13971   5.449   4.220   3.476 -0.5315 -0.4123  0.3862
 3550SOL    HW213972   5.425   4.155   3.411 -0.0893 -1.1072  0.8936
 3550SOL    HW313973   5.541   4.239   3.458 -0.7463  0.3350  0.0318
 3550SOL    MW413974   5.458   4.214   3.465 -0.5015 -0.4054  0.4064
 3551SOL     OW13975   1.500   2.785   1.867  0.0839  0.4160 -0.0984
 3551SOL    HW213976   1.493   2.734   1.786  0.0852 -0.5786  0.5024
 3551SOL    HW313977   1.570   2.848   1.850 -0.9423  1.2347 -1.3858
 3551SOL    MW413978   1.509   2.786   1.854 -0.0514  0.3928 -0.1890
 3552SOL     OW13979   0.483   2.146   4.674  0.1231 -0.6039  0.2480
 3552SOL    HW213980   0.561   2.095   4.651  2.4760  2.0613  1.6971
 3552SOL    HW313981   0.474   2.135   4.768  1.8015  2.8029  0.9631
 3552SOL    MW413982   0.492   2.138   4.683  0.6550  0.1972  0.5335
 3553SOL     OW13983   0.236   4.074   1.404  0.2202  0.2960 -0.4266
 3553SOL    HW213984   0.313   4.074   1.347  1.3000  0.7947  0.9665
 3553SOL    HW313985   0.203   4.164   1.400 -0.0290  0.1953 -0.6727
 3553SOL    MW413986   0.242   4.086   1.396  0.3298  0.3485 -0.2753
 3554SOL     OW13987   0.197   6.037   6.157  0.0782  0.5556 -0.1736
 3554SOL    HW213988   0.220   6.041   6.250 -1.2612  0.7747  0.1699
 3554SOL    HW313989   0.237   6.114   6.119 -2.0538  2.3254  0.9036
 3554SOL    MW413990   0.205   6.048   6.165 -0.3798  0.8180  0.0138
 3555SOL     OW13991   2.979   3.519   3.187 -0.2460  0.4052 -0.3688
 3555SOL    HW213992   2.986   3.458   3.113 -0.0866 -0.4183  0.3158
 3555SOL    HW313993   2.937   3.597   3.149 -1.0042 -0.3472 -1.1274
 3555SOL    MW413994   2.975   3.521   3.172 -0.3250  0.1973 -0.3786
 3556SOL     OW13995   3.065   6.298   5.203  0.7132 -0.3940 -0.4950
 3556SOL    HW213996   2.989   6.327   5.153  0.5084  1.0395  0.5798
 3556SOL    HW313997   3.035   6.221   5.251 -0.1149  0.2274  0.0096
 3556SOL    MW413998   3.051   6.292   5.202  0.5769 -0.1229 -0.2866
 3557SOL     OW13999   3.090   5.393   4.952 -0.0250  0.4640  0.1232
 3557SOL    HW214000   3.065   5.318   4.898 -0.9775 -0.0750  1.2686
 3557SOL    HW314001   3.065   5.368   5.041  0.3340  1.8417  0.6372
 3557SOL    MW414002   3.084   5.380   4.957 -0.1033  0.5747  0.3422
 3558SOL     OW14003   2.594   3.258   1.273  0.1242 -0.3831  0.1725
 3558SOL    HW214004   2.651   3.193   1.315  3.3125  0.8338 -1.8841
 3558SOL    HW314005   2.530   3.205   1.225  0.6834 -1.9027  1.0079
 3558SOL    MW414006   2.593   3.242   1.272  0.6187 -0.4230  0.0114
 3559SOL     OW14007   0.040   5.691   6.389  0.3238 -0.1176  0.2431
 3559SOL    HW214008  -0.001   5.743   6.319 -0.6367  1.0324  1.6193
 3559SOL    HW314009  -0.014   5.612   6.394 -0.9501  0.7675  1.1049
 3559SOL    MW414010   0.028   5.688   6.380  0.0290  0.1509  0.5384
 3560SOL     OW14011   5.959   6.398   1.673 -0.1906  0.5943 -1.1255
 3560SOL    HW214012   5.927   6.319   1.717  0.0439  1.1289  0.0480
 3560SOL    HW314013   6.044   6.415   1.713 -0.7931  2.1599 -0.4033
 3560SOL    MW414014   5.966   6.390   1.684 -0.2391  0.8714 -0.8754
 3561SOL     OW14015   2.548   2.125   2.497  0.0512 -0.2504  0.2458
 3561SOL    HW214016   2.575   2.160   2.412 -0.0856 -0.7093  0.0122
 3561SOL    HW314017   2.513   2.038   2.478 -1.0766  0.0971  0.6144
 3561SOL    MW414018   2.547   2.118   2.483 -0.1156 -0.2651  0.2636
 3562SOL     OW14019   2.036   4.921   0.495 -0.2388 -0.3109 -0.1846
 3562SOL    HW214020   1.970   4.960   0.552 -0.1029 -1.7654  1.0342
 3562SOL    HW314021   2.007   4.831   0.483  1.2064 -0.8189 -0.0879
 3562SOL    MW414022   2.024   4.914   0.501 -0.0302 -0.5698 -0.0111
 3563SOL     OW14023   6.097   4.707   0.505 -0.3366  0.0871 -0.1151
 3563SOL    HW214024   6.018   4.652   0.510 -0.1591 -0.1083  0.5743
 3563SOL    HW314025   6.081   4.764   0.430 -0.2315 -1.3830 -1.3152
 3563SOL    MW414026   6.084   4.707   0.495 -0.2993 -0.1326 -0.1825
 3564SOL     OW14027   0.201   4.491   2.691 -0.1537 -0.5990  0.4520
 3564SOL    HW214028   0.137   4.487   2.762 -0.7438 -0.8236 -0.0803
 3564SOL    HW314029   0.191   4.578   2.654  0.5096 -0.2999  0.9588
 3564SOL    MW414030   0.191   4.502   2.696 -0.1440 -0.5892  0.4486
 3565SOL     OW14031   4.127   0.912   2.442  0.1258 -0.1253  0.0363
 3565SOL    HW214032   4.090   0.850   2.380  1.1022 -0.6536 -0.0427
 3565SOL    HW314033   4.089   0.996   2.418 -0.1821 -0.4727 -0.7106
 3565SOL    MW414034   4.117   0.915   2.431  0.2140 -0.2408 -0.0726
 3566SOL     OW14035   0.947   0.301   1.707 -0.3603  0.0389 -0.3673
 3566SOL    HW214036   0.897   0.321   1.628 -1.0319 -1.6854 -0.4208
 3566SOL    HW314037   0.999   0.225   1.683 -2.0679 -1.8000  1.3847
 3566SOL    MW414038   0.947   0.294   1.693 -0.6742 -0.4312 -0.1432
 3567SOL     OW14039   5.339   3.858   4.457  0.1473 -0.2572 -0.0755
 3567SOL    HW214040   5.290   3.816   4.387  0.0663  1.2165 -0.9320
 3567SOL    HW314041   5.413   3.900   4.413  0.5652 -0.0076  0.8382
 3567SOL    MW414042   5.343   3.858   4.442  0.1917 -0.0299 -0.0679
 3568SOL     OW14043   4.841   2.499   0.095 -0.4633 -0.0066 -0.6817
 3568SOL    HW214044   4.820   2.537   0.010  2.2901 -0.1076 -1.4955
 3568SOL    HW314045   4.832   2.405   0.083 -1.7459  0.0478 -0.3135
 3568SOL    MW414046   4.837   2.492   0.082 -0.2693 -0.0127 -0.7405
 3569SOL     OW14047   1.985   1.029   6.176 -0.0707  0.4845  0.4104
 3569SOL    HW214048   1.938   0.994   6.253 -0.6369 -0.8376 -0.4884
 3569SOL    HW314049   1.954   0.975   6.103  0.6875  1.5117 -0.7059
 3569SOL    MW414050   1.975   1.017   6.177 -0.0454  0.4456  0.1445
 3570SOL     OW14051   3.174   0.080   2.279  1.0365 -0.2862 -0.0729
 3570SOL    HW214052   3.146   0.022   2.350 -1.5718 -0.3761 -1.0880
 3570SOL    HW314053   3.135   0.043   2.200  0.4478  2.0152 -0.9500
 3570SOL    MW414054   3.165   0.067   2.278  0.6147  0.0056 -0.3226
 3571SOL     OW14055   2.593   0.496   5.223  0.2242  0.6352  0.2405
 3571SOL    HW214056   2.686   0.494   5.201 -0.0659 -0.2589 -1.0198
 3571SOL    HW314057   2.551   0.534   5.146 -0.4287  1.3052  0.9161
 3571SOL    MW414058   2.600   0.501   5.210  0.0998  0.6057  0.1633
 3572SOL     OW14059   1.087   6.294   0.377 -0.2663 -0.0324  0.2906
 3572SOL    HW214060   1.052   6.221   0.327  1.8607 -0.2181 -1.0220
 3572SOL    HW314061   1.028   6.367   0.357 -0.0596 -0.3645 -1.7217
 3572SOL    MW414062   1.074   6.294   0.368  0.0416 -0.1007 -0.1481
 3573SOL     OW14063   3.636   0.399   2.822  0.5960  0.3241 -0.2338
 3573SOL    HW214064   3.559   0.454   2.840 -0.3393 -1.0503  0.1377
 3573SOL    HW314065   3.599   0.314   2.800  2.0587 -0.8190  1.5409
 3573SOL    MW414066   3.621   0.395   2.821  0.6656 -0.0081  0.0494
 3574SOL     OW14067   3.207   4.909   0.417 -0.1749 -1.1173 -0.3006
 3574SOL    HW214068   3.136   4.960   0.377 -0.7512 -1.4096  0.3169
 3574SOL    HW314069   3.214   4.832   0.361  0.3262 -0.6254 -0.9233
 3574SOL    MW414070   3.198   4.906   0.404 -0.1848 -1.0909 -0.3013
 3575SOL     OW14071   0.775   1.565   4.464 -0.0703  0.1921  0.3151
 3575SOL    HW214072   0.834   1.632   4.429  1.3189 -0.0329  2.1304
 3575SOL    HW314073   0.799   1.485   4.419  0.9000  0.1443  0.9000
 3575SOL    MW414074   0.786   1.563   4.453  0.2410  0.1561  0.6318
 3576SOL     OW14075   3.515   2.858   5.717 -0.3048 -0.1858 -0.1168
 3576SOL    HW214076   3.514   2.766   5.744 -0.9607 -0.0710  0.2843
 3576SOL    HW314077   3.440   2.867   5.658  0.4834 -0.1818 -1.1485
 3576SOL    MW414078   3.505   2.847   5.713 -0.2874 -0.1701 -0.2000
 3577SOL     OW14079   4.364   4.177   4.279 -0.1093  0.1599  0.4355
 3577SOL    HW214080   4.422   4.118   4.230 -1.3143  0.7453 -1.8846
 3577SOL    HW314081   4.316   4.120   4.338  0.3945 -0.8370 -0.0918
 3577SOL    MW414082   4.365   4.162   4.280 -0.2018  0.1056  0.0598
 3578SOL     OW14083   2.333   4.050   3.784 -0.0212  0.5910 -0.7336
 3578SOL    HW214084   2.265   4.105   3.746 -1.0160  0.1832  0.4064
 3578SOL    HW314085   2.415   4.087   3.751 -0.5486  3.4588  0.8159
 3578SOL    MW414086   2.335   4.062   3.774 -0.2220  0.9156 -0.3787
 3579SOL     OW14087   1.799   5.177   4.876 -0.2916  0.3169 -0.1742
 3579SOL    HW214088   1.761   5.156   4.961  0.7241 -0.9659 -0.0023
 3579SOL    HW314089   1.893   5.178   4.891 -0.1474  1.6219 -0.9776
 3579SOL    MW414090   1.806   5.174   4.889 -0.1386  0.3198 -0.2575
 3580SOL     OW14091   6.180   4.183   6.380  0.0274  0.0950  0.3737
 3580SOL    HW214092   6.091   4.189   6.415  0.0899  3.2737  0.2976
 3580SOL    HW314093   6.237   4.208   6.452  0.9745 -2.1287  0.4874
 3580SOL    MW414094   6.176   4.187   6.394  0.1606  0.2210  0.3787
 3581SOL     OW14095   2.645   1.160   2.640 -0.2483  0.1530  0.4018
 3581SOL    HW214096   2.566   1.118   2.606 -0.3642 -1.2040  2.1902
 3581SOL    HW314097   2.617   1.203   2.720  0.5934  0.6775  0.4289
 3581SOL    MW414098   2.631   1.160   2.646 -0.1526  0.0432  0.6413
 3582SOL     OW14099   3.866   2.975   3.471  0.1522  0.1547  0.1806
 3582SOL    HW214100   3.774   3.000   3.480  0.4495  1.1204  0.7210
 3582SOL    HW314101   3.867   2.912   3.399 -0.6988  1.4288 -0.9915
 3582SOL    MW414102   3.854   2.970   3.463  0.0792  0.4502  0.0972
 3583SOL     OW14103   4.325   6.118   2.467 -0.1570 -0.3404 -0.6253
 3583SOL    HW214104   4.389   6.051   2.493  0.5641  1.4605  2.7717
 3583SOL    HW314105   4.377   6.197   2.455 -1.4178  0.5035 -0.7076
 3583SOL    MW414106   4.341   6.120   2.469 -0.2282  0.0085 -0.1880
 3584SOL     OW14107   0.226   1.550   5.565 -0.1324 -0.0926  0.2634
 3584SOL    HW214108   0.169   1.624   5.545  0.0051  0.2594  1.1084
 3584SOL    HW314109   0.309   1.572   5.522 -0.5530 -0.4994 -0.7793
 3584SOL    MW414110   0.229   1.563   5.557 -0.1698 -0.0999  0.2373
 3585SOL     OW14111   5.713   2.106   5.622  0.3024 -0.2446  0.3926
 3585SOL    HW214112   5.799   2.096   5.581  1.1946  1.3809  1.7178
 3585SOL    HW314113   5.728   2.085   5.714 -0.7655 -0.1584  0.6006
 3585SOL    MW414114   5.726   2.102   5.629  0.2792 -0.0188  0.5949
 3586SOL     OW14115   4.560   6.416   6.308 -0.1396 -0.6779  0.5347
 3586SOL    HW214116   4.485   6.412   6.248 -1.3268 -0.1183  1.9143
 3586SOL    HW314117   4.538   6.487   6.368  2.3084  0.6673 -0.0188
 3586SOL    MW414118   4.547   6.425   6.308  0.0267 -0.4265  0.6437
 3587SOL     OW14119   4.123   5.825   4.221 -0.4757 -0.3480  0.3823
 3587SOL    HW214120   4.116   5.731   4.201 -0.0229 -0.4168  0.5269
 3587SOL    HW314121   4.141   5.866   4.137  0.9396 -0.5815  0.5338
 3587SOL    MW414122   4.125   5.818   4.207 -0.2293 -0.3879  0.4214
 3588SOL     OW14123   2.165   5.733   0.126  0.3533  0.4407  0.1276
 3588SOL    HW214124   2.200   5.819   0.150  0.2482  0.0013  1.9821
 3588SOL    HW314125   2.072   5.748   0.114  0.3978  0.6700  0.0603
 3588SOL    MW414126   2.157   5.746   0.128  0.3453  0.4130  0.3634
 3589SOL     OW14127   1.774   2.736   4.244  0.2199 -0.0677  0.4401
 3589SOL    HW214128   1.864   2.714   4.270  1.2965  2.2285 -0.9960
 3589SOL    HW314129   1.768   2.706   4.153  0.8655  2.8395 -0.6936
 3589SOL    MW414130   1.785   2.729   4.236  0.4471  0.6188  0.1010
 3590SOL     OW14131   2.399   5.954   1.355 -0.2800 -0.0041 -0.6042
 3590SOL    HW214132   2.360   5.978   1.439  1.4304 -0.0672  0.2591
 3590SOL    HW314133   2.443   6.034   1.326  0.4452 -0.3987 -0.6388
 3590SOL    MW414134   2.400   5.968   1.363  0.0413 -0.0645 -0.4948
 3591SOL     OW14135   0.225   3.124   5.260 -0.3560 -0.2196  0.1443
 3591SOL    HW214136   0.216   3.073   5.179 -2.4670  0.8643 -0.3550
 3591SOL    HW314137   0.305   3.175   5.246 -0.1260 -0.8055 -0.8233
 3591SOL    MW414138   0.235   3.124   5.247 -0.6042 -0.1539 -0.0493
 3592SOL     OW14139   2.762   2.292   2.699 -0.1514 -0.0358  0.3627
 3592SOL    HW214140   2.701   2.221   2.715  1.6871 -1.6851  0.4215
 3592SOL    HW314141   2.804   2.308   2.784  1.8587 -1.3068 -0.3050
 3592SOL    MW414142   2.760   2.285   2.712  0.3564 -0.4211  0.2824
 3593SOL     OW14143   1.068   3.814   5.934 -0.0759 -0.2039  0.1258
 3593SOL    HW214144   1.042   3.829   6.025 -1.0306 -0.1808 -0.1364
 3593SOL    HW314145   1.157   3.781   5.939 -0.2273 -0.4854  1.0879
 3593SOL    MW414146   1.076   3.812   5.947 -0.2218 -0.2380  0.2182
 3594SOL     OW14147   1.144   2.227   2.206 -0.4797  0.2355  0.6649
 3594SOL    HW214148   1.080   2.181   2.259  0.0003 -1.8653 -0.4796
 3594SOL    HW314149   1.118   2.319   2.212 -2.5682 -0.3596  1.5867
 3594SOL    MW414150   1.132   2.233   2.214 -0.6919 -0.1202  0.6355
 3595SOL     OW14151   3.258   6.354   3.157  0.0252  0.1522  0.5162
 3595SOL    HW214152   3.291   6.311   3.079 -0.1815  1.2703 -0.2080
 3595SOL    HW314153   3.230   6.282   3.214  0.5942 -0.6878 -0.2428
 3595SOL    MW414154   3.258   6.339   3.154  0.0730  0.1889  0.3205
 3596SOL     OW14155   5.698   0.107   2.417 -0.5568  0.2424  0.7745
 3596SOL    HW214156   5.766   0.107   2.484 -0.2218 -1.1322  0.4723
 3596SOL    HW314157   5.639   0.179   2.442  0.0840  0.3728  1.9799
 3596SOL    MW414158   5.699   0.117   2.429 -0.4280  0.0783  0.8937
 3597SOL     OW14159   6.404   1.075   0.030  0.0101  0.2406  0.6409
 3597SOL    HW214160   6.495   1.072   0.000  0.4999  0.3911  2.0403
 3597SOL    HW314161   6.373   1.161   0.004  0.0498 -0.0356 -0.3848
 3597SOL    MW414162   6.412   1.086   0.023  0.0800  0.2240  0.6902
 3598SOL     OW14163   1.179   6.420   3.807  0.3762  0.7075  0.0269
 3598SOL    HW214164   1.246   6.401   3.873 -0.1305 -0.6300  0.1817
 3598SOL    HW314165   1.101   6.375   3.839 -0.6362  2.2629 -0.1280
 3598SOL    MW414166   1.178   6.412   3.820  0.1758  0.7363  0.0269
 3599SOL     OW14167   6.288   0.137   1.291 -0.0164 -0.2146  0.4661
 3599SOL    HW214168   6.334   0.179   1.363 -0.2659  2.9768 -1.0289
 3599SOL    HW314169   6.322   0.180   1.212 -4.6895  1.7998 -0.8216
 3599SOL    MW414170   6.298   0.148   1.290 -0.6659  0.4722  0.0989
 3600SOL     OW14171   5.254   1.980   0.025  0.0336 -0.2805 -0.1534
 3600SOL    HW214172   5.290   1.959  -0.061 -1.0749  1.9887 -1.2732
 3600SOL    HW314173   5.307   1.930   0.087  1.6479 -1.0513 -2.0575
 3600SOL    MW414174   5.265   1.970   0.022  0.1003 -0.0828 -0.5523
 3601SOL     OW14175   1.887   1.958   4.357 -0.0839  0.1389  0.2683
 3601SOL    HW214176   1.900   1.988   4.447 -0.5066  0.5991  0.1843
 3601SOL    HW314177   1.830   1.882   4.364  0.8301 -0.5457  0.4712
 3601SOL    MW414178   1.881   1.952   4.370 -0.0191  0.1093  0.2840
 3602SOL     OW14179   1.221   1.343   2.103 -0.1611  0.3272  0.1586
 3602SOL    HW214180   1.194   1.267   2.051  1.4167 -1.2153  1.4728
 3602SOL    HW314181   1.164   1.341   2.179  0.9492 -0.5884  1.0052
 3602SOL    MW414182   1.210   1.332   2.106  0.1936  0.0029  0.4437
 3603SOL     OW14183   0.712   2.492   6.091  0.4952 -0.1964 -0.2880
 3603SOL    HW214184   0.807   2.487   6.079  1.1506  2.7653  2.3168
 3603SOL    HW314185   0.693   2.427   6.158  0.4432 -1.5403 -1.5640
 3603SOL    MW414186   0.722   2.483   6.098  0.5748  0.0170 -0.1127
 3604SOL     OW14187   2.016   1.662   2.587  0.5176 -0.4940  0.8542
 3604SOL    HW214188   1.942   1.647   2.645  0.6882  0.1505  1.2566
 3604SOL    HW314189   1.977   1.678   2.501  0.1493  0.2757  1.1497
 3604SOL    MW414190   2.001   1.662   2.583  0.4915 -0.3074  0.9462
 3605SOL     OW14191   4.669   0.441   2.653  0.0276  0.7908 -0.3990
 3605SOL    HW214192   4.695   0.473   2.566  1.2633  0.1915 -0.2686
 3605SOL    HW314193   4.716   0.496   2.714 -1.2319  1.5400 -0.0726
 3605SOL    MW414194   4.678   0.452   2.649  0.0244  0.8106 -0.3387
 3606SOL     OW14195   0.844   4.323   2.162  1.0693  0.8289 -0.0861
 3606SOL    HW214196   0.769   4.377   2.139  0.4272  0.0891  0.2512
 3606SOL    HW314197   0.808   4.235   2.174  1.9976  0.4513  0.0088
 3606SOL    MW414198   0.830   4.319   2.160  1.1071  0.6815 -0.0291
 3607SOL     OW14199   1.283   2.552   6.023  0.6223 -0.3500  0.0488
 3607SOL    HW214200   1.271   2.645   6.043  1.3252 -0.4558  1.0814
 3607SOL    HW314201   1.304   2.549   5.930  0.2166  0.4826 -0.0752
 3607SOL    MW414202   1.284   2.564   6.014  0.6615 -0.2541  0.1687
 3608SOL     OW14203   5.679   3.447   3.895  0.3325 -0.0315 -0.0891
 3608SOL    HW214204   5.654   3.531   3.934 -0.8889  0.0672 -1.0403
 3608SOL    HW314205   5.731   3.470   3.818 -0.0648 -0.1466 -0.3923
 3608SOL    MW414206   5.683   3.461   3.890  0.1190 -0.0337 -0.2546
 3609SOL     OW14207   4.353   6.300   6.069  0.3299 -0.5736  0.0877
 3609SOL    HW214208   4.424   6.261   6.017 -0.9948 -1.4836 -1.1428
 3609SOL    HW314209   4.314   6.225   6.114 -1.2003 -0.4816 -0.9952
 3609SOL    MW414210   4.357   6.285   6.068 -0.0468 -0.6816 -0.2175
 3610SOL     OW14211   4.184   3.568   6.406 -0.0616  0.2466 -0.4241
 3610SOL    HW214212   4.168   3.484   6.363  0.0226  0.3229 -0.6074
 3610SOL    HW314213   4.107   3.620   6.385 -0.6541 -0.1705  0.6656
 3610SOL    MW414214   4.172   3.564   6.397 -0.1286  0.2016 -0.3045
 3611SOL     OW14215   6.311   5.831   2.702 -0.2488 -0.2159 -0.1142
 3611SOL    HW214216   6.230   5.795   2.668 -0.3143 -0.1781 -0.0010
 3611SOL    HW314217   6.291   5.853   2.793  0.1746 -1.1419  0.2168
 3611SOL    MW414218   6.298   5.829   2.710 -0.2016 -0.3331 -0.0556
 3612SOL     OW14219   1.292   3.571   2.092  0.0941 -0.0175 -0.1821
 3612SOL    HW214220   1.239   3.532   2.161 -1.5852  3.4767  0.7655
 3612SOL    HW314221   1.368   3.607   2.138 -1.2861  2.7842  0.1252
 3612SOL    MW414222   1.295   3.571   2.107 -0.3095  0.8131 -0.0165
 3613SOL     OW14223   1.057   2.674   5.073 -1.4072  0.1352 -0.6953
 3613SOL    HW214224   1.133   2.709   5.027  0.0979 -0.6959  1.0360
 3613SOL    HW314225   1.081   2.584   5.095 -2.4511  0.1902  0.8418
 3613SOL    MW414226   1.070   2.667   5.070 -1.3464  0.0328 -0.2641
 3614SOL     OW14227   3.247   1.944   5.113  0.5264 -0.0026 -0.5751
 3614SOL    HW214228   3.187   1.938   5.039  1.9031  2.1784 -1.9961
 3614SOL    HW314229   3.318   1.884   5.091  0.0773 -0.7164 -0.1086
 3614SOL    MW414230   3.248   1.935   5.101  0.6488  0.1910 -0.7010
 3615SOL     OW14231   0.521   4.797   2.736 -0.0499  0.1881  0.1803
 3615SOL    HW214232   0.616   4.791   2.743 -0.0124  0.6692  0.0738
 3615SOL    HW314233   0.492   4.706   2.733  0.5783 -0.0041 -2.0343
 3615SOL    MW414234   0.530   4.784   2.737  0.0379  0.2262 -0.1259
 3616SOL     OW14235   0.513   5.453   0.695 -0.4553  0.2539 -0.7279
 3616SOL    HW214236   0.487   5.387   0.759 -0.0674  0.2938 -0.5233
 3616SOL    HW314237   0.609   5.446   0.692 -0.4614  0.3508 -1.1956
 3616SOL    MW414238   0.522   5.444   0.703 -0.4049  0.2719 -0.7626
 3617SOL     OW14239   4.326   2.920   4.525  0.6782  0.1053 -0.4756
 3617SOL    HW214240   4.409   2.955   4.558  0.9325  0.0914 -1.0908
 3617SOL    HW314241   4.334   2.926   4.430  0.8232 -1.8557 -0.6164
 3617SOL    MW414242   4.338   2.925   4.517  0.7309 -0.1553 -0.5753
 3618SOL     OW14243   0.860   0.334   0.539 -0.0998 -0.1464  0.0898
 3618SOL    HW214244   0.822   0.258   0.581 -2.3668  2.1238  2.4346
 3618SOL    HW314245   0.810   0.345   0.458 -1.1947  0.0181  0.7757
 3618SOL    MW414246   0.849   0.325   0.534 -0.5434  0.1748  0.4897
 3619SOL     OW14247   0.184   0.511   4.252 -0.2734 -0.7146 -0.0476
 3619SOL    HW214248   0.169   0.418   4.232 -1.4808 -0.6789  0.6230
 3619SOL    HW314249   0.225   0.546   4.173  3.0693 -2.4369  0.7073
 3619SOL    MW414250   0.188   0.503   4.239  0.0083 -0.9371  0.1405
 3620SOL     OW14251   6.314   4.142   3.092 -0.6420 -0.4998  0.5525
 3620SOL    HW214252   6.327   4.109   3.181 -0.5779 -0.5438  0.5266
 3620SOL    HW314253   6.277   4.067   3.045  1.0190 -1.0498  0.0743
 3620SOL    MW414254   6.311   4.127   3.097 -0.4144 -0.5782  0.4860
 3621SOL     OW14255   6.170   0.865   1.765 -0.3923  0.8665  0.6214
 3621SOL    HW214256   6.261   0.836   1.755 -0.7310 -1.2046  2.6048
 3621SOL    HW314257   6.146   0.899   1.679  1.1959 -1.7599 -0.9944
 3621SOL    MW414258   6.179   0.865   1.753 -0.2274  0.2467  0.6699
 3622SOL     OW14259   5.074   1.547   3.593  0.2996 -0.0960 -0.4311
 3622SOL    HW214260   5.142   1.535   3.527  0.1712  0.4611 -0.6634
 3622SOL    HW314261   5.114   1.603   3.659  0.7636 -1.4197  0.4662
 3622SOL    MW414262   5.088   1.552   3.593  0.3439 -0.1972 -0.3434
 3623SOL     OW14263   3.719   0.826   4.555  0.3907 -0.4383 -0.2507
 3623SOL    HW214264   3.736   0.920   4.556  0.0366 -0.3595 -0.8918
 3623SOL    HW314265   3.799   0.786   4.589 -0.1588  0.1733  1.8728
 3623SOL    MW414266   3.732   0.833   4.560  0.2715 -0.3472 -0.0551
 3624SOL     OW14267   3.570   5.350   3.723  0.0352  0.2594  0.5174
 3624SOL    HW214268   3.503   5.379   3.784 -1.0783  0.7720 -0.8921
 3624SOL    HW314269   3.535   5.271   3.683  0.3368  0.4346 -0.1161
 3624SOL    MW414270   3.557   5.344   3.726 -0.0719  0.3502  0.2478
 3625SOL     OW14271   5.099   3.577   0.677  0.1371  0.2278 -0.2658
 3625SOL    HW214272   5.073   3.638   0.745 -1.0781  1.6029 -1.8721
 3625SOL    HW314273   5.074   3.491   0.711 -1.5417  0.9873  0.5371
 3625SOL    MW414274   5.092   3.573   0.690 -0.2447  0.5094 -0.3718
 3626SOL     OW14275   6.225   1.538   4.638  0.1517  0.3267 -0.0792
 3626SOL    HW214276   6.277   1.601   4.688 -0.4806 -0.1799  1.2828
 3626SOL    HW314277   6.251   1.452   4.674  1.4911 -0.3006 -2.3493
 3626SOL    MW414278   6.236   1.535   4.650  0.2450  0.1771 -0.1990
 3627SOL     OW14279   4.505   2.829   0.458 -0.0302 -0.1136  0.0669
 3627SOL    HW214280   4.519   2.818   0.364  0.1670  0.5764  0.0094
 3627SOL    HW314281   4.428   2.775   0.478  0.3816 -0.8696 -0.3395
 3627SOL    MW414282   4.497   2.820   0.449  0.0501 -0.1223  0.0057
 3628SOL     OW14283   4.697   3.618   3.803 -0.6140 -0.1259  0.1781
 3628SOL    HW214284   4.716   3.562   3.728 -1.6712  0.4332 -0.5391
 3628SOL    HW314285   4.762   3.688   3.798  0.6470 -1.1598  1.0189
 3628SOL    MW414286   4.708   3.620   3.793 -0.5871 -0.1885  0.1944
 3629SOL     OW14287   0.702   6.315   4.297  0.3126  0.3042 -0.0121
 3629SOL    HW214288   0.723   6.244   4.236  1.4856 -0.6417  1.4031
 3629SOL    HW314289   0.652   6.377   4.245  1.9144 -0.0586 -2.1635
 3629SOL    MW414290   0.698   6.314   4.282  0.6787  0.1315 -0.1092
 3630SOL     OW14291   6.316   4.601   5.921  0.2478  0.1496  0.0572
 3630SOL    HW214292   6.409   4.610   5.940  1.0038  0.6695 -3.3586
 3630SOL    HW314293   6.297   4.508   5.934  1.4463 -0.1154 -0.0169
 3630SOL    MW414294   6.326   4.590   5.926  0.5057  0.1832 -0.4032
 3631SOL     OW14295   3.623   5.083   1.626 -0.4848  0.0345 -0.1920
 3631SOL    HW214296   3.700   5.056   1.675 -1.4305  1.2142  2.0995
 3631SOL    HW314297   3.658   5.128   1.549  1.1186  0.0125  0.4956
 3631SOL    MW414298   3.637   5.086   1.622 -0.3980  0.1872  0.2010
 3632SOL     OW14299   1.746   1.218   6.026  0.0440 -0.2293 -0.1794
 3632SOL    HW214300   1.835   1.241   6.002  0.8570 -2.5030  0.3252
 3632SOL    HW314301   1.700   1.301   6.036  2.9279  1.2002  2.6377
 3632SOL    MW414302   1.751   1.232   6.024  0.5317 -0.3407  0.2588
 3633SOL     OW14303   4.223   0.829   1.380 -0.1585  0.2972 -0.0593
 3633SOL    HW214304   4.296   0.787   1.334  1.9146  1.9229  1.5193
 3633SOL    HW314305   4.231   0.922   1.358 -0.6919  0.7375  1.4451
 3633SOL    MW414306   4.234   0.836   1.371  0.0446  0.5698  0.3475
 3634SOL     OW14307   6.289   4.875   0.685  0.1046 -0.1346  0.1626
 3634SOL    HW214308   6.374   4.839   0.662 -0.2880 -0.8929 -0.1116
 3634SOL    HW314309   6.226   4.818   0.642 -0.5390  0.6965 -0.0322
 3634SOL    MW414310   6.292   4.863   0.676 -0.0321 -0.1250  0.1007
 3635SOL     OW14311   1.981   1.662   2.936  0.0036 -0.2624  0.5171
 3635SOL    HW214312   1.917   1.632   2.872 -0.4100  0.7603  0.4500
 3635SOL    HW314313   1.998   1.753   2.913  0.8284 -0.2675  1.0710
 3635SOL    MW414314   1.975   1.670   2.925  0.0578 -0.1281  0.5814
 3636SOL     OW14315   1.046   1.401   5.475 -1.0497  0.4839 -0.2950
 3636SOL    HW214316   1.061   1.307   5.463 -0.5584  0.5129  0.0639
 3636SOL    HW314317   1.084   1.442   5.398 -1.2728  0.3883 -0.4567
 3636SOL    MW414318   1.053   1.394   5.464 -1.0143  0.4751 -0.2690
 3637SOL     OW14319   3.233   1.349   3.011  0.0656 -0.0480  0.2234
 3637SOL    HW214320   3.288   1.427   3.001 -1.1634  1.0264  1.4855
 3637SOL    HW314321   3.200   1.331   2.923 -0.0980  1.2093  0.0132
 3637SOL    MW414322   3.236   1.357   2.998 -0.1182  0.2596  0.3622
 3638SOL     OW14323   1.216   4.389   1.035 -0.4638 -0.4135 -0.2853
 3638SOL    HW214324   1.261   4.469   1.008 -0.2705 -0.9048 -1.4765
 3638SOL    HW314325   1.130   4.394   0.993  0.1712 -1.6154 -1.7929
 3638SOL    MW414326   1.210   4.401   1.026 -0.3545 -0.6369 -0.6414
 3639SOL     OW14327   6.190   3.818   3.585 -0.1684 -0.2885 -0.4729
 3639SOL    HW214328   6.165   3.777   3.668 -1.8681 -1.5078 -1.5059
 3639SOL    HW314329   6.140   3.900   3.583 -2.6732 -1.7045 -1.5624
 3639SOL    MW414330   6.180   3.823   3.596 -0.7231 -0.6362 -0.7529
 3640SOL     OW14331   3.477   1.550   2.022 -0.5821 -0.2533 -0.4482
 3640SOL    HW214332   3.403   1.534   2.080  0.2186  1.7151  1.2086
 3640SOL    HW314333   3.547   1.581   2.079  1.2910 -1.2304 -2.0658
 3640SOL    MW414334   3.476   1.552   2.037 -0.2293 -0.1225 -0.4430
 3641SOL     OW14335   4.434   4.863   6.145  0.1340 -0.6383 -0.3480
 3641SOL    HW214336   4.392   4.809   6.212 -1.3465  1.7342  0.7696
 3641SOL    HW314337   4.527   4.842   6.153 -0.2316 -1.8831  1.0739
 3641SOL    MW414338   4.441   4.853   6.155 -0.1096 -0.4895 -0.0130
 3642SOL     OW14339   2.343   2.951   0.552  0.6201 -0.0166 -0.1853
 3642SOL    HW214340   2.401   2.990   0.486 -0.5898  2.6421  0.2074
 3642SOL    HW314341   2.255   2.965   0.516  0.0391 -0.1367  1.1677
 3642SOL    MW414342   2.339   2.958   0.538  0.3838  0.3184  0.0450
 3643SOL     OW14343   3.882   4.185   1.009 -0.0278 -0.4772  0.2182
 3643SOL    HW214344   3.801   4.236   1.017 -0.7877 -1.3272 -1.5281
 3643SOL    HW314345   3.948   4.238   1.053 -1.0050  1.4936 -0.5504
 3643SOL    MW414346   3.880   4.198   1.016 -0.2570 -0.3293 -0.1136
 3644SOL     OW14347   5.932   0.686   5.048 -0.0759  0.1549  0.1178
 3644SOL    HW214348   5.990   0.686   4.972  0.7289  1.4134  0.6921
 3644SOL    HW314349   5.845   0.670   5.012  0.2638  0.8856 -1.0930
 3644SOL    MW414350   5.928   0.683   5.033  0.0751  0.4173  0.0338
 3645SOL     OW14351   1.081   4.785   6.027  0.1893 -0.4378 -0.0901
 3645SOL    HW214352   0.987   4.805   6.031  0.3263 -0.0243  1.8042
 3645SOL    HW314353   1.093   4.712   6.087  1.0436 -0.6939 -0.5515
 3645SOL    MW414354   1.070   4.778   6.035  0.3201 -0.4170  0.0989
 3646SOL     OW14355   0.807   3.787   2.142 -0.2741  0.5661 -0.3231
 3646SOL    HW214356   0.845   3.813   2.226 -1.3561  0.5484  0.1848
 3646SOL    HW314357   0.866   3.718   2.110 -0.0750  0.2706  0.6234
 3646SOL    MW414358   0.820   3.781   2.149 -0.3906  0.5248 -0.1312
 3647SOL     OW14359   6.112   4.319   5.712  0.6717 -0.3103  0.0530
 3647SOL    HW214360   6.086   4.235   5.749 -0.8803  0.1813  0.1779
 3647SOL    HW314361   6.136   4.299   5.621  0.1271 -0.8602  0.0260
 3647SOL    MW414362   6.112   4.305   5.705  0.3951 -0.3180  0.0659
 3648SOL     OW14363   0.111   5.594   3.802 -0.4954  0.5295  0.0172
 3648SOL    HW214364   0.139   5.655   3.734 -0.1423 -0.1215 -0.4329
 3648SOL    HW314365   0.037   5.547   3.764  0.6669 -0.9469 -0.5702
 3648SOL    MW414366   0.105   5.596   3.788 -0.2955  0.2488 -0.1197
 3649SOL     OW14367   1.321   4.817   6.371  0.4919 -0.3973 -0.1735
 3649SOL    HW214368   1.297   4.874   6.444  2.0987  2.5212 -1.7226
 3649SOL    HW314369   1.351   4.736   6.412  0.4012  0.7552  2.3386
 3649SOL    MW414370   1.322   4.814   6.386  0.6920  0.1398 -0.0464
 3650SOL     OW14371   4.074   5.524   0.275 -0.5618  0.3567  0.1079
 3650SOL    HW214372   4.043   5.484   0.193  0.1925  1.7578 -0.9087
 3650SOL    HW314373   4.139   5.463   0.308 -2.8364 -1.6535  1.2260
 3650SOL    MW414374   4.078   5.511   0.268 -0.7624  0.2763  0.1213
 3651SOL     OW14375   5.771   2.405   1.100  0.2555  0.2239  0.3199
 3651SOL    HW214376   5.848   2.445   1.142 -0.7523  2.9528 -0.2548
 3651SOL    HW314377   5.739   2.342   1.165  1.9417  0.2687  1.2747
 3651SOL    MW414378   5.777   2.402   1.114  0.3450  0.5899  0.3701
 3652SOL     OW14379   5.951   1.626   3.822  0.3969  0.0789 -0.7289
 3652SOL    HW214380   5.904   1.568   3.762 -0.1895  1.1288 -1.3077
 3652SOL    HW314381   5.936   1.714   3.788 -0.7431  0.8207  1.4803
 3652SOL    MW414382   5.943   1.630   3.810  0.1691  0.3153 -0.5138
 3653SOL     OW14383   4.401   2.218   4.046  0.3630  0.4601 -0.5856
 3653SOL    HW214384   4.326   2.277   4.036  0.5605  0.3538 -3.3244
 3653SOL    HW314385   4.459   2.264   4.107 -0.6448  1.8917 -0.6485
 3653SOL    MW414386   4.399   2.232   4.053  0.2561  0.6350 -0.9552
 3654SOL     OW14387   3.859   5.758   2.877  0.3114  0.3835  0.0653
 3654SOL    HW214388   3.939   5.710   2.896  0.3294 -0.0251 -0.9666
 3654SOL    HW314389   3.861   5.833   2.936  0.8200 -0.2937  0.9375
 3654SOL    MW414390   3.870   5.761   2.887  0.3809  0.2403  0.0442
 3655SOL     OW14391   0.718   4.782   3.835 -0.2699 -0.1976 -0.3785
 3655SOL    HW214392   0.741   4.829   3.755  2.6216  1.5425  1.2790
 3655SOL    HW314393   0.709   4.850   3.901  0.1168 -1.6980  1.3194
 3655SOL    MW414394   0.720   4.797   3.833  0.1626 -0.1659  0.0642
 3656SOL     OW14395   5.216   2.799   1.703  0.1363 -0.3310  0.2159
 3656SOL    HW214396   5.301   2.826   1.667  0.7995 -1.9789  0.4492
 3656SOL    HW314397   5.208   2.847   1.785 -0.0496  1.2487 -0.6685
 3656SOL    MW414398   5.227   2.809   1.709  0.1993 -0.3400  0.1300
 3657SOL     OW14399   1.488   3.652   0.528 -0.1246  0.2807  0.2514
 3657SOL    HW214400   1.484   3.666   0.623 -0.8146  1.1037  0.1156
 3657SOL    HW314401   1.465   3.737   0.491 -1.2134 -0.3717 -0.6510
 3657SOL    MW414402   1.484   3.665   0.536 -0.3593  0.3032  0.1144
 3658SOL     OW14403   1.717   6.177   1.750 -0.2786 -0.5588  0.3137
 3658SOL    HW214404   1.700   6.084   1.743 -0.3894 -0.5339  0.2532
 3658SOL    HW314405   1.755   6.188   1.838  2.7978 -1.1266 -0.8296
 3658SOL    MW414406   1.720   6.166   1.761  0.1126 -0.6304  0.1549
 3659SOL     OW14407   2.044   2.362   6.191  0.8553  0.5628 -0.4202
 3659SOL    HW214408   2.040   2.270   6.218 -1.3830  0.4930 -0.7467
 3659SOL    HW314409   2.070   2.359   6.099  0.4327  0.2107 -0.5328
 3659SOL    MW414410   2.047   2.349   6.183  0.5042  0.5071 -0.4781
 3660SOL     OW14411   6.299   0.867   1.405  0.2835 -0.4015 -0.0060
 3660SOL    HW214412   6.288   0.959   1.427  0.0146 -0.2981 -0.5443
 3660SOL    HW314413   6.341   0.828   1.482  1.6236  0.4391 -0.2941
 3660SOL    MW414414   6.303   0.874   1.418  0.4248 -0.2770 -0.1151
 3661SOL     OW14415   5.239   0.875   3.907 -0.2563  0.4543  0.1232
 3661SOL    HW214416   5.300   0.805   3.932 -0.8085 -0.1111 -0.1066
 3661SOL    HW314417   5.168   0.869   3.971  0.2762  1.6162  0.8769
 3661SOL    MW414418   5.238   0.865   3.919 -0.2589  0.5330  0.1923
 3662SOL     OW14419   5.413   1.883   1.646  0.4292  0.1174 -0.2392
 3662SOL    HW214420   5.451   1.811   1.595  2.0558  0.4882  0.3934
 3662SOL    HW314421   5.362   1.933   1.583  1.9401  0.2506 -1.3943
 3662SOL    MW414422   5.411   1.880   1.631  0.8432  0.1839 -0.3081
 3663SOL     OW14423   4.861   5.275   2.441  0.1563  0.0985 -0.6119
 3663SOL    HW214424   4.916   5.213   2.393  2.0628  1.1415  0.1397
 3663SOL    HW314425   4.903   5.284   2.526 -1.7458  0.2197  0.3714
 3663SOL    MW414426   4.874   5.268   2.446  0.1568  0.2521 -0.3830
 3664SOL     OW14427   0.148   1.861   2.459 -0.5157  0.2551 -0.1743
 3664SOL    HW214428   0.107   1.871   2.373  0.2248  1.3943 -0.4280
 3664SOL    HW314429   0.095   1.795   2.503 -0.5452 -0.8229 -1.7207
 3664SOL    MW414430   0.136   1.854   2.453 -0.4219  0.2632 -0.4118
 3665SOL     OW14431   2.579   2.064   2.775 -0.2071  0.0893  0.2158
 3665SOL    HW214432   2.597   1.972   2.793 -0.9094 -0.2167 -0.5701
 3665SOL    HW314433   2.546   2.065   2.685 -0.9356  1.0076  0.4694
 3665SOL    MW414434   2.577   2.052   2.765 -0.3959  0.1701  0.1456
 3666SOL     OW14435   2.224   0.920   6.293  0.3308 -0.4575 -0.3313
 3666SOL    HW214436   2.294   0.916   6.228  1.5405  1.4032  0.7412
 3666SOL    HW314437   2.149   0.957   6.246  0.9143  0.0307 -0.9007
 3666SOL    MW414438   2.223   0.925   6.278  0.5674 -0.1476 -0.2649
 3667SOL     OW14439   2.034   3.860   0.010  0.3842  0.3635 -0.0520
 3667SOL    HW214440   1.990   3.903   0.083 -0.0784 -0.5833  0.2426
 3667SOL    HW314441   1.990   3.894  -0.068  1.2647  1.8193  0.0434
 3667SOL    MW414442   2.023   3.870   0.009  0.4393  0.4307 -0.0005
 3668SOL     OW14443   6.375   4.550   0.917  0.3558  0.1687 -0.3930
 3668SOL    HW214444   6.471   4.541   0.918  0.3458  0.0687 -0.0796
 3668SOL    HW314445   6.343   4.461   0.901  0.2417 -0.6512  3.3869
 3668SOL    MW414446   6.384   4.537   0.915  0.3394  0.0473  0.1471
 3669SOL     OW14447   3.899   1.066   1.117 -0.1736  0.3331 -0.7829
 3669SOL    HW214448   3.815   1.093   1.078 -0.6762 -0.2436 -0.1369
 3669SOL    HW314449   3.899   0.971   1.109  0.1702  0.2877 -0.2967
 3669SOL    MW414450   3.888   1.057   1.111 -0.1946  0.2510 -0.6335
 3670SOL     OW14451   3.017   2.368   3.813 -0.1494  0.2873  0.4516
 3670SOL    HW214452   2.927   2.339   3.798 -1.2122  3.0787  0.8052
 3670SOL    HW314453   3.038   2.422   3.737  0.5421  1.1587  1.2362
 3670SOL    MW414454   3.008   2.371   3.801 -0.1984  0.7706  0.6018
 3671SOL     OW14455   6.116   0.359   0.446  0.0246  0.0372  0.0180
 3671SOL    HW214456   6.102   0.275   0.489 -0.6785 -0.0756 -0.4079
 3671SOL    HW314457   6.138   0.419   0.517 -0.1188 -0.3676  0.4076
 3671SOL    MW414458   6.117   0.356   0.461 -0.0871 -0.0311  0.0132
 3672SOL     OW14459   1.016   5.477   5.218 -0.3396 -0.1019 -0.2110
 3672SOL    HW214460   1.071   5.492   5.294 -0.1164  1.1158 -0.5791
 3672SOL    HW314461   0.978   5.390   5.231 -1.8002  0.8031  2.2331
 3672SOL    MW414462   1.018   5.468   5.230 -0.5029  0.1781  0.0629
 3673SOL     OW14463   1.120   4.335   0.177  0.9238 -0.2002  0.7928
 3673SOL    HW214464   1.125   4.430   0.175  0.5653 -0.1837  0.2575
 3673SOL    HW314465   1.030   4.315   0.150  1.1818 -0.7017  0.2691
 3673SOL    MW414466   1.108   4.345   0.173  0.9106 -0.2642  0.6530
 3674SOL     OW14467   5.302   3.472   5.032 -0.4037 -0.4086 -0.1280
 3674SOL    HW214468   5.347   3.412   5.091 -0.0449 -0.8191 -0.8046
 3674SOL    HW314469   5.218   3.489   5.074 -0.6973 -1.7429 -0.1357
 3674SOL    MW414470   5.297   3.467   5.045 -0.3951 -0.6388 -0.2183
 3675SOL     OW14471   6.123   0.828   0.951  0.6092 -0.1229 -0.2696
 3675SOL    HW214472   6.091   0.851   0.864 -0.5340 -1.2460 -0.1778
 3675SOL    HW314473   6.095   0.901   1.007 -1.2282 -0.7135 -0.3358
 3675SOL    MW414474   6.115   0.841   0.947  0.2160 -0.3490 -0.2662
 3676SOL     OW14475   0.187   0.601   0.922 -0.0027 -0.0139  0.5321
 3676SOL    HW214476   0.097   0.599   0.954  0.1389  0.0516  0.9468
 3676SOL    HW314477   0.234   0.539   0.978  0.3763  0.5523  0.8489
 3676SOL    MW414478   0.182   0.592   0.934  0.0660  0.0695  0.6286
 3677SOL     OW14479   3.183   5.138   3.615  0.0713 -0.1258  0.7830
 3677SOL    HW214480   3.134   5.109   3.537 -1.3563  0.6424  1.3582
 3677SOL    HW314481   3.171   5.233   3.617 -1.2953 -0.2822  2.7891
 3677SOL    MW414482   3.175   5.146   3.605 -0.2974 -0.0451  1.1236
 3678SOL     OW14483   1.508   3.551   5.424  0.4320 -0.0847 -0.0591
 3678SOL    HW214484   1.499   3.511   5.510 -0.0304  0.7506  0.2861
 3678SOL    HW314485   1.440   3.510   5.371  0.1600  0.0233  0.2075
 3678SOL    MW414486   1.498   3.540   5.428  0.3351  0.0398  0.0216
 3679SOL     OW14487   5.085   3.556   4.751  0.5915  0.4330 -0.2558
 3679SOL    HW214488   5.168   3.510   4.744  0.2098 -0.4491  0.7817
 3679SOL    HW314489   5.100   3.624   4.817  0.6906  0.7630 -0.6123
 3679SOL    MW414490   5.098   3.559   4.759  0.5542  0.3601 -0.1659
 3680SOL     OW14491   2.893   5.880   5.888 -0.2784  0.3949  0.0690
 3680SOL    HW214492   2.836   5.887   5.811 -0.5636  1.1262  0.3380
 3680SOL    HW314493   2.843   5.825   5.949  0.1554 -0.5897 -0.4405
 3680SOL    MW414494   2.879   5.874   5.886 -0.2588  0.3615  0.0373
 3681SOL     OW14495   4.906   5.293   0.180  0.0218 -0.3777 -0.3857
 3681SOL    HW214496   4.917   5.204   0.147 -1.5102 -0.6957 -0.1285
 3681SOL    HW314497   4.993   5.318   0.211  1.1285 -0.7098 -2.9836
 3681SOL    MW414498   4.919   5.284   0.180 -0.0343 -0.4635 -0.6945
 3682SOL     OW14499   5.807   0.059   0.464  0.0477  0.3879 -0.3103
 3682SOL    HW214500   5.801  -0.023   0.513  0.2334 -1.0213 -2.5214
 3682SOL    HW314501   5.885   0.102   0.499  1.7526 -1.8380 -1.1015
 3682SOL    MW414502   5.817   0.054   0.475  0.2971 -0.0917 -0.7064
 3683SOL     OW14503   0.634   0.583   3.191 -0.5164  0.5881  0.1119
 3683SOL    HW214504   0.592   0.624   3.116 -0.3454 -0.0927 -0.3664
 3683SOL    HW314505   0.591   0.498   3.199  0.4798  0.0543 -0.1257
 3683SOL    MW414506   0.622   0.577   3.183 -0.3624  0.4279  0.0175
 3684SOL     OW14507   0.719   1.572   6.124  0.4076 -0.4492  0.9120
 3684SOL    HW214508   0.715   1.478   6.107 -1.0242 -0.6701  2.2440
 3684SOL    HW314509   0.758   1.580   6.212 -0.5427  0.1056  1.3079
 3684SOL    MW414510   0.724   1.561   6.134  0.0933 -0.4052  1.1400
 3685SOL     OW14511   6.413   3.462   3.153 -0.1363 -0.5079 -0.2959
 3685SOL    HW214512   6.456   3.404   3.216 -0.5307 -0.4787  0.0111
 3685SOL    HW314513   6.381   3.403   3.084  0.6033 -0.5001 -0.6531
 3685SOL    MW414514   6.414   3.446   3.152 -0.0908 -0.5030 -0.3025
 3686SOL     OW14515   6.360   0.652   5.135  0.0555 -0.5165 -0.0508
 3686SOL    HW214516   6.430   0.596   5.101 -0.8693 -0.9532 -1.3180
 3686SOL    HW314517   6.359   0.727   5.076 -0.8343 -0.7394 -0.3331
 3686SOL    MW414518   6.369   0.654   5.123 -0.1839 -0.6035 -0.2553
 3687SOL     OW14519   2.616   0.160   5.155  0.4446 -0.0563  0.7763
 3687SOL    HW214520   2.636   0.226   5.088  1.6655  1.9576  2.9593
 3687SOL    HW314521   2.546   0.199   5.207 -0.2523 -1.4311  0.9274
 3687SOL    MW414522   2.610   0.174   5.153  0.5137  0.0280  1.0843
 3688SOL     OW14523   4.850   3.512   2.368  0.5004  0.4848  0.3359
 3688SOL    HW214524   4.854   3.450   2.441  0.6590  0.2797  0.1521
 3688SOL    HW314525   4.758   3.511   2.342  0.6195 -0.1689 -0.0908
 3688SOL    MW414526   4.838   3.504   2.375  0.5370  0.3715  0.2554
 3689SOL     OW14527   1.149   3.344   3.425  0.2157  0.0630 -0.4738
 3689SOL    HW214528   1.081   3.277   3.417 -0.3613  0.7305 -1.5594
 3689SOL    HW314529   1.100   3.426   3.431  0.8989  0.3666  1.2712
 3689SOL    MW414530   1.133   3.346   3.424  0.2297  0.1911 -0.3868
 3690SOL     OW14531   1.561   6.336   5.368 -0.0536 -0.3847  0.3352
 3690SOL    HW214532   1.543   6.284   5.289 -0.1481 -1.3976  1.0097
 3690SOL    HW314533   1.648   6.309   5.395 -0.2788 -0.5136  0.9393
 3690SOL    MW414534   1.570   6.326   5.361 -0.0958 -0.5354  0.5039
 3691SOL     OW14535   4.140   4.646   3.625  0.3214 -0.5410  0.9078
 3691SOL    HW214536   4.218   4.701   3.632  0.5643 -0.2651 -2.3097
 3691SOL    HW314537   4.175   4.557   3.613  0.1619 -0.4520 -0.2854
 3691SOL    MW414538   4.155   4.641   3.624  0.3324 -0.4929  0.3258
 3692SOL     OW14539   3.531   0.115   4.306 -0.0359  0.5880 -0.2163
 3692SOL    HW214540   3.578   0.053   4.251 -1.1458 -1.1826  0.7434
 3692SOL    HW314541   3.492   0.177   4.244 -0.6940 -0.9541 -1.4148
 3692SOL    MW414542   3.532   0.115   4.290 -0.2691  0.1509 -0.2478
 3693SOL     OW14543   6.277   2.134   1.269 -0.5814 -0.4865  0.3800
 3693SOL    HW214544   6.243   2.049   1.241 -2.2766  0.0693  0.6596
 3693SOL    HW314545   6.321   2.169   1.192 -0.5091 -1.3045  0.0442
 3693SOL    MW414546   6.278   2.127   1.256 -0.7955 -0.5211  0.3726
 3694SOL     OW14547   3.995   1.798   2.108  0.2321 -0.2891 -0.4542
 3694SOL    HW214548   4.000   1.740   2.183 -1.0010  0.1265 -0.0182
 3694SOL    HW314549   4.079   1.787   2.063  0.6202 -1.2385  0.4566
 3694SOL    MW414550   4.006   1.789   2.112  0.1206 -0.3595 -0.2765
 3695SOL     OW14551   5.977   0.820   5.873  0.0170  0.0773  0.1982
 3695SOL    HW214552   6.069   0.810   5.898 -0.2194  1.7534  2.0435
 3695SOL    HW314553   5.944   0.890   5.931 -2.1107  0.3462 -1.2182
 3695SOL    MW414554   5.985   0.828   5.884 -0.2949  0.3339  0.2548
 3696SOL     OW14555   0.284   3.868   3.234 -0.1153  0.5018  0.4261
 3696SOL    HW214556   0.335   3.944   3.263  0.2931  0.0974  0.7652
 3696SOL    HW314557   0.315   3.850   3.146  1.3525 -0.6216  1.1440
 3696SOL    MW414558   0.295   3.876   3.226  0.1322  0.3003  0.5656
 3697SOL     OW14559   3.894   2.717   1.720  0.2245 -0.4045  0.1618
 3697SOL    HW214560   3.862   2.782   1.783 -0.3143 -0.9164  0.4286
 3697SOL    HW314561   3.975   2.683   1.759  0.4450  0.0263  0.0769
 3697SOL    MW414562   3.900   2.721   1.734  0.1825 -0.4152  0.1858
 3698SOL     OW14563   0.094   3.644   5.167 -0.0765  0.1002 -0.5264
 3698SOL    HW214564   0.095   3.581   5.239 -1.8980 -0.0640 -0.6189
 3698SOL    HW314565   0.023   3.616   5.111 -0.2264  1.6154 -1.1474
 3698SOL    MW414566   0.085   3.632   5.169 -0.3366  0.2784 -0.6206
 3699SOL     OW14567   6.057   5.012   5.245  0.3147  0.5648  0.4484
 3699SOL    HW214568   6.031   4.920   5.235  0.8737  0.4843 -0.3337
 3699SOL    HW314569   6.035   5.033   5.335 -0.0378 -0.2710  0.5679
 3699SOL    MW414570   6.051   5.003   5.255  0.3419  0.4439  0.3610
 3700SOL     OW14571   2.771   5.546   5.876 -0.4118 -0.3748  0.5552
 3700SOL    HW214572   2.774   5.490   5.799  1.2866  1.4079 -0.7667
 3700SOL    HW314573   2.678   5.553   5.896 -0.7102 -3.6811  0.8923
 3700SOL    MW414574   2.759   5.539   5.869 -0.2271 -0.5758  0.4253
 3701SOL     OW14575   3.035   0.760   0.279 -0.1773 -0.4003  0.0390
 3701SOL    HW214576   3.075   0.676   0.260  0.3580 -0.4296  1.2182
 3701SOL    HW314577   2.944   0.751   0.249  0.3686 -0.7132 -1.6116
 3701SOL    MW414578   3.028   0.748   0.273 -0.0346 -0.4455 -0.0232
 3702SOL     OW14579   6.285   6.107   5.022  0.1923  0.7841 -0.3259
 3702SOL    HW214580   6.299   6.036   5.085 -1.6660  0.3981 -0.2938
 3702SOL    HW314581   6.368   6.155   5.022  0.9592 -0.4421  0.8297
 3702SOL    MW414582   6.298   6.104   5.030  0.0483  0.5714 -0.1692
 3703SOL     OW14583   0.017   5.001   3.848  0.5225  0.2386 -0.1710
 3703SOL    HW214584  -0.038   4.936   3.804  1.0806  0.3512 -1.0488
 3703SOL    HW314585  -0.044   5.050   3.904 -0.0327 -0.5171 -0.1007
 3703SOL    MW414586   0.002   4.999   3.850  0.5228  0.1538 -0.2775
 3704SOL     OW14587   1.873   3.642   4.922 -0.0558 -0.3981  0.4810
 3704SOL    HW214588   1.882   3.547   4.918 -2.4476 -0.6668  0.2703
 3704SOL    HW314589   1.872   3.670   4.830  0.6152 -0.1557  0.5414
 3704SOL    MW414590   1.874   3.633   4.909 -0.2828 -0.4016  0.4612
 3705SOL     OW14591   1.448   2.719   6.267 -0.6689  0.0877 -0.4757
 3705SOL    HW214592   1.483   2.766   6.192  0.0514 -0.6887 -0.6336
 3705SOL    HW314593   1.518   2.723   6.333 -0.8089 -0.3050 -0.3010
 3705SOL    MW414594   1.462   2.726   6.266 -0.5924 -0.0666 -0.4735
 3706SOL     OW14595   3.281   5.807   5.037  0.3363 -0.0671  0.5156
 3706SOL    HW214596   3.360   5.781   4.991  0.4961  0.6446  0.3681
 3706SOL    HW314597   3.312   5.842   5.120  0.3740  2.0388 -0.3216
 3706SOL    MW414598   3.295   5.808   5.042  0.3623  0.3047  0.3857
 3707SOL     OW14599   6.083   0.750   0.275 -0.0636  0.2051  0.0936
 3707SOL    HW214600   6.134   0.670   0.259 -0.9094 -0.2407 -0.4866
 3707SOL    HW314601   6.102   0.806   0.200 -1.8316 -0.7301 -1.1358
 3707SOL    MW414602   6.092   0.747   0.263 -0.4085  0.0229 -0.1451
 3708SOL     OW14603   2.917   3.518   2.660  0.0361  0.2065  0.0280
 3708SOL    HW214604   2.828   3.491   2.684 -0.7727  1.3978 -1.4738
 3708SOL    HW314605   2.972   3.444   2.687 -1.2602 -0.2005  1.7919
 3708SOL    MW414606   2.912   3.505   2.667 -0.2417  0.3100  0.0625
 3709SOL     OW14607   3.494   6.227   5.750 -0.7314  0.1654  0.4004
 3709SOL    HW214608   3.545   6.155   5.788 -0.8938 -0.3415 -0.3083
 3709SOL    HW314609   3.560   6.287   5.715 -0.5901  0.4941  1.2225
 3709SOL    MW414610   3.509   6.225   5.750 -0.7342  0.1419  0.4154
 3710SOL     OW14611   5.389   3.914   1.982  0.0251 -0.1358  0.4608
 3710SOL    HW214612   5.461   3.967   2.017  0.2114  0.1177 -0.2719
 3710SOL    HW314613   5.310   3.956   2.015  0.1283  1.2809 -0.9506
 3710SOL    MW414614   5.388   3.927   1.991  0.0633  0.0846  0.1779
 3711SOL     OW14615   0.178   0.460   6.414  0.0476 -0.3089  0.5670
 3711SOL    HW214616   0.259   0.420   6.382  0.2599 -0.5518  1.3929
 3711SOL    HW314617   0.119   0.386   6.427 -0.4642 -0.0899 -0.4594
 3711SOL    MW414618   0.181   0.445   6.411  0.0080 -0.3120  0.5405
 3712SOL     OW14619   4.342   5.029   5.935  0.4514  0.0687  0.1184
 3712SOL    HW214620   4.419   5.010   5.881  0.2201 -0.4349 -0.0354
 3712SOL    HW314621   4.358   4.982   6.016  0.9396  1.0616  0.6280
 3712SOL    MW414622   4.354   5.021   5.938  0.4853  0.1332  0.1653
 3713SOL     OW14623   5.955   2.610   6.059  0.3915 -0.0136  0.1094
 3713SOL    HW214624   5.885   2.580   6.000 -0.6191  0.7960  0.8742
 3713SOL    HW314625   5.979   2.697   6.026  1.3371 -0.4475 -0.3897
 3713SOL    MW414626   5.949   2.617   6.047  0.3829  0.0359  0.1444
 3714SOL     OW14627   4.203   1.763   3.904  0.2010  0.0193  0.1279
 3714SOL    HW214628   4.272   1.790   3.843 -0.1140 -0.0691 -0.2742
 3714SOL    HW314629   4.227   1.802   3.987 -0.0685  1.2563 -0.3586
 3714SOL    MW414630   4.215   1.772   3.907  0.1239  0.1709  0.0106
 3715SOL     OW14631   0.467   1.952   2.576  0.0966 -0.4483  0.3873
 3715SOL    HW214632   0.478   1.871   2.625 -2.1208 -1.5659 -0.8154
 3715SOL    HW314633   0.402   2.002   2.626  1.6686  0.8033  1.2897
 3715SOL    MW414634   0.460   1.948   2.589  0.0115 -0.4306  0.3477
 3716SOL     OW14635   6.072   0.308   2.017 -0.5429 -0.1293  0.3852
 3716SOL    HW214636   6.010   0.270   2.078 -1.3884  2.5734  1.3632
 3716SOL    HW314637   6.147   0.332   2.072  0.2097 -0.8502 -0.3021
 3716SOL    MW414638   6.074   0.306   2.032 -0.5552  0.1322  0.4236
 3717SOL     OW14639   1.295   4.950   4.599  0.0532 -0.5981  0.0074
 3717SOL    HW214640   1.347   4.932   4.678 -0.5992 -2.2239  0.0941
 3717SOL    HW314641   1.345   5.018   4.554  1.3612 -0.8844  0.9398
 3717SOL    MW414642   1.309   4.957   4.604  0.1397 -0.8504  0.1419
 3718SOL     OW14643   1.871   5.644   6.239 -0.3488 -0.0078  0.1449
 3718SOL    HW214644   1.914   5.714   6.289  1.0858  0.2493 -1.3614
 3718SOL    HW314645   1.783   5.676   6.223 -0.9561 -0.2053  2.6689
 3718SOL    MW414646   1.865   5.657   6.243 -0.2396  0.0001  0.2792
 3719SOL     OW14647   5.466   5.669   4.158 -0.2211 -0.2337  0.2128
 3719SOL    HW214648   5.485   5.577   4.177  0.1003 -0.6637 -1.9375
 3719SOL    HW314649   5.540   5.717   4.197  0.5734 -1.0631 -0.2345
 3719SOL    MW414650   5.479   5.663   4.166 -0.0739 -0.3999 -0.1299
 3720SOL     OW14651   3.670   4.999   3.178  0.1662 -0.3275  0.9543
 3720SOL    HW214652   3.717   4.997   3.095  0.3192 -1.4093  1.0435
 3720SOL    HW314653   3.645   4.908   3.193 -4.2198  0.4839 -0.3185
 3720SOL    MW414654   3.673   4.987   3.169 -0.3923 -0.3632  0.7981
 3721SOL     OW14655   2.993   4.201   5.985  0.8044  0.4254 -0.2588
 3721SOL    HW214656   2.908   4.193   6.028  1.4523  0.3617  1.0464
 3721SOL    HW314657   2.972   4.197   5.891 -0.6037  0.2274  0.0339
 3721SOL    MW414658   2.979   4.200   5.978  0.7041  0.3909 -0.0480
 3722SOL     OW14659   0.561   0.987   5.729 -0.3066 -0.0206  0.3241
 3722SOL    HW214660   0.621   0.972   5.657 -0.9817  1.4153 -0.5787
 3722SOL    HW314661   0.611   0.963   5.807  0.5509 -1.2633 -0.5687
 3722SOL    MW414662   0.576   0.982   5.730 -0.2825  0.0049  0.0872
 3723SOL     OW14663   6.415   3.099   0.122 -0.2282  0.2924 -0.4209
 3723SOL    HW214664   6.351   3.054   0.177 -2.3376  0.5290 -2.5632
 3723SOL    HW314665   6.427   3.041   0.047 -0.1663  1.5924 -1.4445
 3723SOL    MW414666   6.408   3.085   0.119 -0.4983  0.4952 -0.8386
 3724SOL     OW14667   3.434   1.352   3.362  0.2303  0.2824 -0.0619
 3724SOL    HW214668   3.483   1.298   3.423 -0.0997  0.8786  0.7551
 3724SOL    HW314669   3.443   1.308   3.278  1.5962  0.0225  0.1985
 3724SOL    MW414670   3.442   1.339   3.359  0.3669  0.3268  0.0803
 3725SOL     OW14671   1.988   5.138   0.922 -0.7900 -0.4255  0.3221
 3725SOL    HW214672   2.052   5.189   0.972 -1.5565  3.5282 -2.2500
 3725SOL    HW314673   2.040   5.069   0.881  1.4545  1.2057  0.1681
 3725SOL    MW414674   2.004   5.136   0.923 -0.5950  0.3114 -0.0376
 3726SOL     OW14675   4.974   4.878   2.855  0.3087  0.5701  0.3142
 3726SOL    HW214676   4.943   4.962   2.888  0.0703  0.9646 -0.8637
 3726SOL    HW314677   5.037   4.901   2.787  1.0568 -0.2221  0.7213
 3726SOL    MW414678   4.978   4.892   2.851  0.3759  0.5176  0.2125
 3727SOL     OW14679   2.880   4.167   2.473 -0.1859  0.2360  0.0476
 3727SOL    HW214680   2.875   4.078   2.510 -0.6810 -0.3385 -1.3246
 3727SOL    HW314681   2.959   4.166   2.420 -0.2901  0.5681 -0.1111
 3727SOL    MW414682   2.889   4.155   2.471 -0.2649  0.2040 -0.1544
 3728SOL     OW14683   5.168   1.482   2.788 -0.5015  0.0530  0.2459
 3728SOL    HW214684   5.202   1.407   2.838  0.0434  1.5263  2.2073
 3728SOL    HW314685   5.243   1.513   2.737 -0.6359 -0.5085 -0.3019
 3728SOL    MW414686   5.183   1.476   2.788 -0.4473  0.1733  0.4324
 3729SOL     OW14687   0.936   4.200   6.070 -0.5216  0.5406  0.0362
 3729SOL    HW214688   1.026   4.216   6.098 -0.6491 -0.0040  0.7693
 3729SOL    HW314689   0.944   4.145   5.992 -0.2544 -1.1376  1.2072
 3729SOL    MW414690   0.949   4.195   6.063 -0.5031  0.2473  0.2874
 3730SOL     OW14691   1.734   1.697   3.592  0.2606  0.0443  0.1064
 3730SOL    HW214692   1.648   1.658   3.576 -0.1934  0.5192  1.2837
 3730SOL    HW314693   1.751   1.750   3.515 -0.6249  0.1512 -0.0271
 3730SOL    MW414694   1.725   1.699   3.580  0.0839  0.1211  0.2442
 3731SOL     OW14695   2.620   6.358   0.314  0.3771  0.0173 -0.3844
 3731SOL    HW214696   2.651   6.282   0.363 -0.5280  0.0132  0.2018
 3731SOL    HW314697   2.695   6.418   0.312  0.5266 -0.1042  0.7675
 3731SOL    MW414698   2.634   6.356   0.320  0.2774  0.0007 -0.1551
 3732SOL     OW14699   1.121   0.496   4.440 -0.7290  0.1868  0.3022
 3732SOL    HW214700   1.132   0.557   4.367 -1.1482 -0.1188 -0.0180
 3732SOL    HW314701   1.067   0.425   4.405  0.4035 -0.7765  0.4304
 3732SOL    MW414702   1.116   0.495   4.426 -0.6349  0.0194  0.2769
 3733SOL     OW14703   4.221   1.247   3.567  0.0737  0.4395  0.3404
 3733SOL    HW214704   4.199   1.284   3.481 -2.5068 -1.2327  0.1869
 3733SOL    HW314705   4.306   1.205   3.554  0.3136  1.2875 -1.0412
 3733SOL    MW414706   4.229   1.247   3.554 -0.2351  0.3307  0.1379
 3734SOL     OW14707   3.941   2.812   0.678 -0.0784  0.1067  0.6547
 3734SOL    HW214708   3.944   2.719   0.654  0.5231 -0.2354  1.9235
 3734SOL    HW314709   3.909   2.856   0.600  0.2629 -1.0933 -0.1947
 3734SOL    MW414710   3.937   2.805   0.665  0.0460 -0.0968  0.7100
 3735SOL     OW14711   3.947   5.100   5.854  0.0583  0.0996  0.0896
 3735SOL    HW214712   3.944   5.133   5.944  0.0386 -0.3225  0.2458
 3735SOL    HW314713   3.921   5.175   5.801 -0.7657  0.1191  0.5018
 3735SOL    MW414714   3.943   5.115   5.859 -0.0530  0.0465  0.1646
 3736SOL     OW14715   2.392   0.084   2.364  0.3149 -0.7761 -0.4109
 3736SOL    HW214716   2.473   0.121   2.399  0.2331  0.3289 -1.3129
 3736SOL    HW314717   2.363   0.021   2.430  1.4803 -0.5983  0.2903
 3736SOL    MW414718   2.399   0.081   2.377  0.4579 -0.6068 -0.4374
 3737SOL     OW14719   4.408   1.704   2.203 -0.1315 -0.0732  0.0575
 3737SOL    HW214720   4.457   1.622   2.200  1.6658  0.9130  0.7697
 3737SOL    HW314721   4.475   1.772   2.211 -1.6448  1.3358  1.5804
 3737SOL    MW414722   4.423   1.702   2.203 -0.0940  0.2428  0.3524
 3738SOL     OW14723   0.412   0.108   5.232  0.4129 -0.0724 -0.4389
 3738SOL    HW214724   0.386   0.022   5.200  1.1268 -0.2936 -0.4412
 3738SOL    HW314725   0.363   0.170   5.178 -0.2296 -0.4765 -0.3268
 3738SOL    MW414726   0.402   0.105   5.221  0.4223 -0.1549 -0.4244
 3739SOL     OW14727   0.827   6.249   2.197  0.3341 -0.0875 -0.3247
 3739SOL    HW214728   0.793   6.325   2.243  0.6611 -0.3581  0.3751
 3739SOL    HW314729   0.897   6.284   2.142  0.3365  0.1535 -0.1707
 3739SOL    MW414730   0.832   6.263   2.196  0.3776 -0.0914 -0.2120
 3740SOL     OW14731   2.784   4.806   2.816  0.0281 -0.2692 -0.1632
 3740SOL    HW214732   2.755   4.886   2.774 -0.2998 -0.5593 -0.4973
 3740SOL    HW314733   2.784   4.827   2.910 -0.9610 -0.1596 -0.1745
 3740SOL    MW414734   2.780   4.819   2.823 -0.1457 -0.2930 -0.2088
 3741SOL     OW14735   1.547   5.788   2.094  0.2763  0.3032  0.4411
 3741SOL    HW214736   1.596   5.792   2.176 -0.1893 -2.2398  0.9436
 3741SOL    HW314737   1.482   5.858   2.101 -0.4457 -0.5026  2.7754
 3741SOL    MW414738   1.545   5.798   2.105  0.1196 -0.1387  0.8154
 3742SOL     OW14739   2.809   5.886   4.485 -0.0685 -0.0819 -0.1312
 3742SOL    HW214740   2.893   5.853   4.518  0.0491  1.9213  1.8039
 3742SOL    HW314741   2.746   5.817   4.504  0.7435 -0.6514  0.5778
 3742SOL    MW414742   2.812   5.873   4.492  0.0542  0.1072  0.2176
 3743SOL     OW14743   2.865   1.325   5.037  0.3847 -0.0157 -0.1821
 3743SOL    HW214744   2.817   1.351   4.959  1.7624  0.6499 -0.8406
 3743SOL    HW314745   2.927   1.259   5.006  1.9783  1.3294 -0.0022
 3743SOL    MW414746   2.867   1.320   5.023  0.7767  0.2496 -0.2453
 3744SOL     OW14747   5.368   4.828   5.390 -0.3195 -0.1488 -0.0268
 3744SOL    HW214748   5.447   4.780   5.367 -0.5344  0.0434 -1.2393
 3744SOL    HW314749   5.370   4.905   5.334 -2.7055 -1.4729 -2.1540
 3744SOL    MW414750   5.379   4.832   5.380 -0.6627 -0.2982 -0.4674
 3745SOL     OW14751   0.887   3.478   2.074  0.1836 -0.1764 -0.2714
 3745SOL    HW214752   0.795   3.462   2.051  0.4896 -2.2571 -0.2688
 3745SOL    HW314753   0.932   3.397   2.048  2.3745  1.4899 -1.9807
 3745SOL    MW414754   0.881   3.465   2.068  0.5131 -0.2310 -0.4966
 3746SOL     OW14755   5.826   6.096   1.059  0.6173 -1.2153  0.7074
 3746SOL    HW214756   5.880   6.044   1.118  2.0520 -2.8331 -1.8348
 3746SOL    HW314757   5.888   6.143   1.004 -0.6004 -0.7500 -0.3313
 3746SOL    MW414758   5.841   6.095   1.060  0.6459 -1.3674  0.2349
 3747SOL     OW14759   0.532   5.750   6.107 -0.6503 -0.6466 -0.4299
 3747SOL    HW214760   0.542   5.770   6.200 -1.0279 -0.0837 -0.5022
 3747SOL    HW314761   0.575   5.823   6.063  0.3741 -1.3985 -0.6959
 3747SOL    MW414762   0.539   5.763   6.113 -0.5650 -0.6715 -0.4745
 3748SOL     OW14763   0.937   2.769   1.723 -0.1658  0.1077 -0.1736
 3748SOL    HW214764   0.922   2.835   1.792  0.9988 -0.0778  0.2702
 3748SOL    HW314765   0.936   2.685   1.770  1.6472  0.0486 -0.2010
 3748SOL    MW414766   0.935   2.767   1.738  0.2271  0.0754 -0.1187
 3749SOL     OW14767   0.972   4.528   3.583 -0.0616  0.0740 -0.2913
 3749SOL    HW214768   0.978   4.574   3.667  1.4644  0.3104 -0.4957
 3749SOL    HW314769   0.984   4.436   3.605 -1.2453 -0.0452 -0.0904
 3749SOL    MW414770   0.974   4.522   3.597 -0.0164  0.0895 -0.2917
 3750SOL     OW14771   5.723   0.264   4.684  0.3395  0.3898 -0.0898
 3750SOL    HW214772   5.785   0.336   4.697 -0.2574  0.9824 -0.4588
 3750SOL    HW314773   5.661   0.272   4.756  0.3139  0.2069 -0.0914
 3750SOL    MW414774   5.723   0.274   4.695  0.2574  0.4439 -0.1387
 3751SOL     OW14775   2.140   3.689   1.644 -0.0509 -0.2917 -0.5959
 3751SOL    HW214776   2.183   3.712   1.562 -0.0703 -1.2911 -0.9055
 3751SOL    HW314777   2.184   3.743   1.710 -0.1408  0.6366 -1.2715
 3751SOL    MW414778   2.152   3.699   1.642 -0.0653 -0.3011 -0.7258
 3752SOL     OW14779   3.014   0.549   0.620  0.1483 -0.4117  0.2038
 3752SOL    HW214780   2.959   0.546   0.542  0.2212  1.0275  0.0633
 3752SOL    HW314781   3.096   0.508   0.592 -0.6336 -2.1171  0.2746
 3752SOL    MW414782   3.018   0.543   0.606  0.0548 -0.4468  0.1946
 3753SOL     OW14783   4.097   2.373   2.861 -0.0083  0.8542 -0.4024
 3753SOL    HW214784   4.053   2.419   2.933 -3.2491 -0.3175 -1.4491
 3753SOL    HW314785   4.110   2.439   2.794  1.0442  1.4915  0.4050
 3753SOL    MW414786   4.093   2.388   2.862 -0.2971  0.7837 -0.4340
 3754SOL     OW14787   3.712   1.206   2.526 -0.2888  0.1091 -0.1473
 3754SOL    HW214788   3.788   1.184   2.580  0.5206  0.0675 -1.2609
 3754SOL    HW314789   3.701   1.130   2.469 -2.6922 -0.9541  1.5946
 3754SOL    MW414790   3.721   1.193   2.526 -0.4991 -0.0366 -0.0644
 3755SOL     OW14791   5.517   5.138   1.489 -0.0617 -0.1196 -0.1620
 3755SOL    HW214792   5.604   5.177   1.481 -0.6392  1.1734 -0.3440
 3755SOL    HW314793   5.461   5.191   1.433 -1.3015  0.1372  1.2501
 3755SOL    MW414794   5.521   5.150   1.481 -0.3015  0.0848  0.0003
 3756SOL     OW14795   0.097   3.571   1.636  0.3905 -0.5584 -0.0699
 3756SOL    HW214796   0.028   3.634   1.659  1.4515  0.4436  0.5094
 3756SOL    HW314797   0.162   3.623   1.589  0.7128 -1.5054 -0.6909
 3756SOL    MW414798   0.097   3.586   1.633  0.5730 -0.5512 -0.0754
 3757SOL     OW14799   1.846   6.039   4.607  0.2299 -0.2350  0.3260
 3757SOL    HW214800   1.815   5.964   4.556  1.7712 -0.0995 -0.8720
 3757SOL    HW314801   1.883   5.999   4.687  0.9401 -0.7634 -0.2520
 3757SOL    MW414802   1.847   6.024   4.611  0.5269 -0.2868  0.0917
 3758SOL     OW14803   4.392   4.299   1.825 -0.3815 -0.5850  0.1586
 3758SOL    HW214804   4.405   4.236   1.754  3.4612  0.5726 -0.3593
 3758SOL    HW314805   4.322   4.356   1.793  0.4460 -0.7885 -2.2372
 3758SOL    MW414806   4.384   4.298   1.812  0.2346 -0.4592 -0.2258
 3759SOL     OW14807   4.734   4.524   5.743  0.2467 -0.8111 -0.2967
 3759SOL    HW214808   4.779   4.460   5.690  2.9813 -0.4569  1.4116
 3759SOL    HW314809   4.680   4.472   5.803 -1.3726 -1.2479 -2.0191
 3759SOL    MW414810   4.733   4.509   5.744  0.3939 -0.8220 -0.2986
 3760SOL     OW14811   5.392   2.651   0.161 -0.4959 -0.1087 -0.4264
 3760SOL    HW214812   5.427   2.596   0.091  0.3770  0.9696 -0.8625
 3760SOL    HW314813   5.369   2.589   0.231  0.1394 -1.0465 -1.0277
 3760SOL    MW414814   5.393   2.635   0.161 -0.2969 -0.0902 -0.5632
 3761SOL     OW14815   2.539   1.766   4.712 -0.1723 -0.4211  0.4214
 3761SOL    HW214816   2.602   1.810   4.656 -0.5153 -0.0684  0.3120
 3761SOL    HW314817   2.460   1.758   4.659 -1.1956  1.7438  1.4905
 3761SOL    MW414818   2.537   1.771   4.698 -0.3526 -0.0889  0.5480
 3762SOL     OW14819   6.183   5.287   3.151 -0.1289 -0.6860 -0.1860
 3762SOL    HW214820   6.157   5.245   3.233 -0.2004  0.4107  0.3661
 3762SOL    HW314821   6.101   5.296   3.103 -0.5026  0.9370  0.6997
 3762SOL    MW414822   6.169   5.282   3.156 -0.1876 -0.3272  0.0037
 3763SOL     OW14823   5.923   3.204   2.514  0.1383 -0.2333 -0.4327
 3763SOL    HW214824   5.999   3.147   2.524 -0.1573 -0.3353  1.8042
 3763SOL    HW314825   5.959   3.286   2.479  1.4184 -0.0812  1.1143
 3763SOL    MW414826   5.938   3.208   2.511  0.2682 -0.2267  0.0666
 3764SOL     OW14827   3.333   3.892   3.023  0.1443 -0.3664  0.2204
 3764SOL    HW214828   3.262   3.828   3.027  1.0241 -1.5820 -2.0245
 3764SOL    HW314829   3.366   3.886   2.934 -0.0554  3.6598 -0.2902
 3764SOL    MW414830   3.328   3.882   3.012  0.2340  0.0044 -0.1431
 3765SOL     OW14831   2.127   0.901   3.530  0.1955  0.4546 -0.0254
 3765SOL    HW214832   2.049   0.909   3.474  1.7988  0.4352 -2.3661
 3765SOL    HW314833   2.198   0.880   3.470  1.8310 -0.7521  2.1981
 3765SOL    MW414834   2.126   0.899   3.514  0.6229  0.2928 -0.0409
 3766SOL     OW14835   4.284   4.070   2.841  0.5233 -0.0973 -0.2961
 3766SOL    HW214836   4.377   4.092   2.832  0.6920 -0.1291  1.1079
 3766SOL    HW314837   4.243   4.152   2.869  0.1775 -0.1640 -0.5965
 3766SOL    MW414838   4.291   4.084   2.844  0.4999 -0.1103 -0.1505
 3767SOL     OW14839   1.219   4.896   0.194 -0.8143 -0.1487 -0.6328
 3767SOL    HW214840   1.261   4.915   0.278 -1.3568  1.1849 -0.6402
 3767SOL    HW314841   1.125   4.901   0.213 -0.9640 -1.0717 -1.0633
 3767SOL    MW414842   1.212   4.899   0.208 -0.9056 -0.0945 -0.6906
 3768SOL     OW14843   4.784   1.169   5.844 -0.1181 -0.6247  0.1011
 3768SOL    HW214844   4.774   1.263   5.830 -2.2062 -0.6675  0.8498
 3768SOL    HW314845   4.803   1.160   5.937 -1.3250 -0.9738  0.3341
 3768SOL    MW414846   4.785   1.180   5.854 -0.5528 -0.6764  0.2306
 3769SOL     OW14847   1.424   4.833   3.496 -0.5373  0.4563  0.1000
 3769SOL    HW214848   1.406   4.747   3.535 -0.2961 -0.5422 -1.8521
 3769SOL    HW314849   1.519   4.844   3.504 -0.6997  1.1147  1.3955
 3769SOL    MW414850   1.434   4.823   3.502 -0.5269  0.4114  0.0133
 3770SOL     OW14851   1.975   3.332   5.898 -0.3301 -0.2061 -0.6416
 3770SOL    HW214852   1.959   3.322   5.992 -1.5480 -0.3411 -0.8465
 3770SOL    HW314853   2.048   3.393   5.892 -0.8228  0.5043  0.3735
 3770SOL    MW414854   1.983   3.339   5.910 -0.5558 -0.1301 -0.5347
 3771SOL     OW14855   1.003   1.343   2.280 -0.0489  0.1226 -0.0323
 3771SOL    HW214856   0.964   1.257   2.298  0.3323 -0.2367 -0.8347
 3771SOL    HW314857   0.929   1.403   2.275 -0.4842 -0.4729 -1.1104
 3771SOL    MW414858   0.988   1.340   2.281 -0.0561 -0.0034 -0.2804
 3772SOL     OW14859   3.496   5.048   4.878  0.2049  0.5922 -0.0503
 3772SOL    HW214860   3.408   5.077   4.856  0.2814  0.9007  0.0506
 3772SOL    HW314861   3.498   4.955   4.853  0.3135  0.9464 -1.4023
 3772SOL    MW414862   3.485   5.039   4.872  0.2294  0.6796 -0.2154
 3773SOL     OW14863   3.352   4.328   5.157 -0.1266  0.1595  0.0337
 3773SOL    HW214864   3.340   4.403   5.098 -1.9886 -0.8832 -1.0064
 3773SOL    HW314865   3.384   4.367   5.239 -2.5789  2.3628  0.0960
 3773SOL    MW414866   3.355   4.343   5.160 -0.6958  0.3126 -0.0953
 3774SOL     OW14867   1.959   5.905   3.696 -0.0499  0.1373 -0.0351
 3774SOL    HW214868   1.965   5.988   3.743  1.0105  0.1961 -0.2487
 3774SOL    HW314869   1.936   5.841   3.763 -0.2282  0.4988  0.2502
 3774SOL    MW414870   1.957   5.907   3.711  0.0665  0.1928 -0.0257
 3775SOL     OW14871   5.139   4.309   6.332 -0.0589 -0.2631 -0.5848
 3775SOL    HW214872   5.102   4.397   6.328 -1.1883 -0.7302 -0.6199
 3775SOL    HW314873   5.074   4.253   6.290  0.5619 -1.1509 -0.3955
 3775SOL    MW414874   5.126   4.313   6.326 -0.1260 -0.4419 -0.5644
 3776SOL     OW14875   6.380   3.670   4.715 -0.8792  0.2795  0.3778
 3776SOL    HW214876   6.299   3.622   4.728 -0.2029 -1.2507 -0.7116
 3776SOL    HW314877   6.442   3.604   4.682  0.8308  1.3705  1.2518
 3776SOL    MW414878   6.378   3.655   4.712 -0.5644  0.2215  0.3493
 3777SOL     OW14879   2.517   2.630   5.994 -0.4695 -0.7082  0.2100
 3777SOL    HW214880   2.486   2.542   5.971 -1.9435 -0.2867  0.5328
 3777SOL    HW314881   2.533   2.626   6.088  0.3537 -0.8735  0.0749
 3777SOL    MW414882   2.515   2.618   6.003 -0.5554 -0.6744  0.2348
 3778SOL     OW14883   2.592   0.488   3.556  0.0820  0.4494 -0.2123
 3778SOL    HW214884   2.505   0.472   3.521  0.9314 -1.8716 -1.4989
 3778SOL    HW314885   2.597   0.432   3.634 -0.5440  2.8788  1.7032
 3778SOL    MW414886   2.581   0.478   3.562  0.1115  0.4637 -0.1293
 3779SOL     OW14887   0.996   0.430   3.358  0.5001 -0.6421 -0.3668
 3779SOL    HW214888   0.969   0.487   3.286  3.1934  1.0349 -0.2167
 3779SOL    HW314889   0.956   0.345   3.339 -0.4258  0.2568 -2.7824
 3779SOL    MW414890   0.988   0.426   3.346  0.7333 -0.3022 -0.6657
 3780SOL     OW14891   0.049   1.904   0.926 -0.0907  0.1380 -0.2935
 3780SOL    HW214892   0.102   1.884   0.849 -0.0476  0.7342 -0.4246
 3780SOL    HW314893   0.112   1.918   0.997 -0.0289  1.3809 -0.5726
 3780SOL    MW414894   0.064   1.904   0.926 -0.0768  0.3806 -0.3476
 3781SOL     OW14895   1.502   0.708   4.287  1.1410 -0.6345  0.1115
 3781SOL    HW214896   1.478   0.796   4.316 -0.8486 -1.3023  0.6235
 3781SOL    HW314897   1.591   0.717   4.254  0.7337  1.7204 -0.4945
 3781SOL    MW414898   1.511   0.721   4.286  0.8247 -0.4119  0.0991
 3782SOL     OW14899   2.120   2.868   3.332 -0.1739  0.2186  0.1282
 3782SOL    HW214900   2.208   2.869   3.369 -0.3008 -0.2994  0.4650
 3782SOL    HW314901   2.069   2.923   3.392 -0.2266 -0.0435  0.3256
 3782SOL    MW414902   2.125   2.875   3.345 -0.1976  0.1157  0.1987
 3783SOL     OW14903   5.679   6.312   5.103  0.0528  0.2271 -0.3374
 3783SOL    HW214904   5.647   6.224   5.088 -1.5689  0.7112  0.1326
 3783SOL    HW314905   5.751   6.301   5.165 -0.1709 -0.7532 -0.2382
 3783SOL    MW414906   5.685   6.299   5.109 -0.1907  0.1616 -0.2623
 3784SOL     OW14907   4.101   4.849   6.079 -0.1625 -0.1174  0.1131
 3784SOL    HW214908   4.160   4.924   6.070 -1.4288  0.8758 -0.1629
 3784SOL    HW314909   4.082   4.846   6.173  1.2197 -1.1798  0.3938
 3784SOL    MW414910   4.106   4.859   6.090 -0.1472 -0.1265  0.1137
 3785SOL     OW14911   2.753   1.521   1.577  0.5006  0.2191 -0.0101
 3785SOL    HW214912   2.677   1.471   1.551 -0.5524  1.7854 -0.0776
 3785SOL    HW314913   2.827   1.463   1.561 -0.6090 -1.0734 -0.6125
 3785SOL    MW414914   2.753   1.507   1.572  0.2153  0.2553 -0.0985
 3786SOL     OW14915   4.404   2.314   2.672 -0.1555 -0.0756  0.4386
 3786SOL    HW214916   4.336   2.323   2.605  0.4424 -0.2019 -0.1890
 3786SOL    HW314917   4.416   2.403   2.706  1.4149  0.5037 -1.4817
 3786SOL    MW414918   4.396   2.327   2.667  0.1306 -0.0158  0.1025
 3787SOL     OW14919   4.499   5.014   1.777 -0.2724 -0.3980  0.4438
 3787SOL    HW214920   4.594   5.013   1.785 -0.3285  0.9114  1.8032
 3787SOL    HW314921   4.473   4.922   1.783  0.9199 -0.8052 -0.3552
 3787SOL    MW414922   4.508   5.002   1.779 -0.1225 -0.2790  0.5178
 3788SOL     OW14923   1.892   4.318   5.610  0.1197 -0.1491  0.0623
 3788SOL    HW214924   1.973   4.352   5.650  0.9315 -2.1016  0.1989
 3788SOL    HW314925   1.896   4.348   5.519  0.9079 -0.0706  0.1125
 3788SOL    MW414926   1.903   4.327   5.603  0.3308 -0.3963  0.0870
 3789SOL     OW14927   5.915   3.414   1.349  0.0922  0.6602 -0.0649
 3789SOL    HW214928   5.974   3.397   1.422  0.7260 -0.8991 -0.9042
 3789SOL    HW314929   5.889   3.505   1.361  2.5084  1.3621  0.4645
 3789SOL    MW414930   5.920   3.424   1.360  0.4946  0.5471 -0.1058
 3790SOL     OW14931   0.258   4.642   3.288 -0.0263 -0.2955  0.1996
 3790SOL    HW214932   0.294   4.626   3.201  2.2330  2.0660  0.5884
 3790SOL    HW314933   0.334   4.646   3.346 -1.4282 -1.2828  2.2372
 3790SOL    MW414934   0.273   4.640   3.284  0.0868 -0.1142  0.5197
 3791SOL     OW14935   2.302   6.314   2.543  0.5548 -0.2566 -0.2173
 3791SOL    HW214936   2.386   6.273   2.565  0.4069  0.1496  1.2218
 3791SOL    HW314937   2.283   6.370   2.618 -1.2633 -0.7454 -0.2644
 3791SOL    MW414938   2.311   6.316   2.556  0.2954 -0.2675 -0.0336
 3792SOL     OW14939   5.669   4.299   6.271  0.6059  0.1730 -0.6327
 3792SOL    HW214940   5.578   4.313   6.246  0.2317  1.2636  1.1692
 3792SOL    HW314941   5.720   4.351   6.208 -0.1414  1.1077 -0.4788
 3792SOL    MW414942   5.664   4.308   6.259  0.4579  0.4402 -0.3747
 3793SOL     OW14943   0.801   4.492   5.182 -0.2365  0.1331 -0.7772
 3793SOL    HW214944   0.845   4.557   5.128 -1.2773 -0.5478 -2.5339
 3793SOL    HW314945   0.850   4.411   5.168 -1.1522 -0.2934 -1.5812
 3793SOL    MW414946   0.813   4.489   5.173 -0.4946 -0.0130 -1.1150
 3794SOL     OW14947   0.848   3.800   3.817  0.2679  0.0123 -0.3734
 3794SOL    HW214948   0.765   3.846   3.831 -1.2779 -2.8945  0.7525
 3794SOL    HW314949   0.849   3.731   3.883  0.7984 -3.7058 -3.9176
 3794SOL    MW414950   0.837   3.797   3.828  0.1339 -0.8617 -0.6924
 3795SOL     OW14951   4.358   4.303   2.102 -0.6166 -0.0390  0.5454
 3795SOL    HW214952   4.383   4.303   2.010 -1.2237 -0.5120  0.3732
 3795SOL    HW314953   4.427   4.254   2.146 -1.1952 -1.2954  0.0852
 3795SOL    MW414954   4.370   4.297   2.095 -0.7730 -0.2671  0.4620
 3796SOL     OW14955   1.931   4.977   5.229  0.6928  0.4840 -0.1597
 3796SOL    HW214956   1.999   4.927   5.274 -1.0498 -0.4426  1.5577
 3796SOL    HW314957   1.896   4.917   5.163 -0.6698 -0.2601  1.1875
 3796SOL    MW414958   1.935   4.963   5.226  0.2831  0.2636  0.2446
 3797SOL     OW14959   0.827   5.799   4.845 -0.3814  0.4179 -0.2385
 3797SOL    HW214960   0.837   5.885   4.886  1.0040  0.5702 -0.8465
 3797SOL    HW314961   0.827   5.737   4.918  1.7029  0.7139  0.0587
 3797SOL    MW414962   0.828   5.802   4.860  0.0764  0.4771 -0.2795
 3798SOL     OW14963   1.826   2.725   1.915  0.5575 -0.0073  0.0976
 3798SOL    HW214964   1.917   2.754   1.910  0.8002 -0.3665  1.9115
 3798SOL    HW314965   1.829   2.634   1.886  1.1934 -0.7298  2.2758
 3798SOL    MW414966   1.839   2.717   1.911  0.6734 -0.1500  0.6243
 3799SOL     OW14967   1.975   2.974   3.549  0.2408 -0.2458  0.0101
 3799SOL    HW214968   1.977   2.996   3.642  0.3484 -2.0965  0.4744
 3799SOL    HW314969   1.894   2.924   3.538  0.3405 -0.2257 -0.8531
 3799SOL    MW414970   1.965   2.971   3.560  0.2681 -0.4873 -0.0426
 3800SOL     OW14971   4.352   6.121   2.783  0.0574  0.2361 -0.0677
 3800SOL    HW214972   4.323   6.178   2.712  0.4568  2.1835  1.2266
 3800SOL    HW314973   4.275   6.110   2.838 -0.0939 -0.7599 -0.4589
 3800SOL    MW414974   4.338   6.127   2.781  0.0901  0.3616  0.0515
 3801SOL     OW14975   0.354   0.494   6.000  0.1185 -0.0544 -0.1722
 3801SOL    HW214976   0.411   0.544   5.942  1.0865 -0.7402  0.1526
 3801SOL    HW314977   0.414   0.448   6.059 -0.7566 -1.0097  0.0162
 3801SOL    MW414978   0.370   0.494   6.000  0.1307 -0.2710 -0.1045
 3802SOL     OW14979   2.556   1.318   2.868  0.0153 -0.6036  0.2128
 3802SOL    HW214980   2.604   1.400   2.880  0.2653 -0.6705 -0.3271
 3802SOL    HW314981   2.583   1.263   2.942  0.2019 -0.3706  0.3180
 3802SOL    MW414982   2.566   1.322   2.879  0.0729 -0.5817  0.1555
 3803SOL     OW14983   5.412   1.994   3.734 -0.3958  0.0178 -0.3860
 3803SOL    HW214984   5.466   1.968   3.808  1.8597 -0.6619 -2.1391
 3803SOL    HW314985   5.439   2.083   3.714 -0.8240  0.1155 -0.5432
 3803SOL    MW414986   5.423   2.002   3.741 -0.1547 -0.0589 -0.6380
 3804SOL     OW14987   2.061   6.079   2.193 -0.2554 -0.5528 -0.1712
 3804SOL    HW214988   2.142   6.057   2.239  0.1406 -1.3752 -1.1981
 3804SOL    HW314989   2.048   6.006   2.132 -1.1593  0.1229 -0.8148
 3804SOL    MW414990   2.070   6.067   2.191 -0.3224 -0.5721 -0.3916
 3805SOL     OW14991   6.195   0.908   0.060  0.4284  0.6268  0.4274
 3805SOL    HW214992   6.280   0.950   0.046  1.2328 -1.2832 -0.6875
 3805SOL    HW314993   6.179   0.858  -0.019 -1.7556  0.9084  0.6349
 3805SOL    MW414994   6.204   0.907   0.048  0.2464  0.4120  0.3076
 3806SOL     OW14995   3.295   6.394   5.857 -0.5096  0.7963 -0.0111
 3806SOL    HW214996   3.252   6.336   5.920 -1.7071  1.5588 -0.0962
 3806SOL    HW314997   3.367   6.341   5.821 -1.6141 -0.6779 -0.1650
 3806SOL    MW414998   3.299   6.379   5.860 -0.8133  0.7024 -0.0426
 3807SOL     OW14999   3.197   4.627   0.304 -0.3790 -0.0753  0.0548
 3807SOL    HW215000   3.230   4.578   0.229  1.3516  1.7528 -0.4488
 3807SOL    HW315001   3.266   4.620   0.370 -0.7401  0.4915  0.5032
 3807SOL    MW415002   3.210   4.619   0.303 -0.1983  0.2407  0.0475
 3808SOL     OW15003   2.723   4.705   1.204  0.1396  0.1641 -0.5894
 3808SOL    HW215004   2.676   4.782   1.171 -0.9375  0.2870  1.0899
 3808SOL    HW315005   2.814   4.719   1.176  0.2041  2.6336  0.5198
 3808SOL    MW415006   2.729   4.717   1.196  0.0060  0.5061 -0.2215
 3809SOL     OW15007   3.508   0.677   6.019  0.5190  0.2493 -0.4416
 3809SOL    HW215008   3.475   0.728   6.092 -0.1174  1.2884 -1.4247
 3809SOL    HW315009   3.565   0.737   5.970  2.7913 -1.0808  0.4059
 3809SOL    MW415010   3.511   0.691   6.022  0.7348  0.2109 -0.4595
 3810SOL     OW15011   0.140   6.419   0.599  0.6131 -0.0585 -0.5512
 3810SOL    HW215012   0.206   6.487   0.611  1.4822 -0.9255 -0.3404
 3810SOL    HW315013   0.152   6.359   0.672 -3.8755  2.4135  2.7122
 3810SOL    MW415014   0.150   6.420   0.610  0.1355  0.1533 -0.0928
 3811SOL     OW15015   2.125   0.279   2.258 -0.3714  0.0516 -0.2964
 3811SOL    HW215016   2.102   0.196   2.300 -0.6342 -0.4886 -1.4717
 3811SOL    HW315017   2.114   0.345   2.327 -0.6988 -0.8135  0.4952
 3811SOL    MW415018   2.121   0.277   2.273 -0.4492 -0.1338 -0.3470
 3812SOL     OW15019   5.905   2.493   1.621 -0.4422 -0.3098  0.0531
 3812SOL    HW215020   5.914   2.476   1.715  0.6690  1.2897  0.2821
 3812SOL    HW315021   5.921   2.409   1.579  2.7238 -0.3649  1.1557
 3812SOL    MW415022   5.908   2.480   1.628  0.1221 -0.1060  0.2288
 3813SOL     OW15023   3.550   3.656   3.142  0.3235  0.3367  0.4960
 3813SOL    HW215024   3.491   3.593   3.101  2.7304 -1.1926 -0.8237
 3813SOL    HW315025   3.536   3.644   3.236 -0.1093 -1.3235  0.2479
 3813SOL    MW415026   3.540   3.646   3.149  0.5840 -0.0841  0.2892
 3814SOL     OW15027   5.352   1.712   0.971 -0.2415 -0.0895 -0.4409
 3814SOL    HW215028   5.258   1.701   0.960 -0.5537 -0.6819  2.2303
 3814SOL    HW315029   5.362   1.789   1.026  0.7250 -0.8606  0.5143
 3814SOL    MW415030   5.341   1.720   0.977 -0.1552 -0.2694  0.0376
 3815SOL     OW15031   5.791   5.032   5.953  0.1040  0.1719 -0.9073
 3815SOL    HW215032   5.828   4.944   5.959  1.3508  0.6731 -0.9729
 3815SOL    HW315033   5.698   5.018   5.935 -0.0510 -1.1451  0.7210
 3815SOL    MW415034   5.783   5.018   5.951  0.2480  0.0643 -0.7011
 3816SOL     OW15035   2.868   4.742   1.948 -0.4749 -0.3030  0.1587
 3816SOL    HW215036   2.822   4.704   2.023 -0.1249 -0.0789  0.4873
 3816SOL    HW315037   2.893   4.830   1.977 -1.2996  0.1933 -0.6070
 3816SOL    MW415038   2.865   4.749   1.962 -0.5375 -0.2080  0.1011
 3817SOL     OW15039   0.457   1.134   0.432  0.4697  0.3295  0.4412
 3817SOL    HW215040   0.487   1.115   0.343  0.3214 -0.3226  0.5264
 3817SOL    HW315041   0.370   1.171   0.420  0.5510  0.4825  0.3050
 3817SOL    MW415042   0.450   1.136   0.419  0.4609  0.2637  0.4344
 3818SOL     OW15043   2.731   1.268   1.332 -0.2453  0.2413  0.5172
 3818SOL    HW215044   2.758   1.310   1.250  0.9210  0.3807  0.9584
 3818SOL    HW315045   2.747   1.175   1.319  2.2586  0.4859  1.4031
 3818SOL    MW415046   2.736   1.262   1.320  0.2389  0.2920  0.6923
 3819SOL     OW15047   0.140   1.144   5.980  0.2915  0.1349 -0.6515
 3819SOL    HW215048   0.225   1.186   5.969  0.6434 -0.8614 -1.8978
 3819SOL    HW315049   0.078   1.217   5.990  1.2537  0.8659  0.1829
 3819SOL    MW415050   0.143   1.159   5.980  0.4649  0.0999 -0.7059
 3820SOL     OW15051   5.325   3.714   0.131 -0.0232 -0.2340 -0.2181
 3820SOL    HW215052   5.338   3.675   0.217 -1.0904  0.3555  0.2352
 3820SOL    HW315053   5.231   3.702   0.114 -0.0298  0.5995 -0.8229
 3820SOL    MW415054   5.314   3.707   0.140 -0.1648 -0.0463 -0.2381
 3821SOL     OW15055   0.714   4.692   4.848  0.1665 -0.0752 -0.2444
 3821SOL    HW215056   0.655   4.639   4.901 -0.0244 -0.0754 -0.4535
 3821SOL    HW315057   0.692   4.669   4.758 -0.0169  0.4690 -0.3401
 3821SOL    MW415058   0.703   4.682   4.843  0.1171 -0.0034 -0.2846
 3822SOL     OW15059   0.520   2.759   5.475 -0.0126 -0.0336  0.0437
 3822SOL    HW215060   0.581   2.754   5.548  1.0307  1.1035 -0.7045
 3822SOL    HW315061   0.569   2.726   5.400 -1.0495 -1.1418 -0.1770
 3822SOL    MW415062   0.534   2.754   5.474 -0.0118 -0.0298 -0.0841
 3823SOL     OW15063   5.621   4.330   2.190  0.0170  0.4099 -1.1439
 3823SOL    HW215064   5.660   4.278   2.260 -1.5334 -0.8899 -1.1803
 3823SOL    HW315065   5.682   4.403   2.177  0.0458  1.0951  1.9985
 3823SOL    MW415066   5.634   4.333   2.198 -0.1838  0.3288 -0.7341
 3824SOL     OW15067   2.605   2.895   1.881  0.1435 -0.0870  0.2047
 3824SOL    HW215068   2.698   2.888   1.904  0.0582 -2.0701  0.1115
 3824SOL    HW315069   2.605   2.944   1.798  1.0069  0.6821  0.6267
 3824SOL    MW415070   2.617   2.901   1.873  0.2462 -0.2472  0.2480
 3825SOL     OW15071   5.945   0.274   2.505 -0.4940  0.0130 -0.0685
 3825SOL    HW215072   5.937   0.315   2.591 -0.4934  0.0552 -0.0885
 3825SOL    HW315073   5.899   0.334   2.446 -0.6534 -0.1095 -0.0678
 3825SOL    MW415074   5.938   0.288   2.508 -0.5150  0.0024 -0.0711
 3826SOL     OW15075   6.326   2.195   5.586 -0.4381 -0.1049 -0.2559
 3826SOL    HW215076   6.299   2.224   5.498  0.2231  0.4621 -0.2804
 3826SOL    HW315077   6.389   2.261   5.615 -1.8643  0.6228  1.3355
 3826SOL    MW415078   6.331   2.207   5.578 -0.5391  0.0659 -0.0492
 3827SOL     OW15079   1.225   1.717   6.243 -0.2866  0.0414 -0.2114
 3827SOL    HW215080   1.183   1.741   6.160  0.2390  0.2899 -0.4117
 3827SOL    HW315081   1.154   1.715   6.306 -0.6707  0.0078 -0.6393
 3827SOL    MW415082   1.210   1.720   6.240 -0.2679  0.0698 -0.2943
 3828SOL     OW15083   2.970   1.604   0.693 -0.1222  0.7805 -0.0839
 3828SOL    HW215084   3.056   1.645   0.708  0.1357  0.3370 -0.3427
 3828SOL    HW315085   2.911   1.677   0.677 -0.0600  1.1823  1.3834
 3828SOL    MW415086   2.974   1.619   0.693 -0.0800  0.7750  0.0756
 3829SOL     OW15087   3.035   1.853   1.333  0.1868 -0.4214  0.5597
 3829SOL    HW215088   3.035   1.864   1.238  0.7562 -0.3045  0.5684
 3829SOL    HW315089   2.959   1.798   1.351  0.4011 -0.9288 -0.0232
 3829SOL    MW415090   3.025   1.847   1.323  0.2902 -0.4729  0.4839
 3830SOL     OW15091   0.089   5.046   1.041  0.1200  0.0624  0.0555
 3830SOL    HW215092   0.001   5.014   1.023  0.2940  0.3981 -1.4853
 3830SOL    HW315093   0.076   5.133   1.078 -0.2056 -0.1790  0.5291
 3830SOL    MW415094   0.076   5.053   1.044  0.1000  0.0749 -0.0853
 3831SOL     OW15095   4.417   0.487   5.896  0.2897  0.1015 -0.2941
 3831SOL    HW215096   4.332   0.524   5.921 -0.9127 -1.5235 -1.7895
 3831SOL    HW315097   4.430   0.415   5.957  0.8075  0.5669  0.1635
 3831SOL    MW415098   4.408   0.483   5.908  0.1994 -0.0515 -0.4310
 3832SOL     OW15099   1.480   1.807   2.612  0.0587 -0.0099 -0.2796
 3832SOL    HW215100   1.522   1.842   2.690 -1.3423 -0.9680  0.9610
 3832SOL    HW315101   1.541   1.827   2.541  2.6313 -1.3656  1.3950
 3832SOL    MW415102   1.494   1.815   2.613  0.2133 -0.3152  0.1050
 3833SOL     OW15103   0.382   0.488   5.643  0.4086 -0.1686 -0.1018
 3833SOL    HW215104   0.417   0.416   5.590 -0.1293 -0.0211 -0.6737
 3833SOL    HW315105   0.417   0.567   5.601 -1.3908  0.0328 -1.3152
 3833SOL    MW415106   0.391   0.488   5.630  0.1002 -0.1226 -0.3374
 3834SOL     OW15107   3.321   5.279   3.170  0.1085 -0.4291  0.1284
 3834SOL    HW215108   3.285   5.205   3.218  0.4523 -0.5872  0.1400
 3834SOL    HW315109   3.382   5.320   3.232 -1.1878  0.7743  0.6972
 3834SOL    MW415110   3.324   5.275   3.185 -0.0171 -0.2911  0.2049
 3835SOL     OW15111   2.111   1.016   2.681 -0.1672  0.1450 -0.4944
 3835SOL    HW215112   2.121   0.922   2.662 -1.5564  0.2145 -1.7729
 3835SOL    HW315113   2.190   1.056   2.644  0.1494 -0.4465 -0.4805
 3835SOL    MW415114   2.123   1.009   2.674 -0.3087  0.0761 -0.6612
 3836SOL     OW15115   2.626   2.577   4.921  0.2861 -0.1404 -0.2523
 3836SOL    HW215116   2.569   2.518   4.969  1.6900 -2.2497 -1.0079
 3836SOL    HW315117   2.650   2.528   4.842  1.1911  1.6271 -1.1348
 3836SOL    MW415118   2.622   2.563   4.917  0.5907 -0.1855 -0.4684
 3837SOL     OW15119   4.967   1.817   4.980 -0.2090 -0.2117 -0.2110
 3837SOL    HW215120   4.992   1.824   4.888 -2.7396 -1.6691 -1.1224
 3837SOL    HW315121   5.045   1.842   5.029  0.5112  2.9640 -2.7071
 3837SOL    MW415122   4.981   1.821   4.975 -0.4478  0.0150 -0.6606
 3838SOL     OW15123   0.012   5.503   0.779 -0.2096 -0.2030  0.0129
 3838SOL    HW215124  -0.028   5.542   0.702  1.2566 -0.9216 -1.1742
 3838SOL    HW315125  -0.057   5.448   0.817 -1.9493  2.5263  1.0846
 3838SOL    MW415126  -0.002   5.501   0.774 -0.2457  0.0623 -0.0023
 3839SOL     OW15127   4.739   2.970   3.011 -0.0672  0.3954  0.2504
 3839SOL    HW215128   4.656   2.960   2.963  0.2820 -0.6884 -0.1506
 3839SOL    HW315129   4.792   2.895   2.984  1.5498  1.7235 -0.4814
 3839SOL    MW415130   4.735   2.959   3.001  0.1922  0.4276  0.1009
 3840SOL     OW15131   0.986   1.990   3.664 -0.4388 -1.0371  0.3537
 3840SOL    HW215132   0.938   2.047   3.724 -0.8780 -1.4198  0.3727
 3840SOL    HW315133   1.029   2.050   3.603  0.2113 -0.6353  1.1878
 3840SOL    MW415134   0.986   2.005   3.664 -0.4110 -1.0346  0.4662
 3841SOL     OW15135   0.904   4.352   4.298  0.6029  0.2150 -0.3875
 3841SOL    HW215136   0.822   4.358   4.248  0.3041  0.1381  0.0839
 3841SOL    HW315137   0.911   4.259   4.321 -0.8905  0.6610  2.3524
 3841SOL    MW415138   0.894   4.340   4.295  0.3664  0.2637  0.0362
 3842SOL     OW15139   5.214   4.692   1.663  0.0709 -0.2088  0.5967
 3842SOL    HW215140   5.230   4.672   1.570  1.6611  1.3829  0.4648
 3842SOL    HW315141   5.247   4.781   1.674 -0.1369 -0.3450  2.6992
 3842SOL    MW415142   5.221   4.701   1.652  0.2533 -0.0167  0.8567
 3843SOL     OW15143   4.536   5.276   6.349 -0.7869  0.2560 -0.0628
 3843SOL    HW215144   4.488   5.272   6.432 -2.8085 -0.0434 -1.1832
 3843SOL    HW315145   4.468   5.276   6.282  0.7598  1.5482 -1.7239
 3843SOL    MW415146   4.521   5.276   6.351 -0.8496  0.3870 -0.4298
 3844SOL     OW15147   2.513   2.765   5.599 -0.2432  0.4259 -0.2007
 3844SOL    HW215148   2.547   2.676   5.610 -0.2338  0.4419 -0.0926
 3844SOL    HW315149   2.592   2.819   5.588 -0.2703  0.3621 -0.7101
 3844SOL    MW415150   2.528   2.760   5.599 -0.2455  0.4196 -0.2537
 3845SOL     OW15151   2.698   0.675   1.375 -0.8151  0.2544 -0.3273
 3845SOL    HW215152   2.770   0.671   1.438 -1.3970  1.7219  0.4861
 3845SOL    HW315153   2.729   0.733   1.306 -1.0118  0.4652 -0.2408
 3845SOL    MW415154   2.712   0.682   1.374 -0.9178  0.4759 -0.2085
 3846SOL     OW15155   0.781   2.784   0.701  0.2926 -0.3405  0.5598
 3846SOL    HW215156   0.816   2.696   0.687 -1.0332 -0.5587 -1.9785
 3846SOL    HW315157   0.717   2.774   0.771  0.9062 -1.1604  1.0181
 3846SOL    MW415158   0.777   2.771   0.708  0.1986 -0.4774  0.2854
 3847SOL     OW15159   5.166   1.984   5.110  0.1822 -0.2501 -0.0460
 3847SOL    HW215160   5.243   1.927   5.118  0.0130 -0.5648 -0.5778
 3847SOL    HW315161   5.196   2.069   5.142  0.8029 -0.3296 -0.3907
 3847SOL    MW415162   5.180   1.987   5.115  0.2418 -0.3021 -0.1617
 3848SOL     OW15163   2.530   0.283   4.636  0.6928  0.2364  0.1504
 3848SOL    HW215164   2.583   0.353   4.597  0.5137  0.0670 -0.4045
 3848SOL    HW315165   2.538   0.210   4.574 -1.2748  0.6530 -0.6712
 3848SOL    MW415166   2.538   0.283   4.622  0.4096  0.2690 -0.0312
 3849SOL     OW15167   3.326   3.222   0.400  0.0078 -0.1147  0.4074
 3849SOL    HW215168   3.309   3.129   0.411 -0.4850 -0.0584  0.1802
 3849SOL    HW315169   3.244   3.265   0.426  1.0655  0.4507  3.1260
 3849SOL    MW415170   3.313   3.216   0.405  0.0824 -0.0327  0.7361
 3850SOL     OW15171   3.548   3.860   2.064  0.0682 -0.2440 -0.2555
 3850SOL    HW215172   3.588   3.825   1.984 -0.5003  1.0462 -1.1278
 3850SOL    HW315173   3.461   3.822   2.066 -0.6036  1.1608 -1.2824
 3850SOL    MW415174   3.542   3.850   2.054 -0.0955  0.1116 -0.5061
 3851SOL     OW15175   6.359   0.350   1.494  0.1907  0.0369  0.4375
 3851SOL    HW215176   6.385   0.268   1.536 -1.3564 -0.4911  0.4019
 3851SOL    HW315177   6.369   0.416   1.562 -1.2212 -0.6330  1.3507
 3851SOL    MW415178   6.364   0.348   1.508 -0.1997 -0.1212  0.5533
 3852SOL     OW15179   2.177   1.715   3.624  0.3782  0.0161  0.4039
 3852SOL    HW215180   2.248   1.715   3.560  0.7221 -0.5782  0.7717
 3852SOL    HW315181   2.117   1.647   3.593 -1.1817  1.9741 -1.1167
 3852SOL    MW415182   2.178   1.706   3.612  0.2178  0.1960  0.2518
 3853SOL     OW15183   5.281   3.664   1.863 -0.1874  0.5121 -0.9327
 3853SOL    HW215184   5.318   3.749   1.889 -0.2048  0.1457  0.3631
 3853SOL    HW315185   5.336   3.636   1.790  0.0272  1.4951 -1.1631
 3853SOL    MW415186   5.293   3.672   1.857 -0.1614  0.5935 -0.7922
 3854SOL     OW15187   2.322   0.984   5.212  0.6136  0.3707 -0.0396
 3854SOL    HW215188   2.325   0.954   5.303 -1.4177  0.1311  0.0009
 3854SOL    HW315189   2.251   1.049   5.211  0.4863  0.2354 -1.4746
 3854SOL    MW415190   2.313   0.989   5.224  0.3288  0.3212 -0.2236
 3855SOL     OW15191   0.484   6.359   3.124  0.0339 -0.0145  0.4452
 3855SOL    HW215192   0.545   6.406   3.068  0.0270  1.2652  1.4576
 3855SOL    HW315193   0.418   6.324   3.064  1.7755 -1.5256 -0.6877
 3855SOL    MW415194   0.483   6.361   3.109  0.2628 -0.0450  0.4293
 3856SOL     OW15195   4.744   4.965   0.377  0.5837 -0.2046  0.0183
 3856SOL    HW215196   4.822   4.958   0.433 -0.0759 -2.4282  0.7854
 3856SOL    HW315197   4.684   4.899   0.412 -1.2738  0.7696 -1.1737
 3856SOL    MW415198   4.747   4.955   0.389  0.2516 -0.3694 -0.0377
 3857SOL     OW15199   1.749   3.344   3.493 -0.9286  0.2262  0.2794
 3857SOL    HW215200   1.785   3.329   3.580  0.4417  1.3344 -0.0553
 3857SOL    HW315201   1.814   3.309   3.433 -1.5555  0.0626 -0.3219
 3857SOL    MW415202   1.762   3.338   3.496 -0.8305  0.3508  0.1559
 3858SOL     OW15203   6.335   2.098   0.675 -0.0146 -0.0364  0.6488
 3858SOL    HW215204   6.428   2.118   0.665 -0.0166  0.4295  1.4452
 3858SOL    HW315205   6.322   2.017   0.627  0.7909 -0.0621  0.4641
 3858SOL    MW415206   6.346   2.090   0.668  0.0914  0.0217  0.7295
 3859SOL     OW15207   6.074   0.022   2.434  0.9160 -0.2956  0.3748
 3859SOL    HW215208   6.017   0.099   2.446  0.2726 -0.7776  0.4659
 3859SOL    HW315209   6.141   0.031   2.501  1.4168  0.6940 -0.2291
 3859SOL    MW415210   6.075   0.034   2.444  0.8972 -0.2286  0.3072
 3860SOL     OW15211   0.270   2.627   0.067 -0.0904  0.1952 -0.2301
 3860SOL    HW215212   0.287   2.631  -0.027 -1.7386  0.5290 -0.5462
 3860SOL    HW315213   0.342   2.575   0.102  1.9252  2.0800 -1.2936
 3860SOL    MW415214   0.282   2.621   0.059 -0.0420  0.4879 -0.4122
 3861SOL     OW15215   5.976   5.193   1.758  0.1473  0.0916 -0.1299
 3861SOL    HW215216   6.006   5.107   1.788  1.3968  0.4517 -0.2602
 3861SOL    HW315217   6.001   5.253   1.828 -0.7266  0.3561 -0.0368
 3861SOL    MW415218   5.984   5.190   1.771  0.1969  0.1740 -0.1348
 3862SOL     OW15219   2.571   2.864   4.760 -0.3325 -0.3991 -0.1206
 3862SOL    HW215220   2.553   2.844   4.852 -0.8682  0.0307 -0.1256
 3862SOL    HW315221   2.534   2.952   4.748  0.8303  0.0677 -0.4213
 3862SOL    MW415222   2.564   2.873   4.771 -0.2497 -0.2808 -0.1610
 3863SOL     OW15223   5.020   2.755   4.744 -0.1577  0.0183  0.3167
 3863SOL    HW215224   4.972   2.837   4.761 -1.2384 -0.7760  1.2865
 3863SOL    HW315225   5.110   2.775   4.767  0.5224  2.1549 -3.3811
 3863SOL    MW415226   5.025   2.768   4.749 -0.2106  0.1954 -0.0433
 3864SOL     OW15227   5.883   0.256   1.641 -0.4231  0.5470  0.4073
 3864SOL    HW215228   5.908   0.169   1.670 -0.7100  0.2044 -0.3485
 3864SOL    HW315229   5.947   0.279   1.573 -1.5736  0.0296 -0.9063
 3864SOL    MW415230   5.895   0.248   1.636 -0.6127  0.4335  0.1342
 3865SOL     OW15231   3.390   6.098   2.347 -0.2292  0.1058 -0.0687
 3865SOL    HW215232   3.365   6.025   2.290 -1.4651  0.1020  0.4282
 3865SOL    HW315233   3.478   6.122   2.320  0.9381 -2.7062  0.8555
 3865SOL    MW415234   3.398   6.091   2.336 -0.2382 -0.2657  0.1188
 3866SOL     OW15235   0.740   3.091   2.373 -0.2321  0.1145 -0.1603
 3866SOL    HW215236   0.783   3.008   2.350  1.2369  0.8423 -0.1424
 3866SOL    HW315237   0.689   3.114   2.296 -1.2222 -1.1328  0.0819
 3866SOL    MW415238   0.739   3.083   2.360 -0.1689  0.0459 -0.1260
 3867SOL     OW15239   1.418   0.851   3.046  0.1956 -0.4757 -0.2091
 3867SOL    HW215240   1.356   0.867   2.975  0.5823 -1.5073 -0.7965
 3867SOL    HW315241   1.371   0.878   3.125 -0.9807 -1.1340 -0.6502
 3867SOL    MW415242   1.404   0.857   3.047  0.0914 -0.6986 -0.3448
 3868SOL     OW15243   0.616   1.421   5.156 -0.2499  0.0909 -0.4672
 3868SOL    HW215244   0.546   1.446   5.096 -1.7136 -2.3084  0.1037
 3868SOL    HW315245   0.574   1.361   5.218  2.4082 -1.9806 -0.4801
 3868SOL    MW415246   0.601   1.416   5.156 -0.0923 -0.4990 -0.3936
 3869SOL     OW15247   3.847   0.780   1.641  0.0843  0.3217 -0.1930
 3869SOL    HW215248   3.916   0.827   1.688  0.4278 -1.1416  0.8675
 3869SOL    HW315249   3.881   0.691   1.631 -2.1628 -0.8762  1.6859
 3869SOL    MW415250   3.861   0.774   1.646 -0.1668 -0.0294  0.1948
 3870SOL     OW15251   2.720   4.077   2.209  0.7155 -0.3182  0.4950
 3870SOL    HW215252   2.728   4.089   2.303 -2.2090  3.1234  0.4854
 3870SOL    HW315253   2.626   4.076   2.192  1.1473 -0.7947 -2.4317
 3870SOL    MW415254   2.709   4.078   2.219  0.3866  0.0730  0.1076
 3871SOL     OW15255   1.341   4.532   6.037 -0.0487 -0.0004 -0.1644
 3871SOL    HW215256   1.250   4.524   6.008 -0.0669  0.9913 -0.4206
 3871SOL    HW315257   1.356   4.626   6.043  1.1134 -0.1372 -0.6027
 3871SOL    MW415258   1.331   4.543   6.034  0.1022  0.1124 -0.2560
 3872SOL     OW15259   5.293   2.419   0.603 -0.2701  0.4255 -0.8074
 3872SOL    HW215260   5.323   2.411   0.512  1.9252  3.1869 -0.4677
 3872SOL    HW315261   5.206   2.457   0.596 -0.2618  0.2939 -1.7471
 3872SOL    MW415262   5.286   2.423   0.590  0.0206  0.7725 -0.8866
 3873SOL     OW15263   6.268   4.160   3.775  0.5484  0.7742  0.2421
 3873SOL    HW215264   6.312   4.094   3.828  1.1483  1.5081  0.6689
 3873SOL    HW315265   6.258   4.236   3.834 -2.6494  0.1574  0.6885
 3873SOL    MW415266   6.272   4.162   3.790  0.2056  0.7897  0.3573
 3874SOL     OW15267   1.551   1.491   1.100  0.8047  0.2526 -0.7174
 3874SOL    HW215268   1.490   1.558   1.131 -0.2818 -0.6868 -0.7219
 3874SOL    HW315269   1.524   1.474   1.010 -0.1438 -1.4372 -0.1737
 3874SOL    MW415270   1.539   1.497   1.092  0.5362 -0.0943 -0.6463
 3875SOL     OW15271   5.510   5.281   0.408  0.9075 -0.9195  0.6397
 3875SOL    HW215272   5.567   5.215   0.370 -0.7190 -2.2136  0.3025
 3875SOL    HW315273   5.425   5.237   0.417 -1.2427  1.9405 -2.6733
 3875SOL    MW415274   5.506   5.267   0.404  0.4092 -0.7129  0.1581
 3876SOL     OW15275   0.848   4.947   2.235 -0.8609 -0.4786 -0.2883
 3876SOL    HW215276   0.786   4.914   2.300 -0.4779  0.7970  0.7789
 3876SOL    HW315277   0.929   4.961   2.284  0.6305 -2.9722 -1.8347
 3876SOL    MW415278   0.850   4.945   2.250 -0.6136 -0.6393 -0.3515
 3877SOL     OW15279   6.064   3.031   5.114  0.0691  0.2473  0.4179
 3877SOL    HW215280   6.112   3.113   5.101 -0.8684  0.8883  0.9314
 3877SOL    HW315281   6.131   2.968   5.140  0.7420  0.9423  0.3970
 3877SOL    MW415282   6.079   3.034   5.116  0.0342  0.4236  0.4829
 3878SOL     OW15283   3.486   6.252   3.472  0.3487  0.5780  0.8053
 3878SOL    HW215284   3.486   6.347   3.460  3.1782  0.4141 -1.9392
 3878SOL    HW315285   3.410   6.221   3.421  0.8947  1.2573 -0.4585
 3878SOL    MW415286   3.476   6.260   3.464  0.7940  0.6460  0.2765
 3879SOL     OW15287   5.238   1.237   5.204  0.0616 -0.1650  0.5143
 3879SOL    HW215288   5.171   1.297   5.235 -0.7213 -0.1786 -1.0262
 3879SOL    HW315289   5.194   1.152   5.199  0.0304 -0.0928 -0.9176
 3879SOL    MW415290   5.224   1.234   5.207 -0.0458 -0.1573  0.1222
 3880SOL     OW15291   4.597   6.082   2.914 -0.1397  0.0717  0.4691
 3880SOL    HW215292   4.518   6.101   2.863 -0.8035  1.8134  2.0144
 3880SOL    HW315293   4.590   6.139   2.990  1.9545 -0.7499  1.3469
 3880SOL    MW415294   4.585   6.092   2.917  0.0490  0.1931  0.7888
 3881SOL     OW15295   1.662   4.014   6.410  0.1244 -0.0956 -0.0744
 3881SOL    HW215296   1.646   4.077   6.339  0.9129  0.7648  0.4930
 3881SOL    HW315297   1.652   3.928   6.368  1.3277  0.3774 -1.4352
 3881SOL    MW415298   1.659   4.011   6.395  0.3872  0.0803 -0.1791
 3882SOL     OW15299   2.907   1.805   3.986 -0.0265 -0.1513  0.1929
 3882SOL    HW215300   2.889   1.733   3.926 -0.8407 -1.5306  1.9971
 3882SOL    HW315301   2.821   1.842   4.006  0.4795  2.3727 -1.8438
 3882SOL    MW415302   2.894   1.800   3.981 -0.0671 -0.0003  0.1622
 3883SOL     OW15303   6.135   2.643   2.094  0.3036  0.4406 -0.2605
 3883SOL    HW215304   6.051   2.688   2.099 -0.6374 -1.1608 -0.6422
 3883SOL    HW315305   6.198   2.710   2.069 -0.6289  1.9267  1.1988
 3883SOL    MW415306   6.132   2.658   2.092  0.0564  0.4254 -0.1183
 3884SOL     OW15307   2.704   5.414   4.867 -0.8173 -0.0567 -0.3085
 3884SOL    HW215308   2.709   5.510   4.868  1.4513 -0.1186 -0.3940
 3884SOL    HW315309   2.701   5.389   4.959  0.8613  0.0752 -0.1838
 3884SOL    MW415310   2.705   5.424   4.879 -0.2965 -0.0475 -0.3034
 3885SOL     OW15311   3.676   2.392   2.414  0.0728  0.8000  0.2666
 3885SOL    HW215312   3.761   2.353   2.393 -0.1437  0.4554  0.0122
 3885SOL    HW315313   3.635   2.329   2.474  0.0157  0.9859  0.4239
 3885SOL    MW415314   3.682   2.379   2.419  0.0367  0.7790  0.2538
 3886SOL     OW15315   2.549   2.157   5.440  0.1852  0.5631 -0.3848
 3886SOL    HW215316   2.594   2.213   5.377  0.3420 -0.3394 -1.1015
 3886SOL    HW315317   2.457   2.185   5.436  0.2287  0.6496 -0.8717
 3886SOL    MW415318   2.543   2.168   5.431  0.2117  0.4554 -0.5436
 3887SOL     OW15319   6.223   2.397   5.929 -0.4656  0.0764 -0.7754
 3887SOL    HW215320   6.215   2.424   6.020  0.9994  0.3292 -0.6916
 3887SOL    HW315321   6.310   2.428   5.902  0.1491 -2.1135 -1.5366
 3887SOL    MW415322   6.233   2.405   5.937 -0.1912 -0.1792 -0.8648
 3888SOL     OW15323   5.105   0.558   2.517  0.4045 -0.0689 -0.0351
 3888SOL    HW215324   5.033   0.508   2.480  1.1310 -0.1022 -1.4835
 3888SOL    HW315325   5.072   0.648   2.523 -0.0341 -0.2376  0.1208
 3888SOL    MW415326   5.091   0.563   2.513  0.4425 -0.0955 -0.2056
 3889SOL     OW15327   6.312   3.453   5.761  0.1531  0.2948 -0.0244
 3889SOL    HW215328   6.357   3.376   5.727 -1.3931 -0.9246  0.5369
 3889SOL    HW315329   6.342   3.525   5.706  1.8038 -0.6472 -0.4382
 3889SOL    MW415330   6.322   3.452   5.750  0.1669  0.0097 -0.0049
 3890SOL     OW15331   1.873   2.192   1.820  0.1473 -0.0958  0.0406
 3890SOL    HW215332   1.882   2.224   1.730  0.5558  2.6201  0.9698
 3890SOL    HW315333   1.962   2.183   1.851  0.0037  0.4511  0.6334
 3890SOL    MW415334   1.886   2.195   1.812  0.1822  0.3347  0.2415
 3891SOL     OW15335   1.197   5.135   1.508  0.0742 -0.6820  0.1486
 3891SOL    HW215336   1.113   5.118   1.465 -0.9888 -0.0214  1.8312
 3891SOL    HW315337   1.235   5.048   1.520  1.1008 -0.8382 -3.2303
 3891SOL    MW415338   1.191   5.121   1.504  0.0694 -0.6154 -0.0752
 3892SOL     OW15339   4.936   5.105   5.323 -0.4858 -0.3170  1.1351
 3892SOL    HW215340   4.983   5.025   5.343 -0.7076 -0.5500  0.7378
 3892SOL    HW315341   5.000   5.175   5.337 -0.0829 -0.6139  0.7864
 3892SOL    MW415342   4.950   5.104   5.328 -0.4619 -0.3869  1.0367
 3893SOL     OW15343   3.829   1.074   5.845  0.2074  0.3038 -0.0090
 3893SOL    HW215344   3.907   1.025   5.869 -0.0550 -0.0011  0.2284
 3893SOL    HW315345   3.791   1.102   5.928 -0.8744 -1.0183 -0.0274
 3893SOL    MW415346   3.834   1.071   5.859  0.0300  0.0891  0.0199
 3894SOL     OW15347   2.685   1.967   1.557 -0.4452 -0.6330 -0.4783
 3894SOL    HW215348   2.763   1.915   1.576  0.0115 -0.1040 -0.8665
 3894SOL    HW315349   2.659   1.940   1.469  0.9073  1.1210 -1.4631
 3894SOL    MW415350   2.691   1.956   1.548 -0.2065 -0.3318 -0.6594
 3895SOL     OW15351   5.174   0.162   2.025 -0.5188 -0.0656  0.3740
 3895SOL    HW215352   5.190   0.071   2.049  2.5713  0.5617  1.1645
 3895SOL    HW315353   5.188   0.165   1.931  1.1733 -0.1722  0.5848
 3895SOL    MW415354   5.178   0.150   2.016  0.1122  0.0031  0.5061
 3896SOL     OW15355   3.202   6.035   0.347 -0.4462 -0.5330 -0.3143
 3896SOL    HW215356   3.277   6.092   0.366 -0.1930 -0.8695 -0.3005
 3896SOL    HW315357   3.129   6.074   0.395  0.3172 -1.7718  2.0176
 3896SOL    MW415358   3.203   6.048   0.356 -0.3120 -0.7408 -0.0048
 3897SOL     OW15359   4.175   1.972   6.224 -0.3381 -0.2726 -0.4569
 3897SOL    HW215360   4.254   1.918   6.215 -0.2024 -0.4264  1.2004
 3897SOL    HW315361   4.103   1.913   6.202 -0.2050 -1.2821  1.5378
 3897SOL    MW415362   4.176   1.957   6.220 -0.3027 -0.4261  0.0249
 3898SOL     OW15363   4.437   0.749   1.222  0.5930  0.4674  0.1274
 3898SOL    HW215364   4.419   0.655   1.224 -0.6348  0.6349 -1.4095
 3898SOL    HW315365   4.405   0.778   1.137 -0.2856  2.5176  1.0947
 3898SOL    MW415366   4.431   0.740   1.211  0.3151  0.7600  0.0522
 3899SOL     OW15367   5.822   5.962   5.588  0.1722 -0.0422 -0.1073
 3899SOL    HW215368   5.777   5.907   5.524 -1.9269  0.8481  0.5120
 3899SOL    HW315369   5.872   6.025   5.535 -0.3740 -0.2259 -0.8498
 3899SOL    MW415370   5.823   5.963   5.573 -0.1768  0.0511 -0.1236
 3900SOL     OW15371   2.301   5.726   0.824  0.8275  0.4168  0.0910
 3900SOL    HW215372   2.388   5.758   0.847  0.8413  0.4447  0.0003
 3900SOL    HW315373   2.260   5.800   0.779  0.6753  0.4828  0.3331
 3900SOL    MW415374   2.307   5.740   0.821  0.8092  0.4292  0.1110
 3901SOL     OW15375   4.063   5.765   0.149 -0.2721 -0.1715 -0.0089
 3901SOL    HW215376   4.029   5.733   0.065  2.8679 -0.1419 -1.3967
 3901SOL    HW315377   4.079   5.686   0.200 -0.6757 -0.2736 -0.0334
 3901SOL    MW415378   4.060   5.750   0.145  0.0890 -0.1811 -0.1952
 3902SOL     OW15379   1.157   5.745   0.676  0.1357  0.6769 -0.5917
 3902SOL    HW215380   1.194   5.791   0.751 -0.9666 -0.5355  0.7598
 3902SOL    HW315381   1.091   5.805   0.640 -1.3654  0.1749  1.2090
 3902SOL    MW415382   1.153   5.759   0.681 -0.2078  0.4507 -0.1758
 3903SOL     OW15383   1.349   5.744   4.507  0.0850 -0.5561  0.1034
 3903SOL    HW215384   1.345   5.700   4.592 -1.5460  1.4768  1.1672
 3903SOL    HW315385   1.443   5.751   4.489  0.4744 -0.9784  1.7760
 3903SOL    MW415386   1.361   5.739   4.516 -0.0788 -0.3436  0.4644
 3904SOL     OW15387   0.527   4.992   0.653  0.0853  0.3240 -0.1493
 3904SOL    HW215388   0.463   4.923   0.671 -0.4898  0.8713 -0.0751
 3904SOL    HW315389   0.514   5.015   0.561  1.3147 -0.7114 -0.6134
 3904SOL    MW415390   0.517   4.986   0.643  0.1716  0.2596 -0.2007
 3905SOL     OW15391   3.439   5.953   4.067  0.0138  0.2597  0.1561
 3905SOL    HW215392   3.425   5.940   4.160 -1.0192  1.0967  0.1392
 3905SOL    HW315393   3.359   5.995   4.036  0.0097 -0.6961 -1.2631
 3905SOL    MW415394   3.426   5.957   4.075 -0.1230  0.2440 -0.0333
 3906SOL     OW15395   2.537   5.851   0.807  0.2540 -0.0794  0.5456
 3906SOL    HW215396   2.584   5.935   0.805  0.8886 -0.3839  1.8323
 3906SOL    HW315397   2.579   5.799   0.739  0.5857  0.2687  0.4764
 3906SOL    MW415398   2.548   5.855   0.798  0.3815 -0.0736  0.7062
 3907SOL     OW15399   2.019   4.573   0.096 -0.1553 -0.1666 -0.3582
 3907SOL    HW215400   2.085   4.602   0.158 -0.6126 -0.9549  0.5303
 3907SOL    HW315401   1.939   4.617   0.124 -0.3100 -0.3259 -0.5453
 3907SOL    MW415402   2.017   4.583   0.108 -0.2361 -0.2916 -0.2657
 3908SOL     OW15403   2.454   0.969   1.815 -0.2326  0.2963  0.1399
 3908SOL    HW215404   2.531   1.004   1.859  0.2354 -0.8616  0.2860
 3908SOL    HW315405   2.461   0.999   1.725  0.6875 -0.2515  0.0198
 3908SOL    MW415406   2.465   0.977   1.809 -0.0495  0.0712  0.1433
 3909SOL     OW15407   3.969   1.297   0.016  0.5289 -0.1407  0.0107
 3909SOL    HW215408   4.034   1.244   0.062 -0.7363 -2.0624 -0.2825
 3909SOL    HW315409   3.934   1.239  -0.052 -0.9192  1.0870 -0.3618
 3909SOL    MW415410   3.973   1.282   0.013  0.1709 -0.2323 -0.0772
 3910SOL     OW15411   3.628   1.322   4.310  0.0030 -0.1864 -0.8617
 3910SOL    HW215412   3.722   1.315   4.324  0.2592 -1.0402 -2.7109
 3910SOL    HW315413   3.590   1.321   4.398  1.7840  1.8291  0.0216
 3910SOL    MW415414   3.635   1.321   4.323  0.2718 -0.0331 -0.9891
 3911SOL     OW15415   3.585   3.873   2.333  0.1445  0.3515 -0.7725
 3911SOL    HW215416   3.571   3.873   2.239  1.2556 -2.3940 -1.0338
 3911SOL    HW315417   3.500   3.896   2.371 -0.1667  2.1003 -2.3982
 3911SOL    MW415418   3.572   3.876   2.326  0.2500  0.2200 -1.0215
 3912SOL     OW15419   1.572   5.777   0.594 -0.4321 -0.4729 -0.6012
 3912SOL    HW215420   1.661   5.758   0.564 -0.0631  0.0108  0.1638
 3912SOL    HW315421   1.580   5.859   0.642 -1.4263 -0.0374 -1.1432
 3912SOL    MW415422   1.585   5.785   0.596 -0.5146 -0.3516 -0.5718
 3913SOL     OW15423   6.298   3.666   4.426  0.1334 -0.1874  0.2271
 3913SOL    HW215424   6.318   3.697   4.514 -0.6603  0.6179  0.1419
 3913SOL    HW315425   6.211   3.701   4.407 -0.0857 -1.0980 -0.5356
 3913SOL    MW415426   6.289   3.675   4.435 -0.0002 -0.2013  0.1152
 3914SOL     OW15427   3.395   0.265   1.400  0.2071 -0.7508 -0.5100
 3914SOL    HW215428   3.310   0.223   1.397 -1.0646  1.7008 -1.1834
 3914SOL    HW315429   3.380   0.354   1.368  2.6234  0.4090  1.2089
 3914SOL    MW415430   3.382   0.271   1.395  0.3581 -0.2743 -0.3721
 3915SOL     OW15431   2.957   4.977   0.672  0.0880 -0.5879 -0.7286
 3915SOL    HW215432   2.929   4.923   0.598  0.6323  0.7370 -1.9449
 3915SOL    HW315433   2.883   4.973   0.734 -0.7878 -0.9419 -1.7714
 3915SOL    MW415434   2.943   4.969   0.671  0.0443 -0.4598 -1.0266
 3916SOL     OW15435   0.713   3.278   1.003 -0.5479  0.6215  0.2024
 3916SOL    HW215436   0.785   3.336   0.978 -0.5003  1.3104  1.8093
 3916SOL    HW315437   0.757   3.199   1.036 -0.5992 -0.0027 -1.1613
 3916SOL    MW415438   0.729   3.275   1.004 -0.5484  0.6300  0.2345
 3917SOL     OW15439   2.983   6.146   3.505  0.0145  0.1745 -0.2831
 3917SOL    HW215440   2.993   6.224   3.560  2.4950  0.1531 -0.6212
 3917SOL    HW315441   2.997   6.072   3.564  0.3202  0.0716 -0.4856
 3917SOL    MW415442   2.986   6.147   3.520  0.3821  0.1581 -0.3544
 3918SOL     OW15443   0.469   1.119   4.804 -0.2422  0.3099 -0.2985
 3918SOL    HW215444   0.459   1.038   4.755  0.7721  1.1482 -2.0124
 3918SOL    HW315445   0.446   1.188   4.742 -0.7383  1.3595  1.0005
 3918SOL    MW415446   0.465   1.117   4.790 -0.1738  0.5590 -0.3532
 3919SOL     OW15447   0.459   3.034   3.224  0.5685 -0.4450 -0.7949
 3919SOL    HW215448   0.453   3.005   3.133  3.9846 -3.4003 -0.3052
 3919SOL    HW315449   0.387   2.989   3.268 -0.1440 -0.2529 -1.7405
 3919SOL    MW415450   0.448   3.024   3.218  0.9252 -0.8096 -0.8550
 3920SOL     OW15451   6.060   6.209   3.226  0.4144  0.2233  0.1506
 3920SOL    HW215452   5.999   6.263   3.176 -0.5759 -0.5234  0.5130
 3920SOL    HW315453   6.126   6.270   3.260  1.3132  0.7313 -2.2877
 3920SOL    MW415454   6.061   6.224   3.224  0.4024  0.1918 -0.1233
 3921SOL     OW15455   3.728   4.066   5.008 -0.4298  0.2583 -0.1254
 3921SOL    HW215456   3.688   4.151   5.025  0.8455  0.6647  0.9809
 3921SOL    HW315457   3.755   4.070   4.916 -2.3020  0.2022 -0.7127
 3921SOL    MW415458   3.726   4.078   4.998 -0.5086  0.3045 -0.0569
 3922SOL     OW15459   1.040   2.887   5.325  0.5670 -0.1411 -0.3792
 3922SOL    HW215460   1.071   2.797   5.318 -1.3584 -0.9893  0.8793
 3922SOL    HW315461   1.024   2.915   5.235  1.8039 -0.8060 -0.8214
 3922SOL    MW415462   1.042   2.879   5.312  0.4762 -0.3407 -0.2715
 3923SOL     OW15463   4.420   5.559   3.375  0.4203  0.2973  0.3864
 3923SOL    HW215464   4.375   5.542   3.458  0.0975 -2.5057 -0.2523
 3923SOL    HW315465   4.491   5.496   3.373 -0.0730 -0.2864 -1.8028
 3923SOL    MW415466   4.423   5.549   3.386  0.3127 -0.1496  0.0133
 3924SOL     OW15467   3.521   0.622   2.353  0.0738 -0.1201 -0.6804
 3924SOL    HW215468   3.546   0.673   2.430  0.0728 -0.6241 -0.3377
 3924SOL    HW315469   3.597   0.627   2.295  1.5312 -2.5757  0.8328
 3924SOL    MW415470   3.534   0.629   2.356  0.2660 -0.5106 -0.4355
 3925SOL     OW15471   5.269   4.885   3.561 -0.5448 -0.3520 -0.1979
 3925SOL    HW215472   5.245   4.939   3.485 -1.6241  0.7093  0.8490
 3925SOL    HW315473   5.208   4.811   3.558 -0.5766 -0.3185 -0.3696
 3925SOL    MW415474   5.257   4.882   3.550 -0.6914 -0.2076 -0.0824
 3926SOL     OW15475   1.315   1.983   3.330  0.3520 -0.1538  0.1934
 3926SOL    HW215476   1.307   2.065   3.379 -0.6532 -0.1029 -0.0394
 3926SOL    HW315477   1.281   2.003   3.243 -0.1080 -0.8763  0.2010
 3926SOL    MW415478   1.310   1.997   3.325  0.1587 -0.2424  0.1637
 3927SOL     OW15479   5.555   4.807   5.650 -0.2901 -0.2265  0.0959
 3927SOL    HW215480   5.485   4.829   5.589 -1.7321 -0.3238  1.6400
 3927SOL    HW315481   5.629   4.861   5.622 -1.5729  1.3534 -0.4070
 3927SOL    MW415482   5.555   4.817   5.638 -0.6496 -0.0309  0.2333
 3928SOL     OW15483   4.773   3.160   2.004 -0.0069  0.7067  0.1210
 3928SOL    HW215484   4.683   3.133   2.024 -0.1261 -0.0587 -1.2996
 3928SOL    HW315485   4.807   3.089   1.949  0.4400  2.4033 -1.9060
 3928SOL    MW415486   4.766   3.147   1.999  0.0363  0.8296 -0.3339
 3929SOL     OW15487   5.283   2.845   2.806 -0.2254  0.3757 -0.9157
 3929SOL    HW215488   5.356   2.858   2.867 -1.5594  0.9743  0.6047
 3929SOL    HW315489   5.283   2.923   2.751 -0.6169  1.0715  0.0554
 3929SOL    MW415490   5.293   2.857   2.807 -0.4530  0.5465 -0.5870
 3930SOL     OW15491   5.873   4.669   3.717  1.0156  0.8768  0.1007
 3930SOL    HW215492   5.876   4.588   3.666  1.6081  1.6426 -1.1276
 3930SOL    HW315493   5.866   4.640   3.807 -0.1098 -0.5336 -0.3983
 3930SOL    MW415494   5.872   4.655   3.722  0.9453  0.7918 -0.1272
 3931SOL     OW15495   2.632   4.831   4.781  0.4169 -0.0391  0.0922
 3931SOL    HW215496   2.722   4.801   4.770  1.2622  1.8697  1.3280
 3931SOL    HW315497   2.635   4.924   4.759 -1.5572 -0.2211 -1.1511
 3931SOL    MW415498   2.644   4.839   4.777  0.2679  0.1888  0.0912
 3932SOL     OW15499   1.269   4.980   1.921  0.1763 -0.1654 -0.6398
 3932SOL    HW215500   1.315   5.061   1.902  0.8137 -0.8147 -1.9867
 3932SOL    HW315501   1.177   5.001   1.906  0.1037  0.7861  0.8368
 3932SOL    MW415502   1.263   4.993   1.917  0.2508 -0.1255 -0.6227
 3933SOL     OW15503   1.461   2.054   4.222  0.3558  0.1191 -0.3272
 3933SOL    HW215504   1.556   2.064   4.213  0.4580  2.4380  2.1314
 3933SOL    HW315505   1.425   2.138   4.193 -0.9036 -0.4809 -0.5692
 3933SOL    MW415506   1.469   2.066   4.217  0.2031  0.3459 -0.0348
 3934SOL     OW15507   4.356   4.587   2.050 -0.3004 -0.1121  0.0286
 3934SOL    HW215508   4.272   4.625   2.024 -0.0769  0.0168 -0.5265
 3934SOL    HW315509   4.334   4.504   2.091 -0.7660  0.3998  0.8436
 3934SOL    MW415510   4.342   4.581   2.052 -0.3324 -0.0276  0.0629
 3935SOL     OW15511   0.616   2.697   0.471  0.6607  0.0172  0.1067
 3935SOL    HW215512   0.558   2.636   0.517  0.2725 -0.7501 -1.3474
 3935SOL    HW315513   0.666   2.740   0.541 -0.4744 -0.5108  1.2811
 3935SOL    MW415514   0.615   2.695   0.486  0.4597 -0.1537  0.0698
 3936SOL     OW15515   2.543   5.953   6.262  0.4886  0.6239  0.0299
 3936SOL    HW215516   2.576   6.031   6.307 -0.4840  0.8639  0.3691
 3936SOL    HW315517   2.539   5.886   6.330  0.9423  0.3983 -0.1681
 3936SOL    MW415518   2.547   5.954   6.277  0.4202  0.6258  0.0485
 3937SOL     OW15519   0.683   3.955   3.368  0.1216  0.5800 -0.0237
 3937SOL    HW215520   0.609   4.012   3.347 -1.1884 -1.8346 -2.5787
 3937SOL    HW315521   0.732   3.948   3.286  0.6588 -1.3383  0.4151
 3937SOL    MW415522   0.680   3.961   3.355  0.0196  0.0083 -0.3029
 3938SOL     OW15523   2.020   2.244   2.610 -0.0153 -0.0947 -0.1371
 3938SOL    HW215524   2.071   2.166   2.591 -1.6636 -1.5121  0.9370
 3938SOL    HW315525   2.020   2.251   2.705 -0.0792  1.1074 -0.2078
 3938SOL    MW415526   2.026   2.235   2.620 -0.2412 -0.1231 -0.0047
 3939SOL     OW15527   1.342   2.634   3.591  0.0958 -0.3510  0.5133
 3939SOL    HW215528   1.407   2.626   3.521 -0.3360  0.8691 -0.0486
 3939SOL    HW315529   1.367   2.713   3.638  0.7076 -1.4480  2.1159
 3939SOL    MW415530   1.354   2.644   3.588  0.1195 -0.3348  0.6506
 3940SOL     OW15531   5.646   5.036   2.957  0.0038  0.0575  0.3521
 3940SOL    HW215532   5.576   5.070   3.013 -2.0939 -3.0229 -0.1510
 3940SOL    HW315533   5.648   5.096   2.883 -3.8852 -0.9408 -0.7804
 3940SOL    MW415534   5.637   5.048   2.955 -0.7860 -0.4806  0.1363
 3941SOL     OW15535   3.248   5.450   1.882  0.1342  0.5768 -0.8587
 3941SOL    HW215536   3.290   5.367   1.904 -0.5986  0.0123 -1.4964
 3941SOL    HW315537   3.227   5.489   1.967  0.3741  0.0470 -0.5468
 3941SOL    MW415538   3.251   5.444   1.896  0.0692  0.4324 -0.9017
 3942SOL     OW15539   3.690   3.497   4.105  0.4810  0.3948  0.1183
 3942SOL    HW215540   3.672   3.444   4.027 -1.2945 -0.0751  0.7889
 3942SOL    HW315541   3.780   3.474   4.129  0.2118 -1.3530 -0.3592
 3942SOL    MW415542   3.699   3.487   4.098  0.2112  0.1022  0.1438
 3943SOL     OW15543   2.205   2.719   0.304  0.1067  0.8200  0.1640
 3943SOL    HW215544   2.192   2.781   0.232  0.5713  0.0011 -0.6563
 3943SOL    HW315545   2.197   2.633   0.262  0.1488  0.3252  1.1505
 3943SOL    MW415546   2.202   2.716   0.289  0.1735  0.6467  0.1860
 3944SOL     OW15547   3.573   5.520   1.168 -0.0761  0.4383  0.3847
 3944SOL    HW215548   3.563   5.544   1.076  0.6629 -0.0214  0.1747
 3944SOL    HW315549   3.610   5.597   1.210 -1.8658  1.2243  0.6460
 3944SOL    MW415550   3.576   5.533   1.161 -0.2147  0.4814  0.3915
 3945SOL     OW15551   0.858   2.793   6.403  0.0261 -0.2945  0.0173
 3945SOL    HW215552   0.770   2.784   6.368  0.7416  1.4066 -2.4336
 3945SOL    HW315553   0.853   2.869   6.462 -0.0804 -0.0154 -0.3512
 3945SOL    MW415554   0.846   2.802   6.406  0.1065 -0.0332 -0.3547
 3946SOL     OW15555   0.556   0.930   4.509 -0.5884  0.3065 -0.0171
 3946SOL    HW215556   0.464   0.929   4.538 -0.6206 -0.2099 -0.1372
 3946SOL    HW315557   0.563   0.857   4.448 -0.1271  0.4301 -0.1149
 3946SOL    MW415558   0.544   0.920   4.505 -0.5318  0.2547 -0.0458
 3947SOL     OW15559   3.895   0.942   0.155  0.0426 -0.2707  0.0225
 3947SOL    HW215560   3.898   0.977   0.066 -0.1588  0.0375  0.1391
 3947SOL    HW315561   3.981   0.901   0.167  0.9418  1.6590  0.4849
 3947SOL    MW415562   3.907   0.941   0.145  0.1347  0.0246  0.0989
 3948SOL     OW15563   5.423   2.084   2.059 -0.5551  0.6345  0.0698
 3948SOL    HW215564   5.331   2.068   2.037  0.2757 -1.2022 -2.6739
 3948SOL    HW315565   5.453   2.001   2.096  0.1883  0.9717  0.2302
 3948SOL    MW415566   5.415   2.071   2.061 -0.3474  0.4367 -0.2711
 3949SOL     OW15567   2.611   3.166   3.148 -0.0752  0.2587  0.2440
 3949SOL    HW215568   2.683   3.116   3.109  0.0632 -0.1449  0.9994
 3949SOL    HW315569   2.615   3.145   3.242  0.9637  2.8996  0.8708
 3949SOL    MW415570   2.621   3.157   3.155  0.0801  0.5539  0.4264
 3950SOL     OW15571   1.559   0.303   5.647 -0.0533 -0.2223  0.0737
 3950SOL    HW215572   1.560   0.342   5.560 -2.7384  0.7806  0.3911
 3950SOL    HW315573   1.618   0.358   5.699  1.5713 -0.8319 -1.0516
 3950SOL    MW415574   1.567   0.316   5.643 -0.1932 -0.1704 -0.0329
 3951SOL     OW15575   4.287   5.887   0.366  0.0776 -0.1557  0.3789
 3951SOL    HW215576   4.262   5.862   0.277  0.2979 -0.1541  0.3156
 3951SOL    HW315577   4.349   5.959   0.354  1.4300 -1.2623  0.4631
 3951SOL    MW415578   4.292   5.893   0.353  0.2851 -0.3015  0.3817
 3952SOL     OW15579   1.637   1.972   4.917  0.0575  0.2229  0.4590
 3952SOL    HW215580   1.674   1.887   4.894 -0.1406  0.2380  0.0795
 3952SOL    HW315581   1.542   1.960   4.910  0.0187  0.3998  0.6668
 3952SOL    MW415582   1.630   1.959   4.913  0.0262  0.2482  0.4364
 3953SOL     OW15583   4.290   3.892   5.729  0.1646 -0.0275  0.1836
 3953SOL    HW215584   4.260   3.813   5.776  0.9778 -0.4239  0.0550
 3953SOL    HW315585   4.294   3.865   5.637 -0.6852  0.5209 -0.0227
 3953SOL    MW415586   4.287   3.878   5.723  0.1597 -0.0074  0.1394
 3954SOL     OW15587   4.365   5.220   1.593  0.2527  0.6305 -0.3113
 3954SOL    HW215588   4.413   5.137   1.590  0.2412  0.5844  0.4743
 3954SOL    HW315589   4.431   5.285   1.616  0.5599  1.1033 -2.3339
 3954SOL    MW415590   4.380   5.217   1.596  0.2917  0.6868 -0.4745
 3955SOL     OW15591   2.632   3.390   0.009 -0.0732 -0.2312 -0.2662
 3955SOL    HW215592   2.577   3.351   0.077 -0.0717  1.0511  0.5061
 3955SOL    HW315593   2.721   3.367   0.035 -0.1782 -1.7654 -1.1683
 3955SOL    MW415594   2.637   3.382   0.022 -0.0868 -0.2645 -0.2833
 3956SOL     OW15595   5.473   5.967   3.047 -0.2037 -0.5373 -0.1238
 3956SOL    HW215596   5.508   6.022   3.117 -1.2285 -0.1750  0.1163
 3956SOL    HW315597   5.387   6.005   3.027 -1.6855 -2.9491  1.1688
 3956SOL    MW415598   5.466   5.979   3.054 -0.5344 -0.8077  0.0785
 3957SOL     OW15599   5.594   1.300   0.609  0.3385  0.4208 -0.0518
 3957SOL    HW215600   5.568   1.265   0.695 -1.1118 -0.6660 -0.8822
 3957SOL    HW315601   5.616   1.223   0.557 -0.5915  0.8960 -1.2011
 3957SOL    MW415602   5.593   1.285   0.614  0.0244  0.3401 -0.3130
 3958SOL     OW15603   5.141   5.034   4.174  0.3938  0.4030  0.4524
 3958SOL    HW215604   5.178   5.026   4.086  2.7077  0.9677  1.2901
 3958SOL    HW315605   5.049   5.011   4.163  0.4491  1.0301 -2.2194
 3958SOL    MW415606   5.133   5.030   4.161  0.7064  0.5602  0.2104
 3959SOL     OW15607   0.555   2.196   3.872 -0.3628 -0.4356  0.1961
 3959SOL    HW215608   0.595   2.281   3.887  0.0741 -0.2434 -1.7747
 3959SOL    HW315609   0.537   2.194   3.777  0.8638 -3.0427 -0.0736
 3959SOL    MW415610   0.558   2.207   3.861 -0.1433 -0.7542 -0.0995
 3960SOL     OW15611   3.183   5.526   3.082  0.2023  0.0731  0.8341
 3960SOL    HW215612   3.210   5.588   3.150  1.6112  0.5433 -0.1017
 3960SOL    HW315613   3.201   5.440   3.119 -0.4820  0.2647  1.6255
 3960SOL    MW415614   3.189   5.523   3.096  0.2979  0.1604  0.8150
 3961SOL     OW15615   3.268   4.769   2.114 -0.2039  0.1911  0.2585
 3961SOL    HW215616   3.188   4.821   2.109 -0.4538 -0.3252 -3.1001
 3961SOL    HW315617   3.330   4.825   2.162 -1.1711  2.6076 -1.1372
 3961SOL    MW415618   3.266   4.783   2.120 -0.3645  0.4418 -0.3688
 3962SOL     OW15619   2.051   4.404   6.032  0.2161  0.6451 -0.3554
 3962SOL    HW215620   1.965   4.374   6.059 -1.4577  3.5713 -1.8676
 3962SOL    HW315621   2.072   4.475   6.093  2.7061 -1.4310  1.3989
 3962SOL    MW415622   2.043   4.410   6.043  0.3238  0.7572 -0.3235
 3963SOL     OW15623   4.444   4.224   0.485  0.4434 -0.3671  0.2533
 3963SOL    HW215624   4.430   4.204   0.392  0.2841 -0.0862  0.2158
 3963SOL    HW315625   4.513   4.290   0.485  0.1206 -0.0224  0.3053
 3963SOL    MW415626   4.451   4.230   0.472  0.3798 -0.2846  0.2552
 3964SOL     OW15627   3.949   6.321   3.598  0.3754  0.4045  0.0147
 3964SOL    HW215628   4.007   6.302   3.672 -1.0310 -1.1503  0.7909
 3964SOL    HW315629   3.932   6.415   3.605  0.7949  0.4122  1.3090
 3964SOL    MW415630   3.954   6.331   3.609  0.2452  0.2004  0.2879
 3965SOL     OW15631   4.811   6.179   3.967  0.0868  0.2541 -0.3827
 3965SOL    HW215632   4.890   6.184   4.021  0.2740  0.6823 -0.6933
 3965SOL    HW315633   4.791   6.270   3.945 -1.2117  0.2666  0.7215
 3965SOL    MW415634   4.819   6.192   3.971 -0.0598  0.3122 -0.2780
 3966SOL     OW15635   5.787   4.702   0.713 -0.0329  0.3204 -0.7888
 3966SOL    HW215636   5.760   4.626   0.765 -0.4098 -0.0046 -1.4423
 3966SOL    HW315637   5.705   4.736   0.678  0.2932 -0.0240 -1.9243
 3966SOL    MW415638   5.772   4.696   0.716 -0.0396  0.2320 -1.0249
 3967SOL     OW15639   0.514   3.736   0.656  0.3126  0.7084 -0.1632
 3967SOL    HW215640   0.418   3.729   0.650  0.2993 -0.3245  0.9545
 3967SOL    HW315641   0.539   3.778   0.574 -0.8188 -1.9587 -2.0228
 3967SOL    MW415642   0.504   3.740   0.644  0.1616  0.2202 -0.2611
 3968SOL     OW15643   0.430   5.172   2.949  0.0687 -0.1283 -0.2551
 3968SOL    HW215644   0.368   5.108   2.984 -1.1032  1.4253  0.6525
 3968SOL    HW315645   0.496   5.182   3.017  0.4873 -0.6376 -0.5723
 3968SOL    MW415646   0.431   5.165   2.963 -0.0307  0.0095 -0.1772
 3969SOL     OW15647   4.395   6.420   4.552 -0.2887 -0.2703  0.0986
 3969SOL    HW215648   4.412   6.488   4.487  0.8140 -0.7576 -0.1512
 3969SOL    HW315649   4.334   6.460   4.614 -0.4388  0.5963 -0.5942
 3969SOL    MW415650   4.389   6.434   4.551 -0.1630 -0.2202 -0.0258
 3970SOL     OW15651   1.504   1.667   3.009  0.4957 -0.2585 -0.2273
 3970SOL    HW215652   1.519   1.742   2.952 -1.0881  0.1097 -0.1848
 3970SOL    HW315653   1.564   1.681   3.083 -0.2040  1.2935  0.0767
 3970SOL    MW415654   1.514   1.679   3.011  0.1944 -0.0052 -0.1816
 3971SOL     OW15655   5.388   5.422   2.309 -0.1229 -0.0107  0.0472
 3971SOL    HW215656   5.391   5.509   2.269  0.8576 -0.0303  0.0594
 3971SOL    HW315657   5.338   5.369   2.247  0.6987  0.1594 -0.7859
 3971SOL    MW415658   5.382   5.427   2.296  0.1149  0.0092 -0.0611
 3972SOL     OW15659   3.307   0.907   4.935  0.0717 -0.2004 -0.0609
 3972SOL    HW215660   3.362   0.874   4.864 -0.4487 -0.9409 -0.1345
 3972SOL    HW315661   3.249   0.834   4.956 -0.9829  0.6031 -0.0899
 3972SOL    MW415662   3.306   0.893   4.929 -0.1361 -0.1921 -0.0744
 3973SOL     OW15663   3.954   5.012   3.332 -0.4681  0.4368 -0.2149
 3973SOL    HW215664   3.907   5.095   3.341 -2.5947 -0.7322  0.0720
 3973SOL    HW315665   3.900   4.960   3.273  1.4422 -0.3568 -1.3488
 3973SOL    MW415666   3.941   5.016   3.326 -0.4967  0.1778 -0.3267
 3974SOL     OW15667   4.926   6.007   3.358  0.3838 -0.1998  0.1548
 3974SOL    HW215668   4.913   5.916   3.382 -1.7065  0.0579  0.1642
 3974SOL    HW315669   4.840   6.048   3.367  0.8916  1.3967 -1.4517
 3974SOL    MW415670   4.913   6.001   3.362  0.1750  0.0449 -0.0559
 3975SOL     OW15671   2.574   0.099   4.395  0.2951  0.3570  0.5028
 3975SOL    HW215672   2.607   0.016   4.431  0.5213 -0.7444 -1.9604
 3975SOL    HW315673   2.644   0.129   4.337 -1.1260  0.4365 -1.2618
 3975SOL    MW415674   2.587   0.092   4.392  0.1374  0.2222 -0.0550
 3976SOL     OW15675   1.230   3.388   5.990  0.2330 -0.9169  0.6090
 3976SOL    HW215676   1.320   3.359   6.006 -0.4557 -2.3543  2.1947
 3976SOL    HW315677   1.212   3.450   6.060  0.6900  1.1918 -1.0438
 3976SOL    MW415678   1.240   3.392   6.001  0.2025 -0.8284  0.6001
 3977SOL     OW15679   3.822   0.096   0.869 -0.5455 -0.2981 -0.0089
 3977SOL    HW215680   3.768   0.144   0.932 -0.2222 -0.0691  0.0977
 3977SOL    HW315681   3.814   0.004   0.895 -1.2665 -0.3190 -0.2893
 3977SOL    MW415682   3.814   0.090   0.880 -0.5980 -0.2706 -0.0318
 3978SOL     OW15683   5.277   3.433   0.220  0.3329 -0.0460  0.4150
 3978SOL    HW215684   5.299   3.342   0.201 -1.9759 -0.4540 -0.5992
 3978SOL    HW315685   5.182   3.433   0.236  0.2040  2.2321  0.0226
 3978SOL    MW415686   5.267   3.421   0.220  0.0112  0.2007  0.2294
 3979SOL     OW15687   5.850   5.005   2.094  0.1481  0.2851 -0.0333
 3979SOL    HW215688   5.934   5.027   2.135 -0.5835 -0.3770  1.9162
 3979SOL    HW315689   5.873   4.979   2.005  1.8730  1.2444  0.0929
 3979SOL    MW415690   5.864   5.005   2.088  0.2791  0.3243  0.2405
 3980SOL     OW15691   5.706   0.973   4.492  0.5655 -0.0342  0.4388
 3980SOL    HW215692   5.652   1.047   4.518  0.3841  0.0050 -0.0475
 3980SOL    HW315693   5.796   1.006   4.497  0.4638  0.3310 -0.1466
 3980SOL    MW415694   5.711   0.987   4.496  0.5281  0.0191  0.2974
 3981SOL     OW15695   0.025   6.297   1.743 -0.1096 -0.0142 -0.3590
 3981SOL    HW215696   0.033   6.220   1.800  0.0786 -0.2182 -0.6586
 3981SOL    HW315697   0.016   6.371   1.804 -0.3400 -0.2765 -0.0698
 3981SOL    MW415698   0.025   6.296   1.759 -0.1152 -0.0757 -0.3604
 3982SOL     OW15699   5.385   2.585   4.313 -0.3243  0.0824 -0.3111
 3982SOL    HW215700   5.433   2.631   4.382 -1.1945  0.0455  0.3358
 3982SOL    HW315701   5.293   2.611   4.327 -0.6618 -0.8881 -0.6906
 3982SOL    MW415702   5.379   2.595   4.324 -0.4837 -0.0505 -0.2758
 3983SOL     OW15703   4.151   1.756   1.624  0.4682  0.0646  0.6374
 3983SOL    HW215704   4.077   1.706   1.658 -0.1093  1.1898  1.1121
 3983SOL    HW315705   4.114   1.811   1.555  1.3903 -1.2514 -0.9658
 3983SOL    MW415706   4.136   1.757   1.620  0.5137  0.0394  0.4885
 3984SOL     OW15707   2.115   2.862   4.882  0.0705 -0.1327  0.2995
 3984SOL    HW215708   2.090   2.867   4.974 -2.2801 -0.1695 -0.2847
 3984SOL    HW315709   2.035   2.884   4.834  1.7509  1.9475 -1.7571
 3984SOL    MW415710   2.101   2.865   4.888 -0.0180  0.1369 -0.0489
 3985SOL     OW15711   1.707   0.825   5.669  0.1255 -0.0457 -0.2367
 3985SOL    HW215712   1.678   0.911   5.698  1.0068  0.7434 -1.6030
 3985SOL    HW315713   1.655   0.807   5.591 -0.0274 -0.7464  0.0192
 3985SOL    MW415714   1.697   0.834   5.662  0.2216 -0.0340 -0.3832
 3986SOL     OW15715   4.052   6.060   5.002 -0.4619 -0.0987  0.0162
 3986SOL    HW215716   4.102   5.979   5.009  0.4944  0.4184 -0.6462
 3986SOL    HW315717   4.038   6.089   5.092 -0.7085 -0.9290  0.2477
 3986SOL    MW415718   4.056   6.053   5.015 -0.3683 -0.1400 -0.0407
 3987SOL     OW15719   1.378   0.447   5.471 -0.0110 -0.1454  0.1096
 3987SOL    HW215720   1.357   0.518   5.532 -1.2976 -0.7393  0.4038
 3987SOL    HW315721   1.302   0.389   5.476 -0.3039 -0.0633 -2.2834
 3987SOL    MW415722   1.365   0.449   5.480 -0.2194 -0.2129 -0.1673
 3988SOL     OW15723   3.733   4.404   3.228 -0.0736  0.7789  0.3037
 3988SOL    HW215724   3.686   4.397   3.310  1.9309 -1.5277  1.4034
 3988SOL    HW315725   3.692   4.339   3.171  0.3589  0.3117  0.5150
 3988SOL    MW415726   3.722   4.394   3.231  0.2479  0.4129  0.4767
 3989SOL     OW15727   3.146   1.740   1.552 -0.2031 -0.0424  0.4727
 3989SOL    HW215728   3.111   1.769   1.468 -0.2451 -3.2038 -0.7620
 3989SOL    HW315729   3.191   1.816   1.588 -1.6044  1.8859 -1.6168
 3989SOL    MW415730   3.147   1.754   1.546 -0.3935 -0.2051  0.0341
 3990SOL     OW15731   0.658   4.481   1.208  0.5782  0.3313 -0.5588
 3990SOL    HW215732   0.704   4.562   1.188  3.9239 -1.1123  0.5861
 3990SOL    HW315733   0.724   4.412   1.197 -1.5760 -2.0424  0.3732
 3990SOL    MW415734   0.673   4.482   1.204  0.7354 -0.1723 -0.2848
 3991SOL     OW15735   5.172   5.670   4.305  0.5765  0.1937 -0.3788
 3991SOL    HW215736   5.249   5.645   4.355 -0.3204  0.1854  1.0632
 3991SOL    HW315737   5.171   5.766   4.308  0.7179  0.2071 -0.7063
 3991SOL    MW415738   5.182   5.679   4.312  0.4768  0.1944 -0.2318
 3992SOL     OW15739   5.651   2.255   1.312 -0.3014  0.1293  0.2325
 3992SOL    HW215740   5.666   2.181   1.252 -1.6809  0.9185 -1.1617
 3992SOL    HW315741   5.720   2.246   1.378 -1.2478 -3.2679  1.0022
 3992SOL    MW415742   5.662   2.244   1.313 -0.6083 -0.2148  0.1501
 3993SOL     OW15743   1.450   5.133   6.160 -0.3615 -0.3325 -0.2427
 3993SOL    HW215744   1.464   5.227   6.148  1.1114 -0.6214 -1.1149
 3993SOL    HW315745   1.438   5.123   6.254 -1.6100  0.8318 -0.2424
 3993SOL    MW415746   1.450   5.144   6.171 -0.3319 -0.2170 -0.3578
 3994SOL     OW15747   6.112   5.893   0.510  0.2681  0.2636  0.1817
 3994SOL    HW215748   6.030   5.882   0.558  0.2434 -0.1436  0.0577
 3994SOL    HW315749   6.170   5.826   0.546  0.3951  0.2494 -0.0454
 3994SOL    MW415750   6.109   5.882   0.521  0.2816  0.2080  0.1354
 3995SOL     OW15751   1.363   1.907   2.075  0.8500 -0.3289  0.2301
 3995SOL    HW215752   1.291   1.855   2.111  0.9608 -1.9795 -1.7349
 3995SOL    HW315753   1.425   1.915   2.147 -1.2471  1.2037  2.0074
 3995SOL    MW415754   1.361   1.901   2.089  0.5879 -0.3445  0.2053
 3996SOL     OW15755   2.176   6.070   5.256  0.2493 -0.5257 -0.3162
 3996SOL    HW215756   2.216   6.156   5.245 -2.3364  0.8694  0.2033
 3996SOL    HW315757   2.138   6.072   5.344 -1.8021 -1.2371 -1.1061
 3996SOL    MW415758   2.176   6.082   5.266 -0.3625 -0.4355 -0.3518
 3997SOL     OW15759   1.923   0.646   1.644  0.1522 -0.0614 -0.2671
 3997SOL    HW215760   1.859   0.587   1.684 -0.5508  2.1697  2.1671
 3997SOL    HW315761   1.872   0.697   1.581  0.0313  0.2425  0.0802
 3997SOL    MW415762   1.908   0.645   1.641  0.0435  0.2731  0.0999
 3998SOL     OW15763   4.865   2.303   0.680 -0.3957  0.1127  0.3438
 3998SOL    HW215764   4.825   2.242   0.742  2.0001 -1.5457  0.3932
 3998SOL    HW315765   4.916   2.362   0.735 -1.1130  0.9164  0.1588
 3998SOL    MW415766   4.867   2.303   0.695 -0.1742 -0.0001  0.3259
 3999SOL     OW15767   5.436   0.201   2.488 -0.1695  0.6404 -0.1561
 3999SOL    HW215768   5.399   0.195   2.576 -0.1804 -0.8386 -0.2328
 3999SOL    HW315769   5.394   0.278   2.449 -1.0791  0.6095  0.7167
 3999SOL    MW415770   5.425   0.210   2.494 -0.2909  0.4412 -0.0510
 4000SOL     OW15771   4.968   3.932   0.045  0.8188 -0.0256  0.1614
 4000SOL    HW215772   5.008   3.846   0.051  0.6394 -0.3963 -2.5708
 4000SOL    HW315773   5.020   3.978  -0.021  0.9857  2.0467  1.6341
 4000SOL    MW415774   4.980   3.927   0.037  0.8171  0.1989 -0.0048
 4001SOL     OW15775   6.134   5.955   6.044  0.5898  0.0826 -0.3136
 4001SOL    HW215776   6.156   6.048   6.051  0.8596  0.0821 -1.0727
 4001SOL    HW315777   6.081   5.949   5.964  2.1355 -0.6796 -1.3390
 4001SOL    MW415778   6.130   5.967   6.034  0.8293 -0.0180 -0.5491
 4002SOL     OW15779   0.072   1.236   1.438  0.0988 -0.2427 -0.5839
 4002SOL    HW215780   0.032   1.177   1.375 -1.2267 -0.6481  0.5810
 4002SOL    HW315781   0.035   1.322   1.418 -1.8084 -0.6740  0.7273
 4002SOL    MW415782   0.062   1.240   1.427 -0.3278 -0.3531 -0.2572
 4003SOL     OW15783   6.299   1.157   2.233 -0.3054 -0.1303 -0.1269
 4003SOL    HW215784   6.311   1.237   2.183  0.6276  0.2857  0.7210
 4003SOL    HW315785   6.302   1.087   2.168  1.8641  0.3163 -0.6045
 4003SOL    MW415786   6.301   1.158   2.218  0.1040 -0.0165 -0.0781
 4004SOL     OW15787   5.344   4.293   2.431 -0.3793  0.8147  0.2460
 4004SOL    HW215788   5.387   4.361   2.380 -0.3747 -0.0724 -0.9856
 4004SOL    HW315789   5.254   4.325   2.443 -0.1448  1.4147  0.4328
 4004SOL    MW415790   5.338   4.306   2.426 -0.3477  0.7768  0.1081
 4005SOL     OW15791   1.909   3.635   3.241  0.5270 -0.0213  0.2180
 4005SOL    HW215792   1.845   3.681   3.185 -0.1850 -0.7647  0.4145
 4005SOL    HW315793   1.962   3.585   3.179 -1.2562 -2.0960  0.2638
 4005SOL    MW415794   1.908   3.635   3.225  0.1978 -0.3931  0.2500
 4006SOL     OW15795   2.379   3.964   4.762 -0.8526  0.1180  0.1922
 4006SOL    HW215796   2.374   3.909   4.684 -1.2846  0.0783  0.2464
 4006SOL    HW315797   2.473   3.976   4.777 -0.7470 -0.5936  0.1654
 4006SOL    MW415798   2.391   3.958   4.754 -0.8957  0.0189  0.1958
 4007SOL     OW15799   3.832   0.635   3.421  0.5165  0.2367  0.4358
 4007SOL    HW215800   3.800   0.654   3.509 -0.3696  2.2069 -0.2346
 4007SOL    HW315801   3.921   0.671   3.420  0.3920  0.5490  0.4278
 4007SOL    MW415802   3.840   0.642   3.432  0.3831  0.5378  0.3463
 4008SOL     OW15803   5.029   1.227   4.962 -0.2542  0.3717 -0.3036
 4008SOL    HW215804   5.073   1.142   4.967 -1.2149 -0.1495 -0.4704
 4008SOL    HW315805   5.086   1.280   4.906  1.1479  0.3473  1.0432
 4008SOL    MW415806   5.042   1.223   4.955 -0.1960  0.2997 -0.1479
 4009SOL     OW15807   2.555   0.264   1.084  0.0722 -0.2816  0.0880
 4009SOL    HW215808   2.554   0.255   1.179  0.0614 -1.6413 -0.0152
 4009SOL    HW315809   2.647   0.254   1.060  0.1308  0.4841 -0.0153
 4009SOL    MW415810   2.567   0.261   1.093  0.0785 -0.3600  0.0607
 4010SOL     OW15811   4.042   1.072   4.478  0.1281  0.1986 -0.2562
 4010SOL    HW215812   3.982   1.054   4.551 -1.5363  0.3681 -1.5171
 4010SOL    HW315813   4.123   1.100   4.521  0.8025 -3.9254  1.6578
 4010SOL    MW415814   4.045   1.074   4.494 -0.0025 -0.3232 -0.1700
 4011SOL     OW15815   0.657   1.025   0.640 -0.1826  0.2642  0.4491
 4011SOL    HW215816   0.689   0.935   0.637  0.6617  0.4790  2.0168
 4011SOL    HW315817   0.601   1.033   0.563  0.8450 -1.1645 -0.4876
 4011SOL    MW415818   0.654   1.014   0.630  0.0644  0.1040  0.5323
 4012SOL     OW15819   3.501   1.402   0.409  0.1751  0.6348  0.0352
 4012SOL    HW215820   3.538   1.484   0.375  0.5570  0.8955  1.0576
 4012SOL    HW315821   3.520   1.404   0.502 -0.3524 -0.3457  0.1729
 4012SOL    MW415822   3.508   1.413   0.417  0.1559  0.5398  0.1882
 4013SOL     OW15823   5.009   2.475   4.249 -0.1479 -0.5783  0.3153
 4013SOL    HW215824   4.935   2.427   4.212  0.2212 -0.7182 -0.2461
 4013SOL    HW315825   5.042   2.419   4.319  0.6940 -1.4700 -0.7623
 4013SOL    MW415826   5.003   2.461   4.254  0.0119 -0.7144  0.0991
 4014SOL     OW15827   2.297   6.352   6.115  0.5053 -0.0389  0.3465
 4014SOL    HW215828   2.388   6.376   6.098  0.3850  0.1509 -0.0542
 4014SOL    HW315829   2.295   6.330   6.208  1.0497 -0.4620  0.2670
 4014SOL    MW415830   2.309   6.352   6.125  0.5612 -0.0697  0.2831
 4015SOL     OW15831   4.492   2.989   2.831 -0.3063  0.4009  0.3832
 4015SOL    HW215832   4.407   2.945   2.834 -0.4519  0.4187 -1.9671
 4015SOL    HW315833   4.475   3.074   2.872 -1.2985  0.2075  0.4125
 4015SOL    MW415834   4.478   2.995   2.837 -0.4564  0.3778  0.0770
 4016SOL     OW15835   4.710   0.028   2.124 -0.1600  0.3428  0.9639
 4016SOL    HW215836   4.663   0.080   2.059  0.3620 -1.1415 -0.6890
 4016SOL    HW315837   4.641  -0.017   2.174 -0.5504  0.2458  0.3428
 4016SOL    MW415838   4.695   0.029   2.122 -0.1426  0.1342  0.6639
 4017SOL     OW15839   1.981   1.273   0.736  0.1429  0.2990 -0.8167
 4017SOL    HW215840   1.897   1.287   0.692  0.1232 -2.0994 -1.6844
 4017SOL    HW315841   1.978   1.331   0.812 -2.0489  0.6800 -1.1257
 4017SOL    MW415842   1.969   1.283   0.740 -0.1488  0.0329 -0.9720
 4018SOL     OW15843   0.302   4.939   6.287  0.3272 -0.3023  0.0861
 4018SOL    HW215844   0.301   4.893   6.371  0.4824 -0.3824  0.0442
 4018SOL    HW315845   0.211   4.938   6.258  0.5571 -1.9731 -0.6680
 4018SOL    MW415846   0.290   4.933   6.294  0.3780 -0.5333 -0.0189
 4019SOL     OW15847   1.834   1.262   2.240 -0.2581 -0.0577  0.0767
 4019SOL    HW215848   1.841   1.254   2.335  0.3320  2.4922  0.3352
 4019SOL    HW315849   1.924   1.257   2.209 -0.5589 -2.5124 -0.5975
 4019SOL    MW415850   1.847   1.260   2.249 -0.2199 -0.0452  0.0218
 4020SOL     OW15851   1.464   0.992   0.948 -0.8628 -0.3224  0.0916
 4020SOL    HW215852   1.504   1.004   0.862 -0.7674 -0.4116  0.1231
 4020SOL    HW315853   1.390   0.933   0.932 -0.2276 -1.1869  0.2346
 4020SOL    MW415854   1.460   0.986   0.934 -0.7664 -0.4482  0.1147
 4021SOL     OW15855   0.190   0.256   3.775 -0.0762  0.1619 -0.2903
 4021SOL    HW215856   0.275   0.284   3.809 -0.1144  0.2382 -0.2593
 4021SOL    HW315857   0.184   0.163   3.800 -0.3515  0.3618  0.4025
 4021SOL    MW415858   0.201   0.247   3.783 -0.1175  0.1983 -0.1948
 4022SOL     OW15859   5.650   2.602   1.608 -0.0123  0.1420 -0.4919
 4022SOL    HW215860   5.715   2.533   1.623  0.5255  0.8649  0.6774
 4022SOL    HW315861   5.593   2.568   1.539  1.0105 -0.9242 -0.8266
 4022SOL    MW415862   5.651   2.588   1.601  0.1936  0.0967 -0.3818
 4023SOL     OW15863   6.307   1.805   3.090  0.2580  0.2837 -0.0453
 4023SOL    HW215864   6.328   1.798   3.183  0.3431  0.2079 -0.0701
 4023SOL    HW315865   6.211   1.811   3.088  0.1998 -0.4870  0.0091
 4023SOL    MW415866   6.297   1.805   3.102  0.2616  0.1720 -0.0414
 4024SOL     OW15867   6.103   3.020   6.250 -0.0869  0.2876 -0.1556
 4024SOL    HW215868   6.097   2.993   6.341 -1.1636  0.1821 -0.2469
 4024SOL    HW315869   6.168   3.090   6.249 -0.1030  0.3156  0.6980
 4024SOL    MW415870   6.111   3.026   6.262 -0.2311  0.2774 -0.0551
 4025SOL     OW15871   5.385   4.039   2.319 -0.1524 -0.0191  0.0011
 4025SOL    HW215872   5.357   4.124   2.356 -1.0871 -0.2682 -0.1091
 4025SOL    HW315873   5.462   4.060   2.267 -0.4766  0.7995 -0.1649
 4025SOL    MW415874   5.392   4.053   2.317 -0.3185  0.0560 -0.0354
 4026SOL     OW15875   2.600   2.570   4.314  0.9580  0.2947 -0.7667
 4026SOL    HW215876   2.689   2.601   4.302  0.9191  0.7489  0.0315
 4026SOL    HW315877   2.571   2.610   4.396  0.4619 -0.8523 -0.3568
 4026SOL    MW415878   2.608   2.579   4.323  0.8874  0.2033 -0.6073
 4027SOL     OW15879   0.296   3.357   0.136  0.2454  0.7480 -0.0606
 4027SOL    HW215880   0.234   3.331   0.204  0.5936 -0.7748 -0.2789
 4027SOL    HW315881   0.379   3.369   0.182  0.8343 -1.6750 -0.3056
 4027SOL    MW415882   0.299   3.355   0.151  0.3690  0.2274 -0.1217
 4028SOL     OW15883   1.357   1.694   4.816  0.1419 -0.1800 -0.5970
 4028SOL    HW215884   1.375   1.662   4.904 -0.3339 -0.5387 -0.6237
 4028SOL    HW315885   1.392   1.627   4.758  0.3485 -0.0008 -0.6800
 4028SOL    MW415886   1.364   1.681   4.820  0.1064 -0.2037 -0.6115
 4029SOL     OW15887   5.443   2.925   2.027 -0.2771 -0.0984  0.3577
 4029SOL    HW215888   5.528   2.912   1.984  0.5321  0.1292  1.8220
 4029SOL    HW315889   5.436   2.851   2.088 -0.8300  0.2430  0.7133
 4029SOL    MW415890   5.453   2.913   2.030 -0.2433 -0.0233  0.5978
 4030SOL     OW15891   4.364   0.835   4.388  0.4275  0.2736 -0.0359
 4030SOL    HW215892   4.416   0.861   4.464  2.0451  0.5265 -1.1730
 4030SOL    HW315893   4.344   0.917   4.343  0.9219  0.0171 -0.7509
 4030SOL    MW415894   4.368   0.849   4.392  0.7061  0.2732 -0.2802
 4031SOL     OW15895   0.800   3.962   4.824  0.1954 -0.4274  0.5186
 4031SOL    HW215896   0.706   3.972   4.812  0.0647 -1.0445  0.9917
 4031SOL    HW315897   0.820   3.875   4.789  0.7755  0.1093 -0.5584
 4031SOL    MW415898   0.790   3.952   4.817  0.2547 -0.4380  0.4389
 4032SOL     OW15899   2.338   2.832   3.491 -0.5745 -0.1728 -0.0646
 4032SOL    HW215900   2.421   2.824   3.445 -0.2075 -0.7526  0.6696
 4032SOL    HW315901   2.348   2.911   3.545 -0.1927 -0.6850  0.6223
 4032SOL    MW415902   2.350   2.841   3.492 -0.4757 -0.3169  0.1229
 4033SOL     OW15903   5.075   3.028   4.965 -0.2022  0.6286 -0.2163
 4033SOL    HW215904   4.999   3.041   4.909 -0.6443 -0.6875  0.0450
 4033SOL    HW315905   5.114   2.946   4.935 -0.8257 -0.4661  1.7802
 4033SOL    MW415906   5.070   3.019   4.954 -0.3428  0.3105  0.0816
 4034SOL     OW15907   0.844   4.265   1.209 -0.1631 -0.7812  0.1176
 4034SOL    HW215908   0.903   4.218   1.268  0.1934  1.2269  1.4704
 4034SOL    HW315909   0.901   4.315   1.151 -0.4397  0.7679  1.0953
 4034SOL    MW415910   0.859   4.266   1.209 -0.1525 -0.3118  0.4251
 4035SOL     OW15911   3.303   5.883   3.720  0.7145  0.1108 -0.1620
 4035SOL    HW215912   3.340   5.970   3.735  1.3080 -0.0238 -0.8332
 4035SOL    HW315913   3.374   5.833   3.680 -0.0567 -0.2801 -1.0569
 4035SOL    MW415914   3.317   5.888   3.717  0.6911  0.0414 -0.3686
 4036SOL     OW15915   5.300   3.472   4.457 -0.2351  0.2229  0.3123
 4036SOL    HW215916   5.210   3.466   4.489 -0.1698 -0.5573  0.3827
 4036SOL    HW315917   5.292   3.485   4.363 -0.4309  2.4819  0.5895
 4036SOL    MW415918   5.287   3.473   4.449 -0.2523  0.4180  0.3582
 4037SOL     OW15919   4.142   2.876   0.374  0.7118 -0.5753 -0.2176
 4037SOL    HW215920   4.216   2.937   0.375  0.9315 -0.8134 -1.3282
 4037SOL    HW315921   4.075   2.920   0.426  1.1526  0.2418 -0.3189
 4037SOL    MW415922   4.143   2.890   0.381  0.7989 -0.4989 -0.3775
 4038SOL     OW15923   1.927   0.102   3.496 -0.0982 -1.0676 -0.0137
 4038SOL    HW215924   1.931   0.140   3.408  0.2684 -0.5553  0.2228
 4038SOL    HW315925   1.947   0.009   3.482  0.9439 -0.8086 -0.3579
 4038SOL    MW415926   1.930   0.095   3.482  0.0876 -0.9658 -0.0279
 4039SOL     OW15927   0.051   6.023   4.713 -0.5643 -0.5885 -0.2024
 4039SOL    HW215928   0.133   5.998   4.671 -1.5073 -1.5851 -1.5454
 4039SOL    HW315929   0.036   6.113   4.685 -0.5320 -0.8094 -0.9411
 4039SOL    MW415930   0.060   6.031   4.704 -0.6845 -0.7491 -0.4771
 4040SOL     OW15931   2.635   3.831   2.012  0.0496  0.0475  0.3882
 4040SOL    HW215932   2.652   3.751   1.961 -1.2910 -0.1519  0.2177
 4040SOL    HW315933   2.548   3.817   2.049 -0.1085  1.3600  0.5328
 4040SOL    MW415934   2.626   3.818   2.011 -0.1481  0.1944  0.3848
 4041SOL     OW15935   3.047   3.549   0.595  0.0268  0.0129  0.2910
 4041SOL    HW215936   3.012   3.557   0.683 -1.9749 -0.3495 -0.4137
 4041SOL    HW315937   3.142   3.556   0.606 -0.2203  0.8650  2.3454
 4041SOL    MW415938   3.055   3.551   0.608 -0.2699  0.0775  0.4691
 4042SOL     OW15939   4.951   2.791   3.120  0.1605 -0.0372 -0.4581
 4042SOL    HW215940   4.877   2.730   3.113  0.5564 -0.3847 -2.0942
 4042SOL    HW315941   5.009   2.751   3.184 -0.1041 -0.8224 -0.6944
 4042SOL    MW415942   4.949   2.777   3.127  0.1778 -0.1867 -0.7052
 4043SOL     OW15943   5.759   1.370   6.280  0.2444 -0.5768  0.0543
 4043SOL    HW215944   5.833   1.331   6.233  0.3008  0.9707 -1.2187
 4043SOL    HW315945   5.796   1.448   6.321 -0.9133  0.9625 -1.7030
 4043SOL    MW415946   5.774   1.375   6.280  0.0991 -0.1696 -0.3455
 4044SOL     OW15947   6.071   0.356   4.951 -0.0456 -0.3486 -0.4122
 4044SOL    HW215948   6.101   0.267   4.970 -0.1249 -0.6336 -1.5805
 4044SOL    HW315949   6.101   0.407   5.027  0.4921 -1.2548  0.0077
 4044SOL    MW415950   6.079   0.351   4.964  0.0149 -0.5058 -0.5109
 4045SOL     OW15951   5.359   5.202   1.087  0.0462 -0.1461 -0.1379
 4045SOL    HW215952   5.344   5.145   1.011 -1.5215  0.7224 -0.5417
 4045SOL    HW315953   5.366   5.290   1.049  0.2005  0.1840  0.6443
 4045SOL    MW415954   5.358   5.206   1.072 -0.1403  0.0121 -0.0880
 4046SOL     OW15955   2.845   3.952   4.488 -0.2473 -0.5764  1.2544
 4046SOL    HW215956   2.778   3.889   4.516 -0.9929 -0.4920 -0.2435
 4046SOL    HW315957   2.848   4.017   4.558 -1.1563 -1.0099  1.7107
 4046SOL    MW415958   2.837   3.952   4.501 -0.4656 -0.6225  1.1170
 4047SOL     OW15959   3.866   0.418   5.960  0.0272  0.7363 -0.0461
 4047SOL    HW215960   3.941   0.361   5.943  1.0592  1.5582  1.4867
 4047SOL    HW315961   3.818   0.418   5.878  2.2010  0.9110 -1.4192
 4047SOL    MW415962   3.870   0.410   5.947  0.4502  0.8678 -0.0251
 4048SOL     OW15963   4.395   2.705   3.989 -0.1050  0.5303 -0.2027
 4048SOL    HW215964   4.381   2.791   3.949 -1.6092  0.3098 -0.2376
 4048SOL    HW315965   4.482   2.709   4.027 -0.1447  2.0673 -0.2310
 4048SOL    MW415966   4.404   2.717   3.988 -0.3087  0.7040 -0.2110
 4049SOL     OW15967   1.848   6.035   5.183  0.1563 -0.3254 -0.2926
 4049SOL    HW215968   1.807   6.075   5.106 -1.1081 -1.6004 -0.3323
 4049SOL    HW315969   1.942   6.037   5.165 -0.0390  0.5375 -1.2917
 4049SOL    MW415970   1.855   6.041   5.170 -0.0363 -0.3798 -0.4296
 4050SOL     OW15971   3.817   5.670   3.945 -0.4536 -0.0442 -0.2192
 4050SOL    HW215972   3.833   5.597   3.884  0.9196  0.1111 -0.0814
 4050SOL    HW315973   3.845   5.748   3.897  0.7596  0.0694  0.6204
 4050SOL    MW415974   3.823   5.670   3.930 -0.1124 -0.0087 -0.0903
 4051SOL     OW15975   1.515   5.979   5.100 -0.0269  0.1791  0.3993
 4051SOL    HW215976   1.583   5.912   5.093  0.5506  0.8967 -1.4367
 4051SOL    HW315977   1.435   5.935   5.069 -0.1820 -0.3370  1.4932
 4051SOL    MW415978   1.513   5.964   5.095  0.0288  0.2057  0.3014
 4052SOL     OW15979   5.769   0.650   3.521 -0.2894  0.4183  0.2094
 4052SOL    HW215980   5.683   0.633   3.484 -0.5473 -1.1000  1.4021
 4052SOL    HW315981   5.752   0.699   3.601 -0.0400  0.2891  0.3442
 4052SOL    MW415982   5.756   0.654   3.526 -0.2905  0.2009  0.3846
 4053SOL     OW15983   4.856   0.026   1.696  0.0813 -0.1311  0.2015
 4053SOL    HW215984   4.900  -0.031   1.633  1.3006  0.4327  0.5226
 4053SOL    HW315985   4.909   0.105   1.698 -0.9713  0.5854  0.5943
 4053SOL    MW415986   4.869   0.029   1.688  0.1033  0.0378  0.2957
 4054SOL     OW15987   3.530   0.863   0.952 -0.5582 -0.0691 -0.3628
 4054SOL    HW215988   3.448   0.899   0.917  0.4134  1.8798 -0.7738
 4054SOL    HW315989   3.569   0.816   0.879 -0.0021  1.3875 -1.0348
 4054SOL    MW415990   3.524   0.862   0.938 -0.3566  0.3802 -0.5057
 4055SOL     OW15991   0.460   2.704   3.704  0.5013  0.0395  0.0330
 4055SOL    HW215992   0.544   2.678   3.666  0.2654  0.3533 -0.7139
 4055SOL    HW315993   0.482   2.731   3.793  1.2668  0.5820 -0.3148
 4055SOL    MW415994   0.474   2.704   3.711  0.5712  0.1524 -0.1114
 4056SOL     OW15995   3.351   3.621   2.719  0.5219 -0.0373  0.1986
 4056SOL    HW215996   3.406   3.698   2.726  1.7754 -0.8989  0.1790
 4056SOL    HW315997   3.374   3.582   2.634 -1.4722  0.5595 -0.6882
 4056SOL    MW415998   3.361   3.626   2.708  0.4242 -0.0722  0.0790
 4057SOL     OW15999   1.849   5.256   1.570  0.1850 -0.3557  0.9192
 4057SOL    HW216000   1.934   5.224   1.599  1.5372  1.4420 -0.7944
 4057SOL    HW316001   1.850   5.247   1.475 -0.9754  0.9261  0.7354
 4057SOL    MW416002   1.860   5.251   1.562  0.2103  0.0506  0.6689
 4058SOL     OW16003   0.596   2.640   3.114  0.3468  0.1676 -0.2030
 4058SOL    HW216004   0.685   2.632   3.079  1.2428 -0.7581  2.1298
 4058SOL    HW316005   0.608   2.681   3.200 -1.2621 -1.6041  0.9407
 4058SOL    MW416006   0.610   2.645   3.121  0.2528 -0.1883  0.2557
 4059SOL     OW16007   3.385   0.985   3.402  0.2017  0.0975  0.5441
 4059SOL    HW216008   3.296   0.974   3.434 -0.1498  0.7757 -0.1553
 4059SOL    HW316009   3.406   0.903   3.358 -0.4471  0.2865 -0.1338
 4059SOL    MW416010   3.376   0.973   3.401  0.0697  0.2119  0.3624
 4060SOL     OW16011   4.512   4.746   1.876 -0.3040  0.5019  0.3243
 4060SOL    HW216012   4.539   4.664   1.835 -1.9439 -0.4838  1.1043
 4060SOL    HW316013   4.455   4.719   1.948 -0.2650  2.3126  1.0830
 4060SOL    MW416014   4.508   4.732   1.880 -0.5152  0.6108  0.5273
 4061SOL     OW16015   4.983   3.984   3.383  0.2133 -0.0937 -0.2794
 4061SOL    HW216016   4.932   3.909   3.411  0.8976  0.4240  2.6357
 4061SOL    HW316017   5.053   3.946   3.329  1.2037 -1.7898  2.0045
 4061SOL    MW416018   4.986   3.969   3.379  0.4342 -0.2492  0.4065
 4062SOL     OW16019   0.998   0.925   4.322 -0.3027 -0.7393  0.4691
 4062SOL    HW216020   1.046   0.949   4.400  1.2864 -1.5689 -0.2105
 4062SOL    HW316021   0.998   1.004   4.268  1.5532 -1.1034 -0.1176
 4062SOL    MW416022   1.004   0.939   4.325  0.1518 -0.8968  0.3020
 4063SOL     OW16023   6.407   1.053   1.168  0.4464  0.5985  0.8257
 4063SOL    HW216024   6.345   1.124   1.154  1.2865  1.2073  0.0865
 4063SOL    HW316025   6.394   0.995   1.093 -0.5573 -0.2974  1.6576
 4063SOL    MW416026   6.397   1.055   1.156  0.4248  0.5606  0.8379
 4064SOL     OW16027   2.569   2.271   4.979 -0.1346 -0.1260  0.3783
 4064SOL    HW216028   2.553   2.178   4.960 -1.6468 -0.5709  3.3163
 4064SOL    HW316029   2.484   2.313   4.970 -0.0143  0.4382  1.6394
 4064SOL    MW416030   2.556   2.264   4.975 -0.3182 -0.1103  0.9323
 4065SOL     OW16031   5.416   6.374   1.015  0.3820 -0.0439 -0.0957
 4065SOL    HW216032   5.371   6.406   1.093 -1.3797 -0.5873 -0.8512
 4065SOL    HW316033   5.485   6.317   1.049  1.3436  1.7345  1.1298
 4065SOL    MW416034   5.419   6.371   1.030  0.2764  0.1190 -0.0337
 4066SOL     OW16035   6.175   2.496   6.213 -0.0444  0.0961 -0.8779
 4066SOL    HW216036   6.123   2.418   6.234  0.7826 -0.9320 -2.3837
 4066SOL    HW316037   6.115   2.552   6.164 -0.8461  0.7497  0.8105
 4066SOL    MW416038   6.160   2.493   6.209 -0.0410  0.0467 -0.8538
 4067SOL     OW16039   5.956   2.150   6.048  0.3854  0.2806  0.1283
 4067SOL    HW216040   5.941   2.224   6.107 -0.7968 -0.3313  0.6300
 4067SOL    HW316041   5.916   2.075   6.093 -1.1715 -0.0746 -1.6972
 4067SOL    MW416042   5.948   2.150   6.062  0.0240  0.1530 -0.0463
 4068SOL     OW16043   3.854   0.779   1.098 -0.0671  0.2552  0.0556
 4068SOL    HW216044   3.762   0.753   1.083  0.4918 -2.7642  1.0647
 4068SOL    HW316045   3.867   0.765   1.192  0.6256  3.8652  0.6158
 4068SOL    MW416046   3.843   0.774   1.108  0.0980  0.3332  0.2627
 4069SOL     OW16047   5.968   1.013   4.546 -0.0256  0.8532  0.4026
 4069SOL    HW216048   6.028   0.952   4.505  0.5176  0.4488  1.7394
 4069SOL    HW316049   5.994   1.099   4.513  0.8228  0.6083  0.4180
 4069SOL    MW416050   5.979   1.017   4.536  0.1580  0.7675  0.5810
 4070SOL     OW16051   2.267   1.967   2.794  0.2552  0.5287 -0.5171
 4070SOL    HW216052   2.188   1.929   2.831  0.7821 -2.6154 -2.1681
 4070SOL    HW316053   2.290   2.039   2.852 -2.0866 -0.4309  1.7772
 4070SOL    MW416054   2.260   1.971   2.807  0.0157 -0.0128 -0.4322
 4071SOL     OW16055   2.573   1.530   4.400  0.4207  0.2745 -0.1116
 4071SOL    HW216056   2.662   1.494   4.394  0.3712  0.2041 -0.4515
 4071SOL    HW316057   2.546   1.512   4.489  0.5803 -0.1082 -0.1384
 4071SOL    MW416058   2.581   1.523   4.411  0.4352  0.2147 -0.1600
 4072SOL     OW16059   4.937   0.977   5.482  0.2921  0.0445 -0.2616
 4072SOL    HW216060   5.004   1.017   5.538  0.8006 -1.0145 -0.0681
 4072SOL    HW316061   4.857   1.025   5.501  1.0258  1.4559 -0.6209
 4072SOL    MW416062   4.935   0.989   5.492  0.4560  0.0910 -0.2835
 4073SOL     OW16063   1.669   0.954   6.047 -0.3373 -0.0954 -0.4586
 4073SOL    HW216064   1.740   0.892   6.030 -0.6150 -0.4924 -0.1868
 4073SOL    HW316065   1.700   1.036   6.010  1.4351  0.4179  1.9712
 4073SOL    MW416066   1.682   0.956   6.040 -0.1401 -0.0801 -0.1021
 4074SOL     OW16067   0.266   0.233   2.933 -0.4349 -0.2265  0.1944
 4074SOL    HW216068   0.329   0.278   2.878  1.1086 -1.1964  1.0984
 4074SOL    HW316069   0.194   0.296   2.944  1.3246  1.7571  0.8837
 4074SOL    MW416070   0.265   0.247   2.927  0.0009 -0.0927  0.4046
 4075SOL     OW16071   5.222   4.225   0.170 -0.2111 -0.0328 -0.2339
 4075SOL    HW216072   5.148   4.263   0.217 -0.7937  0.5957 -1.5887
 4075SOL    HW316073   5.209   4.252   0.079  2.5280  1.4548 -0.3028
 4075SOL    MW416074   5.211   4.233   0.164  0.0734  0.2464 -0.4217
 4076SOL     OW16075   0.641   3.319   3.073 -0.3705  0.7862  0.7100
 4076SOL    HW216076   0.713   3.337   3.013  1.3282  0.6546  2.5927
 4076SOL    HW316077   0.609   3.405   3.098 -0.0564  0.8816  0.7861
 4076SOL    MW416078   0.646   3.333   3.069 -0.1050  0.7814  0.9684
 4077SOL     OW16079   2.934   0.456   4.876  0.1339 -0.4155  0.0885
 4077SOL    HW216080   2.964   0.365   4.879 -0.5008 -0.6492 -0.3117
 4077SOL    HW316081   2.950   0.483   4.786  1.2064  0.1893  0.4505
 4077SOL    MW416082   2.940   0.447   4.865  0.1917 -0.3665  0.0835
 4078SOL     OW16083   5.780   4.176   1.166  0.0836 -0.4756  0.7993
 4078SOL    HW216084   5.858   4.230   1.181  0.3037 -0.3167 -0.6867
 4078SOL    HW316085   5.783   4.110   1.235  0.9872  0.1276  1.3695
 4078SOL    MW416086   5.791   4.174   1.177  0.2318 -0.3750  0.6785
 4079SOL     OW16087   0.456   1.026   5.241  0.1467 -0.1565  0.6755
 4079SOL    HW216088   0.418   0.949   5.199 -0.2190  1.0997 -1.4992
 4079SOL    HW316089   0.528   0.992   5.294  0.0562 -1.9829 -0.2976
 4079SOL    MW416090   0.460   1.011   5.242  0.0865 -0.2317  0.2602
 4080SOL     OW16091   4.078   3.554   4.552 -0.8143  0.0871 -0.4066
 4080SOL    HW216092   4.025   3.599   4.486  0.2068  0.4864 -0.9609
 4080SOL    HW316093   4.013   3.512   4.610 -1.7310 -0.2952 -1.6650
 4080SOL    MW416094   4.062   3.554   4.551 -0.8005  0.0894 -0.6458
 4081SOL     OW16095   0.797   4.894   3.252 -0.1878  0.5544 -0.0205
 4081SOL    HW216096   0.829   4.807   3.275  1.7731  0.9584 -1.0420
 4081SOL    HW316097   0.837   4.952   3.317 -2.2958  0.6519  1.2956
 4081SOL    MW416098   0.806   4.890   3.264 -0.2072  0.6206  0.0184
 4082SOL     OW16099   0.442   0.256   4.088 -0.4777 -0.1274  0.4163
 4082SOL    HW216100   0.450   0.267   3.993 -0.9100  0.5634  0.4547
 4082SOL    HW316101   0.485   0.332   4.125  0.6634 -0.9396  0.8144
 4082SOL    MW416102   0.448   0.267   4.080 -0.3842 -0.1434  0.4739
 4083SOL     OW16103   0.579   4.549   3.876  0.0299  0.1689  0.3449
 4083SOL    HW216104   0.584   4.508   3.789 -2.5536 -0.0069  0.2150
 4083SOL    HW316105   0.586   4.643   3.859 -0.4476  0.1333 -0.0682
 4083SOL    MW416106   0.581   4.556   3.862 -0.3740  0.1410  0.2733
 4084SOL     OW16107   0.446   5.158   1.110  0.1308  0.2722 -0.3306
 4084SOL    HW216108   0.404   5.101   1.175  1.9945 -0.8852 -0.0930
 4084SOL    HW316109   0.423   5.247   1.139 -1.2494 -0.2707  0.3688
 4084SOL    MW416110   0.437   5.162   1.122  0.1946  0.0479 -0.2070
 4085SOL     OW16111   0.722   0.132   1.955 -0.4229 -0.6477 -0.3000
 4085SOL    HW216112   0.659   0.143   1.884  0.3612  0.0651 -0.9112
 4085SOL    HW316113   0.783   0.206   1.945 -1.4679  0.7537  2.3879
 4085SOL    MW416114   0.722   0.143   1.945 -0.4573 -0.3688 -0.0260
 4086SOL     OW16115   4.496   3.904   4.943  0.1745  0.2338  0.4442
 4086SOL    HW216116   4.545   3.864   4.871 -0.1668  2.2909 -1.0434
 4086SOL    HW316117   4.551   3.977   4.971 -1.6188  2.2009 -0.8320
 4086SOL    MW416118   4.510   3.909   4.937 -0.1071  0.7648  0.0795
 4087SOL     OW16119   6.181   1.856   4.434  0.5180 -0.0232 -0.1459
 4087SOL    HW216120   6.110   1.792   4.437  0.8404 -0.3663  0.6623
 4087SOL    HW316121   6.242   1.822   4.368 -0.9517  1.2657 -2.2659
 4087SOL    MW416122   6.180   1.843   4.426  0.3666  0.1016 -0.3190
 4088SOL     OW16123   1.135   4.307   2.088 -0.1609 -0.0978 -0.1175
 4088SOL    HW216124   1.170   4.380   2.036 -0.5985  0.8064  0.8125
 4088SOL    HW316125   1.046   4.295   2.055  0.8076 -2.1344 -2.2112
 4088SOL    MW416126   1.128   4.315   2.077 -0.0908 -0.2472 -0.2711
 4089SOL     OW16127   3.164   4.555   1.040 -0.3503 -0.3399  0.3494
 4089SOL    HW216128   3.119   4.519   0.963  2.4445 -1.3997 -0.9236
 4089SOL    HW316129   3.128   4.643   1.049 -1.8354 -0.7239 -1.2359
 4089SOL    MW416130   3.153   4.562   1.031 -0.1775 -0.5304 -0.0277
 4090SOL     OW16131   4.385   1.315   1.854 -0.2849 -0.6077  0.2808
 4090SOL    HW216132   4.425   1.400   1.837 -1.4635 -0.0520  0.1917
 4090SOL    HW316133   4.423   1.256   1.789 -2.1066  0.6776 -2.0706
 4090SOL    MW416134   4.395   1.318   1.843 -0.6808 -0.3648 -0.0412
 4091SOL     OW16135   3.218   3.212   1.614  0.1003 -0.3900 -0.6570
 4091SOL    HW216136   3.273   3.136   1.595  0.3227 -0.3385 -0.2321
 4091SOL    HW316137   3.136   3.175   1.646  0.4135 -0.4531  0.1062
 4091SOL    MW416138   3.215   3.197   1.616  0.1710 -0.3915 -0.5003
 4092SOL     OW16139   2.270   4.798   5.942  0.1516  0.1526  0.3217
 4092SOL    HW216140   2.176   4.807   5.960  0.2899 -0.3785  1.3501
 4092SOL    HW316141   2.311   4.869   5.991  0.4039 -0.4453  0.9918
 4092SOL    MW416142   2.263   4.809   5.951  0.2031  0.0036  0.5458
 4093SOL     OW16143   0.595   2.659   2.083 -0.4544 -0.1273  0.4742
 4093SOL    HW216144   0.525   2.673   2.148 -0.5175 -0.1465  0.4102
 4093SOL    HW316145   0.550   2.621   2.008 -0.5138  0.6512  0.1086
 4093SOL    MW416146   0.580   2.656   2.082 -0.4705 -0.0271  0.4175
 4094SOL     OW16147   2.510   5.295   2.400  0.1646 -0.1630  0.0889
 4094SOL    HW216148   2.430   5.250   2.373  1.1679 -1.5771 -0.6472
 4094SOL    HW316149   2.488   5.388   2.396 -1.5512 -0.5293  0.2972
 4094SOL    MW416150   2.496   5.301   2.396  0.0706 -0.3979  0.0193
 4095SOL     OW16151   4.420   0.163   2.539 -0.0471 -0.2719 -0.0019
 4095SOL    HW216152   4.407   0.237   2.598 -0.9343  0.2432 -0.8187
 4095SOL    HW316153   4.515   0.160   2.525  0.3092 -1.1118  2.3122
 4095SOL    MW416154   4.431   0.173   2.545 -0.1171 -0.3148  0.1956
 4096SOL     OW16155   6.123   0.919   5.479 -0.2904  0.3347  0.0960
 4096SOL    HW216156   6.210   0.947   5.509 -0.2162 -0.0611  0.2609
 4096SOL    HW316157   6.131   0.917   5.384 -0.3356  0.9841  0.0704
 4096SOL    MW416158   6.136   0.923   5.471 -0.2866  0.3682  0.1144
 4097SOL     OW16159   0.819   0.383   2.468  0.0020 -0.7010 -0.1335
 4097SOL    HW216160   0.847   0.449   2.405  0.1360  1.8676  2.4457
 4097SOL    HW316161   0.899   0.338   2.494  1.0413  2.2865  2.4559
 4097SOL    MW416162   0.833   0.386   2.463  0.1568  0.0321  0.5484
 4098SOL     OW16163   1.693   2.511   2.448  0.0133 -0.0478 -0.0209
 4098SOL    HW216164   1.726   2.511   2.358  0.6705 -2.2022  0.1629
 4098SOL    HW316165   1.598   2.507   2.439  0.1010 -0.9984 -0.6445
 4098SOL    MW416166   1.685   2.511   2.435  0.1116 -0.4575 -0.0789
 4099SOL     OW16167   5.618   1.900   3.570 -0.1012  0.1930 -0.2059
 4099SOL    HW216168   5.533   1.924   3.607  0.3449  1.3503  0.0910
 4099SOL    HW316169   5.633   1.964   3.500  0.5008 -0.0510 -0.3040
 4099SOL    MW416170   5.608   1.912   3.565  0.0371  0.3135 -0.1797
 4100SOL     OW16171   1.764   3.397   4.636 -0.1801 -0.4125  0.3865
 4100SOL    HW216172   1.713   3.475   4.617  0.5084 -0.1199 -0.3419
 4100SOL    HW316173   1.791   3.407   4.727 -1.9785 -0.9157  1.0193
 4100SOL    MW416174   1.761   3.408   4.645 -0.3266 -0.4403  0.3739
 4101SOL     OW16175   0.016   5.728   0.360 -0.0566 -0.2358  0.2166
 4101SOL    HW216176   0.096   5.749   0.409 -0.8160 -0.2367  1.4816
 4101SOL    HW316177   0.018   5.788   0.285  0.3636  0.8277  1.0575
 4101SOL    MW416178   0.027   5.739   0.356 -0.1014 -0.0956  0.4944
 4102SOL     OW16179   2.768   4.055   3.622  0.0663  0.4600 -0.1797
 4102SOL    HW216180   2.826   4.115   3.668  0.4476  1.1397 -1.4989
 4102SOL    HW316181   2.827   3.989   3.584  0.1895  1.7314 -2.4168
 4102SOL    MW416182   2.784   4.054   3.623  0.1328  0.7174 -0.6489
 4103SOL     OW16183   0.113   5.238   2.585 -0.7020 -0.7968  0.1341
 4103SOL    HW216184   0.177   5.290   2.632  1.5000 -2.5731 -0.6975
 4103SOL    HW316185   0.062   5.301   2.535  0.0914  0.7189  1.1822
 4103SOL    MW416186   0.114   5.253   2.584 -0.3068 -0.8312  0.1627
 4104SOL     OW16187   1.229   5.587   3.694  0.2765  0.2866 -0.1431
 4104SOL    HW216188   1.244   5.526   3.766  1.2704 -0.6767 -1.1247
 4104SOL    HW316189   1.145   5.560   3.657 -0.8293  1.5347  1.3354
 4104SOL    MW416190   1.220   5.575   3.699  0.2617  0.3242 -0.0775
 4105SOL     OW16191   3.546   1.005   1.308 -0.1150  0.7486  0.1213
 4105SOL    HW216192   3.568   0.921   1.268 -0.9097  0.9864 -0.8476
 4105SOL    HW316193   3.470   0.986   1.364 -1.0950  1.0343 -1.0676
 4105SOL    MW416194   3.539   0.991   1.310 -0.3491  0.8177 -0.1634
 4106SOL     OW16195   1.489   4.556   0.680 -0.6586 -0.6314 -0.3521
 4106SOL    HW216196   1.452   4.556   0.592 -0.3359 -1.0886 -0.4888
 4106SOL    HW316197   1.569   4.608   0.672 -1.0104 -0.0544 -0.1645
 4106SOL    MW416198   1.495   4.563   0.668 -0.6625 -0.6156 -0.3454
 4107SOL     OW16199   4.339   1.442   3.708  0.2688  0.0759 -0.4822
 4107SOL    HW216200   4.286   1.520   3.697  1.7282  0.9837 -1.4524
 4107SOL    HW316201   4.294   1.374   3.657  0.1659  0.8871 -1.4997
 4107SOL    MW416202   4.326   1.443   3.700  0.4478  0.3027 -0.7445
 4108SOL     OW16203   2.877   3.774   1.753  0.0777 -0.1549  0.0007
 4108SOL    HW216204   2.882   3.843   1.819 -1.4117  2.5093 -2.4387
 4108SOL    HW316205   2.916   3.813   1.674 -1.6870 -1.7108 -1.7534
 4108SOL    MW416206   2.883   3.789   1.751 -0.3516 -0.0087 -0.5526
 4109SOL     OW16207   3.171   2.588   1.170  0.0835 -0.1759 -0.4857
 4109SOL    HW216208   3.216   2.612   1.088 -0.2586  2.1929 -0.0494
 4109SOL    HW316209   3.189   2.495   1.180  0.9488 -0.3305 -2.7608
 4109SOL    MW416210   3.179   2.579   1.160  0.1525  0.1162 -0.7283
 4110SOL     OW16211   4.442   2.040   4.928  0.4388  0.3332 -0.1081
 4110SOL    HW216212   4.369   2.032   4.990 -0.0750  0.4080 -0.6941
 4110SOL    HW316213   4.518   2.012   4.977 -0.1843 -1.0195  0.1251
 4110SOL    MW416214   4.442   2.036   4.943  0.2888  0.1646 -0.1547
 4111SOL     OW16215   4.653   3.680   1.089 -0.3139 -0.4044 -0.1127
 4111SOL    HW216216   4.629   3.615   1.155 -0.9632 -0.8170 -0.7430
 4111SOL    HW316217   4.641   3.765   1.132 -1.2974 -0.6544  0.1231
 4111SOL    MW416218   4.648   3.683   1.103 -0.5294 -0.4918 -0.1647
 4112SOL     OW16219   6.140   3.043   2.946  0.2770  0.5486  0.4514
 4112SOL    HW216220   6.194   3.002   3.014 -0.4236  0.3418  0.8960
 4112SOL    HW316221   6.057   2.995   2.950  0.2183  0.5496 -0.5359
 4112SOL    MW416222   6.137   3.031   2.956  0.1768  0.5214  0.3798
 4113SOL     OW16223   0.865   3.353   0.312  0.0557 -0.5198  0.0057
 4113SOL    HW216224   0.800   3.372   0.379  0.9703  0.9700  0.5399
 4113SOL    HW316225   0.923   3.287   0.351  1.7052  1.6887  1.5421
 4113SOL    MW416226   0.864   3.347   0.326  0.3940 -0.0319  0.2789
 4114SOL     OW16227   4.211   2.699   4.653 -0.1943  0.3752  0.6073
 4114SOL    HW216228   4.241   2.628   4.597 -3.2034 -0.2543 -0.3856
 4114SOL    HW316229   4.250   2.778   4.615 -0.9276 -0.2189 -1.4727
 4114SOL    MW416230   4.220   2.700   4.641 -0.6880  0.2137  0.2019
 4115SOL     OW16231   2.811   1.755   5.463  0.4626  0.1899 -0.4675
 4115SOL    HW216232   2.841   1.826   5.407  0.6792 -1.4145 -2.5440
 4115SOL    HW316233   2.874   1.684   5.449 -0.3985 -0.8364  0.5628
 4115SOL    MW416234   2.823   1.755   5.454  0.3776 -0.1572 -0.6055
 4116SOL     OW16235   4.106   3.092   3.375 -0.7464  0.1638 -0.3094
 4116SOL    HW216236   4.135   3.184   3.378  0.5372 -0.2358  0.0671
 4116SOL    HW316237   4.017   3.095   3.410 -0.1271  1.0602  1.3099
 4116SOL    MW416238   4.098   3.105   3.380 -0.4953  0.2293 -0.0461
 4117SOL     OW16239   0.682   4.664   0.940 -0.4936  0.1993 -1.0286
 4117SOL    HW216240   0.667   4.585   0.888 -0.3919  0.1618 -1.0012
 4117SOL    HW316241   0.702   4.732   0.876  1.6928 -0.2914 -0.9517
 4117SOL    MW416242   0.683   4.662   0.925 -0.1917  0.1296 -1.0148
 4118SOL     OW16243   1.204   6.088   3.050 -0.3094 -0.2448 -0.1236
 4118SOL    HW216244   1.200   6.009   2.995 -2.6089 -0.1738 -0.1351
 4118SOL    HW316245   1.236   6.056   3.134  1.6254 -0.6386 -0.9403
 4118SOL    MW416246   1.208   6.073   3.054 -0.3575 -0.2874 -0.2329
 4119SOL     OW16247   2.424   4.967   2.082  0.1972 -0.0217 -0.3307
 4119SOL    HW216248   2.469   4.904   2.026 -0.9806  0.7386 -2.2320
 4119SOL    HW316249   2.356   5.004   2.027 -0.4836  1.4216  1.3682
 4119SOL    MW416250   2.421   4.964   2.067 -0.0480  0.2691 -0.3574
 4120SOL     OW16251   4.849   0.684   3.384  0.3756  0.0685  0.0287
 4120SOL    HW216252   4.844   0.679   3.479 -0.4724 -0.8533 -0.0476
 4120SOL    HW316253   4.853   0.778   3.365  1.8100  0.2328  1.0072
 4120SOL    MW416254   4.849   0.695   3.394  0.4530 -0.0314  0.1478
 4121SOL     OW16255   5.752   5.112   4.802  0.4088  0.1958 -0.2695
 4121SOL    HW216256   5.722   5.196   4.768 -0.2499  0.3533  0.6608
 4121SOL    HW316257   5.846   5.110   4.783  0.6407  1.6038  0.6134
 4121SOL    MW416258   5.760   5.123   4.795  0.3525  0.4024 -0.0302
 4122SOL     OW16259   5.347   0.143   2.746  0.5588  0.5823 -0.4027
 4122SOL    HW216260   5.253   0.126   2.752  0.3181  1.3443 -1.5844
 4122SOL    HW316261   5.387   0.056   2.735 -0.0264  0.2863 -0.2303
 4122SOL    MW416262   5.340   0.129   2.745  0.4498  0.6438 -0.5358
 4123SOL     OW16263   4.273   1.027   4.200  0.3397  0.6283 -0.8612
 4123SOL    HW216264   4.180   1.018   4.179 -0.4505 -0.4412  2.5317
 4123SOL    HW316265   4.287   1.121   4.209 -0.0081  0.8929 -2.7504
 4123SOL    MW416266   4.263   1.038   4.198  0.1896  0.5221 -0.6628
 4124SOL     OW16267   4.121   1.613   6.084 -0.1026 -0.0238  0.5163
 4124SOL    HW216268   4.060   1.570   6.025 -0.0121  0.2559  0.2132
 4124SOL    HW316269   4.157   1.685   6.032 -1.0178  1.0511  1.3451
 4124SOL    MW416270   4.118   1.617   6.069 -0.2114  0.1549  0.5857
 4125SOL     OW16271   0.208   2.791   2.445  0.0196 -0.3911 -0.5644
 4125SOL    HW216272   0.140   2.757   2.388 -0.8252  0.4137 -0.0597
 4125SOL    HW316273   0.171   2.871   2.483 -0.6957 -2.4207  3.4981
 4125SOL    MW416274   0.194   2.797   2.443 -0.1863 -0.5527  0.0382
 4126SOL     OW16275   1.058   4.909   3.456  0.2987 -0.4465  0.3786
 4126SOL    HW216276   1.039   4.998   3.427 -0.5074 -0.5324  0.6195
 4126SOL    HW316277   1.126   4.919   3.523  0.1980 -0.0148  0.4171
 4126SOL    MW416278   1.064   4.922   3.461  0.1791 -0.4009  0.4154
 4127SOL     OW16279   1.746   2.098   0.706  0.1331  0.6055 -0.4616
 4127SOL    HW216280   1.722   2.180   0.662  0.5509  0.4138 -1.0579
 4127SOL    HW316281   1.794   2.126   0.783 -2.1610  1.0154  0.9186
 4127SOL    MW416282   1.749   2.112   0.710 -0.1144  0.6343 -0.3582
 4128SOL     OW16283   1.079   6.356   3.057 -0.5010  0.0961  0.3352
 4128SOL    HW216284   1.115   6.269   3.042 -1.5251 -0.3901  0.6831
 4128SOL    HW316285   0.992   6.354   3.019 -0.2776  1.2027 -0.3023
 4128SOL    MW416286   1.073   6.344   3.050 -0.6066  0.1780  0.2970
 4129SOL     OW16287   2.045   0.726   2.608 -0.0626 -0.2348 -0.1176
 4129SOL    HW216288   1.954   0.737   2.579  0.3279 -0.0284 -1.3039
 4129SOL    HW316289   2.037   0.687   2.695 -1.3093  0.7069  0.2203
 4129SOL    MW416290   2.032   0.722   2.616 -0.1756 -0.0833 -0.2296
 4130SOL     OW16291   2.768   3.052   0.205 -0.1337  0.3413  0.3924
 4130SOL    HW216292   2.829   3.003   0.259  0.2682  1.1495  0.6801
 4130SOL    HW316293   2.784   3.019   0.116  1.2866  1.1007  0.3464
 4130SOL    MW416294   2.778   3.041   0.200  0.1067  0.5481  0.4243
 4131SOL     OW16295   3.820   4.941   2.966 -0.0232 -0.3502 -0.8660
 4131SOL    HW216296   3.902   4.952   2.919  0.2265 -1.1405 -0.6262
 4131SOL    HW316297   3.832   4.861   3.018 -0.2380  0.5873  0.6681
 4131SOL    MW416298   3.832   4.932   2.967 -0.0186 -0.3308 -0.6320
 4132SOL     OW16299   5.781   3.415   4.364 -0.4108 -0.2971 -0.2506
 4132SOL    HW216300   5.835   3.489   4.391 -0.7046  0.1819 -0.9554
 4132SOL    HW316301   5.824   3.338   4.404 -1.7168  0.4681  2.9741
 4132SOL    MW416302   5.794   3.414   4.373 -0.6219 -0.1330  0.0818
 4133SOL     OW16303   1.894   4.863   0.844 -0.1738 -0.3387 -0.1781
 4133SOL    HW216304   1.830   4.806   0.886  0.0598 -0.4956 -0.0306
 4133SOL    HW316305   1.844   4.910   0.777 -0.4495 -0.4270 -0.0359
 4133SOL    MW416306   1.879   4.862   0.840 -0.1794 -0.3710 -0.1398
 4134SOL     OW16307   5.152   5.388   0.283  0.0551  0.7382 -0.5256
 4134SOL    HW216308   5.177   5.434   0.363  0.8993 -0.2779 -0.1801
 4134SOL    HW316309   5.234   5.373   0.237  0.2928 -2.9335  0.7691
 4134SOL    MW416310   5.166   5.392   0.288  0.1979  0.1197 -0.3092
 4135SOL     OW16311   6.192   3.261   5.009 -0.1714  0.3147 -0.8263
 4135SOL    HW216312   6.258   3.274   5.076 -1.0708 -1.4728  0.4835
 4135SOL    HW316313   6.124   3.325   5.028  0.7933  1.6621 -1.7409
 4135SOL    MW416314   6.192   3.271   5.020 -0.1628  0.2566 -0.7742
 4136SOL     OW16315   0.401   3.394   3.626  0.8499 -0.3522 -0.2569
 4136SOL    HW216316   0.336   3.464   3.615  1.3782  0.1456 -0.2345
 4136SOL    HW316317   0.422   3.368   3.536 -0.2737 -1.3671 -0.2562
 4136SOL    MW416318   0.395   3.400   3.612  0.7714 -0.4204 -0.2539
 4137SOL     OW16319   5.702   5.022   6.342 -0.3932  0.9534  0.3077
 4137SOL    HW216320   5.630   5.074   6.307 -1.0813  0.0315  0.3449
 4137SOL    HW316321   5.771   5.087   6.361 -0.4174  1.6114 -1.6485
 4137SOL    MW416322   5.702   5.038   6.340 -0.4872  0.9186  0.0545
 4138SOL     OW16323   4.913   3.490   6.004  0.0948 -0.2111  1.0612
 4138SOL    HW216324   4.873   3.532   5.929 -1.4192 -1.2076  1.2769
 4138SOL    HW316325   5.001   3.466   5.974 -0.4616 -0.5450 -0.3791
 4138SOL    MW416326   4.920   3.492   5.990 -0.1784 -0.3866  0.8996
 4139SOL     OW16327   5.598   3.710   6.181 -0.0145 -0.0137 -0.2807
 4139SOL    HW216328   5.579   3.738   6.271  0.8957  0.8923 -0.3551
 4139SOL    HW316329   5.641   3.625   6.191  1.5771  0.8201  0.2688
 4139SOL    MW416330   5.601   3.702   6.194  0.3156  0.2158 -0.2180
 4140SOL     OW16331   0.883   0.522   3.092 -0.3586  0.4597  0.1033
 4140SOL    HW216332   0.887   0.427   3.093  1.0846  0.4832 -0.4636
 4140SOL    HW316333   0.791   0.543   3.110 -1.2291 -1.0821 -2.1027
 4140SOL    MW416334   0.871   0.513   3.094 -0.2831  0.2594 -0.2625
 4141SOL     OW16335   0.863   5.631   1.449 -0.4156  0.3405 -0.3564
 4141SOL    HW216336   0.882   5.571   1.521  1.3859  0.9299 -0.3029
 4141SOL    HW316337   0.836   5.712   1.492 -0.9057  0.2068 -0.3986
 4141SOL    MW416338   0.862   5.633   1.464 -0.2426  0.4006 -0.3549
 4142SOL     OW16339   1.526   3.315   1.045 -0.2061 -0.2805  0.2136
 4142SOL    HW216340   1.579   3.369   1.104 -1.5226 -0.8285  1.9954
 4142SOL    HW316341   1.560   3.226   1.057  0.2542 -0.2502 -0.7511
 4142SOL    MW416342   1.537   3.310   1.055 -0.3191 -0.3488  0.3214
 4143SOL     OW16343   3.192   0.218   4.644 -0.4708  0.0674  0.2833
 4143SOL    HW216344   3.234   0.167   4.575  0.9099  0.3972  0.8493
 4143SOL    HW316345   3.228   0.306   4.635 -1.2806  0.4418  0.6013
 4143SOL    MW416346   3.202   0.223   4.634 -0.3955  0.1603  0.4000
 4144SOL     OW16347   3.562   5.596   0.878  0.3441 -0.6587  0.4285
 4144SOL    HW216348   3.497   5.599   0.808  2.0797  2.7005 -1.2723
 4144SOL    HW316349   3.621   5.525   0.854  1.3896  0.9584 -2.1184
 4144SOL    MW416350   3.561   5.587   0.866  0.7111 -0.0021 -0.1319
 4145SOL     OW16351   3.127   4.352   1.817 -0.3749  0.3426 -0.0142
 4145SOL    HW216352   3.086   4.437   1.835  0.3501  0.1871  2.7987
 4145SOL    HW316353   3.204   4.349   1.874  0.6850 -1.4631 -1.4187
 4145SOL    MW416354   3.132   4.363   1.827 -0.1394  0.0838  0.1716
 4146SOL     OW16355   3.060   2.347   2.226  0.0818 -0.0199  0.1218
 4146SOL    HW216356   3.155   2.356   2.226  0.2390 -1.4767 -0.7047
 4146SOL    HW316357   3.043   2.260   2.190 -1.5662  0.1782  0.3177
 4146SOL    MW416358   3.070   2.337   2.221 -0.1149 -0.1860  0.0386
 4147SOL     OW16359   3.431   3.262   6.125  0.2419 -0.3643 -0.2240
 4147SOL    HW216360   3.374   3.223   6.191 -2.3898  0.1073 -2.0718
 4147SOL    HW316361   3.457   3.188   6.069  0.8988 -0.4679  0.2073
 4147SOL    MW416362   3.427   3.247   6.126 -0.0186 -0.3157 -0.4109
 4148SOL     OW16363   4.884   5.573   2.729 -0.1564  0.1454  0.0076
 4148SOL    HW216364   4.817   5.506   2.744 -0.9430  0.4481 -1.8690
 4148SOL    HW316365   4.915   5.556   2.640  0.9351  1.1557  0.1770
 4148SOL    MW416366   4.879   5.562   2.719 -0.1162  0.3186 -0.2176
 4149SOL     OW16367   1.168   2.410   4.601 -0.2256  0.0388  0.5685
 4149SOL    HW216368   1.084   2.445   4.630 -1.0994 -1.4134 -0.1081
 4149SOL    HW316369   1.189   2.459   4.521 -0.2761  0.5907  0.8895
 4149SOL    MW416370   1.160   2.421   4.594 -0.3476 -0.0800  0.5216
 4150SOL     OW16371   0.828   4.578   6.387 -0.1194 -0.4325  0.1744
 4150SOL    HW216372   0.913   4.616   6.365 -0.1976  0.3422  1.1741
 4150SOL    HW316373   0.780   4.579   6.304  0.7876 -0.7606 -0.3765
 4150SOL    MW416374   0.833   4.583   6.373 -0.0101 -0.3735  0.2336
 4151SOL     OW16375   2.605   0.428   0.808  0.0957 -0.3184 -0.7749
 4151SOL    HW216376   2.575   0.470   0.888  1.3060 -0.7147 -0.1077
 4151SOL    HW316377   2.526   0.422   0.754 -0.4690  1.1242 -0.1508
 4151SOL    MW416378   2.590   0.433   0.811  0.1809 -0.1804 -0.6045
 4152SOL     OW16379   0.691   4.859   2.455 -0.2335  0.4274  0.5247
 4152SOL    HW216380   0.749   4.872   2.530 -0.8806  0.5371  1.0210
 4152SOL    HW316381   0.632   4.935   2.458 -0.2699  0.4258 -0.0897
 4152SOL    MW416382   0.691   4.871   2.466 -0.3237  0.4417  0.5091
 4153SOL     OW16383   3.499   1.496   6.333  0.0340  0.1902  0.2570
 4153SOL    HW216384   3.451   1.414   6.349 -1.6809  1.5081  2.2741
 4153SOL    HW316385   3.587   1.467   6.308 -0.6541 -2.2637  0.3762
 4153SOL    MW416386   3.504   1.481   6.332 -0.2831  0.0403  0.5388
 4154SOL     OW16387   1.200   2.215   0.919  0.1761  0.0448  0.4199
 4154SOL    HW216388   1.293   2.197   0.933  0.2762 -0.4300 -0.7128
 4154SOL    HW316389   1.187   2.198   0.825 -1.2469 -0.8016  0.7464
 4154SOL    MW416390   1.211   2.210   0.908  0.0016 -0.1296  0.3135
 4155SOL     OW16391   2.113   4.327   3.006 -0.5634 -0.4965  0.0387
 4155SOL    HW216392   2.153   4.409   2.975  0.2668 -0.0724  2.0717
 4155SOL    HW316393   2.154   4.259   2.952  1.1171  0.1757  0.3786
 4155SOL    MW416394   2.124   4.329   2.995 -0.2321 -0.3518  0.3518
 4156SOL     OW16395   4.485   2.419   2.291 -0.4560 -0.4032 -0.0973
 4156SOL    HW216396   4.475   2.342   2.235 -0.9862  0.3839 -1.1132
 4156SOL    HW316397   4.571   2.408   2.332 -1.5653 -2.8430  1.8350
 4156SOL    MW416398   4.495   2.407   2.289 -0.6723 -0.6212  0.0236
 4157SOL     OW16399   4.809   6.148   2.658  0.0205 -0.1941  0.7053
 4157SOL    HW216400   4.890   6.160   2.708 -0.6183  2.1092  1.3069
 4157SOL    HW316401   4.739   6.158   2.723 -0.7796  0.5606 -0.2409
 4157SOL    MW416402   4.811   6.151   2.674 -0.1694  0.2094  0.6598
 4158SOL     OW16403   0.809   5.278   2.957 -0.1609  0.2247  0.5737
 4158SOL    HW216404   0.889   5.320   2.989  0.5792 -1.5601  1.2267
 4158SOL    HW316405   0.751   5.277   3.033  0.0936 -0.5056  0.7708
 4158SOL    MW416406   0.812   5.283   2.971 -0.0297 -0.1072  0.6859
 4159SOL     OW16407   4.417   2.332   5.194  0.6365  0.0926  0.0283
 4159SOL    HW216408   4.506   2.323   5.161  1.4767  1.2466  1.7943
 4159SOL    HW316409   4.412   2.423   5.224 -1.0796  0.0017  0.1186
 4159SOL    MW416410   4.428   2.343   5.194  0.5209  0.2329  0.2732
 4160SOL     OW16411   1.842   1.077   2.751  0.9830 -0.0783 -0.0889
 4160SOL    HW216412   1.802   1.005   2.703 -0.3434 -0.0674  0.9579
 4160SOL    HW316413   1.935   1.055   2.754  1.2023  0.0952 -2.9330
 4160SOL    MW416414   1.849   1.065   2.745  0.8370 -0.0540 -0.3260
 4161SOL     OW16415   6.035   5.047   6.175 -0.5674 -0.5481  0.4240
 4161SOL    HW216416   5.961   5.057   6.115  0.7710  1.1376 -1.0501
 4161SOL    HW316417   6.097   4.991   6.129  0.4525  0.7152  0.2109
 4161SOL    MW416418   6.033   5.041   6.161 -0.2562 -0.1590  0.2014
 4162SOL     OW16419   3.616   1.211   3.521  0.0155  0.1861  1.1420
 4162SOL    HW216420   3.676   1.178   3.454  0.0137  0.0830  1.1914
 4162SOL    HW316421   3.574   1.133   3.556 -0.8073  0.3238  0.4911
 4162SOL    MW416422   3.619   1.197   3.517 -0.0933  0.1907  1.0626
 4163SOL     OW16423   4.303   0.373   6.392 -0.0986  0.2133 -0.6471
 4163SOL    HW216424   4.229   0.346   6.446  1.8832 -2.0797  1.1825
 4163SOL    HW316425   4.329   0.458   6.427 -0.5036 -0.0103  0.2192
 4163SOL    MW416426   4.297   0.381   6.403  0.1094 -0.1187 -0.2914
 4164SOL     OW16427   1.007   5.954   0.575  0.2545  0.2355 -0.8414
 4164SOL    HW216428   0.940   5.913   0.520 -1.3425  1.2013  0.2882
 4164SOL    HW316429   1.037   6.030   0.525  0.4039 -0.1273 -1.2999
 4164SOL    MW416430   1.002   5.959   0.562  0.0635  0.3151 -0.7529
 4165SOL     OW16431   0.459   2.487   0.975  0.2575  0.1553 -0.2919
 4165SOL    HW216432   0.506   2.410   0.941 -0.6858 -0.4295 -0.3192
 4165SOL    HW316433   0.509   2.562   0.943 -0.0883 -0.3974 -2.2487
 4165SOL    MW416434   0.472   2.486   0.966  0.0874  0.0052 -0.5536
 4166SOL     OW16435   4.757   4.442   2.079 -0.2866 -0.6063 -0.0954
 4166SOL    HW216436   4.720   4.411   1.996  0.1070  0.0354 -0.5158
 4166SOL    HW316437   4.708   4.522   2.098 -2.0235 -1.9411  1.5160
 4166SOL    MW416438   4.745   4.448   2.070 -0.4639 -0.6978  0.0617
 4167SOL     OW16439   4.943   6.189   5.074  0.3057 -1.2214  0.2005
 4167SOL    HW216440   4.926   6.195   4.981  0.9619  2.2534  0.1657
 4167SOL    HW316441   5.039   6.189   5.081  0.2659 -0.9016  0.8814
 4167SOL    MW416442   4.954   6.190   5.063  0.3870 -0.7207  0.2858
 4168SOL     OW16443   3.759   1.116   4.947  0.0808 -0.6544  0.6847
 4168SOL    HW216444   3.681   1.066   4.970 -1.1458  1.5082  1.5021
 4168SOL    HW316445   3.757   1.192   5.005  2.0621  0.1646 -0.2280
 4168SOL    MW416446   3.749   1.119   4.957  0.1804 -0.2610  0.6721
 4169SOL     OW16447   0.130   1.402   2.932  0.2067 -0.2830  0.4112
 4169SOL    HW216448   0.156   1.390   2.841 -0.7697  1.5825 -0.1542
 4169SOL    HW316449   0.038   1.375   2.934 -0.0105  0.4663  0.6572
 4169SOL    MW416450   0.121   1.397   2.920  0.0492  0.0620  0.3690
 4170SOL     OW16451   3.460   4.929   1.479  0.9670 -0.3117  0.0670
 4170SOL    HW216452   3.499   4.978   1.551  0.8270  1.0718 -0.7756
 4170SOL    HW316453   3.526   4.931   1.410 -0.2058  1.3260 -1.0678
 4170SOL    MW416454   3.474   4.936   1.479  0.7938  0.0869 -0.1939
 4171SOL     OW16455   1.754   5.023   1.230  0.0694  0.1191  0.4365
 4171SOL    HW216456   1.710   4.956   1.177  0.4944  1.0817 -1.1971
 4171SOL    HW316457   1.740   5.105   1.183 -0.0422  1.1393  2.1551
 4171SOL    MW416458   1.747   5.025   1.217  0.1107  0.3807  0.4477
 4172SOL     OW16459   6.356   1.775   4.232  0.2606  0.4812  0.0231
 4172SOL    HW216460   6.292   1.796   4.164 -0.7482  2.5670  1.4979
 4172SOL    HW316461   6.325   1.693   4.270  0.6360 -0.5255 -1.7172
 4172SOL    MW416462   6.344   1.767   4.228  0.1770  0.6235 -0.0119
 4173SOL     OW16463   5.647   1.750   5.263  0.1330 -0.4617  0.0066
 4173SOL    HW216464   5.715   1.759   5.330 -0.0443 -0.8734  0.2525
 4173SOL    HW316465   5.581   1.693   5.304 -1.0911  1.1280  0.3453
 4173SOL    MW416466   5.647   1.744   5.277 -0.0519 -0.3063  0.0838
 4174SOL     OW16467   1.188   4.819   1.018 -0.2941  0.0001 -0.0147
 4174SOL    HW216468   1.246   4.872   1.074  0.5487 -1.3541  0.4652
 4174SOL    HW316469   1.128   4.777   1.079  1.6553 -2.7854  0.2258
 4174SOL    MW416470   1.188   4.820   1.034  0.0743 -0.5461  0.0803
 4175SOL     OW16471   1.018   3.772   1.056  0.5706 -0.0714 -0.1912
 4175SOL    HW216472   1.090   3.721   1.018 -0.2113 -0.1146 -1.6792
 4175SOL    HW316473   0.959   3.707   1.093  0.9072 -0.0738  0.3597
 4175SOL    MW416474   1.020   3.757   1.056  0.5118 -0.0774 -0.3148
 4176SOL     OW16475   5.013   0.137   4.118 -0.2595  0.1895  0.2159
 4176SOL    HW216476   4.973   0.175   4.196 -2.6058  0.7133 -1.1709
 4176SOL    HW316477   5.055   0.211   4.074  1.4622 -0.1832  1.1470
 4176SOL    MW416478   5.014   0.152   4.122 -0.3419  0.2095  0.1558
 4177SOL     OW16479   6.132   5.913   2.094 -0.9141  0.4131 -0.2980
 4177SOL    HW216480   6.138   5.849   2.165  0.9087  0.1919 -0.6032
 4177SOL    HW316481   6.181   5.989   2.125 -0.0687  0.3003 -1.2970
 4177SOL    MW416482   6.139   5.914   2.107 -0.5620  0.3690 -0.4701
 4178SOL     OW16483   6.421   1.677   5.427 -0.3267 -0.1996 -0.3286
 4178SOL    HW216484   6.449   1.624   5.353 -1.6574  0.6649 -1.5031
 4178SOL    HW316485   6.465   1.761   5.414  0.0916 -0.3075  0.3411
 4178SOL    MW416486   6.430   1.681   5.416 -0.4471 -0.0998 -0.3952
 4179SOL     OW16487   3.953   2.441   1.894 -0.2166  0.4181  0.2391
 4179SOL    HW216488   3.974   2.438   1.801  2.3097 -0.3470  0.7755
 4179SOL    HW316489   3.915   2.355   1.912 -2.1811  1.1105 -0.3374
 4179SOL    MW416490   3.950   2.429   1.884 -0.1425  0.4085  0.2338
 4180SOL     OW16491   1.661   4.063   3.431 -0.2534  0.0737  0.0636
 4180SOL    HW216492   1.634   4.072   3.522  2.0500  1.9453  0.6378
 4180SOL    HW316493   1.603   4.122   3.383 -0.9535 -0.3253  0.3959
 4180SOL    MW416494   1.650   4.072   3.436 -0.0419  0.2680  0.1832
 4181SOL     OW16495   1.389   2.969   2.906  0.3597 -0.5218 -0.0267
 4181SOL    HW216496   1.439   2.972   2.825 -0.8255  0.1579 -0.7605
 4181SOL    HW316497   1.349   3.056   2.913  1.8640  0.0701  2.2363
 4181SOL    MW416498   1.391   2.981   2.897  0.4018 -0.3540  0.1751
 4182SOL     OW16499   3.407   4.965   2.508  0.0355  0.1511 -0.7717
 4182SOL    HW216500   3.336   5.029   2.508  0.8561  1.0759 -1.3133
 4182SOL    HW316501   3.485   5.015   2.529  0.3345 -1.1204  1.5277
 4182SOL    MW416502   3.408   4.980   2.511  0.1832  0.1053 -0.5398
 4183SOL     OW16503   4.450   6.304   0.887 -0.2793 -0.0951 -0.4289
 4183SOL    HW216504   4.440   6.216   0.850  2.8102 -1.3206  1.3226
 4183SOL    HW316505   4.409   6.298   0.974 -0.9582  0.5490 -0.6903
 4183SOL    MW416506   4.443   6.291   0.894  0.0387 -0.1718 -0.2323
 4184SOL     OW16507   4.040   2.520   5.923 -0.2208 -0.1165  1.0401
 4184SOL    HW216508   4.112   2.547   5.866 -0.1401 -2.7038 -0.2306
 4184SOL    HW316509   4.080   2.516   6.011  0.9470 -0.5415  0.5210
 4184SOL    MW416510   4.055   2.523   5.927 -0.0561 -0.5140  0.8040
 4185SOL     OW16511   5.063   5.552   3.264 -0.0002 -0.4092 -0.3778
 4185SOL    HW216512   5.119   5.475   3.247  0.4642 -0.5798  1.6957
 4185SOL    HW316513   5.125   5.622   3.286 -0.5158 -0.1207  0.1733
 4185SOL    MW416514   5.079   5.551   3.265 -0.0069 -0.3936 -0.0315
 4186SOL     OW16515   5.815   0.706   0.399  0.1074 -0.1033 -0.2959
 4186SOL    HW216516   5.817   0.735   0.490  0.1513  1.7953 -0.8701
 4186SOL    HW316517   5.906   0.711   0.371  0.6408 -3.5889  0.3435
 4186SOL    MW416518   5.827   0.710   0.408  0.1835 -0.3127 -0.2873
 4187SOL     OW16519   1.874   6.154   2.447  0.5887  0.0374 -0.4276
 4187SOL    HW216520   1.839   6.218   2.384 -0.2298 -0.8217 -0.8577
 4187SOL    HW316521   1.927   6.095   2.394  0.8618 -0.0042 -0.1135
 4187SOL    MW416522   1.877   6.155   2.432  0.5167 -0.0814 -0.4429
 4188SOL     OW16523   4.180   2.737   1.353 -0.3841  0.0688 -0.0902
 4188SOL    HW216524   4.102   2.684   1.340  0.6416 -1.3750 -0.6302
 4188SOL    HW316525   4.164   2.783   1.435 -1.3471 -1.0305  0.3655
 4188SOL    MW416526   4.168   2.737   1.362 -0.3758 -0.2667 -0.1013
 4189SOL     OW16527   0.932   4.271   1.858 -0.3831 -0.0450  0.2149
 4189SOL    HW216528   0.948   4.182   1.891  0.1274  0.0568  0.2471
 4189SOL    HW316529   0.853   4.299   1.903 -1.0721 -0.8258 -0.4646
 4189SOL    MW416530   0.924   4.263   1.868 -0.4066 -0.1346  0.1295
 4190SOL     OW16531   2.118   2.161   1.948 -0.2609 -1.1273 -0.1498
 4190SOL    HW216532   2.103   2.093   2.013 -1.7462 -0.9343 -0.2500
 4190SOL    HW316533   2.184   2.218   1.987  0.4616 -2.2041  0.2403
 4190SOL    MW416534   2.125   2.160   1.962 -0.3616 -1.2439 -0.1115
 4191SOL     OW16535   4.754   0.126   6.135  0.3664  0.1447 -0.0616
 4191SOL    HW216536   4.803   0.189   6.187  1.3777 -0.3529 -0.3866
 4191SOL    HW316537   4.699   0.080   6.198 -0.0751  1.0659  0.2312
 4191SOL    MW416538   4.753   0.128   6.150  0.4416  0.2006 -0.0658
 4192SOL     OW16539   5.262   4.394   0.531 -0.3313 -0.1516 -0.6190
 4192SOL    HW216540   5.211   4.363   0.605 -0.3173  0.6937 -0.2531
 4192SOL    HW316541   5.211   4.370   0.454  0.7499 -3.2112 -0.5191
 4192SOL    MW416542   5.249   4.387   0.530 -0.1868 -0.4437 -0.5576
 4193SOL     OW16543   5.579   0.579   5.141 -0.5881  0.5162  0.0899
 4193SOL    HW216544   5.607   0.601   5.052 -2.6551 -0.5363 -0.8920
 4193SOL    HW316545   5.509   0.515   5.129 -0.0248 -0.6888  2.5445
 4193SOL    MW416546   5.573   0.573   5.128 -0.7865  0.2184  0.2842
 4194SOL     OW16547   3.316   1.851   3.341  0.5561 -0.0396 -0.0461
 4194SOL    HW216548   3.223   1.872   3.332  0.5780  0.2448  0.3473
 4194SOL    HW316549   3.345   1.905   3.415  1.4730  1.2879 -1.3357
 4194SOL    MW416550   3.307   1.860   3.350  0.6800  0.1730 -0.1643
 4195SOL     OW16551   5.722   2.041   3.350 -0.0196  0.4744 -0.3492
 4195SOL    HW216552   5.760   2.002   3.271  1.0707  2.7276 -1.0125
 4195SOL    HW316553   5.674   2.117   3.319 -0.3288  0.9004  1.0837
 4195SOL    MW416554   5.721   2.046   3.336  0.0834  0.8279 -0.2476
 4196SOL     OW16555   0.252   5.771   0.522  0.8924 -0.0115  0.3518
 4196SOL    HW216556   0.289   5.737   0.603 -0.6696  0.4556  1.3089
 4196SOL    HW316557   0.233   5.863   0.541  0.8898  0.2168 -0.6899
 4196SOL    MW416558   0.255   5.779   0.535  0.6860  0.0803  0.3406
 4197SOL     OW16559   2.795   2.035   2.003 -0.0022  0.2153 -1.0419
 4197SOL    HW216560   2.754   2.042   1.916 -0.7108 -1.3233 -0.8622
 4197SOL    HW316561   2.743   2.094   2.058 -1.6861 -1.2704 -0.9543
 4197SOL    MW416562   2.782   2.044   1.999 -0.3179 -0.1837 -1.0066
 4198SOL     OW16563   5.957   0.415   2.778  0.4581  0.4473  0.2000
 4198SOL    HW216564   5.955   0.406   2.873 -0.1171 -0.8787  0.0837
 4198SOL    HW316565   6.048   0.436   2.758  0.6844  0.2624  1.0098
 4198SOL    MW416566   5.969   0.417   2.788  0.4120  0.2480  0.2915
 4199SOL     OW16567   0.161   4.613   5.989 -0.8687  0.0214  0.6459
 4199SOL    HW216568   0.124   4.610   6.077  1.0321  2.4853  1.6493
 4199SOL    HW316569   0.208   4.531   5.980 -1.0477 -0.2517  1.9455
 4199SOL    MW416570   0.162   4.602   5.999 -0.6415  0.3105  0.9498
 4200SOL     OW16571   0.754   3.317   3.382  0.2398  0.2284 -0.0474
 4200SOL    HW216572   0.700   3.349   3.311 -0.0241 -0.6962 -0.2723
 4200SOL    HW316573   0.810   3.391   3.405  3.3327 -0.5126 -3.9797
 4200SOL    MW416574   0.755   3.331   3.376  0.6131  0.0086 -0.5959
 4201SOL     OW16575   0.219   1.299   1.905 -0.2455  0.3824 -0.1771
 4201SOL    HW216576   0.173   1.215   1.901  0.1647  0.2054 -2.4822
 4201SOL    HW316577   0.307   1.276   1.935 -0.4436  0.1357  0.2197
 4201SOL    MW416578   0.225   1.285   1.908 -0.2175  0.3265 -0.4289
 4202SOL     OW16579   4.017   4.392   3.186  0.3793  0.1083 -0.7335
 4202SOL    HW216580   3.926   4.419   3.201  1.2861  2.4093  1.0769
 4202SOL    HW316581   4.011   4.297   3.171 -2.2930  0.1674 -0.5026
 4202SOL    MW416582   4.004   4.383   3.186  0.1464  0.4197 -0.4642
 4203SOL     OW16583   0.158   2.049   6.112 -0.0427 -1.1468  0.3214
 4203SOL    HW216584   0.102   2.013   6.044 -0.9972  0.5209  0.1749
 4203SOL    HW316585   0.100   2.103   6.166  1.4336  0.9840 -0.0676
 4203SOL    MW416586   0.143   2.051   6.110  0.0261 -0.6456  0.2507
 4204SOL     OW16587   3.246   4.798   5.152  0.0731 -0.9556 -0.2411
 4204SOL    HW216588   3.287   4.822   5.235  0.0048  0.4340 -0.5839
 4204SOL    HW316589   3.292   4.718   5.125  1.6826 -0.1677  0.0217
 4204SOL    MW416590   3.258   4.790   5.159  0.2764 -0.6683 -0.2516
 4205SOL     OW16591   0.440   6.254   3.560  0.4733  0.0783 -0.8577
 4205SOL    HW216592   0.390   6.327   3.526 -0.6531  0.2172  0.9829
 4205SOL    HW316593   0.390   6.176   3.535  0.1971  0.1147 -0.4194
 4205SOL    MW416594   0.427   6.253   3.552  0.2882  0.1014 -0.5570
 4206SOL     OW16595   6.326   2.437   1.868  0.4559  0.5313  0.3248
 4206SOL    HW216596   6.398   2.395   1.916 -1.0545 -0.6520  1.6450
 4206SOL    HW316597   6.298   2.371   1.804 -0.4336  0.3901  0.8488
 4206SOL    MW416598   6.332   2.422   1.866  0.1392  0.3566  0.5681
 4207SOL     OW16599   0.794   0.106   0.745  0.2597  0.0973 -0.2525
 4207SOL    HW216600   0.890   0.107   0.750  0.2644  1.0435 -0.3737
 4207SOL    HW316601   0.768   0.044   0.813  0.9206  0.9640  0.8283
 4207SOL    MW416602   0.803   0.098   0.755  0.3475  0.3365 -0.1259
 4208SOL     OW16603   1.107   4.104   5.614  0.5703 -0.1850  0.0641
 4208SOL    HW216604   1.133   4.023   5.570 -1.0903 -0.0151 -1.3219
 4208SOL    HW316605   1.058   4.074   5.691  0.9480 -0.4763  0.1996
 4208SOL    MW416606   1.104   4.089   5.618  0.4010 -0.2010 -0.1009
 4209SOL     OW16607   6.189   5.631   5.167 -0.1563 -0.2094 -1.0023
 4209SOL    HW216608   6.183   5.720   5.202 -1.2918 -0.8409  0.5343
 4209SOL    HW316609   6.167   5.640   5.074  1.1720  1.2937 -1.2024
 4209SOL    MW416610   6.185   5.644   5.159 -0.1309 -0.0944 -0.8260
 4210SOL     OW16611   6.247   2.881   0.238  0.0828  0.7987 -0.2222
 4210SOL    HW216612   6.206   2.858   0.154 -2.4417 -0.9407  1.3455
 4210SOL    HW316613   6.337   2.847   0.231  0.5503  2.2818 -2.7909
 4210SOL    MW416614   6.254   2.874   0.226 -0.1886  0.7649 -0.3543
 4211SOL     OW16615   5.305   0.909   1.939  0.5488  0.0153  0.4611
 4211SOL    HW216616   5.244   0.944   1.874  0.4914  1.3521  1.1939
 4211SOL    HW316617   5.389   0.946   1.915  0.4878  0.7090  1.2519
 4211SOL    MW416618   5.308   0.918   1.928  0.5332  0.2832  0.6621
 4212SOL     OW16619   3.958   0.606   0.909  0.3008  0.1095 -0.4646
 4212SOL    HW216620   3.987   0.548   0.979  1.3715  0.7527 -0.3501
 4212SOL    HW316621   3.902   0.670   0.952  2.9085  2.0260  0.3689
 4212SOL    MW416622   3.955   0.607   0.924  0.7862  0.4472 -0.3395
 4213SOL     OW16623   5.306   1.757   3.472 -0.4953  0.7301 -0.3124
 4213SOL    HW216624   5.315   1.662   3.468 -0.1812  0.7103  0.7054
 4213SOL    HW316625   5.325   1.780   3.563  1.2520  1.9534 -0.9190
 4213SOL    MW416626   5.310   1.748   3.483 -0.2233  0.8889 -0.2581
 4214SOL     OW16627   5.719   1.152   2.005  0.4903  0.1285 -0.0210
 4214SOL    HW216628   5.703   1.210   2.080  1.8625 -0.5611  0.8353
 4214SOL    HW316629   5.813   1.155   1.991  0.1379  1.6966 -2.9783
 4214SOL    MW416630   5.729   1.160   2.013  0.6248  0.2444 -0.2982
 4215SOL     OW16631   3.288   0.909   2.479  0.3712  0.3027  0.7785
 4215SOL    HW216632   3.323   0.895   2.391 -0.9912  0.5186  0.1812
 4215SOL    HW316633   3.303   0.826   2.524  1.6882  0.4090  0.5819
 4215SOL    MW416634   3.294   0.896   2.473  0.3652  0.3452  0.6738
 4216SOL     OW16635   2.947   2.219   6.305  0.4132 -0.5202  0.7910
 4216SOL    HW216636   2.859   2.211   6.342  0.2397 -1.2634  0.2536
 4216SOL    HW316637   2.995   2.273   6.367 -0.3318 -0.3808  1.2570
 4216SOL    MW416638   2.942   2.225   6.318  0.2920 -0.5998  0.7816
 4217SOL     OW16639   2.468   2.530   0.992 -0.0061  0.1497 -0.6355
 4217SOL    HW216640   2.440   2.509   1.081  0.1994  1.8119 -0.1364
 4217SOL    HW316641   2.431   2.460   0.938 -1.8610  0.1773  0.5005
 4217SOL    MW416642   2.459   2.518   0.996 -0.2238  0.3726 -0.4198
 4218SOL     OW16643   3.708   0.209   6.078  0.2021  0.1011  0.7713
 4218SOL    HW216644   3.743   0.121   6.097 -1.5475 -0.5687  1.0998
 4218SOL    HW316645   3.771   0.248   6.018  0.0892 -2.0989 -0.8727
 4218SOL    MW416646   3.721   0.202   6.073 -0.0436 -0.2775  0.5977
 4219SOL     OW16647   4.092   0.785   3.149  0.1875  0.4607  0.0577
 4219SOL    HW216648   4.045   0.824   3.222 -0.4262  0.1390 -0.1631
 4219SOL    HW316649   4.183   0.814   3.161 -0.2166  1.8348 -0.0263
 4219SOL    MW416650   4.098   0.794   3.160  0.0532  0.5995  0.0175
 4220SOL     OW16651   0.284   5.082   5.267  0.2911  0.7553 -0.1235
 4220SOL    HW216652   0.361   5.060   5.320 -0.2532  0.5853  0.6178
 4220SOL    HW316653   0.273   5.007   5.208  2.6012  2.1591 -2.5677
 4220SOL    MW416654   0.292   5.069   5.266  0.5240  0.9181 -0.3482
 4221SOL     OW16655   4.051   4.516   5.620  0.0322  0.3500 -0.6142
 4221SOL    HW216656   4.073   4.609   5.623 -1.0036  0.5924 -0.1310
 4221SOL    HW316657   4.127   4.475   5.577  0.4625  1.4167 -0.9122
 4221SOL    MW416658   4.064   4.523   5.615 -0.0477  0.5227 -0.5897
 4222SOL     OW16659   4.911   6.397   5.972  0.3528  0.4953 -0.2997
 4222SOL    HW216660   4.899   6.305   5.996  0.8723  0.6466  0.5695
 4222SOL    HW316661   4.835   6.442   6.009 -0.2421  0.3305 -1.2879
 4222SOL    MW416662   4.900   6.391   5.980  0.3429  0.4935 -0.3154
 4223SOL     OW16663   5.029   0.983   0.821 -0.0907  0.2080 -0.2935
 4223SOL    HW216664   5.083   1.030   0.757 -1.2848  1.0328 -0.7234
 4223SOL    HW316665   5.066   1.008   0.906  0.9421 -0.1856 -0.6119
 4223SOL    MW416666   5.041   0.993   0.824 -0.1120  0.2649 -0.3923
 4224SOL     OW16667   2.775   3.524   2.367 -0.0013  0.1384  0.2955
 4224SOL    HW216668   2.869   3.525   2.388  0.2783  0.1804 -0.9163
 4224SOL    HW316669   2.771   3.500   2.275 -1.2433 -0.7486  0.5551
 4224SOL    MW416670   2.787   3.521   2.358 -0.1283  0.0269  0.1698
 4225SOL     OW16671   6.319   1.926   3.788 -0.1483  0.5544 -0.5247
 4225SOL    HW216672   6.391   1.877   3.827 -0.4894 -0.1366 -0.7526
 4225SOL    HW316673   6.342   2.018   3.803  0.6352  0.3383 -0.3392
 4225SOL    MW416674   6.332   1.932   3.795 -0.0899  0.4347 -0.5303
 4226SOL     OW16675   1.705   5.619   1.865  0.0940  0.1884  0.2014
 4226SOL    HW216676   1.627   5.583   1.908  0.4583 -0.2495  0.5082
 4226SOL    HW316677   1.682   5.710   1.845  0.1059  0.5847  1.8301
 4226SOL    MW416678   1.692   5.626   1.868  0.1436  0.1829  0.4567
 4227SOL     OW16679   0.192   2.867   1.992 -0.7443 -0.0690 -0.6613
 4227SOL    HW216680   0.163   2.795   1.935 -0.0018  0.2812 -1.4996
 4227SOL    HW316681   0.118   2.882   2.051 -1.3428 -0.7658 -1.2144
 4227SOL    MW416682   0.178   2.859   1.993 -0.7253 -0.1147 -0.8449
 4228SOL     OW16683   2.288   5.255   4.415 -0.1685  0.1796 -0.4932
 4228SOL    HW216684   2.325   5.169   4.396  0.3687  0.6003 -1.4734
 4228SOL    HW316685   2.359   5.303   4.457 -0.8568 -0.2283  1.2244
 4228SOL    MW416686   2.302   5.250   4.418 -0.1884  0.1813 -0.3959
 4229SOL     OW16687   1.531   2.235   5.091  0.0226  0.0263  0.1670
 4229SOL    HW216688   1.460   2.281   5.046  0.3182  0.9757  0.6411
 4229SOL    HW316689   1.593   2.304   5.114  0.0939 -0.4954  1.6181
 4229SOL    MW416690   1.530   2.251   5.088  0.0710  0.0827  0.4210
 4230SOL     OW16691   5.063   5.082   3.750  0.6731 -0.1818  0.7280
 4230SOL    HW216692   5.000   5.019   3.715 -1.0351  2.0663 -0.5056
 4230SOL    HW316693   5.093   5.132   3.674  2.3134  0.2613  1.6025
 4230SOL    MW416694   5.059   5.081   3.735  0.6642  0.1733  0.6807
 4231SOL     OW16695   4.651   5.787   3.524  0.0660 -0.0628 -0.4880
 4231SOL    HW216696   4.621   5.696   3.524 -1.5396  0.3769 -2.9363
 4231SOL    HW316697   4.746   5.781   3.512  0.0213 -1.3979 -0.3620
 4231SOL    MW416698   4.660   5.774   3.522 -0.1517 -0.1809 -0.7944
 4232SOL     OW16699   4.189   5.068   6.421 -0.3315  0.3817 -0.2899
 4232SOL    HW216700   4.181   4.980   6.384 -0.2462  0.1821  0.1619
 4232SOL    HW316701   4.207   5.124   6.346 -1.6039  0.2037 -0.7510
 4232SOL    MW416702   4.190   5.063   6.406 -0.4881  0.3319 -0.2912
 4233SOL     OW16703   3.689   2.301   0.289 -0.0002 -0.3108 -0.7336
 4233SOL    HW216704   3.700   2.256   0.373 -0.1793 -1.7675 -1.4606
 4233SOL    HW316705   3.775   2.338   0.271  0.9311 -2.5423 -1.2916
 4233SOL    MW416706   3.701   2.300   0.298  0.0991 -0.7974 -0.9032
 4234SOL     OW16707   1.107   1.008   6.261 -0.2567  0.0687 -0.1042
 4234SOL    HW216708   1.049   0.938   6.291 -1.2051  1.1264  0.6517
 4234SOL    HW316709   1.139   0.978   6.176 -1.2086 -0.9673 -0.1230
 4234SOL    MW416710   1.103   0.995   6.254 -0.5074  0.0716 -0.0069
 4235SOL     OW16711   5.532   0.359   1.074  0.3882  0.1989 -0.1308
 4235SOL    HW216712   5.528   0.285   1.013 -1.3536  0.2039 -0.0629
 4235SOL    HW316713   5.476   0.333   1.147 -0.2371  1.5646 -0.1045
 4235SOL    MW416714   5.524   0.346   1.075  0.0759  0.3798 -0.1184
 4236SOL     OW16715   1.268   5.860   3.676 -0.1511  0.1922  0.5667
 4236SOL    HW216716   1.263   5.767   3.695 -1.1832  0.4986  2.0250
 4236SOL    HW316717   1.202   5.875   3.609  0.6330 -0.2541 -0.3156
 4236SOL    MW416718   1.259   5.850   3.670 -0.1838  0.1737  0.6427
 4237SOL     OW16719   5.124   2.636   3.883  0.0103 -0.0091 -0.2909
 4237SOL    HW216720   5.147   2.563   3.940 -3.3016 -0.4299  0.7297
 4237SOL    HW316721   5.069   2.597   3.815 -1.7374  1.4662  0.2051
 4237SOL    MW416722   5.120   2.622   3.881 -0.6573  0.1300 -0.0908
 4238SOL     OW16723   2.832   5.217   4.301  0.0399  0.4835  0.4287
 4238SOL    HW216724   2.771   5.215   4.374 -0.1531  3.2902  0.4701
 4238SOL    HW316725   2.894   5.286   4.324  0.4742  0.8609 -1.6626
 4238SOL    MW416726   2.832   5.226   4.313  0.0717  0.9036  0.1583
 4239SOL     OW16727   1.577   1.000   1.212  0.1017  0.2056  0.3917
 4239SOL    HW216728   1.540   0.994   1.124 -0.2940 -0.5690  0.5992
 4239SOL    HW316729   1.552   1.087   1.243  0.9672  0.8286 -0.5665
 4239SOL    MW416730   1.569   1.011   1.204  0.1637  0.1856  0.2926
 4240SOL     OW16731   4.378   2.064   1.598 -0.1891  0.1152 -0.3057
 4240SOL    HW216732   4.455   2.018   1.565 -0.0550 -0.9222  1.3082
 4240SOL    HW316733   4.359   2.020   1.681 -3.5414 -0.7840 -1.4195
 4240SOL    MW416734   4.386   2.052   1.605 -0.6137 -0.1403 -0.2397
 4241SOL     OW16735   5.085   6.079   2.733  0.3313 -0.5394  0.2856
 4241SOL    HW216736   5.051   6.017   2.669  0.5411 -0.2620 -0.0999
 4241SOL    HW316737   5.142   6.137   2.683  0.5856 -0.3848  0.7439
 4241SOL    MW416738   5.088   6.079   2.718  0.3925 -0.4824  0.2952
 4242SOL     OW16739   2.476   2.538   1.273 -0.0264  0.2386  0.1386
 4242SOL    HW216740   2.407   2.474   1.293  0.1897  0.2822  1.0736
 4242SOL    HW316741   2.429   2.620   1.257 -0.1741  0.3910  1.2900
 4242SOL    MW416742   2.460   2.540   1.274 -0.0174  0.2645  0.4139
 4243SOL     OW16743   1.184   0.253   3.219 -0.4346  0.3168  0.2820
 4243SOL    HW216744   1.252   0.275   3.155  0.3839  0.4927  1.2002
 4243SOL    HW316745   1.146   0.337   3.243 -0.3696  0.3028  0.4342
 4243SOL    MW416746   1.188   0.267   3.214 -0.3181  0.3381  0.4232
 4244SOL     OW16747   0.981   4.781   5.391  0.1588  0.5310  0.1266
 4244SOL    HW216748   0.895   4.744   5.373 -1.0567  1.9873  2.5606
 4244SOL    HW316749   0.981   4.865   5.345 -0.0613  0.9130  0.8197
 4244SOL    MW416750   0.970   4.787   5.383 -0.0306  0.7735  0.5392
 4245SOL     OW16751   4.227   1.722   1.967 -0.4168 -0.0084 -0.3754
 4245SOL    HW216752   4.239   1.797   1.909  0.4535  0.4233  0.3412
 4245SOL    HW316753   4.288   1.738   2.039 -0.5265 -1.1956 -0.0059
 4245SOL    MW416754   4.237   1.734   1.969 -0.3165 -0.1081 -0.2321
 4246SOL     OW16755   1.296   3.165   2.184 -0.0365  0.5467  0.0713
 4246SOL    HW216756   1.312   3.232   2.117 -0.0780 -0.6397 -1.1513
 4246SOL    HW316757   1.383   3.130   2.205 -0.1334  0.1822 -0.1363
 4246SOL    MW416758   1.310   3.170   2.178 -0.0548  0.3421 -0.1174
 4247SOL     OW16759   2.224   5.898   3.694  0.0760  0.1866 -0.3193
 4247SOL    HW216760   2.258   5.987   3.678 -0.1491  0.2201 -0.6255
 4247SOL    HW316761   2.129   5.907   3.682  0.2021 -0.4307 -1.9534
 4247SOL    MW416762   2.216   5.911   3.690  0.0629  0.1096 -0.5753
 4248SOL     OW16763   3.619   5.033   1.286  0.1097 -0.0085 -0.9248
 4248SOL    HW216764   3.664   4.963   1.239  0.1196  0.7495 -2.0832
 4248SOL    HW316765   3.583   5.089   1.217 -0.5486  0.7093 -0.0221
 4248SOL    MW416766   3.620   5.031   1.270  0.0242  0.1862 -0.9585
 4249SOL     OW16767   0.563   4.112   2.988 -0.4312  0.1007 -0.6232
 4249SOL    HW216768   0.575   4.181   3.053 -0.7293 -1.5539  1.3170
 4249SOL    HW316769   0.469   4.094   2.988 -0.2570 -0.9092 -0.3703
 4249SOL    MW416770   0.552   4.119   2.997 -0.4475 -0.2509 -0.3338
 4250SOL     OW16771   4.982   0.497   4.932  0.2841  0.3719 -0.4301
 4250SOL    HW216772   5.067   0.493   4.887 -0.1942  1.0139 -1.4420
 4250SOL    HW316773   5.004   0.515   5.023  1.2260  1.3091 -0.8110
 4250SOL    MW416774   4.996   0.499   4.938  0.3453  0.5802 -0.6138
 4251SOL     OW16775   0.478   0.555   6.318  0.4167 -0.3239 -0.6346
 4251SOL    HW216776   0.465   0.495   6.391 -1.4931 -0.1765 -0.7982
 4251SOL    HW316777   0.529   0.627   6.354 -0.0561 -0.5092  0.4311
 4251SOL    MW416778   0.483   0.557   6.332  0.1023 -0.3289 -0.5156
 4252SOL     OW16779   5.808   2.470   4.063  0.7693 -0.0301 -0.0757
 4252SOL    HW216780   5.774   2.412   4.131  2.3746 -0.0906  0.7174
 4252SOL    HW316781   5.832   2.550   4.110  0.7826  0.3862 -0.7749
 4252SOL    MW416782   5.807   2.473   4.078  0.9829  0.0168 -0.0633
 4253SOL     OW16783   1.661   1.083   5.095 -0.1685 -0.3467 -0.3030
 4253SOL    HW216784   1.753   1.106   5.090 -0.1918 -0.3748 -1.1379
 4253SOL    HW316785   1.654   1.001   5.045 -0.4489 -0.9991  0.7669
 4253SOL    MW416786   1.672   1.075   5.087 -0.2086 -0.4365 -0.2720
 4254SOL     OW16787   3.655   6.003   0.427  0.1434  0.0394 -0.3885
 4254SOL    HW216788   3.725   5.991   0.363  1.1984  0.7564  0.5987
 4254SOL    HW316789   3.663   5.928   0.486  0.4701  0.4273  0.0674
 4254SOL    MW416790   3.665   5.991   0.427  0.3257  0.1852 -0.1981
 4255SOL     OW16791   0.052   4.291   1.702 -0.0597  0.7186  0.1754
 4255SOL    HW216792   0.133   4.324   1.663 -0.0051  0.5825  0.1754
 4255SOL    HW316793   0.064   4.303   1.796 -0.2797  1.2517  0.1406
 4255SOL    MW416794   0.064   4.297   1.709 -0.0816  0.7710  0.1708
 4256SOL     OW16795   0.189   2.498   2.196  0.2692 -0.1851  0.0844
 4256SOL    HW216796   0.115   2.512   2.255 -0.9966 -0.7919 -1.2721
 4256SOL    HW316797   0.227   2.585   2.184 -0.8195  0.3048  0.0811
 4256SOL    MW416798   0.184   2.511   2.202 -0.0414 -0.2005 -0.0951
 4257SOL     OW16799   2.155   0.095   0.784 -0.7618 -0.1916  0.0416
 4257SOL    HW216800   2.086   0.030   0.801  0.4185 -0.6594  3.8828
 4257SOL    HW316801   2.117   0.177   0.814 -0.6174  0.0950 -0.5466
 4257SOL    MW416802   2.141   0.097   0.790 -0.5870 -0.2155  0.4708
 4258SOL     OW16803   4.558   3.679   1.691  0.1458  0.8628  0.0711
 4258SOL    HW216804   4.556   3.677   1.787 -0.5281  2.3445  0.1127
 4258SOL    HW316805   4.593   3.765   1.670  1.8184 -0.0469 -1.0413
 4258SOL    MW416806   4.562   3.690   1.701  0.2775  0.9382 -0.0701
 4259SOL     OW16807   0.208   0.471   0.674 -0.6416 -0.0917 -0.0736
 4259SOL    HW216808   0.202   0.507   0.762 -1.1003  2.5011 -1.0586
 4259SOL    HW316809   0.277   0.522   0.632 -1.4218 -0.2408 -1.6233
 4259SOL    MW416810   0.216   0.483   0.680 -0.8050  0.2307 -0.4080
 4260SOL     OW16811   5.532   5.637   0.761 -0.2496  0.0582  0.5633
 4260SOL    HW216812   5.545   5.731   0.757  2.1288 -0.2307  0.1381
 4260SOL    HW316813   5.545   5.607   0.671  0.7622 -0.8277  0.9781
 4260SOL    MW416814   5.535   5.645   0.749  0.1977 -0.0968  0.5619
 4261SOL     OW16815   1.616   6.051   1.496 -0.1521  0.1451  0.3395
 4261SOL    HW216816   1.598   6.137   1.457 -0.9529 -0.1754 -0.0228
 4261SOL    HW316817   1.537   6.000   1.479  1.3747 -1.6195 -2.0341
 4261SOL    MW416818   1.603   6.056   1.489 -0.0563 -0.1300 -0.0214
 4262SOL     OW16819   2.359   1.363   0.242 -0.5028 -0.1818  0.1285
 4262SOL    HW216820   2.444   1.403   0.224 -0.2054 -0.7899  0.1365
 4262SOL    HW316821   2.330   1.403   0.323 -0.4662  0.4132 -0.1491
 4262SOL    MW416822   2.367   1.374   0.250 -0.4587 -0.1835  0.0929
 4263SOL     OW16823   3.523   6.392   1.657 -0.0685 -0.3707 -0.0270
 4263SOL    HW216824   3.438   6.364   1.625 -0.5444 -0.1226  0.9715
 4263SOL    HW316825   3.542   6.473   1.609 -0.9671  0.2320  0.5985
 4263SOL    MW416826   3.515   6.399   1.646 -0.2499 -0.2584  0.1873
 4264SOL     OW16827   1.542   6.083   6.125 -0.1537  0.1194  0.3792
 4264SOL    HW216828   1.631   6.048   6.111 -0.0701  0.8559 -1.2156
 4264SOL    HW316829   1.499   6.071   6.041 -1.1879  0.8313  0.7905
 4264SOL    MW416830   1.548   6.077   6.112 -0.2791  0.3105  0.2231
 4265SOL     OW16831   1.631   2.713   5.355  0.0012  0.4523  0.4622
 4265SOL    HW216832   1.573   2.788   5.337  0.5256  1.4748  2.6847
 4265SOL    HW316833   1.587   2.639   5.314  0.7312  2.2343 -4.2297
 4265SOL    MW416834   1.617   2.713   5.347  0.1667  0.8223  0.1364
 4266SOL     OW16835   2.199   6.315   4.377  0.1412 -0.1365  0.1725
 4266SOL    HW216836   2.109   6.313   4.410  0.4367  1.2463  1.1255
 4266SOL    HW316837   2.250   6.275   4.447  0.1893 -1.8389 -0.7788
 4266SOL    MW416838   2.194   6.309   4.391  0.1865 -0.1787  0.1727
 4267SOL     OW16839   4.287   2.402   1.019 -0.0873 -0.0718  0.6984
 4267SOL    HW216840   4.381   2.393   1.002 -0.2880 -0.0887 -0.4621
 4267SOL    HW316841   4.273   2.496   1.028 -0.6232  0.4375 -3.5477
 4267SOL    MW416842   4.298   2.413   1.018 -0.1845 -0.0068 -0.0149
 4268SOL     OW16843   5.127   0.797   1.661  0.7129 -0.3282  0.4063
 4268SOL    HW216844   5.104   0.761   1.575 -0.0031  1.3996 -0.1790
 4268SOL    HW316845   5.094   0.733   1.724  0.7198 -1.3374 -0.5891
 4268SOL    MW416846   5.119   0.784   1.658  0.6194 -0.2334  0.1977
 4269SOL     OW16847   5.271   1.364   4.939 -0.3678 -0.1895 -0.1119
 4269SOL    HW216848   5.358   1.364   4.899 -0.1850  0.7860  0.2457
 4269SOL    HW316849   5.276   1.300   5.009 -0.0809 -0.4804 -0.3980
 4269SOL    MW416850   5.283   1.356   4.943 -0.3058 -0.0991 -0.1025
 4270SOL     OW16851   4.575   0.663   4.295  0.1967  0.0537  0.2937
 4270SOL    HW216852   4.563   0.655   4.201  1.1906  0.7827  0.0940
 4270SOL    HW316853   4.502   0.719   4.324 -0.3235 -0.4728  0.0309
 4270SOL    MW416854   4.563   0.670   4.287  0.2592  0.0804  0.2327
 4271SOL     OW16855   0.492   1.255   5.647 -0.0298  0.5470 -0.0969
 4271SOL    HW216856   0.512   1.166   5.675 -0.4419  0.0876 -1.2194
 4271SOL    HW316857   0.406   1.274   5.684 -0.6229 -0.0976 -1.1151
 4271SOL    MW416858   0.483   1.246   5.655 -0.1624  0.4014 -0.3793
 4272SOL     OW16859   5.027   6.086   0.194  0.1288  0.2333 -0.4983
 4272SOL    HW216860   5.071   6.170   0.180 -2.1587  1.5448 -0.2427
 4272SOL    HW316861   4.954   6.106   0.252 -0.2893 -2.0180 -0.1576
 4272SOL    MW416862   5.023   6.099   0.200 -0.2281  0.1093 -0.4196
 4273SOL     OW16863   1.107   1.060   4.740 -0.2263 -0.7075  0.3865
 4273SOL    HW216864   1.038   1.099   4.687 -0.3493  0.9103  1.6544
 4273SOL    HW316865   1.152   1.134   4.781  1.0897 -1.7973  1.0414
 4273SOL    MW416866   1.104   1.075   4.739 -0.0689 -0.6378  0.6402
 4274SOL     OW16867   5.138   6.002   6.197  0.3558 -0.0718  0.0755
 4274SOL    HW216868   5.148   5.933   6.262 -0.1470  0.9015  1.2114
 4274SOL    HW316869   5.189   5.972   6.122  2.6984 -0.2572  1.6491
 4274SOL    MW416870   5.146   5.989   6.195  0.5985  0.0321  0.4330
 4275SOL     OW16871   2.337   3.856   0.792  0.3251  0.1390  0.3782
 4275SOL    HW216872   2.273   3.786   0.778  1.4012 -0.9730  0.9132
 4275SOL    HW316873   2.309   3.925   0.732 -2.3780  0.3963  1.7746
 4275SOL    MW416874   2.325   3.856   0.782  0.1104  0.0262  0.6331
 4276SOL     OW16875   5.506   5.086   3.516  0.7656 -0.1074 -0.2676
 4276SOL    HW216876   5.425   5.061   3.561  0.5970 -1.5561 -1.3049
 4276SOL    HW316877   5.551   5.144   3.577  0.0021 -1.0815  1.2712
 4276SOL    MW416878   5.501   5.090   3.530  0.6426 -0.4271 -0.2014
 4277SOL     OW16879   4.510   5.519   5.018 -0.1170  0.1215 -0.1790
 4277SOL    HW216880   4.483   5.561   5.100 -2.2520 -1.3843 -0.0292
 4277SOL    HW316881   4.568   5.448   5.045 -0.9233 -0.4554  0.0615
 4277SOL    MW416882   4.514   5.515   5.032 -0.5050 -0.1533 -0.1275
 4278SOL     OW16883   1.295   5.123   2.691  0.2652 -0.1561 -0.3481
 4278SOL    HW216884   1.243   5.044   2.675 -0.0174  0.1381 -0.9362
 4278SOL    HW316885   1.368   5.115   2.629 -1.5569  1.6562 -2.9539
 4278SOL    MW416886   1.298   5.111   2.681 -0.0125  0.1219 -0.7695
 4279SOL     OW16887   6.020   3.994   3.009  0.2562  0.2584 -0.0418
 4279SOL    HW216888   5.994   3.931   3.075 -0.0969 -0.8572 -1.2046
 4279SOL    HW316889   6.089   3.950   2.959 -0.8541  0.2363 -1.6603
 4279SOL    MW416890   6.026   3.980   3.011  0.0632  0.1083 -0.4087
 4280SOL     OW16891   0.612   5.276   3.159 -0.6991 -0.4511  0.3361
 4280SOL    HW216892   0.571   5.236   3.235 -1.6281 -1.8355 -0.8364
 4280SOL    HW316893   0.575   5.365   3.156  0.3020  0.0727  2.1560
 4280SOL    MW416894   0.602   5.282   3.168 -0.6896 -0.5646  0.4215
 4281SOL     OW16895   3.373   6.230   2.581 -0.0705 -0.0802 -0.0257
 4281SOL    HW216896   3.346   6.194   2.496 -0.3837  1.4155 -0.5952
 4281SOL    HW316897   3.437   6.168   2.615 -1.0195 -1.4586 -0.6813
 4281SOL    MW416898   3.378   6.217   2.574 -0.2370 -0.0647 -0.1874
 4282SOL     OW16899   1.913   2.284   1.563 -0.1310 -0.2753  0.5121
 4282SOL    HW216900   1.995   2.326   1.589 -0.2145  0.3606 -0.2123
 4282SOL    HW316901   1.940   2.216   1.502 -0.0997 -0.4722  0.7416
 4282SOL    MW416902   1.927   2.281   1.559 -0.1379 -0.2174  0.4468
 4283SOL     OW16903   3.136   5.984   1.196 -0.0204  0.4958  0.4644
 4283SOL    HW216904   3.195   5.933   1.140 -1.4295  0.4670 -1.0824
 4283SOL    HW316905   3.074   5.920   1.231 -1.2665  0.9544 -0.7933
 4283SOL    MW416906   3.135   5.969   1.193 -0.3707  0.5525  0.0944
 4284SOL     OW16907   3.128   4.151   2.243  0.3086 -0.5179 -0.6662
 4284SOL    HW216908   3.157   4.131   2.154 -0.2023 -0.9150 -0.7495
 4284SOL    HW316909   3.209   4.168   2.292  0.5673  0.1294 -1.3058
 4284SOL    MW416910   3.142   4.150   2.238  0.2753 -0.4849 -0.7616
 4285SOL     OW16911   2.856   1.526   0.441  0.0680 -0.2958  0.1186
 4285SOL    HW216912   2.778   1.491   0.484 -0.0580  0.3570  0.4279
 4285SOL    HW316913   2.921   1.534   0.511 -0.7433  2.6217  0.6669
 4285SOL    MW416914   2.855   1.523   0.456 -0.0557  0.1752  0.2318
 4286SOL     OW16915   5.251   4.055   0.630  0.2411  0.0448 -0.3984
 4286SOL    HW216916   5.320   4.011   0.581 -0.1531 -0.3358 -0.6180
 4286SOL    HW316917   5.241   4.004   0.710  0.1285  0.0309 -0.4215
 4286SOL    MW416918   5.259   4.043   0.634  0.1742 -0.0073 -0.4304
 4287SOL     OW16919   5.069   5.933   4.214  0.1586  0.2040 -0.1125
 4287SOL    HW216920   5.013   5.870   4.169  1.2857 -1.0284  0.1180
 4287SOL    HW316921   5.020   5.958   4.292 -0.0329 -0.9732  0.1719
 4287SOL    MW416922   5.055   5.928   4.218  0.2820 -0.1140 -0.0446
 4288SOL     OW16923   4.270   5.991   4.399 -0.5359 -0.0604  0.1802
 4288SOL    HW216924   4.224   5.943   4.330 -1.7453 -0.4298  1.2139
 4288SOL    HW316925   4.203   6.009   4.465  0.4150  1.0195  0.8860
 4288SOL    MW416926   4.255   5.987   4.399 -0.5700  0.0333  0.4097
 4289SOL     OW16927   1.596   3.304   5.020 -0.0440  0.1140  0.0896
 4289SOL    HW216928   1.612   3.370   5.088  1.0535 -0.3921  0.3394
 4289SOL    HW316929   1.542   3.350   4.955 -0.4059  0.8552  0.8921
 4289SOL    MW416930   1.591   3.319   5.020  0.0531  0.1450  0.2284
 4290SOL     OW16931   5.815   4.741   1.753  0.1377 -0.3817  0.7683
 4290SOL    HW216932   5.743   4.804   1.753  0.2702 -0.2319  0.4523
 4290SOL    HW316933   5.809   4.697   1.668  2.0680  1.5130 -0.4381
 4290SOL    MW416934   5.804   4.744   1.742  0.4099 -0.1120  0.5674
 4291SOL     OW16935   1.422   5.604   3.280 -0.2991  0.2617  0.0459
 4291SOL    HW216936   1.453   5.684   3.323  1.5083  1.0625 -2.4489
 4291SOL    HW316937   1.478   5.596   3.202 -1.5158 -2.5608 -0.6747
 4291SOL    MW416938   1.434   5.614   3.275 -0.2212 -0.0050 -0.3783
 4292SOL     OW16939   5.847   4.538   0.487  0.4697  0.3385 -0.0221
 4292SOL    HW216940   5.800   4.586   0.556 -0.1626  0.8863 -0.8013
 4292SOL    HW316941   5.824   4.446   0.501  2.7276  0.0240  2.2905
 4292SOL    MW416942   5.838   4.532   0.498  0.6841  0.3693  0.1802
 4293SOL     OW16943   4.375   3.228   2.957 -0.1801  0.1830  0.5662
 4293SOL    HW216944   4.385   3.288   2.883  1.3875 -0.4025  0.2433
 4293SOL    HW316945   4.437   3.261   3.022  0.1254 -0.6278  0.6914
 4293SOL    MW416946   4.385   3.240   2.956  0.0670 -0.0012  0.5401
 4294SOL     OW16947   1.826   3.008   2.175  0.5296  0.6592  0.1794
 4294SOL    HW216948   1.835   2.918   2.206  1.1658  1.1737  1.5417
 4294SOL    HW316949   1.835   3.062   2.253 -0.8113  1.8851 -0.4558
 4294SOL    MW416950   1.828   3.003   2.189  0.4366  0.8888  0.2754
 4295SOL     OW16951   0.845   6.305   2.667  0.0587 -0.5199  0.7257
 4295SOL    HW216952   0.843   6.214   2.638  1.7385 -0.5356  0.5874
 4295SOL    HW316953   0.824   6.300   2.761 -1.9675 -0.7958  0.3136
 4295SOL    MW416954   0.842   6.293   2.676  0.0130 -0.5583  0.6531
 4296SOL     OW16955   2.428   5.510   3.128 -0.4651  0.0911  0.5549
 4296SOL    HW216956   2.347   5.472   3.095 -0.6537 -0.4059  1.5583
 4296SOL    HW316957   2.407   5.542   3.215 -0.0840  1.7788  0.0720
 4296SOL    MW416958   2.415   5.509   3.135 -0.4397  0.2482  0.6236
 4297SOL     OW16959   4.865   3.005   4.773  0.6353  0.1171 -0.1221
 4297SOL    HW216960   4.838   3.042   4.688  0.8144  1.3403  0.3286
 4297SOL    HW316961   4.783   2.981   4.815  0.4995  0.1851 -0.3446
 4297SOL    MW416962   4.850   3.007   4.767  0.6410  0.2875 -0.0920
 4298SOL     OW16963   5.877   5.651   3.481  0.5762 -0.1030  0.0401
 4298SOL    HW216964   5.903   5.710   3.551  0.0079 -1.0735  1.1000
 4298SOL    HW316965   5.819   5.588   3.523 -0.6642 -0.0685 -1.5346
 4298SOL    MW416966   5.873   5.650   3.496  0.3375 -0.2265 -0.0278
 4299SOL     OW16967   2.988   2.938   4.872  0.6082 -0.6630  0.6636
 4299SOL    HW216968   2.930   2.884   4.925 -0.6433 -1.5871 -1.5133
 4299SOL    HW316969   3.069   2.888   4.865  0.4103 -1.0092  0.8591
 4299SOL    MW416970   2.991   2.924   4.878  0.4170 -0.8306  0.4022
 4300SOL     OW16971   0.148   5.404   0.104 -0.2765  0.6144 -0.7125
 4300SOL    HW216972   0.198   5.468   0.054  1.1202  0.3161  0.2341
 4300SOL    HW316973   0.160   5.431   0.196 -0.0300 -0.7085 -0.3270
 4300SOL    MW416974   0.156   5.416   0.110 -0.0597  0.4005 -0.5367
 4301SOL     OW16975   1.522   5.806   2.889 -0.4403 -0.0527  0.1124
 4301SOL    HW216976   1.553   5.889   2.924 -2.3394  0.5652  0.4856
 4301SOL    HW316977   1.537   5.742   2.959 -0.8940  0.4286  0.6585
 4301SOL    MW416978   1.528   5.808   2.902 -0.7507  0.0923  0.2337
 4302SOL     OW16979   0.258   3.663   1.084  0.2641  0.3356 -0.6112
 4302SOL    HW216980   0.289   3.739   1.133 -0.9606 -0.1220  0.9435
 4302SOL    HW316981   0.331   3.601   1.088  1.0672  1.1845 -1.4434
 4302SOL    MW416982   0.272   3.665   1.091  0.2085  0.3873 -0.5159
 4303SOL     OW16983   4.612   5.857   5.633  0.0950 -0.2594  0.4478
 4303SOL    HW216984   4.681   5.878   5.696  0.2427  0.1276  0.1589
 4303SOL    HW316985   4.615   5.928   5.569  0.0047 -0.6965 -0.0482
 4303SOL    MW416986   4.621   5.869   5.633  0.1026 -0.2660  0.3442
 4304SOL     OW16987   3.726   1.349   5.064 -0.0477 -0.0461  0.5081
 4304SOL    HW216988   3.786   1.399   5.120  1.5595 -1.7964  0.4425
 4304SOL    HW316989   3.721   1.400   4.983 -0.2583  1.1380  1.2332
 4304SOL    MW416990   3.733   1.363   5.061  0.1366 -0.1208  0.5951
 4305SOL     OW16991   2.039   5.142   4.619  0.4559  0.3365 -0.0382
 4305SOL    HW216992   2.061   5.140   4.526  2.0295 -1.3012  0.2972
 4305SOL    HW316993   1.955   5.098   4.624  1.8179 -2.5806 -0.4642
 4305SOL    MW416994   2.031   5.136   4.607  0.8432 -0.2644 -0.0501
 4306SOL     OW16995   2.305   5.031   4.672 -0.3191  0.3894 -0.2440
 4306SOL    HW216996   2.214   5.063   4.670  0.1516  1.7995 -0.3153
 4306SOL    HW316997   2.298   4.940   4.700 -1.4751  1.6319  4.4037
 4306SOL    MW416998   2.292   5.024   4.675 -0.4095  0.7393  0.3598
 4307SOL     OW16999   2.912   2.241   3.222 -0.4675 -0.3109 -0.4614
 4307SOL    HW217000   2.899   2.170   3.159  0.5092 -1.0795  0.1791
 4307SOL    HW317001   2.955   2.310   3.171  1.7164 -1.5034 -0.3437
 4307SOL    MW417002   2.916   2.241   3.207 -0.0505 -0.5696 -0.3613
 4308SOL     OW17003   3.700   1.487   4.807  0.2732  0.5018  0.0644
 4308SOL    HW217004   3.789   1.486   4.772 -0.1869  0.7227 -1.1779
 4308SOL    HW317005   3.675   1.580   4.806  1.7162  1.2364  5.0914
 4308SOL    MW417006   3.709   1.499   4.802  0.4029  0.6279  0.5638
 4309SOL     OW17007   1.966   1.085   4.226  0.3858 -0.1896  0.2939
 4309SOL    HW217008   2.036   1.130   4.179  0.0366  1.1717  1.0184
 4309SOL    HW317009   1.918   1.037   4.159  0.5842  0.7909 -0.5747
 4309SOL    MW417010   1.969   1.085   4.211  0.3659  0.1193  0.2749
 4310SOL     OW17011   6.303   4.830   3.046  0.2442  0.2160 -0.2882
 4310SOL    HW217012   6.386   4.819   3.001  0.8537  1.2175  0.5213
 4310SOL    HW317013   6.327   4.852   3.136 -0.9199 -1.5030  0.4956
 4310SOL    MW417014   6.317   4.832   3.052  0.1710  0.1214 -0.0780
 4311SOL     OW17015   5.799   3.753   0.100  0.4404  0.0898 -0.4013
 4311SOL    HW217016   5.774   3.782   0.187  2.1895 -1.6688  0.7700
 4311SOL    HW317017   5.749   3.672   0.086  0.7299 -0.0451 -0.6855
 4311SOL    MW417018   5.789   3.746   0.109  0.7094 -0.1600 -0.2843
 4312SOL     OW17019   5.184   4.392   2.175 -0.5264  0.0327 -0.3153
 4312SOL    HW217020   5.146   4.470   2.135 -0.2136  0.7556  0.7496
 4312SOL    HW317021   5.247   4.360   2.110 -0.5258  0.7675 -0.6884
 4312SOL    MW417022   5.187   4.398   2.161 -0.4851  0.2250 -0.2240
 4313SOL     OW17023   1.113   6.193   4.332  0.5750 -0.1241  0.0248
 4313SOL    HW217024   1.060   6.267   4.303  0.7140  0.0496  0.2087
 4313SOL    HW317025   1.181   6.185   4.265 -0.0935 -0.7999 -0.5886
 4313SOL    MW417026   1.115   6.202   4.319  0.5051 -0.1904 -0.0318
 4314SOL     OW17027   4.650   0.395   5.685  0.5271 -0.3358  0.3543
 4314SOL    HW217028   4.623   0.450   5.612 -0.6510 -0.0642  0.9680
 4314SOL    HW317029   4.662   0.456   5.758  1.0699 -0.6736  0.5513
 4314SOL    MW417030   4.648   0.411   5.685  0.4433 -0.3445  0.4613
 4315SOL     OW17031   2.938   1.163   5.802  0.0210 -0.6723  1.0547
 4315SOL    HW217032   2.896   1.145   5.718 -0.8629  1.7546  0.8793
 4315SOL    HW317033   2.869   1.148   5.866  0.0634 -0.5209  1.1367
 4315SOL    MW417034   2.923   1.159   5.799 -0.0900 -0.3321  1.0424
 4316SOL     OW17035   2.070   1.993   2.168  0.4470  0.0052  0.3346
 4316SOL    HW217036   2.033   2.044   2.240  0.6137  0.7298 -0.0811
 4316SOL    HW317037   2.014   1.915   2.163  0.6243 -0.2147  1.4438
 4316SOL    MW417038   2.057   1.989   2.177  0.4924  0.0718  0.4261
 4317SOL     OW17039   1.816   5.339   2.701  0.4335 -0.3018  0.1180
 4317SOL    HW217040   1.749   5.335   2.770  0.5541 -1.6028  0.1822
 4317SOL    HW317041   1.896   5.309   2.743  1.6019  2.9483  0.5622
 4317SOL    MW417042   1.818   5.335   2.716  0.6036 -0.0447  0.1851
 4318SOL     OW17043   3.721   2.251   6.117 -0.3016  0.3871  0.1733
 4318SOL    HW217044   3.711   2.346   6.127  2.8467  0.8947 -0.5866
 4318SOL    HW317045   3.814   2.235   6.131 -0.4674 -2.3832 -1.2224
 4318SOL    MW417046   3.732   2.261   6.120  0.0919  0.0885 -0.1111
 4319SOL     OW17047   3.745   4.800   6.054 -0.1422  0.3083 -0.2567
 4319SOL    HW217048   3.663   4.848   6.064  0.1025  1.0297 -1.5314
 4319SOL    HW317049   3.762   4.801   5.960  1.4520  0.3785  0.0115
 4319SOL    MW417050   3.736   4.807   6.043  0.1004  0.4128 -0.3895
 4320SOL     OW17051   0.287   1.068   4.326 -0.0164 -0.0782  0.4407
 4320SOL    HW217052   0.254   1.099   4.410  0.1989  1.7384 -0.1041
 4320SOL    HW317053   0.289   1.146   4.270  0.8551 -1.0313 -0.9316
 4320SOL    MW417054   0.283   1.082   4.329  0.1270  0.0357  0.1877
 4321SOL     OW17055   3.183   1.429   3.407 -0.3033 -0.2160  0.1856
 4321SOL    HW217056   3.190   1.521   3.434 -0.3069 -0.5507  1.3649
 4321SOL    HW317057   3.273   1.405   3.383 -0.2604  0.0341  0.0921
 4321SOL    MW417058   3.196   1.438   3.407 -0.2981 -0.2272  0.3288
 4322SOL     OW17059   2.853   5.042   3.533 -0.4587  0.2270 -0.0477
 4322SOL    HW217060   2.845   4.955   3.495  2.2193  0.0453 -0.3884
 4322SOL    HW317061   2.807   5.036   3.617  0.6456 -1.8968  0.4658
 4322SOL    MW417062   2.846   5.030   3.539  0.0403 -0.0772 -0.0249
 4323SOL     OW17063   3.343   5.421   4.314  0.3493  0.1767 -0.4299
 4323SOL    HW217064   3.358   5.479   4.239  2.5124 -0.8472 -0.8553
 4323SOL    HW317065   3.338   5.480   4.389  1.7857  0.9888 -0.9440
 4323SOL    MW417066   3.344   5.437   4.314  0.8242  0.1488 -0.5538
 4324SOL     OW17067   2.680   1.803   2.767 -0.4042 -0.3028 -0.1332
 4324SOL    HW217068   2.771   1.831   2.777 -1.0922  1.4885  1.7245
 4324SOL    HW317069   2.685   1.727   2.709  2.0691  0.8851 -1.6632
 4324SOL    MW417070   2.693   1.797   2.760 -0.1687  0.0903 -0.0899
 4325SOL     OW17071   2.420   1.028   2.843  0.0249  0.1588 -0.1595
 4325SOL    HW217072   2.419   0.993   2.754  1.7747  0.5773 -0.3782
 4325SOL    HW317073   2.365   1.106   2.838  0.2506  0.2791 -0.9190
 4325SOL    MW417074   2.413   1.034   2.830  0.2855  0.2299 -0.2885
 4326SOL     OW17075   0.044   2.140   3.364  0.1323 -0.1180 -0.3728
 4326SOL    HW217076   0.101   2.120   3.289  1.1947 -2.1666  0.8693
 4326SOL    HW317077  -0.011   2.062   3.373 -0.3172  0.3050  0.6940
 4326SOL    MW417078   0.044   2.127   3.355  0.2132 -0.3325 -0.0682
 4327SOL     OW17079   6.391   2.465   4.844  0.3605  0.2909 -0.2262
 4327SOL    HW217080   6.347   2.401   4.787  1.7030 -0.3139 -0.6255
 4327SOL    HW317081   6.476   2.425   4.863  0.5434  1.1955  0.9453
 4327SOL    MW417082   6.396   2.451   4.839  0.5617  0.3304 -0.1243
 4328SOL     OW17083   0.830   2.394   0.878  0.0225  0.2710 -0.3530
 4328SOL    HW217084   0.903   2.339   0.906  0.4294  2.4521  3.5743
 4328SOL    HW317085   0.752   2.348   0.908  0.0891  0.1531 -0.3585
 4328SOL    MW417086   0.829   2.381   0.885  0.0850  0.5433  0.1644
 4329SOL     OW17087   2.466   3.317   0.441  0.3076  0.7534  0.4987
 4329SOL    HW217088   2.449   3.301   0.533  0.2135 -0.9224  0.2265
 4329SOL    HW317089   2.536   3.382   0.440  0.5061  0.5790  1.7504
 4329SOL    MW417090   2.473   3.323   0.453  0.3214  0.5093  0.6280
 4330SOL     OW17091   5.816   3.617   1.532 -0.5883 -0.3906 -0.2882
 4330SOL    HW217092   5.807   3.627   1.627 -1.2474  0.7674 -0.4486
 4330SOL    HW317093   5.729   3.640   1.498 -0.1755 -0.1673 -1.2135
 4330SOL    MW417094   5.803   3.621   1.540 -0.6208 -0.2084 -0.4314
 4331SOL     OW17095   1.317   1.443   0.123 -0.0052  0.2859  0.0840
 4331SOL    HW217096   1.402   1.429   0.082 -0.0051  0.0371  0.1725
 4331SOL    HW317097   1.277   1.356   0.129  0.1077  0.2796  0.8626
 4331SOL    MW417098   1.323   1.430   0.118  0.0097  0.2522  0.1984
 4332SOL     OW17099   3.749   5.587   5.501  0.1152  0.0352  0.6209
 4332SOL    HW217100   3.722   5.496   5.514 -1.9146  0.6494  1.0644
 4332SOL    HW317101   3.843   5.587   5.520  0.2974 -2.0666 -0.0184
 4332SOL    MW417102   3.758   5.575   5.506 -0.1285 -0.1611  0.5951
 4333SOL     OW17103   5.809   2.574   6.332  0.3852  0.3757 -0.8596
 4333SOL    HW217104   5.722   2.535   6.334  0.8690 -0.6922  0.9111
 4333SOL    HW317105   5.812   2.620   6.248 -1.2427 -1.0122 -1.7423
 4333SOL    MW417106   5.798   2.575   6.321  0.2342  0.0517 -0.7425
 4334SOL     OW17107   4.914   3.449   4.084 -0.2356 -0.3942  0.2008
 4334SOL    HW217108   4.923   3.427   3.991 -2.3765  1.7020 -0.6042
 4334SOL    HW317109   4.973   3.389   4.128  4.3647  1.4227 -2.7995
 4334SOL    MW417110   4.923   3.438   4.077  0.0889  0.1221 -0.3013
 4335SOL     OW17111   4.710   5.519   4.553 -0.5447  0.1820 -0.1534
 4335SOL    HW217112   4.715   5.547   4.645  0.0613  2.8968 -0.9280
 4335SOL    HW317113   4.800   5.524   4.521 -0.7819 -0.5381 -0.9703
 4335SOL    MW417114   4.722   5.524   4.561 -0.4960  0.4452 -0.3634
 4336SOL     OW17115   2.505   2.139   1.935 -0.4022  1.0499 -0.2553
 4336SOL    HW217116   2.540   2.150   2.024  1.1538  2.0684 -0.9527
 4336SOL    HW317117   2.581   2.148   1.878 -1.6363  2.2616 -1.7953
 4336SOL    MW417118   2.520   2.142   1.939 -0.3598  1.3441 -0.5505
 4337SOL     OW17119   5.036   5.289   3.565  0.3792 -0.0168  0.0166
 4337SOL    HW217120   5.091   5.358   3.527 -0.3042 -0.2188 -1.4104
 4337SOL    HW317121   5.003   5.327   3.647  0.4202  1.1589 -0.4905
 4337SOL    MW417122   5.039   5.303   3.571  0.2944  0.1117 -0.2385
 4338SOL     OW17123   0.763   1.561   1.509 -0.1959  0.4257  0.8005
 4338SOL    HW217124   0.795   1.647   1.535 -0.2385  0.7120 -0.0750
 4338SOL    HW317125   0.842   1.510   1.492 -0.1451  1.1055 -1.2718
 4338SOL    MW417126   0.778   1.565   1.510 -0.1948  0.5532  0.4115
 4339SOL     OW17127   1.454   0.491   5.043  0.4941  0.1122 -0.3227
 4339SOL    HW217128   1.375   0.529   5.006  1.0110  0.3638 -1.2108
 4339SOL    HW317129   1.428   0.406   5.077 -0.3830  0.6513  0.4005
 4339SOL    MW417130   1.440   0.485   5.043  0.4466  0.2165 -0.3445
 4340SOL     OW17131   3.037   5.664   5.000 -0.3595  0.3438  1.0992
 4340SOL    HW217132   3.120   5.694   5.037 -0.5824 -0.5420  2.3989
 4340SOL    HW317133   3.053   5.574   4.973 -0.8415  0.2119  1.2306
 4340SOL    MW417134   3.050   5.656   5.001 -0.4525  0.2096  1.2880
 4341SOL     OW17135   3.809   0.119   2.547 -0.1770 -0.0861 -0.2174
 4341SOL    HW217136   3.859   0.085   2.621  0.2941  1.0802  0.0277
 4341SOL    HW317137   3.740   0.055   2.533 -0.0750 -0.4936  1.0239
 4341SOL    MW417138   3.806   0.106   2.555 -0.1014  0.0140 -0.0213
 4342SOL     OW17139   0.378   5.332   5.148  0.1834 -0.0209  0.1977
 4342SOL    HW217140   0.310   5.266   5.161 -2.0777  2.0556 -0.1448
 4342SOL    HW317141   0.421   5.307   5.067 -1.6403 -0.2945 -0.7352
 4342SOL    MW417142   0.374   5.320   5.139 -0.3555  0.2170  0.0295
 4343SOL     OW17143   3.656   4.545   0.746  0.3814  0.5400  0.2937
 4343SOL    HW217144   3.726   4.504   0.694 -0.0460  0.6348 -0.3723
 4343SOL    HW317145   3.695   4.558   0.832  0.6633 -0.8995  0.4069
 4343SOL    MW417146   3.671   4.541   0.750  0.3622  0.3626  0.2208
 4344SOL     OW17147   3.675   0.830   3.278 -0.1198 -0.4976  0.3062
 4344SOL    HW217148   3.707   0.823   3.188  1.1189  0.7296  0.5979
 4344SOL    HW317149   3.736   0.777   3.329  1.0975  1.2347  0.7667
 4344SOL    MW417150   3.688   0.822   3.273  0.2042 -0.1071  0.4055
 4345SOL     OW17151   5.630   6.159   0.765  0.6159  0.1910 -0.2000
 4345SOL    HW217152   5.627   6.254   0.757  0.3517  0.3486  1.5290
 4345SOL    HW317153   5.716   6.141   0.804  0.8771 -0.3474 -0.9832
 4345SOL    MW417154   5.641   6.169   0.769  0.6155  0.1407 -0.0752
 4346SOL     OW17155   5.516   5.602   3.549 -0.7112  0.3959  0.4594
 4346SOL    HW217156   5.546   5.654   3.474 -2.9424  0.4003 -0.5306
 4346SOL    HW317157   5.563   5.519   3.540  0.9821  1.2960  0.5842
 4346SOL    MW417158   5.526   5.598   3.538 -0.7822  0.5152  0.3452
 4347SOL     OW17159   0.404   1.963   5.326  0.5625  0.3948  0.1627
 4347SOL    HW217160   0.336   2.014   5.370  0.9293  1.8663 -0.9208
 4347SOL    HW317161   0.467   1.943   5.395  0.2931  1.2171  0.6553
 4347SOL    MW417162   0.403   1.967   5.341  0.5753  0.6974  0.0848
 4348SOL     OW17163   4.593   3.717   4.772 -0.1657  0.4732  0.6103
 4348SOL    HW217164   4.609   3.740   4.681  0.1676  0.8196  0.7537
 4348SOL    HW317165   4.680   3.714   4.812 -0.3820  1.4525  1.1795
 4348SOL    MW417166   4.607   3.720   4.766 -0.1503  0.6481  0.7043
 4349SOL     OW17167   6.294   3.413   2.771  0.2190  0.5933  0.2129
 4349SOL    HW217168   6.201   3.435   2.768  0.3202  0.9467 -0.4163
 4349SOL    HW317169   6.303   3.360   2.850 -0.2920  1.6316  0.9959
 4349SOL    MW417170   6.283   3.409   2.781  0.1649  0.7769  0.2332
 4350SOL     OW17171   1.928   4.092   3.396 -0.5044  0.0970  0.0621
 4350SOL    HW217172   1.834   4.086   3.415 -0.8062  2.7251 -0.2329
 4350SOL    HW317173   1.939   4.180   3.361  1.6868 -1.0093 -2.3256
 4350SOL    MW417174   1.917   4.103   3.394 -0.2551  0.2978 -0.2918
 4351SOL     OW17175   0.688   6.100   6.260  0.0741 -0.0520 -0.0979
 4351SOL    HW217176   0.705   6.060   6.175  1.3686 -1.2514  0.6764
 4351SOL    HW317177   0.773   6.131   6.290 -0.3515  0.3118  0.7871
 4351SOL    MW417178   0.701   6.099   6.253  0.1888 -0.1623  0.1210
 4352SOL     OW17179   1.078   0.839   5.460 -0.3167 -0.2827 -0.6187
 4352SOL    HW217180   1.129   0.805   5.387 -0.2984  1.1488 -1.2965
 4352SOL    HW317181   0.997   0.789   5.458  0.7334 -2.1396  0.0819
 4352SOL    MW417182   1.074   0.828   5.450 -0.1758 -0.3389 -0.6157
 4353SOL     OW17183   2.436   0.726   3.798  0.4284 -0.3841 -0.2448
 4353SOL    HW217184   2.398   0.640   3.781 -0.5815 -0.2913  1.3389
 4353SOL    HW317185   2.361   0.781   3.822  1.2456  0.5170  0.3252
 4353SOL    MW417186   2.421   0.722   3.799  0.4030 -0.2530  0.0394
 4354SOL     OW17187   1.364   4.889   4.317  0.6377  0.6428  0.6139
 4354SOL    HW217188   1.323   4.928   4.395  0.7378  0.4590  0.7581
 4354SOL    HW317189   1.293   4.838   4.277  0.7467  0.2432  0.9186
 4354SOL    MW417190   1.349   4.888   4.322  0.6653  0.5659  0.6731
 4355SOL     OW17191   3.667   5.794   2.258 -0.4525  0.6655 -0.1445
 4355SOL    HW217192   3.726   5.743   2.314  0.3644  0.6100 -1.0294
 4355SOL    HW317193   3.618   5.729   2.209 -0.9966  0.7191  0.3102
 4355SOL    MW417194   3.668   5.779   2.259 -0.4165  0.6652 -0.2013
 4356SOL     OW17195   6.330   4.691   1.137  0.0420 -0.7462  0.3907
 4356SOL    HW217196   6.405   4.685   1.197  1.2899  2.9960 -0.5312
 4356SOL    HW317197   6.354   4.638   1.062  1.7998  0.3233  0.1540
 4356SOL    MW417198   6.343   4.684   1.135  0.4386 -0.1113  0.2378
 4357SOL     OW17199   5.386   3.057   0.436 -0.4278  0.2103 -0.2717
 4357SOL    HW217200   5.359   2.967   0.453  0.2290 -0.4053 -2.1594
 4357SOL    HW317201   5.355   3.075   0.347 -0.9889  2.0504  0.2557
 4357SOL    MW417202   5.379   3.047   0.426 -0.4152  0.3718 -0.4512
 4358SOL     OW17203   3.156   5.433   3.643  0.4654  0.3897 -0.6496
 4358SOL    HW217204   3.103   5.406   3.568 -1.2141  0.4358  0.4672
 4358SOL    HW317205   3.238   5.465   3.605 -1.1504  2.4782 -2.6571
 4358SOL    MW417206   3.160   5.434   3.628  0.0306  0.6713 -0.7671
 4359SOL     OW17207   1.895   2.047   5.387  0.1122 -0.4775  0.2075
 4359SOL    HW217208   1.832   2.017   5.322  0.4645 -0.9146  0.0652
 4359SOL    HW317209   1.900   1.975   5.451 -1.4806  0.5983  1.6406
 4359SOL    MW417210   1.887   2.033   5.387 -0.0515 -0.3933  0.3778
 4360SOL     OW17211   3.713   5.722   5.752 -0.1896 -0.2143 -0.8416
 4360SOL    HW217212   3.694   5.663   5.679  1.3617 -1.1045 -0.5817
 4360SOL    HW317213   3.729   5.807   5.711  0.8190 -0.7409 -1.5745
 4360SOL    MW417214   3.712   5.726   5.737  0.1482 -0.4012 -0.9040
 4361SOL     OW17215   3.671   2.555   5.082 -0.1968  0.0457 -0.8454
 4361SOL    HW217216   3.650   2.607   5.005 -1.1714  0.7175 -0.1368
 4361SOL    HW317217   3.587   2.522   5.113  0.2904 -1.0902 -0.6588
 4361SOL    MW417218   3.657   2.557   5.076 -0.2611 -0.0155 -0.7273
 4362SOL     OW17219   5.966   0.053   4.297 -0.5438  0.6406  0.0231
 4362SOL    HW217220   5.925   0.083   4.216 -1.4691 -0.4820  0.0611
 4362SOL    HW317221   5.965   0.130   4.354 -0.4767  1.2580 -0.7845
 4362SOL    MW417222   5.960   0.067   4.293 -0.6570  0.5739 -0.0784
 4363SOL     OW17223   4.566   3.711   5.669  0.1146  0.8290 -0.1353
 4363SOL    HW217224   4.589   3.747   5.755 -0.0273 -1.1726  0.8120
 4363SOL    HW317225   4.472   3.730   5.660 -0.4180 -0.8511  1.2317
 4363SOL    MW417226   4.557   3.718   5.679  0.0256  0.3432  0.1701
 4364SOL     OW17227   4.009   6.130   5.269 -0.2293  0.0441  0.0355
 4364SOL    HW217228   4.064   6.141   5.346  0.1987 -2.3228  0.1439
 4364SOL    HW317229   3.948   6.204   5.272  1.1597  1.2075  1.4090
 4364SOL    MW417230   4.008   6.142   5.279  0.0104 -0.1147  0.2311
 4365SOL     OW17231   2.423   3.424   5.069  0.0286  0.4208  0.1922
 4365SOL    HW217232   2.384   3.342   5.098  0.3358  0.0581 -0.3970
 4365SOL    HW317233   2.472   3.455   5.145 -0.2105  0.1348  0.4669
 4365SOL    MW417234   2.425   3.417   5.083  0.0376  0.3352  0.1507
 4366SOL     OW17235   4.972   3.926   6.163 -0.3244 -0.1272  0.0990
 4366SOL    HW217236   4.910   3.869   6.208  1.4365 -2.0260  0.2995
 4366SOL    HW317237   5.044   3.868   6.139  0.6389  1.6526 -1.5773
 4366SOL    MW417238   4.974   3.911   6.166  0.0350 -0.1429 -0.0957
 4367SOL     OW17239   1.645   6.171   5.653 -0.0291  0.1820 -0.1635
 4367SOL    HW217240   1.657   6.098   5.592  0.7657 -0.5351  0.8100
 4367SOL    HW317241   1.734   6.199   5.675 -0.2855  0.3170  0.7776
 4367SOL    MW417242   1.658   6.165   5.648  0.0420  0.1052  0.0891
 4368SOL     OW17243   6.392   1.466   1.095  0.2473  0.1156 -1.1279
 4368SOL    HW217244   6.443   1.386   1.087 -0.3839 -0.8409  2.5617
 4368SOL    HW317245   6.306   1.437   1.125 -0.8142  2.0504 -2.0910
 4368SOL    MW417246   6.388   1.452   1.098  0.0239  0.2447 -0.7682
 4369SOL     OW17247   4.155   6.432   0.654 -0.2900  0.4665  0.8534
 4369SOL    HW217248   4.157   6.346   0.613  0.5759  0.8727  0.0050
 4369SOL    HW317249   4.146   6.414   0.748 -0.2198 -0.5358  0.6750
 4369SOL    MW417250   4.154   6.418   0.661 -0.1665  0.3879  0.7180
 4370SOL     OW17251   4.580   1.242   1.463  0.2852  0.0391 -0.0076
 4370SOL    HW217252   4.579   1.184   1.387 -0.3971 -1.2279  0.9234
 4370SOL    HW317253   4.507   1.302   1.449  1.1259  0.8632 -1.0833
 4370SOL    MW417254   4.570   1.242   1.451  0.3061 -0.0194 -0.0267
 4371SOL     OW17255   3.778   5.605   0.240  0.5081  0.2230  0.2233
 4371SOL    HW217256   3.795   5.517   0.274  2.1271  0.6491  0.5993
 4371SOL    HW317257   3.814   5.604   0.151  0.9461  0.6321  0.3913
 4371SOL    MW417258   3.785   5.593   0.232  0.7795  0.3332  0.2951
 4372SOL     OW17259   5.013   4.147   4.315 -0.6668  0.8242  0.0944
 4372SOL    HW217260   4.945   4.081   4.302 -0.0582  0.4229 -1.3364
 4372SOL    HW317261   5.065   4.114   4.387  0.6440 -1.2255 -1.6640
 4372SOL    MW417262   5.011   4.134   4.323 -0.4135  0.5009 -0.3264
 4373SOL     OW17263   4.294   2.262   1.914 -0.3776 -0.0230  0.4938
 4373SOL    HW217264   4.375   2.239   1.959 -0.6739 -1.3072  0.4174
 4373SOL    HW317265   4.237   2.295   1.983 -0.1113  0.0016  0.7028
 4373SOL    MW417266   4.297   2.264   1.929 -0.3816 -0.1892  0.5113
 4374SOL     OW17267   0.851   0.045   1.174 -0.6311  0.1693 -0.6520
 4374SOL    HW217268   0.827  -0.018   1.106 -0.9141  0.1476 -0.5317
 4374SOL    HW317269   0.849  -0.004   1.255 -3.1579  0.8392 -0.2309
 4374SOL    MW417270   0.848   0.030   1.176 -1.0019  0.2549 -0.5805
 4375SOL     OW17271   2.287   1.238   0.664 -0.0990  0.0163 -0.0936
 4375SOL    HW217272   2.262   1.161   0.714 -0.6485 -0.1042 -0.5395
 4375SOL    HW317273   2.360   1.209   0.610  0.2596  0.0476  0.3732
 4375SOL    MW417274   2.293   1.224   0.663 -0.1242  0.0045 -0.0908
 4376SOL     OW17275   0.338   4.423   3.993  0.0245 -0.1256  0.3240
 4376SOL    HW217276   0.287   4.424   3.912  0.7541 -0.7858 -0.1589
 4376SOL    HW317277   0.423   4.461   3.968  0.6646 -1.3876  0.4750
 4376SOL    MW417278   0.343   4.428   3.979  0.2052 -0.3792  0.2802
 4377SOL     OW17279   2.252   3.524   4.680 -0.2259 -0.5773 -0.0613
 4377SOL    HW217280   2.169   3.492   4.647 -1.1583  0.7451  0.9091
 4377SOL    HW317281   2.240   3.528   4.775  0.0949  1.9031 -0.0783
 4377SOL    MW417282   2.240   3.520   4.689 -0.3066 -0.0756  0.0645
 4378SOL     OW17283   2.055   5.691   5.308 -0.4363 -0.3483  0.3983
 4378SOL    HW217284   2.109   5.613   5.302 -2.4364 -1.8747  1.1116
 4378SOL    HW317285   2.098   5.745   5.375  0.9042 -0.8381 -0.0270
 4378SOL    MW417286   2.068   5.688   5.316 -0.5233 -0.6143  0.4363
 4379SOL     OW17287   2.005   1.920   2.871 -0.1309  0.3680  0.0431
 4379SOL    HW217288   1.948   1.964   2.934 -3.6752 -0.8946 -1.9648
 4379SOL    HW317289   1.960   1.931   2.787  2.1545 -1.6284 -1.5830
 4379SOL    MW417290   1.991   1.927   2.868 -0.2970 -0.0620 -0.4364
 4380SOL     OW17291   2.404   1.075   3.697  0.6269  0.5069 -0.1517
 4380SOL    HW217292   2.425   0.982   3.692 -2.0466 -0.2442  0.9847
 4380SOL    HW317293   2.419   1.108   3.608 -1.1777 -1.7232 -1.3908
 4380SOL    MW417294   2.408   1.067   3.684  0.0361  0.1136 -0.1653
 4381SOL     OW17295   1.492   2.257   6.367  0.2590  0.0500 -0.4024
 4381SOL    HW217296   1.404   2.229   6.389  0.2833 -0.2125 -0.6431
 4381SOL    HW317297   1.480   2.327   6.303  0.2617 -1.1173 -1.7220
 4381SOL    MW417298   1.479   2.263   6.361  0.2625 -0.1387 -0.6083
 4382SOL     OW17299   2.907   4.261   2.127  0.1250 -0.1097 -0.0786
 4382SOL    HW217300   2.993   4.248   2.169  0.2312 -0.0611 -0.2786
 4382SOL    HW317301   2.850   4.196   2.168 -0.0548  0.6742  0.9471
 4382SOL    MW417302   2.911   4.251   2.138  0.1153  0.0001  0.0303
 4383SOL     OW17303   3.613   4.011   0.398 -0.4444  0.0097  0.1137
 4383SOL    HW217304   3.619   3.950   0.324 -1.1925 -0.8321  0.7328
 4383SOL    HW317305   3.528   3.993   0.438 -0.9903  1.9535 -0.0888
 4383SOL    MW417306   3.603   4.000   0.393 -0.6151  0.1551  0.1687
 4384SOL     OW17307   2.252   3.965   3.074  0.1368 -0.5345  0.0478
 4384SOL    HW217308   2.245   3.939   2.982 -0.7641  0.0634 -0.0741
 4384SOL    HW317309   2.161   3.976   3.102  0.4434  0.5553  0.6432
 4384SOL    MW417310   2.239   3.963   3.065  0.0584 -0.3118  0.1102
 4385SOL     OW17311   1.520   3.347   6.094  0.1383 -0.2115  0.3814
 4385SOL    HW217312   1.516   3.303   6.179 -0.6491 -1.8402 -0.4616
 4385SOL    HW317313   1.572   3.426   6.111  2.4864 -1.9181  1.7475
 4385SOL    MW417314   1.526   3.351   6.108  0.3442 -0.6516  0.4504
 4386SOL     OW17315   4.911   2.640   3.494  0.5266  0.4625 -0.2933
 4386SOL    HW217316   4.836   2.607   3.444  0.3638  1.4167 -0.7155
 4386SOL    HW317317   4.931   2.571   3.557 -0.0028 -0.2759 -0.9173
 4386SOL    MW417318   4.903   2.627   3.496  0.4353  0.4910 -0.4313
 4387SOL     OW17319   4.118   0.728   5.641  0.2394  0.1666  0.4861
 4387SOL    HW217320   4.143   0.660   5.579 -0.3968 -0.1803  0.6012
 4387SOL    HW317321   4.124   0.809   5.591 -0.9734 -0.1752 -0.2588
 4387SOL    MW417322   4.122   0.730   5.626 -0.0046  0.0757  0.4030
 4388SOL     OW17323   2.723   3.270   2.448  0.8080 -0.0417 -0.4874
 4388SOL    HW217324   2.715   3.217   2.369 -0.8430 -1.4789  0.5650
 4388SOL    HW317325   2.707   3.360   2.419 -0.9212 -0.6650 -1.6517
 4388SOL    MW417326   2.720   3.275   2.434  0.3620 -0.3136 -0.5022
 4389SOL     OW17327   5.823   3.281   3.328  0.4506 -0.0266  0.1526
 4389SOL    HW217328   5.800   3.257   3.418  0.3241 -1.1875 -0.1644
 4389SOL    HW317329   5.907   3.327   3.336  2.2760 -3.1275  0.6437
 4389SOL    MW417330   5.831   3.284   3.341  0.6747 -0.5889  0.1756
 4390SOL     OW17331   0.219   0.669   1.900 -0.0844 -0.0564  0.5327
 4390SOL    HW217332   0.169   0.601   1.945  0.2193  0.0826  1.0949
 4390SOL    HW317333   0.191   0.751   1.942 -1.7172  0.3775 -1.2829
 4390SOL    MW417334   0.209   0.671   1.911 -0.2598  0.0192  0.3673
 4391SOL     OW17335   5.865   1.129   3.557 -0.3345  0.1148  0.1071
 4391SOL    HW217336   5.788   1.147   3.503 -1.5241  0.8184  1.9543
 4391SOL    HW317337   5.939   1.145   3.498 -1.5562  1.3497 -1.1777
 4391SOL    MW417338   5.865   1.133   3.542 -0.6526  0.3705  0.1813
 4392SOL     OW17339   5.553   3.561   2.023  0.2438  0.1780  0.0891
 4392SOL    HW217340   5.578   3.608   2.103  2.0253 -2.0173  0.9563
 4392SOL    HW317341   5.457   3.558   2.026  0.1473  2.3499  0.7519
 4392SOL    MW417342   5.544   3.567   2.034  0.4662  0.1749  0.2910
 4393SOL     OW17343   1.903   2.202   5.609 -0.1619 -0.5650 -0.1436
 4393SOL    HW217344   1.848   2.278   5.589 -1.8629 -1.5573  0.5507
 4393SOL    HW317345   1.903   2.151   5.528  0.5147 -0.1321 -0.4287
 4393SOL    MW417346   1.896   2.206   5.595 -0.2970 -0.6388 -0.0896
 4394SOL     OW17347   1.476   5.395   4.484  0.1035 -0.2157  0.3401
 4394SOL    HW217348   1.404   5.402   4.422 -1.1665 -0.8963  1.6687
 4394SOL    HW317349   1.452   5.456   4.555  1.1499  0.0057  0.5281
 4394SOL    MW417350   1.463   5.404   4.485  0.0740 -0.2763  0.5402
 4395SOL     OW17351   6.238   1.559   3.891 -0.0315  0.2280 -0.7497
 4395SOL    HW217352   6.251   1.469   3.862 -0.1195  0.0867 -0.3643
 4395SOL    HW317353   6.145   1.577   3.875 -0.1632  0.0275 -0.2325
 4395SOL    MW417354   6.228   1.550   3.885 -0.0605  0.1829 -0.6306
 4396SOL     OW17355   3.162   5.474   5.590 -0.4686  0.3082  0.5492
 4396SOL    HW217356   3.251   5.445   5.611  0.2711  0.0159 -2.5000
 4396SOL    HW317357   3.161   5.567   5.612  1.0401  0.6047 -0.4515
 4396SOL    MW417358   3.173   5.482   5.595 -0.1719  0.3088  0.0149
 4397SOL     OW17359   5.322   5.887   4.071 -0.4239  0.4358  0.3609
 4397SOL    HW217360   5.366   5.803   4.086  0.3362  0.6026 -0.8105
 4397SOL    HW317361   5.234   5.875   4.108 -1.2164 -1.7619 -2.0031
 4397SOL    MW417362   5.316   5.874   4.078 -0.4282  0.1678 -0.1056
 4398SOL     OW17363   0.972   3.130   3.369  0.0830 -0.5659  0.2096
 4398SOL    HW217364   0.904   3.194   3.350  0.8588  0.5758  1.0713
 4398SOL    HW317365   1.011   3.110   3.284 -0.1537  0.1317 -0.0696
 4398SOL    MW417366   0.968   3.136   3.355  0.1542 -0.3233  0.2865
 4399SOL     OW17367   4.484   3.083   1.960  0.6039 -0.2055  0.3193
 4399SOL    HW217368   4.442   3.118   1.881  2.9456  1.2755 -0.3563
 4399SOL    HW317369   4.436   3.125   2.032  0.0481  0.4034 -0.3768
 4399SOL    MW417370   4.472   3.093   1.959  0.8395  0.0702  0.1383
 4400SOL     OW17371   6.035   3.918   0.322  0.0239  0.6485 -0.0650
 4400SOL    HW217372   6.079   3.901   0.239  0.3553  0.7089  0.0999
 4400SOL    HW317373   6.046   4.012   0.337  0.2568  0.5779  0.2163
 4400SOL    MW417374   6.042   3.928   0.313  0.0984  0.6472 -0.0062
 4401SOL     OW17375   5.193   1.150   4.463 -0.0484  0.0887 -0.0294
 4401SOL    HW217376   5.107   1.191   4.471  0.4842  1.0606  0.9757
 4401SOL    HW317377   5.226   1.179   4.378  0.1621  1.4903  0.5069
 4401SOL    MW417378   5.186   1.159   4.453  0.0497  0.4019  0.1740
 4402SOL     OW17379   6.395   4.578   3.980 -0.2412  0.0177  0.0895
 4402SOL    HW217380   6.303   4.596   3.961 -0.2189 -0.1732 -0.2083
 4402SOL    HW317381   6.427   4.657   4.024 -0.3116  0.4575 -0.6189
 4402SOL    MW417382   6.387   4.591   3.983 -0.2475  0.0505 -0.0432
 4403SOL     OW17383   5.029   2.308   3.401  0.3406  0.2286  0.0407
 4403SOL    HW217384   4.958   2.264   3.447  1.0740 -0.7710  0.2331
 4403SOL    HW317385   5.108   2.260   3.425  0.8763  0.2703 -1.4805
 4403SOL    MW417386   5.030   2.296   3.410  0.5081  0.1022 -0.1346
 4404SOL     OW17387   6.237   1.727   1.935  0.4014 -0.1611 -0.1112
 4404SOL    HW217388   6.196   1.770   1.860  0.9678  0.7314  0.0652
 4404SOL    HW317389   6.164   1.702   1.992  0.0099 -0.2445 -0.6419
 4404SOL    MW417390   6.222   1.729   1.933  0.4245 -0.0544 -0.1579
 4405SOL     OW17391   1.984   3.402   0.967  0.0098 -0.5164  0.1557
 4405SOL    HW217392   1.981   3.362   1.054 -0.5716 -0.5092  0.1481
 4405SOL    HW317393   1.892   3.412   0.943  0.1620 -0.1264 -0.2819
 4405SOL    MW417394   1.971   3.398   0.976 -0.0468 -0.4640  0.0969
 4406SOL     OW17395   6.295   1.914   3.361 -0.5095  0.0966 -0.2530
 4406SOL    HW217396   6.214   1.948   3.324  0.2064  1.9512 -0.2301
 4406SOL    HW317397   6.267   1.858   3.433 -1.9245 -3.2555 -3.1418
 4406SOL    MW417398   6.281   1.911   3.366 -0.6018 -0.1009 -0.6311
 4407SOL     OW17399   0.886   4.055   4.314  1.1488  0.4976 -0.3639
 4407SOL    HW217400   0.961   4.015   4.358  0.5599  1.6868  1.8199
 4407SOL    HW317401   0.809   4.015   4.355  0.5220 -0.0809 -1.9875
 4407SOL    MW417402   0.886   4.045   4.325  0.9884  0.5782 -0.2900
 4408SOL     OW17403   4.150   3.087   0.993 -0.3583  0.9224 -0.2052
 4408SOL    HW217404   4.183   3.060   1.078  0.0211  1.0076 -0.3228
 4408SOL    HW317405   4.149   3.007   0.941 -1.7109  0.6290  0.2215
 4408SOL    MW417406   4.154   3.073   0.997 -0.4867  0.8949 -0.1644
 4409SOL     OW17407   2.347   6.229   0.694  0.1086 -0.9057 -0.1245
 4409SOL    HW217408   2.381   6.317   0.713  0.0740 -0.8777 -0.1894
 4409SOL    HW317409   2.301   6.204   0.773 -1.9784  0.1426 -0.9366
 4409SOL    MW417410   2.346   6.238   0.707 -0.1713 -0.7637 -0.2402
 4410SOL     OW17411   4.492   2.757   3.398  0.1128  1.0411 -0.2226
 4410SOL    HW217412   4.420   2.700   3.372  1.8576 -0.5278 -1.9354
 4410SOL    HW317413   4.515   2.727   3.486 -0.5883  0.7778 -0.1222
 4410SOL    MW417414   4.486   2.745   3.406  0.2505  0.7993 -0.4353
 4411SOL     OW17415   1.279   2.261   1.266  0.1241 -0.0739 -0.5458
 4411SOL    HW217416   1.267   2.351   1.296 -0.2061  0.0634 -1.0719
 4411SOL    HW317417   1.355   2.264   1.209 -0.3111  0.0149 -1.1299
 4411SOL    MW417418   1.287   2.273   1.263  0.0231 -0.0441 -0.6923
 4412SOL     OW17419   6.362   3.392   0.145 -0.1360  0.2467 -0.0771
 4412SOL    HW217420   6.416   3.412   0.222 -0.0363  0.7714 -0.2796
 4412SOL    HW317421   6.372   3.297   0.132  0.9332  0.3801 -0.2606
 4412SOL    MW417422   6.370   3.382   0.154  0.0182  0.3335 -0.1280
 4413SOL     OW17423   0.402   4.189   5.680  0.5645 -0.0306 -0.1690
 4413SOL    HW217424   0.440   4.192   5.768  0.6073  1.1520 -0.2247
 4413SOL    HW317425   0.476   4.174   5.622  0.5530 -0.6776 -0.0331
 4413SOL    MW417426   0.417   4.187   5.684  0.5686  0.0400 -0.1584
 4414SOL     OW17427   6.268   0.027   3.079 -0.1527 -0.1919 -0.0225
 4414SOL    HW217428   6.245   0.002   3.168  0.0432  1.0821  0.3949
 4414SOL    HW317429   6.189   0.066   3.043 -0.1422 -0.4268 -0.3093
 4414SOL    MW417430   6.255   0.029   3.086 -0.1255 -0.0548 -0.0052
 4415SOL     OW17431   3.998   3.582   0.737  0.0191  0.2130 -0.0558
 4415SOL    HW217432   4.029   3.652   0.679  1.8929 -1.8559 -1.7298
 4415SOL    HW317433   3.989   3.624   0.823  1.4214  2.4087 -0.9005
 4415SOL    MW417434   4.001   3.597   0.741  0.4514  0.2297 -0.3881
 4416SOL     OW17435   2.110   3.705   4.065 -0.5291  0.2161 -0.0635
 4416SOL    HW217436   2.178   3.693   4.000 -0.6281 -3.5201  0.3121
 4416SOL    HW317437   2.145   3.771   4.125  0.9292  1.3534 -2.0595
 4416SOL    MW417438   2.123   3.713   4.064 -0.3497 -0.1268 -0.2773
 4417SOL     OW17439   5.832   1.611   6.420 -0.3265  0.3718  0.1230
 4417SOL    HW217440   5.793   1.589   6.504 -0.6498 -2.5871 -0.7110
 4417SOL    HW317441   5.926   1.611   6.436 -0.4146  0.8713  0.6763
 4417SOL    MW417442   5.839   1.608   6.433 -0.3808  0.0473  0.0860
 4418SOL     OW17443   1.171   5.720   3.189  0.4630  0.2696 -0.1197
 4418SOL    HW217444   1.233   5.648   3.200  1.0587  1.0040  1.5244
 4418SOL    HW317445   1.199   5.763   3.108  0.3607 -1.0589 -0.8910
 4418SOL    MW417446   1.183   5.716   3.180  0.5281  0.1912 -0.0045
 4419SOL     OW17447   0.741   0.455   0.294  0.6049  0.6450  0.2485
 4419SOL    HW217448   0.769   0.543   0.319  1.9575 -0.0979  1.4550
 4419SOL    HW317449   0.648   0.464   0.274  0.7245  2.3434  0.3495
 4419SOL    MW417450   0.732   0.468   0.294  0.7991  0.7711  0.4211
 4420SOL     OW17451   5.215   0.727   6.082 -0.0386 -0.2666 -0.5084
 4420SOL    HW217452   5.160   0.772   6.147  0.6645  0.9977 -0.7701
 4420SOL    HW317453   5.171   0.643   6.069 -0.0803 -0.6626  1.7697
 4420SOL    MW417454   5.202   0.722   6.089  0.0487 -0.1521 -0.2423
 4421SOL     OW17455   3.195   0.376   0.495 -0.6490 -0.1003 -0.2420
 4421SOL    HW217456   3.197   0.405   0.404 -0.5079 -0.4836 -0.3608
 4421SOL    HW317457   3.115   0.325   0.503 -0.6709 -0.0528 -0.1426
 4421SOL    MW417458   3.185   0.373   0.484 -0.6332 -0.1446 -0.2446
 4422SOL     OW17459   3.004   1.918   4.947 -0.0511 -0.4527  0.1561
 4422SOL    HW217460   2.978   1.988   5.006 -1.4497  0.0470 -0.9966
 4422SOL    HW317461   2.952   1.842   4.975 -0.4542 -0.3100 -0.1873
 4422SOL    MW417462   2.994   1.917   4.958 -0.2888 -0.3679 -0.0413
 4423SOL     OW17463   0.504   0.344   3.192  0.6246 -0.1976  0.6573
 4423SOL    HW217464   0.491   0.292   3.112 -0.1525 -0.4035  0.9056
 4423SOL    HW317465   0.423   0.331   3.242  1.2849 -0.4385  1.6941
 4423SOL    MW417466   0.492   0.335   3.188  0.6092 -0.2566  0.8268
 4424SOL     OW17467   2.037   0.466   3.553 -0.3081  0.4893  0.0387
 4424SOL    HW217468   1.944   0.441   3.555 -0.1944 -0.0108  2.5530
 4424SOL    HW317469   2.043   0.539   3.616  1.2109 -0.4592  1.0520
 4424SOL    MW417470   2.025   0.473   3.562 -0.0927  0.2982  0.5041
 4425SOL     OW17471   6.064   4.911   2.919  0.1988  0.5175 -0.0658
 4425SOL    HW217472   6.139   4.901   2.977 -2.0625 -1.6492  2.7971
 4425SOL    HW317473   6.004   4.969   2.967 -0.8040  0.5793 -1.3448
 4425SOL    MW417474   6.066   4.918   2.933 -0.2318  0.2398  0.1432
 4426SOL     OW17475   4.791   1.556   2.956  0.2031  0.2707 -0.1154
 4426SOL    HW217476   4.796   1.643   2.996  3.3796  0.1382 -0.0394
 4426SOL    HW317477   4.824   1.567   2.868 -0.8800 -0.6198 -0.6672
 4426SOL    MW417478   4.796   1.569   2.950  0.4793  0.1357 -0.1782
 4427SOL     OW17479   4.856   5.142   2.906  0.1027  0.4042  0.3387
 4427SOL    HW217480   4.889   5.157   2.994 -0.5159  1.4444  0.4099
 4427SOL    HW317481   4.782   5.202   2.897 -1.4812 -1.4631  0.0193
 4427SOL    MW417482   4.851   5.152   2.916 -0.1879  0.2951  0.3059
 4428SOL     OW17483   3.203   5.077   1.336  0.1183 -0.2321 -0.4250
 4428SOL    HW217484   3.257   5.146   1.296  1.6377 -1.0774  0.0773
 4428SOL    HW317485   3.259   5.000   1.336 -0.2055 -0.5712  2.2685
 4428SOL    MW417486   3.218   5.076   1.330  0.2761 -0.3883 -0.0033
 4429SOL     OW17487   0.186   3.409   4.273 -0.3040  0.2823  0.0033
 4429SOL    HW217488   0.160   3.488   4.225 -0.3217 -0.4652 -1.2561
 4429SOL    HW317489   0.275   3.428   4.304 -0.9557  1.4663  1.2660
 4429SOL    MW417490   0.195   3.422   4.271 -0.3923  0.3399  0.0037
 4430SOL     OW17491   2.379   0.454   0.594  0.5959 -0.3013  0.0890
 4430SOL    HW217492   2.361   0.547   0.582 -0.3237 -0.4880 -0.0393
 4430SOL    HW317493   2.294   0.412   0.584  0.7797 -1.0421  1.3855
 4430SOL    MW417494   2.366   0.461   0.591  0.4988 -0.4237  0.2432
 4431SOL     OW17495   2.778   0.420   1.668  0.5842 -0.0196 -0.3782
 4431SOL    HW217496   2.686   0.401   1.655  0.9362 -1.0044 -1.5326
 4431SOL    HW317497   2.781   0.463   1.754 -1.0379  0.8733 -0.7268
 4431SOL    MW417498   2.767   0.423   1.678  0.4167 -0.0317 -0.5765
 4432SOL     OW17499   4.406   4.994   5.511  0.8816 -0.3692 -0.0472
 4432SOL    HW217500   4.368   5.068   5.558 -1.0832 -1.4689  0.1889
 4432SOL    HW317501   4.474   4.961   5.570 -0.2387 -0.5480  1.1968
 4432SOL    MW417502   4.410   4.999   5.525  0.4746 -0.5379  0.1481
 4433SOL     OW17503   6.071   2.858   4.128 -0.0930  0.0537 -0.3930
 4433SOL    HW217504   6.000   2.798   4.153  0.5314 -0.9874 -0.9994
 4433SOL    HW317505   6.119   2.810   4.060  0.9609  0.8933 -0.2688
 4433SOL    MW417506   6.068   2.844   4.122  0.1284  0.0271 -0.4566
 4434SOL     OW17507   5.041   6.199   4.110  0.3696  0.3799  0.4807
 4434SOL    HW217508   5.033   6.257   4.186  0.0410  0.0643  0.6902
 4434SOL    HW317509   5.050   6.112   4.148  0.3224  0.2350  0.1593
 4434SOL    MW417510   5.041   6.195   4.125  0.3200  0.3191  0.4659
 4435SOL     OW17511   4.224   2.561   4.165 -0.4896  0.5420  0.5090
 4435SOL    HW217512   4.284   2.617   4.117 -0.8775  0.4904 -0.0467
 4435SOL    HW317513   4.201   2.491   4.103 -1.2205  0.6337  0.6631
 4435SOL    MW417514   4.229   2.559   4.150 -0.6372  0.5473  0.4560
 4436SOL     OW17515   4.451   4.715   3.857 -0.0316  0.0741 -0.4550
 4436SOL    HW217516   4.363   4.744   3.881 -0.7540 -0.7964 -1.9175
 4436SOL    HW317517   4.447   4.619   3.863  1.1295  0.0601  0.4192
 4436SOL    MW417518   4.439   4.706   3.861  0.0263 -0.0426 -0.5326
 4437SOL     OW17519   2.201   3.618   1.166 -0.1689  0.5059  0.5420
 4437SOL    HW217520   2.249   3.677   1.107  0.8438 -0.2679  0.5655
 4437SOL    HW317521   2.259   3.541   1.175  0.0447  0.8908  3.1133
 4437SOL    MW417522   2.215   3.615   1.159 -0.0071  0.4546  0.8843
 4438SOL     OW17523   3.492   6.262   1.260  0.2871  0.1173 -0.4028
 4438SOL    HW217524   3.499   6.353   1.230 -0.5526  0.0799 -0.7330
 4438SOL    HW317525   3.546   6.212   1.199  0.8590  0.4015 -0.1429
 4438SOL    MW417526   3.500   6.268   1.248  0.2517  0.1498 -0.4121
 4439SOL     OW17527   1.340   5.186   5.232 -0.0163 -0.1116 -0.2213
 4439SOL    HW217528   1.379   5.235   5.160  1.5850 -1.7284 -0.5162
 4439SOL    HW317529   1.324   5.252   5.300 -0.3940  1.2234 -1.5469
 4439SOL    MW417530   1.343   5.202   5.232  0.1452 -0.1488 -0.4351
 4440SOL     OW17531   1.721   0.553   4.972 -0.6947  0.1077 -0.2920
 4440SOL    HW217532   1.731   0.572   4.878 -1.1536 -2.1224 -0.8573
 4440SOL    HW317533   1.628   0.535   4.982 -0.9744  1.9717  0.9996
 4440SOL    MW417534   1.710   0.553   4.961 -0.7922  0.0594 -0.1962
 4441SOL     OW17535   0.754   4.219   6.312  0.2265  0.3839 -0.4571
 4441SOL    HW217536   0.825   4.210   6.249 -0.8687  0.8856 -1.8044
 4441SOL    HW317537   0.674   4.200   6.262 -0.7273  1.4110  0.6050
 4441SOL    MW417538   0.753   4.215   6.297 -0.0439  0.5856 -0.4947
 4442SOL     OW17539   3.585   0.309   4.984 -0.0312  0.3209 -0.2349
 4442SOL    HW217540   3.666   0.271   5.018  0.3023  0.3759 -0.9445
 4442SOL    HW317541   3.540   0.236   4.942 -0.9153  0.0361  1.1463
 4442SOL    MW417542   3.590   0.294   4.983 -0.1038  0.2906 -0.1463
 4443SOL     OW17543   5.692   3.445   6.153 -0.6369 -0.1682 -0.1503
 4443SOL    HW217544   5.641   3.373   6.189 -0.4112 -0.2829 -0.0515
 4443SOL    HW317545   5.674   3.444   6.059 -0.5662 -0.4083 -0.1610
 4443SOL    MW417546   5.683   3.435   6.146 -0.5978 -0.2150 -0.1387
 4444SOL     OW17547   4.514   3.652   1.972 -0.3054 -0.1969  0.0147
 4444SOL    HW217548   4.546   3.728   2.019  0.8726  0.1660 -1.3243
 4444SOL    HW317549   4.549   3.577   2.021 -0.0825  0.1424  0.3816
 4444SOL    MW417550   4.523   3.652   1.985 -0.1205 -0.1042 -0.1135
 4445SOL     OW17551   5.751   5.792   3.258 -0.4376  0.1634  0.2778
 4445SOL    HW217552   5.816   5.743   3.309  0.1423 -1.1104 -1.5921
 4445SOL    HW317553   5.799   5.820   3.180 -1.3537  1.9125  0.2872
 4445SOL    MW417554   5.766   5.789   3.255 -0.4820  0.2261  0.0323
 4446SOL     OW17555   5.957   1.693   4.434  0.5007 -0.1023 -0.1893
 4446SOL    HW217556   5.907   1.771   4.458 -0.2881 -0.4605 -0.6345
 4446SOL    HW317557   5.984   1.655   4.518 -0.0793  0.0238  0.0574
 4446SOL    MW417558   5.954   1.698   4.448  0.3201 -0.1329 -0.2155
 4447SOL     OW17559   0.014   2.888   3.946  0.4460  0.0737 -0.8055
 4447SOL    HW217560   0.063   2.880   3.864  1.2602 -2.2887 -0.1891
 4447SOL    HW317561  -0.028   2.974   3.942  2.1676  0.8968 -2.7481
 4447SOL    MW417562   0.015   2.898   3.935  0.7806 -0.1294 -0.9805
 4448SOL     OW17563   0.295   6.145   1.763  0.0758  0.2435  0.2608
 4448SOL    HW217564   0.275   6.191   1.681 -0.9610 -2.0717 -0.8998
 4448SOL    HW317565   0.389   6.125   1.756 -0.4160 -1.9075 -1.5786
 4448SOL    MW417566   0.305   6.148   1.751 -0.1259 -0.3457 -0.1350
 4449SOL     OW17567   0.805   2.203   4.484 -0.1836  0.4848 -0.5167
 4449SOL    HW217568   0.777   2.183   4.395 -0.6700 -1.0990 -0.0316
 4449SOL    HW317569   0.899   2.185   4.484 -0.1641  0.5885 -0.7344
 4449SOL    MW417570   0.814   2.198   4.473 -0.2452  0.2895 -0.4814
 4450SOL     OW17571   4.048   0.861   5.907 -0.1281 -0.0898 -0.2197
 4450SOL    HW217572   4.068   0.800   5.837  1.1942 -0.0706  0.1060
 4450SOL    HW317573   4.026   0.806   5.982 -1.7462 -0.1083 -0.6742
 4450SOL    MW417574   4.048   0.846   5.908 -0.1671 -0.0897 -0.2367
 4451SOL     OW17575   4.235   1.841   2.784 -0.7769  0.3403  0.3652
 4451SOL    HW217576   4.246   1.935   2.775  0.1830  0.3113  1.0744
 4451SOL    HW317577   4.310   1.804   2.737 -1.2354 -0.0767 -0.0457
 4451SOL    MW417578   4.246   1.848   2.777 -0.7108  0.2814  0.4045
 4452SOL     OW17579   0.909   4.992   4.526  0.3399 -0.1203 -0.5650
 4452SOL    HW217580   0.970   4.977   4.453  1.3421  0.0320  0.2067
 4452SOL    HW317581   0.828   4.949   4.499 -0.1227  1.9477 -2.8188
 4452SOL    MW417582   0.907   4.984   4.513  0.4111  0.1727 -0.7605
 4453SOL     OW17583   6.043   5.365   1.975 -0.1828  0.6944 -0.2180
 4453SOL    HW217584   5.964   5.350   2.027 -0.7112  4.1289  0.2172
 4453SOL    HW317585   6.104   5.406   2.036  1.6264 -1.0031 -0.8057
 4453SOL    MW417586   6.040   5.369   1.990 -0.0138  0.9236 -0.2381
 4454SOL     OW17587   4.702   5.381   2.824 -0.0357  0.7768  0.1859
 4454SOL    HW217588   4.725   5.383   2.917  0.6077 -2.6326  0.2517
 4454SOL    HW317589   4.607   5.393   2.822 -0.2322 -0.3223  1.4291
 4454SOL    MW417590   4.693   5.383   2.836  0.0232  0.1820  0.3586
 4455SOL     OW17591   1.919   1.807   5.567 -0.2208 -0.2288  0.3537
 4455SOL    HW217592   1.830   1.798   5.600  0.0750  1.8794  2.0070
 4455SOL    HW317593   1.973   1.817   5.646  0.9841  1.8134 -0.6361
 4455SOL    MW417594   1.914   1.807   5.582 -0.0228  0.3188  0.4413
 4456SOL     OW17595   3.734   2.198   5.390 -0.2845 -0.4380  0.3425
 4456SOL    HW217596   3.822   2.233   5.377 -0.8478  0.5484 -1.0338
 4456SOL    HW317597   3.740   2.146   5.470  1.2714  0.5323  0.8949
 4456SOL    MW417598   3.746   2.196   5.399 -0.1535 -0.1798  0.2338
 4457SOL     OW17599   4.282   4.073   0.931  0.3413 -0.1302  0.2989
 4457SOL    HW217600   4.246   4.074   1.020  0.3400 -0.7315  0.3082
 4457SOL    HW317601   4.245   3.994   0.891  0.9795 -0.2962  0.0287
 4457SOL    MW417602   4.272   4.062   0.937  0.4253 -0.2315  0.2645
 4458SOL     OW17603   4.954   4.811   1.392  0.3623 -0.2298  0.2629
 4458SOL    HW217604   5.048   4.825   1.389  0.3163 -0.0729 -0.9564
 4458SOL    HW317605   4.941   4.740   1.455  1.1536  0.7770  1.6001
 4458SOL    MW417606   4.964   4.804   1.400  0.4606 -0.0762  0.2784
 4459SOL     OW17607   5.605   3.159   3.856 -0.5232 -0.1180 -0.7433
 4459SOL    HW217608   5.602   3.252   3.875  0.7138  0.2238 -2.1057
 4459SOL    HW317609   5.645   3.152   3.770  1.6326 -2.0259  0.2943
 4459SOL    MW417610   5.610   3.170   3.847 -0.0756 -0.3246 -0.7862
 4460SOL     OW17611   5.244   5.786   3.223  0.6817  0.2548 -0.5187
 4460SOL    HW217612   5.182   5.855   3.202 -0.7814 -0.7101  0.4832
 4460SOL    HW317613   5.251   5.734   3.143 -0.1913  0.0859 -0.4897
 4460SOL    MW417614   5.237   5.788   3.210  0.3735  0.1052 -0.3827
 4461SOL     OW17615   4.886   3.144   2.848  0.2224 -0.2676  0.0554
 4461SOL    HW217616   4.833   3.223   2.857 -2.1023 -1.7188 -0.1515
 4461SOL    HW317617   4.853   3.085   2.915  0.6461 -1.7303 -0.9702
 4461SOL    MW417618   4.875   3.147   2.858 -0.0284 -0.6520 -0.1072
 4462SOL     OW17619   1.247   3.355   0.010  0.1806 -0.2656  0.4620
 4462SOL    HW217620   1.187   3.422   0.043  1.3625  1.4257 -0.6876
 4462SOL    HW317621   1.189   3.288  -0.026 -1.1403  2.1402 -2.2587
 4462SOL    MW417622   1.231   3.355   0.010  0.1623  0.2749 -0.0486
 4463SOL     OW17623   1.448   0.571   1.099 -0.0632  0.1618 -0.4530
 4463SOL    HW217624   1.354   0.586   1.091 -0.5158 -1.2466  1.4941
 4463SOL    HW317625   1.472   0.615   1.181  0.1696 -2.4849  1.0122
 4463SOL    MW417626   1.439   0.579   1.109 -0.0922 -0.3733 -0.0028
 4464SOL     OW17627   0.489   0.932   4.146 -0.4132 -0.0768 -0.3883
 4464SOL    HW217628   0.412   0.941   4.202  0.1711 -1.8299  0.7592
 4464SOL    HW317629   0.532   1.018   4.151 -1.2021  0.2791  0.5809
 4464SOL    MW417630   0.484   0.945   4.154 -0.4402 -0.2611 -0.1090
 4465SOL     OW17631   3.635   5.181   3.399  0.7043 -0.2558  0.3151
 4465SOL    HW217632   3.577   5.132   3.458  1.0364  1.1712  1.9221
 4465SOL    HW317633   3.654   5.120   3.328 -2.2290 -1.0151  0.0289
 4465SOL    MW417634   3.630   5.167   3.397  0.3611 -0.1677  0.4893
 4466SOL     OW17635   2.368   0.767   2.019 -0.0071  0.0474 -0.0044
 4466SOL    HW217636   2.418   0.807   1.947  2.3618  0.0957  1.5613
 4466SOL    HW317637   2.314   0.839   2.053  2.9213  1.6532  1.6675
 4466SOL    MW417638   2.368   0.782   2.014  0.6918  0.2657  0.4227
 4467SOL     OW17639   3.394   0.489   2.952  0.2734  0.5184 -0.3137
 4467SOL    HW217640   3.425   0.482   3.042 -0.2516 -1.6760 -0.2481
 4467SOL    HW317641   3.343   0.570   2.950  0.1455  0.5051  1.4020
 4467SOL    MW417642   3.391   0.499   2.963  0.1872  0.2272 -0.0787
 4468SOL     OW17643   0.595   2.675   6.288  0.2567 -0.0626 -0.2813
 4468SOL    HW217644   0.621   2.601   6.234  0.9176 -0.1288  0.1200
 4468SOL    HW317645   0.587   2.748   6.227 -0.7913 -0.5461 -0.7399
 4468SOL    MW417646   0.597   2.675   6.273  0.2056 -0.1351 -0.2888
 4469SOL     OW17647   2.880   0.291   2.954 -0.0767  0.6220  0.1927
 4469SOL    HW217648   2.859   0.363   2.894  0.9684  1.1339  0.4125
 4469SOL    HW317649   2.960   0.320   2.998 -0.2795 -0.1834  1.1178
 4469SOL    MW417650   2.888   0.304   2.952  0.0344  0.5833  0.3437
 4470SOL     OW17651   5.900   6.048   4.697 -0.0243  0.0498  0.1905
 4470SOL    HW217652   5.950   5.990   4.639 -2.1895 -1.3044 -0.4841
 4470SOL    HW317653   5.955   6.059   4.774  1.3871 -1.1710 -0.5931
 4470SOL    MW417654   5.914   6.042   4.699 -0.1238 -0.2900 -0.0019
 4471SOL     OW17655   6.028   4.606   1.088  0.7197 -0.0217  0.2613
 4471SOL    HW217656   6.122   4.616   1.101  0.8063 -0.7805  0.2648
 4471SOL    HW317657   6.013   4.511   1.093  0.2630 -0.1000 -1.7787
 4471SOL    MW417658   6.038   4.594   1.091  0.6708 -0.1322 -0.0074
 4472SOL     OW17659   2.947   4.803   4.699 -0.7073  0.3535 -0.3077
 4472SOL    HW217660   2.910   4.860   4.631 -0.5819  0.8148  0.0052
 4472SOL    HW317661   3.031   4.774   4.663 -1.6577 -1.2756 -1.3279
 4472SOL    MW417662   2.953   4.807   4.685 -0.8161  0.1994 -0.4011
 4473SOL     OW17663   0.834   4.896   2.711  0.0341 -0.5965 -0.3758
 4473SOL    HW217664   0.851   4.990   2.721  0.7157 -0.8205  0.8694
 4473SOL    HW317665   0.859   4.859   2.796  3.2817 -2.3692 -1.9292
 4473SOL    MW417666   0.840   4.904   2.724  0.5525 -0.8599 -0.4165
 4474SOL     OW17667   0.455   0.401   0.235 -0.5826 -0.3049  0.0470
 4474SOL    HW217668   0.457   0.336   0.305 -0.3066 -1.5437 -1.0640
 4474SOL    HW317669   0.409   0.357   0.163  0.1097  0.5193 -0.9266
 4474SOL    MW417670   0.449   0.386   0.234 -0.4548 -0.3596 -0.2281
 4475SOL     OW17671   2.846   4.960   4.476 -0.5975 -0.2644  0.3305
 4475SOL    HW217672   2.891   5.045   4.474  1.3885 -1.2298 -2.2249
 4475SOL    HW317673   2.753   4.982   4.472 -0.0945  1.8462 -2.0062
 4475SOL    MW417674   2.840   4.974   4.475 -0.2691 -0.1133 -0.3149
 4476SOL     OW17675   3.556   2.231   3.057 -0.7138  0.3272 -0.2186
 4476SOL    HW217676   3.622   2.267   2.997 -1.1346  0.8253 -0.3863
 4476SOL    HW317677   3.541   2.142   3.024 -0.9200  0.5844 -0.8414
 4476SOL    MW417678   3.563   2.224   3.045 -0.7966  0.4268 -0.3229
 4477SOL     OW17679   3.685   2.394   1.060 -0.2890 -0.4831 -0.2330
 4477SOL    HW217680   3.781   2.397   1.059 -0.2521 -1.4930 -0.9254
 4477SOL    HW317681   3.664   2.307   1.091 -1.0013 -0.0804  0.4270
 4477SOL    MW417682   3.695   2.383   1.064 -0.3781 -0.5632 -0.2373
 4478SOL     OW17683   5.306   2.268   4.665  0.6222  0.0261  0.0835
 4478SOL    HW217684   5.219   2.305   4.650  0.5975  0.1811  0.5897
 4478SOL    HW317685   5.363   2.344   4.676  0.6185 -0.0852  0.8818
 4478SOL    MW417686   5.302   2.283   4.664  0.6184  0.0319  0.2556
 4479SOL     OW17687   5.025   4.379   1.596 -0.2285 -0.0665 -0.5685
 4479SOL    HW217688   4.993   4.401   1.509  0.4483  1.2783 -0.5121
 4479SOL    HW317689   5.098   4.319   1.580 -0.9797 -0.9249 -0.8384
 4479SOL    MW417690   5.031   4.374   1.583 -0.2383 -0.0023 -0.5966
 4480SOL     OW17691   2.748   1.812   0.991  0.5042  0.0897 -0.0201
 4480SOL    HW217692   2.764   1.720   0.973 -0.8596 -0.4891  1.4721
 4480SOL    HW317693   2.709   1.847   0.911  1.4232 -0.5028 -0.7435
 4480SOL    MW417694   2.745   1.805   0.978  0.4455 -0.0648  0.0813
 4481SOL     OW17695   4.118   5.959   3.967  0.1933  0.4455 -0.1069
 4481SOL    HW217696   4.195   5.956   3.911  0.5588  1.3462  0.3231
 4481SOL    HW317697   4.102   6.052   3.981  0.1607  0.2518  1.3242
 4481SOL    MW417698   4.127   5.971   3.962  0.2372  0.5388  0.1387
 4482SOL     OW17699   5.818   4.083   2.848  0.3981  0.1678 -0.0965
 4482SOL    HW217700   5.739   4.112   2.894  1.0629  1.9282  0.0203
 4482SOL    HW317701   5.871   4.041   2.915 -0.8592 -2.0390 -0.3964
 4482SOL    MW417702   5.815   4.082   2.863  0.3199  0.1089 -0.1206
 4483SOL     OW17703   4.358   5.183   3.477 -0.7852  0.0063 -0.6142
 4483SOL    HW217704   4.372   5.102   3.526  0.0371  0.2171 -0.4830
 4483SOL    HW317705   4.309   5.156   3.399 -2.4675 -0.2778  0.4937
 4483SOL    MW417706   4.353   5.169   3.473 -0.8987 -0.0033 -0.4508
 4484SOL     OW17707   6.308   6.169   3.680  0.2675 -0.1494  0.8885
 4484SOL    HW217708   6.276   6.104   3.618 -1.3113  0.1801  1.3096
 4484SOL    HW317709   6.360   6.119   3.743 -1.0570 -1.0828  1.3074
 4484SOL    MW417710   6.310   6.154   3.680 -0.1156 -0.2290  0.9993
 4485SOL     OW17711   4.701   2.532   1.592  0.4067 -0.7899  0.0262
 4485SOL    HW217712   4.654   2.486   1.522  0.1499 -0.0781 -0.2824
 4485SOL    HW317713   4.632   2.576   1.642  0.7237  0.2343 -0.4093
 4485SOL    MW417714   4.686   2.532   1.589  0.4146 -0.5609 -0.0720
 4486SOL     OW17715   5.958   0.390   0.069 -0.4383 -0.1648 -0.1805
 4486SOL    HW217716   5.916   0.400   0.154 -2.0063 -0.0727 -0.9379
 4486SOL    HW317717   6.028   0.456   0.069 -1.8700  1.4149  0.1702
 4486SOL    MW417718   5.962   0.400   0.080 -0.8341  0.0557 -0.2342
 4487SOL     OW17719   1.413   5.853   1.546  0.5019 -0.3265 -0.4480
 4487SOL    HW217720   1.417   5.766   1.507  3.4599  0.5568 -2.4705
 4487SOL    HW317721   1.363   5.905   1.483  1.3614  0.0684 -0.8280
 4487SOL    MW417722   1.407   5.848   1.532  1.0055 -0.1579 -0.7650
 4488SOL     OW17723   0.901   4.060   2.906 -0.2550  0.1216  0.1125
 4488SOL    HW217724   0.883   3.996   2.837  0.2951  0.9181 -0.7897
 4488SOL    HW317725   0.996   4.056   2.918 -0.0922  1.3612 -0.5772
 4488SOL    MW417726   0.911   4.051   2.898 -0.1609  0.3902 -0.0975
 4489SOL     OW17727   6.296   1.281   6.271  0.6747 -0.0700  0.0029
 4489SOL    HW217728   6.372   1.338   6.259  1.1715 -0.7353 -0.0673
 4489SOL    HW317729   6.261   1.305   6.356 -0.7181  2.1841 -1.0876
 4489SOL    MW417730   6.302   1.292   6.280  0.5564  0.1396 -0.1503
 4490SOL     OW17731   2.302   1.100   5.593 -0.2347 -0.6581 -0.0645
 4490SOL    HW217732   2.391   1.084   5.562 -0.5022 -0.4780 -0.9606
 4490SOL    HW317733   2.250   1.029   5.554 -0.7087 -0.0054 -0.6451
 4490SOL    MW417734   2.307   1.088   5.584 -0.3325 -0.5482 -0.2594
 4491SOL     OW17735   6.400   0.227   0.736 -0.1559 -1.0819 -0.4058
 4491SOL    HW217736   6.458   0.301   0.716 -0.6723 -0.7181 -0.5915
 4491SOL    HW317737   6.349   0.215   0.656 -1.0751 -0.6996  0.1058
 4491SOL    MW417738   6.401   0.235   0.723 -0.3453 -0.9834 -0.3628
 4492SOL     OW17739   5.417   1.920   1.147  0.3582 -0.2787  0.1438
 4492SOL    HW217740   5.365   1.885   1.219  0.8956  1.9286  1.6891
 4492SOL    HW317741   5.367   1.993   1.113  1.0671 -0.0114 -0.3612
 4492SOL    MW417742   5.404   1.925   1.152  0.5227  0.0478  0.2810
 4493SOL     OW17743   5.074   0.165   4.405 -0.0936  0.1196  0.5263
 4493SOL    HW217744   4.998   0.222   4.420 -0.9361 -1.0585  0.8203
 4493SOL    HW317745   5.101   0.138   4.493 -1.1046 -1.7118  0.3155
 4493SOL    MW417746   5.067   0.169   4.419 -0.3381 -0.2775  0.5373
 4494SOL     OW17747   5.564   3.673   1.095  0.6180  0.1558  0.1029
 4494SOL    HW217748   5.566   3.618   1.174  1.3053 -0.7085 -0.4886
 4494SOL    HW317749   5.546   3.611   1.024  1.7807  0.6366 -0.6357
 4494SOL    MW417750   5.562   3.657   1.096  0.8621  0.1052 -0.0726
 4495SOL     OW17751   1.941   4.080   1.992  0.0655  0.9070  0.2017
 4495SOL    HW217752   1.849   4.069   2.018 -0.4195 -0.3529 -1.7370
 4495SOL    HW317753   1.938   4.144   1.921  0.1435 -1.3345 -1.9924
 4495SOL    MW417754   1.928   4.087   1.986  0.0118  0.4450 -0.3436
 4496SOL     OW17755   2.606   5.239   1.338 -1.1543  0.6130  0.0251
 4496SOL    HW217756   2.585   5.258   1.429 -0.6970 -0.3207  0.3367
 4496SOL    HW317757   2.618   5.144   1.335 -0.5941  0.6960 -0.8901
 4496SOL    MW417758   2.605   5.229   1.349 -1.0201  0.5007 -0.0545
 4497SOL     OW17759   5.117   4.796   1.020 -0.3716  0.2235 -0.0499
 4497SOL    HW217760   5.037   4.847   1.010 -0.3456  0.2437 -0.1490
 4497SOL    HW317761   5.121   4.741   0.942 -1.2250 -1.0838  0.7843
 4497SOL    MW417762   5.107   4.795   1.009 -0.4808  0.0537  0.0471
 4498SOL     OW17763   0.059   3.382   0.828 -0.1120  0.1200  0.2761
 4498SOL    HW217764   0.012   3.306   0.861  1.3147 -1.4989 -1.1933
 4498SOL    HW317765   0.151   3.354   0.826  0.5315  2.0785  0.1630
 4498SOL    MW417766   0.065   3.368   0.832  0.1611  0.1648  0.0673
 4499SOL     OW17767   4.946   5.996   4.450 -0.3124 -0.4275  0.3804
 4499SOL    HW217768   4.905   6.080   4.469  1.3621  0.6299 -0.4963
 4499SOL    HW317769   4.872   5.937   4.433 -1.4806  1.2194 -0.4872
 4499SOL    MW417770   4.931   5.999   4.450 -0.2456 -0.0707  0.1503
 4500SOL     OW17771   2.633   3.084   2.228 -0.2171 -0.4934  0.4779
 4500SOL    HW217772   2.661   3.125   2.146 -0.8104 -1.0196  0.0062
 4500SOL    HW317773   2.580   3.009   2.201  0.5791 -1.3911  1.3286
 4500SOL    MW417774   2.630   3.079   2.213 -0.1904 -0.6812  0.5279
 4501SOL     OW17775   6.167   5.612   6.264 -0.2340 -0.9560 -0.2162
 4501SOL    HW217776   6.208   5.597   6.179  0.2511 -0.3615 -0.0949
 4501SOL    HW317777   6.201   5.542   6.320  0.3030 -0.7105 -0.2277
 4501SOL    MW417778   6.177   5.601   6.260 -0.0991 -0.8452 -0.2017
 4502SOL     OW17779   0.043   5.545   6.000  0.0482 -0.2704 -0.2676
 4502SOL    HW217780   0.108   5.504   5.943  1.3694 -0.1601  1.1069
 4502SOL    HW317781   0.081   5.631   6.022 -1.9606  1.1336 -1.8414
 4502SOL    MW417782   0.057   5.551   5.995 -0.0425 -0.0706 -0.2939
 4503SOL     OW17783   1.899   2.949   5.835  0.2123 -0.5474 -0.3353
 4503SOL    HW217784   1.897   2.854   5.841  1.3903 -0.5643 -0.0035
 4503SOL    HW317785   1.948   2.968   5.755 -0.0281 -0.2212 -0.4076
 4503SOL    MW417786   1.905   2.939   5.825  0.3360 -0.5066 -0.3011
 4504SOL     OW17787   5.417   4.759   5.018  0.3866  0.2894 -0.4049
 4504SOL    HW217788   5.456   4.696   4.957  0.1677  1.1970 -1.5175
 4504SOL    HW317789   5.463   4.841   4.999  0.4820  0.5307  0.8383
 4504SOL    MW417790   5.428   4.762   5.007  0.3703  0.4410 -0.3877
 4505SOL     OW17791   5.945   4.748   5.139  0.5530  0.6145 -0.5739
 4505SOL    HW217792   5.877   4.812   5.117 -0.4077  0.0756  0.6423
 4505SOL    HW317793   5.974   4.713   5.055 -0.0465  1.5040 -1.1605
 4505SOL    MW417794   5.940   4.752   5.125  0.3471  0.6608 -0.4908
 4506SOL     OW17795   3.424   5.118   0.859  0.7059  0.0399  0.5580
 4506SOL    HW217796   3.480   5.048   0.893 -0.2023 -1.7427 -1.3874
 4506SOL    HW317797   3.354   5.072   0.813  0.1130  2.2324 -0.8915
 4506SOL    MW417798   3.422   5.102   0.857  0.5078  0.0940  0.1101
 4507SOL     OW17799   0.185   5.518   3.500  0.5504 -0.1043  0.5212
 4507SOL    HW217800   0.136   5.437   3.517 -0.5012  0.4551  0.2617
 4507SOL    HW317801   0.118   5.580   3.472  1.4820  0.5836 -0.2203
 4507SOL    MW417802   0.169   5.515   3.498  0.5346  0.0603  0.3891
 4508SOL     OW17803   3.470   5.480   5.088  0.0894  0.3281 -0.3013
 4508SOL    HW217804   3.422   5.530   5.154  0.5687 -1.0828  1.1481
 4508SOL    HW317805   3.560   5.479   5.118  0.4946  0.3817 -1.4426
 4508SOL    MW417806   3.476   5.487   5.101  0.2061  0.1490 -0.2607
 4509SOL     OW17807   5.849   2.515   5.045 -0.4343 -0.2286  0.2328
 4509SOL    HW217808   5.864   2.451   5.114 -0.2054  0.3090  0.6894
 4509SOL    HW317809   5.908   2.488   4.974 -0.2156 -0.4237  0.4865
 4509SOL    MW417810   5.859   2.503   5.044 -0.3753 -0.1834  0.3265
 4510SOL     OW17811   1.056   4.927   0.795 -0.8243 -0.3476  0.2041
 4510SOL    HW217812   0.976   4.955   0.839 -0.0181 -0.7903  2.0393
 4510SOL    HW317813   1.108   4.885   0.863  1.4427  0.8661 -0.6645
 4510SOL    MW417814   1.052   4.925   0.809 -0.4189 -0.2459  0.3316
 4511SOL     OW17815   0.635   2.707   4.552 -0.2908 -0.0549  0.1624
 4511SOL    HW217816   0.600   2.619   4.535  0.1857 -0.2779  0.3280
 4511SOL    HW317817   0.685   2.698   4.632  1.4731 -0.1093 -0.8993
 4511SOL    MW417818   0.637   2.694   4.560  0.0048 -0.0915  0.0441
 4512SOL     OW17819   4.801   3.789   1.349 -0.3925 -0.2107 -0.1386
 4512SOL    HW217820   4.762   3.706   1.322 -1.4428  0.4489 -0.7282
 4512SOL    HW317821   4.873   3.764   1.407 -0.4598 -1.5375 -0.5881
 4512SOL    MW417822   4.805   3.775   1.353 -0.5400 -0.2987 -0.2757
 4513SOL     OW17823   0.224   5.199   3.759 -0.0499  0.4269 -0.8657
 4513SOL    HW217824   0.281   5.130   3.723  0.9747  0.1181  1.1873
 4513SOL    HW317825   0.155   5.151   3.805 -0.7319  0.8002 -1.4884
 4513SOL    MW417826   0.222   5.183   3.760 -0.0047  0.4355 -0.6770
 4514SOL     OW17827   5.449   0.017   5.149 -0.7183 -0.0109 -0.2481
 4514SOL    HW217828   5.537  -0.018   5.133  0.4262  2.1540  0.7933
 4514SOL    HW317829   5.419   0.046   5.062  1.6693  3.4616 -0.1367
 4514SOL    MW417830   5.457   0.017   5.135 -0.2523  0.7329 -0.0960
 4515SOL     OW17831   5.689   3.100   0.460  0.0467  0.4523 -0.5093
 4515SOL    HW217832   5.746   3.045   0.514 -0.3615  2.6867  2.4599
 4515SOL    HW317833   5.601   3.066   0.475 -0.1058  1.2848  0.6030
 4515SOL    MW417834   5.685   3.088   0.469 -0.0273  0.8569  0.0292
 4516SOL     OW17835   4.784   4.234   2.304 -0.2875  0.3378  0.1966
 4516SOL    HW217836   4.879   4.218   2.307 -0.4016 -0.5958 -0.5817
 4516SOL    HW317837   4.772   4.287   2.225 -0.5762 -0.9637 -0.6661
 4516SOL    MW417838   4.795   4.239   2.294 -0.3406  0.0429 -0.0199
 4517SOL     OW17839   4.728   3.483   0.773  0.3312  0.4958  0.0003
 4517SOL    HW217840   4.787   3.446   0.838 -0.8462 -0.7881  0.3903
 4517SOL    HW317841   4.649   3.506   0.822 -0.2390  0.3270 -0.8058
 4517SOL    MW417842   4.725   3.481   0.788  0.1006  0.3041 -0.0546
 4518SOL     OW17843   4.572   2.390   0.945 -0.1373  0.1642  0.5105
 4518SOL    HW217844   4.585   2.431   0.859  1.7477 -0.9522  0.2012
 4518SOL    HW317845   4.558   2.297   0.925 -0.1932 -0.0222  1.3938
 4518SOL    MW417846   4.572   2.383   0.931  0.1040 -0.0077  0.5862
 4519SOL     OW17847   2.617   1.060   2.263 -0.0347 -0.8413 -0.1505
 4519SOL    HW217848   2.631   1.084   2.172 -0.5229  0.6373  0.1471
 4519SOL    HW317849   2.577   0.973   2.259  0.5259 -1.0660 -1.3071
 4519SOL    MW417850   2.614   1.052   2.251 -0.0251 -0.6759 -0.2638
 4520SOL     OW17851   2.460   5.944   4.478  0.2590 -0.5122 -0.0846
 4520SOL    HW217852   2.386   5.914   4.424  0.3733  1.9392 -1.7546
 4520SOL    HW317853   2.420   5.966   4.562 -0.7004 -0.4676 -0.5326
 4520SOL    MW417854   2.445   5.943   4.482  0.1475 -0.1829 -0.3640
 4521SOL     OW17855   4.119   3.622   4.836 -0.2596 -0.1555 -0.1525
 4521SOL    HW217856   4.207   3.623   4.874 -0.5406  1.2781  0.5408
 4521SOL    HW317857   4.124   3.557   4.767  1.2770 -0.2906  0.0359
 4521SOL    MW417858   4.131   3.614   4.832 -0.0939  0.0158 -0.0362
 4522SOL     OW17859   2.338   4.309   4.252 -0.5253  0.3722 -0.5154
 4522SOL    HW217860   2.401   4.353   4.196  0.3340 -0.3720 -0.1483
 4522SOL    HW317861   2.293   4.247   4.195 -0.3819  0.3543 -0.6091
 4522SOL    MW417862   2.340   4.307   4.237 -0.3930  0.2717 -0.4794
 4523SOL     OW17863   5.806   0.586   1.423 -0.0153 -0.1645 -0.7051
 4523SOL    HW217864   5.722   0.631   1.416  1.0961  1.9213 -1.1895
 4523SOL    HW317865   5.810   0.531   1.344 -0.0271  1.3514 -1.7984
 4523SOL    MW417866   5.795   0.585   1.411  0.1298  0.3107 -0.9133
 4524SOL     OW17867   5.870   0.445   0.915  0.1569 -0.3735 -0.0476
 4524SOL    HW217868   5.919   0.490   0.983 -1.2664  0.1954  0.6368
 4524SOL    HW317869   5.784   0.487   0.915  0.4269  0.4213 -2.9546
 4524SOL    MW417870   5.865   0.456   0.924  0.0048 -0.1936 -0.3408
 4525SOL     OW17871   0.464   4.480   2.776 -0.4199  0.0466 -0.1132
 4525SOL    HW217872   0.505   4.394   2.766 -1.3805 -1.0738  3.7296
 4525SOL    HW317873   0.381   4.472   2.729  0.5594 -0.1868 -1.8789
 4525SOL    MW417874   0.459   4.467   2.768 -0.4174 -0.1320  0.1608
 4526SOL     OW17875   2.071   0.910   1.032  0.3126  0.2695 -0.1017
 4526SOL    HW217876   1.988   0.919   1.078 -0.9039  2.2072 -2.4436
 4526SOL    HW317877   2.063   0.827   0.985  1.0310 -1.0563  1.9483
 4526SOL    MW417878   2.059   0.900   1.032  0.2469  0.3502 -0.1402
 4527SOL     OW17879   0.692   5.972   3.684  0.1051 -0.3022 -0.2035
 4527SOL    HW217880   0.630   5.899   3.692 -0.9540  0.6083  0.1558
 4527SOL    HW317881   0.773   5.939   3.722 -0.7618 -0.8484  1.2561
 4527SOL    MW417882   0.694   5.958   3.690 -0.1490 -0.2541  0.0365
 4528SOL     OW17883   0.143   1.039   3.104 -0.2303 -0.4013  0.0301
 4528SOL    HW217884   0.071   1.058   3.044 -0.0095 -1.8134 -0.7341
 4528SOL    HW317885   0.186   0.963   3.065  0.4654 -0.7949  1.5158
 4528SOL    MW417886   0.139   1.032   3.091 -0.1094 -0.6395  0.1253
 4529SOL     OW17887   4.049   3.417   6.064 -0.1571  0.4231 -0.2922
 4529SOL    HW217888   4.034   3.437   5.972 -2.3306  0.9952  0.1224
 4529SOL    HW317889   4.042   3.322   6.069 -3.6851  0.5580 -0.2660
 4529SOL    MW417890   4.046   3.407   6.053 -0.9094  0.5164 -0.2340
 4530SOL     OW17891   6.195   2.268   3.378 -0.1704  0.4055  0.0459
 4530SOL    HW217892   6.276   2.219   3.395 -0.8906 -0.6075  0.6995
 4530SOL    HW317893   6.171   2.243   3.289 -0.5987 -0.5728  0.4166
 4530SOL    MW417894   6.203   2.258   3.368 -0.3219  0.1428  0.1810
 4531SOL     OW17895   5.755   5.455   0.867 -0.5266  0.5544  0.4221
 4531SOL    HW217896   5.681   5.513   0.849 -2.6169 -2.0080  0.3524
 4531SOL    HW317897   5.756   5.446   0.962 -0.7668  0.0063  0.3731
 4531SOL    MW417898   5.746   5.462   0.877 -0.8341  0.1440  0.4064
 4532SOL     OW17899   5.139   2.090   3.723 -0.1541  0.3133 -0.1940
 4532SOL    HW217900   5.212   2.040   3.759 -1.3758 -0.3714  1.4709
 4532SOL    HW317901   5.108   2.038   3.649  0.0069 -0.2359  0.1184
 4532SOL    MW417902   5.145   2.077   3.718 -0.2940  0.1505  0.0669
 4533SOL     OW17903   5.878   6.125   1.802 -0.1125  0.0012 -0.7263
 4533SOL    HW217904   5.796   6.081   1.781 -0.0445 -1.0236  0.9685
 4533SOL    HW317905   5.862   6.168   1.886  0.1609  2.4125 -1.8294
 4533SOL    MW417906   5.865   6.125   1.811 -0.0674  0.1841 -0.6483
 4534SOL     OW17907   0.378   0.256   6.414  0.1067 -0.5419  0.1713
 4534SOL    HW217908   0.312   0.197   6.449  1.1987 -1.6134  0.4802
 4534SOL    HW317909   0.461   0.214   6.434  0.8404 -0.3479 -2.1952
 4534SOL    MW417910   0.380   0.243   6.422  0.3476 -0.6577 -0.1002
 4535SOL     OW17911   6.208   1.353   0.681 -0.5724 -0.2140  0.0832
 4535SOL    HW217912   6.178   1.404   0.605  0.8129 -0.5296 -0.7090
 4535SOL    HW317913   6.258   1.416   0.733  0.4775 -0.5609 -0.4929
 4535SOL    MW417914   6.210   1.368   0.678 -0.2511 -0.3014 -0.0973
 4536SOL     OW17915   6.227   0.305   3.362  0.1119 -0.0920  0.1363
 4536SOL    HW217916   6.149   0.343   3.323  0.3974  0.7328  0.3418
 4536SOL    HW317917   6.194   0.239   3.423 -0.3402 -1.4890 -1.5160
 4536SOL    MW417918   6.213   0.301   3.365  0.0900 -0.1675 -0.0546
 4537SOL     OW17919   3.779   4.538   6.111 -0.1772  0.0289 -0.1255
 4537SOL    HW217920   3.758   4.630   6.093  0.1704  0.1483  0.0784
 4537SOL    HW317921   3.804   4.502   6.026 -0.8399 -0.0176 -0.3046
 4537SOL    MW417922   3.779   4.546   6.098 -0.2188  0.0385 -0.1222
 4538SOL     OW17923   2.242   1.675   4.120 -0.0642  0.0672  0.4634
 4538SOL    HW217924   2.259   1.688   4.026  0.5927 -0.4528  0.5038
 4538SOL    HW317925   2.257   1.582   4.135  4.3699  0.7445  1.9046
 4538SOL    MW417926   2.246   1.665   4.109  0.6075  0.0880  0.6589
 4539SOL     OW17927   0.441   6.156   4.767 -0.0014 -0.1717  0.1675
 4539SOL    HW217928   0.502   6.090   4.800 -0.5208  0.3522  2.3280
 4539SOL    HW317929   0.369   6.157   4.830 -1.2478  0.6802 -1.2023
 4539SOL    MW417930   0.440   6.148   4.780 -0.2344  0.0098  0.2718
 4540SOL     OW17931   2.496   0.553   6.212 -0.4517  0.5129  0.6688
 4540SOL    HW217932   2.562   0.491   6.181 -1.9975 -1.4033  1.0544
 4540SOL    HW317933   2.505   0.552   6.307 -0.2599  1.1662  0.6611
 4540SOL    MW417934   2.506   0.545   6.220 -0.6304  0.3463  0.7186
 4541SOL     OW17935   3.436   4.176   5.532 -0.3460 -0.2860  0.1894
 4541SOL    HW217936   3.431   4.212   5.620  0.4607  0.1297  0.0759
 4541SOL    HW317937   3.447   4.082   5.545  1.1901 -0.0793  0.5826
 4541SOL    MW417938   3.437   4.169   5.545 -0.0369 -0.2039  0.2263
 4542SOL     OW17939   1.110   1.400   4.077  0.1028  0.3726  0.3077
 4542SOL    HW217940   1.115   1.467   4.146  2.0066  1.4751 -0.8386
 4542SOL    HW317941   1.051   1.439   4.011  0.4462  0.5091  0.0798
 4542SOL    MW417942   1.103   1.414   4.077  0.3993  0.5361  0.1264
 4543SOL     OW17943   1.539   5.107   4.496 -0.0914  0.5856  0.5399
 4543SOL    HW217944   1.557   5.120   4.403  0.7996 -0.5874  0.5398
 4543SOL    HW317945   1.515   5.195   4.528  0.0355  1.0841 -0.6849
 4543SOL    MW417946   1.538   5.121   4.488  0.0429  0.4966  0.3783
 4544SOL     OW17947   0.528   0.894   1.796 -0.0156  0.2681  0.4894
 4544SOL    HW217948   0.549   0.947   1.719 -0.4128 -0.1538  0.0798
 4544SOL    HW317949   0.442   0.857   1.776  0.0139 -0.0887  1.0113
 4544SOL    MW417950   0.519   0.896   1.783 -0.0641  0.1654  0.5042
 4545SOL     OW17951   1.340   5.426   3.460 -0.1879  0.0405 -0.4339
 4545SOL    HW217952   1.366   5.502   3.407 -2.1737  1.1689  0.0940
 4545SOL    HW317953   1.319   5.463   3.546 -2.6666 -0.8026 -0.5980
 4545SOL    MW417954   1.341   5.441   3.464 -0.7770  0.0781 -0.3859
 4546SOL     OW17955   3.755   1.093   3.318  0.3220 -0.0589  0.6819
 4546SOL    HW217956   3.712   1.010   3.298 -1.9098  0.8944  1.2078
 4546SOL    HW317957   3.812   1.109   3.243 -0.5616 -1.2055 -0.2760
 4546SOL    MW417958   3.757   1.085   3.305 -0.0891 -0.0844  0.6249
 4547SOL     OW17959   2.953   2.143   5.098 -0.0377 -0.2363  0.0983
 4547SOL    HW217960   3.021   2.210   5.106  1.7211 -1.7331 -1.1710
 4547SOL    HW317961   2.939   2.112   5.188  0.8245  0.2394  0.4077
 4547SOL    MW417962   2.960   2.148   5.111  0.3081 -0.3710 -0.0284
 4548SOL     OW17963   0.271   5.875   1.265 -0.0497 -0.2268  0.4611
 4548SOL    HW217964   0.288   5.937   1.194 -2.5765 -0.6276 -0.6406
 4548SOL    HW317965   0.228   5.927   1.333  1.2707 -0.0835  1.2173
 4548SOL    MW417966   0.267   5.890   1.264 -0.2088 -0.2608  0.4155
 4549SOL     OW17967   0.820   5.618   0.451 -0.1933 -0.2130 -0.2141
 4549SOL    HW217968   0.748   5.557   0.436 -0.5006  0.1959 -0.4417
 4549SOL    HW317969   0.829   5.621   0.546 -1.3353  0.6909 -0.1149
 4549SOL    MW417970   0.812   5.611   0.462 -0.3845 -0.0398 -0.2311
 4550SOL     OW17971   1.920   5.421   3.928  0.2442  0.8300 -0.0473
 4550SOL    HW217972   1.992   5.360   3.941  0.8410  1.3362 -0.8816
 4550SOL    HW317973   1.858   5.400   3.997 -0.3586 -1.8584 -1.2693
 4550SOL    MW417974   1.921   5.411   3.939  0.2434  0.5421 -0.3186
 4551SOL     OW17975   2.568   4.469   5.608 -0.0777 -0.1256  0.1980
 4551SOL    HW217976   2.576   4.479   5.702 -1.2916 -1.3672  0.4673
 4551SOL    HW317977   2.505   4.397   5.596  0.5968 -0.4902 -1.5496
 4551SOL    MW417978   2.561   4.461   5.619 -0.1489 -0.3375  0.0029
 4552SOL     OW17979   2.271   4.588   5.061 -0.2443  0.1883 -0.2066
 4552SOL    HW217980   2.312   4.547   4.985  0.1673 -0.2393  0.2401
 4552SOL    HW317981   2.337   4.648   5.095 -0.4612  0.4475 -0.2327
 4552SOL    MW417982   2.285   4.591   5.056 -0.2186  0.1661 -0.1511
 4553SOL     OW17983   4.131   0.535   5.435  0.2429  0.3057 -0.0563
 4553SOL    HW217984   4.075   0.599   5.391  0.8442 -0.0354 -1.3474
 4553SOL    HW317985   4.071   0.465   5.461 -0.2374  0.8649  0.3574
 4553SOL    MW417986   4.115   0.534   5.433  0.2589  0.3345 -0.1720
 4554SOL     OW17987   3.152   5.696   0.027  0.0589  0.1327 -0.3185
 4554SOL    HW217988   3.086   5.665  -0.035 -0.4159  2.4290 -1.0474
 4554SOL    HW317989   3.123   5.783   0.052  1.3736  0.0984  1.5382
 4554SOL    MW417990   3.140   5.703   0.022  0.1697  0.4312 -0.1697
 4555SOL     OW17991   0.845   1.812   1.561 -0.4529 -0.2461  0.1621
 4555SOL    HW217992   0.910   1.808   1.491  1.0789  0.6883  1.4416
 4555SOL    HW317993   0.769   1.856   1.522 -0.2442 -1.1375 -1.3087
 4555SOL    MW417994   0.844   1.817   1.547 -0.2233 -0.2404  0.1368
 4556SOL     OW17995   0.162   2.083   2.068 -0.1800  0.5706 -0.1696
 4556SOL    HW217996   0.158   2.152   2.002 -2.6064 -1.0440 -1.8786
 4556SOL    HW317997   0.096   2.106   2.133 -0.3818  0.3024 -0.2768
 4556SOL    MW417998   0.153   2.095   2.068 -0.5268  0.3222 -0.4092
 4557SOL     OW17999   1.030   2.145   3.416  0.1380 -0.3767  0.1356
 4557SOL    HW218000   1.116   2.180   3.391 -0.1036 -1.0603 -1.8752
 4557SOL    HW318001   0.970   2.219   3.407  0.4463  0.0091  1.1804
 4557SOL    MW418002   1.034   2.159   3.411  0.1468 -0.4160  0.0081
 4558SOL     OW18003   2.172   3.591   3.706 -0.6473  0.3015  0.6198
 4558SOL    HW218004   2.097   3.642   3.739 -0.7603  1.1324 -0.8448
 4558SOL    HW318005   2.158   3.587   3.611  1.4061  0.8819  0.2596
 4558SOL    MW418006   2.160   3.597   3.698 -0.3913  0.4877  0.3790
 4559SOL     OW18007   1.472   3.667   0.803  0.1311  0.4946 -0.1708
 4559SOL    HW218008   1.394   3.661   0.857  0.9428  0.8204  1.0993
 4559SOL    HW318009   1.544   3.675   0.866  1.0282  1.9648 -1.3020
 4559SOL    MW418010   1.471   3.668   0.818  0.3566  0.7315 -0.1525
 4560SOL     OW18011   3.141   0.121   1.331 -0.3939 -0.2766 -0.1421
 4560SOL    HW218012   3.161   0.128   1.238 -1.7538 -1.9672 -0.6085
 4560SOL    HW318013   3.097   0.037   1.340 -1.7123  0.5552  1.7872
 4560SOL    MW418014   3.138   0.111   1.320 -0.7473 -0.3899  0.0509
 4561SOL     OW18015   2.377   3.797   5.689 -0.0214  0.0873  0.0073
 4561SOL    HW218016   2.349   3.823   5.776 -0.8567  1.1165 -0.5426
 4561SOL    HW318017   2.461   3.841   5.676  1.2361 -1.8177  1.0863
 4561SOL    MW418018   2.385   3.806   5.699  0.0343 -0.0282  0.0771
 4562SOL     OW18019   5.814   2.829   0.944 -0.2608  0.1641  0.0664
 4562SOL    HW218020   5.787   2.777   1.020 -0.2404 -0.2789 -0.2312
 4562SOL    HW318021   5.732   2.847   0.898 -0.1370 -0.5995 -0.4647
 4562SOL    MW418022   5.800   2.825   0.948 -0.2417  0.0049 -0.0430
 4563SOL     OW18023   4.735   6.389   0.910  0.7247 -0.0836 -0.2844
 4563SOL    HW218024   4.647   6.377   0.875  0.4717 -3.2218  1.1008
 4563SOL    HW318025   4.724   6.452   0.981 -0.7737 -1.6197  0.9159
 4563SOL    MW418026   4.722   6.396   0.915  0.4936 -0.7003  0.0567
 4564SOL     OW18027   4.572   5.327   3.324  0.2614  0.2881  0.3240
 4564SOL    HW218028   4.513   5.270   3.372 -0.4672  0.6959 -0.0504
 4564SOL    HW318029   4.574   5.291   3.235  1.6422 -0.4961  0.6448
 4564SOL    MW418030   4.564   5.315   3.319  0.3474  0.2385  0.3169
 4565SOL     OW18031   5.223   3.737   2.520  0.6858 -0.4017 -0.4847
 4565SOL    HW218032   5.316   3.715   2.528  0.4984 -0.7413  1.0368
 4565SOL    HW318033   5.177   3.658   2.547 -0.0289  0.5570  1.2389
 4565SOL    MW418034   5.229   3.724   2.524  0.5668 -0.3200 -0.0566
 4566SOL     OW18035   4.578   0.605   4.015 -0.2199  0.4197 -0.1341
 4566SOL    HW218036   4.520   0.588   3.941  1.0371 -2.2260 -0.6543
 4566SOL    HW318037   4.648   0.659   3.978 -0.6261  0.8196 -0.3380
 4566SOL    MW418038   4.580   0.610   4.000 -0.1076  0.1234 -0.2297
 4567SOL     OW18039   3.663   6.309   4.202  0.4342  0.5070  0.3970
 4567SOL    HW218040   3.750   6.339   4.177  0.8159  0.2993  1.4396
 4567SOL    HW318041   3.653   6.225   4.158  1.0063  0.2476  0.7577
 4567SOL    MW418042   3.673   6.302   4.193  0.5601  0.4454  0.5822
 4568SOL     OW18043   1.320   0.964   1.389 -0.1713 -0.4447 -0.1499
 4568SOL    HW218044   1.268   1.042   1.407  1.0272  0.6185 -1.1114
 4568SOL    HW318045   1.356   0.978   1.302  1.2453 -1.3986  0.2388
 4568SOL    MW418046   1.318   0.976   1.380  0.1737 -0.4303 -0.2255
 4569SOL     OW18047   6.048   0.137   6.403 -0.6913 -0.5204 -0.0732
 4569SOL    HW218048   6.027   0.229   6.416 -1.5572 -0.6354 -0.5704
 4569SOL    HW318049   6.117   0.119   6.467  2.7880  1.5754 -2.9233
 4569SOL    MW418050   6.054   0.147   6.413 -0.3465 -0.2591 -0.5148
 4570SOL     OW18051   4.962   2.485   3.727  0.0972 -0.3664  0.5833
 4570SOL    HW218052   4.947   2.392   3.743 -0.5274 -0.3898 -0.0998
 4570SOL    HW318053   4.896   2.529   3.780  1.1211 -0.2495  1.8126
 4570SOL    MW418054   4.951   2.479   3.736  0.1499 -0.3541  0.6553
 4571SOL     OW18055   4.207   6.104   1.583 -0.0718  0.2386  0.1268
 4571SOL    HW218056   4.212   6.109   1.488  1.5202  2.5104  0.2474
 4571SOL    HW318057   4.276   6.042   1.607  0.2369  0.4731 -0.1505
 4571SOL    MW418058   4.217   6.097   1.574  0.1790  0.5693  0.1062
 4572SOL     OW18059   4.271   1.777   5.914  0.0714  0.3245  0.1357
 4572SOL    HW218060   4.349   1.726   5.896  0.5790  0.8474  0.8192
 4572SOL    HW318061   4.297   1.868   5.900 -0.8410  0.4222 -1.1475
 4572SOL    MW418062   4.284   1.783   5.910  0.0180  0.4064  0.0566
 4573SOL     OW18063   5.288   5.953   5.950  0.7074 -0.2185  0.1323
 4573SOL    HW218064   5.236   6.011   5.894  1.2629  0.3177  0.1581
 4573SOL    HW318065   5.379   5.977   5.930  1.0063 -1.9750 -0.8325
 4573SOL    MW418066   5.294   5.964   5.940  0.8201 -0.3795  0.0084
 4574SOL     OW18067   1.180   4.682   4.251 -0.1463  0.3923  0.2684
 4574SOL    HW218068   1.186   4.589   4.228  0.0850  0.1845  1.1283
 4574SOL    HW318069   1.168   4.682   4.346 -0.1792  1.2441  0.2685
 4574SOL    MW418070   1.179   4.670   4.261 -0.1201  0.4772  0.3819
 4575SOL     OW18071   0.531   6.283   1.531 -0.4339  0.3740 -0.1358
 4575SOL    HW218072   0.610   6.321   1.492 -1.0972 -0.0109 -1.9475
 4575SOL    HW318073   0.561   6.206   1.578  0.0782 -0.9440 -2.5029
 4575SOL    MW418074   0.545   6.278   1.532 -0.4538  0.1493 -0.6871
 4576SOL     OW18075   4.698   2.037   5.312 -0.1513  0.0053  0.5387
 4576SOL    HW218076   4.740   2.123   5.310  0.0311 -0.0246 -3.0263
 4576SOL    HW318077   4.770   1.975   5.321 -0.2878  0.1320  3.1747
 4576SOL    MW418078   4.713   2.040   5.313 -0.1453  0.0181  0.4161
 4577SOL     OW18079   3.328   5.898   2.882 -0.0535  0.0506  0.4457
 4577SOL    HW218080   3.282   5.815   2.868 -0.4226  0.2170  0.6579
 4577SOL    HW318081   3.405   5.892   2.825 -0.6507  0.0133 -0.3779
 4577SOL    MW418082   3.332   5.886   2.873 -0.1810  0.0676  0.3651
 4578SOL     OW18083   4.296   0.481   4.485  0.2740  0.6677 -0.1343
 4578SOL    HW218084   4.282   0.498   4.392  0.4503  1.8618  0.0410
 4578SOL    HW318085   4.272   0.563   4.528 -0.9483 -0.2442  0.9942
 4578SOL    MW418086   4.291   0.494   4.478  0.1360  0.7049  0.0377
 4579SOL     OW18087   0.287   2.075   0.498 -0.0622 -0.1924  0.3753
 4579SOL    HW218088   0.291   2.168   0.479  1.1889 -0.3432 -0.1808
 4579SOL    HW318089   0.222   2.040   0.436 -1.7274  0.5161  1.6345
 4579SOL    MW418090   0.279   2.082   0.488 -0.1168 -0.1188  0.4681
 4580SOL     OW18091   6.158   1.457   5.040  0.5948  0.3911  0.0529
 4580SOL    HW218092   6.194   1.538   5.074 -1.1263  0.4904  1.7702
 4580SOL    HW318093   6.201   1.388   5.091  0.4380  0.3458  0.1235
 4580SOL    MW418094   6.169   1.458   5.051  0.3471  0.3982  0.2888
 4581SOL     OW18095   4.971   0.059   1.260 -0.6510 -0.1515 -0.1201
 4581SOL    HW218096   4.987   0.126   1.327 -0.7094  0.7453 -0.9744
 4581SOL    HW318097   4.953  -0.021   1.309  1.6525 -0.0833  0.9263
 4581SOL    MW418098   4.970   0.057   1.275 -0.3548 -0.0242 -0.0947
 4582SOL     OW18099   1.631   3.283   2.087  0.5374 -0.3633 -0.0764
 4582SOL    HW218100   1.710   3.267   2.035  0.4937  1.0248 -0.6246
 4582SOL    HW318101   1.565   3.310   2.024 -0.0782 -0.5120  0.4911
 4582SOL    MW418102   1.633   3.285   2.072  0.4504 -0.1997 -0.0739
 4583SOL     OW18103   4.426   4.378   6.373 -0.3551 -0.4704 -0.4664
 4583SOL    HW218104   4.520   4.380   6.354 -0.5486 -0.5961 -1.5381
 4583SOL    HW318105   4.391   4.314   6.311 -1.2797  0.2668 -0.7293
 4583SOL    MW418106   4.434   4.370   6.362 -0.5026 -0.3898 -0.6425
 4584SOL     OW18107   5.696   3.095   1.631 -0.5202  0.7330 -0.0806
 4584SOL    HW218108   5.780   3.054   1.611 -1.5748 -1.2479 -0.7184
 4584SOL    HW318109   5.682   3.158   1.559 -1.1042 -1.4133 -1.9768
 4584SOL    MW418110   5.705   3.098   1.619 -0.7364  0.1885 -0.4149
 4585SOL     OW18111   2.410   3.391   5.638  0.0044 -0.1372 -0.1824
 4585SOL    HW218112   2.502   3.416   5.646  0.1659 -0.3986 -1.0973
 4585SOL    HW318113   2.363   3.456   5.691  0.8865 -1.4603  2.4058
 4585SOL    MW418114   2.416   3.403   5.646  0.1421 -0.3462  0.0383
 4586SOL     OW18115   1.944   4.135   2.309 -0.2809  0.2430 -0.1152
 4586SOL    HW218116   1.960   4.127   2.215  0.3409  1.1391 -0.0901
 4586SOL    HW318117   1.849   4.136   2.317 -0.3622 -1.0047 -0.6245
 4586SOL    MW418118   1.934   4.134   2.298 -0.2096  0.1966 -0.1791
 4587SOL     OW18119   3.737   5.446   5.160  0.0825 -0.3065 -0.1406
 4587SOL    HW218120   3.796   5.382   5.198  0.9695  0.7970  0.4099
 4587SOL    HW318121   3.753   5.526   5.209 -1.4494  0.1930 -0.3784
 4587SOL    MW418122   3.747   5.448   5.171 -0.0026 -0.0950 -0.0994
 4588SOL     OW18123   0.138   6.397   1.263  0.0476  0.2155 -0.5116
 4588SOL    HW218124   0.091   6.327   1.218  0.7686 -1.2687  0.9059
 4588SOL    HW318125   0.071   6.443   1.314 -0.3693  0.3028 -1.1357
 4588SOL    MW418126   0.123   6.394   1.264  0.0877  0.0312 -0.4069
 4589SOL     OW18127   2.577   2.757   0.870 -0.0623  0.2651 -0.2565
 4589SOL    HW218128   2.574   2.673   0.915 -1.7034 -0.2695 -1.2745
 4589SOL    HW318129   2.605   2.737   0.781 -1.4289  0.6114 -0.7951
 4589SOL    MW418130   2.580   2.744   0.864 -0.4591  0.2403 -0.4618
 4590SOL     OW18131   5.035   3.759   0.908 -0.0207 -0.0357 -0.2588
 4590SOL    HW218132   4.979   3.796   0.976 -0.4281  0.1907 -0.7136
 4590SOL    HW318133   5.121   3.798   0.924 -0.4035  0.9850 -0.6277
 4590SOL    MW418134   5.039   3.769   0.919 -0.1250  0.1288 -0.3675
 4591SOL     OW18135   3.319   1.363   5.885  0.3329  0.1114 -0.9042
 4591SOL    HW218136   3.371   1.402   5.954  0.7397 -1.0930 -0.4977
 4591SOL    HW318137   3.277   1.287   5.926  0.2403 -0.3699 -1.8506
 4591SOL    MW418138   3.320   1.358   5.899  0.3743 -0.1110 -0.9754
 4592SOL     OW18139   2.193   3.813   2.304  0.0189 -0.3444  0.1533
 4592SOL    HW218140   2.140   3.735   2.318 -1.2821  0.5284  0.3471
 4592SOL    HW318141   2.142   3.884   2.346  0.0369  0.9729 -1.9281
 4592SOL    MW418142   2.179   3.812   2.312 -0.1504 -0.0555 -0.0957
 4593SOL     OW18143   3.400   3.448   2.494  0.0104  0.3877  0.1238
 4593SOL    HW218144   3.488   3.473   2.466  0.3127  0.2238  0.8977
 4593SOL    HW318145   3.415   3.378   2.559 -0.6691  0.6155  0.5319
 4593SOL    MW418146   3.414   3.442   2.499 -0.0393  0.3962  0.2797
 4594SOL     OW18147   5.267   2.058   0.969 -0.2495  0.2214  0.5002
 4594SOL    HW218148   5.203   2.031   0.903 -1.8897  2.3012  1.1465
 4594SOL    HW318149   5.325   2.119   0.922 -0.3738  0.3957  0.5743
 4594SOL    MW418150   5.266   2.062   0.954 -0.4823  0.5188  0.5952
 4595SOL     OW18151   5.343   6.158   1.921  0.1442  0.3270 -0.0618
 4595SOL    HW218152   5.359   6.184   1.831  1.2618 -0.1833 -0.0289
 4595SOL    HW318153   5.300   6.233   1.962  1.0389  1.1382 -0.6124
 4595SOL    MW418154   5.339   6.171   1.915  0.4097  0.3667 -0.1301
 4596SOL     OW18155   2.027   2.792   3.036  0.4021  0.1124  0.1702
 4596SOL    HW218156   2.064   2.814   2.950 -0.4979 -0.8723 -0.4927
 4596SOL    HW318157   2.100   2.804   3.097  0.2679  3.9697 -0.1820
 4596SOL    MW418158   2.042   2.797   3.033  0.2656  0.4914  0.0363
 4597SOL     OW18159   4.583   5.002   1.378 -0.1010 -0.0045 -0.0687
 4597SOL    HW218160   4.525   4.937   1.418 -2.4456  0.6065 -2.2263
 4597SOL    HW318161   4.647   4.950   1.329  0.8523 -0.6778  1.7813
 4597SOL    MW418162   4.584   4.986   1.377 -0.2846 -0.0128 -0.1093
 4598SOL     OW18163   4.762   6.118   0.969 -0.0764  0.1403 -0.6669
 4598SOL    HW218164   4.759   6.208   0.936 -1.9235  1.3736  2.4882
 4598SOL    HW318165   4.789   6.126   1.060 -0.6961 -2.4709 -0.1735
 4598SOL    MW418166   4.765   6.131   0.976 -0.4018 -0.0415 -0.1855
 4599SOL     OW18167   1.901   2.810   4.519 -0.7693  0.0342  0.4234
 4599SOL    HW218168   1.889   2.739   4.582 -1.8399 -2.0071 -1.8865
 4599SOL    HW318169   1.976   2.782   4.465 -2.1092 -0.1541 -1.4485
 4599SOL    MW418170   1.910   2.797   4.520 -1.0874 -0.2599 -0.1283
 4600SOL     OW18171   1.086   5.870   1.156  0.2183 -0.1763  0.5409
 4600SOL    HW218172   1.065   5.805   1.223 -1.7217 -0.2884 -0.1362
 4600SOL    HW318173   1.058   5.953   1.194 -0.7534 -0.2229 -0.0580
 4600SOL    MW418174   1.080   5.872   1.170 -0.1658 -0.1972  0.3725
 4601SOL     OW18175   5.962   5.851   1.193  0.2753 -0.2478 -0.8237
 4601SOL    HW218176   6.035   5.897   1.234 -0.2787  2.2262 -2.4411
 4601SOL    HW318177   5.892   5.852   1.259  1.2297 -1.4907  0.2482
 4601SOL    MW418178   5.962   5.857   1.207  0.3281 -0.0854 -0.8957
 4602SOL     OW18179   2.035   3.252   5.097 -0.0805 -0.0510 -0.1800
 4602SOL    HW218180   2.126   3.225   5.081  0.0976 -0.0638  0.7926
 4602SOL    HW318181   2.043   3.337   5.139 -0.5220 -0.0879 -0.0246
 4602SOL    MW418182   2.048   3.259   5.100 -0.1153 -0.0575 -0.0312
 4603SOL     OW18183   2.976   0.519   3.406  0.4672  0.2627  0.2336
 4603SOL    HW218184   2.903   0.489   3.354  0.6236  0.0795  0.1202
 4603SOL    HW318185   3.039   0.553   3.343  0.0001  1.4812  0.3947
 4603SOL    MW418186   2.975   0.520   3.391  0.4262  0.3993  0.2399
 4604SOL     OW18187   3.955   0.965   1.910 -0.3014  0.9269 -0.2988
 4604SOL    HW218188   3.926   1.036   1.853  1.8179  0.6806 -1.7698
 4604SOL    HW318189   4.033   1.000   1.954  0.6048 -0.3610 -0.8360
 4604SOL    MW418190   3.961   0.979   1.909  0.0978  0.7244 -0.5638
 4605SOL     OW18191   4.622   5.271   1.080  0.1600  0.6330  0.2501
 4605SOL    HW218192   4.695   5.241   1.133 -0.0875 -0.5881 -0.0747
 4605SOL    HW318193   4.653   5.264   0.990  0.4505  2.3461  0.1865
 4605SOL    MW418194   4.635   5.266   1.075  0.1656  0.6979  0.1988
 4606SOL     OW18195   3.791   4.957   2.339 -0.0355  0.0450 -0.3362
 4606SOL    HW218196   3.784   5.022   2.269 -0.5319 -1.8381 -2.1365
 4606SOL    HW318197   3.811   4.875   2.294 -0.5541 -1.2869  1.7159
 4606SOL    MW418198   3.792   4.955   2.324 -0.1694 -0.3792 -0.3030
 4607SOL     OW18199   4.902   2.684   0.305  0.3642  0.3113 -0.0850
 4607SOL    HW218200   4.885   2.618   0.238  0.2810  0.4199 -0.1703
 4607SOL    HW318201   4.912   2.766   0.256  0.1302  0.4214  0.0500
 4607SOL    MW418202   4.901   2.686   0.289  0.3224  0.3401 -0.0784
 4608SOL     OW18203   5.462   1.695   5.504  0.2299  0.6226  0.1520
 4608SOL    HW218204   5.462   1.790   5.516 -0.9648  0.5403  0.9758
 4608SOL    HW318205   5.527   1.663   5.566 -0.2916  0.8098  0.8037
 4608SOL    MW418206   5.471   1.703   5.514  0.0034  0.6365  0.3467
 4609SOL     OW18207   1.940   2.683   0.078  0.5651 -0.1869 -0.5439
 4609SOL    HW218208   1.943   2.587   0.078  1.0654 -0.1750 -0.2737
 4609SOL    HW318209   1.996   2.709   0.005  2.5925 -0.0639  0.9707
 4609SOL    MW418210   1.948   2.674   0.068  0.8986 -0.1691 -0.3084
 4610SOL     OW18211   5.848   6.425   4.675  0.3131  0.3192 -0.2782
 4610SOL    HW218212   5.783   6.407   4.742  2.3355 -1.5319  1.3509
 4610SOL    HW318213   5.831   6.515   4.647 -0.7281  1.1065  2.6141
 4610SOL    MW418214   5.837   6.434   4.680  0.4426  0.1788  0.3183
 4611SOL     OW18215   3.640   3.514   3.575 -0.2464  0.7432  0.3321
 4611SOL    HW218216   3.598   3.591   3.537  1.5735  0.3119 -2.9307
 4611SOL    HW318217   3.711   3.549   3.628 -1.4184  1.2963  1.6286
 4611SOL    MW418218   3.643   3.529   3.577 -0.1609  0.7592  0.0727
 4612SOL     OW18219   5.614   4.216   1.851  0.1585 -0.1801 -0.1007
 4612SOL    HW218220   5.616   4.121   1.834 -0.0999 -0.4724  1.3752
 4612SOL    HW318221   5.706   4.242   1.849  0.2841 -0.5871  0.1416
 4612SOL    MW418222   5.626   4.207   1.848  0.1409 -0.2723  0.1260
 4613SOL     OW18223   5.701   0.716   0.677 -0.1303 -0.0129 -0.5957
 4613SOL    HW218224   5.684   0.679   0.763 -2.1447  1.0610 -0.4733
 4613SOL    HW318225   5.670   0.806   0.683 -1.4384 -0.2567 -2.7709
 4613SOL    MW418226   5.695   0.723   0.689 -0.5686  0.0966 -0.8665
 4614SOL     OW18227   2.140   6.311   1.717 -0.9567  0.0607 -0.1879
 4614SOL    HW218228   2.070   6.249   1.696  0.0344 -1.3199  0.3887
 4614SOL    HW318229   2.139   6.373   1.645 -0.0878 -2.3658 -2.4672
 4614SOL    MW418230   2.131   6.311   1.705 -0.7113 -0.4416 -0.4126
 4615SOL     OW18231   1.963   1.933   6.337  0.4071 -0.4053 -0.0718
 4615SOL    HW218232   1.904   1.887   6.277  0.3588 -0.5199  0.0627
 4615SOL    HW318233   2.006   1.863   6.387  2.8821 -0.5328 -2.1679
 4615SOL    MW418234   1.961   1.917   6.336  0.7273 -0.4372 -0.3306
 4616SOL     OW18235   2.724   5.974   3.789  0.4704  0.3836  0.2396
 4616SOL    HW218236   2.706   5.882   3.807 -2.3530  0.4425 -1.5936
 4616SOL    HW318237   2.742   5.977   3.695 -0.0485  1.7367  0.1483
 4616SOL    MW418238   2.724   5.962   3.779  0.0294  0.5699 -0.0143
 4617SOL     OW18239   0.090   0.534   0.325  0.0119 -0.0168 -0.3700
 4617SOL    HW218240   0.122   0.599   0.262 -0.5014  0.4225 -0.1753
 4617SOL    HW318241   0.060   0.585   0.400 -2.3763 -0.3074 -1.0563
 4617SOL    MW418242   0.091   0.549   0.327 -0.3710  0.0028 -0.4349
 4618SOL     OW18243   2.808   1.030   5.231 -0.4233  0.4249  0.1144
 4618SOL    HW218244   2.790   1.087   5.156  1.8961  1.2706  0.0933
 4618SOL    HW318245   2.732   1.040   5.288 -1.8309  0.4652 -1.6811
 4618SOL    MW418246   2.796   1.039   5.229 -0.3030  0.5418 -0.1253
 4619SOL     OW18247   4.357   3.867   1.215  0.2607  0.2536  0.6257
 4619SOL    HW218248   4.327   3.781   1.184  1.4279  0.5985 -1.6832
 4619SOL    HW318249   4.329   3.870   1.306  0.6439 -2.8200  0.9741
 4619SOL    MW418250   4.350   3.856   1.223  0.4652 -0.1064  0.3671
 4620SOL     OW18251   2.900   4.359   4.261  0.1607 -0.1465  0.3557
 4620SOL    HW218252   2.937   4.417   4.328  0.0214  1.8444 -1.2214
 4620SOL    HW318253   2.810   4.343   4.291  0.4114 -0.1279  1.1526
 4620SOL    MW418254   2.893   4.364   4.274  0.1754  0.1186  0.2528
 4621SOL     OW18255   3.193   4.078   1.424  0.6929 -0.1236 -0.0353
 4621SOL    HW218256   3.146   4.150   1.466 -1.4299 -0.1438 -2.1385
 4621SOL    HW318257   3.272   4.067   1.476  0.2786  2.6056  1.3517
 4621SOL    MW418258   3.197   4.086   1.436  0.3582  0.2338 -0.1298
 4622SOL     OW18259   2.892   2.091   4.304  0.2463  0.2915 -0.1650
 4622SOL    HW218260   2.937   2.097   4.220 -1.0829  0.1536 -0.9116
 4622SOL    HW318261   2.960   2.112   4.369  1.7145 -1.1872 -1.1332
 4622SOL    MW418262   2.907   2.095   4.302  0.2646  0.0782 -0.3913
 4623SOL     OW18263   0.408   0.434   4.502 -0.1223 -0.6182 -0.4840
 4623SOL    HW218264   0.487   0.394   4.539 -0.5788 -1.2449 -0.1907
 4623SOL    HW318265   0.414   0.415   4.408  0.2374 -0.3810 -0.5128
 4623SOL    MW418266   0.420   0.426   4.495 -0.1350 -0.6696 -0.4491
 4624SOL     OW18267   5.909   4.519   1.895  0.4775 -0.3185  0.1037
 4624SOL    HW218268   6.001   4.529   1.917  0.5006  3.1474 -0.9959
 4624SOL    HW318269   5.886   4.601   1.850 -2.7071 -1.7695 -1.1984
 4624SOL    MW418270   5.918   4.531   1.892  0.0604 -0.0527 -0.2132
 4625SOL     OW18271   3.417   2.792   3.081 -0.1944  0.9038  0.2295
 4625SOL    HW218272   3.414   2.879   3.122  0.7022  0.2664  1.7170
 4625SOL    HW318273   3.386   2.733   3.149  3.2775 -0.4552  0.8201
 4625SOL    MW418274   3.412   2.796   3.095  0.3820  0.6404  0.5037
 4626SOL     OW18275   3.239   4.502   2.200 -0.4563 -0.4574 -0.3201
 4626SOL    HW218276   3.150   4.511   2.235 -0.1268  0.7170  0.2653
 4626SOL    HW318277   3.271   4.592   2.193  1.4318 -0.9181  1.4193
 4626SOL    MW418278   3.232   4.515   2.204 -0.1637 -0.3632 -0.0134
 4627SOL     OW18279   1.543   5.251   3.377  0.1265  0.0210 -0.1141
 4627SOL    HW218280   1.466   5.306   3.363  0.0058 -0.1552 -0.1437
 4627SOL    HW318281   1.606   5.310   3.419 -0.3050 -0.0302  0.6441
 4627SOL    MW418282   1.541   5.266   3.381  0.0536 -0.0090 -0.0180
 4628SOL     OW18283   6.024   1.028   1.134  0.3605  0.4099 -0.0262
 4628SOL    HW218284   6.094   1.092   1.147  0.3504  0.2340  1.0128
 4628SOL    HW318285   6.049   0.953   1.189 -0.7396  0.4467  0.5668
 4628SOL    MW418286   6.036   1.027   1.143  0.2140  0.3916  0.1892
 4629SOL     OW18287   3.101   0.952   5.274  0.3422  1.1800 -0.0194
 4629SOL    HW218288   3.106   0.905   5.357 -0.1004 -1.1866 -1.2512
 4629SOL    HW318289   3.007   0.969   5.263  0.2821  0.5460 -0.5130
 4629SOL    MW418290   3.089   0.948   5.284  0.2759  0.7841 -0.2471
 4630SOL     OW18291   6.243   3.907   4.802  0.4519 -0.6324 -0.2720
 4630SOL    HW218292   6.205   3.917   4.715 -0.1713  0.4397  0.1073
 4630SOL    HW318293   6.297   3.828   4.795 -1.4302 -1.9498 -0.9735
 4630SOL    MW418294   6.245   3.898   4.789  0.1213 -0.6648 -0.3145
 4631SOL     OW18295   2.737   5.494   2.033  0.3264 -0.2376  0.6076
 4631SOL    HW218296   2.665   5.436   2.058 -0.4243 -0.0424 -0.9321
 4631SOL    HW318297   2.814   5.439   2.032  0.0304 -0.6779  1.3479
 4631SOL    MW418298   2.737   5.479   2.036  0.1883 -0.2699  0.5021
 4632SOL     OW18299   2.820   5.784   0.198 -0.0750  0.1082  0.0520
 4632SOL    HW218300   2.865   5.700   0.197 -1.9757 -0.9790 -0.7682
 4632SOL    HW318301   2.888   5.849   0.178  1.4658 -1.1896  0.9078
 4632SOL    MW418302   2.835   5.782   0.195 -0.1225 -0.2065  0.0567
 4633SOL     OW18303   1.722   1.339   3.204  0.0195  0.0086 -0.2052
 4633SOL    HW218304   1.645   1.283   3.195  1.0764 -1.3941 -0.7038
 4633SOL    HW318305   1.771   1.302   3.277  0.4784  0.5900 -0.2095
 4633SOL    MW418306   1.718   1.327   3.212  0.2195 -0.0997 -0.2715
 4634SOL     OW18307   3.626   0.484   1.623 -0.5733 -0.2396  0.1131
 4634SOL    HW218308   3.718   0.509   1.618 -0.4901 -0.5509  0.0569
 4634SOL    HW318309   3.583   0.537   1.555 -0.2545 -0.8802 -0.6044
 4634SOL    MW418310   3.633   0.494   1.613 -0.5203 -0.3652  0.0110
 4635SOL     OW18311   5.160   3.592   3.862  0.2539  0.5644  0.0155
 4635SOL    HW218312   5.246   3.554   3.882  1.3071  2.1935 -1.1672
 4635SOL    HW318313   5.171   3.631   3.775 -2.0141 -0.0687 -0.6297
 4635SOL    MW418314   5.173   3.592   3.853  0.0937  0.6958 -0.2257
 4636SOL     OW18315   2.960   2.919   1.443 -0.3265 -0.5688 -0.0002
 4636SOL    HW218316   2.893   2.880   1.500 -0.7562 -1.3361 -1.0053
 4636SOL    HW318317   2.997   2.990   1.496 -0.6710 -1.2885  1.2638
 4636SOL    MW418318   2.956   2.923   1.458 -0.4287 -0.7650  0.0340
 4637SOL     OW18319   1.552   2.808   5.031  0.8132 -0.3950 -0.2924
 4637SOL    HW218320   1.630   2.754   5.019  1.1793  0.1507 -0.3850
 4637SOL    HW318321   1.583   2.898   5.025  0.3418 -0.1532  0.6456
 4637SOL    MW418322   1.566   2.813   5.029  0.7993 -0.2911 -0.1808
 4638SOL     OW18323   6.281   2.501   4.083 -0.6015 -0.3120  0.1074
 4638SOL    HW218324   6.199   2.454   4.098 -0.6720 -1.2715 -2.7291
 4638SOL    HW318325   6.256   2.575   4.028  0.2138  0.4227  0.7011
 4638SOL    MW418326   6.267   2.505   4.078 -0.5033 -0.3417 -0.1885
 4639SOL     OW18327   4.851   1.685   4.096  0.4060 -0.4512 -0.5573
 4639SOL    HW218328   4.780   1.743   4.125 -0.1805 -1.3072 -0.2573
 4639SOL    HW318329   4.907   1.676   4.174 -0.2210 -1.3445 -0.2034
 4639SOL    MW418330   4.849   1.692   4.110  0.2459 -0.6820 -0.4710
 4640SOL     OW18331   5.715   2.728   2.854  0.3150  0.4328 -0.3846
 4640SOL    HW218332   5.773   2.768   2.790 -0.7212 -0.5360 -1.9859
 4640SOL    HW318333   5.645   2.791   2.868  0.5499  0.6499 -0.1663
 4640SOL    MW418334   5.714   2.741   2.848  0.2093  0.3336 -0.5671
 4641SOL     OW18335   6.145   5.536   1.743 -0.1096  0.6314 -0.5856
 4641SOL    HW218336   6.077   5.503   1.801  0.0312  0.6042 -0.4331
 4641SOL    HW318337   6.108   5.528   1.655  0.5847 -1.6577 -0.7445
 4641SOL    MW418338   6.131   5.531   1.739  0.0006  0.3258 -0.5864
 4642SOL     OW18339   3.229   4.283   6.119  0.6705  0.2639 -0.2831
 4642SOL    HW218340   3.272   4.360   6.082  1.0224 -0.0618 -0.5631
 4642SOL    HW318341   3.165   4.257   6.053  3.1952 -1.9990 -2.0766
 4642SOL    MW418342   3.226   4.290   6.105  1.0500 -0.0776 -0.5567
 4643SOL     OW18343   4.671   3.483   5.815  0.4210 -0.1004  0.0617
 4643SOL    HW218344   4.633   3.566   5.786 -0.5810 -0.7193 -0.4452
 4643SOL    HW318345   4.642   3.473   5.906 -0.6277 -0.5522 -0.3118
 4643SOL    MW418346   4.662   3.493   5.823  0.1504 -0.2416 -0.0545
 4644SOL     OW18347   4.939   0.026   5.696  0.4332 -0.8066  0.0450
 4644SOL    HW218348   4.915   0.021   5.788 -0.2827 -2.4776 -0.2045
 4644SOL    HW318349   4.926   0.118   5.673 -1.5917 -0.7868  1.0406
 4644SOL    MW418350   4.934   0.038   5.705  0.0716 -1.0245  0.1434
 4645SOL     OW18351   0.062   6.368   2.119 -0.3356  0.5780 -0.7489
 4645SOL    HW218352   0.075   6.376   2.214  0.4456 -0.8298 -0.7096
 4645SOL    HW318353   0.145   6.334   2.087 -1.3048 -1.0660 -1.6280
 4645SOL    MW418354   0.075   6.364   2.128 -0.3604  0.1753 -0.8597
 4646SOL     OW18355   2.334   4.419   0.060  0.4524  0.2423 -0.1788
 4646SOL    HW218356   2.341   4.326   0.083 -1.4937 -0.1732 -1.0192
 4646SOL    HW318357   2.299   4.461   0.139 -1.5841 -0.3350 -0.6934
 4646SOL    MW418358   2.330   4.412   0.073 -0.0731  0.1113 -0.3575
 4647SOL     OW18359   1.313   3.380   2.446  0.0228 -0.6232 -0.1420
 4647SOL    HW218360   1.335   3.301   2.396  1.0937 -0.5567  0.1965
 4647SOL    HW318361   1.242   3.353   2.503  0.5603 -1.4384  0.1665
 4647SOL    MW418362   1.307   3.366   2.447  0.2350 -0.7220 -0.0566
 4648SOL     OW18363   2.209   0.554   5.470  0.3611  0.0431  0.1062
 4648SOL    HW218364   2.296   0.517   5.486  0.5758 -0.8665 -2.5681
 4648SOL    HW318365   2.157   0.528   5.545  1.7655 -1.6224  0.5589
 4648SOL    MW418366   2.214   0.546   5.482  0.5747 -0.2966 -0.1869
 4649SOL     OW18367   4.013   0.347   4.901  0.1946 -0.2807  0.2788
 4649SOL    HW218368   3.951   0.278   4.923  0.2496 -0.5869 -0.4916
 4649SOL    HW318369   4.029   0.335   4.807 -1.6542  2.2384 -0.4825
 4649SOL    MW418370   4.007   0.336   4.891 -0.0420  0.0112  0.0767
 4650SOL     OW18371   2.373   1.490   5.086 -0.7031  0.0958  0.3782
 4650SOL    HW218372   2.457   1.473   5.129 -0.3782  0.2674 -0.1775
 4650SOL    HW318373   2.308   1.479   5.156 -0.2029  0.2273  0.8773
 4650SOL    MW418374   2.376   1.486   5.101 -0.5943  0.1358  0.3707
 4651SOL     OW18375   4.365   0.467   1.241 -0.1750  0.2453  0.7817
 4651SOL    HW218376   4.377   0.377   1.272  0.9651 -1.1214 -3.0206
 4651SOL    HW318377   4.272   0.474   1.222 -0.3470  0.0420  1.5272
 4651SOL    MW418378   4.355   0.456   1.242 -0.0473  0.0382  0.3784
 4652SOL     OW18379   6.096   1.435   6.026  0.0365 -0.2597  0.0893
 4652SOL    HW218380   6.022   1.495   6.030  0.1365 -0.1804  0.9360
 4652SOL    HW318381   6.064   1.361   5.975 -0.2442  0.2913 -0.5419
 4652SOL    MW418382   6.082   1.433   6.020  0.0127 -0.1765  0.1177
 4653SOL     OW18383   2.229   2.469   5.490 -0.2752  0.6490 -0.4912
 4653SOL    HW218384   2.280   2.458   5.410 -0.3797 -1.1209 -0.3583
 4653SOL    HW318385   2.235   2.562   5.511  1.6149  0.7371 -1.3108
 4653SOL    MW418386   2.236   2.480   5.482 -0.0396  0.4271 -0.5818
 4654SOL     OW18387   3.918   1.536   1.996  0.2059 -0.3713  0.4031
 4654SOL    HW218388   3.935   1.630   1.994  0.0120 -0.3395 -0.7704
 4654SOL    HW318389   4.004   1.495   1.991  0.2281 -0.2127 -2.3651
 4654SOL    MW418390   3.931   1.543   1.995  0.1832 -0.3462 -0.1170
 4655SOL     OW18391   0.232   1.059   6.361 -0.0181 -0.3462  0.2336
 4655SOL    HW218392   0.299   1.025   6.421 -1.3053  1.2650  2.7409
 4655SOL    HW318393   0.266   1.144   6.332 -0.0697 -0.4615 -0.1774
 4655SOL    MW418394   0.246   1.065   6.365 -0.1947 -0.1489  0.5102
 4656SOL     OW18395   0.904   5.108   5.816 -0.2399  0.2181  0.6865
 4656SOL    HW218396   0.868   5.187   5.776 -0.2589 -1.0768 -2.0316
 4656SOL    HW318397   0.862   5.036   5.769  2.3479 -1.3920  0.6817
 4656SOL    MW418398   0.894   5.109   5.805  0.0990 -0.1652  0.3272
 4657SOL     OW18399   1.441   4.021   5.144  0.2305 -0.4204  0.4189
 4657SOL    HW218400   1.529   4.038   5.110 -0.0919  2.3002  0.6743
 4657SOL    HW318401   1.390   4.097   5.117 -1.8102 -1.4529  1.1304
 4657SOL    MW418402   1.446   4.033   5.136 -0.0813 -0.1977  0.5465
 4658SOL     OW18403   2.218   2.728   4.484  0.1408  0.1990  0.3530
 4658SOL    HW218404   2.309   2.699   4.474  0.1330  0.6387 -1.3554
 4658SOL    HW318405   2.225   2.814   4.526  0.4753 -0.0060  0.7285
 4658SOL    MW418406   2.231   2.736   4.488  0.1839  0.2300  0.1771
 4659SOL     OW18407   4.138   6.029   2.911 -0.8336  0.2159 -0.6435
 4659SOL    HW218408   4.182   5.972   2.974  2.1247  3.1784  0.3363
 4659SOL    HW318409   4.083   6.086   2.965 -0.4807  0.9487 -1.0383
 4659SOL    MW418410   4.137   6.029   2.927 -0.3967  0.7035 -0.5663
 4660SOL     OW18411   3.064   2.170   0.405  0.3521 -0.3502 -0.1693
 4660SOL    HW218412   3.136   2.149   0.345  1.7408 -0.0920  1.3521
 4660SOL    HW318413   3.061   2.096   0.465 -0.7635 -0.4140 -0.2777
 4660SOL    MW418414   3.073   2.157   0.405  0.3882 -0.3246  0.0172
 4661SOL     OW18415   4.488   4.022   5.886  0.0907  0.1892 -0.7748
 4661SOL    HW218416   4.435   3.985   5.816 -0.5042  1.9242 -1.2978
 4661SOL    HW318417   4.527   4.101   5.847 -0.9393  1.6853  1.0425
 4661SOL    MW418418   4.486   4.028   5.871 -0.1237  0.6155 -0.6040
 4662SOL     OW18419   3.679   0.244   3.392 -0.0099  0.2766 -0.2889
 4662SOL    HW218420   3.656   0.326   3.436 -0.0722 -0.4600  1.0861
 4662SOL    HW318421   3.750   0.208   3.444  0.6715 -0.0908 -1.4380
 4662SOL    MW418422   3.685   0.250   3.405  0.0718  0.1309 -0.2591
 4663SOL     OW18423   6.410   2.896   2.827 -0.7010 -0.1637 -0.3669
 4663SOL    HW218424   6.465   2.885   2.904  1.2172  3.6008 -0.9404
 4663SOL    HW318425   6.323   2.913   2.862 -0.2103 -0.1222  0.8910
 4663SOL    MW418426   6.406   2.897   2.841 -0.3832  0.3384 -0.2766
 4664SOL     OW18427   1.686   1.837   2.427 -0.3137 -0.5214 -0.0007
 4664SOL    HW218428   1.758   1.883   2.383  0.7937 -0.9143  1.3368
 4664SOL    HW318429   1.641   1.790   2.357  1.3501 -1.0681 -0.7401
 4664SOL    MW418430   1.689   1.837   2.412  0.0519 -0.6454  0.0782
 4665SOL     OW18431   0.310   4.045   0.050 -0.3233 -0.1509  0.3266
 4665SOL    HW218432   0.404   4.023   0.049 -0.0014  1.1282 -0.4697
 4665SOL    HW318433   0.270   3.978  -0.005  0.2705 -0.1992 -0.0677
 4665SOL    MW418434   0.317   4.033   0.043 -0.2025  0.0115  0.1695
 4666SOL     OW18435   3.404   2.129   6.358 -0.5626  0.3728 -0.0330
 4666SOL    HW218436   3.458   2.070   6.306  1.0274  3.4554 -2.1911
 4666SOL    HW318437   3.447   2.134   6.443  1.1771  0.8270 -0.8961
 4666SOL    MW418438   3.416   2.122   6.362 -0.1233  0.8394 -0.4316
 4667SOL     OW18439   6.203   2.861   4.811 -0.0578 -0.4780 -0.2214
 4667SOL    HW218440   6.198   2.873   4.906  0.0025 -0.0342 -0.2730
 4667SOL    HW318441   6.279   2.913   4.784 -0.1309 -0.5294 -0.5265
 4667SOL    MW418442   6.212   2.869   4.820 -0.0595 -0.4262 -0.2685
 4668SOL     OW18443   6.347   0.443   4.321  0.0019  0.5174  0.5620
 4668SOL    HW218444   6.385   0.357   4.340 -0.7886  0.3324  1.3923
 4668SOL    HW318445   6.421   0.495   4.289  1.5839  0.8876  4.3061
 4668SOL    MW418446   6.362   0.439   4.319  0.1063  0.5418  1.1655
 4669SOL     OW18447   1.516   1.052   5.503  0.1649 -0.4420  0.1608
 4669SOL    HW218448   1.432   1.086   5.533 -0.3999  0.0196 -1.8013
 4669SOL    HW318449   1.499   0.959   5.487 -0.3461 -0.1105 -1.3699
 4669SOL    MW418450   1.503   1.044   5.505  0.0230 -0.3373 -0.3000
 4670SOL     OW18451   3.147   1.035   4.366 -0.1221  0.3086 -0.0803
 4670SOL    HW218452   3.122   0.966   4.305  1.0655  0.9183 -1.3279
 4670SOL    HW318453   3.068   1.088   4.376 -0.7253 -0.5872  0.0220
 4670SOL    MW418454   3.133   1.033   4.359 -0.0450  0.2708 -0.2314
 4671SOL     OW18455   4.580   0.854   4.566  0.1035  0.1965  0.5586
 4671SOL    HW218456   4.648   0.847   4.498 -0.3751 -1.5555  0.2074
 4671SOL    HW318457   4.628   0.847   4.648  0.4044 -0.7475  0.3190
 4671SOL    MW418458   4.595   0.852   4.568  0.0801 -0.1592  0.4807
 4672SOL     OW18459   6.333   3.133   4.793 -0.5852 -0.1002  0.5208
 4672SOL    HW218460   6.281   3.187   4.852 -0.9398 -1.7468  1.8108
 4672SOL    HW318461   6.423   3.140   4.827 -0.8487 -1.3499  1.5640
 4672SOL    MW418462   6.338   3.141   4.806 -0.6668 -0.4823  0.8287
 4673SOL     OW18463   6.155   4.360   3.010  0.2935 -0.0622  0.2111
 4673SOL    HW218464   6.074   4.336   3.055 -0.3724 -2.3975 -2.0281
 4673SOL    HW318465   6.219   4.296   3.040  0.0696 -1.0853 -1.3797
 4673SOL    MW418466   6.153   4.348   3.020  0.1761 -0.5053 -0.2942
 4674SOL     OW18467   5.881   3.710   3.578 -0.5312  0.6015  0.1935
 4674SOL    HW218468   5.970   3.737   3.597  0.7043 -2.5473 -0.5951
 4674SOL    HW318469   5.848   3.777   3.518  1.4931  1.4955  0.0190
 4674SOL    MW418470   5.888   3.722   3.573 -0.1011  0.3040  0.0664
 4675SOL     OW18471   5.607   4.194   3.025  0.6894 -0.2375 -0.0531
 4675SOL    HW218472   5.521   4.235   3.015  0.6677 -0.4866 -1.0466
 4675SOL    HW318473   5.664   4.263   3.058  0.3149  0.1925 -0.2937
 4675SOL    MW418474   5.603   4.208   3.028  0.6371 -0.2136 -0.2159
 4676SOL     OW18475   3.147   2.633   4.161 -0.5602 -0.5183 -0.1552
 4676SOL    HW218476   3.183   2.552   4.125  0.2290  0.0374 -0.6632
 4676SOL    HW318477   3.224   2.684   4.187 -1.0512 -1.1022  2.9166
 4676SOL    MW418478   3.162   2.629   4.160 -0.5209 -0.5220  0.1830
 4677SOL     OW18479   5.454   4.500   2.295  0.7657 -0.7722 -0.1037
 4677SOL    HW218480   5.371   4.493   2.247  0.7512  1.4528 -0.4935
 4677SOL    HW318481   5.503   4.422   2.269 -2.0670 -3.5053  1.9924
 4677SOL    MW418482   5.449   4.489   2.285  0.3900 -0.8392  0.1214
 4678SOL     OW18483   1.085   1.153   1.399  0.0569 -0.4466  0.5737
 4678SOL    HW218484   1.030   1.148   1.321  3.0153 -3.2024 -1.6022
 4678SOL    HW318485   1.121   1.242   1.397 -1.2624  0.1077 -0.1086
 4678SOL    MW418486   1.082   1.164   1.388  0.2732 -0.7371  0.1966
 4679SOL     OW18487   4.022   3.745   0.302 -0.3660 -0.0614  0.2682
 4679SOL    HW218488   3.967   3.691   0.359 -0.0964  0.7049  1.2854
 4679SOL    HW318489   4.072   3.800   0.362 -1.2053  1.9111 -0.7287
 4679SOL    MW418490   4.021   3.745   0.317 -0.4412  0.2999  0.2709
 4680SOL     OW18491   4.674   4.125   5.049  0.3436  0.6834  0.0574
 4680SOL    HW218492   4.720   4.107   5.131  1.2607  1.5353 -0.2556
 4680SOL    HW318493   4.603   4.183   5.074 -0.0418  0.0778  0.4031
 4680SOL    MW418494   4.671   4.130   5.063  0.4138  0.7159  0.0617
 4681SOL     OW18495   0.834   1.787   5.051  0.3439  0.4124 -0.4059
 4681SOL    HW218496   0.747   1.798   5.011  0.8055 -1.8824 -2.2635
 4681SOL    HW318497   0.821   1.717   5.116  0.4619  1.2906  0.5769
 4681SOL    MW418498   0.821   1.779   5.054  0.4204  0.2255 -0.5214
 4682SOL     OW18499   2.576   0.420   2.615 -0.4028  0.4993  0.1696
 4682SOL    HW218500   2.628   0.474   2.556 -2.2069  2.3472  0.1517
 4682SOL    HW318501   2.612   0.437   2.702  1.4217 -1.2374 -0.1604
 4682SOL    MW418502   2.588   0.429   2.619 -0.4001  0.5140  0.1237
 4683SOL     OW18503   1.519   5.721   0.091 -0.4392 -0.3054  0.0215
 4683SOL    HW218504   1.433   5.680   0.089  0.0557 -1.4463  0.7269
 4683SOL    HW318505   1.580   5.647   0.103  0.5880  0.5206  0.0278
 4683SOL    MW418506   1.516   5.706   0.093 -0.2383 -0.3470  0.1154
 4684SOL     OW18507   1.033   5.903   2.262 -0.0109 -0.2110  0.2823
 4684SOL    HW218508   1.020   5.989   2.301  0.6360 -0.6190  1.4348
 4684SOL    HW318509   1.090   5.918   2.187 -0.9658  0.5298 -0.3222
 4684SOL    MW418510   1.039   5.916   2.257 -0.0515 -0.1671  0.3546
 4685SOL     OW18511   6.180   2.681   2.403  0.1193  0.2615 -0.5376
 4685SOL    HW218512   6.161   2.588   2.387  0.9740 -0.1774  0.7964
 4685SOL    HW318513   6.191   2.687   2.498 -2.4100  2.2349 -0.2458
 4685SOL    MW418514   6.179   2.669   2.413 -0.1016  0.4640 -0.3231
 4686SOL     OW18515   0.513   1.864   0.009 -0.2323  0.0580 -0.2126
 4686SOL    HW218516   0.542   1.787   0.057 -0.2085 -0.3387 -0.8508
 4686SOL    HW318517   0.486   1.926   0.076 -0.8045 -0.7267  0.2845
 4686SOL    MW418518   0.513   1.862   0.024 -0.3046 -0.0979 -0.2312
 4687SOL     OW18519   0.584   3.618   4.638 -0.0921  0.2542 -0.1575
 4687SOL    HW218520   0.533   3.666   4.703 -0.0069  0.6028 -0.3473
 4687SOL    HW318521   0.672   3.655   4.644  0.0663 -0.1316 -0.0475
 4687SOL    MW418522   0.589   3.629   4.648 -0.0599  0.2493 -0.1680
 4688SOL     OW18523   4.751   3.380   2.885  0.0236  0.0938 -0.2293
 4688SOL    HW218524   4.818   3.447   2.897 -2.4445  2.6987  0.2584
 4688SOL    HW318525   4.711   3.400   2.800 -1.0736 -0.4535  0.1279
 4688SOL    MW418526   4.754   3.391   2.876 -0.4468  0.3653 -0.1178
 4689SOL     OW18527   5.857   2.677   4.226 -0.2764 -0.0564  0.2062
 4689SOL    HW218528   5.805   2.751   4.257  1.2862  1.1367  0.1073
 4689SOL    HW318529   5.911   2.653   4.302 -0.4160 -0.7619  0.0819
 4689SOL    MW418530   5.857   2.684   4.240 -0.0887  0.0079  0.1768
 4690SOL     OW18531   5.929   6.294   5.206 -0.2982  0.7216 -0.6806
 4690SOL    HW218532   5.915   6.257   5.294  2.1809 -1.1781 -0.9555
 4690SOL    HW318533   5.925   6.388   5.218 -0.3958  0.4931  1.3915
 4690SOL    MW418534   5.926   6.301   5.219  0.0160  0.4408 -0.4435
 4691SOL     OW18535   4.515   0.831   0.535  0.0220 -0.4784 -0.2924
 4691SOL    HW218536   4.526   0.782   0.616 -0.4969 -0.7360 -0.3724
 4691SOL    HW318537   4.425   0.812   0.507 -0.1837  0.4916 -0.3390
 4691SOL    MW418538   4.504   0.822   0.542 -0.0736 -0.3844 -0.3091
 4692SOL     OW18539   1.975   0.241   3.253 -0.4126  0.2096  0.0576
 4692SOL    HW218540   1.915   0.226   3.181 -0.5110  0.6519  0.0432
 4692SOL    HW318541   1.954   0.329   3.284  0.5319  0.5459 -0.2396
 4692SOL    MW418542   1.965   0.251   3.248 -0.3010  0.3123  0.0165
 4693SOL     OW18543   0.597   3.941   2.396 -0.7665  0.7325  0.0483
 4693SOL    HW218544   0.585   3.860   2.346  1.1092  0.3021  0.2107
 4693SOL    HW318545   0.509   3.977   2.405 -1.5881 -1.0305 -0.4595
 4693SOL    MW418546   0.584   3.935   2.390 -0.6274  0.4431  0.0027
 4694SOL     OW18547   0.713   1.398   3.182  0.2890  0.4231  0.0885
 4694SOL    HW218548   0.654   1.366   3.249  1.4869 -1.1894  0.4397
 4694SOL    HW318549   0.780   1.447   3.230  0.7420 -0.1048  0.0018
 4694SOL    MW418550   0.714   1.401   3.197  0.5068  0.1407  0.1234
 4695SOL     OW18551   5.776   3.145   3.091  0.5662  0.5809 -0.2021
 4695SOL    HW218552   5.852   3.186   3.050  0.0989  1.5783 -0.0956
 4695SOL    HW318553   5.775   3.181   3.180  0.1321  0.3656 -0.1201
 4695SOL    MW418554   5.786   3.155   3.098  0.4473  0.6841 -0.1772
 4696SOL     OW18555   0.228   0.637   3.217 -0.3448  0.4853 -0.4730
 4696SOL    HW218556   0.288   0.605   3.285  0.1110 -0.2378 -1.1863
 4696SOL    HW318557   0.146   0.656   3.263 -0.5144 -1.3839  0.0848
 4696SOL    MW418558   0.225   0.635   3.232 -0.3071  0.1433 -0.4935
 4697SOL     OW18559   2.296   2.045   2.288 -0.1598  0.1385  0.1309
 4697SOL    HW218560   2.286   2.035   2.383 -0.6487  0.5618  0.1341
 4697SOL    HW318561   2.219   2.001   2.251 -1.2401  1.9662  0.0596
 4697SOL    MW418562   2.284   2.038   2.296 -0.3668  0.4355  0.1219
 4698SOL     OW18563   1.080   0.307   5.813 -0.4125 -0.1189  0.3536
 4698SOL    HW218564   1.080   0.383   5.871 -1.0687  1.2495 -1.3279
 4698SOL    HW318565   0.989   0.276   5.815 -0.6384  0.4533 -0.5453
 4698SOL    MW418566   1.068   0.313   5.821 -0.5289  0.1371  0.0131
 4699SOL     OW18567   5.042   6.153   2.187  0.1437  0.5723 -0.1453
 4699SOL    HW218568   4.968   6.171   2.245 -0.5566 -2.6969  0.1778
 4699SOL    HW318569   5.003   6.118   2.107  1.2705  1.3231 -1.0651
 4699SOL    MW418570   5.027   6.151   2.184  0.1999  0.2400 -0.2240
 4700SOL     OW18571   4.502   0.313   6.092 -0.0118 -0.2651 -0.4164
 4700SOL    HW218572   4.472   0.347   6.176 -1.2183 -0.3735 -0.7891
 4700SOL    HW318573   4.572   0.251   6.114  0.3330  0.4236  0.4363
 4700SOL    MW418574   4.507   0.309   6.106 -0.1255 -0.1885 -0.3531
 4701SOL     OW18575   1.649   5.041   2.143  0.2648 -0.2340  0.2479
 4701SOL    HW218576   1.580   5.105   2.159  0.1341 -0.1223 -0.7362
 4701SOL    HW318577   1.639   5.016   2.051  0.0155 -2.0176  0.7118
 4701SOL    MW418578   1.639   5.046   2.133  0.2147 -0.4546  0.1793
 4702SOL     OW18579   3.835   2.186   5.701  0.0056 -0.1817 -0.2462
 4702SOL    HW218580   3.905   2.227   5.751  1.1628 -1.0562 -1.1055
 4702SOL    HW318581   3.872   2.102   5.671 -1.3409 -0.5906 -0.8471
 4702SOL    MW418582   3.849   2.180   5.703 -0.0194 -0.3510 -0.4388
 4703SOL     OW18583   5.223   0.282   3.934  0.3163  0.2858 -0.3463
 4703SOL    HW218584   5.264   0.197   3.918 -1.5696 -0.1934 -3.3881
 4703SOL    HW318585   5.281   0.345   3.891  0.3281  0.2193 -0.4271
 4703SOL    MW418586   5.236   0.279   3.926  0.0690  0.2138 -0.7583
 4704SOL     OW18587   5.388   6.343   3.020 -0.5748 -0.6353 -0.2198
 4704SOL    HW218588   5.332   6.266   3.024  0.2012 -1.1714  0.7221
 4704SOL    HW318589   5.435   6.334   2.937 -1.2534 -0.6204 -0.6101
 4704SOL    MW418590   5.387   6.332   3.010 -0.5619 -0.7041 -0.1470
 4705SOL     OW18591   5.741   1.189   5.232 -0.2102  0.3343  0.3120
 4705SOL    HW218592   5.822   1.205   5.280 -0.8708  0.7416  1.3163
 4705SOL    HW318593   5.679   1.157   5.298 -0.5511 -1.0498 -0.6381
 4705SOL    MW418594   5.743   1.187   5.247 -0.3423  0.2054  0.3191
 4706SOL     OW18595   2.371   4.542   0.639 -0.0452 -0.3679 -0.2125
 4706SOL    HW218596   2.276   4.534   0.640 -0.4372  2.3220 -2.6688
 4706SOL    HW318597   2.402   4.465   0.591 -1.1726 -0.3542 -0.9903
 4706SOL    MW418598   2.363   4.531   0.633 -0.2457 -0.0112 -0.6392
 4707SOL     OW18599   6.074   0.771   1.281  0.4627 -0.0266 -0.5988
 4707SOL    HW218600   6.157   0.784   1.326  1.0881 -1.4008 -1.3020
 4707SOL    HW318601   6.008   0.802   1.344  1.4651  0.5907  0.1729
 4707SOL    MW418602   6.076   0.777   1.296  0.6775 -0.1265 -0.5898
 4708SOL     OW18603   0.368   3.300   3.319 -0.0572  0.8243  0.2291
 4708SOL    HW218604   0.396   3.215   3.286 -1.4579  0.2351  0.4821
 4708SOL    HW318605   0.413   3.363   3.263  0.2942 -0.0919 -0.5531
 4708SOL    MW418606   0.378   3.297   3.307 -0.1956  0.6257  0.1593
 4709SOL     OW18607   6.401   2.183   1.001  0.0603 -0.2078 -0.4776
 4709SOL    HW218608   6.451   2.103   0.984  0.5202 -0.4387  1.7088
 4709SOL    HW318609   6.407   2.233   0.920  0.8724 -1.8005 -1.4432
 4709SOL    MW418610   6.408   2.179   0.988  0.2281 -0.4484 -0.3166
 4710SOL     OW18611   2.226   4.497   4.027  0.0998  0.4084 -0.1922
 4710SOL    HW218612   2.219   4.446   3.946  0.1847  0.8389 -0.4742
 4710SOL    HW318613   2.148   4.472   4.077 -1.4828  2.1765 -1.6018
 4710SOL    MW418614   2.215   4.487   4.023 -0.0978  0.6985 -0.4154
 4711SOL     OW18615   5.590   5.541   1.308 -0.4660  0.2157 -0.3103
 4711SOL    HW218616   5.542   5.459   1.323 -0.6963  0.5023  0.5714
 4711SOL    HW318617   5.521   5.605   1.292 -0.5353  0.9292  2.3349
 4711SOL    MW418618   5.574   5.538   1.308 -0.5055  0.3476  0.1550
 4712SOL     OW18619   1.905   4.086   0.411  0.4058 -0.4035  0.0601
 4712SOL    HW218620   1.880   4.031   0.337  0.0462 -1.1563  0.7154
 4712SOL    HW318621   1.949   4.025   0.472 -0.6549 -0.1535  1.1274
 4712SOL    MW418622   1.908   4.070   0.410  0.2184 -0.4698  0.2873
 4713SOL     OW18623   1.680   0.840   4.987  0.4181  0.3047 -0.0595
 4713SOL    HW218624   1.743   0.864   4.918 -0.5423 -1.7179 -1.7491
 4713SOL    HW318625   1.708   0.753   5.015 -1.5018 -0.5909 -0.7666
 4713SOL    MW418626   1.692   0.832   4.982  0.0381 -0.0803 -0.3757
 4714SOL     OW18627   0.057   0.453   2.657 -0.1771 -0.2787  0.1842
 4714SOL    HW218628   0.064   0.439   2.751  1.9201  0.6771  0.2245
 4714SOL    HW318629  -0.037   0.447   2.638 -0.5720 -1.1031  2.2117
 4714SOL    MW418630   0.046   0.451   2.667  0.0475 -0.2613  0.4570
 4715SOL     OW18631   0.166   6.354   6.230 -0.1208  0.0281 -0.3991
 4715SOL    HW218632   0.241   6.300   6.254  0.2703  1.0964  0.9530
 4715SOL    HW318633   0.091   6.306   6.265  0.3273  0.8867  1.9803
 4715SOL    MW418634   0.166   6.341   6.238 -0.0101  0.2823  0.0932
 4716SOL     OW18635   0.630   3.584   0.896  0.1513  0.3982 -0.3481
 4716SOL    HW218636   0.723   3.573   0.912  0.3971 -0.6261 -2.2149
 4716SOL    HW318637   0.625   3.630   0.813 -1.0340  1.8478  0.4798
 4716SOL    MW418638   0.641   3.588   0.887  0.0273  0.4543 -0.4852
 4717SOL     OW18639   6.232   6.398   4.689 -0.0079  0.1644 -0.0001
 4717SOL    HW218640   6.198   6.318   4.648  1.2651 -0.6463  0.4700
 4717SOL    HW318641   6.177   6.468   4.653 -0.2346 -0.7471 -1.5471
 4717SOL    MW418642   6.220   6.397   4.679  0.1301 -0.0628 -0.1422
 4718SOL     OW18643   0.209   1.048   1.669  0.0757  0.2594 -0.5400
 4718SOL    HW218644   0.206   1.084   1.580  0.8735 -0.0423 -0.6986
 4718SOL    HW318645   0.228   0.955   1.657 -0.5403  0.0701 -0.0761
 4718SOL    MW418646   0.211   1.041   1.655  0.0997  0.1946 -0.4997
 4719SOL     OW18647   4.172   1.738   5.638 -0.0131  0.5011 -0.3407
 4719SOL    HW218648   4.183   1.718   5.731 -1.2789 -0.5662 -0.4100
 4719SOL    HW318649   4.175   1.834   5.634 -1.8576  0.6660  1.0746
 4719SOL    MW418650   4.174   1.748   5.650 -0.4234  0.3821 -0.1631
 4720SOL     OW18651   1.040   1.501   1.557  0.5752 -0.0183 -0.6386
 4720SOL    HW218652   1.101   1.449   1.505  0.3128  0.1817 -1.1440
 4720SOL    HW318653   1.096   1.566   1.600  0.9140 -0.7515  0.0610
 4720SOL    MW418654   1.056   1.503   1.556  0.5853 -0.0886 -0.6130
 4721SOL     OW18655   5.026   4.901   3.186  1.5178  0.2786  0.3415
 4721SOL    HW218656   5.099   4.949   3.226  2.0583 -1.3615  1.4775
 4721SOL    HW318657   4.958   4.967   3.172  2.5867  1.5388  0.8595
 4721SOL    MW418658   5.027   4.916   3.190  1.7301  0.2285  0.5597
 4722SOL     OW18659   0.194   0.079   0.108  0.0837  0.5457 -0.0760
 4722SOL    HW218660   0.194   0.128   0.190 -0.0173  2.7327 -1.2988
 4722SOL    HW318661   0.107   0.097   0.070 -0.0614 -0.8391 -0.4539
 4722SOL    MW418662   0.182   0.088   0.114  0.0513  0.6515 -0.2872
 4723SOL     OW18663   1.763   2.087   2.973 -0.3106 -0.2748  0.0458
 4723SOL    HW218664   1.744   2.179   2.992  2.8409  0.1982  1.4869
 4723SOL    HW318665   1.752   2.043   3.057  1.5937 -0.5150  0.2096
 4723SOL    MW418666   1.759   2.093   2.987  0.3565 -0.2441  0.2575
 4724SOL     OW18667   0.664   2.395   2.833  0.0438  0.4402  0.2850
 4724SOL    HW218668   0.623   2.466   2.783 -0.1674 -0.1432 -0.3952
 4724SOL    HW318669   0.667   2.321   2.771  1.8169  0.3596  0.4158
 4724SOL    MW418670   0.659   2.394   2.818  0.2498  0.3526  0.2125
 4725SOL     OW18671   5.181   4.706   2.379  0.2754  0.0754 -0.5137
 4725SOL    HW218672   5.091   4.719   2.347  0.0335 -3.6058 -1.8392
 4725SOL    HW318673   5.236   4.754   2.317 -0.6587 -0.3104 -1.6831
 4725SOL    MW418674   5.176   4.714   2.366  0.1202 -0.4612 -0.8429
 4726SOL     OW18675   1.378   3.987   0.781  0.1917  0.3101 -0.4092
 4726SOL    HW218676   1.454   3.970   0.726  1.0269  0.0009  0.8115
 4726SOL    HW318677   1.398   4.070   0.825 -1.4022  1.6938 -2.1130
 4726SOL    MW418678   1.391   3.996   0.779  0.0916  0.4518 -0.4730
 4727SOL     OW18679   0.109   4.565   2.174 -0.0709 -0.3148  0.2764
 4727SOL    HW218680   0.204   4.564   2.188  0.3754 -2.3920 -2.0922
 4727SOL    HW318681   0.098   4.527   2.087 -3.1440 -0.8459  0.8026
 4727SOL    MW418682   0.120   4.560   2.164 -0.4175 -0.6589  0.0333
 4728SOL     OW18683   0.578   4.142   5.465  0.9241 -0.5123  0.5860
 4728SOL    HW218684   0.653   4.115   5.413  0.9522  0.1390  0.2755
 4728SOL    HW318685   0.576   4.238   5.457 -0.3129 -0.5517  0.0418
 4728SOL    MW418686   0.587   4.151   5.457  0.7646 -0.4316  0.4732
 4729SOL     OW18687   5.930   5.745   5.956 -0.3619  0.2518 -0.2469
 4729SOL    HW218688   5.924   5.749   5.860 -1.2608 -0.6340 -0.2553
 4729SOL    HW318689   5.993   5.675   5.973 -0.3105  0.3097 -0.2032
 4729SOL    MW418690   5.937   5.736   5.946 -0.4738  0.1425 -0.2423
 4730SOL     OW18691   2.902   0.397   0.170  0.2176  0.1562  0.0365
 4730SOL    HW218692   2.903   0.339   0.093 -0.4684  0.5303 -0.2667
 4730SOL    HW318693   2.890   0.338   0.244 -0.6179 -0.0887 -0.2804
 4730SOL    MW418694   2.901   0.382   0.169  0.0169  0.1732 -0.0453
 4731SOL     OW18695   1.576   3.206   5.398  0.5024  0.4413  0.1801
 4731SOL    HW218696   1.622   3.278   5.355  1.7888 -1.0653 -1.1398
 4731SOL    HW318697   1.646   3.148   5.429 -0.4829 -0.3000  1.1263
 4731SOL    MW418698   1.592   3.208   5.396  0.5421  0.1447  0.1308
 4732SOL     OW18699   3.858   3.774   1.624  0.2300 -0.0328 -0.5007
 4732SOL    HW218700   3.895   3.686   1.631 -2.6630 -1.2153  1.3050
 4732SOL    HW318701   3.918   3.829   1.674  0.8683 -1.3959  0.2873
 4732SOL    MW418702   3.871   3.770   1.631 -0.0675 -0.3687 -0.1585
 4733SOL     OW18703   5.006   4.193   3.590 -0.2417 -0.3059 -0.1291
 4733SOL    HW218704   5.040   4.148   3.667 -1.7251  1.2212  1.5377
 4733SOL    HW318705   5.018   4.132   3.518  3.2181 -0.9625  0.8601
 4733SOL    MW418706   5.012   4.179   3.591  0.0190 -0.1911  0.2213
 4734SOL     OW18707   3.287   2.985   1.443  0.2475  0.1720  0.1477
 4734SOL    HW218708   3.229   2.910   1.455  1.4602 -0.4222  3.3432
 4734SOL    HW318709   3.243   3.039   1.378 -2.9928 -1.1045  1.0823
 4734SOL    MW418710   3.274   2.983   1.436 -0.0200 -0.0748  0.6926
 4735SOL     OW18711   0.895   6.242   5.832  0.0273 -0.0675  0.2596
 4735SOL    HW218712   0.920   6.152   5.811 -2.2344 -0.3191 -1.7131
 4735SOL    HW318713   0.957   6.297   5.784 -1.2137 -0.6503 -2.1467
 4735SOL    MW418714   0.906   6.237   5.823 -0.4349 -0.1776 -0.3182
 4736SOL     OW18715   3.031   5.761   4.600  0.3198  0.1059  0.3069
 4736SOL    HW218716   3.111   5.736   4.555 -0.0265  1.0449 -0.8619
 4736SOL    HW318717   3.061   5.803   4.681  0.9856  0.0077  0.1174
 4736SOL    MW418718   3.045   5.763   4.605  0.3619  0.2168  0.1277
 4737SOL     OW18719   0.961   2.313   1.795  0.2481  0.1943  0.2417
 4737SOL    HW218720   1.027   2.321   1.726  1.0811  1.0084  1.1046
 4737SOL    HW318721   0.880   2.293   1.748  0.6040  1.5895 -1.0610
 4737SOL    MW418722   0.959   2.311   1.779  0.4050  0.4858  0.1837
 4738SOL     OW18723   0.169   6.200   0.190  0.4497 -0.3665 -0.3552
 4738SOL    HW218724   0.087   6.218   0.236  0.3247  0.4696 -0.8954
 4738SOL    HW318725   0.201   6.285   0.162  0.6359 -0.8250 -1.6185
 4738SOL    MW418726   0.163   6.213   0.193  0.4578 -0.3167 -0.5932
 4739SOL     OW18727   2.116   4.762   3.960 -0.4927 -0.2562 -0.0197
 4739SOL    HW218728   2.135   4.849   3.995 -0.1171 -0.2985 -0.1054
 4739SOL    HW318729   2.165   4.702   4.017  0.5510 -0.2864 -0.9020
 4739SOL    MW418730   2.125   4.766   3.972 -0.3054 -0.2658 -0.1474
 4740SOL     OW18731   5.612   3.465   5.883  0.3393 -0.0828 -0.0118
 4740SOL    HW218732   5.517   3.476   5.879  0.2735 -0.8189 -0.8465
 4740SOL    HW318733   5.627   3.375   5.852  1.3241  0.1296 -0.1942
 4740SOL    MW418734   5.601   3.454   5.878  0.4605 -0.1519 -0.1460
 4741SOL     OW18735   0.897   1.604   4.831 -0.0725  0.4369  0.2697
 4741SOL    HW218736   0.807   1.596   4.800  0.0404 -0.9731  0.2603
 4741SOL    HW318737   0.890   1.649   4.915 -0.7999  0.1706  0.3589
 4741SOL    MW418738   0.884   1.609   4.838 -0.1536  0.2157  0.2802
 4742SOL     OW18739   4.314   1.971   0.578  0.3314 -0.1066 -0.2213
 4742SOL    HW218740   4.320   2.060   0.613  0.1120 -0.2541  0.2003
 4742SOL    HW318741   4.337   1.980   0.485 -1.1446  0.6276 -0.5467
 4742SOL    MW418742   4.318   1.984   0.570  0.1077 -0.0292 -0.2086
 4743SOL     OW18743   0.010   2.199   6.313  0.2916 -0.4241 -0.0686
 4743SOL    HW218744  -0.071   2.198   6.263  1.0123  0.6801 -1.3366
 4743SOL    HW318745   0.042   2.289   6.305  1.4909 -0.7611  0.6571
 4743SOL    MW418746   0.004   2.211   6.305  0.5449 -0.3229 -0.1402
 4744SOL     OW18747   0.794   5.069   1.978 -0.3621  0.0577 -0.1307
 4744SOL    HW218748   0.711   5.023   1.966  0.0268 -0.5047 -0.7475
 4744SOL    HW318749   0.828   5.036   2.061 -1.1667  0.9686  0.5922
 4744SOL    MW418750   0.788   5.059   1.988 -0.4170  0.1037 -0.1167
 4745SOL     OW18751   3.309   1.345   4.715 -0.1364 -0.2559  0.3773
 4745SOL    HW218752   3.278   1.254   4.721 -0.7130  0.0358  2.9052
 4745SOL    HW318753   3.244   1.388   4.659 -0.1741 -1.2669 -0.3808
 4745SOL    MW418754   3.296   1.338   4.708 -0.2175 -0.3508  0.6108
 4746SOL     OW18755   2.123   2.970   4.128  0.2226 -0.1217 -0.5856
 4746SOL    HW218756   2.138   2.917   4.049  0.9311  0.3077 -0.7531
 4746SOL    HW318757   2.205   2.963   4.177 -0.4487 -0.9329  0.4630
 4746SOL    MW418758   2.136   2.962   4.124  0.2275 -0.1721 -0.4694
 4747SOL     OW18759   1.774   0.599   4.679 -0.2056 -0.4603  0.2928
 4747SOL    HW218760   1.838   0.662   4.647 -0.0473 -1.3924 -1.2932
 4747SOL    HW318761   1.825   0.521   4.700 -0.7358 -1.0209 -0.4486
 4747SOL    MW418762   1.789   0.597   4.678 -0.2547 -0.6573 -0.0143
 4748SOL     OW18763   2.345   0.180   0.088  0.0209 -0.0641 -0.3433
 4748SOL    HW218764   2.427   0.226   0.104  0.2247 -0.4105 -0.3733
 4748SOL    HW318765   2.355   0.096   0.133 -0.1204 -0.3075 -0.7597
 4748SOL    MW418766   2.357   0.175   0.096  0.0292 -0.1419 -0.4022
 4749SOL     OW18767   2.360   6.353   0.210 -0.1413  0.1770  0.3812
 4749SOL    HW218768   2.283   6.343   0.267 -1.5480  1.6221 -1.1356
 4749SOL    HW318769   2.433   6.365   0.271 -1.2092 -0.5965  1.8808
 4749SOL    MW418770   2.359   6.353   0.226 -0.4678  0.2656  0.3789
 4750SOL     OW18771   4.487   5.801   3.275  0.4272  0.4726  0.2522
 4750SOL    HW218772   4.463   5.711   3.298 -0.3095  0.3413 -0.9359
 4750SOL    HW318773   4.540   5.832   3.348 -0.4950 -0.4512  1.3449
 4750SOL    MW418774   4.491   5.793   3.288  0.2083  0.3334  0.2396
 4751SOL     OW18775   5.960   5.862   1.880  0.0554  0.1968 -0.3418
 4751SOL    HW218776   6.024   5.884   1.948  0.2056  1.3336 -0.8455
 4751SOL    HW318777   5.926   5.946   1.850 -1.6681 -0.3727 -0.1063
 4751SOL    MW418778   5.964   5.876   1.885 -0.1522  0.2716 -0.3772
 4752SOL     OW18779   2.705   0.378   6.162  0.0767  0.3112 -0.7114
 4752SOL    HW218780   2.663   0.332   6.090 -0.1119  0.7794 -0.9087
 4752SOL    HW318781   2.746   0.454   6.120 -1.8454  1.7916 -0.0669
 4752SOL    MW418782   2.705   0.382   6.147 -0.2018  0.5683 -0.6524
 4753SOL     OW18783   4.662   3.784   3.037  0.4115  0.0102 -0.3512
 4753SOL    HW218784   4.648   3.872   3.072 -0.0123 -0.6453  1.2395
 4753SOL    HW318785   4.757   3.771   3.042  0.7360  1.0667 -2.4868
 4753SOL    MW418786   4.673   3.794   3.042  0.3984  0.0631 -0.4231
 4754SOL     OW18787   5.899   6.251   4.439  0.3929 -0.0481 -0.3072
 4754SOL    HW218788   5.875   6.294   4.521 -1.7827 -0.9590 -0.3909
 4754SOL    HW318789   5.918   6.323   4.379 -0.8169  0.7332  0.2148
 4754SOL    MW418790   5.898   6.266   4.442 -0.0538 -0.0652 -0.2494
 4755SOL     OW18791   0.629   4.492   3.588 -0.0606 -0.0956  0.3855
 4755SOL    HW218792   0.713   4.538   3.585  0.3980 -0.9206  0.2640
 4755SOL    HW318793   0.653   4.399   3.586 -0.8982 -0.3760  1.8981
 4755SOL    MW418794   0.643   4.486   3.588 -0.1106 -0.2415  0.5690
 4756SOL     OW18795   6.126   5.651   4.290 -0.0024 -0.5970 -0.1269
 4756SOL    HW218796   6.220   5.657   4.273  0.2038 -0.2546  1.0523
 4756SOL    HW318797   6.096   5.580   4.234  0.8728 -0.4163 -0.8505
 4756SOL    MW418798   6.134   5.643   4.280  0.1403 -0.5280 -0.0668
 4757SOL     OW18799   4.096   0.027   6.071 -0.1758  0.0463  0.0858
 4757SOL    HW218800   4.078   0.089   6.000 -0.6404  0.2180  0.3516
 4757SOL    HW318801   4.191   0.028   6.079 -0.1160  0.0189 -0.5385
 4757SOL    MW418802   4.106   0.035   6.063 -0.2292  0.0653  0.0385
 4758SOL     OW18803   1.599   0.716   1.839 -0.2286 -0.1188 -0.5025
 4758SOL    HW218804   1.634   0.786   1.784  0.1732  0.0040 -0.0973
 4758SOL    HW318805   1.565   0.761   1.916 -1.2369 -0.2457 -0.8650
 4758SOL    MW418806   1.599   0.731   1.842 -0.3086 -0.1194 -0.4969
 4759SOL     OW18807   3.576   2.809   1.033 -0.1420 -0.0073  0.3073
 4759SOL    HW218808   3.577   2.892   0.986 -2.8651 -0.8867 -1.5295
 4759SOL    HW318809   3.548   2.832   1.122 -2.1304  0.9615 -0.5232
 4759SOL    MW418810   3.573   2.823   1.039 -0.7636  0.0045 -0.0446
 4760SOL     OW18811   0.169   3.213   4.869  0.2094 -0.2158  0.5633
 4760SOL    HW218812   0.185   3.290   4.924  0.5314 -0.4835  0.8470
 4760SOL    HW318813   0.197   3.240   4.781 -0.2937  0.2079  0.5242
 4760SOL    MW418814   0.175   3.227   4.864  0.1855 -0.1952  0.5956
 4761SOL     OW18815   0.182   5.383   3.979 -0.0334 -0.0761  0.4643
 4761SOL    HW218816   0.172   5.461   3.925  1.1710  0.5404  1.0971
 4761SOL    HW318817   0.211   5.315   3.917  0.8630  0.4989  0.2253
 4761SOL    MW418818   0.185   5.384   3.963  0.2438  0.0811  0.5163
 4762SOL     OW18819   3.886   4.497   3.874 -0.1833 -0.3123  0.0700
 4762SOL    HW218820   3.815   4.456   3.825 -0.0779 -1.2182  0.6486
 4762SOL    HW318821   3.881   4.589   3.852 -2.5336 -0.0851  1.2707
 4762SOL    MW418822   3.876   4.503   3.865 -0.4795 -0.4018  0.3048
 4763SOL     OW18823   2.783   3.372   4.148 -0.7229  0.3535 -0.7628
 4763SOL    HW218824   2.832   3.298   4.113 -1.4526 -0.5905  0.1559
 4763SOL    HW318825   2.705   3.377   4.092 -0.3004  0.9332 -1.3111
 4763SOL    MW418826   2.779   3.363   4.136 -0.7634  0.3054 -0.7139
 4764SOL     OW18827   1.357   3.751   2.782  0.2271  0.0332  0.0900
 4764SOL    HW218828   1.398   3.665   2.789 -0.3773 -0.3303 -0.7736
 4764SOL    HW318829   1.312   3.750   2.697  1.6329  1.7940 -0.7700
 4764SOL    MW418830   1.357   3.740   2.771  0.3328  0.2175 -0.1374
 4765SOL     OW18831   3.512   2.306   5.925 -0.2280 -0.1892 -0.3867
 4765SOL    HW218832   3.442   2.333   5.985 -0.8502 -0.9169 -0.7739
 4765SOL    HW318833   3.579   2.269   5.983 -0.9956 -1.2650 -0.1410
 4765SOL    MW418834   3.512   2.305   5.941 -0.4114 -0.4272 -0.4054
 4766SOL     OW18835   1.773   4.687   0.200 -0.2748 -0.7277 -0.2295
 4766SOL    HW218836   1.739   4.628   0.268 -1.7430 -1.2194 -1.3314
 4766SOL    HW318837   1.724   4.768   0.212  0.3536 -0.3856  0.0613
 4766SOL    MW418838   1.762   4.690   0.211 -0.3856 -0.7474 -0.3365
 4767SOL     OW18839   0.171   1.147   4.582  0.0588  0.5292 -0.2917
 4767SOL    HW218840   0.086   1.105   4.569  0.3607 -0.7677  1.5244
 4767SOL    HW318841   0.150   1.233   4.619 -0.4749  0.3874 -0.2645
 4767SOL    MW418842   0.157   1.153   4.585  0.0282  0.3394 -0.0485
 4768SOL     OW18843   1.544   2.885   4.172  0.0576 -0.7034  0.1111
 4768SOL    HW218844   1.578   2.828   4.242  0.2196  1.5366  1.9802
 4768SOL    HW318845   1.492   2.951   4.219 -2.9702 -1.2133 -2.2254
 4768SOL    MW418846   1.541   2.886   4.188 -0.3205 -0.4751  0.0494
 4769SOL     OW18847   3.537   2.109   0.161  0.6529  0.2905 -0.0538
 4769SOL    HW218848   3.566   2.026   0.199  1.3537  0.3407 -0.4736
 4769SOL    HW318849   3.594   2.175   0.200  0.8873  0.4318 -0.6333
 4769SOL    MW418850   3.548   2.107   0.171  0.7763  0.3158 -0.1857
 4770SOL     OW18851   5.888   5.039   4.131 -0.1474  0.1566 -0.1512
 4770SOL    HW218852   5.979   5.008   4.139  0.0348  0.5262 -0.7142
 4770SOL    HW318853   5.855   5.037   4.220  0.6531  0.7148  0.1744
 4770SOL    MW418854   5.896   5.034   4.144 -0.0178  0.2790 -0.1825
 4771SOL     OW18855   5.773   5.963   6.078  0.0924  0.0679  0.0605
 4771SOL    HW218856   5.808   5.888   6.029  1.0275  0.1937  0.5125
 4771SOL    HW318857   5.808   6.040   6.034 -1.6238  0.2941 -0.9694
 4771SOL    MW418858   5.782   5.963   6.066 -0.0107  0.1143 -0.0158
 4772SOL     OW18859   4.322   4.335   5.897 -0.0432 -0.9454 -0.6253
 4772SOL    HW218860   4.342   4.314   5.805  0.0178 -3.5627 -0.0816
 4772SOL    HW318861   4.315   4.431   5.898  1.3491 -0.7155 -3.0781
 4772SOL    MW418862   4.324   4.345   5.885  0.1485 -1.2604 -0.8772
 4773SOL     OW18863   1.389   1.434   4.404 -0.1160  0.2404 -0.2265
 4773SOL    HW218864   1.406   1.353   4.452  1.2028  0.8675  0.4273
 4773SOL    HW318865   1.294   1.435   4.391 -0.0894 -1.7004 -0.8193
 4773SOL    MW418866   1.379   1.424   4.409  0.0615  0.0671 -0.2185
 4774SOL     OW18867   6.413   0.880   2.427 -0.0773  0.0558  0.0240
 4774SOL    HW218868   6.500   0.852   2.457  0.7459  2.7891  0.5182
 4774SOL    HW318869   6.404   0.840   2.341  2.0762  0.3628 -0.4206
 4774SOL    MW418870   6.424   0.871   2.420  0.3155  0.4569  0.0306
 4775SOL     OW18871   3.610   1.597   0.266  0.5167  0.1112  0.6419
 4775SOL    HW218872   3.610   1.692   0.279  0.4210  0.3639 -1.0065
 4775SOL    HW318873   3.671   1.583   0.193  0.8255 -1.1423  1.1240
 4775SOL    MW418874   3.618   1.608   0.258  0.5449 -0.0209  0.4881
 4776SOL     OW18875   2.779   4.719   5.020 -0.2398  0.2791  0.2359
 4776SOL    HW218876   2.756   4.647   4.961  2.4978 -0.8623  0.4469
 4776SOL    HW318877   2.697   4.768   5.030 -1.7787 -1.8005 -1.2704
 4776SOL    MW418878   2.765   4.716   5.013 -0.0817 -0.1459  0.0650
 4777SOL     OW18879   5.324   2.178   5.458 -0.0369  0.0880  0.1724
 4777SOL    HW218880   5.237   2.148   5.482 -0.4074  0.7493 -0.3186
 4777SOL    HW318881   5.347   2.244   5.524 -0.0310  0.1234  0.1354
 4777SOL    MW418882   5.316   2.183   5.469 -0.0850  0.1799  0.1027
 4778SOL     OW18883   3.300   2.503   1.963 -0.3109 -0.3842 -0.3346
 4778SOL    HW218884   3.333   2.474   2.048 -0.3726  1.5888  0.4233
 4778SOL    HW318885   3.205   2.496   1.970 -0.3555  0.4695  0.0588
 4778SOL    MW418886   3.292   2.499   1.975 -0.3249 -0.0112 -0.1827
 4779SOL     OW18887   2.900   3.120   3.786 -0.0494 -0.7237 -0.2784
 4779SOL    HW218888   2.890   3.055   3.856 -0.2522  0.6511  1.0120
 4779SOL    HW318889   2.908   3.204   3.832  0.9886  0.0969 -1.8746
 4779SOL    MW418890   2.899   3.122   3.802  0.0608 -0.4340 -0.3188
 4780SOL     OW18891   4.292   5.458   4.329 -0.0675  0.1083  0.3072
 4780SOL    HW218892   4.332   5.481   4.413  0.5940  1.2827 -0.3104
 4780SOL    HW318893   4.199   5.444   4.350  0.3750 -1.2702  1.5096
 4780SOL    MW418894   4.285   5.459   4.343  0.0782  0.0814  0.3844
 4781SOL     OW18895   2.815   5.707   2.179  0.2763 -0.6041  0.1093
 4781SOL    HW218896   2.754   5.778   2.162  0.4152 -0.0243  1.7939
 4781SOL    HW318897   2.777   5.631   2.134 -0.3386  0.3132 -0.9702
 4781SOL    MW418898   2.802   5.706   2.171  0.2135 -0.4066  0.1892
 4782SOL     OW18899   1.684   2.532   4.502  0.3370  0.2028 -0.0049
 4782SOL    HW218900   1.655   2.612   4.458  0.1985  0.0929 -0.1165
 4782SOL    HW318901   1.779   2.529   4.487  0.1279 -0.4416 -1.3153
 4782SOL    MW418902   1.693   2.542   4.494  0.2911  0.1033 -0.1925
 4783SOL     OW18903   2.154   1.149   4.621  0.4633 -0.1318 -0.5897
 4783SOL    HW218904   2.099   1.227   4.629  1.2866  0.4154 -0.0753
 4783SOL    HW318905   2.181   1.130   4.711  1.4308 -0.1418 -0.8722
 4783SOL    MW418906   2.150   1.157   4.634  0.6996 -0.0610 -0.5591
 4784SOL     OW18907   3.325   3.599   1.609 -0.0098 -0.1177  0.3681
 4784SOL    HW218908   3.288   3.543   1.677 -1.2445 -0.5259 -0.5974
 4784SOL    HW318909   3.344   3.681   1.653  1.6678 -1.1997  1.7729
 4784SOL    MW418910   3.323   3.603   1.624  0.0486 -0.3143  0.4260
 4785SOL     OW18911   4.637   1.986   1.468  0.3650  0.5890  0.0693
 4785SOL    HW218912   4.652   1.983   1.374 -2.1853 -0.4186 -0.3882
 4785SOL    HW318913   4.684   1.910   1.502  1.2815  0.9465 -0.3575
 4785SOL    MW418914   4.645   1.976   1.460  0.1494  0.5032 -0.0474
 4786SOL     OW18915   3.189   0.491   1.736  0.1750  0.2898  0.5796
 4786SOL    HW218916   3.191   0.399   1.709  0.6560 -0.5864  3.2819
 4786SOL    HW318917   3.278   0.509   1.766  0.1001  1.6867  0.0461
 4786SOL    MW418918   3.201   0.481   1.736  0.2286  0.3585  0.8658
 4787SOL     OW18919   1.862   6.386   4.724  0.2276 -0.6429  0.2465
 4787SOL    HW218920   1.882   6.344   4.640  1.4069  0.5376 -0.0820
 4787SOL    HW318921   1.912   6.467   4.724 -1.0545  0.1950  1.3977
 4787SOL    MW418922   1.871   6.391   4.713  0.2140 -0.3766  0.3551
 4788SOL     OW18923   6.126   1.844   1.712 -0.2028  0.5539 -0.3981
 4788SOL    HW218924   6.117   1.916   1.774  0.9189  0.8465 -0.5506
 4788SOL    HW318925   6.197   1.871   1.654  0.1252 -0.5867 -0.5629
 4788SOL    MW418926   6.135   1.857   1.713 -0.0115  0.4420 -0.4400
 4789SOL     OW18927   4.773   0.559   5.864 -0.4485 -0.5182  0.6928
 4789SOL    HW218928   4.838   0.549   5.795 -0.7491  0.2800  0.2725
 4789SOL    HW318929   4.804   0.633   5.916 -1.5985  0.6961 -0.2425
 4789SOL    MW418930   4.786   0.568   5.861 -0.6399 -0.2527  0.5140
 4790SOL     OW18931   1.865   2.208   4.946 -0.3010 -0.4905 -0.3373
 4790SOL    HW218932   1.846   2.289   4.898 -0.3348 -0.4373 -0.2343
 4790SOL    HW318933   1.800   2.146   4.915 -0.4004 -0.4201 -0.2693
 4790SOL    MW418934   1.854   2.211   4.936 -0.3185 -0.4742 -0.3147
 4791SOL     OW18935   2.393   2.531   5.254 -0.2075  0.5282  0.0140
 4791SOL    HW218936   2.389   2.625   5.237  1.8280  0.4636 -1.1378
 4791SOL    HW318937   2.349   2.491   5.179  0.3389  0.5253 -0.3087
 4791SOL    MW418938   2.387   2.538   5.242  0.1331  0.5193 -0.1805
 4792SOL     OW18939   5.156   3.505   1.581 -0.1918 -1.1807  0.3460
 4792SOL    HW218940   5.121   3.422   1.613  1.0126 -0.2928  4.6142
 4792SOL    HW318941   5.082   3.566   1.588  0.3600 -0.6913  3.2425
 4792SOL    MW418942   5.141   3.502   1.587  0.0399 -0.9990  1.2913
 4793SOL     OW18943   0.723   5.980   6.023  0.7046 -0.0369 -0.1631
 4793SOL    HW218944   0.810   5.942   6.016  1.0810  0.8376 -0.2438
 4793SOL    HW318945   0.702   6.009   5.934 -0.1193 -1.1916 -0.3776
 4793SOL    MW418946   0.731   5.979   6.010  0.6456 -0.0739 -0.2020
 4794SOL     OW18947   4.381   4.961   0.179 -0.4386  0.0939 -0.8303
 4794SOL    HW218948   4.383   4.866   0.193 -3.2903  0.3388  2.7102
 4794SOL    HW318949   4.305   4.975   0.123 -0.0460  0.3424 -1.3136
 4794SOL    MW418950   4.371   4.950   0.173 -0.7630  0.1590 -0.4269
 4795SOL     OW18951   2.317   3.326   4.346 -0.0833 -0.0021  0.0286
 4795SOL    HW218952   2.262   3.365   4.414  0.6536  1.7738 -0.3177
 4795SOL    HW318953   2.375   3.266   4.393 -1.4445 -0.9353  0.5569
 4795SOL    MW418954   2.317   3.323   4.361 -0.1657  0.1091  0.0526
 4796SOL     OW18955   3.017   5.556   0.213  0.0973 -0.4618  0.0915
 4796SOL    HW218956   3.073   5.556   0.291  0.8422  0.0030 -0.4236
 4796SOL    HW318957   3.067   5.607   0.148 -0.6799 -0.5153 -0.5627
 4796SOL    MW418958   3.031   5.563   0.215  0.0930 -0.4075 -0.0628
 4797SOL     OW18959   2.490   2.637   4.580 -0.1346  0.3402 -0.3210
 4797SOL    HW218960   2.502   2.556   4.630 -1.2896  0.8090  0.7584
 4797SOL    HW318961   2.551   2.699   4.621 -0.7513  0.5941  0.2284
 4797SOL    MW418962   2.500   2.635   4.592 -0.3684  0.4355 -0.1061
 4798SOL     OW18963   0.337   0.469   1.114  0.2491  0.0490  0.1160
 4798SOL    HW218964   0.426   0.477   1.147  0.1661  0.1777  0.3109
 4798SOL    HW318965   0.281   0.478   1.191 -0.0323  2.3195 -0.2638
 4798SOL    MW418966   0.341   0.472   1.128  0.2010  0.3656  0.0916
 4799SOL     OW18967   6.423   4.144   4.444 -0.0928  0.0356 -0.1798
 4799SOL    HW218968   6.355   4.119   4.506  1.3286  1.7783  2.2547
 4799SOL    HW318969   6.396   4.230   4.412  0.5958  0.4307  0.2756
 4799SOL    MW418970   6.411   4.152   4.448  0.1856  0.3176  0.2015
 4800SOL     OW18971   0.269   1.385   0.893  0.5013  0.0784 -0.2312
 4800SOL    HW218972   0.184   1.409   0.856  0.8259  0.8085 -0.5200
 4800SOL    HW318973   0.250   1.363   0.984 -0.1058 -0.5033 -0.4810
 4800SOL    MW418974   0.255   1.385   0.900  0.4640  0.0980 -0.3023
 4801SOL     OW18975   5.866   2.972   5.314 -0.0866 -0.0469 -0.0883
 4801SOL    HW218976   5.936   2.979   5.250 -0.6426 -0.0707 -0.7018
 4801SOL    HW318977   5.910   2.979   5.399  0.6688 -0.2101 -0.4671
 4801SOL    MW418978   5.881   2.974   5.317 -0.0603 -0.0716 -0.2192
 4802SOL     OW18979   6.144   3.212   3.556  0.5376  0.0581  0.6748
 4802SOL    HW218980   6.065   3.244   3.600  1.6245 -0.2342  3.0243
 4802SOL    HW318981   6.135   3.240   3.465 -1.8946  0.6824  1.0451
 4802SOL    MW418982   6.133   3.220   3.550  0.3601  0.1019  1.0336
 4803SOL     OW18983   4.657   2.981   1.535  0.1311 -0.4516 -0.3732
 4803SOL    HW218984   4.689   2.955   1.449 -0.5709 -0.0547 -0.7655
 4803SOL    HW318985   4.719   2.942   1.597  0.4011 -1.0930 -1.0367
 4803SOL    MW418986   4.670   2.972   1.532  0.0741 -0.4839 -0.5125
 4804SOL     OW18987   0.652   1.557   4.721 -0.0046  0.0944  0.1043
 4804SOL    HW218988   0.691   1.542   4.635 -0.2150 -0.7103  0.1359
 4804SOL    HW318989   0.611   1.473   4.743 -0.0008  0.3093  0.9631
 4804SOL    MW418990   0.652   1.544   4.713 -0.0318  0.0166  0.2218
 4805SOL     OW18991   3.877   2.831   1.136 -0.8080 -0.5171  0.4405
 4805SOL    HW218992   3.809   2.771   1.168 -2.8064  0.9594 -0.8283
 4805SOL    HW318993   3.847   2.857   1.049  0.7988  1.1096  0.3210
 4805SOL    MW418994   3.864   2.827   1.129 -0.8596 -0.1077  0.2573
 4806SOL     OW18995   1.708   1.963   5.204  0.0298  0.0019  0.1197
 4806SOL    HW218996   1.652   1.896   5.242  0.6827  0.2454  1.5588
 4806SOL    HW318997   1.662   1.991   5.125  0.1314 -2.7137 -1.0191
 4806SOL    MW418998   1.695   1.958   5.198  0.1293 -0.3243  0.1593
 4807SOL     OW18999   1.900   6.252   1.125 -0.6467 -0.3117  0.2985
 4807SOL    HW219000   1.974   6.302   1.091 -0.2525 -0.7251  0.5466
 4807SOL    HW319001   1.886   6.183   1.061  1.5176 -2.4698  1.9724
 4807SOL    MW419002   1.908   6.250   1.112 -0.3092 -0.6510  0.5521
 4808SOL     OW19003   3.432   1.804   6.188  0.3037  0.0358  0.3850
 4808SOL    HW219004   3.344   1.799   6.151  0.1450 -0.2116  0.8033
 4808SOL    HW319005   3.469   1.883   6.148  0.5657 -0.8617 -1.2398
 4808SOL    MW419006   3.426   1.814   6.178  0.3173 -0.1153  0.2259
 4809SOL     OW19007   5.551   3.911   1.754 -0.0421 -0.1160 -0.4657
 4809SOL    HW219008   5.489   3.895   1.826 -0.9914  0.6389 -1.1020
 4809SOL    HW319009   5.622   3.850   1.771  0.0034  0.4020  1.4124
 4809SOL    MW419010   5.552   3.900   1.766 -0.1614  0.0520 -0.3019
 4810SOL     OW19011   2.247   5.107   6.308 -0.0961 -0.3285  0.0310
 4810SOL    HW219012   2.161   5.146   6.321 -0.2893 -0.2297 -1.4253
 4810SOL    HW319013   2.247   5.031   6.366 -1.3514 -0.6012 -0.2943
 4810SOL    MW419014   2.236   5.102   6.318 -0.2872 -0.3514 -0.2040
 4811SOL     OW19015   2.047   6.069   5.527  0.6714  0.0556 -0.0349
 4811SOL    HW219016   2.129   6.050   5.573  0.4312  0.9877  0.8276
 4811SOL    HW319017   2.005   6.137   5.581 -0.2643  0.2007 -0.9210
 4811SOL    MW419018   2.052   6.076   5.540  0.5163  0.1977 -0.0380
 4812SOL     OW19019   0.584   3.009   0.953  0.4456  1.2288 -0.0885
 4812SOL    HW219020   0.547   3.022   1.040 -1.0219 -1.4567 -0.2008
 4812SOL    HW319021   0.678   3.017   0.965  0.2972  0.5618  1.8255
 4812SOL    MW419022   0.591   3.012   0.966  0.2324  0.7865  0.1492
 4813SOL     OW19023   1.948   1.786   2.309  0.0033  0.1290 -0.1497
 4813SOL    HW219024   1.929   1.726   2.236 -0.4367 -1.0311  0.8939
 4813SOL    HW319025   2.043   1.783   2.318  0.2723  1.6503 -1.7755
 4813SOL    MW419026   1.958   1.778   2.300 -0.0193  0.1767 -0.2266
 4814SOL     OW19027   3.528   6.416   0.699  0.2563 -0.2816 -0.3259
 4814SOL    HW219028   3.576   6.357   0.756 -0.1330 -0.1309  0.1675
 4814SOL    HW319029   3.571   6.501   0.710  0.7350 -0.4429 -0.9364
 4814SOL    MW419030   3.540   6.419   0.708  0.2681 -0.2830 -0.3413
 4815SOL     OW19031   2.130   0.940   1.382  0.6853  0.6202  0.3667
 4815SOL    HW219032   2.199   0.941   1.316 -0.3162 -0.8262 -0.7500
 4815SOL    HW319033   2.107   0.848   1.391 -0.3407  0.9666  1.5454
 4815SOL    MW419034   2.136   0.928   1.375  0.4178  0.4751  0.3749
 4816SOL     OW19035   4.326   1.588   3.428 -0.0350  0.1387  0.4879
 4816SOL    HW219036   4.328   1.636   3.511  0.8223 -0.4109  0.7965
 4816SOL    HW319037   4.326   1.657   3.361 -1.2583  0.5960  0.9297
 4816SOL    MW419038   4.326   1.604   3.430 -0.0833  0.1265  0.5869
 4817SOL     OW19039   4.563   4.278   5.374 -0.3567 -0.4140  0.2934
 4817SOL    HW219040   4.584   4.231   5.455  1.7700  0.6493  0.4275
 4817SOL    HW319041   4.566   4.370   5.398 -1.5211 -0.1064 -0.6230
 4817SOL    MW419042   4.566   4.284   5.388 -0.2298 -0.2331  0.1902
 4818SOL     OW19043   1.731   5.626   1.581 -0.0357 -0.1364  0.6167
 4818SOL    HW219044   1.817   5.590   1.564  0.2460  1.2272 -1.1381
 4818SOL    HW319045   1.713   5.605   1.673  1.5630 -1.6015  0.6268
 4818SOL    MW419046   1.740   5.619   1.591  0.2124 -0.1498  0.3865
 4819SOL     OW19047   1.104   2.512   2.211  0.1566  0.1416  1.0095
 4819SOL    HW219048   1.013   2.542   2.206  0.0782 -0.2652 -1.5849
 4819SOL    HW319049   1.155   2.592   2.223 -0.3227  0.9861 -1.8537
 4819SOL    MW419050   1.099   2.527   2.212  0.0830  0.1994  0.2894
 4820SOL     OW19051   1.150   1.772   3.412 -0.2863  0.2159  0.0671
 4820SOL    HW219052   1.202   1.849   3.390 -0.1229 -0.1059 -0.7239
 4820SOL    HW319053   1.063   1.806   3.431 -0.6422  0.4806 -1.8261
 4820SOL    MW419054   1.145   1.787   3.412 -0.3117  0.2084 -0.2871
 4821SOL     OW19055   1.435   5.486   0.290  0.5179  0.2465  0.5385
 4821SOL    HW219056   1.515   5.451   0.328  0.0918 -1.0043  0.3326
 4821SOL    HW319057   1.373   5.488   0.363  0.0860 -0.9408  0.2412
 4821SOL    MW419058   1.437   5.481   0.305  0.4047 -0.0751  0.4721
 4822SOL     OW19059   3.315   4.754   0.750  0.0400 -0.0965  0.0033
 4822SOL    HW219060   3.268   4.836   0.739  1.1348  0.3664 -1.5729
 4822SOL    HW319061   3.249   4.686   0.731 -0.3514  0.4881 -0.7787
 4822SOL    MW419062   3.300   4.756   0.746  0.1328  0.0417 -0.3078
 4823SOL     OW19063   4.887   2.716   4.120 -0.2042 -0.0685  0.1962
 4823SOL    HW219064   4.941   2.792   4.100  0.2669 -0.2729  0.6600
 4823SOL    HW319065   4.948   2.653   4.160 -0.8346 -0.1969  0.9701
 4823SOL    MW419066   4.902   2.717   4.123 -0.2252 -0.1124  0.3595
 4824SOL     OW19067   2.782   3.039   6.345  0.2942  0.2265 -0.0533
 4824SOL    HW219068   2.843   2.969   6.321 -0.3894 -0.9558  1.4746
 4824SOL    HW319069   2.828   3.120   6.324  1.7620 -0.6628 -0.3693
 4824SOL    MW419070   2.796   3.040   6.339  0.3977 -0.0468  0.1066
 4825SOL     OW19071   2.000   0.089   5.586 -0.0412 -0.3867  0.8642
 4825SOL    HW219072   1.985   0.086   5.492 -2.2885 -0.4868  1.1854
 4825SOL    HW319073   2.093   0.111   5.594  0.3905 -1.1573 -1.3533
 4825SOL    MW419074   2.011   0.092   5.575 -0.2807 -0.5016  0.6140
 4826SOL     OW19075   2.433   5.567   2.383 -0.8457  0.0922 -0.1872
 4826SOL    HW219076   2.462   5.643   2.331  0.8026  0.5864  1.3503
 4826SOL    HW319077   2.377   5.605   2.451 -0.6176 -0.1517  0.1395
 4826SOL    MW419078   2.430   5.582   2.385 -0.5981  0.1252  0.0588
 4827SOL     OW19079   5.031   1.598   4.316 -0.3732  0.4486 -0.3229
 4827SOL    HW219080   5.081   1.680   4.308  2.1278 -0.9205  0.1227
 4827SOL    HW319081   5.084   1.533   4.269 -1.4732 -1.2400  0.6669
 4827SOL    MW419082   5.045   1.600   4.309 -0.1883  0.0452 -0.1335
 4828SOL     OW19083   0.089   1.577   0.128  0.0874 -0.1399 -0.0678
 4828SOL    HW219084   0.147   1.564   0.052  0.9333  1.5329  0.2467
 4828SOL    HW319085   0.146   1.565   0.203  0.1459  1.8536  0.2487
 4828SOL    MW419086   0.104   1.574   0.128  0.2067  0.3438  0.0155
 4829SOL     OW19087   6.141   4.666   3.943 -0.0904  0.6800  0.3517
 4829SOL    HW219088   6.196   4.736   3.907  1.4545 -0.5387  0.2142
 4829SOL    HW319089   6.114   4.698   4.029 -0.1112  1.7870 -0.0541
 4829SOL    MW419090   6.145   4.679   3.949  0.1107  0.6653  0.2800
 4830SOL     OW19091   4.052   0.179   5.327 -0.0522 -0.4073 -0.0404
 4830SOL    HW219092   4.113   0.225   5.270 -1.8922  1.2615 -0.7806
 4830SOL    HW319093   4.106   0.114   5.374  2.2235  0.9299 -0.6842
 4830SOL    MW419094   4.067   0.176   5.326  0.0053 -0.0107 -0.2230
 4831SOL     OW19095   2.485   2.015   4.385 -0.0262 -0.1575  0.1971
 4831SOL    HW219096   2.560   2.073   4.370  2.3221 -2.7682  1.0984
 4831SOL    HW319097   2.450   1.998   4.297  0.6248  0.8467 -0.2762
 4831SOL    MW419098   2.490   2.020   4.371  0.3695 -0.3695  0.2535
 4832SOL     OW19099   4.901   5.150   5.043 -0.5118 -0.5016  0.3956
 4832SOL    HW219100   4.946   5.132   5.126  0.7617 -1.4555 -0.4746
 4832SOL    HW319101   4.912   5.244   5.030 -3.2239  0.2884  2.6878
 4832SOL    MW419102   4.908   5.160   5.053 -0.7016 -0.5232  0.5832
 4833SOL     OW19103   0.670   5.037   6.336  0.1897  0.2406 -0.1504
 4833SOL    HW219104   0.676   5.124   6.376  1.9814  0.6428 -1.1589
 4833SOL    HW319105   0.688   5.053   6.243 -0.5233 -1.0850 -0.5381
 4833SOL    MW419106   0.673   5.051   6.329  0.3320  0.1188 -0.3346
 4834SOL     OW19107   6.131   3.274   2.254  0.3658 -0.6316 -0.0584
 4834SOL    HW219108   6.181   3.205   2.296  0.6086 -0.3951  0.0407
 4834SOL    HW319109   6.196   3.326   2.206  0.3146  0.0969  0.6419
 4834SOL    MW419110   6.146   3.272   2.253  0.3911 -0.5043  0.0471
 4835SOL     OW19111   3.770   1.678   1.205  0.0136 -0.0893  0.1807
 4835SOL    HW219112   3.854   1.687   1.249 -0.5759 -0.0426  1.3523
 4835SOL    HW319113   3.744   1.587   1.221 -0.4654  0.0841  0.4452
 4835SOL    MW419114   3.777   1.667   1.213 -0.1274 -0.0602  0.3702
 4836SOL     OW19115   2.930   1.458   2.521 -0.3441 -0.0824  0.0379
 4836SOL    HW219116   2.977   1.426   2.598  0.3897  0.1023 -0.3228
 4836SOL    HW319117   2.980   1.535   2.492  0.0588 -0.7924 -1.2707
 4836SOL    MW419118   2.943   1.464   2.527 -0.1941 -0.1517 -0.1823
 4837SOL     OW19119   2.196   3.568   0.865 -0.4543  0.3951 -0.1754
 4837SOL    HW219120   2.124   3.519   0.906 -0.9118  3.5179  3.3145
 4837SOL    HW319121   2.152   3.642   0.823  0.5666  1.4113  0.5064
 4837SOL    MW419122   2.180   3.571   0.865 -0.3800  0.9412  0.3750
 4838SOL     OW19123   2.142   1.815   4.349 -0.1877 -0.5527  0.6615
 4838SOL    HW219124   2.055   1.848   4.327 -0.1749  1.0171  2.6734
 4838SOL    HW319125   2.177   1.782   4.267 -1.5477  1.4462 -0.8111
 4838SOL    MW419126   2.135   1.815   4.336 -0.3655 -0.0818  0.7327
 4839SOL     OW19127   3.635   3.758   1.820 -0.3923  0.6498 -0.4762
 4839SOL    HW219128   3.634   3.668   1.852 -2.1736  1.2359  1.4136
 4839SOL    HW319129   3.712   3.764   1.764 -0.2589 -2.0373 -0.6954
 4839SOL    MW419130   3.645   3.747   1.817 -0.6097  0.3726 -0.2558
 4840SOL     OW19131   3.216   4.442   3.298 -0.6329 -0.2364  0.0908
 4840SOL    HW219132   3.171   4.364   3.264 -0.6784  0.2357 -0.9762
 4840SOL    HW319133   3.145   4.501   3.322 -0.5971 -0.4223  0.6502
 4840SOL    MW419134   3.201   4.439   3.296 -0.6342 -0.1987  0.0238
 4841SOL     OW19135   5.914   1.934   1.029  0.6151 -0.1545  0.3226
 4841SOL    HW219136   5.976   2.006   1.035 -0.3468  0.5897  1.7158
 4841SOL    HW319137   5.865   1.952   0.949 -0.4505  1.4520  1.2915
 4841SOL    MW419138   5.916   1.946   1.019  0.3476  0.1557  0.6343
 4842SOL     OW19139   0.896   1.740   3.077 -0.0535 -0.4625  0.5621
 4842SOL    HW219140   0.851   1.786   3.148  0.2690 -2.4265  2.1088
 4842SOL    HW319141   0.840   1.755   3.001 -0.8465  1.0154  1.3766
 4842SOL    MW419142   0.883   1.748   3.076 -0.1156 -0.5266  0.8736
 4843SOL     OW19143   0.821   2.614   2.922 -0.0754  0.0395 -0.2098
 4843SOL    HW219144   0.888   2.582   2.982 -0.1428  0.1370 -0.0829
 4843SOL    HW319145   0.771   2.536   2.897 -0.8953  0.1879  0.9066
 4843SOL    MW419146   0.823   2.599   2.927 -0.1924  0.0719 -0.0458
 4844SOL     OW19147   2.387   5.545   5.618 -0.3946 -0.1152 -0.0906
 4844SOL    HW219148   2.402   5.522   5.709  0.5258 -0.0462 -0.2072
 4844SOL    HW319149   2.333   5.475   5.583 -1.1074  0.0800  0.6137
 4844SOL    MW419150   2.382   5.533   5.625 -0.3672 -0.0803 -0.0130
 4845SOL     OW19151   0.681   4.073   5.172 -0.4206  0.1275  0.5910
 4845SOL    HW219152   0.749   4.050   5.236  1.3075  0.6990 -0.9298
 4845SOL    HW319153   0.657   3.990   5.132  0.7334  0.0963 -0.0907
 4845SOL    MW419154   0.687   4.059   5.175 -0.0403  0.1988  0.3004
 4846SOL     OW19155   0.622   2.094   0.543 -0.2599 -0.4345 -0.2231
 4846SOL    HW219156   0.539   2.134   0.567 -0.0699  0.8796 -1.6134
 4846SOL    HW319157   0.664   2.074   0.627 -0.3798  2.3247  0.5963
 4846SOL    MW419158   0.617   2.097   0.557 -0.2507  0.1029 -0.2984
 4847SOL     OW19159   6.091   5.878   6.316  0.5649  0.0821  0.0416
 4847SOL    HW219160   6.080   5.913   6.228 -2.3989 -2.1633 -0.6688
 4847SOL    HW319161   6.124   5.790   6.303  0.8232 -0.0160  1.2576
 4847SOL    MW419162   6.094   5.871   6.303  0.2080 -0.2271  0.1083
 4848SOL     OW19163   2.684   2.217   0.009  0.1699  0.1745 -0.1113
 4848SOL    HW219164   2.653   2.134   0.044  1.0200  0.3852  1.1828
 4848SOL    HW319165   2.703   2.271   0.086 -0.1470  1.4930 -0.9217
 4848SOL    MW419166   2.683   2.213   0.023  0.2403  0.3763 -0.0475
 4849SOL     OW19167   0.760   0.818   1.926 -0.4241  0.4910  0.2105
 4849SOL    HW219168   0.687   0.851   1.874 -0.3642 -0.6789 -0.6626
 4849SOL    HW319169   0.829   0.799   1.862 -0.7383 -2.0201  0.5109
 4849SOL    MW419170   0.759   0.819   1.911 -0.4576  0.0054  0.1349
 4850SOL     OW19171   5.350   3.263   2.832  0.4266 -0.2540 -0.1604
 4850SOL    HW219172   5.262   3.300   2.840  1.7896  3.8557 -1.7008
 4850SOL    HW319173   5.378   3.250   2.922 -1.3240 -0.5740  0.3820
 4850SOL    MW419174   5.342   3.266   2.845  0.3755  0.2460 -0.2921
 4851SOL     OW19175   5.575   1.772   0.813  0.4473 -0.0375 -0.2257
 4851SOL    HW219176   5.619   1.689   0.796 -0.4208 -0.7452  0.8248
 4851SOL    HW319177   5.505   1.750   0.874  1.0650  1.7110  1.2022
 4851SOL    MW419178   5.571   1.758   0.818  0.4142  0.0999  0.1013
 4852SOL     OW19179   0.831   0.531   0.714 -0.0407 -0.2935 -0.3485
 4852SOL    HW219180   0.857   0.465   0.649  0.4378 -0.5230  0.0703
 4852SOL    HW319181   0.758   0.490   0.761  1.4849 -1.3700  1.2183
 4852SOL    MW419182   0.825   0.517   0.712  0.2237 -0.4658 -0.0865
 4853SOL     OW19183   5.463   5.585   0.011  0.1513  0.1799  0.1956
 4853SOL    HW219184   5.468   5.504   0.061 -0.7714 -0.6975 -1.0867
 4853SOL    HW319185   5.431   5.650   0.075 -0.2967 -0.7406  0.9350
 4853SOL    MW419186   5.459   5.583   0.026 -0.0295 -0.0573  0.1240
 4854SOL     OW19187   0.355   4.608   1.703  0.2526 -0.0743 -0.4028
 4854SOL    HW219188   0.305   4.647   1.775  0.6648 -0.4670  0.1077
 4854SOL    HW319189   0.311   4.638   1.624 -1.8371 -1.7449  0.0330
 4854SOL    MW419190   0.342   4.617   1.702  0.0313 -0.3465 -0.2780
 4855SOL     OW19191   5.248   4.045   2.839 -0.1459  0.2114 -0.1100
 4855SOL    HW219192   5.292   4.126   2.813  2.6647 -0.1122  3.0554
 4855SOL    HW319193   5.212   4.010   2.757  0.8012  3.2905 -1.9964
 4855SOL    MW419194   5.249   4.051   2.825  0.3499  0.5750  0.0587
 4856SOL     OW19195   1.511   5.852   4.719 -0.7839  0.0300 -0.0518
 4856SOL    HW219196   1.547   5.938   4.741 -1.4043  0.3947 -0.4231
 4856SOL    HW319197   1.416   5.863   4.728 -0.8059 -1.0744  1.5154
 4856SOL    MW419198   1.503   5.865   4.723 -0.8687 -0.0676  0.1060
 4857SOL     OW19199   6.116   0.965   0.699 -0.3693 -0.0037 -0.0233
 4857SOL    HW219200   6.051   1.030   0.674  0.2227  0.2023 -1.0408
 4857SOL    HW319201   6.166   0.948   0.619  0.3325 -0.7289  0.5542
 4857SOL    MW419202   6.114   0.971   0.685 -0.1986 -0.0722 -0.0813
 4858SOL     OW19203   5.105   0.509   0.085 -0.8036 -0.1286  0.1467
 4858SOL    HW219204   5.068   0.421   0.081  1.2601 -1.1325  1.5279
 4858SOL    HW319205   5.164   0.514   0.009 -2.8847  1.1401 -1.5225
 4858SOL    MW419206   5.108   0.498   0.074 -0.8059 -0.0937  0.1087
 4859SOL     OW19207   3.497   1.327   1.859 -0.2313 -0.2711  0.1862
 4859SOL    HW219208   3.590   1.337   1.835 -0.2411  0.4775  0.4377
 4859SOL    HW319209   3.479   1.401   1.916 -0.8667 -0.6848  0.5335
 4859SOL    MW419210   3.507   1.338   1.863 -0.3164 -0.2269  0.2652
 4860SOL     OW19211   4.836   0.310   4.355 -0.3282  0.4536 -0.1186
 4860SOL    HW219212   4.786   0.236   4.388 -2.8815  2.5406  1.0438
 4860SOL    HW319213   4.779   0.351   4.290  0.0947  2.5189  0.7250
 4860SOL    MW419214   4.822   0.306   4.351 -0.6093  1.0015  0.1461
 4861SOL     OW19215   5.121   6.131   5.797 -0.3787 -0.2560  0.1071
 4861SOL    HW219216   5.054   6.151   5.863 -1.2937  0.8304 -1.0972
 4861SOL    HW319217   5.071   6.104   5.720  0.5754  0.2976 -0.7246
 4861SOL    MW419218   5.105   6.130   5.796 -0.3735 -0.0397 -0.1615
 4862SOL     OW19219   5.154   4.892   1.895 -0.3006 -0.0171 -0.1463
 4862SOL    HW219220   5.082   4.833   1.871 -0.1052 -0.3766  0.1239
 4862SOL    HW319221   5.220   4.834   1.935 -0.9692  0.6376  2.0426
 4862SOL    MW419222   5.153   4.876   1.897 -0.3630  0.0218  0.1781
 4863SOL     OW19223   0.913   4.577   3.857  0.4734 -0.0111  0.2236
 4863SOL    HW219224   0.876   4.489   3.868  2.0194 -0.6340  0.6766
 4863SOL    HW319225   0.836   4.635   3.852 -0.5594 -1.3113  0.4897
 4863SOL    MW419226   0.898   4.573   3.858  0.5411 -0.2648  0.3185
 4864SOL     OW19227   0.090   1.587   4.533 -0.0485  0.5140  0.2379
 4864SOL    HW219228   0.120   1.678   4.535  1.1862  0.1126  1.3809
 4864SOL    HW319229   0.016   1.588   4.472  1.0893  1.9351 -1.2336
 4864SOL    MW419230   0.084   1.599   4.525  0.2645  0.6486  0.1946
 4865SOL     OW19231   4.061   2.745   2.247  0.3561 -0.2740 -0.1374
 4865SOL    HW219232   4.142   2.701   2.222  0.8828  1.3673 -1.4608
 4865SOL    HW319233   3.996   2.711   2.185  0.3421 -0.4993 -0.0036
 4865SOL    MW419234   4.063   2.734   2.236  0.4237 -0.0872 -0.2943
 4866SOL     OW19235   0.746   0.453   6.334  0.7434  0.5210  0.1805
 4866SOL    HW219236   0.748   0.545   6.360  1.2108  0.5033  0.2039
 4866SOL    HW319237   0.702   0.454   6.249 -4.0059  0.2413  2.2898
 4866SOL    MW419238   0.740   0.466   6.326  0.1785  0.4818  0.4619
 4867SOL     OW19239   0.603   3.949   5.890 -0.0878  0.1757  0.2002
 4867SOL    HW219240   0.608   3.909   5.977  0.1519  0.7915  0.4803
 4867SOL    HW319241   0.603   4.043   5.908  0.0217  0.3077 -0.4729
 4867SOL    MW419242   0.604   3.956   5.904 -0.0417  0.2743  0.1483
 4868SOL     OW19243   5.292   1.727   4.076 -0.4497  0.2242  0.8993
 4868SOL    HW219244   5.275   1.635   4.093 -0.0876 -0.0477 -0.1310
 4868SOL    HW319245   5.380   1.742   4.110  0.5263 -0.4722 -1.1557
 4868SOL    MW419246   5.302   1.717   4.083 -0.2732  0.0965  0.4922
 4869SOL     OW19247   5.929   4.071   3.431  0.0801 -0.3245 -0.3035
 4869SOL    HW219248   5.947   3.984   3.395 -2.5491 -1.5147  0.9752
 4869SOL    HW319249   5.974   4.072   3.515 -2.3081 -1.7697  1.1087
 4869SOL    MW419250   5.937   4.060   3.437 -0.5819 -0.6722  0.0515
 4870SOL     OW19251   2.337   4.282   3.177  0.0188 -0.3626  0.5452
 4870SOL    HW219252   2.248   4.287   3.141  1.0441  0.6806 -2.1098
 4870SOL    HW319253   2.329   4.225   3.253 -2.7273 -1.1342 -0.2088
 4870SOL    MW419254   2.324   4.275   3.182 -0.2083 -0.3267  0.0954
 4871SOL     OW19255   1.354   0.264   5.856 -0.3715  0.5903  0.4001
 4871SOL    HW219256   1.261   0.279   5.835 -0.3649  0.7702  0.4966
 4871SOL    HW319257   1.401   0.293   5.777 -0.4738 -0.7799 -0.1915
 4871SOL    MW419258   1.348   0.270   5.843 -0.3841  0.4333  0.3348
 4872SOL     OW19259   1.817   0.720   6.260 -0.1184  0.3500  0.2659
 4872SOL    HW219260   1.869   0.705   6.181 -0.3607  0.8712  0.0016
 4872SOL    HW319261   1.739   0.666   6.248 -0.8847  1.5804 -0.5798
 4872SOL    MW419262   1.813   0.711   6.248 -0.2515  0.5811  0.1195
 4873SOL     OW19263   1.034   5.661   0.211  0.5976 -0.7106 -0.4665
 4873SOL    HW219264   0.977   5.671   0.135 -0.2395 -0.2165  0.2087
 4873SOL    HW319265   0.974   5.662   0.286  1.4355 -0.8816  0.2194
 4873SOL    MW419266   1.018   5.662   0.211  0.5977 -0.6680 -0.2869
 4874SOL     OW19267   1.003   3.023   3.890  0.3299 -0.0581 -0.0044
 4874SOL    HW219268   1.030   3.071   3.811  1.3041 -2.1530 -1.0155
 4874SOL    HW319269   0.913   3.051   3.905  0.5250  1.3150 -1.1208
 4874SOL    MW419270   0.995   3.033   3.881  0.4842 -0.1533 -0.2851
 4875SOL     OW19271   4.394   5.932   1.974 -0.1602 -0.1086  0.0349
 4875SOL    HW219272   4.347   5.975   2.046 -0.7186  0.5527 -0.7153
 4875SOL    HW319273   4.460   5.996   1.948  1.8964 -1.3930  1.7268
 4875SOL    MW419274   4.397   5.946   1.980  0.0375 -0.1908  0.1592
 4876SOL     OW19275   5.137   3.740   3.635 -0.0119 -0.4699 -0.7073
 4876SOL    HW219276   5.047   3.768   3.654  0.5031  0.2216  0.7833
 4876SOL    HW319277   5.132   3.705   3.545 -1.1202  2.5386 -1.9397
 4876SOL    MW419278   5.124   3.739   3.625 -0.0902  0.0183 -0.6732
 4877SOL     OW19279   0.446   0.960   2.394  0.7118 -0.4921  0.1612
 4877SOL    HW219280   0.440   1.036   2.452 -0.5090 -1.1368  0.9346
 4877SOL    HW319281   0.404   0.889   2.443 -2.4816 -0.5699 -2.3047
 4877SOL    MW419282   0.439   0.961   2.408  0.1294 -0.5874 -0.0621
 4878SOL     OW19283   5.637   2.810   6.193  0.1880  0.4269  0.1249
 4878SOL    HW219284   5.710   2.867   6.170 -0.2736  1.1339  0.3646
 4878SOL    HW319285   5.588   2.859   6.259  0.6051 -0.8795  1.4667
 4878SOL    MW419286   5.640   2.824   6.199  0.1821  0.3478  0.3336
 4879SOL     OW19287   5.628   5.196   1.040 -0.1569  0.0478 -0.2776
 4879SOL    HW219288   5.550   5.167   1.087  0.9740 -1.4765  0.7197
 4879SOL    HW319289   5.606   5.182   0.948 -1.1304 -0.1409 -0.0337
 4879SOL    MW419290   5.615   5.190   1.034 -0.1361 -0.1782 -0.1139
 4880SOL     OW19291   1.832   3.888   2.448  0.7360 -0.3668 -0.5893
 4880SOL    HW219292   1.794   3.810   2.488  0.9883 -0.7048 -0.9963
 4880SOL    HW319293   1.851   3.946   2.522  0.0435 -0.4627 -0.3326
 4880SOL    MW419294   1.830   3.885   2.463  0.6779 -0.4240 -0.6091
 4881SOL     OW19295   4.496   1.323   3.312  0.0512 -0.7683 -0.1775
 4881SOL    HW219296   4.465   1.406   3.348  2.2394 -1.5769  4.1448
 4881SOL    HW319297   4.587   1.340   3.288  0.6256 -1.9105  1.0682
 4881SOL    MW419298   4.504   1.337   3.313  0.4157 -1.0257  0.5571
 4882SOL     OW19299   3.270   2.190   2.620 -0.3421  0.0795 -0.1086
 4882SOL    HW219300   3.176   2.207   2.629 -0.1579  1.1522 -0.1051
 4882SOL    HW319301   3.279   2.153   2.532 -1.0113 -1.9882  0.6350
 4882SOL    MW419302   3.259   2.187   2.609 -0.4061 -0.0517 -0.0100
 4883SOL     OW19303   1.901   6.269   5.661  0.3855  0.1914  0.3167
 4883SOL    HW219304   1.947   6.348   5.634  1.7737 -1.0309 -1.1362
 4883SOL    HW319305   1.926   6.256   5.752  1.4797  0.5523  0.0857
 4883SOL    MW419306   1.910   6.278   5.669  0.7130  0.0777  0.0945
 4884SOL     OW19307   0.025   5.904   5.462  0.5255  0.0554  0.1275
 4884SOL    HW219308   0.107   5.918   5.416  0.9222 -0.7156  0.5783
 4884SOL    HW319309   0.013   5.982   5.517  0.5518  0.5210 -0.5262
 4884SOL    MW419310   0.034   5.916   5.463  0.5813  0.0151  0.1007
 4885SOL     OW19311   1.804   6.138   2.859  0.0472  0.4499 -0.3806
 4885SOL    HW219312   1.827   6.231   2.863  0.9878  0.2991 -1.5195
 4885SOL    HW319313   1.805   6.117   2.766 -0.6905 -0.5887 -0.1760
 4885SOL    MW419314   1.807   6.147   2.847  0.0740  0.2930 -0.5039
 4886SOL     OW19315   5.076   1.804   2.144  0.2338  0.4773 -0.4179
 4886SOL    HW219316   5.101   1.848   2.062  1.3197 -1.1814 -1.0346
 4886SOL    HW319317   5.100   1.712   2.130  0.4516  0.1455  1.7677
 4886SOL    MW419318   5.083   1.798   2.131  0.4058  0.2147 -0.2109
 4887SOL     OW19319   3.664   3.532   5.831 -0.0563  0.0749 -0.2396
 4887SOL    HW219320   3.710   3.525   5.914  1.4322  0.3788 -1.0074
 4887SOL    HW319321   3.652   3.441   5.802  2.4389  0.0126 -1.2622
 4887SOL    MW419322   3.668   3.519   5.838  0.4693  0.1068 -0.4758
 4888SOL     OW19323   4.286   1.809   2.417 -0.1365  0.3737 -0.3652
 4888SOL    HW219324   4.348   1.813   2.490  0.0137 -1.6074 -0.3398
 4888SOL    HW319325   4.334   1.769   2.346  0.1900  3.6023 -2.1705
 4888SOL    MW419326   4.300   1.804   2.417 -0.0736  0.5383 -0.6000
 4889SOL     OW19327   1.165   4.112   0.641  0.0848  0.0239 -0.2941
 4889SOL    HW219328   1.250   4.082   0.673  1.9709  1.1231 -3.7527
 4889SOL    HW319329   1.118   4.032   0.620 -0.2596 -0.6325  2.5937
 4889SOL    MW419330   1.170   4.098   0.643  0.2882  0.0823 -0.3694
 4890SOL     OW19331   4.688   5.053   6.369 -0.5186  0.2960 -0.6812
 4890SOL    HW219332   4.665   4.973   6.416  1.7084 -1.6132 -2.5703
 4890SOL    HW319333   4.606   5.101   6.361 -1.5968 -0.9118  2.0462
 4890SOL    MW419334   4.674   5.049   6.374 -0.3670 -0.1152 -0.5706
 4891SOL     OW19335   0.977   4.827   4.077  0.3376  0.0267 -0.7954
 4891SOL    HW219336   1.037   4.783   4.137  0.4886 -1.1557 -1.7833
 4891SOL    HW319337   0.924   4.757   4.041 -0.2520  0.8180 -1.4904
 4891SOL    MW419338   0.978   4.812   4.081  0.2797 -0.0249 -1.0174
 4892SOL     OW19339   1.891   2.142   0.951  0.2395 -0.0024  0.1919
 4892SOL    HW219340   1.827   2.095   1.004  0.4785 -0.4367  0.0929
 4892SOL    HW319341   1.894   2.230   0.990 -0.4337  0.0300  0.1751
 4892SOL    MW419342   1.883   2.148   0.963  0.1822 -0.0554  0.1766
 4893SOL     OW19343   4.354   2.971   4.246 -0.0146 -0.0885  0.0332
 4893SOL    HW219344   4.310   3.053   4.268 -1.2974 -1.0350  1.0779
 4893SOL    HW319345   4.360   2.972   4.150 -1.4154  0.5146 -0.0622
 4893SOL    MW419346   4.349   2.982   4.236 -0.3687 -0.1338  0.1585
 4894SOL     OW19347   3.650   2.709   4.286  0.0255  0.1720  0.4505
 4894SOL    HW219348   3.717   2.773   4.263  0.0199 -0.1418 -0.4817
 4894SOL    HW319349   3.652   2.705   4.382  0.0476  1.5319  0.5205
 4894SOL    MW419350   3.659   2.717   4.296  0.0277  0.3100  0.3368
 4895SOL     OW19351   2.072   4.367   2.359  0.3138  0.3295  0.0414
 4895SOL    HW219352   2.036   4.280   2.344 -1.2356  0.7923  0.8938
 4895SOL    HW319353   2.047   4.417   2.282 -0.4978  0.5204  0.4170
 4895SOL    MW419354   2.064   4.362   2.347  0.0023  0.4157  0.2034
 4896SOL     OW19355   1.159   2.668   1.301  0.0231  0.7569 -0.3758
 4896SOL    HW219356   1.213   2.737   1.262  0.4245  1.7451  1.7349
 4896SOL    HW319357   1.134   2.703   1.387 -0.0548 -1.5773  0.6504
 4896SOL    MW419358   1.163   2.682   1.308  0.0658  0.5793  0.0381
 4897SOL     OW19359   3.922   2.447   0.243 -0.2247 -0.1738  0.1111
 4897SOL    HW219360   3.972   2.372   0.213 -0.6873 -0.6145  0.4267
 4897SOL    HW319361   3.984   2.520   0.240 -0.1673 -0.2477 -1.6332
 4897SOL    MW419362   3.936   2.447   0.238 -0.2782 -0.2417 -0.0774
 4898SOL     OW19363   5.682   0.838   3.917 -0.1169 -0.0446 -0.2183
 4898SOL    HW219364   5.751   0.774   3.927 -0.0351 -0.1335 -1.3049
 4898SOL    HW319365   5.713   0.915   3.966 -0.2450 -0.8153  1.1336
 4898SOL    MW419366   5.695   0.840   3.925 -0.1230 -0.1580 -0.1833
 4899SOL     OW19367   0.505   4.897   3.256 -0.1254  0.2259 -0.3546
 4899SOL    HW219368   0.500   4.868   3.165  1.0749 -0.4584 -0.2287
 4899SOL    HW319369   0.598   4.915   3.271 -0.1175 -0.7822  1.0456
 4899SOL    MW419370   0.517   4.895   3.246  0.0340  0.0026 -0.1532
 4900SOL     OW19371   3.048   3.569   2.337  0.3674  0.2546  0.6347
 4900SOL    HW219372   3.116   3.503   2.328  0.5058  0.4240  0.4122
 4900SOL    HW319373   3.073   3.620   2.414 -0.0905 -0.3559  1.2009
 4900SOL    MW419374   3.060   3.567   2.346  0.3253  0.1964  0.6800
 4901SOL     OW19375   3.108   2.424   5.425  0.3558 -0.3530 -0.2372
 4901SOL    HW219376   3.125   2.407   5.333  1.7771 -0.2581 -0.0052
 4901SOL    HW319377   3.035   2.365   5.447  0.9619 -1.4390 -1.0535
 4901SOL    MW419378   3.100   2.414   5.416  0.6233 -0.4838 -0.3143
 4902SOL     OW19379   1.946   3.077   3.138  0.1114  0.1567  0.3132
 4902SOL    HW219380   2.037   3.060   3.114 -0.2241 -2.1243  0.4196
 4902SOL    HW319381   1.905   2.990   3.141 -1.7125  0.9811  1.6871
 4902SOL    MW419382   1.953   3.063   3.135 -0.1735 -0.0355  0.5085
 4903SOL     OW19383   1.033   3.196   4.229  0.2750  0.2755 -0.1801
 4903SOL    HW219384   0.941   3.222   4.225  0.4323  0.7760 -0.6497
 4903SOL    HW319385   1.081   3.276   4.209  0.7800 -0.3010 -1.3119
 4903SOL    MW419386   1.027   3.210   4.226  0.3624  0.2655 -0.3914
 4904SOL     OW19387   3.291   4.699   2.560  0.1547 -0.6002  0.3960
 4904SOL    HW219388   3.205   4.730   2.585 -0.5126 -1.4333 -0.7411
 4904SOL    HW319389   3.328   4.769   2.506  0.3745 -0.0778  1.2007
 4904SOL    MW419390   3.285   4.712   2.556  0.0956 -0.6412  0.3521
 4905SOL     OW19391   2.226   0.692   1.597  0.3105  0.4025  0.1705
 4905SOL    HW219392   2.220   0.637   1.675  0.0773 -2.0721 -1.4822
 4905SOL    HW319393   2.152   0.665   1.542  1.1543  1.1744 -1.4202
 4905SOL    MW419394   2.216   0.681   1.600  0.3911  0.1779 -0.2574
 4906SOL     OW19395   3.534   5.800   3.242  0.2495 -0.1514  0.0438
 4906SOL    HW219396   3.618   5.761   3.265  0.2899 -0.5771 -0.7742
 4906SOL    HW319397   3.557   5.878   3.190  0.1487 -0.9427 -1.2301
 4906SOL    MW419398   3.548   5.805   3.238  0.2415 -0.3120 -0.2322
 4907SOL     OW19399   0.200   0.415   3.551  0.0889 -0.2664 -0.9926
 4907SOL    HW219400   0.198   0.359   3.629 -0.6506  0.8307 -0.1976
 4907SOL    HW319401   0.108   0.435   3.533  0.2351 -0.7105 -2.3159
 4907SOL    MW419402   0.188   0.410   3.559  0.0106 -0.1802 -1.0623
 4908SOL     OW19403   6.379   5.026   1.331  0.2925  0.1248  0.6760
 4908SOL    HW219404   6.427   5.014   1.249 -1.2618 -0.1926 -0.2332
 4908SOL    HW319405   6.445   5.017   1.399  1.4516 -0.6941 -0.5077
 4908SOL    MW419406   6.394   5.023   1.329  0.2404 -0.0251  0.3999
 4909SOL     OW19407   5.840   4.287   4.698 -0.4623 -0.1700 -0.0740
 4909SOL    HW219408   5.826   4.358   4.761 -0.0086  0.5935 -0.8191
 4909SOL    HW319409   5.935   4.276   4.695 -0.5310 -0.9316  0.1449
 4909SOL    MW419410   5.851   4.295   4.706 -0.4115 -0.1697 -0.1435
 4910SOL     OW19411   1.454   1.505   4.658 -0.2647 -0.1151  0.3724
 4910SOL    HW219412   1.547   1.523   4.647 -0.2813  0.4345  1.1156
 4910SOL    HW319413   1.422   1.493   4.568  0.1681  1.4513 -0.0201
 4910SOL    MW419414   1.462   1.506   4.644 -0.2098  0.1641  0.4187
 4911SOL     OW19415   0.667   1.065   0.916 -0.1969 -0.0542 -0.0068
 4911SOL    HW219416   0.686   1.027   0.830  0.1905  0.0593  0.0275
 4911SOL    HW319417   0.579   1.101   0.907 -0.0573  0.1901 -0.4407
 4911SOL    MW419418   0.658   1.065   0.903 -0.1274 -0.0070 -0.0595
 4912SOL     OW19419   0.146   1.311   3.817 -0.6251  0.0474 -0.4171
 4912SOL    HW219420   0.149   1.244   3.750 -0.6833  0.1984 -0.5707
 4912SOL    HW319421   0.212   1.375   3.791  0.3110 -0.5595  0.3851
 4912SOL    MW419422   0.155   1.311   3.805 -0.5093 -0.0127 -0.3315
 4913SOL     OW19423   4.555   0.388   4.258  0.2642  0.1043  0.2429
 4913SOL    HW219424   4.595   0.367   4.173  0.1916  1.6469 -0.1968
 4913SOL    HW319425   4.572   0.481   4.270 -1.1427  0.2687  1.1677
 4913SOL    MW419426   4.563   0.397   4.248  0.0690  0.3295  0.3069
 4914SOL     OW19427   3.670   3.245   6.251  0.3179  0.0477  0.1882
 4914SOL    HW219428   3.672   3.154   6.221 -2.7245  0.5689 -2.1588
 4914SOL    HW319429   3.587   3.279   6.217  0.5885  3.2737  2.3590
 4914SOL    MW419430   3.659   3.237   6.242 -0.0478  0.5421  0.1650
 4915SOL     OW19431   0.277   0.649   4.026 -0.1034 -0.4647 -0.4413
 4915SOL    HW219432   0.246   0.731   4.064  1.3270  0.7985 -1.8422
 4915SOL    HW319433   0.218   0.632   3.953 -1.1918 -1.4265  0.6237
 4915SOL    MW419434   0.265   0.658   4.021 -0.0583 -0.4249 -0.4857
 4916SOL     OW19435   6.203   1.193   2.641  0.6006 -0.0733  0.2207
 4916SOL    HW219436   6.196   1.107   2.600  1.5453  0.0509 -0.2307
 4916SOL    HW319437   6.137   1.192   2.710 -0.1355 -0.7640 -0.4635
 4916SOL    MW419438   6.193   1.182   2.645  0.6281 -0.1480  0.0709
 4917SOL     OW19439   2.850   4.154   4.694  0.4340  0.6546 -0.4025
 4917SOL    HW219440   2.854   4.240   4.653  2.2090  0.5522 -0.4909
 4917SOL    HW319441   2.941   4.128   4.706 -0.0613 -1.0352  0.0047
 4917SOL    MW419442   2.862   4.162   4.690  0.6028  0.4181 -0.3605
 4918SOL     OW19443   1.212   5.583   5.059  0.0481 -0.0864  0.1315
 4918SOL    HW219444   1.171   5.551   4.979  0.5950 -0.6835  0.0711
 4918SOL    HW319445   1.147   5.568   5.127 -0.2210 -0.0726 -0.1221
 4918SOL    MW419446   1.198   5.577   5.057  0.0848 -0.1634  0.0900
 4919SOL     OW19447   1.564   5.805   1.014  0.3263  0.0512  0.2907
 4919SOL    HW219448   1.644   5.791   1.065  0.1819 -0.9828  0.2558
 4919SOL    HW319449   1.493   5.783   1.075  0.1794 -2.5606 -0.6831
 4919SOL    MW419450   1.565   5.800   1.029  0.2878 -0.4298  0.1576
 4920SOL     OW19451   1.122   3.825   6.268 -0.2831 -0.4812  0.2226
 4920SOL    HW219452   1.133   3.825   6.363 -1.3504 -0.0306  0.3587
 4920SOL    HW319453   1.035   3.862   6.254  0.3561  0.6267 -0.9987
 4920SOL    MW419454   1.112   3.830   6.279 -0.3396 -0.2756  0.0794
 4921SOL     OW19455   3.693   6.051   4.089  0.0813 -0.4388 -0.7654
 4921SOL    HW219456   3.612   6.002   4.105  1.8072 -3.1149  0.7019
 4921SOL    HW319457   3.707   6.045   3.994 -1.0335 -0.6487 -0.9241
 4921SOL    MW419458   3.684   6.044   4.078  0.1619 -0.8196 -0.5927
 4922SOL     OW19459   0.474   5.738   5.022  0.2215 -0.6148  0.0010
 4922SOL    HW219460   0.435   5.725   5.108 -0.1157  1.5900  0.2339
 4922SOL    HW319461   0.534   5.812   5.033 -0.3486  0.1740 -1.7664
 4922SOL    MW419462   0.476   5.746   5.034  0.1018 -0.2198 -0.2015
 4923SOL     OW19463   2.907   3.105   3.114 -0.1370  0.3379  0.0380
 4923SOL    HW219464   2.879   3.140   3.198  0.1989  0.0373  0.2787
 4923SOL    HW319465   2.879   3.013   3.116 -0.5343  0.4479 -0.3656
 4923SOL    MW419466   2.900   3.097   3.125 -0.1451  0.3128  0.0165
 4924SOL     OW19467   4.329   4.301   1.454  0.1907  0.4580 -0.3556
 4924SOL    HW219468   4.313   4.396   1.456  1.6727  0.7363 -0.5643
 4924SOL    HW319469   4.353   4.282   1.364 -3.0957 -0.7167 -1.1160
 4924SOL    MW419470   4.330   4.311   1.443 -0.0473  0.3397 -0.4835
 4925SOL     OW19471   5.181   4.456   2.729 -0.1187 -0.0241  0.6384
 4925SOL    HW219472   5.133   4.462   2.647  0.1600 -1.3596  0.3660
 4925SOL    HW319473   5.247   4.388   2.715  0.8101  0.6450  1.5361
 4925SOL    MW419474   5.183   4.448   2.717  0.0406 -0.1120  0.7209
 4926SOL     OW19475   1.365   6.380   1.301  0.2606 -0.4222 -0.1143
 4926SOL    HW219476   1.369   6.416   1.213 -0.1670  0.2978  0.1499
 4926SOL    HW319477   1.408   6.446   1.356 -0.0567 -0.5558  0.3039
 4926SOL    MW419478   1.371   6.394   1.297  0.1623 -0.3449 -0.0242
 4927SOL     OW19479   3.206   2.094   1.918 -0.3576  0.4213 -0.1663
 4927SOL    HW219480   3.238   2.012   1.880 -0.7957  0.4271 -0.5493
 4927SOL    HW319481   3.271   2.159   1.891 -0.0269  0.2085  0.1095
 4927SOL    MW419482   3.219   2.092   1.909 -0.3717  0.3940 -0.1805
 4928SOL     OW19483   2.014   3.111   3.839 -0.0271  0.3295 -0.3590
 4928SOL    HW219484   2.056   3.196   3.841  0.0485  0.2920 -0.3583
 4928SOL    HW319485   1.981   3.099   3.928  0.0173  0.3303 -0.3426
 4928SOL    MW419486   2.015   3.120   3.851 -0.0113  0.3247 -0.3568
 4929SOL     OW19487   4.310   2.803   5.983  0.0830  0.3535  0.0943
 4929SOL    HW219488   4.355   2.868   5.929  2.1287 -0.6276  0.4990
 4929SOL    HW319489   4.299   2.727   5.926  2.3143 -0.7118  0.9453
 4929SOL    MW419490   4.315   2.801   5.969  0.6473  0.0835  0.2599
 4930SOL     OW19491   5.441   0.372   2.919  0.1897  0.3555  0.9964
 4930SOL    HW219492   5.532   0.343   2.928  0.1800  0.1871  0.5246
 4930SOL    HW319493   5.400   0.306   2.864 -0.2283  0.4176  1.2333
 4930SOL    MW419494   5.448   0.359   2.913  0.1332  0.3415  0.9654
 4931SOL     OW19495   0.539   5.963   0.894  0.4821  0.4648  0.1686
 4931SOL    HW219496   0.579   5.905   0.959 -0.3633  1.8524  2.0086
 4931SOL    HW319497   0.497   5.903   0.831 -0.2780 -0.9430  1.9324
 4931SOL    MW419498   0.539   5.947   0.894  0.2702  0.4621  0.6441
 4932SOL     OW19499   0.753   0.958   2.330  0.4687  0.2225 -0.1490
 4932SOL    HW219500   0.669   0.955   2.377 -0.1801 -0.3567 -1.2837
 4932SOL    HW319501   0.734   1.009   2.252  1.7972  2.0687  0.6783
 4932SOL    MW419502   0.739   0.964   2.326  0.5583  0.3897 -0.1895
 4933SOL     OW19503   0.285   4.736   0.766 -0.8931  0.0797  0.0299
 4933SOL    HW219504   0.285   4.830   0.783 -0.3471 -0.1407  1.3436
 4933SOL    HW319505   0.370   4.719   0.727 -0.2779 -0.1046  1.3759
 4933SOL    MW419506   0.296   4.746   0.763 -0.7399  0.0263  0.3808
 4934SOL     OW19507   4.067   1.608   3.604  0.2089  0.6057  0.4040
 4934SOL    HW219508   4.060   1.697   3.569 -0.4358  0.3763 -0.0887
 4934SOL    HW319509   3.982   1.568   3.584  1.0509 -0.6600 -0.9063
 4934SOL    MW419510   4.055   1.614   3.597  0.2349  0.4084  0.1661
 4935SOL     OW19511   3.024   5.273   1.687 -0.3369 -0.2199 -0.4785
 4935SOL    HW219512   2.941   5.242   1.724 -0.7332 -0.4441 -1.5173
 4935SOL    HW319513   3.038   5.359   1.727 -0.5963 -0.5725  0.3988
 4935SOL    MW419514   3.015   5.280   1.697 -0.4234 -0.2960 -0.4998
 4936SOL     OW19515   2.440   0.488   5.880 -0.3459  0.0683  0.2596
 4936SOL    HW219516   2.349   0.461   5.864 -0.1256 -0.0925 -0.7844
 4936SOL    HW319517   2.436   0.584   5.881 -0.7754  0.0542  1.8222
 4936SOL    MW419518   2.427   0.497   5.878 -0.3735  0.0453  0.3281
 4937SOL     OW19519   1.112   3.772   1.723 -0.1656 -0.0463 -0.2833
 4937SOL    HW219520   1.101   3.748   1.815  0.2774 -1.6501 -0.6039
 4937SOL    HW319521   1.163   3.853   1.725 -0.6820  0.2704  0.8846
 4937SOL    MW419522   1.117   3.779   1.736 -0.1753 -0.2161 -0.1715
 4938SOL     OW19523   6.046   4.716   0.823  0.4466 -0.3650 -0.2033
 4938SOL    HW219524   5.957   4.736   0.796  1.1611  1.4582 -1.4348
 4938SOL    HW319525   6.036   4.663   0.902 -1.6995 -0.0977 -0.2337
 4938SOL    MW419526   6.033   4.711   0.830  0.2577 -0.0892 -0.3698
 4939SOL     OW19527   6.167   2.883   1.531  0.1617 -0.2810  0.0800
 4939SOL    HW219528   6.091   2.940   1.544  0.6672  0.3767  0.2355
 4939SOL    HW319529   6.224   2.933   1.473  0.6083 -0.6358  0.2079
 4939SOL    MW419530   6.165   2.897   1.525  0.2873 -0.2411  0.1174
 4940SOL     OW19531   4.823   0.723   5.509  0.0126  0.5407  0.5869
 4940SOL    HW219532   4.872   0.805   5.518  0.0264  0.3667  2.5738
 4940SOL    HW319533   4.874   0.659   5.558 -0.6626 -0.3551  0.1465
 4940SOL    MW419534   4.836   0.726   5.517 -0.0746  0.3996  0.7910
 4941SOL     OW19535   3.854   1.071   6.272 -0.3300  0.2872 -0.1086
 4941SOL    HW219536   3.927   1.057   6.212 -0.2955  0.4203 -0.0982
 4941SOL    HW319537   3.788   1.116   6.220  0.4391  2.1565  0.4260
 4941SOL    MW419538   3.855   1.075   6.257 -0.2240  0.5514 -0.0367
 4942SOL     OW19539   2.603   3.585   1.540 -0.6699 -0.3426 -0.2144
 4942SOL    HW219540   2.519   3.561   1.502 -1.0917  1.4208 -0.4376
 4942SOL    HW319541   2.583   3.654   1.603  0.7892  1.5868 -1.7411
 4942SOL    MW419542   2.590   3.591   1.544 -0.5331  0.1446 -0.4453
 4943SOL     OW19543   4.270   0.789   0.403  0.8625 -0.3802  0.6303
 4943SOL    HW219544   4.254   0.820   0.314  0.6098  1.6765  1.3335
 4943SOL    HW319545   4.249   0.864   0.458 -0.5222 -2.0854  2.5592
 4943SOL    MW419546   4.265   0.803   0.398  0.6465 -0.3338  0.9776
 4944SOL     OW19547   3.390   4.126   4.846  0.2055  0.3474  0.0819
 4944SOL    HW219548   3.451   4.073   4.795  1.3591  1.2778  0.4602
 4944SOL    HW319549   3.350   4.184   4.782  1.0565  0.9606  0.0862
 4944SOL    MW419550   3.393   4.127   4.831  0.4700  0.5510  0.1324
 4945SOL     OW19551   5.100   4.896   5.492 -0.1562 -0.5448  0.1336
 4945SOL    HW219552   5.072   4.820   5.441 -1.3247  1.0465 -1.6979
 4945SOL    HW319553   5.195   4.884   5.502 -0.1893 -1.8277 -0.8097
 4945SOL    MW419554   5.109   4.884   5.487 -0.3148 -0.5041 -0.2325
 4946SOL     OW19555   0.317   4.793   5.132  0.7366 -0.2555  0.1151
 4946SOL    HW219556   0.334   4.853   5.059  0.8081  0.4692  0.7235
 4946SOL    HW319557   0.239   4.745   5.105  0.3266  0.5264 -0.1325
 4946SOL    MW419558   0.309   4.795   5.119  0.6919 -0.0567  0.1627
 4947SOL     OW19559   2.961   4.839   5.184 -0.1980 -0.2106 -0.0712
 4947SOL    HW219560   2.904   4.783   5.131 -0.1949 -3.4762  2.9980
 4947SOL    HW319561   3.041   4.847   5.133 -0.8986 -1.4080 -1.4261
 4947SOL    MW419562   2.964   4.833   5.170 -0.2900 -0.7995  0.1550
 4948SOL     OW19563   4.905   4.201   3.942 -0.2894  0.1745 -0.0151
 4948SOL    HW219564   4.981   4.163   3.897  0.0774  0.1285  0.6381
 4948SOL    HW319565   4.943   4.257   4.009 -0.8335  1.2978 -0.6278
 4948SOL    MW419566   4.920   4.203   3.945 -0.3128  0.3167 -0.0098
 4949SOL     OW19567   2.714   5.047   0.804  0.1979  0.3694  0.2138
 4949SOL    HW219568   2.621   5.050   0.825  0.4513  0.1121  1.4253
 4949SOL    HW319569   2.736   5.137   0.780 -1.2509 -0.2321 -4.3481
 4949SOL    MW419570   2.705   5.059   0.803  0.0402  0.2561 -0.2282
 4950SOL     OW19571   1.850   2.872   0.603  0.6053 -0.0120  0.2533
 4950SOL    HW219572   1.825   2.946   0.659 -0.7343  1.0920 -1.6592
 4950SOL    HW319573   1.838   2.905   0.513  0.2530 -2.4660 -0.6783
 4950SOL    MW419574   1.845   2.886   0.598  0.3821 -0.1901 -0.1219
 4951SOL     OW19575   3.185   1.493   0.082 -0.3926  0.0139  0.0279
 4951SOL    HW219576   3.242   1.567   0.057 -0.6301  0.0591 -0.3920
 4951SOL    HW319577   3.107   1.534   0.118 -0.5945 -0.0267 -0.3593
 4951SOL    MW419578   3.182   1.508   0.083 -0.4506  0.0145 -0.0786
 4952SOL     OW19579   0.247   0.301   2.107 -0.1148  0.7301  0.1427
 4952SOL    HW219580   0.303   0.375   2.128  1.1781 -0.2680  0.3682
 4952SOL    HW319581   0.227   0.261   2.192  0.9217 -0.3642 -0.0989
 4952SOL    MW419582   0.251   0.305   2.121  0.1925  0.4540  0.1406
 4953SOL     OW19583   4.068   3.305   3.120 -0.5748 -0.0455  0.2856
 4953SOL    HW219584   4.128   3.377   3.103  0.9950 -1.3591  0.0532
 4953SOL    HW319585   4.089   3.240   3.053 -0.3224 -1.6721  1.8673
 4953SOL    MW419586   4.079   3.306   3.109 -0.3344 -0.4334  0.4636
 4954SOL     OW19587   3.143   2.795   5.237 -0.2359 -0.4070  0.1473
 4954SOL    HW219588   3.118   2.777   5.328 -2.1467 -0.1640 -0.2879
 4954SOL    HW319589   3.101   2.879   5.217  0.0614 -0.5126 -0.9885
 4954SOL    MW419590   3.134   2.804   5.246 -0.4488 -0.3889 -0.0600
 4955SOL     OW19591   0.297   4.367   5.931 -0.3060  0.3275  0.2481
 4955SOL    HW219592   0.367   4.396   5.989 -2.6455  1.0423  2.9181
 4955SOL    HW319593   0.285   4.274   5.953  0.2398 -0.0024 -0.7635
 4955SOL    MW419594   0.305   4.358   5.941 -0.5427  0.3783  0.4669
 4956SOL     OW19595   4.478   5.130   5.283 -0.5265 -0.5723 -0.4847
 4956SOL    HW219596   4.461   5.092   5.369 -1.2546 -1.1340 -0.8564
 4956SOL    HW319597   4.548   5.075   5.246  0.4706  0.2663  0.1153
 4956SOL    MW419598   4.485   5.118   5.290 -0.4910 -0.5358 -0.4546
 4957SOL     OW19599   6.368   3.601   4.107  0.5771  1.0382 -0.0740
 4957SOL    HW219600   6.293   3.660   4.106 -0.4209  0.2660  4.4925
 4957SOL    HW319601   6.330   3.514   4.119  2.1119  0.4845  1.1437
 4957SOL    MW419602   6.353   3.598   4.109  0.6479  0.8633  0.6891
 4958SOL     OW19603   0.651   1.368   3.982 -0.5283 -0.1143 -0.3744
 4958SOL    HW219604   0.710   1.433   4.021  0.3866 -1.7827  1.1783
 4958SOL    HW319605   0.648   1.297   4.047 -1.2670 -1.7391 -2.1049
 4958SOL    MW419606   0.659   1.367   3.996 -0.5050 -0.5488 -0.3979
 4959SOL     OW19607   2.125   2.827   2.773 -0.5205  0.5095 -0.0278
 4959SOL    HW219608   2.186   2.757   2.750 -0.0751  0.6526  0.6858
 4959SOL    HW319609   2.061   2.827   2.702 -2.0485 -2.3161  1.1673
 4959SOL    MW419610   2.125   2.818   2.761 -0.6633  0.1555  0.2241
 4960SOL     OW19611   4.261   2.850   2.876 -0.2971  0.2962 -0.3609
 4960SOL    HW219612   4.216   2.782   2.826 -1.2163  0.8799 -0.3658
 4960SOL    HW319613   4.231   2.837   2.966  1.0591 -0.5152  0.0030
 4960SOL    MW419614   4.251   2.839   2.881 -0.2395  0.2662 -0.3135
 4961SOL     OW19615   4.272   2.364   3.562  0.3160 -0.2313 -0.3291
 4961SOL    HW219616   4.221   2.443   3.584  1.4005  0.1610  0.9307
 4961SOL    HW319617   4.339   2.395   3.501  0.3374 -0.3085 -0.3438
 4961SOL    MW419618   4.274   2.379   3.557  0.4619 -0.1897 -0.1648
 4962SOL     OW19619   5.726   2.211   2.348 -0.0709 -0.1712 -0.0763
 4962SOL    HW219620   5.646   2.249   2.312  0.1163  0.7296  0.4292
 4962SOL    HW319621   5.701   2.179   2.434  0.1677  0.3859  0.2094
 4962SOL    MW419622   5.713   2.212   2.355 -0.0147  0.0211  0.0281
 4963SOL     OW19623   2.957   4.087   2.875  0.0438  0.0784  0.0261
 4963SOL    HW219624   2.875   4.037   2.875  0.7871 -1.1673 -0.4482
 4963SOL    HW319625   2.973   4.105   2.968  0.3664 -1.6129  0.3333
 4963SOL    MW419626   2.948   4.083   2.887  0.1844 -0.3091  0.0040
 4964SOL     OW19627   4.571   0.848   1.566 -0.3420 -0.5239 -0.3494
 4964SOL    HW219628   4.553   0.933   1.606 -0.9959 -0.3350 -1.0242
 4964SOL    HW319629   4.621   0.869   1.487  0.4484 -0.8546  0.0489
 4964SOL    MW419630   4.575   0.862   1.561 -0.3240 -0.5426 -0.3859
 4965SOL     OW19631   2.108   6.275   0.350  0.1280  0.1091 -0.4078
 4965SOL    HW219632   2.058   6.227   0.284 -0.3150  0.9328 -0.6862
 4965SOL    HW319633   2.086   6.367   0.335  0.6951  0.3789  0.3314
 4965SOL    MW419634   2.098   6.280   0.340  0.1444  0.2533 -0.3470
 4966SOL     OW19635   0.340   0.832   5.102  0.1427 -0.0541 -0.2514
 4966SOL    HW219636   0.431   0.824   5.073  0.4129 -0.8030  0.7400
 4966SOL    HW319637   0.290   0.848   5.022  1.0495 -0.4280 -0.9021
 4966SOL    MW419638   0.345   0.833   5.087  0.2980 -0.2022 -0.2065
 4967SOL     OW19639   3.143   5.891   4.328  0.2015  0.3736 -0.3610
 4967SOL    HW219640   3.062   5.845   4.307 -1.1739  1.2902  2.4824
 4967SOL    HW319641   3.156   5.952   4.255 -0.7866 -0.8120 -1.5934
 4967SOL    MW419642   3.134   5.893   4.315 -0.1103  0.3381 -0.1485
 4968SOL     OW19643   6.164   0.115   5.030  0.3442  0.1682  0.0740
 4968SOL    HW219644   6.239   0.072   4.991  0.1376 -1.7121  1.6458
 4968SOL    HW319645   6.089   0.083   4.980  0.3916  0.5770 -0.2706
 4968SOL    MW419646   6.164   0.105   5.018  0.3232 -0.0260  0.2359
 4969SOL     OW19647   3.158   1.088   1.941 -0.0402 -0.0451 -0.1797
 4969SOL    HW219648   3.123   1.009   1.984  0.3547 -0.3005 -0.3236
 4969SOL    HW319649   3.099   1.158   1.968 -0.8641 -0.5243 -0.6680
 4969SOL    MW419650   3.145   1.087   1.950 -0.0968 -0.1420 -0.2631
 4970SOL     OW19651   3.514   0.461   0.392  0.1052 -0.5144 -0.3591
 4970SOL    HW219652   3.582   0.412   0.438  0.6041 -0.0350 -0.5826
 4970SOL    HW319653   3.549   0.475   0.304  0.2809  0.8546 -0.0919
 4970SOL    MW419654   3.527   0.456   0.387  0.1942 -0.2705 -0.3534
 4971SOL     OW19655   4.954   4.603   5.902  0.5151  0.4256 -0.8104
 4971SOL    HW219656   5.020   4.651   5.853 -1.1504  1.2414 -2.3387
 4971SOL    HW319657   4.889   4.576   5.837 -0.4664 -0.7039  0.5613
 4971SOL    MW419658   4.954   4.606   5.887  0.1659  0.3842 -0.8311
 4972SOL     OW19659   6.173   1.778   5.441  0.3515  0.1208  0.1424
 4972SOL    HW219660   6.256   1.741   5.412  0.2033  0.8153 -1.2583
 4972SOL    HW319661   6.147   1.724   5.515  0.7897 -1.7440 -1.0005
 4972SOL    MW419662   6.180   1.766   5.447  0.3898 -0.0336 -0.1932
 4973SOL     OW19663   3.853   2.062   4.958  0.6699 -0.3970 -0.7135
 4973SOL    HW219664   3.858   2.044   5.052 -1.5679 -0.5540 -0.5635
 4973SOL    HW319665   3.845   2.157   4.952 -1.6574 -0.5220 -0.5154
 4973SOL    MW419666   3.853   2.072   4.970  0.0676 -0.4342 -0.6676
 4974SOL     OW19667   5.480   4.291   0.233 -0.0817 -0.3959  0.0184
 4974SOL    HW219668   5.541   4.217   0.230  0.1442 -0.2053 -0.1041
 4974SOL    HW319669   5.394   4.251   0.221  0.0570 -0.6212 -0.2435
 4974SOL    MW419670   5.476   4.276   0.231 -0.0336 -0.4005 -0.0323
 4975SOL     OW19671   5.678   2.305   4.892 -0.3831 -0.7893  0.0751
 4975SOL    HW219672   5.675   2.377   4.956 -2.2782 -0.5896 -0.1649
 4975SOL    HW319673   5.685   2.349   4.808 -1.2809 -0.8811 -0.0551
 4975SOL    MW419674   5.678   2.320   4.890 -0.7516 -0.7750  0.0262
 4976SOL     OW19675   4.283   3.588   5.730  0.0529  0.0070 -0.2239
 4976SOL    HW219676   4.310   3.525   5.663  1.6737 -1.0403  1.3317
 4976SOL    HW319677   4.292   3.540   5.812 -0.6580  1.6569  0.8496
 4976SOL    MW419678   4.288   3.573   5.732  0.1730  0.0865  0.1230
 4977SOL     OW19679   2.074   2.489   2.462  0.0885  0.6389 -0.6085
 4977SOL    HW219680   2.147   2.443   2.421 -0.5683 -1.2576  0.2599
 4977SOL    HW319681   2.030   2.423   2.514 -0.8880  2.2786  0.7498
 4977SOL    MW419682   2.078   2.474   2.463 -0.1270  0.6051 -0.3147
 4978SOL     OW19683   5.599   5.794   5.186  0.3367  0.2877  0.4143
 4978SOL    HW219684   5.601   5.875   5.135  0.6853 -0.1940 -0.3699
 4978SOL    HW319685   5.679   5.748   5.160 -0.1516 -0.5712  0.3918
 4978SOL    MW419686   5.610   5.799   5.176  0.3183  0.1108  0.3079
 4979SOL     OW19687   4.249   3.390   1.987  0.6852  0.2132 -0.7870
 4979SOL    HW219688   4.245   3.485   1.992 -0.4363  0.3797 -3.1821
 4979SOL    HW319689   4.263   3.372   1.894 -0.3762 -1.9769 -0.5872
 4979SOL    MW419690   4.250   3.400   1.975  0.3972 -0.0538 -1.0767
 4980SOL     OW19691   4.951   0.861   6.174 -0.0532  0.2311 -0.2320
 4980SOL    HW219692   4.862   0.855   6.210  0.0572 -0.0257 -0.0030
 4980SOL    HW319693   5.008   0.863   6.251  0.1657 -0.0244 -0.3863
 4980SOL    MW419694   4.947   0.860   6.189 -0.0097  0.1635 -0.2222
 4981SOL     OW19695   4.857   1.396   1.367  0.5682  0.2285  0.2234
 4981SOL    HW219696   4.851   1.302   1.382 -0.0568  0.2528  0.1427
 4981SOL    HW319697   4.766   1.425   1.356  0.7488  0.8470  0.2976
 4981SOL    MW419698   4.844   1.387   1.368  0.5096  0.3133  0.2225
 4982SOL     OW19699   1.961   5.773   3.437 -0.3064 -0.7972  0.4631
 4982SOL    HW219700   2.040   5.782   3.382 -1.5216  2.3102 -1.0178
 4982SOL    HW319701   1.992   5.790   3.526  0.8935 -0.6416  0.0355
 4982SOL    MW419702   1.976   5.777   3.441 -0.3084 -0.3667  0.2113
 4983SOL     OW19703   2.516   5.681   1.252  0.4238 -0.0921  0.7957
 4983SOL    HW219704   2.562   5.631   1.185  0.2993  0.5557  0.2092
 4983SOL    HW319705   2.447   5.623   1.283 -0.6494  0.1957 -0.9089
 4983SOL    MW419706   2.513   5.667   1.247  0.2658  0.0314  0.4934
 4984SOL     OW19707   0.202   1.543   0.378  0.3378 -0.6527 -0.7922
 4984SOL    HW219708   0.287   1.586   0.370  0.0793  0.0721  0.2380
 4984SOL    HW319709   0.158   1.589   0.449 -1.7292  0.3439 -2.6050
 4984SOL    MW419710   0.208   1.555   0.386  0.0310 -0.4256 -0.8955
 4985SOL     OW19711   4.805   0.354   5.349 -0.2296 -0.1202 -0.2577
 4985SOL    HW219712   4.839   0.359   5.438 -0.1344 -0.1322 -0.2929
 4985SOL    HW319713   4.726   0.300   5.356 -0.1595 -0.2149 -0.1988
 4985SOL    MW419714   4.799   0.347   5.361 -0.2078 -0.1343 -0.2546
 4986SOL     OW19715   0.542   2.115   4.947  0.2237 -0.6001  0.1496
 4986SOL    HW219716   0.620   2.140   4.997 -0.8812  0.9797  1.1712
 4986SOL    HW319717   0.469   2.129   5.007 -0.8806 -1.9620 -0.8093
 4986SOL    MW419718   0.543   2.120   4.961 -0.0677 -0.5714  0.1579
 4987SOL     OW19719   2.888   2.013   2.476  0.2213 -0.2361 -0.6782
 4987SOL    HW219720   2.948   2.029   2.403  0.1169  1.7134 -0.3924
 4987SOL    HW319721   2.825   1.949   2.442 -1.1496  2.2133 -3.1175
 4987SOL    MW419722   2.888   2.007   2.462  0.0266  0.3443 -0.9623
 4988SOL     OW19723   3.193   2.379   4.031  0.1701 -0.4529 -0.0971
 4988SOL    HW219724   3.240   2.301   4.003 -1.1227 -1.0598 -0.6762
 4988SOL    HW319725   3.108   2.373   3.986 -0.7820  0.1661  1.5452
 4988SOL    MW419726   3.188   2.368   4.021 -0.1261 -0.4513  0.0432
 4989SOL     OW19727   3.582   1.995   4.845 -0.0599 -0.1196  0.2190
 4989SOL    HW219728   3.664   2.034   4.875 -0.1154 -0.0429  0.2676
 4989SOL    HW319729   3.591   1.994   4.749 -0.7569  1.5361  0.1064
 4989SOL    MW419730   3.594   2.000   4.836 -0.1592  0.1090  0.2106
 4990SOL     OW19731   1.286   2.876   2.008 -0.0840 -0.0658 -0.2751
 4990SOL    HW219732   1.358   2.850   1.951  1.3804  1.7614  0.6315
 4990SOL    HW319733   1.328   2.905   2.089 -1.6833  2.3028 -0.1741
 4990SOL    MW419734   1.301   2.877   2.011 -0.1018  0.4878 -0.1422
 4991SOL     OW19735   6.336   4.391   4.358  0.1463 -0.0431 -0.5162
 4991SOL    HW219736   6.256   4.390   4.410  0.6242 -0.0333  0.2308
 4991SOL    HW319737   6.375   4.477   4.374  1.2483 -0.7244  0.6012
 4991SOL    MW419738   6.331   4.402   4.367  0.3547 -0.1317 -0.2702
 4992SOL     OW19739   2.342   3.497   2.316 -0.6343  0.8368 -0.0363
 4992SOL    HW219740   2.357   3.500   2.411  3.0300  0.9477 -0.4999
 4992SOL    HW319741   2.342   3.404   2.294 -1.0292  0.8273 -0.0055
 4992SOL    MW419742   2.344   3.485   2.326 -0.2029  0.8502 -0.0934
 4993SOL     OW19743   1.668   2.280   3.559  0.4924  0.0661 -0.4673
 4993SOL    HW219744   1.636   2.190   3.561  0.0374  0.1846  2.7672
 4993SOL    HW319745   1.589   2.333   3.569  0.6905  0.9160 -2.9403
 4993SOL    MW419746   1.653   2.275   3.561  0.4585  0.1939 -0.3669
 4994SOL     OW19747   1.917   2.674   5.639  0.5761  0.3113  0.4857
 4994SOL    HW219748   1.988   2.654   5.699 -0.3413  1.8327  2.2003
 4994SOL    HW319749   1.868   2.592   5.631  2.9443 -1.0095 -1.4500
 4994SOL    MW419750   1.920   2.661   5.646  0.7675  0.3378  0.4566
 4995SOL     OW19751   6.129   6.237   5.726  0.6064 -0.0279  0.2989
 4995SOL    HW219752   6.218   6.253   5.756  0.2776  1.1677  0.7063
 4995SOL    HW319753   6.135   6.158   5.672  1.7494 -0.4419  1.0100
 4995SOL    MW419754   6.142   6.229   5.723  0.7138  0.0753  0.4465
 4996SOL     OW19755   3.003   5.248   0.947 -0.3977  0.7457  0.2051
 4996SOL    HW219756   3.095   5.271   0.934  0.7277 -1.7116  2.8850
 4996SOL    HW319757   2.972   5.309   1.014 -0.1197  0.3804  0.6758
 4996SOL    MW419758   3.011   5.259   0.954 -0.2126  0.3733  0.6208
 4997SOL     OW19759   0.482   2.355   0.265  0.0007 -0.1146 -0.6494
 4997SOL    HW219760   0.393   2.373   0.294 -0.1054  0.0608 -1.0767
 4997SOL    HW319761   0.514   2.438   0.231  1.0330  0.3371  1.2585
 4997SOL    MW419762   0.474   2.368   0.264  0.1229 -0.0318 -0.4541
 4998SOL     OW19763   0.209   5.389   3.024 -0.4006  0.4891  0.1272
 4998SOL    HW219764   0.272   5.373   2.953  0.4260  0.6321  0.8176
 4998SOL    HW319765   0.193   5.483   3.020  1.2645  0.8728  1.4305
 4998SOL    MW419766   0.215   5.399   3.014 -0.0718  0.5586  0.3902
 4999SOL     OW19767   3.796   1.578   0.053 -0.7613  0.2234  0.3874
 4999SOL    HW219768   3.741   1.641   0.007 -2.1253 -1.4992 -0.4736
 4999SOL    HW319769   3.861   1.631   0.098 -1.1590  2.1576 -1.1781
 4999SOL    MW419770   3.797   1.593   0.053 -0.9938  0.2513  0.0673
 5000SOL     OW19771   4.508   1.482   2.914  0.6713 -0.4608  0.2932
 5000SOL    HW219772   4.601   1.501   2.926  0.7928 -0.9417  0.1235
 5000SOL    HW319773   4.505   1.425   2.838  0.0537  1.3201 -1.0927
 5000SOL    MW419774   4.520   1.477   2.906  0.6058 -0.2892  0.0879
 5001SOL     OW19775   3.884   6.005   1.361 -0.0927 -0.0697  0.3222
 5001SOL    HW219776   3.796   6.042   1.372 -0.1965 -0.3681  0.4938
 5001SOL    HW319777   3.888   5.980   1.269 -0.4575 -0.7396  0.4802
 5001SOL    MW419778   3.873   6.007   1.351 -0.1545 -0.1974  0.3657
 5002SOL     OW19779   0.328   3.914   2.693  0.1056  0.5802  0.5734
 5002SOL    HW219780   0.327   4.008   2.705  0.6749  0.7184 -0.3711
 5002SOL    HW319781   0.414   3.886   2.723 -0.3583  0.2346  1.6337
 5002SOL    MW419782   0.339   3.922   2.699  0.1195  0.5528  0.5887
 5003SOL     OW19783   5.501   5.201   1.938 -0.3377 -0.2466  0.0349
 5003SOL    HW219784   5.424   5.233   1.890 -1.0743  0.8821  1.8651
 5003SOL    HW319785   5.567   5.269   1.924 -0.2569 -0.3546 -0.1075
 5003SOL    MW419786   5.499   5.214   1.930 -0.4242 -0.1119  0.2576
 5004SOL     OW19787   3.072   1.321   0.982 -0.1788 -0.1791  0.3398
 5004SOL    HW219788   3.108   1.407   1.005 -1.6094  0.1431  1.5667
 5004SOL    HW319789   3.098   1.308   0.891  2.1068  0.4578  0.8365
 5004SOL    MW419790   3.080   1.331   0.973 -0.0660 -0.0525  0.5672
 5005SOL     OW19791   3.696   5.328   5.564 -0.2109 -0.0839 -0.1216
 5005SOL    HW219792   3.754   5.334   5.640  0.2060 -1.1089 -0.3542
 5005SOL    HW319793   3.720   5.246   5.521  0.0067  0.7836 -1.7346
 5005SOL    MW419794   3.707   5.318   5.568 -0.1272 -0.1047 -0.3651
 5006SOL     OW19795   2.285   1.638   2.658 -0.1484 -0.4267  0.0429
 5006SOL    HW219796   2.336   1.566   2.621 -0.2089 -0.8102  0.6859
 5006SOL    HW319797   2.200   1.631   2.615 -0.2123 -0.8519  0.2332
 5006SOL    MW419798   2.281   1.627   2.648 -0.1648 -0.5334  0.1529
 5007SOL     OW19799   1.234   1.198   3.244 -0.4654 -0.1420  0.0764
 5007SOL    HW219800   1.223   1.294   3.246 -0.8006 -0.1648 -0.4791
 5007SOL    HW319801   1.184   1.170   3.168  0.7911 -0.6207 -0.5898
 5007SOL    MW419802   1.226   1.207   3.234 -0.3439 -0.2082 -0.0848
 5008SOL     OW19803   5.342   1.221   4.213 -0.2473  0.1349 -0.4070
 5008SOL    HW219804   5.339   1.210   4.118  2.8001  2.3069 -0.9053
 5008SOL    HW319805   5.409   1.159   4.242  1.8197  2.2372 -0.3690
 5008SOL    MW419806   5.351   1.211   4.205  0.4275  0.6988 -0.4678
 5009SOL     OW19807   5.115   2.280   1.086 -0.9163 -0.0080  0.9604
 5009SOL    HW219808   5.184   2.215   1.076 -0.6078 -0.0394  2.9682
 5009SOL    HW319809   5.035   2.229   1.099 -1.3018  0.0350 -0.9043
 5009SOL    MW419810   5.113   2.265   1.086 -0.9265 -0.0065  0.9793
 5010SOL     OW19811   5.225   3.502   1.307  0.3982 -0.2008  0.3210
 5010SOL    HW219812   5.210   3.591   1.276  0.0555 -0.9031 -1.6656
 5010SOL    HW319813   5.192   3.503   1.397  1.2435  1.8797  0.6817
 5010SOL    MW419814   5.219   3.514   1.315  0.4645 -0.0190  0.1065
 5011SOL     OW19815   4.520   2.655   3.651  0.0356 -0.1499 -0.5519
 5011SOL    HW219816   4.548   2.566   3.673 -1.0515 -0.1402  1.0545
 5011SOL    HW319817   4.565   2.711   3.714 -1.8075  0.0679  0.6531
 5011SOL    MW419818   4.529   2.650   3.662 -0.3510 -0.1199 -0.1810
 5012SOL     OW19819   0.505   5.967   0.198 -0.3729  0.8678 -0.0883
 5012SOL    HW219820   0.486   5.897   0.261 -0.2246  1.0039  0.1105
 5012SOL    HW319821   0.481   6.048   0.244 -4.4774  0.7985 -1.7199
 5012SOL    MW419822   0.500   5.968   0.212 -0.8949  0.8766 -0.2773
 5013SOL     OW19823   0.435   3.408   0.554 -0.3609 -0.1879 -0.5408
 5013SOL    HW219824   0.385   3.489   0.567 -1.1335 -0.9696  1.9129
 5013SOL    HW319825   0.526   3.436   0.553 -0.6016  0.6980  0.6749
 5013SOL    MW419826   0.440   3.422   0.556 -0.4946 -0.1742 -0.0567
 5014SOL     OW19827   0.958   3.826   2.386 -0.1313  0.1692 -0.0354
 5014SOL    HW219828   1.010   3.890   2.337  1.2527 -0.1509  0.9568
 5014SOL    HW319829   1.003   3.743   2.372 -2.0426 -0.7116 -1.5039
 5014SOL    MW419830   0.971   3.824   2.378 -0.2009  0.0108 -0.0982
 5015SOL     OW19831   2.351   5.364   4.815  0.2234  0.1903 -0.0799
 5015SOL    HW219832   2.274   5.392   4.766  1.7449  1.0211 -2.1540
 5015SOL    HW319833   2.360   5.430   4.884 -0.3276  0.6865 -0.4691
 5015SOL    MW419834   2.342   5.377   4.818  0.3514  0.3654 -0.4049
 5016SOL     OW19835   5.965   1.264   4.873 -0.2510 -0.1035 -0.0092
 5016SOL    HW219836   6.052   1.238   4.843 -0.8636 -1.1781 -0.9462
 5016SOL    HW319837   5.981   1.320   4.948  1.2345 -0.8449  0.2579
 5016SOL    MW419838   5.979   1.268   4.879 -0.1358 -0.3431 -0.0976
 5017SOL     OW19839   4.338   4.460   2.424 -0.3510  0.4881 -0.2826
 5017SOL    HW219840   4.266   4.434   2.366  0.3482 -1.9145 -0.2086
 5017SOL    HW319841   4.301   4.456   2.512 -0.4848  0.5966 -0.3338
 5017SOL    MW419842   4.324   4.456   2.428 -0.2764  0.1854 -0.2796
 5018SOL     OW19843   1.901   0.462   0.547 -0.2728  0.6806  0.3452
 5018SOL    HW219844   1.962   0.396   0.579 -0.4518  1.5476  2.6843
 5018SOL    HW319845   1.919   0.470   0.454 -0.9512 -3.3907 -0.2995
 5018SOL    MW419846   1.911   0.454   0.539 -0.3859  0.2578  0.5688
 5019SOL     OW19847   3.751   1.200   0.541  0.5791 -0.7244  0.0998
 5019SOL    HW219848   3.775   1.276   0.488  2.6011 -2.0329 -0.9810
 5019SOL    HW319849   3.777   1.224   0.630  0.8951 -0.0235 -0.1722
 5019SOL    MW419850   3.757   1.213   0.545  0.8876 -0.8046 -0.0787
 5020SOL     OW19851   3.633   3.589   2.423 -0.6021 -0.1712 -0.0058
 5020SOL    HW219852   3.606   3.681   2.423 -2.3790 -0.6572 -0.1652
 5020SOL    HW319853   3.637   3.565   2.331  0.9283  0.0274 -0.0009
 5020SOL    MW419854   3.630   3.598   2.411 -0.6346 -0.2092 -0.0262
 5021SOL     OW19855   1.360   3.902   2.244  0.1290  0.1688 -0.2052
 5021SOL    HW219856   1.275   3.929   2.280  0.6483  0.1269  1.1185
 5021SOL    HW319857   1.380   3.821   2.291 -0.0676 -0.9916 -2.0425
 5021SOL    MW419858   1.351   3.895   2.255  0.1716  0.0102 -0.2729
 5022SOL     OW19859   1.317   4.564   0.450 -0.0382 -0.5533  0.5441
 5022SOL    HW219860   1.261   4.605   0.384  0.4960  1.4299  1.2363
 5022SOL    HW319861   1.261   4.501   0.494 -1.0254 -0.3224 -0.3464
 5022SOL    MW419862   1.302   4.561   0.447 -0.0980 -0.2611  0.5179
 5023SOL     OW19863   5.557   2.237   6.358 -0.2274  0.1467 -0.8258
 5023SOL    HW219864   5.587   2.251   6.268 -0.4605 -0.1451 -0.9469
 5023SOL    HW319865   5.474   2.191   6.349  0.7227 -1.7175 -0.4143
 5023SOL    MW419866   5.550   2.233   6.345 -0.1328 -0.1378 -0.7875
 5024SOL     OW19867   3.168   4.540   5.660  0.6009 -0.1595  0.0810
 5024SOL    HW219868   3.188   4.542   5.753 -0.2545 -1.4501  0.3292
 5024SOL    HW319869   3.104   4.610   5.647  1.4295  0.6391  0.2677
 5024SOL    MW419870   3.162   4.549   5.670  0.5974 -0.2244  0.1384
 5025SOL     OW19871   3.950   5.407   0.079  0.4964 -0.1985  0.4232
 5025SOL    HW219872   3.899   5.327   0.082 -1.0540  0.6463 -1.2244
 5025SOL    HW319873   3.973   5.417  -0.013  2.2603  0.3072  0.8911
 5025SOL    MW419874   3.946   5.398   0.067  0.5246 -0.0203  0.2676
 5026SOL     OW19875   3.626   2.687   4.826 -0.8347  0.2098 -0.0391
 5026SOL    HW219876   3.686   2.761   4.836 -0.1164 -0.2523 -0.8000
 5026SOL    HW319877   3.544   2.718   4.864  0.6691 -0.2507  4.1740
 5026SOL    MW419878   3.623   2.701   4.833 -0.5415  0.0881  0.4164
 5027SOL     OW19879   5.706   4.656   4.340  0.1519 -0.7520 -0.7494
 5027SOL    HW219880   5.645   4.603   4.289 -1.1506 -0.0295 -0.0182
 5027SOL    HW319881   5.703   4.742   4.299 -0.1969 -0.4132 -0.0301
 5027SOL    MW419882   5.698   4.660   4.328 -0.0660 -0.6120 -0.5580
 5028SOL     OW19883   1.739   5.403   5.787 -0.2668  0.2476  0.2274
 5028SOL    HW219884   1.797   5.328   5.779 -0.7590 -0.3295  1.6667
 5028SOL    HW319885   1.796   5.476   5.813 -0.1363 -0.2922  1.5411
 5028SOL    MW419886   1.754   5.403   5.789 -0.3145  0.1003  0.5906
 5029SOL     OW19887   2.867   4.786   0.491  0.2855  0.5458 -0.2100
 5029SOL    HW219888   2.875   4.703   0.444  1.7049  1.4728 -1.7124
 5029SOL    HW319889   2.799   4.834   0.444  2.0495  1.6743 -1.7672
 5029SOL    MW419890   2.859   4.781   0.479  0.7055  0.8170 -0.6136
 5030SOL     OW19891   2.766   6.431   1.121 -0.1762 -0.1115 -0.1102
 5030SOL    HW219892   2.783   6.514   1.165  1.2546 -1.2817  1.7253
 5030SOL    HW319893   2.757   6.454   1.028  0.4932  2.0332  0.3052
 5030SOL    MW419894   2.767   6.445   1.114  0.1009  0.0171  0.1868
 5031SOL     OW19895   1.297   0.927   3.308  0.0800 -0.1175 -0.6408
 5031SOL    HW219896   1.348   0.899   3.385  0.2434 -0.2890 -0.8096
 5031SOL    HW319897   1.295   1.023   3.315 -0.4504 -0.1589 -0.0796
 5031SOL    MW419898   1.304   0.936   3.319  0.0316 -0.1456 -0.5890
 5032SOL     OW19899   0.387   2.844   4.448  0.1695  0.4368  0.2014
 5032SOL    HW219900   0.478   2.848   4.419 -0.4276 -0.2243 -2.0633
 5032SOL    HW319901   0.388   2.784   4.523  1.5953  0.4986  0.2601
 5032SOL    MW419902   0.399   2.836   4.454  0.2789  0.3577 -0.0896
 5033SOL     OW19903   0.637   2.389   1.440  0.4074 -0.1784  0.5142
 5033SOL    HW219904   0.638   2.354   1.529  0.2461  2.0492  1.4415
 5033SOL    HW319905   0.555   2.438   1.434  0.1706 -0.7223 -1.0546
 5033SOL    MW419906   0.626   2.391   1.451  0.3549  0.0438  0.4295
 5034SOL     OW19907   5.940   6.325   0.065 -0.1774  0.1670 -0.0738
 5034SOL    HW219908   5.926   6.276  -0.016 -2.5817 -0.6671  0.7395
 5034SOL    HW319909   5.920   6.416   0.041 -0.6611 -0.0363 -0.4647
 5034SOL    MW419910   5.935   6.331   0.051 -0.5584  0.0301 -0.0181
 5035SOL     OW19911   2.543   0.783   2.244 -0.5206 -0.3164  0.5574
 5035SOL    HW219912   2.487   0.756   2.172  1.3997  0.0430 -1.1801
 5035SOL    HW319913   2.623   0.730   2.233  1.0776  1.9529  0.4354
 5035SOL    MW419914   2.546   0.772   2.233 -0.0564  0.0304  0.3121
 5036SOL     OW19915   2.797   0.120   2.089  0.2784  0.4329  0.0010
 5036SOL    HW219916   2.851   0.131   2.011 -0.3513  1.5165 -0.3135
 5036SOL    HW319917   2.829   0.040   2.130  1.8839  0.8631 -0.3510
 5036SOL    MW419918   2.808   0.111   2.084  0.4071  0.6327 -0.0870
 5037SOL     OW19919   3.464   4.086   1.140  0.4901  0.0893 -0.2147
 5037SOL    HW219920   3.381   4.133   1.128  0.8940  0.4643 -1.8488
 5037SOL    HW319921   3.451   4.002   1.097  1.2415  0.5404 -1.4050
 5037SOL    MW419922   3.451   4.081   1.133  0.6425  0.1983 -0.5873
 5038SOL     OW19923   1.098   3.282   5.041  0.0253 -0.3416 -0.2583
 5038SOL    HW219924   1.108   3.325   5.126 -1.5579  0.3677 -0.4080
 5038SOL    HW319925   1.128   3.347   4.978 -2.2105  0.5560 -0.4726
 5038SOL    MW419926   1.104   3.296   5.044 -0.4786 -0.1296 -0.3063
 5039SOL     OW19927   0.229   1.590   1.830 -0.3807 -0.3453  0.5395
 5039SOL    HW219928   0.145   1.590   1.784  1.5567 -0.9084 -3.4645
 5039SOL    HW319929   0.249   1.497   1.842  0.8125 -0.3483 -1.1143
 5039SOL    MW419930   0.221   1.578   1.825  0.0323 -0.4200 -0.2069
 5040SOL     OW19931   5.838   2.682   2.166 -0.5086  0.2200  0.3648
 5040SOL    HW219932   5.848   2.642   2.253  1.4659 -1.5781 -0.6023
 5040SOL    HW319933   5.785   2.620   2.117  2.0871 -1.0740 -0.9768
 5040SOL    MW419934   5.832   2.669   2.171  0.0944 -0.1880  0.0602
 5041SOL     OW19935   6.046   0.927   3.298 -0.1492  0.1960  0.6594
 5041SOL    HW219936   6.044   0.831   3.294 -1.0193  0.2421 -0.9212
 5041SOL    HW319937   5.954   0.952   3.311 -1.0626  0.8712 -4.7640
 5041SOL    MW419938   6.033   0.918   3.300 -0.3845  0.2911 -0.2647
 5042SOL     OW19939   4.597   4.399   2.508  0.2383 -0.5228  0.0087
 5042SOL    HW219940   4.508   4.409   2.474  0.3792  0.5351 -0.0534
 5042SOL    HW319941   4.641   4.343   2.444 -0.1716 -0.4597 -0.3346
 5042SOL    MW419942   4.591   4.393   2.495  0.2028 -0.3749 -0.0448
 5043SOL     OW19943   4.458   2.633   0.249 -0.8011  0.0358  0.0047
 5043SOL    HW219944   4.383   2.620   0.308  1.1853  0.5452  2.8118
 5043SOL    HW319945   4.520   2.565   0.274  0.5891  1.0032 -0.6998
 5043SOL    MW419946   4.456   2.622   0.260 -0.3556  0.2307  0.2821
 5044SOL     OW19947   5.703   5.435   2.321  0.3981 -0.1327  0.1699
 5044SOL    HW219948   5.620   5.389   2.310  0.9110 -0.8667 -0.7276
 5044SOL    HW319949   5.678   5.522   2.352 -0.6108 -0.8783  1.5578
 5044SOL    MW419950   5.689   5.440   2.324  0.3327 -0.3279  0.2346
 5045SOL     OW19951   0.435   4.841   2.984 -0.5417 -0.5834  0.5168
 5045SOL    HW219952   0.399   4.754   3.001 -0.6947 -0.6977 -0.3342
 5045SOL    HW319953   0.468   4.837   2.894 -1.5283  0.5467  0.0715
 5045SOL    MW419954   0.434   4.829   2.974 -0.6921 -0.4494  0.3458
 5046SOL     OW19955   4.044   3.294   5.099  0.6132 -0.2668  0.4353
 5046SOL    HW219956   4.019   3.234   5.029  1.5702 -1.4055  1.0382
 5046SOL    HW319957   3.962   3.315   5.143  0.0372  0.2321 -0.8282
 5046SOL    MW419958   4.030   3.289   5.096  0.6635 -0.3512  0.3481
 5047SOL     OW19959   2.153   5.400   0.320  0.0403  0.3010  0.4110
 5047SOL    HW219960   2.094   5.425   0.392 -0.8089  0.6494 -0.3776
 5047SOL    HW319961   2.195   5.482   0.294 -1.2899  0.6084 -0.8995
 5047SOL    MW419962   2.151   5.415   0.326 -0.2473  0.3875  0.1340
 5048SOL     OW19963   3.890   3.686   4.393  0.0678  0.2290 -0.2840
 5048SOL    HW219964   3.860   3.747   4.326  0.4517  1.2564  0.4450
 5048SOL    HW319965   3.827   3.696   4.465 -0.6364 -1.2360 -0.6578
 5048SOL    MW419966   3.878   3.695   4.394  0.0255  0.1712 -0.2372
 5049SOL     OW19967   5.413   2.875   1.346 -0.1195 -0.6896  0.3620
 5049SOL    HW219968   5.445   2.889   1.435 -0.8312 -1.6977  0.8023
 5049SOL    HW319969   5.365   2.955   1.326 -0.0284 -0.4846  0.9265
 5049SOL    MW419970   5.411   2.887   1.355 -0.2014 -0.7956  0.4946
 5050SOL     OW19971   0.311   4.599   0.434 -0.7948 -0.6751  0.0329
 5050SOL    HW219972   0.259   4.675   0.408 -1.4737 -0.8331  0.8823
 5050SOL    HW319973   0.370   4.631   0.502  2.3619  0.2026 -2.8219
 5050SOL    MW419974   0.312   4.613   0.439 -0.4679 -0.5802 -0.2317
 5051SOL     OW19975   1.995   1.584   0.551  0.0829 -0.3287 -0.0277
 5051SOL    HW219976   1.950   1.558   0.631 -1.1256 -0.9848 -0.8869
 5051SOL    HW319977   2.010   1.501   0.504  0.3235  0.0912 -0.7082
 5051SOL    MW419978   1.991   1.569   0.555 -0.0448 -0.3599 -0.2308
 5052SOL     OW19979   0.901   0.245   3.059  0.3549  0.4026  0.2993
 5052SOL    HW219980   0.963   0.218   3.127  1.1512 -0.2850 -0.6632
 5052SOL    HW319981   0.956   0.260   2.982 -0.7633 -1.4440 -0.9355
 5052SOL    MW419982   0.917   0.243   3.058  0.3125  0.0682  0.0094
 5053SOL     OW19983   0.456   1.410   2.842  0.0480  0.3928  0.5088
 5053SOL    HW219984   0.432   1.322   2.869  0.9017  0.1290  0.4476
 5053SOL    HW319985   0.477   1.455   2.924  0.6404  0.2132  0.4604
 5053SOL    MW419986   0.456   1.404   2.856  0.2388  0.3343  0.4944
 5054SOL     OW19987   5.237   4.702   4.151  0.0391  0.4316 -0.2807
 5054SOL    HW219988   5.301   4.739   4.089  0.5585 -0.7224 -0.4736
 5054SOL    HW319989   5.158   4.754   4.139  0.7529  1.4956 -0.4880
 5054SOL    MW419990   5.235   4.714   4.141  0.2018  0.4198 -0.3335
 5055SOL     OW19991   4.213   3.211   4.321  0.6493  0.3135  0.2159
 5055SOL    HW219992   4.193   3.269   4.248  0.5982 -0.3979 -0.3543
 5055SOL    HW319993   4.235   3.269   4.394 -1.7132  1.1292  0.3650
 5055SOL    MW419994   4.213   3.226   4.321  0.3308  0.3273  0.1603
 5056SOL     OW19995   2.997   0.836   0.548  0.0885  0.2096  0.8406
 5056SOL    HW219996   2.972   0.753   0.589 -1.1711  0.1744  0.0429
 5056SOL    HW319997   3.003   0.817   0.455 -0.5284  1.0832  0.6100
 5056SOL    MW419998   2.995   0.823   0.541 -0.1591  0.3202  0.7049
 5057SOL     OW19999   4.245   1.478   2.424  0.4587 -0.3638  0.3474
 5057SOL    HW220000   4.222   1.400   2.374  1.0588 -1.0301  1.0995
 5057SOL    HW320001   4.188   1.547   2.388 -0.6658 -1.3255  0.2499
 5057SOL    MW420002   4.234   1.477   2.413  0.3895 -0.5786  0.4337
 5058SOL     OW20003   0.098   2.811   0.294 -0.4763 -0.0055  0.1169
 5058SOL    HW220004   0.127   2.728   0.331 -0.4308  0.5831  1.4417
 5058SOL    HW320005   0.095   2.871   0.368 -0.3392  1.2329 -0.8425
 5058SOL    MW420006   0.101   2.808   0.309 -0.4522  0.2356  0.1651
 5059SOL     OW20007   6.021   5.680   2.743 -0.1941 -0.0223 -0.1108
 5059SOL    HW220008   5.940   5.651   2.700  0.9460 -0.4013 -2.1437
 5059SOL    HW320009   6.069   5.600   2.761  0.0556  0.2455  0.4502
 5059SOL    MW420010   6.016   5.666   2.740 -0.0107 -0.0370 -0.3050
 5060SOL     OW20011   4.023   4.992   0.666 -0.7076  0.6501 -0.3398
 5060SOL    HW220012   4.037   5.084   0.690 -0.6110  0.8517 -1.1448
 5060SOL    HW320013   4.046   4.988   0.573 -0.4159 -0.2531 -0.2381
 5060SOL    MW420014   4.028   5.003   0.657 -0.6563  0.5575 -0.4326
 5061SOL     OW20015   3.781   4.875   5.795  0.3725  0.2372 -0.6187
 5061SOL    HW220016   3.790   4.871   5.700 -0.8959 -1.0793 -0.7140
 5061SOL    HW320017   3.850   4.935   5.823  1.0198  0.3411 -2.3218
 5061SOL    MW420018   3.791   4.883   5.786  0.2906  0.0772 -0.8560
 5062SOL     OW20019   2.703   3.229   1.982 -0.2088  0.1510 -0.0988
 5062SOL    HW220020   2.796   3.221   1.960 -0.1941 -0.7103  0.2340
 5062SOL    HW320021   2.661   3.259   1.901  0.3821  0.7520 -0.1891
 5062SOL    MW420022   2.710   3.232   1.968 -0.1289  0.1167 -0.0668
 5063SOL     OW20023   1.442   5.464   6.145 -0.4510  0.5648  0.4682
 5063SOL    HW220024   1.355   5.430   6.166 -0.4908  0.5544  0.2900
 5063SOL    HW320025   1.443   5.469   6.049  0.3640 -1.0746  0.3641
 5063SOL    MW420026   1.430   5.460   6.135 -0.3487  0.3471  0.4310
 5064SOL     OW20027   1.468   2.309   2.704 -0.0837  0.3032 -0.0444
 5064SOL    HW220028   1.425   2.255   2.770 -1.4113  1.3972  0.0155
 5064SOL    HW320029   1.443   2.399   2.726  0.5463  0.7973 -1.2518
 5064SOL    MW420030   1.459   2.314   2.716 -0.1757  0.5128 -0.1958
 5065SOL     OW20031   0.887   4.344   3.223  0.0301  0.1273 -0.5410
 5065SOL    HW220032   0.923   4.311   3.141  1.3008 -1.4913  0.5890
 5065SOL    HW320033   0.920   4.283   3.290 -0.9683  1.3660  1.1692
 5065SOL    MW420034   0.896   4.332   3.221  0.0660  0.0772 -0.1663
 5066SOL     OW20035   4.208   1.605   4.413  0.0857 -0.2198 -0.0074
 5066SOL    HW220036   4.143   1.660   4.458  2.0393  2.4000 -0.1563
 5066SOL    HW320037   4.186   1.614   4.320  0.5758  0.5599 -0.0503
 5066SOL    MW420038   4.196   1.613   4.407  0.4081  0.2287 -0.0327
 5067SOL     OW20039   3.528   5.599   1.540  0.4605 -0.1198  0.8077
 5067SOL    HW220040   3.620   5.574   1.549  0.8468  0.5826 -0.8520
 5067SOL    HW320041   3.481   5.516   1.538  1.0249 -0.4847  1.8227
 5067SOL    MW420042   3.534   5.585   1.541  0.5859 -0.0753  0.7227
 5068SOL     OW20043   4.400   3.905   3.339 -0.1838  0.0613  0.1528
 5068SOL    HW220044   4.338   3.926   3.409  0.4719 -2.4608  1.6202
 5068SOL    HW320045   4.349   3.914   3.258 -1.8586  0.1472  1.1691
 5068SOL    MW420046   4.385   3.909   3.338 -0.3182 -0.2602  0.4805
 5069SOL     OW20047   3.715   2.357   4.881 -0.0051  0.5548  0.6053
 5069SOL    HW220048   3.702   2.407   4.962  2.5339 -0.0502  1.4827
 5069SOL    HW320049   3.788   2.400   4.838 -1.3965  0.9419 -1.5068
 5069SOL    MW420050   3.723   2.369   4.886  0.1463  0.5261  0.4424
 5070SOL     OW20051   1.233   5.366   6.321 -0.1088  0.4091 -0.2330
 5070SOL    HW220052   1.296   5.326   6.382 -2.2800 -0.3145  1.7238
 5070SOL    HW320053   1.219   5.454   6.356  2.5796  2.1002 -2.9336
 5070SOL    MW420054   1.239   5.372   6.334 -0.0405  0.5368 -0.3311
 5071SOL     OW20055   2.940   0.582   1.499 -0.2217 -0.4512 -0.2310
 5071SOL    HW220056   2.867   0.535   1.539 -0.0108 -2.3476 -1.9289
 5071SOL    HW320057   2.987   0.620   1.574 -2.8803  0.8736  0.9134
 5071SOL    MW420058   2.937   0.581   1.515 -0.5447 -0.5266 -0.3040
 5072SOL     OW20059   4.786   4.887   1.190  0.1148 -0.3595  0.1169
 5072SOL    HW220060   4.827   4.919   1.110  1.9642  1.5250  1.6843
 5072SOL    HW320061   4.858   4.851   1.242 -0.5793  0.6434  1.8900
 5072SOL    MW420062   4.801   4.887   1.187  0.2672  0.0215  0.5576
 5073SOL     OW20063   1.647   0.170   0.670 -0.4561 -0.4686  0.1056
 5073SOL    HW220064   1.622   0.252   0.629 -0.9797 -0.8405 -0.3444
 5073SOL    HW320065   1.718   0.136   0.616 -1.9630 -1.5680 -1.3127
 5073SOL    MW420066   1.653   0.176   0.657 -0.7240 -0.6627 -0.1409
 5074SOL     OW20067   2.396   5.305   2.651 -0.2076  0.4918 -0.3965
 5074SOL    HW220068   2.445   5.284   2.571  0.9062 -0.4574  0.5068
 5074SOL    HW320069   2.307   5.322   2.620  0.1717  0.0406 -1.8287
 5074SOL    MW420070   2.391   5.304   2.636 -0.0106  0.3071 -0.4663
 5075SOL     OW20071   0.052   1.662   2.895 -0.0309  0.1327  0.0707
 5075SOL    HW220072   0.058   1.567   2.909 -1.6604  0.0897  0.6540
 5075SOL    HW320073   0.002   1.694   2.970 -2.2452  0.9961 -1.6825
 5075SOL    MW420074   0.046   1.654   2.907 -0.5380  0.2409 -0.0837
 5076SOL     OW20075   3.770   3.803   2.734  0.0534  0.2699  0.4010
 5076SOL    HW220076   3.801   3.733   2.678 -0.3793 -0.6999  1.3243
 5076SOL    HW320077   3.832   3.875   2.720 -0.4431  0.3352 -1.8086
 5076SOL    MW420078   3.782   3.804   2.725 -0.0692  0.1506  0.2313
 5077SOL     OW20079   3.452   2.423   6.292 -0.0755 -0.0581 -0.4363
 5077SOL    HW220080   3.535   2.449   6.252 -0.4155  0.6591 -0.6817
 5077SOL    HW320081   3.460   2.328   6.303  1.1969  0.1359  0.5334
 5077SOL    MW420082   3.464   2.414   6.288  0.0475  0.0621 -0.3408
 5078SOL     OW20083   0.033   6.099   1.924 -0.2913  0.6919 -0.3260
 5078SOL    HW220084  -0.058   6.103   1.894 -0.8061 -0.4905  0.9502
 5078SOL    HW320085   0.028   6.126   2.016  0.3323 -1.1264  0.2853
 5078SOL    MW420086   0.020   6.103   1.932 -0.2769  0.2960 -0.0770
 5079SOL     OW20087   2.185   5.776   4.049  0.0851  0.3743  0.1062
 5079SOL    HW220088   2.199   5.684   4.071  2.0034  0.4307 -0.6500
 5079SOL    HW320089   2.090   5.785   4.041 -0.1706 -1.4163  0.6471
 5079SOL    MW420090   2.175   5.765   4.051  0.3045  0.1455  0.0778
 5080SOL     OW20091   0.071   5.920   0.164  0.4653  0.0954 -0.7245
 5080SOL    HW220092   0.087   5.873   0.082  1.1599 -0.5562 -0.2272
 5080SOL    HW320093   0.126   5.998   0.157 -0.1430  0.4971 -1.2403
 5080SOL    MW420094   0.080   5.924   0.152  0.4767  0.0624 -0.7269
 5081SOL     OW20095   3.075   6.161   4.503  0.4975 -0.5894 -0.1152
 5081SOL    HW220096   2.986   6.195   4.506  0.4710 -0.6224 -0.5088
 5081SOL    HW320097   3.068   6.070   4.531  0.3746 -0.6587 -0.3710
 5081SOL    MW420098   3.063   6.154   4.508  0.4778 -0.6029 -0.2009
 5082SOL     OW20099   3.082   2.414   0.072  0.3070 -0.4815  0.2683
 5082SOL    HW220100   3.034   2.449   0.146 -0.9280 -0.4198 -0.5225
 5082SOL    HW320101   3.172   2.444   0.084  0.3329 -1.2196  2.1827
 5082SOL    MW420102   3.087   2.422   0.083  0.1474 -0.5707  0.4165
 5083SOL     OW20103   2.751   5.899   2.993 -0.3309  0.2520 -0.3567
 5083SOL    HW220104   2.829   5.947   3.019 -0.1953 -0.0612 -0.1687
 5083SOL    HW320105   2.723   5.939   2.911  0.3571 -0.0094 -0.7259
 5083SOL    MW420106   2.757   5.911   2.986 -0.2223  0.1762 -0.3806
 5084SOL     OW20107   3.956   3.479   0.189 -0.5108 -0.3377 -0.0797
 5084SOL    HW220108   3.944   3.485   0.284  0.0428 -0.0804 -0.0179
 5084SOL    HW320109   3.987   3.566   0.164  0.2522 -0.6824 -0.3523
 5084SOL    MW420110   3.959   3.491   0.198 -0.3371 -0.3492 -0.1075
 5085SOL     OW20111   2.015   0.696   3.992 -0.1658  0.1199 -0.3367
 5085SOL    HW220112   1.985   0.660   3.908 -1.5932 -1.0800  0.6361
 5085SOL    HW320113   1.978   0.785   3.994 -0.6090 -0.0546 -0.7301
 5085SOL    MW420114   2.006   0.703   3.981 -0.4126 -0.0614 -0.2603
 5086SOL     OW20115   1.560   2.486   6.158 -0.5508  0.1543  0.4249
 5086SOL    HW220116   1.506   2.561   6.182  0.0913  0.2833  1.5327
 5086SOL    HW320117   1.642   2.500   6.205  0.3922 -0.1239 -1.0878
 5086SOL    MW420118   1.563   2.498   6.167 -0.3416  0.1346  0.3715
 5087SOL     OW20119   5.752   5.628   4.740  0.2651  0.2407 -0.0561
 5087SOL    HW220120   5.843   5.611   4.718 -0.0630 -0.5743 -0.8454
 5087SOL    HW320121   5.709   5.542   4.734 -0.4953  0.5615  0.5838
 5087SOL    MW420122   5.758   5.614   4.736  0.1215  0.1755 -0.0758
 5088SOL     OW20123   6.145   5.216   0.065 -0.6913  0.0045  0.1077
 5088SOL    HW220124   6.052   5.239   0.065 -0.3077  1.8392  1.3907
 5088SOL    HW320125   6.168   5.212   0.158  0.9541  1.7426 -0.1520
 5088SOL    MW420126   6.136   5.218   0.078 -0.4236  0.4759  0.2427
 5089SOL     OW20127   3.191   1.838   5.382  0.0648  0.4016 -0.2934
 5089SOL    HW220128   3.221   1.871   5.298  0.7077  0.2003 -0.1528
 5089SOL    HW320129   3.263   1.858   5.443  1.1511 -2.4313 -0.4753
 5089SOL    MW420130   3.205   1.845   5.379  0.2930  0.0012 -0.2989
 5090SOL     OW20131   5.999   2.629   4.486 -0.2684  0.5205 -0.5657
 5090SOL    HW220132   6.059   2.603   4.556 -0.9475 -0.5189 -0.3457
 5090SOL    HW320133   5.921   2.661   4.532 -0.1840  1.1382 -0.8476
 5090SOL    MW420134   5.996   2.630   4.501 -0.3469  0.4649 -0.5739
 5091SOL     OW20135   3.337   3.630   6.143 -0.6942 -0.0657  0.3374
 5091SOL    HW220136   3.420   3.677   6.136 -1.6064  1.7223  0.9541
 5091SOL    HW320137   3.352   3.564   6.211  0.5487 -0.5785 -0.3991
 5091SOL    MW420138   3.350   3.627   6.151 -0.6506  0.1026  0.3216
 5092SOL     OW20139   2.149   3.196   0.212 -0.0776 -0.0321  0.1015
 5092SOL    HW220140   2.244   3.213   0.206 -0.1526 -0.0464 -1.6313
 5092SOL    HW320141   2.141   3.128   0.278  0.9924  0.8604  1.2137
 5092SOL    MW420142   2.161   3.189   0.220  0.0537  0.0838  0.0196
 5093SOL     OW20143   0.823   6.316   2.964  0.1832  0.1178  0.1118
 5093SOL    HW220144   0.766   6.392   2.979 -0.8053 -0.6132  0.1883
 5093SOL    HW320145   0.764   6.241   2.970  0.5205 -0.5323 -2.9110
 5093SOL    MW420146   0.807   6.316   2.966  0.0973 -0.0644 -0.2769
 5094SOL     OW20147   0.927   6.288   3.579  0.1291  0.0326  0.0385
 5094SOL    HW220148   0.914   6.369   3.628  2.0100  0.5286 -0.2108
 5094SOL    HW320149   0.966   6.315   3.497  2.1803 -1.2034  0.5450
 5094SOL    MW420150   0.930   6.302   3.575  0.6479 -0.0651  0.0725
 5095SOL     OW20151   5.636   5.862   4.213 -0.7305  0.5903 -0.0473
 5095SOL    HW220152   5.625   5.870   4.119 -0.6296  0.5965 -0.0589
 5095SOL    HW320153   5.605   5.945   4.249 -2.4812 -0.0825  0.0743
 5095SOL    MW420154   5.631   5.874   4.206 -0.9482  0.5024 -0.0328
 5096SOL     OW20155   4.746   2.704   0.551  0.4660  0.0730  0.0328
 5096SOL    HW220156   4.656   2.718   0.522  0.5824  0.7316 -0.0183
 5096SOL    HW320157   4.794   2.684   0.470  0.3987 -0.1230  0.0404
 5096SOL    MW420158   4.741   2.703   0.536  0.4725  0.1340  0.0271
 5097SOL     OW20159   2.703   1.147   4.712 -0.6830  0.1393 -0.3705
 5097SOL    HW220160   2.663   1.062   4.691 -1.4425 -0.0522  1.6000
 5097SOL    HW320161   2.797   1.134   4.700 -0.9648 -0.1258 -2.7460
 5097SOL    MW420162   2.710   1.134   4.708 -0.8204  0.0791 -0.4239
 5098SOL     OW20163   2.874   5.232   6.066 -0.2006  0.1112  0.2571
 5098SOL    HW220164   2.831   5.202   6.147  2.1612  0.2927  1.6578
 5098SOL    HW320165   2.804   5.230   6.000 -2.0070 -0.8748  2.0830
 5098SOL    MW420166   2.859   5.228   6.068 -0.1273  0.0051  0.6828
 5099SOL     OW20167   3.358   2.379   4.957  0.1559  0.0445  0.3061
 5099SOL    HW220168   3.403   2.300   4.987  0.4420 -0.1603 -0.6035
 5099SOL    HW320169   3.284   2.346   4.906  0.7402  0.3365 -0.7616
 5099SOL    MW420170   3.354   2.364   4.954  0.2707  0.0560  0.0452
 5100SOL     OW20171   5.253   3.972   0.263  0.0946  0.3979 -0.3413
 5100SOL    HW220172   5.249   4.050   0.208 -0.1975  1.0471  0.5818
 5100SOL    HW320173   5.289   3.904   0.206 -0.3317  1.0188 -1.3652
 5100SOL    MW420174   5.258   3.973   0.248 -0.0002  0.5655 -0.3546
 5101SOL     OW20175   3.790   4.011   2.454  0.0856  0.0431 -0.6975
 5101SOL    HW220176   3.803   4.095   2.410  0.9070  0.1571 -0.2586
 5101SOL    HW320177   3.720   3.968   2.404  1.0791  0.1069 -2.1868
 5101SOL    MW420178   3.782   4.017   2.441  0.3250  0.0666 -0.8361
 5102SOL     OW20179   4.615   6.219   3.155  0.3949 -0.0190  0.3364
 5102SOL    HW220180   4.528   6.259   3.150  0.2065 -0.3864  0.6478
 5102SOL    HW320181   4.675   6.294   3.155  0.1198  0.2080 -0.6687
 5102SOL    MW420182   4.612   6.234   3.155  0.3337 -0.0375  0.2448
 5103SOL     OW20183   2.211   0.542   4.717 -0.3642 -0.2510 -0.4389
 5103SOL    HW220184   2.240   0.464   4.764  0.4573 -0.2798 -0.9787
 5103SOL    HW320185   2.222   0.520   4.624  0.5275  0.7329 -0.5855
 5103SOL    MW420186   2.216   0.529   4.711 -0.1381 -0.1250 -0.5294
 5104SOL     OW20187   4.700   2.309   3.202 -0.0090  0.3414 -0.0060
 5104SOL    HW220188   4.701   2.374   3.273 -0.1732  1.6302 -1.1345
 5104SOL    HW320189   4.793   2.298   3.179 -0.0349  0.7847 -0.3347
 5104SOL    MW420190   4.713   2.316   3.208 -0.0340  0.5699 -0.1982
 5105SOL     OW20191   2.935   2.953   4.195  0.2209  0.2488  0.0933
 5105SOL    HW220192   2.987   3.014   4.247 -0.7452  0.2026  1.1388
 5105SOL    HW320193   2.995   2.923   4.126  1.4510  0.5028  1.0176
 5105SOL    MW420194   2.950   2.957   4.193  0.2557  0.2763  0.3532
 5106SOL     OW20195   4.031   1.340   4.169 -0.0654 -0.0819  0.1096
 5106SOL    HW220196   4.116   1.304   4.195 -0.8002 -0.8609  1.5590
 5106SOL    HW320197   4.020   1.312   4.078  0.8452 -0.7371  0.1859
 5106SOL    MW420198   4.041   1.331   4.160 -0.0422 -0.2711  0.3109
 5107SOL     OW20199   0.272   3.125   1.543 -0.2704  0.2684 -0.1895
 5107SOL    HW220200   0.219   3.203   1.527  0.5627  0.9886  0.4915
 5107SOL    HW320201   0.208   3.057   1.565 -0.9098  1.2607  1.2060
 5107SOL    MW420202   0.256   3.127   1.544 -0.2448  0.4943  0.0845
 5108SOL     OW20203   6.255   6.259   2.868 -0.5017 -0.3582  0.4235
 5108SOL    HW220204   6.267   6.301   2.953 -3.0275  0.4191  0.4812
 5108SOL    HW320205   6.190   6.191   2.884 -0.0660 -1.0549 -0.6567
 5108SOL    MW420206   6.248   6.255   2.881 -0.7775 -0.3476  0.2886
 5109SOL     OW20207   0.397   2.129   5.773  0.3767  0.1256  0.3462
 5109SOL    HW220208   0.440   2.161   5.853  1.4014 -0.9427  0.2481
 5109SOL    HW320209   0.469   2.101   5.717 -0.4161 -0.8656 -0.1976
 5109SOL    MW420210   0.412   2.130   5.776  0.4073 -0.1461  0.2615
 5110SOL     OW20211   4.352   5.838   3.887  0.2008 -1.0160  0.4989
 5110SOL    HW220212   4.356   5.843   3.792  0.3974 -0.3725  0.5333
 5110SOL    HW320213   4.310   5.754   3.905 -0.3221 -0.9075 -0.1619
 5110SOL    MW420214   4.347   5.828   3.877  0.1578 -0.9168  0.4163
 5111SOL     OW20215   0.725   6.425   6.226  0.4109  0.1746 -0.3165
 5111SOL    HW220216   0.749   6.487   6.295  1.2500  0.5983 -0.9662
 5111SOL    HW320217   0.793   6.359   6.228  0.1829 -0.0663 -0.4364
 5111SOL    MW420218   0.737   6.425   6.235  0.4915  0.1987 -0.4181
 5112SOL     OW20219   2.543   0.967   5.653 -0.1235 -0.6234  0.4808
 5112SOL    HW220220   2.510   0.914   5.581 -0.2992 -0.8968  0.7600
 5112SOL    HW320221   2.629   0.998   5.623 -0.0208 -1.0606  0.3154
 5112SOL    MW420222   2.550   0.964   5.640 -0.1331 -0.7172  0.4958
 5113SOL     OW20223   0.038   3.330   1.527 -0.4598  0.5053  0.1717
 5113SOL    HW220224   0.056   3.413   1.570  0.8458  0.7516 -0.7884
 5113SOL    HW320225   0.043   3.350   1.433 -0.4155 -0.6015 -0.0739
 5113SOL    MW420226   0.041   3.344   1.520 -0.2817  0.3918  0.0126
 5114SOL     OW20227   0.474   4.135   1.276 -0.2096  0.0448  0.2894
 5114SOL    HW220228   0.507   4.093   1.356  1.1493  0.5307  0.0130
 5114SOL    HW320229   0.547   4.129   1.215 -0.7653  0.8871 -0.4647
 5114SOL    MW420230   0.488   4.129   1.279 -0.1036  0.2200  0.1534
 5115SOL     OW20231   0.062   6.217   1.046  0.0942  0.7661 -0.1507
 5115SOL    HW220232   0.034   6.158   0.976  0.0954 -0.2528  0.6982
 5115SOL    HW320233   0.063   6.303   1.004 -0.1031  0.2097 -1.3523
 5115SOL    MW420234   0.058   6.221   1.031  0.0684  0.5582 -0.1973
 5116SOL     OW20235   1.383   6.210   0.684 -0.0366  0.2211 -0.4785
 5116SOL    HW220236   1.420   6.201   0.597 -2.3362 -3.4688 -1.2930
 5116SOL    HW320237   1.288   6.210   0.671 -0.4969 -1.4893  1.9602
 5116SOL    MW420238   1.375   6.209   0.671 -0.4007 -0.4914 -0.2642
 5117SOL     OW20239   6.344   0.389   3.960 -0.1875  0.0494 -0.5548
 5117SOL    HW220240   6.422   0.346   3.994 -0.1340  0.2222 -0.4557
 5117SOL    HW320241   6.291   0.409   4.037 -0.0110  0.5451 -0.5536
 5117SOL    MW420242   6.347   0.386   3.974 -0.1571  0.1376 -0.5416
 5118SOL     OW20243   2.511   5.206   1.983 -0.0944  0.3309 -0.3843
 5118SOL    HW220244   2.494   5.129   2.038 -0.4837  0.9680  0.4111
 5118SOL    HW320245   2.564   5.173   1.911 -0.3715 -0.7093 -0.1212
 5118SOL    MW420246   2.516   5.192   1.981 -0.1823  0.2777 -0.2446
 5119SOL     OW20247   5.968   1.773   3.482  0.1947  0.7604  0.2318
 5119SOL    HW220248   5.919   1.691   3.473 -1.2553  1.6667 -0.3721
 5119SOL    HW320249   5.931   1.815   3.560  2.1689  0.0662  1.6404
 5119SOL    MW420250   5.957   1.767   3.491  0.2639  0.7883  0.3379
 5120SOL     OW20251   3.664   3.128   0.264 -0.1078  0.3706  0.4683
 5120SOL    HW220252   3.696   3.198   0.208 -0.0752 -1.0878 -1.4355
 5120SOL    HW320253   3.673   3.162   0.353  1.4913  2.1187 -0.2962
 5120SOL    MW420254   3.670   3.141   0.269  0.1075  0.4088  0.1162
 5121SOL     OW20255   2.836   4.169   1.464 -0.0925 -0.1184  0.6825
 5121SOL    HW220256   2.906   4.234   1.472 -0.0227 -0.0437 -0.3790
 5121SOL    HW320257   2.760   4.219   1.434 -0.1187 -0.4734  0.1464
 5121SOL    MW420258   2.835   4.184   1.461 -0.0868 -0.1554  0.4717
 5122SOL     OW20259   5.445   0.974   5.141  0.3328 -0.3846 -0.7135
 5122SOL    HW220260   5.398   0.899   5.105  0.4599  0.6057 -3.1271
 5122SOL    HW320261   5.473   1.024   5.064  0.8575  1.7765  0.7889
 5122SOL    MW420262   5.443   0.971   5.126  0.4188  0.0312 -0.8338
 5123SOL     OW20263   1.003   3.012   5.075  0.2413  0.2304  0.1658
 5123SOL    HW220264   1.007   2.985   4.983  0.2711 -0.6196  0.4063
 5123SOL    HW320265   1.014   3.107   5.073  1.2842  0.1084 -0.6369
 5123SOL    MW420266   1.005   3.021   5.063  0.3828  0.1021  0.0916
 5124SOL     OW20267   4.218   1.398   4.575 -0.3311 -0.1965  0.0807
 5124SOL    HW220268   4.242   1.468   4.515  1.6506 -0.7931  0.1010
 5124SOL    HW320269   4.123   1.392   4.568 -0.4448  1.7505 -0.7213
 5124SOL    MW420270   4.209   1.407   4.566 -0.0846 -0.0183 -0.0224
 5125SOL     OW20271   0.811   3.155   6.277  0.3525 -0.6473 -0.3775
 5125SOL    HW220272   0.775   3.237   6.309  1.1042 -0.5974  0.3494
 5125SOL    HW320273   0.754   3.088   6.314 -0.1854 -0.4711 -0.8675
 5125SOL    MW420274   0.799   3.157   6.286  0.3807 -0.6175 -0.3463
 5126SOL     OW20275   4.608   4.542   5.499  0.1726 -0.4105  0.0649
 5126SOL    HW220276   4.630   4.530   5.591 -1.8101  0.6064  0.7186
 5126SOL    HW320277   4.516   4.569   5.499  0.0462 -0.6278 -2.2314
 5126SOL    MW420278   4.599   4.544   5.511 -0.1056 -0.3050 -0.1519
 5127SOL     OW20279   0.460   5.011   2.339  0.2308  0.8286 -0.1059
 5127SOL    HW220280   0.382   5.013   2.395 -2.0946 -2.6917 -2.7089
 5127SOL    HW320281   0.437   5.067   2.264 -0.6100 -1.3176 -1.5665
 5127SOL    MW420282   0.446   5.018   2.336 -0.1869  0.0810 -0.6420
 5128SOL     OW20283   1.618   6.119   4.734  0.1467  0.3691  0.1299
 5128SOL    HW220284   1.561   6.162   4.670  0.0266  0.3167  0.2018
 5128SOL    HW320285   1.699   6.103   4.686 -0.0527  0.0452 -0.1008
 5128SOL    MW420286   1.621   6.123   4.719  0.1045  0.3194  0.1089
 5129SOL     OW20287   1.370   4.569   3.645  0.5174 -0.8476 -0.2283
 5129SOL    HW220288   1.312   4.551   3.571  0.1557 -0.6624  0.0068
 5129SOL    HW320289   1.314   4.613   3.709  1.3058  0.9047 -0.6839
 5129SOL    MW420290   1.355   4.573   3.644  0.5737 -0.5920 -0.2573
 5130SOL     OW20291   3.814   5.097   5.447  0.2390 -0.5801  0.5031
 5130SOL    HW220292   3.768   5.013   5.446 -1.4438  0.2690 -1.9370
 5130SOL    HW320293   3.841   5.111   5.357 -0.8006  2.1204  0.4974
 5130SOL    MW420294   3.811   5.088   5.435 -0.1201 -0.1117  0.1804
 5131SOL     OW20295   4.661   2.068   2.853  0.0731 -0.6859 -0.1735
 5131SOL    HW220296   4.702   2.010   2.918  1.1371 -0.3741 -0.5620
 5131SOL    HW320297   4.734   2.106   2.805 -0.6790 -0.1632 -0.9183
 5131SOL    MW420298   4.676   2.065   2.856  0.1143 -0.5758 -0.3230
 5132SOL     OW20299   3.241   4.218   3.564 -0.6215  0.1909  0.5353
 5132SOL    HW220300   3.330   4.236   3.532  0.1038 -2.3580  0.9436
 5132SOL    HW320301   3.252   4.209   3.659 -0.3759 -4.2829  0.2829
 5132SOL    MW420302   3.254   4.219   3.572 -0.4934 -0.7357  0.5558
 5133SOL     OW20303   5.837   5.266   3.983 -0.7803 -0.3314  0.5746
 5133SOL    HW220304   5.878   5.193   4.031 -1.7827 -1.1676  0.1993
 5133SOL    HW320305   5.767   5.296   4.041  0.7096  1.5373  1.5138
 5133SOL    MW420306   5.833   5.260   3.997 -0.7160 -0.1952  0.6490
 5134SOL     OW20307   4.890   3.320   4.831 -0.2399  0.2445 -0.0219
 5134SOL    HW220308   4.881   3.274   4.747 -0.5517 -0.4167  0.3663
 5134SOL    HW320309   4.955   3.389   4.813 -0.0879 -0.0682 -0.7295
 5134SOL    MW420310   4.897   3.323   4.817 -0.2610  0.1160 -0.0641
 5135SOL     OW20311   0.883   3.331   2.933  0.3597 -0.0520 -0.0249
 5135SOL    HW220312   0.959   3.273   2.925  1.6371  1.5791 -0.1543
 5135SOL    HW320313   0.915   3.406   2.983 -1.9661 -0.6378  2.5922
 5135SOL    MW420314   0.897   3.333   2.939  0.2214  0.0859  0.3033
 5136SOL     OW20315   4.762   0.023   3.501 -0.1672 -0.2045  0.2095
 5136SOL    HW220316   4.768  -0.068   3.469  2.5102 -0.1438  0.3096
 5136SOL    HW320317   4.769   0.076   3.421 -0.0356 -0.0814  0.3036
 5136SOL    MW420318   4.764   0.018   3.486  0.2034 -0.1803  0.2351
 5137SOL     OW20319   4.175   5.254   4.707  0.3392 -0.1246  0.4040
 5137SOL    HW220320   4.146   5.289   4.623  1.7597  1.4234  0.5049
 5137SOL    HW320321   4.227   5.325   4.746 -0.5287 -0.6779  2.7333
 5137SOL    MW420322   4.178   5.268   4.701  0.4121  0.0067  0.7247
 5138SOL     OW20323   2.060   2.023   0.743  0.1081  0.2533  0.5687
 5138SOL    HW220324   2.001   2.068   0.804 -0.4749 -0.6571  0.6969
 5138SOL    HW320325   2.148   2.046   0.773 -0.1679  0.9350  0.8954
 5138SOL    MW420326   2.064   2.032   0.755 -0.0052  0.2232  0.6287
 5139SOL     OW20327   0.863   2.990   1.442 -0.0397 -1.1257  0.3102
 5139SOL    HW220328   0.790   2.968   1.499 -1.3966  2.2413  0.1169
 5139SOL    HW320329   0.925   3.036   1.498 -0.0441 -0.3113 -0.3306
 5139SOL    MW420330   0.862   2.993   1.457 -0.2193 -0.5740  0.2001
 5140SOL     OW20331   5.526   0.034   4.358 -0.4479 -0.4218  0.1608
 5140SOL    HW220332   5.572  -0.037   4.403  0.0778  0.2440  0.6917
 5140SOL    HW320333   5.446  -0.007   4.324  0.3317 -1.4887 -0.4219
 5140SOL    MW420334   5.521   0.019   4.360 -0.2756 -0.4747  0.1540
 5141SOL     OW20335   3.904   4.190   5.187  0.0849 -0.9034  0.0666
 5141SOL    HW220336   3.861   4.115   5.145 -0.1657  0.0596 -1.4833
 5141SOL    HW320337   3.986   4.200   5.140  0.0722 -0.1424  0.1976
 5141SOL    MW420338   3.909   4.181   5.175  0.0502 -0.6759 -0.1206
 5142SOL     OW20339   5.807   3.944   4.182 -0.0573 -0.0818 -0.1669
 5142SOL    HW220340   5.814   3.890   4.104  0.1843 -0.1574 -0.0940
 5142SOL    HW320341   5.854   4.025   4.161  3.4599 -1.5651  1.1874
 5142SOL    MW420342   5.814   3.948   4.169  0.4387 -0.2875  0.0214
 5143SOL     OW20343   3.592   1.182   1.577  0.0250  0.2289  0.0193
 5143SOL    HW220344   3.523   1.201   1.514  0.2259 -0.3504 -0.3842
 5143SOL    HW320345   3.550   1.190   1.663 -0.3372  0.6629 -0.1968
 5143SOL    MW420346   3.578   1.185   1.580  0.0037  0.2097 -0.0625
 5144SOL     OW20347   2.532   2.023   4.820  0.4538 -0.3337 -0.3062
 5144SOL    HW220348   2.607   2.060   4.773  1.1085 -0.4706  0.6102
 5144SOL    HW320349   2.533   1.930   4.797  0.5194 -0.3237 -0.3450
 5144SOL    MW420350   2.542   2.015   4.811  0.5489 -0.3504 -0.1904
 5145SOL     OW20351   2.228   3.876   5.913  0.2504 -0.0034 -0.1575
 5145SOL    HW220352   2.164   3.876   5.841  1.2344  0.6557 -1.0686
 5145SOL    HW320353   2.241   3.969   5.933  0.2540 -0.1708  0.6529
 5145SOL    MW420354   2.221   3.888   5.906  0.3807  0.0615 -0.1708
 5146SOL     OW20355   1.893   1.531   0.858  0.0727 -0.1521  0.7627
 5146SOL    HW220356   1.806   1.518   0.822  0.2652 -1.2971  0.6870
 5146SOL    HW320357   1.878   1.554   0.950 -0.3675  1.7070  0.2822
 5146SOL    MW420358   1.880   1.532   0.865  0.0401 -0.0579  0.6893
 5147SOL     OW20359   6.332   0.452   0.930 -0.1315  0.0519  0.2611
 5147SOL    HW220360   6.279   0.496   0.864  3.2865 -0.1951 -2.9509
 5147SOL    HW320361   6.337   0.361   0.900  0.2900 -0.4468  1.7518
 5147SOL    MW420362   6.326   0.446   0.918  0.3751 -0.0465  0.0340
 5148SOL     OW20363   5.356   1.150   5.783 -0.6163  0.2888  0.0679
 5148SOL    HW220364   5.356   1.054   5.790  0.2482  0.1916 -1.0167
 5148SOL    HW320365   5.264   1.174   5.788 -1.0727 -0.8139 -1.9363
 5148SOL    MW420366   5.344   1.141   5.784 -0.5624  0.1305 -0.3396
 5149SOL     OW20367   3.663   1.112   0.985 -0.8419  1.1981 -0.1413
 5149SOL    HW220368   3.704   1.145   0.906  2.2957 -0.0413  0.7916
 5149SOL    HW320369   3.634   1.024   0.962  2.6717 -0.3386  0.6242
 5149SOL    MW420370   3.665   1.105   0.972  0.0357  0.8318  0.0828
 5150SOL     OW20371   0.559   4.225   2.731  0.4361 -0.1844 -0.3016
 5150SOL    HW220372   0.556   4.209   2.825 -1.8820 -2.9899 -0.7143
 5150SOL    HW320373   0.651   4.219   2.708  1.0140  0.2963  1.7283
 5150SOL    MW420374   0.571   4.222   2.741  0.2065 -0.4911 -0.0882
 5151SOL     OW20375   6.212   0.447   2.659  0.0779 -0.3226  0.2421
 5151SOL    HW220376   6.189   0.417   2.571 -1.0787 -0.2834  0.5159
 5151SOL    HW320377   6.224   0.542   2.650  1.1385 -0.4663 -0.0897
 5151SOL    MW420378   6.211   0.455   2.646  0.0652 -0.3364  0.2345
 5152SOL     OW20379   3.789   5.690   3.313 -0.0940 -0.7074  0.3734
 5152SOL    HW220380   3.879   5.722   3.317  0.1665 -1.4807  0.7626
 5152SOL    HW320381   3.792   5.616   3.253 -0.4838 -0.7135  0.3557
 5152SOL    MW420382   3.801   5.685   3.305 -0.1110 -0.8102  0.4224
 5153SOL     OW20383   5.113   1.161   1.484  0.0047 -0.5818  0.6382
 5153SOL    HW220384   5.179   1.163   1.415  1.8397  3.1666  2.1679
 5153SOL    HW320385   5.031   1.140   1.439  1.5217 -0.9873 -2.1383
 5153SOL    MW420386   5.111   1.159   1.469  0.4470 -0.1407  0.4737
 5154SOL     OW20387   1.834   0.689   3.214 -0.1052  0.1942 -0.4724
 5154SOL    HW220388   1.904   0.625   3.228  0.1505  0.8478  1.6175
 5154SOL    HW320389   1.864   0.767   3.260 -2.3052  0.4082  0.7333
 5154SOL    MW420390   1.847   0.691   3.222 -0.3617  0.3087 -0.0376
 5155SOL     OW20391   2.963   2.889   0.368  0.1838  0.0628 -0.3873
 5155SOL    HW220392   3.053   2.882   0.336  0.0606  1.3553 -1.0858
 5155SOL    HW320393   2.967   2.951   0.441 -0.1850  0.4397 -0.6793
 5155SOL    MW420394   2.975   2.896   0.373  0.1189  0.2830 -0.5180
 5156SOL     OW20395   0.565   3.936   1.475 -0.0976 -0.1727 -0.0959
 5156SOL    HW220396   0.650   3.894   1.489 -0.4107 -0.3933  1.2069
 5156SOL    HW320397   0.556   3.998   1.547 -0.9041  0.0980 -0.4167
 5156SOL    MW420398   0.575   3.939   1.486 -0.2453 -0.1661  0.0337
 5157SOL     OW20399   5.590   5.907   3.945  0.0668  0.2024  0.2302
 5157SOL    HW220400   5.565   5.999   3.951 -2.1200 -0.2239 -1.0313
 5157SOL    HW320401   5.670   5.907   3.893  0.4600  1.4024  0.7887
 5157SOL    MW420402   5.597   5.919   3.939 -0.1698  0.3045  0.1375
 5158SOL     OW20403   5.090   1.882   0.574 -0.2063  0.3148  0.9591
 5158SOL    HW220404   5.176   1.840   0.584 -0.3047  0.1822  1.2758
 5158SOL    HW320405   5.103   1.947   0.506 -0.1398 -0.4940  0.1847
 5158SOL    MW420406   5.103   1.885   0.567 -0.2105  0.1906  0.8987
 5159SOL     OW20407   5.766   3.225   3.599 -0.3760 -0.0024  0.0821
 5159SOL    HW220408   5.726   3.311   3.600  0.1953  0.2684  0.2800
 5159SOL    HW320409   5.842   3.233   3.657  0.5783 -0.1776 -1.0842
 5159SOL    MW420410   5.771   3.237   3.607 -0.1747  0.0102 -0.0457
 5160SOL     OW20411   5.079   4.126   0.948  0.1945  0.1180 -0.0968
 5160SOL    HW220412   5.142   4.070   0.903  1.3188 -0.9269  2.5633
 5160SOL    HW320413   5.013   4.065   0.981 -2.3745  1.1964 -2.8499
 5160SOL    MW420414   5.079   4.110   0.947  0.0039  0.1225 -0.1090
 5161SOL     OW20415   4.871   4.633   4.125  0.0073 -0.1862 -0.0429
 5161SOL    HW220416   4.893   4.545   4.155 -0.2784  0.0584  0.9104
 5161SOL    HW320417   4.776   4.639   4.134 -0.0602 -0.0179 -0.7774
 5161SOL    MW420418   4.861   4.622   4.130 -0.0393 -0.1317 -0.0141
 5162SOL     OW20419   1.475   3.429   3.567 -0.6205  0.1235  0.2117
 5162SOL    HW220420   1.564   3.421   3.531 -0.3351 -1.4183  1.1639
 5162SOL    HW320421   1.417   3.408   3.494 -0.0819 -1.9550  0.3336
 5162SOL    MW420422   1.479   3.425   3.553 -0.5118 -0.3542  0.3534
 5163SOL     OW20423   5.838   5.003   2.679  0.0770 -0.5784 -0.4781
 5163SOL    HW220424   5.917   5.023   2.629  0.0136  0.4568 -0.1849
 5163SOL    HW320425   5.828   4.908   2.671  2.1842 -0.9703  0.6903
 5163SOL    MW420426   5.847   4.993   2.671  0.3466 -0.4935 -0.2852
 5164SOL     OW20427   2.091   3.084   2.060 -0.0027 -0.1325 -0.1563
 5164SOL    HW220428   2.032   3.027   2.109  0.6247  1.0226  2.1264
 5164SOL    HW320429   2.129   3.028   1.993 -2.1749 -1.3929 -0.4496
 5164SOL    MW420430   2.088   3.069   2.058 -0.2065 -0.1464  0.1062
 5165SOL     OW20431   1.781   3.270   5.694 -0.0793 -0.0477 -0.3217
 5165SOL    HW220432   1.781   3.353   5.645  0.7522 -0.0910 -0.4134
 5165SOL    HW320433   1.855   3.278   5.754 -2.0991  0.7413  2.2528
 5165SOL    MW420434   1.791   3.282   5.695 -0.2361  0.0507  0.0059
 5166SOL     OW20435   4.130   0.337   6.179 -0.2942  0.2016 -0.1551
 5166SOL    HW220436   4.194   0.337   6.250  1.2267  1.9452 -1.4396
 5166SOL    HW320437   4.047   0.361   6.221  0.5862  1.2390  1.0420
 5166SOL    MW420438   4.127   0.341   6.194  0.0226  0.5685 -0.1667
 5167SOL     OW20439   3.966   0.026   2.749  0.1899 -0.1012 -0.0167
 5167SOL    HW220440   3.911   0.012   2.827 -1.7415  0.9181 -1.1253
 5167SOL    HW320441   4.056   0.014   2.781 -0.5971 -0.9934  2.0647
 5167SOL    MW420442   3.971   0.022   2.764 -0.1687 -0.0844  0.1116
 5168SOL     OW20443   6.147   5.556   0.981 -0.1906 -0.0534 -0.2132
 5168SOL    HW220444   6.107   5.547   1.067 -1.1978 -0.6380 -0.7169
 5168SOL    HW320445   6.165   5.466   0.953 -1.3833  0.0063 -1.2774
 5168SOL    MW420446   6.144   5.543   0.988 -0.4809 -0.1227 -0.4201
 5169SOL     OW20447   5.751   0.363   1.267 -0.3277  0.3918 -0.1256
 5169SOL    HW220448   5.838   0.337   1.238  0.1128 -1.5199  2.5027
 5169SOL    HW320449   5.693   0.333   1.197  0.8874 -1.3350 -0.4760
 5169SOL    MW420450   5.755   0.355   1.254 -0.1093 -0.0883  0.1750
 5170SOL     OW20451   0.570   3.774   1.088 -0.5250 -0.1138  0.1087
 5170SOL    HW220452   0.572   3.699   1.029 -0.0960 -0.0271  0.0089
 5170SOL    HW320453   0.585   3.850   1.032 -1.4650  0.1073  0.1319
 5170SOL    MW420454   0.572   3.774   1.073 -0.5925 -0.0732  0.0986
 5171SOL     OW20455   0.082   4.325   1.974  0.0470  0.1835 -0.0185
 5171SOL    HW220456   0.047   4.318   2.063 -2.3138 -1.4286 -0.9634
 5171SOL    HW320457   0.151   4.259   1.971 -0.3247 -0.2444  0.4576
 5171SOL    MW420458   0.086   4.315   1.985 -0.3135 -0.0857 -0.0804
 5172SOL     OW20459   4.298   5.631   1.433  0.3624  0.3150  0.1495
 5172SOL    HW220460   4.255   5.693   1.375 -0.8435 -0.2836  0.3813
 5172SOL    HW320461   4.349   5.575   1.374 -0.3249  0.1266 -0.2826
 5172SOL    MW420462   4.299   5.632   1.417  0.1126  0.2111  0.1231
 5173SOL     OW20463   4.824   5.725   0.711  0.2852  0.5451  0.0678
 5173SOL    HW220464   4.882   5.716   0.636 -2.4607  0.5122 -2.1908
 5173SOL    HW320465   4.827   5.640   0.755 -0.2776 -0.4615 -1.7593
 5173SOL    MW420466   4.832   5.713   0.707 -0.1513  0.4079 -0.4712
 5174SOL     OW20467   1.404   4.218   0.911  0.1001  0.0709 -0.1020
 5174SOL    HW220468   1.324   4.259   0.944  1.0022  1.0508  0.9370
 5174SOL    HW320469   1.474   4.277   0.939  1.3082 -1.4100  0.0926
 5174SOL    MW420470   1.402   4.231   0.919  0.3785  0.0048  0.0608
 5175SOL     OW20471   4.436   1.801   1.382  0.5408  0.1493  0.5546
 5175SOL    HW220472   4.393   1.760   1.307  1.5193 -1.0719  0.6422
 5175SOL    HW320473   4.515   1.841   1.347 -0.1696  1.6425  0.5511
 5175SOL    MW420474   4.440   1.801   1.368  0.5762  0.1852  0.5657
 5176SOL     OW20475   2.564   1.711   3.654  0.2321  0.4127  0.5014
 5176SOL    HW220476   2.490   1.675   3.701 -0.4934 -1.3616 -1.8104
 5176SOL    HW320477   2.572   1.801   3.686 -2.1225  0.2640  1.6902
 5176SOL    MW420478   2.556   1.718   3.664 -0.1743  0.1590  0.3532
 5177SOL     OW20479   0.702   2.249   1.690  0.0987  0.4459  0.7502
 5177SOL    HW220480   0.623   2.211   1.727 -0.5952  1.4088  0.2818
 5177SOL    HW320481   0.741   2.177   1.639 -0.6717  0.0794  0.6611
 5177SOL    MW420482   0.697   2.234   1.688 -0.0945  0.5246  0.6767
 5178SOL     OW20483   3.435   1.408   0.916  0.3297  0.4749 -0.3511
 5178SOL    HW220484   3.404   1.485   0.868 -0.4460  0.7929  0.6308
 5178SOL    HW320485   3.390   1.334   0.874 -0.4771  0.7679 -0.0221
 5178SOL    MW420486   3.425   1.408   0.904  0.1209  0.5555 -0.1781
 5179SOL     OW20487   2.698   1.405   4.808 -0.0766 -0.8254  0.2143
 5179SOL    HW220488   2.694   1.316   4.771  2.9436 -1.3771  0.9228
 5179SOL    HW320489   2.758   1.452   4.751 -0.9292  0.5173  0.3904
 5179SOL    MW420490   2.705   1.399   4.796  0.2094 -0.7210  0.3310
 5180SOL     OW20491   5.788   4.450   6.070  0.0980 -0.7838  0.3319
 5180SOL    HW220492   5.878   4.417   6.061  1.5260  2.5582  1.1537
 5180SOL    HW320493   5.764   4.477   5.981  0.0078 -1.3669  0.1738
 5180SOL    MW420494   5.796   4.449   6.057  0.2745 -0.4198  0.4195
 5181SOL     OW20495   6.162   4.083   1.968  0.0575 -0.2295  0.4447
 5181SOL    HW220496   6.246   4.037   1.977  0.9393  1.2506  0.2489
 5181SOL    HW320497   6.154   4.134   2.048  0.1377  0.8381 -0.1976
 5181SOL    MW420498   6.172   4.084   1.979  0.1844  0.1066  0.3341
 5182SOL     OW20499   5.355   1.619   2.634 -0.2945  0.0335  0.1103
 5182SOL    HW220500   5.443   1.612   2.671 -0.5115  0.0954  0.6448
 5182SOL    HW320501   5.359   1.693   2.574 -0.1879  0.5506  0.7429
 5182SOL    MW420502   5.367   1.627   2.631 -0.3091  0.1099  0.2642
 5183SOL     OW20503   1.500   0.040   5.995 -0.0221 -0.2757  0.0013
 5183SOL    HW220504   1.451   0.122   5.995  0.4285  0.0028 -1.2813
 5183SOL    HW320505   1.449  -0.018   5.938 -0.3551 -0.9104  0.9219
 5183SOL    MW420506   1.487   0.043   5.988 -0.0066 -0.3227 -0.0465
 5184SOL     OW20507   5.580   4.893   1.083  0.3190 -0.3561  0.3424
 5184SOL    HW220508   5.651   4.940   1.039  0.8851 -0.3823  1.2017
 5184SOL    HW320509   5.608   4.801   1.083  0.2497 -0.3773  0.6115
 5184SOL    MW420510   5.593   4.887   1.077  0.3845 -0.3623  0.4913
 5185SOL     OW20511   4.481   4.293   1.196  0.2310  0.4654 -0.0482
 5185SOL    HW220512   4.544   4.361   1.218 -1.7266  1.8915  1.5150
 5185SOL    HW320513   4.438   4.324   1.116  0.8286 -0.0341 -0.5713
 5185SOL    MW420514   4.483   4.306   1.188  0.0516  0.5876  0.0890
 5186SOL     OW20515   3.287   4.190   2.490  0.0767  0.0885 -0.2220
 5186SOL    HW220516   3.251   4.214   2.575  0.4447  0.0722 -0.0601
 5186SOL    HW320517   3.320   4.273   2.454 -1.3024  0.3391 -0.9429
 5186SOL    MW420518   3.287   4.205   2.496 -0.0567  0.1195 -0.2957
 5187SOL     OW20519   0.592   4.289   3.192  0.4919  0.4685  0.6253
 5187SOL    HW220520   0.684   4.309   3.209  0.4707  1.1036  0.0456
 5187SOL    HW320521   0.547   4.373   3.202  0.1835  0.4542 -0.4802
 5187SOL    MW420522   0.598   4.303   3.195  0.4484  0.5504  0.4029
 5188SOL     OW20523   5.026   3.898   5.405 -0.3103  0.0482 -0.5954
 5188SOL    HW220524   4.974   3.841   5.349 -0.0839 -0.1218 -0.6335
 5188SOL    HW320525   5.107   3.913   5.355 -0.4259  0.5124 -0.6472
 5188SOL    MW420526   5.030   3.893   5.391 -0.2957  0.0870 -0.6073
 5189SOL     OW20527   0.455   2.949   3.596  0.0652  0.4796  0.0070
 5189SOL    HW220528   0.454   2.858   3.628 -0.5255  0.7935  0.9052
 5189SOL    HW320529   0.542   2.981   3.617  0.1462  0.2385  0.0417
 5189SOL    MW420530   0.466   2.941   3.603 -0.0021  0.4892  0.1301
 5190SOL     OW20531   2.934   4.546   6.041 -0.1765  0.4440 -0.4807
 5190SOL    HW220532   2.880   4.536   6.120 -1.2989  1.9688 -1.0045
 5190SOL    HW320533   2.996   4.616   6.063  0.6867 -0.3261 -0.3814
 5190SOL    MW420534   2.935   4.554   6.055 -0.2107  0.5436 -0.5367
 5191SOL     OW20535   3.982   2.494   0.529  0.1786 -0.0449  0.4498
 5191SOL    HW220536   3.942   2.510   0.443 -0.0951 -1.3146  0.3087
 5191SOL    HW320537   4.042   2.421   0.514 -0.2515 -0.6261  1.4257
 5191SOL    MW420538   3.985   2.486   0.516  0.0857 -0.2891  0.5600
 5192SOL     OW20539   3.214   3.779   3.620  0.2030  0.1076 -0.1062
 5192SOL    HW220540   3.218   3.782   3.525 -0.7911  1.0996 -0.1318
 5192SOL    HW320541   3.151   3.846   3.644 -0.5066 -0.9627  1.1887
 5192SOL    MW420542   3.206   3.788   3.611 -0.0218  0.0973  0.0613
 5193SOL     OW20543   5.528   4.027   2.604 -0.1247  0.0128  0.5902
 5193SOL    HW220544   5.471   4.031   2.527  1.4170 -0.3947 -0.6423
 5193SOL    HW320545   5.515   4.111   2.648 -1.3811  0.0739  0.1392
 5193SOL    MW420546   5.519   4.039   2.600 -0.0871 -0.0329  0.3681
 5194SOL     OW20547   4.592   0.846   3.018  0.3483 -0.2231  0.0341
 5194SOL    HW220548   4.569   0.840   2.926  1.1113 -0.3762 -0.1557
 5194SOL    HW320549   4.623   0.936   3.029  0.2144 -0.1910  0.1547
 5194SOL    MW420550   4.593   0.857   3.008  0.4313 -0.2391  0.0250
 5195SOL     OW20551   2.703   3.441   5.527 -0.7216  0.0858  0.4093
 5195SOL    HW220552   2.787   3.395   5.531 -0.8845 -0.2322  0.2204
 5195SOL    HW320553   2.647   3.384   5.473 -1.2001  0.0623  0.9201
 5195SOL    MW420554   2.706   3.427   5.520 -0.8062  0.0407  0.4518
 5196SOL     OW20555   1.304   2.816   0.944 -0.9349 -0.8040  0.1691
 5196SOL    HW220556   1.378   2.853   0.896 -0.0429 -2.0285  0.5599
 5196SOL    HW320557   1.227   2.840   0.891 -0.2606  0.3393 -0.3299
 5196SOL    MW420558   1.303   2.824   0.930 -0.7283 -0.8147  0.1548
 5197SOL     OW20559   0.049   5.687   5.641 -0.3338  0.2813  0.5887
 5197SOL    HW220560   0.034   5.760   5.581 -1.1791  0.8558  1.4728
 5197SOL    HW320561   0.120   5.716   5.698  0.8737 -0.4931 -0.4512
 5197SOL    MW420562   0.057   5.700   5.640 -0.2860  0.2550  0.5681
 5198SOL     OW20563   4.589   1.664   3.902  0.2589 -0.3250  0.1929
 5198SOL    HW220564   4.533   1.595   3.936  0.3408 -0.0666  0.8671
 5198SOL    HW320565   4.588   1.731   3.970 -0.5874  0.7699 -0.8424
 5198SOL    MW420566   4.581   1.664   3.916  0.1580 -0.1465  0.1452
 5199SOL     OW20567   3.101   6.083   5.389 -0.1534 -0.1401 -0.5623
 5199SOL    HW220568   3.182   6.110   5.432  0.1359  1.1231 -1.8367
 5199SOL    HW320569   3.094   5.989   5.408  1.7196 -0.3236 -0.5809
 5199SOL    MW420570   3.111   6.074   5.397  0.1319  0.0024 -0.7329
 5200SOL     OW20571   4.502   1.543   2.538  0.0701  0.0770  0.2284
 5200SOL    HW220572   4.511   1.466   2.594 -1.1979 -0.8103 -0.7139
 5200SOL    HW320573   4.418   1.530   2.493  0.7742  1.0109 -1.4528
 5200SOL    MW420574   4.492   1.531   2.539 -0.0043  0.0831 -0.1177
 5201SOL     OW20575   5.368   0.953   0.790 -0.0759 -0.2644 -0.7500
 5201SOL    HW220576   5.429   0.983   0.723  0.1858  0.8323 -0.0452
 5201SOL    HW320577   5.383   1.012   0.864  0.0123 -1.7652  0.4765
 5201SOL    MW420578   5.378   0.965   0.791 -0.0298 -0.3177 -0.4952
 5202SOL     OW20579   6.079   3.152   4.134  0.6004 -0.4294 -0.6201
 5202SOL    HW220580   6.009   3.217   4.122  0.7911  0.6804  2.9568
 5202SOL    HW320581   6.033   3.068   4.141 -0.1211 -0.0592 -0.7929
 5202SOL    MW420582   6.063   3.150   4.134  0.5304 -0.2341 -0.1710
 5203SOL     OW20583   4.695   1.571   4.908  0.2005  0.3763 -0.4755
 5203SOL    HW220584   4.715   1.478   4.907  0.9447  0.5312 -0.3957
 5203SOL    HW320585   4.643   1.586   4.829 -0.3271 -0.1903 -0.2432
 5203SOL    MW420586   4.691   1.561   4.898  0.2291  0.3220 -0.4344
 5204SOL     OW20587   3.256   1.167   5.372 -0.2564  0.3578 -0.0582
 5204SOL    HW220588   3.276   1.129   5.458  1.8408  0.5261 -0.4174
 5204SOL    HW320589   3.209   1.097   5.326 -0.4437 -0.1360  0.8569
 5204SOL    MW420590   3.253   1.153   5.378 -0.0044  0.3148  0.0151
 5205SOL     OW20591   2.534   0.698   1.618 -0.0201 -0.3269 -0.6542
 5205SOL    HW220592   2.442   0.691   1.593 -0.4322  2.5116 -0.2726
 5205SOL    HW320593   2.579   0.723   1.538  0.1043  0.0450 -0.4726
 5205SOL    MW420594   2.528   0.701   1.604 -0.0580  0.0966 -0.5799
 5206SOL     OW20595   0.957   1.384   6.342  0.2722  0.1156  0.2069
 5206SOL    HW220596   0.914   1.460   6.382  1.6966 -0.2174  2.5445
 5206SOL    HW320597   1.042   1.417   6.312 -0.0055 -0.0898 -0.8570
 5206SOL    MW420598   0.962   1.398   6.343  0.4235  0.0445  0.3750
 5207SOL     OW20599   3.748   0.497   1.284  0.4696  0.4319  0.3426
 5207SOL    HW220600   3.780   0.426   1.228 -0.1296 -0.4841  1.1254
 5207SOL    HW320601   3.691   0.549   1.227 -1.1368 -1.2033  0.3431
 5207SOL    MW420602   3.744   0.495   1.269  0.1786  0.0953  0.4459
 5208SOL     OW20603   2.371   1.902   0.482 -0.4799 -0.3372  0.0636
 5208SOL    HW220604   2.299   1.846   0.511 -1.0936  1.2008  1.6758
 5208SOL    HW320605   2.354   1.915   0.388 -1.5031 -1.1395  0.1170
 5208SOL    MW420606   2.359   1.897   0.473 -0.6959 -0.2401  0.2834
 5209SOL     OW20607   5.372   4.742   4.693 -0.0383  0.1884  0.9275
 5209SOL    HW220608   5.330   4.743   4.607 -1.2212  0.5643  1.4874
 5209SOL    HW320609   5.377   4.835   4.718 -0.3309  0.0446  1.5410
 5209SOL    MW420610   5.367   4.755   4.685 -0.2330  0.2190  1.0823
 5210SOL     OW20611   5.618   6.362   4.835 -0.8852 -0.4067  0.2049
 5210SOL    HW220612   5.576   6.448   4.836 -1.8507 -0.8464 -0.4108
 5210SOL    HW320613   5.650   6.350   4.925 -0.6678  0.6178  0.2776
 5210SOL    MW420614   5.617   6.371   4.847 -0.9839 -0.3295  0.1333
 5211SOL     OW20615   2.107   2.413   1.721  0.1894 -0.0318  0.0492
 5211SOL    HW220616   2.202   2.408   1.723  0.1271 -1.6578  1.8936
 5211SOL    HW320617   2.084   2.460   1.801 -0.5776  0.0985 -0.2382
 5211SOL    MW420618   2.116   2.419   1.732  0.0800 -0.2291  0.2546
 5212SOL     OW20619   3.076   0.733   0.876  0.1652 -0.2164  0.2000
 5212SOL    HW220620   3.079   0.673   0.801  1.8226 -0.2800  0.2768
 5212SOL    HW320621   3.091   0.678   0.952 -1.9354 -0.2160  0.6870
 5212SOL    MW420622   3.078   0.718   0.876  0.1067 -0.2247  0.2744
 5213SOL     OW20623   3.077   2.452   3.204 -0.2412  0.3791  0.0469
 5213SOL    HW220624   3.147   2.408   3.157 -0.1486  2.3725 -1.8471
 5213SOL    HW320625   3.122   2.513   3.262 -0.3969  0.4488  0.0944
 5213SOL    MW420626   3.092   2.454   3.205 -0.2495  0.6513 -0.1967
 5214SOL     OW20627   1.677   3.482   4.162 -0.7768  0.4941  0.2866
 5214SOL    HW220628   1.651   3.390   4.170  0.6206 -0.1381 -1.5911
 5214SOL    HW320629   1.772   3.481   4.178 -0.7078  1.5722 -0.0140
 5214SOL    MW420630   1.686   3.470   4.165 -0.5833  0.5530 -0.0008
 5215SOL     OW20631   0.440   1.658   6.057 -0.3488  1.1651  0.5067
 5215SOL    HW220632   0.530   1.629   6.073 -0.3097  0.4843 -0.8954
 5215SOL    HW320633   0.443   1.753   6.073  0.5653  1.1177  0.6695
 5215SOL    MW420634   0.452   1.667   6.062 -0.2230  1.0690  0.3432
 5216SOL     OW20635   2.241   0.077   3.261  0.0274 -0.1459 -0.8867
 5216SOL    HW220636   2.252   0.048   3.351  1.3804  2.8513  0.0595
 5216SOL    HW320637   2.155   0.118   3.259  1.0919  2.3489 -0.0225
 5216SOL    MW420638   2.231   0.079   3.272  0.3464  0.5787 -0.6479
 5217SOL     OW20639   4.639   1.931   1.184 -0.4139 -0.0205 -0.1977
 5217SOL    HW220640   4.642   1.851   1.132 -0.5344 -0.2520  0.1493
 5217SOL    HW320641   4.713   1.983   1.153 -0.9470  0.1896 -1.1643
 5217SOL    MW420642   4.649   1.928   1.173 -0.5001 -0.0233 -0.2794
 5218SOL     OW20643   4.668   0.860   6.214 -0.3111  0.2978  0.3614
 5218SOL    HW220644   4.645   0.770   6.192  0.9092  0.1384 -0.3167
 5218SOL    HW320645   4.658   0.908   6.132  3.4967 -0.1475 -0.5189
 5218SOL    MW420646   4.664   0.855   6.200  0.3523  0.2180  0.1558
 5219SOL     OW20647   3.491   4.933   2.234 -0.0407  0.4774 -0.9280
 5219SOL    HW220648   3.578   4.894   2.227  0.6950  1.8817 -0.1859
 5219SOL    HW320649   3.473   4.934   2.328 -0.9183  0.0923 -1.0868
 5219SOL    MW420650   3.500   4.928   2.245 -0.0595  0.6119 -0.8511
 5220SOL     OW20651   0.507   5.188   4.218  0.2229  0.0855  0.2828
 5220SOL    HW220652   0.465   5.117   4.169 -0.7512 -0.0665  1.3059
 5220SOL    HW320653   0.482   5.172   4.309 -1.1942  2.5351  0.3935
 5220SOL    MW420654   0.498   5.176   4.224 -0.0926  0.3886  0.4324
 5221SOL     OW20655   3.683   5.047   2.593 -0.1389 -0.1148 -0.2262
 5221SOL    HW220656   3.695   4.986   2.521 -0.4637 -0.4679  0.0167
 5221SOL    HW320657   3.685   4.993   2.672 -0.1204  0.2248  0.0109
 5221SOL    MW420658   3.684   5.032   2.594 -0.1793 -0.1166 -0.1629
 5222SOL     OW20659   1.334   0.909   3.891  0.4421 -0.2123 -0.0293
 5222SOL    HW220660   1.265   0.908   3.957 -0.3025 -0.0924 -0.8067
 5222SOL    HW320661   1.301   0.855   3.820  0.9981  0.1458 -0.5672
 5222SOL    MW420662   1.321   0.902   3.891  0.4172 -0.1493 -0.2028
 5223SOL     OW20663   1.161   2.799   1.570 -0.2915  0.1670 -0.1988
 5223SOL    HW220664   1.200   2.886   1.583 -1.4700  0.6316  0.4218
 5223SOL    HW320665   1.089   2.796   1.633 -0.5145 -1.1177 -0.4952
 5223SOL    MW420666   1.157   2.810   1.580 -0.4764  0.0588 -0.1560
 5224SOL     OW20667   4.137   1.390   3.338  0.3029 -0.6314 -0.8599
 5224SOL    HW220668   4.046   1.418   3.344  0.9462  1.7797 -1.3474
 5224SOL    HW320669   4.186   1.457   3.386  2.0212 -0.6468 -2.4604
 5224SOL    MW420670   4.132   1.402   3.345  0.6145 -0.3153 -1.1354
 5225SOL     OW20671   1.545   5.393   2.831  0.4859  0.0958  0.0395
 5225SOL    HW220672   1.466   5.422   2.878  1.6250  0.8247  1.5786
 5225SOL    HW320673   1.524   5.407   2.738 -0.5522  1.9769  0.5037
 5225SOL    MW420674   1.532   5.399   2.825  0.4993  0.4401  0.3038
 5226SOL     OW20675   3.890   4.444   0.618 -0.3730 -0.5632  0.5660
 5226SOL    HW220676   3.879   4.470   0.527  0.4293 -0.8559  0.3752
 5226SOL    HW320677   3.968   4.492   0.647 -0.7525 -0.3001  1.1648
 5226SOL    MW420678   3.899   4.453   0.610 -0.3172 -0.5671  0.6198
 5227SOL     OW20679   1.792   1.653   2.757  0.7222 -0.9849  0.4130
 5227SOL    HW220680   1.718   1.707   2.784  1.1597 -0.3313  0.3257
 5227SOL    HW320681   1.765   1.564   2.779 -0.2880 -0.8121 -0.0761
 5227SOL    MW420682   1.779   1.649   2.764  0.6466 -0.8759  0.3369
 5228SOL     OW20683   2.581   6.265   4.077 -0.3419  0.0069  0.7395
 5228SOL    HW220684   2.584   6.248   3.983 -1.5784  0.5194  0.5842
 5228SOL    HW320685   2.660   6.224   4.111  0.8124  0.9002 -0.6968
 5228SOL    MW420686   2.592   6.258   4.069 -0.3527  0.1924  0.5295
 5229SOL     OW20687   3.310   2.918   2.774  0.3905  0.6820  0.3135
 5229SOL    HW220688   3.393   2.872   2.781 -0.8983 -1.5561  2.6095
 5229SOL    HW320689   3.268   2.880   2.697  0.1881 -0.6116  1.0293
 5229SOL    MW420690   3.315   2.907   2.765  0.1937  0.2160  0.7109
 5230SOL     OW20691   0.601   2.748   5.751 -0.1402  0.5795  0.7150
 5230SOL    HW220692   0.566   2.836   5.738 -0.4961  0.2827 -0.5377
 5230SOL    HW320693   0.695   2.758   5.740  0.3553  1.4409  4.4218
 5230SOL    MW420694   0.609   2.761   5.748 -0.1218  0.6540  1.0388
 5231SOL     OW20695   0.862   4.628   3.329 -0.1384  0.0661  0.3625
 5231SOL    HW220696   0.905   4.593   3.407  0.0492  0.9583  0.6732
 5231SOL    HW320697   0.892   4.571   3.257  0.3239 -0.2709  0.8127
 5231SOL    MW420698   0.872   4.616   3.330 -0.0527  0.1393  0.4629
 5232SOL     OW20699   3.991   3.375   2.670 -0.7747 -0.3418  0.6524
 5232SOL    HW220700   4.030   3.407   2.751 -0.1067  0.4123  0.0497
 5232SOL    HW320701   3.953   3.453   2.629 -0.6490 -0.6177 -0.0020
 5232SOL    MW420702   3.991   3.389   2.675 -0.6700 -0.2787  0.4866
 5233SOL     OW20703   3.364   3.864   1.795 -0.6073 -0.0222 -0.3454
 5233SOL    HW220704   3.444   3.812   1.791 -1.2613 -1.0820  0.0534
 5233SOL    HW320705   3.371   3.923   1.720  1.0006  0.5991  0.2356
 5233SOL    MW420706   3.376   3.865   1.784 -0.4815 -0.0801 -0.2162
 5234SOL     OW20707   5.797   1.055   0.979  0.0741  0.5508 -0.0669
 5234SOL    HW220708   5.797   1.150   0.963  1.6753  0.8419  1.3205
 5234SOL    HW320709   5.879   1.039   1.026  0.4487 -1.7391 -1.3481
 5234SOL    MW420710   5.808   1.066   0.983  0.3348  0.2871 -0.0529
 5235SOL     OW20711   3.557   4.171   3.589 -0.1237  0.1303  0.0149
 5235SOL    HW220712   3.527   4.087   3.621 -3.9550  1.2697 -0.1498
 5235SOL    HW320713   3.554   4.163   3.493 -0.0573  0.3246 -0.0045
 5235SOL    MW420714   3.553   4.159   3.580 -0.6204  0.3063 -0.0094
 5236SOL     OW20715   3.938   1.578   1.711 -0.3668  0.4776  0.0907
 5236SOL    HW220716   3.917   1.508   1.649 -0.1426  0.8046 -0.3678
 5236SOL    HW320717   3.900   1.550   1.794  0.3230 -0.5188  0.0880
 5236SOL    MW420718   3.930   1.565   1.714 -0.2462  0.3892  0.0298
 5237SOL     OW20719   5.089   3.201   4.141 -0.0309  0.5963 -0.5313
 5237SOL    HW220720   5.084   3.115   4.101  2.7399  0.7354 -1.3817
 5237SOL    HW320721   5.099   3.183   4.235 -0.3668  0.0313 -0.5993
 5237SOL    MW420722   5.090   3.187   4.148  0.2903  0.5401 -0.6525
 5238SOL     OW20723   1.048   1.782   5.329  0.2030  0.3965 -0.4917
 5238SOL    HW220724   1.092   1.706   5.291 -0.0151  0.1018 -0.1585
 5238SOL    HW320725   1.108   1.813   5.397 -0.3004 -0.2868  0.2816
 5238SOL    MW420726   1.062   1.776   5.333  0.1078  0.2674 -0.3457
 5239SOL     OW20727   0.551   1.979   3.604 -0.1892  0.1230  0.4675
 5239SOL    HW220728   0.543   2.072   3.586 -1.7373 -0.1563 -0.4910
 5239SOL    HW320729   0.468   1.955   3.646  0.4943 -0.6841  1.4115
 5239SOL    MW420730   0.539   1.988   3.608 -0.3033 -0.0204  0.4656
 5240SOL     OW20731   0.486   3.836   1.815  0.0941 -0.6223  0.3361
 5240SOL    HW220732   0.535   3.767   1.769  0.4140 -0.1502 -0.0446
 5240SOL    HW320733   0.418   3.862   1.752 -0.1327 -0.7051  0.5458
 5240SOL    MW420734   0.483   3.830   1.800  0.1064 -0.5709  0.3136
 5241SOL     OW20735   5.309   0.581   0.258 -1.0717  0.1188 -0.0476
 5241SOL    HW220736   5.249   0.542   0.195  0.6988 -1.2621 -0.9836
 5241SOL    HW320737   5.330   0.510   0.319 -0.4844  0.5956  0.3271
 5241SOL    MW420738   5.304   0.566   0.258 -0.7606 -0.0005 -0.1217
 5242SOL     OW20739   1.062   4.725   1.272 -0.1340 -0.2661 -0.5437
 5242SOL    HW220740   1.024   4.673   1.201  0.4448 -0.1307 -0.9626
 5242SOL    HW320741   1.148   4.686   1.287 -0.6583 -0.9720  0.8345
 5242SOL    MW420742   1.068   4.713   1.265 -0.1268 -0.3414 -0.4171
 5243SOL     OW20743   4.749   1.431   2.462 -0.1013 -0.7550  0.3523
 5243SOL    HW220744   4.708   1.345   2.474 -2.0793  0.2899  1.6938
 5243SOL    HW320745   4.676   1.493   2.465  1.3853  1.0751  0.6951
 5243SOL    MW420746   4.734   1.428   2.464 -0.1662 -0.3757  0.5746
 5244SOL     OW20747   0.847   3.991   5.427  0.3975 -0.4916 -0.4402
 5244SOL    HW220748   0.793   3.939   5.487  0.3929 -0.4111 -0.3737
 5244SOL    HW320749   0.866   4.071   5.476 -0.0882 -0.1773 -0.7716
 5244SOL    MW420750   0.843   3.995   5.442  0.3328 -0.4395 -0.4751
 5245SOL     OW20751   3.035   1.582   6.262 -0.1923  0.3570 -0.3906
 5245SOL    HW220752   3.082   1.534   6.330 -0.1393  1.1602  0.1629
 5245SOL    HW320753   3.080   1.667   6.257 -0.7802  0.6562 -0.7620
 5245SOL    MW420754   3.047   1.587   6.271 -0.2629  0.5024 -0.3665
 5246SOL     OW20755   2.089   2.781   1.140  0.3329 -0.3617 -0.3856
 5246SOL    HW220756   2.025   2.715   1.169  0.5090 -0.6301 -0.5993
 5246SOL    HW320757   2.043   2.830   1.071  0.2314 -0.3166 -0.2867
 5246SOL    MW420758   2.074   2.779   1.135  0.3427 -0.3912 -0.4007
 5247SOL     OW20759   2.375   1.054   2.548 -0.3691  0.7986  0.2289
 5247SOL    HW220760   2.356   1.132   2.495 -0.6279  1.0885  0.7401
 5247SOL    HW320761   2.355   0.980   2.490 -3.5662  1.0518  0.8118
 5247SOL    MW420762   2.369   1.054   2.533 -0.8251  0.8702  0.3733
 5248SOL     OW20763   4.937   2.955   6.361  0.3849  0.1064 -0.3127
 5248SOL    HW220764   4.983   2.872   6.377  1.0265  0.5280  0.0367
 5248SOL    HW320765   4.993   3.002   6.300  0.2915  0.5222 -0.0747
 5248SOL    MW420766   4.950   2.950   6.355  0.4572  0.2169 -0.2352
 5249SOL     OW20767   3.573   3.568   0.108  0.2228  0.4157  0.0311
 5249SOL    HW220768   3.532   3.561   0.194  0.0892  0.0325 -0.0601
 5249SOL    HW320769   3.630   3.491   0.103  0.8095  0.8400  0.0802
 5249SOL    MW420770   3.575   3.557   0.119  0.2826  0.4211  0.0255
 5250SOL     OW20771   1.516   3.920   5.832  0.6448 -0.2287 -0.1146
 5250SOL    HW220772   1.578   3.933   5.905  0.6026  0.5010 -0.1997
 5250SOL    HW320773   1.557   3.964   5.758  0.6814 -0.9589 -0.5426
 5250SOL    MW420774   1.530   3.927   5.832  0.6441 -0.2288 -0.1823
 5251SOL     OW20775   1.302   1.205   5.605 -0.0931 -0.2049 -0.4350
 5251SOL    HW220776   1.217   1.163   5.618 -0.5938  0.7956 -0.3866
 5251SOL    HW320777   1.341   1.208   5.693 -0.5597  0.4569 -0.2383
 5251SOL    MW420778   1.296   1.200   5.619 -0.2207  0.0145 -0.4027
 5252SOL     OW20779   6.121   5.469   0.463 -0.3009 -0.0779  0.3635
 5252SOL    HW220780   6.039   5.466   0.512 -0.7997  1.2741 -0.3421
 5252SOL    HW320781   6.098   5.511   0.381  0.7479 -1.3278 -0.6103
 5252SOL    MW420782   6.107   5.474   0.459 -0.2283 -0.0644  0.1419
 5253SOL     OW20783   3.279   4.441   0.139 -0.4133 -0.2665  0.3565
 5253SOL    HW220784   3.306   4.365   0.190  1.8607 -0.0509 -0.4008
 5253SOL    HW320785   3.204   4.410   0.087  1.4703 -2.5841 -1.1990
 5253SOL    MW420786   3.272   4.427   0.139  0.1353 -0.5438  0.0513
 5254SOL     OW20787   4.098   6.121   2.632  0.6462  0.1295  0.3540
 5254SOL    HW220788   4.129   6.066   2.704  2.1258 -2.2273 -1.9240
 5254SOL    HW320789   4.160   6.105   2.561 -1.5028  1.2614 -1.9285
 5254SOL    MW420790   4.110   6.112   2.632  0.5579 -0.0321 -0.2477
 5255SOL     OW20791   2.331   1.785   5.715  0.0320  0.6328  0.1764
 5255SOL    HW220792   2.379   1.713   5.756  0.4685 -0.0576 -1.4264
 5255SOL    HW320793   2.397   1.831   5.662 -0.2338  2.2564  1.1905
 5255SOL    MW420794   2.346   1.782   5.713  0.0545  0.7559  0.0987
 5256SOL     OW20795   0.796   3.039   3.100  0.4207 -0.5580 -0.1807
 5256SOL    HW220796   0.769   3.012   3.188 -2.1831 -0.5182 -0.8699
 5256SOL    HW320797   0.759   3.127   3.090  2.8796  0.5042 -0.4441
 5256SOL    MW420798   0.787   3.047   3.110  0.4015 -0.4126 -0.3064
 5257SOL     OW20799   2.816   2.796   3.862 -0.4141 -0.1913  0.6007
 5257SOL    HW220800   2.770   2.860   3.916  2.5149  1.9286  0.8241
 5257SOL    HW320801   2.904   2.790   3.900  0.0278 -2.9936 -0.5740
 5257SOL    MW420802   2.822   2.803   3.874  0.0306 -0.2814  0.4752
 5258SOL     OW20803   1.397   2.598   5.167 -0.3245 -0.1525 -0.2015
 5258SOL    HW220804   1.462   2.529   5.181 -0.9941 -1.2322 -1.9807
 5258SOL    HW320805   1.441   2.661   5.109 -1.0832 -1.4068 -2.2768
 5258SOL    MW420806   1.411   2.597   5.161 -0.5130 -0.4604 -0.7100
 5259SOL     OW20807   6.194   3.734   2.426 -0.1772  0.3745  0.0443
 5259SOL    HW220808   6.249   3.707   2.352 -0.5904 -0.6528  0.0963
 5259SOL    HW320809   6.255   3.750   2.497  0.0337 -1.8187  0.4311
 5259SOL    MW420810   6.209   3.733   2.425 -0.2039 -0.0504  0.1022
 5260SOL     OW20811   0.858   6.080   4.915  0.6319 -0.3115 -0.1399
 5260SOL    HW220812   0.948   6.083   4.948  1.2985 -2.1948 -1.6082
 5260SOL    HW320813   0.860   6.134   4.836  0.0815  0.7967  0.5768
 5260SOL    MW420814   0.870   6.088   4.908  0.6472 -0.4138 -0.2391
 5261SOL     OW20815   0.035   2.479   6.223  0.1140  0.1241 -0.2043
 5261SOL    HW220816   0.063   2.524   6.303  0.2014  1.9668 -1.2026
 5261SOL    HW320817  -0.058   2.497   6.216 -0.2527 -1.4311  0.3032
 5261SOL    MW420818   0.027   2.487   6.232  0.0772  0.1620 -0.2690
 5262SOL     OW20819   0.037   2.146   5.256 -0.0596 -0.0192 -0.8390
 5262SOL    HW220820  -0.055   2.172   5.264 -0.4402 -1.6131  0.5314
 5262SOL    HW320821   0.064   2.179   5.171 -1.7377  0.9738 -1.0271
 5262SOL    MW420822   0.028   2.154   5.246 -0.3313 -0.0985 -0.6830
 5263SOL     OW20823   5.061   3.498   0.393  0.4410  0.1270  0.5274
 5263SOL    HW220824   5.053   3.523   0.485 -2.1697  3.1582 -0.3129
 5263SOL    HW320825   4.993   3.432   0.380  1.8844 -1.5148  1.0391
 5263SOL    MW420826   5.051   3.493   0.404  0.2870  0.3103  0.4840
 5264SOL     OW20827   6.306   1.133   0.840  0.5340  0.2278  0.1195
 5264SOL    HW220828   6.275   1.196   0.775  0.1428 -1.0099 -0.9240
 5264SOL    HW320829   6.260   1.052   0.819 -0.4774  0.0454  2.6385
 5264SOL    MW420830   6.296   1.131   0.829  0.3489  0.0405  0.3142
 5265SOL     OW20831   0.394   6.157   0.376 -0.1550  0.4282 -0.3758
 5265SOL    HW220832   0.362   6.118   0.458  2.0431 -0.6742  0.0409
 5265SOL    HW320833   0.314   6.178   0.327 -1.5919 -3.3367 -0.0033
 5265SOL    MW420834   0.379   6.154   0.381 -0.0546 -0.2140 -0.2716
 5266SOL     OW20835   6.255   2.030   1.518  0.1046  0.6904  0.1561
 5266SOL    HW220836   6.280   2.070   1.435  0.3767  1.0067  0.3887
 5266SOL    HW320837   6.179   2.080   1.547 -1.7066 -1.0939 -1.1983
 5266SOL    MW420838   6.248   2.042   1.511 -0.0985  0.4967  0.0081
 5267SOL     OW20839   2.216   1.920   3.913 -0.9857 -0.0782 -0.4551
 5267SOL    HW220840   2.248   2.003   3.876  0.1420 -0.4578 -0.3743
 5267SOL    HW320841   2.128   1.940   3.946 -0.6938  1.1021 -0.3651
 5267SOL    MW420842   2.208   1.934   3.912 -0.7984  0.0274 -0.4326
 5268SOL     OW20843   0.075   0.207   6.198 -0.6056 -0.0100 -0.6490
 5268SOL    HW220844   0.113   0.134   6.247 -0.4770  0.1132 -0.5634
 5268SOL    HW320845   0.070   0.176   6.108  0.7446  0.3703 -0.8718
 5268SOL    MW420846   0.079   0.193   6.192 -0.4105  0.0564 -0.6671
 5269SOL     OW20847   6.168   5.964   5.706 -0.0032 -0.7798 -0.4062
 5269SOL    HW220848   6.247   5.924   5.741 -0.1400  0.4013  1.3983
 5269SOL    HW320849   6.107   5.892   5.693  0.5277 -1.4149  0.5582
 5269SOL    MW420850   6.171   5.949   5.709  0.0488 -0.7078 -0.0409
 5270SOL     OW20851   2.436   6.076   0.460 -0.4024 -0.1666 -0.1936
 5270SOL    HW220852   2.527   6.097   0.442 -0.1092  0.4438  1.8423
 5270SOL    HW320853   2.408   6.140   0.525 -1.8341 -1.2653  0.3378
 5270SOL    MW420854   2.444   6.087   0.466 -0.5526 -0.2311  0.1451
 5271SOL     OW20855   4.892   4.858   3.652 -0.0988 -0.6183 -0.2872
 5271SOL    HW220856   4.900   4.800   3.576  0.4492 -0.7888 -0.1062
 5271SOL    HW320857   4.897   4.799   3.727  0.7646 -0.3110 -0.0957
 5271SOL    MW420858   4.894   4.842   3.652  0.0874 -0.6003 -0.2380
 5272SOL     OW20859   6.369   0.131   2.532  0.0605 -0.7002 -0.0880
 5272SOL    HW220860   6.443   0.184   2.501 -0.1376  0.0580  0.6914
 5272SOL    HW320861   6.375   0.135   2.627 -1.5036  0.1263  0.0049
 5272SOL    MW420862   6.380   0.138   2.540 -0.1720 -0.4911  0.0271
 5273SOL     OW20863   5.172   1.759   1.830  0.1140  0.1226  0.2862
 5273SOL    HW220864   5.084   1.791   1.806  0.0566 -0.6475 -0.5816
 5273SOL    HW320865   5.228   1.789   1.758  0.9081  2.0108  1.6109
 5273SOL    MW420866   5.168   1.767   1.817  0.2112  0.2701  0.3465
 5274SOL     OW20867   4.009   1.806   5.310 -0.1480  0.2216 -0.3758
 5274SOL    HW220868   4.039   1.775   5.224 -2.1878  0.0582 -1.1094
 5274SOL    HW320869   4.042   1.742   5.372  2.2082  0.8683 -0.8773
 5274SOL    MW420870   4.017   1.794   5.307 -0.1063  0.2854 -0.5388
 5275SOL     OW20871   5.773   2.000   0.799  0.0640  0.2491  0.0225
 5275SOL    HW220872   5.730   2.085   0.805  0.2245  0.4073 -0.9762
 5275SOL    HW320873   5.702   1.937   0.812  0.3317  0.4562  3.6819
 5275SOL    MW420874   5.758   2.003   0.802  0.1205  0.2973  0.3735
 5276SOL     OW20875   2.652   2.738   0.609 -0.1810  0.2418 -0.2418
 5276SOL    HW220876   2.582   2.711   0.549 -0.0957  1.3457 -0.8727
 5276SOL    HW320877   2.733   2.711   0.565 -0.1214  0.9971 -0.6165
 5276SOL    MW420878   2.654   2.731   0.595 -0.1618  0.4871 -0.3745
 5277SOL     OW20879   5.078   1.211   5.784  0.0792 -0.2319 -0.0370
 5277SOL    HW220880   4.987   1.184   5.781  0.4892 -1.6291 -0.4631
 5277SOL    HW320881   5.087   1.275   5.714 -0.9270  1.1410  1.0371
 5277SOL    MW420882   5.068   1.216   5.774  0.0005 -0.2351  0.0485
 5278SOL     OW20883   4.041   1.768   1.246 -0.1326  0.2326  0.3096
 5278SOL    HW220884   4.036   1.822   1.167 -2.4950  0.2975  0.4175
 5278SOL    HW320885   4.093   1.821   1.307  1.2912  0.4018 -1.0037
 5278SOL    MW420886   4.047   1.782   1.244 -0.2564  0.2634  0.1505
 5279SOL     OW20887   1.895   0.089   5.306 -0.1287 -0.2913 -0.4256
 5279SOL    HW220888   1.918   0.089   5.213 -1.0121  0.6197 -0.6672
 5279SOL    HW320889   1.880  -0.003   5.328 -2.1885 -0.3491 -1.7993
 5279SOL    MW420890   1.896   0.077   5.297 -0.5170 -0.1787 -0.6387
 5280SOL     OW20891   5.963   1.466   4.690 -0.1259 -0.1398 -0.1435
 5280SOL    HW220892   5.949   1.386   4.741 -1.9251  1.0773  1.3997
 5280SOL    HW320893   6.048   1.499   4.720 -0.1540 -0.6032  0.4672
 5280SOL    MW420894   5.972   1.460   4.701 -0.3670 -0.0404  0.1407
 5281SOL     OW20895   6.377   1.942   0.106  0.3373 -0.4742 -0.2310
 5281SOL    HW220896   6.390   2.035   0.089 -2.6565  0.0379 -0.1813
 5281SOL    HW320897   6.445   1.899   0.054  0.8818  1.6569 -1.4088
 5281SOL    MW420898   6.388   1.948   0.097  0.0141 -0.1255 -0.3799
 5282SOL     OW20899   4.911   3.928   2.706  0.4034 -0.0166 -0.4030
 5282SOL    HW220900   4.989   3.936   2.651  0.9305 -2.2156 -0.0836
 5282SOL    HW320901   4.878   3.839   2.688 -1.6217  0.6004  0.0086
 5282SOL    MW420902   4.917   3.917   2.697  0.2058 -0.2254 -0.3065
 5283SOL     OW20903   1.865   1.750   3.955 -0.1582  0.0490  0.2846
 5283SOL    HW220904   1.891   1.695   3.881 -1.3509  0.3189 -0.3531
 5283SOL    HW320905   1.772   1.732   3.968 -0.1214  0.4943  1.3097
 5283SOL    MW420906   1.856   1.740   3.947 -0.3107  0.1433  0.3357
 5284SOL     OW20907   5.909   5.430   5.418  0.1388 -0.0084 -0.3369
 5284SOL    HW220908   5.857   5.366   5.369  1.1032 -0.5747 -0.6537
 5284SOL    HW320909   5.849   5.463   5.485 -1.3055  1.0502 -2.0926
 5284SOL    MW420910   5.894   5.426   5.420  0.0755  0.0566 -0.6103
 5285SOL     OW20911   0.867   6.045   2.581 -0.3570 -0.1697  0.2093
 5285SOL    HW220912   0.778   6.030   2.548  0.2481 -1.0899 -1.0916
 5285SOL    HW320913   0.919   6.062   2.503  0.6059  0.4649  0.9681
 5285SOL    MW420914   0.862   6.045   2.566 -0.1501 -0.2074  0.1378
 5286SOL     OW20915   5.881   1.386   1.247  0.3184  0.1271 -0.0037
 5286SOL    HW220916   5.924   1.333   1.314 -0.2001  1.2637  1.2883
 5286SOL    HW320917   5.876   1.473   1.287 -1.6711  0.3987 -0.7871
 5286SOL    MW420918   5.886   1.391   1.261 -0.0125  0.3129  0.0634
 5287SOL     OW20919   2.001   4.490   2.112  0.7776 -0.1120 -0.2456
 5287SOL    HW220920   1.915   4.446   2.110 -0.1689  1.6524 -1.0703
 5287SOL    HW320921   2.058   4.431   2.063  0.3365 -1.8176  1.1701
 5287SOL    MW420922   1.997   4.476   2.105  0.5946 -0.1043 -0.1677
 5288SOL     OW20923   2.116   5.968   4.840 -0.0931  0.1451  0.1723
 5288SOL    HW220924   2.119   6.050   4.890  2.0135  1.0334 -1.2346
 5288SOL    HW320925   2.151   5.902   4.900 -2.3252  0.0778  1.5137
 5288SOL    MW420926   2.121   5.970   4.854 -0.1097  0.2534  0.1636
 5289SOL     OW20927   1.238   6.140   5.894  0.4157 -0.8997 -0.1938
 5289SOL    HW220928   1.322   6.156   5.851  0.5993 -0.5968  0.2684
 5289SOL    HW320929   1.197   6.227   5.900  0.7401 -0.8173  0.9495
 5289SOL    MW420930   1.243   6.153   5.889  0.4827 -0.8488  0.0180
 5290SOL     OW20931   4.424   0.524   3.261 -0.3909 -0.4599 -0.3972
 5290SOL    HW220932   4.352   0.517   3.199 -0.1653  1.7767 -1.0160
 5290SOL    HW320933   4.385   0.559   3.341 -0.0010  0.8973 -0.7826
 5290SOL    MW420934   4.410   0.528   3.263 -0.3097  0.0142 -0.5297
 5291SOL     OW20935   2.257   0.184   6.007  0.0551 -0.0309 -0.1989
 5291SOL    HW220936   2.237   0.095   6.036  0.6809  0.0163  0.3862
 5291SOL    HW320937   2.291   0.173   5.918  1.8030 -0.5696  0.4881
 5291SOL    MW420938   2.259   0.171   5.999  0.3683 -0.0957 -0.0310
 5292SOL     OW20939   5.792   4.877   2.333 -0.2714  0.1830 -0.2643
 5292SOL    HW220940   5.818   4.898   2.243 -0.3942 -0.3193 -0.4207
 5292SOL    HW320941   5.853   4.808   2.360 -0.5126  0.0217 -0.1224
 5292SOL    MW420942   5.804   4.870   2.324 -0.3195  0.0955 -0.2662
 5293SOL     OW20943   1.156   4.385   5.555 -0.0009  0.4764  0.7214
 5293SOL    HW220944   1.251   4.381   5.565  0.0090 -1.0292  0.3058
 5293SOL    HW320945   1.127   4.294   5.565 -1.2952  0.7691 -0.1093
 5293SOL    MW420946   1.165   4.372   5.557 -0.1704  0.3164  0.5570
 5294SOL     OW20947   2.245   5.315   3.392  0.0840 -0.1591 -0.3295
 5294SOL    HW220948   2.257   5.408   3.413 -1.7070  0.2926 -1.0682
 5294SOL    HW320949   2.155   5.310   3.358  0.6399 -1.9245 -1.6906
 5294SOL    MW420950   2.234   5.327   3.391 -0.0789 -0.3324 -0.6066
 5295SOL     OW20951   2.967   3.374   3.884 -0.0406  0.0559  0.3848
 5295SOL    HW220952   3.014   3.387   3.966  2.3804  1.3893 -1.1069
 5295SOL    HW320953   2.896   3.439   3.886  0.7243  0.8972  0.9137
 5295SOL    MW420954   2.963   3.384   3.895  0.3797  0.3429  0.2578
 5296SOL     OW20955   1.621   4.492   3.463  0.7607 -0.3886  0.2854
 5296SOL    HW220956   1.554   4.531   3.519  0.2156 -1.1001  0.1459
 5296SOL    HW320957   1.700   4.492   3.517 -0.1704 -2.7530  1.8150
 5296SOL    MW420958   1.623   4.497   3.477  0.5659 -0.7944  0.4688
 5297SOL     OW20959   5.588   5.725   2.916 -0.7377  0.1774  0.1301
 5297SOL    HW220960   5.638   5.804   2.938 -0.8766  0.3346 -0.1154
 5297SOL    HW320961   5.497   5.754   2.919 -0.7520  0.2772 -0.9409
 5297SOL    MW420962   5.583   5.739   2.920 -0.7579  0.2113 -0.0436
 5298SOL     OW20963   3.689   1.884   0.301 -0.1390  0.8570 -0.1465
 5298SOL    HW220964   3.764   1.829   0.278 -0.8289 -0.0005 -0.4128
 5298SOL    HW320965   3.727   1.955   0.354  0.7926  0.1783  0.1307
 5298SOL    MW420966   3.704   1.886   0.305 -0.1071  0.6544 -0.1451
 5299SOL     OW20967   0.548   0.477   4.213  0.2742  0.1584  0.1455
 5299SOL    HW220968   0.609   0.424   4.265 -0.0806 -0.1763  0.2250
 5299SOL    HW320969   0.559   0.566   4.247  1.4094  0.2763 -0.4823
 5299SOL    MW420970   0.557   0.482   4.224  0.3771  0.1298  0.0732
 5300SOL     OW20971   6.110   2.960   2.682 -0.0730  0.1750  0.1623
 5300SOL    HW220972   6.098   3.026   2.750  3.7829 -0.5321  1.7891
 5300SOL    HW320973   6.159   3.006   2.613  0.9318 -0.4397  0.4407
 5300SOL    MW420974   6.115   2.975   2.682  0.5683  0.0006  0.4137
 5301SOL     OW20975   0.242   0.675   6.161  0.7120 -0.3412 -0.0434
 5301SOL    HW220976   0.277   0.615   6.095  0.1283 -2.5850  1.5833
 5301SOL    HW320977   0.288   0.652   6.241 -0.1129  0.8714  0.8150
 5301SOL    MW420978   0.253   0.664   6.163  0.5262 -0.4772  0.2845
 5302SOL     OW20979   2.901   4.431   3.126  0.0264  0.8010 -0.4160
 5302SOL    HW220980   2.812   4.411   3.095  0.1439  0.1751 -0.3669
 5302SOL    HW320981   2.944   4.346   3.130  0.1314  0.8886  1.1051
 5302SOL    MW420982   2.895   4.417   3.123  0.0557  0.7300 -0.2089
 5303SOL     OW20983   3.818   3.596   1.286 -0.3432 -0.3370  0.1789
 5303SOL    HW220984   3.791   3.554   1.368 -0.9244 -0.7031 -0.2007
 5303SOL    HW320985   3.738   3.633   1.250  0.2373  1.6889  0.8149
 5303SOL    MW420986   3.804   3.595   1.292 -0.3433 -0.1180  0.2127
 5304SOL     OW20987   1.910   4.323   2.592  0.2867 -0.3935  0.2541
 5304SOL    HW220988   1.986   4.368   2.556 -0.3898  0.5856  0.0066
 5304SOL    HW320989   1.899   4.360   2.680 -1.3578  1.3483 -0.6103
 5304SOL    MW420990   1.919   4.333   2.599 -0.0195 -0.0345  0.1074
 5305SOL     OW20991   4.543   6.036   1.201 -0.0541 -0.2871 -0.6497
 5305SOL    HW220992   4.621   5.984   1.182  1.4639  1.8634 -0.5570
 5305SOL    HW320993   4.523   6.082   1.120 -0.5852  0.0216 -0.3538
 5305SOL    MW420994   4.550   6.035   1.188  0.0761  0.0374 -0.5984
 5306SOL     OW20995   5.032   5.957   3.097 -0.0044  0.6268  0.1341
 5306SOL    HW220996   4.978   5.951   3.176 -0.5874  1.9624 -0.1372
 5306SOL    HW320997   5.014   5.876   3.049 -1.3248  0.7839  0.3398
 5306SOL    MW420998   5.023   5.946   3.101 -0.2555  0.8237  0.1254
 5307SOL     OW20999   0.578   2.773   1.212  0.1781  0.4173 -0.1088
 5307SOL    HW221000   0.546   2.836   1.276 -0.8076  1.1249 -1.2654
 5307SOL    HW321001   0.510   2.705   1.209  1.0232 -0.5133  0.8046
 5307SOL    MW421002   0.565   2.772   1.220  0.1595  0.3879 -0.1409
 5308SOL     OW21003   4.408   4.151   6.137  0.1035  0.7834  0.1714
 5308SOL    HW221004   4.323   4.193   6.135 -1.2350 -1.7290  0.1616
 5308SOL    HW321005   4.415   4.106   6.053  0.1435 -1.3131  1.2315
 5308SOL    MW421006   4.398   4.151   6.126 -0.0678  0.1753  0.3100
 5309SOL     OW21007   4.990   0.252   1.447  0.5788  0.2551  0.3611
 5309SOL    HW221008   4.908   0.283   1.409  0.6632 -0.9999 -0.9475
 5309SOL    HW321009   5.055   0.316   1.420  0.4310 -0.0160 -0.6708
 5309SOL    MW421010   4.988   0.264   1.438  0.5704  0.0537  0.0523
 5310SOL     OW21011   0.582   0.505   1.245  0.3666 -0.0271 -0.3912
 5310SOL    HW221012   0.608   0.414   1.256  0.7455  0.2576  1.4035
 5310SOL    HW321013   0.539   0.528   1.327 -0.8927  1.0558 -1.3105
 5310SOL    MW421014   0.580   0.496   1.257  0.2504  0.1533 -0.2757
 5311SOL     OW21015   5.778   0.962   1.721 -0.6857  0.4569  0.5131
 5311SOL    HW221016   5.692   0.983   1.758 -1.3536 -1.8014  0.3955
 5311SOL    HW321017   5.783   0.866   1.726  0.8614  0.3717 -1.6347
 5311SOL    MW421018   5.767   0.952   1.727 -0.5697  0.1477  0.2142
 5312SOL     OW21019   3.621   5.260   4.481 -0.3401  0.2775 -0.0108
 5312SOL    HW221020   3.671   5.231   4.557  0.2469  1.4509  0.0662
 5312SOL    HW321021   3.595   5.350   4.502 -1.7876 -0.0248 -0.4038
 5312SOL    MW421022   3.624   5.268   4.494 -0.4537  0.3924 -0.0525
 5313SOL     OW21023   3.117   5.070   2.485  0.0548  0.0635  0.4062
 5313SOL    HW221024   3.091   5.151   2.529  2.7023  1.2086  0.0541
 5313SOL    HW321025   3.099   5.087   2.392 -3.2785 -1.4426  0.6445
 5313SOL    MW421026   3.111   5.083   2.479 -0.0357  0.0159  0.3912
 5314SOL     OW21027   0.316   2.398   5.737 -0.1182 -0.1274  0.2455
 5314SOL    HW221028   0.397   2.438   5.770  0.2252 -0.2994 -0.3778
 5314SOL    HW321029   0.335   2.304   5.738 -1.0842 -0.3484  2.1607
 5314SOL    MW421030   0.329   2.391   5.742 -0.2004 -0.1793  0.4159
 5315SOL     OW21031   3.506   2.392   4.696  0.4249  0.6293 -0.1191
 5315SOL    HW221032   3.593   2.380   4.735  0.5792  0.9110 -0.3714
 5315SOL    HW321033   3.450   2.416   4.769 -0.0162 -2.0545  0.5138
 5315SOL    MW421034   3.510   2.394   4.710  0.3870  0.3123 -0.0689
 5316SOL     OW21035   0.865   2.799   4.436 -0.2925  0.5739 -0.2423
 5316SOL    HW221036   0.783   2.763   4.472 -0.6337  2.1143  0.5804
 5316SOL    HW321037   0.934   2.755   4.485 -0.7091  1.1827  0.9123
 5316SOL    MW421038   0.863   2.788   4.447 -0.3925  0.8575  0.0186
 5317SOL     OW21039   6.344   1.258   3.537  0.5436  0.1073  0.2195
 5317SOL    HW221040   6.411   1.198   3.505  0.1980 -0.5349  0.6746
 5317SOL    HW321041   6.378   1.345   3.517  1.8588 -0.1772  1.0624
 5317SOL    MW421042   6.357   1.262   3.530  0.6715 -0.0149  0.3907
 5318SOL     OW21043   0.092   1.227   2.402 -0.5560  0.3813 -0.3607
 5318SOL    HW221044   0.136   1.280   2.335 -0.2094  0.6458  0.0752
 5318SOL    HW321045   0.019   1.185   2.355  1.3715 -1.7781 -1.6323
 5318SOL    MW421046   0.088   1.229   2.387 -0.2560  0.1313 -0.4709
 5319SOL     OW21047   5.409   6.119   5.433  0.2702 -0.2843 -0.1669
 5319SOL    HW221048   5.501   6.142   5.421  0.0852  0.6052  0.1057
 5319SOL    HW321049   5.411   6.043   5.491  0.8108 -0.0428  0.1299
 5319SOL    MW421050   5.421   6.112   5.439  0.3171 -0.1351 -0.0918
 5320SOL     OW21051   5.024   2.025   0.811  0.1392 -0.5603 -0.1257
 5320SOL    HW221052   5.017   1.970   0.733 -1.9445  0.6203 -0.8333
 5320SOL    HW321053   4.937   2.064   0.821  0.7231  0.3163  2.0623
 5320SOL    MW421054   5.012   2.023   0.802 -0.0587 -0.2889  0.0696
 5321SOL     OW21055   2.596   4.083   1.615 -0.2503 -0.6538 -0.0949
 5321SOL    HW221056   2.661   4.064   1.548  0.1725 -0.0616  0.1434
 5321SOL    HW321057   2.558   4.167   1.588 -0.7386 -0.8693 -0.0935
 5321SOL    MW421058   2.599   4.092   1.603 -0.2589 -0.6041 -0.0633
 5322SOL     OW21059   5.396   4.925   6.174  0.2863 -0.2044 -0.1535
 5322SOL    HW221060   5.348   4.970   6.244 -0.2659 -0.7086 -0.2039
 5322SOL    HW321061   5.435   4.849   6.217  0.9176  0.1086 -0.1488
 5322SOL    MW421062   5.395   4.921   6.189  0.2967 -0.2297 -0.1595
 5323SOL     OW21063   5.377   0.398   5.055 -0.6300  0.1053 -0.6119
 5323SOL    HW221064   5.326   0.461   5.004 -1.3695  0.9933  1.1620
 5323SOL    HW321065   5.312   0.356   5.112  0.0720 -1.3266 -0.8126
 5323SOL    MW421066   5.362   0.400   5.055 -0.6349  0.0335 -0.4043
 5324SOL     OW21067   0.989   3.217   0.749 -0.1758 -0.0293  0.0788
 5324SOL    HW221068   0.919   3.188   0.690 -0.1363  0.2151 -0.0918
 5324SOL    HW321069   1.028   3.136   0.781 -1.2535 -0.1804  1.0508
 5324SOL    MW421070   0.985   3.202   0.745 -0.3128 -0.0170  0.1846
 5325SOL     OW21071   1.391   3.980   6.121  0.0974  0.0613  0.6159
 5325SOL    HW221072   1.462   4.045   6.119  1.3399 -1.2319  1.1395
 5325SOL    HW321073   1.352   3.986   6.034  0.5038  1.1621  0.4842
 5325SOL    MW421074   1.395   3.990   6.109  0.3150  0.0359  0.6676
 5326SOL     OW21075   2.655   1.932   4.006  0.5496  0.1627  0.7833
 5326SOL    HW221076   2.584   1.909   4.066 -0.9554  1.7586 -0.2857
 5326SOL    HW321077   2.610   1.962   3.926  2.4003  1.9584  0.3388
 5326SOL    MW421078   2.639   1.933   4.003  0.5952  0.6102  0.5836
 5327SOL     OW21079   3.934   2.562   4.296  0.6302 -0.2078  0.4168
 5327SOL    HW221080   3.859   2.532   4.348 -0.3799  0.0057 -0.8792
 5327SOL    HW321081   3.973   2.632   4.348  1.8348 -2.3091  2.5697
 5327SOL    MW421082   3.929   2.567   4.310  0.6558 -0.4568  0.5298
 5328SOL     OW21083   3.666   4.095   1.942 -0.2148 -0.1420  0.7422
 5328SOL    HW221084   3.752   4.073   1.976  0.2320  0.3765 -0.0248
 5328SOL    HW321085   3.614   4.016   1.955  1.1326 -1.4572 -1.2439
 5328SOL    MW421086   3.670   4.082   1.948  0.0219 -0.2471  0.3789
 5329SOL     OW21087   0.081   1.952   0.366 -0.1935  0.1896  0.0555
 5329SOL    HW221088   0.054   1.968   0.276  0.8716 -3.2935 -1.0551
 5329SOL    HW321089   0.002   1.918   0.409  0.3891 -3.1612 -1.1889
 5329SOL    MW421090   0.067   1.950   0.360  0.0239 -0.7120 -0.2552
 5330SOL     OW21091   4.633   5.247   4.510  0.3544  0.3551 -0.2864
 5330SOL    HW221092   4.638   5.338   4.541  1.8140  0.1121  0.2734
 5330SOL    HW321093   4.692   5.244   4.435 -1.1027  0.2859 -1.4658
 5330SOL    MW421094   4.642   5.259   4.504  0.3547  0.3139 -0.3682
 5331SOL     OW21095   2.115   1.981   3.565 -0.3443 -0.0225 -0.3157
 5331SOL    HW221096   2.125   1.971   3.470 -1.2165  1.5860 -0.6187
 5331SOL    HW321097   2.120   1.892   3.599 -0.3866 -0.6736 -1.9164
 5331SOL    MW421098   2.117   1.968   3.557 -0.4649  0.1038 -0.5669
 5332SOL     OW21099   5.255   1.167   6.228  0.6474  0.1229  0.5192
 5332SOL    HW221100   5.313   1.122   6.167  0.1585  0.1087  0.0553
 5332SOL    HW321101   5.310   1.186   6.304  1.1570 -0.2247  0.2444
 5332SOL    MW421102   5.270   1.164   6.230  0.6502  0.0752  0.4218
 5333SOL     OW21103   2.014   5.573   1.584 -0.2593 -0.1761 -0.4869
 5333SOL    HW221104   2.094   5.529   1.614  0.0423  0.2396 -0.6765
 5333SOL    HW321105   2.039   5.618   1.504 -0.3428  1.0346  0.1462
 5333SOL    MW421106   2.028   5.573   1.578 -0.2305  0.0385 -0.4284
 5334SOL     OW21107   4.120   1.012   0.931  0.3060  0.0637  0.4508
 5334SOL    HW221108   4.043   1.021   0.986 -0.6051 -1.3370 -0.5274
 5334SOL    HW321109   4.092   1.038   0.844  1.0988  0.0904  0.1883
 5334SOL    MW421110   4.106   1.016   0.927  0.2904 -0.1176  0.2871
 5335SOL     OW21111   4.868   2.171   1.126 -0.4029 -0.2551  1.1177
 5335SOL    HW221112   4.837   2.148   1.039  1.6349 -0.3951  0.3735
 5335SOL    HW321113   4.830   2.257   1.144 -1.1753 -0.4133  0.2919
 5335SOL    MW421114   4.859   2.179   1.117 -0.2360 -0.2945  0.9106
 5336SOL     OW21115   0.813   2.515   2.150 -0.0547  0.0698  0.2983
 5336SOL    HW221116   0.794   2.425   2.126  0.3346  0.0017  0.2367
 5336SOL    HW321117   0.735   2.564   2.125  0.4317  0.0445 -1.3310
 5336SOL    MW421118   0.800   2.510   2.144  0.0608  0.0575  0.0752
 5337SOL     OW21119   4.885   3.107   0.897  0.0536  0.0102  0.3052
 5337SOL    HW221120   4.880   3.148   0.984  0.3910 -1.2481  0.9538
 5337SOL    HW321121   4.806   3.053   0.892 -0.2168  0.4583 -0.3927
 5337SOL    MW421122   4.874   3.105   0.908  0.0624 -0.0967  0.2987
 5338SOL     OW21123   6.357   1.328   5.941  0.6023 -0.0643 -0.3187
 5338SOL    HW221124   6.339   1.338   5.847  0.8772 -1.0677 -0.4911
 5338SOL    HW321125   6.286   1.376   5.984 -1.0621 -1.7381 -1.0086
 5338SOL    MW421126   6.345   1.336   5.934  0.4190 -0.4175 -0.4325
 5339SOL     OW21127   3.595   4.404   1.874 -0.6377 -0.7737 -0.8588
 5339SOL    HW221128   3.637   4.470   1.929 -0.2371  0.3853 -2.4538
 5339SOL    HW321129   3.657   4.332   1.870 -0.1570 -0.3690 -0.7437
 5339SOL    MW421130   3.608   4.403   1.881 -0.5214 -0.5674 -1.0541
 5340SOL     OW21131   3.014   1.702   5.845  0.3497 -0.0219 -0.8625
 5340SOL    HW221132   2.982   1.618   5.876  0.1864  0.6866  1.0649
 5340SOL    HW321133   3.089   1.681   5.790  0.0114 -1.4415 -0.8152
 5340SOL    MW421134   3.019   1.688   5.842  0.2835 -0.1157 -0.6019
 5341SOL     OW21135   2.890   5.213   2.998  0.0956  0.2172 -0.2280
 5341SOL    HW221136   2.816   5.268   2.971  1.1277  1.4837 -0.6532
 5341SOL    HW321137   2.960   5.237   2.936  1.1532 -0.1997  0.7773
 5341SOL    MW421138   2.890   5.224   2.986  0.3713  0.3293 -0.1515
 5342SOL     OW21139   0.725   0.357   4.409 -0.0315  0.6502  0.2742
 5342SOL    HW221140   0.699   0.299   4.480  0.1242  0.9861  0.6079
 5342SOL    HW321141   0.808   0.322   4.377 -0.8098 -0.3555 -0.7117
 5342SOL    MW421142   0.732   0.345   4.414 -0.1137  0.5619  0.1882
 5343SOL     OW21143   0.821   1.945   5.293  0.3693 -0.4097 -0.3510
 5343SOL    HW221144   0.804   1.908   5.206  2.5744  1.1376 -1.5261
 5343SOL    HW321145   0.889   1.888   5.330  1.1024  0.2752 -0.6260
 5343SOL    MW421146   0.828   1.932   5.286  0.7570 -0.1152 -0.5423
 5344SOL     OW21147   0.387   2.647   4.786  0.5698 -0.2388 -0.2334
 5344SOL    HW221148   0.403   2.563   4.743  0.0059  0.1098 -1.1713
 5344SOL    HW321149   0.403   2.631   4.879 -0.2374 -1.5640 -0.3027
 5344SOL    MW421150   0.392   2.634   4.792  0.3889 -0.3676 -0.3663
 5345SOL     OW21151   4.427   5.021   0.579 -0.3472  0.1282 -1.1167
 5345SOL    HW221152   4.470   4.943   0.542 -1.9116 -1.4964  0.2661
 5345SOL    HW321153   4.425   5.004   0.673 -0.9172  1.7787 -0.7992
 5345SOL    MW421154   4.432   5.008   0.586 -0.6288  0.1316 -0.8924
 5346SOL     OW21155   2.188   3.307   1.501  0.6218 -0.2381 -0.2565
 5346SOL    HW221156   2.243   3.340   1.572 -0.1600 -0.5927  0.5254
 5346SOL    HW321157   2.121   3.374   1.489 -0.0004 -0.7614  0.2215
 5346SOL    MW421158   2.186   3.320   1.508  0.4365 -0.3539 -0.0903
 5347SOL     OW21159   5.589   6.012   2.435 -0.2169  0.0656  0.5761
 5347SOL    HW221160   5.608   6.091   2.384 -2.6217 -0.0886 -0.7188
 5347SOL    HW321161   5.671   5.963   2.435  0.7122  1.5176 -0.5115
 5347SOL    MW421162   5.602   6.016   2.428 -0.4116  0.2369  0.2618
 5348SOL     OW21163   0.955   4.973   4.790  0.4310  0.1916  0.1932
 5348SOL    HW221164   1.005   4.892   4.791 -0.3431 -0.4177 -2.3681
 5348SOL    HW321165   0.942   4.992   4.697  0.6532  3.3175  0.6883
 5348SOL    MW421166   0.960   4.965   4.778  0.3581  0.5236 -0.0794
 5349SOL     OW21167   4.620   3.899   2.079  0.3972  0.3134 -0.8036
 5349SOL    HW221168   4.562   3.921   2.153  0.8506 -1.9225  0.3350
 5349SOL    HW321169   4.707   3.891   2.119  1.0194  0.9962 -1.9889
 5349SOL    MW421170   4.623   3.901   2.094  0.5391  0.1085 -0.8098
 5350SOL     OW21171   4.817   0.891   2.666  0.3615  0.0699  0.3912
 5350SOL    HW221172   4.832   0.804   2.701  0.3035  0.0950  0.4770
 5350SOL    HW321173   4.729   0.888   2.629  0.1347  0.2599  0.9037
 5350SOL    MW421174   4.808   0.879   2.666  0.3239  0.0983  0.4701
 5351SOL     OW21175   5.459   4.503   4.236  0.1322  0.3859  0.1797
 5351SOL    HW221176   5.381   4.551   4.208 -2.4737 -3.9564 -0.9763
 5351SOL    HW321177   5.435   4.469   4.322  2.0469  1.2695  1.1237
 5351SOL    MW421178   5.445   4.505   4.244  0.0410 -0.0704  0.1518
 5352SOL     OW21179   3.382   6.306   2.025 -1.1876 -0.4930 -0.1423
 5352SOL    HW221180   3.456   6.291   2.083 -1.6937  0.3956  0.7622
 5352SOL    HW321181   3.387   6.235   1.961  1.9124  0.8827 -1.6593
 5352SOL    MW421182   3.393   6.295   2.024 -0.8453 -0.1943 -0.2231
 5353SOL     OW21183   3.707   0.377   2.532 -0.9915  0.1518 -0.0614
 5353SOL    HW221184   3.733   0.286   2.544 -1.4893 -0.2243 -1.6254
 5353SOL    HW321185   3.705   0.414   2.620  0.0285 -1.1210  0.5099
 5353SOL    MW421186   3.710   0.370   2.545 -0.9226 -0.0658 -0.1924
 5354SOL     OW21187   3.105   0.368   4.381 -0.0723 -0.9763  0.0082
 5354SOL    HW221188   3.068   0.364   4.293 -2.0361  1.6467  0.5654
 5354SOL    HW321189   3.059   0.300   4.429 -0.5909 -0.9906 -0.4947
 5354SOL    MW421190   3.094   0.358   4.376 -0.3998 -0.6321  0.0153
 5355SOL     OW21191   6.357   0.115   0.460 -0.1810  0.5107 -0.0477
 5355SOL    HW221192   6.412   0.053   0.507  0.1858  1.3617  0.6610
 5355SOL    HW321193   6.417   0.182   0.429 -0.5969  0.6019 -0.6864
 5355SOL    MW421194   6.372   0.115   0.462 -0.1875  0.6350 -0.0385
 5356SOL     OW21195   3.582   2.301   2.163  0.1911  0.1880 -0.0305
 5356SOL    HW221196   3.604   2.212   2.136  3.2486  0.7094  0.3448
 5356SOL    HW321197   3.612   2.306   2.254  0.0418  1.5867 -0.0381
 5356SOL    MW421198   3.589   2.290   2.172  0.5748  0.4413  0.0180
 5357SOL     OW21199   5.456   3.799   5.236 -0.3408 -0.1401 -0.1360
 5357SOL    HW221200   5.445   3.789   5.142 -0.9319  1.1257 -0.2213
 5357SOL    HW321201   5.540   3.757   5.255 -1.0794 -2.0703 -0.9087
 5357SOL    MW421202   5.466   3.792   5.226 -0.5162 -0.2278 -0.2492
 5358SOL     OW21203   0.718   4.696   5.356  0.2548 -0.1286  0.5746
 5358SOL    HW221204   0.733   4.619   5.301 -0.9352 -0.0688  0.1277
 5358SOL    HW321205   0.678   4.760   5.297  0.3173  0.4825  1.1739
 5358SOL    MW421206   0.715   4.694   5.341  0.1060 -0.0401  0.5947
 5359SOL     OW21207   1.120   0.013   4.821 -0.1537 -0.1000 -0.1772
 5359SOL    HW221208   1.172   0.088   4.792 -0.0970  0.2867  0.8820
 5359SOL    HW321209   1.154  -0.008   4.908 -1.6795  0.0866  0.4908
 5359SOL    MW421210   1.132   0.020   4.829 -0.3476 -0.0244  0.0507
 5360SOL     OW21211   4.867   2.084   2.082  0.5558  0.2548 -0.1055
 5360SOL    HW221212   4.840   2.005   2.129  0.8454  0.6100  0.6751
 5360SOL    HW321213   4.801   2.094   2.013  0.7974 -0.9480 -0.5478
 5360SOL    MW421214   4.854   2.075   2.079  0.6259  0.1430 -0.0609
 5361SOL     OW21215   5.178   3.438   3.172  0.3347 -0.5460 -0.5636
 5361SOL    HW221216   5.232   3.479   3.239 -1.2014  0.4319  0.1203
 5361SOL    HW321217   5.093   3.428   3.213 -0.4030 -0.7372 -2.0872
 5361SOL    MW421218   5.174   3.442   3.186  0.0347 -0.4422 -0.6744
 5362SOL     OW21219   5.472   4.691   2.922  0.4886 -0.1258 -0.5788
 5362SOL    HW221220   5.424   4.724   2.846  1.1973  2.8548  0.1054
 5362SOL    HW321221   5.414   4.706   2.996  0.4525 -1.4353 -0.3288
 5362SOL    MW421222   5.458   4.697   2.921  0.5773  0.0947 -0.4556
 5363SOL     OW21223   4.289   3.400   4.515 -0.4049  0.3714  0.2887
 5363SOL    HW221224   4.218   3.462   4.532  0.1018  0.4363  2.5159
 5363SOL    HW321225   4.349   3.447   4.457 -0.8479  1.3465  0.6063
 5363SOL    MW421226   4.288   3.415   4.509 -0.3965  0.5086  0.6244
 5364SOL     OW21227   3.675   3.964   3.081 -0.0632  0.0272  0.7698
 5364SOL    HW221228   3.631   3.883   3.054  1.5630 -0.4480 -0.6481
 5364SOL    HW321229   3.758   3.934   3.119  1.2338  1.0198 -1.1128
 5364SOL    MW421230   3.680   3.949   3.083  0.3225  0.0955  0.3343
 5365SOL     OW21231   0.954   5.427   4.019  0.1905 -0.0092  0.2135
 5365SOL    HW221232   0.950   5.333   4.035 -0.3500 -0.1783 -0.8683
 5365SOL    HW321233   0.892   5.465   4.081 -1.8453 -0.6483 -1.3215
 5365SOL    MW421234   0.946   5.419   4.029 -0.1494 -0.1158 -0.1318
 5366SOL     OW21235   4.055   1.369   5.684  0.1760  0.1909 -0.5757
 5366SOL    HW221236   4.131   1.395   5.633 -0.1377  2.2237 -0.0743
 5366SOL    HW321237   4.005   1.312   5.625  1.4466 -0.1616 -1.3417
 5366SOL    MW421238   4.058   1.365   5.670  0.3023  0.4126 -0.6106
 5367SOL     OW21239   4.261   4.852   5.305 -0.0057 -0.6692 -0.5011
 5367SOL    HW221240   4.323   4.849   5.232  0.5726  0.6078 -0.0814
 5367SOL    HW321241   4.297   4.916   5.365 -1.7373  0.1407 -0.2456
 5367SOL    MW421242   4.274   4.860   5.303 -0.1578 -0.3939 -0.4120
 5368SOL     OW21243   0.600   5.708   4.339  0.4593 -0.4475 -0.1021
 5368SOL    HW221244   0.547   5.690   4.261  0.6492  1.5574 -0.7400
 5368SOL    HW321245   0.682   5.662   4.323  0.3944 -0.2837 -0.9746
 5368SOL    MW421246   0.604   5.700   4.326  0.4758 -0.1614 -0.3014
 5369SOL     OW21247   5.274   5.374   0.637 -0.6563  0.6715 -0.4115
 5369SOL    HW221248   5.292   5.444   0.574 -2.3330 -0.2739 -2.0474
 5369SOL    HW321249   5.280   5.417   0.723 -0.0943  2.4356 -1.2810
 5369SOL    MW421250   5.277   5.389   0.640 -0.8033  0.7795 -0.7420
 5370SOL     OW21251   1.657   1.610   3.234 -0.2598  0.0956 -0.1451
 5370SOL    HW221252   1.746   1.645   3.235  0.6235 -1.7023 -3.0946
 5370SOL    HW321253   1.668   1.516   3.246 -1.3600 -0.5945 -3.5972
 5370SOL    MW421254   1.670   1.602   3.236 -0.2884 -0.2327 -0.9897
 5371SOL     OW21255   1.661   2.472   5.125  0.2023 -0.0663 -0.0425
 5371SOL    HW221256   1.733   2.432   5.174 -0.3951 -0.4680  0.5299
 5371SOL    HW321257   1.704   2.524   5.057  1.0173 -0.6609  0.0037
 5371SOL    MW421258   1.676   2.473   5.123  0.2310 -0.1977  0.0391
 5372SOL     OW21259   4.138   1.533   6.422 -0.1612 -0.5620  0.3044
 5372SOL    HW221260   4.095   1.619   6.426  0.6358 -0.1877  2.1011
 5372SOL    HW321261   4.067   1.472   6.405 -0.8487  0.3756 -0.3209
 5372SOL    MW421262   4.123   1.537   6.421 -0.1468 -0.3889  0.4590
 5373SOL     OW21263   0.361   1.732   5.184 -0.4146  0.3561  0.0413
 5373SOL    HW221264   0.375   1.744   5.090 -1.1790  1.9847  0.0943
 5373SOL    HW321265   0.375   1.819   5.222  2.4736 -0.7625  1.8332
 5373SOL    MW421266   0.365   1.745   5.177 -0.1344  0.4234  0.2847
 5374SOL     OW21267   2.016   5.787   4.493  0.4392  0.1539  0.0231
 5374SOL    HW221268   1.934   5.816   4.453  0.4977  1.0482  0.5277
 5374SOL    HW321269   2.003   5.798   4.587  0.3256 -1.8968  0.2805
 5374SOL    MW421270   2.004   5.793   4.500  0.4319  0.0013  0.1236
 5375SOL     OW21271   3.407   3.374   0.842 -0.3859  0.4044 -0.4005
 5375SOL    HW221272   3.473   3.386   0.911 -0.4150  0.3762 -0.3672
 5375SOL    HW321273   3.332   3.335   0.888 -0.1553 -0.2491 -0.5735
 5375SOL    MW421274   3.406   3.370   0.857 -0.3593  0.3145 -0.4189
 5376SOL     OW21275   4.234   2.989   5.132  0.2353  0.0612 -0.3407
 5376SOL    HW221276   4.242   3.059   5.196  0.9897 -0.8945  0.6608
 5376SOL    HW321277   4.142   2.962   5.137  0.3058 -0.0544  0.4062
 5376SOL    MW421278   4.223   2.994   5.141  0.3441 -0.0801 -0.1100
 5377SOL     OW21279   1.831   5.233   2.238  0.5233 -0.0658  0.4593
 5377SOL    HW221280   1.774   5.164   2.206  0.9387  0.0639 -0.5871
 5377SOL    HW321281   1.774   5.308   2.250  0.6610  0.4795 -1.9081
 5377SOL    MW421282   1.816   5.234   2.236  0.5963  0.0233  0.0089
 5378SOL     OW21283   2.345   2.211   1.186  0.2710 -0.1167 -0.2810
 5378SOL    HW221284   2.333   2.259   1.268  0.1395 -1.4102  0.4957
 5378SOL    HW321285   2.280   2.248   1.126  1.5138  2.0296 -0.3925
 5378SOL    MW421286   2.335   2.222   1.189  0.4176 -0.0041 -0.1932
 5379SOL     OW21287   1.335   0.430   4.081  0.2731  0.1683  0.6197
 5379SOL    HW221288   1.277   0.478   4.140 -0.8801  0.3952 -0.6562
 5379SOL    HW321289   1.408   0.490   4.066  0.6687  0.0377  1.9231
 5379SOL    MW421290   1.337   0.445   4.086  0.1732  0.1810  0.6234
 5380SOL     OW21291   4.548   4.788   0.507  0.5478 -0.5536 -0.1846
 5380SOL    HW221292   4.496   4.764   0.431  0.5376 -1.5747  0.1292
 5380SOL    HW321293   4.523   4.724   0.574 -0.4573  1.1262  1.1392
 5380SOL    MW421294   4.538   4.776   0.506  0.4138 -0.4667  0.0315
 5381SOL     OW21295   2.785   1.725   4.944  0.4932 -0.1476  0.1850
 5381SOL    HW221296   2.794   1.663   4.872  0.8396 -0.7220  0.7116
 5381SOL    HW321297   2.691   1.724   4.964  0.6812 -1.7022  1.1971
 5381SOL    MW421298   2.773   1.716   4.937  0.5637 -0.4285  0.3880
 5382SOL     OW21299   2.891   5.841   4.212  0.6256  0.9017 -0.6376
 5382SOL    HW221300   2.861   5.886   4.291  1.0586  0.0047  0.0705
 5382SOL    HW321301   2.848   5.756   4.215  0.6705  0.8488 -1.3592
 5382SOL    MW421302   2.882   5.836   4.223  0.6887  0.7764 -0.6394
 5383SOL     OW21303   1.038   1.800   1.381 -0.0017  0.1314 -0.1397
 5383SOL    HW221304   1.118   1.748   1.389 -0.8213 -1.1076  0.2048
 5383SOL    HW321305   1.060   1.866   1.315  1.4183  0.0483  0.2179
 5383SOL    MW421306   1.051   1.802   1.373  0.0775 -0.0430 -0.0470
 5384SOL     OW21307   3.206   0.261   5.122 -0.3375  0.2274 -0.1209
 5384SOL    HW221308   3.283   0.307   5.156 -0.0437 -0.7469  0.5819
 5384SOL    HW321309   3.135   0.284   5.181  0.2705 -1.8189  1.5161
 5384SOL    MW421310   3.207   0.270   5.134 -0.2185 -0.1711  0.1878
 5385SOL     OW21311   5.673   2.328   2.998  0.6627  0.7363 -0.0565
 5385SOL    HW221312   5.644   2.376   2.920 -1.9042 -1.9711 -0.9742
 5385SOL    HW321313   5.665   2.236   2.973  3.6487 -0.2606  2.1601
 5385SOL    MW421314   5.668   2.323   2.984  0.7180  0.2475  0.1148
 5386SOL     OW21315   2.752   3.700   0.199  0.0888 -0.5779  0.3547
 5386SOL    HW221316   2.790   3.658   0.122  0.6635  0.1095  0.2534
 5386SOL    HW321317   2.681   3.754   0.165  0.2457 -0.3912  0.3219
 5386SOL    MW421318   2.748   3.702   0.184  0.1853 -0.4626  0.3370
 5387SOL     OW21319   0.149   4.752   1.539 -0.0172 -0.7477 -0.1627
 5387SOL    HW221320   0.135   4.726   1.448 -1.6113 -2.4147  0.4951
 5387SOL    HW321321   0.176   4.844   1.533 -0.1260 -0.7893 -2.2969
 5387SOL    MW421322   0.151   4.761   1.526 -0.2419 -0.9731 -0.3575
 5388SOL     OW21323   4.463   3.314   3.753  0.1481  0.2156 -0.1231
 5388SOL    HW221324   4.492   3.282   3.668 -2.6984 -2.1206 -0.3936
 5388SOL    HW321325   4.445   3.407   3.739  0.7458  0.1122 -1.7654
 5388SOL    MW421326   4.464   3.322   3.740 -0.1486 -0.1063 -0.3755
 5389SOL     OW21327   5.255   3.545   2.270  0.6008 -0.1882 -0.8116
 5389SOL    HW221328   5.243   3.469   2.327  2.3343 -0.1156 -0.2712
 5389SOL    HW321329   5.240   3.620   2.328 -0.1457 -0.1083 -1.1022
 5389SOL    MW421330   5.252   3.545   2.285  0.7310 -0.1681 -0.7786
 5390SOL     OW21331   1.811   0.580   5.355 -0.3711 -0.2479  0.0146
 5390SOL    HW221332   1.725   0.566   5.316 -0.6009  0.0916  0.3843
 5390SOL    HW321333   1.871   0.526   5.304 -0.7879 -0.3915 -0.3196
 5390SOL    MW421334   1.808   0.571   5.343 -0.4564 -0.2220  0.0193
 5391SOL     OW21335   4.770   1.307   4.893  0.1725  0.8624 -0.2188
 5391SOL    HW221336   4.856   1.281   4.926  0.1335  0.1433 -0.6548
 5391SOL    HW321337   4.781   1.307   4.798 -0.4120  0.3946 -0.2899
 5391SOL    MW421338   4.783   1.304   4.885  0.0902  0.7058 -0.2857
 5392SOL     OW21339   5.746   1.042   4.985  0.4653  0.0293  0.0864
 5392SOL    HW221340   5.763   1.119   4.931 -2.3023  0.4924 -0.2849
 5392SOL    HW321341   5.756   1.073   5.075 -1.1772  1.0755 -0.0363
 5392SOL    MW421342   5.749   1.056   4.990 -0.1165  0.2284  0.0213
 5393SOL     OW21343   3.062   4.318   1.534  0.2416  0.0906 -0.2294
 5393SOL    HW221344   3.104   4.385   1.480  0.1772  1.2262  1.0790
 5393SOL    HW321345   3.097   4.334   1.622  1.9375 -2.9735 -0.2015
 5393SOL    MW421346   3.072   4.329   1.538  0.4569 -0.1638 -0.0531
 5394SOL     OW21347   3.898   5.366   4.197  0.5007 -0.1942  0.3786
 5394SOL    HW221348   3.923   5.440   4.142 -0.8973  1.2877  1.6191
 5394SOL    HW321349   3.966   5.363   4.265  1.9913 -1.7581 -1.0838
 5394SOL    MW421350   3.911   5.376   4.199  0.5129 -0.2050  0.3493
 5395SOL     OW21351   4.012   3.725   5.395 -0.2819 -0.1829  0.4572
 5395SOL    HW221352   3.959   3.788   5.345  0.2610 -0.3911 -0.4089
 5395SOL    HW321353   3.964   3.643   5.388 -0.8365  0.0534  1.3342
 5395SOL    MW421354   3.999   3.723   5.388 -0.2835 -0.1792  0.4586
 5396SOL     OW21355   0.470   1.599   3.116 -1.0907 -0.0081 -0.0215
 5396SOL    HW221356   0.559   1.571   3.134 -0.8616  1.8065  2.0075
 5396SOL    HW321357   0.480   1.684   3.072 -1.7862  0.5862  0.9263
 5396SOL    MW421358   0.483   1.607   3.112 -1.1522  0.3097  0.3712
 5397SOL     OW21359   3.069   2.596   2.856  0.0226  0.5457  0.1608
 5397SOL    HW221360   3.160   2.613   2.879  0.2947 -0.8955  0.2801
 5397SOL    HW321361   3.027   2.682   2.857  0.8606  0.9955  2.3318
 5397SOL    MW421362   3.075   2.609   2.859  0.1691  0.4149  0.4630
 5398SOL     OW21363   2.884   4.591   2.547  0.1432  0.3997 -0.5271
 5398SOL    HW221364   2.931   4.674   2.558 -0.9828  0.8912  0.9331
 5398SOL    HW321365   2.792   4.614   2.557 -0.1617 -1.0950  0.4813
 5398SOL    MW421366   2.878   4.605   2.550 -0.0456  0.2673 -0.2014
 5399SOL     OW21367   4.363   5.859   1.601 -0.8937  0.0348 -0.4893
 5399SOL    HW221368   4.338   5.813   1.682 -1.6075  0.3366 -0.5367
 5399SOL    HW321369   4.383   5.788   1.540  2.9738 -0.3013  0.8673
 5399SOL    MW421370   4.363   5.843   1.604 -0.4776  0.0303 -0.3166
 5400SOL     OW21371   0.186   4.209   3.319 -0.0081  0.3927 -0.2766
 5400SOL    HW221372   0.156   4.247   3.402 -0.7189  0.4938 -0.5690
 5400SOL    HW321373   0.147   4.266   3.252  1.6335  1.1158 -0.6694
 5400SOL    MW421374   0.177   4.222   3.321  0.1147  0.5015 -0.3670
 5401SOL     OW21375   2.919   2.360   2.924 -0.1916  0.1065  0.2498
 5401SOL    HW221376   2.984   2.300   2.961  1.9892  1.5463 -0.9660
 5401SOL    HW321377   2.971   2.435   2.896 -2.5236  1.5952 -0.3001
 5401SOL    MW421378   2.935   2.362   2.925 -0.2116  0.4929  0.0168
 5402SOL     OW21379   1.023   3.136   1.641  0.0026 -0.1024  0.1261
 5402SOL    HW221380   0.934   3.137   1.676  0.0664 -1.3448  0.3791
 5402SOL    HW321381   1.078   3.155   1.717  0.0519 -1.3165  0.4180
 5402SOL    MW421382   1.019   3.138   1.656  0.0175 -0.4265  0.1980
 5403SOL     OW21383   2.217   5.898   3.382  0.3029 -0.5512 -0.1658
 5403SOL    HW221384   2.162   5.976   3.385  0.0944 -0.7242  0.5906
 5403SOL    HW321385   2.263   5.904   3.298  0.2836  0.3787 -0.1100
 5403SOL    MW421386   2.216   5.909   3.371  0.2728 -0.4514 -0.0586
 5404SOL     OW21387   6.306   1.374   5.665  0.9479  0.3334  0.4622
 5404SOL    HW221388   6.380   1.329   5.624 -0.1251 -0.4213 -0.6920
 5404SOL    HW321389   6.242   1.384   5.595 -0.5176 -0.0402  1.7010
 5404SOL    MW421390   6.308   1.370   5.650  0.6130  0.1845  0.4734
 5405SOL     OW21391   4.716   3.499   4.496  0.0139  0.0358  0.0711
 5405SOL    HW221392   4.683   3.588   4.494 -2.8267 -0.9149 -0.5122
 5405SOL    HW321393   4.696   3.468   4.585  1.5003  0.0896  0.4643
 5405SOL    MW421394   4.709   3.506   4.508 -0.1648 -0.0825  0.0461
 5406SOL     OW21395   3.986   4.429   5.885  0.0376  0.1285  0.4638
 5406SOL    HW221396   3.998   4.464   5.796 -2.0277  0.6432  0.3484
 5406SOL    HW321397   3.938   4.347   5.872  0.1828 -0.0632  1.0977
 5406SOL    MW421398   3.981   4.423   5.871 -0.2157  0.1711  0.5322
 5407SOL     OW21399   6.265   3.805   0.428  0.0807  0.2627 -0.5952
 5407SOL    HW221400   6.178   3.827   0.395  0.3943 -1.0941 -2.5579
 5407SOL    HW321401   6.273   3.711   0.413  0.9952 -0.1221  1.8358
 5407SOL    MW421402   6.255   3.795   0.422  0.2428  0.0329 -0.5334
 5408SOL     OW21403   5.365   1.904   2.928 -0.5499  0.1292 -0.6124
 5408SOL    HW221404   5.429   1.843   2.967 -1.1253  0.5783  1.1297
 5408SOL    HW321405   5.320   1.941   3.003  0.3701  3.4189 -1.5413
 5408SOL    MW421406   5.368   1.901   2.943 -0.5044  0.6225 -0.5051
 5409SOL     OW21407   6.391   5.884   5.841 -0.0262 -0.9251  0.2533
 5409SOL    HW221408   6.396   5.884   5.937 -0.8604 -0.8297  0.3026
 5409SOL    HW321409   6.419   5.796   5.816  1.2552 -0.6013  0.5167
 5409SOL    MW421410   6.395   5.872   5.851  0.0328 -0.8698  0.2945
 5410SOL     OW21411   2.747   2.949   2.648  0.1419  0.1060 -0.1404
 5410SOL    HW221412   2.691   3.021   2.675 -1.9869 -1.8417  0.9360
 5410SOL    HW321413   2.790   2.920   2.729  1.9048  0.8330 -0.7599
 5410SOL    MW421414   2.745   2.954   2.662  0.0936 -0.0550 -0.0801
 5411SOL     OW21415   5.455   0.710   3.990  0.3638  0.1140 -0.9496
 5411SOL    HW221416   5.542   0.729   3.954  0.8895 -2.2429 -1.1101
 5411SOL    HW321417   5.453   0.615   3.998 -0.7001  0.2802  2.8881
 5411SOL    MW421418   5.466   0.700   3.986  0.2928 -0.1751 -0.4645
 5412SOL     OW21419   5.904   4.290   3.777 -0.2835  0.4189 -0.0044
 5412SOL    HW221420   5.999   4.303   3.782 -0.0075 -0.9836 -1.0078
 5412SOL    HW321421   5.885   4.223   3.843 -0.0607 -1.5209 -1.7868
 5412SOL    MW421422   5.914   4.283   3.786 -0.2177 -0.0220 -0.3720
 5413SOL     OW21423   6.302   5.854   2.988 -0.2589 -0.1336  0.2120
 5413SOL    HW221424   6.268   5.801   3.061 -1.6118 -1.0211 -0.9968
 5413SOL    HW321425   6.238   5.924   2.979 -0.2799 -0.2190 -0.3194
 5413SOL    MW421426   6.289   5.856   2.996 -0.4402 -0.2620 -0.0176
 5414SOL     OW21427   2.987   3.784   2.752 -0.3454  0.7284  0.4901
 5414SOL    HW221428   3.027   3.780   2.839  1.1776  1.0777 -0.1559
 5414SOL    HW321429   2.968   3.693   2.731  1.0736  0.4270  0.4197
 5414SOL    MW421430   2.990   3.771   2.761  0.0427  0.7347  0.3955
 5415SOL     OW21431   4.744   0.405   0.828 -0.0725 -0.3372 -0.2936
 5415SOL    HW221432   4.690   0.384   0.905  1.3741 -3.1115  0.1002
 5415SOL    HW321433   4.800   0.477   0.857 -1.6283  0.7475  0.1645
 5415SOL    MW421434   4.744   0.412   0.842 -0.0869 -0.5601 -0.1812
 5416SOL     OW21435   6.259   4.240   1.104  0.2796  0.2206  0.2378
 5416SOL    HW221436   6.334   4.236   1.045 -0.3745 -0.8786 -0.5641
 5416SOL    HW321437   6.234   4.148   1.117 -0.4584  0.5293  1.1078
 5416SOL    MW421438   6.265   4.227   1.098  0.0959  0.1163  0.2468
 5417SOL     OW21439   5.104   2.727   1.309  0.1278  0.3114 -0.3132
 5417SOL    HW221440   5.058   2.686   1.236  2.0757 -1.9377 -0.4348
 5417SOL    HW321441   5.048   2.709   1.385 -1.5626  2.0441 -1.0773
 5417SOL    MW421442   5.091   2.719   1.309  0.1618  0.2433 -0.4301
 5418SOL     OW21443   0.663   4.870   4.433  0.2601  0.3601  0.0032
 5418SOL    HW221444   0.659   4.881   4.338 -2.0066 -0.7634 -0.0955
 5418SOL    HW321445   0.604   4.936   4.468 -1.2920 -1.1353  0.3751
 5418SOL    MW421446   0.655   4.880   4.425 -0.2437  0.0145  0.0392
 5419SOL     OW21447   2.880   2.423   4.157 -0.1620 -0.3228  0.2012
 5419SOL    HW221448   2.824   2.347   4.142 -0.0162 -0.2510 -0.7731
 5419SOL    HW321449   2.954   2.389   4.207 -0.8579 -0.4998  1.1262
 5419SOL    MW421450   2.882   2.408   4.161 -0.2346 -0.3367  0.1947
 5420SOL     OW21451   4.114   0.419   1.945  0.0741 -0.6104  0.0038
 5420SOL    HW221452   4.114   0.328   1.975  1.5367 -1.6877 -2.8735
 5420SOL    HW321453   4.064   0.417   1.863 -0.3869  1.3218  0.1916
 5420SOL    MW421454   4.107   0.407   1.938  0.2062 -0.4976 -0.3510
 5421SOL     OW21455   3.210   4.220   1.180 -0.5800  0.8749  0.5716
 5421SOL    HW221456   3.213   4.147   1.242  1.7963 -0.2359 -0.6960
 5421SOL    HW321457   3.225   4.297   1.234  0.5578  0.0193  1.5518
 5421SOL    MW421458   3.213   4.220   1.195 -0.1164  0.6155  0.5337
 5422SOL     OW21459   5.338   6.392   5.504 -0.2648 -0.0562 -1.0437
 5422SOL    HW221460   5.433   6.400   5.504 -0.2853  0.7970  1.1796
 5422SOL    HW321461   5.321   6.300   5.487  0.9082 -0.0715 -2.2569
 5422SOL    MW421462   5.348   6.381   5.502 -0.1127  0.0544 -0.9104
 5423SOL     OW21463   3.108   2.080   6.086  0.5497 -0.0897  0.1613
 5423SOL    HW221464   3.057   2.083   6.005  0.2794  1.6658  0.3593
 5423SOL    HW321465   3.160   2.160   6.084  0.2203  0.1983  1.9144
 5423SOL    MW421466   3.108   2.091   6.075  0.4706  0.1799  0.4187
 5424SOL     OW21467   2.137   2.082   6.162  0.0947 -0.2308 -0.2837
 5424SOL    HW221468   2.087   2.024   6.219  0.2999 -0.7011 -0.5715
 5424SOL    HW321469   2.100   2.068   6.075  1.4484 -1.4570 -0.7106
 5424SOL    MW421470   2.126   2.073   6.158  0.3004 -0.4546 -0.3780
 5425SOL     OW21471   0.238   2.164   3.112  0.3155 -0.0977  0.0162
 5425SOL    HW221472   0.215   2.242   3.163  1.7426  0.9544 -0.8529
 5425SOL    HW321473   0.156   2.137   3.070 -0.2677  0.7602  0.5703
 5425SOL    MW421474   0.224   2.171   3.113  0.4268  0.1543 -0.0254
 5426SOL     OW21475   0.134   2.672   0.546 -0.8008 -0.3691 -0.6835
 5426SOL    HW221476   0.106   2.715   0.627  1.3646 -2.9891  1.6673
 5426SOL    HW321477   0.063   2.612   0.524 -0.3900 -1.4597  0.8149
 5426SOL    MW421478   0.121   2.670   0.554 -0.4609 -0.8586 -0.1757
 5427SOL     OW21479   3.921   4.554   4.757  0.6052  0.0885 -0.2086
 5427SOL    HW221480   3.983   4.598   4.699  0.7565 -0.6044 -0.5777
 5427SOL    HW321481   3.973   4.529   4.833  0.1388  2.1824  0.8860
 5427SOL    MW421482   3.936   4.556   4.759  0.5636  0.2734 -0.1128
 5428SOL     OW21483   5.459   6.157   3.660 -0.1724 -0.3852  0.1269
 5428SOL    HW221484   5.371   6.145   3.697 -0.8022  1.2054 -0.7724
 5428SOL    HW321485   5.459   6.101   3.582 -0.9667  0.7987 -0.7465
 5428SOL    MW421486   5.447   6.148   3.655 -0.3603 -0.0191 -0.1070
 5429SOL     OW21487   1.447   3.747   3.053  0.2291 -0.2759 -0.5551
 5429SOL    HW221488   1.437   3.770   2.960  0.7786  1.5176 -0.2203
 5429SOL    HW321489   1.439   3.831   3.099  1.5176 -0.9027  0.9039
 5429SOL    MW421490   1.444   3.761   3.047  0.4716 -0.1219 -0.3184
 5430SOL     OW21491   2.879   2.629   1.216 -0.4111  0.4834  0.0498
 5430SOL    HW221492   2.830   2.595   1.292 -0.0707  1.0436  0.5273
 5430SOL    HW321493   2.967   2.593   1.226 -0.6951 -0.4711 -0.7752
 5430SOL    MW421494   2.884   2.620   1.227 -0.4036  0.4314  0.0040
 5431SOL     OW21495   3.527   5.265   0.644  0.0297  0.3779  0.0586
 5431SOL    HW221496   3.488   5.223   0.567  0.0084 -0.7643  0.6663
 5431SOL    HW321497   3.504   5.207   0.717  3.6563 -0.9838  0.3346
 5431SOL    MW421498   3.519   5.252   0.644  0.5054  0.0475  0.1752
 5432SOL     OW21499   0.656   4.234   3.640 -0.7915 -0.4141  0.2784
 5432SOL    HW221500   0.589   4.165   3.637  0.1083 -1.2713 -1.9761
 5432SOL    HW321501   0.729   4.198   3.591  1.3061  0.5950  2.4869
 5432SOL    MW421502   0.657   4.220   3.633 -0.3961 -0.3940  0.2724
 5433SOL     OW21503   1.350   4.997   1.181  0.1804 -0.3016  0.0957
 5433SOL    HW221504   1.395   5.080   1.164 -0.4760  0.0930  0.2620
 5433SOL    HW321505   1.368   4.978   1.273 -1.2781  0.6678  0.6099
 5433SOL    MW421506   1.359   5.005   1.191 -0.0986 -0.1216  0.1855
 5434SOL     OW21507   1.684   4.080   1.050  0.2149 -0.6288 -0.2481
 5434SOL    HW221508   1.711   4.040   1.133  0.7035  0.3845  0.0902
 5434SOL    HW321509   1.589   4.088   1.058 -0.1066 -2.9717 -0.8972
 5434SOL    MW421510   1.675   4.075   1.062  0.2369 -0.8042 -0.2891
 5435SOL     OW21511   4.184   3.551   5.155  0.4316  0.4232 -0.0236
 5435SOL    HW221512   4.177   3.536   5.250  0.4855 -0.7433 -0.1888
 5435SOL    HW321513   4.131   3.482   5.116  2.7764 -0.9783 -0.9146
 5435SOL    MW421514   4.176   3.540   5.163  0.7481  0.0844 -0.1630
 5436SOL     OW21515   3.926   1.162   1.639 -0.3166  0.2182 -0.1806
 5436SOL    HW221516   3.871   1.227   1.681 -0.2631  0.4439 -0.4541
 5436SOL    HW321517   3.873   1.129   1.566  0.0800  0.7714 -0.7303
 5436SOL    MW421518   3.912   1.166   1.635 -0.2572  0.3210 -0.2892
 5437SOL     OW21519   5.280   4.605   1.193  0.1953  0.4694  0.6312
 5437SOL    HW221520   5.332   4.563   1.124 -0.8457 -0.6994  0.5217
 5437SOL    HW321521   5.229   4.672   1.148 -0.1743 -0.0153  0.3162
 5437SOL    MW421522   5.280   4.609   1.178  0.0092  0.2512  0.5752
 5438SOL     OW21523   1.142   4.709   4.569 -0.0418 -0.1235 -0.2937
 5438SOL    HW221524   1.184   4.794   4.586 -0.5507 -0.0655  0.7370
 5438SOL    HW321525   1.214   4.646   4.573  0.0339  0.0149  1.1585
 5438SOL    MW421526   1.157   4.712   4.572 -0.0990 -0.0976  0.0339
 5439SOL     OW21527   3.049   1.386   4.553 -0.2900  0.0606  0.0080
 5439SOL    HW221528   3.029   1.439   4.630  1.3519 -0.8783  1.1398
 5439SOL    HW321529   2.975   1.400   4.494 -2.8786 -1.1128  2.7468
 5439SOL    MW421530   3.037   1.395   4.555 -0.4149 -0.2181  0.5187
 5440SOL     OW21531   5.020   5.595   2.057  0.3448 -0.1095  0.3785
 5440SOL    HW221532   5.029   5.610   1.963 -1.1954 -0.7644  0.0987
 5440SOL    HW321533   5.062   5.671   2.098  1.5470 -0.1018 -0.8180
 5440SOL    MW421534   5.027   5.607   2.050  0.3002 -0.1949  0.1837
 5441SOL     OW21535   3.495   4.579   4.170  0.2055  0.2741 -0.0704
 5441SOL    HW221536   3.510   4.663   4.214 -1.1093 -0.1316  1.2217
 5441SOL    HW321537   3.583   4.541   4.160  0.6444  0.9022  1.1723
 5441SOL    MW421538   3.509   4.585   4.174  0.0899  0.3035  0.2640
 5442SOL     OW21539   2.586   6.127   0.813 -0.4226 -0.1483  0.2977
 5442SOL    HW221540   2.510   6.172   0.775  0.2914  1.9540  1.2151
 5442SOL    HW321541   2.596   6.167   0.900  1.5850 -0.5247  0.2762
 5442SOL    MW421542   2.577   6.139   0.820 -0.0635  0.0794  0.4159
 5443SOL     OW21543   6.265   3.777   1.143 -0.3188  0.4680  0.0524
 5443SOL    HW221544   6.312   3.723   1.208  2.2372  2.5824  0.1375
 5443SOL    HW321545   6.234   3.714   1.078  1.8895 -1.2235  0.4998
 5443SOL    MW421546   6.267   3.761   1.143  0.3098  0.5238  0.1227
 5444SOL     OW21547   5.115   5.829   1.079 -0.4187 -1.1312 -0.5807
 5444SOL    HW221548   5.204   5.856   1.055  0.0477  0.2930  2.3780
 5444SOL    HW321549   5.058   5.895   1.038 -0.0187 -1.1777 -1.2262
 5444SOL    MW421550   5.119   5.842   1.070 -0.3043 -0.9494 -0.2755
 5445SOL     OW21551   2.781   4.442   5.831  0.4227 -0.0733 -0.4124
 5445SOL    HW221552   2.821   4.360   5.803  0.9880 -0.0010  0.1786
 5445SOL    HW321553   2.850   4.489   5.878 -0.5306 -0.2698  1.2857
 5445SOL    MW421554   2.795   4.437   5.833  0.3715 -0.0897 -0.1104
 5446SOL     OW21555   0.841   3.752   2.740 -0.7422  0.5498  0.3265
 5446SOL    HW221556   0.932   3.730   2.764 -1.3587 -1.3295  1.1692
 5446SOL    HW321557   0.849   3.832   2.689  1.3784  0.5643  0.5566
 5446SOL    MW421558   0.854   3.760   2.737 -0.5438  0.3037  0.4680
 5447SOL     OW21559   6.075   3.869   4.270 -0.7345  0.2837  0.0160
 5447SOL    HW221560   6.129   3.864   4.191  1.0161  0.5087  1.1431
 5447SOL    HW321561   5.992   3.908   4.241 -0.1213  0.3899 -1.6807
 5447SOL    MW421562   6.071   3.873   4.256 -0.4226  0.3274 -0.0591
 5448SOL     OW21563   1.857   5.532   4.331  0.4130 -0.1808 -0.2999
 5448SOL    HW221564   1.786   5.592   4.352 -0.5767 -0.4587 -2.5878
 5448SOL    HW321565   1.936   5.578   4.360 -0.6455 -0.0926  2.7844
 5448SOL    MW421566   1.858   5.546   4.338  0.1428 -0.2058 -0.1948
 5449SOL     OW21567   2.169   3.864   4.923 -0.5356 -0.3607  0.3113
 5449SOL    HW221568   2.243   3.901   4.874 -0.7816 -1.4662 -0.9501
 5449SOL    HW321569   2.189   3.771   4.932 -1.3027 -0.4878  0.8414
 5449SOL    MW421570   2.181   3.857   4.918 -0.6693 -0.5233  0.2148
 5450SOL     OW21571   4.616   3.393   4.755 -0.5081  0.0826  0.8421
 5450SOL    HW221572   4.704   3.366   4.780 -1.2359  0.4349  4.3354
 5450SOL    HW321573   4.620   3.489   4.755 -0.5727  0.1169 -0.6237
 5450SOL    MW421574   4.628   3.402   4.758 -0.6126  0.1336  1.1096
 5451SOL     OW21575   5.911   1.567   0.494 -0.0488  0.1651 -0.7481
 5451SOL    HW221576   5.856   1.534   0.424  0.1986  1.2772 -1.4946
 5451SOL    HW321577   5.930   1.658   0.469 -0.6426  0.8787  1.1489
 5451SOL    MW421578   5.906   1.575   0.482 -0.0945  0.4060 -0.5963
 5452SOL     OW21579   1.091   0.032   1.361 -0.4811  0.0545  0.3938
 5452SOL    HW221580   1.057   0.041   1.272  0.0777  2.5580  0.3732
 5452SOL    HW321581   1.182   0.004   1.349 -0.7400 -0.7625  0.2503
 5452SOL    MW421582   1.098   0.030   1.348 -0.4416  0.2770  0.3722
 5453SOL     OW21583   2.675   6.057   5.946 -0.0134 -0.2341 -0.0343
 5453SOL    HW221584   2.598   6.007   5.974  0.0356 -0.4095 -0.2104
 5453SOL    HW321585   2.741   5.991   5.926  0.9680 -0.0553  2.2696
 5453SOL    MW421586   2.673   6.042   5.947  0.1225 -0.2337  0.2464
 5454SOL     OW21587   0.216   3.247   6.181  0.5093  0.2093  0.7602
 5454SOL    HW221588   0.137   3.192   6.187  1.1304 -0.8380 -0.3504
 5454SOL    HW321589   0.277   3.208   6.244  1.1116 -0.7067 -0.3424
 5454SOL    MW421590   0.213   3.234   6.190  0.6707 -0.0497  0.4682
 5455SOL     OW21591   0.161   2.996   5.023  0.2528  0.4843  0.0968
 5455SOL    HW221592   0.178   3.071   4.967  1.1942 -0.0942 -0.4057
 5455SOL    HW321593   0.167   2.920   4.965 -3.2192  0.1038  0.0185
 5455SOL    MW421594   0.164   2.996   5.008 -0.0811  0.3577  0.0202
 5456SOL     OW21595   2.661   4.981   2.195  0.2864 -0.0033 -0.2387
 5456SOL    HW221596   2.570   5.006   2.177 -0.1533 -0.5506  1.1204
 5456SOL    HW321597   2.655   4.890   2.223  1.3245 -0.1955 -0.6190
 5456SOL    MW421598   2.648   4.972   2.196  0.3653 -0.1009 -0.1096
 5457SOL     OW21599   2.313   2.850   0.827 -0.0368 -0.1413  0.0673
 5457SOL    HW221600   2.324   2.892   0.742 -1.2590  1.3918  0.6265
 5457SOL    HW321601   2.400   2.814   0.848  0.5239  0.3413 -1.3503
 5457SOL    MW421602   2.326   2.851   0.819 -0.1241  0.1247 -0.0459
 5458SOL     OW21603   6.357   4.596   4.686  0.2583 -0.2557  0.2229
 5458SOL    HW221604   6.430   4.585   4.625 -0.7475  0.2360 -1.1122
 5458SOL    HW321605   6.288   4.539   4.652 -0.8032  1.0638  0.0856
 5458SOL    MW421606   6.358   4.587   4.674 -0.0144 -0.0167  0.0287
 5459SOL     OW21607   6.392   2.469   3.064  0.2111 -0.0243  0.8765
 5459SOL    HW221608   6.345   2.552   3.060 -0.5071 -0.4446  0.4176
 5459SOL    HW321609   6.412   2.449   2.973 -0.0235 -0.5826  0.9469
 5459SOL    MW421610   6.389   2.477   3.052  0.0854 -0.1534  0.8253
 5460SOL     OW21611   1.850   4.193   3.977  0.7691 -0.4256 -0.0630
 5460SOL    HW221612   1.889   4.106   3.986 -0.6761 -0.8864  2.5282
 5460SOL    HW321613   1.756   4.177   3.970  0.5056  0.9164  0.1561
 5460SOL    MW421614   1.843   4.180   3.977  0.5437 -0.3094  0.3078
 5461SOL     OW21615   4.336   0.704   5.271  0.1723  0.4581  0.4162
 5461SOL    HW221616   4.243   0.703   5.290 -0.1379 -0.3037 -1.0202
 5461SOL    HW321617   4.346   0.771   5.203  0.4039 -0.5614 -0.5900
 5461SOL    MW421618   4.325   0.713   5.265  0.1620  0.2231  0.0940
 5462SOL     OW21619   2.661   2.454   1.711  0.3028  0.1728 -1.0541
 5462SOL    HW221620   2.626   2.513   1.778  1.9973 -1.0534  1.0239
 5462SOL    HW321621   2.609   2.374   1.720  1.1168 -0.3098 -0.5709
 5462SOL    MW421622   2.650   2.451   1.721  0.6338 -0.0527 -0.7162
 5463SOL     OW21623   2.851   0.343   3.751  0.0625 -0.9739  0.3967
 5463SOL    HW221624   2.927   0.349   3.693 -0.6530  0.2713 -0.4653
 5463SOL    HW321625   2.861   0.260   3.797  2.7290 -0.1692  1.4314
 5463SOL    MW421626   2.862   0.333   3.750  0.3199 -0.7035  0.4195
 5464SOL     OW21627   2.814   5.428   0.364 -0.1533 -0.2458 -0.6544
 5464SOL    HW221628   2.824   5.476   0.446 -2.0030  0.2095 -0.6517
 5464SOL    HW321629   2.887   5.458   0.310  0.6087  0.0751  0.5052
 5464SOL    MW421630   2.825   5.438   0.368 -0.2969 -0.1434 -0.5010
 5465SOL     OW21631   1.549   5.939   4.022 -0.0176 -0.4497 -0.0906
 5465SOL    HW221632   1.518   5.862   4.070 -0.2802 -0.4884 -0.3209
 5465SOL    HW321633   1.527   5.921   3.931 -0.3131  0.0140 -0.1136
 5465SOL    MW421634   1.542   5.926   4.017 -0.0912 -0.3936 -0.1240
 5466SOL     OW21635   2.103   3.508   5.199  0.3389  0.2078 -0.2655
 5466SOL    HW221636   2.036   3.569   5.231  0.8845  0.7971 -0.2294
 5466SOL    HW321637   2.171   3.508   5.267  1.0474  0.7157 -0.9555
 5466SOL    MW421638   2.103   3.516   5.212  0.5043  0.3526 -0.3518
 5467SOL     OW21639   0.346   3.708   2.044 -0.3163  0.3000  0.1379
 5467SOL    HW221640   0.386   3.757   1.973  0.4077 -0.7705 -0.2058
 5467SOL    HW321641   0.419   3.680   2.099 -0.8013  0.4310  0.8734
 5467SOL    MW421642   0.361   3.711   2.042 -0.2848  0.1761  0.1896
 5468SOL     OW21643   2.618   2.968   5.990  0.0411  0.3058 -0.0927
 5468SOL    HW221644   2.672   2.894   5.961  1.0517  0.6831  0.7399
 5468SOL    HW321645   2.670   3.046   5.965 -0.1710  0.6806  0.6269
 5468SOL    MW421646   2.632   2.969   5.983  0.1465  0.4050  0.1121
 5469SOL     OW21647   5.408   2.300   2.426 -0.6522 -0.3356 -0.0142
 5469SOL    HW221648   5.391   2.381   2.474  0.5282  0.4015 -0.7923
 5469SOL    HW321649   5.390   2.231   2.490 -0.7921  0.5689  0.9552
 5469SOL    MW421650   5.403   2.301   2.441 -0.5149 -0.1190  0.0111
 5470SOL     OW21651   2.997   5.815   1.749 -0.2710 -0.6395 -0.1907
 5470SOL    HW221652   3.051   5.893   1.732 -0.0959 -0.8154 -0.4630
 5470SOL    HW321653   2.964   5.790   1.662  0.7516 -1.6440 -0.3271
 5470SOL    MW421654   3.000   5.822   1.735 -0.1130 -0.7952 -0.2446
 5471SOL     OW21655   0.252   0.794   2.970 -0.5183 -0.2812 -0.3874
 5471SOL    HW221656   0.199   0.772   2.893 -2.7078 -1.9611  1.4730
 5471SOL    HW321657   0.215   0.741   3.041 -0.2851  2.9824  2.4496
 5471SOL    MW421658   0.240   0.784   2.969 -0.7764 -0.0723  0.2323
 5472SOL     OW21659   1.817   4.495   1.733 -0.7254  0.1038 -0.3476
 5472SOL    HW221660   1.748   4.495   1.667 -0.7854  0.6222 -0.2843
 5472SOL    HW321661   1.786   4.555   1.800 -0.4265 -0.0239 -0.0929
 5472SOL    MW421662   1.804   4.503   1.733 -0.6939  0.1553 -0.3056
 5473SOL     OW21663   3.142   0.799   5.941 -0.0134 -0.0493  0.3204
 5473SOL    HW221664   3.050   0.786   5.918  0.3235 -0.2800 -0.9660
 5473SOL    HW321665   3.139   0.831   6.031 -1.2916 -1.0684  0.6759
 5473SOL    MW421666   3.129   0.802   5.950 -0.1376 -0.2142  0.1976
 5474SOL     OW21667   1.913   5.076   3.936 -0.8271  0.0152 -0.0859
 5474SOL    HW221668   1.966   5.127   3.997  1.1433 -1.4749 -0.4549
 5474SOL    HW321669   1.840   5.134   3.913  0.3808  1.9867  0.8164
 5474SOL    MW421670   1.910   5.090   3.941 -0.4078  0.0787 -0.0155
 5475SOL     OW21671   3.524   4.357   0.556 -0.1017 -0.2771  0.5762
 5475SOL    HW221672   3.574   4.369   0.636  1.2867  2.0612 -0.5054
 5475SOL    HW321673   3.589   4.329   0.491  0.0922  3.1658 -0.9464
 5475SOL    MW421674   3.539   4.355   0.558  0.1070  0.4856  0.2326
 5476SOL     OW21675   4.186   4.187   0.540  0.0847  0.2635 -0.0138
 5476SOL    HW221676   4.148   4.221   0.621  0.2219 -0.4360  0.3567
 5476SOL    HW321677   4.278   4.213   0.543 -0.1064  1.0066 -0.3809
 5476SOL    MW421678   4.193   4.195   0.551  0.0776  0.2692 -0.0134
 5477SOL     OW21679   2.564   1.290   0.833  0.0108 -0.2766  0.3074
 5477SOL    HW221680   2.536   1.209   0.791  1.2616 -0.3617 -0.4188
 5477SOL    HW321681   2.530   1.284   0.922  2.1280 -2.7935  1.0941
 5477SOL    MW421682   2.556   1.278   0.839  0.4551 -0.6199  0.3154
 5478SOL     OW21683   2.226   4.061   1.141  0.3350  0.0635  0.2016
 5478SOL    HW221684   2.171   4.020   1.208 -0.6530  0.4399 -0.3521
 5478SOL    HW321685   2.275   3.989   1.102  0.8042 -0.1802  1.2093
 5478SOL    MW421686   2.225   4.046   1.144  0.2666  0.0810  0.2615
 5479SOL     OW21687   0.602   5.921   4.730  0.4789 -0.2970 -0.0803
 5479SOL    HW221688   0.653   5.871   4.794  0.7344 -0.4668 -0.4169
 5479SOL    HW321689   0.667   5.967   4.678  0.3378 -1.0935 -0.9894
 5479SOL    MW421690   0.617   5.920   4.732  0.4940 -0.4245 -0.2447
 5480SOL     OW21691   4.220   4.508   2.664  0.3914 -0.1314  0.0981
 5480SOL    HW221692   4.240   4.456   2.741  3.4512  0.6629 -0.0218
 5480SOL    HW321693   4.273   4.587   2.674 -0.5730  0.8550 -1.9396
 5480SOL    MW421694   4.229   4.512   2.675  0.6679  0.1035 -0.1865
 5481SOL     OW21695   1.314   1.644   1.148 -0.2727  0.0340  0.1736
 5481SOL    HW221696   1.252   1.628   1.077 -0.2878 -0.6964  0.3491
 5481SOL    HW321697   1.279   1.596   1.222  0.1221  0.2134  0.4821
 5481SOL    MW421698   1.301   1.636   1.148 -0.2226 -0.0387  0.2374
 5482SOL     OW21699   3.658   6.004   4.725 -0.4271 -0.6289 -0.1265
 5482SOL    HW221700   3.568   5.971   4.733 -1.1199  1.2237  0.2839
 5482SOL    HW321701   3.678   5.997   4.632 -0.4495 -2.3162 -0.0439
 5482SOL    MW421702   3.649   5.998   4.714 -0.5214 -0.6071 -0.0614
 5483SOL     OW21703   4.842   3.629   1.846  0.4993  0.1869 -0.3902
 5483SOL    HW221704   4.882   3.637   1.932 -0.0544  0.4657 -0.1544
 5483SOL    HW321705   4.810   3.539   1.843  0.0669  0.3299 -0.1048
 5483SOL    MW421706   4.843   3.618   1.857  0.3692  0.2425 -0.3214
 5484SOL     OW21707   3.402   5.874   1.124 -0.1218  0.0044 -0.0268
 5484SOL    HW221708   3.416   5.813   1.196 -0.3101 -1.1910 -0.9691
 5484SOL    HW321709   3.402   5.819   1.046  0.4855  1.3196 -0.9858
 5484SOL    MW421710   3.404   5.859   1.123 -0.0665  0.0202 -0.2777
 5485SOL     OW21711   2.164   0.523   5.175 -0.0422 -0.2964  0.3672
 5485SOL    HW221712   2.070   0.509   5.165 -0.4309  1.5556  0.8882
 5485SOL    HW321713   2.172   0.560   5.263  1.0476  0.4701 -0.0425
 5485SOL    MW421714   2.152   0.526   5.186  0.0503  0.0491  0.3819
 5486SOL     OW21715   2.692   0.597   5.939 -0.2710  0.1825  0.5865
 5486SOL    HW221716   2.619   0.645   5.898  1.0669  0.3848 -1.7509
 5486SOL    HW321717   2.764   0.661   5.940  1.4485 -1.5037 -2.2432
 5486SOL    MW421718   2.692   0.612   5.934  0.1324 -0.0133 -0.0952
 5487SOL     OW21719   4.686   0.502   2.333 -0.3075  0.2520  0.1621
 5487SOL    HW221720   4.644   0.588   2.336 -0.0772  0.3674  0.1370
 5487SOL    HW321721   4.623   0.446   2.288  0.9293  1.2155 -3.0145
 5487SOL    MW421722   4.672   0.506   2.327 -0.1140  0.3943 -0.2603
 5488SOL     OW21723   4.543   5.667   6.191  0.1569  0.0704 -0.8639
 5488SOL    HW221724   4.634   5.695   6.193  0.0334  0.4612  0.2712
 5488SOL    HW321725   4.545   5.577   6.160  1.0198 -0.2212  0.0168
 5488SOL    MW421726   4.555   5.659   6.187  0.2545  0.0835 -0.5980
 5489SOL     OW21727   3.653   0.792   2.998 -0.1871 -0.0436  0.0289
 5489SOL    HW221728   3.646   0.886   2.985  2.4600  0.3769  0.9682
 5489SOL    HW321729   3.677   0.757   2.912  1.5839  0.5662  0.2396
 5489SOL    MW421730   3.656   0.800   2.985  0.3958  0.0923  0.1807
 5490SOL     OW21731   0.305   4.597   2.991 -0.1692  0.1116 -0.0868
 5490SOL    HW221732   0.349   4.533   2.934  0.5111 -0.3022  0.8732
 5490SOL    HW321733   0.237   4.636   2.936  0.9054  0.2138 -1.3949
 5490SOL    MW421734   0.302   4.594   2.976  0.0623  0.0705 -0.1327
 5491SOL     OW21735   4.873   1.150   4.175 -0.6269  0.5919 -0.2578
 5491SOL    HW221736   4.833   1.229   4.140 -2.3788 -0.8651 -1.8265
 5491SOL    HW321737   4.807   1.081   4.159  1.1652 -1.3410  0.2048
 5491SOL    MW421738   4.859   1.151   4.168 -0.6216  0.1447 -0.4038
 5492SOL     OW21739   2.006   5.470   2.404  0.4193  0.2712 -0.1655
 5492SOL    HW221740   2.092   5.471   2.362  0.7133 -1.4392  0.3313
 5492SOL    HW321741   1.961   5.395   2.364 -0.2279  0.1572  0.7601
 5492SOL    MW421742   2.011   5.460   2.393  0.3727  0.0305  0.0222
 5493SOL     OW21743   4.433   1.983   4.340 -0.4255 -0.1119  0.4624
 5493SOL    HW221744   4.446   1.917   4.408  0.0022  2.2621  2.8757
 5493SOL    HW321745   4.415   2.064   4.389  1.1455  2.0307 -2.2059
 5493SOL    MW421746   4.432   1.985   4.356 -0.1618  0.4840  0.4288
 5494SOL     OW21747   2.198   2.350   3.768  0.3964 -0.0538  0.2802
 5494SOL    HW221748   2.225   2.426   3.820 -0.2621  0.2486  0.1924
 5494SOL    HW321749   2.115   2.377   3.729 -0.3831 -1.2030  1.0783
 5494SOL    MW421750   2.191   2.364   3.770  0.2067 -0.1655  0.3739
 5495SOL     OW21751   4.681   5.477   5.666  0.0630  0.0762  0.0046
 5495SOL    HW221752   4.746   5.457   5.599  1.0602 -1.0342  1.2523
 5495SOL    HW321753   4.655   5.391   5.701 -2.2241  0.4732 -0.5665
 5495SOL    MW421754   4.686   5.463   5.662 -0.1072 -0.0179  0.0939
 5496SOL     OW21755   0.768   6.371   1.422  0.2030 -0.4228 -0.4599
 5496SOL    HW221756   0.781   6.430   1.497 -1.7419 -0.6436  0.1302
 5496SOL    HW321757   0.817   6.292   1.445  1.3935  0.2968 -0.4485
 5496SOL    MW421758   0.776   6.368   1.435  0.1035 -0.3570 -0.3806
 5497SOL     OW21759   3.473   0.826   5.593 -0.1120  0.6590 -0.2239
 5497SOL    HW221760   3.411   0.759   5.622  1.1159 -0.8313 -0.8894
 5497SOL    HW321761   3.447   0.846   5.503  0.8986 -0.6982 -0.8581
 5497SOL    MW421762   3.461   0.820   5.585  0.1834  0.2833 -0.3953
 5498SOL     OW21763   0.904   0.046   5.563 -0.3461 -0.3928 -0.1570
 5498SOL    HW221764   0.812   0.025   5.547 -0.6558  0.6888  0.1307
 5498SOL    HW321765   0.950   0.009   5.488 -1.4514  2.1641 -2.2976
 5498SOL    MW421766   0.898   0.039   5.551 -0.5328  0.0873 -0.4014
 5499SOL     OW21767   1.099   2.182   4.451 -0.3626  0.6911 -0.0331
 5499SOL    HW221768   1.132   2.198   4.363  1.8810 -0.0233  0.6116
 5499SOL    HW321769   1.126   2.259   4.501 -0.8015  0.6691  0.2435
 5499SOL    MW421770   1.107   2.194   4.446 -0.1245  0.5939  0.0885
 5500SOL     OW21771   3.999   1.968   5.780 -0.6440  0.2009 -0.2852
 5500SOL    HW221772   4.067   2.002   5.722 -1.2686 -0.8548 -1.6945
 5500SOL    HW321773   3.994   2.032   5.851  2.6089 -0.2193  0.5058
 5500SOL    MW421774   4.007   1.981   5.782 -0.2973  0.0062 -0.3668
 5501SOL     OW21775   4.778   5.060   3.197 -0.0701 -0.2613 -0.0748
 5501SOL    HW221776   4.702   5.028   3.244 -0.2072 -1.0910 -0.8242
 5501SOL    HW321777   4.824   5.116   3.259 -0.2677 -1.2810  1.0116
 5501SOL    MW421778   4.774   5.063   3.211 -0.1143 -0.5053 -0.0303
 5502SOL     OW21779   5.965   4.756   1.351 -0.0478 -0.2106 -0.0537
 5502SOL    HW221780   5.889   4.711   1.387 -1.2481  0.5668 -1.5155
 5502SOL    HW321781   5.987   4.707   1.272 -1.0089  1.3267 -1.3447
 5502SOL    MW421782   5.958   4.744   1.345 -0.3330  0.0948 -0.4169
 5503SOL     OW21783   2.910   0.621   6.343  0.0837  0.1025 -0.1224
 5503SOL    HW221784   2.990   0.593   6.388  0.0158  1.4091  0.8879
 5503SOL    HW321785   2.917   0.584   6.256  0.6426 -1.8314  0.6866
 5503SOL    MW421786   2.922   0.613   6.338  0.1485  0.0197  0.1176
 5504SOL     OW21787   5.827   3.014   6.138  0.2257  0.4627 -0.1590
 5504SOL    HW221788   5.810   3.072   6.063  2.3398  1.4127  0.0142
 5504SOL    HW321789   5.921   3.023   6.154 -0.3124  1.2427  3.3852
 5504SOL    MW421790   5.837   3.023   6.130  0.4336  0.6910  0.3315
 5505SOL     OW21791   6.409   4.188   5.750 -0.1311  0.1886 -0.3386
 5505SOL    HW221792   6.372   4.199   5.663  0.0001  1.4982 -0.2490
 5505SOL    HW321793   6.473   4.117   5.740 -0.0673  0.3687 -1.3205
 5505SOL    MW421794   6.413   4.180   5.737 -0.1054  0.3852 -0.4563
 5506SOL     OW21795   2.393   0.508   2.946  0.8434 -0.0100  0.2460
 5506SOL    HW221796   2.375   0.554   2.865 -0.3211  0.3898  0.7133
 5506SOL    HW321797   2.311   0.462   2.967  1.6335 -1.4330  0.3536
 5506SOL    MW421798   2.380   0.508   2.938  0.7940 -0.1450  0.3218
 5507SOL     OW21799   2.078   3.547   2.398 -0.6365  0.4711 -0.7542
 5507SOL    HW221800   2.164   3.523   2.365  0.3350  2.1222  0.4607
 5507SOL    HW321801   2.024   3.557   2.319  0.4021 -0.0627 -1.5558
 5507SOL    MW421802   2.082   3.545   2.383 -0.3713  0.6186 -0.6997
 5508SOL     OW21803   3.238   0.646   2.143  0.2589 -0.3258 -0.1469
 5508SOL    HW221804   3.315   0.699   2.166 -0.7819  0.2423  2.3314
 5508SOL    HW321805   3.268   0.556   2.151  0.8502 -0.1081  0.1847
 5508SOL    MW421806   3.252   0.641   2.147  0.1996 -0.2221  0.2239
 5509SOL     OW21807   5.595   3.883   5.882  0.4455  0.2545 -0.1874
 5509SOL    HW221808   5.682   3.871   5.920 -0.2090 -1.4109  0.8775
 5509SOL    HW321809   5.599   3.839   5.797  0.5667 -0.0803 -0.0095
 5509SOL    MW421810   5.607   3.876   5.876  0.3751 -0.0094 -0.0234
 5510SOL     OW21811   1.988   6.181   0.119  0.1417 -0.0677  0.1964
 5510SOL    HW221812   1.943   6.265   0.111 -0.9404 -0.5520  0.8488
 5510SOL    HW321813   1.919   6.120   0.145  1.4769 -0.5206  3.0639
 5510SOL    MW421814   1.973   6.184   0.121  0.1751 -0.1914  0.6608
 5511SOL     OW21815   2.519   1.709   4.200 -0.1144 -0.1414 -0.6572
 5511SOL    HW221816   2.428   1.698   4.171  0.0650 -2.6534 -0.4915
 5511SOL    HW321817   2.526   1.653   4.277  2.2076 -2.1099 -2.1761
 5511SOL    MW421818   2.508   1.700   4.206  0.2156 -0.7326 -0.8357
 5512SOL     OW21819   0.048   0.922   0.673  0.2295  0.6382  0.0669
 5512SOL    HW221820   0.022   1.013   0.683  0.3877  0.6542  0.3333
 5512SOL    HW321821   0.131   0.925   0.625 -0.2224  0.5899 -0.7308
 5512SOL    MW421822   0.055   0.934   0.668  0.1907  0.6339 -0.0032
 5513SOL     OW21823   0.252   6.328   5.408 -0.4894 -0.1214 -0.2504
 5513SOL    HW221824   0.309   6.271   5.459 -2.1145 -0.0968  1.6893
 5513SOL    HW321825   0.245   6.408   5.459 -0.0660  0.9878 -1.8427
 5513SOL    MW421826   0.259   6.331   5.421 -0.6479  0.0282 -0.2046
 5514SOL     OW21827   5.798   0.737   4.263 -0.3748 -0.0104  0.6176
 5514SOL    HW221828   5.703   0.727   4.271 -0.4328 -0.8905 -0.8334
 5514SOL    HW321829   5.831   0.723   4.352 -1.3543 -3.2364  0.5862
 5514SOL    MW421830   5.790   0.734   4.276 -0.5117 -0.5521  0.4221
 5515SOL     OW21831   5.581   1.664   3.401  0.0360 -0.0590 -0.3199
 5515SOL    HW221832   5.491   1.680   3.375 -0.2573  0.1994  0.8025
 5515SOL    HW321833   5.598   1.727   3.471  0.7695 -0.7225  0.1236
 5515SOL    MW421834   5.571   1.674   3.407  0.0941 -0.1124 -0.1133
 5516SOL     OW21835   2.309   0.493   3.260 -0.0707  0.0622  0.5215
 5516SOL    HW221836   2.343   0.582   3.271 -1.0892  0.2211  3.2339
 5516SOL    HW321837   2.325   0.471   3.169  3.4516  1.6797  0.6149
 5516SOL    MW421838   2.316   0.502   3.250  0.2596  0.2966  0.8917
 5517SOL     OW21839   4.664   5.264   2.142 -0.1601  0.2673 -0.3898
 5517SOL    HW221840   4.668   5.270   2.238  2.3292  2.7949 -0.5045
 5517SOL    HW321841   4.601   5.331   2.116  0.2013  0.5456 -0.5534
 5517SOL    MW421842   4.656   5.274   2.151  0.2160  0.6375 -0.4265
 5518SOL     OW21843   4.787   3.644   3.452 -0.3004  0.6729  0.3031
 5518SOL    HW221844   4.777   3.563   3.501 -0.2369  1.0097  0.8879
 5518SOL    HW321845   4.740   3.628   3.370  1.0512 -0.4972 -0.2783
 5518SOL    MW421846   4.779   3.631   3.448 -0.1137  0.5630  0.3036
 5519SOL     OW21847   4.226   5.772   0.621  0.3983  0.3313  0.3661
 5519SOL    HW221848   4.305   5.724   0.644  0.7349  0.7200  0.0396
 5519SOL    HW321849   4.247   5.814   0.537 -0.6414 -0.7237 -0.4635
 5519SOL    MW421850   4.239   5.771   0.613  0.3055  0.2434  0.2136
 5520SOL     OW21851   1.667   4.456   4.321  0.3835 -0.2148  0.0562
 5520SOL    HW221852   1.678   4.441   4.227 -0.0569  0.3530 -0.0924
 5520SOL    HW321853   1.597   4.396   4.346  0.8154 -0.6977  0.1186
 5520SOL    MW421854   1.659   4.446   4.312  0.3824 -0.2036  0.0449
 5521SOL     OW21855   3.236   0.454   2.689  0.1412 -0.2757  0.0913
 5521SOL    HW221856   3.256   0.430   2.780 -0.0249  0.8631  0.4454
 5521SOL    HW321857   3.292   0.397   2.636  0.3566 -0.8419  0.9078
 5521SOL    MW421858   3.246   0.443   2.694  0.1477 -0.2002  0.2457
 5522SOL     OW21859   5.292   5.768   1.701  0.2839 -0.0945  0.3089
 5522SOL    HW221860   5.258   5.806   1.782  2.3967 -1.3086  1.8908
 5522SOL    HW321861   5.328   5.843   1.652 -1.5241  0.7266  0.1765
 5522SOL    MW421862   5.292   5.783   1.705  0.3242 -0.1464  0.5001
 5523SOL     OW21863   1.474   6.273   0.039  0.1346 -0.0413 -0.3494
 5523SOL    HW221864   1.516   6.237  -0.039  0.4503 -1.5398  0.4688
 5523SOL    HW321865   1.533   6.342   0.068  1.1412 -0.9264 -0.2207
 5523SOL    MW421866   1.487   6.277   0.032  0.3091 -0.3558 -0.2245
 5524SOL     OW21867   0.319   5.333   2.742 -0.1125 -0.7980 -0.1273
 5524SOL    HW221868   0.373   5.406   2.771  0.1730 -0.5127 -1.3037
 5524SOL    HW321869   0.360   5.255   2.781  0.0480 -0.4116  0.4801
 5524SOL    MW421870   0.331   5.332   2.751 -0.0537 -0.7094 -0.2024
 5525SOL     OW21871   5.440   2.186   4.947  0.0392  0.0277  0.2500
 5525SOL    HW221872   5.523   2.229   4.927 -0.2535  1.0891  1.1814
 5525SOL    HW321873   5.388   2.197   4.867 -0.2025  1.9296  0.6100
 5525SOL    MW421874   5.444   2.193   4.934 -0.0313  0.4187  0.4204
 5526SOL     OW21875   6.169   5.715   3.201  0.1687  0.1112  0.1092
 5526SOL    HW221876   6.092   5.660   3.187  1.1833 -1.7167  1.3050
 5526SOL    HW321877   6.141   5.779   3.266 -0.4652 -0.2924  0.2396
 5526SOL    MW421878   6.155   5.716   3.208  0.2189 -0.1833  0.2842
 5527SOL     OW21879   2.348   5.923   2.826 -0.4542 -0.3202  0.3360
 5527SOL    HW221880   2.361   5.828   2.832  1.5343 -0.0211  1.5168
 5527SOL    HW321881   2.268   5.939   2.877 -1.0983 -1.3906 -0.2978
 5527SOL    MW421882   2.339   5.913   2.833 -0.2768 -0.4219  0.4082
 5528SOL     OW21883   5.084   4.456   2.471  0.6003 -0.2650 -0.4085
 5528SOL    HW221884   4.989   4.466   2.459  0.6261 -0.6843 -1.0218
 5528SOL    HW321885   5.122   4.537   2.439  0.3147  0.9420  2.0760
 5528SOL    MW421886   5.076   4.468   2.466  0.5660 -0.1610 -0.1617
 5529SOL     OW21887   4.900   5.452   5.447 -0.4984 -0.5475  0.1908
 5529SOL    HW221888   4.829   5.391   5.429 -1.6412  0.9123 -0.5164
 5529SOL    HW321889   4.861   5.539   5.435  1.2665  0.3260  0.3287
 5529SOL    MW421890   4.886   5.455   5.443 -0.4163 -0.2397  0.1157
 5530SOL     OW21891   1.008   5.741   4.007  0.2045 -0.0820 -0.2109
 5530SOL    HW221892   1.052   5.752   4.092  1.1996 -0.3615 -0.6704
 5530SOL    HW321893   0.961   5.658   4.016 -0.1450  0.1579  0.2459
 5530SOL    MW421894   1.008   5.731   4.020  0.2897 -0.0872 -0.2113
 5531SOL     OW21895   2.558   3.932   2.719  0.3398 -0.0537 -0.1860
 5531SOL    HW221896   2.487   3.895   2.666  1.4576 -1.4839 -0.7469
 5531SOL    HW321897   2.541   4.026   2.719 -1.6396 -0.3776 -0.1495
 5531SOL    MW421898   2.547   3.940   2.712  0.2261 -0.2852 -0.2552
 5532SOL     OW21899   1.867   1.737   0.350  0.0130  0.6134  0.3711
 5532SOL    HW221900   1.907   1.689   0.422 -1.3036 -0.6958  0.2717
 5532SOL    HW321901   1.808   1.799   0.392  0.5681  1.0941  0.4539
 5532SOL    MW421902   1.864   1.739   0.365 -0.0875  0.5040  0.3689
 5533SOL     OW21903   3.467   6.158   0.297  0.3401  0.5290 -0.2531
 5533SOL    HW221904   3.422   6.222   0.352  1.3068  2.6628 -1.8039
 5533SOL    HW321905   3.520   6.107   0.359  1.4778  2.8966  0.8756
 5533SOL    MW421906   3.468   6.160   0.313  0.6177  1.1229 -0.3088
 5534SOL     OW21907   5.275   5.997   3.825  0.2326  0.0349 -0.1281
 5534SOL    HW221908   5.309   5.939   3.894 -0.2522 -0.7251 -0.5105
 5534SOL    HW321909   5.266   5.940   3.748 -0.3698  0.5947 -0.4844
 5534SOL    MW421910   5.278   5.982   3.824  0.0892  0.0085 -0.2256
 5535SOL     OW21911   5.009   2.882   3.643  0.0005  0.7875 -0.2021
 5535SOL    HW221912   5.013   2.903   3.550  0.8388  2.1572  0.1155
 5535SOL    HW321913   4.971   2.794   3.646  0.0665  0.6717 -1.8299
 5535SOL    MW421914   5.004   2.873   3.631  0.1198  0.9529 -0.3750
 5536SOL     OW21915   4.274   3.778   5.470  0.7931 -0.4215 -0.0876
 5536SOL    HW221916   4.188   3.754   5.436 -0.2821  0.1466  2.0704
 5536SOL    HW321917   4.321   3.695   5.480 -1.5700 -1.5324  3.8800
 5536SOL    MW421918   4.269   3.764   5.467  0.3395 -0.4931  0.7206
 5537SOL     OW21919   1.673   2.122   2.536  0.1837 -0.4571  0.2390
 5537SOL    HW221920   1.737   2.194   2.539  1.2884 -1.3665 -0.5785
 5537SOL    HW321921   1.589   2.164   2.553  1.0964  0.6170  2.5077
 5537SOL    MW421922   1.671   2.137   2.538  0.4498 -0.4354  0.4304
 5538SOL     OW21923   1.945   5.571   5.856 -0.1762 -0.3394 -0.5448
 5538SOL    HW221924   1.906   5.658   5.858  1.0679  0.2303 -0.2268
 5538SOL    HW321925   2.014   5.573   5.923  1.0056 -0.9938 -1.6838
 5538SOL    MW421926   1.949   5.583   5.865  0.1439 -0.3506 -0.6531
 5539SOL     OW21927   3.698   3.007   5.380  0.6760  0.2641  0.2877
 5539SOL    HW221928   3.663   2.926   5.342  0.9144  1.0035 -1.5738
 5539SOL    HW321929   3.743   2.978   5.459 -0.9852 -1.1653  0.7949
 5539SOL    MW421930   3.699   2.992   5.386  0.4883  0.1731  0.1090
 5540SOL     OW21931   6.133   0.975   2.019 -0.1162  0.1127  0.2177
 5540SOL    HW221932   6.156   0.941   1.933  2.1985  1.7000  0.1144
 5540SOL    HW321933   6.093   1.060   2.002 -1.2668 -0.3144  0.6730
 5540SOL    MW421934   6.131   0.981   2.006  0.0374  0.2658  0.2641
 5541SOL     OW21935   5.708   4.262   2.632 -0.3577 -0.0402 -0.7160
 5541SOL    HW221936   5.703   4.340   2.687 -2.5921 -0.4363 -0.2681
 5541SOL    HW321937   5.717   4.189   2.694 -1.5316 -0.3781 -0.9253
 5541SOL    MW421938   5.709   4.262   2.647 -0.8074 -0.1371 -0.6845
 5542SOL     OW21939   6.165   1.757   2.592 -0.2520  0.2724  0.3889
 5542SOL    HW221940   6.148   1.668   2.624  0.9589 -0.1545 -0.0836
 5542SOL    HW321941   6.158   1.749   2.496  0.9775  0.4121  0.2742
 5542SOL    MW421942   6.162   1.744   2.583  0.0700  0.2345  0.3114
 5543SOL     OW21943   1.316   2.890   5.539 -0.3534 -0.3613  0.2420
 5543SOL    HW221944   1.297   2.976   5.576  1.8577  0.5224 -0.5180
 5543SOL    HW321945   1.368   2.846   5.605  0.5174 -0.1794 -0.3065
 5543SOL    MW421946   1.320   2.896   5.552  0.0532 -0.2207  0.0694
 5544SOL     OW21947   0.809   1.156   3.876  0.2912  0.0251  0.0629
 5544SOL    HW221948   0.770   1.243   3.879 -0.6902 -0.4289  0.8932
 5544SOL    HW321949   0.739   1.097   3.901  0.7526 -1.0925 -1.1568
 5544SOL    MW421950   0.795   1.160   3.880  0.2226 -0.1823  0.0115
 5545SOL     OW21951   1.185   3.534   1.627 -0.0128  0.0937  0.0374
 5545SOL    HW221952   1.102   3.495   1.596  0.1731 -1.1927  1.0581
 5545SOL    HW321953   1.159   3.618   1.665 -0.9648 -0.5595  0.8883
 5545SOL    MW421954   1.170   3.540   1.628 -0.1139 -0.1622  0.2843
 5546SOL     OW21955   0.653   0.953   5.441  0.2637  0.2458 -0.0235
 5546SOL    HW221956   0.735   0.908   5.427 -0.3161 -0.2895 -1.9987
 5546SOL    HW321957   0.591   0.884   5.465  0.1760  0.5256  0.5822
 5546SOL    MW421958   0.655   0.938   5.442  0.1756  0.2121 -0.2042
 5547SOL     OW21959   5.903   5.668   2.232  0.1660 -0.6084  0.5993
 5547SOL    HW221960   5.824   5.615   2.242 -1.2954  0.3467 -3.8278
 5547SOL    HW321961   5.884   5.748   2.280 -1.6081 -0.4040 -0.3723
 5547SOL    MW421962   5.890   5.671   2.240 -0.2609 -0.4554 -0.1130
 5548SOL     OW21963   2.782   1.063   1.047 -0.3097  0.2060  0.0995
 5548SOL    HW221964   2.782   1.046   1.141  0.8946 -2.3536 -0.2642
 5548SOL    HW321965   2.794   1.157   1.039 -0.6715  0.5106  2.4940
 5548SOL    MW421966   2.783   1.073   1.058 -0.1985 -0.0915  0.3674
 5549SOL     OW21967   5.395   2.497   4.778 -0.4451 -0.1707  0.2343
 5549SOL    HW221968   5.308   2.480   4.813  0.1363  0.6016  2.2645
 5549SOL    HW321969   5.452   2.493   4.855  1.4175 -1.2677 -1.1314
 5549SOL    MW421970   5.391   2.494   4.793 -0.1226 -0.2135  0.3220
 5550SOL     OW21971   0.379   3.499   6.301  0.0967 -0.1983 -0.1493
 5550SOL    HW221972   0.331   3.480   6.382  0.8512  0.3460  0.4429
 5550SOL    HW321973   0.367   3.593   6.288  2.5629  0.3666  1.0970
 5550SOL    MW421974   0.371   3.509   6.310  0.5217 -0.0519  0.0933
 5551SOL     OW21975   6.297   0.134   3.785  0.0948  0.3112 -0.0098
 5551SOL    HW221976   6.337   0.218   3.763  1.4479  0.0163  1.1746
 5551SOL    HW321977   6.302   0.084   3.703  1.7099  0.4808 -0.0507
 5551SOL    MW421978   6.303   0.139   3.771  0.4864  0.2946  0.1410
 5552SOL     OW21979   3.799   2.009   1.000 -0.2869 -0.7307 -0.1221
 5552SOL    HW221980   3.809   2.073   0.930 -0.6319 -0.2079  0.3023
 5552SOL    HW321981   3.834   2.052   1.078  0.1422 -1.3255  0.0232
 5552SOL    MW421982   3.805   2.023   1.001 -0.2758 -0.7402 -0.0469
 5553SOL     OW21983   2.240   2.371   3.457 -0.2335 -0.1645 -0.4604
 5553SOL    HW221984   2.197   2.452   3.431 -0.3674 -0.5495 -1.4728
 5553SOL    HW321985   2.229   2.313   3.382  1.9780 -0.3007 -0.7447
 5553SOL    MW421986   2.233   2.374   3.444  0.0406 -0.2333 -0.6315
 5554SOL     OW21987   0.682   4.063   1.109 -0.3536  0.2448  0.0331
 5554SOL    HW221988   0.754   4.124   1.125  0.5759  0.2020 -3.3044
 5554SOL    HW321989   0.723   3.988   1.067 -2.2808  0.1741 -1.8989
 5554SOL    MW421990   0.697   4.061   1.106 -0.4852  0.2298 -0.6622
 5555SOL     OW21991   5.344   1.884   4.403  0.0407 -0.1412  0.2048
 5555SOL    HW221992   5.402   1.843   4.339 -0.5917  0.6750 -0.9291
 5555SOL    HW321993   5.256   1.857   4.377 -0.5174  2.6837 -1.2552
 5555SOL    MW421994   5.340   1.875   4.391 -0.1164  0.3392 -0.1375
 5556SOL     OW21995   4.890   5.551   2.454 -0.1677 -0.2872 -0.1218
 5556SOL    HW221996   4.901   5.461   2.420 -0.7704  0.2526 -1.8488
 5556SOL    HW321997   4.796   5.560   2.467 -0.0783  0.0035  0.3088
 5556SOL    MW421998   4.879   5.540   2.451 -0.2354 -0.1776 -0.2928
 5557SOL     OW21999   0.795   2.233   2.099 -0.3708 -0.0885  0.1495
 5557SOL    HW222000   0.713   2.212   2.053 -0.8060 -0.4213  1.0675
 5557SOL    HW322001   0.863   2.193   2.044 -0.8197  0.0888 -0.5609
 5557SOL    MW422002   0.793   2.225   2.085 -0.4875 -0.1090  0.1769
 5558SOL     OW22003   1.135   2.796   3.274  0.1492 -0.3235  0.0917
 5558SOL    HW222004   1.093   2.827   3.354  0.1643  0.4606 -0.1971
 5558SOL    HW322005   1.154   2.875   3.224 -1.0539 -0.8628 -1.2965
 5558SOL    MW422006   1.132   2.810   3.278 -0.0075 -0.2912 -0.1296
 5559SOL     OW22007   1.042   2.952   2.643 -0.7857  0.2032  0.0161
 5559SOL    HW222008   0.949   2.931   2.656 -1.0895  1.0569 -0.6449
 5559SOL    HW322009   1.068   2.902   2.566 -1.0782  0.9743 -0.6032
 5559SOL    MW422010   1.033   2.943   2.634 -0.8643  0.4175 -0.1529
 5560SOL     OW22011   1.310   6.112   4.133 -0.0729 -0.4973 -1.0122
 5560SOL    HW222012   1.401   6.082   4.137 -0.2160 -0.8820 -0.0880
 5560SOL    HW322013   1.272   6.063   4.061 -0.0755 -1.9849 -0.0592
 5560SOL    MW422014   1.317   6.101   4.124 -0.0921 -0.7443 -0.7645
 5561SOL     OW22015   3.014   4.448   4.653 -0.0834  0.2547 -0.1271
 5561SOL    HW222016   3.006   4.500   4.573 -0.2905 -0.4457 -0.5669
 5561SOL    HW322017   2.937   4.472   4.705  0.3030  1.0766  0.0889
 5561SOL    MW422018   3.003   4.458   4.649 -0.0597  0.2707 -0.1566
 5562SOL     OW22019   1.768   3.528   5.959 -0.2946  0.5763 -0.0947
 5562SOL    HW222020   1.835   3.468   5.927  1.8151  2.0216  1.3901
 5562SOL    HW322021   1.736   3.573   5.881 -1.2113 -1.6645 -1.1050
 5562SOL    MW422022   1.773   3.526   5.944 -0.1372  0.4714 -0.0321
 5563SOL     OW22023   2.969   6.210   5.637 -0.4371  0.1202  0.1413
 5563SOL    HW222024   2.991   6.170   5.553  0.1213 -0.4014  0.5225
 5563SOL    HW322025   3.006   6.298   5.632 -2.5088  0.9903 -1.0760
 5563SOL    MW422026   2.977   6.217   5.625 -0.6367  0.1661  0.0310
 5564SOL     OW22027   0.878   1.789   3.506  0.0709 -0.2539 -0.0159
 5564SOL    HW222028   0.837   1.851   3.447  1.0367 -0.4514 -0.9146
 5564SOL    HW322029   0.901   1.840   3.584 -0.8002  0.1005  0.0129
 5564SOL    MW422030   0.876   1.804   3.509  0.0834 -0.2332 -0.1306
 5565SOL     OW22031   1.507   3.371   0.748  0.2865 -0.0795 -0.1437
 5565SOL    HW222032   1.507   3.466   0.761 -0.9794  0.1001 -1.2369
 5565SOL    HW322033   1.557   3.359   0.667  2.8498 -0.6426  1.3886
 5565SOL    MW422034   1.514   3.382   0.739  0.4577 -0.1301 -0.0858
 5566SOL     OW22035   2.113   1.149   5.229 -0.2699 -0.1143  0.6764
 5566SOL    HW222036   2.064   1.150   5.147  1.4226 -0.4634 -0.3968
 5566SOL    HW322037   2.136   1.240   5.245  1.3462 -0.2803 -0.5088
 5566SOL    MW422038   2.110   1.161   5.220  0.1666 -0.1823  0.3784
 5567SOL     OW22039   4.506   2.890   2.213 -0.0189 -0.3738 -0.1932
 5567SOL    HW222040   4.590   2.873   2.170 -1.0109 -2.3958 -1.5102
 5567SOL    HW322041   4.454   2.935   2.146 -0.1074  0.5615  0.4954
 5567SOL    MW422042   4.510   2.893   2.198 -0.1615 -0.5172 -0.2761
 5568SOL     OW22043   5.830   5.989   3.826  0.0151 -0.2067  0.2297
 5568SOL    HW222044   5.854   6.043   3.902  0.9137 -1.1079  0.6082
 5568SOL    HW322045   5.820   6.052   3.755  0.9234  0.4881  0.6828
 5568SOL    MW422046   5.832   6.005   3.827  0.2535 -0.2339  0.3394
 5569SOL     OW22047   3.917   2.013   4.365 -0.0631 -0.0024  0.2714
 5569SOL    HW222048   3.872   2.075   4.423 -0.8914 -0.4042  0.0746
 5569SOL    HW322049   3.950   1.945   4.423  1.4123  0.9238  0.5679
 5569SOL    MW422050   3.915   2.012   4.380  0.0223  0.0668  0.2846
 5570SOL     OW22051   4.319   0.066   5.443  0.3499  0.3478  0.3208
 5570SOL    HW222052   4.393   0.069   5.503 -0.7364  0.9526  1.7099
 5570SOL    HW322053   4.336  -0.010   5.387  2.4124  0.9742  0.0158
 5570SOL    MW422054   4.331   0.056   5.444  0.4787  0.5102  0.4639
 5571SOL     OW22055   1.918   6.211   1.571  0.0106 -0.3976  0.3369
 5571SOL    HW222056   1.897   6.265   1.495  1.1995 -1.9620 -1.1858
 5571SOL    HW322057   1.837   6.208   1.622 -0.4794  1.6432 -0.2304
 5571SOL    MW422058   1.905   6.218   1.568  0.1028 -0.3348  0.0612
 5572SOL     OW22059   1.771   0.408   3.591  0.1861 -0.4384 -0.0549
 5572SOL    HW222060   1.795   0.391   3.682  0.1751  0.6897  0.1759
 5572SOL    HW322061   1.731   0.327   3.561 -2.9149  0.1617  1.9819
 5572SOL    MW422062   1.769   0.395   3.599 -0.2245 -0.2104  0.2443
 5573SOL     OW22063   0.958   5.423   5.498  0.1825  0.2725 -0.4855
 5573SOL    HW222064   1.036   5.374   5.525  0.3069  0.3073 -0.7848
 5573SOL    HW322065   0.940   5.481   5.572 -0.4176 -0.7539  0.2078
 5573SOL    MW422066   0.966   5.424   5.511  0.1197  0.1417 -0.4335
 5574SOL     OW22067   4.219   1.274   2.219 -0.2604  0.6903 -0.1310
 5574SOL    HW222068   4.314   1.262   2.212 -0.4116  0.4371 -2.7143
 5574SOL    HW322069   4.199   1.339   2.152 -1.8033  1.7134  1.2415
 5574SOL    MW422070   4.229   1.281   2.209 -0.4839  0.7918 -0.2907
 5575SOL     OW22071   0.282   1.154   3.623 -0.0340  0.4989  1.0032
 5575SOL    HW222072   0.288   1.236   3.574 -0.1719  0.4819  0.9576
 5575SOL    HW322073   0.251   1.090   3.559 -0.5459  0.5511  1.1981
 5575SOL    MW422074   0.279   1.157   3.608 -0.1197  0.5036  1.0229
 5576SOL     OW22075   5.740   2.287   4.248  0.2199 -0.2450  0.3293
 5576SOL    HW222076   5.807   2.298   4.315 -0.2844  1.0578  0.6531
 5576SOL    HW322077   5.657   2.306   4.293 -0.0725  1.2981 -0.7653
 5576SOL    MW422078   5.738   2.291   4.263  0.1148  0.1305  0.2276
 5577SOL     OW22079   3.982   2.548   3.070  0.3589  0.1501  0.1379
 5577SOL    HW222080   4.023   2.624   3.113 -0.6614  1.0985 -0.5130
 5577SOL    HW322081   3.898   2.581   3.040  0.6656 -0.7417 -1.8052
 5577SOL    MW422082   3.977   2.563   3.072  0.2647  0.1575 -0.2044
 5578SOL     OW22083   1.021   6.415   4.124 -0.3554 -0.1283  0.0050
 5578SOL    HW222084   1.005   6.502   4.090  0.1147 -0.8217 -2.1611
 5578SOL    HW322085   0.980   6.356   4.060  0.7174 -1.5269  0.5403
 5578SOL    MW422086   1.013   6.418   4.111 -0.1518 -0.4044 -0.2101
 5579SOL     OW22087   2.561   6.153   5.531  0.2993  0.1084  0.3076
 5579SOL    HW222088   2.566   6.162   5.626 -1.7101  0.2731  0.4329
 5579SOL    HW322089   2.506   6.077   5.516  0.0623  0.4655 -0.7322
 5579SOL    MW422090   2.555   6.144   5.542  0.0029  0.1772  0.1869
 5580SOL     OW22091   0.891   5.849   0.976  0.3941 -0.4472  0.7383
 5580SOL    HW222092   0.910   5.931   0.930 -0.9629 -0.8500 -0.6447
 5580SOL    HW322093   0.946   5.852   1.054  1.3295  1.1875  0.0791
 5580SOL    MW422094   0.900   5.860   0.980  0.3384 -0.2847  0.4689
 5581SOL     OW22095   2.487   2.607   1.911  0.1009 -0.1088  0.0010
 5581SOL    HW222096   2.501   2.590   2.005  0.1637 -2.6866 -0.4063
 5581SOL    HW322097   2.534   2.689   1.895  3.1057 -1.3379  1.5713
 5581SOL    MW422098   2.495   2.616   1.922  0.5056 -0.6111  0.1544
 5582SOL     OW22099   1.777   5.849   4.383 -0.4252  0.3301 -0.6565
 5582SOL    HW222100   1.810   5.853   4.293 -1.0770 -0.0950 -0.9174
 5582SOL    HW322101   1.715   5.776   4.383 -0.6838  0.5436  0.0522
 5582SOL    MW422102   1.773   5.840   4.371 -0.5453  0.3021 -0.5974
 5583SOL     OW22103   4.011   5.877   2.269  0.0532 -0.6227  0.1847
 5583SOL    HW222104   4.077   5.944   2.250 -0.5729 -0.2976 -0.9915
 5583SOL    HW322105   3.962   5.911   2.343 -0.3076  0.2842 -0.4526
 5583SOL    MW422106   4.014   5.890   2.276 -0.0770 -0.4601 -0.0546
 5584SOL     OW22107   5.390   0.062   3.880  0.3828 -0.7276  0.4328
 5584SOL    HW222108   5.463   0.059   3.942 -0.2587 -0.2682  1.2210
 5584SOL    HW322109   5.337  -0.014   3.901 -1.1957  0.7670  2.1768
 5584SOL    MW422110   5.393   0.052   3.891  0.0899 -0.4698  0.7669
 5585SOL     OW22111   2.881   1.182   4.041 -0.6745 -0.5382 -0.3917
 5585SOL    HW222112   2.905   1.243   3.971 -0.6614  0.3790  0.3922
 5585SOL    HW322113   2.919   1.099   4.014  0.2808  0.0538 -0.9374
 5585SOL    MW422114   2.889   1.179   4.028 -0.5467 -0.3391 -0.3603
 5586SOL     OW22115   3.539   3.973   4.244 -0.1214  0.2760  1.1152
 5586SOL    HW222116   3.605   3.905   4.228 -0.5050 -0.1113  1.1810
 5586SOL    HW322117   3.587   4.041   4.291  0.4809  0.4483  0.2792
 5586SOL    MW422118   3.554   3.973   4.248 -0.0925  0.2476  1.0136
 5587SOL     OW22119   2.948   2.852   6.296  0.2158  0.6754  0.1648
 5587SOL    HW222120   3.011   2.815   6.357  0.2368  0.0527 -0.2341
 5587SOL    HW322121   3.001   2.898   6.231  0.2414  0.5247  0.0784
 5587SOL    MW422122   2.963   2.854   6.295  0.2219  0.5734  0.1008
 5588SOL     OW22123   0.661   3.669   1.690  0.0406 -0.6074  0.5246
 5588SOL    HW222124   0.708   3.737   1.643 -0.7928 -0.4420 -0.0990
 5588SOL    HW322125   0.729   3.613   1.728  0.8963  2.1366  3.4822
 5588SOL    MW422126   0.676   3.671   1.689  0.0436 -0.2235  0.8326
 5589SOL     OW22127   5.531   2.368   4.420 -0.1128 -0.6021  0.0392
 5589SOL    HW222128   5.473   2.292   4.408 -0.9846  0.1844 -0.8697
 5589SOL    HW322129   5.481   2.442   4.388  1.4734  0.0884 -0.9888
 5589SOL    MW422130   5.517   2.368   4.414 -0.0185 -0.4072 -0.2163
 5590SOL     OW22131   1.159   1.970   1.695 -0.2108 -0.3870  0.3408
 5590SOL    HW222132   1.176   1.878   1.716  2.1001  0.0467  0.6002
 5590SOL    HW322133   1.199   2.020   1.766  2.6573  0.9146 -1.9584
 5590SOL    MW422134   1.167   1.965   1.707  0.4725 -0.1580  0.0717
 5591SOL     OW22135   5.955   5.947   3.362 -0.1565  0.0533 -0.1554
 5591SOL    HW222136   5.874   5.908   3.327 -0.2942 -1.0663  1.2856
 5591SOL    HW322137   5.963   6.030   3.316 -1.2611 -0.5305 -1.5038
 5591SOL    MW422138   5.945   5.953   3.351 -0.3204 -0.1714 -0.1432
 5592SOL     OW22139   2.540   1.584   5.362 -0.0991  0.6747 -0.0714
 5592SOL    HW222140   2.463   1.611   5.413  0.7191  1.0171  1.0201
 5592SOL    HW322141   2.604   1.653   5.378  0.5680  0.2046 -0.6681
 5592SOL    MW422142   2.538   1.597   5.371  0.0969  0.6578 -0.0061
 5593SOL     OW22143   1.911   5.811   4.781 -0.0989  0.2665  0.6210
 5593SOL    HW222144   1.985   5.869   4.802 -0.0502  0.5842 -0.3535
 5593SOL    HW322145   1.846   5.829   4.848 -0.8915  2.9442 -0.7224
 5593SOL    MW422146   1.913   5.821   4.793 -0.1970  0.6617  0.3152
 5594SOL     OW22147   0.873   1.371   4.297  1.2119 -0.1517 -0.7225
 5594SOL    HW222148   0.837   1.419   4.223 -0.3622 -0.8022 -0.4118
 5594SOL    HW322149   0.890   1.283   4.262  1.5821 -0.1313 -0.6015
 5594SOL    MW422150   0.871   1.366   4.283  1.0531 -0.2348 -0.6656
 5595SOL     OW22151   2.542   1.701   1.859  0.3887  0.3428  0.0424
 5595SOL    HW222152   2.484   1.690   1.934  0.5116  2.5525  0.5216
 5595SOL    HW322153   2.616   1.751   1.893  0.5097  1.2749 -1.5066
 5595SOL    MW422154   2.544   1.706   1.873  0.4209  0.7573 -0.0987
 5596SOL     OW22155   0.241   4.778   0.175 -0.1537 -0.2106  0.3244
 5596SOL    HW222156   0.316   4.828   0.207  0.0341 -0.1688 -0.1831
 5596SOL    HW322157   0.165   4.826   0.208  0.0064  0.9408 -0.9287
 5596SOL    MW422158   0.241   4.791   0.184 -0.1078 -0.0532  0.0921
 5597SOL     OW22159   1.948   1.006   3.050  0.1040  0.0928 -0.3426
 5597SOL    HW222160   2.014   0.965   2.994  0.0985 -1.1713  0.5347
 5597SOL    HW322161   1.864   0.975   3.014  0.1078 -0.9919  0.5142
 5597SOL    MW422162   1.945   0.996   3.038  0.1038 -0.2171 -0.1138
 5598SOL     OW22163   1.800   2.486   6.293  0.1440  0.2376 -0.0054
 5598SOL    HW222164   1.842   2.407   6.259 -0.2863 -0.0898  0.1971
 5598SOL    HW322165   1.843   2.558   6.248  0.6216 -0.1083 -0.1128
 5598SOL    MW422166   1.811   2.485   6.283  0.1502  0.1488  0.0072
 5599SOL     OW22167   1.785   0.485   1.821 -0.1192 -0.1138  0.6742
 5599SOL    HW222168   1.758   0.575   1.835  1.2060  0.4731 -0.3117
 5599SOL    HW322169   1.833   0.461   1.900 -0.1966  0.1460  0.7992
 5599SOL    MW422170   1.788   0.494   1.833  0.0454 -0.0021  0.5606
 5600SOL     OW22171   3.306   2.347   3.058 -0.1481  0.3877  0.4904
 5600SOL    HW222172   3.392   2.306   3.067  0.5899  1.9634  1.1080
 5600SOL    HW322173   3.321   2.418   2.995 -0.6307  1.5509  1.6455
 5600SOL    MW422174   3.320   2.351   3.051 -0.1144  0.7490  0.7243
 5601SOL     OW22175   3.759   1.109   5.278  0.2158 -0.5380  0.5124
 5601SOL    HW222176   3.681   1.121   5.224  1.7803  0.5807 -1.6491
 5601SOL    HW322177   3.739   1.032   5.332 -2.8098  0.4376  0.9708
 5601SOL    MW422178   3.746   1.100   5.278  0.0230 -0.2617  0.2877
 5602SOL     OW22179   0.411   0.662   0.584 -0.5641 -0.0750 -0.2292
 5602SOL    HW222180   0.406   0.751   0.619 -0.5742 -0.6391  1.2571
 5602SOL    HW322181   0.407   0.674   0.489 -1.3998  1.4590 -0.0378
 5602SOL    MW422182   0.410   0.675   0.576 -0.6757  0.0530 -0.0078
 5603SOL     OW22183   1.278   0.877   4.978 -0.2923  0.1638 -0.1181
 5603SOL    HW222184   1.341   0.887   5.050 -0.7643 -0.0299  0.3232
 5603SOL    HW322185   1.227   0.958   4.979  0.1757  0.4813 -0.7114
 5603SOL    MW422186   1.280   0.889   4.988 -0.2928  0.1802 -0.1382
 5604SOL     OW22187   0.992   2.013   5.030  0.1761  0.6151  0.1369
 5604SOL    HW222188   1.018   2.015   4.937  2.4486 -1.5787  0.5878
 5604SOL    HW322189   0.945   1.930   5.039 -0.3128  0.9691  0.8963
 5604SOL    MW422190   0.989   2.002   5.019  0.4114  0.3724  0.2966
 5605SOL     OW22191   5.091   2.898   2.215 -0.5506 -0.1296 -0.0656
 5605SOL    HW222192   5.027   2.967   2.231  1.2664  1.3901  1.2111
 5605SOL    HW322193   5.081   2.839   2.291  0.2573  0.7171  0.7268
 5605SOL    MW422194   5.081   2.899   2.227 -0.2043  0.1826  0.2074
 5606SOL     OW22195   2.974   6.221   0.422  0.2612 -0.3805  0.5122
 5606SOL    HW222196   3.029   6.268   0.485 -0.9745 -0.8214  1.9650
 5606SOL    HW322197   2.984   6.271   0.341 -0.6919  2.2354  1.8752
 5606SOL    MW422198   2.982   6.234   0.419 -0.0276 -0.0935  0.8837
 5607SOL     OW22199   6.100   1.367   5.455  0.2516 -0.2922 -1.1062
 5607SOL    HW222200   6.051   1.439   5.416  0.7934  1.4234  1.1895
 5607SOL    HW322201   6.032   1.304   5.481 -1.0582  2.2524  2.4812
 5607SOL    MW422202   6.084   1.368   5.453  0.1503  0.2699 -0.3300
 5608SOL     OW22203   4.091   2.406   5.608 -0.3306 -0.1775  0.5472
 5608SOL    HW222204   3.996   2.413   5.596 -0.5710  1.8376  2.7477
 5608SOL    HW322205   4.124   2.371   5.525 -2.7315  1.4117 -1.1993
 5608SOL    MW422206   4.083   2.402   5.596 -0.6791  0.2981  0.6071
 5609SOL     OW22207   4.299   0.536   2.372  0.6093  0.4410 -0.1758
 5609SOL    HW222208   4.352   0.482   2.313  1.2895  0.3788  0.4812
 5609SOL    HW322209   4.309   0.496   2.458 -0.7646  0.2504 -0.0774
 5609SOL    MW422210   4.307   0.524   2.375  0.5178  0.4076 -0.0762
 5610SOL     OW22211   2.067   0.626   2.872  0.0353  0.5153  0.5840
 5610SOL    HW222212   2.071   0.565   2.946  1.6606 -0.5977 -0.3556
 5610SOL    HW322213   2.106   0.707   2.906  2.4278 -0.5159  0.5510
 5610SOL    MW422214   2.073   0.628   2.887  0.5654  0.2324  0.4557
 5611SOL     OW22215   4.117   2.155   4.237  0.5332  0.2113 -0.4534
 5611SOL    HW222216   4.168   2.097   4.180 -0.7240 -1.5151  0.0891
 5611SOL    HW322217   4.056   2.096   4.281  1.3179  1.4955  2.5668
 5611SOL    MW422218   4.116   2.139   4.235  0.4709  0.1530  0.0167
 5612SOL     OW22219   2.953   4.484   0.873 -0.0204  0.1317  0.0623
 5612SOL    HW222220   2.909   4.428   0.937 -1.3949 -0.0745 -1.0195
 5612SOL    HW322221   2.885   4.544   0.842  0.5703  0.1291 -1.3097
 5612SOL    MW422222   2.938   4.485   0.877 -0.1238  0.1042 -0.2615
 5613SOL     OW22223   5.285   1.156   5.468 -0.1980 -0.0094  0.0739
 5613SOL    HW222224   5.223   1.222   5.500  1.2403  1.4138  0.0489
 5613SOL    HW322225   5.274   1.158   5.373 -1.7247 -1.4474  0.1857
 5613SOL    MW422226   5.275   1.165   5.460 -0.2097 -0.0114  0.0853
 5614SOL     OW22227   5.628   5.681   2.418 -0.6564 -0.2266 -0.0099
 5614SOL    HW222228   5.540   5.656   2.444  0.0656 -1.2131  1.6165
 5614SOL    HW322229   5.674   5.698   2.500 -0.0340  2.9491 -0.8716
 5614SOL    MW422230   5.622   5.680   2.432 -0.4790  0.0623  0.0910
 5615SOL     OW22231   5.758   0.489   4.106 -0.0040 -0.1099  0.0057
 5615SOL    HW222232   5.676   0.453   4.139  0.8009 -1.3117  0.7975
 5615SOL    HW322233   5.780   0.559   4.167  0.0693 -0.4727  0.4033
 5615SOL    MW422234   5.750   0.493   4.118  0.1119 -0.3163  0.1626
 5616SOL     OW22235   2.332   5.351   0.021 -0.3241  0.4735  0.0043
 5616SOL    HW222236   2.301   5.275  -0.029 -0.9294  0.3494  0.5455
 5616SOL    HW322237   2.357   5.314   0.106  0.2169  0.7558 -0.0279
 5616SOL    MW422238   2.331   5.336   0.026 -0.3326  0.4944  0.0714
 5617SOL     OW22239   2.062   6.121   4.107  0.2702  0.3687 -0.2418
 5617SOL    HW222240   2.156   6.140   4.115  0.3706  0.8904 -2.1071
 5617SOL    HW322241   2.019   6.197   4.145  0.5299 -0.7183  2.4059
 5617SOL    MW422242   2.069   6.133   4.113  0.3177  0.2941 -0.1386
 5618SOL     OW22243   6.023   0.224   5.535 -0.0514 -0.1768 -0.1674
 5618SOL    HW222244   6.100   0.181   5.571  0.2038 -0.2539 -0.7984
 5618SOL    HW322245   6.002   0.173   5.457  0.7829  1.3581 -1.4370
 5618SOL    MW422246   6.030   0.211   5.529  0.0924  0.0155 -0.4182
 5619SOL     OW22247   6.320   4.353   1.359 -0.1539 -0.6519 -0.8533
 5619SOL    HW222248   6.252   4.415   1.386  0.3201 -0.6981  0.5100
 5619SOL    HW322249   6.290   4.321   1.274 -1.3001  0.1187 -0.7666
 5619SOL    MW422250   6.307   4.357   1.351 -0.2426 -0.5564 -0.6620
 5620SOL     OW22251   3.600   3.786   4.926 -0.4275 -0.4872  0.1836
 5620SOL    HW222252   3.632   3.875   4.944  2.2011 -1.1494 -0.7476
 5620SOL    HW322253   3.673   3.729   4.952 -2.1183 -2.4259  0.9354
 5620SOL    MW422254   3.614   3.790   4.932 -0.3038 -0.8303  0.1599
 5621SOL     OW22255   3.060   3.030   2.285  0.2651 -0.5629  0.0183
 5621SOL    HW222256   3.064   3.083   2.365  2.5931  0.0196 -0.4133
 5621SOL    HW322257   2.987   2.970   2.300 -0.2397  0.4480  1.9852
 5621SOL    MW422258   3.050   3.029   2.298  0.5056 -0.3527  0.2209
 5622SOL     OW22259   3.061   4.557   4.909  0.6163  0.3074 -0.3610
 5622SOL    HW222260   3.012   4.635   4.884  0.0026 -0.1219 -0.5179
 5622SOL    HW322261   3.072   4.508   4.827 -3.3271 -2.2116  0.3595
 5622SOL    MW422262   3.056   4.561   4.895  0.0151 -0.0816 -0.2867
 5623SOL     OW22263   4.859   2.370   2.160 -0.7583 -0.3510  0.5847
 5623SOL    HW222264   4.946   2.406   2.140 -1.6327  0.7831 -1.4463
 5623SOL    HW322265   4.868   2.276   2.144 -0.0976 -0.1399 -0.3709
 5623SOL    MW422266   4.872   2.362   2.155 -0.7865 -0.1736  0.1907
 5624SOL     OW22267   0.905   5.675   3.108 -0.1087 -0.1894 -1.0664
 5624SOL    HW222268   0.994   5.701   3.130 -0.1202 -0.9383 -0.0740
 5624SOL    HW322269   0.909   5.658   3.013  1.1923 -1.6448 -0.7991
 5624SOL    MW422270   0.917   5.676   3.098  0.0614 -0.4803 -0.9002
 5625SOL     OW22271   4.108   1.607   0.627  0.1125  0.2695 -0.2156
 5625SOL    HW222272   4.121   1.518   0.660 -3.0161 -0.2709 -0.2084
 5625SOL    HW322273   4.151   1.663   0.692  0.4598 -1.1242  0.8093
 5625SOL    MW422274   4.116   1.603   0.640 -0.2545  0.0143 -0.0795
 5626SOL     OW22275   2.947   1.583   0.170  0.4891  0.0974  0.5827
 5626SOL    HW222276   2.915   1.560   0.257  0.4791 -0.5084  0.4205
 5626SOL    HW322277   2.947   1.679   0.169  0.6845  0.1078  1.3170
 5626SOL    MW422278   2.943   1.593   0.181  0.5135  0.0189  0.6582
 5627SOL     OW22279   1.981   1.311   1.881 -0.5097 -0.4852  0.2123
 5627SOL    HW222280   1.950   1.224   1.855 -1.6616 -0.3172  0.9395
 5627SOL    HW322281   1.909   1.347   1.935  0.0817  0.7814  0.1902
 5627SOL    MW422282   1.967   1.304   1.885 -0.5837 -0.2959  0.3054
 5628SOL     OW22283   3.834   4.107   3.821  0.3453 -0.5615 -0.2573
 5628SOL    HW222284   3.747   4.103   3.861  0.7086  1.0283  0.8284
 5628SOL    HW322285   3.827   4.055   3.741 -0.8045 -2.7884  1.2001
 5628SOL    MW422286   3.822   4.100   3.816  0.2415 -0.6456  0.0783
 5629SOL     OW22287   1.664   5.194   3.876 -0.0863 -0.2296 -0.1104
 5629SOL    HW222288   1.617   5.118   3.909  0.4089 -0.0990  0.9323
 5629SOL    HW322289   1.638   5.200   3.784  0.4571 -2.1242 -0.4437
 5629SOL    MW422290   1.655   5.185   3.868  0.0508 -0.4624 -0.0168
 5630SOL     OW22291   0.282   3.635   1.414 -0.7115 -0.2496 -0.0851
 5630SOL    HW222292   0.309   3.705   1.355 -2.8163  0.7691  0.0753
 5630SOL    HW322293   0.321   3.556   1.377 -0.2184  0.6657 -1.6071
 5630SOL    MW422294   0.291   3.634   1.402 -0.9242  0.0056 -0.2647
 5631SOL     OW22295   2.547   4.983   5.843  0.2505  0.2869  0.2942
 5631SOL    HW222296   2.523   4.977   5.936  1.0661 -0.2059  0.4807
 5631SOL    HW322297   2.467   5.014   5.800 -0.1718  0.4119  1.1414
 5631SOL    MW422298   2.533   4.987   5.850  0.3024  0.2383  0.4306
 5632SOL     OW22299   5.740   4.007   3.783  0.3170 -0.2384 -0.2381
 5632SOL    HW222300   5.675   4.033   3.848  0.6837 -0.8945  0.4013
 5632SOL    HW322301   5.689   3.979   3.707 -0.1225  0.1040 -0.0697
 5632SOL    MW422302   5.725   4.007   3.781  0.3074 -0.2798 -0.1315
 5633SOL     OW22303   2.020   4.706   3.475  0.0814 -0.1479  0.9446
 5633SOL    HW222304   2.093   4.661   3.433  0.9235  1.2125  0.9026
 5633SOL    HW322305   2.058   4.748   3.552 -0.5347  1.0060  0.6420
 5633SOL    MW422306   2.035   4.706   3.479  0.1112  0.1839  0.8991
 5634SOL     OW22307   2.441   5.930   1.683  0.0829  0.1782  0.0337
 5634SOL    HW222308   2.457   6.023   1.701  1.1136 -0.6935  5.0997
 5634SOL    HW322309   2.525   5.888   1.696 -0.5104 -1.5999 -1.4702
 5634SOL    MW422310   2.454   5.937   1.687  0.1406 -0.1714  0.5037
 5635SOL     OW22311   3.500   5.759   4.622 -0.2094  0.1952  0.0405
 5635SOL    HW222312   3.586   5.735   4.588 -0.3216  1.4308 -1.1725
 5635SOL    HW322313   3.511   5.756   4.717  1.2653  0.6538 -0.0898
 5635SOL    MW422314   3.513   5.755   4.630 -0.0297  0.4187 -0.1368
 5636SOL     OW22315   1.371   5.208   4.828 -0.1321 -0.1014  0.1478
 5636SOL    HW222316   1.372   5.125   4.874 -0.2955  0.0342  0.4017
 5636SOL    HW322317   1.292   5.205   4.774  0.0491 -0.2533 -0.1056
 5636SOL    MW422318   1.360   5.197   4.827 -0.1297 -0.1036  0.1479
 5637SOL     OW22319   2.956   3.920   6.094 -0.2992  0.2700  0.5358
 5637SOL    HW222320   3.019   3.919   6.166  0.2916  1.2501  0.0601
 5637SOL    HW322321   2.972   4.003   6.049 -0.1618 -0.6145 -1.1462
 5637SOL    MW422322   2.967   3.931   6.098 -0.2031  0.2826  0.2511
 5638SOL     OW22323   3.423   4.051   1.574  0.1611  0.2257 -0.2274
 5638SOL    HW222324   3.474   4.003   1.508  0.3683 -0.4955  0.4408
 5638SOL    HW322325   3.461   4.139   1.574  1.6910 -0.4025  0.5288
 5638SOL    MW422326   3.435   4.056   1.565  0.3903  0.0477 -0.0395
 5639SOL     OW22327   4.704   4.719   2.152  0.1928  0.7151  0.0697
 5639SOL    HW222328   4.621   4.730   2.198  0.1974 -0.5578  0.4130
 5639SOL    HW322329   4.712   4.798   2.098 -1.1557  0.9316  0.1509
 5639SOL    MW422330   4.694   4.731   2.151  0.0155  0.5757  0.1257
 5640SOL     OW22331   1.248   5.407   3.913  0.0761  0.6967  0.0391
 5640SOL    HW222332   1.161   5.424   3.949 -1.0506 -0.2611 -2.0504
 5640SOL    HW322333   1.245   5.315   3.885  0.6625  1.4504 -2.8306
 5640SOL    MW422334   1.236   5.397   3.914  0.0048  0.6698 -0.6152
 5641SOL     OW22335   5.203   1.459   4.140 -0.1433  0.0061  0.4839
 5641SOL    HW222336   5.162   1.424   4.061 -0.3983  2.2035 -0.4167
 5641SOL    HW322337   5.238   1.381   4.185 -1.5541 -1.4821 -0.8527
 5641SOL    MW422338   5.202   1.444   4.136 -0.3631  0.0997  0.1887
 5642SOL     OW22339   1.999   4.609   1.519 -0.0050  0.1578  0.4600
 5642SOL    HW222340   1.951   4.566   1.589 -0.7694  1.6781  0.9194
 5642SOL    HW322341   1.983   4.703   1.533  0.2337  0.5233 -1.4334
 5642SOL    MW422342   1.990   4.616   1.530 -0.0743  0.4066  0.2708
 5643SOL     OW22343   3.176   0.510   4.028  0.1006 -0.7252 -0.0495
 5643SOL    HW222344   3.219   0.526   4.112 -0.4534 -0.7036  0.2356
 5643SOL    HW322345   3.099   0.458   4.050  0.1370 -1.0124 -0.5873
 5643SOL    MW422346   3.172   0.505   4.042  0.0323 -0.7602 -0.0828
 5644SOL     OW22347   1.295   4.087   4.652  0.1161  0.0727 -0.8369
 5644SOL    HW222348   1.382   4.125   4.643  0.2384 -0.4974 -2.3335
 5644SOL    HW322349   1.307   4.012   4.710  0.4522  0.4989 -0.3498
 5644SOL    MW422350   1.308   4.083   4.659  0.1766  0.0537 -0.9701
 5645SOL     OW22351   2.798   1.007   3.499 -0.7942  0.4544  0.5747
 5645SOL    HW222352   2.768   1.026   3.587  0.7380 -1.0100  1.4665
 5645SOL    HW322353   2.805   0.911   3.496 -0.0319  0.5275 -0.8509
 5645SOL    MW422354   2.794   0.997   3.510 -0.4915  0.2709  0.5042
 5646SOL     OW22355   3.709   5.346   0.331 -0.3367  0.4576 -0.2887
 5646SOL    HW222356   3.754   5.287   0.391 -0.3742  1.1842  0.4699
 5646SOL    HW322357   3.618   5.345   0.359 -0.4514  0.4335 -0.6483
 5646SOL    MW422358   3.703   5.338   0.342 -0.3568  0.5503 -0.2360
 5647SOL     OW22359   5.098   0.725   1.365 -0.0005 -0.4323  0.7649
 5647SOL    HW222360   5.146   0.802   1.335  0.3756 -0.0736  2.2029
 5647SOL    HW322361   5.072   0.680   1.285  1.1736  0.3227 -0.0695
 5647SOL    MW422362   5.101   0.730   1.351  0.2040 -0.2853  0.8445
 5648SOL     OW22363   6.049   3.644   6.116  0.0492  0.4101  0.4625
 5648SOL    HW222364   6.002   3.601   6.188  1.0507  2.8212  2.7017
 5648SOL    HW322365   6.080   3.571   6.062  1.0946 -1.7884  3.6594
 5648SOL    MW422366   6.047   3.628   6.119  0.3192  0.4382  1.1797
 5649SOL     OW22367   3.022   0.364   5.346  0.3263  0.0340 -0.0324
 5649SOL    HW222368   2.966   0.429   5.303  0.6430  0.0880 -0.3692
 5649SOL    HW322369   3.065   0.413   5.416 -1.0826 -0.3274  1.1274
 5649SOL    MW422370   3.020   0.379   5.350  0.1822 -0.0066  0.0762
 5650SOL     OW22371   1.192   1.206   2.606 -0.1741 -0.2094 -0.3190
 5650SOL    HW222372   1.107   1.167   2.586 -0.7609  0.9852 -0.2223
 5650SOL    HW322373   1.199   1.281   2.546  2.2448 -2.0960 -2.6512
 5650SOL    MW422374   1.181   1.211   2.595  0.0676 -0.3007 -0.6139
 5651SOL     OW22375   1.563   1.191   2.864  0.1449  0.1626 -0.6029
 5651SOL    HW222376   1.496   1.169   2.799  0.0246 -0.1229 -0.3883
 5651SOL    HW322377   1.629   1.122   2.854  0.0342  0.0090 -0.2979
 5651SOL    MW422378   1.563   1.179   2.854  0.1144  0.1046 -0.5344
 5652SOL     OW22379   5.393   0.839   0.465  0.1689  0.3283  0.2214
 5652SOL    HW222380   5.412   0.932   0.456 -0.0786  0.4269  0.6939
 5652SOL    HW322381   5.312   0.826   0.414  0.1180  0.4044  0.2818
 5652SOL    MW422382   5.384   0.849   0.457  0.1295  0.3513  0.2918
 5653SOL     OW22383   5.059   0.090   5.006  0.5561  0.4069  0.2035
 5653SOL    HW222384   4.982   0.064   5.058 -0.5711  0.3404 -1.4261
 5653SOL    HW322385   5.023   0.147   4.938  1.9880  0.4726 -0.5125
 5653SOL    MW422386   5.044   0.094   5.004  0.5963  0.4068 -0.1060
 5654SOL     OW22387   2.285   0.826   2.414  0.3106 -0.4683  0.1426
 5654SOL    HW222388   2.200   0.800   2.378  0.2810  2.5199 -2.3499
 5654SOL    HW322389   2.349   0.784   2.357  0.6669 -2.9672  2.2016
 5654SOL    MW422390   2.282   0.817   2.402  0.3537 -0.4038  0.0854
 5655SOL     OW22391   0.849   4.934   3.630  0.0253  0.5512 -0.5015
 5655SOL    HW222392   0.858   5.027   3.650  1.2993  0.0290  1.6763
 5655SOL    HW322393   0.929   4.912   3.583  0.3130  0.2971  0.1053
 5655SOL    MW422394   0.861   4.943   3.626  0.2313  0.4488 -0.1341
 5656SOL     OW22395   6.198   6.043   1.773 -0.0162  0.1451  0.1383
 5656SOL    HW222396   6.108   6.053   1.804 -0.5800  0.5880 -1.5624
 5656SOL    HW322397   6.224   5.956   1.802 -0.1540  0.8360  2.6061
 5656SOL    MW422398   6.190   6.033   1.781 -0.1088  0.2947  0.2395
 5657SOL     OW22399   4.739   5.055   4.050  0.3378  0.6271  0.1414
 5657SOL    HW222400   4.674   5.018   3.991 -0.6240  2.0087  0.3039
 5657SOL    HW322401   4.784   5.121   3.998 -0.4159  1.7536  0.8875
 5657SOL    MW422402   4.737   5.059   4.035  0.1114  0.9580  0.2613
 5658SOL     OW22403   6.296   1.550   4.365  0.1950  0.1486  0.1849
 5658SOL    HW222404   6.295   1.467   4.318  2.5583  0.2946 -0.2221
 5658SOL    HW322405   6.264   1.528   4.453 -1.5199 -0.6685 -0.5988
 5658SOL    MW422406   6.291   1.536   4.371  0.2806  0.0601  0.0278
 5659SOL     OW22407   0.487   3.748   3.717  0.1059 -0.5900  0.4397
 5659SOL    HW222408   0.418   3.757   3.782  1.0231  1.4923  1.2001
 5659SOL    HW322409   0.541   3.675   3.749  1.1839  1.0977  2.7175
 5659SOL    MW422410   0.485   3.739   3.729  0.3691 -0.0926  0.8405
 5660SOL     OW22411   3.801   4.545   1.002 -0.0719 -0.2983 -0.1796
 5660SOL    HW222412   3.797   4.460   1.047 -0.6899  0.1013  0.5372
 5660SOL    HW322413   3.884   4.543   0.955 -0.8030 -1.9450 -1.4865
 5660SOL    MW422414   3.812   4.533   1.002 -0.2499 -0.4629 -0.2575
 5661SOL     OW22415   5.707   2.257   3.877 -0.2011  0.3147  0.7785
 5661SOL    HW222416   5.711   2.339   3.927 -2.1029 -0.3458  2.1373
 5661SOL    HW322417   5.646   2.275   3.806  2.3879  1.2047 -1.4264
 5661SOL    MW422418   5.700   2.270   3.874 -0.1105  0.3450  0.6669
 5662SOL     OW22419   5.901   3.913   0.988 -0.0948  0.2692 -0.2835
 5662SOL    HW222420   5.932   3.891   0.901  1.1834  0.7346  0.0408
 5662SOL    HW322421   5.976   3.951   1.033 -0.4506 -0.7870  1.3358
 5662SOL    MW422422   5.915   3.915   0.983  0.0269  0.1912 -0.0271
 5663SOL     OW22423   2.024   0.664   0.889 -0.3790  0.3910  0.0952
 5663SOL    HW222424   2.007   0.678   0.796 -0.7541 -1.1143 -0.0817
 5663SOL    HW322425   1.939   0.678   0.931 -0.0803  1.7212  0.3318
 5663SOL    MW422426   2.010   0.668   0.882 -0.3891  0.3679  0.1030
 5664SOL     OW22427   1.793   5.369   1.298  0.4781 -0.6072  0.2718
 5664SOL    HW222428   1.869   5.416   1.266  0.3392 -0.8259 -0.3948
 5664SOL    HW322429   1.726   5.436   1.310  0.3228 -0.6080 -0.5440
 5664SOL    MW422430   1.794   5.384   1.296  0.4393 -0.6362  0.0763
 5665SOL     OW22431   4.032   3.596   2.377 -0.3953 -0.0619  0.3753
 5665SOL    HW222432   4.002   3.675   2.334 -1.3876 -0.4238  0.3601
 5665SOL    HW322433   4.041   3.532   2.307 -0.1732 -0.1271  0.4618
 5665SOL    MW422434   4.029   3.598   2.362 -0.4969 -0.1182  0.3847
 5666SOL     OW22435   5.339   1.366   0.553  0.0260 -0.4908 -0.1284
 5666SOL    HW222436   5.303   1.411   0.629 -2.0253 -2.4656  0.1924
 5666SOL    HW322437   5.428   1.343   0.578  0.9000  2.5475 -0.0376
 5666SOL    MW422438   5.346   1.369   0.566 -0.1293 -0.3505 -0.0741
 5667SOL     OW22439   5.729   2.525   0.640  0.7698 -0.4120  0.2984
 5667SOL    HW222440   5.790   2.569   0.699  1.9080  0.1743 -1.2445
 5667SOL    HW322441   5.698   2.594   0.581 -0.3858 -0.9651  0.2198
 5667SOL    MW422442   5.733   2.540   0.640  0.7675 -0.4077  0.0845
 5668SOL     OW22443   4.230   3.567   3.875 -0.0508 -0.0755  0.1386
 5668SOL    HW222444   4.308   3.594   3.827  0.5944 -1.0759  0.6003
 5668SOL    HW322445   4.163   3.629   3.847  0.0924 -1.0074 -2.6298
 5668SOL    MW422446   4.231   3.579   3.865  0.0532 -0.3305 -0.1658
 5669SOL     OW22447   3.370   1.775   0.952  0.0558  0.3409 -0.6770
 5669SOL    HW222448   3.466   1.769   0.953  0.0565  0.2420 -1.2420
 5669SOL    HW322449   3.348   1.808   1.039  0.6213  0.6527 -0.6457
 5669SOL    MW422450   3.380   1.778   0.964  0.1305  0.3690 -0.7474
 5670SOL     OW22451   2.214   5.038   1.917 -0.2968  0.4998  0.2517
 5670SOL    HW222452   2.133   5.008   1.958 -0.2503  0.5439  0.3772
 5670SOL    HW322453   2.236   4.970   1.854 -0.8739  0.8823 -0.3733
 5670SOL    MW422454   2.207   5.025   1.914 -0.3668  0.5561  0.1858
 5671SOL     OW22455   0.251   6.365   2.944  0.5177  0.3662  0.0931
 5671SOL    HW222456   0.285   6.453   2.958  0.8643  0.4483 -1.1909
 5671SOL    HW322457   0.185   6.375   2.876  2.1760 -0.6775 -1.7614
 5671SOL    MW422458   0.247   6.378   2.937  0.7822  0.2393 -0.3210
 5672SOL     OW22459   5.124   2.547   5.431 -0.4265  0.0352 -0.2464
 5672SOL    HW222460   5.219   2.554   5.417 -0.1136  0.4698  1.7021
 5672SOL    HW322461   5.096   2.479   5.371  1.6400 -2.1125  1.0422
 5672SOL    MW422462   5.133   2.539   5.422 -0.1126 -0.1908  0.1807
 5673SOL     OW22463   3.820   3.954   3.590 -0.1995  0.2027 -0.1079
 5673SOL    HW222464   3.726   3.946   3.574 -0.0504  0.1830 -1.0094
 5673SOL    HW322465   3.856   3.868   3.568  0.1510  0.4854 -0.6700
 5673SOL    MW422466   3.813   3.941   3.585 -0.1336  0.2374 -0.3010
 5674SOL     OW22467   5.813   4.606   4.001  0.5697 -0.3746  0.2541
 5674SOL    HW222468   5.758   4.529   4.013  1.3896 -1.1531 -0.8232
 5674SOL    HW322469   5.889   4.590   4.058  0.3754  0.0073  0.6229
 5674SOL    MW422470   5.816   4.594   4.010  0.6522 -0.4269  0.1606
 5675SOL     OW22471   2.800   4.459   0.118  0.6069 -0.5248 -0.1700
 5675SOL    HW222472   2.824   4.368   0.099 -1.0736 -1.8118  3.1455
 5675SOL    HW322473   2.864   4.487   0.184  0.8699  0.5919 -0.8785
 5675SOL    MW422474   2.812   4.450   0.124  0.4199 -0.5473  0.1740
 5676SOL     OW22475   5.572   4.522   5.558 -0.1127  0.6597 -0.3457
 5676SOL    HW222476   5.515   4.447   5.575  1.9062 -0.8542  0.1899
 5676SOL    HW322477   5.531   4.595   5.603 -1.1332 -0.5855  0.8030
 5676SOL    MW422478   5.559   4.522   5.566  0.0190  0.2957 -0.1235
 5677SOL     OW22479   4.634   3.937   1.546 -0.0109  0.3625 -0.2143
 5677SOL    HW222480   4.684   3.889   1.481  0.8625  1.3013 -0.2598
 5677SOL    HW322481   4.681   3.924   1.628  0.4384  1.3822 -0.2870
 5677SOL    MW422482   4.647   3.929   1.548  0.1636  0.6209 -0.2299
 5678SOL     OW22483   3.371   4.844   5.406  0.1900 -0.5093  0.1003
 5678SOL    HW222484   3.378   4.927   5.453 -0.0639 -0.4561  0.0420
 5678SOL    HW322485   3.376   4.777   5.475  0.8673 -0.4648  0.1055
 5678SOL    MW422486   3.373   4.846   5.421  0.2459 -0.4964  0.0933
 5679SOL     OW22487   1.723   0.381   2.435 -0.0151  0.5080 -0.0196
 5679SOL    HW222488   1.648   0.322   2.423 -0.5016  1.0190  0.4275
 5679SOL    HW322489   1.787   0.329   2.484  0.5360 -0.4176 -1.6457
 5679SOL    MW422490   1.721   0.366   2.440 -0.0066  0.4533 -0.1752
 5680SOL     OW22491   2.730   0.946   4.341 -0.3387 -0.5174  0.1894
 5680SOL    HW222492   2.681   0.963   4.421  0.1216  0.8808  0.2114
 5680SOL    HW322493   2.688   0.870   4.302 -0.6321 -1.1671  1.6996
 5680SOL    MW422494   2.718   0.938   4.347 -0.3167 -0.4187  0.3915
 5681SOL     OW22495   2.751   3.214   5.922  0.5598  0.0431 -0.4551
 5681SOL    HW222496   2.696   3.292   5.930  2.3511  1.1596  3.7935
 5681SOL    HW322497   2.841   3.248   5.916  1.2451 -1.6985 -0.7616
 5681SOL    MW422498   2.756   3.229   5.923  0.8866 -0.0393  0.0650
 5682SOL     OW22499   3.955   3.197   1.428 -0.1721 -0.0968  0.0669
 5682SOL    HW222500   4.050   3.185   1.422  0.0020  0.2494  1.6300
 5682SOL    HW322501   3.921   3.156   1.349  1.2273 -0.8301 -0.1976
 5682SOL    MW422502   3.963   3.190   1.417  0.0355 -0.1479  0.2383
 5683SOL     OW22503   3.763   6.109   5.070 -0.7479  0.2099 -0.0083
 5683SOL    HW222504   3.672   6.110   5.039 -1.4454 -1.5369  1.7567
 5683SOL    HW322505   3.801   6.031   5.030 -0.3151  0.4025  0.0280
 5683SOL    MW422506   3.756   6.099   5.061 -0.7828  0.0048  0.2294
 5684SOL     OW22507   3.560   4.600   4.580  0.6740  0.1764 -0.6400
 5684SOL    HW222508   3.577   4.510   4.609  1.1296 -0.0593 -1.6007
 5684SOL    HW322509   3.639   4.625   4.533  1.8186  2.1612  2.0882
 5684SOL    MW422510   3.573   4.591   4.578  0.8851  0.4072 -0.4068
 5685SOL     OW22511   3.972   4.464   2.465  0.0096 -0.7277 -0.4829
 5685SOL    HW222512   4.029   4.408   2.516  0.4708 -0.6214 -0.8789
 5685SOL    HW322513   3.904   4.405   2.432 -0.5220 -0.7298  0.5631
 5685SOL    MW422514   3.970   4.449   2.467  0.0003 -0.7140 -0.3971
 5686SOL     OW22515   4.137   2.097   4.615 -0.4555  0.0497  0.2494
 5686SOL    HW222516   4.097   2.088   4.701 -1.1889  1.0744  0.0382
 5686SOL    HW322517   4.098   2.177   4.579  1.2996  0.7267 -0.2333
 5686SOL    MW422518   4.127   2.107   4.621 -0.3207  0.2742  0.1579
 5687SOL     OW22519   4.877   6.116   1.234  0.3122  0.9448 -0.6061
 5687SOL    HW222520   4.955   6.153   1.192  1.6044 -2.0430 -1.0675
 5687SOL    HW322521   4.907   6.036   1.277 -2.1758  0.6477  0.8051
 5687SOL    MW422522   4.891   6.110   1.234  0.1544  0.5114 -0.4808
 5688SOL     OW22523   2.286   6.317   3.476 -0.2678 -0.4447 -0.0961
 5688SOL    HW222524   2.326   6.237   3.443 -2.1267 -1.9003  0.9444
 5688SOL    HW322525   2.275   6.300   3.570 -1.2355  0.7751  0.0316
 5688SOL    MW422526   2.290   6.304   3.484 -0.6407 -0.4758  0.0580
 5689SOL     OW22527   1.759   5.254   1.041  0.0560 -0.2830  0.6109
 5689SOL    HW222528   1.824   5.202   0.993 -1.3271  0.6287 -2.5620
 5689SOL    HW322529   1.809   5.296   1.111  2.0337 -2.5522  0.6914
 5689SOL    MW422530   1.775   5.253   1.044  0.1344 -0.4621  0.2029
 5690SOL     OW22531   2.963   0.520   6.079 -0.5492 -0.1239 -0.3739
 5690SOL    HW222532   3.052   0.534   6.048 -0.2399  1.9788  1.2057
 5690SOL    HW322533   2.928   0.451   6.023  2.5929 -2.2532  0.0575
 5690SOL    MW422534   2.970   0.513   6.068 -0.0938 -0.1274 -0.1086
 5691SOL     OW22535   4.627   3.079   4.170 -0.0923  0.0175  0.1208
 5691SOL    HW222536   4.591   3.152   4.120  0.0128  0.6234  0.9079
 5691SOL    HW322537   4.552   3.023   4.189 -0.3816  0.5285  0.5139
 5691SOL    MW422538   4.612   3.081   4.166 -0.1166  0.1649  0.2766
 5692SOL     OW22539   2.340   2.096   5.860  0.2884 -0.3438 -0.1618
 5692SOL    HW222540   2.394   2.169   5.888  1.8727 -1.7500  0.6290
 5692SOL    HW322541   2.354   2.028   5.926 -0.3924 -1.7082 -1.3427
 5692SOL    MW422542   2.349   2.097   5.872  0.4076 -0.7094 -0.2132
 5693SOL     OW22543   1.873   4.379   5.334 -0.0913 -0.5071 -0.8980
 5693SOL    HW222544   1.781   4.404   5.348  0.0422 -0.7805  0.6209
 5693SOL    HW322545   1.922   4.459   5.353  0.0676 -0.7487 -0.2741
 5693SOL    MW422546   1.867   4.393   5.338 -0.0528 -0.5751 -0.6153
 5694SOL     OW22547   3.350   3.614   4.341  0.1681 -0.2773 -0.5357
 5694SOL    HW222548   3.275   3.624   4.283 -0.8809 -0.1186  0.8112
 5694SOL    HW322549   3.389   3.702   4.344  0.0301 -0.2071 -0.7202
 5694SOL    MW422550   3.346   3.627   4.334  0.0115 -0.2471 -0.3823
 5695SOL     OW22551   5.885   2.739   0.169 -0.3773 -0.3511  0.3825
 5695SOL    HW222552   5.901   2.709   0.079 -1.4023 -0.6868  0.3001
 5695SOL    HW322553   5.811   2.686   0.199 -1.7714  1.5434  0.4938
 5695SOL    MW422554   5.877   2.728   0.161 -0.6964 -0.1454  0.3863
 5696SOL     OW22555   0.695   0.104   5.310 -0.1374  0.0567 -0.0739
 5696SOL    HW222556   0.600   0.107   5.295 -0.1607  0.4816  0.1563
 5696SOL    HW322557   0.726   0.037   5.249 -0.5327  0.1816 -0.4200
 5696SOL    MW422558   0.686   0.095   5.300 -0.1926  0.1293 -0.0892
 5697SOL     OW22559   0.163   0.836   4.884  0.0452  0.8238  0.5597
 5697SOL    HW222560   0.212   0.754   4.891 -1.0290  0.0086 -0.9830
 5697SOL    HW322561   0.196   0.878   4.805 -0.2917  1.2733  0.6530
 5697SOL    MW422562   0.174   0.831   4.875 -0.1410  0.7756  0.3685
 5698SOL     OW22563   1.317   1.624   3.878  0.1389 -0.4433 -0.4426
 5698SOL    HW222564   1.303   1.666   3.794  0.8281  1.0438  0.1443
 5698SOL    HW322565   1.316   1.531   3.859 -2.7621 -0.2976 -1.6208
 5698SOL    MW422566   1.315   1.618   3.865 -0.1529 -0.2279 -0.5206
 5699SOL     OW22567   3.266   3.282   3.541  0.1479  0.5666 -0.2106
 5699SOL    HW222568   3.232   3.359   3.586 -0.7074  0.6753 -1.0237
 5699SOL    HW322569   3.297   3.316   3.456  1.0770  0.2449 -0.0115
 5699SOL    MW422570   3.266   3.297   3.535  0.1576  0.5385 -0.2916
 5700SOL     OW22571   3.392   3.179   0.133 -0.4003  0.8574  0.1770
 5700SOL    HW222572   3.472   3.139   0.168 -1.8796 -1.1803  1.4836
 5700SOL    HW322573   3.340   3.198   0.211 -0.8459  3.0332 -0.6004
 5700SOL    MW422574   3.396   3.176   0.148 -0.6542  0.8756  0.2468
 5701SOL     OW22575   1.073   3.596   5.544  0.3460 -0.0714 -0.0074
 5701SOL    HW222576   0.983   3.615   5.571  0.8249  0.8523  1.0416
 5701SOL    HW322577   1.115   3.564   5.624  0.8259 -0.9833 -0.6109
 5701SOL    MW422578   1.066   3.594   5.558  0.4725 -0.0698  0.0514
 5702SOL     OW22579   3.691   5.959   6.277  0.0825 -0.1583  0.3428
 5702SOL    HW222580   3.763   6.023   6.272 -1.0004  1.0861  0.0581
 5702SOL    HW322581   3.671   5.939   6.185  1.2370 -1.9240  0.4283
 5702SOL    MW422582   3.698   5.965   6.264  0.0920 -0.2271  0.3165
 5703SOL     OW22583   0.752   1.559   2.611 -0.2410  0.1737 -0.2169
 5703SOL    HW222584   0.673   1.611   2.625 -0.5735 -0.6528  1.2458
 5703SOL    HW322585   0.728   1.471   2.640  1.0684 -0.2062 -0.2146
 5703SOL    MW422586   0.739   1.554   2.617 -0.1121  0.0146 -0.0236
 5704SOL     OW22587   6.185   2.178   0.207 -0.0336 -0.0080 -0.1282
 5704SOL    HW222588   6.163   2.169   0.300 -3.3305 -1.8543 -0.9361
 5704SOL    HW322589   6.185   2.088   0.174 -1.1084  0.7407 -2.3192
 5704SOL    MW422590   6.182   2.165   0.215 -0.6104 -0.1528 -0.5239
 5705SOL     OW22591   2.591   4.182   0.082 -0.3634  0.0753 -0.2869
 5705SOL    HW222592   2.586   4.275   0.058 -0.9289  0.2700  0.5286
 5705SOL    HW322593   2.530   4.173   0.155  2.8831  0.0057  2.6232
 5705SOL    MW422594   2.582   4.193   0.088 -0.0096  0.0918  0.2046
 5706SOL     OW22595   1.744   2.453   5.629  0.5330 -0.1764  0.1876
 5706SOL    HW222596   1.677   2.468   5.562  1.2388  0.9240 -0.3079
 5706SOL    HW322597   1.699   2.467   5.712 -0.0211 -0.1635 -0.1098
 5706SOL    MW422598   1.729   2.457   5.631  0.5530 -0.0295  0.0830
 5707SOL     OW22599   4.650   1.546   1.247  0.1437  0.0491 -0.2621
 5707SOL    HW222600   4.662   1.605   1.172 -0.7420 -0.7229 -1.0366
 5707SOL    HW322601   4.558   1.520   1.242  1.0327 -3.2809 -1.4086
 5707SOL    MW422602   4.640   1.551   1.236  0.1441 -0.4921 -0.5156
 5708SOL     OW22603   2.572   1.956   5.161  0.0173  0.2557  0.4576
 5708SOL    HW222604   2.513   1.964   5.236  2.1259  0.7723  2.1502
 5708SOL    HW322605   2.527   1.895   5.102 -1.2955 -0.9568  2.5774
 5708SOL    MW422606   2.558   1.949   5.163  0.1223  0.1639  0.9606
 5709SOL     OW22607   1.536   6.280   3.724 -0.0867  0.2956 -0.1626
 5709SOL    HW222608   1.498   6.306   3.808 -0.6373 -0.0921 -0.2860
 5709SOL    HW322609   1.529   6.185   3.723 -2.0823  0.4027 -1.5563
 5709SOL    MW422610   1.530   6.271   3.735 -0.4227  0.2586 -0.3627
 5710SOL     OW22611   3.898   0.597   4.728 -0.0807 -0.2162  0.3926
 5710SOL    HW222612   3.853   0.513   4.723 -0.1601 -0.1367 -0.4241
 5710SOL    HW322613   3.862   0.639   4.806 -1.3012 -0.2331 -0.1347
 5710SOL    MW422614   3.887   0.592   4.738 -0.2522 -0.2079  0.2153
 5711SOL     OW22615   3.086   4.103   0.294  0.1891  0.0868  0.7678
 5711SOL    HW222616   3.085   4.009   0.275  0.7687 -0.3242  2.5781
 5711SOL    HW322617   3.024   4.141   0.232  0.9381 -1.2965 -0.9040
 5711SOL    MW422618   3.078   4.095   0.284  0.3644 -0.1500  0.7860
 5712SOL     OW22619   1.599   6.398   4.803 -0.3621 -0.0713  0.7278
 5712SOL    HW222620   1.681   6.375   4.761 -0.5635  2.1193 -1.0067
 5712SOL    HW322621   1.532   6.351   4.753 -0.4350  0.9216 -0.1195
 5712SOL    MW422622   1.601   6.389   4.791 -0.3983  0.3487  0.3872
 5713SOL     OW22623   1.185   1.504   5.209  0.2410 -0.0649  0.1339
 5713SOL    HW222624   1.123   1.461   5.150 -0.2015 -0.8802  1.1658
 5713SOL    HW322625   1.256   1.533   5.152  0.0858 -1.3172 -0.7337
 5713SOL    MW422626   1.186   1.502   5.194  0.1622 -0.3377  0.1555
 5714SOL     OW22627   6.049   2.128   5.647  0.1365 -0.1799  0.2636
 5714SOL    HW222628   6.140   2.131   5.618 -0.3552 -0.5988 -1.4620
 5714SOL    HW322629   6.035   2.213   5.689  0.9383  0.4684 -0.7193
 5714SOL    MW422630   6.059   2.139   5.649  0.1774 -0.1496 -0.0937
 5715SOL     OW22631   1.673   2.848   5.602  0.1898 -0.5888 -0.5202
 5715SOL    HW222632   1.671   2.789   5.526  0.0836 -0.6663 -0.4589
 5715SOL    HW322633   1.743   2.814   5.658 -0.0978 -0.8671 -0.3217
 5715SOL    MW422634   1.682   2.835   5.600  0.1378 -0.6358 -0.4859
 5716SOL     OW22635   6.344   5.293   0.514 -0.2471  0.0446 -0.4082
 5716SOL    HW222636   6.268   5.348   0.495 -1.0697 -0.7350  0.5237
 5716SOL    HW322637   6.332   5.265   0.605  1.3993  0.2647 -0.0892
 5716SOL    MW422638   6.332   5.297   0.523 -0.1384 -0.0292 -0.2432
 5717SOL     OW22639   0.588   5.106   3.801  0.1399 -0.4275 -0.1952
 5717SOL    HW222640   0.577   5.201   3.809 -1.7205 -0.7772  3.3857
 5717SOL    HW322641   0.676   5.090   3.835 -0.8789 -0.1562  2.8794
 5717SOL    MW422642   0.598   5.116   3.807 -0.2400 -0.4378  0.6829
 5718SOL     OW22643   3.537   1.004   0.557  0.2022  0.5316  0.0033
 5718SOL    HW222644   3.546   0.909   0.549  0.3670  0.3292  2.0758
 5718SOL    HW322645   3.626   1.038   0.545  0.7501  0.1038  2.3371
 5718SOL    MW422646   3.550   0.996   0.555  0.2962  0.4484  0.5847
 5719SOL     OW22647   3.848   3.278   5.581  0.6654  0.0542  0.8177
 5719SOL    HW222648   3.781   3.246   5.641  1.1427  0.9186  1.8268
 5719SOL    HW322649   3.848   3.373   5.592  1.4687  0.1419  0.1938
 5719SOL    MW422650   3.839   3.286   5.590  0.8344  0.1798  0.8685
 5720SOL     OW22651   5.470   6.009   2.692  0.1597  0.0140 -0.0424
 5720SOL    HW222652   5.480   5.997   2.598  0.9198 -0.3620  0.0800
 5720SOL    HW322653   5.435   5.925   2.723  1.6966 -0.5408  0.2601
 5720SOL    MW422654   5.467   5.996   2.684  0.4628 -0.1088  0.0136
 5721SOL     OW22655   4.497   3.339   0.366 -0.2857  0.2030  0.2981
 5721SOL    HW222656   4.546   3.378   0.293 -0.3347  0.4871  0.4195
 5721SOL    HW322657   4.562   3.332   0.436 -0.7962  2.0450  0.9958
 5721SOL    MW422658   4.512   3.343   0.365 -0.3595  0.4835  0.4062
 5722SOL     OW22659   1.745   2.523   0.407 -0.5148  0.1088  0.0976
 5722SOL    HW222660   1.700   2.591   0.457 -0.8070  0.1765 -0.2494
 5722SOL    HW322661   1.825   2.505   0.456 -0.8696  0.0647  0.6700
 5722SOL    MW422662   1.749   2.530   0.420 -0.6001  0.1119  0.1273
 5723SOL     OW22663   1.802   4.402   2.842 -0.2491 -0.2860  1.2706
 5723SOL    HW222664   1.831   4.320   2.882  1.7681 -0.3089 -0.0418
 5723SOL    HW322665   1.869   4.465   2.869  1.3852 -0.3628 -2.0463
 5723SOL    MW422666   1.815   4.399   2.851  0.2327 -0.2992  0.6598
 5724SOL     OW22667   4.484   1.215   2.172 -0.2668  0.4867  0.2735
 5724SOL    HW222668   4.515   1.163   2.097 -0.1447 -0.6698  1.0854
 5724SOL    HW322669   4.509   1.305   2.151  1.5674 -0.0777 -0.1956
 5724SOL    MW422670   4.492   1.220   2.160 -0.0087  0.2596  0.3187
 5725SOL     OW22671   2.018   5.219   5.484  0.7488 -0.2505  0.1359
 5725SOL    HW222672   1.959   5.187   5.416  1.0069  0.6377 -0.5219
 5725SOL    HW322673   2.011   5.315   5.479 -0.0695 -0.1583  2.1024
 5725SOL    MW422674   2.009   5.228   5.475  0.6749 -0.1211  0.3086
 5726SOL     OW22675   0.395   2.673   5.062  0.3401 -0.1398 -0.0976
 5726SOL    HW222676   0.464   2.711   5.116  0.9450 -1.3870  0.0479
 5726SOL    HW322677   0.326   2.650   5.123  0.3476 -0.0860 -0.0686
 5726SOL    MW422678   0.395   2.675   5.077  0.4209 -0.2972 -0.0746
 5727SOL     OW22679   3.432   1.127   3.156  0.0374 -0.3142 -0.3972
 5727SOL    HW222680   3.379   1.102   3.080 -0.0682  0.9782 -0.7729
 5727SOL    HW322681   3.390   1.082   3.230 -1.5592  0.6079 -0.7004
 5727SOL    MW422682   3.419   1.118   3.156 -0.1872 -0.0220 -0.4867
 5728SOL     OW22683   4.724   4.503   3.722  0.1466  0.3647  0.3851
 5728SOL    HW222684   4.633   4.510   3.751  0.2274 -1.6493  1.2832
 5728SOL    HW322685   4.770   4.572   3.769 -0.9880  1.8921 -0.6260
 5728SOL    MW422686   4.718   4.513   3.732  0.0075  0.3005  0.3702
 5729SOL     OW22687   4.743   1.145   2.777 -0.1069 -0.2865 -0.4513
 5729SOL    HW222688   4.768   1.055   2.759  0.6227 -0.3069  0.5364
 5729SOL    HW322689   4.825   1.195   2.769 -0.7182  0.5049 -2.1736
 5729SOL    MW422690   4.757   1.140   2.774 -0.0913 -0.1848 -0.5482
 5730SOL     OW22691   1.592   5.084   3.149 -0.0454  0.7056  0.1384
 5730SOL    HW222692   1.605   5.133   3.231  1.4763 -0.9715  0.9685
 5730SOL    HW322693   1.523   5.021   3.170  1.1195 -0.4849  0.5472
 5730SOL    MW422694   1.585   5.082   3.163  0.3091  0.3273  0.3018
 5731SOL     OW22695   3.153   3.690   2.964 -0.5118  0.7852 -0.1028
 5731SOL    HW222696   3.080   3.691   3.025  1.2384  1.6883  2.1050
 5731SOL    HW322697   3.202   3.611   2.987  0.6147  1.5707  0.2737
 5731SOL    MW422698   3.150   3.680   2.975 -0.1322  1.0080  0.2382
 5732SOL     OW22699   3.017   4.339   5.539 -0.2273 -0.2390  0.1373
 5732SOL    HW222700   3.055   4.416   5.582 -1.6594  0.2608  0.5644
 5732SOL    HW322701   3.063   4.333   5.455 -0.8561  1.7779 -0.4117
 5732SOL    MW422702   3.028   4.348   5.534 -0.4992  0.0930  0.1212
 5733SOL     OW22703   2.251   4.959   2.530  0.4447 -0.4510  0.6314
 5733SOL    HW222704   2.160   4.980   2.554  0.3924  0.0727  0.0002
 5733SOL    HW322705   2.273   5.022   2.461  0.9130 -1.2931 -0.0065
 5733SOL    MW422706   2.242   4.970   2.524  0.4996 -0.4930  0.4639
 5734SOL     OW22707   1.038   3.754   3.296  0.2652 -0.0540 -0.0357
 5734SOL    HW222708   1.054   3.668   3.256 -2.0881  0.1529 -1.6414
 5734SOL    HW322709   0.965   3.740   3.355 -1.7618  1.1651 -2.0718
 5734SOL    MW422710   1.030   3.741   3.298 -0.3127  0.1341 -0.5162
 5735SOL     OW22711   2.358   3.567   0.183 -0.5943  0.0458  0.1830
 5735SOL    HW222712   2.353   3.650   0.136 -0.8022  0.6999  1.3069
 5735SOL    HW322713   2.266   3.540   0.193 -0.6322  0.4702  1.1242
 5735SOL    MW422714   2.345   3.575   0.178 -0.6267  0.1881  0.4555
 5736SOL     OW22715   5.568   3.300   0.035 -0.2410  0.2214  0.0911
 5736SOL    HW222716   5.645   3.249   0.012 -0.8358 -1.2323  1.1737
 5736SOL    HW322717   5.500   3.268  -0.024 -0.1687  1.1061 -0.4857
 5736SOL    MW422718   5.569   3.289   0.024 -0.3099  0.1464  0.1579
 5737SOL     OW22719   5.402   2.582   5.352 -0.1150 -0.5652  0.2145
 5737SOL    HW222720   5.462   2.508   5.345 -0.9405 -1.2982  0.6413
 5737SOL    HW322721   5.441   2.639   5.417  0.0784 -1.0838  0.5559
 5737SOL    MW422722   5.415   2.579   5.359 -0.1984 -0.7303  0.3158
 5738SOL     OW22723   3.651   0.259   1.048  0.0689  0.1432  0.5844
 5738SOL    HW222724   3.568   0.217   1.072 -0.0360 -1.1440 -1.6666
 5738SOL    HW322725   3.626   0.347   1.019 -0.3851  0.1026  0.8442
 5738SOL    MW422726   3.636   0.265   1.047 -0.0048 -0.0320  0.3217
 5739SOL     OW22727   3.657   1.747   0.955  0.0475 -0.3261 -0.4446
 5739SOL    HW222728   3.703   1.718   1.034  0.8110 -0.5425 -0.9563
 5739SOL    HW322729   3.700   1.830   0.933  0.2801 -0.5886 -0.9923
 5739SOL    MW422730   3.669   1.754   0.963  0.1789 -0.3893 -0.5844
 5740SOL     OW22731   1.402   2.376   3.676  0.0502 -0.1264  1.0443
 5740SOL    HW222732   1.357   2.354   3.757 -0.9018  0.3609  0.6702
 5740SOL    HW322733   1.374   2.466   3.656  0.3253 -0.2084  0.2250
 5740SOL    MW422734   1.392   2.385   3.684 -0.0391 -0.0729  0.8869
 5741SOL     OW22735   2.269   2.130   4.743  0.2299 -0.4183 -0.1765
 5741SOL    HW222736   2.360   2.133   4.772 -0.3400  2.6561  1.7675
 5741SOL    HW322737   2.272   2.155   4.651  1.3321 -0.3102 -0.1222
 5741SOL    MW422738   2.281   2.134   4.735  0.3001  0.0016  0.0872
 5742SOL     OW22739   3.024   0.802   4.545 -0.3024  0.9077 -0.0899
 5742SOL    HW222740   3.001   0.881   4.495 -1.8268  0.2259 -0.5155
 5742SOL    HW322741   3.000   0.823   4.635 -1.2786  0.7162 -0.3029
 5742SOL    MW422742   3.018   0.815   4.550 -0.6323  0.7925 -0.1742
 5743SOL     OW22743   2.999   1.951   4.673  0.1518  0.0119  0.0132
 5743SOL    HW222744   3.081   1.999   4.659  0.4568 -0.7057 -0.7556
 5743SOL    HW322745   2.990   1.947   4.768  0.9704  0.1728  0.1071
 5743SOL    MW422746   3.009   1.957   4.684  0.3000 -0.0615 -0.0759
 5744SOL     OW22747   1.119   2.351   2.797  0.2881 -0.2047  0.0126
 5744SOL    HW222748   1.175   2.380   2.869 -0.9948 -0.4282  1.1381
 5744SOL    HW322749   1.161   2.272   2.765  0.5051 -0.5015  0.9919
 5744SOL    MW422750   1.132   2.345   2.802  0.1474 -0.2734  0.2903
 5745SOL     OW22751   6.401   3.373   3.902  0.0215  0.5080 -0.0787
 5745SOL    HW222752   6.413   3.464   3.875  2.5664 -0.2159 -1.7972
 5745SOL    HW322753   6.409   3.323   3.821  2.7375 -1.4556  1.2158
 5745SOL    MW422754   6.404   3.378   3.888  0.7156  0.1534 -0.1347
 5746SOL     OW22755   3.330   2.453   2.484  0.2766  0.5000  0.3878
 5746SOL    HW222756   3.311   2.362   2.510  1.3232  0.1567  0.0096
 5746SOL    HW322757   3.400   2.480   2.542 -1.9316  2.1162  2.4856
 5746SOL    MW422758   3.337   2.444   2.495  0.1234  0.6680  0.6147
 5747SOL     OW22759   1.638   0.451   0.611  0.1165  0.5712 -0.4463
 5747SOL    HW222760   1.628   0.493   0.696 -1.0805  2.8965 -1.6260
 5747SOL    HW322761   1.730   0.465   0.588  0.9100 -1.5573  1.0915
 5747SOL    MW422762   1.649   0.458   0.619  0.0633  0.5972 -0.3990
 5748SOL     OW22763   0.452   5.268   1.865 -0.5837 -0.3105  0.2063
 5748SOL    HW222764   0.437   5.190   1.812 -1.4706 -0.3819  0.5467
 5748SOL    HW322765   0.421   5.244   1.953  0.0993  0.0807  0.5666
 5748SOL    MW422766   0.446   5.255   1.870 -0.6106 -0.2683  0.2987
 5749SOL     OW22767   2.895   1.971   3.071 -0.4240 -0.5739  0.3524
 5749SOL    HW222768   2.802   1.958   3.087 -0.5245 -0.1543  0.1227
 5749SOL    HW322769   2.900   1.997   2.979 -0.4454  2.9249  1.2005
 5749SOL    MW422770   2.884   1.973   3.061 -0.4401 -0.0569  0.4340
 5750SOL     OW22771   1.247   0.533   3.437 -0.1102  0.2709 -0.1964
 5750SOL    HW222772   1.230   0.575   3.522 -1.8533  0.4561 -0.5918
 5750SOL    HW322773   1.164   0.489   3.416  0.9196 -1.4337 -0.8947
 5750SOL    MW422774   1.234   0.533   3.446 -0.2043  0.0705 -0.3407
 5751SOL     OW22775   1.459   4.703   5.462  0.5178 -0.1184 -0.2010
 5751SOL    HW222776   1.372   4.670   5.441  0.3853  0.7440 -1.0757
 5751SOL    HW322777   1.466   4.786   5.415  2.4133 -0.9301 -1.4862
 5751SOL    MW422778   1.449   4.710   5.453  0.7504 -0.1117 -0.4860
 5752SOL     OW22779   0.579   4.226   5.906  0.2942 -0.8030 -0.2630
 5752SOL    HW222780   0.569   4.311   5.862 -2.1636 -0.4012  0.9317
 5752SOL    HW322781   0.540   4.238   5.992  1.7008 -2.6297  0.7133
 5752SOL    MW422782   0.573   4.239   5.911  0.1555 -0.9910  0.0234
 5753SOL     OW22783   2.499   2.617   6.270  0.1939 -0.2483  0.2414
 5753SOL    HW222784   2.571   2.577   6.320 -1.0255 -0.0486  2.3088
 5753SOL    HW322785   2.425   2.557   6.285 -0.6478  0.7403  0.1216
 5753SOL    MW422786   2.499   2.604   6.279 -0.0780 -0.0915  0.4984
 5754SOL     OW22787   5.998   1.664   2.071 -0.9627 -0.1249  0.1248
 5754SOL    HW222788   6.008   1.571   2.093 -0.6079  0.2018  1.4730
 5754SOL    HW322789   5.904   1.675   2.056 -1.6573 -0.0635  3.5278
 5754SOL    MW422790   5.987   1.653   2.072 -1.0075 -0.0737  0.7517
 5755SOL     OW22791   2.587   2.562   2.183 -0.6048 -0.2245  0.3294
 5755SOL    HW222792   2.678   2.536   2.169 -0.9883 -0.6519 -1.6582
 5755SOL    HW322793   2.551   2.493   2.238 -0.0129 -0.6696  0.1691
 5755SOL    MW422794   2.594   2.550   2.188 -0.5773 -0.3396  0.0460
 5756SOL     OW22795   4.634   0.670   3.611  0.0127  0.3820 -0.0468
 5756SOL    HW222796   4.711   0.623   3.643 -0.5803  0.5044  1.6701
 5756SOL    HW322797   4.658   0.763   3.618 -0.1526  0.4116  0.1421
 5756SOL    MW422798   4.648   0.676   3.616 -0.0874  0.4020  0.2047
 5757SOL     OW22799   4.931   2.084   0.196 -0.0627  0.3809 -0.0378
 5757SOL    HW222800   4.867   2.025   0.236  0.1653  0.7412  0.8820
 5757SOL    HW322801   5.009   2.075   0.251  0.0548  1.3492 -0.0298
 5757SOL    MW422802   4.933   2.075   0.209 -0.0171  0.5562  0.0846
 5758SOL     OW22803   0.248   0.102   4.904 -0.0429 -0.1213 -0.2777
 5758SOL    HW222804   0.256   0.048   4.826 -2.0559  1.6339 -1.8066
 5758SOL    HW322805   0.154   0.108   4.921  0.2631  0.7699  1.4075
 5758SOL    MW422806   0.237   0.096   4.896 -0.2681  0.2278 -0.2571
 5759SOL     OW22807   6.399   3.940   1.460 -1.0429 -0.4323 -0.2302
 5759SOL    HW222808   6.330   4.005   1.470 -0.1197  0.8222 -1.5583
 5759SOL    HW322809   6.478   3.992   1.445  0.0927 -1.8422  0.6842
 5759SOL    MW422810   6.400   3.955   1.459 -0.7712 -0.4528 -0.2848
 5760SOL     OW22811   5.609   1.539   6.111  0.2387 -0.2881 -0.2390
 5760SOL    HW222812   5.647   1.463   6.155  2.1175  1.0234  0.5436
 5760SOL    HW322813   5.584   1.598   6.182  2.0542  1.2768 -0.8057
 5760SOL    MW422814   5.611   1.537   6.126  0.7261  0.0914 -0.2105
 5761SOL     OW22815   4.660   3.488   0.193  0.1100 -0.5933  0.0907
 5761SOL    HW222816   4.607   3.526   0.123  1.2840 -0.8865 -1.0162
 5761SOL    HW322817   4.724   3.557   0.214  0.0760 -0.6932  0.5192
 5761SOL    MW422818   4.662   3.502   0.186  0.2604 -0.6452  0.0012
 5762SOL     OW22819   1.997   1.297   5.904 -0.4097 -0.3656 -0.0830
 5762SOL    HW222820   1.959   1.281   5.817 -1.3248 -2.3111  0.6218
 5762SOL    HW322821   2.081   1.250   5.902 -0.0546  0.2638 -0.1685
 5762SOL    MW422822   2.003   1.289   5.892 -0.4836 -0.5393 -0.0013
 5763SOL     OW22823   5.189   3.746   4.237  0.3480 -0.1524  0.2190
 5763SOL    HW222824   5.257   3.682   4.217  0.8749 -0.0532  1.6123
 5763SOL    HW322825   5.112   3.694   4.260  0.1416 -0.2632 -0.6756
 5763SOL    MW422826   5.188   3.731   4.237  0.3903 -0.1539  0.2848
 5764SOL     OW22827   4.665   2.363   2.910  0.0123  0.4311  0.3712
 5764SOL    HW222828   4.673   2.376   3.004 -2.0896 -0.1754  0.6774
 5764SOL    HW322829   4.651   2.268   2.900  0.2143  0.4887 -0.5555
 5764SOL    MW422830   4.664   2.352   2.921 -0.2384  0.3587  0.2893
 5765SOL     OW22831   3.778   5.434   3.156  0.2656  0.1942 -0.5811
 5765SOL    HW222832   3.835   5.381   3.212 -1.5673 -0.5689  0.6446
 5765SOL    HW322833   3.778   5.388   3.072 -0.5812 -1.3132  0.1934
 5765SOL    MW422834   3.786   5.421   3.152 -0.0880 -0.1054 -0.3172
 5766SOL     OW22835   5.721   4.297   5.685 -0.0381 -0.3599 -0.5503
 5766SOL    HW222836   5.710   4.231   5.753 -0.7791  0.6839  0.3684
 5766SOL    HW322837   5.711   4.381   5.730  1.7214  0.4311 -1.5201
 5766SOL    MW422838   5.718   4.299   5.700  0.0963 -0.1178 -0.5571
 5767SOL     OW22839   2.707   2.381   0.236 -0.3583 -0.5928 -0.0049
 5767SOL    HW222840   2.724   2.475   0.235  0.0176 -0.6463 -1.3066
 5767SOL    HW322841   2.764   2.347   0.305 -0.1238  0.0741  0.1383
 5767SOL    MW422842   2.717   2.389   0.245 -0.2777 -0.5119 -0.1577
 5768SOL     OW22843   2.472   2.321   5.948  0.0755  0.1499 -0.0410
 5768SOL    HW222844   2.516   2.326   6.033  0.6977 -0.2596 -0.3331
 5768SOL    HW322845   2.543   2.321   5.884 -0.3184 -1.0348 -0.5029
 5768SOL    MW422846   2.487   2.322   5.951  0.1056 -0.0605 -0.1405
 5769SOL     OW22847   0.822   0.580   4.561  0.1231  0.3913  0.0830
 5769SOL    HW222848   0.761   0.510   4.536  0.3846  0.5138 -0.9447
 5769SOL    HW322849   0.871   0.598   4.481 -0.2629  2.0835  0.1925
 5769SOL    MW422850   0.820   0.573   4.547  0.1067  0.6307 -0.0381
 5770SOL     OW22851   4.232   6.036   2.208 -0.5229  0.2010  0.3261
 5770SOL    HW222852   4.273   6.056   2.292  1.0963  0.1206 -0.4016
 5770SOL    HW322853   4.222   6.122   2.165 -0.2964  0.1390  0.1464
 5770SOL    MW422854   4.236   6.050   2.213 -0.2794  0.1822  0.2064
 5771SOL     OW22855   1.235   1.409   5.925 -0.1453 -0.3605  0.1272
 5771SOL    HW222856   1.152   1.405   5.879 -0.9753  0.1742  1.5182
 5771SOL    HW322857   1.271   1.495   5.903 -0.8232  0.1363  0.9290
 5771SOL    MW422858   1.229   1.420   5.916 -0.3442 -0.2244  0.4165
 5772SOL     OW22859   4.813   3.029   3.962  0.1070 -0.0098 -0.1045
 5772SOL    HW222860   4.757   3.047   4.038  1.1121 -1.3637  1.0335
 5772SOL    HW322861   4.902   3.039   3.996  0.5652 -0.1661 -1.2434
 5772SOL    MW422862   4.818   3.032   3.977  0.3001 -0.2090 -0.1046
 5773SOL     OW22863   2.316   3.463   5.370 -0.4274 -0.0051  0.0347
 5773SOL    HW222864   2.352   3.434   5.453  0.6376  1.3101  0.0432
 5773SOL    HW322865   2.381   3.523   5.334 -2.3769  2.1265 -0.1494
 5773SOL    MW422866   2.329   3.467   5.376 -0.5441  0.4497  0.0116
 5774SOL     OW22867   3.641   0.517   0.973 -0.0619 -0.5500 -0.6535
 5774SOL    HW222868   3.653   0.563   0.891 -0.3914  1.3858  0.3328
 5774SOL    HW322869   3.552   0.538   1.000 -0.1372 -1.5870 -0.0503
 5774SOL    MW422870   3.631   0.526   0.966 -0.1153 -0.4314 -0.4437
 5775SOL     OW22871   0.008   5.121   6.034 -0.0610  0.3675 -0.3532
 5775SOL    HW222872   0.036   5.194   6.090  0.5052  0.7854 -1.1666
 5775SOL    HW322873   0.005   5.046   6.094  1.4462  0.6056  0.0860
 5775SOL    MW422874   0.012   5.121   6.050  0.2126  0.4540 -0.4026
 5776SOL     OW22875   1.594   5.627   4.356  0.1527 -0.0351 -0.9517
 5776SOL    HW222876   1.570   5.548   4.405  0.5306  1.0832  1.2044
 5776SOL    HW322877   1.526   5.635   4.289 -0.4044 -1.6787 -0.6428
 5776SOL    MW422878   1.582   5.618   4.354  0.1290 -0.1044 -0.6265
 5777SOL     OW22879   6.176   2.248   3.085 -0.1044 -0.3735 -0.3481
 5777SOL    HW222880   6.097   2.296   3.061 -0.2772 -0.1971  0.5403
 5777SOL    HW322881   6.245   2.314   3.086 -0.4641  0.0304  1.5259
 5777SOL    MW422882   6.174   2.263   3.082 -0.1747 -0.2969  0.0164
 5778SOL     OW22883   0.105   6.173   5.224 -0.4103  0.2550 -0.4558
 5778SOL    HW222884   0.169   6.202   5.289 -0.6469 -0.5489  0.1619
 5778SOL    HW322885   0.102   6.078   5.235 -1.3756  0.2361 -0.7794
 5778SOL    MW422886   0.113   6.164   5.234 -0.5689  0.1464 -0.4170
 5779SOL     OW22887   2.210   5.390   2.976  0.6168  0.0739  0.2868
 5779SOL    HW222888   2.248   5.308   3.010 -1.3661 -1.4379 -0.8919
 5779SOL    HW322889   2.134   5.406   3.031  0.4246  0.5420 -0.1088
 5779SOL    MW422890   2.205   5.381   2.987  0.3298 -0.0638  0.0791
 5780SOL     OW22891   5.107   5.847   5.123 -0.3929  1.0836 -0.3415
 5780SOL    HW222892   5.172   5.778   5.129 -2.1954 -0.7620 -0.9426
 5780SOL    HW322893   5.063   5.846   5.208 -2.3068 -0.5367 -1.2883
 5780SOL    MW422894   5.110   5.838   5.135 -0.8832  0.6263 -0.5457
 5781SOL     OW22895   5.882   6.037   0.781  0.1953 -0.3445  0.4646
 5781SOL    HW222896   5.842   5.988   0.709  0.9356 -1.0929  0.5507
 5781SOL    HW322897   5.917   5.970   0.839 -2.4813  0.0788  2.8373
 5781SOL    MW422898   5.881   6.022   0.779 -0.0601 -0.3874  0.7890
 5782SOL     OW22899   4.582   4.193   3.923  0.2921 -0.3473  0.1204
 5782SOL    HW222900   4.661   4.240   3.895  1.1536 -1.8308 -0.0581
 5782SOL    HW322901   4.567   4.128   3.855 -0.5757 -0.6701  0.6041
 5782SOL    MW422902   4.591   4.191   3.910  0.2913 -0.5856  0.1607
 5783SOL     OW22903   2.230   0.088   2.728  0.1446  0.0527 -0.1653
 5783SOL    HW222904   2.207   0.082   2.820  0.7465 -0.2964 -0.0299
 5783SOL    HW322905   2.234   0.181   2.710 -0.1625  0.1197  0.1151
 5783SOL    MW422906   2.227   0.099   2.738  0.1835  0.0154 -0.1105
 5784SOL     OW22907   0.314   2.735   3.281  0.3070  0.2849  0.1764
 5784SOL    HW222908   0.246   2.735   3.348 -0.5473  2.3972 -0.6118
 5784SOL    HW322909   0.290   2.664   3.222  0.1270 -0.5108  1.1861
 5784SOL    MW422910   0.302   2.726   3.282  0.1706  0.4586  0.2056
 5785SOL     OW22911   1.941   1.529   3.192  0.2303  0.6642 -0.3830
 5785SOL    HW222912   1.959   1.573   3.109  0.6914  1.0210 -0.0989
 5785SOL    HW322913   1.885   1.455   3.169 -2.2255  2.4882 -0.6512
 5785SOL    MW422914   1.936   1.525   3.178 -0.0329  0.9519 -0.3809
 5786SOL     OW22915   6.348   4.170   4.828  0.2377  0.1904  0.9344
 5786SOL    HW222916   6.272   4.225   4.846 -0.3167  0.3009 -1.3490
 5786SOL    HW322917   6.311   4.082   4.816  0.5295  0.1454  0.3303
 5786SOL    MW422918   6.333   4.166   4.828  0.2031  0.1990  0.5535
 5787SOL     OW22919   1.584   3.098   3.683  0.3501  0.4925 -0.4518
 5787SOL    HW222920   1.581   3.097   3.588 -0.8483  1.5519 -0.4430
 5787SOL    HW322921   1.498   3.128   3.710  0.4741 -0.3359  0.9926
 5787SOL    MW422922   1.573   3.102   3.674  0.2084  0.5230 -0.2600
 5788SOL     OW22923   3.351   5.596   5.875  0.5932  0.3762  0.0511
 5788SOL    HW222924   3.355   5.543   5.796 -3.3343 -0.3335  0.1573
 5788SOL    HW322925   3.359   5.687   5.844  2.0252  0.0224 -0.7210
 5788SOL    MW422926   3.353   5.601   5.861  0.2640  0.2359 -0.0368
 5789SOL     OW22927   0.771   1.947   4.600  0.4852 -0.4840 -0.7650
 5789SOL    HW222928   0.770   2.035   4.563  1.4102  0.2321  0.7810
 5789SOL    HW322929   0.858   1.940   4.639 -0.3109 -1.2954  0.9393
 5789SOL    MW422930   0.783   1.958   4.600  0.5022 -0.4966 -0.3362
 5790SOL     OW22931   5.455   4.416   3.808  0.3577  0.3420  0.2429
 5790SOL    HW222932   5.381   4.471   3.836  0.3395  0.5245 -0.1595
 5790SOL    HW322933   5.515   4.417   3.883 -0.6335 -0.8775  1.1003
 5790SOL    MW422934   5.453   4.423   3.822  0.2245  0.2052  0.3029
 5791SOL     OW22935   5.714   3.383   4.964  0.5987  0.1404  0.5213
 5791SOL    HW222936   5.760   3.353   5.042  0.4158 -0.2745  0.4749
 5791SOL    HW322937   5.643   3.319   4.952  1.7729 -0.9525 -1.0888
 5791SOL    MW422938   5.710   3.371   4.973  0.7295 -0.0586  0.3028
 5792SOL     OW22939   0.568   1.839   3.375  0.2962 -0.2905  0.7331
 5792SOL    HW222940   0.564   1.882   3.460  1.6655 -2.3134  1.9280
 5792SOL    HW322941   0.534   1.751   3.392 -0.6413 -0.3288 -1.1464
 5792SOL    MW422942   0.563   1.833   3.389  0.3532 -0.5625  0.6428
 5793SOL     OW22943   1.961   3.258   1.214 -0.7300 -0.0780 -0.2828
 5793SOL    HW222944   2.035   3.198   1.218  0.7253  1.7058  1.8484
 5793SOL    HW322945   1.904   3.231   1.285 -0.5963  0.4142  0.0143
 5793SOL    MW422946   1.963   3.247   1.224 -0.5204  0.2223  0.0376
 5794SOL     OW22947   5.662   6.004   4.565  0.0136 -0.4718 -0.2895
 5794SOL    HW222948   5.610   6.084   4.554  2.4496  1.0352 -1.6896
 5794SOL    HW322949   5.734   6.030   4.622  0.0287 -2.1410  0.5214
 5794SOL    MW422950   5.665   6.018   4.571  0.3370 -0.4932 -0.3673
 5795SOL     OW22951   3.979   2.634   2.497 -0.0232 -0.0333  0.2446
 5795SOL    HW222952   3.956   2.544   2.474 -1.0519 -0.1930  1.7716
 5795SOL    HW322953   4.015   2.671   2.416  0.4907 -1.8197 -0.3855
 5795SOL    MW422954   3.981   2.627   2.483 -0.0911 -0.2900  0.3630
 5796SOL     OW22955   1.704   2.402   1.286 -0.9543  0.2094  0.1751
 5796SOL    HW222956   1.666   2.353   1.359 -0.5701 -0.5843 -0.1372
 5796SOL    HW322957   1.653   2.483   1.281 -1.6657 -0.1990  0.6601
 5796SOL    MW422958   1.692   2.406   1.295 -0.9974  0.0508  0.1979
 5797SOL     OW22959   4.088   1.448   2.687 -0.2583 -0.2176  0.0692
 5797SOL    HW222960   4.133   1.433   2.603  0.3246 -1.6861  0.6197
 5797SOL    HW322961   4.157   1.440   2.753 -0.9202 -0.1661  0.7728
 5797SOL    MW422962   4.103   1.445   2.684 -0.2687 -0.4045  0.2347
 5798SOL     OW22963   5.590   3.737   2.209  0.4976 -0.5750 -0.6560
 5798SOL    HW222964   5.653   3.785   2.262  0.4896 -0.4430 -0.7678
 5798SOL    HW322965   5.516   3.796   2.198 -0.1063 -1.1178  0.3716
 5798SOL    MW422966   5.589   3.751   2.214  0.4169 -0.6292 -0.5352
 5799SOL     OW22967   0.550   5.541   1.259  0.2559  0.1474  0.0239
 5799SOL    HW222968   0.471   5.503   1.221  1.0368 -1.0872 -0.4365
 5799SOL    HW322969   0.533   5.544   1.353 -0.6630  0.7086 -0.1543
 5799SOL    MW422970   0.538   5.537   1.267  0.2377  0.0585 -0.0604
 5800SOL     OW22971   6.039   2.417   4.858  0.0734  0.2539  0.5586
 5800SOL    HW222972   5.973   2.376   4.802 -1.2485  0.5878  1.7995
 5800SOL    HW322973   6.103   2.454   4.797  0.4174 -2.1018 -0.6455
 5800SOL    MW422974   6.039   2.417   4.843 -0.0556 -0.0128  0.5635
 5801SOL     OW22975   1.977   5.413   3.140 -0.2312  0.2831 -0.4509
 5801SOL    HW222976   1.908   5.473   3.165  0.4882  0.8945  0.1076
 5801SOL    HW322977   1.959   5.333   3.189 -2.4336 -0.7995 -2.7935
 5801SOL    MW422978   1.966   5.410   3.149 -0.4269  0.2209 -0.6863
 5802SOL     OW22979   5.077   0.192   0.457 -0.2273  0.0352 -0.0267
 5802SOL    HW222980   5.134   0.121   0.486  1.2271  0.2478 -2.1780
 5802SOL    HW322981   5.079   0.255   0.529 -0.1286 -1.2638  1.1541
 5802SOL    MW422982   5.085   0.191   0.470 -0.0224 -0.1081 -0.1548
 5803SOL     OW22983   0.451   6.076   2.697 -0.1301 -0.0467 -0.5024
 5803SOL    HW222984   0.371   6.032   2.726  0.6350 -0.4641  1.0843
 5803SOL    HW322985   0.508   6.076   2.774  0.3328  2.7943 -0.7219
 5803SOL    MW422986   0.448   6.070   2.711  0.0319  0.2731 -0.3220
 5804SOL     OW22987   0.320   5.725   5.752 -0.7295  0.5054  0.1231
 5804SOL    HW222988   0.309   5.758   5.841  1.8653  1.6627  0.1044
 5804SOL    HW322989   0.398   5.671   5.755 -1.3390 -0.5248 -1.2246
 5804SOL    MW422990   0.329   5.722   5.764 -0.4676  0.5222 -0.0572
 5805SOL     OW22991   0.721   0.197   3.961  0.3647 -0.2973 -0.0961
 5805SOL    HW222992   0.680   0.280   3.935  1.1233 -0.0465 -0.5316
 5805SOL    HW322993   0.660   0.130   3.932 -0.0876  0.0996 -0.0721
 5805SOL    MW422994   0.708   0.199   3.954  0.4051 -0.2118 -0.1504
 5806SOL     OW22995   3.727   0.462   5.385  0.1761  0.0765  0.4502
 5806SOL    HW222996   3.732   0.550   5.350 -1.1676  0.1108  0.2682
 5806SOL    HW322997   3.651   0.464   5.444 -1.1012 -1.4105 -1.0118
 5806SOL    MW422998   3.718   0.474   5.389 -0.1697 -0.1152  0.2333
 5807SOL     OW22999   2.349   4.667   6.330 -0.1949 -0.5310  0.4694
 5807SOL    HW223000   2.369   4.601   6.397 -0.7383  0.2668  1.4475
 5807SOL    HW323001   2.343   4.749   6.378  1.6260  0.4808 -0.8841
 5807SOL    MW423002   2.351   4.669   6.345 -0.0264 -0.2922  0.4199
 5808SOL     OW23003   1.868   0.020   0.510  0.2756  0.2263  1.0606
 5808SOL    HW223004   1.925   0.006   0.585 -0.1663 -1.4845  1.1120
 5808SOL    HW323005   1.922   0.070   0.448  1.0239  0.6591  2.0412
 5808SOL    MW423006   1.883   0.025   0.512  0.3160  0.0577  1.1967
 5809SOL     OW23007   4.640   4.529   4.718  0.0401  0.5377 -0.3162
 5809SOL    HW223008   4.568   4.585   4.688  0.9296  1.6685 -0.3974
 5809SOL    HW323009   4.705   4.590   4.753 -1.0143 -0.6376  4.2721
 5809SOL    MW423010   4.639   4.544   4.719  0.0183  0.5318  0.2785
 5810SOL     OW23011   5.091   4.352   0.756 -0.4013 -0.3235  0.0590
 5810SOL    HW223012   5.089   4.300   0.836 -0.3040 -1.6271 -0.7663
 5810SOL    HW323013   5.021   4.317   0.702  0.0768 -0.0279 -0.7759
 5810SOL    MW423014   5.082   4.341   0.759 -0.3254 -0.4565 -0.1600
 5811SOL     OW23015   4.270   1.097   5.802  0.5106  0.0840  0.3695
 5811SOL    HW223016   4.329   1.042   5.854  0.9118 -0.7346 -0.9027
 5811SOL    HW323017   4.216   1.142   5.867  1.9369  0.1882  1.5474
 5811SOL    MW423018   4.271   1.095   5.817  0.7517 -0.0103  0.3571
 5812SOL     OW23019   3.499   4.738   1.234 -0.3733 -0.0248  0.3242
 5812SOL    HW223020   3.591   4.738   1.207 -0.2898  3.8061  0.1366
 5812SOL    HW323021   3.451   4.711   1.156  0.4802 -0.8274  0.0551
 5812SOL    MW423022   3.505   4.734   1.220 -0.2496  0.3748  0.2639
 5813SOL     OW23023   1.098   0.861   4.024 -0.1977 -0.4555  0.1917
 5813SOL    HW223024   1.055   0.776   4.033 -0.2438 -0.3502  1.0637
 5813SOL    HW323025   1.060   0.915   4.093  1.8830 -0.5990  1.5553
 5813SOL    MW423026   1.087   0.857   4.034  0.0707 -0.4605  0.4867
 5814SOL     OW23027   4.287   2.516   1.751 -0.0026  0.1413  0.3009
 5814SOL    HW223028   4.306   2.508   1.657 -1.7964 -0.3101 -0.0616
 5814SOL    HW323029   4.291   2.426   1.783  1.0235  0.3408  0.7696
 5814SOL    MW423030   4.290   2.503   1.743 -0.1039  0.1080  0.3149
 5815SOL     OW23031   4.775   4.730   3.032  0.3318 -0.6668 -0.1954
 5815SOL    HW223032   4.819   4.780   2.963  1.6623  1.4787  2.0306
 5815SOL    HW323033   4.845   4.704   3.092 -0.9634 -0.3367  1.5676
 5815SOL    MW423034   4.790   4.733   3.031  0.3365 -0.3402  0.3309
 5816SOL     OW23035   0.296   1.642   6.357 -0.0585  0.5103 -0.3038
 5816SOL    HW223036   0.260   1.730   6.344 -0.2419  0.6443  0.9846
 5816SOL    HW323037   0.313   1.610   6.269  0.5324  2.0519 -0.7742
 5816SOL    MW423038   0.293   1.649   6.344 -0.0047  0.7314 -0.1959
 5817SOL     OW23039   5.150   2.111   5.863 -0.7877  0.5431 -0.2424
 5817SOL    HW223040   5.146   2.028   5.911 -1.8145  0.2050 -0.8895
 5817SOL    HW323041   5.077   2.162   5.899  0.6367  1.7289  1.1156
 5817SOL    MW423042   5.140   2.106   5.874 -0.7353  0.6550 -0.1486
 5818SOL     OW23043   2.332   2.095   3.727 -0.3716 -0.3876 -0.2267
 5818SOL    HW223044   2.319   2.190   3.720 -1.4597 -0.5386 -0.4678
 5818SOL    HW323045   2.270   2.058   3.664  0.5588 -1.2458 -0.6649
 5818SOL    MW423046   2.322   2.103   3.718 -0.3924 -0.5207 -0.3163
 5819SOL     OW23047   1.727   0.417   2.837  0.1729 -0.1947 -0.1722
 5819SOL    HW223048   1.751   0.505   2.866 -0.1092  0.5376 -2.0493
 5819SOL    HW323049   1.745   0.361   2.913  1.6009  1.2738  0.6337
 5819SOL    MW423050   1.733   0.421   2.851  0.3240  0.0956 -0.3135
 5820SOL     OW23051   1.517   5.429   3.970  0.5957 -0.4327 -0.4205
 5820SOL    HW223052   1.423   5.411   3.964  0.6688 -1.0130  0.0717
 5820SOL    HW323053   1.559   5.353   3.931  0.8521  0.6807 -2.4504
 5820SOL    MW423054   1.510   5.417   3.964  0.6392 -0.3624 -0.6234
 5821SOL     OW23055   2.246   4.264   5.272  0.1693 -0.0438 -0.2461
 5821SOL    HW223056   2.266   4.188   5.218 -1.1835 -0.5125 -0.1235
 5821SOL    HW323057   2.187   4.318   5.219 -1.6944 -0.8191  0.9125
 5821SOL    MW423058   2.241   4.262   5.258 -0.2551 -0.2080 -0.0771
 5822SOL     OW23059   4.169   1.159   0.124 -0.3252  0.5143 -0.2865
 5822SOL    HW223060   4.255   1.191   0.152 -0.6358  2.1988 -1.0930
 5822SOL    HW323061   4.119   1.150   0.205  0.4730 -0.0941  0.1528
 5822SOL    MW423062   4.174   1.162   0.138 -0.2609  0.6563 -0.3350
 5823SOL     OW23063   1.750   4.299   5.834 -0.2595 -0.4073 -0.4835
 5823SOL    HW223064   1.800   4.296   5.753  0.6791  1.8339 -0.0627
 5823SOL    HW323065   1.664   4.264   5.810 -0.0003  0.1701 -2.4469
 5823SOL    MW423066   1.745   4.294   5.820 -0.1015 -0.0354 -0.6870
 5824SOL     OW23067   5.488   2.095   0.560 -0.2662 -0.1602 -0.5319
 5824SOL    HW223068   5.472   2.113   0.653  0.9819 -1.2589 -0.0709
 5824SOL    HW323069   5.547   2.165   0.532 -0.7687  0.2627 -0.5536
 5824SOL    MW423070   5.494   2.106   0.569 -0.1678 -0.2494 -0.4739
 5825SOL     OW23071   3.265   3.627   5.877  0.0899  0.0413 -0.3277
 5825SOL    HW223072   3.187   3.681   5.890  0.5547  0.5196  0.5619
 5825SOL    HW323073   3.297   3.608   5.965  1.9942  1.3584 -0.6579
 5825SOL    MW423074   3.259   3.631   5.890  0.4025  0.2782 -0.2539
 5826SOL     OW23075   1.354   5.795   6.251 -0.5503  0.1619  0.2562
 5826SOL    HW223076   1.334   5.728   6.316  0.5136  0.1508  0.6007
 5826SOL    HW323077   1.352   5.877   6.300  1.6190  0.0359  0.6851
 5826SOL    MW423078   1.351   5.797   6.266 -0.1237  0.1438  0.3582
 5827SOL     OW23079   2.820   1.319   1.831 -0.1906 -0.0704  0.2687
 5827SOL    HW223080   2.873   1.323   1.751 -0.1665 -0.4441  0.2614
 5827SOL    HW323081   2.885   1.308   1.901 -0.3123 -2.2919  0.1042
 5827SOL    MW423082   2.836   1.318   1.829 -0.2034 -0.4128  0.2460
 5828SOL     OW23083   3.497   1.027   5.074 -0.0262 -0.3741 -0.1475
 5828SOL    HW223084   3.434   0.982   5.017  1.2874 -0.0884 -1.9244
 5828SOL    HW323085   3.460   1.114   5.087  0.0841 -0.1262 -1.3793
 5828SOL    MW423086   3.483   1.032   5.068  0.1616 -0.3037 -0.5445
 5829SOL     OW23087   2.004   6.427   6.093 -0.6065  0.2087  0.4610
 5829SOL    HW223088   2.010   6.453   6.185  0.7555  1.4634  0.0413
 5829SOL    HW323089   1.925   6.470   6.061 -0.5463  0.5655  0.7872
 5829SOL    MW423090   1.994   6.436   6.101 -0.4188  0.4213  0.4486
 5830SOL     OW23091   3.187   3.918   5.008  0.0864 -0.1206  0.3406
 5830SOL    HW223092   3.258   3.968   5.049  0.0848 -1.7019  2.4780
 5830SOL    HW323093   3.231   3.847   4.961 -0.0180 -0.0444  0.1273
 5830SOL    MW423094   3.202   3.915   5.008  0.0724 -0.3192  0.5945
 5831SOL     OW23095   4.543   0.471   4.612 -0.9785 -0.8794 -0.1810
 5831SOL    HW223096   4.466   0.499   4.562  0.0722  0.9967 -0.8806
 5831SOL    HW323097   4.529   0.507   4.700 -1.8269 -2.3356  0.3131
 5831SOL    MW423098   4.531   0.480   4.617 -0.9518 -0.8240 -0.2081
 5832SOL     OW23099   5.284   6.210   6.301  0.0073 -0.7286 -0.3859
 5832SOL    HW223100   5.313   6.230   6.211  1.7363 -3.8309 -0.6855
 5832SOL    HW323101   5.204   6.159   6.289  0.3624 -1.3380 -0.2250
 5832SOL    MW423102   5.277   6.206   6.287  0.2823 -1.2183 -0.4042
 5833SOL     OW23103   3.121   0.926   3.500  0.0727 -0.5276 -0.1117
 5833SOL    HW223104   3.071   0.931   3.419 -1.8770 -0.7062  1.0053
 5833SOL    HW323105   3.103   1.008   3.545  1.9576  0.0192 -0.2572
 5833SOL    MW423106   3.112   0.938   3.495  0.0641 -0.4790  0.0165
 5834SOL     OW23107   5.380   0.524   4.409 -0.3927 -0.0231  0.5449
 5834SOL    HW223108   5.290   0.521   4.377 -0.3211  0.4016  0.2864
 5834SOL    HW323109   5.390   0.445   4.461 -1.8868  1.3733  3.1720
 5834SOL    MW423110   5.370   0.513   4.412 -0.5804  0.2172  0.8574
 5835SOL     OW23111   5.196   4.938   2.676 -0.0950  0.2639 -0.3517
 5835SOL    HW223112   5.249   4.859   2.664 -0.1279  0.3226 -0.9348
 5835SOL    HW323113   5.226   4.998   2.607  0.2716  0.9513  0.4007
 5835SOL    MW423114   5.207   4.935   2.665 -0.0510  0.3623 -0.3294
 5836SOL     OW23115   3.274   1.236   0.765  0.6740 -0.5619 -0.3761
 5836SOL    HW223116   3.278   1.144   0.790  1.2459 -0.5973 -0.5819
 5836SOL    HW323117   3.224   1.236   0.683  1.0280 -0.7384 -0.5941
 5836SOL    MW423118   3.268   1.224   0.757  0.7962 -0.5898 -0.4320
 5837SOL     OW23119   0.472   0.226   6.136 -0.4182 -0.5358 -0.1520
 5837SOL    HW223120   0.429   0.217   6.221  1.3695  0.6757  0.9367
 5837SOL    HW323121   0.495   0.137   6.111 -1.2568 -0.9406  0.4563
 5837SOL    MW423122   0.469   0.213   6.144 -0.2930 -0.4294  0.0719
 5838SOL     OW23123   3.731   0.154   3.825 -0.2436 -0.2428 -0.7718
 5838SOL    HW223124   3.779   0.080   3.863 -1.0142 -0.5008 -0.2626
 5838SOL    HW323125   3.764   0.160   3.735 -0.8430 -1.8397 -1.1431
 5838SOL    MW423126   3.741   0.145   3.818 -0.4244 -0.4876 -0.7536
 5839SOL     OW23127   4.037   2.252   5.897  0.2112 -0.1137 -0.1848
 5839SOL    HW223128   4.129   2.234   5.917  0.7439  1.2975 -1.1653
 5839SOL    HW323129   4.032   2.348   5.896 -0.8973 -0.1608 -1.7581
 5839SOL    MW423130   4.049   2.263   5.900  0.1353  0.0663 -0.5217
 5840SOL     OW23131   6.379   4.566   4.993 -0.0362 -0.0341 -0.5801
 5840SOL    HW223132   6.374   4.564   4.898 -0.9049  0.8375 -0.5637
 5840SOL    HW323133   6.410   4.654   5.014  0.1994 -0.2370 -0.0609
 5840SOL    MW423134   6.382   4.577   4.983 -0.1198  0.0541 -0.5094
 5841SOL     OW23135   0.636   2.176   2.645 -0.5716 -0.2292  0.3770
 5841SOL    HW223136   0.579   2.107   2.612  0.5775 -0.4551 -1.2680
 5841SOL    HW323137   0.693   2.131   2.708 -0.2642 -0.6606 -0.1954
 5841SOL    MW423138   0.636   2.161   2.649 -0.3794 -0.3159  0.0845
 5842SOL     OW23139   1.345   6.173   5.483 -0.1399 -0.0527 -0.0982
 5842SOL    HW223140   1.382   6.155   5.569 -1.2352 -3.6047 -0.2093
 5842SOL    HW323141   1.396   6.248   5.450  0.9339  0.8194  3.1864
 5842SOL    MW423142   1.357   6.181   5.490 -0.1427 -0.4063  0.3205
 5843SOL     OW23143   2.555   2.092   3.282  0.1223  0.2389  0.3876
 5843SOL    HW223144   2.585   2.041   3.206 -0.1871 -0.0903  0.4786
 5843SOL    HW323145   2.477   2.045   3.312 -0.6009  1.1795  0.0311
 5843SOL    MW423146   2.548   2.079   3.276 -0.0140  0.3196  0.3525
 5844SOL     OW23147   4.589   0.595   6.120 -0.1484  0.1847  0.3511
 5844SOL    HW223148   4.663   0.557   6.168  0.7332  1.1097 -0.2459
 5844SOL    HW323149   4.577   0.537   6.045  0.0330  0.0812  0.4015
 5844SOL    MW423150   4.597   0.582   6.117 -0.0081  0.2931  0.2790
 5845SOL     OW23151   5.928   5.168   0.460  0.2363 -0.2437  0.4131
 5845SOL    HW223152   5.883   5.241   0.503  1.7864  0.2947  1.1765
 5845SOL    HW323153   5.935   5.101   0.528  0.2326 -0.4885  0.1754
 5845SOL    MW423154   5.923   5.169   0.474  0.4404 -0.2049  0.4825
 5846SOL     OW23155   0.580   1.826   5.475 -0.4672 -0.0312  0.3158
 5846SOL    HW223156   0.532   1.744   5.462  1.1019 -0.9179 -0.0331
 5846SOL    HW323157   0.657   1.818   5.420 -0.2116  1.6465  0.3763
 5846SOL    MW423158   0.584   1.814   5.466 -0.2265  0.0732  0.2777
 5847SOL     OW23159   0.536   3.166   4.281 -0.5445  0.8973 -0.4608
 5847SOL    HW223160   0.453   3.150   4.327 -0.3779 -0.1016 -0.4929
 5847SOL    HW323161   0.534   3.108   4.205  0.7322 -0.1118  0.2339
 5847SOL    MW423162   0.525   3.156   4.277 -0.3541  0.6323 -0.3734
 5848SOL     OW23163   0.338   3.151   3.740  0.2260  0.0309  0.1016
 5848SOL    HW223164   0.391   3.078   3.706 -0.5145 -0.3484 -0.2685
 5848SOL    HW323165   0.371   3.227   3.692  1.4004  0.0595  0.9063
 5848SOL    MW423166   0.350   3.151   3.729  0.2832 -0.0153  0.1589
 5849SOL     OW23167   2.696   1.060   3.744 -0.1407  0.3073 -0.0266
 5849SOL    HW223168   2.740   1.143   3.757  0.7159 -0.2315  0.6208
 5849SOL    HW323169   2.603   1.082   3.744  0.0646  1.2184  0.4282
 5849SOL    MW423170   2.690   1.074   3.745 -0.0006  0.3564  0.1188
 5850SOL     OW23171   3.840   3.195   0.744  0.0912  0.1562  0.2332
 5850SOL    HW223172   3.798   3.246   0.813 -0.9295  2.4848 -1.9463
 5850SOL    HW323173   3.933   3.218   0.751 -0.0492  0.6248  0.6365
 5850SOL    MW423174   3.847   3.205   0.754 -0.0620  0.5252 -0.0012
 5851SOL     OW23175   5.331   0.848   5.787 -0.1467  0.0249  0.2257
 5851SOL    HW223176   5.254   0.800   5.817  1.3040 -2.4407  0.3542
 5851SOL    HW323177   5.329   0.838   5.692  0.6808 -1.3045  0.3108
 5851SOL    MW423178   5.321   0.840   5.778  0.1539 -0.4758  0.2539
 5852SOL     OW23179   1.161   4.617   2.328 -0.0864  0.0984 -0.1760
 5852SOL    HW223180   1.162   4.666   2.246  0.5589 -1.0116 -0.8494
 5852SOL    HW323181   1.220   4.666   2.386  1.5852 -0.5632 -1.2646
 5852SOL    MW423182   1.169   4.630   2.325  0.2193 -0.1354 -0.4085
 5853SOL     OW23183   4.569   0.937   2.548  0.6969  0.4261 -0.2855
 5853SOL    HW223184   4.586   0.875   2.477  0.3378 -0.1957  0.1558
 5853SOL    HW323185   4.582   1.023   2.509 -0.2296  0.1275 -1.3133
 5853SOL    MW423186   4.573   0.940   2.533  0.5273  0.3047 -0.3629
 5854SOL     OW23187   1.427   5.213   0.027  0.1887  0.1637 -0.3028
 5854SOL    HW223188   1.441   5.217   0.122 -0.3187  0.5896 -0.2372
 5854SOL    HW323189   1.498   5.264  -0.011 -2.1316  4.1320  0.1309
 5854SOL    MW423190   1.438   5.220   0.035 -0.1844  0.7434 -0.2369
 5855SOL     OW23191   6.310   4.318   5.970  0.4293  0.8063 -0.2806
 5855SOL    HW223192   6.350   4.262   5.904  2.8707  1.8684  0.1684
 5855SOL    HW323193   6.376   4.324   6.040 -2.0035 -0.2787  2.3222
 5855SOL    MW423194   6.324   4.312   5.971  0.4304  0.8033  0.1221
 5856SOL     OW23195   2.394   5.004   5.400 -0.1867  0.1764  0.2780
 5856SOL    HW223196   2.470   4.987   5.455  0.9960  1.6590 -0.8152
 5856SOL    HW323197   2.431   5.035   5.317 -1.9919  1.4008 -0.1199
 5856SOL    MW423198   2.409   5.006   5.396 -0.2688  0.5336  0.0813
 5857SOL     OW23199   3.642   2.831   2.517  0.2781  0.1127  0.2489
 5857SOL    HW223200   3.580   2.902   2.502  0.9156  0.3613 -1.4705
 5857SOL    HW323201   3.622   2.767   2.449 -0.1331 -1.2793  1.6394
 5857SOL    MW423202   3.631   2.832   2.506  0.3080 -0.0381  0.2055
 5858SOL     OW23203   4.913   5.003   5.693 -0.6052  0.3256 -0.0140
 5858SOL    HW223204   4.938   5.095   5.701 -0.5513  0.2541  0.6355
 5858SOL    HW323205   4.988   4.962   5.649 -1.7620  1.1041 -2.9702
 5858SOL    MW423206   4.926   5.010   5.688 -0.7507  0.4189 -0.3183
 5859SOL     OW23207   5.148   5.276   5.274 -0.0444 -0.3350  0.3341
 5859SOL    HW223208   5.174   5.323   5.353  0.1304  1.0540 -0.5119
 5859SOL    HW323209   5.204   5.198   5.273 -0.2514 -0.5195  1.7107
 5859SOL    MW423210   5.159   5.272   5.284 -0.0487 -0.1761  0.4041
 5860SOL     OW23211   3.959   0.694   6.100  0.4194 -0.1689 -0.9960
 5860SOL    HW223212   3.879   0.645   6.120  0.8616 -1.0134 -1.2550
 5860SOL    HW323213   4.010   0.691   6.181  0.4866 -0.2203 -1.0397
 5860SOL    MW423214   3.955   0.687   6.114  0.4866 -0.2871 -1.0359
 5861SOL     OW23215   4.418   2.154   2.911 -0.2438  0.3788 -0.5835
 5861SOL    HW223216   4.483   2.097   2.872  0.3973  1.8822 -1.8125
 5861SOL    HW323217   4.374   2.196   2.837 -1.4169  0.6945  0.2587
 5861SOL    MW423218   4.420   2.152   2.896 -0.3140  0.6188 -0.6346
 5862SOL     OW23219   6.249   5.911   5.269  0.2787  0.5540  0.7771
 5862SOL    HW223220   6.170   5.950   5.306 -0.2895 -2.0564  2.5497
 5862SOL    HW323221   6.310   5.907   5.342  1.6283  1.3448 -0.2682
 5862SOL    MW423222   6.246   5.916   5.283  0.3818  0.3139  0.8731
 5863SOL     OW23223   4.015   3.895   5.714 -0.0875 -0.2519 -0.1851
 5863SOL    HW223224   4.105   3.921   5.697  0.9234 -2.2040  1.6252
 5863SOL    HW323225   3.976   3.886   5.627  1.3800  0.8166 -1.0060
 5863SOL    MW423226   4.022   3.897   5.701  0.2395 -0.3685 -0.0546
 5864SOL     OW23227   4.048   4.571   0.844 -0.2105  0.3153 -0.2865
 5864SOL    HW223228   4.124   4.610   0.889 -0.9222 -0.1889  1.4539
 5864SOL    HW323229   4.004   4.645   0.803  1.7260  0.5075 -2.2077
 5864SOL    MW423230   4.052   4.586   0.845 -0.0489  0.2742 -0.3104
 5865SOL     OW23231   2.939   5.303   2.026 -0.5625  0.0061 -0.3636
 5865SOL    HW223232   3.033   5.286   2.017 -0.6896 -1.3972  0.6149
 5865SOL    HW323233   2.905   5.225   2.070 -2.3439  0.0766 -1.5129
 5865SOL    MW423234   2.947   5.290   2.030 -0.8143 -0.1698 -0.3861
 5866SOL     OW23235   3.138   1.587   0.986  0.5528  0.1190  0.1012
 5866SOL    HW223236   3.192   1.591   0.908  1.5720  0.4309  0.8052
 5866SOL    HW323237   3.200   1.575   1.058 -0.4645 -2.1145  0.7026
 5866SOL    MW423238   3.153   1.586   0.985  0.5530 -0.1345  0.2734
 5867SOL     OW23239   5.482   5.452   2.830  0.7414  0.0747 -0.1811
 5867SOL    HW223240   5.442   5.487   2.909 -1.9393  0.3718 -1.5633
 5867SOL    HW323241   5.451   5.361   2.824  0.6496  0.1476 -1.0355
 5867SOL    MW423242   5.473   5.444   2.839  0.3756  0.1235 -0.4762
 5868SOL     OW23243   5.654   5.745   5.454  0.0896  0.5645 -0.0421
 5868SOL    HW223244   5.640   5.754   5.359  0.7148  1.2789 -0.0707
 5868SOL    HW323245   5.574   5.781   5.493  0.8705  2.6465 -0.2564
 5868SOL    MW423246   5.641   5.751   5.446  0.2751  0.9334 -0.0741
 5869SOL     OW23247   3.556   2.307   5.646  0.4291  0.3052  0.0792
 5869SOL    HW223248   3.524   2.338   5.731 -1.0850  0.6783 -0.6092
 5869SOL    HW323249   3.647   2.283   5.663  0.7387  2.1537  1.3930
 5869SOL    MW423250   3.564   2.308   5.660  0.2701  0.5983  0.1617
 5870SOL     OW23251   0.585   2.222   1.203  0.4834  0.1575 -0.0273
 5870SOL    HW223252   0.590   2.300   1.259 -0.0441 -0.1594  0.4718
 5870SOL    HW323253   0.655   2.166   1.235 -2.0187 -1.6233  2.8464
 5870SOL    MW423254   0.595   2.225   1.215  0.0836 -0.1193  0.4177
 5871SOL     OW23255   2.283   4.936   4.411 -0.1720 -0.2595 -0.0822
 5871SOL    HW223256   2.227   4.858   4.402 -0.0454 -0.2770 -0.7850
 5871SOL    HW323257   2.286   4.952   4.505 -1.6674 -0.0321 -0.0473
 5871SOL    MW423258   2.276   4.928   4.422 -0.3526 -0.2318 -0.1703
 5872SOL     OW23259   2.683   1.604   2.571 -0.0472  0.3104 -0.1546
 5872SOL    HW223260   2.762   1.552   2.557  0.0205  0.3154  0.2072
 5872SOL    HW323261   2.611   1.545   2.549  0.0804  0.7535 -1.9552
 5872SOL    MW423262   2.684   1.589   2.566 -0.0215  0.3695 -0.3444
 5873SOL     OW23263   1.523   2.872   0.299 -0.1988  0.1514 -0.4103
 5873SOL    HW223264   1.600   2.833   0.257 -0.9755 -0.5147 -1.2806
 5873SOL    HW323265   1.484   2.799   0.348  1.4807  1.2344  2.7912
 5873SOL    MW423266   1.528   2.857   0.300 -0.0797  0.2064 -0.1028
 5874SOL     OW23267   5.468   5.847   3.396 -0.3522  0.4727  0.3807
 5874SOL    HW223268   5.556   5.873   3.370 -0.0075  0.6372  1.6643
 5874SOL    HW323269   5.424   5.827   3.313  0.8637  0.4409 -0.2834
 5874SOL    MW423270   5.474   5.848   3.382 -0.1463  0.4902  0.4625
 5875SOL     OW23271   6.088   4.626   5.730 -0.3787 -0.2242 -0.2342
 5875SOL    HW223272   6.072   4.536   5.702 -0.0261 -0.4733  0.3346
 5875SOL    HW323273   6.170   4.620   5.780 -1.9095 -0.1579  2.4763
 5875SOL    MW423274   6.097   4.613   5.733 -0.5342 -0.2483  0.1985
 5876SOL     OW23275   4.443   2.699   2.648 -0.1078  0.0228  0.5796
 5876SOL    HW223276   4.477   2.686   2.736  2.3731  1.6004 -0.0454
 5876SOL    HW323277   4.513   2.670   2.590 -0.5967  1.4680 -0.8218
 5876SOL    MW423278   4.457   2.694   2.652  0.1550  0.4216  0.3122
 5877SOL     OW23279   1.054   0.287   2.832  0.5090 -0.1048 -0.4617
 5877SOL    HW223280   1.137   0.250   2.862  0.2738 -0.0438  0.2943
 5877SOL    HW323281   1.015   0.218   2.779  0.2305 -0.8386  0.6544
 5877SOL    MW423282   1.060   0.273   2.829  0.4412 -0.1936 -0.2147
 5878SOL     OW23283   6.079   2.923   2.246 -0.3887 -0.0937  0.3199
 5878SOL    HW223284   5.986   2.943   2.260 -0.4182 -0.9847  1.5722
 5878SOL    HW323285   6.094   2.843   2.296  0.5646 -1.2095 -1.6542
 5878SOL    MW423286   6.069   2.915   2.255 -0.2668 -0.3585  0.2246
 5879SOL     OW23287   1.073   3.038   0.204 -0.5986 -0.4140  0.1355
 5879SOL    HW223288   1.055   3.076   0.291  0.2532 -1.0079  0.5873
 5879SOL    HW323289   1.116   2.954   0.223 -0.3415 -0.5196 -0.8673
 5879SOL    MW423290   1.077   3.032   0.218 -0.4523 -0.5063  0.0628
 5880SOL     OW23291   2.603   5.897   4.869 -0.1345  0.3219 -0.3873
 5880SOL    HW223292   2.599   5.943   4.953 -0.5556  0.0297 -0.2478
 5880SOL    HW323293   2.671   5.831   4.881 -2.3415 -1.8543  0.8061
 5880SOL    MW423294   2.612   5.895   4.881 -0.4812 -0.0038 -0.2114
 5881SOL     OW23295   6.031   3.421   5.670 -0.3809 -0.4000 -0.1386
 5881SOL    HW223296   6.124   3.439   5.677 -0.9678  2.3606  2.4555
 5881SOL    HW323297   6.000   3.480   5.602 -0.3724 -0.8036 -0.4983
 5881SOL    MW423298   6.039   3.431   5.662 -0.4572 -0.0890  0.1562
 5882SOL     OW23299   4.499   6.286   2.220 -0.1857  0.0867  0.0207
 5882SOL    HW223300   4.419   6.289   2.168 -0.1747  1.6237  0.0659
 5882SOL    HW323301   4.536   6.200   2.202 -1.4698 -0.3669 -0.5630
 5882SOL    MW423302   4.493   6.275   2.211 -0.3536  0.2297 -0.0503
 5883SOL     OW23303   2.611   5.778   3.219 -0.4539  0.0964 -0.2746
 5883SOL    HW223304   2.666   5.806   3.146  0.9071  1.6193  1.2518
 5883SOL    HW323305   2.532   5.832   3.210 -0.2241  0.3999 -0.5144
 5883SOL    MW423306   2.608   5.789   3.208 -0.2440  0.3374 -0.1049
 5884SOL     OW23307   5.788   4.735   2.669  0.3789  0.0696 -0.0459
 5884SOL    HW223308   5.710   4.727   2.615 -0.0542 -1.8677  0.7884
 5884SOL    HW323309   5.755   4.752   2.757  0.8629 -1.0386  0.3649
 5884SOL    MW423310   5.773   4.736   2.674  0.3856 -0.3322  0.1183
 5885SOL     OW23311   5.824   3.949   5.649 -0.3077 -0.0312 -0.0083
 5885SOL    HW223312   5.874   3.980   5.574 -0.5100  2.2426  0.7197
 5885SOL    HW323313   5.860   3.997   5.724 -3.1106  1.2874  0.6362
 5885SOL    MW423314   5.836   3.959   5.649 -0.7042  0.4428  0.1727
 5886SOL     OW23315   1.219   1.841   5.979  0.3441 -0.0484  0.3739
 5886SOL    HW223316   1.161   1.868   5.908  0.9546  0.8824  0.2034
 5886SOL    HW323317   1.276   1.775   5.939 -0.5685 -0.9347  0.5334
 5886SOL    MW423318   1.219   1.836   5.964  0.3043 -0.0425  0.3724
 5887SOL     OW23319   3.529   4.443   1.342  0.0804  0.2416  0.3729
 5887SOL    HW223320   3.563   4.437   1.253  0.1920 -1.1296  0.4967
 5887SOL    HW323321   3.523   4.538   1.359  1.0055  0.5146 -0.7157
 5887SOL    MW423322   3.533   4.455   1.333  0.2172  0.0967  0.2456
 5888SOL     OW23323   5.395   4.378   4.462  0.4125 -0.3925 -0.0062
 5888SOL    HW223324   5.383   4.332   4.545 -1.1241 -0.8234 -0.4259
 5888SOL    HW323325   5.311   4.421   4.446  0.8044 -0.0106 -1.1535
 5888SOL    MW423326   5.383   4.378   4.471  0.2615 -0.3990 -0.2130
 5889SOL     OW23327   5.315   5.057   5.223  0.4234  0.4539 -0.5769
 5889SOL    HW223328   5.381   5.092   5.163 -0.2144  1.4098 -0.7338
 5889SOL    HW323329   5.255   5.008   5.167  1.1682 -0.7360 -0.3895
 5889SOL    MW423330   5.316   5.055   5.208  0.4375  0.4230 -0.5729
 5890SOL     OW23331   2.568   0.606   4.716 -0.2543 -0.2005  0.2932
 5890SOL    HW223332   2.625   0.538   4.680 -0.9048 -1.0462  0.8374
 5890SOL    HW323333   2.545   0.660   4.640 -1.2633 -1.7085 -0.5301
 5890SOL    MW423334   2.572   0.604   4.701 -0.4732 -0.5111  0.2564
 5891SOL     OW23335   5.513   1.860   2.185  0.1484  0.8875  0.2308
 5891SOL    HW223336   5.521   1.797   2.114  1.5013  0.4172  0.7823
 5891SOL    HW323337   5.602   1.887   2.204 -0.0927  0.2756  2.4058
 5891SOL    MW423338   5.526   1.855   2.178  0.2951  0.7447  0.5905
 5892SOL     OW23339   3.676   6.430   5.666  0.0691 -0.4165  0.1592
 5892SOL    HW223340   3.721   6.441   5.583 -0.7674  0.0973 -0.2408
 5892SOL    HW323341   3.622   6.509   5.675 -0.5551 -0.8887  0.7419
 5892SOL    MW423342   3.675   6.442   5.656 -0.1236 -0.4110  0.1833
 5893SOL     OW23343   0.305   1.407   1.575  0.5503  0.4402  0.1159
 5893SOL    HW223344   0.266   1.446   1.496 -2.3647  2.1320  2.1921
 5893SOL    HW323345   0.231   1.363   1.618  1.6698  0.8887  2.6693
 5893SOL    MW423346   0.290   1.406   1.570  0.3134  0.7226  0.7267
 5894SOL     OW23347   5.098   1.004   5.212  0.0294 -0.1560 -0.6697
 5894SOL    HW223348   5.010   1.013   5.247 -0.4544  0.1503 -1.9285
 5894SOL    HW323349   5.124   0.914   5.234 -1.0126 -0.6064 -1.2355
 5894SOL    MW423350   5.090   0.993   5.220 -0.1719 -0.1750 -0.9104
 5895SOL     OW23351   1.215   5.548   2.664 -0.4740  0.2965 -0.3847
 5895SOL    HW223352   1.123   5.574   2.661 -1.1252 -1.9130 -1.8089
 5895SOL    HW323353   1.253   5.587   2.585 -0.5068  0.1961 -0.4512
 5895SOL    MW423354   1.208   5.556   2.653 -0.5642 -0.0083 -0.5814
 5896SOL     OW23355   0.712   5.038   1.294  0.4245 -0.1115 -0.0164
 5896SOL    HW223356   0.690   5.099   1.224  0.2415  1.0690  1.0205
 5896SOL    HW323357   0.800   5.063   1.321  0.0965  0.1477  0.8533
 5896SOL    MW423358   0.720   5.050   1.289  0.3571  0.0785  0.2352
 5897SOL     OW23359   1.453   1.709   5.513  0.0931 -0.3890 -0.3329
 5897SOL    HW223360   1.434   1.616   5.502 -1.3975 -0.1174 -0.2372
 5897SOL    HW323361   1.368   1.749   5.534  0.5616  1.0964 -1.0903
 5897SOL    MW423362   1.439   1.702   5.514 -0.0418 -0.1572 -0.4202
 5898SOL     OW23363   4.958   5.739   4.846  0.1029  0.2314 -0.5402
 5898SOL    HW223364   5.016   5.725   4.921 -0.5564 -2.4319 -0.4385
 5898SOL    HW323365   5.015   5.729   4.770  0.4027  1.1036 -0.4514
 5898SOL    MW423366   4.973   5.736   4.846  0.0554 -0.0049 -0.5151
 5899SOL     OW23367   4.622   2.344   3.594  0.6389  0.2283  0.1091
 5899SOL    HW223368   4.601   2.309   3.681  0.3009 -0.9702 -0.4343
 5899SOL    HW323369   4.588   2.278   3.533  1.1913  0.8798 -0.9249
 5899SOL    MW423370   4.614   2.330   3.598  0.6672  0.1561 -0.0990
 5900SOL     OW23371   2.690   5.565   2.695 -0.5991 -0.4971  0.0808
 5900SOL    HW223372   2.753   5.625   2.734  0.1883 -1.7158  0.7322
 5900SOL    HW323373   2.653   5.615   2.622 -0.0380  0.8043  0.6395
 5900SOL    MW423374   2.693   5.580   2.691 -0.4212 -0.4862  0.2404
 5901SOL     OW23375   5.225   1.850   5.961 -0.7294  0.0794 -0.1271
 5901SOL    HW223376   5.304   1.875   5.912 -0.4100 -1.1456 -0.2731
 5901SOL    HW323377   5.217   1.756   5.946 -1.4323 -0.0601  1.0443
 5901SOL    MW423378   5.234   1.841   5.952 -0.7800 -0.1006  0.0082
 5902SOL     OW23379   5.997   1.998   0.606  0.8448 -0.0226  0.2870
 5902SOL    HW223380   6.039   2.081   0.582 -0.0954  0.7690  1.2833
 5902SOL    HW323381   5.922   2.023   0.660  0.1768 -1.5004  0.1091
 5902SOL    MW423382   5.993   2.012   0.610  0.6326 -0.1131  0.3949
 5903SOL     OW23383   1.160   6.210   1.011 -0.1577  0.7512 -0.3867
 5903SOL    HW223384   1.110   6.186   1.089  1.4214  0.2124  0.5092
 5903SOL    HW323385   1.243   6.165   1.022  0.2410  0.9855 -2.2144
 5903SOL    MW423386   1.164   6.201   1.023  0.1032  0.7110 -0.5097
 5904SOL     OW23387   2.538   2.638   2.814  0.0690 -0.2987  0.6759
 5904SOL    HW223388   2.452   2.631   2.772 -0.0589 -0.1309  0.9086
 5904SOL    HW323389   2.600   2.641   2.741 -0.0752 -1.0223  0.5174
 5904SOL    MW423390   2.535   2.638   2.799  0.0331 -0.3720  0.6857
 5905SOL     OW23391   4.517   2.425   5.796 -0.2182 -0.0691  0.1995
 5905SOL    HW223392   4.569   2.506   5.795 -3.1490  1.9967 -1.2501
 5905SOL    HW323393   4.523   2.393   5.706  1.5295 -2.0277  0.9307
 5905SOL    MW423394   4.524   2.432   5.784 -0.3743 -0.0550  0.1047
 5906SOL     OW23395   2.631   3.756   4.585 -0.4031  0.6057  0.1087
 5906SOL    HW223396   2.660   3.676   4.540 -1.5634 -0.6000  1.4132
 5906SOL    HW323397   2.536   3.755   4.575 -0.4829  1.4694  0.7465
 5906SOL    MW423398   2.622   3.745   4.578 -0.5667  0.5606  0.3650
 5907SOL     OW23399   5.521   0.462   6.279 -0.2708  0.3008  1.1992
 5907SOL    HW223400   5.512   0.367   6.280 -1.6976  0.3336 -1.0359
 5907SOL    HW323401   5.613   0.478   6.302  0.3232 -1.6883  0.4098
 5907SOL    MW423402   5.532   0.452   6.282 -0.3807  0.0427  0.8002
 5908SOL     OW23403   0.788   2.719   0.260 -0.3800 -0.1311  0.5673
 5908SOL    HW223404   0.737   2.718   0.341  0.1013  0.5908  0.8913
 5908SOL    HW323405   0.767   2.803   0.219  0.3303  0.0588  0.5711
 5908SOL    MW423406   0.779   2.730   0.265 -0.2228 -0.0108  0.6105
 5909SOL     OW23407   2.692   3.487   0.400  0.4407  0.1151  0.3265
 5909SOL    HW223408   2.686   3.570   0.351  3.1170  1.1617  1.5499
 5909SOL    HW323409   2.748   3.432   0.346  0.5247 -0.0461  0.5786
 5909SOL    MW423410   2.699   3.491   0.386  0.8049  0.2319  0.5212
 5910SOL     OW23411   1.392   1.179   5.879  0.2589 -0.3185 -0.1924
 5910SOL    HW223412   1.333   1.110   5.910 -0.8697  0.0524 -1.4412
 5910SOL    HW323413   1.346   1.260   5.899 -0.5328 -0.0501 -2.7056
 5910SOL    MW423414   1.378   1.180   5.886  0.0055 -0.2342 -0.6887
 5911SOL     OW23415   1.009   5.228   4.854 -1.0530 -0.3656  0.7067
 5911SOL    HW223416   1.010   5.134   4.835  0.5706 -0.6724  2.0557
 5911SOL    HW323417   0.946   5.238   4.925 -0.3808 -0.6422  1.3596
 5911SOL    MW423418   1.001   5.217   4.861 -0.7501 -0.4426  0.9708
 5912SOL     OW23419   1.713   1.036   0.311 -0.1289  0.3062 -0.1970
 5912SOL    HW223420   1.632   1.082   0.335 -0.4138 -0.1853 -0.1946
 5912SOL    HW323421   1.683   0.955   0.270  0.3538  0.8977 -1.7741
 5912SOL    MW423422   1.698   1.031   0.309 -0.1028  0.3194 -0.4047
 5913SOL     OW23423   2.107   1.341   0.431 -0.5595  0.9429 -0.4684
 5913SOL    HW223424   2.072   1.262   0.389 -0.1908  0.7650 -0.4469
 5913SOL    HW323425   2.134   1.311   0.518  0.5105  0.8632 -0.8184
 5913SOL    MW423426   2.106   1.326   0.437 -0.3697  0.9090 -0.5118
 5914SOL     OW23427   2.251   5.371   1.991 -0.6526  0.2910 -0.0603
 5914SOL    HW223428   2.175   5.313   1.987 -1.4260  1.1122  1.5179
 5914SOL    HW323429   2.326   5.314   1.978 -1.3996 -1.0434  1.1034
 5914SOL    MW423430   2.251   5.356   1.989 -0.8532  0.2233  0.3014
 5915SOL     OW23431   1.722   1.431   2.905 -0.1030  0.3894  0.1285
 5915SOL    HW223432   1.708   1.438   3.000  0.3266  3.5936  0.0544
 5915SOL    HW323433   1.671   1.354   2.880  0.1432 -0.8608  2.9905
 5915SOL    MW423434   1.713   1.422   2.915 -0.0138  0.6472  0.4963
 5916SOL     OW23435   0.906   4.323   1.602  0.0438  0.0520  0.0059
 5916SOL    HW223436   0.904   4.305   1.695 -0.7613  0.0216 -0.0132
 5916SOL    HW323437   0.822   4.365   1.583 -0.1086 -0.5963 -0.8295
 5916SOL    MW423438   0.895   4.326   1.611 -0.0825 -0.0375 -0.1068
 5917SOL     OW23439   4.465   3.521   4.299 -0.1183  0.3480 -0.6699
 5917SOL    HW223440   4.435   3.612   4.302 -0.3236  0.3079 -1.3531
 5917SOL    HW323441   4.530   3.519   4.230  2.3933  0.6791  1.5326
 5917SOL    MW423442   4.469   3.532   4.291  0.1860  0.3864 -0.4695
 5918SOL     OW23443   5.032   5.278   5.731  0.4973 -0.8872  0.1828
 5918SOL    HW223444   5.097   5.292   5.662 -0.1167 -1.8580 -0.6190
 5918SOL    HW323445   5.005   5.366   5.757  2.3148 -0.4559  0.7357
 5918SOL    MW423446   5.037   5.291   5.725  0.6561 -0.9584  0.1500
 5919SOL     OW23447   5.769   0.567   6.394 -0.5628  0.0218  0.0976
 5919SOL    HW223448   5.739   0.579   6.484  1.7116  2.5388  0.6448
 5919SOL    HW323449   5.840   0.504   6.400 -1.4036 -0.9954 -0.2334
 5919SOL    MW423450   5.774   0.560   6.407 -0.3737  0.2197  0.1261
 5920SOL     OW23451   2.093   5.133   1.661 -0.5043 -0.4908  0.3691
 5920SOL    HW223452   2.170   5.139   1.605 -1.1183  2.4191 -0.3060
 5920SOL    HW323453   2.126   5.150   1.749 -0.1840 -0.7126  0.2930
 5920SOL    MW423454   2.107   5.136   1.665 -0.5431 -0.1361  0.2700
 5921SOL     OW23455   3.518   0.942   4.281 -0.8804  0.6525  0.0225
 5921SOL    HW223456   3.539   1.008   4.214 -0.2996  0.0181 -0.4328
 5921SOL    HW323457   3.570   0.866   4.256 -1.5674  0.0079  0.5259
 5921SOL    MW423458   3.527   0.941   4.269 -0.8944  0.4837  0.0289
 5922SOL     OW23459   2.802   3.613   3.918  0.4463 -0.1568 -0.6399
 5922SOL    HW223460   2.713   3.623   3.954  1.0063 -1.9157  1.4427
 5922SOL    HW323461   2.788   3.593   3.826 -1.2598  0.7903 -0.6316
 5922SOL    MW423462   2.788   3.612   3.911  0.2951 -0.2639 -0.3640
 5923SOL     OW23463   6.333   0.657   3.044  0.1215 -0.1442 -0.2336
 5923SOL    HW223464   6.251   0.699   3.018  0.3637  0.1497 -0.5365
 5923SOL    HW323465   6.341   0.676   3.137  0.2072  0.4619 -0.3582
 5923SOL    MW423466   6.323   0.665   3.053  0.1648 -0.0255 -0.2900
 5924SOL     OW23467   6.383   5.705   2.059  0.5748  0.3359 -0.2507
 5924SOL    HW223468   6.393   5.775   2.124 -0.3235  0.2532 -0.0083
 5924SOL    HW323469   6.368   5.751   1.976  2.8436  0.4734 -0.6699
 5924SOL    MW423470   6.382   5.720   2.057  0.7556  0.3431 -0.2740
 5925SOL     OW23471   5.117   6.223   1.045  0.3218 -0.1566 -0.0149
 5925SOL    HW223472   5.207   6.250   1.029  0.1384 -0.4266 -1.7692
 5925SOL    HW323473   5.064   6.280   0.989 -0.2886 -2.1643 -1.6182
 5925SOL    MW423474   5.122   6.234   1.036  0.2171 -0.4571 -0.4579
 5926SOL     OW23475   2.576   1.897   5.568 -0.1235 -0.1188 -0.1805
 5926SOL    HW223476   2.655   1.864   5.525 -1.1082 -1.2384 -1.2048
 5926SOL    HW323477   2.569   1.987   5.538  0.5026 -0.1538 -0.4595
 5926SOL    MW423478   2.586   1.904   5.558 -0.1708 -0.2711 -0.3525
 5927SOL     OW23479   5.553   0.750   1.158  0.8019  0.2259  0.0100
 5927SOL    HW223480   5.475   0.741   1.212  1.0579 -1.8488  0.0802
 5927SOL    HW323481   5.609   0.811   1.207  0.2788 -0.2112  1.1825
 5927SOL    MW423482   5.550   0.757   1.172  0.7666 -0.1055  0.1740
 5928SOL     OW23483   5.201   1.966   3.154  0.3681 -0.8991  0.0673
 5928SOL    HW223484   5.244   2.052   3.155 -0.0493 -0.6691 -0.8361
 5928SOL    HW323485   5.114   1.982   3.118  0.3132 -1.7144 -0.1915
 5928SOL    MW423486   5.195   1.979   3.149  0.3058 -0.9763 -0.0860
 5929SOL     OW23487   2.311   0.479   3.773 -0.3805 -0.3330 -0.4362
 5929SOL    HW223488   2.337   0.393   3.742 -1.5560 -0.4480 -1.1794
 5929SOL    HW323489   2.261   0.462   3.853  1.0957 -0.1722  0.5474
 5929SOL    MW423490   2.308   0.465   3.779 -0.3409 -0.3270 -0.4045
 5930SOL     OW23491   3.014   0.693   1.809 -0.3360  0.0710 -0.7546
 5930SOL    HW223492   3.088   0.633   1.795 -1.5022 -1.4699 -0.5160
 5930SOL    HW323493   3.046   0.755   1.875  1.1438  0.1961 -1.5466
 5930SOL    MW423494   3.028   0.694   1.816 -0.2946 -0.1158 -0.8276
 5931SOL     OW23495   0.419   2.925   4.780  0.7815 -0.6241  0.0422
 5931SOL    HW223496   0.418   2.829   4.771 -0.7526 -0.7433  1.0523
 5931SOL    HW323497   0.509   2.950   4.759  1.1708 -2.2639 -0.4295
 5931SOL    MW423498   0.430   2.915   4.776  0.6305 -0.8561  0.1132
 5932SOL     OW23499   3.959   1.961   1.813  0.1234  0.0938 -0.1374
 5932SOL    HW223500   4.049   1.976   1.784  0.0082  0.1566 -0.4666
 5932SOL    HW323501   3.913   1.934   1.734  0.0395 -0.7539  0.1986
 5932SOL    MW423502   3.965   1.960   1.799  0.0971 -0.0098 -0.1365
 5933SOL     OW23503   0.936   5.852   1.602  0.0549 -0.1431  0.7613
 5933SOL    HW223504   0.888   5.872   1.682  2.0448  0.5185  1.8678
 5933SOL    HW323505   1.026   5.837   1.632  0.5434 -1.4160 -1.1874
 5933SOL    MW423506   0.942   5.853   1.617  0.3819 -0.2238  0.6502
 5934SOL     OW23507   0.895   2.474   4.697  0.2807 -0.1183  0.2369
 5934SOL    HW223508   0.873   2.444   4.609  0.0703  1.7249 -0.3915
 5934SOL    HW323509   0.835   2.427   4.755 -0.8809  0.0204 -0.8096
 5934SOL    MW423510   0.884   2.464   4.693  0.0997  0.1432  0.0159
 5935SOL     OW23511   6.278   5.685   0.585  0.0313 -0.2068 -0.3561
 5935SOL    HW223512   6.325   5.698   0.503 -1.8527  2.2980 -1.1839
 5935SOL    HW323513   6.210   5.621   0.563  1.0600 -1.4462 -0.0160
 5935SOL    MW423514   6.275   5.678   0.571 -0.0816 -0.0398 -0.4204
 5936SOL     OW23515   2.825   4.940   1.576 -0.6909  0.0350  0.9232
 5936SOL    HW223516   2.832   4.991   1.495 -0.9132 -1.3631  0.0028
 5936SOL    HW323517   2.898   4.879   1.572 -1.3778 -0.8176  1.2130
 5936SOL    MW423518   2.836   4.939   1.565 -0.8109 -0.2620  0.8400
 5937SOL     OW23519   1.924   0.359   2.635  0.5667 -0.3330 -0.3890
 5937SOL    HW223520   1.866   0.390   2.704  1.6318 -0.7298  0.7226
 5937SOL    HW323521   2.012   0.370   2.671  1.1870  0.0860 -1.9602
 5937SOL    MW423522   1.928   0.364   2.649  0.7891 -0.3301 -0.4496
 5938SOL     OW23523   1.848   6.408   2.880  0.0793  0.1770  0.1972
 5938SOL    HW223524   1.760   6.435   2.905  0.0585 -0.0148  0.3296
 5938SOL    HW323525   1.846   6.405   2.784  0.0651  0.5892  0.1815
 5938SOL    MW423526   1.836   6.412   2.870  0.0747  0.2061  0.2126
 5939SOL     OW23527   0.572   6.224   0.796 -0.4642  0.7790  0.1787
 5939SOL    HW223528   0.567   6.136   0.833 -0.2737  0.5024 -0.4311
 5939SOL    HW323529   0.641   6.218   0.730 -1.4985  0.9685 -0.9548
 5939SOL    MW423530   0.581   6.212   0.792 -0.5755  0.7675 -0.0513
 5940SOL     OW23531   1.871   4.627   5.802  0.4663 -0.1175  1.0787
 5940SOL    HW223532   1.787   4.588   5.779 -0.6514  2.4807  0.4121
 5940SOL    HW323533   1.936   4.570   5.760 -1.0820 -0.9203 -0.3466
 5940SOL    MW423534   1.869   4.614   5.793  0.1145  0.1194  0.8027
 5941SOL     OW23535   2.377   5.248   0.287 -0.1023 -0.2483  0.1365
 5941SOL    HW223536   2.302   5.307   0.290 -0.5058 -0.5668 -1.9896
 5941SOL    HW323537   2.339   5.161   0.298 -0.2328 -0.4910 -1.8530
 5941SOL    MW423538   2.362   5.244   0.289 -0.1728 -0.3224 -0.4065
 5942SOL     OW23539   6.396   5.834   6.167 -0.1045 -0.4401  0.4609
 5942SOL    HW223540   6.308   5.871   6.154 -0.6653 -1.7161  0.5102
 5942SOL    HW323541   6.452   5.911   6.178 -1.4699  0.3819  2.0992
 5942SOL    MW423542   6.391   5.849   6.166 -0.3587 -0.5000  0.6836
 5943SOL     OW23543   2.614   3.470   5.958  0.2086  0.7432 -0.2267
 5943SOL    HW223544   2.621   3.557   5.919  3.2037  0.8235  0.2274
 5943SOL    HW323545   2.529   3.469   6.001  0.6476  4.0071  0.9713
 5943SOL    MW423546   2.604   3.481   5.959  0.6617  1.1844 -0.0088
 5944SOL     OW23547   6.006   2.575   1.224  0.0348  0.1256 -0.8136
 5944SOL    HW223548   6.032   2.484   1.236  0.5336  0.2729 -0.7545
 5944SOL    HW323549   6.026   2.617   1.307 -0.9999  0.1072 -0.5441
 5944SOL    MW423550   6.012   2.569   1.236 -0.0359  0.1426 -0.7703
 5945SOL     OW23551   2.728   4.933   0.014  0.4492  0.3189  0.3926
 5945SOL    HW223552   2.653   4.899   0.063  0.0653  1.4782  0.6435
 5945SOL    HW323553   2.708   4.914  -0.077  0.6681 -0.8996  0.5783
 5945SOL    MW423554   2.715   4.926   0.009  0.4274  0.3111  0.4502
 5946SOL     OW23555   0.142   4.655   1.887  0.3502 -0.5433  0.5632
 5946SOL    HW223556   0.120   4.742   1.853 -1.6065 -0.8608  0.8922
 5946SOL    HW323557   0.077   4.597   1.847 -1.3381 -1.1302  3.8265
 5946SOL    MW423558   0.130   4.659   1.877 -0.1307 -0.6626  1.0372
 5947SOL     OW23559   4.722   2.028   5.024 -0.1650  0.0196 -0.2079
 5947SOL    HW223560   4.718   2.036   5.119  1.9221  0.0699 -0.0755
 5947SOL    HW323561   4.758   1.941   5.009 -2.5451 -0.8975 -1.0652
 5947SOL    MW423562   4.726   2.018   5.035 -0.2037 -0.0947 -0.3035
 5948SOL     OW23563   1.191   2.470   0.926  0.0727  0.2391  0.6541
 5948SOL    HW223564   1.196   2.375   0.926 -0.1417  0.1848 -1.3368
 5948SOL    HW323565   1.259   2.498   0.987 -0.4097 -1.1726  1.9178
 5948SOL    MW423566   1.201   2.461   0.934 -0.0192  0.0457  0.5582
 5949SOL     OW23567   3.905   0.724   0.590  0.1476 -0.1811  0.6065
 5949SOL    HW223568   3.976   0.732   0.653 -0.4375  0.3256  1.2093
 5949SOL    HW323569   3.905   0.808   0.543  0.8914 -0.7282 -0.4186
 5949SOL    MW423570   3.914   0.736   0.592  0.1686 -0.1864  0.5508
 5950SOL     OW23571   3.511   6.377   6.254 -0.8635 -0.0061  0.3001
 5950SOL    HW223572   3.587   6.405   6.202 -0.7010  0.4697  0.7916
 5950SOL    HW323573   3.477   6.457   6.291 -0.2247 -0.4706  1.9684
 5950SOL    MW423574   3.517   6.391   6.252 -0.7578 -0.0046  0.5851
 5951SOL     OW23575   2.351   3.773   1.831  0.6478  0.1925  0.1022
 5951SOL    HW223576   2.349   3.732   1.917  1.0181  1.9237  0.9928
 5951SOL    HW323577   2.443   3.768   1.804  0.7070  0.4804  0.2451
 5951SOL    MW423578   2.363   3.767   1.839  0.7045  0.4589  0.2386
 5952SOL     OW23579   5.090   5.096   2.080 -0.0802  0.0852  0.1246
 5952SOL    HW223580   5.170   5.138   2.112  0.2257  0.2020 -0.7650
 5952SOL    HW323581   5.121   5.017   2.036 -0.7342 -1.9816  3.0570
 5952SOL    MW423582   5.104   5.091   2.079 -0.1261 -0.1721  0.3941
 5953SOL     OW23583   0.906   5.599   4.652  0.5385  0.3246  0.0904
 5953SOL    HW223584   0.927   5.653   4.576 -0.4873  1.1338  0.3516
 5953SOL    HW323585   0.875   5.662   4.717  0.5634 -0.4547  0.8608
 5953SOL    MW423586   0.905   5.615   4.650  0.4064  0.3286  0.2265
 5954SOL     OW23587   0.501   4.902   0.108  0.5673 -0.1012 -0.6027
 5954SOL    HW223588   0.542   4.816   0.100  0.0564 -0.2173 -2.3525
 5954SOL    HW323589   0.548   4.958   0.047  0.2003  0.5811 -0.2735
 5954SOL    MW423590   0.512   4.898   0.099  0.4515 -0.0265 -0.7902
 5955SOL     OW23591   1.953   5.874   5.872  0.0965  0.4239  0.0580
 5955SOL    HW223592   1.931   5.867   5.779  0.5961  2.9891 -0.3325
 5955SOL    HW323593   2.047   5.858   5.875  0.2541  1.2480 -0.0588
 5955SOL    MW423594   1.963   5.871   5.860  0.1832  0.8711 -0.0089
 5956SOL     OW23595   6.421   2.520   0.105  0.5229 -0.5422  0.3581
 5956SOL    HW223596   6.330   2.543   0.127  0.6856  1.2041 -0.6576
 5956SOL    HW323597   6.471   2.600   0.122  1.7852 -1.2959  0.3037
 5956SOL    MW423598   6.415   2.533   0.111  0.7109 -0.4113  0.2169
 5957SOL     OW23599   6.402   4.894   0.240  0.0834 -0.3304  0.4237
 5957SOL    HW223600   6.436   4.973   0.283  2.0032  0.2953 -2.0297
 5957SOL    HW323601   6.372   4.839   0.313  1.3054  1.4660  2.4220
 5957SOL    MW423602   6.403   4.897   0.255  0.4979 -0.0109  0.3637
 5958SOL     OW23603   1.651   3.133   4.617  0.2235  0.1714  0.2523
 5958SOL    HW223604   1.578   3.131   4.680  0.1980  1.4669  0.2815
 5958SOL    HW323605   1.698   3.214   4.637  1.4004 -0.4022 -0.0920
 5958SOL    MW423606   1.647   3.143   4.628  0.3754  0.2667  0.2108
 5959SOL     OW23607   5.642   2.052   0.116  0.2391  0.0950  0.5700
 5959SOL    HW223608   5.628   2.109   0.041  1.1800  2.2443  1.9422
 5959SOL    HW323609   5.717   1.997   0.091  0.9605  1.2368  0.1754
 5959SOL    MW423610   5.650   2.052   0.103  0.4584  0.5292  0.6990
 5960SOL     OW23611   4.452   3.759   6.191  0.6198 -0.4072 -0.7024
 5960SOL    HW223612   4.477   3.750   6.099  0.2785 -0.3905 -0.7991
 5960SOL    HW323613   4.361   3.788   6.188  0.1298 -1.8094 -0.3528
 5960SOL    MW423614   4.443   3.761   6.178  0.5101 -0.5900 -0.6690
 5961SOL     OW23615   0.519   4.056   4.795 -0.7784 -0.2326  0.0887
 5961SOL    HW223616   0.426   4.038   4.810 -0.2440 -1.1004  2.9827
 5961SOL    HW323617   0.521   4.146   4.763 -2.5712 -0.0995  0.2288
 5961SOL    MW423618   0.507   4.066   4.793 -0.9444 -0.3296  0.4890
 5962SOL     OW23619   2.977   3.176   1.989 -0.0229  0.0051  0.5543
 5962SOL    HW223620   3.069   3.199   2.000 -0.4935  1.6414  1.3881
 5962SOL    HW323621   2.957   3.118   2.063  0.1387  0.3643  0.8864
 5962SOL    MW423622   2.986   3.171   2.000 -0.0637  0.2684  0.7082
 5963SOL     OW23623   4.315   5.514   4.813 -0.6279 -0.2931 -0.0629
 5963SOL    HW223624   4.227   5.539   4.840  0.1557  2.5836  0.0748
 5963SOL    HW323625   4.371   5.539   4.887  0.2644 -3.0785  0.3275
 5963SOL    MW423626   4.311   5.520   4.827 -0.4068 -0.2811  0.0067
 5964SOL     OW23627   2.982   3.844   1.482 -0.8913  0.6766  0.0778
 5964SOL    HW223628   3.054   3.908   1.484  0.0300 -0.3294  0.0504
 5964SOL    HW323629   3.026   3.759   1.478 -1.9357 -0.2220  3.7193
 5964SOL    MW423630   2.997   3.841   1.482 -0.9075  0.4253  0.5546
 5965SOL     OW23631   5.943   3.805   2.570 -0.4726  0.1740 -0.1868
 5965SOL    HW223632   6.024   3.769   2.533  0.6025  2.0032  0.2307
 5965SOL    HW323633   5.890   3.728   2.591  1.2329 -1.1018 -0.2943
 5965SOL    MW423634   5.947   3.790   2.568 -0.1058  0.2470 -0.1459
 5966SOL     OW23635   4.774   4.617   6.131 -0.5478 -0.2143  0.8974
 5966SOL    HW223636   4.761   4.711   6.137 -0.5332 -0.1803  0.4008
 5966SOL    HW323637   4.838   4.605   6.062 -1.6415 -0.6587 -0.0721
 5966SOL    MW423638   4.780   4.628   6.123 -0.6902 -0.2685  0.7039
 5967SOL     OW23639   0.823   1.885   1.837 -0.3962  0.1377 -0.0073
 5967SOL    HW223640   0.882   1.950   1.875 -0.4201  0.2536 -0.1729
 5967SOL    HW323641   0.856   1.870   1.749  0.7225 -1.4060  0.6158
 5967SOL    MW423642   0.835   1.891   1.831 -0.2518 -0.0507  0.0531
 5968SOL     OW23643   0.816   2.895   2.842 -0.3396 -0.5983  0.3962
 5968SOL    HW223644   0.808   2.807   2.879  0.0246 -0.0740  1.8094
 5968SOL    HW323645   0.824   2.952   2.918  1.1245  0.4889 -0.5007
 5968SOL    MW423646   0.816   2.891   2.857 -0.0984 -0.3857  0.4643
 5969SOL     OW23647   0.179   4.669   1.251 -0.1450 -0.0705 -0.2259
 5969SOL    HW223648   0.219   4.754   1.267 -2.2987  0.7701  1.1156
 5969SOL    HW323649   0.252   4.607   1.256  1.2010  1.4948  0.5918
 5969SOL    MW423650   0.194   4.672   1.254 -0.2515  0.2469  0.0590
 5970SOL     OW23651   1.572   4.791   1.721  0.0859  0.3422  0.0603
 5970SOL    HW223652   1.482   4.812   1.747  0.7225  1.0044  1.9277
 5970SOL    HW323653   1.588   4.844   1.644 -0.8113  0.9707  0.2928
 5970SOL    MW423654   1.562   4.801   1.715  0.0515  0.5125  0.3373
 5971SOL     OW23655   1.862   6.215   1.997 -0.3070 -0.5170 -0.0906
 5971SOL    HW223656   1.917   6.276   2.046  0.6825 -0.4426 -1.2272
 5971SOL    HW323657   1.893   6.128   2.025 -2.0644 -0.5731  1.9129
 5971SOL    MW423658   1.874   6.211   2.007 -0.4083 -0.5146  0.0237
 5972SOL     OW23659   2.195   0.738   4.966 -0.7544 -0.2365  0.6775
 5972SOL    HW223660   2.159   0.662   5.011 -1.6622 -0.4625 -0.3732
 5972SOL    HW323661   2.149   0.740   4.882  0.5526  0.4285 -0.0527
 5972SOL    MW423662   2.184   0.729   4.961 -0.7017 -0.1786  0.4426
 5973SOL     OW23663   1.889   4.338   3.209 -0.7013 -0.0575  0.3416
 5973SOL    HW223664   1.950   4.328   3.135  0.3303 -0.2586  1.1937
 5973SOL    HW323665   1.846   4.422   3.193  0.7865  0.7581  0.4039
 5973SOL    MW423666   1.891   4.347   3.197 -0.3689  0.0236  0.4622
 5974SOL     OW23667   0.890   0.667   4.287 -0.2034 -0.0833 -0.3642
 5974SOL    HW223668   0.937   0.749   4.297 -0.6222  0.0965  0.2208
 5974SOL    HW323669   0.908   0.639   4.197 -1.2473  1.3975 -1.0723
 5974SOL    MW423670   0.898   0.674   4.277 -0.3964  0.1358 -0.3804
 5975SOL     OW23671   2.233   2.816   2.036 -0.5848  0.0004 -0.4288
 5975SOL    HW223672   2.181   2.826   2.116  0.1549  2.4055 -0.1841
 5975SOL    HW323673   2.324   2.825   2.065 -0.3034  0.8710 -1.5219
 5975SOL    MW423674   2.238   2.818   2.050 -0.4501  0.4326 -0.5408
 5976SOL     OW23675   5.486   0.265   4.521  0.7796  0.0368  0.7814
 5976SOL    HW223676   5.576   0.283   4.549  1.2761  3.2455 -2.1658
 5976SOL    HW323677   5.495   0.194   4.457  1.1090 -0.0862  0.9591
 5976SOL    MW423678   5.499   0.258   4.516  0.8886  0.4439  0.4160
 5977SOL     OW23679   5.807   2.532   5.585 -0.3277 -0.8243  0.2418
 5977SOL    HW223680   5.873   2.491   5.640  0.5314 -0.0057 -0.1417
 5977SOL    HW323681   5.746   2.462   5.563 -0.0859 -1.3972  1.3340
 5977SOL    MW423682   5.808   2.518   5.590 -0.1824 -0.7919  0.3353
 5978SOL     OW23683   3.268   2.068   0.245  0.0135  0.8188 -0.5143
 5978SOL    HW223684   3.233   2.068   0.156  0.7728 -0.8395 -0.8476
 5978SOL    HW323685   3.357   2.100   0.236  0.8812 -1.4674 -0.7580
 5978SOL    MW423686   3.275   2.072   0.232  0.2282  0.2984 -0.5905
 5979SOL     OW23687   1.135   4.032   1.137  0.2231  0.1247  0.1054
 5979SOL    HW223688   1.108   3.940   1.138  0.8426 -0.1041  2.5064
 5979SOL    HW323689   1.227   4.029   1.162  0.4291  1.3767 -0.4564
 5979SOL    MW423690   1.144   4.019   1.141  0.3320  0.2597  0.3481
 5980SOL     OW23691   1.340   4.618   1.323 -0.2081  0.5479  0.1879
 5980SOL    HW223692   1.417   4.589   1.274  1.3832  0.7005  2.4755
 5980SOL    HW323693   1.326   4.549   1.388 -2.8896 -0.1548 -1.0014
 5980SOL    MW423694   1.348   4.605   1.325 -0.3519  0.4753  0.3328
 5981SOL     OW23695   0.945   0.940   1.008 -0.1959  0.3251 -0.1370
 5981SOL    HW223696   1.033   0.918   0.979 -0.3296  0.1798 -0.4502
 5981SOL    HW323697   0.888   0.905   0.939 -0.6514 -1.5964  1.1189
 5981SOL    MW423698   0.949   0.932   0.995 -0.2736  0.0524 -0.0126
 5982SOL     OW23699   1.004   0.983   3.797  0.3061 -0.6870  0.5676
 5982SOL    HW223700   0.942   1.050   3.824  3.3204  1.9742  1.4590
 5982SOL    HW323701   1.040   0.949   3.879  1.2174 -0.9658  0.0601
 5982SOL    MW423702   1.000   0.987   3.811  0.8240 -0.3726  0.6182
 5983SOL     OW23703   5.594   3.678   4.035  0.3415 -0.5965 -0.0961
 5983SOL    HW223704   5.513   3.728   4.036  2.1515  2.5732  0.7799
 5983SOL    HW323705   5.621   3.674   4.127  2.2583  0.4571 -0.5457
 5983SOL    MW423706   5.587   3.684   4.047  0.8332 -0.0393 -0.0398
 5984SOL     OW23707   2.565   6.067   5.090 -0.3994  0.2482  0.6188
 5984SOL    HW223708   2.641   6.047   5.145 -0.6891  3.3733  2.4222
 5984SOL    HW323709   2.491   6.025   5.135 -0.2035  0.1434  0.8430
 5984SOL    MW423710   2.565   6.059   5.103 -0.4118  0.6467  0.8864
 5985SOL     OW23711   3.009   5.078   0.269 -0.0304  0.4715 -0.2477
 5985SOL    HW223712   2.927   5.039   0.300 -0.5280  1.4825 -0.2451
 5985SOL    HW323713   3.033   5.026   0.193 -1.4220  1.0016 -1.0928
 5985SOL    MW423714   3.001   5.066   0.263 -0.2796  0.6748 -0.3589
 5986SOL     OW23715   5.713   2.896   4.286 -0.2220 -0.9598  0.1242
 5986SOL    HW223716   5.766   2.968   4.321  0.4438  0.0205 -2.5863
 5986SOL    HW323717   5.623   2.930   4.286 -0.0696 -0.5442 -0.1132
 5986SOL    MW423718   5.708   2.910   4.291 -0.1141 -0.7756 -0.2647
 5987SOL     OW23719   3.098   3.309   2.725 -0.0132 -0.0191 -0.4372
 5987SOL    HW223720   3.193   3.311   2.718 -0.0462  1.4256 -0.9805
 5987SOL    HW323721   3.078   3.369   2.797 -0.5252 -0.0264 -0.5677
 5987SOL    MW423722   3.108   3.317   2.734 -0.0851  0.1705 -0.5261
 5988SOL     OW23723   4.561   3.172   3.529  0.3404  0.0026  0.7735
 5988SOL    HW223724   4.607   3.108   3.584  1.1844 -0.6885 -0.6721
 5988SOL    HW323725   4.487   3.123   3.492  0.8860 -0.1194 -0.1942
 5988SOL    MW423726   4.557   3.157   3.532  0.5237 -0.1046  0.4551
 5989SOL     OW23727   5.072   3.818   4.001 -0.1121  0.2472 -0.1465
 5989SOL    HW223728   5.095   3.737   3.955  1.0991  1.1472 -1.1716
 5989SOL    HW323729   5.101   3.803   4.091  1.2310 -0.0270 -0.6046
 5989SOL    MW423730   5.079   3.805   4.007  0.2249  0.3298 -0.3422
 5990SOL     OW23731   1.929   2.025   3.949  0.1419  0.5906 -0.2735
 5990SOL    HW223732   1.901   1.934   3.958 -0.3791  0.6904 -0.8252
 5990SOL    HW323733   1.925   2.042   3.855  1.8297  0.6940 -0.3455
 5990SOL    MW423734   1.925   2.015   3.938  0.2958  0.6174 -0.3558
 5991SOL     OW23735   0.114   3.467   5.409  0.3988  0.5228  0.0642
 5991SOL    HW223736   0.081   3.427   5.489 -0.2229  2.9366  1.1071
 5991SOL    HW323737   0.208   3.477   5.424  0.1861  1.5668  0.8269
 5991SOL    MW423738   0.122   3.463   5.421  0.2887  0.9790  0.3024
 5992SOL     OW23739   0.488   0.690   3.841 -0.1860 -0.4923  0.4595
 5992SOL    HW223740   0.426   0.682   3.913 -1.0956  2.3708  0.1317
 5992SOL    HW323741   0.439   0.733   3.771  0.8159 -2.7144 -1.7490
 5992SOL    MW423742   0.474   0.695   3.842 -0.1739 -0.4078  0.1248
 5993SOL     OW23743   5.392   3.631   0.391 -0.0642  0.1623 -0.9294
 5993SOL    HW223744   5.347   3.548   0.379 -1.3401  0.5192  1.0112
 5993SOL    HW323745   5.473   3.608   0.436  0.5861 -0.2189 -2.2502
 5993SOL    MW423746   5.397   3.617   0.395 -0.1467  0.1591 -0.8476
 5994SOL     OW23747   1.376   6.360   3.995  0.1361 -0.3932  0.1888
 5994SOL    HW223748   1.354   6.285   4.051  1.3509  0.6663  2.2284
 5994SOL    HW323749   1.385   6.434   4.056 -0.6380  1.3646 -1.6840
 5994SOL    MW423750   1.374   6.360   4.011  0.1942 -0.0215  0.2108
 5995SOL     OW23751   1.596   6.035   3.021  0.6667  0.2966 -0.7096
 5995SOL    HW223752   1.530   6.094   2.984  0.8031  1.3028  0.5749
 5995SOL    HW323753   1.674   6.049   2.968  0.6547  1.1794 -0.4987
 5995SOL    MW423754   1.598   6.044   3.009  0.6831  0.5459 -0.5123
 5996SOL     OW23755   0.557   4.617   1.911  0.2977 -0.0064  0.3196
 5996SOL    HW223756   0.500   4.609   1.834 -1.0797 -1.7670  1.4277
 5996SOL    HW323757   0.646   4.616   1.876 -0.3169  0.9170 -1.3494
 5996SOL    MW423758   0.561   4.616   1.897  0.0349 -0.1168  0.2456
 5997SOL     OW23759   0.762   3.132   3.932 -0.1342 -0.1836 -0.1760
 5997SOL    HW223760   0.753   3.203   3.995 -1.2799 -1.1990  0.8351
 5997SOL    HW323761   0.742   3.173   3.847 -1.5249  0.5593  0.4756
 5997SOL    MW423762   0.758   3.147   3.929 -0.4689 -0.2195  0.0434
 5998SOL     OW23763   2.504   4.020   4.325 -0.4084 -0.1253  0.2438
 5998SOL    HW223764   2.511   4.066   4.241  3.3690  0.6939  0.8022
 5998SOL    HW323765   2.494   4.089   4.390  0.6045 -0.4085  0.7261
 5998SOL    MW423766   2.504   4.035   4.322  0.2236 -0.0546  0.3811
 5999SOL     OW23767   1.174   0.418   0.399  0.0030  0.1757 -0.6410
 5999SOL    HW223768   1.208   0.343   0.448  0.9162  0.4981 -0.7516
 5999SOL    HW323769   1.250   0.449   0.349 -0.0984  1.7723  0.1357
 5999SOL    MW423770   1.189   0.412   0.399  0.1101  0.4289 -0.5531
 6000SOL     OW23771   0.813   2.218   5.375  0.2206  0.3657  0.0483
 6000SOL    HW223772   0.808   2.125   5.357 -0.8345  0.4325 -0.0548
 6000SOL    HW323773   0.731   2.238   5.421 -0.0373  1.4213 -0.8239
 6000SOL    MW423774   0.801   2.209   5.379  0.0474  0.5138 -0.0804
 6001SOL     OW23775   1.328   1.651   0.593 -0.2756 -0.6452  0.0444
 6001SOL    HW223776   1.393   1.706   0.635 -1.1404  1.1527 -0.8615
 6001SOL    HW323777   1.377   1.603   0.526 -0.0737  2.0355 -1.8853
 6001SOL    MW423778   1.343   1.652   0.590 -0.3630 -0.0543 -0.3297
 6002SOL     OW23779   6.408   2.075   3.048  0.3460 -0.2236 -0.2277
 6002SOL    HW223780   6.329   2.127   3.064  0.5425  0.2246 -0.7252
 6002SOL    HW323781   6.379   1.984   3.060 -0.1206 -0.0361  0.1094
 6002SOL    MW423782   6.394   2.070   3.052  0.3104 -0.1397 -0.2488
 6003SOL     OW23783   3.546   0.248   5.713 -0.5005 -1.0694 -0.0256
 6003SOL    HW223784   3.616   0.312   5.706  0.8837 -2.5500 -0.2588
 6003SOL    HW323785   3.470   0.299   5.742  1.0032  0.3399  1.6817
 6003SOL    MW423786   3.545   0.263   5.716 -0.1195 -1.0788  0.1689
 6004SOL     OW23787   4.503   1.138   5.274  0.3883 -0.3421  0.1923
 6004SOL    HW223788   4.494   1.163   5.366  1.2196 -0.4036  0.2900
 6004SOL    HW323789   4.454   1.205   5.226  2.3104  1.3531  0.4607
 6004SOL    MW423790   4.495   1.150   5.280  0.7516 -0.1266  0.2406
 6005SOL     OW23791   2.142   0.130   2.993  0.2240 -0.0869  0.0190
 6005SOL    HW223792   2.059   0.082   2.996 -0.9921  1.9893  1.4057
 6005SOL    HW323793   2.189   0.100   3.071  0.2990 -0.4154 -0.1492
 6005SOL    MW423794   2.137   0.119   3.003  0.0734  0.1437  0.1798
 6006SOL     OW23795   1.958   4.248   3.727 -0.8037 -0.2345 -0.1406
 6006SOL    HW223796   1.980   4.161   3.696  1.7213 -0.1749  1.2385
 6006SOL    HW323797   1.924   4.235   3.815  1.3793  0.2188  0.8377
 6006SOL    MW423798   1.956   4.235   3.734 -0.1825 -0.1668  0.1704
 6007SOL     OW23799   5.988   5.748   5.676  0.2435  0.3465 -0.5879
 6007SOL    HW223800   6.048   5.717   5.608  0.1688 -0.2497 -0.3879
 6007SOL    HW323801   5.936   5.816   5.633  0.4722  0.2587 -1.0075
 6007SOL    MW423802   5.989   5.753   5.661  0.2638  0.2562 -0.6168
 6008SOL     OW23803   1.997   0.803   1.872 -0.3305  0.2091  0.0156
 6008SOL    HW223804   2.012   0.733   1.936 -0.1903  1.3259  1.2400
 6008SOL    HW323805   1.994   0.758   1.787  0.9265 -1.1349  0.6484
 6008SOL    MW423806   1.999   0.788   1.869 -0.1461  0.1792  0.2607
 6009SOL     OW23807   0.830   4.514   2.651  0.2013 -0.7000  0.2714
 6009SOL    HW223808   0.844   4.528   2.557 -2.1076  0.7400  0.0470
 6009SOL    HW323809   0.835   4.419   2.663  2.3827 -0.7995 -0.9080
 6009SOL    MW423810   0.833   4.504   2.640  0.1845 -0.5232  0.0862
 6010SOL     OW23811   0.021   5.592   2.593  0.5969  0.4552 -0.4215
 6010SOL    HW223812  -0.023   5.668   2.633  2.1325  1.7158 -1.0233
 6010SOL    HW323813   0.091   5.631   2.540  0.4471 -1.3190 -1.9905
 6010SOL    MW423814   0.024   5.607   2.591  0.7798  0.3874 -0.7080
 6011SOL     OW23815   3.774   1.324   1.876 -0.0562 -0.0365 -0.0675
 6011SOL    HW223816   3.824   1.394   1.918 -0.2600  0.8350 -1.2219
 6011SOL    HW323817   3.769   1.255   1.942 -0.4668  1.3075  1.3626
 6011SOL    MW423818   3.780   1.324   1.890 -0.1373  0.2558 -0.0312
 6012SOL     OW23819   3.046   5.936   0.138  0.2078 -0.1522 -0.1615
 6012SOL    HW223820   3.018   6.009   0.083  0.1213  0.0905  0.2030
 6012SOL    HW323821   3.125   5.969   0.182 -0.2821  0.0138  0.6119
 6012SOL    MW423822   3.053   5.950   0.136  0.1318 -0.0983 -0.0114
 6013SOL     OW23823   1.498   0.316   2.082 -0.0706 -0.1324 -0.0309
 6013SOL    HW223824   1.475   0.403   2.049  1.6998  1.2185  2.0711
 6013SOL    HW323825   1.547   0.275   2.010 -1.2357  0.4123 -1.1772
 6013SOL    MW423826   1.501   0.322   2.068  0.0092  0.1177  0.0952
 6014SOL     OW23827   0.500   2.580   2.682 -0.3781  0.1600 -0.0867
 6014SOL    HW223828   0.542   2.585   2.597  0.9363 -1.3691  0.4279
 6014SOL    HW323829   0.427   2.641   2.676 -0.9895 -0.6801 -2.6826
 6014SOL    MW423830   0.496   2.588   2.670 -0.2854 -0.1526 -0.3613
 6015SOL     OW23831   5.515   3.485   1.291 -0.2047  0.2390 -0.0716
 6015SOL    HW223832   5.438   3.531   1.325  0.8967  3.0428 -1.0654
 6015SOL    HW323833   5.551   3.439   1.367 -2.8578 -1.2814  0.3810
 6015SOL    MW423834   5.510   3.485   1.305 -0.4095  0.4083 -0.1430
 6016SOL     OW23835   5.480   3.063   4.237 -0.0794  0.1745 -0.5572
 6016SOL    HW223836   5.408   3.010   4.268 -0.4359  0.2101 -1.3071
 6016SOL    HW323837   5.529   3.087   4.317 -1.1617  0.5609  0.0105
 6016SOL    MW423838   5.477   3.059   4.252 -0.2692  0.2302 -0.5812
 6017SOL     OW23839   3.998   5.738   5.081 -0.2930  0.0649  0.1833
 6017SOL    HW223840   3.922   5.774   5.034 -0.8108  0.1291  1.0439
 6017SOL    HW323841   4.028   5.665   5.027  0.0719  1.0586 -1.0203
 6017SOL    MW423842   3.992   5.733   5.068 -0.3131  0.2045  0.1381
 6018SOL     OW23843   3.181   4.514   0.726 -0.2648  0.1612 -0.2955
 6018SOL    HW223844   3.182   4.451   0.654 -1.0877 -0.7170  0.4329
 6018SOL    HW323845   3.095   4.502   0.767  0.1506  0.7120  0.7645
 6018SOL    MW423846   3.170   4.504   0.722 -0.3186  0.1180 -0.0595
 6019SOL     OW23847   0.466   1.601   0.350 -0.0184 -0.3030 -0.1431
 6019SOL    HW223848   0.496   1.533   0.410 -0.4467  0.9588  1.5541
 6019SOL    HW323849   0.491   1.683   0.392 -0.9092  0.6367 -1.3931
 6019SOL    MW423850   0.473   1.602   0.363 -0.1924 -0.0126 -0.0841
 6020SOL     OW23851   1.025   2.479   1.146 -0.0795  0.3625 -0.4530
 6020SOL    HW223852   1.084   2.477   1.071  1.9167 -0.6668  1.0357
 6020SOL    HW323853   1.065   2.541   1.207 -0.7219 -0.0870  0.4526
 6020SOL    MW423854   1.038   2.487   1.144  0.0991  0.1674 -0.1371
 6021SOL     OW23855   5.173   5.362   5.526  0.2212 -0.2906 -0.2309
 6021SOL    HW223856   5.105   5.421   5.495 -1.1100 -2.2376 -1.2601
 6021SOL    HW323857   5.245   5.419   5.551 -0.7677  1.7190 -1.6832
 6021SOL    MW423858   5.174   5.377   5.525 -0.0849 -0.2824 -0.5583
 6022SOL     OW23859   1.491   5.160   3.655 -0.7074 -0.3324 -0.0947
 6022SOL    HW223860   1.483   5.226   3.586 -0.0526  1.5525  1.5458
 6022SOL    HW323861   1.401   5.135   3.676 -0.9137 -1.0400 -1.6677
 6022SOL    MW423862   1.478   5.165   3.648 -0.6482 -0.1771 -0.0858
 6023SOL     OW23863   3.991   2.211   6.158  0.1978 -0.2313  0.0335
 6023SOL    HW223864   4.009   2.228   6.065 -1.3025 -0.3872 -0.3085
 6023SOL    HW323865   4.044   2.135   6.179  0.4351 -0.2906 -0.7456
 6023SOL    MW423866   4.000   2.203   6.148  0.0312 -0.2597 -0.1145
 6024SOL     OW23867   1.152   4.632   0.247  0.0290  0.0978  0.4922
 6024SOL    HW223868   1.057   4.637   0.247 -0.0167 -0.4700  1.3538
 6024SOL    HW323869   1.181   4.713   0.204 -0.8206  0.7310  1.0840
 6024SOL    MW423870   1.143   4.643   0.241 -0.0891  0.1064  0.6839
 6025SOL     OW23871   1.673   3.686   5.775  0.1997  0.4400  0.2109
 6025SOL    HW223872   1.617   3.622   5.731  0.4328  0.0201  0.5129
 6025SOL    HW323873   1.619   3.765   5.781  0.7662  1.1178 -2.4343
 6025SOL    MW423874   1.659   3.688   5.770  0.3052  0.4740 -0.0982
 6026SOL     OW23875   3.842   4.159   3.377 -0.1399 -0.6026  0.1212
 6026SOL    HW223876   3.859   4.078   3.425  0.8753 -1.3891 -1.4773
 6026SOL    HW323877   3.756   4.147   3.338  0.7399 -1.7098 -1.5696
 6026SOL    MW423878   3.833   4.147   3.378  0.1101 -0.8524 -0.3128
 6027SOL     OW23879   5.682   0.238   2.909 -0.0089 -0.1858  0.5815
 6027SOL    HW223880   5.656   0.167   2.967  1.3844 -0.6511  0.6793
 6027SOL    HW323881   5.752   0.283   2.956  0.5659 -0.0628 -0.3652
 6027SOL    MW423882   5.688   0.234   2.922  0.2508 -0.2309  0.4695
 6028SOL     OW23883   1.932   3.678   4.647 -0.5155  0.2250 -0.3101
 6028SOL    HW223884   1.913   3.681   4.554  0.0949  1.0816 -0.4129
 6028SOL    HW323885   1.956   3.767   4.671  0.0861 -0.1349  0.5045
 6028SOL    MW423886   1.933   3.690   4.638 -0.3556  0.2906 -0.2162
 6029SOL     OW23887   0.623   3.970   3.779  0.1779  0.0104 -0.2982
 6029SOL    HW223888   0.551   3.914   3.748 -2.3409  2.0642  1.4213
 6029SOL    HW323889   0.583   4.027   3.844  3.3748  1.4906  0.5809
 6029SOL    MW423890   0.608   3.970   3.783  0.2673  0.4767  0.0447
 6030SOL     OW23891   4.198   6.412   5.079  0.3766 -0.3524  0.3715
 6030SOL    HW223892   4.221   6.367   5.160 -0.1751 -1.2654  0.0393
 6030SOL    HW323893   4.103   6.402   5.072 -0.1566  2.8766  1.4593
 6030SOL    MW423894   4.188   6.405   5.088  0.2334 -0.0468  0.4712
 6031SOL     OW23895   6.211   5.155   0.741  0.0596  0.5236  0.0209
 6031SOL    HW223896   6.220   5.066   0.706  0.1489  0.5967 -0.1454
 6031SOL    HW323897   6.134   5.151   0.797  0.4293  0.1839  0.5138
 6031SOL    MW423898   6.202   5.142   0.744  0.1202  0.4884  0.0640
 6032SOL     OW23899   1.698   5.022   6.171  0.1939 -0.0152  0.2561
 6032SOL    HW223900   1.613   5.060   6.192  0.4457  0.2132  0.8999
 6032SOL    HW323901   1.684   4.927   6.173  0.1113  0.0087  1.0556
 6032SOL    MW423902   1.685   5.015   6.174  0.2162  0.0181  0.4465
 6033SOL     OW23903   0.471   2.603   4.270 -0.0293 -1.0992  0.1125
 6033SOL    HW223904   0.437   2.607   4.180  0.3564 -1.6338 -0.0592
 6033SOL    HW323905   0.413   2.660   4.320 -0.7031 -1.3816 -0.3358
 6033SOL    MW423906   0.459   2.611   4.265 -0.0673 -1.2070  0.0307
 6034SOL     OW23907   0.729   5.596   5.023 -0.0077  0.7885  0.0614
 6034SOL    HW223908   0.783   5.613   5.101  0.7516  0.5398 -0.3933
 6034SOL    HW323909   0.645   5.638   5.041 -0.7814 -1.3977  2.1219
 6034SOL    MW423910   0.725   5.603   5.036 -0.0096  0.4672  0.2733
 6035SOL     OW23911   6.077   4.839   4.476  0.6232 -0.2053 -0.1024
 6035SOL    HW223912   5.991   4.881   4.481  0.6258 -0.1253 -0.7088
 6035SOL    HW323913   6.079   4.798   4.390  1.6084  0.7091 -0.5266
 6035SOL    MW423914   6.066   4.839   4.465  0.7536 -0.0741 -0.2384
 6036SOL     OW23915   1.816   5.409   5.242  0.2113  0.7292 -0.1371
 6036SOL    HW223916   1.900   5.442   5.208  0.2054  0.7339 -0.1470
 6036SOL    HW323917   1.817   5.433   5.335  0.2672  0.6362 -0.1134
 6036SOL    MW423918   1.827   5.417   5.250  0.2179  0.7176 -0.1352
 6037SOL     OW23919   6.397   2.203   3.782 -0.1636  0.1504 -0.6265
 6037SOL    HW223920   6.455   2.248   3.843  0.2299  0.0011 -0.8902
 6037SOL    HW323921   6.318   2.257   3.780 -0.2533  0.0497  0.1623
 6037SOL    MW423922   6.394   2.217   3.790 -0.1235  0.1174 -0.5572
 6038SOL     OW23923   6.366   1.701   1.529  0.0759 -0.2867 -0.2849
 6038SOL    HW223924   6.374   1.648   1.608 -1.0750  0.4745  0.3542
 6038SOL    HW323925   6.279   1.682   1.496 -0.4252  1.3190  0.0428
 6038SOL    MW423926   6.356   1.691   1.535 -0.1421  0.0256 -0.1573
 6039SOL     OW23927   3.797   3.067   1.264  0.3926  0.2765 -0.4210
 6039SOL    HW223928   3.852   2.998   1.227  2.2115  1.4500 -0.0313
 6039SOL    HW323929   3.712   3.024   1.279  1.3326 -1.7571 -0.5175
 6039SOL    MW423930   3.793   3.052   1.261  0.7566  0.1630 -0.3823
 6040SOL     OW23931   2.485   0.087   0.504  0.1071  0.6238 -0.1906
 6040SOL    HW223932   2.517   0.175   0.487 -1.6593  1.0868 -1.3463
 6040SOL    HW323933   2.534   0.032   0.443  0.0826  1.0392 -0.5910
 6040SOL    MW423934   2.496   0.091   0.494 -0.1292  0.7397 -0.3959
 6041SOL     OW23935   1.549   5.689   3.836 -0.2657  0.0676  0.3005
 6041SOL    HW223936   1.557   5.698   3.741 -0.4119  0.8580  0.3615
 6041SOL    HW323937   1.532   5.596   3.850 -1.4944  0.1473 -0.5342
 6041SOL    MW423938   1.548   5.678   3.826 -0.4471  0.1824  0.1984
 6042SOL     OW23939   2.060   5.416   4.667  0.0442 -0.8162 -0.4149
 6042SOL    HW223940   2.067   5.323   4.646 -1.7468 -0.7669 -1.4277
 6042SOL    HW323941   2.095   5.460   4.589  0.1412 -0.6457 -0.2745
 6042SOL    MW423942   2.065   5.410   4.654 -0.1793 -0.7872 -0.5300
 6043SOL     OW23943   1.139   2.735   4.537 -0.4774 -0.5098 -0.4242
 6043SOL    HW223944   1.209   2.676   4.507 -0.0566 -0.0321 -0.3959
 6043SOL    HW323945   1.176   2.823   4.526 -0.9835 -0.2638 -0.1689
 6043SOL    MW423946   1.153   2.739   4.532 -0.4886 -0.4143 -0.3868
 6044SOL     OW23947   2.541   0.952   4.567  0.2148  0.2845  0.2132
 6044SOL    HW223948   2.464   0.922   4.521  2.0441  0.4452 -3.2428
 6044SOL    HW323949   2.526   1.046   4.581 -0.7900  0.0293  0.9109
 6044SOL    MW423950   2.529   0.960   4.563  0.3236  0.2720 -0.1508
 6045SOL     OW23951   2.255   4.716   1.477  0.7907  0.6364 -0.3156
 6045SOL    HW223952   2.170   4.683   1.506  0.9494  1.6419  1.4591
 6045SOL    HW323953   2.317   4.646   1.498  0.6000  0.5039 -0.1987
 6045SOL    MW423954   2.252   4.703   1.484  0.7865  0.7516 -0.0660
 6046SOL     OW23955   0.891   2.191   2.354  0.4040 -0.3383 -0.0145
 6046SOL    HW223956   0.862   2.268   2.402 -0.0930 -0.4225 -0.1718
 6046SOL    HW323957   0.865   2.208   2.263  2.4268  0.3812 -0.5245
 6046SOL    MW423958   0.884   2.203   2.348  0.6053 -0.2545 -0.1025
 6047SOL     OW23959   3.917   2.960   3.117 -0.3442  0.0244 -0.2904
 6047SOL    HW223960   3.838   2.933   3.070 -0.4476  0.2805 -0.2651
 6047SOL    HW323961   3.899   3.050   3.143  0.3228  0.3830 -1.0532
 6047SOL    MW423962   3.904   2.968   3.115 -0.2699  0.1055 -0.3877
 6048SOL     OW23963   4.353   3.511   5.473 -0.0579  0.1200  0.0808
 6048SOL    HW223964   4.417   3.454   5.516  1.0437  1.3609  0.1563
 6048SOL    HW323965   4.277   3.455   5.459  0.7012 -1.1567  0.8261
 6048SOL    MW423966   4.351   3.496   5.477  0.1876  0.1153  0.1891
 6049SOL     OW23967   6.318   2.474   1.281 -0.3415  0.5522  0.4066
 6049SOL    HW223968   6.260   2.485   1.356 -0.6011 -1.6830  0.6050
 6049SOL    HW323969   6.389   2.417   1.312  0.2483  0.6530 -0.6806
 6049SOL    MW423970   6.320   2.468   1.295 -0.2979  0.2706  0.2894
 6050SOL     OW23971   5.980   1.220   6.201  0.6630  0.8457  0.1102
 6050SOL    HW223972   5.935   1.178   6.127 -1.4125  1.0231  1.1959
 6050SOL    HW323973   6.031   1.290   6.161  1.8318 -0.7726 -1.4126
 6050SOL    MW423974   5.981   1.224   6.186  0.5434  0.6556  0.0525
 6051SOL     OW23975   4.119   2.793   3.111  0.1650 -0.0088 -0.4261
 6051SOL    HW223976   4.056   2.864   3.102  0.4600  0.5096  1.3163
 6051SOL    HW323977   4.126   2.778   3.205  2.5578 -0.1245 -0.5615
 6051SOL    MW423978   4.112   2.800   3.122  0.5196  0.0444 -0.2141
 6052SOL     OW23979   4.269   4.563   3.254 -0.2011  0.8343  0.1297
 6052SOL    HW223980   4.198   4.498   3.248  1.9676 -1.7261  0.3826
 6052SOL    HW323981   4.238   4.637   3.202 -1.7166 -1.4963 -2.5826
 6052SOL    MW423982   4.255   4.564   3.247 -0.1150  0.1890 -0.1948
 6053SOL     OW23983   3.931   2.624   6.283  0.0343 -0.0067 -0.0319
 6053SOL    HW223984   3.998   2.577   6.232  0.3585 -1.2940  1.5097
 6053SOL    HW323985   3.937   2.714   6.252  1.0243 -0.5027 -1.4169
 6053SOL    MW423986   3.940   2.629   6.272  0.2077 -0.2420 -0.0112
 6054SOL     OW23987   2.817   5.113   1.780  0.3060  0.2505  0.2650
 6054SOL    HW223988   2.832   5.037   1.723 -0.9752 -0.8641  1.3529
 6054SOL    HW323989   2.770   5.175   1.724 -1.7398 -1.1898  0.2893
 6054SOL    MW423990   2.813   5.112   1.765 -0.1330 -0.0866  0.4118
 6055SOL     OW23991   0.607   5.850   6.374 -0.3870 -0.0708 -0.1195
 6055SOL    HW223992   0.559   5.865   6.456 -0.6542  0.6192 -0.3996
 6055SOL    HW323993   0.633   5.937   6.345 -1.4007 -0.1773 -1.4331
 6055SOL    MW423994   0.604   5.863   6.381 -0.5560  0.0062 -0.3297
 6056SOL     OW23995   2.319   1.234   3.076 -0.4601 -0.1464 -0.3530
 6056SOL    HW223996   2.373   1.312   3.063 -0.2710 -0.4599 -1.5686
 6056SOL    HW323997   2.267   1.253   3.154  0.7940  0.5070  0.3529
 6056SOL    MW423998   2.320   1.247   3.084 -0.2697 -0.1016 -0.4202
 6057SOL     OW23999   4.877   3.536   1.019  0.0651  0.0641  0.1558
 6057SOL    HW224000   4.926   3.597   0.963 -0.3760 -0.5018 -0.8730
 6057SOL    HW324001   4.799   3.585   1.046  0.1710  0.2666  0.0933
 6057SOL    MW424002   4.873   3.551   1.015  0.0209  0.0162  0.0118
 6058SOL     OW24003   3.282   5.692   0.876 -0.3162  0.0836  0.1334
 6058SOL    HW224004   3.210   5.653   0.827 -0.1559 -1.9622  1.4136
 6058SOL    HW324005   3.331   5.743   0.811 -0.6626 -1.7015 -1.6057
 6058SOL    MW424006   3.279   5.694   0.861 -0.3408 -0.4218  0.0728
 6059SOL     OW24007   4.961   0.547   3.948  0.1609  0.7030  0.3572
 6059SOL    HW224008   4.889   0.490   3.975  0.1226 -0.7511 -2.4460
 6059SOL    HW324009   4.919   0.616   3.897  0.7093 -0.3204 -1.5479
 6059SOL    MW424010   4.946   0.549   3.945  0.2282  0.3761 -0.2640
 6060SOL     OW24011   0.805   5.491   2.154  0.0881  0.0703 -0.3310
 6060SOL    HW224012   0.759   5.439   2.088 -0.6707 -0.6318  0.7139
 6060SOL    HW324013   0.753   5.571   2.161 -0.3818 -0.2640  0.0840
 6060SOL    MW424014   0.792   5.495   2.146 -0.0740 -0.0664 -0.1384
 6061SOL     OW24015   4.803   0.801   3.905  0.0775 -0.1433 -0.4939
 6061SOL    HW224016   4.802   0.844   3.819  1.1755 -0.4309 -0.6700
 6061SOL    HW324017   4.857   0.859   3.959 -1.7699  0.7895  0.4363
 6061SOL    MW424018   4.810   0.815   3.900 -0.0214 -0.0582 -0.3944
 6062SOL     OW24019   0.049   1.107   5.652 -0.1652 -0.1905 -0.2309
 6062SOL    HW224020  -0.013   1.073   5.716  0.1789 -1.0693 -0.3503
 6062SOL    HW324021   0.112   1.157   5.704 -1.5613  1.6668 -0.2195
 6062SOL    MW424022   0.049   1.109   5.667 -0.3040 -0.0614 -0.2451
 6063SOL     OW24023   2.289   1.354   3.749 -0.4511 -0.2850 -0.4860
 6063SOL    HW224024   2.227   1.291   3.711 -0.6793 -0.3102 -0.0792
 6063SOL    HW324025   2.363   1.353   3.689 -0.6388 -0.6177 -0.7210
 6063SOL    MW424026   2.291   1.345   3.736 -0.5060 -0.3322 -0.4633
 6064SOL     OW24027   6.114   1.282   2.391  0.7971  0.7609 -0.9177
 6064SOL    HW224028   6.131   1.260   2.483 -1.5128  3.1409  0.2072
 6064SOL    HW324029   6.170   1.222   2.342  2.4519 -0.3282  2.0184
 6064SOL    MW424030   6.124   1.271   2.397  0.7107  0.9312 -0.3819
 6065SOL     OW24031   5.876   5.595   6.279 -0.4132 -0.6399  0.6602
 6065SOL    HW224032   5.840   5.683   6.268  1.3608  0.2014  1.3604
 6065SOL    HW324033   5.970   5.605   6.266 -0.3306 -2.7418 -0.8897
 6065SOL    MW424034   5.883   5.608   6.276 -0.1682 -0.8062  0.5481
 6066SOL     OW24035   2.026   6.425   5.078  0.2271 -0.3058  0.0369
 6066SOL    HW224036   2.107   6.405   5.124  0.4637 -1.6466 -0.9043
 6066SOL    HW324037   2.032   6.376   4.996 -1.5500 -0.4994 -0.0269
 6066SOL    MW424038   2.037   6.416   5.073  0.0239 -0.5082 -0.0957
 6067SOL     OW24039   4.636   2.989   0.885 -0.0443  0.2840  0.6549
 6067SOL    HW224040   4.615   2.896   0.893 -1.6978  0.5015 -0.5514
 6067SOL    HW324041   4.588   3.031   0.956 -2.3877  0.5646 -0.9746
 6067SOL    MW424042   4.627   2.982   0.895 -0.5716  0.3497  0.2807
 6068SOL     OW24043   3.194   1.101   1.108  0.0530 -0.3737  0.1798
 6068SOL    HW224044   3.142   1.169   1.065 -0.5066 -0.3601  0.8847
 6068SOL    HW324045   3.283   1.136   1.107 -0.3830  0.8517  1.4595
 6068SOL    MW424046   3.199   1.115   1.102 -0.0783 -0.2102  0.4416
 6069SOL     OW24047   3.524   3.746   3.909  0.0105 -0.4090 -0.3059
 6069SOL    HW224048   3.597   3.744   3.970  0.4390  0.7092 -0.7654
 6069SOL    HW324049   3.448   3.767   3.964  0.1207 -0.9583  0.0718
 6069SOL    MW424050   3.523   3.748   3.924  0.0816 -0.3340 -0.3167
 6070SOL     OW24051   5.161   3.305   2.419 -0.9129  0.3041  0.0186
 6070SOL    HW224052   5.076   3.287   2.377 -1.1797  1.0661  0.2259
 6070SOL    HW324053   5.200   3.218   2.430 -2.2863 -0.2065  1.2412
 6070SOL    MW424054   5.155   3.291   2.415 -1.1293  0.3373  0.2073
 6071SOL     OW24055   3.013   0.989   2.429 -0.6189  0.3946 -0.2893
 6071SOL    HW224056   3.105   0.997   2.453 -0.6847 -0.6575  0.3902
 6071SOL    HW324057   2.985   1.078   2.408  0.5847  0.7068 -0.6362
 6071SOL    MW424058   3.021   1.001   2.429 -0.4688  0.2970 -0.2454
 6072SOL     OW24059   4.781   0.959   4.765  0.6966 -0.0601  0.4690
 6072SOL    HW224060   4.843   0.900   4.807 -0.7151 -1.8051  0.2305
 6072SOL    HW324061   4.725   0.990   4.837  0.3176 -0.4661  0.3563
 6072SOL    MW424062   4.782   0.956   4.780  0.4604 -0.3439  0.4227
 6073SOL     OW24063   2.317   3.146   3.450  0.2642 -0.6458  0.0620
 6073SOL    HW224064   2.277   3.223   3.408 -0.0246 -2.7791 -4.1209
 6073SOL    HW324065   2.410   3.154   3.429  0.5424 -0.5231  1.2968
 6073SOL    MW424066   2.324   3.157   3.441  0.2628 -0.9111 -0.3270
 6074SOL     OW24067   3.306   0.490   4.642 -0.2577  0.6421  0.0890
 6074SOL    HW224068   3.332   0.512   4.731 -0.2486  0.1051  0.2246
 6074SOL    HW324069   3.276   0.573   4.604 -1.9482  0.5862  1.1702
 6074SOL    MW424070   3.305   0.504   4.648 -0.4795  0.5638  0.2496
 6075SOL     OW24071   2.901   1.238   2.326  0.0474  0.0950  0.2024
 6075SOL    HW224072   2.807   1.249   2.317  0.1568  0.2125 -0.9536
 6075SOL    HW324073   2.927   1.303   2.392 -0.5219  0.8881 -0.3416
 6075SOL    MW424074   2.892   1.248   2.334 -0.0132  0.2151 -0.0219
 6076SOL     OW24075   1.177   5.698   6.024  0.3484 -0.6859  0.4077
 6076SOL    HW224076   1.228   5.732   6.098 -0.1943  0.5273  0.2538
 6076SOL    HW324077   1.198   5.605   6.021  0.3721 -0.7669  2.1054
 6076SOL    MW424078   1.186   5.690   6.033  0.2799 -0.5365  0.6114
 6077SOL     OW24079   3.107   0.619   1.125  0.7899 -0.1395  0.4237
 6077SOL    HW224080   3.116   0.688   1.192  2.2016 -0.1615  0.2884
 6077SOL    HW324081   3.068   0.545   1.172 -1.7283  1.0319  0.3415
 6077SOL    MW424082   3.103   0.619   1.140  0.6439  0.0121  0.3950
 6078SOL     OW24083   2.761   5.939   5.276  0.1375  0.1171  0.2467
 6078SOL    HW224084   2.694   5.891   5.325  0.1483 -0.7035 -0.5027
 6078SOL    HW324085   2.831   5.875   5.263 -0.4049 -0.1316 -1.9132
 6078SOL    MW424086   2.762   5.924   5.281  0.0673 -0.0240 -0.1372
 6079SOL     OW24087   5.304   5.071   3.917  0.3818 -0.5039 -0.3206
 6079SOL    HW224088   5.334   4.982   3.934  0.9610 -0.5875 -1.6843
 6079SOL    HW324089   5.235   5.061   3.852 -0.1331 -0.0087  0.1382
 6079SOL    MW424090   5.299   5.058   3.911  0.3903 -0.4496 -0.4400
 6080SOL     OW24091   6.031   0.644   2.203  0.1249 -0.3831  0.3673
 6080SOL    HW224092   5.964   0.593   2.249 -1.6096  1.1180 -0.3660
 6080SOL    HW324093   5.991   0.667   2.120  0.9162  1.8899  0.5439
 6080SOL    MW424094   6.017   0.641   2.198  0.0005  0.1148  0.2938
 6081SOL     OW24095   4.728   1.183   4.617  0.1275  0.2832 -0.3356
 6081SOL    HW224096   4.721   1.101   4.666 -1.5242  0.6820  0.1454
 6081SOL    HW324097   4.672   1.170   4.541 -0.2779  1.0295 -0.1655
 6081SOL    MW424098   4.720   1.170   4.613 -0.1439  0.4343 -0.2497
 6082SOL     OW24099   1.360   5.584   1.484 -0.4852  0.3394  0.5540
 6082SOL    HW224100   1.440   5.560   1.438  0.6013  1.4987  1.7472
 6082SOL    HW324101   1.341   5.508   1.540 -1.1167 -0.5594 -0.8219
 6082SOL    MW424102   1.368   5.571   1.486 -0.4251  0.3738  0.5299
 6083SOL     OW24103   3.828   5.885   1.088  0.4771 -0.1899  0.7470
 6083SOL    HW224104   3.805   5.815   1.150  1.5173 -0.7689  0.4950
 6083SOL    HW324105   3.783   5.860   1.007  0.4414 -0.2962  0.7986
 6083SOL    MW424106   3.819   5.872   1.086  0.6096 -0.2803  0.7205
 6084SOL     OW24107   3.483   6.102   5.045  0.0187 -0.1195  0.0442
 6084SOL    HW224108   3.438   6.088   4.962  0.0798 -0.2177  0.0276
 6084SOL    HW324109   3.443   6.181   5.081 -0.5028 -0.4664  0.2519
 6084SOL    MW424110   3.472   6.111   5.039 -0.0421 -0.1783  0.0694
 6085SOL     OW24111   3.089   0.350   3.623 -0.4004 -0.3851 -0.0430
 6085SOL    HW224112   3.072   0.417   3.558  1.6658 -0.9636 -1.2462
 6085SOL    HW324113   3.143   0.393   3.689 -0.3953 -0.4518 -0.0028
 6085SOL    MW424114   3.093   0.364   3.623 -0.1271 -0.4702 -0.1965
 6086SOL     OW24115   2.374   4.551   4.584  0.3186 -0.4351 -0.5371
 6086SOL    HW224116   2.380   4.490   4.658 -0.0744  0.4469  0.2379
 6086SOL    HW324117   2.308   4.511   4.526  1.7303 -1.9074 -1.1957
 6086SOL    MW424118   2.366   4.538   4.586  0.4530 -0.5130 -0.5217
 6087SOL     OW24119   2.229   2.427   0.167  0.2165  0.1004  0.5750
 6087SOL    HW224120   2.152   2.378   0.195 -0.9854  2.9059  2.7250
 6087SOL    HW324121   2.300   2.391   0.219 -0.3004 -0.4231  0.9385
 6087SOL    MW424122   2.228   2.416   0.178 -0.0103  0.4015  0.9066
 6088SOL     OW24123   4.166   5.822   1.251  0.3419  0.4057  0.0087
 6088SOL    HW224124   4.143   5.843   1.161  2.4038  0.0260 -0.6723
 6088SOL    HW324125   4.204   5.902   1.286 -0.8458  0.6809  0.7091
 6088SOL    MW424126   4.168   5.835   1.244  0.4572  0.3919  0.0113
 6089SOL     OW24127   5.147   4.656   0.512 -0.0631 -0.0733  0.0802
 6089SOL    HW224128   5.205   4.711   0.460 -0.0866  0.9681  1.0990
 6089SOL    HW324129   5.195   4.574   0.525  0.5816  0.2485 -0.2543
 6089SOL    MW424130   5.161   4.652   0.507  0.0189  0.1066  0.1705
 6090SOL     OW24131   0.104   0.810   2.703 -0.1222  0.0735 -0.3477
 6090SOL    HW224132   0.020   0.775   2.731  0.2043  1.1324  2.2253
 6090SOL    HW324133   0.089   0.904   2.691  0.6518  0.2705  0.0991
 6090SOL    MW424134   0.091   0.818   2.705  0.0230  0.2392  0.0507
 6091SOL     OW24135   4.095   2.316   4.979 -0.2127 -0.5791 -0.0975
 6091SOL    HW224136   4.170   2.372   4.960 -0.7769 -0.0131 -0.7056
 6091SOL    HW324137   4.133   2.235   5.013  0.6914 -0.4263 -0.7223
 6091SOL    MW424138   4.110   2.313   4.981 -0.1679 -0.4842 -0.2602
 6092SOL     OW24139   3.043   4.414   3.566 -1.1497 -0.1152  0.2346
 6092SOL    HW224140   3.112   4.348   3.558 -1.8354 -0.8395  0.2042
 6092SOL    HW324141   3.089   4.498   3.557  0.1405 -0.4387  2.8778
 6092SOL    MW424142   3.058   4.416   3.563 -1.0699 -0.2534  0.5793
 6093SOL     OW24143   2.735   1.218   3.343  0.4468  0.2384 -0.3167
 6093SOL    HW224144   2.739   1.135   3.391  1.3745 -0.1231 -1.0023
 6093SOL    HW324145   2.770   1.282   3.405 -0.1613  0.1171  0.1724
 6093SOL    MW424146   2.740   1.215   3.358  0.4890  0.1747 -0.3426
 6094SOL     OW24147   1.870   5.166   5.722  0.1022  0.4650 -0.5587
 6094SOL    HW224148   1.799   5.102   5.728 -0.5986  0.8539 -3.2642
 6094SOL    HW324149   1.910   5.150   5.637  1.8201  1.7510 -0.0565
 6094SOL    MW424150   1.866   5.156   5.712  0.2364  0.6860 -0.8494
 6095SOL     OW24151   5.179   2.094   2.764  0.0607  0.7129  0.1884
 6095SOL    HW224152   5.255   2.150   2.772  0.4853  0.3765 -1.1500
 6095SOL    HW324153   5.204   2.012   2.807  1.3683 -0.2166 -2.1371
 6095SOL    MW424154   5.192   2.090   2.771  0.2892  0.5458 -0.2950
 6096SOL     OW24155   5.549   3.035   5.237 -0.3336  0.6345 -0.3018
 6096SOL    HW224156   5.574   2.943   5.234 -2.3931  0.0238 -0.7767
 6096SOL    HW324157   5.498   3.049   5.157 -0.6773  1.9863  0.1178
 6096SOL    MW424158   5.545   3.025   5.226 -0.6507  0.7323 -0.3091
 6097SOL     OW24159   3.820   0.742   2.763  0.2594  0.1469 -0.3027
 6097SOL    HW224160   3.868   0.661   2.747  0.4340 -0.4977  2.7559
 6097SOL    HW324161   3.885   0.802   2.800 -0.1943  1.1791 -1.1307
 6097SOL    MW424162   3.835   0.739   2.766  0.2226  0.1980 -0.0084
 6098SOL     OW24163   0.176   3.526   4.589 -0.2575 -0.3759 -0.1822
 6098SOL    HW224164   0.218   3.441   4.598  0.3178 -0.0564  0.2804
 6098SOL    HW324165   0.192   3.552   4.499 -1.3045 -1.1916 -0.6247
 6098SOL    MW424166   0.184   3.519   4.578 -0.3197 -0.4414 -0.1796
 6099SOL     OW24167   3.002   1.345   1.604 -0.3363 -0.4658 -0.4630
 6099SOL    HW224168   3.049   1.262   1.617 -0.3309 -0.1142  2.3856
 6099SOL    HW324169   3.031   1.376   1.518  1.8713 -2.0189 -0.3627
 6099SOL    MW424170   3.012   1.338   1.594 -0.0444 -0.6243 -0.0739
 6100SOL     OW24171   0.873   3.701   4.696 -0.8178  0.1217 -0.0240
 6100SOL    HW224172   0.880   3.621   4.748 -1.1895 -0.0024 -0.1625
 6100SOL    HW324173   0.908   3.677   4.610 -0.5558  0.2217  0.0535
 6100SOL    MW424174   0.878   3.687   4.692 -0.8323  0.1185 -0.0321
 6101SOL     OW24175   0.141   0.496   5.003  0.0354 -0.0527  0.6992
 6101SOL    HW224176   0.222   0.512   4.955 -0.6240 -0.1394 -0.4743
 6101SOL    HW324177   0.159   0.417   5.055  0.6912 -0.0934  0.4175
 6101SOL    MW424178   0.154   0.487   5.004  0.0349 -0.0695  0.5072
 6102SOL     OW24179   3.350   5.122   5.523 -0.0659 -0.3286 -0.3662
 6102SOL    HW224180   3.366   5.172   5.443  1.7503  1.0426  0.7723
 6102SOL    HW324181   3.255   5.107   5.523 -0.3576  1.1919 -1.8777
 6102SOL    MW424182   3.340   5.127   5.513  0.1352  0.0529 -0.4154
 6103SOL     OW24183   1.758   2.967   1.795  0.4003 -0.1312 -0.1050
 6103SOL    HW224184   1.784   3.028   1.864 -0.1246 -0.9068  0.8057
 6103SOL    HW324185   1.781   2.881   1.829 -3.0136 -0.8640  0.6819
 6103SOL    MW424186   1.765   2.964   1.808 -0.1194 -0.3302  0.1190
 6104SOL     OW24187   2.670   4.296   4.397  0.3293 -0.3543 -0.3538
 6104SOL    HW224188   2.673   4.378   4.447  1.5996 -0.5694 -0.0355
 6104SOL    HW324189   2.613   4.239   4.447 -0.8447  0.4286 -0.7486
 6104SOL    MW424190   2.663   4.299   4.410  0.3420 -0.2794 -0.3639
 6105SOL     OW24191   3.340   5.565   5.367 -0.0058  0.0504 -0.4455
 6105SOL    HW224192   3.281   5.535   5.437  0.3170 -0.3695 -0.3534
 6105SOL    HW324193   3.367   5.652   5.396  0.5827 -0.3508  0.2462
 6105SOL    MW424194   3.336   5.572   5.380  0.1144 -0.0579 -0.3421
 6106SOL     OW24195   2.505   3.739   3.607  0.4953  0.6529  0.0178
 6106SOL    HW224196   2.539   3.803   3.670  0.2145  1.6553 -0.8338
 6106SOL    HW324197   2.533   3.771   3.522  1.1917 -0.8950 -0.3800
 6106SOL    MW424198   2.513   3.751   3.604  0.5501  0.5809 -0.1470
 6107SOL     OW24199   3.125   1.053   1.648 -0.0191  0.2409  0.2772
 6107SOL    HW224200   3.165   1.067   1.734  1.3601 -0.5751 -0.1973
 6107SOL    HW324201   3.194   1.010   1.597 -1.3088 -0.6233 -0.7882
 6107SOL    MW424202   3.140   1.049   1.653 -0.0073  0.0192  0.0740
 6108SOL     OW24203   4.536   4.036   3.714  0.3236  0.1892  0.2046
 6108SOL    HW224204   4.588   3.968   3.670 -1.0260 -0.4730 -0.4434
 6108SOL    HW324205   4.489   4.079   3.643 -1.7583 -0.7737  0.9021
 6108SOL    MW424206   4.536   4.032   3.699 -0.1291 -0.0252  0.2111
 6109SOL     OW24207   2.598   0.282   0.166 -0.1257  0.1903 -0.3247
 6109SOL    HW224208   2.678   0.234   0.189 -0.5002 -0.3892 -0.2084
 6109SOL    HW324209   2.562   0.310   0.250 -0.1803  0.2289 -0.3608
 6109SOL    MW424210   2.604   0.280   0.180 -0.1823  0.1190 -0.3141
 6110SOL     OW24211   6.007   4.023   5.394  0.7831  0.1382 -0.0193
 6110SOL    HW224212   6.040   4.112   5.403  1.1935  0.0564 -0.6659
 6110SOL    HW324213   5.935   4.030   5.331  0.9187 -0.0040 -0.1936
 6110SOL    MW424214   6.002   4.035   5.387  0.8552  0.1087 -0.1276
 6111SOL     OW24215   0.678   5.290   3.520 -0.0771  0.2601  0.1672
 6111SOL    HW224216   0.618   5.226   3.482 -0.7873  1.0942 -0.1563
 6111SOL    HW324217   0.626   5.370   3.527  0.7991  0.8118  0.5365
 6111SOL    MW424218   0.663   5.292   3.516 -0.0552  0.4429  0.1733
 6112SOL     OW24219   0.948   6.254   3.903 -0.2425 -0.0713  0.3661
 6112SOL    HW224220   0.870   6.260   3.849 -0.8164  0.1957  1.2107
 6112SOL    HW324221   1.014   6.214   3.846 -0.8580  0.1225 -0.4910
 6112SOL    MW424222   0.946   6.250   3.889 -0.3995 -0.0105  0.3644
 6113SOL     OW24223   4.827   3.688   0.315 -0.9162 -0.4531  0.5445
 6113SOL    HW224224   4.837   3.680   0.409 -0.4468 -0.7276  0.4732
 6113SOL    HW324225   4.757   3.753   0.304 -0.7854 -0.2154  1.0760
 6113SOL    MW424226   4.819   3.696   0.326 -0.8370 -0.4580  0.6052
 6114SOL     OW24227   1.231   4.915   3.679  0.1229 -0.2473 -0.3277
 6114SOL    HW224228   1.293   4.891   3.610  0.2557  0.1426 -0.3447
 6114SOL    HW324229   1.202   4.831   3.715 -0.1085 -0.4635 -0.9950
 6114SOL    MW424230   1.235   4.901   3.674  0.1099 -0.2244 -0.4180
 6115SOL     OW24231   4.377   5.658   0.002  0.4687 -0.3640  0.0416
 6115SOL    HW224232   4.431   5.663  -0.077 -0.3965  2.3137 -0.5108
 6115SOL    HW324233   4.440   5.652   0.074  1.2979 -1.8881 -0.7571
 6115SOL    MW424234   4.392   5.658   0.001  0.4639 -0.2118 -0.1367
 6116SOL     OW24235   3.793   1.855   1.599  0.5396  0.1092  0.0777
 6116SOL    HW224236   3.772   1.875   1.507 -1.6921 -0.0629  0.4821
 6116SOL    HW324237   3.756   1.768   1.614 -1.4457  1.1550  1.7732
 6116SOL    MW424238   3.785   1.846   1.589 -0.0168  0.2245  0.3548
 6117SOL     OW24239   0.135   3.882   6.315 -0.3353 -0.0031  0.4470
 6117SOL    HW224240   0.101   3.793   6.321 -0.4887  0.0998  1.2036
 6117SOL    HW324241   0.058   3.937   6.299 -0.2674  0.0165  0.1844
 6117SOL    MW424242   0.120   3.877   6.314 -0.3466  0.0131  0.5122
 6118SOL     OW24243   2.713   2.542   5.620 -0.3779 -0.2700  0.3153
 6118SOL    HW224244   2.759   2.543   5.536 -0.2079 -1.1627  0.3931
 6118SOL    HW324245   2.682   2.452   5.629  0.3422 -0.4042  1.6095
 6118SOL    MW424246   2.715   2.531   5.610 -0.2605 -0.4054  0.4963
 6119SOL     OW24247   4.450   5.437   1.276 -0.1129  0.1447  0.0175
 6119SOL    HW224248   4.428   5.467   1.188 -0.0422  0.9466  0.2655
 6119SOL    HW324249   4.546   5.440   1.279 -0.1090 -0.0122  0.0837
 6119SOL    MW424250   4.460   5.441   1.265 -0.1031  0.2298  0.0590
 6120SOL     OW24251   1.407   1.915   1.219 -0.1543 -0.0267  0.1047
 6120SOL    HW224252   1.370   1.830   1.196 -0.7286  0.9427 -3.0317
 6120SOL    HW324253   1.493   1.916   1.178 -0.9679  1.5902 -1.7034
 6120SOL    MW424254   1.414   1.904   1.211 -0.3374  0.3145 -0.5477
 6121SOL     OW24255   5.669   0.911   5.866  0.3019 -0.5618  0.2322
 6121SOL    HW224256   5.654   0.945   5.777  0.3749 -0.2496  0.3398
 6121SOL    HW324257   5.687   0.818   5.853 -1.4265 -0.9114  0.0497
 6121SOL    MW424258   5.669   0.903   5.852  0.0835 -0.5667  0.2223
 6122SOL     OW24259   1.465   6.205   2.678 -0.1000  0.2382  0.0379
 6122SOL    HW224260   1.455   6.254   2.597  0.0850  1.4622  0.7229
 6122SOL    HW324261   1.537   6.145   2.661 -1.6558 -1.2746 -1.4912
 6122SOL    MW424262   1.474   6.204   2.665 -0.2809  0.2001 -0.0735
 6123SOL     OW24263   2.446   1.130   3.425  0.2093 -0.1566 -0.0858
 6123SOL    HW224264   2.503   1.200   3.394  0.2110 -0.0900  0.0645
 6123SOL    HW324265   2.447   1.065   3.355 -0.5215  0.4029 -0.6449
 6123SOL    MW424266   2.453   1.131   3.412  0.1131 -0.0740 -0.1397
 6124SOL     OW24267   5.092   3.228   1.928 -0.3985 -0.5367 -0.5142
 6124SOL    HW224268   5.032   3.269   1.990  0.1979 -0.4212 -0.0008
 6124SOL    HW324269   5.061   3.255   1.842 -0.0481  0.9526 -0.1928
 6124SOL    MW424270   5.080   3.237   1.925 -0.2736 -0.3250 -0.4041
 6125SOL     OW24271   0.209   3.118   4.123 -0.0485  0.4106  0.2480
 6125SOL    HW224272   0.115   3.119   4.137 -0.5801 -0.1417 -2.6372
 6125SOL    HW324273   0.228   3.200   4.077  0.8026  0.3241  0.4162
 6125SOL    MW424274   0.199   3.129   4.119 -0.0063  0.3263 -0.1104
 6126SOL     OW24275   2.743   4.876   4.083  0.4081 -0.9204 -0.2519
 6126SOL    HW224276   2.730   4.824   4.162  0.4001  1.1626  1.1855
 6126SOL    HW324277   2.830   4.914   4.093  0.0704  0.0448 -0.8160
 6126SOL    MW424278   2.753   4.874   4.094  0.3625 -0.5182 -0.1367
 6127SOL     OW24279   2.444   1.444   2.543  0.1531  0.3104  0.0626
 6127SOL    HW224280   2.407   1.364   2.579 -0.6216 -0.4547 -2.2744
 6127SOL    HW324281   2.441   1.432   2.448  0.4712  2.9146 -0.3607
 6127SOL    MW424282   2.439   1.432   2.536  0.0928  0.5530 -0.3016
 6128SOL     OW24283   5.137   3.857   2.263 -0.1591  0.0282  0.1531
 6128SOL    HW224284   5.200   3.927   2.245 -1.5596  1.0669 -0.9780
 6128SOL    HW324285   5.160   3.825   2.350  0.4799  1.9647  0.7485
 6128SOL    MW424286   5.148   3.862   2.272 -0.2596  0.4208  0.0824
 6129SOL     OW24287   3.194   1.829   3.757 -0.6600  0.0185  0.3676
 6129SOL    HW224288   3.130   1.900   3.764 -1.4615 -0.7821  1.4286
 6129SOL    HW324289   3.263   1.852   3.819 -0.4637  0.3155  0.0441
 6129SOL    MW424290   3.194   1.841   3.766 -0.7398 -0.0480  0.4649
 6130SOL     OW24291   1.736   1.182   5.400 -0.4993  0.0010 -0.4106
 6130SOL    HW224292   1.660   1.154   5.451 -1.1570  1.5459 -0.4645
 6130SOL    HW324293   1.771   1.102   5.362 -0.4870 -1.0934  1.7667
 6130SOL    MW424294   1.730   1.168   5.402 -0.5844  0.0604 -0.1305
 6131SOL     OW24295   4.316   3.295   4.981 -0.0663  0.3626  0.0429
 6131SOL    HW224296   4.231   3.304   5.024 -0.0512  0.4397  0.0559
 6131SOL    HW324297   4.329   3.378   4.936 -1.5172 -0.7471 -2.7001
 6131SOL    MW424298   4.306   3.307   4.981 -0.2557  0.2263 -0.3173
 6132SOL     OW24299   3.944   2.696   4.551 -0.1449  0.2171  0.2979
 6132SOL    HW224300   3.901   2.625   4.598 -0.7440  1.1985  1.2985
 6132SOL    HW324301   4.037   2.686   4.573 -0.0089 -1.1411 -0.8168
 6132SOL    MW424302   3.951   2.686   4.560 -0.2060  0.1674  0.2828
 6133SOL     OW24303   1.184   3.295   4.715  0.4368 -0.1011  0.7806
 6133SOL    HW224304   1.245   3.312   4.642  1.6613 -0.4653  1.6943
 6133SOL    HW324305   1.121   3.232   4.680  1.0308 -0.2968  0.0469
 6133SOL    MW424306   1.184   3.289   4.700  0.6767 -0.1749  0.8044
 6134SOL     OW24307   4.638   0.192   5.005 -0.6029 -0.0587 -0.2700
 6134SOL    HW224308   4.622   0.128   5.074  0.4453  0.2940  0.3267
 6134SOL    HW324309   4.710   0.155   4.953  0.0927  0.6683  0.1520
 6134SOL    MW424310   4.646   0.179   5.007 -0.3728  0.0837 -0.1356
 6135SOL     OW24311   3.460   5.467   4.592 -0.1929 -0.3774 -0.5720
 6135SOL    HW224312   3.420   5.438   4.673  2.5581 -0.8230  0.7451
 6135SOL    HW324313   3.461   5.563   4.598  3.2087 -0.3700  1.8254
 6135SOL    MW424314   3.455   5.476   4.603  0.6189 -0.4352 -0.0820
 6136SOL     OW24315   1.431   5.243   1.363 -0.3248 -0.0647 -0.1503
 6136SOL    HW224316   1.423   5.301   1.287 -0.4420  0.0621 -0.0391
 6136SOL    HW324317   1.342   5.235   1.397 -0.5175 -1.2543 -0.8757
 6136SOL    MW424318   1.419   5.249   1.357 -0.3657 -0.2049 -0.2314
 6137SOL     OW24319   2.307   3.780   6.372  0.0759 -0.3414 -0.3487
 6137SOL    HW224320   2.231   3.821   6.412  0.3912  1.2373 -1.2875
 6137SOL    HW324321   2.345   3.849   6.317  2.0347 -1.1533 -0.0891
 6137SOL    MW424322   2.302   3.795   6.370  0.3760 -0.2403 -0.4383
 6138SOL     OW24323   2.949   2.850   2.858 -0.8471 -0.7946  0.6430
 6138SOL    HW224324   2.899   2.844   2.939  0.8522 -0.5376  1.7755
 6138SOL    HW324325   3.009   2.923   2.873  0.3743 -1.5528 -0.3364
 6138SOL    MW424326   2.951   2.859   2.871 -0.4617 -0.8607  0.6632
 6139SOL     OW24327   0.934   3.518   3.486 -0.3637  0.4940  0.6411
 6139SOL    HW224328   0.925   3.612   3.501  0.7481  0.6344  0.5221
 6139SOL    HW324329   0.936   3.480   3.574  1.2524  0.8110  0.7643
 6139SOL    MW424330   0.933   3.525   3.500 -0.0038  0.5543  0.6417
 6140SOL     OW24331   0.043   2.560   1.595 -0.3085  0.2908 -0.0774
 6140SOL    HW224332   0.038   2.606   1.679  1.5419  1.4824 -0.5706
 6140SOL    HW324333  -0.013   2.483   1.607  1.7435 -0.8968  3.0754
 6140SOL    MW424334   0.035   2.556   1.608  0.2064  0.2913  0.2735
 6141SOL     OW24335   3.515   2.163   1.141  0.0014 -0.1245 -0.2441
 6141SOL    HW224336   3.574   2.088   1.133 -0.7056 -0.8930  1.3868
 6141SOL    HW324337   3.469   2.166   1.057 -0.1750 -1.7304 -0.2424
 6141SOL    MW424338   3.517   2.154   1.129 -0.1152 -0.4378 -0.0287
 6142SOL     OW24339   2.593   3.221   5.365  0.8603 -0.2820  0.1425
 6142SOL    HW224340   2.651   3.197   5.293 -1.0350  1.6650 -2.1966
 6142SOL    HW324341   2.512   3.173   5.347  0.3323  0.2869  0.9544
 6142SOL    MW424342   2.590   3.211   5.353  0.5405  0.0499 -0.0590
 6143SOL     OW24343   3.236   2.075   1.114 -0.2329 -0.0971  0.5014
 6143SOL    HW224344   3.304   2.036   1.170 -2.0089 -2.2937  1.2794
 6143SOL    HW324345   3.276   2.079   1.027  1.4728  0.3648  1.2516
 6143SOL    MW424346   3.250   2.071   1.110 -0.2422 -0.3260  0.7031
 6144SOL     OW24347   4.042   2.853   4.858  0.5760  0.1012 -0.2218
 6144SOL    HW224348   4.052   2.945   4.835  0.3394  0.3627  0.6595
 6144SOL    HW324349   4.095   2.806   4.794  3.9985  1.1109  1.5954
 6144SOL    MW424350   4.051   2.859   4.847  0.9964  0.2689  0.1343
 6145SOL     OW24351   4.685   0.436   3.376 -0.4118 -0.4437  0.2067
 6145SOL    HW224352   4.726   0.517   3.405 -0.3680  0.2826 -1.7196
 6145SOL    HW324353   4.600   0.463   3.342 -0.1480 -1.0957 -1.0318
 6145SOL    MW424354   4.679   0.450   3.375 -0.3712 -0.4339 -0.2109
 6146SOL     OW24355   5.152   4.002   2.559  0.3413 -0.2790  0.1715
 6146SOL    HW224356   5.188   3.914   2.555 -0.8318 -0.8654  1.5308
 6146SOL    HW324357   5.137   4.026   2.468  1.1927 -1.2544 -0.2442
 6146SOL    MW424358   5.154   3.993   2.547  0.2988 -0.4851  0.2960
 6147SOL     OW24359   1.920   4.037   5.506 -0.2387 -0.3930  0.5108
 6147SOL    HW224360   1.968   4.111   5.543 -0.9006 -0.0754  0.7345
 6147SOL    HW324361   1.989   3.973   5.485  0.5528  1.0763 -1.6304
 6147SOL    MW424362   1.936   4.038   5.508 -0.2216 -0.1573  0.2578
 6148SOL     OW24363   6.426   2.703   2.279  0.2687 -0.5173  0.2228
 6148SOL    HW224364   6.417   2.777   2.219  1.1001 -1.3717 -1.0119
 6148SOL    HW324365   6.347   2.706   2.333 -1.0996 -0.3739 -1.6860
 6148SOL    MW424366   6.415   2.713   2.278  0.1978 -0.6111 -0.1919
 6149SOL     OW24367   3.213   3.780   0.821  0.0955 -0.2182  0.7286
 6149SOL    HW224368   3.156   3.703   0.826 -0.4801  0.2261  1.1454
 6149SOL    HW324369   3.188   3.824   0.739  1.2714 -1.1125 -0.1449
 6149SOL    MW424370   3.202   3.776   0.811  0.1747 -0.2776  0.6683
 6150SOL     OW24371   0.487   2.853   2.967  0.8549 -0.1216  0.0496
 6150SOL    HW224372   0.526   2.770   2.994 -3.2123 -2.3755 -0.1612
 6150SOL    HW324373   0.491   2.852   2.872 -1.1221 -1.2898 -0.0793
 6150SOL    MW424374   0.493   2.842   2.958  0.0574 -0.5731  0.0048
 6151SOL     OW24375   5.074   0.792   4.311  0.1678  0.6653  0.4624
 6151SOL    HW224376   5.098   0.718   4.254  0.5124  0.2570  1.1329
 6151SOL    HW324377   5.102   0.765   4.398  1.4670  2.1117  0.5379
 6151SOL    MW424378   5.081   0.779   4.315  0.3847  0.8023  0.5608
 6152SOL     OW24379   5.903   3.021   4.488  0.7081 -0.1982 -0.7416
 6152SOL    HW224380   5.869   3.029   4.577 -2.1606  2.2258 -1.8929
 6152SOL    HW324381   5.981   2.966   4.497  0.8585  0.3797  3.3120
 6152SOL    MW424382   5.909   3.015   4.501  0.3495  0.1978 -0.3587
 6153SOL     OW24383   3.476   4.675   1.591  0.3461  0.6387  0.2847
 6153SOL    HW224384   3.469   4.749   1.531  2.8528  1.0380  0.3752
 6153SOL    HW324385   3.411   4.693   1.659 -0.9525  1.3320 -1.0982
 6153SOL    MW424386   3.466   4.687   1.592  0.5055  0.7828  0.1142
 6154SOL     OW24387   1.295   0.960   1.867 -0.1155 -0.0005  0.5598
 6154SOL    HW224388   1.244   0.886   1.833  1.0090 -0.9547  0.8647
 6154SOL    HW324389   1.229   1.024   1.895 -1.1296 -0.9870  0.5218
 6154SOL    MW424390   1.279   0.959   1.866 -0.1009 -0.2566  0.5950
 6155SOL     OW24391   4.579   0.825   0.085  0.7427  0.4122 -0.5924
 6155SOL    HW224392   4.618   0.898   0.036  1.1941  1.1261  0.7906
 6155SOL    HW324393   4.541   0.865   0.163 -0.7261 -0.5969 -0.7589
 6155SOL    MW424394   4.579   0.840   0.089  0.6085  0.3733 -0.4319
 6156SOL     OW24395   5.203   6.229   2.532 -0.2492  0.1924  0.1913
 6156SOL    HW224396   5.248   6.157   2.488 -0.1184 -0.2976  1.0982
 6156SOL    HW324397   5.211   6.302   2.472  1.3959  0.0024  0.1311
 6156SOL    MW424398   5.210   6.229   2.519 -0.0149  0.1027  0.3030
 6157SOL     OW24399   3.582   5.010   6.405 -0.4385  0.1625  0.0121
 6157SOL    HW224400   3.587   4.928   6.455 -0.1880 -0.3504 -0.8266
 6157SOL    HW324401   3.652   5.064   6.441 -0.8299  0.1570  0.8142
 6157SOL    MW424402   3.592   5.006   6.416 -0.4571  0.0941  0.0073
 6158SOL     OW24403   5.915   6.215   2.306  0.0639 -0.4415  0.1030
 6158SOL    HW224404   5.824   6.234   2.327 -0.0115 -0.8552  0.1561
 6158SOL    HW324405   5.963   6.292   2.336 -0.1131 -0.7447  1.2261
 6158SOL    MW424406   5.910   6.228   2.313  0.0306 -0.5361  0.2582
 6159SOL     OW24407   0.188   2.156   3.604 -0.0351  0.7486 -0.8863
 6159SOL    HW224408   0.156   2.147   3.514 -0.2015 -2.2677 -0.6148
 6159SOL    HW324409   0.110   2.180   3.655 -0.4841  0.0103 -1.2106
 6159SOL    MW424410   0.173   2.158   3.599 -0.1163  0.2532 -0.8933
 6160SOL     OW24411   0.946   5.476   1.661 -0.0377 -0.2257 -0.0134
 6160SOL    HW224412   0.910   5.388   1.655 -0.8885  0.1384 -0.4356
 6160SOL    HW324413   0.957   5.491   1.755 -0.0026 -0.7326  0.0642
 6160SOL    MW424414   0.943   5.466   1.673 -0.1453 -0.2445 -0.0588
 6161SOL     OW24415   1.770   6.174   0.469  0.0809  0.1245  0.0922
 6161SOL    HW224416   1.836   6.139   0.409 -1.4625  1.6251 -2.6703
 6161SOL    HW324417   1.788   6.268   0.473 -0.9564  0.3232  0.5171
 6161SOL    MW424418   1.781   6.182   0.462 -0.2596  0.3487 -0.2162
 6162SOL     OW24419   2.568   2.876   3.354  0.4918  0.2592  0.5306
 6162SOL    HW224420   2.648   2.926   3.370  0.8469 -0.1210 -0.0232
 6162SOL    HW324421   2.597   2.785   3.352  0.2334  0.1899 -0.7242
 6162SOL    MW424422   2.583   2.871   3.356  0.5046  0.1999  0.2920
 6163SOL     OW24423   0.981   0.287   4.327 -0.0543  0.2553  0.1451
 6163SOL    HW224424   0.991   0.280   4.232  1.0440 -0.4515  0.2998
 6163SOL    HW324425   1.017   0.205   4.361  1.3334  1.2866  1.2831
 6163SOL    MW424426   0.987   0.276   4.319  0.2737  0.2981  0.3157
 6164SOL     OW24427   2.962   2.161   1.139  0.0575 -0.4331  0.6071
 6164SOL    HW224428   2.932   2.155   1.048 -1.9147 -2.7481  1.2822
 6164SOL    HW324429   3.031   2.096   1.145  1.2103  0.7392  0.4795
 6164SOL    MW424430   2.967   2.152   1.127 -0.0506 -0.5838  0.6793
 6165SOL     OW24431   4.055   5.549   3.423 -0.3081 -0.5859  0.5691
 6165SOL    HW224432   4.083   5.578   3.336  0.2216 -3.1917 -0.2194
 6165SOL    HW324433   3.970   5.507   3.408  0.4478 -2.3718  0.9838
 6165SOL    MW424434   4.048   5.547   3.410 -0.1385 -1.1653  0.5198
 6166SOL     OW24435   2.714   6.281   3.776  0.1548 -0.1691 -0.1647
 6166SOL    HW224436   2.646   6.341   3.747 -1.1600 -2.2675 -1.6659
 6166SOL    HW324437   2.678   6.194   3.762  2.4369 -1.3675  0.7812
 6166SOL    MW424438   2.701   6.278   3.771  0.2824 -0.6040 -0.2379
 6167SOL     OW24439   0.326   4.029   0.342  0.1468  0.0565 -0.1512
 6167SOL    HW224440   0.307   4.028   0.248 -0.2997  0.3733 -0.0702
 6167SOL    HW324441   0.252   4.077   0.381  0.9414  1.0184  0.2143
 6167SOL    MW424442   0.313   4.036   0.335  0.1927  0.2252 -0.0923
 6168SOL     OW24443   3.251   1.088   4.732  0.2502 -0.3900 -0.0128
 6168SOL    HW224444   3.243   1.033   4.810 -1.0306 -0.1444  0.0565
 6168SOL    HW324445   3.316   1.044   4.678  0.8722 -0.7735  1.0185
 6168SOL    MW424446   3.259   1.075   4.735  0.1633 -0.4082  0.1324
 6169SOL     OW24447   2.270   1.162   1.511  0.2214  0.2978 -0.4612
 6169SOL    HW224448   2.251   1.075   1.544 -0.3973  0.9119  0.8648
 6169SOL    HW324449   2.261   1.154   1.416 -0.8462 -0.8311 -0.2842
 6169SOL    MW424450   2.267   1.150   1.503 -0.0011  0.2298 -0.2629
 6170SOL     OW24451   3.323   4.761   1.828  0.1144  0.2144 -0.0029
 6170SOL    HW224452   3.274   4.841   1.843  0.9721  0.7786 -0.1052
 6170SOL    HW324453   3.337   4.725   1.916  1.6104  1.3612  0.2825
 6170SOL    MW424454   3.319   4.767   1.842  0.4250  0.4402  0.0212
 6171SOL     OW24455   1.027   3.800   1.377 -0.2683  0.1949 -0.9127
 6171SOL    HW224456   1.053   3.883   1.336  1.3021 -0.0267 -0.4174
 6171SOL    HW324457   1.108   3.762   1.408 -1.0631 -1.1847 -0.4369
 6171SOL    MW424458   1.041   3.806   1.375 -0.1660 -0.0164 -0.7846
 6172SOL     OW24459   1.459   3.059   4.382  0.1784 -0.2149  0.0364
 6172SOL    HW224460   1.365   3.072   4.392  0.1307  0.1495 -0.8661
 6172SOL    HW324461   1.493   3.068   4.471 -0.6308 -0.3421  0.3736
 6172SOL    MW424462   1.451   3.062   4.395  0.0653 -0.1836 -0.0382
 6173SOL     OW24463   3.377   5.876   5.810 -0.3378 -0.2796  0.5876
 6173SOL    HW224464   3.408   5.872   5.719 -0.9635  1.2590  0.2728
 6173SOL    HW324465   3.318   5.951   5.812  1.1764  0.9771  2.7224
 6173SOL    MW424466   3.374   5.885   5.798 -0.2206  0.0892  0.8278
 6174SOL     OW24467   0.134   2.849   3.509  0.2158 -0.0604  0.0821
 6174SOL    HW224468   0.169   2.816   3.591 -2.3656  1.3135  1.9109
 6174SOL    HW324469   0.051   2.802   3.498 -1.0461  2.0214  0.0770
 6174SOL    MW424470   0.127   2.839   3.519 -0.2913  0.3956  0.3227
 6175SOL     OW24471   4.314   1.778   0.780 -0.4594  0.5051 -0.0236
 6175SOL    HW224472   4.312   1.808   0.871  1.0306  1.0308 -0.1263
 6175SOL    HW324473   4.311   1.858   0.728 -2.2869  0.1685 -0.4998
 6175SOL    MW424474   4.314   1.793   0.786 -0.5039  0.5301 -0.1000
 6176SOL     OW24475   4.019   0.382   2.474 -0.1092 -0.0002 -0.3324
 6176SOL    HW224476   3.929   0.353   2.457 -0.0256 -0.1854 -0.4627
 6176SOL    HW324477   4.024   0.469   2.435 -0.5114  0.4058  0.4971
 6176SOL    MW424478   4.008   0.389   2.467 -0.1513  0.0289 -0.2401
 6177SOL     OW24479   4.770   1.086   3.050 -0.2526 -0.2119 -0.2786
 6177SOL    HW224480   4.770   1.107   2.957 -2.7784 -0.2964 -0.3545
 6177SOL    HW324481   4.761   1.171   3.093  1.3454 -0.1283 -0.0462
 6177SOL    MW424482   4.769   1.100   3.043 -0.3750 -0.2120 -0.2580
 6178SOL     OW24483   2.574   4.418   1.940 -0.3577 -0.1064 -0.3741
 6178SOL    HW224484   2.603   4.473   1.867  0.5882  0.4198  0.3790
 6178SOL    HW324485   2.602   4.330   1.916 -1.6341 -0.2523 -1.4603
 6178SOL    MW424486   2.581   4.414   1.927 -0.4013 -0.0562 -0.4181
 6179SOL     OW24487   2.431   4.338   2.183 -0.4675 -0.1892 -0.0555
 6179SOL    HW224488   2.403   4.429   2.180 -0.4856 -0.1989 -0.1959
 6179SOL    HW324489   2.473   4.323   2.098 -1.5018 -0.6501 -0.4923
 6179SOL    MW424490   2.433   4.348   2.171 -0.6063 -0.2513 -0.1317
 6180SOL     OW24491   4.044   4.298   0.075  0.2293  0.4965 -0.2833
 6180SOL    HW224492   4.001   4.258   0.151  1.1604  0.6975  0.3616
 6180SOL    HW324493   4.117   4.348   0.111  1.3903 -0.3225 -1.3923
 6180SOL    MW424494   4.048   4.299   0.089  0.5053  0.4150 -0.3445
 6181SOL     OW24495   2.649   0.185   5.652  0.2575 -0.6613  0.0505
 6181SOL    HW224496   2.690   0.118   5.706  0.6379 -0.5072 -0.0458
 6181SOL    HW324497   2.704   0.189   5.573  1.0108  0.6889  0.6164
 6181SOL    MW424498   2.662   0.176   5.648  0.4071 -0.4628  0.1125
 6182SOL     OW24499   3.481   4.408   3.386  0.1981 -0.5473 -0.1219
 6182SOL    HW224500   3.398   4.424   3.340 -0.7716 -1.6408  1.1534
 6182SOL    HW324501   3.475   4.463   3.464  0.1524 -1.4812  0.5402
 6182SOL    MW424502   3.469   4.417   3.390  0.0641 -0.8148  0.1337
 6183SOL     OW24503   0.421   5.599   2.889 -0.3801 -0.3837 -0.2646
 6183SOL    HW224504   0.487   5.589   2.958  0.7094  1.3819 -0.9869
 6183SOL    HW324505   0.345   5.637   2.934  0.6508  1.6579 -0.1418
 6183SOL    MW424506   0.419   5.602   2.904 -0.1004  0.1186 -0.3437
 6184SOL     OW24507   2.969   3.457   5.946  0.2424 -0.0465  0.5541
 6184SOL    HW224508   2.927   3.433   6.029  1.5703 -1.5778  0.8475
 6184SOL    HW324509   2.946   3.549   5.933  0.7350  0.5218  3.1147
 6184SOL    MW424510   2.960   3.466   5.955  0.4826 -0.1735  0.9307
 6185SOL     OW24511   5.767   6.102   0.397 -0.6984  0.3954  0.1414
 6185SOL    HW224512   5.852   6.114   0.354 -0.2855 -0.6235  0.6332
 6185SOL    HW324513   5.773   6.015   0.438 -2.5260 -0.3999 -1.1201
 6185SOL    MW424514   5.779   6.092   0.397 -0.8851  0.1560  0.0399
 6186SOL     OW24515   6.042   4.985   5.542  0.2507 -0.9590 -0.1366
 6186SOL    HW224516   6.110   5.051   5.560 -0.9279 -0.2171  1.9741
 6186SOL    HW324517   6.091   4.907   5.517  1.7739  0.1722 -0.8590
 6186SOL    MW424518   6.058   4.984   5.541  0.2962 -0.7119  0.0466
 6187SOL     OW24519   5.244   2.245   0.137  0.8187  0.3235 -0.3116
 6187SOL    HW224520   5.235   2.158   0.098 -1.5748 -0.5482  1.9242
 6187SOL    HW324521   5.199   2.303   0.076  1.2470 -0.1884 -1.1465
 6187SOL    MW424522   5.237   2.241   0.124  0.5594  0.1410 -0.1268
 6188SOL     OW24523   1.868   5.736   0.505 -0.2416 -0.1268 -0.2331
 6188SOL    HW224524   1.910   5.713   0.588  0.6347  0.6067 -0.4504
 6188SOL    HW324525   1.899   5.824   0.486 -2.3554  0.6890 -0.1454
 6188SOL    MW424526   1.878   5.744   0.513 -0.4049  0.0776 -0.2502
 6189SOL     OW24527   1.217   5.921   3.941  0.3124  0.5351  0.5473
 6189SOL    HW224528   1.154   5.849   3.946  1.8498 -0.9287 -0.2335
 6189SOL    HW324529   1.242   5.926   3.848  1.1935  1.2030  0.7980
 6189SOL    MW424530   1.212   5.913   3.929  0.6315  0.4301  0.4773
 6190SOL     OW24531   0.081   4.741   2.866 -0.2572 -0.0381 -0.3034
 6190SOL    HW224532   0.013   4.674   2.864  0.5039 -0.9050  1.1706
 6190SOL    HW324533   0.043   4.815   2.819 -1.9896 -0.6922 -0.0104
 6190SOL    MW424534   0.067   4.742   2.859 -0.3854 -0.2388 -0.0703
 6191SOL     OW24535   1.956   3.499   4.196 -0.4181 -0.3676 -0.3512
 6191SOL    HW224536   2.024   3.447   4.238 -0.3498 -0.1460 -0.1856
 6191SOL    HW324537   2.004   3.562   4.142 -0.5103 -1.0847 -1.2995
 6191SOL    MW424538   1.971   3.500   4.194 -0.4213 -0.4329 -0.4545
 6192SOL     OW24539   2.880   2.683   4.290 -0.6355 -0.4465  0.0295
 6192SOL    HW224540   2.889   2.775   4.262 -1.4749 -1.0696 -2.6191
 6192SOL    HW324541   2.938   2.635   4.231 -0.5722 -1.6873  1.0757
 6192SOL    MW424542   2.889   2.689   4.278 -0.7379 -0.6924 -0.1819
 6193SOL     OW24543   6.415   3.263   3.654 -0.2726 -0.2742 -0.1984
 6193SOL    HW224544   6.440   3.172   3.667  0.1158 -0.0202  1.0117
 6193SOL    HW324545   6.323   3.260   3.629  0.0384 -1.0479 -1.3005
 6193SOL    MW424546   6.406   3.251   3.652 -0.1803 -0.3427 -0.1842
 6194SOL     OW24547   4.632   3.857   2.367  0.4290 -0.1999  0.1461
 6194SOL    HW224548   4.723   3.878   2.346 -0.1510  0.1952 -2.2523
 6194SOL    HW324549   4.632   3.763   2.385  1.2122 -0.3425 -0.5492
 6194SOL    MW424550   4.644   3.847   2.366  0.4558 -0.1666 -0.2621
 6195SOL     OW24551   3.659   1.851   3.701  0.4351 -0.1744  0.3881
 6195SOL    HW224552   3.717   1.840   3.777  0.3800  3.2771  1.1121
 6195SOL    HW324553   3.719   1.853   3.626  0.9192  0.1417  0.7735
 6195SOL    MW424554   3.675   1.850   3.701  0.4917  0.3227  0.5345
 6196SOL     OW24555   0.970   6.071   0.836  0.6567  0.0609 -0.2989
 6196SOL    HW224556   0.951   6.044   0.747 -0.7245  1.3231 -0.4350
 6196SOL    HW324557   1.061   6.101   0.834  0.8226 -0.4959 -1.1264
 6196SOL    MW424558   0.979   6.072   0.824  0.4963  0.1540 -0.4261
 6197SOL     OW24559   6.134   2.868   4.527 -0.5332 -0.2061  0.4008
 6197SOL    HW224560   6.113   2.778   4.502 -0.2436 -0.4960  1.1941
 6197SOL    HW324561   6.120   2.871   4.621  0.6919  0.2290  0.5856
 6197SOL    MW424562   6.129   2.857   4.536 -0.3334 -0.1869  0.5299
 6198SOL     OW24563   3.083   3.431   5.355  0.1450 -0.0723  0.1626
 6198SOL    HW224564   3.154   3.396   5.301  0.3811  0.4651  0.1178
 6198SOL    HW324565   3.006   3.429   5.298  0.4390  0.6955 -0.2758
 6198SOL    MW424566   3.082   3.426   5.341  0.2149  0.0999  0.0989
 6199SOL     OW24567   1.615   0.020   1.515 -0.1780 -0.0859 -0.3380
 6199SOL    HW224568   1.676   0.074   1.564 -0.3782 -0.6317  0.5241
 6199SOL    HW324569   1.670  -0.025   1.450 -0.1342  1.8612 -1.7651
 6199SOL    MW424570   1.630   0.021   1.513 -0.1986  0.0990 -0.4125
 6200SOL     OW24571   0.888   0.952   0.165 -0.0207 -0.4541 -0.2481
 6200SOL    HW224572   0.921   0.920   0.081  1.8697 -1.5416  0.8475
 6200SOL    HW324573   0.915   1.044   0.168  1.3528 -0.8335 -0.1815
 6200SOL    MW424574   0.896   0.960   0.154  0.4100 -0.6476 -0.0948
 6201SOL     OW24575   3.461   1.225   1.156  0.5950  0.0831 -0.1977
 6201SOL    HW224576   3.471   1.150   1.214 -0.4763  0.6461  0.7362
 6201SOL    HW324577   3.516   1.203   1.080 -0.5771 -2.1724 -0.4880
 6201SOL    MW424578   3.470   1.212   1.154  0.2990 -0.1402 -0.1128
 6202SOL     OW24579   5.614   0.355   5.986 -1.1929 -0.3065  0.2755
 6202SOL    HW224580   5.549   0.286   5.975  0.3608 -1.5489 -2.1232
 6202SOL    HW324581   5.668   0.326   6.059 -1.9122 -0.4216  0.7749
 6202SOL    MW424582   5.613   0.342   5.994 -1.0828 -0.4856  0.0249
 6203SOL     OW24583   4.430   4.630   3.490 -0.1587 -0.1686  0.1951
 6203SOL    HW224584   4.510   4.616   3.438 -0.1403 -1.5563  0.5499
 6203SOL    HW324585   4.359   4.614   3.429 -0.1454 -0.6213  0.2950
 6203SOL    MW424586   4.431   4.626   3.475 -0.1545 -0.4114  0.2551
 6204SOL     OW24587   1.983   4.937   2.063  0.5627 -0.4123  0.3210
 6204SOL    HW224588   1.986   4.986   2.146 -2.0479 -1.5907  1.2226
 6204SOL    HW324589   1.901   4.964   2.023 -0.0236 -2.5758 -0.0695
 6204SOL    MW424590   1.973   4.947   2.069  0.1409 -0.8532  0.3885
 6205SOL     OW24591   6.049   5.305   5.728  0.2166  0.1775  0.7453
 6205SOL    HW224592   6.122   5.366   5.731  1.6036 -1.2505 -1.1678
 6205SOL    HW324593   6.087   5.221   5.756 -0.6632 -0.5750 -0.2185
 6205SOL    MW424594   6.064   5.302   5.732  0.2835 -0.1102  0.3657
 6206SOL     OW24595   2.790   1.812   3.398 -0.4475  0.3949  0.0557
 6206SOL    HW224596   2.722   1.776   3.341  0.7768 -1.9139 -0.0720
 6206SOL    HW324597   2.866   1.824   3.342  0.0161  0.4760  0.6834
 6206SOL    MW424598   2.791   1.809   3.383 -0.2248  0.1010  0.1217
 6207SOL     OW24599   5.445   0.602   0.603 -0.1846 -0.3700  0.6007
 6207SOL    HW224600   5.529   0.630   0.641 -1.5131  0.8877  2.8720
 6207SOL    HW324601   5.422   0.673   0.543 -1.0881  0.9668  2.4365
 6207SOL    MW424602   5.453   0.615   0.600 -0.4791 -0.0277  1.1426
 6208SOL     OW24603   2.587   0.296   3.781 -0.1808 -0.1308 -0.0774
 6208SOL    HW224604   2.574   0.281   3.875  0.7272 -0.2803  0.0378
 6208SOL    HW324605   2.680   0.316   3.773 -0.4926  1.1247 -0.7965
 6208SOL    MW424606   2.598   0.297   3.792 -0.1021  0.0151 -0.1571
 6209SOL     OW24607   3.280   0.386   5.773 -0.2173 -0.0385 -0.2672
 6209SOL    HW224608   3.285   0.352   5.862  0.5679 -0.7002 -0.5464
 6209SOL    HW324609   3.289   0.481   5.782  0.7906 -0.1719  0.2939
 6209SOL    MW424610   3.282   0.394   5.786  0.0193 -0.1434 -0.2300
 6210SOL     OW24611   4.206   3.860   6.135  0.2631 -0.2027 -0.5839
 6210SOL    HW224612   4.162   3.790   6.086 -1.6830  1.8416 -1.9507
 6210SOL    HW324613   4.203   3.936   6.077  1.3619  1.3408  1.2413
 6210SOL    MW424614   4.200   3.861   6.121  0.1513  0.2707 -0.5234
 6211SOL     OW24615   3.683   2.544   6.165  0.0957  0.4441  0.3113
 6211SOL    HW224616   3.661   2.609   6.099 -0.5178 -0.3961 -0.3340
 6211SOL    HW324617   3.767   2.573   6.202  1.0866  0.2726 -1.7036
 6211SOL    MW424618   3.691   2.556   6.161  0.1455  0.3106 -0.0397
 6212SOL     OW24619   5.112   5.674   5.700  0.3031  0.5665 -0.2036
 6212SOL    HW224620   5.063   5.629   5.769  1.7034 -0.9799 -0.1636
 6212SOL    HW324621   5.186   5.714   5.744  0.3053  0.9938 -0.5866
 6212SOL    MW424622   5.115   5.673   5.715  0.4882  0.4189 -0.2488
 6213SOL     OW24623   5.088   5.872   2.525  0.2907 -0.5994 -1.0010
 6213SOL    HW224624   5.052   5.796   2.479  0.6085 -0.7791 -0.9526
 6213SOL    HW324625   5.131   5.923   2.458 -1.5517  0.5436 -1.3959
 6213SOL    MW424626   5.089   5.868   2.510  0.0895 -0.4723 -1.0467
 6214SOL     OW24627   4.720   2.295   6.001  0.0516 -0.4558 -0.1537
 6214SOL    HW224628   4.676   2.319   6.083  0.0529 -2.2427  0.4000
 6214SOL    HW324629   4.654   2.309   5.933 -1.6689 -3.5473  0.7020
 6214SOL    MW424630   4.706   2.300   6.003 -0.1752 -1.0995  0.0323
 6215SOL     OW24631   5.279   4.631   6.319  0.4153 -0.2610  0.1367
 6215SOL    HW224632   5.230   4.645   6.238  0.0397 -0.4324  0.3296
 6215SOL    HW324633   5.368   4.611   6.291  0.0982 -1.1307 -0.2612
 6215SOL    MW424634   5.284   4.630   6.305  0.3239 -0.3984  0.1096
 6216SOL     OW24635   2.091   4.739   4.314 -0.4601 -0.8228 -0.0122
 6216SOL    HW224636   2.135   4.656   4.329  0.1876 -0.9950 -2.5423
 6216SOL    HW324637   2.013   4.717   4.264 -0.2145  0.0784 -0.8279
 6216SOL    MW424638   2.087   4.725   4.310 -0.3422 -0.7266 -0.4537
 6217SOL     OW24639   0.723   1.054   2.058 -0.2327 -0.0420  0.0155
 6217SOL    HW224640   0.727   0.979   1.998  2.1206 -1.0447  1.2980
 6217SOL    HW324641   0.766   1.125   2.010  1.1148 -0.6755  0.2422
 6217SOL    MW424642   0.729   1.053   2.044  0.2556 -0.2579  0.2146
 6218SOL     OW24643   4.444   3.497   0.901 -0.0600 -0.2879 -0.7191
 6218SOL    HW224644   4.408   3.415   0.866 -0.7279 -0.7799  1.0515
 6218SOL    HW324645   4.414   3.564   0.839 -0.5848 -1.2000 -1.4885
 6218SOL    MW424646   4.435   3.495   0.888 -0.2174 -0.4732 -0.5870
 6219SOL     OW24647   2.146   4.344   1.533  0.0485 -0.0295 -0.0442
 6219SOL    HW224648   2.109   4.276   1.588 -0.0124 -0.0760 -0.1435
 6219SOL    HW324649   2.071   4.398   1.508 -0.0980 -0.6574 -1.0066
 6219SOL    MW424650   2.132   4.342   1.537  0.0211 -0.1184 -0.1843
 6220SOL     OW24651   4.041   5.986   6.104 -0.3179  0.1819 -0.2117
 6220SOL    HW224652   4.042   5.890   6.113 -0.5381  0.2047  0.0635
 6220SOL    HW324653   4.024   6.001   6.011  0.4814 -0.0535 -0.4043
 6220SOL    MW424654   4.039   5.975   6.093 -0.2415  0.1539 -0.2008
 6221SOL     OW24655   2.717   0.659   0.682  0.0318 -0.0603  0.0900
 6221SOL    HW224656   2.687   0.589   0.741 -0.6020 -0.5277 -0.7625
 6221SOL    HW324657   2.771   0.715   0.738 -0.3592 -0.6113  1.0625
 6221SOL    MW424658   2.720   0.657   0.697 -0.1034 -0.1946  0.1058
 6222SOL     OW24659   4.107   3.125   2.891  0.2930  0.0856 -0.5636
 6222SOL    HW224660   4.121   3.068   2.815  1.3832 -1.8843  1.0323
 6222SOL    HW324661   4.194   3.158   2.913 -0.2218  1.8618 -1.0034
 6222SOL    MW424662   4.120   3.122   2.884  0.3689  0.0600 -0.4111
 6223SOL     OW24663   5.235   0.294   0.880 -0.3232 -0.4079  0.1419
 6223SOL    HW224664   5.183   0.334   0.810 -1.6267  0.0601  1.3282
 6223SOL    HW324665   5.206   0.339   0.959  1.2533 -0.7959  0.9679
 6223SOL    MW424666   5.224   0.306   0.881 -0.2872 -0.3974  0.4074
 6224SOL     OW24667   6.138   0.817   2.969 -0.2645  0.4303 -0.2154
 6224SOL    HW224668   6.051   0.853   2.986 -0.1317  1.1725 -0.9995
 6224SOL    HW324669   6.199   0.885   2.999 -0.0091  0.8928 -1.6631
 6224SOL    MW424670   6.135   0.831   2.975 -0.2133  0.5892 -0.5098
 6225SOL     OW24671   4.366   0.432   2.634  0.3370  0.2999 -0.6679
 6225SOL    HW224672   4.460   0.431   2.651  0.4690 -1.3041 -1.2468
 6225SOL    HW324673   4.329   0.482   2.707  1.4831 -0.4967  0.5242
 6225SOL    MW424674   4.374   0.438   2.646  0.5056 -0.0168 -0.5870
 6226SOL     OW24675   5.693   3.417   1.719 -0.3069 -0.7282  0.5168
 6226SOL    HW224676   5.660   3.362   1.790 -0.7768 -2.2223 -0.7753
 6226SOL    HW324677   5.706   3.503   1.758  1.5559 -2.0096  2.9148
 6226SOL    MW424678   5.690   3.421   1.733 -0.1231 -1.0944  0.6627
 6227SOL     OW24679   1.717   5.443   3.464 -0.4238 -0.0619 -0.1921
 6227SOL    HW224680   1.797   5.428   3.514  0.0753 -0.8221 -1.1875
 6227SOL    HW324681   1.684   5.527   3.496  0.7519  0.2421  0.2616
 6227SOL    MW424682   1.723   5.452   3.475 -0.2028 -0.1221 -0.2636
 6228SOL     OW24683   5.745   1.512   0.281  0.0643 -0.2979 -0.2346
 6228SOL    HW224684   5.734   1.418   0.269  0.9868 -0.2875 -1.2677
 6228SOL    HW324685   5.663   1.540   0.322  1.0564 -2.0441  3.3745
 6228SOL    MW424686   5.733   1.503   0.285  0.3169 -0.5269  0.1053
 6229SOL     OW24687   0.219   6.405   3.841 -0.3980  0.3257  0.5094
 6229SOL    HW224688   0.206   6.336   3.905 -2.3189  0.8091  0.6967
 6229SOL    HW324689   0.312   6.426   3.847 -0.2811 -0.5305  2.1926
 6229SOL    MW424690   0.230   6.399   3.850 -0.6360  0.2765  0.7562
 6230SOL     OW24691   3.901   0.414   4.461 -0.3706 -0.3522  0.5533
 6230SOL    HW224692   3.935   0.497   4.430 -0.6186  0.1208  1.4974
 6230SOL    HW324693   3.971   0.378   4.516  0.0404 -1.1483 -0.4509
 6230SOL    MW424694   3.915   0.420   4.464 -0.3491 -0.3948  0.5454
 6231SOL     OW24695   3.992   1.166   3.701 -0.2301  0.0753  0.2679
 6231SOL    HW224696   4.070   1.163   3.646  1.2638 -0.6007  2.3066
 6231SOL    HW324697   3.962   1.257   3.694 -0.1926 -0.0076 -1.6914
 6231SOL    MW424698   3.998   1.178   3.693 -0.0280 -0.0248  0.2784
 6232SOL     OW24699   5.120   0.387   0.634 -0.5512 -0.4486 -0.1368
 6232SOL    HW224700   5.194   0.385   0.573  1.1246 -0.7302  1.7857
 6232SOL    HW324701   5.070   0.464   0.608  1.2169  0.6015 -0.6363
 6232SOL    MW424702   5.123   0.397   0.622 -0.0969 -0.3472  0.0509
 6233SOL     OW24703   0.032   1.101   5.372 -0.3132  0.0766 -0.4762
 6233SOL    HW224704   0.062   1.087   5.462  1.7961 -0.4053 -1.1900
 6233SOL    HW324705   0.010   1.013   5.341  1.0963 -0.0719 -1.1036
 6233SOL    MW424706   0.033   1.087   5.380  0.1511 -0.0066 -0.6532
 6234SOL     OW24707   3.351   4.363   2.002  0.0929  0.7446  0.1237
 6234SOL    HW224708   3.330   4.413   2.081 -0.2539 -0.3078  0.7209
 6234SOL    HW324709   3.434   4.400   1.972 -1.3058  3.3382 -0.8821
 6234SOL    MW424710   3.359   4.374   2.008 -0.1374  0.9480  0.0698
 6235SOL     OW24711   2.022   1.393   0.162 -0.7689 -0.5175 -0.4563
 6235SOL    HW224712   2.068   1.402   0.246 -0.1081 -0.7313 -0.7871
 6235SOL    HW324713   1.971   1.313   0.171 -0.1865 -0.8985 -0.4892
 6235SOL    MW424714   2.022   1.384   0.174 -0.6049 -0.5960 -0.5043
 6236SOL     OW24715   2.018   5.300   4.328 -0.5506  0.0546  0.5752
 6236SOL    HW224716   2.094   5.343   4.367  0.0505  0.3326 -0.8523
 6236SOL    HW324717   1.946   5.362   4.341 -0.7456 -0.5209  2.5806
 6236SOL    MW424718   2.019   5.314   4.335 -0.4970  0.0153  0.6514
 6237SOL     OW24719   2.968   0.380   4.146  0.3818  0.0730 -0.4543
 6237SOL    HW224720   2.912   0.303   4.148 -0.6649  0.7669 -1.6841
 6237SOL    HW324721   2.908   0.453   4.159  0.9694  0.8310 -1.8266
 6237SOL    MW424722   2.953   0.379   4.148  0.3212  0.2646 -0.7976
 6238SOL     OW24723   1.263   4.200   0.395 -0.1207  0.2046 -0.0315
 6238SOL    HW224724   1.216   4.276   0.361 -0.1473 -0.0139 -0.4912
 6238SOL    HW324725   1.211   4.172   0.470 -0.8603 -0.1582 -0.6596
 6238SOL    MW424726   1.250   4.206   0.400 -0.2218  0.1279 -0.1750
 6239SOL     OW24727   0.954   1.227   0.138 -0.1244 -0.0835 -0.3742
 6239SOL    HW224728   0.969   1.285   0.063  1.8246 -0.0363  0.0124
 6239SOL    HW324729   0.891   1.275   0.192  0.7970  1.3168 -0.4730
 6239SOL    MW424730   0.948   1.241   0.135  0.2543  0.1075 -0.3362
 6240SOL     OW24731   3.306   0.245   6.011  0.7132 -0.0266 -0.4229
 6240SOL    HW224732   3.328   0.160   5.974  1.0546  0.7394 -2.0965
 6240SOL    HW324733   3.223   0.231   6.056  0.9019 -1.2927 -0.4495
 6240SOL    MW424734   3.298   0.232   6.012  0.7832 -0.0926 -0.6472
 6241SOL     OW24735   1.610   3.212   4.196 -0.8927 -0.0800 -0.1753
 6241SOL    HW224736   1.557   3.165   4.261  0.1861  0.5899  1.2587
 6241SOL    HW324737   1.687   3.157   4.183 -1.2994 -0.4223 -1.2655
 6241SOL    MW424738   1.613   3.199   4.203 -0.8041 -0.0368 -0.1299
 6242SOL     OW24739   0.700   5.918   5.494  0.6621 -0.0044  0.1908
 6242SOL    HW224740   0.792   5.934   5.473  0.4433  1.1935  0.0684
 6242SOL    HW324741   0.687   5.825   5.476  1.6553 -0.0149 -0.5431
 6242SOL    MW424742   0.710   5.908   5.489  0.7643  0.1523  0.0778
 6243SOL     OW24743   0.715   1.237   4.921 -0.2542  0.8153  0.4013
 6243SOL    HW224744   0.671   1.282   4.993 -0.6238  0.2552  0.5345
 6243SOL    HW324745   0.647   1.180   4.883  0.7615 -1.4681  1.7765
 6243SOL    MW424746   0.700   1.235   4.925 -0.1689  0.4401  0.6003
 6244SOL     OW24747   1.702   3.710   3.726  0.7488 -0.5671  0.2866
 6244SOL    HW224748   1.745   3.674   3.648 -0.7516 -1.8007 -0.0147
 6244SOL    HW324749   1.696   3.637   3.787 -0.2867 -0.2523  0.5876
 6244SOL    MW424750   1.707   3.696   3.724  0.4142 -0.6883  0.2866
 6245SOL     OW24751   6.002   5.354   2.952 -0.6597 -0.1266 -0.2522
 6245SOL    HW224752   5.923   5.391   2.913  0.0990 -0.7938 -2.6328
 6245SOL    HW324753   6.072   5.381   2.893  0.7092 -0.6381  1.0816
 6245SOL    MW424754   6.001   5.362   2.939 -0.3790 -0.2821 -0.3903
 6246SOL     OW24755   3.873   1.395   2.355 -0.3338 -0.2054 -0.7255
 6246SOL    HW224756   3.838   1.442   2.431 -2.6862  0.1916 -1.9594
 6246SOL    HW324757   3.889   1.306   2.388 -0.5947  0.1416  0.4033
 6246SOL    MW424758   3.871   1.389   2.370 -0.6786 -0.1072 -0.7394
 6247SOL     OW24759   3.989   2.882   5.194  0.1639 -0.3128  0.1849
 6247SOL    HW224760   3.913   2.906   5.141 -0.6725 -1.0674  1.0011
 6247SOL    HW324761   3.983   2.787   5.204  1.2364 -0.3893  0.2470
 6247SOL    MW424762   3.978   2.872   5.188  0.1951 -0.4224  0.3008
 6248SOL     OW24763   1.663   1.991   3.221 -0.0106 -0.1845  0.3753
 6248SOL    HW224764   1.702   2.059   3.276  0.1586  0.6252 -0.6984
 6248SOL    HW324765   1.572   2.018   3.211  0.8230  2.0843 -3.0714
 6248SOL    MW424766   1.656   2.004   3.227  0.1217  0.2217 -0.2211
 6249SOL     OW24767   5.699   4.641   0.262  0.0046 -0.0283  0.1716
 6249SOL    HW224768   5.657   4.593   0.190  0.1113  0.2237 -0.0614
 6249SOL    HW324769   5.770   4.583   0.291 -0.7724 -0.6634  0.8724
 6249SOL    MW424770   5.703   4.627   0.256 -0.0838 -0.0788  0.2333
 6250SOL     OW24771   6.221   2.711   3.923 -0.6235  0.1163 -0.3049
 6250SOL    HW224772   6.206   2.674   3.836 -1.4010 -1.5331  0.4840
 6250SOL    HW324773   6.302   2.761   3.915 -0.1207 -0.8819 -1.7017
 6250SOL    MW424774   6.230   2.713   3.911 -0.6598 -0.2330 -0.3851
 6251SOL     OW24775   2.524   0.777   4.192 -0.1714 -0.0636 -0.6329
 6251SOL    HW224776   2.566   0.788   4.106 -1.2739  2.2299 -0.9509
 6251SOL    HW324777   2.484   0.862   4.210  0.4747 -0.2953  2.4343
 6251SOL    MW424778   2.524   0.789   4.183 -0.2316  0.2084 -0.2702
 6252SOL     OW24779   1.127   3.594   0.361  0.2334  0.0364 -0.1249
 6252SOL    HW224780   1.086   3.560   0.282  0.0761  1.3995 -0.6582
 6252SOL    HW324781   1.191   3.527   0.386 -0.3783 -0.8388 -0.8573
 6252SOL    MW424782   1.130   3.581   0.354  0.1319  0.1008 -0.2919
 6253SOL     OW24783   3.932   0.705   1.937 -0.1282 -0.1390  0.1863
 6253SOL    HW224784   3.925   0.800   1.929 -1.0255 -0.0768  1.3339
 6253SOL    HW324785   4.024   0.686   1.920 -0.0896  0.8355 -0.8176
 6253SOL    MW424786   3.943   0.715   1.934 -0.2415 -0.0022  0.2053
 6254SOL     OW24787   4.211   1.453   2.934 -0.0635 -0.4484  0.0641
 6254SOL    HW224788   4.306   1.461   2.943  0.1960 -1.2360 -1.5444
 6254SOL    HW324789   4.187   1.381   2.991  0.7713 -2.1403 -1.5975
 6254SOL    MW424790   4.221   1.445   2.943  0.0809 -0.7755 -0.3674
 6255SOL     OW24791   2.243   0.555   1.860 -0.7676  0.5048  0.1774
 6255SOL    HW224792   2.282   0.635   1.893 -0.6935  0.2409  0.7482
 6255SOL    HW324793   2.250   0.493   1.933 -2.1488  0.4214  0.2724
 6255SOL    MW424794   2.249   0.557   1.874 -0.9401  0.4590  0.2653
 6256SOL     OW24795   3.428   2.260   3.339 -0.2060 -0.2472  0.3296
 6256SOL    HW224796   3.485   2.211   3.398 -0.4891  0.5774  1.3265
 6256SOL    HW324797   3.468   2.251   3.253  0.7656 -0.6704  0.8102
 6256SOL    MW424798   3.441   2.253   3.336 -0.1151 -0.1942  0.5245
 6257SOL     OW24799   2.921   2.631   0.771  0.1654 -0.6471 -0.3920
 6257SOL    HW224800   2.998   2.580   0.794  1.0782  0.4235 -0.9817
 6257SOL    HW324801   2.854   2.604   0.835  2.5628  2.2853  3.9193
 6257SOL    MW424802   2.922   2.621   0.783  0.6022 -0.1190  0.0990
 6258SOL     OW24803   2.529   2.839   2.548  0.2692  0.1325 -0.3913
 6258SOL    HW224804   2.557   2.844   2.456 -0.8053  3.3085 -0.6759
 6258SOL    HW324805   2.604   2.870   2.598  0.3891 -0.3106 -0.2879
 6258SOL    MW424806   2.542   2.844   2.542  0.1432  0.4930 -0.4152
 6259SOL     OW24807   5.442   3.576   3.540 -0.4076 -0.0078  0.1421
 6259SOL    HW224808   5.409   3.489   3.565  1.0527 -0.3728  0.9092
 6259SOL    HW324809   5.429   3.630   3.618  0.1455  0.0390  0.2002
 6259SOL    MW424810   5.436   3.572   3.554 -0.1419 -0.0498  0.2510
 6260SOL     OW24811   1.275   0.055   0.069 -0.1884  0.1286 -0.9342
 6260SOL    HW224812   1.183   0.029   0.070 -0.1459 -0.3896 -3.5411
 6260SOL    HW324813   1.323  -0.028   0.074  0.1402  0.3478 -0.3455
 6260SOL    MW424814   1.269   0.040   0.070 -0.1394  0.0891 -1.2005
 6261SOL     OW24815   4.305   3.698   2.377 -0.5494 -0.2934 -0.2599
 6261SOL    HW224816   4.254   3.770   2.340  0.1192 -0.1397 -0.8995
 6261SOL    HW324817   4.253   3.620   2.357 -0.5557 -0.1370 -0.9020
 6261SOL    MW424818   4.291   3.697   2.369 -0.4620 -0.2525 -0.4290
 6262SOL     OW24819   6.273   2.431   2.225 -0.1140 -0.1899 -0.2142
 6262SOL    HW224820   6.250   2.517   2.191 -1.6961 -0.0421  1.0810
 6262SOL    HW324821   6.212   2.371   2.182 -1.1294 -0.2004  1.1779
 6262SOL    MW424822   6.262   2.434   2.215 -0.4567 -0.1718  0.1404
 6263SOL     OW24823   4.863   3.806   5.900  0.5250 -0.3223 -0.4962
 6263SOL    HW224824   4.921   3.746   5.854  0.8343 -0.9178  0.6206
 6263SOL    HW324825   4.897   3.807   5.990 -1.6399 -1.3299  0.4196
 6263SOL    MW424826   4.875   3.798   5.906  0.2802 -0.5338 -0.2280
 6264SOL     OW24827   1.015   4.009   3.855  0.2635 -0.2172 -0.0247
 6264SOL    HW224828   0.954   3.935   3.858 -0.2419 -0.0152 -2.5118
 6264SOL    HW324829   1.079   3.984   3.788  1.9408  0.3039  1.3305
 6264SOL    MW424830   1.015   3.996   3.846  0.4181 -0.1218 -0.1740
 6265SOL     OW24831   5.067   3.006   1.597 -0.5165 -0.2936 -0.1525
 6265SOL    HW224832   5.130   2.938   1.620  1.4757  1.0814 -1.2549
 6265SOL    HW324833   5.029   2.978   1.514  0.6712  0.1228 -0.8612
 6265SOL    MW424834   5.070   2.994   1.590 -0.0969 -0.0572 -0.3914
 6266SOL     OW24835   5.562   1.170   6.302 -0.5201  0.3232  0.5580
 6266SOL    HW224836   5.617   1.248   6.301  1.7420 -1.1854  1.0819
 6266SOL    HW324837   5.557   1.143   6.210 -0.0416  0.2240  0.5624
 6266SOL    MW424838   5.569   1.177   6.289 -0.1585  0.1111  0.6277
 6267SOL     OW24839   0.571   3.480   3.834  0.0194 -0.6864 -0.0467
 6267SOL    HW224840   0.487   3.452   3.796 -0.6937  1.4090 -0.1400
 6267SOL    HW324841   0.548   3.514   3.921  1.0968 -1.9537  0.7633
 6267SOL    MW424842   0.557   3.481   3.840  0.0674 -0.5772  0.0479
 6268SOL     OW24843   5.237   5.194   4.379 -0.1918 -0.2811  0.6601
 6268SOL    HW224844   5.228   5.121   4.317 -0.3511 -0.1347  0.5096
 6268SOL    HW324845   5.150   5.202   4.418 -1.4661  2.4555 -2.2676
 6268SOL    MW424846   5.224   5.185   4.376 -0.3810  0.0993  0.2540
 6269SOL     OW24847   0.384   0.244   0.950  0.2257 -0.5626 -0.2901
 6269SOL    HW224848   0.357   0.324   0.996 -0.8754 -0.5805 -0.8747
 6269SOL    HW324849   0.391   0.178   1.019  0.7639 -0.0662  0.1437
 6269SOL    MW424850   0.381   0.246   0.966  0.1514 -0.4995 -0.3100
 6270SOL     OW24851   1.495   5.420   2.005 -0.2250  0.1994 -0.4638
 6270SOL    HW224852   1.412   5.465   2.020 -0.9232  0.0944 -3.5066
 6270SOL    HW324853   1.475   5.351   1.942  1.6491 -1.7850  0.9458
 6270SOL    MW424854   1.481   5.417   1.999 -0.0699 -0.0762 -0.6793
 6271SOL     OW24855   1.083   6.099   3.678  0.8397  0.3305 -0.2816
 6271SOL    HW224856   1.019   6.160   3.641  0.2371 -1.0929 -1.6564
 6271SOL    HW324857   1.166   6.125   3.639  0.9253  1.3883  0.5462
 6271SOL    MW424858   1.085   6.111   3.668  0.7715  0.2823 -0.3538
 6272SOL     OW24859   0.484   3.100   1.200 -0.3799  0.7117  0.2530
 6272SOL    HW224860   0.440   3.060   1.275 -0.0484 -0.1772 -0.0112
 6272SOL    HW324861   0.550   3.158   1.238  0.0879 -0.0679  0.6565
 6272SOL    MW424862   0.487   3.102   1.215 -0.2744  0.4915  0.2714
 6273SOL     OW24863   0.733   5.328   1.948 -0.4805 -0.8004  0.8091
 6273SOL    HW224864   0.645   5.321   1.910  0.8151 -1.7046 -2.2916
 6273SOL    HW324865   0.746   5.244   1.992 -1.1028 -0.6996  1.2060
 6273SOL    MW424866   0.723   5.316   1.949 -0.3917 -0.9064  0.4524
 6274SOL     OW24867   3.285   1.135   2.651 -0.5097  0.4429  0.1111
 6274SOL    HW224868   3.363   1.162   2.698 -0.2794  1.4186 -0.8046
 6274SOL    HW324869   3.304   1.046   2.620 -0.9274 -0.5100  2.3739
 6274SOL    MW424870   3.298   1.127   2.653 -0.5344  0.4459  0.2888
 6275SOL     OW24871   1.673   5.965   5.444  0.0192  0.3640  0.2619
 6275SOL    HW224872   1.647   5.872   5.448 -0.7626  0.6047  1.0640
 6275SOL    HW324873   1.661   5.988   5.352 -2.3386  0.3465  0.4973
 6275SOL    MW424874   1.668   5.956   5.432 -0.3951  0.3934  0.3988
 6276SOL     OW24875   4.802   4.252   1.764 -0.2161  0.2047 -0.4200
 6276SOL    HW224876   4.868   4.300   1.715 -1.9291  1.3097 -1.7453
 6276SOL    HW324877   4.729   4.241   1.703 -1.7223  0.0337  1.3276
 6276SOL    MW424878   4.801   4.257   1.750 -0.6409  0.3279 -0.3643
 6277SOL     OW24879   1.431   3.457   4.818 -0.1709 -0.4517  0.0876
 6277SOL    HW224880   1.426   3.429   4.727  0.6452 -1.2735  0.2841
 6277SOL    HW324881   1.340   3.456   4.849 -0.5187  0.3926 -0.8696
 6277SOL    MW424882   1.419   3.453   4.810 -0.1091 -0.4488 -0.0128
 6278SOL     OW24883   2.599   5.552   0.188 -0.0615 -0.1552  0.0255
 6278SOL    HW224884   2.656   5.540   0.264  2.5041  3.4187 -1.1086
 6278SOL    HW324885   2.637   5.496   0.120  0.4034  0.1069  0.0689
 6278SOL    MW424886   2.611   5.543   0.189  0.3383  0.3509 -0.1184
 6279SOL     OW24887   5.710   3.758   4.897  0.8325 -0.2457  0.6156
 6279SOL    HW224888   5.621   3.723   4.908  1.0015 -1.5083 -1.5378
 6279SOL    HW324889   5.766   3.696   4.942  0.6819  0.3618  1.6714
 6279SOL    MW424890   5.705   3.745   4.904  0.8349 -0.3321  0.4708
 6280SOL     OW24891   1.241   5.182   0.813 -0.0892  0.4863  0.0867
 6280SOL    HW224892   1.166   5.123   0.799  0.5520  0.0714 -2.0591
 6280SOL    HW324893   1.309   5.125   0.850  0.6453 -0.3271 -2.3039
 6280SOL    MW424894   1.240   5.166   0.816  0.0923  0.3243 -0.5118
 6281SOL     OW24895   2.429   2.332   2.624 -0.1446 -1.0134  0.6817
 6281SOL    HW224896   2.403   2.313   2.714  0.5336 -0.1598  1.0662
 6281SOL    HW324897   2.469   2.250   2.593  0.8092 -0.9061  1.5991
 6281SOL    MW424898   2.431   2.319   2.632  0.0707 -0.8866  0.8535
 6282SOL     OW24899   3.119   0.020   5.660  0.1663 -0.4815  0.2285
 6282SOL    HW224900   3.173   0.056   5.589  0.1357  0.3277  0.6020
 6282SOL    HW324901   3.181   0.005   5.732  0.3765 -2.2362 -0.2709
 6282SOL    MW424902   3.134   0.023   5.660  0.1900 -0.6062  0.2119
 6283SOL     OW24903   5.396   2.317   1.658 -0.1042  0.1301 -0.2649
 6283SOL    HW224904   5.430   2.285   1.574  0.1896  1.7312 -0.7993
 6283SOL    HW324905   5.453   2.278   1.724 -0.0652 -0.8112 -0.8458
 6283SOL    MW424906   5.408   2.308   1.655 -0.0603  0.2171 -0.4120
 6284SOL     OW24907   3.216   4.447   1.343 -0.4558 -0.2948 -0.1225
 6284SOL    HW224908   3.162   4.524   1.321 -0.5397 -0.2104  0.3781
 6284SOL    HW324909   3.306   4.479   1.342 -0.3260 -0.6195 -1.7843
 6284SOL    MW424910   3.221   4.461   1.340 -0.4498 -0.3265 -0.2757
 6285SOL     OW24911   0.294   2.683   1.624  0.1873 -0.0851 -0.4245
 6285SOL    HW224912   0.350   2.701   1.700  1.2410  0.7266 -1.3628
 6285SOL    HW324913   0.239   2.610   1.652  2.1857 -1.3807  0.2997
 6285SOL    MW424914   0.294   2.676   1.638  0.5900 -0.1489 -0.4528
 6286SOL     OW24915   0.257   6.234   1.475  0.2999 -0.4589  0.3362
 6286SOL    HW224916   0.350   6.248   1.455  0.3088  0.4297  0.9354
 6286SOL    HW324917   0.211   6.284   1.407  0.2693 -0.5222  0.3105
 6286SOL    MW424918   0.263   6.243   1.463  0.2970 -0.3500  0.4119
 6287SOL     OW24919   3.017   1.185   3.558  0.6248 -0.1371  0.8368
 6287SOL    HW224920   2.947   1.135   3.514  1.4414  0.4803 -1.2999
 6287SOL    HW324921   2.989   1.276   3.552  1.1993  0.0384  0.7359
 6287SOL    MW424922   3.004   1.190   3.551  0.8084 -0.0325  0.5416
 6288SOL     OW24923   2.903   6.258   2.276  0.6339 -0.2633  0.1677
 6288SOL    HW224924   2.965   6.279   2.346  1.7192  0.7518 -1.0359
 6288SOL    HW324925   2.820   6.244   2.321  0.9053  2.0215  1.5694
 6288SOL    MW424926   2.900   6.259   2.291  0.8129  0.1721  0.1938
 6289SOL     OW24927   2.947   3.932   5.714  0.7108  0.0533  0.7039
 6289SOL    HW224928   3.038   3.949   5.691  1.0076 -0.9917  1.0442
 6289SOL    HW324929   2.909   4.019   5.728  1.5252  0.5178  0.1001
 6289SOL    MW424930   2.954   3.946   5.713  0.8574 -0.0233  0.6691
 6290SOL     OW24931   5.118   4.036   3.799 -0.0588  0.5794  0.2494
 6290SOL    HW224932   5.106   3.968   3.866  0.8985  0.4898  0.3442
 6290SOL    HW324933   5.212   4.053   3.799 -0.0899  0.8163 -0.8486
 6290SOL    MW424934   5.129   4.029   3.808  0.0634  0.5988  0.1171
 6291SOL     OW24935   3.358   3.848   3.316 -0.1082 -0.0424  0.3890
 6291SOL    HW224936   3.379   3.861   3.224 -1.4781  0.0049  0.0678
 6291SOL    HW324937   3.293   3.916   3.335  0.8726  0.5914  1.6615
 6291SOL    MW424938   3.352   3.859   3.307 -0.1596  0.0474  0.5145
 6292SOL     OW24939   1.090   1.813   0.488 -0.0506 -0.1530  0.4013
 6292SOL    HW224940   1.144   1.816   0.409 -0.2586  0.7784  0.2944
 6292SOL    HW324941   1.150   1.838   0.559 -0.2230  0.4515  0.3397
 6292SOL    MW424942   1.105   1.816   0.487 -0.1008  0.0496  0.3791
 6293SOL     OW24943   2.528   2.629   1.538  0.5162  0.0278  0.6170
 6293SOL    HW224944   2.520   2.598   1.448 -0.9476 -0.4642  0.8989
 6293SOL    HW324945   2.596   2.573   1.576 -1.0276 -1.8948  0.6836
 6293SOL    MW424946   2.536   2.617   1.531  0.1194 -0.2907  0.6630
 6294SOL     OW24947   4.130   6.243   3.778  0.4161  0.4121  0.1542
 6294SOL    HW224948   4.226   6.240   3.780  0.4295  0.9006  0.2142
 6294SOL    HW324949   4.104   6.253   3.869  0.3014  0.1477  0.1516
 6294SOL    MW424950   4.139   6.244   3.790  0.4028  0.4417  0.1618
 6295SOL     OW24951   0.741   0.337   5.175  0.2390 -0.1467  0.1706
 6295SOL    HW224952   0.704   0.265   5.227 -0.1676 -0.1799 -0.1555
 6295SOL    HW324953   0.664   0.385   5.144  0.4855 -0.0322 -0.2615
 6295SOL    MW424954   0.726   0.334   5.178  0.2179 -0.1360  0.0705
 6296SOL     OW24955   4.986   5.881   3.836  0.3827 -0.4671  0.2852
 6296SOL    HW224956   4.904   5.926   3.812 -0.2800 -1.3737  0.7763
 6296SOL    HW324957   5.054   5.946   3.821 -0.4092  0.2478 -0.3330
 6296SOL    MW424958   4.984   5.895   3.831  0.1908 -0.4924  0.2684
 6297SOL     OW24959   1.934   6.340   0.791 -0.1377  0.1718  0.1680
 6297SOL    HW224960   1.880   6.384   0.856 -0.8585  0.1772 -0.4250
 6297SOL    HW324961   1.885   6.261   0.769  0.0861  0.1865 -0.3906
 6297SOL    MW424962   1.921   6.335   0.797 -0.2033  0.1744  0.0161
 6298SOL     OW24963   6.314   0.551   4.607 -0.3963  0.1180  0.2063
 6298SOL    HW224964   6.342   0.490   4.539 -2.9603 -0.5752 -0.3152
 6298SOL    HW324965   6.297   0.496   4.683 -2.2860  0.1874 -0.1303
 6298SOL    MW424966   6.316   0.536   4.608 -0.9839  0.0357  0.0931
 6299SOL     OW24967   2.297   0.171   4.414  0.3660 -0.2426  0.2196
 6299SOL    HW224968   2.277   0.079   4.427  2.3049 -0.4820  1.9378
 6299SOL    HW324969   2.390   0.173   4.392  0.1064  1.2550 -0.9665
 6299SOL    MW424970   2.307   0.159   4.413  0.5875 -0.0766  0.2898
 6300SOL     OW24971   2.435   5.631   2.859 -0.1147 -0.0319 -0.4292
 6300SOL    HW224972   2.517   5.593   2.826  0.6923  1.7444 -0.6030
 6300SOL    HW324973   2.442   5.624   2.955  0.5870  0.7107 -0.4102
 6300SOL    MW424974   2.447   5.625   2.868  0.0843  0.3004 -0.4496
 6301SOL     OW24975   4.207   4.366   3.628  0.2126  0.1626  0.4727
 6301SOL    HW224976   4.160   4.295   3.670  0.1738  0.1479  0.4044
 6301SOL    HW324977   4.292   4.329   3.605 -0.4637 -0.4300 -1.2529
 6301SOL    MW424978   4.212   4.352   3.630  0.1182  0.0825  0.2360
 6302SOL     OW24979   0.643   4.548   2.199 -0.0947  0.3203 -0.2297
 6302SOL    HW224980   0.572   4.593   2.153 -0.1905  0.3827 -0.0200
 6302SOL    HW324981   0.637   4.579   2.289 -0.2705 -0.2297 -0.0424
 6302SOL    MW424982   0.633   4.558   2.205 -0.1306  0.2560 -0.1773
 6303SOL     OW24983   5.119   2.603   3.307  0.0755  1.1734  0.2351
 6303SOL    HW224984   5.043   2.611   3.364 -0.6959  2.4449 -0.9127
 6303SOL    HW324985   5.170   2.683   3.324  0.5983  0.8569  0.1896
 6303SOL    MW424986   5.116   2.614   3.317  0.0427  1.2994  0.0777
 6304SOL     OW24987   0.091   3.014   3.717  0.3030 -0.7792  0.3682
 6304SOL    HW224988   0.178   3.041   3.747  0.5099 -1.7825  0.7330
 6304SOL    HW324989   0.105   2.982   3.628  0.0490  0.3042 -0.0830
 6304SOL    MW424990   0.104   3.013   3.709  0.2968 -0.7686  0.3568
 6305SOL     OW24991   6.060   6.273   0.565 -0.1155  0.3157 -0.4246
 6305SOL    HW224992   6.137   6.217   0.557  0.1037  0.4297  0.7876
 6305SOL    HW324993   6.014   6.262   0.482  0.9451 -0.1372 -0.9742
 6305SOL    MW424994   6.064   6.264   0.553  0.0534  0.2710 -0.3372
 6306SOL     OW24995   5.795   5.375   0.590  0.4690 -0.1294 -0.2194
 6306SOL    HW224996   5.776   5.376   0.684  0.0956  0.5208 -0.2926
 6306SOL    HW324997   5.717   5.412   0.549  1.0001  0.4971 -0.7078
 6306SOL    MW424998   5.782   5.380   0.597  0.4898  0.0390 -0.2935
 6307SOL     OW24999   2.681   3.803   6.186  0.1704  0.7149  0.6583
 6307SOL    HW225000   2.770   3.768   6.191  0.4648  1.0954 -1.2847
 6307SOL    HW325001   2.625   3.725   6.184  0.5614  0.4411  0.3292
 6307SOL    MW425002   2.685   3.788   6.187  0.2609  0.7290  0.3585
 6308SOL     OW25003   6.009   3.275   4.453 -0.2286 -0.6090  0.1758
 6308SOL    HW225004   6.091   3.287   4.500  0.4321 -0.3814 -1.0021
 6308SOL    HW325005   5.989   3.182   4.461 -1.5810 -0.1737  3.2004
 6308SOL    MW425006   6.017   3.264   4.460 -0.3198 -0.5215  0.4194
 6309SOL     OW25007   2.066   5.254   2.787  0.6219  0.1414 -0.2331
 6309SOL    HW225008   2.094   5.165   2.808  2.4183  0.6633 -0.2192
 6309SOL    HW325009   2.104   5.309   2.856  0.0670  0.9891 -0.5799
 6309SOL    MW425010   2.075   5.250   2.799  0.7857  0.3221 -0.2770
 6310SOL     OW25011   6.010   3.920   2.196 -0.3821  0.2186 -0.0297
 6310SOL    HW225012   6.044   3.870   2.121 -1.1999  0.6041 -0.6712
 6310SOL    HW325013   6.087   3.965   2.231  0.4124 -1.6167  0.6794
 6310SOL    MW425014   6.025   3.919   2.191 -0.3852  0.0273 -0.0208
 6311SOL     OW25015   4.457   0.095   0.378  0.4435 -0.5136 -0.2205
 6311SOL    HW225016   4.382   0.123   0.431 -0.2720 -2.1554 -0.2767
 6311SOL    HW325017   4.484   0.012   0.418  2.5003  0.2216  0.0176
 6311SOL    MW425018   4.451   0.088   0.390  0.6205 -0.6332 -0.1965
 6312SOL     OW25019   6.354   3.176   0.949  0.2550 -0.3006 -0.8932
 6312SOL    HW225020   6.302   3.221   1.016  2.1537  1.2810 -0.3830
 6312SOL    HW325021   6.298   3.104   0.920 -2.5657  1.7698 -1.0354
 6312SOL    MW425022   6.340   3.172   0.954  0.1333  0.1812 -0.8446
 6313SOL     OW25023   0.088   5.771   1.585 -0.2282  0.1686 -0.3521
 6313SOL    HW225024   0.045   5.832   1.525 -0.4250  1.2152  0.7975
 6313SOL    HW325025   0.131   5.828   1.649 -1.0610 -0.8948  1.2095
 6313SOL    MW425026   0.088   5.787   1.586 -0.3641  0.1664  0.0056
 6314SOL     OW25027   5.940   4.637   2.319 -0.4690  0.4084  0.0924
 6314SOL    HW225028   5.866   4.601   2.270 -1.2542  1.5344  0.4083
 6314SOL    HW325029   5.934   4.596   2.406 -0.3766  0.0664 -0.0618
 6314SOL    MW425030   5.929   4.627   2.324 -0.5604  0.5119  0.1138
 6315SOL     OW25031   4.927   1.844   1.737  0.7386 -0.5655  1.0499
 6315SOL    HW225032   4.916   1.897   1.658 -1.5726 -1.8469  0.4236
 6315SOL    HW325033   4.904   1.755   1.710  0.6638 -1.1863  2.9769
 6315SOL    MW425034   4.922   1.839   1.723  0.4238 -0.8165  1.2215
 6316SOL     OW25035   3.622   3.166   2.190  0.1494  0.0677  0.4305
 6316SOL    HW225036   3.576   3.141   2.270 -0.0810 -0.6637  0.0831
 6316SOL    HW325037   3.589   3.105   2.124 -0.8771  1.6784 -0.6089
 6316SOL    MW425038   3.612   3.154   2.192 -0.0165  0.1837  0.2475
 6317SOL     OW25039   2.758   5.530   3.543  0.1873  0.6269 -0.0610
 6317SOL    HW225040   2.664   5.518   3.556  0.5449 -1.4254  1.2313
 6317SOL    HW325041   2.786   5.449   3.501  1.6837  0.1552  1.6968
 6317SOL    MW425042   2.749   5.517   3.539  0.4319  0.2939  0.3414
 6318SOL     OW25043   0.686   0.508   3.968  0.4567 -0.3031 -0.5408
 6318SOL    HW225044   0.635   0.501   4.048 -0.4700 -0.1714 -1.1085
 6318SOL    HW325045   0.652   0.586   3.924  0.4486 -0.7840 -1.4145
 6318SOL    MW425046   0.675   0.517   3.972  0.3334 -0.3492 -0.7309
 6319SOL     OW25047   5.807   3.617   5.775 -0.9205 -0.9540  0.0153
 6319SOL    HW225048   5.823   3.674   5.850 -1.5825  1.1610 -1.3747
 6319SOL    HW325049   5.734   3.562   5.802 -0.7331 -0.6791  1.1402
 6319SOL    MW425050   5.799   3.617   5.788 -0.9832 -0.6387 -0.0197
 6320SOL     OW25051   5.386   1.270   1.797  0.2669  0.0248  0.3910
 6320SOL    HW225052   5.358   1.234   1.881  1.1041 -1.7441 -0.0348
 6320SOL    HW325053   5.307   1.309   1.760 -0.1999  0.4973  1.8012
 6320SOL    MW425054   5.372   1.270   1.803  0.3158 -0.1463  0.5209
 6321SOL     OW25055   0.880   2.529   0.659 -0.0946  0.5363 -0.3491
 6321SOL    HW225056   0.881   2.484   0.743  2.6870  1.2176  0.1045
 6321SOL    HW325057   0.836   2.468   0.600 -2.3371  0.1448  1.5738
 6321SOL    MW425058   0.875   2.515   0.662 -0.0235  0.5745 -0.0355
 6322SOL     OW25059   1.004   1.077   5.667 -0.2725  0.1891  0.2861
 6322SOL    HW225060   0.943   1.140   5.629 -0.6772  0.4722  1.3690
 6322SOL    HW325061   1.038   1.028   5.593 -3.0118 -1.0787 -0.2386
 6322SOL    MW425062   1.001   1.079   5.653 -0.6873  0.0592  0.3597
 6323SOL     OW25063   2.800   6.351   5.134 -0.6581  0.1806 -0.0019
 6323SOL    HW225064   2.769   6.307   5.214 -0.0848  0.0029  0.1260
 6323SOL    HW325065   2.757   6.436   5.135  1.1562  1.1713  1.7651
 6323SOL    MW425066   2.790   6.356   5.145 -0.3431  0.2879  0.2481
 6324SOL     OW25067   0.389   5.207   2.137  0.3282 -0.5577 -0.1649
 6324SOL    HW225068   0.414   5.274   2.200 -0.5159 -1.2817  0.9800
 6324SOL    HW325069   0.295   5.220   2.123  0.1816 -1.4015 -0.0244
 6324SOL    MW425070   0.380   5.217   2.144  0.1975 -0.7645  0.0047
 6325SOL     OW25071   6.103   1.549   0.065 -0.5028 -0.8366 -0.1587
 6325SOL    HW225072   6.155   1.473   0.090  0.3098 -0.9821 -2.0814
 6325SOL    HW325073   6.126   1.616   0.128  0.1885 -1.6310  0.4569
 6325SOL    MW425074   6.113   1.548   0.077 -0.3044 -0.9606 -0.3312
 6326SOL     OW25075   3.233   5.589   2.133  0.2613 -0.1063 -0.2024
 6326SOL    HW225076   3.151   5.630   2.105  0.6335  1.3397  0.7499
 6326SOL    HW325077   3.205   5.510   2.179 -0.8132  1.6341  2.3717
 6326SOL    MW425078   3.218   5.584   2.135  0.1687  0.3141  0.2629
 6327SOL     OW25079   3.915   3.531   0.466  0.0891  0.3137  0.2791
 6327SOL    HW225080   3.952   3.518   0.554  0.0721  2.3680  0.6314
 6327SOL    HW325081   3.821   3.534   0.480  0.1197  1.3360  0.3093
 6327SOL    MW425082   3.908   3.530   0.480  0.0909  0.7196  0.3295
 6328SOL     OW25083   5.672   2.066   1.127 -0.1252  0.2241 -0.2457
 6328SOL    HW225084   5.750   2.019   1.097  0.7288  1.5931 -0.3028
 6328SOL    HW325085   5.600   2.005   1.114  0.6378 -0.3374 -2.2340
 6328SOL    MW425086   5.673   2.052   1.121  0.0881  0.3306 -0.5156
 6329SOL     OW25087   3.912   2.067   2.217  0.1742 -0.3133 -0.0412
 6329SOL    HW225088   4.003   2.086   2.241  0.3209 -1.1797  0.0868
 6329SOL    HW325089   3.915   1.984   2.170 -0.7597 -1.2984  1.5373
 6329SOL    MW425090   3.924   2.059   2.214  0.0704 -0.5576  0.1840
 6330SOL     OW25091   4.145   1.966   1.425 -0.1570  0.1758  0.0028
 6330SOL    HW225092   4.229   1.994   1.462  1.3455 -1.2957 -2.0906
 6330SOL    HW325093   4.124   2.032   1.360  1.1346 -1.1139 -1.8077
 6330SOL    MW425094   4.153   1.978   1.422  0.2116 -0.1885 -0.5123
 6331SOL     OW25095   0.795   4.330   3.871  0.2305 -0.3409 -0.4298
 6331SOL    HW225096   0.734   4.308   3.801 -0.5195 -2.1861  0.7061
 6331SOL    HW325097   0.741   4.332   3.950  1.2829  0.2597  0.3018
 6331SOL    MW425098   0.780   4.327   3.872  0.2704 -0.5051 -0.1834
 6332SOL     OW25099   0.134   4.375   0.359  0.2983 -0.0717  0.4341
 6332SOL    HW225100   0.141   4.410   0.271 -1.5800  1.0912  0.6832
 6332SOL    HW325101   0.190   4.431   0.413 -1.5738  1.7734  0.5826
 6332SOL    MW425102   0.142   4.387   0.355 -0.1965  0.3252  0.4866
 6333SOL     OW25103   4.043   2.235   3.413  0.6462 -0.3991 -0.2739
 6333SOL    HW225104   3.989   2.306   3.377 -0.9169 -1.2148  0.3896
 6333SOL    HW325105   4.115   2.281   3.457  0.5321  0.7180 -1.1929
 6333SOL    MW425106   4.046   2.251   3.414  0.4249 -0.3593 -0.3076
 6334SOL     OW25107   6.035   2.196   2.701  0.4523  0.7362 -0.0281
 6334SOL    HW225108   6.111   2.248   2.725  2.4658 -1.9160 -0.2466
 6334SOL    HW325109   6.026   2.209   2.607  0.5782  1.0989  0.0071
 6334SOL    MW425110   6.044   2.205   2.692  0.7346  0.4341 -0.0523
 6335SOL     OW25111   4.823   0.474   6.225 -0.2351 -0.6451  0.0389
 6335SOL    HW225112   4.869   0.498   6.145 -0.1361 -0.5651  0.1178
 6335SOL    HW325113   4.875   0.401   6.261 -0.5555 -1.0001 -0.2193
 6335SOL    MW425114   4.836   0.467   6.219 -0.2643 -0.6814  0.0152
 6336SOL     OW25115   3.923   6.381   5.141  0.1729 -0.1344  0.5827
 6336SOL    HW225116   3.848   6.397   5.083  0.6062 -2.6349 -0.7827
 6336SOL    HW325117   3.937   6.465   5.185 -0.8338  1.6061 -2.1561
 6336SOL    MW425118   3.915   6.395   5.139  0.0973 -0.2347  0.0412
 6337SOL     OW25119   1.731   4.588   3.138 -0.5166  0.1000  0.0600
 6337SOL    HW225120   1.774   4.617   3.058 -1.5832 -0.1445 -0.6169
 6337SOL    HW325121   1.742   4.662   3.198 -0.6543  0.7265 -0.6706
 6337SOL    MW425122   1.738   4.602   3.136 -0.6755  0.1504 -0.1257
 6338SOL     OW25123   6.060   1.950   5.261  0.0379 -0.0312 -0.5792
 6338SOL    HW225124   6.085   1.873   5.311 -0.9286 -0.2779 -0.4628
 6338SOL    HW325125   6.074   1.925   5.169 -2.4316 -1.2219 -0.7200
 6338SOL    MW425126   6.065   1.937   5.255 -0.4154 -0.2208 -0.5825
 6339SOL     OW25127   0.414   4.139   3.925  0.2140 -0.1851 -0.0001
 6339SOL    HW225128   0.395   4.226   3.960  0.2521 -0.6973  1.3588
 6339SOL    HW325129   0.344   4.122   3.862 -0.6413  0.2397  0.8124
 6339SOL    MW425130   0.403   4.148   3.921  0.1062 -0.1966  0.2864
 6340SOL     OW25131   1.184   2.498   3.985 -0.3321 -0.4708 -0.2694
 6340SOL    HW225132   1.256   2.560   3.993 -1.1261  0.2507  1.6490
 6340SOL    HW325133   1.227   2.415   3.963  0.8234  0.4783 -1.8118
 6340SOL    MW425134   1.199   2.495   3.983 -0.2844 -0.2504 -0.2198
 6341SOL     OW25135   6.001   6.147   5.000  0.1372  0.2852 -0.3226
 6341SOL    HW225136   5.997   6.206   5.075 -0.6717 -0.1367 -0.0277
 6341SOL    HW325137   6.095   6.130   4.988  0.2143 -1.3402  1.9405
 6341SOL    MW425138   6.013   6.153   5.008  0.0406  0.0151  0.0149
 6342SOL     OW25139   5.959   0.558   0.682 -0.0992  0.2420  0.1767
 6342SOL    HW225140   5.882   0.614   0.676  0.6076  1.3071  0.6579
 6342SOL    HW325141   5.935   0.490   0.746 -0.6434  0.5508  0.3033
 6342SOL    MW425142   5.945   0.556   0.690 -0.0777  0.4233  0.2569
 6343SOL     OW25143   1.780   2.809   0.900  0.0740  0.0107  0.3764
 6343SOL    HW225144   1.855   2.859   0.867 -0.0400  0.1965  0.3982
 6343SOL    HW325145   1.795   2.802   0.994 -0.1875  0.4722  0.4520
 6343SOL    MW425146   1.792   2.814   0.908  0.0245  0.0961  0.3892
 6344SOL     OW25147   0.977   5.729   4.392 -0.1170  0.1251 -0.1150
 6344SOL    HW225148   0.979   5.812   4.343 -0.3887 -0.9117 -1.9753
 6344SOL    HW325149   1.054   5.682   4.361 -2.8139 -2.6177 -3.5192
 6344SOL    MW425150   0.988   5.734   4.382 -0.5087 -0.3736 -0.8096
 6345SOL     OW25151   2.302   1.976   0.219 -0.1306  0.1091 -0.1316
 6345SOL    HW225152   2.368   1.988   0.150  1.0152  0.5299  1.0061
 6345SOL    HW325153   2.242   2.049   0.208  2.3368  2.6662  1.7899
 6345SOL    MW425154   2.303   1.987   0.208  0.3461  0.5020  0.2720
 6346SOL     OW25155   2.633   1.425   0.243 -0.0110 -0.5484  0.7253
 6346SOL    HW225156   2.667   1.465   0.163  0.1418  0.3003  1.2048
 6346SOL    HW325157   2.689   1.349   0.257  0.4664 -0.2530  0.4527
 6346SOL    MW425158   2.645   1.420   0.234  0.0721 -0.3975  0.7526
 6347SOL     OW25159   0.241   4.837   3.909  0.0705 -0.2080  0.6504
 6347SOL    HW225160   0.162   4.890   3.900  0.8689  0.9511  0.2753
 6347SOL    HW325161   0.260   4.807   3.820  1.2880  1.4055  0.3051
 6347SOL    MW425162   0.233   4.840   3.896  0.3365  0.1578  0.5553
 6348SOL     OW25163   3.414   0.535   3.463  0.9281  0.1348 -0.1502
 6348SOL    HW225164   3.369   0.471   3.408  0.6997  0.2555 -0.1059
 6348SOL    HW325165   3.348   0.559   3.529  1.1733  0.0485  0.1282
 6348SOL    MW425166   3.399   0.530   3.464  0.9303  0.1393 -0.1076
 6349SOL     OW25167   5.288   0.130   1.760 -0.1653  0.0440 -0.2685
 6349SOL    HW225168   5.350   0.197   1.732  0.0757 -0.7868 -1.8364
 6349SOL    HW325169   5.204   0.156   1.721 -0.0915 -0.4963 -0.8079
 6349SOL    MW425170   5.285   0.142   1.751 -0.1238 -0.1369 -0.5466
 6350SOL     OW25171   2.342   3.061   5.383  0.3436  0.2947 -0.0732
 6350SOL    HW225172   2.329   3.070   5.477 -0.3717  0.0592 -0.1438
 6350SOL    HW325173   2.339   2.967   5.366 -0.7636  0.3913 -0.4896
 6350SOL    MW425174   2.340   3.050   5.393  0.1032  0.2764 -0.1375
 6351SOL     OW25175   5.948   6.221   5.462 -0.6099 -0.0223  0.1929
 6351SOL    HW225176   6.034   6.220   5.422 -0.2683  0.5169  0.8758
 6351SOL    HW325177   5.947   6.302   5.514 -1.5179 -0.0271  0.1974
 6351SOL    MW425178   5.959   6.232   5.464 -0.6847  0.0482  0.2836
 6352SOL     OW25179   2.936   3.570   4.476 -0.5577  0.1738  0.5754
 6352SOL    HW225180   2.866   3.605   4.419 -0.4162 -0.2858  0.1107
 6352SOL    HW325181   2.937   3.629   4.551 -0.3330  1.1805 -0.1828
 6352SOL    MW425182   2.927   3.583   4.478 -0.5094  0.2460  0.4141
 6353SOL     OW25183   5.527   3.301   1.087 -0.4098  0.1336  0.3162
 6353SOL    HW225184   5.616   3.272   1.104 -0.7631 -0.8436  0.5926
 6353SOL    HW325185   5.508   3.364   1.157 -0.2779 -0.4202  0.8567
 6353SOL    MW425186   5.536   3.305   1.099 -0.4390 -0.0684  0.4240
 6354SOL     OW25187   0.710   5.281   0.007  0.4958  0.0068  0.1628
 6354SOL    HW225188   0.787   5.277   0.064  0.6552  2.9038  0.2648
 6354SOL    HW325189   0.640   5.312   0.064  0.3666  1.7340 -0.8689
 6354SOL    MW425190   0.711   5.284   0.022  0.4998  0.6169  0.0401
 6355SOL     OW25191   1.089   3.759   1.997 -0.2227  0.1583 -0.0698
 6355SOL    HW225192   1.168   3.813   1.989 -0.4913  0.5135 -0.3521
 6355SOL    HW325193   1.120   3.679   2.040  0.7278 -0.6872 -2.2029
 6355SOL    MW425194   1.104   3.756   2.002 -0.1328  0.0936 -0.3885
 6356SOL     OW25195   6.337   1.029   3.913 -0.9990 -0.0204  0.3692
 6356SOL    HW225196   6.370   0.965   3.850 -2.0817 -0.0354 -0.2078
 6356SOL    HW325197   6.416   1.072   3.947 -0.3940  0.8005 -1.8653
 6356SOL    MW425198   6.352   1.026   3.909 -1.0620  0.0859 -0.0018
 6357SOL     OW25199   0.489   5.038   0.369 -0.3326  0.9724 -0.2131
 6357SOL    HW225200   0.433   5.114   0.360  0.3495  1.4476 -0.5483
 6357SOL    HW325201   0.486   4.996   0.282 -1.0257  0.3848  0.0868
 6357SOL    MW425202   0.481   5.042   0.356 -0.3340  0.9576 -0.2177
 6358SOL     OW25203   2.140   2.323   5.703  0.1446  0.1232 -0.2057
 6358SOL    HW225204   2.163   2.384   5.633 -0.0387 -0.5010 -0.8244
 6358SOL    HW325205   2.054   2.289   5.678  1.1822 -2.0577 -1.0829
 6358SOL    MW425206   2.132   2.327   5.691  0.2573 -0.2469 -0.4031
 6359SOL     OW25207   2.887   0.727   2.946  0.3336  0.0614 -0.5519
 6359SOL    HW225208   2.922   0.722   3.035 -1.4134  1.9855  0.3307
 6359SOL    HW325209   2.957   0.767   2.894  0.4458  1.3398  0.5532
 6359SOL    MW425210   2.901   0.732   2.951  0.1179  0.4839 -0.2897
 6360SOL     OW25211   5.571   5.903   0.719 -0.1750 -0.3900 -0.3933
 6360SOL    HW225212   5.506   5.916   0.650 -0.8058  1.8385  0.5627
 6360SOL    HW325213   5.583   5.989   0.759  1.2235 -1.3280  1.3800
 6360SOL    MW425214   5.564   5.916   0.715 -0.0737 -0.2198 -0.0332
 6361SOL     OW25215   6.374   5.287   2.958  0.1821 -0.1686 -0.1225
 6361SOL    HW225216   6.462   5.300   2.993 -0.4331  0.4271  1.2966
 6361SOL    HW325217   6.320   5.272   3.036 -1.2292  1.0450 -0.8178
 6361SOL    MW425218   6.379   5.287   2.973 -0.0853  0.0701 -0.0270
 6362SOL     OW25219   0.558   0.406   2.425  0.7890 -0.6987  0.3003
 6362SOL    HW225220   0.651   0.403   2.447  0.6818 -0.9159  0.7264
 6362SOL    HW325221   0.547   0.489   2.379  1.2814 -0.8868 -0.1687
 6362SOL    MW425222   0.569   0.417   2.422  0.8399 -0.7522  0.2946
 6363SOL     OW25223   5.409   3.830   2.931 -0.1855 -0.1483  0.4974
 6363SOL    HW225224   5.344   3.899   2.912 -0.3937 -0.3996  0.2794
 6363SOL    HW325225   5.356   3.752   2.948  0.0244 -0.0412  1.6572
 6363SOL    MW425226   5.393   3.829   2.931 -0.1853 -0.1673  0.6217
 6364SOL     OW25227   4.441   5.235   0.181  0.3098 -0.3168 -0.2678
 6364SOL    HW225228   4.420   5.142   0.174  0.3118 -0.3048 -0.4318
 6364SOL    HW325229   4.517   5.238   0.238 -1.8254 -0.1684  2.8367
 6364SOL    MW425230   4.448   5.223   0.188  0.0284 -0.2956  0.1202
 6365SOL     OW25231   1.610   1.630   6.259  0.1238 -0.8310 -0.0968
 6365SOL    HW225232   1.558   1.707   6.282 -0.5143 -1.0907 -0.6561
 6365SOL    HW325233   1.686   1.666   6.212  0.8337 -0.3967  1.3095
 6365SOL    MW425234   1.613   1.645   6.256  0.1333 -0.8080  0.0150
 6366SOL     OW25235   5.532   1.075   5.388  0.0650  0.3258  0.2393
 6366SOL    HW225236   5.444   1.093   5.423 -0.0784 -0.8167  0.5081
 6366SOL    HW325237   5.517   1.040   5.301  0.3075  0.8967 -0.0387
 6366SOL    MW425238   5.518   1.073   5.381  0.0781  0.2504  0.2381
 6367SOL     OW25239   4.250   1.379   0.443 -0.3422 -0.4505  0.0332
 6367SOL    HW225240   4.290   1.403   0.527 -1.0595 -2.9104  1.1848
 6367SOL    HW325241   4.201   1.457   0.417  0.7364  0.7379  1.3601
 6367SOL    MW425242   4.249   1.392   0.451 -0.2946 -0.6183  0.3602
 6368SOL     OW25243   3.607   4.699   3.150 -0.4283 -0.2543 -1.1205
 6368SOL    HW225244   3.662   4.648   3.209 -0.5982 -2.0554 -2.4449
 6368SOL    HW325245   3.517   4.679   3.177 -0.5435 -1.9351 -2.5797
 6368SOL    MW425246   3.602   4.690   3.161 -0.4659 -0.7137 -1.4878
 6369SOL     OW25247   0.913   4.708   5.044  0.1154 -0.4010 -0.2960
 6369SOL    HW225248   0.848   4.717   4.974 -0.3838 -0.2768  0.1719
 6369SOL    HW325249   0.997   4.701   4.998  0.1364  2.3390 -0.9037
 6369SOL    MW425250   0.916   4.709   5.029  0.0523 -0.0231 -0.3144
 6370SOL     OW25251   5.957   3.053   1.032  0.0387  0.4759  0.0378
 6370SOL    HW225252   5.899   2.978   1.016  0.5959  0.0141  0.1483
 6370SOL    HW325253   5.994   3.037   1.119  0.1736  0.8698  0.0530
 6370SOL    MW425254   5.954   3.041   1.041  0.1300  0.4669  0.0544
 6371SOL     OW25255   0.418   0.482   1.708 -0.1974 -0.2552  0.0071
 6371SOL    HW225256   0.329   0.448   1.713 -0.1940 -0.4191 -0.8669
 6371SOL    HW325257   0.435   0.520   1.794 -0.8776 -0.7961  0.3816
 6371SOL    MW425258   0.409   0.483   1.720 -0.2867 -0.3482 -0.0588
 6372SOL     OW25259   6.023   0.288   1.222  0.2098  0.2241 -0.0476
 6372SOL    HW225260   6.024   0.377   1.188 -0.0633  0.2705  0.0642
 6372SOL    HW325261   6.045   0.298   1.315 -0.7399  0.2675  0.1746
 6372SOL    MW425262   6.026   0.301   1.230  0.0484  0.2359 -0.0035
 6373SOL     OW25263   5.499   3.220   3.049  0.6961 -0.3275  0.4797
 6373SOL    HW225264   5.578   3.167   3.054 -0.0158 -1.3579  1.2407
 6373SOL    HW325265   5.481   3.244   3.140 -0.1222 -0.4953  0.3692
 6373SOL    MW425266   5.507   3.216   3.062  0.4942 -0.4856  0.5655
 6374SOL     OW25267   3.606   4.002   6.311 -0.3840 -0.4162  0.3005
 6374SOL    HW225268   3.624   3.963   6.396 -0.6268 -1.3507 -0.0609
 6374SOL    HW325269   3.534   4.063   6.328  1.9046  2.2082  1.4500
 6374SOL    MW425270   3.599   4.005   6.324 -0.1141 -0.1933  0.4045
 6375SOL     OW25271   1.171   1.981   0.035 -0.6551  0.2406  0.0489
 6375SOL    HW225272   1.210   2.018   0.114 -2.3575 -2.0656  2.1092
 6375SOL    HW325273   1.190   2.046  -0.033  2.2105  1.6127  1.9600
 6375SOL    MW425274   1.178   1.995   0.037 -0.5016  0.1174  0.5729
 6376SOL     OW25275   2.978   1.995   5.817  1.1293  0.1240  0.0143
 6376SOL    HW225276   2.986   1.900   5.812  2.3241  0.1636  0.7921
 6376SOL    HW325277   3.009   2.028   5.733  1.8203 -0.1251  0.1694
 6376SOL    MW425278   2.983   1.987   5.806  1.3781  0.0964  0.1374
 6377SOL     OW25279   1.082   0.055   1.001 -0.0719  0.1451 -0.5782
 6377SOL    HW225280   1.002   0.062   1.053  0.3197  2.4906 -0.1503
 6377SOL    HW325281   1.098  -0.039   0.994 -1.4092 -0.3269  1.5895
 6377SOL    MW425282   1.074   0.044   1.007 -0.1966  0.3923 -0.2358
 6378SOL     OW25283   0.074   5.998   4.161 -0.4821 -0.0976 -0.3988
 6378SOL    HW225284   0.109   5.966   4.244 -0.7478  2.3768  0.7586
 6378SOL    HW325285   0.118   5.945   4.095  1.0273 -1.0161  1.2303
 6378SOL    MW425286   0.084   5.986   4.164 -0.3180  0.1077 -0.0312
 6379SOL     OW25287   0.602   6.391   2.552 -0.3587  0.3145  0.3058
 6379SOL    HW225288   0.539   6.370   2.620 -0.4040 -0.3150  0.0717
 6379SOL    HW325289   0.683   6.349   2.581 -0.8508 -1.5785 -0.9520
 6379SOL    MW425290   0.605   6.383   2.565 -0.4296 -0.0183  0.1090
 6380SOL     OW25291   1.129   3.903   0.330  0.0581 -0.4265  0.0266
 6380SOL    HW225292   1.093   3.888   0.417  1.6695  1.0344  1.0282
 6380SOL    HW325293   1.221   3.925   0.346  0.6265 -0.9876 -2.1306
 6380SOL    MW425294   1.137   3.904   0.344  0.3457 -0.3078 -0.1259
 6381SOL     OW25295   0.969   0.337   0.216 -0.0661 -0.2749  0.2264
 6381SOL    HW225296   1.037   0.359   0.280  0.6525 -2.1797  0.1642
 6381SOL    HW325297   0.898   0.397   0.237  0.4787 -0.2404  2.2643
 6381SOL    MW425298   0.969   0.348   0.227  0.1006 -0.5217  0.4871
 6382SOL     OW25299   5.241   2.688   5.134 -0.7264  0.0230 -0.4281
 6382SOL    HW225300   5.256   2.618   5.198  1.7272 -0.4587 -1.4218
 6382SOL    HW325301   5.148   2.707   5.141 -1.3550 -2.8418  0.4067
 6382SOL    MW425302   5.231   2.681   5.143 -0.4856 -0.4185 -0.4491
 6383SOL     OW25303   3.227   3.596   3.315  0.5535 -0.3002  0.3210
 6383SOL    HW225304   3.145   3.596   3.265  0.7119 -0.0766  0.0576
 6383SOL    HW325305   3.259   3.686   3.309  0.3264 -0.1568  1.2460
 6383SOL    MW425306   3.220   3.608   3.307  0.5444 -0.2518  0.4083
 6384SOL     OW25307   2.936   0.858   4.811 -0.4207 -0.0119  0.4445
 6384SOL    HW225308   2.966   0.788   4.868 -1.9448 -0.6429  0.5172
 6384SOL    HW325309   2.841   0.859   4.821 -0.3875  2.7505  1.2163
 6384SOL    MW425310   2.928   0.849   4.820 -0.6174  0.2693  0.5559
 6385SOL     OW25311   4.957   5.597   4.471 -0.2847  0.7145 -0.2963
 6385SOL    HW225312   5.011   5.601   4.392  1.7616 -1.5937  0.8613
 6385SOL    HW325313   5.006   5.646   4.537 -1.0872  1.0912  0.0450
 6385SOL    MW425314   4.970   5.604   4.470 -0.1206  0.4597 -0.0985
 6386SOL     OW25315   2.222   1.439   4.830 -0.2315  0.1888  0.2071
 6386SOL    HW225316   2.287   1.467   4.765  0.6677  0.7711  1.3153
 6386SOL    HW325317   2.273   1.428   4.911 -1.4275  0.1390  0.9747
 6386SOL    MW425318   2.238   1.441   4.832 -0.2706  0.2590  0.4546
 6387SOL     OW25319   5.944   2.395   3.032 -0.4916  0.3301 -0.4101
 6387SOL    HW225320   5.857   2.354   3.040 -0.1485 -0.1294  1.5921
 6387SOL    HW325321   5.965   2.423   3.121  1.5375  0.2075 -0.8092
 6387SOL    MW425322   5.935   2.394   3.045 -0.1786  0.2533 -0.1986
 6388SOL     OW25323   5.589   3.787   5.634  0.2672 -0.1648 -0.5512
 6388SOL    HW225324   5.550   3.861   5.588  0.7624  0.5354  0.1185
 6388SOL    HW325325   5.684   3.803   5.632  0.3256 -0.2806  0.4004
 6388SOL    MW425326   5.597   3.799   5.628  0.3402 -0.0877 -0.3373
 6389SOL     OW25327   4.880   5.899   5.726 -0.0583  0.0106 -0.3120
 6389SOL    HW225328   4.936   5.823   5.740 -1.3578 -0.9038  0.1235
 6389SOL    HW325329   4.926   5.951   5.659  0.2220 -1.8194 -1.6110
 6389SOL    MW425330   4.894   5.896   5.719 -0.1928 -0.3515 -0.4259
 6390SOL     OW25331   0.956   2.223   1.278 -0.3744 -0.0759 -0.4119
 6390SOL    HW225332   1.016   2.223   1.353  0.3944 -1.8997 -0.9730
 6390SOL    HW325333   0.962   2.312   1.243 -1.3047  1.0649  2.0551
 6390SOL    MW425334   0.965   2.235   1.283 -0.3957 -0.1660 -0.1604
 6391SOL     OW25335   0.611   0.135   3.595 -0.0435  0.0234  0.1150
 6391SOL    HW225336   0.699   0.114   3.626 -0.2183 -0.0774  0.5548
 6391SOL    HW325337   0.603   0.089   3.511 -0.2147 -1.2276  0.7866
 6391SOL    MW425338   0.621   0.126   3.588 -0.0892 -0.1550  0.2616
 6392SOL     OW25339   1.567   0.104   3.260  0.7809  0.4752 -0.3963
 6392SOL    HW225340   1.550   0.169   3.191  0.8396 -0.4521 -1.3050
 6392SOL    HW325341   1.605   0.030   3.214  1.2657  0.0170  0.7189
 6392SOL    MW425342   1.569   0.103   3.244  0.8526  0.2924 -0.3690
 6393SOL     OW25343   2.213   0.322   1.357  0.1472  0.5121  0.2046
 6393SOL    HW225344   2.239   0.357   1.443  2.7677  0.5464 -0.5176
 6393SOL    HW325345   2.201   0.229   1.373 -3.5410  1.0397  1.4135
 6393SOL    MW425346   2.215   0.314   1.371  0.0063  0.5862  0.2688
 6394SOL     OW25347   0.387   2.911   1.797  0.0365 -0.3933  0.2104
 6394SOL    HW225348   0.467   2.933   1.846 -0.0289 -1.5710  0.8808
 6394SOL    HW325349   0.321   2.897   1.865 -0.5024 -0.3498 -0.3039
 6394SOL    MW425350   0.389   2.912   1.813 -0.0432 -0.5429  0.2310
 6395SOL     OW25351   3.169   1.811   6.099 -0.1600 -0.2159  0.2626
 6395SOL    HW225352   3.128   1.896   6.113  0.5035  0.2481 -0.5563
 6395SOL    HW325353   3.126   1.776   6.020 -0.2396 -0.5236  0.4378
 6395SOL    MW425354   3.158   1.817   6.090 -0.0830 -0.1953  0.1777
 6396SOL     OW25355   2.053   6.056   2.678  0.0554 -0.1359 -0.8941
 6396SOL    HW225356   2.009   6.096   2.603  2.0331 -1.3061 -2.7819
 6396SOL    HW325357   2.098   5.980   2.642  1.7902 -0.2602  1.3299
 6396SOL    MW425358   2.053   6.051   2.664  0.5452 -0.3067 -0.8498
 6397SOL     OW25359   0.160   0.240   0.344 -0.4697 -0.1005  0.0132
 6397SOL    HW225360   0.165   0.334   0.324 -1.1556 -0.2049 -0.6760
 6397SOL    HW325361   0.248   0.219   0.377 -0.0682  0.6255 -0.5438
 6397SOL    MW425362   0.173   0.250   0.346 -0.5072 -0.0185 -0.1512
 6398SOL     OW25363   2.928   3.800   3.085 -0.4515 -0.2192 -0.2473
 6398SOL    HW225364   2.979   3.849   3.150  0.0575  0.1037 -0.8832
 6398SOL    HW325365   2.860   3.860   3.057 -1.2556 -0.6744  0.6539
 6398SOL    MW425366   2.926   3.814   3.090 -0.4904 -0.2366 -0.2123
 6399SOL     OW25367   5.436   4.297   5.063  0.6172  0.6257 -0.2231
 6399SOL    HW225368   5.480   4.342   5.135  0.1010  1.2444 -0.2833
 6399SOL    HW325369   5.346   4.330   5.066  0.0363 -0.8866  0.1447
 6399SOL    MW425370   5.430   4.307   5.073  0.4725  0.5078 -0.1825
 6400SOL     OW25371   0.318   5.424   1.117 -0.9392 -0.1470 -0.1906
 6400SOL    HW225372   0.240   5.400   1.167 -1.8123  1.6017 -0.6410
 6400SOL    HW325373   0.287   5.485   1.051  0.6923 -0.0692 -0.9497
 6400SOL    MW425374   0.304   5.429   1.115 -0.8392  0.0940 -0.3502
 6401SOL     OW25375   2.319   3.773   4.557  0.0314  0.1579  0.3472
 6401SOL    HW225376   2.275   3.769   4.473 -0.2866 -0.5146  0.5414
 6401SOL    HW325377   2.286   3.698   4.606  0.8750  0.0306  0.7483
 6401SOL    MW425378   2.309   3.763   4.553  0.1007  0.0524  0.4257
 6402SOL     OW25379   2.324   5.716   6.161  0.2083 -0.0176  0.3158
 6402SOL    HW225380   2.250   5.656   6.163  0.3627 -0.2332 -0.2103
 6402SOL    HW325381   2.290   5.796   6.201 -0.1215 -0.3188  0.6436
 6402SOL    MW425382   2.309   5.719   6.166  0.1851 -0.0858  0.2897
 6403SOL     OW25383   0.055   3.283   5.630  0.0389 -0.2655 -0.2604
 6403SOL    HW225384   0.039   3.236   5.549  0.4448  0.1400 -0.5871
 6403SOL    HW325385   0.144   3.258   5.655 -0.5384 -1.3933  0.7657
 6403SOL    MW425386   0.065   3.274   5.623  0.0163 -0.3608 -0.1681
 6404SOL     OW25387   1.183   0.222   5.481 -0.0165  0.0893  0.4061
 6404SOL    HW225388   1.121   0.164   5.524 -0.3514  2.1180  2.9408
 6404SOL    HW325389   1.269   0.188   5.505 -0.0808 -1.6618 -1.5929
 6404SOL    MW425390   1.186   0.210   5.490 -0.0691  0.1259  0.4768
 6405SOL     OW25391   2.370   0.117   5.772  0.2211  0.3876 -0.4841
 6405SOL    HW225392   2.371   0.040   5.714  1.1743 -0.0496  0.0942
 6405SOL    HW325393   2.451   0.163   5.752  0.7105  0.0687  0.6989
 6405SOL    MW425394   2.381   0.113   5.762  0.4114  0.2879 -0.2517
 6406SOL     OW25395   6.111   0.741   4.467  0.4005 -0.7039 -0.8433
 6406SOL    HW225396   6.151   0.806   4.410  0.8793  0.7954  1.1078
 6406SOL    HW325397   6.163   0.661   4.452  1.6416  0.1464 -1.2189
 6406SOL    MW425398   6.123   0.739   4.458  0.6274 -0.3939 -0.6355
 6407SOL     OW25399   4.407   2.045   5.821  0.5469 -0.2837 -0.5951
 6407SOL    HW225400   4.414   2.089   5.905 -0.2869 -2.3671  0.6400
 6407SOL    HW325401   4.496   2.019   5.800  0.7483  0.1752 -0.3180
 6407SOL    MW425402   4.419   2.047   5.829  0.4634 -0.4980 -0.3956
 6408SOL     OW25403   4.178   3.956   3.492  0.3725  0.4424  0.8344
 6408SOL    HW225404   4.110   3.889   3.497  0.9811 -0.3899 -0.9267
 6408SOL    HW325405   4.166   4.009   3.571 -1.6580 -0.2756  1.0780
 6408SOL    MW425406   4.167   3.954   3.503  0.1849  0.2379  0.6342
 6409SOL     OW25407   1.940   1.204   5.030 -0.0618  0.1186  0.1742
 6409SOL    HW225408   2.011   1.180   4.970  1.2437  0.7301  1.4219
 6409SOL    HW325409   1.947   1.298   5.040 -0.1936  0.0207  1.3527
 6409SOL    MW425410   1.950   1.213   5.023  0.0931  0.1863  0.4943
 6410SOL     OW25411   0.526   0.201   1.754  0.0717 -0.0621  0.6179
 6410SOL    HW225412   0.526   0.295   1.739 -1.1108 -0.3791 -1.9312
 6410SOL    HW325413   0.450   0.186   1.810  0.3860  0.5152  1.2046
 6410SOL    MW425414   0.516   0.211   1.759 -0.0428 -0.0278  0.3590
 6411SOL     OW25415   2.856   2.255   4.836 -0.1360 -0.2798  0.2700
 6411SOL    HW225416   2.840   2.214   4.921  2.0921 -1.2035  0.2847
 6411SOL    HW325417   2.866   2.182   4.776 -1.6423  0.3702 -0.8317
 6411SOL    MW425418   2.855   2.240   4.840 -0.0408 -0.3159  0.1265
 6412SOL     OW25419   5.321   3.309   5.369  0.6968 -0.0560  0.3577
 6412SOL    HW225420   5.242   3.349   5.405  0.5778  0.0310  0.0027
 6412SOL    HW325421   5.384   3.381   5.362 -0.4707  0.8256 -3.1486
 6412SOL    MW425422   5.319   3.324   5.373  0.5271  0.0718 -0.1518
 6413SOL     OW25423   0.038   1.911   5.915 -0.2613  0.3517  0.4561
 6413SOL    HW225424  -0.039   1.916   5.859 -0.3941  0.6410  0.6613
 6413SOL    HW325425   0.019   1.838   5.975 -0.2313  0.2108  0.2945
 6413SOL    MW425426   0.025   1.902   5.916 -0.2748  0.3713  0.4619
 6414SOL     OW25427   3.802   2.940   0.893 -0.2517 -0.0870  0.3364
 6414SOL    HW225428   3.802   3.032   0.865 -0.5661  0.0353  0.7260
 6414SOL    HW325429   3.862   2.897   0.832 -0.6760  0.2303 -0.3233
 6414SOL    MW425430   3.810   2.947   0.881 -0.3491 -0.0290  0.3007
 6415SOL     OW25431   1.677   0.189   4.525  0.4103  0.3554  0.3198
 6415SOL    HW225432   1.624   0.223   4.598  0.9456  2.1211 -0.0706
 6415SOL    HW325433   1.655   0.096   4.522 -1.1488  0.6307  1.4485
 6415SOL    MW425434   1.667   0.181   4.534  0.2752  0.6247  0.4172
 6416SOL     OW25435   3.715   1.941   1.316 -0.0309  0.1967 -0.2108
 6416SOL    HW225436   3.777   2.008   1.288  1.4394 -0.8390  0.4892
 6416SOL    HW325437   3.741   1.862   1.269 -1.5656 -0.0106 -0.7939
 6416SOL    MW425438   3.726   1.940   1.306 -0.0394  0.0327 -0.1954
 6417SOL     OW25439   1.677   4.115   5.040  0.2755  0.1957  0.6287
 6417SOL    HW225440   1.611   4.176   5.008  2.4291  1.7773 -1.1041
 6417SOL    HW325441   1.682   4.048   4.971  0.4615  0.0697  0.7652
 6417SOL    MW425442   1.669   4.114   5.027  0.5842  0.3878  0.4181
 6418SOL     OW25443   0.732   4.057   2.166  0.0556 -0.0895  0.9317
 6418SOL    HW225444   0.793   3.997   2.123  1.0155  1.2934  0.2646
 6418SOL    HW325445   0.708   4.014   2.247  0.3832 -1.5468  0.2811
 6418SOL    MW425446   0.737   4.044   2.171  0.2255 -0.0993  0.7578
 6419SOL     OW25447   0.746   5.321   1.174 -0.3175 -0.3522  0.5330
 6419SOL    HW225448   0.691   5.395   1.199  1.5226  1.1885  0.2698
 6419SOL    HW325449   0.833   5.342   1.209  0.5002 -1.8745 -0.4482
 6419SOL    MW425450   0.750   5.334   1.182  0.0332 -0.3498  0.3688
 6420SOL     OW25451   1.266   5.040   5.588 -0.1922 -0.0150 -0.2191
 6420SOL    HW225452   1.326   5.026   5.515  0.8168 -1.2017  0.8024
 6420SOL    HW325453   1.320   5.073   5.659 -0.7816 -0.8144  0.6279
 6420SOL    MW425454   1.281   5.042   5.587 -0.1368 -0.2770  0.0274
 6421SOL     OW25455   5.749   1.765   4.023  0.0127  0.4048 -0.2529
 6421SOL    HW225456   5.725   1.857   4.020  0.1479  0.4632  0.3914
 6421SOL    HW325457   5.823   1.758   3.962 -0.6694  0.5101 -1.1030
 6421SOL    MW425458   5.756   1.776   4.014 -0.0595  0.4264 -0.2801
 6422SOL     OW25459   2.706   2.513   3.013  0.7643  0.3344 -0.0260
 6422SOL    HW225460   2.783   2.466   2.981  1.4464  0.7963  0.8643
 6422SOL    HW325461   2.660   2.541   2.935  0.4997 -1.5276 -0.5961
 6422SOL    MW425462   2.710   2.510   2.999  0.8194  0.1497  0.0163
 6423SOL     OW25463   4.375   4.901   3.546 -1.0774  0.0416  0.4781
 6423SOL    HW225464   4.409   4.812   3.550 -0.5566  0.2427  0.6264
 6423SOL    HW325465   4.292   4.894   3.498 -0.3934 -0.3236 -0.6722
 6423SOL    MW425466   4.368   4.889   3.541 -0.9184  0.0199  0.3459
 6424SOL     OW25467   5.540   2.856   3.531 -0.7678  0.0917  0.2213
 6424SOL    HW225468   5.521   2.779   3.585  1.5782 -0.5180  0.2555
 6424SOL    HW325469   5.628   2.841   3.497  0.2790  3.2851  1.1867
 6424SOL    MW425470   5.549   2.844   3.534 -0.3201  0.4326  0.3532
 6425SOL     OW25471   2.990   3.093   1.712  0.2118  0.6873  0.2711
 6425SOL    HW225472   3.042   3.012   1.713  0.6178  0.9465  0.5070
 6425SOL    HW325473   2.987   3.119   1.804 -1.5734 -0.1043  0.4836
 6425SOL    MW425474   2.996   3.086   1.725  0.0299  0.6170  0.3303
 6426SOL     OW25475   5.616   2.341   5.498  0.0978  0.0927  0.3722
 6426SOL    HW225476   5.660   2.265   5.535 -1.4476 -0.3231  1.4296
 6426SOL    HW325477   5.546   2.361   5.559 -0.1211  1.8048 -0.3750
 6426SOL    MW425478   5.613   2.334   5.511 -0.1350  0.2637  0.4131
 6427SOL     OW25479   2.350   2.436   4.243 -0.5362 -0.3656  0.5314
 6427SOL    HW225480   2.356   2.377   4.318 -0.6135 -0.8008  0.2008
 6427SOL    HW325481   2.412   2.506   4.262  0.9375 -1.5109  0.0831
 6427SOL    MW425482   2.359   2.437   4.255 -0.3520 -0.5742  0.4286
 6428SOL     OW25483   2.651   3.423   2.711  0.2563 -0.4060 -0.3598
 6428SOL    HW225484   2.619   3.424   2.801 -0.4469 -1.8784 -0.5473
 6428SOL    HW325485   2.646   3.331   2.686 -1.7077  0.2087 -2.6268
 6428SOL    MW425486   2.646   3.411   2.719 -0.0956 -0.5192 -0.6837
 6429SOL     OW25487   0.416   1.403   4.974 -0.1184 -0.2344  0.2051
 6429SOL    HW225488   0.366   1.480   4.946  0.4705  0.0295 -0.1335
 6429SOL    HW325489   0.350   1.335   4.984 -0.5640  0.1293 -0.1702
 6429SOL    MW425490   0.401   1.404   4.971 -0.0995 -0.1516  0.1109
 6430SOL     OW25491   6.144   2.939   3.368 -0.3664  0.4438 -0.2886
 6430SOL    HW225492   6.175   2.900   3.450  0.5206  1.9611  0.1546
 6430SOL    HW325493   6.213   2.918   3.305  0.3500  1.6054  0.0639
 6430SOL    MW425494   6.157   2.931   3.371 -0.1549  0.7972 -0.1836
 6431SOL     OW25495   0.287   1.379   3.451  0.1325  0.6979  0.3014
 6431SOL    HW225496   0.261   1.408   3.364  1.3618  0.4851 -0.1579
 6431SOL    HW325497   0.383   1.373   3.447  0.2576  1.2560  1.8508
 6431SOL    MW425498   0.296   1.382   3.439  0.3112  0.7435  0.4452
 6432SOL     OW25499   5.383   6.095   4.259 -0.4263  0.6640 -0.1732
 6432SOL    HW225500   5.476   6.116   4.250 -0.0040 -1.4705 -1.3308
 6432SOL    HW325501   5.363   6.041   4.183 -1.8294 -1.5040  1.6279
 6432SOL    MW425502   5.393   6.091   4.248 -0.5557  0.0964 -0.0883
 6433SOL     OW25503   4.647   0.911   5.940 -0.1425 -0.1041  1.1523
 6433SOL    HW225504   4.565   0.961   5.942  0.1427  0.3964  0.3721
 6433SOL    HW325505   4.623   0.828   5.899 -0.2411  0.0820  0.8305
 6433SOL    MW425506   4.633   0.907   5.935 -0.1179 -0.0135  1.0069
 6434SOL     OW25507   2.934   4.287   0.520 -0.2666 -0.4462 -0.0293
 6434SOL    HW225508   2.926   4.209   0.464  1.2155 -0.0908 -0.7865
 6434SOL    HW325509   3.024   4.284   0.552 -0.3500  0.6810  0.3531
 6434SOL    MW425510   2.945   4.276   0.517 -0.0821 -0.2506 -0.0787
 6435SOL     OW25511   1.896   1.078   1.537  0.2186  0.3607 -0.7380
 6435SOL    HW225512   1.981   1.038   1.518  0.8422  1.1737  0.2565
 6435SOL    HW325513   1.875   1.051   1.626 -0.7200 -0.0626 -1.0676
 6435SOL    MW425514   1.904   1.069   1.546  0.1771  0.4121 -0.6503
 6436SOL     OW25515   4.028   0.718   5.228  0.0682  0.5586 -0.4510
 6436SOL    HW225516   3.989   0.648   5.175 -0.6077  0.7011 -0.1548
 6436SOL    HW325517   4.023   0.795   5.172  1.1500  0.3081 -0.9193
 6436SOL    MW425518   4.022   0.719   5.214  0.1218  0.5443 -0.4737
 6437SOL     OW25519   2.161   6.408   1.089  0.4079  0.0434  0.4644
 6437SOL    HW225520   2.166   6.351   1.165  1.7678 -0.6563 -0.1186
 6437SOL    HW325521   2.175   6.350   1.014 -0.0173  0.8590 -0.2704
 6437SOL    MW425522   2.164   6.393   1.089  0.5312  0.0587  0.2905
 6438SOL     OW25523   4.265   3.920   2.170 -0.2709 -0.0236 -0.1069
 6438SOL    HW225524   4.245   3.990   2.232  1.0941 -0.2372  0.6262
 6438SOL    HW325525   4.281   3.965   2.087 -0.7648  0.4006  0.0246
 6438SOL    MW425526   4.264   3.935   2.168 -0.1560  0.0042  0.0072
 6439SOL     OW25527   3.792   2.464   3.625 -0.2642  0.3423  0.0605
 6439SOL    HW225528   3.876   2.480   3.668 -1.3711  1.2002  2.0338
 6439SOL    HW325529   3.762   2.551   3.599  0.1125 -0.1098 -2.0370
 6439SOL    MW425530   3.799   2.478   3.628 -0.3606  0.3959  0.0441
 6440SOL     OW25531   3.941   5.675   2.029 -0.0954  0.2683  0.1416
 6440SOL    HW225532   3.955   5.750   2.087 -0.6872  0.2797  0.2742
 6440SOL    HW325533   3.905   5.607   2.085 -0.6555  0.2725 -0.2076
 6440SOL    MW425534   3.938   5.676   2.044 -0.2474  0.2704  0.1130
 6441SOL     OW25535   6.201   5.180   1.583 -0.3541 -0.2662 -0.0065
 6441SOL    HW225536   6.177   5.091   1.558 -0.7999  0.0199 -0.6322
 6441SOL    HW325537   6.135   5.204   1.648  0.9728 -1.1129  1.7197
 6441SOL    MW425538   6.189   5.171   1.588 -0.2379 -0.3402  0.1387
 6442SOL     OW25539   1.500   5.993   5.816 -0.1422 -0.8090  0.1157
 6442SOL    HW225540   1.550   5.915   5.843 -0.7414 -1.3467 -0.3083
 6442SOL    HW325541   1.565   6.049   5.775  0.1474 -1.4487 -0.3228
 6442SOL    MW425542   1.515   5.990   5.814 -0.1830 -0.9643  0.0019
 6443SOL     OW25543   2.590   0.695   3.181  0.3314  0.0735 -0.1622
 6443SOL    HW225544   2.579   0.638   3.104 -2.1075  0.0939  0.1008
 6443SOL    HW325545   2.618   0.779   3.145  2.6028 -0.8196 -0.6745
 6443SOL    MW425546   2.592   0.698   3.166  0.3093 -0.0416 -0.1951
 6444SOL     OW25547   3.630   2.493   5.431  0.1859  0.4492 -0.5971
 6444SOL    HW225548   3.603   2.440   5.356  1.2502 -0.1794 -0.5413
 6444SOL    HW325549   3.614   2.437   5.507  1.9844 -0.1019 -0.5886
 6444SOL    MW425550   3.624   2.479   5.431  0.5636  0.2936 -0.5886
 6445SOL     OW25551   3.255   3.974   5.936  0.1305  0.0667 -0.6652
 6445SOL    HW225552   3.271   3.912   6.007 -0.5517  1.4335  0.7440
 6445SOL    HW325553   3.293   4.056   5.967 -1.2785  1.0107 -1.3065
 6445SOL    MW425554   3.262   3.977   5.950 -0.1454  0.3716 -0.5639
 6446SOL     OW25555   1.662   0.372   1.409  0.0129  0.0307  0.2395
 6446SOL    HW225556   1.575   0.352   1.373  0.6821 -1.4232 -0.6544
 6446SOL    HW325557   1.717   0.299   1.381  0.8164 -0.7380  3.3952
 6446SOL    MW425558   1.657   0.360   1.401  0.2072 -0.2625  0.5379
 6447SOL     OW25559   1.756   4.954   1.886  0.2242  0.5643 -0.2253
 6447SOL    HW225560   1.792   4.987   1.804  0.5387  0.0631 -0.2882
 6447SOL    HW325561   1.723   4.867   1.865  0.3466  0.4169  0.1845
 6447SOL    MW425562   1.757   4.947   1.873  0.2819  0.4787 -0.1796
 6448SOL     OW25563   2.899   6.140   6.414  0.3550 -0.1878  0.8260
 6448SOL    HW225564   2.895   6.140   6.318  0.1362 -0.6214  0.8309
 6448SOL    HW325565   2.808   6.131   6.442  0.5809 -2.8014  1.0284
 6448SOL    MW425566   2.887   6.139   6.405  0.3559 -0.5898  0.8533
 6449SOL     OW25567   2.905   2.913   0.883 -0.2636  0.3171 -0.6630
 6449SOL    HW225568   2.937   2.919   0.973  0.3351 -0.4555 -0.8139
 6449SOL    HW325569   2.888   2.820   0.870 -3.9403  0.7593 -0.1513
 6449SOL    MW425570   2.907   2.902   0.893 -0.6697  0.2735 -0.6154
 6450SOL     OW25571   5.523   3.751   1.497 -0.6789  0.0629  0.0266
 6450SOL    HW225572   5.543   3.806   1.573 -2.0869  0.5145  0.0913
 6450SOL    HW325573   5.478   3.676   1.534 -2.0005  0.6199 -0.4145
 6450SOL    MW425574   5.520   3.748   1.512 -1.0390  0.1960 -0.0231
 6451SOL     OW25575   0.757   0.671   2.567  0.2413  0.3193 -0.6278
 6451SOL    HW225576   0.813   0.747   2.581  0.8293 -0.3010  0.5684
 6451SOL    HW325577   0.777   0.613   2.641 -3.5326  0.9708  1.1289
 6451SOL    MW425578   0.767   0.673   2.579 -0.1790  0.3234 -0.2382
 6452SOL     OW25579   3.788   4.531   2.666 -1.0013  0.0293 -0.2483
 6452SOL    HW225580   3.798   4.626   2.671 -2.3443  0.1677  0.0566
 6452SOL    HW325581   3.856   4.503   2.604 -1.1743  1.2794 -1.0290
 6452SOL    MW425582   3.799   4.540   2.659 -1.2013  0.2125 -0.3111
 6453SOL     OW25583   4.735   3.411   3.621  0.2251 -0.0459  0.4042
 6453SOL    HW225584   4.810   3.372   3.667 -0.5399  0.4074  2.1004
 6453SOL    HW325585   4.692   3.337   3.579  1.2287 -0.4071 -0.0101
 6453SOL    MW425586   4.739   3.396   3.622  0.2566 -0.0337  0.5734
 6454SOL     OW25587   5.459   1.533   5.878 -0.1759 -0.0185 -0.2931
 6454SOL    HW225588   5.366   1.554   5.874  0.1286  1.4999  0.1050
 6454SOL    HW325589   5.481   1.538   5.970  0.4346  0.2230 -0.4490
 6454SOL    MW425590   5.450   1.536   5.889 -0.0552  0.2137 -0.2611
 6455SOL     OW25591   2.393   4.617   2.156 -0.6064 -0.4663 -0.0210
 6455SOL    HW225592   2.316   4.670   2.176  0.3455  1.2745 -0.8221
 6455SOL    HW325593   2.463   4.653   2.211  0.0446 -0.9436 -0.5103
 6455SOL    MW425594   2.392   4.629   2.166 -0.3949 -0.2996 -0.1913
 6456SOL     OW25595   2.949   5.312   0.086 -0.3212 -0.0076 -0.1713
 6456SOL    HW225596   2.983   5.384   0.138 -1.6688 -0.0837  0.8789
 6456SOL    HW325597   2.973   5.233   0.135 -3.7998  0.0091  1.8694
 6456SOL    MW425598   2.957   5.311   0.099 -0.9580 -0.0154  0.2365
 6457SOL     OW25599   4.599   1.482   2.126  0.4075  0.6669 -0.2421
 6457SOL    HW225600   4.590   1.524   2.040  1.5493 -0.9126 -1.1993
 6457SOL    HW325601   4.684   1.510   2.158  1.3550 -1.0871 -1.0621
 6457SOL    MW425602   4.609   1.491   2.119  0.6831  0.2271 -0.4766
 6458SOL     OW25603   4.353   5.860   3.607  0.2636 -0.0571  0.1243
 6458SOL    HW225604   4.359   5.953   3.584  1.7084  0.0494  0.8024
 6458SOL    HW325605   4.430   5.821   3.567 -0.0196 -0.8556  0.3479
 6458SOL    MW425606   4.364   5.867   3.599  0.4169 -0.1484  0.2433
 6459SOL     OW25607   2.431   4.989   6.099 -0.6172  0.4767 -0.7288
 6459SOL    HW225608   2.488   4.936   6.154 -1.1437  0.4021 -0.2504
 6459SOL    HW325609   2.385   5.046   6.160  0.3460  1.8839 -1.2894
 6459SOL    MW425610   2.432   4.989   6.114 -0.5596  0.6525 -0.7397
 6460SOL     OW25611   1.349   5.250   0.560  0.1744  0.6056  0.0963
 6460SOL    HW225612   1.369   5.338   0.593 -1.5136  0.8619  0.5428
 6460SOL    HW325613   1.284   5.217   0.621  0.1930 -0.6503 -0.5440
 6460SOL    MW425614   1.343   5.258   0.573 -0.0459  0.4737  0.0707
 6461SOL     OW25615   2.286   2.070   0.904 -0.4571 -0.1995 -0.1431
 6461SOL    HW225616   2.289   2.019   0.986  2.1786  1.0856  0.6651
 6461SOL    HW325617   2.241   2.151   0.928  0.2001  0.1219  0.0331
 6461SOL    MW425618   2.281   2.074   0.918 -0.0226  0.0125 -0.0132
 6462SOL     OW25619   1.475   0.525   5.943 -0.1607 -0.1270  0.0377
 6462SOL    HW225620   1.434   0.441   5.964 -2.4822  0.9578  0.1348
 6462SOL    HW325621   1.545   0.503   5.882 -0.2173 -2.1998  0.6466
 6462SOL    MW425622   1.479   0.511   5.938 -0.4744 -0.2573  0.1309
 6463SOL     OW25623   5.584   1.406   5.390  0.0319  0.5869  0.1377
 6463SOL    HW225624   5.579   1.409   5.485 -0.7146  0.6968  0.0990
 6463SOL    HW325625   5.558   1.316   5.367  1.8882  0.0048  0.1185
 6463SOL    MW425626   5.580   1.394   5.399  0.1783  0.5246  0.1301
 6464SOL     OW25627   2.814   2.346   3.467  0.0102 -0.3046  0.0198
 6464SOL    HW225628   2.719   2.340   3.471  0.1218 -1.3077  1.5782
 6464SOL    HW325629   2.837   2.307   3.382 -0.9705  0.4414 -0.6162
 6464SOL    MW425630   2.805   2.340   3.456 -0.1045 -0.3385  0.1415
 6465SOL     OW25631   3.351   2.788   4.250 -0.0911  0.3857 -0.2760
 6465SOL    HW225632   3.343   2.848   4.177 -1.4625  0.6612  0.0803
 6465SOL    HW325633   3.445   2.784   4.267  0.2576  0.3221 -2.0249
 6465SOL    MW425634   3.363   2.795   4.243 -0.2260  0.4137 -0.4597
 6466SOL     OW25635   4.595   2.526   4.685  0.0501 -0.5390 -0.2789
 6466SOL    HW225636   4.673   2.556   4.733  2.2249 -2.5086 -2.3195
 6466SOL    HW325637   4.580   2.437   4.716  0.3900 -1.1894 -1.8904
 6466SOL    MW425638   4.603   2.519   4.695  0.3819 -0.8847 -0.7607
 6467SOL     OW25639   6.093   3.457   3.976  0.5209  0.1073  1.2149
 6467SOL    HW225640   6.177   3.418   3.950  0.7680  0.9345  0.7251
 6467SOL    HW325641   6.082   3.431   4.067  1.8758  0.8977  1.6380
 6467SOL    MW425642   6.103   3.449   3.985  0.7323  0.3207  1.2061
 6468SOL     OW25643   3.287   6.189   4.336  0.3281  0.2693  0.2369
 6468SOL    HW225644   3.344   6.113   4.348  0.3643  0.2240 -0.2073
 6468SOL    HW325645   3.211   6.171   4.391 -0.7491 -1.2106 -1.6303
 6468SOL    MW425646   3.285   6.177   4.344  0.1908  0.0681 -0.0681
 6469SOL     OW25647   6.151   2.595   1.546  0.3617 -0.2369  0.1242
 6469SOL    HW225648   6.060   2.586   1.575  0.4026  0.0473  0.3395
 6469SOL    HW325649   6.169   2.688   1.552  0.7599 -0.3274  0.3679
 6469SOL    MW425650   6.141   2.606   1.551  0.4196 -0.2113  0.1847
 6470SOL     OW25651   5.652   2.615   0.278 -0.6876 -0.2048 -0.3892
 6470SOL    HW225652   5.568   2.633   0.236 -1.0201 -0.6607  0.0731
 6470SOL    HW325653   5.640   2.643   0.369 -0.2384  0.0167 -0.3947
 6470SOL    MW425654   5.639   2.621   0.284 -0.6722 -0.2357 -0.3289
 6471SOL     OW25655   2.236   2.359   2.851  0.0999 -0.6603 -0.1823
 6471SOL    HW225656   2.266   2.415   2.922  0.9114 -2.2219  0.7477
 6471SOL    HW325657   2.143   2.382   2.841  0.4976  1.1222 -0.1346
 6471SOL    MW425658   2.228   2.370   2.859  0.2595 -0.6311 -0.0533
 6472SOL     OW25659   1.691   0.402   4.093  0.2852 -0.3422 -0.3935
 6472SOL    HW225660   1.769   0.429   4.140 -0.6321  1.7423  0.0507
 6472SOL    HW325661   1.658   0.326   4.142  0.5333  0.4596  1.0569
 6472SOL    MW425662   1.697   0.395   4.106  0.1969  0.0386 -0.1435
 6473SOL     OW25663   2.197   2.492   4.005 -0.5116  0.5569 -0.2840
 6473SOL    HW225664   2.250   2.479   4.084  1.1919  0.1408 -1.4416
 6473SOL    HW325665   2.155   2.407   3.991  0.1481  0.2598 -0.4949
 6473SOL    MW425666   2.198   2.479   4.014 -0.1998  0.4628 -0.4646
 6474SOL     OW25667   3.087   6.094   1.789  0.2598 -0.5570  0.6114
 6474SOL    HW225668   3.051   6.116   1.875  0.1315 -0.4354  0.5247
 6474SOL    HW325669   3.182   6.104   1.800  0.1882  0.2895  0.4978
 6474SOL    MW425670   3.095   6.098   1.802  0.2334 -0.4293  0.5850
 6475SOL     OW25671   3.939   3.393   1.887 -0.3454  0.6305  0.0337
 6475SOL    HW225672   3.844   3.384   1.895 -0.3673  1.9005  2.5391
 6475SOL    HW325673   3.973   3.305   1.904 -1.0663  0.5299  1.1359
 6475SOL    MW425674   3.931   3.380   1.891 -0.4434  0.7848  0.5097
 6476SOL     OW25675   3.959   5.702   0.665  0.3177 -0.2204  0.3346
 6476SOL    HW225676   4.045   5.737   0.642 -0.1814  1.4312  0.8001
 6476SOL    HW325677   3.958   5.702   0.761  0.0638 -0.9194  0.3345
 6476SOL    MW425678   3.970   5.707   0.674  0.2184 -0.0947  0.3960
 6477SOL     OW25679   0.810   5.666   0.041  0.9731 -0.3272 -0.2847
 6477SOL    HW225680   0.750   5.603   0.081  0.5105 -0.7039 -1.5459
 6477SOL    HW325681   0.754   5.738   0.013  1.3457  0.0979  0.0390
 6477SOL    MW425682   0.795   5.667   0.043  0.9612 -0.3208 -0.4084
 6478SOL     OW25683   2.193   0.883   3.849 -0.1446  0.2103 -0.4037
 6478SOL    HW225684   2.135   0.808   3.862 -0.8705  0.8349  0.0639
 6478SOL    HW325685   2.164   0.922   3.767  0.8028 -0.5036 -1.1032
 6478SOL    MW425686   2.181   0.878   3.840 -0.1154  0.1986 -0.4343
 6479SOL     OW25687   3.273   1.796   4.489 -0.4218  0.0980 -0.0825
 6479SOL    HW225688   3.261   1.788   4.583  0.0793 -1.2645 -0.1042
 6479SOL    HW325689   3.273   1.890   4.472  0.2149  0.3895  1.3818
 6479SOL    MW425690   3.272   1.807   4.499 -0.2716 -0.0433  0.1078
 6480SOL     OW25691   3.737   4.592   1.644 -0.2309 -0.1721  0.8420
 6480SOL    HW225692   3.709   4.558   1.729  0.2063  0.4752  1.2511
 6480SOL    HW325693   3.656   4.624   1.603 -0.3867 -0.1494  1.1669
 6480SOL    MW425694   3.722   4.592   1.650 -0.1938 -0.0837  0.9389
 6481SOL     OW25695   6.342   4.497   2.377 -0.3966 -0.3759  0.1150
 6481SOL    HW225696   6.332   4.560   2.449 -3.4036  1.8559 -2.0081
 6481SOL    HW325697   6.407   4.536   2.319  0.1183 -0.8827  0.3419
 6481SOL    MW425698   6.349   4.510   2.379 -0.7254 -0.1483 -0.1352
 6482SOL     OW25699   4.830   1.133   0.687 -0.0319 -0.2764 -0.2351
 6482SOL    HW225700   4.744   1.098   0.709 -0.2576  0.3491 -0.1114
 6482SOL    HW325701   4.888   1.096   0.753 -0.9094  2.6245  2.4157
 6482SOL    MW425702   4.826   1.123   0.699 -0.1775  0.1889  0.1310
 6483SOL     OW25703   5.225   6.233   1.444 -0.0364  0.7959  0.2886
 6483SOL    HW225704   5.241   6.146   1.409  0.0716  0.9114  0.0511
 6483SOL    HW325705   5.276   6.235   1.525 -0.2791  0.5334  0.4492
 6483SOL    MW425706   5.234   6.222   1.450 -0.0542  0.7765  0.2784
 6484SOL     OW25707   0.751   3.897   5.675 -0.5356 -0.4563 -0.0806
 6484SOL    HW225708   0.758   3.802   5.670 -0.6455 -0.5426  1.1282
 6484SOL    HW325709   0.692   3.913   5.748 -1.3648  0.5363 -0.9275
 6484SOL    MW425710   0.744   3.886   5.684 -0.6595 -0.3367 -0.0328
 6485SOL     OW25711   1.518   4.143   3.070  0.1331 -0.4165 -0.7683
 6485SOL    HW225712   1.533   4.161   3.163  0.0668 -1.5609 -0.5122
 6485SOL    HW325713   1.423   4.144   3.060  0.1251 -0.7257 -0.7274
 6485SOL    MW425714   1.508   4.145   3.081  0.1233 -0.6083 -0.7291
 6486SOL     OW25715   3.330   0.504   4.268  0.3247 -0.6080 -0.0693
 6486SOL    HW225716   3.281   0.488   4.348  0.6906 -1.0621  0.0667
 6486SOL    HW325717   3.318   0.598   4.251  0.1393 -0.5367  0.4431
 6486SOL    MW425718   3.322   0.514   4.276  0.3485 -0.6585  0.0163
 6487SOL     OW25719   6.260   5.825   0.881  0.1031 -0.8499  0.6506
 6487SOL    HW225720   6.265   5.733   0.857  3.3826 -0.7223  0.4699
 6487SOL    HW325721   6.304   5.830   0.965 -0.1552  0.5550  0.7228
 6487SOL    MW425722   6.267   5.813   0.889  0.5017 -0.6477  0.6363
 6488SOL     OW25723   2.734   3.600   4.311  0.1486 -0.1601  0.2306
 6488SOL    HW225724   2.749   3.685   4.269 -0.9340  0.2342  0.6023
 6488SOL    HW325725   2.769   3.536   4.249  2.2162  0.6075  0.5418
 6488SOL    MW425726   2.740   3.603   4.297  0.2785 -0.0068  0.3207
 6489SOL     OW25727   0.569   3.699   2.231 -0.5070  0.3115  0.5273
 6489SOL    HW225728   0.611   3.629   2.281  1.9610  1.1830 -0.1942
 6489SOL    HW325729   0.639   3.739   2.180 -2.4394  1.1697 -1.6720
 6489SOL    MW425730   0.584   3.695   2.231 -0.4363  0.5397  0.1419
 6490SOL     OW25731   5.311   6.359   4.167 -0.1251 -0.6837 -0.2231
 6490SOL    HW225732   5.225   6.393   4.192 -0.6259 -1.2474 -1.1185
 6490SOL    HW325733   5.316   6.273   4.208  1.3017  0.5314  2.3651
 6490SOL    MW425734   5.301   6.352   4.175 -0.0029 -0.5977  0.0003
 6491SOL     OW25735   5.986   4.245   2.408  0.3677 -0.0913 -0.2546
 6491SOL    HW225736   5.894   4.223   2.393  0.4955 -0.6454 -0.2754
 6491SOL    HW325737   6.005   4.212   2.496  1.1276 -2.0549 -1.0810
 6491SOL    MW425738   5.977   4.238   2.418  0.4848 -0.4235 -0.3664
 6492SOL     OW25739   4.271   0.676   3.930  0.0640 -0.3620 -0.0611
 6492SOL    HW225740   4.346   0.731   3.952  0.1526 -0.5661  0.1607
 6492SOL    HW325741   4.302   0.622   3.857 -0.4223  0.7258 -1.1110
 6492SOL    MW425742   4.285   0.676   3.923  0.0116 -0.2454 -0.1704
 6493SOL     OW25743   1.069   4.829   5.661 -0.2524 -0.0986  0.4510
 6493SOL    HW225744   1.118   4.911   5.664 -0.9366  0.3281  0.1589
 6493SOL    HW325745   1.042   4.820   5.570 -1.1927 -0.0428  0.7163
 6493SOL    MW425746   1.072   4.839   5.650 -0.4667 -0.0349  0.4474
 6494SOL     OW25747   6.329   3.742   1.742 -0.4468  0.2312  0.4975
 6494SOL    HW225748   6.377   3.772   1.819 -0.8306  1.1741  0.3842
 6494SOL    HW325749   6.244   3.787   1.748 -0.0799  1.2255 -1.0496
 6494SOL    MW425750   6.324   3.752   1.753 -0.4490  0.4868  0.2784
 6495SOL     OW25751   5.628   1.680   5.722  0.2347 -0.1639  0.0812
 6495SOL    HW225752   5.565   1.626   5.770  0.1546  0.7819  1.0719
 6495SOL    HW325753   5.710   1.630   5.727 -0.5196 -1.6917 -1.7271
 6495SOL    MW425754   5.631   1.666   5.729  0.1246 -0.2407 -0.0267
 6496SOL     OW25755   3.539   3.103   4.312  0.0246 -0.0459  0.1756
 6496SOL    HW225756   3.569   3.071   4.398 -1.8952 -0.9403  0.5603
 6496SOL    HW325757   3.508   3.192   4.330  0.0701 -0.0532  0.2947
 6496SOL    MW425758   3.539   3.111   4.326 -0.2227 -0.1649  0.2421
 6497SOL     OW25759   4.924   4.810   5.220  0.4374 -0.4903 -0.1005
 6497SOL    HW225760   4.971   4.851   5.147 -0.3376 -0.0500 -0.3658
 6497SOL    HW325761   4.895   4.726   5.185  1.0489 -0.7856  0.0792
 6497SOL    MW425762   4.926   4.804   5.206  0.4158 -0.4712 -0.1118
 6498SOL     OW25763   2.802   1.797   4.586  0.4923 -0.5501  0.7368
 6498SOL    HW225764   2.869   1.865   4.589  0.0791 -0.1330  0.6639
 6498SOL    HW325765   2.798   1.771   4.494  0.4664 -0.4861  0.7200
 6498SOL    MW425766   2.810   1.802   4.574  0.4343 -0.4866  0.7250
 6499SOL     OW25767   4.105   5.253   3.563  0.3235 -0.1938  0.2361
 6499SOL    HW225768   4.194   5.231   3.537  1.4136  1.1223  2.5017
 6499SOL    HW325769   4.063   5.168   3.579  0.6449 -0.8897 -2.2097
 6499SOL    MW425770   4.111   5.239   3.562  0.5097 -0.1119  0.2123
 6500SOL     OW25771   1.932   4.655   5.468  0.1417  0.0380  0.3146
 6500SOL    HW225772   2.026   4.671   5.453 -0.1956  0.8959 -1.0874
 6500SOL    HW325773   1.905   4.728   5.524  0.3040 -0.2123  0.7241
 6500SOL    MW425774   1.941   4.667   5.473  0.1186  0.1181  0.1836
 6501SOL     OW25775   2.853   3.800   0.948 -0.1650  0.3957 -0.3497
 6501SOL    HW225776   2.780   3.816   1.008 -1.0561 -3.4035 -0.1403
 6501SOL    HW325777   2.931   3.824   0.997 -1.0463  0.0910  1.2641
 6501SOL    MW425778   2.854   3.805   0.962 -0.3988 -0.1458 -0.1091
 6502SOL     OW25779   4.847   2.177   3.566 -0.3732  0.0918  0.0338
 6502SOL    HW225780   4.833   2.083   3.572 -0.8155  0.0745 -1.0556
 6502SOL    HW325781   4.762   2.216   3.585 -0.5023  0.2194 -0.7887
 6502SOL    MW425782   4.834   2.170   3.569 -0.4486  0.1063 -0.2184
 6503SOL     OW25783   2.018   1.624   4.872  0.7705 -0.4580 -0.1693
 6503SOL    HW225784   2.067   1.558   4.822 -1.1029  0.5380 -3.6834
 6503SOL    HW325785   2.066   1.705   4.858 -1.4995  0.5077 -3.5600
 6503SOL    MW425786   2.031   1.626   4.863  0.2238 -0.1992 -1.0803
 6504SOL     OW25787   2.501   1.974   0.016 -0.4523  0.1908 -0.4288
 6504SOL    HW225788   2.554   1.896   0.032  2.7177  2.3295  0.4338
 6504SOL    HW325789   2.487   1.975  -0.079  0.7982 -0.6667 -0.6527
 6504SOL    MW425790   2.506   1.964   0.006  0.1310  0.3599 -0.3446
 6505SOL     OW25791   5.399   4.164   4.284 -0.1725  0.0668  0.0492
 6505SOL    HW225792   5.398   4.230   4.353 -1.9201 -1.0398  1.1419
 6505SOL    HW325793   5.315   4.173   4.240  0.6712  0.3569 -1.6025
 6505SOL    MW425794   5.388   4.174   4.287 -0.2918 -0.0409 -0.0245
 6506SOL     OW25795   5.443   4.549   1.775  0.0522  0.3279  0.3693
 6506SOL    HW225796   5.351   4.574   1.765 -0.5640 -1.6389  0.5897
 6506SOL    HW325797   5.487   4.589   1.700 -1.0280  1.0729  0.1078
 6506SOL    MW425798   5.437   4.557   1.764 -0.1716  0.1667  0.3639
 6507SOL     OW25799   2.637   4.447   1.126  0.5958  0.0583  0.9292
 6507SOL    HW225800   2.669   4.529   1.164  0.9115  0.2200  0.3375
 6507SOL    HW325801   2.579   4.475   1.055 -1.4296 -0.2337  2.4006
 6507SOL    MW425802   2.634   4.462   1.122  0.3702  0.0411  1.0453
 6508SOL     OW25803   0.775   3.676   3.028  0.7943 -0.5789 -0.5562
 6508SOL    HW225804   0.773   3.680   2.933 -0.0044 -0.7972 -0.5576
 6508SOL    HW325805   0.790   3.766   3.055 -1.0019 -0.1308 -0.8747
 6508SOL    MW425806   0.776   3.688   3.019  0.4519 -0.5486 -0.5984
 6509SOL     OW25807   5.459   6.293   2.755  0.4517  0.2687 -0.4943
 6509SOL    HW225808   5.441   6.201   2.734  1.4740 -0.4222  1.4333
 6509SOL    HW325809   5.534   6.316   2.701  0.1133  0.0239 -1.0793
 6509SOL    MW425810   5.466   6.284   2.745  0.5420  0.1452 -0.3171
 6510SOL     OW25811   4.652   0.068   1.489  0.2421 -0.2855 -0.6036
 6510SOL    HW225812   4.730   0.053   1.543 -0.5813 -0.4567  0.5624
 6510SOL    HW325813   4.630  -0.019   1.455 -1.0815 -0.7938  1.3906
 6510SOL    MW425814   4.660   0.054   1.492 -0.0412 -0.3751 -0.1867
 6511SOL     OW25815   3.399   5.292   5.959 -0.3286  0.4429 -0.4447
 6511SOL    HW225816   3.360   5.347   6.027 -1.0463 -0.6881  0.0770
 6511SOL    HW325817   3.477   5.255   6.001  0.1077  0.9757 -0.7690
 6511SOL    MW425818   3.404   5.295   5.974 -0.3657  0.3640 -0.4186
 6512SOL     OW25819   5.566   2.762   5.189  0.1211  0.3275 -0.2714
 6512SOL    HW225820   5.491   2.729   5.239  0.2933 -1.6145 -1.1991
 6512SOL    HW325821   5.643   2.727   5.234  0.3030 -0.8130 -1.3930
 6512SOL    MW425822   5.566   2.753   5.201  0.1678 -0.0792 -0.5418
 6513SOL     OW25823   5.011   0.928   4.071 -0.0064 -0.5804  0.2222
 6513SOL    HW225824   5.056   0.888   4.146  3.0355  0.9647 -0.6253
 6513SOL    HW325825   4.981   1.013   4.104 -0.0218 -0.5380  0.0979
 6513SOL    MW425826   5.013   0.934   4.085  0.3929 -0.3710  0.0940
 6514SOL     OW25827   4.019   5.370   4.482  0.2343 -0.0709  0.1454
 6514SOL    HW225828   3.973   5.419   4.550  1.3846 -0.4876  1.2668
 6514SOL    HW325829   3.957   5.301   4.456  0.1403 -0.5558  1.5426
 6514SOL    MW425830   4.005   5.367   4.488  0.3737 -0.1899  0.4777
 6515SOL     OW25831   0.075   0.208   1.097 -0.1708 -0.3392  0.1563
 6515SOL    HW225832   0.090   0.291   1.141 -0.7001 -0.6664  0.9817
 6515SOL    HW325833   0.113   0.142   1.155  1.8120 -0.5752 -1.2935
 6515SOL    MW425834   0.082   0.210   1.110  0.0209 -0.4135  0.0739
 6516SOL     OW25835   1.318   2.240   3.426 -0.1090 -0.1068  0.3430
 6516SOL    HW225836   1.286   2.326   3.400  0.7818  0.1396  0.0217
 6516SOL    HW325837   1.353   2.253   3.514  0.1375 -0.1105  0.2461
 6516SOL    MW425838   1.319   2.253   3.434  0.0411 -0.0748  0.2878
 6517SOL     OW25839   0.071   0.713   1.240  0.4793 -0.4877 -0.3949
 6517SOL    HW225840   0.145   0.746   1.290  0.8250 -1.9203  0.0844
 6517SOL    HW325841  -0.005   0.762   1.274  0.7868 -1.0486  1.1674
 6517SOL    MW425842   0.071   0.724   1.251  0.5655 -0.7507 -0.1256
 6518SOL     OW25843   3.310   3.560   0.676  0.8573  0.0992 -0.6664
 6518SOL    HW225844   3.306   3.640   0.728  1.0567 -0.4957  0.2866
 6518SOL    HW325845   3.349   3.495   0.735  2.1299 -0.3228 -1.9005
 6518SOL    MW425846   3.315   3.562   0.691  1.0515 -0.0350 -0.7035
 6519SOL     OW25847   4.907   1.241   2.305  0.1895 -0.0044  0.5471
 6519SOL    HW225848   4.951   1.227   2.389 -2.1316 -1.3829  1.6543
 6519SOL    HW325849   4.959   1.192   2.242  1.3383  0.0891  1.3943
 6519SOL    MW425850   4.919   1.232   2.308  0.0348 -0.1739  0.8049
 6520SOL     OW25851   3.346   5.382   4.841  0.7905 -0.2023 -0.0743
 6520SOL    HW225852   3.262   5.393   4.886  1.5828 -1.7298  1.8953
 6520SOL    HW325853   3.412   5.390   4.910  2.2900  0.5956 -1.5181
 6520SOL    MW425854   3.344   5.385   4.856  1.0929 -0.2985 -0.0049
 6521SOL     OW25855   4.815   2.234   1.502  0.1969  0.2753 -0.2833
 6521SOL    HW225856   4.765   2.200   1.576 -0.0318 -0.5333 -0.8025
 6521SOL    HW325857   4.751   2.285   1.452  0.2831  0.5721 -0.0996
 6521SOL    MW425858   4.800   2.236   1.506  0.1781  0.2077 -0.3275
 6522SOL     OW25859   1.370   5.456   1.137  0.1791  0.8112  0.4277
 6522SOL    HW225860   1.420   5.493   1.064  1.4476 -0.1135  0.8111
 6522SOL    HW325861   1.280   5.454   1.104  0.7770 -0.0285 -1.3267
 6522SOL    MW425862   1.364   5.461   1.123  0.4254  0.5784  0.2468
 6523SOL     OW25863   6.323   6.072   0.547 -0.2540  0.0398 -0.1637
 6523SOL    HW225864   6.363   6.065   0.633  2.1108  1.6861 -1.0218
 6523SOL    HW325865   6.258   6.001   0.545 -1.0672  0.5090  3.2317
 6523SOL    MW425866   6.319   6.061   0.558 -0.0493  0.3189  0.1711
 6524SOL     OW25867   0.527   4.665   0.637  0.1165 -0.2860  0.1052
 6524SOL    HW225868   0.561   4.592   0.688 -1.2693 -1.1638 -0.1680
 6524SOL    HW325869   0.582   4.666   0.558  1.4472  0.2767  1.0153
 6524SOL    MW425870   0.538   4.655   0.633  0.1092 -0.3276  0.1892
 6525SOL     OW25871   4.232   4.773   1.288  0.9242 -0.0743  0.3619
 6525SOL    HW225872   4.279   4.850   1.259 -2.7009  3.1696  2.1799
 6525SOL    HW325873   4.205   4.729   1.207  0.3514  2.4937 -0.9431
 6525SOL    MW425874   4.234   4.777   1.273  0.3703  0.6925  0.4296
 6526SOL     OW25875   3.495   5.592   6.139  0.1600 -0.1831  0.1598
 6526SOL    HW225876   3.457   5.584   6.226 -1.7040 -2.1539 -0.7444
 6526SOL    HW325877   3.421   5.582   6.079  1.6829 -1.1679 -1.6867
 6526SOL    MW425878   3.480   5.590   6.143  0.1150 -0.5731 -0.2032
 6527SOL     OW25879   5.257   3.436   6.363  0.1159  0.5923  0.0919
 6527SOL    HW225880   5.265   3.451   6.457 -1.4086 -0.6358  0.4613
 6527SOL    HW325881   5.168   3.466   6.342  0.0240 -0.2007 -0.7242
 6527SOL    MW425882   5.246   3.442   6.372 -0.0973  0.3256  0.0330
 6528SOL     OW25883   1.583   3.589   1.838 -0.0356  0.8054 -0.0299
 6528SOL    HW225884   1.675   3.579   1.816 -0.2466 -1.4549 -0.1428
 6528SOL    HW325885   1.583   3.635   1.922  1.0712  2.4585 -0.8824
 6528SOL    MW425886   1.595   3.594   1.846  0.0826  0.7253 -0.1573
 6529SOL     OW25887   5.204   3.789   1.252  0.1651  0.4994 -0.1008
 6529SOL    HW225888   5.129   3.842   1.279 -0.3449  0.3371 -1.1414
 6529SOL    HW325889   5.277   3.851   1.246  0.6991  0.3429  2.9214
 6529SOL    MW425890   5.204   3.804   1.255  0.1682  0.4573  0.1606
 6530SOL     OW25891   4.630   2.466   0.664  0.1003  0.0412  0.3049
 6530SOL    HW225892   4.671   2.552   0.651 -0.1198  0.1570  0.3773
 6530SOL    HW325893   4.704   2.406   0.676  0.3227 -0.0122 -1.0895
 6530SOL    MW425894   4.646   2.470   0.664  0.1006  0.0494  0.1305
 6531SOL     OW25895   1.511   3.805   4.017 -0.4235  0.0226  0.2738
 6531SOL    HW225896   1.482   3.735   4.074  0.5598 -0.8814 -0.2991
 6531SOL    HW325897   1.532   3.761   3.934  2.7177  0.5305  0.6877
 6531SOL    MW425898   1.510   3.790   4.013  0.1207 -0.0296  0.2528
 6532SOL     OW25899   4.094   2.675   1.085 -0.3534 -0.2998  0.0230
 6532SOL    HW225900   4.154   2.709   1.153 -0.4906  0.8414 -0.4109
 6532SOL    HW325901   4.012   2.722   1.100 -0.5983 -0.5562 -0.5054
 6532SOL    MW425902   4.091   2.685   1.096 -0.4038 -0.1830 -0.1039
 6533SOL     OW25903   5.085   2.536   6.166 -0.3531  0.2024  0.0197
 6533SOL    HW225904   5.122   2.618   6.134 -0.2194  0.8566  1.7750
 6533SOL    HW325905   4.995   2.558   6.189  0.2102  0.3565  2.2370
 6533SOL    MW425906   5.078   2.549   6.164 -0.2611  0.3090  0.5438
 6534SOL     OW25907   1.678   4.586   6.369 -0.5754 -0.3386  0.0911
 6534SOL    HW225908   1.590   4.564   6.399 -0.3554 -1.2333  0.1157
 6534SOL    HW325909   1.717   4.636   6.441 -1.7177  1.8153 -0.6927
 6534SOL    MW425910   1.672   4.590   6.383 -0.6971 -0.1725 -0.0090
 6535SOL     OW25911   4.748   2.524   5.348  0.0183 -0.0165 -0.0437
 6535SOL    HW225912   4.794   2.596   5.393 -0.6501 -0.9625  2.2976
 6535SOL    HW325913   4.739   2.555   5.258  1.1383  2.1662  0.5071
 6535SOL    MW425914   4.753   2.538   5.342  0.0779  0.1467  0.3379
 6536SOL     OW25915   4.698   6.311   5.650  0.4960  0.4003 -0.2398
 6536SOL    HW225916   4.636   6.383   5.665  0.6825  0.1996  1.6307
 6536SOL    HW325917   4.784   6.351   5.662  0.6349  0.0674 -0.1488
 6536SOL    MW425918   4.701   6.326   5.653  0.5389  0.3299  0.0190
 6537SOL     OW25919   5.469   1.568   3.764 -0.3047 -0.0310 -0.3169
 6537SOL    HW225920   5.526   1.514   3.708 -1.5596 -1.1627 -0.5369
 6537SOL    HW325921   5.518   1.576   3.846  1.3620  1.2694 -1.3522
 6537SOL    MW425922   5.483   1.562   3.767 -0.2504 -0.0087 -0.4825
 6538SOL     OW25923   4.224   4.124   2.351  0.3198  0.0272  0.1369
 6538SOL    HW225924   4.231   4.072   2.431  1.0956  1.0868  0.7676
 6538SOL    HW325925   4.301   4.181   2.352  0.3070  0.1100 -1.3289
 6538SOL    MW425926   4.235   4.124   2.361  0.4204  0.1779  0.0267
 6539SOL     OW25927   6.192   3.398   6.001 -0.3658  0.2989 -0.7376
 6539SOL    HW225928   6.120   3.345   5.967  1.4341 -1.6685 -1.7181
 6539SOL    HW325929   6.253   3.405   5.929  0.7445  1.3675  0.2562
 6539SOL    MW425930   6.190   3.392   5.987  0.0182  0.1803 -0.7359
 6540SOL     OW25931   3.324   1.992   1.517 -0.0527  0.3276  0.0420
 6540SOL    HW225932   3.377   2.010   1.595 -1.0164 -0.0541  0.8007
 6540SOL    HW325933   3.257   2.060   1.519 -0.2246  0.1646 -0.3232
 6540SOL    MW425934   3.322   2.003   1.528 -0.2025  0.2557  0.0939
 6541SOL     OW25935   5.122   2.735   0.034 -0.0054 -0.0772 -0.2272
 6541SOL    HW225936   5.141   2.765   0.123  1.6842 -1.0492 -0.2172
 6541SOL    HW325937   5.139   2.641   0.037 -2.5831 -0.6335 -0.9199
 6541SOL    MW425938   5.127   2.727   0.046 -0.1226 -0.2788 -0.3172
 6542SOL     OW25939   4.502   4.714   3.123 -0.1284  0.6170 -0.3457
 6542SOL    HW225940   4.461   4.628   3.125  0.4070  0.3694  0.5476
 6542SOL    HW325941   4.591   4.698   3.093 -0.0383  0.8558 -0.2150
 6542SOL    MW425942   4.508   4.700   3.119 -0.0459  0.6159 -0.2106
 6543SOL     OW25943   3.088   0.813   5.528  0.4959  0.3901 -0.1069
 6543SOL    HW225944   2.993   0.809   5.531  0.4770 -3.6916  0.1726
 6543SOL    HW325945   3.113   0.851   5.612 -0.8846 -0.2594  0.6250
 6543SOL    MW425946   3.079   0.817   5.539  0.3112 -0.2341  0.0265
 6544SOL     OW25947   5.104   2.481   2.245  0.7181 -0.1570  0.0165
 6544SOL    HW225948   5.098   2.398   2.293  2.7430 -0.5760 -0.3590
 6544SOL    HW325949   5.159   2.460   2.169  0.8991  1.4324 -0.3167
 6544SOL    MW425950   5.111   2.467   2.241  1.0092 -0.0026 -0.0770
 6545SOL     OW25951   5.803   4.744   4.813 -0.4630 -0.6090  0.0111
 6545SOL    HW225952   5.814   4.650   4.829 -0.4776 -0.7572 -0.8024
 6545SOL    HW325953   5.750   4.748   4.733 -2.1605  0.0931  1.1144
 6545SOL    MW425954   5.798   4.732   4.804 -0.6889 -0.5359  0.0494
 6546SOL     OW25955   0.539   3.603   5.271 -0.1204  0.0803 -0.8679
 6546SOL    HW225956   0.493   3.543   5.330  0.8891 -0.7433 -0.8930
 6546SOL    HW325957   0.544   3.556   5.187 -1.4545  1.1963 -1.6180
 6546SOL    MW425958   0.534   3.589   5.267 -0.1633  0.1189 -0.9702
 6547SOL     OW25959   5.920   4.451   0.091  0.3712 -0.2402  0.2470
 6547SOL    HW225960   5.837   4.476   0.050  0.9927 -0.5693 -1.3037
 6547SOL    HW325961   5.913   4.357   0.105  0.2901 -0.1842  0.5782
 6547SOL    MW425962   5.908   4.442   0.087  0.4425 -0.2762  0.0861
 6548SOL     OW25963   4.855   0.178   3.704  0.0460  0.2405 -0.1868
 6548SOL    HW225964   4.947   0.204   3.698 -0.1868  0.8195 -1.4517
 6548SOL    HW325965   4.840   0.122   3.628 -0.7311  0.4165 -0.1767
 6548SOL    MW425966   4.865   0.174   3.693 -0.0872  0.3401 -0.3523
 6549SOL     OW25967   0.569   2.982   4.071  0.2400  0.0219 -0.0083
 6549SOL    HW225968   0.628   3.033   4.016  0.7949  0.5734  1.0725
 6549SOL    HW325969   0.623   2.909   4.102 -0.9025 -2.1458 -2.6711
 6549SOL    MW425970   0.584   2.979   4.067  0.1625 -0.1913 -0.2170
 6550SOL     OW25971   3.887   0.053   2.096 -0.4768  0.1719 -0.2657
 6550SOL    HW225972   3.820   0.088   2.153 -0.6558 -0.3449 -0.1480
 6550SOL    HW325973   3.860  -0.038   2.079  0.6307 -0.3370  0.5113
 6550SOL    MW425974   3.875   0.045   2.101 -0.3543  0.0366 -0.1477
 6551SOL     OW25975   3.734   3.649   6.285 -0.4521 -0.0591 -0.0000
 6551SOL    HW225976   3.659   3.625   6.339 -0.0772 -0.8498  0.1849
 6551SOL    HW325977   3.745   3.576   6.225 -0.5631  0.5951 -0.8293
 6551SOL    MW425978   3.726   3.636   6.284 -0.4173 -0.0771 -0.0851
 6552SOL     OW25979   1.259   5.143   3.851 -0.1665 -0.0174  0.0951
 6552SOL    HW225980   1.237   5.069   3.794  1.6203 -0.0987 -0.5487
 6552SOL    HW325981   1.306   5.104   3.925  2.1025  0.5262 -0.9602
 6552SOL    MW425982   1.262   5.128   3.853  0.3686  0.0436 -0.1291
 6553SOL     OW25983   0.617   2.728   0.933  0.7846  0.3730 -0.0771
 6553SOL    HW225984   0.704   2.696   0.958  0.9430  1.3725  0.7359
 6553SOL    HW325985   0.593   2.788   1.004 -1.1995 -0.9620  0.4568
 6553SOL    MW425986   0.625   2.732   0.946  0.5437  0.3287  0.1006
 6554SOL     OW25987   4.637   3.888   5.469 -0.2785  0.6318  0.5155
 6554SOL    HW225988   4.628   3.824   5.539  0.7274  1.3451  1.3302
 6554SOL    HW325989   4.587   3.852   5.396  1.5030 -1.8657  0.4081
 6554SOL    MW425990   4.629   3.875   5.468  0.0893  0.3964  0.6088
 6555SOL     OW25991   5.765   1.607   4.866  0.2393 -0.2845 -0.1845
 6555SOL    HW225992   5.806   1.570   4.944  1.2529 -0.9375 -1.0057
 6555SOL    HW325993   5.815   1.571   4.793 -0.3522  0.7356 -1.1236
 6555SOL    MW425994   5.777   1.597   4.867  0.2950 -0.2361 -0.4168
 6556SOL     OW25995   0.059   0.597   3.829  0.4181  0.2659 -0.1879
 6556SOL    HW225996   0.064   0.571   3.737 -1.2869  0.6106 -0.3956
 6556SOL    HW325997   0.010   0.526   3.872  1.3697  0.0037  0.5249
 6556SOL    MW425998   0.053   0.584   3.823  0.3187  0.2768 -0.1212
 6557SOL     OW25999   3.147   3.352   1.362 -0.3965 -0.1371  0.1203
 6557SOL    HW226000   3.162   3.311   1.447  0.6436  1.7271  0.8822
 6557SOL    HW326001   3.137   3.445   1.381  2.5950  0.7622 -2.0066
 6557SOL    MW426002   3.148   3.359   1.376  0.1354  0.2275 -0.0598
 6558SOL     OW26003   4.034   4.743   5.049 -0.5639  0.0789  0.2947
 6558SOL    HW226004   4.002   4.750   5.139 -1.0864  0.2135  0.1025
 6558SOL    HW326005   4.038   4.649   5.032  1.0769 -0.0037  0.9901
 6558SOL    MW426006   4.030   4.731   5.058 -0.4164  0.0857  0.3611
 6559SOL     OW26007   4.784   1.753   1.399 -0.0297 -0.3237 -0.2038
 6559SOL    HW226008   4.742   1.690   1.340 -1.6665  0.3048  0.2259
 6559SOL    HW326009   4.833   1.811   1.341 -0.1048 -0.8246 -0.7795
 6559SOL    MW426010   4.785   1.752   1.383 -0.2556 -0.3069 -0.2231
 6560SOL     OW26011   1.756   0.798   3.640  0.1492 -0.3999 -0.3896
 6560SOL    HW226012   1.690   0.802   3.709  0.4304 -1.1195 -0.0640
 6560SOL    HW326013   1.769   0.889   3.613 -0.3373 -0.1675  0.1495
 6560SOL    MW426014   1.749   0.810   3.646  0.1221 -0.4642 -0.2755
 6561SOL     OW26015   0.591   1.843   4.419 -0.2669 -0.3470  0.0698
 6561SOL    HW226016   0.661   1.886   4.468 -0.0008 -1.5308  0.7498
 6561SOL    HW326017   0.636   1.801   4.346 -0.2951 -0.8870  0.3596
 6561SOL    MW426018   0.606   1.843   4.416 -0.2355 -0.5744  0.1977
 6562SOL     OW26019   5.557   3.311   0.637  0.0652 -0.4349 -0.3209
 6562SOL    HW226020   5.599   3.248   0.579 -0.1196 -1.5305  0.6764
 6562SOL    HW326021   5.472   3.327   0.596  0.0005 -1.0644 -0.4573
 6562SOL    MW426022   5.551   3.305   0.624  0.0323 -0.6625 -0.2073
 6563SOL     OW26023   5.752   4.419   3.140  0.2169 -0.0182 -0.1389
 6563SOL    HW226024   5.810   4.346   3.161  0.7645  1.1482  2.9001
 6563SOL    HW326025   5.676   4.407   3.197 -1.1141  0.1954 -1.7884
 6563SOL    MW426026   5.750   4.408   3.150  0.1135  0.1638  0.0444
 6564SOL     OW26027   5.305   3.393   2.042 -0.2662 -0.1896 -0.5438
 6564SOL    HW226028   5.279   3.458   2.107 -0.1606  1.7844 -2.3443
 6564SOL    HW326029   5.228   3.385   1.985  0.1888 -0.6763 -1.0986
 6564SOL    MW426030   5.291   3.400   2.043 -0.1922  0.0066 -0.8545
 6565SOL     OW26031   2.565   2.852   2.986  0.6351  0.3768  0.0343
 6565SOL    HW226032   2.493   2.843   3.048  0.2844 -1.2085 -0.5440
 6565SOL    HW326033   2.556   2.776   2.928  0.8590  1.8595 -2.0480
 6565SOL    MW426034   2.555   2.841   2.986  0.6183  0.3632 -0.3167
 6566SOL     OW26035   1.117   3.103   6.349 -0.0375 -0.0042 -0.4965
 6566SOL    HW226036   1.030   3.113   6.312 -0.4831  0.7655  0.6845
 6566SOL    HW326037   1.103   3.066   6.436  0.5964  1.9015  0.5027
 6566SOL    MW426038   1.104   3.100   6.356 -0.0126  0.3488 -0.2089
 6567SOL     OW26039   0.952   0.500   5.031 -0.1774  0.3624 -0.1764
 6567SOL    HW226040   0.886   0.455   5.084 -0.6612  1.2680  0.0159
 6567SOL    HW326041   1.035   0.480   5.073 -0.2121 -1.3840 -0.8260
 6567SOL    MW426042   0.954   0.491   5.043 -0.2458  0.2514 -0.2368
 6568SOL     OW26043   0.146   4.728   2.521 -0.3464 -0.2330  0.1471
 6568SOL    HW226044   0.055   4.758   2.517 -0.3393 -0.2783 -0.7672
 6568SOL    HW326045   0.196   4.804   2.549 -0.7174 -0.3538  1.1796
 6568SOL    MW426046   0.141   4.742   2.524 -0.3944 -0.2549  0.1627
 6569SOL     OW26047   6.420   2.900   4.428 -0.0792  0.2044 -0.2956
 6569SOL    HW226048   6.475   2.949   4.490 -0.2110  0.6501 -0.5232
 6569SOL    HW326049   6.332   2.904   4.466 -0.1582  0.4676 -0.5050
 6569SOL    MW426050   6.416   2.907   4.442 -0.1070  0.2980 -0.3532
 6570SOL     OW26051   6.098   1.802   2.319  0.0159 -0.2584  0.4255
 6570SOL    HW226052   6.189   1.814   2.290  0.1459 -0.6988  0.6447
 6570SOL    HW326053   6.050   1.781   2.240  0.0651  0.1946  0.2735
 6570SOL    MW426054   6.104   1.801   2.305  0.0395 -0.2567  0.4344
 6571SOL     OW26055   5.099   3.445   5.699  0.1714 -0.0852  0.1203
 6571SOL    HW226056   5.067   3.535   5.698  0.2719  0.0320 -3.0571
 6571SOL    HW326057   5.030   3.395   5.744 -0.5849  1.3571  0.6019
 6571SOL    MW426058   5.086   3.450   5.705  0.0849  0.1205 -0.2353
 6572SOL     OW26059   5.664   5.432   1.927  0.0248  0.1170 -0.1374
 6572SOL    HW226060   5.704   5.519   1.932  0.1223  0.0437  0.4954
 6572SOL    HW326061   5.717   5.378   1.986 -0.0001 -0.3915 -0.5642
 6572SOL    MW426062   5.677   5.436   1.935  0.0344  0.0402 -0.1102
 6573SOL     OW26063   2.939   2.309   5.740 -0.0782 -0.3907 -0.3070
 6573SOL    HW226064   2.932   2.290   5.833  0.7212  0.1920 -0.1233
 6573SOL    HW326065   3.031   2.297   5.719 -0.0322  0.6214 -0.7706
 6573SOL    MW426066   2.950   2.305   5.749  0.0333 -0.1803 -0.3439
 6574SOL     OW26067   4.981   4.563   6.317  0.3459 -0.1875  0.1659
 6574SOL    HW226068   5.026   4.638   6.354 -1.7502  1.1877  0.0936
 6574SOL    HW326069   4.914   4.600   6.260 -1.3123 -2.0537  0.7707
 6574SOL    MW426070   4.978   4.577   6.314 -0.1494 -0.2523  0.2361
 6575SOL     OW26071   4.267   1.143   2.629 -1.1092 -0.3520  0.0161
 6575SOL    HW226072   4.286   1.117   2.719 -0.2761 -2.6249 -0.7614
 6575SOL    HW326073   4.246   1.061   2.584  0.9020  0.3646 -2.4385
 6575SOL    MW426074   4.267   1.129   2.635 -0.7340 -0.5573 -0.4103
 6576SOL     OW26075   3.807   5.480   4.899  0.3815  0.7070  0.1218
 6576SOL    HW226076   3.759   5.406   4.862  1.1311 -0.0846  0.6998
 6576SOL    HW326077   3.776   5.486   4.990  1.4145  0.1366  0.5218
 6576SOL    MW426078   3.796   5.471   4.906  0.6167  0.5273  0.2509
 6577SOL     OW26079   6.249   3.336   4.633 -0.4820  0.6749  0.3374
 6577SOL    HW226080   6.292   3.358   4.550 -1.7878  1.0940 -0.2441
 6577SOL    HW326081   6.295   3.257   4.663 -0.7581 -0.1850 -1.3708
 6577SOL    MW426082   6.261   3.328   4.626 -0.6907  0.6167  0.0353
 6578SOL     OW26083   5.947   3.639   5.532  0.0692  0.5109  0.1532
 6578SOL    HW226084   5.903   3.714   5.492 -0.6242  0.1843  0.2931
 6578SOL    HW326085   5.903   3.626   5.615 -0.4095 -0.5865 -0.2472
 6578SOL    MW426086   5.935   3.647   5.537 -0.0854  0.3230  0.1188
 6579SOL     OW26087   1.152   5.620   1.311 -0.2849 -0.0673  0.2037
 6579SOL    HW226088   1.219   5.610   1.378 -0.6140  1.2524  0.7455
 6579SOL    HW326089   1.070   5.624   1.360 -0.5491  0.6690 -0.2903
 6579SOL    MW426090   1.150   5.619   1.326 -0.3632  0.2039  0.2100
 6580SOL     OW26091   4.853   0.956   3.294 -0.0991  0.1488 -0.3953
 6580SOL    HW226092   4.947   0.970   3.282  0.0874 -0.6803  0.0587
 6580SOL    HW326093   4.813   1.001   3.220  0.5585  1.7010  0.1430
 6580SOL    MW426094   4.860   0.964   3.283  0.0122  0.2442 -0.2644
 6581SOL     OW26095   0.997   1.875   2.667 -0.1553 -0.2214 -0.3458
 6581SOL    HW226096   1.006   1.785   2.697 -0.4693  0.4603  2.0170
 6581SOL    HW326097   0.993   1.869   2.572 -0.1551 -2.6846 -0.2417
 6581SOL    MW426098   0.997   1.862   2.659 -0.1967 -0.4564 -0.0203
 6582SOL     OW26099   6.203   2.847   1.812  0.0011  0.3094  0.3510
 6582SOL    HW226100   6.209   2.871   1.719  0.6479 -0.2612  0.2392
 6582SOL    HW326101   6.112   2.821   1.824  0.2149 -0.8625 -0.4436
 6582SOL    MW426102   6.192   2.847   1.801  0.1146  0.0795  0.2314
 6583SOL     OW26103   1.351   6.394   0.401 -0.1932 -0.5903 -0.6589
 6583SOL    HW226104   1.399   6.312   0.399  0.8873  0.0378 -1.3023
 6583SOL    HW326105   1.262   6.371   0.374  0.5102 -1.2803 -2.5281
 6583SOL    MW426106   1.345   6.380   0.397  0.0422 -0.5984 -0.9904
 6584SOL     OW26107   2.817   0.742   5.561 -0.8128  0.3936  0.5367
 6584SOL    HW226108   2.813   0.650   5.586 -0.9688 -0.0048 -0.8787
 6584SOL    HW326109   2.769   0.747   5.479  0.8577  1.3537 -0.4460
 6584SOL    MW426110   2.810   0.730   5.554 -0.6130  0.4677  0.2203
 6585SOL     OW26111   5.814   5.560   3.813 -0.6398 -0.5499 -0.6266
 6585SOL    HW226112   5.720   5.573   3.819 -0.6193 -0.8809  0.8404
 6585SOL    HW326113   5.826   5.496   3.743 -1.6821 -2.1365  0.5864
 6585SOL    MW426114   5.803   5.553   3.805 -0.7746 -0.8029 -0.2730
 6586SOL     OW26115   6.295   1.292   5.244 -0.4315 -0.2169  0.3952
 6586SOL    HW226116   6.345   1.219   5.280 -1.7087 -1.1553  0.3265
 6586SOL    HW326117   6.222   1.304   5.305 -0.6466  0.5048  0.0080
 6586SOL    MW426118   6.292   1.284   5.256 -0.6284 -0.2455  0.3351
 6587SOL     OW26119   3.744   1.545   5.985 -0.1729  0.1562 -0.5790
 6587SOL    HW226120   3.763   1.627   5.939 -1.7587  0.8853 -0.0201
 6587SOL    HW326121   3.820   1.489   5.968  1.4990  2.1371 -0.0083
 6587SOL    MW426122   3.757   1.548   5.976 -0.1615  0.5138 -0.4299
 6588SOL     OW26123   5.731   0.109   5.842  0.3651  0.4934  0.2915
 6588SOL    HW226124   5.792   0.063   5.785 -0.3751 -0.4233  0.2101
 6588SOL    HW326125   5.754   0.201   5.833  1.0543  0.2518 -0.5270
 6588SOL    MW426126   5.742   0.115   5.833  0.3584  0.3406  0.1728
 6589SOL     OW26127   1.953   2.438   0.602  0.1434  0.0112  0.0454
 6589SOL    HW226128   2.016   2.368   0.589  0.3307 -0.0081  0.9917
 6589SOL    HW326129   2.002   2.518   0.587  0.7629  0.0558  1.9963
 6589SOL    MW426130   1.967   2.439   0.599  0.2498  0.0146  0.4276
 6590SOL     OW26131   1.169   0.106   5.214 -0.0245  0.3450  0.2495
 6590SOL    HW226132   1.177   0.176   5.279 -0.0935  0.6068 -0.0272
 6590SOL    HW326133   1.147   0.028   5.266 -0.0615  0.5501  0.5424
 6590SOL    MW426134   1.167   0.105   5.230 -0.0385  0.4066  0.2516
 6591SOL     OW26135   6.409   0.063   2.803  0.4864 -0.0794 -0.9873
 6591SOL    HW226136   6.346  -0.009   2.794 -2.3937  1.9855  0.6380
 6591SOL    HW326137   6.401   0.090   2.894  1.6720  2.0513 -1.4409
 6591SOL    MW426138   6.399   0.057   2.814  0.2628  0.4741 -0.8327
 6592SOL     OW26139   4.638   4.071   0.668 -0.2916 -0.1872  0.3099
 6592SOL    HW226140   4.615   4.115   0.749 -1.3529 -0.1520 -0.0026
 6592SOL    HW326141   4.581   4.111   0.602  1.6182  0.9044 -0.7708
 6592SOL    MW426142   4.628   4.082   0.670 -0.1796 -0.0386  0.1261
 6593SOL     OW26143   5.866   2.792   5.793 -0.3045 -0.3276 -0.0741
 6593SOL    HW226144   5.870   2.878   5.750 -3.1399 -0.7663 -1.4557
 6593SOL    HW326145   5.952   2.752   5.774  0.2487  1.3209 -1.3421
 6593SOL    MW426146   5.878   2.798   5.785 -0.6056 -0.1680 -0.4237
 6594SOL     OW26147   3.339   3.810   4.106 -0.2714 -0.3930  0.2348
 6594SOL    HW226148   3.273   3.872   4.075 -0.3342  0.7395  2.3917
 6594SOL    HW326149   3.396   3.863   4.162  0.8293 -1.9251  0.6150
 6594SOL    MW426150   3.338   3.825   4.109 -0.1345 -0.4458  0.5696
 6595SOL     OW26151   0.149   6.113   2.291  0.0329  0.9841 -0.1761
 6595SOL    HW226152   0.105   6.166   2.357  0.5347 -1.6766  2.5569
 6595SOL    HW326153   0.242   6.130   2.305  0.1287  0.9699 -0.7662
 6595SOL    MW426154   0.156   6.122   2.301  0.1117  0.6312  0.1066
 6596SOL     OW26155   6.305   6.210   0.295  0.5696  0.4905  0.5912
 6596SOL    HW226156   6.326   6.171   0.380 -0.1197  2.2639  1.6287
 6596SOL    HW326157   6.284   6.135   0.239 -1.5628 -0.6498  2.7229
 6596SOL    MW426158   6.305   6.195   0.299  0.1973  0.5740  1.0093
 6597SOL     OW26159   1.728   4.584   4.587 -0.2604  0.2034  0.1356
 6597SOL    HW226160   1.813   4.623   4.605 -0.1406 -0.4445  1.0440
 6597SOL    HW326161   1.745   4.520   4.517 -0.1370  0.5354 -0.1422
 6597SOL    MW426162   1.741   4.581   4.580 -0.2283  0.1617  0.2188
 6598SOL     OW26163   1.551   0.593   5.277 -0.6068 -0.0616  0.0151
 6598SOL    HW226164   1.512   0.526   5.333 -0.0971 -1.1205 -0.8671
 6598SOL    HW326165   1.527   0.566   5.188  1.7201 -0.4952 -0.5301
 6598SOL    MW426166   1.543   0.581   5.272 -0.2325 -0.2585 -0.1732
 6599SOL     OW26167   4.220   5.598   1.699  0.1523 -0.1599  0.4861
 6599SOL    HW226168   4.190   5.509   1.719  0.7384 -0.3515  0.5437
 6599SOL    HW326169   4.234   5.597   1.604  1.8357 -0.6837  0.6949
 6599SOL    MW426170   4.218   5.586   1.689  0.4517 -0.2543  0.5213
 6600SOL     OW26171   1.637   3.382   2.959 -0.1333  0.4283  0.1087
 6600SOL    HW226172   1.635   3.398   3.053 -0.5575  1.6209 -0.0854
 6600SOL    HW326173   1.722   3.341   2.943  1.0892  2.6044  0.6637
 6600SOL    MW426174   1.648   3.379   2.969 -0.0280  0.8728  0.1563
 6601SOL     OW26175   2.329   1.902   3.278 -0.1333  0.6567 -0.4911
 6601SOL    HW226176   2.349   1.822   3.327  1.7543  0.6265 -1.2482
 6601SOL    HW326177   2.363   1.885   3.190 -0.5612  1.9388 -0.9185
 6601SOL    MW426178   2.336   1.889   3.273  0.0593  0.8219 -0.6474
 6602SOL     OW26179   2.354   2.925   4.264  0.2058 -0.3845  0.1021
 6602SOL    HW226180   2.429   2.979   4.242  0.9296 -1.1086  0.7341
 6602SOL    HW326181   2.328   2.953   4.352  1.0032 -1.4851  0.7128
 6602SOL    MW426182   2.360   2.936   4.272  0.4065 -0.6252  0.2660
 6603SOL     OW26183   1.138   2.233   0.641 -0.4819  0.5592  0.0294
 6603SOL    HW226184   1.151   2.324   0.615 -0.2946 -0.0791 -2.3558
 6603SOL    HW326185   1.070   2.200   0.581 -0.1021 -1.0387  0.4111
 6603SOL    MW426186   1.131   2.240   0.630 -0.4071  0.2642 -0.2349
 6604SOL     OW26187   5.492   4.451   3.267 -0.2112 -0.2187 -0.6373
 6604SOL    HW226188   5.468   4.542   3.247 -0.4994 -0.1230  0.1126
 6604SOL    HW326189   5.484   4.445   3.363 -0.1077 -1.0087 -0.6766
 6604SOL    MW426190   5.488   4.462   3.277 -0.2356 -0.3103 -0.5436
 6605SOL     OW26191   3.960   2.331   5.283  0.4114 -0.4430  0.0844
 6605SOL    HW226192   3.944   2.416   5.242  1.6914 -0.0125  0.4149
 6605SOL    HW326193   4.043   2.302   5.245 -0.0505 -1.5828 -0.0736
 6605SOL    MW426194   3.969   2.339   5.273  0.5194 -0.5366  0.1071
 6606SOL     OW26195   4.697   5.242   5.439 -0.3453 -0.6389  0.4434
 6606SOL    HW226196   4.751   5.168   5.413 -0.7721 -0.4651 -0.9938
 6606SOL    HW326197   4.615   5.231   5.390 -0.4970  0.6554  0.3771
 6606SOL    MW426198   4.693   5.231   5.429 -0.4216 -0.4452  0.2450
 6607SOL     OW26199   3.448   0.105   1.171 -0.3148 -0.1531 -0.6571
 6607SOL    HW226200   3.435   0.175   1.235 -0.1629  0.2969 -1.1111
 6607SOL    HW326201   3.372   0.111   1.113 -0.0750 -0.0618 -0.9693
 6607SOL    MW426202   3.436   0.115   1.172 -0.2631 -0.0817 -0.7582
 6608SOL     OW26203   1.526   2.938   0.833  0.9444 -0.1689  0.1140
 6608SOL    HW226204   1.616   2.928   0.863  0.2864  0.1677  2.4222
 6608SOL    HW326205   1.533   2.973   0.744  3.0660 -1.8195 -0.4403
 6608SOL    MW426206   1.539   2.941   0.825  1.1375 -0.3423  0.3454
 6609SOL     OW26207   2.841   0.500   5.647  0.3171  0.4665  0.3292
 6609SOL    HW226208   2.802   0.524   5.731 -1.6390  2.5198 -1.0426
 6609SOL    HW326209   2.913   0.441   5.670 -0.1070  0.9685  3.4136
 6609SOL    MW426210   2.845   0.495   5.661  0.0031  0.8036  0.5551
 6610SOL     OW26211   3.729   1.639   2.425 -0.1604  0.4524 -0.7458
 6610SOL    HW226212   3.659   1.703   2.435  0.5840  1.0265  1.2659
 6610SOL    HW326213   3.756   1.619   2.515 -1.2300 -3.6936 -1.1441
 6610SOL    MW426214   3.723   1.645   2.438 -0.2033 -0.0188 -0.5329
 6611SOL     OW26215   0.831   5.211   1.691  0.0528 -0.2369  0.5455
 6611SOL    HW226216   0.890   5.141   1.716  0.7598  1.0554  2.7544
 6611SOL    HW326217   0.806   5.253   1.773 -3.5650 -0.3486 -0.2894
 6611SOL    MW426218   0.835   5.207   1.705 -0.3313 -0.0811  0.7268
 6612SOL     OW26219   4.346   5.052   1.246 -0.4451 -0.2175  0.1653
 6612SOL    HW226220   4.436   5.049   1.280 -0.7718  0.2255  1.0999
 6612SOL    HW326221   4.304   5.122   1.295 -0.7508  0.9674 -1.6578
 6612SOL    MW426222   4.352   5.061   1.257 -0.5285 -0.0027  0.0480
 6613SOL     OW26223   0.397   2.598   0.592  0.0638  0.0616 -0.3692
 6613SOL    HW226224   0.383   2.641   0.677 -0.7437 -0.6065 -0.1456
 6613SOL    HW326225   0.309   2.570   0.565  0.6664 -2.8290  0.2635
 6613SOL    MW426226   0.383   2.600   0.600  0.0367 -0.4079 -0.2562
 6614SOL     OW26227   5.571   6.132   3.237 -0.1768  0.0422  0.0934
 6614SOL    HW226228   5.649   6.161   3.283 -0.6072 -1.4310  1.8591
 6614SOL    HW326229   5.498   6.172   3.285 -0.5912  0.1223 -0.5744
 6614SOL    MW426230   5.571   6.141   3.249 -0.2883 -0.1416  0.2383
 6615SOL     OW26231   6.049   4.367   6.048 -0.2515  0.4273  0.2391
 6615SOL    HW226232   6.112   4.394   6.114 -0.1187  0.5152  0.0783
 6615SOL    HW326233   6.102   4.349   5.970 -0.3718  0.0341  0.2449
 6615SOL    MW426234   6.064   4.368   6.046 -0.2498  0.3870  0.2187
 6616SOL     OW26235   3.116   1.211   1.344 -0.5660 -0.4444  0.2440
 6616SOL    HW226236   3.162   1.173   1.269  2.9231 -0.1720  2.0386
 6616SOL    HW326237   3.100   1.302   1.319  1.0497 -0.2080 -0.0886
 6616SOL    MW426238   3.120   1.218   1.331  0.1075 -0.3773  0.4369
 6617SOL     OW26239   2.903   5.699   2.787  0.3698  0.1494  0.4424
 6617SOL    HW226240   2.997   5.710   2.780  0.4022  0.1108  0.8164
 6617SOL    HW326241   2.875   5.767   2.848  0.2947 -0.5101  1.1543
 6617SOL    MW426242   2.911   5.709   2.794  0.3642  0.0573  0.5857
 6618SOL     OW26243   4.649   6.378   4.797  0.3779 -0.3792 -0.3975
 6618SOL    HW226244   4.608   6.437   4.734 -0.1471 -1.0398 -0.6855
 6618SOL    HW326245   4.577   6.346   4.851 -0.1752 -4.0954 -2.9240
 6618SOL    MW426246   4.634   6.381   4.796  0.2357 -0.9566 -0.7689
 6619SOL     OW26247   5.424   4.064   5.520 -0.3732  0.2174 -0.0448
 6619SOL    HW226248   5.380   4.060   5.435  1.3998  1.1079 -1.0608
 6619SOL    HW326249   5.387   4.141   5.563  0.9699  1.6578 -1.3792
 6619SOL    MW426250   5.413   4.073   5.514  0.0380  0.5249 -0.3549
 6620SOL     OW26251   5.022   1.908   2.390  0.2892  0.6201 -0.0792
 6620SOL    HW226252   5.047   1.852   2.317 -0.1831 -0.2209  0.3924
 6620SOL    HW326253   5.105   1.945   2.421  0.2874  3.2904 -2.7814
 6620SOL    MW426254   5.037   1.905   2.385  0.2266  0.8614 -0.3735
 6621SOL     OW26255   2.921   5.533   3.777 -0.1557  0.1297  0.3450
 6621SOL    HW226256   3.011   5.512   3.752  0.5065  0.6217  2.1347
 6621SOL    HW326257   2.871   5.524   3.696  1.4483 -0.4019 -0.6454
 6621SOL    MW426258   2.926   5.529   3.763  0.1433  0.1244  0.4505
 6622SOL     OW26259   2.948   5.229   2.335  0.0166  0.1116  0.0931
 6622SOL    HW226260   2.883   5.164   2.361 -0.8075  0.1811 -1.6172
 6622SOL    HW326261   2.924   5.308   2.382  0.7755 -0.6540  1.8698
 6622SOL    MW426262   2.937   5.231   2.344  0.0080  0.0198  0.1018
 6623SOL     OW26263   6.054   5.065   4.780  0.6434  0.4426  0.5155
 6623SOL    HW226264   6.109   5.138   4.751 -0.5387  0.9450 -0.5087
 6623SOL    HW326265   6.117   4.996   4.803  1.7191  1.0912 -0.3710
 6623SOL    MW426266   6.070   5.065   4.780  0.6294  0.5944  0.2634
 6624SOL     OW26267   4.975   4.012   5.035 -0.1789  0.0079  0.0294
 6624SOL    HW226268   4.942   3.933   5.078  2.8129 -1.7558 -0.6069
 6624SOL    HW326269   4.908   4.035   4.972 -1.0094 -2.2732 -0.0007
 6624SOL    MW426270   4.962   4.004   5.032  0.1062 -0.5258 -0.0585
 6625SOL     OW26271   0.513   4.221   2.119 -0.5567  0.2783  0.4309
 6625SOL    HW226272   0.570   4.145   2.132 -1.3452 -0.8193 -1.8888
 6625SOL    HW326273   0.550   4.265   2.042 -1.4906  0.8538  0.3065
 6625SOL    MW426274   0.526   4.217   2.110 -0.7839  0.2094  0.1084
 6626SOL     OW26275   1.588   4.037   4.382  0.0018 -0.0999  0.0594
 6626SOL    HW226276   1.662   3.993   4.343  1.4184  2.0158  0.2087
 6626SOL    HW326277   1.567   4.108   4.322 -0.5954  0.5486  0.9943
 6626SOL    MW426278   1.595   4.041   4.369  0.1099  0.2648  0.2025
 6627SOL     OW26279   5.234   4.891   1.404  0.0845 -0.0928 -0.1996
 6627SOL    HW226280   5.275   4.927   1.482 -0.4073 -0.0043  0.0184
 6627SOL    HW326281   5.307   4.878   1.342  0.7033 -1.5634  0.7865
 6627SOL    MW426282   5.249   4.894   1.406  0.1012 -0.2752 -0.0407
 6628SOL     OW26283   1.968   5.783   1.755  0.0870 -0.5138 -0.0820
 6628SOL    HW226284   2.055   5.774   1.793 -0.5160 -2.1294  1.0204
 6628SOL    HW326285   1.968   5.724   1.680  0.3204  0.4314 -0.8437
 6628SOL    MW426286   1.980   5.774   1.750  0.0382 -0.6023 -0.0371
 6629SOL     OW26287   1.266   4.067   5.886 -0.0842  0.0007  0.2316
 6629SOL    HW226288   1.330   4.041   5.819  1.2824  0.1445  1.4241
 6629SOL    HW326289   1.186   4.086   5.837  0.7868 -0.1760 -1.3228
 6629SOL    MW426290   1.264   4.066   5.871  0.2110 -0.0037  0.1839
 6630SOL     OW26291   1.983   1.547   3.501 -0.2217 -0.2035  0.2303
 6630SOL    HW226292   1.937   1.589   3.429  0.3879  0.6161  0.3001
 6630SOL    HW326293   1.925   1.477   3.530  0.2435 -1.6917 -2.1650
 6630SOL    MW426294   1.970   1.543   3.495 -0.0799 -0.2917 -0.0765
 6631SOL     OW26295   5.664   0.014   0.726  0.1102 -0.4018 -0.3482
 6631SOL    HW226296   5.604   0.068   0.777  0.7876  1.4074 -1.3591
 6631SOL    HW326297   5.750   0.053   0.740  0.8729 -2.0870 -0.0437
 6631SOL    MW426298   5.668   0.026   0.735  0.3002 -0.3854 -0.4414
 6632SOL     OW26299   2.342   3.718   3.178  0.2845 -0.0872  0.1098
 6632SOL    HW226300   2.312   3.808   3.164 -0.4084 -0.1234  1.2548
 6632SOL    HW326301   2.285   3.684   3.247 -0.1554 -1.7641 -1.0242
 6632SOL    MW426302   2.331   3.726   3.185  0.1351 -0.3132  0.1113
 6633SOL     OW26303   2.983   2.706   2.146  0.1793 -0.1302 -0.5474
 6633SOL    HW226304   2.951   2.683   2.233 -0.1505  1.6230 -0.1507
 6633SOL    HW326305   3.079   2.707   2.154  0.1814 -0.8567 -0.4634
 6633SOL    MW426306   2.992   2.703   2.158  0.1360  0.0053 -0.4840
 6634SOL     OW26307   1.947   0.770   0.130  0.0239 -0.2984 -0.0237
 6634SOL    HW226308   1.913   0.746   0.044 -0.2279  1.4083 -0.4238
 6634SOL    HW326309   2.038   0.796   0.115  0.2689 -0.8864  0.3864
 6634SOL    MW426310   1.955   0.770   0.117  0.0230 -0.1508 -0.0224
 6635SOL     OW26311   5.773   0.868   5.352  0.3572  0.2405 -0.7494
 6635SOL    HW226312   5.838   0.922   5.307 -1.1575  3.2591  0.4114
 6635SOL    HW326313   5.810   0.854   5.439  1.3353 -1.8869 -1.4346
 6635SOL    MW426314   5.786   0.873   5.357  0.2864  0.3581 -0.6867
 6636SOL     OW26315   0.113   2.917   1.622  0.1938  0.0257  0.2365
 6636SOL    HW226316   0.090   2.874   1.541  0.5536  1.1013 -0.4605
 6636SOL    HW326317   0.170   2.855   1.668  1.1491 -0.0429 -0.9938
 6636SOL    MW426318   0.118   2.903   1.618  0.3673  0.1585 -0.0178
 6637SOL     OW26319   4.126   6.168   3.330 -0.8634  0.5750 -0.2090
 6637SOL    HW226320   4.157   6.219   3.404  0.1509 -0.3567  0.0336
 6637SOL    HW326321   4.053   6.117   3.365 -1.0793  0.9234 -0.1398
 6637SOL    MW426322   4.120   6.168   3.344 -0.7580  0.4980 -0.1678
 6638SOL     OW26323   1.841   0.998   0.007  0.5743  0.3732  0.3700
 6638SOL    HW226324   1.861   0.925   0.065 -0.1721 -0.6302 -0.6000
 6638SOL    HW326325   1.756   0.976  -0.032  0.2799  1.8016  0.1242
 6638SOL    MW426326   1.833   0.986   0.009  0.4370  0.4293  0.2095
 6639SOL     OW26327   4.061   4.928   2.848 -0.0730 -0.6340  0.0039
 6639SOL    HW226328   4.120   4.898   2.917 -0.2258  0.7880  0.7865
 6639SOL    HW326329   4.034   4.848   2.803  0.4527 -1.5401  1.2455
 6639SOL    MW426330   4.065   4.914   2.851 -0.0238 -0.5659  0.2709
 6640SOL     OW26331   2.203   0.720   5.765 -0.9114 -0.1518  0.8227
 6640SOL    HW226332   2.172   0.630   5.767 -2.3523  0.2166 -1.4258
 6640SOL    HW326333   2.124   0.773   5.770 -0.1969  0.9545  0.6490
 6640SOL    MW426334   2.189   0.715   5.766 -1.0072  0.0428  0.5031
 6641SOL     OW26335   4.813   6.248   2.362 -1.0034 -0.3841  0.0162
 6641SOL    HW226336   4.751   6.195   2.312 -2.2992  1.1256 -0.0353
 6641SOL    HW326337   4.807   6.213   2.451 -0.3679 -1.5921 -0.3893
 6641SOL    MW426338   4.804   6.236   2.368 -1.0905 -0.3443 -0.0441
 6642SOL     OW26339   5.990   3.269   5.442 -0.3384 -0.5968  0.3888
 6642SOL    HW226340   5.980   3.316   5.525 -0.3772  0.4818 -0.1972
 6642SOL    HW326341   6.076   3.228   5.448  0.2125  0.5351  0.4705
 6642SOL    MW426342   6.000   3.270   5.454 -0.2708 -0.3052  0.3223
 6643SOL     OW26343   2.151   5.659   2.951 -0.5748 -0.6330  0.1869
 6643SOL    HW226344   2.093   5.639   2.878  0.6814  1.3055 -1.4481
 6643SOL    HW326345   2.228   5.603   2.937 -0.1216  0.0949 -0.2865
 6643SOL    MW426346   2.154   5.649   2.940 -0.3493 -0.2812 -0.0913
 6644SOL     OW26347   1.842   4.446   1.316 -0.6147  0.1811 -0.6077
 6644SOL    HW226348   1.850   4.355   1.344 -0.3639  0.7581  1.3042
 6644SOL    HW326349   1.886   4.496   1.384 -2.1443  1.8693 -0.7863
 6644SOL    MW426350   1.849   4.441   1.329 -0.7834  0.4800 -0.3790
 6645SOL     OW26351   0.984   0.773   3.623 -0.3464 -0.0225  0.3511
 6645SOL    HW226352   0.953   0.843   3.680 -0.3408  0.6658 -0.4766
 6645SOL    HW326353   0.914   0.708   3.625 -0.1044 -0.2773  1.5716
 6645SOL    MW426354   0.971   0.774   3.631 -0.3137  0.0347  0.4029
 6646SOL     OW26355   5.966   1.244   0.767  0.1306 -0.0023  0.4831
 6646SOL    HW226356   6.043   1.293   0.740  0.9422 -0.7791  1.3390
 6646SOL    HW326357   5.933   1.292   0.844 -0.3252  0.3896  0.0562
 6646SOL    MW426358   5.972   1.257   0.773  0.1776 -0.0531  0.5397
 6647SOL     OW26359   4.425   3.593   3.672  0.0546  0.3215 -0.4042
 6647SOL    HW226360   4.423   3.611   3.578  0.4261 -0.4119 -0.5622
 6647SOL    HW326361   4.517   3.602   3.696 -0.2005  1.6440  0.1287
 6647SOL    MW426362   4.437   3.596   3.663  0.0700  0.3992 -0.3547
 6648SOL     OW26363   3.460   1.021   0.107  0.5210  0.5448 -0.4919
 6648SOL    HW226364   3.442   1.102   0.155 -0.0145  0.4496 -0.5243
 6648SOL    HW326365   3.394   1.019   0.038  0.4363  0.0142 -0.4037
 6648SOL    MW426366   3.449   1.031   0.104  0.4391  0.4622 -0.4845
 6649SOL     OW26367   5.552   3.848   0.002 -0.2945  0.2110 -0.1019
 6649SOL    HW226368   5.473   3.809   0.038  0.9320 -2.7603 -0.2981
 6649SOL    HW326369   5.624   3.802   0.046  1.2788  0.9619 -1.7387
 6649SOL    MW426370   5.551   3.837   0.012  0.0749 -0.0820 -0.3438
 6650SOL     OW26371   5.133   4.475   4.462 -0.6373  0.2447 -0.2067
 6650SOL    HW226372   5.090   4.474   4.548  0.1827 -0.7991  0.2164
 6650SOL    HW326373   5.061   4.470   4.399 -1.2196  0.4171  0.4342
 6650SOL    MW426374   5.118   4.474   4.465 -0.6059  0.1298 -0.0663
 6651SOL     OW26375   5.998   4.335   1.100  0.2875  0.0072  0.3871
 6651SOL    HW226376   5.962   4.312   1.015 -0.1079 -0.2911  0.6341
 6651SOL    HW326377   6.092   4.321   1.090  0.3650  0.9065 -0.2931
 6651SOL    MW426378   6.006   4.331   1.088  0.2455  0.0865  0.3300
 6652SOL     OW26379   3.038   4.790   5.601  0.0175  0.0747  0.0408
 6652SOL    HW226380   2.944   4.803   5.590  0.1401  1.0093  0.0120
 6652SOL    HW326381   3.063   4.852   5.670  1.3089  2.9246 -2.7762
 6652SOL    MW426382   3.029   4.800   5.609  0.2040  0.5740 -0.3346
 6653SOL     OW26383   3.684   2.200   3.539 -0.1021 -0.4180  0.3154
 6653SOL    HW226384   3.743   2.130   3.513  1.2198  1.3704 -1.8032
 6653SOL    HW326385   3.741   2.268   3.575 -1.1519  0.3319  0.6074
 6653SOL    MW426386   3.699   2.200   3.540 -0.0662 -0.0831  0.0744
 6654SOL     OW26387   2.644   5.229   5.847 -0.0844  0.4559  0.0303
 6654SOL    HW226388   2.621   5.137   5.834  0.1696  0.5903 -1.5269
 6654SOL    HW326389   2.561   5.272   5.870 -0.4072  0.0295 -0.3372
 6654SOL    MW426390   2.630   5.223   5.848 -0.0935  0.4174 -0.2236
 6655SOL     OW26391   2.220   4.358   1.094 -0.2962  0.5093  0.0883
 6655SOL    HW226392   2.125   4.366   1.096 -0.4286 -0.3568 -1.3678
 6655SOL    HW326393   2.243   4.326   1.182 -1.5600 -1.0709 -0.1105
 6655SOL    MW426394   2.210   4.354   1.106 -0.4804  0.1866 -0.1300
 6656SOL     OW26395   1.873   4.687   4.139  0.2709 -0.6201  0.1123
 6656SOL    HW226396   1.790   4.734   4.150  0.2135 -0.6117 -0.3243
 6656SOL    HW326397   1.920   4.737   4.072  0.6760 -0.5625  0.4398
 6656SOL    MW426398   1.868   4.700   4.131  0.3168 -0.6114  0.0979
 6657SOL     OW26399   6.391   5.665   4.140  0.3271  0.4424  0.9922
 6657SOL    HW226400   6.359   5.722   4.071 -0.0979 -0.1648  0.6822
 6657SOL    HW326401   6.485   5.660   4.126  0.2566  0.4165  0.5360
 6657SOL    MW426402   6.399   5.672   4.129  0.2617  0.3588  0.8911
 6658SOL     OW26403   3.497   3.906   5.523  0.0269  0.2816  0.4488
 6658SOL    HW226404   3.519   3.857   5.603 -0.0290 -1.6442 -0.6564
 6658SOL    HW326405   3.411   3.872   5.497 -0.1259  1.1588 -0.2340
 6658SOL    MW426406   3.489   3.895   5.530 -0.0006  0.1432  0.2129
 6659SOL     OW26407   5.683   0.241   0.247  0.0221 -0.1808 -0.2383
 6659SOL    HW226408   5.633   0.213   0.324  1.8544 -0.7025  0.8295
 6659SOL    HW326409   5.758   0.289   0.284  0.1986  0.7787 -1.7809
 6659SOL    MW426410   5.687   0.244   0.262  0.2872 -0.1230 -0.3009
 6660SOL     OW26411   3.399   2.062   0.886 -0.0226 -0.0959  0.2255
 6660SOL    HW226412   3.387   1.967   0.877  2.0634 -0.3325 -0.4488
 6660SOL    HW326413   3.351   2.099   0.811  2.0402 -0.9044 -1.6117
 6660SOL    MW426414   3.391   2.054   0.875  0.5248 -0.2338 -0.1058
 6661SOL     OW26415   0.313   6.324   5.070  0.2707  0.3691 -0.3653
 6661SOL    HW226416   0.231   6.276   5.080  0.9006 -0.9148 -1.0892
 6661SOL    HW326417   0.292   6.396   5.010 -0.5556  0.6711  0.2779
 6661SOL    MW426418   0.299   6.327   5.063  0.2448  0.2396 -0.3759
 6662SOL     OW26419   1.437   1.032   1.650 -0.2720  0.2466  0.0406
 6662SOL    HW226420   1.386   1.000   1.725  0.0288 -0.7703 -0.1761
 6662SOL    HW326421   1.387   1.003   1.574  0.5001 -0.5510 -0.1705
 6662SOL    MW426422   1.424   1.024   1.650 -0.1304  0.0072 -0.0158
 6663SOL     OW26423   3.419   0.747   3.269  0.1516  0.2479  0.2275
 6663SOL    HW226424   3.422   0.671   3.327 -0.0556 -0.1617 -0.2884
 6663SOL    HW326425   3.511   0.774   3.262  0.4624 -0.9733 -0.8867
 6663SOL    MW426426   3.432   0.740   3.276  0.1653  0.0328  0.0124
 6664SOL     OW26427   0.299   1.000   3.886 -0.1357 -0.6485  0.1603
 6664SOL    HW226428   0.389   1.022   3.912  0.7721 -2.2351 -1.4335
 6664SOL    HW326429   0.277   1.066   3.820  0.5266 -1.2300 -0.6674
 6664SOL    MW426430   0.308   1.012   3.881  0.0715 -0.9346 -0.1592
 6665SOL     OW26431   0.780   5.419   0.729  0.1058  0.2431  0.4521
 6665SOL    HW226432   0.811   5.493   0.782 -1.7005 -0.2819  2.3200
 6665SOL    HW326433   0.746   5.356   0.792 -1.7368 -0.6059 -1.2842
 6665SOL    MW426434   0.780   5.421   0.744 -0.3756  0.0618  0.4695
 6666SOL     OW26435   1.904   5.935   2.012  0.4736 -0.4700 -0.4587
 6666SOL    HW226436   1.854   5.858   2.041  0.0015  0.0052 -0.0042
 6666SOL    HW326437   1.927   5.914   1.921  0.3432 -1.1475 -0.3453
 6666SOL    MW426438   1.901   5.922   2.004  0.3941 -0.4967 -0.3838
 6667SOL     OW26439   5.148   0.761   0.359 -0.1138  0.4335 -0.4011
 6667SOL    HW226440   5.086   0.723   0.422  0.3033  1.1277  0.4554
 6667SOL    HW326441   5.199   0.686   0.328  1.4217  0.2913  2.0733
 6667SOL    MW426442   5.147   0.746   0.363  0.1438  0.5064  0.0384
 6668SOL     OW26443   4.838   1.132   1.777 -0.4908 -0.6835 -0.1387
 6668SOL    HW226444   4.859   1.194   1.847 -0.8351  1.2421 -1.6924
 6668SOL    HW326445   4.923   1.098   1.749 -0.2327 -0.2293  0.0858
 6668SOL    MW426446   4.852   1.135   1.783 -0.5022 -0.3695 -0.3141
 6669SOL     OW26447   6.267   4.113   2.749  0.2905  0.3055  0.8766
 6669SOL    HW226448   6.173   4.105   2.728  0.1539  0.7060  1.3191
 6669SOL    HW326449   6.311   4.092   2.667 -0.2179  1.3998  0.3024
 6669SOL    MW426450   6.260   4.109   2.735  0.2054  0.5027  0.8592
 6670SOL     OW26451   1.432   0.220   2.353 -0.0749 -0.0325  0.2524
 6670SOL    HW226452   1.378   0.288   2.394 -0.9297 -0.9260  0.6656
 6670SOL    HW326453   1.443   0.249   2.263 -2.1546 -0.2834 -0.1475
 6670SOL    MW426454   1.426   0.233   2.347 -0.4621 -0.1835  0.2541
 6671SOL     OW26455   1.240   5.856   0.917 -0.0341  0.0832 -0.0397
 6671SOL    HW226456   1.181   5.864   0.992  0.4618 -0.5296  0.4349
 6671SOL    HW326457   1.319   5.903   0.944  0.1431 -0.1311 -0.1815
 6671SOL    MW426458   1.243   5.863   0.931  0.0547 -0.0260  0.0042
 6672SOL     OW26459   4.348   5.126   2.172 -0.0855  0.0023  0.5885
 6672SOL    HW226460   4.432   5.080   2.177  0.4667  1.0852  2.1158
 6672SOL    HW326461   4.347   5.182   2.250 -0.9753  2.0872 -0.8227
 6672SOL    MW426462   4.359   5.127   2.183 -0.1301  0.4203  0.6038
 6673SOL     OW26463   5.145   1.373   1.661  0.4784 -0.6258  0.4456
 6673SOL    HW226464   5.070   1.399   1.713 -0.1502  0.6922 -1.0136
 6673SOL    HW326465   5.108   1.323   1.588  0.6957  1.5921 -1.3063
 6673SOL    MW426466   5.131   1.370   1.658  0.4241 -0.1593  0.0220
 6674SOL     OW26467   3.433   1.077   2.016 -0.4104 -0.1418  0.1967
 6674SOL    HW226468   3.344   1.092   1.984 -0.2612  1.1014  0.3149
 6674SOL    HW326469   3.479   1.159   1.998  0.2599 -0.1662  1.6785
 6674SOL    MW426470   3.428   1.090   2.009 -0.3023  0.0190  0.4078
 6675SOL     OW26471   4.225   2.002   5.103 -0.3419 -0.3194  0.1618
 6675SOL    HW226472   4.244   1.920   5.147 -0.0835 -0.6175 -0.4973
 6675SOL    HW326473   4.172   1.977   5.027  0.3294  0.0452 -0.4347
 6675SOL    MW426474   4.220   1.988   5.098 -0.2192 -0.3106 -0.0038
 6676SOL     OW26475   2.397   3.129   4.753  0.4865  0.3847 -0.1893
 6676SOL    HW226476   2.305   3.156   4.751  0.1507 -0.6730  0.2918
 6676SOL    HW326477   2.440   3.193   4.809 -0.2566  0.0274  0.8094
 6676SOL    MW426478   2.391   3.141   4.760  0.3442  0.1980  0.0059
 6677SOL     OW26479   0.591   0.525   5.850 -0.0407 -0.0171 -0.0134
 6677SOL    HW226480   0.537   0.492   5.778 -1.4048 -0.5403  1.2228
 6677SOL    HW326481   0.630   0.447   5.889 -0.4819  0.1195  0.7203
 6677SOL    MW426482   0.589   0.511   5.845 -0.2788 -0.0681  0.2465
 6678SOL     OW26483   4.403   6.237   0.122 -0.3888  0.2384 -0.0403
 6678SOL    HW226484   4.332   6.299   0.110  0.7140  1.4960 -0.2854
 6678SOL    HW326485   4.407   6.189   0.040 -1.3476 -0.2881  0.2047
 6678SOL    MW426486   4.394   6.239   0.110 -0.3698  0.3348 -0.0403
 6679SOL     OW26487   2.870   2.614   2.369 -0.0726  0.3770 -0.5072
 6679SOL    HW226488   2.932   2.611   2.442 -0.3749 -2.1329 -0.2629
 6679SOL    HW326489   2.832   2.701   2.374  0.8200  0.7153  1.5857
 6679SOL    MW426490   2.873   2.625   2.380  0.0053  0.0904 -0.1988
 6680SOL     OW26491   2.195   5.496   4.105  0.1642  0.9443 -0.4318
 6680SOL    HW226492   2.249   5.519   4.181 -1.1418  1.5838  0.3363
 6680SOL    HW326493   2.158   5.411   4.126 -1.9783  2.0737  0.7331
 6680SOL    MW426494   2.198   5.488   4.118 -0.2908  1.1777 -0.1768
 6681SOL     OW26495   3.227   6.167   3.365 -0.5843 -0.2759  0.0218
 6681SOL    HW226496   3.222   6.092   3.305  0.4307 -0.6197  0.3436
 6681SOL    HW326497   3.156   6.153   3.427 -2.0716  0.4098 -1.4217
 6681SOL    MW426498   3.217   6.155   3.365 -0.6466 -0.2308 -0.1262
 6682SOL     OW26499   2.560   1.817   0.688 -0.5581  0.5741 -0.2832
 6682SOL    HW226500   2.514   1.837   0.607 -1.3513 -0.8113 -0.2062
 6682SOL    HW326501   2.565   1.901   0.734 -1.9910  0.9820 -0.8218
 6682SOL    MW426502   2.554   1.831   0.683 -0.8518  0.4451 -0.3441
 6683SOL     OW26503   0.132   1.557   5.204  0.2807  0.0544  0.3641
 6683SOL    HW226504   0.158   1.468   5.228 -0.9634 -0.7589 -1.1035
 6683SOL    HW326505   0.213   1.608   5.210  0.8151 -0.9272  2.2395
 6683SOL    MW426506   0.146   1.552   5.208  0.1871 -0.1824  0.4179
 6684SOL     OW26507   2.212   5.989   6.246 -0.0787  0.0417  0.5691
 6684SOL    HW226508   2.190   6.035   6.165 -0.9277  1.0377  1.3202
 6684SOL    HW326509   2.277   6.046   6.289  1.9538 -1.4899 -0.3158
 6684SOL    MW426510   2.218   6.003   6.241  0.0774 -0.0289  0.5514
 6685SOL     OW26511   1.918   5.322   0.151  0.2345 -0.3806 -0.0881
 6685SOL    HW226512   2.001   5.329   0.199 -0.0345 -1.3661  0.5557
 6685SOL    HW326513   1.930   5.245   0.096 -0.4363 -0.8310  0.3901
 6685SOL    MW426514   1.931   5.313   0.150  0.1105 -0.5701  0.0599
 6686SOL     OW26515   2.202   0.076   1.499  0.0691 -0.5623 -0.3723
 6686SOL    HW226516   2.176   0.010   1.435  1.8161 -1.2462 -0.4505
 6686SOL    HW326517   2.296   0.063   1.509  0.0632  0.3861  1.3660
 6686SOL    MW426518   2.211   0.065   1.492  0.2988 -0.5274 -0.1533
 6687SOL     OW26519   1.792   1.326   5.683  0.5153 -0.2903 -0.1739
 6687SOL    HW226520   1.805   1.298   5.592  0.4008 -0.1202 -0.2433
 6687SOL    HW326521   1.751   1.251   5.726  0.3813 -0.2977 -0.3137
 6687SOL    MW426522   1.788   1.312   5.677  0.4826 -0.2689 -0.2015
 6688SOL     OW26523   6.428   0.447   5.888 -0.3154 -0.0168 -0.3585
 6688SOL    HW226524   6.487   0.513   5.851  0.8636 -0.4195  0.7127
 6688SOL    HW326525   6.427   0.466   5.982  1.2563 -2.3538  0.2256
 6688SOL    MW426526   6.436   0.458   5.895  0.0475 -0.3783 -0.1401
 6689SOL     OW26527   6.068   0.276   3.914 -0.6185 -0.3149 -0.4609
 6689SOL    HW226528   6.140   0.214   3.901 -0.1521 -0.1316  1.1195
 6689SOL    HW326529   6.091   0.324   3.993 -2.2823  0.0382 -0.1539
 6689SOL    MW426530   6.080   0.274   3.922 -0.7765 -0.2441 -0.2119
 6690SOL     OW26531   6.095   5.539   0.194 -0.2528 -0.1339 -0.1322
 6690SOL    HW226532   6.184   5.514   0.168 -0.2255  0.6246 -0.8137
 6690SOL    HW326533   6.102   5.633   0.212 -0.8779 -0.1109 -0.0049
 6690SOL    MW426534   6.108   5.548   0.193 -0.3317 -0.0308 -0.2053
 6691SOL     OW26535   2.228   3.571   4.950 -0.1802 -0.0778  0.4269
 6691SOL    HW226536   2.168   3.550   5.022  1.4264  3.0814  3.0055
 6691SOL    HW326537   2.310   3.528   4.974 -0.6326 -2.3917 -1.8181
 6691SOL    MW426538   2.231   3.563   4.963 -0.0279  0.0337  0.4709
 6692SOL     OW26539   5.335   3.509   4.185 -0.2466 -0.1128 -0.3680
 6692SOL    HW226540   5.424   3.534   4.210 -0.4183 -0.8451  1.0683
 6692SOL    HW326541   5.346   3.431   4.132 -0.1083 -2.4598  2.8087
 6692SOL    MW426542   5.348   3.502   4.181 -0.2510 -0.5191  0.2406
 6693SOL     OW26543   1.982   6.300   3.176 -0.1029  0.3306 -0.3634
 6693SOL    HW226544   2.042   6.268   3.109  1.2645  0.6873  0.6471
 6693SOL    HW326545   2.000   6.246   3.252 -0.6576  0.8321  0.1393
 6693SOL    MW426546   1.992   6.289   3.177  0.0043  0.4438 -0.1637
 6694SOL     OW26547   1.869   4.043   2.676 -1.2515  0.0308  0.4935
 6694SOL    HW226548   1.855   4.059   2.769 -1.4917  0.8620  0.3213
 6694SOL    HW326549   1.889   4.130   2.639  3.2433 -0.7720  0.5061
 6694SOL    MW426550   1.870   4.057   2.683 -0.6902  0.0346  0.4725
 6695SOL     OW26551   3.259   0.549   6.124  0.4516  0.4534 -0.2448
 6695SOL    HW226552   3.332   0.488   6.133 -0.9398 -1.1520  0.7664
 6695SOL    HW326553   3.285   0.625   6.175  0.2772 -1.2673  2.6359
 6695SOL    MW426554   3.272   0.551   6.132  0.2450  0.0146  0.2687
 6696SOL     OW26555   1.850   3.206   2.889 -0.2058 -0.0124  0.4542
 6696SOL    HW226556   1.815   3.129   2.845 -1.0205  1.8618 -2.4977
 6696SOL    HW326557   1.868   3.177   2.978 -3.3756 -2.7762  0.3750
 6696SOL    MW426558   1.848   3.192   2.895 -0.7315 -0.1297  0.0543
 6697SOL     OW26559   3.099   4.259   5.272 -0.0052 -0.2231  0.9968
 6697SOL    HW226560   3.178   4.294   5.231  0.0424 -1.1136  0.3060
 6697SOL    HW326561   3.027   4.295   5.220  0.0708 -1.7564 -0.2583
 6697SOL    MW426562   3.100   4.268   5.260  0.0111 -0.5429  0.7401
 6698SOL     OW26563   2.567   5.428   5.418  0.1212  0.4370  0.4219
 6698SOL    HW226564   2.509   5.464   5.485 -0.0393  0.3006  0.3575
 6698SOL    HW326565   2.651   5.416   5.463  0.3150  1.3476  0.3113
 6698SOL    MW426566   2.571   5.431   5.433  0.1256  0.5391  0.3988
 6699SOL     OW26567   0.739   2.946   5.126  0.0573  0.4157  0.1382
 6699SOL    HW226568   0.746   2.855   5.097 -1.0555  0.3018  0.2138
 6699SOL    HW326569   0.828   2.980   5.115  1.1867 -1.4055  2.6534
 6699SOL    MW426570   0.752   2.938   5.121  0.0595  0.1604  0.4801
 6700SOL     OW26571   3.273   2.354   0.557  0.4090  0.3413  0.1403
 6700SOL    HW226572   3.221   2.273   0.555 -0.8144  1.0157  1.9513
 6700SOL    HW326573   3.358   2.327   0.593 -0.1840 -0.0689  1.2706
 6700SOL    MW426574   3.278   2.339   0.562  0.1693  0.3761  0.5284
 6701SOL     OW26575   0.749   2.414   2.494  0.0692 -0.3122  0.0334
 6701SOL    HW226576   0.805   2.452   2.562  0.4369 -2.1673  0.8237
 6701SOL    HW326577   0.702   2.344   2.538  0.4410 -1.6825 -1.6574
 6701SOL    MW426578   0.750   2.410   2.509  0.1667 -0.7378 -0.0854
 6702SOL     OW26579   2.832   1.468   3.204  0.4051  0.0190 -0.3015
 6702SOL    HW226580   2.923   1.497   3.206  0.1303  0.8820  0.6896
 6702SOL    HW326581   2.833   1.382   3.248  0.6246  0.4222  0.5073
 6702SOL    MW426582   2.844   1.460   3.210  0.3978  0.1861 -0.0641
 6703SOL     OW26583   5.686   3.494   3.621 -0.0031  0.3584  0.2067
 6703SOL    HW226584   5.602   3.522   3.586  0.5377 -1.1598 -2.5839
 6703SOL    HW326585   5.746   3.565   3.599  0.0244  0.0977 -0.5739
 6703SOL    MW426586   5.683   3.507   3.613  0.0719  0.1237 -0.2645
 6704SOL     OW26587   1.631   1.429   0.021  0.4811 -0.0719  0.0204
 6704SOL    HW226588   1.615   1.499  -0.042  0.0826 -0.9670 -0.9020
 6704SOL    HW326589   1.670   1.359  -0.031  1.3452 -0.3541  1.0213
 6704SOL    MW426590   1.634   1.429   0.006  0.5425 -0.2272  0.0307
 6705SOL     OW26591   4.829   2.956   1.750 -0.1698  0.3013  0.5632
 6705SOL    HW226592   4.916   2.986   1.722  0.0050  0.5609  1.3651
 6705SOL    HW326593   4.843   2.867   1.781 -0.1786  0.3762  0.7787
 6705SOL    MW426594   4.842   2.949   1.750 -0.1479  0.3454  0.6974
 6706SOL     OW26595   6.346   6.112   0.823 -0.6011 -0.9263 -0.8789
 6706SOL    HW226596   6.321   6.025   0.853  0.3227 -0.8964  0.0426
 6706SOL    HW326597   6.276   6.170   0.855 -0.3071 -1.0865  0.0806
 6706SOL    MW426598   6.334   6.108   0.831 -0.4404 -0.9435 -0.6308
 6707SOL     OW26599   3.283   0.733   4.485  0.5642  0.6695 -0.3953
 6707SOL    HW226600   3.341   0.806   4.506 -1.1714  1.6613  1.3447
 6707SOL    HW326601   3.195   0.769   4.498 -0.3576 -1.6078  0.0328
 6707SOL    MW426602   3.279   0.747   4.490  0.2136  0.4999 -0.1093
 6708SOL     OW26603   4.220   3.804   4.578  0.1692 -0.5992 -0.9892
 6708SOL    HW226604   4.227   3.838   4.667  2.1895  0.9240 -1.6540
 6708SOL    HW326605   4.172   3.722   4.587 -0.7230  0.1171  1.3272
 6708SOL    MW426606   4.215   3.798   4.591  0.3180 -0.3037 -0.7713
 6709SOL     OW26607   4.423   1.149   0.673 -0.5728 -0.0006 -0.1266
 6709SOL    HW226608   4.381   1.229   0.707  0.0053  0.4047 -0.3462
 6709SOL    HW326609   4.351   1.093   0.647 -1.0111  0.1404  0.7385
 6709SOL    MW426610   4.408   1.152   0.674 -0.5543  0.0715 -0.0414
 6710SOL     OW26611   2.900   2.563   6.083  0.2986 -0.0949 -0.0906
 6710SOL    HW226612   2.886   2.475   6.048  1.5370 -0.6164  0.6519
 6710SOL    HW326613   2.844   2.567   6.160  0.3267 -0.2838 -0.0596
 6710SOL    MW426614   2.891   2.552   6.089  0.4657 -0.1886  0.0115
 6711SOL     OW26615   5.520   2.557   3.679  0.3649  0.3309  0.0769
 6711SOL    HW226616   5.537   2.608   3.759 -0.0333  0.5864 -0.0003
 6711SOL    HW326617   5.438   2.592   3.645 -0.4548 -1.0537  0.5637
 6711SOL    MW426618   5.511   2.568   3.685  0.2042  0.1819  0.1309
 6712SOL     OW26619   3.814   3.450   5.174  0.0210  0.4226  0.1888
 6712SOL    HW226620   3.769   3.491   5.248  1.3777 -0.9179  1.8248
 6712SOL    HW326621   3.770   3.365   5.163  0.5504  0.1373  0.2137
 6712SOL    MW426622   3.802   3.444   5.182  0.2698  0.2081  0.4080
 6713SOL     OW26623   1.652   4.744   6.132  0.0564  0.1848 -0.1344
 6713SOL    HW226624   1.640   4.712   6.222 -1.5991 -1.1790 -0.7766
 6713SOL    HW326625   1.566   4.734   6.092  0.9322  0.0481 -2.0967
 6713SOL    MW426626   1.639   4.738   6.139 -0.0465 -0.0132 -0.4780
 6714SOL     OW26627   4.812   2.572   6.198 -0.1246 -0.4158 -0.0165
 6714SOL    HW226628   4.748   2.503   6.218 -1.0632  0.2406 -0.6746
 6714SOL    HW326629   4.766   2.630   6.137  0.7708  0.6153  0.2681
 6714SOL    MW426630   4.798   2.570   6.193 -0.1303 -0.1931 -0.0658
 6715SOL     OW26631   1.547   0.600   3.969 -0.0024 -0.6093  0.7011
 6715SOL    HW226632   1.534   0.578   3.877 -0.5239  0.4807  0.4984
 6715SOL    HW326633   1.607   0.534   4.002  1.8298  0.1651 -0.9485
 6715SOL    MW426634   1.553   0.589   3.962  0.1705 -0.3633  0.4567
 6716SOL     OW26635   0.385   4.786   6.028 -0.6504  1.2221  0.0826
 6716SOL    HW226636   0.385   4.814   6.119 -1.1115  0.9521  0.1680
 6716SOL    HW326637   0.297   4.750   6.013 -0.5885  1.2851 -0.4722
 6716SOL    MW426638   0.373   4.785   6.038 -0.7031  1.1948  0.0207
 6717SOL     OW26639   2.307   4.792   2.940  0.6544  0.1205  0.4726
 6717SOL    HW226640   2.300   4.767   3.032 -0.3139 -0.8379  0.1733
 6717SOL    HW326641   2.392   4.757   2.912 -0.8131 -3.5757 -0.0482
 6717SOL    MW426642   2.317   4.784   2.948  0.3330 -0.4936  0.3644
 6718SOL     OW26643   5.394   5.682   2.180  0.1172  0.0222  0.1372
 6718SOL    HW226644   5.461   5.751   2.182 -0.8394  0.9826 -0.0327
 6718SOL    HW326645   5.399   5.647   2.091 -0.5768  1.0941 -0.3398
 6718SOL    MW426646   5.403   5.686   2.169 -0.1006  0.2903  0.0519
 6719SOL     OW26647   1.329   4.761   2.513 -0.2364  0.5087 -0.0530
 6719SOL    HW226648   1.382   4.755   2.593 -0.6237  2.8133  0.4465
 6719SOL    HW326649   1.337   4.852   2.487 -0.0923 -0.2052 -2.7164
 6719SOL    MW426650   1.337   4.772   2.520 -0.2685  0.7186 -0.3385
 6720SOL     OW26651   4.467   4.571   4.328 -0.2583  0.5892  0.0131
 6720SOL    HW226652   4.411   4.612   4.393  0.1948 -1.7719  2.1020
 6720SOL    HW326653   4.498   4.642   4.272 -3.0167  2.3122  0.5475
 6720SOL    MW426654   4.464   4.586   4.329 -0.5624  0.5050  0.3592
 6721SOL     OW26655   2.343   6.398   4.936  0.1919 -0.1092  0.0081
 6721SOL    HW226656   2.428   6.355   4.927  1.8640  2.8220  0.6913
 6721SOL    HW326657   2.355   6.485   4.899 -1.2202  1.9062  3.7450
 6721SOL    MW426658   2.356   6.404   4.930  0.2262  0.5435  0.5913
 6722SOL     OW26659   3.593   5.401   0.019  0.1715  0.0830  0.1526
 6722SOL    HW226660   3.652   5.412   0.093  0.4416  0.9316 -0.1823
 6722SOL    HW326661   3.554   5.487   0.006 -0.0414 -0.1136 -0.5463
 6722SOL    MW426662   3.596   5.414   0.027  0.1790  0.1690  0.0162
 6723SOL     OW26663   3.852   2.992   2.474  0.3359 -0.0480  0.0741
 6723SOL    HW226664   3.820   3.043   2.549 -1.7844  1.2844 -1.6314
 6723SOL    HW326665   3.796   2.914   2.474  1.7335 -1.1090  1.0352
 6723SOL    MW426666   3.840   2.988   2.484  0.2406 -0.0122 -0.0241
 6724SOL     OW26667   4.525   2.652   1.788 -0.3321  0.2454 -0.4015
 6724SOL    HW226668   4.449   2.594   1.791 -0.6166  0.5567 -1.3423
 6724SOL    HW326669   4.579   2.625   1.863 -1.2246 -0.1663  0.1005
 6724SOL    MW426670   4.522   2.641   1.798 -0.4874  0.2321 -0.4594
 6725SOL     OW26671   0.142   2.319   1.400  0.2138 -0.3241 -0.2101
 6725SOL    HW226672   0.202   2.372   1.452  2.5103 -1.3689 -1.6583
 6725SOL    HW326673   0.118   2.246   1.458  1.6438 -0.7411 -0.1104
 6725SOL    MW426674   0.146   2.316   1.415  0.7055 -0.5170 -0.3880
 6726SOL     OW26675   1.265   3.691   0.093 -0.1667  0.2203 -0.2209
 6726SOL    HW226676   1.361   3.692   0.096 -0.1670  2.5213  1.9868
 6726SOL    HW326677   1.238   3.677   0.184 -1.9654 -0.1488 -0.7617
 6726SOL    MW426678   1.274   3.689   0.105 -0.4041  0.4752 -0.0010
 6727SOL     OW26679   2.440   1.479   3.122  0.5271  0.8319  0.3151
 6727SOL    HW226680   2.419   1.460   3.213  1.1580 -0.6077  0.1822
 6727SOL    HW326681   2.357   1.508   3.084 -0.5907 -1.7894  0.5480
 6727SOL    MW426682   2.426   1.480   3.129  0.4629  0.2961  0.3283
 6728SOL     OW26683   2.107   4.989   2.921  0.3951  0.1975  0.0898
 6728SOL    HW226684   2.042   4.986   2.991 -0.0386 -0.1018 -0.3240
 6728SOL    HW326685   2.167   4.917   2.940  1.0118  0.8915  0.8545
 6728SOL    MW426686   2.106   4.979   2.933  0.4193  0.2496  0.1361
 6729SOL     OW26687   1.356   6.305   4.451 -0.3757 -0.3378 -0.0108
 6729SOL    HW226688   1.299   6.382   4.449  0.2581  0.1254 -2.2414
 6729SOL    HW326689   1.299   6.233   4.422  0.3186  0.3227 -3.3916
 6729SOL    MW426690   1.341   6.306   4.447 -0.2005 -0.1895 -0.7512
 6730SOL     OW26691   0.891   2.386   3.187 -0.8510  0.5740 -0.2666
 6730SOL    HW226692   0.975   2.426   3.210  0.0612 -1.0910 -0.5163
 6730SOL    HW326693   0.854   2.358   3.271  0.3525 -1.4587 -0.3476
 6730SOL    MW426694   0.897   2.388   3.201 -0.5718  0.0861 -0.3103
 6731SOL     OW26695   3.365   3.832   1.049  0.4224  0.2877  0.0000
 6731SOL    HW226696   3.338   3.764   1.111  1.2162 -0.1673 -0.1406
 6731SOL    HW326697   3.322   3.807   0.967 -0.8757  1.0574  0.4107
 6731SOL    MW426698   3.355   3.819   1.046  0.3559  0.3292  0.0357
 6732SOL     OW26699   2.417   0.823   5.444 -0.4294 -0.4909  0.0734
 6732SOL    HW226700   2.359   0.753   5.473  1.1676 -1.3786  1.2881
 6732SOL    HW326701   2.494   0.778   5.410  0.3084  0.6468  0.1627
 6732SOL    MW426702   2.419   0.808   5.444 -0.1213 -0.4579  0.2454
 6733SOL     OW26703   5.126   2.927   1.928 -0.5703 -0.3866  0.1935
 6733SOL    HW226704   5.109   3.021   1.918 -0.0917 -0.3034  0.1469
 6733SOL    HW326705   5.127   2.913   2.023 -0.7623 -0.3695  0.1992
 6733SOL    MW426706   5.124   2.938   1.939 -0.5325 -0.3734  0.1881
 6734SOL     OW26707   3.920   2.466   4.715  0.4562 -0.1328  0.4617
 6734SOL    HW226708   3.944   2.451   4.624  1.8935  1.7568  0.4776
 6734SOL    HW326709   3.994   2.431   4.766 -0.4874 -1.4920  0.9575
 6734SOL    MW426710   3.933   2.459   4.710  0.5213 -0.0628  0.5292
 6735SOL     OW26711   3.558   1.582   3.683  0.1961  0.5063 -0.4636
 6735SOL    HW226712   3.578   1.671   3.711 -0.2489 -0.0095  1.6643
 6735SOL    HW326713   3.523   1.539   3.761  0.7128 -1.6406 -1.3297
 6735SOL    MW426714   3.556   1.588   3.697  0.2056  0.1550 -0.2971
 6736SOL     OW26715   3.266   5.927   2.144  0.2438 -0.4463  0.5259
 6736SOL    HW226716   3.207   5.852   2.136  1.7551 -1.7125  0.7233
 6736SOL    HW326717   3.331   5.914   2.074  0.8364  0.3890  0.8971
 6736SOL    MW426718   3.267   5.915   2.133  0.5213 -0.5031  0.6009
 6737SOL     OW26719   2.155   5.639   3.669 -0.0832  0.7196 -0.9059
 6737SOL    HW226720   2.200   5.602   3.745 -2.1979  1.7148  0.9268
 6737SOL    HW326721   2.192   5.727   3.660 -0.8927  1.1607 -0.0434
 6737SOL    MW426722   2.166   5.646   3.678 -0.4690  0.9091 -0.5503
 6738SOL     OW26723   0.950   4.369   0.950  0.3501 -0.1001  0.4439
 6738SOL    HW226724   0.964   4.276   0.937  0.0208 -0.1866  0.6892
 6738SOL    HW326725   0.904   4.398   0.871  0.1482 -0.2139  0.5201
 6738SOL    MW426726   0.946   4.361   0.938  0.2800 -0.1266  0.4863
 6739SOL     OW26727   0.874   0.872   0.741 -0.6620 -0.0252 -0.3129
 6739SOL    HW226728   0.919   0.793   0.712 -0.6307  0.3024 -1.1935
 6739SOL    HW326729   0.921   0.943   0.698 -1.8378  0.3474 -1.0286
 6739SOL    MW426730   0.886   0.871   0.731 -0.8130  0.0671 -0.5235
 6740SOL     OW26731   4.175   4.044   4.433  0.8649  0.5738 -0.1515
 6740SOL    HW226732   4.084   4.072   4.419  0.3451 -0.9407 -0.0670
 6740SOL    HW326733   4.166   3.962   4.481  2.2948  0.4027 -0.1561
 6740SOL    MW426734   4.162   4.037   4.438  0.9850  0.3514 -0.1410
 6741SOL     OW26735   3.565   4.352   2.642 -0.2085 -0.3990  0.2443
 6741SOL    HW226736   3.609   4.436   2.658  1.1616 -0.3746 -2.9198
 6741SOL    HW326737   3.494   4.373   2.582 -1.1573 -1.2794  1.0068
 6741SOL    MW426738   3.562   4.366   2.636 -0.1529 -0.5120 -0.0726
 6742SOL     OW26739   1.600   4.931   3.976  0.8379 -0.4347 -0.1771
 6742SOL    HW226740   1.546   4.852   3.984  1.5953 -0.9939 -0.4648
 6742SOL    HW326741   1.655   4.931   4.054  0.6878 -0.0648 -0.0686
 6742SOL    MW426742   1.600   4.921   3.987  0.9181 -0.4597 -0.2007
 6743SOL     OW26743   3.880   4.678   3.367 -0.0795  0.3711  0.9544
 6743SOL    HW226744   3.805   4.715   3.413 -0.9758  0.4311 -0.4780
 6743SOL    HW326745   3.898   4.596   3.412  0.1825  1.2357  2.4604
 6743SOL    MW426746   3.872   4.672   3.379 -0.1632  0.4931  0.9641
 6744SOL     OW26747   5.459   0.423   4.092  0.5716 -0.2353 -0.2357
 6744SOL    HW226748   5.492   0.347   4.044  1.0699  0.4413 -0.9815
 6744SOL    HW326749   5.391   0.387   4.148  1.0399 -1.2943 -0.3159
 6744SOL    MW426750   5.454   0.408   4.093  0.6992 -0.2858 -0.3447
 6745SOL     OW26751   2.484   1.067   1.324  0.4690  0.0686  0.4550
 6745SOL    HW226752   2.419   1.005   1.291  0.5875  0.2915 -0.2073
 6745SOL    HW326753   2.511   1.118   1.247  0.6156  0.7208  0.9263
 6745SOL    MW426754   2.479   1.066   1.309  0.5040  0.1841  0.4298
 6746SOL     OW26755   4.176   0.729   1.654  0.0997  0.0435  0.0138
 6746SOL    HW226756   4.155   0.754   1.564  0.1572  0.5996  0.1518
 6746SOL    HW326757   4.228   0.802   1.687 -0.4932  0.1539  0.7221
 6746SOL    MW426758   4.180   0.742   1.646  0.0290  0.1314  0.1254
 6747SOL     OW26759   0.403   3.230   5.976 -0.1673  0.4432  0.0039
 6747SOL    HW226760   0.340   3.217   6.047 -0.1796 -1.6341 -0.3277
 6747SOL    HW326761   0.358   3.288   5.914 -1.0609  0.3835  0.5825
 6747SOL    MW426762   0.389   3.236   5.977 -0.2868  0.1612  0.0365
 6748SOL     OW26763   1.405   2.247   5.752 -0.6135  0.2488  0.1212
 6748SOL    HW226764   1.357   2.269   5.832 -0.4059  1.3774 -0.0491
 6748SOL    HW326765   1.495   2.234   5.782 -0.9152 -1.5505  0.3896
 6748SOL    MW426766   1.411   2.248   5.766 -0.6259  0.1603  0.1341
 6749SOL     OW26767   1.026   2.848   6.208 -0.7595  0.3068  0.0298
 6749SOL    HW226768   0.969   2.833   6.283 -1.2380  0.6478 -0.2641
 6749SOL    HW326769   0.967   2.864   6.134 -0.3169  1.8183 -0.0451
 6749SOL    MW426770   1.011   2.848   6.208 -0.7642  0.5512 -0.0189
 6750SOL     OW26771   4.628   5.820   3.027  0.2873 -0.2787  0.5289
 6750SOL    HW226772   4.615   5.914   3.013  1.9275 -0.0139  0.5706
 6750SOL    HW326773   4.578   5.800   3.106 -0.8815  0.3379 -0.0383
 6750SOL    MW426774   4.620   5.830   3.035  0.3495 -0.1624  0.4596
 6751SOL     OW26775   2.229   5.058   3.264 -0.1351 -0.0767 -0.5412
 6751SOL    HW226776   2.265   5.140   3.298  0.1273 -0.3053 -0.2704
 6751SOL    HW326777   2.134   5.072   3.265 -0.0673  0.5658 -1.3558
 6751SOL    MW426778   2.221   5.071   3.269 -0.0915 -0.0221 -0.6129
 6752SOL     OW26779   4.877   1.570   2.676  0.3110 -0.1990  0.1187
 6752SOL    HW226780   4.871   1.496   2.615  1.4507 -0.7741  0.6747
 6752SOL    HW326781   4.970   1.577   2.696  0.2076  1.3348  0.1637
 6752SOL    MW426782   4.889   1.561   2.670  0.4478 -0.0725  0.1980
 6753SOL     OW26783   2.904   4.122   1.760  0.3780 -0.2060  0.1135
 6753SOL    HW226784   2.926   4.214   1.774 -3.1719  0.8827 -0.3197
 6753SOL    HW326785   2.874   4.118   1.669 -0.3706 -1.5782  0.3911
 6753SOL    MW426786   2.903   4.133   1.750 -0.1892 -0.2434  0.0930
 6754SOL     OW26787   2.667   0.542   0.056 -0.2861 -0.5698  0.1209
 6754SOL    HW226788   2.751   0.544   0.012  0.1226  1.5587  0.8736
 6754SOL    HW326789   2.664   0.457   0.099  1.9348 -0.3219  0.8819
 6754SOL    MW426790   2.678   0.531   0.056  0.0609 -0.2563  0.3206
 6755SOL     OW26791   5.407   5.944   1.053  0.6632  0.5576 -0.0255
 6755SOL    HW226792   5.370   5.959   0.966 -0.0513 -1.1239 -0.0610
 6755SOL    HW326793   5.475   6.010   1.062 -1.2545  2.7375 -0.6201
 6755SOL    MW426794   5.411   5.955   1.043  0.3160  0.6234 -0.1086
 6756SOL     OW26795   4.009   5.405   2.759  0.7579  0.1310 -0.4369
 6756SOL    HW226796   3.970   5.329   2.717  1.1025 -0.3409  0.0835
 6756SOL    HW326797   4.054   5.451   2.688  1.2445 -0.5946 -0.6106
 6756SOL    MW426798   4.010   5.401   2.744  0.8675 -0.0270 -0.3912
 6757SOL     OW26799   0.781   2.184   5.083 -0.4720 -0.2027 -0.0928
 6757SOL    HW226800   0.863   2.134   5.075  0.3956  0.8559  1.4763
 6757SOL    HW326801   0.773   2.201   5.177 -2.1918  0.2576 -0.2877
 6757SOL    MW426802   0.791   2.180   5.094 -0.5845 -0.0023  0.0885
 6758SOL     OW26803   1.933   5.809   5.568  0.1104  0.4097  0.3232
 6758SOL    HW226804   1.841   5.813   5.542  0.4473  0.9506 -0.9067
 6758SOL    HW326805   1.968   5.894   5.542  1.0967 -0.0235  0.1870
 6758SOL    MW426806   1.925   5.821   5.561  0.2850  0.4239  0.1430
 6759SOL     OW26807   3.522   3.081   2.444  0.1975 -0.1052 -0.1796
 6759SOL    HW226808   3.487   3.144   2.508 -1.5139 -1.2122  0.0390
 6759SOL    HW326809   3.444   3.047   2.400  1.2162 -0.8999 -1.4052
 6759SOL    MW426810   3.507   3.085   2.447  0.1061 -0.3561 -0.3125
 6760SOL     OW26811   0.397   3.808   6.274 -0.1161  0.2928  0.0433
 6760SOL    HW226812   0.311   3.849   6.281  1.5099  3.9969  0.6287
 6760SOL    HW326813   0.424   3.792   6.365  0.1073 -0.1682 -0.0996
 6760SOL    MW426814   0.390   3.811   6.287  0.1279  0.7207  0.1017
 6761SOL     OW26815   1.518   6.256   5.096  0.6438  0.1682  0.1168
 6761SOL    HW226816   1.532   6.163   5.077 -0.9543 -0.7498  2.8177
 6761SOL    HW326817   1.561   6.302   5.024  2.4894 -2.6140 -0.7363
 6761SOL    MW426818   1.526   6.250   5.084  0.6765 -0.3200  0.3606
 6762SOL     OW26819   0.580   3.836   2.772  0.0037  0.1304  0.2481
 6762SOL    HW226820   0.670   3.803   2.761  0.0726 -0.7924  2.8730
 6762SOL    HW326821   0.591   3.931   2.777  0.6667  0.1208 -0.6750
 6762SOL    MW426822   0.594   3.844   2.771  0.1003  0.0074  0.4727
 6763SOL     OW26823   3.056   0.709   3.205  0.4755  0.2765 -0.2100
 6763SOL    HW226824   3.126   0.694   3.143 -1.4016  0.4524 -2.5269
 6763SOL    HW326825   3.064   0.802   3.228  0.3780  0.5753 -1.3238
 6763SOL    MW426826   3.066   0.720   3.200  0.2150  0.3391 -0.6626
 6764SOL     OW26827   1.284   4.237   5.031 -0.1373 -0.1016 -0.1346
 6764SOL    HW226828   1.241   4.235   4.945  1.5551 -1.5082 -1.0007
 6764SOL    HW326829   1.217   4.273   5.090 -1.9162 -0.6568 -1.7112
 6764SOL    MW426830   1.269   4.242   5.027 -0.1487 -0.3605 -0.4569
 6765SOL     OW26831   3.073   3.746   3.943  0.7073 -0.3077 -0.4127
 6765SOL    HW226832   3.012   3.677   3.971  1.3150 -0.7058 -0.0672
 6765SOL    HW326833   3.154   3.728   3.990  1.0033  0.4052 -0.6370
 6765SOL    MW426834   3.075   3.735   3.953  0.8266 -0.2662 -0.3967
 6766SOL     OW26835   4.399   4.983   3.038  0.2877 -0.3163  0.3961
 6766SOL    HW226836   4.464   4.917   3.062  1.0408  0.4024  0.3834
 6766SOL    HW326837   4.415   5.000   2.945 -0.4477 -0.7061  0.1913
 6766SOL    MW426838   4.409   4.976   3.028  0.2901 -0.2729  0.3674
 6767SOL     OW26839   1.986   5.158   3.270  1.0397 -0.6469  0.2520
 6767SOL    HW226840   1.936   5.150   3.351 -0.2160  0.2999 -0.3970
 6767SOL    HW326841   1.961   5.081   3.219  3.3821 -2.3666  1.5062
 6767SOL    MW426842   1.976   5.147   3.274  1.1831 -0.7489  0.3319
 6768SOL     OW26843   1.617   2.688   0.631 -0.0426  0.2795 -0.0182
 6768SOL    HW226844   1.697   2.740   0.639  0.1279 -0.0494  0.4264
 6768SOL    HW326845   1.610   2.641   0.714 -1.6097  1.5853  0.6484
 6768SOL    MW426846   1.627   2.688   0.643 -0.2269  0.4084  0.1284
 6769SOL     OW26847   6.276   4.368   0.354 -0.1654  0.1888 -0.4800
 6769SOL    HW226848   6.368   4.384   0.377 -0.6341  0.4585  1.4272
 6769SOL    HW326849   6.250   4.445   0.305  0.1377  1.0282  0.6278
 6769SOL    MW426850   6.285   4.380   0.351 -0.1873  0.3351 -0.0822
 6770SOL     OW26851   3.380   4.828   3.414  0.0072 -0.5764 -0.3001
 6770SOL    HW226852   3.316   4.788   3.472 -0.2838 -0.3700 -0.4731
 6770SOL    HW326853   3.370   4.780   3.331  0.4616 -0.9107 -0.1651
 6770SOL    MW426854   3.370   4.817   3.410  0.0287 -0.5933 -0.3051
 6771SOL     OW26855   5.525   4.197   0.648  0.1888 -0.4894 -0.6417
 6771SOL    HW226856   5.449   4.218   0.594  0.7729  1.0074 -0.9245
 6771SOL    HW326857   5.533   4.102   0.641 -1.0668 -0.5683 -1.3936
 6771SOL    MW426858   5.516   4.187   0.640  0.1002 -0.3023 -0.7782
 6772SOL     OW26859   5.343   4.266   1.980  0.0629  0.1828  0.4993
 6772SOL    HW226860   5.437   4.257   1.963 -0.0162  0.7174 -0.2786
 6772SOL    HW326861   5.308   4.304   1.899 -0.7857  0.2065  0.8715
 6772SOL    MW426862   5.351   4.270   1.967 -0.0595  0.2565  0.4458
 6773SOL     OW26863   4.485   0.602   1.690  0.1921 -0.4619  0.1412
 6773SOL    HW226864   4.411   0.549   1.661 -0.9420  0.2601  1.5880
 6773SOL    HW326865   4.472   0.687   1.649  0.1512 -0.3041  0.4721
 6773SOL    MW426866   4.474   0.606   1.681  0.0371 -0.3458  0.3757
 6774SOL     OW26867   3.260   3.056   1.161  0.1293  0.1088  0.0368
 6774SOL    HW226868   3.328   3.047   1.095 -0.6664  0.3004 -0.8240
 6774SOL    HW326869   3.187   3.003   1.129  0.2179 -0.9462  1.4536
 6774SOL    MW426870   3.259   3.048   1.148  0.0360 -0.0051  0.1101
 6775SOL     OW26871   2.371   4.283   5.549 -0.4004 -0.5308 -0.4984
 6775SOL    HW226872   2.345   4.312   5.462 -0.6454 -1.7304 -0.8429
 6775SOL    HW326873   2.298   4.307   5.606  0.5120  1.9005 -0.2441
 6775SOL    MW426874   2.358   4.290   5.545 -0.3124 -0.3683 -0.5103
 6776SOL     OW26875   1.287   2.910   1.211 -0.4584  0.4875 -0.0558
 6776SOL    HW226876   1.367   2.923   1.260  0.0432 -0.5330 -0.5662
 6776SOL    HW326877   1.316   2.875   1.126 -1.3562  1.3102 -0.7218
 6776SOL    MW426878   1.301   2.907   1.206 -0.5107  0.4614 -0.2110
 6777SOL     OW26879   5.306   5.782   2.759  0.3630 -0.4504  0.2740
 6777SOL    HW226880   5.238   5.835   2.717  0.8241 -0.5786 -0.6706
 6777SOL    HW326881   5.316   5.706   2.701  0.4711 -1.0331  1.0415
 6777SOL    MW426882   5.298   5.779   2.745  0.4381 -0.5442  0.2506
 6778SOL     OW26883   3.209   4.479   2.854  0.1878 -0.3205 -0.1596
 6778SOL    HW226884   3.130   4.531   2.867  1.0320  1.1341 -0.5532
 6778SOL    HW326885   3.177   4.393   2.829 -1.2757  0.3058 -0.5743
 6778SOL    MW426886   3.194   4.475   2.852  0.1061 -0.0459 -0.2662
 6779SOL     OW26887   2.822   2.049   0.328  0.3708  1.0488 -0.1285
 6779SOL    HW226888   2.890   2.108   0.360  0.1147  0.5471  1.4651
 6779SOL    HW326889   2.772   2.026   0.407 -0.4880 -0.0442 -0.9629
 6779SOL    MW426890   2.825   2.053   0.343  0.2237  0.8384 -0.0284
 6780SOL     OW26891   2.628   4.309   4.927 -0.0819  0.4306 -0.1004
 6780SOL    HW226892   2.606   4.217   4.918 -0.6911  0.5378  0.2089
 6780SOL    HW326893   2.620   4.327   5.021  3.3909 -0.0090  0.4151
 6780SOL    MW426894   2.624   4.300   4.939  0.2959  0.3867  0.0084
 6781SOL     OW26895   4.988   5.201   0.841 -0.2493 -0.3076 -0.0711
 6781SOL    HW226896   4.894   5.216   0.847 -0.6405 -1.3455 -2.5012
 6781SOL    HW326897   5.027   5.283   0.869 -1.9173  0.6610 -0.4459
 6781SOL    MW426898   4.981   5.214   0.845 -0.5210 -0.3167 -0.4412
 6782SOL     OW26899   2.819   6.256   4.429 -0.1771  0.1433 -0.1144
 6782SOL    HW226900   2.759   6.193   4.389  0.3954  0.1919 -1.0837
 6782SOL    HW326901   2.781   6.274   4.514 -1.2824 -0.1967 -0.5143
 6782SOL    MW426902   2.806   6.250   4.435 -0.2474  0.1048 -0.2951
 6783SOL     OW26903   5.371   0.915   2.370 -0.0785  0.0449 -0.7006
 6783SOL    HW226904   5.444   0.871   2.326  0.1815  1.0070 -1.2457
 6783SOL    HW326905   5.400   0.926   2.460  1.6059  2.8061 -1.4696
 6783SOL    MW426906   5.384   0.910   2.376  0.1780  0.5361 -0.8740
 6784SOL     OW26907   4.647   1.543   5.425 -0.0610 -0.4719 -0.0095
 6784SOL    HW226908   4.731   1.510   5.394  1.3726  1.5267  1.5881
 6784SOL    HW326909   4.601   1.570   5.345  0.2161 -2.7641 -1.0102
 6784SOL    MW426910   4.652   1.542   5.410  0.1647 -0.5106  0.0692
 6785SOL     OW26911   3.441   1.895   3.877 -0.2849  0.0432  0.8588
 6785SOL    HW226912   3.450   1.856   3.964 -0.1025 -3.6112 -0.6052
 6785SOL    HW326913   3.531   1.898   3.843 -0.5714 -1.0030 -0.0671
 6785SOL    MW426914   3.454   1.890   3.884 -0.2986 -0.5770  0.5435
 6786SOL     OW26915   4.138   4.186   6.262 -0.3592  0.2209 -0.1116
 6786SOL    HW226916   4.096   4.245   6.324  1.7462  0.6700  0.9931
 6786SOL    HW326917   4.142   4.102   6.308 -2.3305 -0.5414 -1.2373
 6786SOL    MW426918   4.133   4.183   6.276 -0.3415  0.1795 -0.1144
 6787SOL     OW26919   4.466   1.911   6.217  0.3201 -0.3974  0.0609
 6787SOL    HW226920   4.545   1.962   6.236  0.2750 -0.8327  1.4968
 6787SOL    HW326921   4.500   1.825   6.190  0.3509 -0.7005  1.0282
 6787SOL    MW426922   4.481   1.906   6.216  0.3182 -0.4949  0.3780
 6788SOL     OW26923   3.877   6.242   0.115  0.3798  0.1304  0.1605
 6788SOL    HW226924   3.924   6.252   0.197  0.9596 -0.5366 -0.0826
 6788SOL    HW326925   3.791   6.281   0.132  0.6342  0.3739  0.9440
 6788SOL    MW426926   3.872   6.249   0.128  0.4898  0.0745  0.2318
 6789SOL     OW26927   4.227   4.439   4.679 -0.1230  0.2775 -0.1896
 6789SOL    HW226928   4.220   4.345   4.665  1.7753  0.2454 -1.2943
 6789SOL    HW326929   4.202   4.452   4.770 -1.1261 -1.1822 -0.2192
 6789SOL    MW426930   4.223   4.428   4.689 -0.0049  0.0807 -0.3393
 6790SOL     OW26931   2.291   5.267   5.512 -0.5942 -0.3844 -0.1620
 6790SOL    HW226932   2.198   5.247   5.496 -0.7182  1.1045 -1.4465
 6790SOL    HW326933   2.338   5.198   5.465 -1.0345 -0.5753 -0.3401
 6790SOL    MW426934   2.285   5.255   5.504 -0.6687 -0.2131 -0.3550
 6791SOL     OW26935   3.442   2.999   3.240 -0.3068 -0.2905  0.0225
 6791SOL    HW226936   3.476   3.027   3.325 -0.7184 -1.4716  0.5929
 6791SOL    HW326937   3.348   3.016   3.245  0.0353  2.8232 -1.4964
 6791SOL    MW426938   3.434   3.005   3.252 -0.3160 -0.0355 -0.1026
 6792SOL     OW26939   2.111   0.271   0.546 -0.4312 -0.0152 -0.0834
 6792SOL    HW226940   2.165   0.290   0.469 -0.4874  0.4141 -0.0199
 6792SOL    HW326941   2.147   0.190   0.580  1.0733  0.9327  0.7199
 6792SOL    MW426942   2.123   0.263   0.540 -0.2401  0.1665  0.0310
 6793SOL     OW26943   3.336   0.670   5.798 -0.6440 -0.1304  0.6149
 6793SOL    HW226944   3.266   0.725   5.833 -1.1731 -0.2824 -0.1665
 6793SOL    HW326945   3.397   0.659   5.871 -0.4073  1.6583  0.7379
 6793SOL    MW426946   3.334   0.676   5.812 -0.6826  0.0855  0.5281
 6794SOL     OW26947   1.451   0.277   3.076  0.3700  0.1289  0.6677
 6794SOL    HW226948   1.415   0.339   3.012  0.3592  0.6470  1.1641
 6794SOL    HW326949   1.457   0.194   3.029 -2.7460 -0.3490  0.9454
 6794SOL    MW426950   1.447   0.274   3.061 -0.0426  0.1342  0.7698
 6795SOL     OW26951   0.793   2.990   0.173  0.1265 -0.1960  0.5122
 6795SOL    HW226952   0.882   3.025   0.175 -0.0654  0.5435 -1.3431
 6795SOL    HW326953   0.741   3.055   0.220  0.2633  0.4711 -0.2323
 6795SOL    MW426954   0.798   3.004   0.179  0.1192 -0.0104  0.1692
 6796SOL     OW26955   4.957   5.915   0.457  0.5043 -0.0568 -0.6598
 6796SOL    HW226956   5.035   5.958   0.492  0.3538 -0.2017 -0.1496
 6796SOL    HW326957   4.886   5.978   0.470  0.2455 -0.5368  0.2705
 6796SOL    MW426958   4.958   5.929   0.463  0.4503 -0.1393 -0.4697
 6797SOL     OW26959   0.806   5.895   0.370  0.1681 -0.5200 -0.0003
 6797SOL    HW226960   0.721   5.931   0.345  0.2845 -1.4898 -2.0118
 6797SOL    HW326961   0.789   5.803   0.387  0.5088 -0.3272  1.4719
 6797SOL    MW426962   0.793   5.888   0.369  0.2284 -0.6225 -0.0715
 6798SOL     OW26963   4.747   5.439   6.402 -0.1104 -0.1260  0.0727
 6798SOL    HW226964   4.686   5.371   6.375  0.2381 -0.0601 -0.9148
 6798SOL    HW326965   4.803   5.397   6.467 -0.0935 -0.6801 -0.3007
 6798SOL    MW426966   4.746   5.425   6.407 -0.0621 -0.1904 -0.1068
 6799SOL     OW26967   1.936   1.486   5.095 -0.6418  0.3604  0.3729
 6799SOL    HW226968   1.947   1.545   5.170 -0.3154 -0.5317  1.0421
 6799SOL    HW326969   1.979   1.532   5.022 -1.1732  1.3442  0.6592
 6799SOL    MW426970   1.943   1.500   5.095 -0.6688  0.3725  0.4990
 6800SOL     OW26971   5.323   0.428   2.386  0.6360  0.5497  0.4431
 6800SOL    HW226972   5.306   0.429   2.292 -1.0332 -0.0368  0.7164
 6800SOL    HW326973   5.257   0.487   2.423 -0.1138 -0.8652  1.4331
 6800SOL    MW426974   5.312   0.436   2.378  0.3168  0.2856  0.6098
 6801SOL     OW26975   3.140   4.726   6.090 -0.2101 -0.2062  0.6912
 6801SOL    HW226976   3.192   4.698   6.015  1.0168 -0.9376  1.7782
 6801SOL    HW326977   3.132   4.821   6.079 -1.5834 -0.4835 -1.2751
 6801SOL    MW426978   3.146   4.735   6.079 -0.2294 -0.3393  0.5752
 6802SOL     OW26979   2.350   3.388   2.829  0.3056  0.2695 -0.1756
 6802SOL    HW226980   2.275   3.331   2.812  0.2273 -0.2964  1.7538
 6802SOL    HW326981   2.377   3.420   2.743 -0.4429 -1.6911 -1.2028
 6802SOL    MW426982   2.344   3.384   2.816  0.1965 -0.0639 -0.0566
 6803SOL     OW26983   4.973   5.229   4.468 -0.1114 -0.3470  0.1513
 6803SOL    HW226984   4.962   5.134   4.477 -1.2782 -0.3492 -1.0141
 6803SOL    HW326985   4.916   5.253   4.395  2.3955  0.8247 -1.5430
 6803SOL    MW426986   4.964   5.220   4.460  0.0654 -0.1927 -0.2260
 6804SOL     OW26987   2.308   4.449   3.579 -0.5704 -0.0189 -0.1257
 6804SOL    HW226988   2.391   4.452   3.531 -0.9079  0.5229 -0.6891
 6804SOL    HW326989   2.241   4.437   3.512 -1.0154  0.3227  0.2452
 6804SOL    MW426990   2.310   4.448   3.564 -0.6736  0.0977 -0.1511
 6805SOL     OW26991   4.276   2.312   1.544  0.2595  0.2214  0.6780
 6805SOL    HW226992   4.349   2.366   1.513 -0.6161  0.2381 -1.4621
 6805SOL    HW326993   4.317   2.230   1.572  1.0166 -0.2982 -1.7619
 6805SOL    MW426994   4.291   2.308   1.544  0.2439  0.1550  0.0737
 6806SOL     OW26995   5.551   0.891   4.800 -0.2703  0.0890  0.1000
 6806SOL    HW226996   5.517   0.953   4.734  0.8834 -0.9619 -1.5627
 6806SOL    HW326997   5.607   0.944   4.856  0.6823  0.6062 -1.2821
 6806SOL    MW426998   5.554   0.906   4.798  0.0076  0.0186 -0.3017
 6807SOL     OW26999   4.797   0.538   4.533  0.2276 -0.5354 -0.2879
 6807SOL    HW227000   4.710   0.511   4.564  1.0735 -2.2875  0.7063
 6807SOL    HW327001   4.825   0.465   4.476  1.1370 -0.0912 -0.4219
 6807SOL    MW427002   4.789   0.525   4.529  0.4592 -0.7080 -0.1744
 6808SOL     OW27003   2.971   6.395   3.641  0.5093  0.3458 -0.0397
 6808SOL    HW227004   3.060   6.414   3.673  0.5704  2.2591 -1.2109
 6808SOL    HW327005   2.917   6.396   3.720  1.4063 -0.0822  0.5955
 6808SOL    MW427006   2.976   6.398   3.656  0.6357  0.5418 -0.1104
 6809SOL     OW27007   5.129   3.775   4.927  0.4138 -0.2315  0.0550
 6809SOL    HW227008   5.224   3.773   4.915  0.5604 -0.6399  1.1862
 6809SOL    HW327009   5.109   3.868   4.943  0.7758 -0.2806  0.8617
 6809SOL    MW427010   5.139   3.787   4.928  0.4809 -0.2919  0.3107
 6810SOL     OW27011   2.631   2.277   5.719  0.8600  0.5579 -0.3554
 6810SOL    HW227012   2.711   2.231   5.747  0.8215 -0.5436 -1.9206
 6810SOL    HW327013   2.586   2.214   5.663 -1.4477  0.9293  0.9755
 6810SOL    MW427014   2.636   2.263   5.716  0.5504  0.4616 -0.3863
 6811SOL     OW27015   5.092   3.114   3.787  0.2109  0.1549 -0.1126
 6811SOL    HW227016   5.187   3.112   3.778  0.2570 -0.1526  0.3741
 6811SOL    HW327017   5.061   3.039   3.736  0.1107  1.0954 -1.4690
 6811SOL    MW427018   5.100   3.104   3.779  0.2038  0.2384 -0.2273
 6812SOL     OW27019   0.619   5.768   1.100 -0.1919  0.2575 -0.2677
 6812SOL    HW227020   0.698   5.733   1.058  1.2408  2.7140  0.1686
 6812SOL    HW327021   0.581   5.693   1.146  1.2833 -1.2447 -1.3841
 6812SOL    MW427022   0.625   5.754   1.101  0.1918  0.3834 -0.3574
 6813SOL     OW27023   4.908   0.626   3.647 -0.8413 -0.3747  0.0448
 6813SOL    HW227024   4.949   0.546   3.612 -0.7598 -0.3750  0.1406
 6813SOL    HW327025   4.980   0.689   3.654 -1.0920  0.0353 -0.9843
 6813SOL    MW427026   4.923   0.623   3.643 -0.8636 -0.3207 -0.0784
 6814SOL     OW27027   5.101   5.190   3.093  0.0567 -0.2903 -0.1123
 6814SOL    HW227028   5.089   5.282   3.070  0.7301  0.2059  1.3371
 6814SOL    HW327029   5.168   5.158   3.033  0.1205  0.2943 -0.3558
 6814SOL    MW427030   5.108   5.198   3.082  0.1540 -0.1477  0.0468
 6815SOL     OW27031   0.077   6.289   4.626  0.5298  0.1560 -0.6647
 6815SOL    HW227032   0.149   6.286   4.564  0.6049  1.2220 -0.6464
 6815SOL    HW327033   0.021   6.360   4.595  2.0276  2.7406  1.9918
 6815SOL    MW427034   0.079   6.298   4.614  0.7373  0.6377 -0.3118
 6816SOL     OW27035   6.009   5.510   4.744 -0.1887 -0.0607 -0.2764
 6816SOL    HW227036   6.026   5.427   4.788  0.8690 -0.0806 -0.6760
 6816SOL    HW327037   6.079   5.516   4.678 -1.0178  0.5324 -1.1299
 6816SOL    MW427038   6.021   5.500   4.741 -0.1586  0.0149 -0.4418
 6817SOL     OW27039   1.631   5.748   5.909 -0.5899  0.2704  0.1625
 6817SOL    HW227040   1.635   5.745   6.005 -1.1708  0.0230  0.1843
 6817SOL    HW327041   1.573   5.676   5.885 -1.0877  0.8203 -0.3257
 6817SOL    MW427042   1.624   5.738   5.919 -0.7322  0.3103  0.1010
 6818SOL     OW27043   5.734   2.063   5.893  0.3137  0.0232  0.2364
 6818SOL    HW227044   5.685   2.040   5.972  0.7510 -2.5823 -0.1707
 6818SOL    HW327045   5.811   2.111   5.925 -1.5221  2.7091  0.9915
 6818SOL    MW427046   5.738   2.067   5.908  0.1292  0.0338  0.2823
 6819SOL     OW27047   1.359   4.419   2.394  0.4076 -0.0444 -0.3065
 6819SOL    HW227048   1.317   4.490   2.346  1.8162  1.7768  1.0082
 6819SOL    HW327049   1.452   4.444   2.398  0.5552 -0.6915  2.2946
 6819SOL    MW427050   1.366   4.431   2.388  0.6129  0.1105  0.2102
 6820SOL     OW27051   0.491   0.284   5.481 -0.4919  0.0693  0.0182
 6820SOL    HW227052   0.453   0.306   5.396 -1.3059  0.1718  0.4021
 6820SOL    HW327053   0.430   0.221   5.519 -0.0085 -0.1581  0.4343
 6820SOL    MW427054   0.478   0.279   5.475 -0.5355  0.0528  0.1237
 6821SOL     OW27055   0.894   1.684   0.226 -0.0603 -0.1423  0.3790
 6821SOL    HW227056   0.860   1.767   0.261  0.6035  1.7505 -3.0122
 6821SOL    HW327057   0.980   1.707   0.190  0.9492 -2.7953  0.8973
 6821SOL    MW427058   0.901   1.698   0.226  0.1605 -0.2426 -0.0001
 6822SOL     OW27059   4.521   2.292   4.833  0.4156 -0.0710 -0.4135
 6822SOL    HW227060   4.457   2.362   4.845  0.5668  0.1261 -0.7333
 6822SOL    HW327061   4.474   2.212   4.856 -0.0071  0.0552 -0.8223
 6822SOL    MW427062   4.506   2.290   4.838  0.3798 -0.0284 -0.5097
 6823SOL     OW27063   5.188   1.609   5.502  0.5522  0.1170  0.3812
 6823SOL    HW227064   5.279   1.639   5.507  0.8546 -0.8099  0.8812
 6823SOL    HW327065   5.175   1.586   5.410 -0.0481  2.7393 -0.2555
 6823SOL    MW427066   5.198   1.610   5.491  0.5129  0.3407  0.3632
 6824SOL     OW27067   4.438   3.316   2.671 -0.0112  0.2533  0.2491
 6824SOL    HW227068   4.352   3.301   2.634  0.1377 -0.6826  0.2544
 6824SOL    HW327069   4.489   3.239   2.645  1.1443  1.2842 -0.6733
 6824SOL    MW427070   4.434   3.303   2.663  0.1609  0.2658  0.1281
 6825SOL     OW27071   4.155   5.942   0.948 -0.2187 -0.0662 -0.3994
 6825SOL    HW227072   4.247   5.939   0.923 -0.1599  0.6466 -0.3026
 6825SOL    HW327073   4.109   5.960   0.866 -0.0384  2.1239 -0.0892
 6825SOL    MW427074   4.161   5.944   0.934 -0.1871  0.3168 -0.3457
 6826SOL     OW27075   1.912   0.546   6.001 -0.3966  0.5698  0.6763
 6826SOL    HW227076   1.989   0.523   5.949 -0.9676  1.4415 -0.6074
 6826SOL    HW327077   1.895   0.467   6.053  0.3447 -0.2653 -0.2859
 6826SOL    MW427078   1.920   0.532   6.001 -0.3741  0.5746  0.3799
 6827SOL     OW27079   5.682   2.785   1.225 -0.2870 -0.0041 -0.0629
 6827SOL    HW227080   5.758   2.827   1.265 -0.8405  0.1883  0.8263
 6827SOL    HW327081   5.608   2.841   1.251 -0.8629 -0.7879  0.0245
 6827SOL    MW427082   5.682   2.798   1.234 -0.4360 -0.0821  0.0659
 6828SOL     OW27083   2.219   0.705   0.089 -0.4264 -0.6957 -0.0500
 6828SOL    HW227084   2.161   0.635   0.061  0.4846 -1.1437 -0.8576
 6828SOL    HW327085   2.224   0.764   0.014  0.3023 -0.7688 -0.0718
 6828SOL    MW427086   2.212   0.704   0.076 -0.2100 -0.7645 -0.1594
 6829SOL     OW27087   1.043   1.089   0.714  0.3511 -0.5914  0.2280
 6829SOL    HW227088   1.113   1.125   0.768 -0.2545 -0.5339  0.9832
 6829SOL    HW327089   1.064   1.118   0.625  0.3488  0.8897  0.6838
 6829SOL    MW427090   1.055   1.097   0.709  0.2709 -0.3884  0.3878
 6830SOL     OW27091   2.472   5.978   1.053  0.5289 -0.1824  0.0311
 6830SOL    HW227092   2.477   5.923   0.975  0.7907 -2.2159  1.4074
 6830SOL    HW327093   2.439   5.920   1.121  0.7572  1.4019  1.5513
 6830SOL    MW427094   2.468   5.963   1.051  0.5936 -0.2416  0.4133
 6831SOL     OW27095   4.005   3.210   4.105 -0.1172  0.3153  0.9543
 6831SOL    HW227096   4.095   3.181   4.088 -0.2746  0.5024 -0.2830
 6831SOL    HW327097   4.015   3.295   4.148  0.3134  0.7217  0.0874
 6831SOL    MW427098   4.019   3.218   4.108 -0.0812  0.3936  0.6767
 6832SOL     OW27099   0.288   1.901   3.358  0.0124  0.1305 -0.3279
 6832SOL    HW227100   0.263   1.838   3.424 -0.3572 -0.4209 -0.9820
 6832SOL    HW327101   0.381   1.885   3.342  0.1336  0.3565  0.1477
 6832SOL    MW427102   0.297   1.891   3.364 -0.0204  0.0876 -0.3514
 6833SOL     OW27103   5.194   0.208   6.133  0.3405  0.0830 -0.2368
 6833SOL    HW227104   5.278   0.188   6.175 -0.4941 -0.5632  1.2040
 6833SOL    HW327105   5.201   0.168   6.046  1.9531  1.0772 -0.6017
 6833SOL    MW427106   5.206   0.200   6.127  0.4431  0.1289 -0.0948
 6834SOL     OW27107   0.445   1.742   0.757  0.0405 -0.1209  0.2615
 6834SOL    HW227108   0.505   1.755   0.684  0.2370  0.6106  0.5509
 6834SOL    HW327109   0.459   1.818   0.814 -1.1286  0.0349  0.3541
 6834SOL    MW427110   0.455   1.753   0.755 -0.0878 -0.0038  0.3119
 6835SOL     OW27111   1.945   5.608   0.763  0.3247 -0.4318 -0.0488
 6835SOL    HW227112   1.994   5.645   0.837 -0.1972  1.3376 -0.5460
 6835SOL    HW327113   1.865   5.574   0.802 -0.2083  1.0036  0.1547
 6835SOL    MW427114   1.941   5.608   0.778  0.1856 -0.0090 -0.0875
 6836SOL     OW27115   4.826   3.676   0.584  0.2156  0.3972 -0.2120
 6836SOL    HW227116   4.921   3.663   0.583  0.2959  0.9572  0.1966
 6836SOL    HW327117   4.792   3.602   0.635  0.3862 -0.0654 -0.7543
 6836SOL    MW427118   4.834   3.664   0.590  0.2487  0.4100 -0.2296
 6837SOL     OW27119   0.579   5.548   3.103  0.0067 -0.2810  0.2070
 6837SOL    HW227120   0.640   5.533   3.031  0.4103  0.5462  0.3666
 6837SOL    HW327121   0.578   5.643   3.114  0.4830 -0.4214  1.7416
 6837SOL    MW427122   0.587   5.559   3.095  0.1228 -0.1904  0.4306
 6838SOL     OW27123   2.125   3.263   2.763 -0.0246  0.5814 -0.1177
 6838SOL    HW227124   2.056   3.215   2.808  2.2304 -1.1630  1.7154
 6838SOL    HW327125   2.154   3.204   2.694  3.3996 -1.4338  2.7249
 6838SOL    MW427126   2.119   3.249   2.759  0.7247  0.0854  0.4992
 6839SOL     OW27127   1.442   5.712   4.134  0.0657  0.5068  0.1216
 6839SOL    HW227128   1.455   5.652   4.061 -0.4880  0.1238  0.3320
 6839SOL    HW327129   1.348   5.730   4.133 -0.1229 -0.3007  1.3553
 6839SOL    MW427130   1.431   5.707   4.124 -0.0322  0.3498  0.3121
 6840SOL     OW27131   0.741   4.677   6.017  0.0583 -0.3556  0.4744
 6840SOL    HW227132   0.801   4.611   5.984  0.4886  0.0279  0.4733
 6840SOL    HW327133   0.747   4.749   5.954 -1.3610 -0.8072 -0.2175
 6840SOL    MW427134   0.750   4.678   6.005 -0.0722 -0.3645  0.3830
 6841SOL     OW27135   3.965   3.872   0.609  0.0724  0.2842  0.6884
 6841SOL    HW227136   3.930   3.952   0.649 -1.9032 -0.3083  0.2454
 6841SOL    HW327137   4.012   3.903   0.532 -1.6348  1.0009 -0.1283
 6841SOL    MW427138   3.967   3.887   0.604 -0.4135  0.3006  0.5222
 6842SOL     OW27139   4.355   4.734   5.773  0.4253 -0.4275  0.4404
 6842SOL    HW227140   4.419   4.795   5.811 -1.0039  0.8370  0.9320
 6842SOL    HW327141   4.323   4.683   5.847 -1.2840  1.0299  0.7920
 6842SOL    MW427142   4.359   4.735   5.788  0.0112 -0.0684  0.5517
 6843SOL     OW27143   3.762   5.456   3.533  0.3669  0.3763  0.5848
 6843SOL    HW227144   3.696   5.523   3.516  0.3225 -0.2042 -1.8582
 6843SOL    HW327145   3.725   5.405   3.606 -0.3940  1.9305  1.3368
 6843SOL    MW427146   3.748   5.458   3.541  0.2607  0.5048  0.3617
 6844SOL     OW27147   2.250   4.610   0.286 -0.1660 -0.0686  0.5232
 6844SOL    HW227148   2.332   4.629   0.330  0.4741  1.5603 -1.2379
 6844SOL    HW327149   2.187   4.593   0.356  1.3115  0.1136  1.9319
 6844SOL    MW427150   2.252   4.610   0.301  0.1134  0.1703  0.4767
 6845SOL     OW27151   0.248   2.449   3.494  0.2884  0.3840  0.3357
 6845SOL    HW227152   0.304   2.446   3.416  0.8767 -0.9442  0.7594
 6845SOL    HW327153   0.220   2.358   3.506  0.9271  0.3879  2.1543
 6845SOL    MW427154   0.252   2.436   3.485  0.4503  0.2093  0.6316
 6846SOL     OW27155   1.747   6.000   0.199 -0.3812 -0.1371  0.2109
 6846SOL    HW227156   1.680   5.993   0.131 -0.3403 -0.7611  0.2289
 6846SOL    HW327157   1.775   5.910   0.215  2.0537  0.2400 -1.3629
 6846SOL    MW427158   1.742   5.988   0.192 -0.0545 -0.1697  0.0057
 6847SOL     OW27159   3.907   4.703   3.090  0.1103  0.0580  0.3707
 6847SOL    HW227160   4.002   4.718   3.082 -0.1231  1.5873  0.0819
 6847SOL    HW327161   3.893   4.686   3.183  0.7931 -1.3704  0.2466
 6847SOL    MW427162   3.918   4.703   3.101  0.1696  0.0713  0.3162
 6848SOL     OW27163   3.658   0.668   0.744  0.2471 -0.5351 -0.1572
 6848SOL    HW227164   3.748   0.661   0.714 -0.0206 -1.1179 -0.8537
 6848SOL    HW327165   3.608   0.690   0.665 -0.4187 -1.6980 -0.0893
 6848SOL    MW427166   3.663   0.670   0.729  0.1239 -0.7654 -0.2401
 6849SOL     OW27167   0.347   0.555   5.328 -0.2315  0.6796 -0.3107
 6849SOL    HW227168   0.399   0.536   5.251 -0.6008 -1.0382 -0.1777
 6849SOL    HW327169   0.256   0.556   5.297 -0.3679  0.1914  0.0626
 6849SOL    MW427170   0.342   0.553   5.314 -0.2982  0.3885 -0.2439
 6850SOL     OW27171   2.476   4.252   2.953 -0.1971 -0.1314 -0.1956
 6850SOL    HW227172   2.429   4.258   2.870 -0.3678 -1.0510 -0.1734
 6850SOL    HW327173   2.408   4.259   3.020  0.0278  1.5094 -0.0875
 6850SOL    MW427174   2.461   4.254   2.951 -0.1899 -0.0362 -0.1784
 6851SOL     OW27175   2.745   4.084   0.315  0.6283 -0.6911  0.8393
 6851SOL    HW227176   2.803   4.022   0.271 -0.7180 -2.4055  1.3389
 6851SOL    HW327177   2.704   4.134   0.244  0.0817 -1.9402  0.2456
 6851SOL    MW427178   2.747   4.083   0.300  0.3785 -1.0821  0.8269
 6852SOL     OW27179   0.871   1.005   5.918 -0.1102 -0.5857 -0.1513
 6852SOL    HW227180   0.909   1.070   5.978  0.0535 -0.4175 -0.4318
 6852SOL    HW327181   0.918   1.020   5.836 -1.0897 -0.0766 -0.6321
 6852SOL    MW427182   0.882   1.016   5.915 -0.2178 -0.4963 -0.2517
 6853SOL     OW27183   0.410   3.969   4.135  0.0602  0.2505 -0.4365
 6853SOL    HW227184   0.334   3.996   4.188  0.4722  1.1147 -0.2804
 6853SOL    HW327185   0.412   4.031   4.063  0.3935 -0.0079 -0.6495
 6853SOL    MW427186   0.400   3.980   4.133  0.1585  0.3304 -0.4440
 6854SOL     OW27187   2.602   3.801   1.733  0.1129  0.0994 -0.4136
 6854SOL    HW227188   2.588   3.894   1.715  3.1970  1.0790  1.4271
 6854SOL    HW327189   2.697   3.792   1.741 -0.1927 -2.6122  2.2815
 6854SOL    MW427190   2.613   3.812   1.732  0.4795 -0.1291  0.1848
 6855SOL     OW27191   4.611   5.868   0.589 -0.6443  0.0074  0.1167
 6855SOL    HW227192   4.691   5.826   0.622 -0.0997  0.1454 -1.0037
 6855SOL    HW327193   4.622   5.961   0.610 -0.6699 -0.0230  0.2676
 6855SOL    MW427194   4.623   5.875   0.596 -0.5758  0.0216 -0.0112
 6856SOL     OW27195   1.956   5.431   3.650  1.1522 -0.1050  0.2399
 6856SOL    HW227196   1.939   5.438   3.744 -0.9844  1.9046 -0.2277
 6856SOL    HW327197   2.013   5.505   3.631  2.3222 -1.0220  0.0455
 6856SOL    MW427198   1.962   5.441   3.660  1.0246  0.0391  0.1525
 6857SOL     OW27199   3.139   2.738   0.079  0.0502  0.5328  0.3790
 6857SOL    HW227200   3.209   2.799   0.103  0.3282 -0.1327  1.3105
 6857SOL    HW327201   3.184   2.663   0.039 -0.4384  1.9941 -3.3537
 6857SOL    MW427202   3.154   2.736   0.077  0.0224  0.6378  0.0094
 6858SOL     OW27203   2.367   5.313   1.185  0.0390  1.0615  0.2873
 6858SOL    HW227204   2.440   5.269   1.228 -0.6831 -0.0998  0.3457
 6858SOL    HW327205   2.384   5.302   1.091  0.9415  2.4887  0.2555
 6858SOL    MW427206   2.379   5.306   1.178  0.0628  1.0966  0.2908
 6859SOL     OW27207   0.155   4.325   1.277 -0.1006 -0.0292  0.2305
 6859SOL    HW227208   0.070   4.357   1.306 -0.7573 -0.3570 -1.2360
 6859SOL    HW327209   0.135   4.270   1.200  1.5294  0.9552 -0.9542
 6859SOL    MW427210   0.141   4.322   1.270  0.0278  0.0575 -0.1193
 6860SOL     OW27211   1.809   0.778   1.420 -0.1796  0.0330  0.4854
 6860SOL    HW227212   1.843   0.845   1.361 -2.6443  0.8842 -0.0799
 6860SOL    HW327213   1.752   0.724   1.365  1.1504 -2.1196  1.1016
 6860SOL    MW427214   1.806   0.780   1.405 -0.3293 -0.1387  0.4921
 6861SOL     OW27215   2.675   4.850   6.175  0.0568  0.6654 -0.3264
 6861SOL    HW227216   2.737   4.876   6.106  1.3874 -0.4108  0.4163
 6861SOL    HW327217   2.683   4.755   6.180 -3.1564  0.2093 -1.5403
 6861SOL    MW427218   2.684   4.841   6.167 -0.1916  0.4632 -0.3886
 6862SOL     OW27219   0.406   2.332   1.822 -0.3207  0.2437  0.4945
 6862SOL    HW227220   0.406   2.274   1.746  2.9086  0.8284 -0.0954
 6862SOL    HW327221   0.452   2.283   1.890 -0.9763  0.6737  1.2677
 6862SOL    MW427222   0.412   2.318   1.821  0.0189  0.3775  0.5187
 6863SOL     OW27223   2.081   5.074   5.916 -0.5971 -0.6257  0.4712
 6863SOL    HW227224   2.049   4.990   5.948  1.2793 -1.8618 -0.6763
 6863SOL    HW327225   2.007   5.109   5.865 -1.4805 -1.4564  1.1298
 6863SOL    MW427226   2.067   5.068   5.913 -0.4661 -0.8984  0.4067
 6864SOL     OW27227   3.342   5.581   2.866  0.4076 -0.0743  0.2522
 6864SOL    HW227228   3.280   5.549   2.931  1.3088 -0.1404  1.1023
 6864SOL    HW327229   3.412   5.621   2.917  1.1652 -0.1752 -0.6789
 6864SOL    MW427230   3.343   5.582   2.881  0.6265 -0.0964  0.2415
 6865SOL     OW27231   3.559   0.852   1.929  1.2358 -0.1456  0.6338
 6865SOL    HW227232   3.580   0.871   1.838  1.1304 -2.2308  0.1163
 6865SOL    HW327233   3.507   0.927   1.958 -0.3032 -0.2495 -1.5953
 6865SOL    MW427234   3.555   0.864   1.921  1.0189 -0.4344  0.2715
 6866SOL     OW27235   2.921   4.008   0.772  0.9237 -0.3554 -0.8058
 6866SOL    HW227236   2.858   4.077   0.754  1.1580 -0.7260 -3.4600
 6866SOL    HW327237   2.869   3.927   0.772  1.2178 -0.5550 -1.9034
 6866SOL    MW427238   2.906   4.006   0.770  0.9934 -0.4306 -1.3008
 6867SOL     OW27239   4.171   5.010   4.443  0.1189 -0.2116  0.3279
 6867SOL    HW227240   4.186   5.036   4.352 -1.7240  3.3999  0.8992
 6867SOL    HW327241   4.254   5.031   4.488 -0.3490  2.1541  0.1931
 6867SOL    MW427242   4.184   5.016   4.437 -0.1860  0.5770  0.3855
 6868SOL     OW27243   1.580   4.198   6.218 -0.0986 -0.6270 -0.1150
 6868SOL    HW227244   1.655   4.258   6.218  0.3470 -1.1180  2.0634
 6868SOL    HW327245   1.508   4.250   6.252  0.0965 -1.0796  1.0200
 6868SOL    MW427246   1.581   4.213   6.222 -0.0141 -0.7515  0.3221
 6869SOL     OW27247   0.355   5.739   3.422  0.3873 -0.0091 -0.1705
 6869SOL    HW227248   0.312   5.655   3.441  0.1495  0.1138 -0.1614
 6869SOL    HW327249   0.416   5.751   3.494 -0.0800  0.1636  0.2049
 6869SOL    MW427250   0.357   5.729   3.434  0.2943  0.0299 -0.1198
 6870SOL     OW27251   5.829   3.792   6.009 -0.0453  0.3869 -0.3445
 6870SOL    HW227252   5.761   3.762   6.069 -0.0854 -0.8307 -0.9674
 6870SOL    HW327253   5.911   3.758   6.046 -0.0746 -0.4016 -0.9828
 6870SOL    MW427254   5.831   3.784   6.021 -0.0545  0.1223 -0.5109
 6871SOL     OW27255   5.096   3.345   2.908  0.3553 -0.4595 -0.2248
 6871SOL    HW227256   5.033   3.273   2.911  0.5435 -0.6070  0.2359
 6871SOL    HW327257   5.107   3.371   2.999 -0.9700  1.2523 -0.4795
 6871SOL    MW427258   5.089   3.339   2.920  0.2053 -0.2531 -0.1976
 6872SOL     OW27259   6.342   0.368   4.822 -0.0325 -0.1841 -0.3156
 6872SOL    HW227260   6.418   0.408   4.864 -0.1088 -1.4661  1.1448
 6872SOL    HW327261   6.267   0.400   4.872 -0.3623  0.1164 -0.9841
 6872SOL    MW427262   6.343   0.377   4.834 -0.0861 -0.3136 -0.2111
 6873SOL     OW27263   2.752   4.163   6.112  0.3943 -0.4757 -0.5722
 6873SOL    HW227264   2.756   4.122   6.199  0.5129 -0.6054 -0.6386
 6873SOL    HW327265   2.709   4.098   6.057 -0.3073 -0.1161 -0.4530
 6873SOL    MW427266   2.747   4.149   6.116  0.3174 -0.4454 -0.5652
 6874SOL     OW27267   6.260   1.461   3.174  0.1065  0.6795 -0.4660
 6874SOL    HW227268   6.347   1.497   3.191 -0.8613  2.7829  0.3525
 6874SOL    HW327269   6.203   1.537   3.167 -1.7171 -0.6424 -0.8615
 6874SOL    MW427270   6.264   1.476   3.175 -0.2618  0.7826 -0.4102
 6875SOL     OW27271   5.823   5.826   4.416 -0.0229 -0.4065  0.3426
 6875SOL    HW227272   5.805   5.835   4.322 -1.3671 -1.9782  0.4139
 6875SOL    HW327273   5.791   5.908   4.454 -0.5478 -0.2417 -0.4276
 6875SOL    MW427274   5.817   5.838   4.408 -0.2695 -0.5921  0.2504
 6876SOL     OW27275   5.388   5.572   2.562  0.6619 -0.3662  0.2379
 6876SOL    HW227276   5.355   5.509   2.498 -0.1085  0.3371 -0.0630
 6876SOL    HW327277   5.403   5.519   2.641  0.2272 -0.9680 -0.0738
 6876SOL    MW427278   5.386   5.557   2.564  0.5029 -0.3528  0.1571
 6877SOL     OW27279   4.835   0.824   2.212  0.1018  0.0457  0.3967
 6877SOL    HW227280   4.794   0.870   2.139  0.1135  1.2377  1.1315
 6877SOL    HW327281   4.846   0.734   2.180 -0.2186  0.4623 -0.9306
 6877SOL    MW427282   4.831   0.818   2.198  0.0611  0.2579  0.3186
 6878SOL     OW27283   2.516   2.385   3.561  0.6308 -0.1210 -0.3160
 6878SOL    HW227284   2.507   2.378   3.656  0.8076 -0.4651 -0.3230
 6878SOL    HW327285   2.426   2.376   3.528  0.5081  0.4662 -0.1587
 6878SOL    MW427286   2.503   2.383   3.569  0.6379 -0.0890 -0.2961
 6879SOL     OW27287   3.303   2.077   2.379 -0.3027  0.3463  0.0935
 6879SOL    HW227288   3.297   2.143   2.310  1.3801  1.0645  0.5823
 6879SOL    HW327289   3.396   2.053   2.381  0.0068  1.4248  3.0429
 6879SOL    MW427290   3.315   2.083   2.370 -0.0399  0.5834  0.5471
 6880SOL     OW27291   0.715   5.191   2.459  0.1193  0.2711 -0.2851
 6880SOL    HW227292   0.631   5.162   2.423 -0.2011 -0.0290  0.6699
 6880SOL    HW327293   0.720   5.148   2.544  0.6722  1.2705  0.2011
 6880SOL    MW427294   0.704   5.182   2.465  0.1500  0.3634 -0.0950
 6881SOL     OW27295   2.747   5.394   5.649 -0.0760 -0.5117 -0.1739
 6881SOL    HW227296   2.702   5.322   5.691  0.2345 -0.5199  0.1522
 6881SOL    HW327297   2.809   5.352   5.589  0.2850 -0.5255  0.2032
 6881SOL    MW427298   2.749   5.379   5.646  0.0126 -0.5146 -0.0811
 6882SOL     OW27299   1.925   2.412   0.188  0.1156 -0.2487 -0.0317
 6882SOL    HW227300   1.852   2.441   0.242  1.0743  1.0503  0.6239
 6882SOL    HW327301   1.915   2.317   0.183 -2.1096 -0.0291 -0.7160
 6882SOL    MW427302   1.914   2.403   0.194 -0.0515 -0.0483 -0.0355
 6883SOL     OW27303   2.305   0.017   2.084  0.4681  0.0737 -0.0674
 6883SOL    HW227304   2.339   0.060   2.163  1.0488  0.6944 -0.6430
 6883SOL    HW327305   2.217  -0.013   2.109  0.7480  0.0307  0.8911
 6883SOL    MW427306   2.298   0.019   2.098  0.5816  0.1499 -0.0169
 6884SOL     OW27307   1.164   1.699   1.748  0.5341 -0.2139  0.2950
 6884SOL    HW227308   1.242   1.649   1.770 -0.1372 -0.7649  1.5544
 6884SOL    HW327309   1.103   1.680   1.820 -0.8620 -0.0518 -0.8064
 6884SOL    MW427310   1.166   1.690   1.760  0.2613 -0.2652  0.3158
 6885SOL     OW27311   0.128   5.732   4.918  0.2704  0.4419  0.0603
 6885SOL    HW227312   0.166   5.661   4.968  1.8834  1.2911  0.1068
 6885SOL    HW327313   0.184   5.741   4.841  0.0357  1.5694 -0.0080
 6885SOL    MW427314   0.140   5.724   4.914  0.4523  0.7027  0.0574
 6886SOL     OW27315   5.392   3.784   3.724  0.2696 -0.2661  0.0066
 6886SOL    HW227316   5.308   3.784   3.679  0.5537 -0.1251 -0.5249
 6886SOL    HW327317   5.442   3.854   3.682  0.9069 -0.8073 -0.1536
 6886SOL    MW427318   5.387   3.793   3.713  0.3912 -0.3189 -0.0847
 6887SOL     OW27319   1.785   1.423   2.018 -0.2505 -0.5797 -0.3456
 6887SOL    HW227320   1.693   1.448   2.013  0.4628  2.3632 -0.7847
 6887SOL    HW327321   1.796   1.388   2.107 -1.4625  0.5842  0.2959
 6887SOL    MW427322   1.774   1.422   2.029 -0.3163 -0.0378 -0.3189
 6888SOL     OW27323   0.288   0.134   1.888 -0.5417  0.1933 -0.3019
 6888SOL    HW227324   0.294   0.049   1.932 -3.1386 -0.0082 -0.1837
 6888SOL    HW327325   0.310   0.197   1.956  1.9912 -0.3180 -0.5329
 6888SOL    MW427326   0.292   0.131   1.903 -0.5501  0.0992 -0.3168
 6889SOL     OW27327   0.635   4.343   1.504  0.5884  0.3759 -0.6998
 6889SOL    HW227328   0.601   4.432   1.505  1.5702  0.7718  0.3098
 6889SOL    HW327329   0.684   4.337   1.422  0.5266  0.7688 -0.7695
 6889SOL    MW427330   0.637   4.354   1.493  0.7098  0.4800 -0.5758
 6890SOL     OW27331   4.795   4.594   5.106 -0.0674 -0.2118 -0.1210
 6890SOL    HW227332   4.788   4.526   5.173 -0.9046 -0.8055 -0.7975
 6890SOL    HW327333   4.838   4.552   5.032  0.3203  0.2785 -0.1820
 6890SOL    MW427334   4.800   4.580   5.105 -0.1267 -0.2255 -0.2183
 6891SOL     OW27335   3.836   5.374   5.812  0.5787  0.0097 -0.1520
 6891SOL    HW227336   3.925   5.409   5.800  2.0077 -2.6885  1.4894
 6891SOL    HW327337   3.795   5.435   5.873  2.3424 -0.0722  1.2339
 6891SOL    MW427338   3.842   5.387   5.819  0.9999 -0.3571  0.2474
 6892SOL     OW27339   3.495   3.231   5.432  0.4525 -0.1363 -0.5487
 6892SOL    HW227340   3.548   3.155   5.410 -0.6358 -0.7881 -0.9927
 6892SOL    HW327341   3.463   3.213   5.521  0.8013  0.1675 -0.3562
 6892SOL    MW427342   3.498   3.219   5.441  0.3549 -0.1822 -0.5819
 6893SOL     OW27343   4.544   4.842   4.485  0.6568  0.2223 -0.0534
 6893SOL    HW227344   4.494   4.770   4.524  0.5331 -0.1232 -0.8160
 6893SOL    HW327345   4.609   4.865   4.551  0.1398 -0.0137  0.5408
 6893SOL    MW427346   4.546   4.835   4.499  0.5722  0.1456 -0.0757
 6894SOL     OW27347   6.042   4.667   2.758 -0.0522 -0.0699  0.2305
 6894SOL    HW227348   5.961   4.670   2.707 -0.5161 -0.0776  0.9694
 6894SOL    HW327349   6.037   4.742   2.816  0.3293 -0.2477  0.4974
 6894SOL    MW427350   6.031   4.677   2.759 -0.0631 -0.0943  0.3632
 6895SOL     OW27351   0.139   2.968   4.647 -0.4073 -0.4400 -0.2077
 6895SOL    HW227352   0.123   2.901   4.713 -1.1297  0.9813  1.1243
 6895SOL    HW327353   0.227   3.000   4.666 -1.0297  0.7434  0.8419
 6895SOL    MW427354   0.149   2.963   4.658 -0.5848 -0.0963  0.1065
 6896SOL     OW27355   3.625   4.370   2.188 -0.5070 -0.5060  0.1096
 6896SOL    HW227356   3.605   4.455   2.148 -0.4312 -1.3888 -1.9031
 6896SOL    HW327357   3.556   4.312   2.156 -0.5590 -1.2226  1.4696
 6896SOL    MW427358   3.613   4.374   2.178 -0.5039 -0.7170  0.0235
 6897SOL     OW27359   2.922   3.212   1.262 -0.4102  0.2817  0.3456
 6897SOL    HW227360   2.879   3.251   1.186  1.7563  0.5690 -0.8079
 6897SOL    HW327361   2.991   3.274   1.285  0.9599 -1.2803  0.5857
 6897SOL    MW427362   2.925   3.226   1.255  0.0564  0.1135  0.2251
 6898SOL     OW27363   1.292   6.005   2.707  0.0546 -0.3160 -0.6464
 6898SOL    HW227364   1.355   6.074   2.688 -0.1145  0.5310  1.5322
 6898SOL    HW327365   1.261   5.976   2.622  1.4664  1.0484 -1.6741
 6898SOL    MW427366   1.296   6.010   2.693  0.2186 -0.0242 -0.4946
 6899SOL     OW27367   3.161   2.316   1.239 -1.1053 -0.0211 -0.0492
 6899SOL    HW227368   3.216   2.242   1.212 -1.7556 -0.4605 -0.2002
 6899SOL    HW327369   3.079   2.303   1.191 -1.1030  0.9996 -0.3466
 6899SOL    MW427370   3.158   2.304   1.229 -1.1908  0.0556 -0.1084
 6900SOL     OW27371   0.278   2.326   2.615 -0.2409  0.6409 -0.1862
 6900SOL    HW227372   0.353   2.386   2.614  0.3881 -0.0309  1.8145
 6900SOL    HW327373   0.311   2.248   2.660 -1.8354 -0.1201 -0.2811
 6900SOL    MW427374   0.292   2.324   2.621 -0.3683  0.4518  0.0652
 6901SOL     OW27375   4.566   3.375   6.051 -0.3728  0.3196  0.4353
 6901SOL    HW227376   4.573   3.368   6.147  0.4726 -1.0227  0.2972
 6901SOL    HW327377   4.474   3.392   6.035 -0.6281 -0.0116  1.4750
 6901SOL    MW427378   4.555   3.376   6.062 -0.2950  0.0988  0.5543
 6902SOL     OW27379   2.066   2.188   4.333 -0.1358  0.2633 -0.1014
 6902SOL    HW227380   2.043   2.096   4.343 -2.5405  0.7557 -0.4817
 6902SOL    HW327381   2.063   2.203   4.238 -0.8325  0.9453  0.0175
 6902SOL    MW427382   2.063   2.178   4.321 -0.5450  0.4182 -0.1359
 6903SOL     OW27383   4.378   1.411   6.392  0.2344 -0.0287  0.5110
 6903SOL    HW227384   4.405   1.361   6.469  0.5243  1.5018  1.4351
 6903SOL    HW327385   4.301   1.460   6.420 -0.4594 -0.4510 -0.5840
 6903SOL    MW427386   4.372   1.411   6.406  0.1811  0.1175  0.4884
 6904SOL     OW27387   0.676   0.599   2.080  0.2629 -0.2067 -0.3011
 6904SOL    HW227388   0.651   0.628   2.168  1.8614  1.0345 -0.2200
 6904SOL    HW327389   0.689   0.680   2.031  0.0410 -0.8798 -1.5050
 6904SOL    MW427390   0.674   0.614   2.085  0.4445 -0.1318 -0.4492
 6905SOL     OW27391   2.118   1.341   3.358  0.3898 -0.4590  0.8706
 6905SOL    HW227392   2.077   1.308   3.278  0.8263 -0.2731  0.5659
 6905SOL    HW327393   2.073   1.424   3.375  0.0269 -0.6872  1.0409
 6905SOL    MW427394   2.107   1.348   3.349  0.3995 -0.4646  0.8529
 6906SOL     OW27395   5.547   4.703   1.995  0.4859 -0.3092  0.4109
 6906SOL    HW227396   5.559   4.782   1.942 -0.4475  0.4850  1.3452
 6906SOL    HW327397   5.529   4.634   1.931  2.5001 -0.0616 -0.5111
 6906SOL    MW427398   5.547   4.704   1.979  0.6285 -0.1718  0.4126
 6907SOL     OW27399   4.410   1.769   3.709  0.3490  0.2059 -0.0629
 6907SOL    HW227400   4.441   1.840   3.653 -0.8599  1.2921  0.5792
 6907SOL    HW327401   4.486   1.743   3.761  1.0774  0.2695 -1.0808
 6907SOL    MW427402   4.424   1.775   3.709  0.2856  0.3576 -0.1125
 6908SOL     OW27403   0.871   4.450   5.882  0.4571 -0.1767  0.5255
 6908SOL    HW227404   0.962   4.463   5.854  0.3084 -2.4284 -1.3423
 6908SOL    HW327405   0.872   4.367   5.929 -0.3855  0.6605  2.0963
 6908SOL    MW427406   0.883   4.441   5.884  0.3263 -0.3633  0.4863
 6909SOL     OW27407   0.021   2.663   3.281  0.2510  0.0982 -0.1234
 6909SOL    HW227408  -0.057   2.631   3.326 -0.4014  0.3986 -0.9987
 6909SOL    HW327409   0.059   2.585   3.240 -0.2560  0.1283 -0.6626
 6909SOL    MW427410   0.016   2.649   3.281  0.0980  0.1418 -0.3100
 6910SOL     OW27411   4.019   0.973   4.045  0.4371 -0.3152 -0.0483
 6910SOL    HW227412   4.000   0.924   4.125  1.2599  0.4120  0.6261
 6910SOL    HW327413   3.955   1.044   4.045  0.3642 -0.3815 -0.0903
 6910SOL    MW427414   4.008   0.976   4.056  0.5360 -0.2280  0.0351
 6911SOL     OW27415   3.901   3.361   3.900 -0.2989  0.7850 -0.2347
 6911SOL    HW227416   3.930   3.316   3.979  1.2880  3.1168  0.6395
 6911SOL    HW327417   3.809   3.336   3.890 -0.0022 -1.0581  1.2412
 6911SOL    MW427418   3.893   3.352   3.909 -0.0503  0.8495  0.0754
 6912SOL     OW27419   2.631   1.431   0.595  1.0116  0.0907 -0.1635
 6912SOL    HW227420   2.555   1.459   0.545  1.0305  2.3608  0.9332
 6912SOL    HW327421   2.597   1.414   0.683  1.9016  2.6529  0.7723
 6912SOL    MW427422   2.617   1.433   0.600  1.1315  0.7283  0.1047
 6913SOL     OW27423   3.640   4.755   3.472 -0.1959 -0.3755 -0.4016
 6913SOL    HW227424   3.556   4.797   3.454  0.5187  1.3654  0.0783
 6913SOL    HW327425   3.668   4.792   3.555  0.1688 -2.4015  0.4307
 6913SOL    MW427426   3.632   4.765   3.480 -0.0535 -0.4131 -0.2285
 6914SOL     OW27427   2.759   4.675   0.777 -0.0207  0.0341  0.1516
 6914SOL    HW227428   2.805   4.726   0.710 -1.0488  0.5519 -0.1684
 6914SOL    HW327429   2.723   4.600   0.730 -1.3962  0.7967 -0.0387
 6914SOL    MW427430   2.760   4.671   0.762 -0.3378  0.2030  0.0843
 6915SOL     OW27431   6.137   0.737   3.614 -0.0804  0.1593 -0.2448
 6915SOL    HW227432   6.131   0.680   3.690  0.7246  0.4555  0.0543
 6915SOL    HW327433   6.100   0.686   3.542  2.8817 -1.7628 -0.5382
 6915SOL    MW427434   6.131   0.723   3.615  0.4166 -0.0552 -0.2441
 6916SOL     OW27435   0.612   5.422   0.425  0.4765  0.0851  0.9739
 6916SOL    HW227436   0.554   5.419   0.501  0.6547 -0.9961  1.0852
 6916SOL    HW327437   0.581   5.351   0.369  1.0402  0.1668  0.5499
 6916SOL    MW427438   0.600   5.412   0.428  0.5744 -0.0468  0.9326
 6917SOL     OW27439   4.522   2.143   2.471 -0.3520  0.5099  0.3806
 6917SOL    HW227440   4.512   2.054   2.505 -1.4709  0.5335  0.1661
 6917SOL    HW327441   4.510   2.199   2.548  1.2715  0.4652  0.6855
 6917SOL    MW427442   4.519   2.139   2.486 -0.2854  0.5071  0.3925
 6918SOL     OW27443   5.494   5.432   5.825  0.1503  0.4150 -0.3811
 6918SOL    HW227444   5.589   5.436   5.834 -0.0018  1.0388  1.3855
 6918SOL    HW327445   5.473   5.339   5.827  0.4822  0.2397  3.5349
 6918SOL    MW427446   5.504   5.421   5.827  0.1740  0.4742  0.3686
 6919SOL     OW27447   3.696   1.751   4.770 -0.0656 -0.1383  0.2754
 6919SOL    HW227448   3.643   1.733   4.692  0.2426  0.8217 -0.1636
 6919SOL    HW327449   3.646   1.816   4.819 -0.0119 -0.3594  0.6240
 6919SOL    MW427450   3.683   1.757   4.766 -0.0179 -0.0408  0.2635
 6920SOL     OW27451   0.911   1.189   4.564  0.2680 -0.0773 -0.0679
 6920SOL    HW227452   0.976   1.226   4.504  1.0116  0.2340  0.8984
 6920SOL    HW327453   0.916   1.245   4.641 -0.8828 -0.2929  0.1805
 6920SOL    MW427454   0.920   1.201   4.566  0.2143 -0.0647  0.0924
 6921SOL     OW27455   0.327   3.870   5.908  0.8296 -0.1328 -0.1290
 6921SOL    HW227456   0.339   3.776   5.922  2.0744 -0.3327 -2.2385
 6921SOL    HW327457   0.416   3.905   5.902  0.3959  1.3321  1.2418
 6921SOL    MW427458   0.340   3.862   5.909  0.9366  0.0341 -0.2264
 6922SOL     OW27459   5.778   1.957   2.245 -0.0459 -0.3422 -0.2104
 6922SOL    HW227460   5.854   1.960   2.187 -0.2378  0.2060 -0.4470
 6922SOL    HW327461   5.759   2.049   2.263 -1.7861 -0.3628 -1.6691
 6922SOL    MW427462   5.785   1.970   2.240 -0.3008 -0.2726 -0.4341
 6923SOL     OW27463   4.054   2.358   4.482  0.0119 -0.2386  0.9285
 6923SOL    HW227464   3.975   2.321   4.441  1.0927 -0.9045 -0.6474
 6923SOL    HW327465   4.079   2.430   4.425  0.1587  0.4268  1.8169
 6923SOL    MW427466   4.047   2.362   4.469  0.1739 -0.2387  0.8378
 6924SOL     OW27467   2.975   4.628   2.918 -0.4202 -0.2553  0.7206
 6924SOL    HW227468   2.949   4.568   2.987 -0.0473  0.7331  1.7421
 6924SOL    HW327469   2.892   4.667   2.888 -0.4878  0.0685  1.3208
 6924SOL    MW427470   2.960   4.626   2.923 -0.3799 -0.0821  0.9345
 6925SOL     OW27471   3.730   3.471   3.006 -0.2203 -0.1163 -0.5295
 6925SOL    HW227472   3.756   3.389   3.049 -0.1543  0.0829 -0.1799
 6925SOL    HW327473   3.679   3.516   3.073 -0.8656 -0.1922 -0.9748
 6925SOL    MW427474   3.727   3.466   3.021 -0.2967 -0.1000 -0.5421
 6926SOL     OW27475   1.867   3.020   4.832  0.5059 -0.0530 -0.0440
 6926SOL    HW227476   1.818   3.027   4.914 -2.3619  2.4521 -1.7444
 6926SOL    HW327477   1.800   3.025   4.764  2.9825  1.1855 -2.5838
 6926SOL    MW427478   1.852   3.022   4.834  0.4543  0.4409 -0.6035
 6927SOL     OW27479   0.624   2.937   1.981 -0.8364  0.2251  0.5375
 6927SOL    HW227480   0.580   3.003   2.036 -0.4225  0.3568  0.7151
 6927SOL    HW327481   0.598   2.853   2.020 -0.0288  0.3329  1.3454
 6927SOL    MW427482   0.614   2.935   1.994 -0.6752  0.2567  0.6675
 6928SOL     OW27483   1.163   4.058   1.649 -0.1649  0.0962 -0.8413
 6928SOL    HW227484   1.242   4.033   1.600  0.2697  2.9044 -1.7900
 6928SOL    HW327485   1.098   4.076   1.581 -1.1222 -0.6223 -0.1325
 6928SOL    MW427486   1.165   4.057   1.634 -0.2339  0.3719 -0.8730
 6929SOL     OW27487   3.244   2.539   5.867  0.0860 -0.5221 -0.1967
 6929SOL    HW227488   3.168   2.587   5.833  0.7274  0.0099 -0.9164
 6929SOL    HW327489   3.243   2.456   5.820 -0.3370 -0.7410  0.1804
 6929SOL    MW427490   3.234   2.535   5.856  0.1148 -0.4808 -0.2419
 6930SOL     OW27491   4.563   4.054   3.096  0.3155 -0.2910 -0.6152
 6930SOL    HW227492   4.650   4.076   3.130 -0.4766  2.9558 -0.2866
 6930SOL    HW327493   4.569   4.073   3.002 -0.0178 -0.0035 -0.5817
 6930SOL    MW427494   4.576   4.060   3.088  0.1670  0.1753 -0.5675
 6931SOL     OW27495   3.376   2.826   0.613  0.1497 -0.1947 -0.5282
 6931SOL    HW227496   3.449   2.878   0.646 -0.1657  0.1194 -0.3140
 6931SOL    HW327497   3.309   2.833   0.682  0.6530 -2.1237  0.2077
 6931SOL    MW427498   3.376   2.834   0.627  0.1745 -0.4077 -0.4029
 6932SOL     OW27499   4.737   4.978   4.670  0.2283  0.1621 -0.5473
 6932SOL    HW227500   4.709   5.068   4.683  0.7611  0.1620  0.7330
 6932SOL    HW327501   4.811   4.985   4.610 -0.3158  0.4775 -1.1938
 6932SOL    MW427502   4.743   4.991   4.664  0.2268  0.2037 -0.4637
 6933SOL     OW27503   4.561   1.431   4.656  0.3395  0.4250  0.1092
 6933SOL    HW227504   4.652   1.404   4.646  0.3022 -0.4533  1.7097
 6933SOL    HW327505   4.537   1.470   4.572  1.8626 -0.3077 -0.6962
 6933SOL    MW427506   4.570   1.433   4.643  0.5356  0.2125  0.2141
 6934SOL     OW27507   0.066   4.932   5.702  0.7620  0.1771 -0.3983
 6934SOL    HW227508   0.096   4.970   5.620  0.1843 -0.3586 -0.8654
 6934SOL    HW327509   0.092   4.840   5.697  0.0067 -0.0459 -0.3382
 6934SOL    MW427510   0.073   4.925   5.691  0.5861  0.0770 -0.4520
 6935SOL     OW27511   4.789   4.212   4.815 -0.9244  0.3971  0.1430
 6935SOL    HW227512   4.725   4.202   4.744 -0.8254 -1.6058  0.2913
 6935SOL    HW327513   4.742   4.186   4.894  0.0843 -1.2487  0.2328
 6935SOL    MW427514   4.775   4.207   4.816 -0.7782 -0.0843  0.1744
 6936SOL     OW27515   4.992   0.053   2.382 -0.1996  0.1026 -0.6801
 6936SOL    HW227516   4.942  -0.029   2.376 -0.9844  0.5209  0.1236
 6936SOL    HW327517   4.971   0.100   2.301 -1.6933  0.5977 -0.0237
 6936SOL    MW427518   4.983   0.048   2.370 -0.5003  0.2231 -0.4875
 6937SOL     OW27519   5.572   2.556   1.334  0.4513  0.0827  0.0192
 6937SOL    HW227520   5.621   2.625   1.289  1.5643 -0.0724  0.9153
 6937SOL    HW327521   5.571   2.483   1.273  0.5131  0.4269 -0.3930
 6937SOL    MW427522   5.579   2.555   1.320  0.6063  0.1077  0.0830
 6938SOL     OW27523   1.531   4.271   0.435 -0.6359  0.6788  0.0855
 6938SOL    HW227524   1.496   4.220   0.361  0.0787 -1.8043  1.3525
 6938SOL    HW327525   1.454   4.291   0.488 -0.7930 -0.3814  0.2902
 6938SOL    MW427526   1.516   4.267   0.432 -0.5623  0.2113  0.2797
 6939SOL     OW27527   3.535   5.723   3.647 -0.1187 -0.5706 -0.0283
 6939SOL    HW227528   3.519   5.706   3.740  1.4560  0.4485  0.4946
 6939SOL    HW327529   3.611   5.782   3.648  0.5516 -1.3376 -2.0057
 6939SOL    MW427530   3.543   5.729   3.660  0.1775 -0.5374 -0.2202
 6940SOL     OW27531   3.112   5.555   1.614 -0.3824  0.0831 -0.3345
 6940SOL    HW227532   3.031   5.590   1.652  0.4549 -0.3997  2.0515
 6940SOL    HW327533   3.180   5.615   1.644  0.7920 -2.2536  2.0427
 6940SOL    MW427534   3.110   5.568   1.623 -0.1170 -0.2889  0.2940
 6941SOL     OW27535   6.265   4.208   5.135  0.6079 -0.4434  0.1922
 6941SOL    HW227536   6.307   4.277   5.187  1.0259 -0.1924 -0.4562
 6941SOL    HW327537   6.334   4.180   5.074  0.7868 -2.1658  1.1201
 6941SOL    MW427538   6.280   4.213   5.134  0.6866 -0.6375  0.2290
 6942SOL     OW27539   3.375   0.704   2.695 -0.2494 -0.1648  0.3128
 6942SOL    HW227540   3.332   0.619   2.688  0.2360 -0.3992  0.1359
 6942SOL    HW327541   3.388   0.717   2.789  0.0134 -0.4564  0.3158
 6942SOL    MW427542   3.371   0.695   2.707 -0.1507 -0.2342  0.2899
 6943SOL     OW27543   3.113   6.045   5.803 -0.8636 -0.0117  0.7021
 6943SOL    HW227544   3.052   5.978   5.832 -1.9169  0.3445 -0.5866
 6943SOL    HW327545   3.068   6.089   5.730  0.9242  0.2630 -0.3081
 6943SOL    MW427546   3.099   6.042   5.797 -0.7667  0.0716  0.3988
 6944SOL     OW27547   2.978   3.461   5.654 -0.2329  0.8524  0.5699
 6944SOL    HW227548   2.979   3.456   5.749  0.4717  1.3225  0.5958
 6944SOL    HW327549   2.970   3.554   5.635  1.1060  0.9187  0.1911
 6944SOL    MW427550   2.977   3.472   5.664  0.0367  0.9232  0.5234
 6945SOL     OW27551   2.486   0.816   0.711 -0.2168 -0.1216  0.4950
 6945SOL    HW227552   2.566   0.766   0.695 -0.0588  0.1300  0.4923
 6945SOL    HW327553   2.424   0.786   0.645 -0.5102 -1.1598  1.2104
 6945SOL    MW427554   2.488   0.805   0.700 -0.2347 -0.2254  0.5890
 6946SOL     OW27555   2.203   0.329   0.279  0.1282  0.1210 -0.5661
 6946SOL    HW227556   2.146   0.399   0.246 -0.0475 -0.7882 -2.2927
 6946SOL    HW327557   2.244   0.292   0.201  1.3977 -0.7231  0.4465
 6946SOL    MW427558   2.201   0.333   0.264  0.2725 -0.1103 -0.6603
 6947SOL     OW27559   5.815   4.588   1.509  0.8526 -0.2866  0.1824
 6947SOL    HW227560   5.833   4.499   1.541  1.1254 -0.0268  0.7681
 6947SOL    HW327561   5.721   4.600   1.523  1.0814  0.0817  1.5951
 6947SOL    MW427562   5.805   4.578   1.515  0.9188 -0.2038  0.4460
 6948SOL     OW27563   0.804   5.953   2.986 -0.4211 -0.4071  0.1642
 6948SOL    HW227564   0.880   5.919   2.939  0.3984 -0.5010  1.4845
 6948SOL    HW327565   0.841   6.006   3.056 -1.6048  3.9839 -2.2027
 6948SOL    MW427566   0.819   5.955   2.989 -0.4691  0.1598  0.0261
 6949SOL     OW27567   6.243   6.428   4.281 -0.3193 -0.0283  0.5163
 6949SOL    HW227568   6.289   6.477   4.349 -0.0704  2.0849 -1.0651
 6949SOL    HW327569   6.151   6.449   4.294 -0.2343  0.7203 -0.0119
 6949SOL    MW427570   6.237   6.437   4.291 -0.2752  0.3493  0.2380
 6950SOL     OW27571   1.899   0.927   4.830 -0.6077 -0.3686  0.4594
 6950SOL    HW227572   1.892   1.014   4.790 -0.7264 -0.3481  0.5219
 6950SOL    HW327573   1.961   0.880   4.775 -1.5568 -0.6841 -0.3665
 6950SOL    MW427574   1.906   0.933   4.818 -0.7486 -0.4075  0.3587
 6951SOL     OW27575   6.020   3.273   3.045  0.1886  0.0247  0.1973
 6951SOL    HW227576   6.059   3.203   2.993  1.6159  1.5832 -0.9432
 6951SOL    HW327577   6.070   3.274   3.127 -0.7819 -1.1695  0.8365
 6951SOL    MW427578   6.031   3.264   3.049  0.2489  0.0728  0.1312
 6952SOL     OW27579   6.118   1.908   0.174  0.0859 -0.3220  0.2048
 6952SOL    HW227580   6.211   1.896   0.156 -0.1686 -1.4482 -0.3986
 6952SOL    HW327581   6.109   1.884   0.267  0.2480 -1.1150  0.0249
 6952SOL    MW427582   6.129   1.903   0.184  0.0737 -0.5752  0.1014
 6953SOL     OW27583   0.434   5.535   4.825  0.4346  0.1045 -0.4442
 6953SOL    HW227584   0.416   5.608   4.885 -1.3104 -0.4144 -0.2713
 6953SOL    HW327585   0.437   5.576   4.739  1.1273  0.6049 -0.1926
 6953SOL    MW427586   0.432   5.550   4.822  0.2957  0.1020 -0.3882
 6954SOL     OW27587   0.274   3.666   0.569 -0.1574 -0.1546 -0.1622
 6954SOL    HW227588   0.222   3.689   0.492 -0.5386 -0.4442  0.0066
 6954SOL    HW327589   0.216   3.684   0.643 -0.3440 -1.3080 -0.0068
 6954SOL    MW427590   0.259   3.671   0.568 -0.2323 -0.3450 -0.1194
 6955SOL     OW27591   4.273   5.342   0.372  0.4248  0.4732 -0.2755
 6955SOL    HW227592   4.337   5.285   0.330 -1.4701 -1.4187 -0.7620
 6955SOL    HW327593   4.282   5.324   0.466 -0.5885 -1.2062 -0.4603
 6955SOL    MW427594   4.282   5.332   0.379  0.0411  0.0020 -0.3641
 6956SOL     OW27595   1.107   4.896   2.650 -0.2651  0.3408  0.0445
 6956SOL    HW227596   1.013   4.891   2.664 -0.3110  0.0866 -0.3392
 6956SOL    HW327597   1.143   4.825   2.703 -0.1713  1.1890  1.1582
 6956SOL    MW427598   1.100   4.886   2.659 -0.2588  0.4191  0.1408
 6957SOL     OW27599   5.161   5.421   4.616  0.2944  0.3186  0.3460
 6957SOL    HW227600   5.238   5.445   4.564 -0.6279  0.9698 -0.7667
 6957SOL    HW327601   5.099   5.386   4.553 -0.2352 -0.4822  1.2749
 6957SOL    MW427602   5.163   5.420   4.601  0.1029  0.2989  0.3218
 6958SOL     OW27603   2.930   6.337   4.124 -0.6679 -0.0490  0.4603
 6958SOL    HW227604   2.915   6.317   4.216 -2.2918  0.7572  0.3960
 6958SOL    HW327605   2.930   6.252   4.081 -1.1479 -0.3537  1.0425
 6958SOL    MW427606   2.928   6.323   4.131 -0.9455  0.0172  0.5286
 6959SOL     OW27607   1.442   1.503   0.387 -0.1660 -0.4322 -0.6634
 6959SOL    HW227608   1.525   1.462   0.363  1.0505  3.0947 -3.3545
 6959SOL    HW327609   1.384   1.486   0.312 -0.4291  0.5591 -0.7051
 6959SOL    MW427610   1.445   1.496   0.374 -0.0402  0.1639 -1.0240
 6960SOL     OW27611   5.534   6.195   3.993  0.1022  0.0322  0.5965
 6960SOL    HW227612   5.439   6.183   3.986  0.3444 -1.1489 -1.6075
 6960SOL    HW327613   5.544   6.274   4.046 -2.0717 -0.1493  1.4058
 6960SOL    MW427614   5.523   6.204   3.999 -0.1527 -0.1476  0.4125
 6961SOL     OW27615   3.057   3.535   1.139  0.0384 -0.5790  0.1459
 6961SOL    HW227616   2.969   3.514   1.170 -0.3077  0.4743 -0.0960
 6961SOL    HW327617   3.108   3.456   1.156 -1.0283 -1.3153 -0.0217
 6961SOL    MW427618   3.052   3.522   1.146 -0.1480 -0.5372  0.0919
 6962SOL     OW27619   5.373   4.930   0.690  0.0461 -0.3153  0.2274
 6962SOL    HW227620   5.356   4.956   0.781  2.1671  0.0994  0.5671
 6962SOL    HW327621   5.421   4.847   0.697 -2.8925 -2.2371 -0.7050
 6962SOL    MW427622   5.377   4.922   0.703 -0.0618 -0.5141  0.1492
 6963SOL     OW27623   3.911   0.337   2.906  0.4758  0.3825  0.6780
 6963SOL    HW227624   3.903   0.355   3.000  2.0582 -1.0280  1.1338
 6963SOL    HW327625   3.820   0.329   2.876 -0.0748 -1.2908  2.5600
 6963SOL    MW427626   3.898   0.338   2.915  0.6119 -0.0243  0.9864
 6964SOL     OW27627   4.783   4.144   1.256 -0.1515 -0.7720 -0.0346
 6964SOL    HW227628   4.789   4.206   1.184  0.3157 -0.8271 -0.0500
 6964SOL    HW327629   4.860   4.088   1.246  1.5877  1.0125  2.1269
 6964SOL    MW427630   4.794   4.145   1.245  0.1396 -0.5438  0.2485
 6965SOL     OW27631   0.194   6.256   4.103  0.2575 -0.2388 -0.2695
 6965SOL    HW227632   0.137   6.179   4.103 -0.8861  0.5920 -0.7742
 6965SOL    HW327633   0.135   6.330   4.090  1.4883  0.6201 -1.1083
 6965SOL    MW427634   0.179   6.255   4.102  0.2690 -0.0159 -0.4468
 6966SOL     OW27635   5.500   0.658   5.891 -0.0802 -0.2271 -0.0309
 6966SOL    HW227636   5.442   0.725   5.856  2.2907  2.2893  0.5466
 6966SOL    HW327637   5.482   0.658   5.985  0.0532 -0.2904 -0.0055
 6966SOL    MW427638   5.490   0.667   5.899  0.2502  0.0965  0.0486
 6967SOL     OW27639   4.614   5.930   4.630  0.2503 -0.1666 -0.6213
 6967SOL    HW227640   4.570   6.007   4.593 -0.2381  0.0145  0.3142
 6967SOL    HW327641   4.543   5.868   4.649  0.1856  0.5894  2.0152
 6967SOL    MW427642   4.599   5.932   4.627  0.1773 -0.0430 -0.1500
 6968SOL     OW27643   1.833   0.864   5.343  0.1072 -0.0688  0.2624
 6968SOL    HW227644   1.884   0.877   5.263 -0.8760  0.9164 -0.2374
 6968SOL    HW327645   1.805   0.773   5.339 -1.6779  0.4831 -1.6283
 6968SOL    MW427646   1.836   0.854   5.332 -0.2580  0.1340 -0.0530
 6969SOL     OW27647   4.780   0.812   5.219  0.2003  0.0033 -0.2252
 6969SOL    HW227648   4.784   0.767   5.304 -0.5049 -0.6659 -0.5340
 6969SOL    HW327649   4.790   0.905   5.241  3.2694 -0.3329  0.3089
 6969SOL    MW427650   4.782   0.818   5.233  0.5122 -0.1294 -0.1955
 6970SOL     OW27651   5.626   3.470   2.335 -0.3556 -0.1017  0.4612
 6970SOL    HW227652   5.683   3.486   2.260 -2.2966  1.8026 -0.7281
 6970SOL    HW327653   5.565   3.402   2.305 -0.9559  0.4575  0.3898
 6970SOL    MW427654   5.625   3.463   2.321 -0.6909  0.2234  0.2948
 6971SOL     OW27655   3.665   1.982   5.853 -0.6848 -0.0452 -0.2332
 6971SOL    HW227656   3.718   2.058   5.830 -0.2627  0.3477  1.8829
 6971SOL    HW327657   3.727   1.910   5.859 -0.8489 -0.2263 -0.6130
 6971SOL    MW427658   3.680   1.983   5.851 -0.6508 -0.0172 -0.0041
 6972SOL     OW27659   4.849   3.265   5.103  0.2611  0.0646 -0.5368
 6972SOL    HW227660   4.867   3.273   5.009  0.2461 -0.5804 -0.5955
 6972SOL    HW327661   4.756   3.244   5.108  0.2280  0.2493 -0.3685
 6972SOL    MW427662   4.839   3.263   5.091  0.2548  0.0039 -0.5224
 6973SOL     OW27663   4.198   3.554   3.155 -0.0905 -0.5950 -0.4089
 6973SOL    HW227664   4.264   3.592   3.213 -0.8103  0.8980 -0.5099
 6973SOL    HW327665   4.219   3.589   3.068 -1.3123  0.3655 -0.3459
 6973SOL    MW427666   4.210   3.564   3.151 -0.3467 -0.2713 -0.4139
 6974SOL     OW27667   5.487   1.099   4.599  0.2848  0.0321 -0.3595
 6974SOL    HW227668   5.411   1.117   4.544  0.5246  2.3512 -0.0331
 6974SOL    HW327669   5.497   1.178   4.653  2.4159 -0.5435  0.1943
 6974SOL    MW427670   5.478   1.112   4.599  0.5976  0.2621 -0.2434
 6975SOL     OW27671   4.441   1.748   4.502  0.0499  0.3306 -0.2342
 6975SOL    HW227672   4.408   1.783   4.584  0.0733 -1.5457  0.6216
 6975SOL    HW327673   4.371   1.691   4.469 -0.3600  1.7708 -2.0449
 6975SOL    MW427674   4.428   1.745   4.508 -0.0011  0.2731 -0.3602
 6976SOL     OW27675   1.708   4.991   5.431  0.2582 -0.0424 -0.5042
 6976SOL    HW227676   1.769   4.973   5.360  0.0846 -1.1564 -0.3833
 6976SOL    HW327677   1.749   4.953   5.509 -0.4531 -0.5484 -0.3692
 6976SOL    MW427678   1.722   4.984   5.432  0.1415 -0.2561 -0.4705
 6977SOL     OW27679   4.356   5.799   6.003 -0.0155 -0.6943  0.0223
 6977SOL    HW227680   4.426   5.748   6.044 -0.7696 -1.9481 -0.2101
 6977SOL    HW327681   4.388   5.889   6.005  0.5603 -0.8908  2.1275
 6977SOL    MW427682   4.370   5.804   6.009 -0.0390 -0.8857  0.2694
 6978SOL     OW27683   0.017   4.062   2.536 -0.4169  0.0651 -0.6337
 6978SOL    HW227684   0.003   4.080   2.444  1.9212 -0.9301 -1.2689
 6978SOL    HW327685   0.111   4.077   2.550 -0.6874  0.1479  1.5708
 6978SOL    MW427686   0.028   4.066   2.526 -0.1441 -0.0553 -0.4266
 6979SOL     OW27687   3.509   3.836   6.110  0.0319  0.2417 -0.4051
 6979SOL    HW227688   3.561   3.879   6.041  0.6647  0.8240  0.4118
 6979SOL    HW327689   3.534   3.882   6.190 -0.7333 -0.3955  0.2092
 6979SOL    MW427690   3.519   3.848   6.112  0.0144  0.2345 -0.2163
 6980SOL     OW27691   2.619   4.019   5.912 -0.1476  0.3845 -0.8633
 6980SOL    HW227692   2.636   3.926   5.903 -1.1663  0.0673  0.3235
 6980SOL    HW327693   2.605   4.049   5.822  0.3603 -0.5498 -1.2739
 6980SOL    MW427694   2.619   4.011   5.899 -0.2150  0.2194 -0.7609
 6981SOL     OW27695   1.921   2.854   0.304  0.3891  0.1642  0.3265
 6981SOL    HW227696   1.945   2.791   0.237 -1.5572 -0.4920  0.1900
 6981SOL    HW327697   1.860   2.914   0.261  1.0845  1.2833  0.8440
 6981SOL    MW427698   1.916   2.854   0.290  0.2241  0.2253  0.3768
 6982SOL     OW27699   3.331   0.423   3.800 -0.2350  0.0023  0.1408
 6982SOL    HW227700   3.362   0.334   3.787 -1.4086 -0.3354 -0.4528
 6982SOL    HW327701   3.285   0.421   3.883 -2.9929 -0.7690 -1.2942
 6982SOL    MW427702   3.329   0.411   3.809 -0.7538 -0.1440 -0.1268
 6983SOL     OW27703   0.952   5.863   3.752 -0.1474 -0.0028  0.6083
 6983SOL    HW227704   0.977   5.837   3.840  1.6375 -1.5268 -0.2867
 6983SOL    HW327705   1.012   5.934   3.729 -1.1119  0.9215  0.8667
 6983SOL    MW427706   0.963   5.869   3.760 -0.0392 -0.0820  0.5243
 6984SOL     OW27707   5.429   3.731   4.927 -0.0435 -0.3371  0.1022
 6984SOL    HW227708   5.419   3.717   4.833  0.7609 -1.0486  0.1110
 6984SOL    HW327709   5.405   3.647   4.966 -1.1872  0.2037  0.6005
 6984SOL    MW427710   5.424   3.718   4.920 -0.0883 -0.3597  0.1691
 6985SOL     OW27711   5.285   5.303   1.814 -0.2200  0.1364  0.5007
 6985SOL    HW227712   5.308   5.376   1.756 -0.2894  0.0231  0.3315
 6985SOL    HW327713   5.219   5.254   1.766 -0.4538  0.1765  0.7763
 6985SOL    MW427714   5.279   5.306   1.800 -0.2600  0.1268  0.5147
 6986SOL     OW27715   5.940   2.640   0.790 -0.0149  0.1664 -0.4724
 6986SOL    HW227716   5.910   2.703   0.856 -1.2943  0.2095 -1.0785
 6986SOL    HW327717   6.035   2.650   0.790  0.2046 -0.9201  2.4465
 6986SOL    MW427718   5.949   2.650   0.799 -0.1548  0.0287 -0.1672
 6987SOL     OW27719   2.714   0.080   0.848 -0.0164 -0.2791 -0.5060
 6987SOL    HW227720   2.625   0.096   0.816 -1.1701 -1.6463  1.7252
 6987SOL    HW327721   2.745   0.005   0.797 -1.2212 -1.4844  0.4852
 6987SOL    MW427722   2.706   0.072   0.837 -0.3276 -0.6185 -0.0808
 6988SOL     OW27723   6.021   0.969   3.866 -0.0886 -0.0745 -0.1299
 6988SOL    HW227724   6.104   1.017   3.860 -0.2257  0.2712  0.6602
 6988SOL    HW327725   6.040   0.883   3.829  1.3082 -0.8617  2.2112
 6988SOL    MW427726   6.034   0.964   3.860  0.0776 -0.1327  0.2833
 6989SOL     OW27727   5.267   3.163   0.198  0.5033  0.4703  0.0672
 6989SOL    HW227728   5.290   3.104   0.125 -0.0111  0.8747 -0.4345
 6989SOL    HW327729   5.179   3.136   0.223  0.1909  1.1498 -0.2914
 6989SOL    MW427730   5.259   3.152   0.191  0.3942  0.6133 -0.0463
 6990SOL     OW27731   2.277   4.632   1.144  0.2441  0.0825  0.0956
 6990SOL    HW227732   2.285   4.631   1.240  2.0196  1.4659  0.0192
 6990SOL    HW327733   2.263   4.541   1.120 -0.8832 -0.2182  1.6867
 6990SOL    MW427734   2.276   4.620   1.154  0.3296  0.2253  0.2955
 6991SOL     OW27735   1.351   4.604   0.927  1.0721  0.0806  0.1769
 6991SOL    HW227736   1.323   4.694   0.944 -0.8217 -0.2418 -0.9187
 6991SOL    HW327737   1.416   4.612   0.856  0.2716  0.5521 -0.5209
 6991SOL    MW427738   1.356   4.617   0.920  0.7167  0.1003 -0.0597
 6992SOL     OW27739   0.206   5.784   4.028  0.4928  0.2322 -0.3781
 6992SOL    HW227740   0.181   5.734   3.950  0.0668  0.9578 -0.7219
 6992SOL    HW327741   0.296   5.756   4.046  0.3153 -0.5450 -0.6411
 6992SOL    MW427742   0.215   5.774   4.020  0.4132  0.2254 -0.4581
 6993SOL     OW27743   2.333   4.984   1.369  0.3415 -0.0480 -0.0302
 6993SOL    HW227744   2.248   5.013   1.335  0.4799  0.5940  0.1467
 6993SOL    HW327745   2.316   4.899   1.408  0.3788 -1.3431 -2.6526
 6993SOL    MW427746   2.320   4.977   1.370  0.3647 -0.1342 -0.3529
 6994SOL     OW27747   2.084   1.319   2.523 -0.2872  0.2140  0.2229
 6994SOL    HW227748   2.100   1.338   2.615 -0.1217 -0.8210  0.4217
 6994SOL    HW327749   1.988   1.313   2.516 -0.2641 -3.6663  1.2332
 6994SOL    MW427750   2.073   1.321   2.534 -0.2623 -0.4346  0.3825
 6995SOL     OW27751   4.386   6.373   3.138 -0.4308 -0.5481  0.2871
 6995SOL    HW227752   4.459   6.435   3.136 -0.1191 -0.9357 -0.3674
 6995SOL    HW327753   4.333   6.395   3.062 -1.7174  0.5738  1.4545
 6995SOL    MW427754   4.389   6.384   3.128 -0.5595 -0.4512  0.3548
 6996SOL     OW27755   4.704   2.063   6.207 -0.2291  0.1654 -0.7322
 6996SOL    HW227756   4.737   2.109   6.285  1.9147 -2.0457 -0.2025
 6996SOL    HW327757   4.690   2.132   6.142  1.7298  1.6970  0.3627
 6996SOL    MW427758   4.707   2.078   6.209  0.3122  0.0758 -0.5179
 6997SOL     OW27759   2.857   0.239   1.286 -0.2974 -0.2969 -0.3113
 6997SOL    HW227760   2.770   0.240   1.326 -0.0718  0.0316  0.1642
 6997SOL    HW327761   2.918   0.226   1.358  0.0375 -0.8845 -0.6814
 6997SOL    MW427762   2.854   0.237   1.301 -0.2234 -0.3311 -0.2974
 6998SOL     OW27763   5.413   2.174   5.874  0.2447  0.0261  0.0887
 6998SOL    HW227764   5.439   2.084   5.854  1.8992  0.1495  1.4610
 6998SOL    HW327765   5.325   2.166   5.911  1.0487 -1.3060  1.8984
 6998SOL    MW427766   5.405   2.161   5.876  0.5691 -0.1334  0.5085
 6999SOL     OW27767   5.487   1.479   4.349  0.0984  0.2021  0.2230
 6999SOL    HW227768   5.498   1.428   4.269  0.1174  0.9446 -0.2556
 6999SOL    HW327769   5.561   1.454   4.404 -0.9776 -1.8033  0.8536
 6999SOL    MW427770   5.498   1.469   4.346 -0.0411  0.0355  0.2431
 7000SOL     OW27771   5.248   3.050   2.636  0.0908 -0.3841 -0.2952
 7000SOL    HW227772   5.273   3.044   2.544  2.9528 -0.5425  0.4129
 7000SOL    HW327773   5.304   3.118   2.673 -0.1061 -1.1493  1.5743
 7000SOL    MW427774   5.258   3.058   2.629  0.4424 -0.5059  0.0448
 7001SOL     OW27775   3.949   1.221   2.699  0.1703  0.2375  0.1587
 7001SOL    HW227776   4.002   1.141   2.701 -1.4732 -0.8932  1.4943
 7001SOL    HW327777   4.011   1.290   2.677  2.0788 -1.1003  1.0261
 7001SOL    MW427778   3.964   1.219   2.697  0.2053 -0.0882  0.4493
 7002SOL     OW27779   0.087   2.757   1.385  0.2240  0.2409  0.5815
 7002SOL    HW227780   0.078   2.680   1.442  0.0730  0.0638  0.3227
 7002SOL    HW327781   0.004   2.760   1.337 -0.3100  1.3305  1.5292
 7002SOL    MW427782   0.075   2.747   1.386  0.1336  0.3613  0.6724
 7003SOL     OW27783   4.036   3.434   1.188 -0.5048  0.1552 -0.0965
 7003SOL    HW227784   3.967   3.478   1.238  0.4325  1.0360  0.4840
 7003SOL    HW327785   3.990   3.380   1.124 -1.7208  0.3715  0.5755
 7003SOL    MW427786   4.021   3.433   1.186 -0.5416  0.2999  0.0687
 7004SOL     OW27787   4.941   0.226   2.160 -0.1055  0.2228  0.5459
 7004SOL    HW227788   5.018   0.197   2.111 -0.5641  0.2150 -0.1785
 7004SOL    HW327789   4.877   0.157   2.149 -1.7643  2.0220 -2.4760
 7004SOL    MW427790   4.943   0.213   2.152 -0.3848  0.4591  0.0516
 7005SOL     OW27791   0.783   5.345   5.769 -0.2868 -0.2105  0.0306
 7005SOL    HW227792   0.810   5.350   5.861  0.9940  1.1366 -0.3728
 7005SOL    HW327793   0.697   5.386   5.768 -0.8528 -1.3157  0.7924
 7005SOL    MW427794   0.775   5.351   5.781 -0.1925 -0.1786  0.0779
 7006SOL     OW27795   0.572   5.456   2.588 -0.3868  0.1194 -0.0191
 7006SOL    HW227796   0.492   5.403   2.584 -0.8328  0.6215  1.6216
 7006SOL    HW327797   0.630   5.416   2.523 -1.9616 -0.2406 -1.2554
 7006SOL    MW427798   0.569   5.444   2.579 -0.6534  0.1382  0.0342
 7007SOL     OW27799   3.858   3.467   4.691 -0.2087 -0.4727 -0.9373
 7007SOL    HW227800   3.846   3.561   4.700  1.1767 -0.5020  3.4323
 7007SOL    HW327801   3.807   3.428   4.762  1.0995 -2.8296 -1.1594
 7007SOL    MW427802   3.850   3.474   4.701  0.1467 -0.7876 -0.3901
 7008SOL     OW27803   5.641   5.496   1.623  0.2058  0.1008  0.0386
 7008SOL    HW227804   5.631   5.475   1.715  1.0439  1.0152  0.3463
 7008SOL    HW327805   5.696   5.426   1.588 -0.6307 -0.5874  0.0868
 7008SOL    MW427806   5.647   5.484   1.630  0.2060  0.1307  0.0855
 7009SOL     OW27807   5.111   5.429   2.951  0.1522  0.0813 -0.2170
 7009SOL    HW227808   5.017   5.441   2.967 -0.0982 -0.9720 -0.7625
 7009SOL    HW327809   5.115   5.374   2.873  1.1843 -1.2199  0.7035
 7009SOL    MW427810   5.099   5.423   2.943  0.2554 -0.2294 -0.1676
 7010SOL     OW27811   4.592   3.535   2.688 -0.0997  0.3896  0.0046
 7010SOL    HW227812   4.552   3.595   2.751 -0.2817 -0.6642  0.9231
 7010SOL    HW327813   4.539   3.456   2.692  0.3454  0.0211 -0.9229
 7010SOL    MW427814   4.580   3.533   2.697 -0.0650  0.2019  0.0034
 7011SOL     OW27815   4.798   4.783   0.747  0.2150 -0.3209  0.0930
 7011SOL    HW227816   4.719   4.792   0.694  0.1354 -0.5814  0.1689
 7011SOL    HW327817   4.781   4.707   0.802 -0.3180  0.7844  1.5281
 7011SOL    MW427818   4.785   4.774   0.747  0.1342 -0.2094  0.2924
 7012SOL     OW27819   1.505   2.446   5.452 -0.2173  0.1199  0.4281
 7012SOL    HW227820   1.534   2.363   5.416 -1.1643  0.4133 -1.0849
 7012SOL    HW327821   1.410   2.444   5.445 -0.3772  0.6199  2.0198
 7012SOL    MW427822   1.496   2.435   5.447 -0.3633  0.2246  0.4385
 7013SOL     OW27823   5.112   6.419   2.709  0.5637  0.3700 -0.3413
 7013SOL    HW227824   5.063   6.420   2.791 -0.6089 -0.4445 -0.9935
 7013SOL    HW327825   5.152   6.332   2.706  1.4640  0.7655 -0.1665
 7013SOL    MW427826   5.111   6.408   2.719  0.5278  0.3147 -0.4043
 7014SOL     OW27827   1.325   3.703   5.900 -0.3312  0.3382 -0.3748
 7014SOL    HW227828   1.368   3.690   5.985 -0.4340 -0.7989 -0.4769
 7014SOL    HW327829   1.384   3.761   5.852  1.0797 -1.1247 -0.4947
 7014SOL    MW427830   1.338   3.709   5.905 -0.1586 -0.0048 -0.4041
 7015SOL     OW27831   4.672   1.091   0.050 -0.5955 -0.1663 -0.7913
 7015SOL    HW227832   4.677   1.148  -0.027  1.1885 -0.4033 -0.8943
 7015SOL    HW327833   4.670   1.152   0.124  0.7775  0.0738 -0.9221
 7015SOL    MW427834   4.672   1.107   0.049 -0.1790 -0.1659 -0.8222
 7016SOL     OW27835   6.254   1.408   1.381  0.1407 -0.3937 -0.7041
 7016SOL    HW227836   6.175   1.354   1.390 -0.5486  0.6704 -0.1332
 7016SOL    HW327837   6.224   1.497   1.400  1.8525 -0.2137  1.5410
 7016SOL    MW427838   6.239   1.413   1.385  0.2756 -0.2296 -0.3326
 7017SOL     OW27839   3.444   1.532   3.000  0.1691 -0.1013 -0.0804
 7017SOL    HW227840   3.445   1.606   3.061 -0.6983 -0.1799  0.0391
 7017SOL    HW327841   3.507   1.469   3.037  0.5568  0.3722  0.0684
 7017SOL    MW427842   3.453   1.533   3.013  0.1058 -0.0492 -0.0450
 7018SOL     OW27843   4.278   3.164   5.868  0.0522  0.0418 -0.1706
 7018SOL    HW227844   4.199   3.156   5.814  1.4241 -0.6386 -2.1818
 7018SOL    HW327845   4.341   3.106   5.826  1.5845  0.4576  1.4802
 7018SOL    MW427846   4.276   3.155   5.855  0.4354  0.0069 -0.2182
 7019SOL     OW27847   5.602   3.135   4.465  0.4219 -0.5642  0.2621
 7019SOL    HW227848   5.600   3.226   4.495  1.2141 -0.0422 -1.2020
 7019SOL    HW327849   5.674   3.095   4.514 -0.5638 -0.7111  1.6557
 7019SOL    MW427850   5.611   3.141   4.475  0.3964 -0.5147  0.2528
 7020SOL     OW27851   1.975   3.953   4.746 -0.0606  0.1652  0.2823
 7020SOL    HW227852   1.981   4.045   4.771  0.5052  0.2759 -0.2341
 7020SOL    HW327853   2.043   3.910   4.799  0.4917  0.2467 -0.3455
 7020SOL    MW427854   1.985   3.960   4.756  0.0869  0.1906  0.1313
 7021SOL     OW27855   2.787   6.384   5.750  0.2012 -0.2165  0.3229
 7021SOL    HW227856   2.841   6.321   5.703 -0.6096  0.2461 -1.3073
 7021SOL    HW327857   2.831   6.396   5.834  1.7186 -1.0631 -0.3187
 7021SOL    MW427858   2.800   6.377   5.755  0.2944 -0.2672  0.0232
 7022SOL     OW27859   0.312   6.065   1.060 -0.4680 -0.3147 -0.3546
 7022SOL    HW227860   0.258   6.129   1.013 -0.3831 -0.7681 -1.0927
 7022SOL    HW327861   0.369   6.029   0.992  0.4640 -0.1613  0.3306
 7022SOL    MW427862   0.312   6.069   1.045 -0.3339 -0.3543 -0.3616
 7023SOL     OW27863   1.300   4.473   2.723  0.2940  0.0369  0.0462
 7023SOL    HW227864   1.303   4.479   2.628 -0.2626  1.9850  0.1073
 7023SOL    HW327865   1.388   4.446   2.749  0.3539 -0.8501 -1.0120
 7023SOL    MW427866   1.312   4.470   2.714  0.2285  0.1769 -0.0854
 7024SOL     OW27867   0.857   2.888   5.979  0.1423  0.1048  0.0753
 7024SOL    HW227868   0.914   2.936   5.918  2.5531 -2.8984 -0.2844
 7024SOL    HW327869   0.851   2.800   5.942 -0.8178 -1.0030  2.6453
 7024SOL    MW427870   0.864   2.883   5.966  0.3337 -0.4376  0.3669
 7025SOL     OW27871   5.378   0.707   3.670 -0.8383 -0.4165  0.8497
 7025SOL    HW227872   5.409   0.719   3.580 -0.5731 -1.3987  0.7944
 7025SOL    HW327873   5.286   0.734   3.667 -0.7683 -0.2180  0.3379
 7025SOL    MW427874   5.370   0.712   3.658 -0.7941 -0.5199  0.7749
 7026SOL     OW27875   3.168   5.703   2.718 -0.5188  0.1175 -0.5265
 7026SOL    HW227876   3.244   5.656   2.751 -2.0757 -2.1917 -0.0109
 7026SOL    HW327877   3.198   5.741   2.635  1.4274  0.0744  0.1088
 7026SOL    MW427878   3.182   5.702   2.711 -0.4675 -0.1928 -0.3746
 7027SOL     OW27879   3.625   0.795   2.562  0.3586 -0.4571  0.4728
 7027SOL    HW227880   3.699   0.803   2.622 -1.0478 -0.4857  2.2668
 7027SOL    HW327881   3.548   0.811   2.615 -0.9009  1.2900 -1.6844
 7027SOL    MW427882   3.625   0.798   2.577  0.0069 -0.2304  0.4249
 7028SOL     OW27883   0.134   0.878   5.930  0.2846  0.3456 -0.2932
 7028SOL    HW227884   0.146   0.972   5.941  1.2503 -0.0591  3.6584
 7028SOL    HW327885   0.223   0.844   5.918 -0.0253 -0.1419 -1.3514
 7028SOL    MW427886   0.148   0.886   5.930  0.3712  0.2279  0.0886
 7029SOL     OW27887   5.365   3.832   4.005  0.0350 -0.6042  0.4461
 7029SOL    HW227888   5.278   3.855   4.036  0.9965  2.2786  1.2674
 7029SOL    HW327889   5.354   3.815   3.911 -1.0540  2.3691 -0.0616
 7029SOL    MW427890   5.352   3.833   3.996  0.0182  0.1685  0.4875
 7030SOL     OW27891   4.372   3.015   3.409 -1.1136  0.1777  0.8387
 7030SOL    HW227892   4.380   2.920   3.397 -1.3329  0.0942  1.3169
 7030SOL    HW327893   4.278   3.029   3.425 -1.5179  0.7627 -1.5797
 7030SOL    MW427894   4.361   3.004   3.409 -1.1959  0.2438  0.5827
 7031SOL     OW27895   3.543   5.387   2.495 -0.0550  0.1730  0.0327
 7031SOL    HW227896   3.522   5.362   2.585 -1.0076 -0.2870 -0.2938
 7031SOL    HW327897   3.530   5.482   2.492 -1.6777 -0.0134 -0.0075
 7031SOL    MW427898   3.538   5.396   2.507 -0.3948  0.0877 -0.0157
 7032SOL     OW27899   6.244   5.802   3.642 -0.2466  0.1502 -0.6980
 7032SOL    HW227900   6.154   5.782   3.666 -0.1818  0.8732  0.1944
 7032SOL    HW327901   6.288   5.717   3.641 -0.5450 -0.0358  0.5660
 7032SOL    MW427902   6.238   5.788   3.645 -0.2774  0.2210 -0.4135
 7033SOL     OW27903   3.422   5.319   0.370  0.1713  0.4742 -0.0923
 7033SOL    HW227904   3.353   5.385   0.365  0.0333  0.3371 -0.0211
 7033SOL    HW327905   3.415   5.271   0.287  2.0566  2.2919 -1.3888
 7033SOL    MW427906   3.412   5.321   0.358  0.4018  0.6959 -0.2540
 7034SOL     OW27907   0.255   4.057   4.922 -0.1213  0.4266  0.1792
 7034SOL    HW227908   0.223   4.094   5.004 -2.1896  1.8057 -1.1729
 7034SOL    HW327909   0.220   4.114   4.854  0.2678 -1.5364 -1.7832
 7034SOL    MW427910   0.246   4.069   4.924 -0.3428  0.3496 -0.2581
 7035SOL     OW27911   0.449   1.741   4.634 -0.1780  0.5346  0.1011
 7035SOL    HW227912   0.507   1.685   4.686 -0.0121  0.7863  0.1864
 7035SOL    HW327913   0.505   1.777   4.565 -0.4911 -0.1303 -0.5124
 7035SOL    MW427914   0.464   1.738   4.632 -0.1974  0.4801  0.0314
 7036SOL     OW27915   3.242   0.625   5.236 -0.2261 -0.3041  0.0001
 7036SOL    HW227916   3.308   0.558   5.215 -0.7054 -0.5729 -0.7038
 7036SOL    HW327917   3.210   0.601   5.322  0.2965 -0.4174  0.1671
 7036SOL    MW427918   3.247   0.613   5.244 -0.2203 -0.3545 -0.0707
 7037SOL     OW27919   6.362   6.283   5.865 -0.3426 -0.3743 -0.1758
 7037SOL    HW227920   6.434   6.236   5.825 -0.2840 -0.6921  0.2953
 7037SOL    HW327921   6.389   6.375   5.863 -1.2778 -0.0756 -2.8491
 7037SOL    MW427922   6.375   6.289   5.860 -0.4583 -0.3768 -0.4664
 7038SOL     OW27923   3.184   4.689   6.366 -0.2472 -0.2179 -0.9108
 7038SOL    HW227924   3.167   4.704   6.273 -2.0187 -0.0032 -0.5804
 7038SOL    HW327925   3.143   4.764   6.411  1.5136  0.2643  0.0106
 7038SOL    MW427926   3.176   4.701   6.360 -0.2486 -0.1260 -0.7456
 7039SOL     OW27927   1.957   4.407   4.127 -0.0235 -0.3109  0.2603
 7039SOL    HW227928   1.906   4.482   4.097  0.7495  0.8365  1.6945
 7039SOL    HW327929   1.928   4.335   4.071 -0.8885  1.0043 -1.0697
 7039SOL    MW427930   1.946   4.408   4.116 -0.0357  0.0140  0.2741
 7040SOL     OW27931   2.932   3.268   6.354 -0.4119 -0.1300 -0.3382
 7040SOL    HW227932   3.019   3.232   6.335 -1.1768 -2.4251  0.1752
 7040SOL    HW327933   2.943   3.314   6.437  0.4519  0.1850 -0.6169
 7040SOL    MW427934   2.945   3.269   6.362 -0.3989 -0.3912 -0.3072
 7041SOL     OW27935   1.059   2.037   5.778 -0.1820  0.1137 -0.2690
 7041SOL    HW227936   1.104   2.069   5.700 -1.9030  1.5144 -0.7390
 7041SOL    HW327937   0.991   1.979   5.745 -0.8385  0.6103  0.1913
 7041SOL    MW427938   1.056   2.034   5.764 -0.4957  0.3640 -0.2703
 7042SOL     OW27939   4.531   3.800   4.022  0.3136  0.1627  0.1473
 7042SOL    HW227940   4.596   3.844   3.968 -0.5763  0.8363 -0.4150
 7042SOL    HW327941   4.581   3.758   4.092  1.3807  0.2535 -0.5446
 7042SOL    MW427942   4.546   3.800   4.024  0.3370  0.2636 -0.0182
 7043SOL     OW27943   3.646   1.076   2.978 -0.3567 -0.0522 -0.2292
 7043SOL    HW227944   3.734   1.103   3.004  0.3140 -1.2629 -1.1314
 7043SOL    HW327945   3.590   1.107   3.048  0.9759 -0.4238  1.0552
 7043SOL    MW427946   3.651   1.084   2.991 -0.0924 -0.2609 -0.1787
 7044SOL     OW27947   1.329   3.663   3.345  0.3729 -0.2806  0.3266
 7044SOL    HW227948   1.295   3.675   3.434 -0.2150  1.1259 -0.0682
 7044SOL    HW327949   1.397   3.730   3.336 -0.3680  0.3692 -0.6637
 7044SOL    MW427950   1.334   3.673   3.356  0.1976 -0.0093  0.1438
 7045SOL     OW27951   4.284   2.260   5.426 -0.0071 -0.9042  0.6296
 7045SOL    HW227952   4.360   2.284   5.479  0.0035 -0.4873  0.4283
 7045SOL    HW327953   4.310   2.280   5.336 -1.1386  1.3455  0.7433
 7045SOL    MW427954   4.298   2.266   5.421 -0.1550 -0.5524  0.6181
 7046SOL     OW27955   4.268   4.176   4.661 -0.0171 -0.0874 -0.1442
 7046SOL    HW227956   4.258   4.106   4.725  0.3081  0.0017  0.0033
 7046SOL    HW327957   4.218   4.145   4.585 -1.3188  0.2879  0.5197
 7046SOL    MW427958   4.260   4.162   4.659 -0.1460 -0.0261 -0.0372
 7047SOL     OW27959   1.171   2.819   0.556  0.7361  0.4100 -0.0512
 7047SOL    HW227960   1.124   2.802   0.475 -0.1454  1.6960  0.1648
 7047SOL    HW327961   1.166   2.737   0.605  0.4116 -0.0629 -0.8688
 7047SOL    MW427962   1.165   2.806   0.552  0.5770  0.5173 -0.1306
 7048SOL     OW27963   2.380   1.809   2.980  0.3787  0.4745  0.0552
 7048SOL    HW227964   2.354   1.867   2.908 -0.1406  1.6627  1.1627
 7048SOL    HW327965   2.341   1.725   2.959  0.8454  0.6027 -1.4138
 7048SOL    MW427966   2.372   1.806   2.968  0.3718  0.6482  0.0075
 7049SOL     OW27967   1.622   1.032   4.609  0.2270  0.1752 -0.0030
 7049SOL    HW227968   1.688   1.094   4.643  2.2159 -1.2843 -1.0208
 7049SOL    HW327969   1.577   1.000   4.688  1.2569  0.6491  0.8067
 7049SOL    MW427970   1.625   1.036   4.624  0.6253  0.0451 -0.0304
 7050SOL     OW27971   3.327   2.355   2.216  0.6930 -0.0762  0.0960
 7050SOL    HW227972   3.416   2.336   2.184  0.8450 -1.3444  1.1819
 7050SOL    HW327973   3.340   2.404   2.297  0.4120 -0.4042  0.3431
 7050SOL    MW427974   3.341   2.359   2.222  0.6760 -0.2868  0.2719
 7051SOL     OW27975   0.469   2.069   0.256  0.3685  0.3413  0.2784
 7051SOL    HW227976   0.493   2.161   0.263 -0.8763  0.6180  1.3501
 7051SOL    HW327977   0.416   2.052   0.334  0.3189 -1.2043 -0.0570
 7051SOL    MW427978   0.465   2.079   0.267  0.1977  0.1739  0.3756
 7052SOL     OW27979   5.966   3.279   0.610 -0.0829  0.2216  0.1936
 7052SOL    HW227980   5.919   3.357   0.640  0.2239  0.8802 -0.9593
 7052SOL    HW327981   6.007   3.307   0.527  1.4166 -0.6535  0.6101
 7052SOL    MW427982   5.965   3.293   0.603  0.1554  0.1930  0.0965
 7053SOL     OW27983   4.886   6.150   2.954  0.4404 -0.2137 -0.1869
 7053SOL    HW227984   4.813   6.118   2.901  1.1206  0.2441 -1.4674
 7053SOL    HW327985   4.931   6.071   2.984  0.1457 -0.4859 -0.4626
 7053SOL    MW427986   4.882   6.135   2.951  0.4913 -0.1892 -0.3923
 7054SOL     OW27987   2.755   1.542   0.919 -0.5937  0.7608 -0.4369
 7054SOL    HW227988   2.669   1.520   0.883  0.2319 -0.2845 -1.9001
 7054SOL    HW327989   2.815   1.529   0.845  0.5989  3.4413 -0.0531
 7054SOL    MW427990   2.752   1.537   0.904 -0.3274  0.9766 -0.5793
 7055SOL     OW27991   3.524   1.921   2.943 -0.3386 -0.1136 -0.0779
 7055SOL    HW227992   3.441   1.950   2.907  0.1582  0.6814 -0.6219
 7055SOL    HW327993   3.500   1.862   3.014 -1.3533 -0.7472 -0.9092
 7055SOL    MW427994   3.510   1.917   2.948 -0.4069 -0.0923 -0.2593
 7056SOL     OW27995   1.915   2.706   6.165  0.6970  0.1741  0.5730
 7056SOL    HW227996   2.010   2.710   6.166  0.6730  1.6837  2.6231
 7056SOL    HW327997   1.886   2.789   6.203 -1.4191 -0.6152  0.8543
 7056SOL    MW427998   1.924   2.717   6.170  0.4146  0.2692  0.8806
 7057SOL     OW27999   4.337   2.486   4.537  0.0977  0.8676  0.3462
 7057SOL    HW228000   4.347   2.409   4.482  1.8056  1.3042  0.0112
 7057SOL    HW328001   4.416   2.489   4.590  1.1491  3.5522 -1.1697
 7057SOL    MW428002   4.348   2.476   4.537  0.4618  1.2794  0.1020
 7058SOL     OW28003   1.362   2.510   5.747 -0.1319 -0.0650 -0.0412
 7058SOL    HW228004   1.306   2.529   5.671 -2.2279  1.1310  1.6865
 7058SOL    HW328005   1.386   2.418   5.736 -1.0005 -0.1296 -1.7688
 7058SOL    MW428006   1.358   2.500   5.735 -0.5231  0.0843 -0.0412
 7059SOL     OW28007   0.858   3.427   3.774  0.0478  0.4421  0.5072
 7059SOL    HW228008   0.870   3.473   3.857  0.7047  0.6952  0.2728
 7059SOL    HW328009   0.763   3.429   3.759  0.0037  1.1133  0.8434
 7059SOL    MW428010   0.847   3.433   3.783  0.1287  0.5641  0.5206
 7060SOL     OW28011   5.584   1.592   2.790  0.0262  0.6701 -0.5198
 7060SOL    HW228012   5.610   1.500   2.802 -2.2288  0.0234 -0.0085
 7060SOL    HW328013   5.666   1.638   2.772  1.1280 -1.5818 -1.7447
 7060SOL    MW428014   5.598   1.586   2.790 -0.1259  0.2877 -0.6140
 7061SOL     OW28015   3.895   0.521   5.092  0.1238  0.4113  0.1031
 7061SOL    HW228016   3.926   0.490   5.007 -0.7688  0.6187 -0.3133
 7061SOL    HW328017   3.870   0.441   5.138  1.9231  0.1706  0.7411
 7061SOL    MW428018   3.895   0.506   5.087  0.2434  0.4069  0.1323
 7062SOL     OW28019   1.998   4.011   1.639 -0.3072  0.1601  0.4788
 7062SOL    HW228020   2.092   4.001   1.650 -0.3224  0.4325  0.8983
 7062SOL    HW328021   1.978   4.095   1.681 -0.7682 -0.0180  0.6217
 7062SOL    MW428022   2.008   4.020   1.646 -0.3700  0.1725  0.5530
 7063SOL     OW28023   5.995   4.226   4.373 -0.3378  0.0489 -0.1365
 7063SOL    HW228024   5.982   4.302   4.429 -0.5821 -1.0504  1.3748
 7063SOL    HW328025   6.040   4.162   4.429 -1.8769 -1.6278 -0.7070
 7063SOL    MW428026   5.999   4.227   4.387 -0.5731 -0.3174 -0.0124
 7064SOL     OW28027   5.576   6.263   4.560  0.3287  0.2053  0.2320
 7064SOL    HW228028   5.508   6.302   4.615  0.9039  4.2982 -1.5925
 7064SOL    HW328029   5.655   6.265   4.615  0.3294  1.6919  0.2118
 7064SOL    MW428030   5.578   6.268   4.575  0.4046  0.9414 -0.0114
 7065SOL     OW28031   5.908   2.288   5.226 -0.2402  0.2176 -0.5688
 7065SOL    HW228032   5.891   2.228   5.154  0.5658 -0.8895  0.1319
 7065SOL    HW328033   5.851   2.257   5.297 -0.6200  0.9543 -0.5466
 7065SOL    MW428034   5.898   2.276   5.226 -0.1839  0.1687 -0.4734
 7066SOL     OW28035   5.543   2.269   3.381  0.3887 -0.1593 -0.0932
 7066SOL    HW228036   5.468   2.219   3.349  0.8111 -0.6856 -0.2590
 7066SOL    HW328037   5.535   2.354   3.336 -0.5863  0.1121  0.5408
 7066SOL    MW428038   5.532   2.274   3.371  0.3158 -0.1929 -0.0314
 7067SOL     OW28039   3.817   3.578   5.609  0.3146  0.7799  0.2973
 7067SOL    HW228040   3.781   3.611   5.526 -0.4192 -1.4608 -0.3498
 7067SOL    HW328041   3.753   3.604   5.675 -0.3241  0.5323 -0.2117
 7067SOL    MW428042   3.804   3.586   5.606  0.1335  0.4516  0.1448
 7068SOL     OW28043   1.277   1.123   4.229  0.2863  0.0261  0.2494
 7068SOL    HW228044   1.348   1.187   4.231  0.7482 -0.4340 -0.8373
 7068SOL    HW328045   1.314   1.047   4.184 -0.1118 -1.1908  1.8953
 7068SOL    MW428046   1.291   1.122   4.223  0.2947 -0.1951  0.3232
 7069SOL     OW28047   6.179   1.485   2.701 -0.4447  0.2182  0.3291
 7069SOL    HW228048   6.203   1.416   2.640  0.4211  1.1003 -0.3478
 7069SOL    HW328049   6.210   1.455   2.787  0.3949  0.0000 -0.0480
 7069SOL    MW428050   6.186   1.472   2.705 -0.2197  0.3058  0.1900
 7070SOL     OW28051   5.008   5.165   1.253 -0.7261 -0.3550  0.0141
 7070SOL    HW228052   4.914   5.147   1.262 -0.7892 -0.0459 -0.0123
 7070SOL    HW328053   5.048   5.079   1.248 -0.9767 -0.4979  0.3826
 7070SOL    MW428054   5.001   5.152   1.254 -0.7675 -0.3330  0.0592
 7071SOL     OW28055   0.226   5.130   5.836  0.4363  0.0250 -0.3477
 7071SOL    HW228056   0.170   5.145   5.912  0.7846 -0.5945  0.0322
 7071SOL    HW328057   0.181   5.062   5.785  0.0179  0.6946 -0.8949
 7071SOL    MW428058   0.212   5.123   5.839  0.4270  0.0316 -0.3697
 7072SOL     OW28059   0.211   3.118   2.292 -0.0991 -0.2624 -0.3538
 7072SOL    HW228060   0.212   3.205   2.253  0.3173 -0.4401 -0.7495
 7072SOL    HW328061   0.221   3.133   2.386 -0.9963  0.1640 -0.3098
 7072SOL    MW428062   0.212   3.131   2.299 -0.1625 -0.2296 -0.4002
 7073SOL     OW28063   3.929   3.992   4.758  0.1172 -0.2813  0.5059
 7073SOL    HW228064   3.973   4.067   4.716 -0.3765 -1.1643 -1.7462
 7073SOL    HW328065   3.973   3.983   4.842  2.4341  0.5505 -0.5250
 7073SOL    MW428066   3.941   4.001   4.763  0.3578 -0.2880  0.0727
 7074SOL     OW28067   1.552   0.598   6.209  0.4110 -0.2763  0.0784
 7074SOL    HW228068   1.546   0.573   6.117  0.9183  0.6130 -0.1979
 7074SOL    HW328069   1.467   0.638   6.229  0.8732  1.0214 -0.4632
 7074SOL    MW428070   1.540   0.600   6.200  0.5389  0.0123 -0.0295
 7075SOL     OW28071   5.837   3.295   4.112 -0.1767  0.1349 -0.5719
 7075SOL    HW228072   5.810   3.336   4.194  1.5023  0.3734 -0.0862
 7075SOL    HW328073   5.810   3.356   4.044  1.9823  2.0108  0.1148
 7075SOL    MW428074   5.830   3.308   4.113  0.3297  0.4139 -0.4172
 7076SOL     OW28075   5.690   0.384   5.408  0.2186 -0.0231 -0.2964
 7076SOL    HW228076   5.703   0.433   5.327  2.9037  0.3104  0.2520
 7076SOL    HW328077   5.677   0.452   5.475 -2.5078 -0.2985 -0.4090
 7076SOL    MW428078   5.690   0.400   5.406  0.2132 -0.0154 -0.2389
 7077SOL     OW28079   3.914   0.880   2.208  0.8183 -0.0247 -0.2383
 7077SOL    HW228080   3.940   0.797   2.248  0.2656  0.1234  0.4420
 7077SOL    HW328081   3.983   0.899   2.145  1.3996 -0.5522  0.2316
 7077SOL    MW428082   3.926   0.871   2.205  0.8221 -0.0748 -0.0865
 7078SOL     OW28083   1.274   0.218   4.692  0.2895  0.2794  0.0053
 7078SOL    HW228084   1.224   0.298   4.679  0.4188  0.3848  0.1454
 7078SOL    HW328085   1.361   0.248   4.718  0.2979  0.0921  0.2006
 7078SOL    MW428086   1.279   0.232   4.694  0.3076  0.2686  0.0495
 7079SOL     OW28087   3.434   0.183   6.411  0.4025  0.4672 -0.5589
 7079SOL    HW228088   3.353   0.202   6.458  0.7794  0.2090  0.2200
 7079SOL    HW328089   3.444   0.255   6.349 -0.6093  0.3045 -0.9272
 7079SOL    MW428090   3.424   0.195   6.409  0.3188  0.4117 -0.5047
 7080SOL     OW28091   2.440   3.955   6.218  0.0090  0.0790  0.2050
 7080SOL    HW228092   2.514   3.896   6.201  0.3415  0.1218  1.3797
 7080SOL    HW328093   2.441   4.016   6.145  1.6296  0.5454  0.5730
 7080SOL    MW428094   2.450   3.955   6.206  0.2667  0.1462  0.4085
 7081SOL     OW28095   4.621   6.136   6.274 -0.1458 -0.2411  0.1864
 7081SOL    HW228096   4.601   6.228   6.292  1.0111  0.0572 -0.0002
 7081SOL    HW328097   4.680   6.110   6.345 -0.8082 -0.9740  0.4848
 7081SOL    MW428098   4.626   6.145   6.286 -0.0806 -0.2984  0.2011
 7082SOL     OW28099   4.737   2.130   4.044  0.4351  0.4076  0.5015
 7082SOL    HW228100   4.833   2.133   4.037  0.3264  0.9075 -0.9885
 7082SOL    HW328101   4.705   2.174   3.966 -1.0317  1.1621  1.4805
 7082SOL    MW428102   4.746   2.136   4.033  0.2272  0.5731  0.4341
 7083SOL     OW28103   2.623   5.976   2.753  0.2791  0.1398  0.3157
 7083SOL    HW228104   2.626   5.952   2.661  2.6241  1.6191 -0.0840
 7083SOL    HW328105   2.533   5.959   2.780 -0.7743  0.7330 -2.5274
 7083SOL    MW428106   2.612   5.970   2.745  0.4495  0.4133 -0.1121
 7084SOL     OW28107   5.469   1.014   6.087  0.0500 -0.2000  0.1925
 7084SOL    HW228108   5.516   1.004   6.004 -1.1908  0.4559 -0.6125
 7084SOL    HW328109   5.473   0.927   6.127  1.9536 -0.1640  0.1801
 7084SOL    MW428110   5.476   1.001   6.082  0.1375 -0.1087  0.0847
 7085SOL     OW28111   1.388   2.854   3.359 -0.2917 -0.1154 -0.3185
 7085SOL    HW228112   1.390   2.918   3.429 -0.6891 -2.4689  1.9779
 7085SOL    HW328113   1.295   2.844   3.338 -0.4004 -1.2892  0.6745
 7085SOL    MW428114   1.376   2.861   3.365 -0.3585 -0.5808  0.1155
 7086SOL     OW28115   3.952   5.658   1.759  0.2790  0.3092  0.0565
 7086SOL    HW228116   3.945   5.635   1.852 -0.7597 -0.5659 -0.2222
 7086SOL    HW328117   4.044   5.645   1.739  0.1433 -1.6074  0.4580
 7086SOL    MW428118   3.963   5.653   1.769  0.1240 -0.0591  0.0727
 7087SOL     OW28119   2.155   0.194   4.149 -0.0131  0.4021  0.1260
 7087SOL    HW228120   2.202   0.175   4.230 -0.1536 -1.8719 -0.2627
 7087SOL    HW328121   2.211   0.159   4.080 -0.9207  0.2973 -0.5752
 7087SOL    MW428122   2.169   0.187   4.150 -0.1514  0.0883 -0.0178
 7088SOL     OW28123   6.260   3.903   2.919  0.1378 -0.0406 -0.3625
 7088SOL    HW228124   6.278   3.963   2.847 -0.9025 -0.2656 -0.8329
 7088SOL    HW328125   6.322   3.830   2.906  0.6899  0.4268 -0.3873
 7088SOL    MW428126   6.271   3.901   2.908  0.0734 -0.0086 -0.4278
 7089SOL     OW28127   4.953   2.007   3.059  0.1676 -0.0246 -0.1713
 7089SOL    HW228128   4.960   1.944   2.987 -0.5457 -0.5697  0.2159
 7089SOL    HW328129   4.861   2.002   3.086  0.3847  0.2797  0.6705
 7089SOL    MW428130   4.942   1.998   3.053  0.1021 -0.0564 -0.0091
 7090SOL     OW28131   2.165   1.862   4.758 -0.0978 -0.0133 -0.3104
 7090SOL    HW228132   2.203   1.946   4.784 -0.0915 -0.5060  1.3618
 7090SOL    HW328133   2.206   1.842   4.674  1.3630  0.7230  0.1990
 7090SOL    MW428134   2.175   1.870   4.751  0.0958  0.0188 -0.0225
 7091SOL     OW28135   6.292   5.852   4.849 -0.1470 -0.6152 -0.1323
 7091SOL    HW228136   6.380   5.813   4.849 -0.2235 -0.7967 -0.3292
 7091SOL    HW328137   6.307   5.946   4.846  0.0663 -0.5314  2.1397
 7091SOL    MW428138   6.305   5.859   4.848 -0.1290 -0.6281  0.1415
 7092SOL     OW28139   5.588   2.493   2.771  0.4722 -0.3709 -0.5847
 7092SOL    HW228140   5.646   2.443   2.713  0.2414 -0.0773 -1.0726
 7092SOL    HW328141   5.639   2.570   2.796  1.2783 -1.4047  1.1258
 7092SOL    MW428142   5.602   2.496   2.766  0.5481 -0.4686 -0.4234
 7093SOL     OW28143   1.070   2.872   0.818 -0.0766 -0.5131 -0.0293
 7093SOL    HW228144   1.091   2.835   0.732 -2.0133  0.0870 -0.8098
 7093SOL    HW328145   1.012   2.808   0.859  1.3708 -1.1321  1.1906
 7093SOL    MW428146   1.065   2.859   0.812 -0.1412 -0.5156  0.0286
 7094SOL     OW28147   5.944   2.907   3.836 -0.3484  0.1268 -0.4783
 7094SOL    HW228148   5.854   2.882   3.857 -0.0570 -1.5157 -1.0769
 7094SOL    HW328149   5.937   2.950   3.750 -0.5540 -0.1332 -0.5934
 7094SOL    MW428150   5.931   2.910   3.827 -0.3371 -0.1242 -0.5724
 7095SOL     OW28151   5.625   4.232   5.448 -0.3063  0.3581 -0.5647
 7095SOL    HW228152   5.675   4.245   5.529  0.8007  0.9244 -1.2981
 7095SOL    HW328153   5.551   4.178   5.473 -0.0546  0.6313  0.8513
 7095SOL    MW428154   5.622   4.227   5.462 -0.1270  0.4689 -0.4746
 7096SOL     OW28155   2.332   0.296   5.096 -0.0384 -0.2579 -0.3654
 7096SOL    HW228156   2.377   0.339   5.023  2.8813 -0.2001  1.3382
 7096SOL    HW328157   2.271   0.361   5.129  1.1412  1.0153 -0.5977
 7096SOL    MW428158   2.330   0.310   5.090  0.5024 -0.0823 -0.1713
 7097SOL     OW28159   2.235   5.293   6.012 -0.0154 -0.1609 -0.4342
 7097SOL    HW228160   2.207   5.226   5.949 -1.1202 -0.6721  0.5566
 7097SOL    HW328161   2.239   5.246   6.095 -0.5403  0.9551  0.2329
 7097SOL    MW428162   2.232   5.278   6.015 -0.2304 -0.0811 -0.2155
 7098SOL     OW28163   6.248   3.183   5.459  0.1734  0.2467  0.1342
 7098SOL    HW228164   6.277   3.104   5.503  1.2368  0.3646 -0.3208
 7098SOL    HW328165   6.278   3.172   5.369 -0.2107  0.8966 -0.0781
 7098SOL    MW428166   6.256   3.171   5.453  0.2630  0.3480  0.0462
 7099SOL     OW28167   1.179   4.429   3.159  0.0350  0.0006 -0.3072
 7099SOL    HW228168   1.257   4.445   3.106  0.3566 -2.4530 -0.6760
 7099SOL    HW328169   1.114   4.490   3.124  1.7720  2.2267  0.1305
 7099SOL    MW428170   1.181   4.439   3.147  0.3066 -0.0294 -0.2981
 7100SOL     OW28171   5.331   4.820   2.164  0.7757  0.0605  0.3274
 7100SOL    HW228172   5.375   4.903   2.149 -0.7976  0.5885 -1.8314
 7100SOL    HW328173   5.390   4.754   2.127  0.7959  0.5315 -0.4985
 7100SOL    MW428174   5.344   4.822   2.157  0.5708  0.1923 -0.0664
 7101SOL     OW28175   3.536   0.777   4.800 -0.1838 -0.0187 -0.2090
 7101SOL    HW228176   3.610   0.814   4.848  0.1396 -2.3547  1.2622
 7101SOL    HW328177   3.568   0.768   4.710  0.5835  0.8646 -0.0400
 7101SOL    MW428178   3.550   0.781   4.794 -0.0399 -0.2104  0.0074
 7102SOL     OW28179   3.447   1.420   3.915  0.2253 -0.1783  0.6184
 7102SOL    HW228180   3.364   1.396   3.956  0.4990 -4.1011 -0.7472
 7102SOL    HW328181   3.501   1.451   3.988 -2.2440  2.3364  1.5695
 7102SOL    MW428182   3.443   1.421   3.930 -0.0644 -0.3641  0.5637
 7103SOL     OW28183   4.209   4.931   3.781 -0.5743  0.6169 -0.5457
 7103SOL    HW228184   4.268   4.934   3.705 -1.5409  0.0733 -1.3349
 7103SOL    HW328185   4.122   4.950   3.745 -0.8555  1.8275  0.6627
 7103SOL    MW428186   4.205   4.934   3.766 -0.7389  0.7049 -0.4904
 7104SOL     OW28187   4.202   3.951   2.611  0.3201 -0.1416 -0.4152
 7104SOL    HW228188   4.187   3.860   2.636 -0.7045  0.0943 -0.1324
 7104SOL    HW328189   4.236   3.992   2.691  0.3923 -0.1864 -0.4231
 7104SOL    MW428190   4.204   3.944   2.625  0.1944 -0.1164 -0.3789
 7105SOL     OW28191   3.626   3.049   3.015  0.1117 -0.6780 -0.4703
 7105SOL    HW228192   3.668   3.114   3.071 -0.3670  0.5116 -1.4429
 7105SOL    HW328193   3.581   2.990   3.075  0.6793 -0.1925  0.4403
 7105SOL    MW428194   3.626   3.050   3.030  0.1234 -0.4570 -0.4785
 7106SOL     OW28195   6.398   0.838   5.357 -0.0283 -0.0317 -0.0589
 7106SOL    HW228196   6.379   0.787   5.436  1.3613 -1.6305 -0.6810
 7106SOL    HW328197   6.380   0.777   5.285 -0.3682  1.0910 -0.9450
 7106SOL    MW428198   6.393   0.823   5.358  0.1102 -0.0945 -0.2579
 7107SOL     OW28199   1.089   5.157   3.047  0.1686  0.0606 -0.0971
 7107SOL    HW228200   1.047   5.137   3.131 -0.7962 -3.4813 -1.2629
 7107SOL    HW328201   1.182   5.139   3.062  0.1856  0.6013  0.4999
 7107SOL    MW428202   1.096   5.152   3.060  0.0435 -0.3353 -0.1721
 7108SOL     OW28203   3.087   5.069   5.453  0.3102 -0.0657 -0.1790
 7108SOL    HW228204   3.068   4.978   5.476  2.0115 -0.8009 -1.4929
 7108SOL    HW328205   3.102   5.067   5.359  1.9814  1.2552  0.0109
 7108SOL    MW428206   3.087   5.057   5.444  0.7552  0.0116 -0.3273
 7109SOL     OW28207   5.789   3.251   1.143  0.4514  0.1647  0.0929
 7109SOL    HW228208   5.840   3.191   1.088 -0.1109  1.6823 -2.2059
 7109SOL    HW328209   5.850   3.281   1.210  0.6278 -3.2721  1.6832
 7109SOL    MW428210   5.804   3.247   1.145  0.4005 -0.0885 -0.0006
 7110SOL     OW28211   1.650   0.826   0.536 -0.2454  0.0831 -0.0710
 7110SOL    HW228212   1.668   0.886   0.464 -1.0401  0.1547 -0.2176
 7110SOL    HW328213   1.736   0.805   0.572  0.0475  1.2591 -0.0547
 7110SOL    MW428214   1.664   0.831   0.531 -0.3116  0.2477 -0.0882
 7111SOL     OW28215   4.456   4.447   3.843  0.1681  0.0389 -0.1073
 7111SOL    HW228216   4.508   4.367   3.857 -0.3211 -0.4193 -0.8453
 7111SOL    HW328217   4.370   4.426   3.878  0.2342  0.5067  0.3519
 7111SOL    MW428218   4.452   4.434   3.849  0.1123  0.0401 -0.1441
 7112SOL     OW28219   2.233   1.705   0.655 -0.2482  0.5127  0.1256
 7112SOL    HW228220   2.155   1.667   0.615 -1.1845  2.6138 -0.1494
 7112SOL    HW328221   2.212   1.708   0.749 -0.1173  0.2557  0.1648
 7112SOL    MW428222   2.220   1.700   0.662 -0.3544  0.7560  0.0945
 7113SOL     OW28223   6.318   4.935   3.315 -0.2979  0.4449  0.0351
 7113SOL    HW228224   6.285   5.015   3.358 -1.5058 -0.3031  0.5586
 7113SOL    HW328225   6.240   4.882   3.302  0.4954 -0.6578 -0.3069
 7113SOL    MW428226   6.304   4.939   3.319 -0.3526  0.2007  0.0590
 7114SOL     OW28227   4.628   6.038   2.214  0.8670 -0.2109 -0.2878
 7114SOL    HW228228   4.657   5.964   2.161 -1.2126 -0.6194 -0.9565
 7114SOL    HW328229   4.572   5.999   2.281  1.1311  0.6011  0.4243
 7114SOL    MW428230   4.624   6.023   2.216  0.6275 -0.1576 -0.2821
 7115SOL     OW28231   1.499   6.012   3.740  0.0519  0.2819  0.4092
 7115SOL    HW228232   1.424   5.985   3.687  1.8908  0.3605 -2.4131
 7115SOL    HW328233   1.576   5.991   3.687  2.1224 -0.1267  3.3000
 7115SOL    MW428234   1.499   6.006   3.726  0.5677  0.2383  0.4183
 7116SOL     OW28235   6.039   2.557   2.821 -0.4576 -0.1927 -0.0126
 7116SOL    HW228236   6.004   2.490   2.880 -0.3505 -0.7495 -0.5669
 7116SOL    HW328237   5.962   2.594   2.778 -0.7181  1.5368  1.8043
 7116SOL    MW428238   6.024   2.553   2.823 -0.4778 -0.0380  0.1540
 7117SOL     OW28239   5.070   6.311   4.362  0.0394  0.5822 -0.4517
 7117SOL    HW228240   5.003   6.286   4.426 -0.1348  0.9532 -0.4882
 7117SOL    HW328241   5.062   6.406   4.355  1.8490  0.9019  0.9994
 7117SOL    MW428242   5.060   6.320   4.369  0.2552  0.6733 -0.2651
 7118SOL     OW28243   0.448   2.448   2.362 -0.6983 -0.0900 -0.4862
 7118SOL    HW228244   0.478   2.373   2.311 -2.0496 -0.2713 -1.0616
 7118SOL    HW328245   0.360   2.465   2.330 -0.3571  1.8901 -0.5156
 7118SOL    MW428246   0.440   2.441   2.351 -0.8315  0.1473 -0.5660
 7119SOL     OW28247   5.151   4.623   0.792 -0.1915  0.0808  0.5656
 7119SOL    HW228248   5.130   4.530   0.789  2.6805 -0.6609  0.6283
 7119SOL    HW328249   5.141   4.653   0.701  3.3060 -1.4882 -0.4834
 7119SOL    MW428250   5.147   4.615   0.780  0.6489 -0.2241  0.4355
 7120SOL     OW28251   1.696   2.203   2.047  0.2053 -0.4670 -0.1020
 7120SOL    HW228252   1.727   2.180   1.960 -0.6206 -0.9113 -0.2955
 7120SOL    HW328253   1.672   2.120   2.087  2.5549 -0.5244  1.3840
 7120SOL    MW428254   1.697   2.189   2.041  0.4063 -0.5332  0.0686
 7121SOL     OW28255   3.963   2.429   1.101  0.3427  0.0012  0.2187
 7121SOL    HW228256   4.005   2.360   1.051 -0.8711  0.1652 -1.0860
 7121SOL    HW328257   4.008   2.509   1.075  0.8109 -0.1042  0.6733
 7121SOL    MW428258   3.974   2.431   1.091  0.2443  0.0090  0.1065
 7122SOL     OW28259   2.613   4.366   6.239  0.2252 -0.1030  0.6588
 7122SOL    HW228260   2.522   4.354   6.212  0.6973 -0.7612 -0.7393
 7122SOL    HW328261   2.662   4.307   6.182  1.3720 -1.0162  2.5082
 7122SOL    MW428262   2.607   4.356   6.228  0.4388 -0.3103  0.7183
 7123SOL     OW28263   2.627   4.915   0.412 -0.2819  0.2018 -0.1753
 7123SOL    HW228264   2.627   5.011   0.412  2.0402  0.2727  0.9308
 7123SOL    HW328265   2.588   4.891   0.495  0.7824  0.2790  0.3679
 7123SOL    MW428266   2.622   4.925   0.423  0.1649  0.2213  0.0423
 7124SOL     OW28267   1.251   6.318   5.046 -0.0931 -0.7776  0.3583
 7124SOL    HW228268   1.344   6.298   5.036  0.2415  0.9886 -0.5102
 7124SOL    HW328269   1.248   6.394   5.104 -0.7502  0.8945 -1.7364
 7124SOL    MW428270   1.263   6.326   5.052 -0.1357 -0.3240 -0.0327
 7125SOL     OW28271   4.685   0.348   3.009  0.0367 -0.2320  0.4951
 7125SOL    HW228272   4.754   0.331   2.945 -0.7419  2.2227 -1.1422
 7125SOL    HW328273   4.706   0.434   3.045 -2.4939  0.9842 -0.6656
 7125SOL    MW428274   4.696   0.357   3.005 -0.3999  0.2523  0.1259
 7126SOL     OW28275   5.026   3.326   0.744  0.3392 -0.7099 -0.5192
 7126SOL    HW228276   4.971   3.312   0.668 -0.2733 -0.4640 -0.1260
 7126SOL    HW328277   4.990   3.268   0.811  0.4167 -0.3765 -0.1876
 7126SOL    MW428278   5.014   3.316   0.743  0.2686 -0.6334 -0.4236
 7127SOL     OW28279   4.878   4.351   5.561  0.1836  0.2191 -0.0429
 7127SOL    HW228280   4.954   4.293   5.559 -0.7929 -1.1106 -0.5594
 7127SOL    HW328281   4.868   4.379   5.470  0.2700  0.6750  0.0889
 7127SOL    MW428282   4.887   4.347   5.548  0.0661  0.1038 -0.0937
 7128SOL     OW28283   5.139   0.760   1.078  0.4203 -0.2928 -0.4265
 7128SOL    HW228284   5.200   0.829   1.106  0.5349 -1.0146  1.2034
 7128SOL    HW328285   5.149   0.757   0.983  2.8101 -0.2760 -0.2327
 7128SOL    MW428286   5.149   0.769   1.069  0.7507 -0.3858 -0.1859
 7129SOL     OW28287   0.257   4.109   1.945  0.0678  0.2855 -0.1763
 7129SOL    HW228288   0.344   4.143   1.966  0.4209 -0.6921 -0.0285
 7129SOL    HW328289   0.230   4.062   2.024 -0.4881  0.3605 -0.3170
 7129SOL    MW428290   0.265   4.108   1.958  0.0411  0.1664 -0.1753
 7130SOL     OW28291   4.377   4.833   1.539  0.3943 -0.3762  0.3320
 7130SOL    HW228292   4.332   4.849   1.622  0.5255 -1.6835  0.6697
 7130SOL    HW328293   4.307   4.824   1.474  0.3018  1.0650  0.1966
 7130SOL    MW428294   4.362   4.834   1.541  0.3994 -0.3585  0.3587
 7131SOL     OW28295   1.223   4.973   5.048  0.2811 -0.6072 -0.5635
 7131SOL    HW228296   1.277   5.040   5.090 -1.6370  0.2941  0.6382
 7131SOL    HW328297   1.235   4.895   5.102 -1.1477  0.1826  1.0145
 7131SOL    MW428298   1.231   4.971   5.061 -0.1605 -0.3841 -0.1968
 7132SOL     OW28299   1.504   0.575   4.549 -0.1243 -0.1095 -0.5023
 7132SOL    HW228300   1.579   0.608   4.599 -0.5221  1.6975 -1.0070
 7132SOL    HW328301   1.517   0.611   4.461 -1.2573 -0.2888 -0.7530
 7132SOL    MW428302   1.516   0.584   4.544 -0.3263  0.1052 -0.6020
 7133SOL     OW28303   2.799   6.191   5.373 -0.2161  0.1359  0.0922
 7133SOL    HW228304   2.720   6.216   5.421  1.1075  2.9443  1.0358
 7133SOL    HW328305   2.788   6.097   5.355 -3.4527  0.2995  0.6668
 7133SOL    MW428306   2.787   6.182   5.377 -0.4685  0.5280  0.2925
 7134SOL     OW28307   6.121   2.226   0.489  0.0962 -0.0613  0.1977
 7134SOL    HW228308   6.204   2.210   0.533  0.2180  0.3068  0.1112
 7134SOL    HW328309   6.076   2.289   0.546 -0.5403 -0.9794  0.7401
 7134SOL    MW428310   6.126   2.232   0.502  0.0283 -0.1339  0.2578
 7135SOL     OW28311   0.771   5.046   0.379 -0.0751  0.0583 -0.3888
 7135SOL    HW228312   0.680   5.051   0.352  0.2697  2.3275 -1.3417
 7135SOL    HW328313   0.814   4.993   0.312 -0.4830 -0.0642 -0.5514
 7135SOL    MW428314   0.765   5.039   0.367 -0.0834  0.3415 -0.5360
 7136SOL     OW28315   5.044   2.493   0.456  0.8093 -0.2329 -0.0612
 7136SOL    HW228316   5.003   2.567   0.411 -0.0596 -0.9150 -0.4216
 7136SOL    HW328317   4.981   2.422   0.448  2.7281 -1.8668 -2.1429
 7136SOL    MW428318   5.030   2.493   0.449  0.9478 -0.5385 -0.3834
 7137SOL     OW28319   2.240   4.173   5.916  0.0194 -0.3720 -0.1279
 7137SOL    HW228320   2.160   4.222   5.937  0.1162  0.0550 -0.7449
 7137SOL    HW328321   2.310   4.238   5.921  0.1241 -0.3878 -1.1523
 7137SOL    MW428322   2.238   4.188   5.920  0.0460 -0.3177 -0.3445
 7138SOL     OW28323   2.263   2.384   1.396 -0.0909 -0.1638 -0.0960
 7138SOL    HW228324   2.177   2.419   1.371  0.7494  1.1656 -1.2728
 7138SOL    HW328325   2.263   2.389   1.492 -0.9947  0.6564 -0.1208
 7138SOL    MW428326   2.252   2.389   1.406 -0.0993  0.1198 -0.2545
 7139SOL     OW28327   4.847   6.006   4.805  0.1184  0.0163  0.0973
 7139SOL    HW228328   4.877   5.919   4.830 -1.4416 -0.0561  1.8933
 7139SOL    HW328329   4.772   5.990   4.748 -1.9167  0.0658  2.5959
 7139SOL    MW428330   4.841   5.992   4.800 -0.3559  0.0133  0.6639
 7140SOL     OW28331   3.761   4.172   1.663 -0.1285 -0.5942  0.2365
 7140SOL    HW228332   3.690   4.233   1.641  0.2774  0.5144  1.8048
 7140SOL    HW328333   3.733   4.133   1.746  1.1599 -0.0060  0.9715
 7140SOL    MW428334   3.748   4.175   1.671  0.0951 -0.3703  0.5404
 7141SOL     OW28335   4.098   5.433   0.968  0.0449  0.2783 -0.2136
 7141SOL    HW228336   4.191   5.447   0.982 -0.2076  1.0545  0.8419
 7141SOL    HW328337   4.061   5.521   0.959 -0.8799  0.1152  1.5653
 7141SOL    MW428338   4.105   5.447   0.969 -0.1105  0.3592  0.1604
 7142SOL     OW28339   0.236   5.020   0.827  0.4027  0.2411 -0.0971
 7142SOL    HW228340   0.189   5.006   0.910  0.0255 -0.2682 -0.3929
 7142SOL    HW328341   0.191   5.094   0.786 -0.7178 -0.7872 -0.7802
 7142SOL    MW428342   0.224   5.028   0.833  0.2051  0.0382 -0.2263
 7143SOL     OW28343   2.896   3.615   6.397 -0.0357 -0.3535 -0.3968
 7143SOL    HW228344   2.846   3.574   6.326  0.4303 -0.6962 -0.5240
 7143SOL    HW328345   2.949   3.681   6.353 -1.0218  0.6401 -0.1592
 7143SOL    MW428346   2.896   3.619   6.382 -0.1043 -0.2676 -0.3822
 7144SOL     OW28347   6.077   0.671   4.083 -0.2106 -0.2661 -0.2047
 7144SOL    HW228348   6.043   0.726   4.154 -0.3297 -0.2290 -0.2897
 7144SOL    HW328349   6.172   0.678   4.091 -0.1134 -2.7261  1.8895
 7144SOL    MW428350   6.085   0.680   4.094 -0.2135 -0.5857  0.0604
 7145SOL     OW28351   4.895   5.346   6.141 -0.4055 -0.3488  0.0446
 7145SOL    HW228352   4.844   5.381   6.214  0.7524  2.5550 -0.4099
 7145SOL    HW328353   4.834   5.289   6.094 -1.9813 -0.1326  1.7161
 7145SOL    MW428354   4.880   5.343   6.144 -0.4606  0.0628  0.2052
 7146SOL     OW28355   4.981   4.295   0.286 -0.3550  0.5672  0.3138
 7146SOL    HW228356   4.935   4.212   0.300 -0.0204  0.3064 -0.1288
 7146SOL    HW328357   4.937   4.334   0.210  0.0743  0.3710 -0.0402
 7146SOL    MW428358   4.969   4.289   0.278 -0.2542  0.5069  0.2087
 7147SOL     OW28359   3.801   5.501   1.607  0.6610  0.2326  0.3182
 7147SOL    HW228360   3.839   5.465   1.528  0.0349  1.0749 -0.3918
 7147SOL    HW328361   3.868   5.560   1.642  1.2387 -0.7133  0.8628
 7147SOL    MW428362   3.814   5.504   1.601  0.6546  0.2189  0.2964
 7148SOL     OW28363   4.370   0.809   0.946  0.0437 -0.1746 -0.5469
 7148SOL    HW228364   4.295   0.836   0.892  0.8606  1.2840 -1.0080
 7148SOL    HW328365   4.440   0.792   0.882  0.6958  0.4940 -0.0329
 7148SOL    MW428366   4.369   0.811   0.930  0.2375  0.1061 -0.5400
 7149SOL     OW28367   3.888   5.210   1.894 -0.1801 -0.6563  0.0371
 7149SOL    HW228368   3.890   5.122   1.857  1.8403 -0.2027 -1.0777
 7149SOL    HW328369   3.824   5.257   1.840 -0.6503 -1.2136  0.1017
 7149SOL    MW428370   3.880   5.205   1.882  0.0244 -0.6699 -0.1015
 7150SOL     OW28371   5.904   0.156   0.813 -0.5207 -0.0594 -0.3993
 7150SOL    HW228372   5.874   0.243   0.839 -0.7605 -0.0796 -0.6060
 7150SOL    HW328373   5.923   0.111   0.895 -0.5813  0.1219 -0.2859
 7150SOL    MW428374   5.903   0.161   0.827 -0.5603 -0.0382 -0.4116
 7151SOL     OW28375   4.140   2.636   5.037 -0.3485  0.3464  0.0580
 7151SOL    HW228376   4.109   2.714   4.991 -1.2405  0.2231  0.4340
 7151SOL    HW328377   4.067   2.610   5.093  1.1562  1.3900  2.7482
 7151SOL    MW428378   4.127   2.643   5.039 -0.2677  0.4678  0.4625
 7152SOL     OW28379   4.323   2.625   2.133  0.3271  0.2555  0.5763
 7152SOL    HW228380   4.368   2.700   2.094 -1.3227  1.4283  0.8115
 7152SOL    HW328381   4.389   2.582   2.188  0.7317  2.9443  2.3546
 7152SOL    MW428382   4.338   2.629   2.135  0.1628  0.7650  0.8420
 7153SOL     OW28383   5.975   3.264   3.777 -0.7629  0.7487  0.0444
 7153SOL    HW228384   5.994   3.353   3.809 -1.0341  1.2135 -1.0464
 7153SOL    HW328385   6.043   3.210   3.817 -0.3121  1.5207  0.3643
 7153SOL    MW428386   5.987   3.269   3.787 -0.7392  0.9118 -0.0573
 7154SOL     OW28387   2.969   4.583   5.309 -0.4402 -0.3264  0.8013
 7154SOL    HW228388   2.960   4.674   5.280 -0.3225  0.9355  4.2748
 7154SOL    HW328389   2.885   4.542   5.288 -1.4673  1.3370  1.4952
 7154SOL    MW428390   2.957   4.590   5.302 -0.5602  0.0596  1.3512
 7155SOL     OW28391   2.542   5.079   4.164 -0.1822  0.3465 -0.2656
 7155SOL    HW228392   2.611   5.025   4.126  0.4308  1.3114 -0.5749
 7155SOL    HW328393   2.574   5.169   4.154 -0.1878  0.6810  2.1234
 7155SOL    MW428394   2.556   5.084   4.158 -0.1021  0.5180  0.0088
 7156SOL     OW28395   3.190   5.340   2.297 -0.2627  0.5424  0.0463
 7156SOL    HW228396   3.211   5.369   2.386  0.1314 -0.6912  0.3677
 7156SOL    HW328397   3.104   5.299   2.306  0.6551 -1.4427  0.3063
 7156SOL    MW428398   3.181   5.338   2.310 -0.0896  0.1178  0.1230
 7157SOL     OW28399   0.425   1.925   6.145  0.0191 -0.6541 -0.6140
 7157SOL    HW228400   0.410   1.909   6.238 -0.3154 -0.1183 -0.5738
 7157SOL    HW328401   0.343   1.961   6.112  0.8423  1.3623 -0.6014
 7157SOL    MW428402   0.412   1.927   6.153  0.0836 -0.3173 -0.6071
 7158SOL     OW28403   2.736   3.869   4.250 -0.7676 -0.1892 -0.0337
 7158SOL    HW228404   2.655   3.912   4.275 -0.2699  0.3375  0.7357
 7158SOL    HW328405   2.800   3.900   4.315  0.2276  0.0348 -1.0824
 7158SOL    MW428406   2.734   3.879   4.262 -0.5706 -0.0902 -0.0706
 7159SOL     OW28407   3.046   4.168   3.152  0.0203 -0.3649 -0.2486
 7159SOL    HW228408   3.129   4.159   3.105  0.9562  0.3679  1.2269
 7159SOL    HW328409   3.065   4.136   3.240 -1.3544 -0.4456  0.0328
 7159SOL    MW428410   3.060   4.163   3.157 -0.0376 -0.2788 -0.0168
 7160SOL     OW28411   4.241   3.893   1.463 -0.2646  0.4116  0.0583
 7160SOL    HW228412   4.261   3.966   1.522  0.6066  0.5589 -0.3997
 7160SOL    HW328413   4.165   3.923   1.413 -1.3025  0.1125  1.3748
 7160SOL    MW428414   4.233   3.907   1.465 -0.2866  0.3916  0.1716
 7161SOL     OW28415   2.624   3.904   3.816  0.3056  0.5771  0.2567
 7161SOL    HW228416   2.690   3.894   3.885  1.4724 -1.3974 -1.0632
 7161SOL    HW328417   2.665   3.960   3.751 -0.7524  2.3407  1.0256
 7161SOL    MW428418   2.638   3.910   3.817  0.3199  0.5493  0.1840
 7162SOL     OW28419   3.683   3.825   0.588 -0.5406 -0.5615  0.0639
 7162SOL    HW228420   3.659   3.889   0.521 -0.3200  1.0217  1.4304
 7162SOL    HW328421   3.778   3.816   0.579 -0.4081  0.2027  0.6022
 7162SOL    MW428422   3.693   3.832   0.578 -0.4940 -0.2518  0.3152
 7163SOL     OW28423   0.552   0.734   2.964 -0.1971 -0.0985  0.2945
 7163SOL    HW228424   0.465   0.772   2.979 -0.3558 -0.2765 -0.1845
 7163SOL    HW328425   0.610   0.810   2.962 -0.7546  0.3644 -2.5706
 7163SOL    MW428426   0.548   0.749   2.966 -0.2916 -0.0609 -0.1467
 7164SOL     OW28427   4.131   4.099   5.976  0.1771  0.2355 -0.3447
 7164SOL    HW228428   4.066   4.148   6.027  0.8983 -0.8850  1.8058
 7164SOL    HW328429   4.192   4.166   5.945 -0.1015  0.9460  0.5875
 7164SOL    MW428430   4.130   4.114   5.979  0.2355  0.1814  0.0621
 7165SOL     OW28431   3.890   1.694   3.098 -0.1511 -0.4140  0.5347
 7165SOL    HW228432   3.858   1.672   3.011 -0.5201  2.3149 -0.1063
 7165SOL    HW328433   3.980   1.723   3.085  0.5590 -2.0903  1.4299
 7165SOL    MW428434   3.897   1.695   3.085 -0.1061 -0.2752  0.5683
 7166SOL     OW28435   1.969   4.827   6.036  0.0335 -0.5325  0.1009
 7166SOL    HW228436   1.915   4.767   5.985 -1.8677  0.1809  1.1447
 7166SOL    HW328437   2.017   4.771   6.097 -0.8748 -1.0821  0.3300
 7166SOL    MW428438   1.968   4.812   6.037 -0.3372 -0.5109  0.2688
 7167SOL     OW28439   4.978   3.098   3.429  0.0997 -0.5518  0.4424
 7167SOL    HW228440   4.883   3.091   3.425  0.1088 -0.9014  0.7686
 7167SOL    HW328441   4.994   3.186   3.462 -0.0753  0.0584 -1.0327
 7167SOL    MW428442   4.968   3.109   3.433  0.0778 -0.5174  0.2908
 7168SOL     OW28443   1.598   2.421   0.923 -0.3806 -0.0902  0.1062
 7168SOL    HW228444   1.685   2.459   0.911 -0.5282  0.5337  0.9141
 7168SOL    HW328445   1.574   2.387   0.837  0.1564  0.8204 -0.4138
 7168SOL    MW428446   1.606   2.421   0.910 -0.3292  0.1122  0.1442
 7169SOL     OW28447   0.458   5.161   3.371 -0.2686 -0.0093  0.0995
 7169SOL    HW228448   0.390   5.224   3.347 -0.0772 -0.1782 -0.9424
 7169SOL    HW328449   0.443   5.087   3.312  1.2437  0.2428 -0.6257
 7169SOL    MW428450   0.447   5.159   3.360 -0.0438  0.0016 -0.1337
 7170SOL     OW28451   3.106   5.826   5.466  0.1226  0.2844  0.3186
 7170SOL    HW228452   3.067   5.808   5.552  0.7605  2.5333  1.1481
 7170SOL    HW328453   3.053   5.775   5.405 -1.1705 -0.3742  1.9087
 7170SOL    MW428454   3.094   5.817   5.469  0.0361  0.4942  0.6378
 7171SOL     OW28455   5.823   4.040   1.589  0.6620 -0.0044  0.3683
 7171SOL    HW228456   5.808   4.002   1.502 -2.8721  0.5586  0.5935
 7171SOL    HW328457   5.902   3.996   1.621  1.6276 -0.8009 -2.7588
 7171SOL    MW428458   5.831   4.029   1.582  0.3231 -0.0352 -0.0146
 7172SOL     OW28459   0.778   4.372   0.423  0.2622 -0.4765 -0.0238
 7172SOL    HW228460   0.743   4.295   0.378  2.6567 -1.4329 -0.3874
 7172SOL    HW328461   0.796   4.434   0.353 -0.8526  0.1068  0.1860
 7172SOL    MW428462   0.775   4.370   0.407  0.4310 -0.5257 -0.0441
 7173SOL     OW28463   0.815   2.057   2.797  0.3202 -0.3238  0.0433
 7173SOL    HW228464   0.875   2.006   2.743 -0.3903 -0.9666 -0.1521
 7173SOL    HW328465   0.870   2.093   2.867  1.3838  1.0357 -1.4186
 7173SOL    MW428466   0.830   2.055   2.799  0.3668 -0.2293 -0.1754
 7174SOL     OW28467   6.240   1.749   3.584  0.1824 -0.7153  0.1007
 7174SOL    HW228468   6.149   1.771   3.565  0.4669  0.5074  0.0626
 7174SOL    HW328469   6.264   1.808   3.655  1.3747  0.0090 -0.8688
 7174SOL    MW428470   6.231   1.759   3.591  0.3772 -0.4584 -0.0322
 7175SOL     OW28471   6.220   6.414   0.902  0.0590 -0.0314 -0.2746
 7175SOL    HW228472   6.255   6.496   0.867  0.1967  0.1260  0.2273
 7175SOL    HW328473   6.147   6.441   0.958 -0.5537 -0.3230 -0.9181
 7175SOL    MW428474   6.215   6.429   0.905 -0.0037 -0.0491 -0.2933
 7176SOL     OW28475   5.165   4.422   1.827  0.2739 -0.2606  0.0759
 7176SOL    HW228476   5.149   4.447   1.737  5.2759  3.0020 -0.3082
 7176SOL    HW328477   5.121   4.488   1.880  0.5871  0.1640 -0.1950
 7176SOL    MW428478   5.157   4.434   1.822  0.9752  0.2259 -0.0105
 7177SOL     OW28479   3.137   4.126   0.903  0.1744 -0.3839 -0.2695
 7177SOL    HW228480   3.049   4.100   0.876 -0.0778  0.1361  0.0462
 7177SOL    HW328481   3.124   4.179   0.982  0.7638 -0.2657 -0.2450
 7177SOL    MW428482   3.124   4.130   0.910  0.2189 -0.2997 -0.2246
 7178SOL     OW28483   5.566   6.168   1.137 -0.6097 -0.0807  0.4265
 7178SOL    HW228484   5.576   6.160   1.231  0.7450  1.5658  0.4782
 7178SOL    HW328485   5.648   6.133   1.101 -0.6735  0.2598 -0.0662
 7178SOL    MW428486   5.578   6.163   1.144 -0.4394  0.1814  0.3683
 7179SOL     OW28487   3.150   2.833   3.510  0.1287 -0.8008 -0.2365
 7179SOL    HW228488   3.063   2.814   3.544  0.2056 -0.0681  0.3946
 7179SOL    HW328489   3.144   2.923   3.477  1.0981 -0.0733  1.4333
 7179SOL    MW428490   3.138   2.842   3.510  0.2668 -0.6082  0.0671
 7180SOL     OW28491   2.074   2.696   0.565 -0.4258  0.2700  0.3682
 7180SOL    HW228492   2.108   2.702   0.476 -2.4254  0.9058 -0.4094
 7180SOL    HW328493   2.017   2.773   0.574  0.1515  0.5361  2.4074
 7180SOL    MW428494   2.071   2.707   0.554 -0.6134  0.3890  0.5346
 7181SOL     OW28495   3.628   0.388   3.963 -0.5117  0.6742 -0.3996
 7181SOL    HW228496   3.541   0.352   3.978 -0.3421 -0.1771 -1.3229
 7181SOL    HW328497   3.686   0.311   3.965  0.2754  1.2665  0.5503
 7181SOL    MW428498   3.624   0.373   3.965 -0.3854  0.6400 -0.3961
 7182SOL     OW28499   3.954   1.466   4.697 -0.3429  0.0404  0.0064
 7182SOL    HW228500   3.920   1.515   4.622 -0.6375  0.7888  0.6146
 7182SOL    HW328501   3.982   1.534   4.759 -1.1420 -0.5432  1.0390
 7182SOL    MW428502   3.953   1.482   4.695 -0.4872  0.0621  0.2229
 7183SOL     OW28503   5.743   2.434   4.647 -0.2749 -0.0005 -0.4387
 7183SOL    HW228504   5.686   2.396   4.580 -0.6422 -0.0895 -0.0770
 7183SOL    HW328505   5.754   2.525   4.621  0.6463 -0.3430 -1.3391
 7183SOL    MW428506   5.737   2.441   4.635 -0.2018 -0.0574 -0.5098
 7184SOL     OW28507   6.001   1.204   1.961 -0.3415 -0.3192 -0.9494
 7184SOL    HW228508   6.036   1.224   1.874  1.1943 -0.9360 -0.5048
 7184SOL    HW328509   6.024   1.281   2.014 -1.9348  0.3895 -1.2358
 7184SOL    MW428510   6.009   1.217   1.957 -0.3491 -0.3070 -0.9285
 7185SOL     OW28511   3.209   0.149   3.460  0.5711 -0.5382 -0.4300
 7185SOL    HW228512   3.143   0.143   3.390  1.6163  0.3080 -1.5274
 7185SOL    HW328513   3.171   0.211   3.522 -0.6544 -1.7760  0.1306
 7185SOL    MW428514   3.195   0.156   3.459  0.5473 -0.5899 -0.5008
 7186SOL     OW28515   2.433   6.064   3.528  0.2005  0.0701 -0.4264
 7186SOL    HW228516   2.393   5.984   3.495  1.0421  0.2101 -1.8524
 7186SOL    HW328517   2.527   6.052   3.513  0.4451  0.8582  0.3858
 7186SOL    MW428518   2.440   6.052   3.522  0.3438  0.1925 -0.5074
 7187SOL     OW28519   0.658   5.808   2.406  0.1843 -0.2080  0.4197
 7187SOL    HW228520   0.597   5.776   2.472 -2.8644 -1.3825 -2.7046
 7187SOL    HW328521   0.741   5.766   2.429 -1.2737 -2.3618  2.2051
 7187SOL    MW428522   0.661   5.798   2.418 -0.4103 -0.6471  0.2430
 7188SOL     OW28523   5.331   0.565   1.601 -0.2929  0.0928 -0.0124
 7188SOL    HW228524   5.298   0.570   1.691 -0.3170 -2.5770  0.2037
 7188SOL    HW328525   5.266   0.514   1.554  1.3422 -1.5286 -0.6443
 7188SOL    MW428526   5.318   0.559   1.607 -0.0804 -0.4734 -0.0673
 7189SOL     OW28527   2.206   4.327   3.804  0.5876 -0.1553 -0.4809
 7189SOL    HW228528   2.115   4.306   3.780  0.9135 -0.5245 -1.4728
 7189SOL    HW328529   2.246   4.357   3.722  0.9010  1.7494  0.3167
 7189SOL    MW428530   2.199   4.328   3.790  0.6720  0.0473 -0.5065
 7190SOL     OW28531   6.091   1.658   5.693 -0.0894 -0.0241 -0.1637
 7190SOL    HW228532   6.051   1.732   5.738 -0.5446 -1.2451  1.5480
 7190SOL    HW328533   6.179   1.652   5.731 -1.2515 -2.5203  2.6000
 7190SOL    MW428534   6.098   1.667   5.704 -0.3028 -0.5145  0.4268
 7191SOL     OW28535   3.448   1.754   5.036 -0.3443 -0.2908 -0.5999
 7191SOL    HW228536   3.425   1.664   5.012  0.8677 -0.7671 -0.0634
 7191SOL    HW328537   3.542   1.751   5.053 -0.4918  0.8265  0.5651
 7191SOL    MW428538   3.457   1.742   5.035 -0.2039 -0.2062 -0.3754
 7192SOL     OW28539   5.411   2.248   2.748 -0.3155  0.3444  0.6365
 7192SOL    HW228540   5.498   2.211   2.764 -0.6753 -0.3773  0.9844
 7192SOL    HW328541   5.416   2.338   2.779  0.2363  0.2273  0.8854
 7192SOL    MW428542   5.423   2.255   2.754 -0.2902  0.2337  0.7153
 7193SOL     OW28543   5.212   1.646   3.811  0.3493  0.6104 -0.3152
 7193SOL    HW228544   5.297   1.609   3.786  0.0448  0.3721 -0.9914
 7193SOL    HW328545   5.234   1.713   3.876  1.1176  1.0407 -1.0025
 7193SOL    MW428546   5.226   1.650   3.817  0.4105  0.6357 -0.4951
 7194SOL     OW28547   0.848   1.685   0.562  0.5858  0.7434 -0.2224
 7194SOL    HW228548   0.856   1.590   0.558 -0.6537  0.6442 -0.8386
 7194SOL    HW328549   0.937   1.717   0.550  0.9317 -0.3285 -0.6415
 7194SOL    MW428550   0.861   1.677   0.560  0.4679  0.5889 -0.3590
 7195SOL     OW28551   1.436   0.824   3.548  0.6838  0.1542  0.0521
 7195SOL    HW228552   1.383   0.772   3.608  1.6628  0.7874  1.5173
 7195SOL    HW328553   1.486   0.760   3.498  1.3535 -0.3685  1.3481
 7195SOL    MW428554   1.436   0.809   3.549  0.9013  0.1688  0.4164
 7196SOL     OW28555   4.169   2.280   0.484  0.1305  0.2518  0.9613
 7196SOL    HW228556   4.264   2.292   0.477  0.1162 -0.1314 -0.0023
 7196SOL    HW328557   4.140   2.266   0.394 -1.0067  1.4792  1.1103
 7196SOL    MW428558   4.178   2.280   0.471 -0.0214  0.3632  0.8538
 7197SOL     OW28559   3.393   1.150   3.816 -0.4431 -0.1748 -0.2814
 7197SOL    HW228560   3.453   1.215   3.853  0.6976 -0.2542 -1.8980
 7197SOL    HW328561   3.355   1.107   3.893 -1.0501  2.1828  0.8575
 7197SOL    MW428562   3.396   1.153   3.831 -0.3727  0.1258 -0.3444
 7198SOL     OW28563   2.359   2.840   1.518 -0.7671  0.8264  0.5150
 7198SOL    HW228564   2.282   2.797   1.556 -0.0803 -0.9857 -0.0201
 7198SOL    HW328565   2.427   2.773   1.520 -0.0561  1.3906 -1.7613
 7198SOL    MW428566   2.358   2.825   1.523 -0.5827  0.6618  0.1441
 7199SOL     OW28567   2.496   1.724   5.003  0.1626 -0.1336  0.2110
 7199SOL    HW228568   2.481   1.728   4.908 -0.9486  0.3602  0.3881
 7199SOL    HW328569   2.434   1.657   5.034 -1.4774  1.6061  0.9126
 7199SOL    MW428570   2.486   1.715   4.994 -0.2004  0.1611  0.3269
 7200SOL     OW28571   0.406   0.508   2.024 -0.2559  0.0082 -0.8228
 7200SOL    HW228572   0.367   0.593   2.001  0.1781  0.6935  0.8293
 7200SOL    HW328573   0.499   0.528   2.037 -0.1638 -0.7159 -0.3457
 7200SOL    MW428574   0.413   0.522   2.023 -0.1865  0.0031 -0.5419
 7201SOL     OW28575   0.314   0.212   0.666 -0.3052  0.2297 -0.5094
 7201SOL    HW228576   0.258   0.290   0.666  2.1773  2.2017 -2.1823
 7201SOL    HW328577   0.332   0.196   0.759 -1.0963  1.4998 -0.1053
 7201SOL    MW428578   0.309   0.220   0.678 -0.0821  0.6575 -0.6768
 7202SOL     OW28579   0.990   2.109   1.972  0.3603 -0.2221  0.1553
 7202SOL    HW228580   0.984   2.154   1.888 -0.8881  1.8214  1.2424
 7202SOL    HW328581   1.079   2.128   2.003  0.3774  0.1300 -0.1041
 7202SOL    MW428582   1.001   2.118   1.965  0.1979  0.0940  0.2645
 7203SOL     OW28583   5.710   5.155   3.722 -0.3105  0.2774  0.1731
 7203SOL    HW228584   5.681   5.064   3.726 -0.1210  0.2067 -0.0296
 7203SOL    HW328585   5.744   5.173   3.810  1.0336 -0.3172 -0.1968
 7203SOL    MW428586   5.711   5.146   3.734 -0.1082  0.1896  0.0976
 7204SOL     OW28587   4.873   1.533   1.927 -0.1691 -0.0337 -0.1557
 7204SOL    HW228588   4.855   1.443   1.954  1.3208 -0.2288  0.2847
 7204SOL    HW328589   4.866   1.531   1.832  0.7199 -0.8536 -0.2289
 7204SOL    MW428590   4.870   1.521   1.918  0.1448 -0.1676 -0.1072
 7205SOL     OW28591   1.867   5.654   2.080  0.0555  0.5223 -0.4376
 7205SOL    HW228592   1.808   5.628   2.010  0.3549 -0.8588 -0.2066
 7205SOL    HW328593   1.954   5.652   2.040 -0.0489  3.1381 -0.9434
 7205SOL    MW428594   1.871   5.650   2.066  0.0812  0.6852 -0.4739
 7206SOL     OW28595   3.825   0.046   1.606  0.3141 -0.0583 -0.0461
 7206SOL    HW228596   3.853   0.091   1.685  0.0902  0.8875 -0.4956
 7206SOL    HW328597   3.758   0.102   1.568 -0.7827 -1.3197 -0.0456
 7206SOL    MW428598   3.820   0.059   1.611  0.1399 -0.0999 -0.1054
 7207SOL     OW28599   6.101   0.120   3.517  0.4665 -0.6635 -0.2081
 7207SOL    HW228600   6.088   0.074   3.600  0.3228  2.6189  1.7694
 7207SOL    HW328601   6.014   0.151   3.493  0.8432  0.3552 -0.3061
 7207SOL    MW428602   6.088   0.118   3.525  0.4972 -0.0960  0.0399
 7208SOL     OW28603   6.425   3.672   1.350  0.1800  0.4405  0.4976
 7208SOL    HW228604   6.422   3.750   1.405  0.4260 -0.2924  1.5910
 7208SOL    HW328605   6.518   3.653   1.341  0.0974 -0.3728  1.2158
 7208SOL    MW428606   6.437   3.680   1.356  0.2015  0.2365  0.7366
 7209SOL     OW28607   5.342   0.380   0.480 -0.2062 -0.4135 -0.3066
 7209SOL    HW228608   5.393   0.433   0.542 -0.8194  0.1299 -0.2521
 7209SOL    HW328609   5.397   0.303   0.463  0.1519 -0.3704  0.5944
 7209SOL    MW428610   5.356   0.377   0.486 -0.2399 -0.3361 -0.1805
 7210SOL     OW28611   1.112   2.778   5.811 -0.2367  0.4868  0.0750
 7210SOL    HW228612   1.171   2.799   5.884 -1.8398  2.1962  0.9558
 7210SOL    HW328613   1.071   2.861   5.789 -2.5686 -0.6792 -0.2514
 7210SOL    MW428614   1.114   2.791   5.818 -0.7559  0.5585  0.1481
 7211SOL     OW28615   2.504   2.775   4.046  0.2077  0.3246  0.4342
 7211SOL    HW228616   2.466   2.769   4.134 -0.0206  0.2213  0.3287
 7211SOL    HW328617   2.561   2.698   4.039 -0.1871  0.0421  0.2953
 7211SOL    MW428618   2.507   2.764   4.057  0.1255  0.2737  0.4020
 7212SOL     OW28619   4.160   1.240   3.114 -0.0715  0.1919  0.2968
 7212SOL    HW228620   4.240   1.188   3.109  0.0397  0.4450 -0.8902
 7212SOL    HW328621   4.164   1.283   3.200  0.9780  0.0677  0.3176
 7212SOL    MW428622   4.171   1.239   3.125  0.0816  0.2089  0.1430
 7213SOL     OW28623   2.489   4.397   5.904  0.0409  0.1095 -0.1655
 7213SOL    HW228624   2.584   4.396   5.896 -0.0307  1.2367 -1.6784
 7213SOL    HW328625   2.469   4.477   5.952 -0.1866  0.5680 -1.0062
 7213SOL    MW428626   2.499   4.407   5.909  0.0015  0.3187 -0.4760
 7214SOL     OW28627   4.912   0.303   5.608 -0.2297 -0.2414  0.1914
 7214SOL    HW228628   4.986   0.307   5.668 -1.2173  0.7526  1.3999
 7214SOL    HW328629   4.835   0.317   5.664 -1.6218 -3.8108 -0.5345
 7214SOL    MW428630   4.912   0.305   5.623 -0.5437 -0.5812  0.2551
 7215SOL     OW28631   0.375   4.503   1.341  0.1593 -0.7453 -0.2233
 7215SOL    HW228632   0.470   4.499   1.335  0.1139 -0.5510 -1.2340
 7215SOL    HW328633   0.345   4.423   1.298 -0.1369 -0.8188  0.1127
 7215SOL    MW428634   0.383   4.492   1.334  0.1143 -0.7294 -0.3123
 7216SOL     OW28635   5.996   0.942   1.545  0.8326  0.1284  0.0976
 7216SOL    HW228636   5.916   0.953   1.597  1.1498 -0.1809  0.6528
 7216SOL    HW328637   6.022   1.031   1.522  0.2851  0.2281 -0.1525
 7216SOL    MW428638   5.988   0.956   1.549  0.8022  0.1007  0.1378
 7217SOL     OW28639   4.681   5.895   5.029 -0.0555 -0.2914 -0.0491
 7217SOL    HW228640   4.735   5.938   5.096  0.1749 -0.3384 -0.2027
 7217SOL    HW328641   4.715   5.928   4.946 -1.7985  1.5244 -0.1167
 7217SOL    MW428642   4.693   5.905   5.027 -0.2551 -0.0580 -0.0783
 7218SOL     OW28643   6.215   4.115   2.299  0.5126  0.3054  0.1526
 7218SOL    HW228644   6.262   4.186   2.254 -0.4370  0.1109 -1.2101
 7218SOL    HW328645   6.136   4.157   2.333 -0.1650 -0.1179 -0.8563
 7218SOL    MW428646   6.211   4.130   2.297  0.2979  0.2239 -0.1603
 7219SOL     OW28647   2.364   1.302   4.035 -0.0049  0.0322  0.1442
 7219SOL    HW228648   2.451   1.265   4.051  0.8771  1.8167 -0.2075
 7219SOL    HW328649   2.366   1.325   3.942  0.7205  3.7303  0.9284
 7219SOL    MW428650   2.376   1.300   4.025  0.2072  0.7556  0.2013
 7220SOL     OW28651   2.158   0.959   1.689  0.3585 -0.4860 -0.3284
 7220SOL    HW228652   2.114   0.905   1.755  2.2548 -1.5329  0.1537
 7220SOL    HW328653   2.195   0.897   1.627  0.1412  0.4171 -1.3924
 7220SOL    MW428654   2.157   0.944   1.690  0.5801 -0.5050 -0.4052
 7221SOL     OW28655   4.574   0.407   0.603  0.2499  0.8509  0.1477
 7221SOL    HW228656   4.630   0.352   0.547  1.1441  0.0376  1.7870
 7221SOL    HW328657   4.606   0.392   0.692 -1.1832  2.0650  0.9136
 7221SOL    MW428658   4.586   0.398   0.607  0.1788  0.9038  0.4650
 7222SOL     OW28659   2.959   1.441   5.838  0.2237  0.5170  0.2063
 7222SOL    HW228660   2.909   1.481   5.766 -0.1785  0.2512  0.3387
 7222SOL    HW328661   2.957   1.347   5.819 -1.6658  0.2036  1.6606
 7222SOL    MW428662   2.952   1.434   5.826 -0.0786  0.4406  0.4156
 7223SOL     OW28663   4.395   2.009   1.027 -0.0558  0.1467  0.1269
 7223SOL    HW228664   4.464   2.045   0.973  1.3178 -0.3534  1.4846
 7223SOL    HW328665   4.440   1.957   1.093 -1.7190 -0.0622  1.1692
 7223SOL    MW428666   4.410   2.007   1.029 -0.0940  0.0531  0.4435
 7224SOL     OW28667   2.823   0.825   0.880  0.0931  0.7628 -0.1511
 7224SOL    HW228668   2.812   0.913   0.915  0.8161  1.0518 -0.6257
 7224SOL    HW328669   2.915   0.804   0.897  0.2587  0.6033 -1.1594
 7224SOL    MW428670   2.834   0.834   0.887  0.2104  0.7799 -0.3467
 7225SOL     OW28671   5.828   6.217   2.042  0.0020 -0.1900  0.4543
 7225SOL    HW228672   5.870   6.213   2.128 -0.4337 -1.1084  0.6367
 7225SOL    HW328673   5.748   6.165   2.052 -0.2359 -0.0080 -0.4104
 7225SOL    MW428674   5.823   6.210   2.055 -0.0869 -0.2871  0.3642
 7226SOL     OW28675   4.600   2.724   4.193 -0.3582 -0.4204  0.0401
 7226SOL    HW228676   4.667   2.767   4.139 -1.3067 -0.9173 -1.6275
 7226SOL    HW328677   4.608   2.765   4.279  0.0794  1.7022 -0.9313
 7226SOL    MW428678   4.610   2.735   4.197 -0.4256 -0.2059 -0.3080
 7227SOL     OW28679   5.305   0.019   4.884 -0.3528 -0.2126  0.4050
 7227SOL    HW228680   5.312  -0.067   4.842  0.1672  0.4126 -0.8395
 7227SOL    HW328681   5.211   0.029   4.901 -0.3875 -1.1288  0.8067
 7227SOL    MW428682   5.293   0.009   4.880 -0.2888 -0.2510  0.2938
 7228SOL     OW28683   4.076   0.629   3.585 -0.5139  0.4335 -0.1780
 7228SOL    HW228684   4.010   0.560   3.587 -0.1450  0.0303 -1.2424
 7228SOL    HW328685   4.062   0.679   3.666 -0.8009 -0.8698  0.5991
 7228SOL    MW428686   4.066   0.627   3.596 -0.5031  0.2083 -0.2159
 7229SOL     OW28687   4.768   5.694   5.436  0.5073 -0.0375  0.1792
 7229SOL    HW228688   4.697   5.672   5.376  0.9185 -0.2564 -0.2372
 7229SOL    HW328689   4.725   5.736   5.510 -0.0079  0.2386 -0.2689
 7229SOL    MW428690   4.753   5.696   5.438  0.4936 -0.0300  0.0651
 7230SOL     OW28691   2.508   3.995   3.167  0.2685  0.0508 -0.1148
 7230SOL    HW228692   2.546   4.069   3.214 -0.3887 -1.2937  2.7576
 7230SOL    HW328693   2.419   4.025   3.145 -0.1288  0.0463  1.3660
 7230SOL    MW428694   2.501   4.009   3.170  0.1294 -0.1272  0.4595
 7231SOL     OW28695   2.816   1.964   6.198  0.9071  0.6247  0.1198
 7231SOL    HW228696   2.776   1.999   6.118  0.7834 -0.9926 -0.5536
 7231SOL    HW328697   2.894   2.019   6.211  1.8771 -0.0986 -2.0895
 7231SOL    MW428698   2.821   1.976   6.189  1.0188  0.3159 -0.2605
 7232SOL     OW28699   4.563   3.580   2.429 -0.0878 -0.3600 -0.4030
 7232SOL    HW228700   4.478   3.611   2.398  0.1219 -0.7198 -1.3748
 7232SOL    HW328701   4.553   3.575   2.524 -0.6457  1.0787 -0.3550
 7232SOL    MW428702   4.551   3.583   2.437 -0.1337 -0.2176 -0.5249
 7233SOL     OW28703   0.105   4.913   4.741  0.3401  0.0050  0.1500
 7233SOL    HW228704   0.128   4.826   4.772 -2.4913 -1.1292 -0.6197
 7233SOL    HW328705   0.135   4.972   4.810  2.1265 -1.5363  0.7954
 7233SOL    MW428706   0.112   4.910   4.754  0.2022 -0.3480  0.1336
 7234SOL     OW28707   4.437   1.100   3.477  0.1809  0.5486 -0.6379
 7234SOL    HW228708   4.503   1.031   3.468  0.1865  0.4352  0.1942
 7234SOL    HW328709   4.470   1.172   3.422 -0.2099 -0.3643 -2.1204
 7234SOL    MW428710   4.450   1.101   3.469  0.1301  0.4132 -0.7237
 7235SOL     OW28711   4.370   5.521   1.027 -0.3864 -0.6959  0.7189
 7235SOL    HW228712   4.427   5.476   0.965 -0.9678  0.1953 -0.5067
 7235SOL    HW328713   4.394   5.614   1.018  0.5516 -0.6491  2.9202
 7235SOL    MW428714   4.381   5.528   1.018 -0.3393 -0.5721  0.8476
 7236SOL     OW28715   4.256   5.292   5.892  0.7464  0.4146 -0.3615
 7236SOL    HW228716   4.180   5.346   5.868  0.5516 -0.2394 -1.2925
 7236SOL    HW328717   4.220   5.203   5.902  1.4091  0.0705 -0.9665
 7236SOL    MW428718   4.241   5.287   5.890  0.8082  0.2829 -0.5642
 7237SOL     OW28719   4.558   0.578   5.505 -1.3780 -0.2424  0.0415
 7237SOL    HW228720   4.641   0.625   5.506 -2.5857  2.3808  3.8716
 7237SOL    HW328721   4.515   0.606   5.424  1.0745 -1.1432 -1.6709
 7237SOL    MW428722   4.563   0.588   5.495 -1.2138 -0.0151  0.3209
 7238SOL     OW28723   5.611   6.354   1.576  0.0782 -0.5266 -0.2577
 7238SOL    HW228724   5.645   6.433   1.535 -1.7821  0.3799 -0.1559
 7238SOL    HW328725   5.643   6.358   1.666 -0.2571  0.2799 -0.1690
 7238SOL    MW428726   5.620   6.365   1.583 -0.2115 -0.3006 -0.2325
 7239SOL     OW28727   1.029   1.264   1.096 -0.1634  0.0675  0.4838
 7239SOL    HW228728   0.972   1.189   1.115  0.7397 -0.5672  0.7245
 7239SOL    HW328729   0.970   1.329   1.056 -1.0019 -0.6745  0.4816
 7239SOL    MW428730   1.014   1.263   1.093 -0.1549 -0.1142  0.5153
 7240SOL     OW28731   1.844   0.362   3.873  0.7557 -0.1166 -0.0117
 7240SOL    HW228732   1.897   0.282   3.865 -1.4782 -1.7448  0.4783
 7240SOL    HW328733   1.813   0.361   3.964 -0.0474  0.8042 -0.2651
 7240SOL    MW428734   1.847   0.351   3.884  0.3550 -0.2100  0.0195
 7241SOL     OW28735   0.892   6.080   3.234  0.5637 -0.3627  0.3518
 7241SOL    HW228736   0.928   6.152   3.287 -0.0684 -0.3778  0.8202
 7241SOL    HW328737   0.845   6.025   3.297 -0.1317 -0.4304 -0.2021
 7241SOL    MW428738   0.890   6.082   3.249  0.3886 -0.3737  0.3405
 7242SOL     OW28739   6.050   0.132   0.581 -0.0541 -0.8160 -0.0528
 7242SOL    HW228740   6.005   0.151   0.664 -0.9297 -0.2240 -0.6389
 7242SOL    HW328741   6.084   0.044   0.592  1.7803  0.0151  1.7677
 7242SOL    MW428742   6.048   0.123   0.594  0.0724 -0.6282  0.1101
 7243SOL     OW28743   5.616   1.439   3.566  0.6978 -0.2880 -0.3517
 7243SOL    HW228744   5.594   1.505   3.501 -0.4965  0.0206  0.3390
 7243SOL    HW328745   5.559   1.365   3.545  1.0987 -0.6075 -0.3247
 7243SOL    MW428746   5.606   1.438   3.555  0.5931 -0.2894 -0.2570
 7244SOL     OW28747   3.497   4.817   5.781 -0.1952 -0.1110  0.5302
 7244SOL    HW228748   3.456   4.902   5.777 -0.0261  0.1191  2.4608
 7244SOL    HW328749   3.588   4.835   5.806  0.8954 -0.6720 -2.5552
 7244SOL    MW428750   3.504   4.830   5.784 -0.0290 -0.1547  0.3778
 7245SOL     OW28751   2.696   5.384   3.917  0.1436  0.6283 -0.3304
 7245SOL    HW228752   2.779   5.431   3.908  0.3204  0.6986  1.3299
 7245SOL    HW328753   2.643   5.416   3.844  0.6889  2.4897  0.0394
 7245SOL    MW428754   2.700   5.395   3.906  0.2389  0.8831 -0.0626
 7246SOL     OW28755   4.753   3.370   1.828 -0.4838 -0.7422  0.0342
 7246SOL    HW228756   4.770   3.314   1.904  0.2734 -0.9470 -0.2656
 7246SOL    HW328757   4.829   3.355   1.771  0.1218  1.1926  0.2895
 7246SOL    MW428758   4.766   3.360   1.831 -0.3040 -0.5140  0.0283
 7247SOL     OW28759   0.490   3.746   0.102 -0.5687  0.1986 -0.2787
 7247SOL    HW228760   0.535   3.829   0.118  2.6239 -1.3016 -0.6984
 7247SOL    HW328761   0.487   3.703   0.188 -0.9582  0.1360 -0.3180
 7247SOL    MW428762   0.495   3.751   0.115 -0.1989 -0.0076 -0.3393
 7248SOL     OW28763   2.143   3.269   4.129  0.1174  0.6799  0.1557
 7248SOL    HW228764   2.151   3.174   4.129 -0.7308  0.5916 -0.3759
 7248SOL    HW328765   2.202   3.298   4.198  1.0554 -0.1626 -0.2706
 7248SOL    MW428766   2.152   3.260   4.138  0.1293  0.5571  0.0293
 7249SOL     OW28767   2.433   4.472   0.918  0.5981 -0.5244  0.2313
 7249SOL    HW228768   2.408   4.477   0.826 -0.4697 -0.5080  0.5111
 7249SOL    HW328769   2.357   4.435   0.962  0.4971  0.8745  1.3210
 7249SOL    MW428770   2.420   4.468   0.912  0.4439 -0.3377  0.4120
 7250SOL     OW28771   2.614   3.829   0.733 -1.0452 -0.0208 -0.4834
 7250SOL    HW228772   2.524   3.809   0.761 -1.0732  1.7615  0.8568
 7250SOL    HW328773   2.658   3.744   0.734 -2.2438 -0.6774  0.6548
 7250SOL    MW428774   2.608   3.815   0.737 -1.2070  0.1277 -0.1564
 7251SOL     OW28775   2.377   0.529   2.310 -0.2560  0.1604  0.0570
 7251SOL    HW228776   2.355   0.466   2.378  1.1658  0.5628  0.9425
 7251SOL    HW328777   2.355   0.485   2.228 -1.0474 -0.7319  0.7276
 7251SOL    MW428778   2.371   0.515   2.308 -0.1728  0.0958  0.2623
 7252SOL     OW28779   3.375   4.455   2.435  0.1231 -0.4380 -0.4850
 7252SOL    HW228780   3.344   4.529   2.487  0.2638 -0.6488 -0.0918
 7252SOL    HW328781   3.327   4.461   2.353  2.2086  1.7913 -1.6693
 7252SOL    MW428782   3.365   4.466   2.431  0.4169 -0.1717 -0.5894
 7253SOL     OW28783   1.095   0.834   0.416 -0.3450 -0.3692 -0.2791
 7253SOL    HW228784   1.011   0.812   0.375 -1.1780  0.1273  1.1105
 7253SOL    HW328785   1.106   0.768   0.485 -0.9422  1.1642  1.3337
 7253SOL    MW428786   1.086   0.822   0.419 -0.5337 -0.1014  0.1170
 7254SOL     OW28787   3.541   1.797   2.684 -0.3715  0.1128  0.1201
 7254SOL    HW228788   3.534   1.702   2.691 -0.2235  0.1202  0.3706
 7254SOL    HW328789   3.516   1.829   2.770  0.4248  0.2536  0.3070
 7254SOL    MW428790   3.537   1.788   2.696 -0.2469  0.1323  0.1778
 7255SOL     OW28791   4.440   2.753   0.011 -0.1130 -0.1793  0.0711
 7255SOL    HW228792   4.474   2.717  -0.071 -1.1931 -0.0732 -0.4482
 7255SOL    HW328793   4.453   2.684   0.076 -1.6742 -1.3550 -0.7911
 7255SOL    MW428794   4.446   2.739   0.009 -0.4615 -0.3204 -0.1112
 7256SOL     OW28795   6.185   2.603   4.684  0.1983  0.3019 -0.0067
 7256SOL    HW228796   6.184   2.686   4.731 -1.7537  0.0868  0.4458
 7256SOL    HW328797   6.274   2.595   4.649  0.3866  2.6219 -0.1795
 7256SOL    MW428798   6.196   2.613   4.686 -0.0344  0.5796  0.0302
 7257SOL     OW28799   4.987   0.598   5.698  0.0259 -0.5197 -0.5496
 7257SOL    HW228800   5.080   0.584   5.684  0.0338 -2.2284  0.9825
 7257SOL    HW328801   4.982   0.677   5.752  0.6498 -0.9232  0.1082
 7257SOL    MW428802   4.999   0.607   5.703  0.1093 -0.7983 -0.2607
 7258SOL     OW28803   2.675   3.751   5.843 -0.8360 -0.0459 -0.0775
 7258SOL    HW228804   2.683   3.763   5.748  0.4407 -0.9978 -0.1142
 7258SOL    HW328805   2.763   3.725   5.871 -1.6991 -1.9768  1.0185
 7258SOL    MW428806   2.688   3.749   5.834 -0.7815 -0.4262  0.0623
 7259SOL     OW28807   5.613   2.777   0.521  0.0988  0.2449  0.0953
 7259SOL    HW228808   5.690   2.820   0.558  0.5165 -0.5667  0.2063
 7259SOL    HW328809   5.539   2.825   0.558  0.5148  2.4343 -1.6757
 7259SOL    MW428810   5.613   2.789   0.531  0.2088  0.4267 -0.1237
 7260SOL     OW28811   2.870   5.719   1.496  0.0583 -0.4588  0.1129
 7260SOL    HW228812   2.920   5.734   1.415  0.4652 -0.8521  0.2870
 7260SOL    HW328813   2.785   5.760   1.479  0.5651  0.5520 -0.0373
 7260SOL    MW428814   2.866   5.726   1.483  0.1789 -0.3773  0.1160
 7261SOL     OW28815   4.041   5.784   2.648  0.3877  0.1171 -0.0504
 7261SOL    HW228816   4.124   5.799   2.694  0.3213 -0.7278  0.3594
 7261SOL    HW328817   3.976   5.784   2.718  0.3702 -1.9505 -0.0263
 7261SOL    MW428818   4.044   5.786   2.664  0.3766 -0.2671  0.0068
 7262SOL     OW28819   4.528   3.055   1.123 -0.4067  0.6970 -0.2599
 7262SOL    HW228820   4.521   3.150   1.135 -3.4261  0.4101  0.9634
 7262SOL    HW328821   4.443   3.021   1.150 -0.0566 -2.2229 -2.4400
 7262SOL    MW428822   4.516   3.063   1.128 -0.7589  0.2739 -0.3861
 7263SOL     OW28823   1.564   2.808   2.394  0.0115 -0.4009  0.6815
 7263SOL    HW228824   1.494   2.774   2.339  0.2075 -1.7435  1.2089
 7263SOL    HW328825   1.645   2.778   2.351  0.3699  1.9391 -0.4557
 7263SOL    MW428826   1.566   2.799   2.381  0.0846 -0.2693  0.6011
 7264SOL     OW28827   2.368   1.996   4.135 -0.2312  0.6609 -0.1999
 7264SOL    HW228828   2.301   1.977   4.070 -0.5470 -1.6479  0.7156
 7264SOL    HW328829   2.392   2.087   4.119 -2.5644  1.1234 -1.4521
 7264SOL    MW428830   2.363   2.006   4.124 -0.5807  0.4173 -0.2444
 7265SOL     OW28831   1.963   4.453   4.713  0.6886 -0.0112 -0.3548
 7265SOL    HW228832   1.961   4.517   4.784 -0.2432 -1.1222  0.6660
 7265SOL    HW328833   1.896   4.389   4.736  0.6434 -0.6267 -2.0453
 7265SOL    MW428834   1.954   4.453   4.726  0.5597 -0.2390 -0.4432
 7266SOL     OW28835   2.176   4.264   0.375 -0.3118  0.4590 -0.0467
 7266SOL    HW228836   2.093   4.222   0.354 -0.3613 -0.2259  1.4049
 7266SOL    HW328837   2.152   4.341   0.426 -0.0620  0.4397  0.0993
 7266SOL    MW428838   2.162   4.269   0.379 -0.2853  0.3661  0.1641
 7267SOL     OW28839   5.529   1.013   1.020 -0.0945 -0.6673 -0.3835
 7267SOL    HW228840   5.625   1.012   1.015 -0.0706 -2.0765 -0.0728
 7267SOL    HW328841   5.505   0.923   1.041 -1.4754 -0.2443 -0.0275
 7267SOL    MW428842   5.539   1.001   1.022 -0.2736 -0.7974 -0.2955
 7268SOL     OW28843   1.290   3.634   1.391 -0.4303 -0.7100  0.0665
 7268SOL    HW228844   1.320   3.567   1.329 -0.6160 -1.4654  0.7823
 7268SOL    HW328845   1.247   3.585   1.461 -1.6810  0.2346 -0.0013
 7268SOL    MW428846   1.288   3.619   1.392 -0.6198 -0.6851  0.1520
 7269SOL     OW28847   1.208   3.881   5.199  0.1072 -0.1287 -0.2335
 7269SOL    HW228848   1.286   3.935   5.183 -1.5148  2.6436  0.4791
 7269SOL    HW328849   1.151   3.899   5.124  0.0753 -2.1037 -0.7416
 7269SOL    MW428850   1.211   3.891   5.187 -0.1110 -0.0235 -0.2065
 7270SOL     OW28851   0.177   5.667   4.629 -0.9508  0.2242 -0.3849
 7270SOL    HW228852   0.119   5.709   4.566 -0.0590 -0.4085 -1.6724
 7270SOL    HW328853   0.265   5.688   4.599 -0.4894 -1.6972 -0.5156
 7270SOL    MW428854   0.181   5.675   4.617 -0.7723 -0.1128 -0.5720
 7271SOL     OW28855   4.773   2.888   3.331 -0.5382 -0.0938 -0.3728
 7271SOL    HW228856   4.698   2.828   3.335  1.1338 -2.2653  1.1522
 7271SOL    HW328857   4.825   2.856   3.258  0.7282 -1.0743  0.8905
 7271SOL    MW428858   4.770   2.876   3.322 -0.1505 -0.5097 -0.0049
 7272SOL     OW28859   1.258   2.989   4.015 -0.5066 -0.1722  0.7779
 7272SOL    HW228860   1.175   3.028   3.987 -0.9297 -1.6035 -0.1081
 7272SOL    HW328861   1.233   2.919   4.074 -0.0957 -1.7475 -0.8215
 7272SOL    MW428862   1.244   2.985   4.019 -0.5082 -0.5689  0.4500
 7273SOL     OW28863   2.116   4.197   4.863  0.3001 -0.2146 -0.4196
 7273SOL    HW228864   2.050   4.208   4.932  1.6332  0.1609  0.8432
 7273SOL    HW328865   2.100   4.271   4.803  0.7060  0.9706  0.8722
 7273SOL    MW428866   2.105   4.208   4.864  0.5295 -0.0087 -0.0825
 7274SOL     OW28867   2.809   4.335   2.675  0.5001  0.0807  0.3027
 7274SOL    HW228868   2.842   4.270   2.614  1.3670  0.2350  0.5965
 7274SOL    HW328869   2.854   4.416   2.651  0.8002  0.1583  1.0937
 7274SOL    MW428870   2.819   4.337   2.664  0.6541  0.1113  0.4459
 7275SOL     OW28871   1.760   2.491   3.718 -0.2206 -0.0410 -0.4143
 7275SOL    HW228872   1.760   2.400   3.688 -1.6428 -0.1106 -0.2726
 7275SOL    HW328873   1.851   2.518   3.710  0.1149 -1.2572 -1.1249
 7275SOL    MW428874   1.772   2.482   3.713 -0.3640 -0.2106 -0.4893
 7276SOL     OW28875   3.934   4.022   5.473 -0.1317 -0.3867  0.2577
 7276SOL    HW228876   4.008   4.083   5.478 -0.0887 -0.4806  0.7414
 7276SOL    HW328877   3.859   4.079   5.454  0.1292 -0.3399 -0.6741
 7276SOL    MW428878   3.934   4.038   5.471 -0.0916 -0.3929  0.1986
 7277SOL     OW28879   4.395   5.944   6.418 -0.1896 -0.2907 -0.0810
 7277SOL    HW228880   4.489   5.956   6.406  0.0684  0.3951  2.1430
 7277SOL    HW328881   4.384   5.850   6.435  0.3058 -0.1711  0.9938
 7277SOL    MW428882   4.406   5.933   6.419 -0.0902 -0.1845  0.3543
 7278SOL     OW28883   5.396   5.121   2.183 -0.3194  0.3320  0.4311
 7278SOL    HW228884   5.478   5.112   2.232 -0.3967  2.1592  0.9760
 7278SOL    HW328885   5.423   5.150   2.096 -0.3701  0.6665  0.5263
 7278SOL    MW428886   5.410   5.123   2.178 -0.3363  0.6172  0.5155
 7279SOL     OW28887   3.561   0.066   4.805  1.1130  0.2050  0.4708
 7279SOL    HW228888   3.484   0.058   4.861  1.7571  0.5917  1.4365
 7279SOL    HW328889   3.604  -0.020   4.812  0.2622 -0.3789 -0.8901
 7279SOL    MW428890   3.557   0.053   4.813  1.0858  0.1790  0.4186
 7280SOL     OW28891   4.193   5.463   6.348  0.2768 -0.4460 -0.1763
 7280SOL    HW228892   4.209   5.399   6.418  1.2056 -0.2993 -0.2447
 7280SOL    HW328893   4.250   5.537   6.369 -1.4465  0.7676  0.3929
 7280SOL    MW428894   4.203   5.464   6.360  0.1720 -0.2665 -0.1102
 7281SOL     OW28895   3.240   5.667   4.455  0.0280 -0.0836 -0.0328
 7281SOL    HW228896   3.307   5.706   4.510  1.2563  0.2735 -1.6972
 7281SOL    HW328897   3.220   5.734   4.390 -0.9595 -0.6902 -0.3846
 7281SOL    MW428898   3.246   5.681   4.454  0.0598 -0.1165 -0.2988
 7282SOL     OW28899   4.969   1.462   3.922 -0.1171  0.1942  1.0622
 7282SOL    HW228900   4.969   1.537   3.982  3.6309 -0.0448  1.5827
 7282SOL    HW328901   5.016   1.493   3.845 -2.2323 -0.4538 -0.5980
 7282SOL    MW428902   4.975   1.476   3.920  0.0983  0.0772  0.9118
 7283SOL     OW28903   1.809   2.203   6.303 -0.6793  0.0200 -0.1059
 7283SOL    HW228904   1.835   2.120   6.342 -0.8978 -0.2607 -0.5385
 7283SOL    HW328905   1.719   2.216   6.332 -1.1026 -0.5649 -1.0942
 7283SOL    MW428906   1.800   2.194   6.312 -0.7640 -0.0942 -0.2933
 7284SOL     OW28907   0.346   0.880   3.277 -0.2173 -0.7278  0.1201
 7284SOL    HW228908   0.265   0.928   3.294 -0.4721 -0.6370 -1.2182
 7284SOL    HW328909   0.318   0.802   3.230  0.5825  0.1022 -1.8455
 7284SOL    MW428910   0.332   0.876   3.273 -0.1454 -0.6063 -0.3158
 7285SOL     OW28911   5.371   4.039   1.594  0.3673 -0.5406  0.4861
 7285SOL    HW228912   5.396   4.130   1.608  1.0142 -0.6511  0.0676
 7285SOL    HW328913   5.436   3.988   1.643 -0.2885 -0.7683  1.1391
 7285SOL    MW428914   5.383   4.044   1.603  0.3661 -0.5852  0.5171
 7286SOL     OW28915   6.154   0.062   1.855  0.5590  0.4646 -0.1935
 7286SOL    HW228916   6.103   0.132   1.897  0.1582  1.3674 -2.0877
 7286SOL    HW328917   6.238   0.103   1.835  0.7955  0.0001 -0.1617
 7286SOL    MW428918   6.158   0.077   1.858  0.5373  0.5225 -0.4392
 7287SOL     OW28919   3.258   2.938   6.244  0.6253  0.0388  0.4700
 7287SOL    HW228920   3.311   2.859   6.234  0.5564  0.1985 -1.5122
 7287SOL    HW328921   3.228   2.958   6.155 -1.3736  0.9156  1.2987
 7287SOL    MW428922   3.261   2.931   6.231  0.3525  0.1756  0.3178
 7288SOL     OW28923   1.656   2.445   5.893 -0.3996 -0.2033  0.5313
 7288SOL    HW228924   1.594   2.451   5.965 -0.0534 -0.1831  0.8306
 7288SOL    HW328925   1.717   2.376   5.920 -0.1486 -0.0520  0.3497
 7288SOL    MW428926   1.656   2.436   5.906 -0.3208 -0.1807  0.5468
 7289SOL     OW28927   5.800   0.620   5.928 -0.2435 -0.2707 -0.4496
 7289SOL    HW228928   5.860   0.691   5.903  0.0844 -1.2046 -2.4785
 7289SOL    HW328929   5.854   0.562   5.982  1.0116 -1.4698 -2.8307
 7289SOL    MW428930   5.815   0.622   5.932 -0.0346 -0.5521 -1.0315
 7290SOL     OW28931   3.089   4.858   3.160  0.1782  0.4440  0.5478
 7290SOL    HW228932   3.008   4.910   3.155 -0.0918  0.1997  1.9700
 7290SOL    HW328933   3.127   4.865   3.072 -2.0689 -0.5598 -0.5982
 7290SOL    MW428934   3.083   4.866   3.147 -0.1539  0.2794  0.5843
 7291SOL     OW28935   0.817   2.978   5.645 -0.2806  0.2557 -0.0745
 7291SOL    HW228936   0.820   2.904   5.583 -0.4931  1.0790 -1.0973
 7291SOL    HW328937   0.740   3.028   5.618 -2.0830 -0.8325  2.6384
 7291SOL    MW428938   0.807   2.975   5.633 -0.5465  0.2208  0.1485
 7292SOL     OW28939   0.088   0.075   1.521  0.6333 -0.2603 -0.2520
 7292SOL    HW228940   0.081   0.019   1.598  0.5515 -1.5258 -1.1485
 7292SOL    HW328941   0.180   0.099   1.517  0.8906 -1.2275 -0.4471
 7292SOL    MW428942   0.099   0.071   1.530  0.6564 -0.5549 -0.3960
 7293SOL     OW28943   0.144   1.201   0.693  0.5371 -0.0891 -0.1882
 7293SOL    HW228944   0.092   1.237   0.765  1.3387 -0.4678  0.5947
 7293SOL    HW328945   0.229   1.182   0.731  0.7400 -1.0231 -1.0520
 7293SOL    MW428946   0.148   1.203   0.707  0.6696 -0.2623 -0.1989
 7294SOL     OW28947   1.147   1.238   4.448 -0.3708  0.5640 -0.5036
 7294SOL    HW228948   1.193   1.184   4.384  0.1176  1.3878 -0.8674
 7294SOL    HW328949   1.206   1.243   4.523 -1.0170 -0.5457  0.1049
 7294SOL    MW428950   1.161   1.232   4.450 -0.3916  0.5263 -0.4713
 7295SOL     OW28951   3.606   1.568   3.398  0.4516  0.6841 -0.6144
 7295SOL    HW228952   3.564   1.483   3.383  2.8288 -0.4785 -1.1343
 7295SOL    HW328953   3.578   1.593   3.486 -0.4417 -0.5478 -0.5143
 7295SOL    MW428954   3.597   1.560   3.407  0.6474  0.3681 -0.6698
 7296SOL     OW28955   2.536   1.412   1.822 -0.2182 -0.1328 -0.8802
 7296SOL    HW228956   2.625   1.376   1.823 -0.1317 -0.1269  2.2140
 7296SOL    HW328957   2.549   1.507   1.821 -0.0478 -0.0813  1.4565
 7296SOL    MW428958   2.550   1.420   1.822 -0.1843 -0.1252 -0.1637
 7297SOL     OW28959   4.124   6.202   1.095  0.6619  0.4779 -0.2873
 7297SOL    HW228960   4.142   6.140   1.024  0.8685 -0.9109  0.9254
 7297SOL    HW328961   4.091   6.280   1.051  0.5386 -0.4353 -1.8926
 7297SOL    MW428962   4.122   6.204   1.080  0.6729  0.1742 -0.3391
 7298SOL     OW28963   3.813   3.070   1.630  0.2330 -0.1549  0.0683
 7298SOL    HW228964   3.862   3.115   1.561  0.4537  0.5139  0.6411
 7298SOL    HW328965   3.859   3.094   1.711 -1.7974  1.6485  0.7965
 7298SOL    MW428966   3.825   3.079   1.632 -0.0057  0.1713  0.2400
 7299SOL     OW28967   4.552   1.576   5.134 -0.1873  0.0913 -0.0553
 7299SOL    HW228968   4.598   1.580   5.050 -0.3010  2.0039 -0.0762
 7299SOL    HW328969   4.480   1.639   5.124 -0.2743  0.2540  1.4408
 7299SOL    MW428970   4.548   1.585   5.122 -0.2138  0.3651  0.1394
 7300SOL     OW28971   2.420   1.922   1.682  0.0307 -0.5846 -0.1473
 7300SOL    HW228972   2.506   1.941   1.644 -0.6456  0.3945 -1.2636
 7300SOL    HW328973   2.434   1.845   1.736  1.3930 -1.0539 -1.1122
 7300SOL    MW428974   2.433   1.915   1.684  0.1212 -0.5174 -0.4219
 7301SOL     OW28975   4.202   4.589   5.981  0.0415 -0.4674  0.1530
 7301SOL    HW228976   4.155   4.661   6.024  0.6092 -0.1745  0.2866
 7301SOL    HW328977   4.133   4.529   5.953 -0.4656  0.2606 -0.1967
 7301SOL    MW428978   4.187   4.591   5.983  0.0495 -0.3327  0.1245
 7302SOL     OW28979   0.242   3.585   3.255 -0.3650 -0.3289  0.0410
 7302SOL    HW228980   0.161   3.580   3.204 -0.3777  0.6460 -0.0542
 7302SOL    HW328981   0.268   3.677   3.249  0.0471 -0.3614  1.1617
 7302SOL    MW428982   0.235   3.597   3.247 -0.3123 -0.2046  0.1763
 7303SOL     OW28983   0.218   1.892   0.708 -0.1594  0.0334 -0.3579
 7303SOL    HW228984   0.293   1.835   0.720 -0.2278  0.2826  1.6128
 7303SOL    HW328985   0.243   1.949   0.635  0.8507 -0.9688 -0.8306
 7303SOL    MW428986   0.231   1.892   0.700 -0.0352 -0.0660 -0.1603
 7304SOL     OW28987   0.218   4.673   4.843 -0.2120 -0.2686  0.7589
 7304SOL    HW228988   0.264   4.640   4.766 -1.5679 -0.7224  0.1317
 7304SOL    HW328989   0.221   4.600   4.905 -1.7643 -1.0342 -0.0165
 7304SOL    MW428990   0.225   4.659   4.841 -0.5957 -0.4295  0.5738
 7305SOL     OW28991   2.779   0.095   4.819 -0.2543  0.7299 -0.7550
 7305SOL    HW228992   2.745   0.183   4.804  0.3980  1.7560  2.7514
 7305SOL    HW328993   2.871   0.109   4.841 -0.0668 -0.8513 -0.4372
 7305SOL    MW428994   2.787   0.108   4.820 -0.1435  0.6567 -0.2505
 7306SOL     OW28995   3.915   1.161   5.510  0.1035  0.2595  0.1526
 7306SOL    HW228996   3.883   1.154   5.420  0.2700 -1.2257  0.1804
 7306SOL    HW328997   3.836   1.179   5.562 -0.7224 -2.8156  0.1504
 7306SOL    MW428998   3.900   1.163   5.505  0.0165 -0.3422  0.1560
 7307SOL     OW28999   4.817   4.140   3.147 -0.1465 -0.3553  0.3684
 7307SOL    HW229000   4.869   4.111   3.222 -0.4434 -3.1791 -0.4278
 7307SOL    HW329001   4.872   4.122   3.071 -0.7199  0.4249 -0.2494
 7307SOL    MW429002   4.831   4.134   3.147 -0.2613 -0.6249  0.1818
 7308SOL     OW29003   5.277   5.455   3.565  0.1072 -0.2646 -0.0169
 7308SOL    HW229004   5.329   5.535   3.574 -0.7415  0.3570 -0.5028
 7308SOL    HW329005   5.302   5.401   3.641  0.1556  0.7695  0.7210
 7308SOL    MW429006   5.287   5.458   3.577  0.0016 -0.0461  0.0164
 7309SOL     OW29007   5.863   4.303   1.524 -0.3066  0.5034 -0.5151
 7309SOL    HW229008   5.805   4.323   1.450 -0.2793  0.6411 -0.4996
 7309SOL    HW329009   5.853   4.209   1.538 -0.1934  0.4498 -0.7936
 7309SOL    MW429010   5.854   4.293   1.516 -0.2881  0.5145 -0.5498
 7310SOL     OW29011   5.246   2.437   1.280 -0.3285 -0.0332 -0.1507
 7310SOL    HW229012   5.176   2.442   1.345 -0.3050  1.4581 -0.2135
 7310SOL    HW329013   5.202   2.409   1.200 -0.8722  0.9302 -0.2012
 7310SOL    MW429014   5.231   2.434   1.278 -0.3971  0.2907 -0.1657
 7311SOL     OW29015   1.261   0.608   4.895 -0.3180  0.4353  0.2418
 7311SOL    HW229016   1.281   0.692   4.937  1.8167  0.6520 -1.0704
 7311SOL    HW329017   1.240   0.631   4.805 -0.2064 -0.3992 -0.0013
 7311SOL    MW429018   1.261   0.622   4.889 -0.0217  0.3538  0.0366
 7312SOL     OW29019   4.193   2.592   2.697  0.2840  0.2860  0.7999
 7312SOL    HW229020   4.134   2.596   2.622  0.2128  1.1640  0.8960
 7312SOL    HW329021   4.276   2.626   2.665  0.5273 -0.2225  0.8743
 7312SOL    MW429022   4.196   2.597   2.683  0.3067  0.3348  0.8224
 7313SOL     OW29023   0.613   3.239   2.166  0.2191  0.5806  0.2405
 7313SOL    HW229024   0.529   3.200   2.140  0.7682 -0.2345 -0.3704
 7313SOL    HW329025   0.636   3.297   2.094 -0.2835  1.5720  0.8585
 7313SOL    MW429026   0.605   3.241   2.153  0.2252  0.6038  0.2415
 7314SOL     OW29027   2.441   4.821   0.655 -0.0748  0.0099 -0.2430
 7314SOL    HW229028   2.468   4.844   0.744  2.1831 -2.2730 -0.2466
 7314SOL    HW329029   2.399   4.736   0.663  0.7424 -0.5345 -1.4068
 7314SOL    MW429030   2.439   4.813   0.668  0.3309 -0.3631 -0.3970
 7315SOL     OW29031   0.551   5.169   5.681 -0.1160 -0.4352  0.4792
 7315SOL    HW229032   0.475   5.215   5.644 -0.4531  0.1137  1.7702
 7315SOL    HW329033   0.515   5.124   5.758  1.1783  1.4197  2.2838
 7315SOL    MW429034   0.536   5.169   5.686  0.0103 -0.1181  0.8877
 7316SOL     OW29035   2.630   6.197   2.358  0.0874  0.1685 -0.4431
 7316SOL    HW229036   2.614   6.103   2.371  0.1090  0.3262  0.8370
 7316SOL    HW329037   2.611   6.236   2.443  0.8241  1.2285 -0.7492
 7316SOL    MW429038   2.625   6.190   2.371  0.1875  0.3292 -0.3146
 7317SOL     OW29039   6.384   1.524   3.518  0.1828 -0.4356  0.5010
 7317SOL    HW229040   6.424   1.561   3.439 -0.9277  2.6387  1.2328
 7317SOL    HW329041   6.315   1.587   3.541 -0.1427 -1.7240  3.3988
 7317SOL    MW429042   6.380   1.537   3.510 -0.0067 -0.2000  0.9799
 7318SOL     OW29043   5.957   4.090   0.657 -0.1455 -0.0763 -0.0414
 7318SOL    HW229044   5.960   3.995   0.645  0.1236  0.0215 -0.7948
 7318SOL    HW329045   6.049   4.117   0.664 -0.2405  0.0653  0.7553
 7318SOL    MW429046   5.969   4.081   0.656 -0.1225 -0.0447 -0.0357
 7319SOL     OW29047   0.967   1.786   5.703  0.4038  0.0665 -0.2010
 7319SOL    HW229048   0.931   1.766   5.789  1.2406 -1.8231 -0.2359
 7319SOL    HW329049   0.909   1.740   5.642  1.6295 -1.3282 -0.3864
 7319SOL    MW429050   0.954   1.777   5.706  0.6759 -0.3668 -0.2301
 7320SOL     OW29051   6.324   4.692   1.649  0.0383 -0.2402 -0.3974
 7320SOL    HW229052   6.261   4.733   1.590  0.4073  0.6554 -0.1844
 7320SOL    HW329053   6.409   4.709   1.610  0.2210 -0.5120 -0.1249
 7320SOL    MW429054   6.327   4.700   1.636  0.1111 -0.1579 -0.3333
 7321SOL     OW29055   5.576   5.877   2.165  0.0453  0.2833  0.5893
 7321SOL    HW229056   5.602   5.863   2.256  2.2784 -0.1175 -0.0365
 7321SOL    HW329057   5.637   5.822   2.115 -0.1628  1.6269 -1.2085
 7321SOL    MW429058   5.588   5.868   2.171  0.3125  0.4077  0.2695
 7322SOL     OW29059   5.408   1.842   2.458  0.1725  0.1386 -0.3642
 7322SOL    HW229060   5.451   1.815   2.376 -0.8681 -1.7883 -0.3549
 7322SOL    HW329061   5.360   1.921   2.434 -1.7513 -1.4560 -2.2796
 7322SOL    MW429062   5.407   1.849   2.444 -0.2186 -0.3260 -0.6157
 7323SOL     OW29063   4.936   0.532   1.126 -0.3431  0.2307 -0.0694
 7323SOL    HW229064   4.945   0.573   1.040  0.5255  1.2911  0.5051
 7323SOL    HW329065   4.971   0.444   1.115  1.0249  0.8018 -0.4903
 7323SOL    MW429066   4.942   0.526   1.113 -0.0480  0.4460 -0.0491
 7324SOL     OW29067   1.126   1.733   4.055  0.1115  0.3867  0.1197
 7324SOL    HW229068   1.179   1.732   3.976 -0.1004  2.6411 -0.1174
 7324SOL    HW329069   1.182   1.776   4.121 -0.5146  0.5784  0.5386
 7324SOL    MW429070   1.141   1.739   4.053  0.0010  0.7094  0.1437
 7325SOL     OW29071   0.442   0.754   5.510  0.4122  0.4721 -0.3626
 7325SOL    HW229072   0.371   0.816   5.529  0.9837  1.3451 -1.0086
 7325SOL    HW329073   0.401   0.688   5.453 -0.7866 -1.0632  2.0881
 7325SOL    MW429074   0.427   0.753   5.505  0.3294  0.3847 -0.1245
 7326SOL     OW29075   6.370   4.447   5.246 -0.1041 -0.0137 -0.0719
 7326SOL    HW229076   6.416   4.504   5.308  2.8337 -1.4604 -0.7493
 7326SOL    HW329077   6.353   4.504   5.171 -0.8954  0.9410  0.7826
 7326SOL    MW429078   6.374   4.462   5.244  0.1791 -0.0787 -0.0485
 7327SOL     OW29079   2.136   2.577   1.961  0.2847  0.5479  0.5912
 7327SOL    HW229080   2.184   2.659   1.969  1.6549 -0.3080  1.7324
 7327SOL    HW329081   2.084   2.572   2.042 -2.0553  1.5980 -0.7499
 7327SOL    MW429082   2.135   2.587   1.973  0.1568  0.5735  0.5648
 7328SOL     OW29083   3.868   5.901   5.342  0.3832 -0.1089 -0.1496
 7328SOL    HW229084   3.934   5.834   5.363 -1.4317 -1.2271  2.5617
 7328SOL    HW329085   3.916   5.967   5.293  3.1647 -1.5631  0.3986
 7328SOL    MW429086   3.883   5.901   5.338  0.5107 -0.4483  0.2804
 7329SOL     OW29087   5.363   5.547   4.450 -0.2205  0.3367 -0.6206
 7329SOL    HW229088   5.440   5.590   4.487  0.0413  0.1484 -0.9405
 7329SOL    HW329089   5.396   5.498   4.375 -0.1740 -1.9553  0.8044
 7329SOL    MW429090   5.377   5.546   4.445 -0.1798  0.0095 -0.4748
 7330SOL     OW29091   0.282   5.664   1.451  0.7093 -0.3552 -0.0395
 7330SOL    HW229092   0.302   5.728   1.383 -0.6563 -1.1923 -1.2923
 7330SOL    HW329093   0.205   5.698   1.495 -0.6852 -1.5771 -1.4211
 7330SOL    MW429094   0.275   5.677   1.448  0.3451 -0.6269 -0.3871
 7331SOL     OW29095   1.689   1.086   2.039 -0.4697 -0.9624 -0.0731
 7331SOL    HW229096   1.711   1.179   2.033  0.2968 -1.0120  1.4573
 7331SOL    HW329097   1.708   1.063   2.130 -0.7510 -2.5974 -0.4026
 7331SOL    MW429098   1.694   1.095   2.050 -0.4057 -1.1847  0.0853
 7332SOL     OW29099   3.513   4.595   0.249  0.1759 -0.2456  0.0940
 7332SOL    HW229100   3.455   4.531   0.207 -1.4528  0.7888  0.6580
 7332SOL    HW329101   3.482   4.600   0.339  0.3606  1.2187  0.1020
 7332SOL    MW429102   3.501   4.587   0.256 -0.0146  0.0840  0.1695
 7333SOL     OW29103   5.529   6.070   5.940 -0.3676 -0.4389  0.0566
 7333SOL    HW229104   5.572   6.121   5.871 -1.0142  1.1688  0.8088
 7333SOL    HW329105   5.601   6.031   5.989  0.3583  2.5065  1.5244
 7333SOL    MW429106   5.544   6.071   5.937 -0.3571  0.1619  0.3495
 7334SOL     OW29107   0.415   3.631   5.651 -0.4480 -0.3340 -0.0552
 7334SOL    HW229108   0.404   3.593   5.738 -0.6593 -2.1347 -0.8281
 7334SOL    HW329109   0.340   3.689   5.641  0.7026  1.6493  1.7657
 7334SOL    MW429110   0.404   3.634   5.661 -0.3241 -0.3099  0.0831
 7335SOL     OW29111   0.816   4.830   5.806 -0.0591 -0.0155 -0.5524
 7335SOL    HW229112   0.750   4.817   5.738  0.8469 -1.1979 -1.2582
 7335SOL    HW329113   0.899   4.812   5.762  0.5823 -0.3512  0.7531
 7335SOL    MW429114   0.818   4.826   5.791  0.1451 -0.2158 -0.4733
 7336SOL     OW29115   1.254   0.690   5.225  0.3450  0.2313 -0.2617
 7336SOL    HW229116   1.189   0.720   5.162 -1.7826 -0.4036  1.5137
 7336SOL    HW329117   1.317   0.762   5.231 -1.4998  1.9195 -0.3011
 7336SOL    MW429118   1.254   0.703   5.217 -0.1791  0.3703 -0.0326
 7337SOL     OW29119   4.943   3.713   1.601 -0.3202 -0.0088  0.0490
 7337SOL    HW229120   4.919   3.687   1.690  0.7651  0.5862  0.5289
 7337SOL    HW329121   5.010   3.780   1.612  1.5056 -1.5060 -1.2324
 7337SOL    MW429122   4.948   3.719   1.614  0.0639 -0.1278 -0.0567
 7338SOL     OW29123   1.116   4.037   2.267  0.1687 -0.0516  0.1703
 7338SOL    HW229124   1.115   4.127   2.301  1.0404  0.5310 -1.2443
 7338SOL    HW329125   1.081   4.045   2.178  1.0179 -0.9655 -0.2628
 7338SOL    MW429126   1.111   4.050   2.259  0.3957 -0.0953 -0.0735
 7339SOL     OW29127   1.143   3.431   0.707 -0.2393  0.3514  0.5048
 7339SOL    HW229128   1.089   3.352   0.711  0.8047 -0.5231 -1.4749
 7339SOL    HW329129   1.209   3.412   0.641  1.7591  1.8614  1.9235
 7339SOL    MW429130   1.144   3.418   0.699  0.1621  0.4352  0.4308
 7340SOL     OW29131   6.232   6.172   2.140  0.2872  0.8028 -0.4272
 7340SOL    HW229132   6.272   6.241   2.088 -0.1069  0.7917 -0.7508
 7340SOL    HW329133   6.196   6.217   2.216  1.0673  0.7867 -0.0370
 7340SOL    MW429134   6.232   6.187   2.143  0.3381  0.7992 -0.4184
 7341SOL     OW29135   3.274   2.763   3.752  0.2740 -0.2055 -0.0116
 7341SOL    HW229136   3.269   2.668   3.754 -0.9420 -0.1523  0.5777
 7341SOL    HW329137   3.234   2.788   3.669  0.8386 -0.2108 -0.2898
 7341SOL    MW429138   3.268   2.754   3.741  0.1880 -0.1992  0.0294
 7342SOL     OW29139   5.414   2.225   0.796  0.3657  0.3558 -0.2809
 7342SOL    HW229140   5.387   2.294   0.735 -2.0520  2.0183  2.4079
 7342SOL    HW329141   5.500   2.254   0.828  1.8167 -0.6893 -2.8868
 7342SOL    MW429142   5.422   2.238   0.792  0.2382  0.4373 -0.2700
 7343SOL     OW29143   0.635   3.869   6.168 -0.3012  0.1211 -0.6296
 7343SOL    HW229144   0.679   3.787   6.144  1.5418  1.0021 -0.4521
 7343SOL    HW329145   0.555   3.841   6.213  0.5300 -1.5700 -0.1250
 7343SOL    MW429146   0.630   3.854   6.170  0.0516  0.0142 -0.5396
 7344SOL     OW29147   4.265   3.604   1.125 -0.5458  0.0037  1.0140
 7344SOL    HW229148   4.318   3.561   1.058 -1.7621  0.9891 -0.6647
 7344SOL    HW329149   4.188   3.547   1.134 -2.0304  1.5093 -1.0204
 7344SOL    MW429150   4.261   3.591   1.117 -0.9021  0.3324  0.5241
 7345SOL     OW29151   0.655   1.266   2.291 -0.3719  0.5053 -0.1663
 7345SOL    HW229152   0.682   1.355   2.314 -0.0572  0.7959 -1.5369
 7345SOL    HW329153   0.614   1.275   2.205 -2.4816 -0.3417  0.7052
 7345SOL    MW429154   0.653   1.279   2.283 -0.6087  0.4319 -0.2321
 7346SOL     OW29155   5.516   4.512   4.904  0.1948 -0.1076  0.1579
 7346SOL    HW229156   5.501   4.437   4.961  1.1960 -0.6408 -0.2471
 7346SOL    HW329157   5.447   4.505   4.837  0.4000 -0.7909  0.0062
 7346SOL    MW429158   5.505   4.501   4.902  0.3540 -0.2681  0.0845
 7347SOL     OW29159   4.929   0.386   2.385 -0.0847 -0.5525 -0.0216
 7347SOL    HW229160   4.841   0.422   2.375  0.2363  0.4598  0.6536
 7347SOL    HW329161   4.957   0.367   2.295 -1.0380 -1.0258 -0.2325
 7347SOL    MW429162   4.921   0.388   2.372 -0.1681 -0.4814  0.0396
 7348SOL     OW29163   3.776   6.262   2.618 -0.3764 -0.2707  0.4334
 7348SOL    HW229164   3.831   6.185   2.603  1.7588  1.4739 -1.6735
 7348SOL    HW329165   3.816   6.305   2.694  1.9755  1.4411 -1.5925
 7348SOL    MW429166   3.789   6.258   2.626  0.2156  0.1853 -0.1119
 7349SOL     OW29167   5.483   0.452   1.923  0.3630 -0.4001  0.7521
 7349SOL    HW229168   5.551   0.520   1.929 -0.1829  0.0431  2.6624
 7349SOL    HW329169   5.491   0.418   1.834  0.3499  2.5086 -0.4770
 7349SOL    MW429170   5.493   0.457   1.912  0.2892  0.0421  0.8420
 7350SOL     OW29171   3.783   3.450   6.078 -0.5173 -0.1408  0.8621
 7350SOL    HW229172   3.879   3.446   6.077 -0.5492 -1.0925  0.5143
 7350SOL    HW329173   3.757   3.371   6.126 -1.1353 -0.2347  0.3753
 7350SOL    MW429174   3.792   3.439   6.084 -0.6030 -0.2788  0.7520
 7351SOL     OW29175   0.928   3.403   4.720  0.3644  0.1525  0.1543
 7351SOL    HW229176   0.873   3.347   4.775  1.4574 -0.7727  0.3566
 7351SOL    HW329177   1.017   3.375   4.741  0.9928  2.4282  0.7351
 7351SOL    MW429178   0.933   3.392   4.730  0.5915  0.3307  0.2576
 7352SOL     OW29179   5.198   3.332   6.055  0.5381 -0.3264 -0.0228
 7352SOL    HW229180   5.223   3.306   5.966  0.5732  2.1792 -0.8138
 7352SOL    HW329181   5.266   3.393   6.082  0.1445 -0.5181  1.4744
 7352SOL    MW429182   5.210   3.336   6.046  0.4908 -0.0211  0.0704
 7353SOL     OW29183   4.937   1.261   4.427 -0.7138 -0.3157  0.0851
 7353SOL    HW229184   4.851   1.248   4.468 -0.5131 -0.4644  0.4693
 7353SOL    HW329185   4.932   1.212   4.345 -0.5238 -1.5001  0.7558
 7353SOL    MW429186   4.925   1.253   4.422 -0.6623 -0.4916  0.2243
 7354SOL     OW29187   3.621   4.623   2.057 -0.7255  0.1451  0.1131
 7354SOL    HW229188   3.682   4.659   2.122  1.6147 -0.5990 -1.5268
 7354SOL    HW329189   3.595   4.698   2.004 -0.6119  0.3589  0.3591
 7354SOL    MW429190   3.626   4.638   2.059 -0.4018  0.0751 -0.0708
 7355SOL     OW29191   4.541   1.437   4.380 -0.6753  0.1339 -0.6085
 7355SOL    HW229192   4.559   1.344   4.377  1.4208  0.5193 -2.2222
 7355SOL    HW329193   4.587   1.474   4.304 -1.5277  2.4675 -0.1025
 7355SOL    MW429194   4.550   1.430   4.370 -0.5112  0.4927 -0.7546
 7356SOL     OW29195   0.562   3.363   4.570  0.3768 -0.5524 -0.3688
 7356SOL    HW229196   0.580   3.454   4.593 -1.5929  0.0676 -1.0354
 7356SOL    HW329197   0.644   3.331   4.532  0.9603  1.1139 -0.6163
 7356SOL    MW429198   0.575   3.371   4.568  0.1939 -0.2508 -0.4894
 7357SOL     OW29199   0.416   0.072   1.178 -0.6032  0.1219  0.0844
 7357SOL    HW229200   0.453  -0.009   1.142  1.1965  1.4715 -1.2281
 7357SOL    HW329201   0.331   0.045   1.213 -0.2947 -2.2268 -0.7948
 7357SOL    MW429202   0.409   0.057   1.178 -0.3250 -0.0099 -0.2048
 7358SOL     OW29203   3.601   4.326   5.023 -0.5048  0.5652  0.2353
 7358SOL    HW229204   3.507   4.335   5.040 -0.2836  0.6592  1.5240
 7358SOL    HW329205   3.641   4.398   5.072  0.3499 -0.3460  0.9275
 7358SOL    MW429206   3.594   4.337   5.032 -0.3629  0.4574  0.4966
 7359SOL     OW29207   0.407   2.155   2.206 -0.4953  0.0621  0.0383
 7359SOL    HW229208   0.374   2.173   2.294  0.1613 -0.0470  0.3119
 7359SOL    HW329209   0.330   2.126   2.157 -1.0522  0.9952  0.3242
 7359SOL    MW429210   0.393   2.154   2.211 -0.4822  0.1708  0.1121
 7360SOL     OW29211   5.562   1.962   6.184 -0.1605  0.0082 -0.0882
 7360SOL    HW229212   5.531   1.886   6.234 -0.7224 -0.5501 -1.2570
 7360SOL    HW329213   5.483   2.016   6.172  0.3803  1.2328  1.4402
 7360SOL    MW429214   5.547   1.959   6.189 -0.1633  0.0961 -0.0407
 7361SOL     OW29215   0.847   0.731   0.340 -0.3940 -0.9196  0.6846
 7361SOL    HW229216   0.819   0.803   0.283  1.8648 -0.0470  0.5731
 7361SOL    HW329217   0.793   0.739   0.418 -0.9898  0.1726  0.1800
 7361SOL    MW429218   0.836   0.741   0.343 -0.1746 -0.6604  0.6033
 7362SOL     OW29219   4.534   5.915   2.438  0.1497 -0.1057  0.0863
 7362SOL    HW229220   4.546   5.824   2.411 -1.5020 -1.5344  3.5752
 7362SOL    HW329221   4.591   5.925   2.514 -2.1184  0.6525  1.7814
 7362SOL    MW429222   4.543   5.904   2.445 -0.3675 -0.1942  0.7703
 7363SOL     OW29223   1.482   5.850   3.371 -0.3371  0.1547 -0.2281
 7363SOL    HW229224   1.566   5.890   3.349 -0.2244 -0.1273 -0.3143
 7363SOL    HW329225   1.417   5.912   3.339 -0.1633  0.9303  0.8487
 7363SOL    MW429226   1.485   5.863   3.364 -0.2993  0.2198 -0.0974
 7364SOL     OW29227   0.449   4.711   5.766  0.1477 -0.5741  0.0344
 7364SOL    HW229228   0.490   4.758   5.693 -2.7897 -0.1520 -1.5052
 7364SOL    HW329229   0.454   4.772   5.840 -1.4968  1.3547 -1.3023
 7364SOL    MW429230   0.455   4.725   5.766 -0.4568 -0.2639 -0.3451
 7365SOL     OW29231   0.786   1.618   5.270  0.0776  0.1017  1.0773
 7365SOL    HW229232   0.716   1.563   5.236  1.3396 -1.8687  1.4511
 7365SOL    HW329233   0.793   1.593   5.362  2.0917 -0.7377  0.7441
 7365SOL    MW429234   0.778   1.607   5.278  0.5098 -0.2690  1.0826
 7366SOL     OW29235   6.409   3.984   3.317 -0.8558  0.1033 -0.6976
 7366SOL    HW229236   6.487   4.002   3.265  0.0643 -0.1806  0.5284
 7366SOL    HW329237   6.381   3.897   3.290  0.7261 -0.8609  0.5500
 7366SOL    MW429238   6.416   3.975   3.307 -0.5257 -0.0614 -0.3712
 7367SOL     OW29239   4.815   0.821   0.379  0.2328 -0.0053  0.4888
 7367SOL    HW229240   4.870   0.899   0.387  1.6904 -0.9423  0.2109
 7367SOL    HW329241   4.766   0.817   0.461  0.0328  1.2681  0.4441
 7367SOL    MW429242   4.816   0.830   0.391  0.3987  0.0391  0.4462
 7368SOL     OW29243   3.416   1.962   3.576 -0.2457 -0.0470 -0.2071
 7368SOL    HW229244   3.493   1.922   3.616  0.2899  0.4972 -0.6781
 7368SOL    HW329245   3.345   1.942   3.637  0.8051  2.0867  1.8650
 7368SOL    MW429246   3.417   1.954   3.589 -0.0364  0.3063  0.0041
 7369SOL     OW29247   2.812   1.416   4.380  0.2610  0.3979  0.3132
 7369SOL    HW229248   2.844   1.328   4.361 -1.6476 -0.0788 -1.0156
 7369SOL    HW329249   2.859   1.473   4.319 -1.1481 -0.2634 -1.5009
 7369SOL    MW429250   2.822   1.412   4.370 -0.1767  0.2478 -0.1015
 7370SOL     OW29251   4.082   5.051   5.514  0.7007 -0.0106  0.1941
 7370SOL    HW229252   4.092   4.981   5.578  0.5515 -0.8089 -0.6361
 7370SOL    HW329253   3.987   5.068   5.512  0.7455  0.2748  0.4547
 7370SOL    MW429254   4.071   5.044   5.522  0.6869 -0.0783  0.1189
 7371SOL     OW29255   4.625   2.703   2.387  0.3941  0.2340  0.3698
 7371SOL    HW229256   4.552   2.742   2.340  0.5876  0.9978  0.6877
 7371SOL    HW329257   4.677   2.777   2.417  0.1340 -0.1953  2.0364
 7371SOL    MW429258   4.622   2.718   2.385  0.3853  0.2781  0.6316
 7372SOL     OW29259   0.438   2.952   1.431 -0.3173 -0.2644  0.1830
 7372SOL    HW229260   0.379   3.016   1.472  0.0027  0.6470 -0.7368
 7372SOL    HW329261   0.385   2.872   1.425 -0.0847 -0.7610  3.1627
 7372SOL    MW429262   0.423   2.950   1.435 -0.2444 -0.2097  0.4548
 7373SOL     OW29263   2.274   5.795   1.164 -0.2659 -0.4445  0.1553
 7373SOL    HW229264   2.348   5.737   1.183 -0.3999 -0.5012  0.5021
 7373SOL    HW329265   2.276   5.861   1.232 -0.3521 -0.2668 -0.0128
 7373SOL    MW429266   2.284   5.796   1.175 -0.2949 -0.4285  0.1789
 7374SOL     OW29267   0.263   1.066   2.208  0.5325 -0.6487  0.4080
 7374SOL    HW229268   0.204   1.106   2.272  0.3177 -2.4867  1.4407
 7374SOL    HW329269   0.334   1.030   2.261  0.9673 -1.1688 -0.5076
 7374SOL    MW429270   0.265   1.067   2.223  0.5615 -0.9598  0.4235
 7375SOL     OW29271   3.574   4.684   3.912 -0.3699  0.8840  0.4246
 7375SOL    HW229272   3.607   4.621   3.847 -0.5555  0.0321  1.1452
 7375SOL    HW329273   3.531   4.630   3.978  0.7048  1.6416  1.8007
 7375SOL    MW429274   3.573   4.669   3.912 -0.2526  0.8716  0.7012
 7376SOL     OW29275   0.042   2.997   2.585 -0.3573  0.5439  0.6339
 7376SOL    HW229276   0.018   2.980   2.676  0.2685  0.6659  0.8324
 7376SOL    HW329277   0.119   3.054   2.591 -0.6561  1.0336  0.0176
 7376SOL    MW429278   0.049   3.002   2.598 -0.3142  0.6246  0.5788
 7377SOL     OW29279   5.656   4.380   1.328  0.1167  0.3314  0.0068
 7377SOL    HW229280   5.675   4.307   1.269  3.4942 -0.3247  1.6790
 7377SOL    HW329281   5.599   4.342   1.396 -1.5901  0.4289 -1.2964
 7377SOL    MW429282   5.651   4.365   1.329  0.3371  0.2577  0.0555
 7378SOL     OW29283   4.829   4.265   1.004 -0.3252  0.2318  0.0971
 7378SOL    HW229284   4.853   4.356   1.021 -0.0722  0.1615  0.1237
 7378SOL    HW329285   4.907   4.227   0.964 -0.5838  0.1407 -0.3239
 7378SOL    MW429286   4.842   4.272   1.001 -0.3260  0.2105  0.0451
 7379SOL     OW29287   4.189   2.250   2.483 -0.4582 -0.6423  0.1580
 7379SOL    HW229288   4.208   2.185   2.416  0.2561 -0.4926  0.2081
 7379SOL    HW329289   4.183   2.200   2.564 -2.2855 -0.9563 -0.1329
 7379SOL    MW429290   4.191   2.235   2.485 -0.6050 -0.6640  0.1262
 7380SOL     OW29291   1.540   0.580   0.380 -0.2082 -0.5166  0.2896
 7380SOL    HW229292   1.552   0.671   0.407 -2.3091  0.4434 -1.6214
 7380SOL    HW329293   1.558   0.528   0.458  0.8736  1.5356  1.4751
 7380SOL    MW429294   1.544   0.585   0.394 -0.3427 -0.1192  0.1939
 7381SOL     OW29295   2.034   1.655   1.585 -0.1121  0.7155 -0.3777
 7381SOL    HW229296   1.954   1.653   1.637 -0.2506  0.7556 -0.5889
 7381SOL    HW329297   2.085   1.728   1.621  0.8239 -0.6488  1.2243
 7381SOL    MW429298   2.031   1.664   1.596 -0.0069  0.5408 -0.1942
 7382SOL     OW29299   0.559   2.147   1.989  0.3170  0.2836  0.2554
 7382SOL    HW229300   0.505   2.146   2.068 -1.3090 -0.2204 -0.8175
 7382SOL    HW329301   0.564   2.055   1.962 -1.6387  0.6785 -1.7932
 7382SOL    MW429302   0.553   2.135   1.996 -0.1556  0.2692 -0.1564
 7383SOL     OW29303   3.318   0.938   1.477 -0.3644 -0.0528 -0.1957
 7383SOL    HW229304   3.347   0.851   1.503 -0.3657 -0.1754 -0.6131
 7383SOL    HW329305   3.250   0.923   1.412  2.2071  0.2390 -3.2094
 7383SOL    MW429306   3.313   0.925   1.472 -0.0253 -0.0305 -0.6484
 7384SOL     OW29307   1.777   4.633   0.628  0.2553 -0.1157  0.9777
 7384SOL    HW229308   1.768   4.724   0.656 -0.6034  0.1743 -0.1361
 7384SOL    HW329309   1.790   4.584   0.709 -1.9336  0.6841  1.8882
 7384SOL    MW429310   1.778   4.639   0.642 -0.1468  0.0280  0.9509
 7385SOL     OW29311   2.440   4.053   2.227  0.3784 -0.0783  0.5775
 7385SOL    HW229312   2.404   4.141   2.212 -2.6452 -1.3033 -0.1417
 7385SOL    HW329313   2.387   4.018   2.299  1.0620 -1.5688  0.3830
 7385SOL    MW429314   2.428   4.060   2.235  0.0697 -0.4366  0.4570
 7386SOL     OW29315   1.185   5.870   1.723 -0.1552 -0.5182 -0.1532
 7386SOL    HW229316   1.204   5.963   1.740  1.5255 -1.0340  1.0706
 7386SOL    HW329317   1.267   5.836   1.686 -0.6091 -1.6276 -0.1574
 7386SOL    MW429318   1.198   5.878   1.720  0.0067 -0.7326  0.0077
 7387SOL     OW29319   5.801   3.504   0.985 -0.8754  0.5547  0.4831
 7387SOL    HW229320   5.801   3.427   1.042 -0.2374  1.0500  1.1685
 7387SOL    HW329321   5.803   3.578   1.045  0.9506  1.0780 -0.1660
 7387SOL    MW429322   5.801   3.504   1.001 -0.5503  0.6891  0.4879
 7388SOL     OW29323   4.155   5.073   4.175 -0.7666 -0.3761 -0.0572
 7388SOL    HW229324   4.223   5.088   4.110  1.3927 -0.1868  2.0806
 7388SOL    HW329325   4.074   5.105   4.135  0.9286  2.2592 -1.6133
 7388SOL    MW429326   4.153   5.079   4.161 -0.2581 -0.0034  0.0196
 7389SOL     OW29327   0.103   2.308   0.659 -0.0976  0.0132 -0.4321
 7389SOL    HW229328   0.120   2.363   0.735  0.2810 -0.0812 -0.4484
 7389SOL    HW329329   0.024   2.345   0.620  0.4565  0.8864 -0.7517
 7389SOL    MW429330   0.095   2.320   0.664  0.0255  0.1159 -0.4764
 7390SOL     OW29331   2.606   4.290   1.350 -0.2802 -0.5431 -0.1824
 7390SOL    HW229332   2.625   4.325   1.263 -1.1727  4.0952  1.2355
 7390SOL    HW329333   2.512   4.272   1.348 -1.1272  3.0929  0.6870
 7390SOL    MW429334   2.596   4.292   1.338 -0.5097  0.5486  0.1194
 7391SOL     OW29335   0.096   1.677   0.597  0.3018 -0.2820  0.5759
 7391SOL    HW229336   0.017   1.714   0.557  2.2912  1.5897 -1.9446
 7391SOL    HW329337   0.131   1.747   0.652  1.6424 -0.0078 -0.5588
 7391SOL    MW429338   0.090   1.691   0.599  0.7412  0.0012  0.0937
 7392SOL     OW29339   4.848   5.864   1.781  0.5841  0.2177  0.3813
 7392SOL    HW229340   4.780   5.910   1.731  0.7795  0.3410  0.2321
 7392SOL    HW329341   4.878   5.928   1.845 -0.0340 -0.1032  1.0092
 7392SOL    MW429342   4.843   5.878   1.783  0.5283  0.1916  0.4444
 7393SOL     OW29343   1.901   3.697   5.203 -0.4415 -0.0118 -0.3293
 7393SOL    HW229344   1.909   3.792   5.196  0.0250 -0.0852 -0.8289
 7393SOL    HW329345   1.860   3.670   5.120 -0.5657 -0.2462 -0.1927
 7393SOL    MW429346   1.897   3.706   5.191 -0.3963 -0.0524 -0.3772
 7394SOL     OW29347   4.288   6.352   2.622  0.5543 -0.0639  0.5326
 7394SOL    HW229348   4.338   6.423   2.582 -0.6315  0.8864  0.6644
 7394SOL    HW329349   4.214   6.339   2.563  0.4322 -0.7646  0.8360
 7394SOL    MW429350   4.285   6.360   2.609  0.3818 -0.0310  0.5900
 7395SOL     OW29351   6.249   3.886   5.796  0.2089 -0.3463  0.2309
 7395SOL    HW229352   6.248   3.830   5.719 -0.4779  1.1618 -0.8922
 7395SOL    HW329353   6.286   3.969   5.766  0.9411 -0.0587  1.7937
 7395SOL    MW429354   6.254   3.890   5.782  0.2149 -0.1094  0.2890
 7396SOL     OW29355   1.422   4.308   4.422 -0.7426 -0.5171 -0.0954
 7396SOL    HW229356   1.349   4.312   4.360 -0.3056 -0.8491 -0.6334
 7396SOL    HW329357   1.394   4.364   4.495 -1.2318 -0.0727 -0.6142
 7396SOL    MW429358   1.408   4.316   4.423 -0.7494 -0.5023 -0.2348
 7397SOL     OW29359   2.990   1.131   4.651  0.5599 -0.3092  0.1892
 7397SOL    HW229360   3.082   1.107   4.665  0.3671 -1.5958 -0.5441
 7397SOL    HW329361   2.993   1.216   4.609  1.3886 -0.0266  0.7884
 7397SOL    MW429362   3.002   1.139   4.648  0.6438 -0.4417  0.1715
 7398SOL     OW29363   3.838   5.471   2.214  0.7441  0.1442  0.5334
 7398SOL    HW229364   3.879   5.389   2.242 -0.8606 -0.0964  2.3864
 7398SOL    HW329365   3.854   5.531   2.287 -2.1503  0.0172  1.3781
 7398SOL    MW429366   3.845   5.468   2.227  0.1505  0.0957  0.8893
 7399SOL     OW29367   4.029   0.632   0.363 -0.0948 -0.4693 -0.2877
 7399SOL    HW229368   4.112   0.661   0.400 -0.5792 -1.1241  1.4339
 7399SOL    HW329369   3.964   0.652   0.431 -1.2377 -0.6049 -1.3093
 7399SOL    MW429370   4.031   0.638   0.377 -0.3095 -0.5736 -0.1953
 7400SOL     OW29371   2.388   6.185   1.795 -0.3067  0.4115 -0.4261
 7400SOL    HW229372   2.308   6.214   1.753  0.4102  0.8030 -1.5774
 7400SOL    HW329373   2.367   6.180   1.888 -1.9752 -0.5756 -0.8311
 7400SOL    MW429374   2.375   6.188   1.802 -0.4323  0.3329 -0.6314
 7401SOL     OW29375   2.173   4.343   1.900 -0.1085  0.0757 -0.0999
 7401SOL    HW229376   2.217   4.259   1.884 -0.2361  0.0072 -0.0888
 7401SOL    HW329377   2.244   4.407   1.894 -0.0288 -0.0203 -0.2243
 7401SOL    MW429378   2.188   4.340   1.897 -0.1148  0.0540 -0.1148
 7402SOL     OW29379   3.286   3.280   5.236 -0.4363 -0.2728  0.2278
 7402SOL    HW229380   3.297   3.203   5.180 -0.4669 -0.9904  1.1799
 7402SOL    HW329381   3.348   3.266   5.308  2.3597  2.4036 -1.4265
 7402SOL    MW429382   3.296   3.268   5.238 -0.0715 -0.0144  0.1351
 7403SOL     OW29383   1.120   5.394   0.989  0.1700 -0.1684 -0.5439
 7403SOL    HW229384   1.084   5.468   0.940  1.0839  0.1165 -0.8117
 7403SOL    HW329385   1.144   5.330   0.922 -0.2437 -0.5497 -0.3380
 7403SOL    MW429386   1.118   5.396   0.974  0.2360 -0.1811 -0.5520
 7404SOL     OW29387   6.243   2.904   0.894 -0.6093 -0.0219  0.0907
 7404SOL    HW229388   6.165   2.944   0.854 -1.5849 -1.6736  0.2589
 7404SOL    HW329389   6.212   2.872   0.979  0.9383  1.6336  1.3435
 7404SOL    MW429390   6.228   2.905   0.900 -0.5339 -0.0214  0.2782
 7405SOL     OW29391   2.340   3.166   1.767  0.3622  0.4428  0.0207
 7405SOL    HW229392   2.398   3.130   1.701  0.7479  2.8439 -1.0536
 7405SOL    HW329393   2.268   3.103   1.774  2.2407 -1.7851  0.2165
 7405SOL    MW429394   2.338   3.153   1.759  0.6610  0.4657 -0.0952
 7406SOL     OW29395   0.808   3.626   6.343  0.0468 -0.2514  0.5733
 7406SOL    HW229396   0.832   3.600   6.254 -1.0719 -0.3136  0.2765
 7406SOL    HW329397   0.800   3.721   6.340  1.0600 -0.1421  0.8871
 7406SOL    MW429398   0.810   3.635   6.331  0.0329 -0.2452  0.5756
 7407SOL     OW29399   4.200   5.110   3.246  0.3179 -0.2571  0.1563
 7407SOL    HW229400   4.108   5.085   3.258  0.1999 -0.5920 -1.2807
 7407SOL    HW329401   4.199   5.166   3.168  1.3912 -0.5651 -0.0783
 7407SOL    MW429402   4.187   5.114   3.237  0.4439 -0.3419 -0.0642
 7408SOL     OW29403   4.049   5.833   4.723 -0.0102  0.7167 -0.7467
 7408SOL    HW229404   4.046   5.916   4.676  0.6899  1.1069 -0.1272
 7408SOL    HW329405   4.118   5.845   4.789  0.1120 -0.3575 -0.6559
 7408SOL    MW429406   4.058   5.845   4.726  0.0983  0.6264 -0.6530
 7409SOL     OW29407   2.621   4.921   3.787  0.4558  0.2215 -0.7678
 7409SOL    HW229408   2.683   4.858   3.751  0.9186 -0.4388  1.0635
 7409SOL    HW329409   2.674   4.982   3.837 -0.3412 -1.1219  1.9574
 7409SOL    MW429410   2.636   4.920   3.789  0.4117 -0.0429 -0.1667
 7410SOL     OW29411   0.983   0.777   3.068  0.0411 -0.6307 -0.1548
 7410SOL    HW229412   0.998   0.829   3.147  0.6689 -0.5200 -0.3419
 7410SOL    HW329413   0.948   0.694   3.100  0.2308 -0.5627  0.2363
 7410SOL    MW429414   0.980   0.773   3.083  0.1489 -0.6071 -0.1279
 7411SOL     OW29415   2.375   1.091   0.327 -0.0624  0.3504  0.0886
 7411SOL    HW229416   2.375   1.184   0.304  0.7474  0.0783 -1.0929
 7411SOL    HW329417   2.439   1.085   0.398  1.5274  0.3919 -1.2875
 7411SOL    MW429418   2.384   1.103   0.333  0.2542  0.3200 -0.2489
 7412SOL     OW29419   4.224   4.457   4.227 -0.1475  0.0073  0.1526
 7412SOL    HW229420   4.295   4.522   4.230 -0.7408  0.7710 -1.2275
 7412SOL    HW329421   4.269   4.373   4.237  1.0178  0.4515 -0.9853
 7412SOL    MW429422   4.240   4.455   4.229 -0.0721  0.1667 -0.1796
 7413SOL     OW29423   3.874   6.017   2.474  0.2783  0.4202  0.0216
 7413SOL    HW229424   3.873   6.092   2.414 -0.3390  0.4361  0.0435
 7413SOL    HW329425   3.949   6.034   2.532 -0.1734  1.2980  0.3635
 7413SOL    MW429426   3.884   6.029   2.474  0.1372  0.5381  0.0696
 7414SOL     OW29427   0.456   4.515   6.130 -0.6049 -0.4720 -0.3721
 7414SOL    HW229428   0.434   4.553   6.215  0.7900  0.6893 -0.4737
 7414SOL    HW329429   0.500   4.586   6.083 -0.0112 -1.5349 -1.4932
 7414SOL    MW429430   0.459   4.529   6.135 -0.3425 -0.4590 -0.5334
 7415SOL     OW29431   3.498   2.255   0.692 -0.1972  0.2320  0.3036
 7415SOL    HW229432   3.574   2.304   0.660  0.5335  0.1537  1.8207
 7415SOL    HW329433   3.520   2.163   0.675  0.1541  0.1962  0.9132
 7415SOL    MW429434   3.511   2.249   0.686 -0.0544  0.2169  0.5842
 7416SOL     OW29435   3.660   4.168   4.400 -0.0197  0.4270 -0.3926
 7416SOL    HW229436   3.594   4.236   4.392  0.8123  1.1686 -1.1384
 7416SOL    HW329437   3.626   4.109   4.467 -2.1309 -0.0087 -1.7587
 7416SOL    MW429438   3.647   4.169   4.408 -0.1885  0.4673 -0.6712
 7417SOL     OW29439   4.596   2.415   0.380 -0.1256  0.8732 -0.0506
 7417SOL    HW229440   4.594   2.461   0.464 -1.2481  0.0968  0.3795
 7417SOL    HW329441   4.681   2.370   0.380 -0.4477  0.2086  1.0729
 7417SOL    MW429442   4.607   2.415   0.391 -0.3162  0.6831  0.1544
 7418SOL     OW29443   3.390   0.541   4.890  0.2890  0.1415 -0.5388
 7418SOL    HW229444   3.434   0.626   4.886  0.7689 -0.0286  0.5639
 7418SOL    HW329445   3.461   0.477   4.888 -0.1144 -0.2947 -2.3052
 7418SOL    MW429446   3.405   0.544   4.889  0.2991  0.0615 -0.6264
 7419SOL     OW29447   0.423   5.007   3.605  0.1547  0.7944 -0.5981
 7419SOL    HW229448   0.493   5.027   3.668 -0.1619  0.3051 -0.0840
 7419SOL    HW329449   0.448   5.055   3.526  0.7224  1.1658 -0.2034
 7419SOL    MW429450   0.436   5.016   3.603  0.1878  0.7788 -0.4782
 7420SOL     OW29451   4.532   3.275   4.018  0.3246  0.1518  0.2810
 7420SOL    HW229452   4.553   3.366   4.040  0.6053  0.3373 -0.6976
 7420SOL    HW329453   4.518   3.276   3.923 -1.6115 -0.4582  0.5306
 7420SOL    MW429454   4.533   3.287   4.008  0.1062  0.0958  0.1848
 7421SOL     OW29455   2.824   5.101   5.073  0.4194  0.3480 -0.0584
 7421SOL    HW229456   2.869   5.039   5.129  0.3603 -0.2355 -0.6513
 7421SOL    HW329457   2.861   5.088   4.986  0.0830  0.8235 -0.2816
 7421SOL    MW429458   2.835   5.091   5.069  0.3672  0.3337 -0.1661
 7422SOL     OW29459   1.601   4.557   1.562 -0.1685 -0.3317  0.1138
 7422SOL    HW229460   1.513   4.520   1.566 -0.8351  1.2182  2.5324
 7422SOL    HW329461   1.598   4.631   1.623  2.8362 -0.2562  0.3320
 7422SOL    MW429462   1.589   4.562   1.571  0.1400 -0.1173  0.4617
 7423SOL     OW29463   1.029   0.809   1.240 -0.1057 -0.1636 -0.1897
 7423SOL    HW229464   1.008   0.867   1.167  0.1028  0.8837  0.5583
 7423SOL    HW329465   0.953   0.752   1.248 -1.2552  1.3860  0.3799
 7423SOL    MW429466   1.016   0.810   1.231 -0.2299  0.1790 -0.0158
 7424SOL     OW29467   4.477   5.491   4.106 -0.1241  0.5714  0.2227
 7424SOL    HW229468   4.486   5.396   4.111  1.0948  0.6092 -0.7044
 7424SOL    HW329469   4.429   5.515   4.185 -0.6349 -0.8324  0.3624
 7424SOL    MW429470   4.472   5.481   4.117 -0.0307  0.3912  0.1188
 7425SOL     OW29471   4.761   3.066   3.694 -0.3543  0.0856  0.3492
 7425SOL    HW229472   4.796   3.083   3.781  1.3034 -0.2963 -0.1945
 7425SOL    HW329473   4.794   2.979   3.671  0.1629  0.6189 -1.0685
 7425SOL    MW429474   4.770   3.057   3.702 -0.0674  0.1056  0.0904
 7426SOL     OW29475   0.200   0.882   5.593 -0.4191  0.2063 -0.5208
 7426SOL    HW229476   0.154   0.962   5.619 -1.4342 -0.7627  0.7798
 7426SOL    HW329477   0.147   0.845   5.522 -0.1366  0.4837 -0.8845
 7426SOL    MW429478   0.187   0.888   5.587 -0.5158  0.1150 -0.3972
 7427SOL     OW29479   1.947   5.878   6.354  0.1696  0.2293 -0.0168
 7427SOL    HW229480   2.007   5.952   6.361  0.2449  0.0820  1.1908
 7427SOL    HW329481   1.872   5.904   6.408  0.1552 -0.5260  0.3326
 7427SOL    MW429482   1.945   5.892   6.362  0.1777  0.1102  0.1886
 7428SOL     OW29483   5.959   4.005   4.753 -0.6220 -0.0559 -0.1605
 7428SOL    HW229484   5.878   3.978   4.709 -0.0225 -0.8671 -0.8076
 7428SOL    HW329485   5.931   4.068   4.819 -1.8578 -0.8883  0.1293
 7428SOL    MW429486   5.945   4.010   4.756 -0.7060 -0.2728 -0.2077
 7429SOL     OW29487   3.419   0.865   5.308  0.4015 -0.0021 -0.3464
 7429SOL    HW229488   3.419   0.931   5.238 -1.5314  1.6100  1.0679
 7429SOL    HW329489   3.364   0.794   5.274 -0.9868  1.0181 -0.2995
 7429SOL    MW429490   3.411   0.864   5.294 -0.0367  0.3452 -0.1536
 7430SOL     OW29491   5.839   4.706   3.178  0.0444  0.2015  0.2897
 7430SOL    HW229492   5.820   4.616   3.151  0.1123  0.0648  0.6900
 7430SOL    HW329493   5.813   4.760   3.102  0.8228 -0.2167 -0.2832
 7430SOL    MW429494   5.833   4.701   3.164  0.1560  0.1283  0.2670
 7431SOL     OW29495   5.644   3.913   0.680  0.4798  0.6343 -0.1780
 7431SOL    HW229496   5.604   3.918   0.767  0.0433 -0.0957 -0.3272
 7431SOL    HW329497   5.580   3.864   0.627  1.9697 -1.4047 -0.1869
 7431SOL    MW429498   5.630   3.908   0.684  0.6188  0.2690 -0.1989
 7432SOL     OW29499   3.194   0.990   5.754 -0.2713  0.2091  0.2123
 7432SOL    HW229500   3.116   1.046   5.751  0.7788  2.0192  2.7051
 7432SOL    HW329501   3.185   0.941   5.835  1.6126  1.2283  1.0912
 7432SOL    MW429502   3.182   0.991   5.764  0.1158  0.5824  0.6572
 7433SOL     OW29503   3.129   6.360   2.783 -0.1670 -0.7134  0.5019
 7433SOL    HW229504   3.119   6.266   2.798 -2.1929 -0.7380 -0.6917
 7433SOL    HW329505   3.040   6.394   2.780  0.5157  1.1776  0.4023
 7433SOL    MW429506   3.116   6.352   2.784 -0.3442 -0.4672  0.3312
 7434SOL     OW29507   3.167   0.535   5.512  0.3107 -0.0503  0.0929
 7434SOL    HW229508   3.238   0.524   5.576  0.6985  0.5603 -0.2293
 7434SOL    HW329509   3.128   0.619   5.535  0.0843 -0.1011 -0.1136
 7434SOL    MW429510   3.172   0.545   5.524  0.3320  0.0235  0.0232
 7435SOL     OW29511   5.612   2.566   0.930  0.3522 -0.0338  0.3875
 7435SOL    HW229512   5.671   2.507   0.977 -0.1740 -0.9918 -0.1290
 7435SOL    HW329513   5.541   2.584   0.992  0.8807  0.6554  0.8039
 7435SOL    MW429514   5.610   2.561   0.944  0.3525 -0.0693  0.3743
 7436SOL     OW29515   3.375   1.738   0.059 -0.0841  0.1354 -0.3051
 7436SOL    HW229516   3.443   1.675   0.033  0.5400  1.0074 -0.8269
 7436SOL    HW329517   3.361   1.793  -0.018  1.1970  2.2337  0.8546
 7436SOL    MW429518   3.382   1.737   0.045  0.1672  0.5273 -0.2209
 7437SOL     OW29519   2.984   1.282   2.059 -0.4981  0.0745 -0.4656
 7437SOL    HW229520   2.950   1.252   2.143 -2.8999  0.7461 -1.0903
 7437SOL    HW329521   2.989   1.377   2.068  1.4050 -0.0053 -0.3875
 7437SOL    MW429522   2.980   1.291   2.071 -0.5639  0.1526 -0.5377
 7438SOL     OW29523   2.799   0.658   2.182 -0.1677  0.1531  0.0898
 7438SOL    HW229524   2.812   0.752   2.179  0.9721  0.0714  1.2853
 7438SOL    HW329525   2.886   0.623   2.202 -0.7895 -1.0588  0.8154
 7438SOL    MW429526   2.813   0.666   2.184 -0.0993 -0.0176  0.3432
 7439SOL     OW29527   3.113   3.459   3.664  0.2923 -0.2233 -0.1001
 7439SOL    HW229528   3.141   3.550   3.663  1.3060 -0.5227 -0.6397
 7439SOL    HW329529   3.084   3.444   3.754 -0.3688  0.7604 -0.1377
 7439SOL    MW429530   3.113   3.469   3.676  0.3388 -0.1330 -0.1763
 7440SOL     OW29531   5.686   6.157   5.721  0.3688 -0.0330 -0.1403
 7440SOL    HW229532   5.723   6.079   5.680  0.3548 -0.3033  0.3498
 7440SOL    HW329533   5.669   6.217   5.648  0.3161 -0.5120 -0.5287
 7440SOL    MW429534   5.688   6.155   5.706  0.3600 -0.1319 -0.1269
 7441SOL     OW29535   5.414   3.672   4.648 -1.2454 -0.7446 -0.4626
 7441SOL    HW229536   5.389   3.591   4.603  0.7764 -0.6872 -1.8520
 7441SOL    HW329537   5.385   3.742   4.590  0.9982 -0.6577 -1.5908
 7441SOL    MW429538   5.407   3.670   4.635 -0.6826 -0.7256 -0.7948
 7442SOL     OW29539   2.355   0.330   3.493 -0.1972  0.2838 -0.4382
 7442SOL    HW229540   2.289   0.274   3.535  0.9088 -0.7514 -0.0268
 7442SOL    HW329541   2.304   0.388   3.437 -1.5308  0.0972  0.5279
 7442SOL    MW429542   2.340   0.330   3.491 -0.2272  0.1226 -0.2564
 7443SOL     OW29543   5.207   5.426   5.045 -0.2089 -0.0939  0.5651
 7443SOL    HW229544   5.179   5.372   5.119  1.2547 -1.0160  0.4817
 7443SOL    HW329545   5.133   5.421   4.984 -0.1917 -1.8957  0.6329
 7443SOL    MW429546   5.193   5.418   5.047 -0.0135 -0.4533  0.5630
 7444SOL     OW29547   2.776   1.162   0.275 -0.6788 -0.8133  0.3690
 7444SOL    HW229548   2.814   1.131   0.357 -0.9587  2.4426  1.8926
 7444SOL    HW329549   2.850   1.196   0.226 -0.8233 -0.3979  0.4369
 7444SOL    MW429550   2.791   1.162   0.279 -0.7348 -0.3289  0.5790
 7445SOL     OW29551   2.626   0.726   2.711  0.1824  0.9355  0.0256
 7445SOL    HW229552   2.554   0.677   2.671  0.8312 -0.1534  0.1528
 7445SOL    HW329553   2.679   0.659   2.756  1.2043  1.7231  0.0356
 7445SOL    MW429554   2.624   0.711   2.712  0.4028  0.8958  0.0437
 7446SOL     OW29555   4.542   3.919   0.301 -0.1896 -0.2751  0.1152
 7446SOL    HW229556   4.534   3.894   0.393 -0.4728  1.3888  0.5790
 7446SOL    HW329557   4.478   3.864   0.256 -0.0526 -1.1081  0.9172
 7446SOL    MW429558   4.532   3.909   0.307 -0.2089 -0.1654  0.2822
 7447SOL     OW29559   0.238   5.708   2.452 -0.0455  0.3850 -0.2504
 7447SOL    HW229560   0.318   5.714   2.504 -0.5660  2.0523  0.4316
 7447SOL    HW329561   0.258   5.644   2.383  1.3682 -0.2843  0.7438
 7447SOL    MW429562   0.251   5.700   2.450  0.0724  0.5166 -0.0292
 7448SOL     OW29563   3.224   1.641   4.260 -0.2758  0.4852 -0.5000
 7448SOL    HW229564   3.232   1.701   4.334 -0.7295  0.6151 -0.5564
 7448SOL    HW329565   3.313   1.609   4.246 -0.3187 -0.1677  0.6172
 7448SOL    MW429566   3.237   1.644   4.268 -0.3413  0.4162 -0.3600
 7449SOL     OW29567   2.078   3.767   0.458 -0.3140  0.0370 -0.7398
 7449SOL    HW229568   2.164   3.724   0.451 -0.5125 -0.4158 -0.4733
 7449SOL    HW329569   2.022   3.717   0.398 -0.9260 -1.0682  0.6908
 7449SOL    MW429570   2.082   3.755   0.449 -0.4209 -0.1686 -0.5159
 7450SOL     OW29571   1.673   0.383   0.211  0.2368  0.2797  0.4821
 7450SOL    HW229572   1.631   0.454   0.259 -0.0463  0.4087  0.0498
 7450SOL    HW329573   1.604   0.318   0.198  0.1675  0.4857 -0.2141
 7450SOL    MW429574   1.659   0.384   0.216  0.1903  0.3239  0.3332
 7451SOL     OW29575   5.989   0.306   4.410 -0.0307  0.6106 -0.4778
 7451SOL    HW229576   6.048   0.336   4.341  2.3415  1.2659  1.6882
 7451SOL    HW329577   5.907   0.353   4.394  0.7696  1.5001 -2.2290
 7451SOL    MW429578   5.986   0.316   4.399  0.3879  0.8145 -0.4231
 7452SOL     OW29579   0.981   5.856   2.796  0.3950 -0.0493  0.4858
 7452SOL    HW229580   0.934   5.922   2.746  1.0544  0.2326  0.2199
 7452SOL    HW329581   0.968   5.775   2.747  1.8032  0.3851 -0.7139
 7452SOL    MW429582   0.973   5.854   2.783  0.6678  0.0452  0.2925
 7453SOL     OW29583   2.376   5.580   1.837  0.3669 -0.4805  0.5197
 7453SOL    HW229584   2.313   5.521   1.878  0.2042 -1.2764 -0.8166
 7453SOL    HW329585   2.331   5.664   1.835  0.3915 -0.3952  1.9560
 7453SOL    MW429586   2.362   5.583   1.842  0.3487 -0.5743  0.5329
 7454SOL     OW29587   4.384   4.730   2.801  0.2903  0.0427  0.2281
 7454SOL    HW229588   4.355   4.810   2.756 -0.1411 -0.1286  0.1972
 7454SOL    HW329589   4.473   4.750   2.830  0.3260  0.3984 -0.1140
 7454SOL    MW429590   4.392   4.743   2.799  0.2381  0.0670  0.1789
 7455SOL     OW29591   4.133   1.972   1.039  0.2347  0.0385 -0.4279
 7455SOL    HW229592   4.100   2.057   1.007  0.0500  1.2148  2.5752
 7455SOL    HW329593   4.226   1.987   1.052  0.0435  0.1024  0.9668
 7455SOL    MW429594   4.141   1.985   1.036  0.1851  0.2021  0.1523
 7456SOL     OW29595   0.182   4.228   4.719  0.2991 -0.0794 -0.0251
 7456SOL    HW229596   0.191   4.290   4.646  0.0884  0.2078  0.1910
 7456SOL    HW329597   0.090   4.233   4.743  0.5442  0.4927  0.8440
 7456SOL    MW429598   0.171   4.237   4.712  0.3036  0.0339  0.1181
 7457SOL     OW29599   4.014   4.488   2.164 -0.0456 -0.2073  0.5223
 7457SOL    HW229600   4.011   4.397   2.134 -2.2870  0.2359 -0.8175
 7457SOL    HW329601   3.990   4.483   2.257  1.7118 -1.1042  0.9693
 7457SOL    MW429602   4.010   4.475   2.172 -0.1095 -0.2671  0.4045
 7458SOL     OW29603   2.006   2.549   2.199  0.3508  0.2717 -0.5099
 7458SOL    HW229604   1.924   2.507   2.176 -0.9545  1.7044  1.2604
 7458SOL    HW329605   2.029   2.513   2.285  2.5555 -1.3839 -1.6842
 7458SOL    MW429606   1.998   2.539   2.207  0.4695  0.2423 -0.4313
 7459SOL     OW29607   5.801   1.335   0.970  0.0573 -0.0754 -0.2199
 7459SOL    HW229608   5.806   1.356   1.063 -2.2159 -1.8786  0.4192
 7459SOL    HW329609   5.732   1.392   0.936  0.3751  0.0610 -0.6519
 7459SOL    MW429610   5.792   1.345   0.978 -0.2006 -0.2953 -0.1926
 7460SOL     OW29611   1.042   0.577   0.087 -0.1647  0.2026 -0.3343
 7460SOL    HW229612   1.004   0.495   0.119  0.4877  0.4336  1.0866
 7460SOL    HW329613   1.029   0.639   0.158  1.8125  0.5854 -0.2439
 7460SOL    MW429614   1.035   0.574   0.100  0.1822  0.2836 -0.1349
 7461SOL     OW29615   6.242   6.163   4.186  0.1606 -0.0407  0.4867
 7461SOL    HW229616   6.331   6.129   4.198 -0.0558 -1.5501 -1.5193
 7461SOL    HW329617   6.246   6.253   4.217  2.2047 -0.2909  1.1101
 7461SOL    MW429618   6.254   6.170   4.191  0.4017 -0.2729  0.3043
 7462SOL     OW29619   1.612   4.124   2.628 -0.3976  0.2825 -0.1873
 7462SOL    HW229620   1.622   4.141   2.535  0.3355  1.0561  0.0306
 7462SOL    HW329621   1.693   4.080   2.654 -0.8496 -0.4948 -0.0246
 7462SOL    MW429622   1.624   4.120   2.620 -0.3605  0.2820 -0.1371
 7463SOL     OW29623   5.651   2.743   3.159  0.5142  0.2575 -0.3306
 7463SOL    HW229624   5.650   2.779   3.248 -3.3663  0.8041 -0.4466
 7463SOL    HW329625   5.618   2.654   3.169 -0.4299  0.4833 -1.2254
 7463SOL    MW429626   5.647   2.736   3.172 -0.1223  0.3594 -0.4640
 7464SOL     OW29627   4.685   4.949   5.150  0.2605 -0.4055 -0.1067
 7464SOL    HW229628   4.770   4.908   5.166  0.5707 -0.0661 -0.8543
 7464SOL    HW329629   4.706   5.034   5.110 -0.4206 -0.1924 -0.0266
 7464SOL    MW429630   4.699   4.955   5.147  0.2115 -0.3326 -0.1947
 7465SOL     OW29631   2.345   1.247   2.317 -0.2318 -0.2270 -0.0091
 7465SOL    HW229632   2.397   1.255   2.237  1.5808 -0.7562  1.0402
 7465SOL    HW329633   2.270   1.304   2.303 -0.5155 -1.0816 -2.4752
 7465SOL    MW429634   2.342   1.256   2.305 -0.0301 -0.4096 -0.1960
 7466SOL     OW29635   3.174   0.986   0.166  0.0402 -0.2132 -0.3328
 7466SOL    HW229636   3.130   0.911   0.206 -0.5284  0.4387  0.2964
 7466SOL    HW329637   3.243   1.010   0.228 -0.6498  0.6117  0.1364
 7466SOL    MW429638   3.177   0.980   0.179 -0.1259 -0.0184 -0.1879
 7467SOL     OW29639   5.513   3.535   0.844  0.1546  0.3385  0.3828
 7467SOL    HW229640   5.445   3.495   0.898  0.2998  0.3970  0.6100
 7467SOL    HW329641   5.534   3.469   0.778 -1.8531  1.1929 -1.2262
 7467SOL    MW429642   5.507   3.521   0.842 -0.0912  0.4589  0.2005
 7468SOL     OW29643   3.811   2.183   0.775 -0.4265  0.0768  0.0425
 7468SOL    HW229644   3.871   2.150   0.709 -2.1868 -0.4543 -1.3719
 7468SOL    HW329645   3.811   2.278   0.763  0.1064  0.0814  0.0578
 7468SOL    MW429646   3.819   2.192   0.765 -0.5884  0.0073 -0.1421
 7469SOL     OW29647   3.320   5.401   1.547 -0.5696  0.5501  0.5642
 7469SOL    HW229648   3.343   5.346   1.622 -1.6392 -0.2310  0.3465
 7469SOL    HW329649   3.235   5.439   1.570 -0.4753  1.0307  0.1367
 7469SOL    MW429650   3.312   5.399   1.560 -0.6983  0.5105  0.4791
 7470SOL     OW29651   6.019   4.029   3.699  0.0662  0.0690 -0.5600
 7470SOL    HW229652   5.932   4.047   3.734 -1.1162 -0.4235 -3.0259
 7470SOL    HW329653   6.079   4.066   3.763 -1.9501  0.6572  1.0874
 7470SOL    MW429654   6.016   4.036   3.712 -0.3558  0.0816 -0.6680
 7471SOL     OW29655   5.328   5.659   5.110 -0.3404 -0.5972  0.3733
 7471SOL    HW229656   5.415   5.691   5.136  0.6322 -0.4014 -2.7137
 7471SOL    HW329657   5.333   5.564   5.124 -0.5298 -0.3287  2.4686
 7471SOL    MW429658   5.340   5.651   5.115 -0.2371 -0.5360  0.2425
 7472SOL     OW29659   0.559   4.505   4.338  0.1718  0.0976  0.5887
 7472SOL    HW229660   0.607   4.539   4.413  1.5507 -1.5030  0.5196
 7472SOL    HW329661   0.555   4.410   4.353 -1.7759  0.0241 -0.1281
 7472SOL    MW429662   0.565   4.497   4.350  0.0968 -0.1233  0.4850
 7473SOL     OW29663   4.418   3.218   4.706 -0.5630  0.6919 -0.0936
 7473SOL    HW229664   4.491   3.280   4.711  0.1490  0.0227 -1.6042
 7473SOL    HW329665   4.353   3.263   4.652 -1.3276  1.2927  1.2595
 7473SOL    MW429666   4.419   3.232   4.700 -0.5699  0.6829 -0.1144
 7474SOL     OW29667   1.024   3.855   4.969  0.7436 -0.3990 -0.0644
 7474SOL    HW229668   0.952   3.910   4.935  0.5931 -0.0300  0.8281
 7474SOL    HW329669   0.980   3.777   5.002  0.7283 -0.1078  0.6178
 7474SOL    MW429670   1.009   3.852   4.968  0.7217 -0.3119  0.1433
 7475SOL     OW29671   1.947   3.345   5.387 -0.5887 -0.3058 -0.4936
 7475SOL    HW229672   1.930   3.413   5.452 -0.8744  0.3341 -1.2110
 7475SOL    HW329673   2.041   3.349   5.372 -0.5853 -0.1626 -0.4330
 7475SOL    MW429674   1.957   3.355   5.393 -0.6259 -0.2025 -0.5803
 7476SOL     OW29675   5.748   2.740   4.884 -0.8115  0.5993  0.3852
 7476SOL    HW229676   5.800   2.814   4.916 -0.6084  1.7775 -2.3133
 7476SOL    HW329677   5.759   2.672   4.950  1.9151  1.7520  1.2899
 7476SOL    MW429678   5.757   2.741   4.897 -0.4249  0.9068  0.1485
 7477SOL     OW29679   1.033   0.784   2.425 -0.1933 -0.3539 -0.1093
 7477SOL    HW229680   0.980   0.853   2.466 -0.1171  0.1235 -0.7932
 7477SOL    HW329681   0.969   0.730   2.378 -0.1149 -0.0186 -0.5984
 7477SOL    MW429682   1.017   0.786   2.424 -0.1729 -0.2467 -0.2640
 7478SOL     OW29683   3.535   2.625   2.336 -0.1573 -0.0193  0.3955
 7478SOL    HW229684   3.563   2.636   2.245  3.1851  1.4752  1.4278
 7478SOL    HW329685   3.572   2.541   2.364 -1.0900 -0.4309  0.4343
 7478SOL    MW429686   3.543   2.616   2.328  0.1606  0.1236  0.5368
 7479SOL     OW29687   2.867   4.012   1.213  0.1198  0.4517 -0.0187
 7479SOL    HW229688   2.890   4.028   1.305  0.2794  0.9108 -0.1388
 7479SOL    HW329689   2.943   3.966   1.177 -0.6581 -1.3759  0.5327
 7479SOL    MW429690   2.880   4.008   1.221  0.0382  0.2711  0.0382
 7480SOL     OW29691   1.143   4.352   5.269 -0.2465 -0.3125 -0.3192
 7480SOL    HW229692   1.153   4.343   5.363 -1.1460  1.4491 -0.0237
 7480SOL    HW329693   1.058   4.312   5.249 -0.1246 -0.5481 -0.3809
 7480SOL    MW429694   1.133   4.345   5.279 -0.3491 -0.1111 -0.2883
 7481SOL     OW29695   1.469   2.208   3.187  0.3476 -0.5048  0.1833
 7481SOL    HW229696   1.443   2.236   3.275  0.7509 -1.1085  0.5020
 7481SOL    HW329697   1.403   2.247   3.129  0.2414  0.1396  0.7193
 7481SOL    MW429698   1.457   2.217   3.191  0.3868 -0.4994  0.2960
 7482SOL     OW29699   2.210   5.449   5.259 -0.0056  0.5950 -0.0472
 7482SOL    HW229700   2.160   5.412   5.186  0.8967  0.2683 -0.5205
 7482SOL    HW329701   2.261   5.375   5.293 -0.7361  0.6409  1.2078
 7482SOL    MW429702   2.210   5.435   5.254  0.0171  0.5580  0.0559
 7483SOL     OW29703   4.972   2.711   5.171  0.0170 -0.4104 -0.0453
 7483SOL    HW229704   4.886   2.693   5.133  0.3275 -0.9071 -0.5277
 7483SOL    HW329705   4.955   2.724   5.264 -0.7812  0.9266 -0.3405
 7483SOL    MW429706   4.958   2.711   5.178 -0.0473 -0.2995 -0.1479
 7484SOL     OW29707   1.644   4.554   5.135 -0.6990 -0.1564  0.1750
 7484SOL    HW229708   1.623   4.539   5.227 -0.2724 -1.2829  0.1038
 7484SOL    HW329709   1.732   4.592   5.136 -1.0837  0.7527  0.2707
 7484SOL    MW429710   1.653   4.557   5.147 -0.6935 -0.1851  0.1782
 7485SOL     OW29711   2.683   6.116   2.065  0.0242 -0.5337  0.5299
 7485SOL    HW229712   2.694   6.175   1.990  1.9540 -3.0144 -1.2943
 7485SOL    HW329713   2.691   6.173   2.142 -0.0021  1.8047 -1.1075
 7485SOL    MW429714   2.685   6.131   2.066  0.2753 -0.5525  0.0732
 7486SOL     OW29715   5.227   5.376   2.077  0.2142 -0.0997 -0.1953
 7486SOL    HW229716   5.215   5.343   1.988  1.5798  0.9741 -0.8024
 7486SOL    HW329717   5.164   5.448   2.085 -1.9389 -1.9800  0.7336
 7486SOL    MW429718   5.217   5.381   2.067  0.1103 -0.2061 -0.1528
 7487SOL     OW29719   5.143   6.100   3.499  0.0765  0.6227  0.2052
 7487SOL    HW229720   5.063   6.089   3.447  0.2541  0.5719 -0.0609
 7487SOL    HW329721   5.130   6.184   3.544  0.0529  0.8232 -0.1654
 7487SOL    MW429722   5.131   6.110   3.498  0.0968  0.6425  0.1212
 7488SOL     OW29723   0.454   3.303   2.874  0.4476  0.4763  0.1053
 7488SOL    HW229724   0.507   3.303   2.954  2.7208 -0.2227 -1.2856
 7488SOL    HW329725   0.436   3.396   2.857  1.9921  0.8385  0.2217
 7488SOL    MW429726   0.459   3.315   2.882  0.9513  0.4319 -0.0629
 7489SOL     OW29727   0.121   2.728   4.154 -0.1901  0.2098  0.0227
 7489SOL    HW229728   0.104   2.762   4.242 -0.4809 -0.0686  0.0770
 7489SOL    HW329729   0.072   2.786   4.096  0.1429  0.4983  0.0300
 7489SOL    MW429730   0.113   2.740   4.158 -0.1845  0.2111  0.0308
 7490SOL     OW29731   4.579   3.006   4.586 -0.5710 -1.0280 -0.1802
 7490SOL    HW229732   4.609   3.066   4.518 -1.0220  0.2915  0.7343
 7490SOL    HW329733   4.533   3.063   4.649  0.4286 -2.0855  1.5734
 7490SOL    MW429734   4.577   3.022   4.586 -0.4986 -0.9935  0.1718
 7491SOL     OW29735   5.859   1.629   6.014 -0.1869 -0.0709  0.3590
 7491SOL    HW229736   5.771   1.603   6.041 -0.5725  0.2667 -0.5542
 7491SOL    HW329737   5.889   1.685   6.086 -0.5273 -0.5545  0.8956
 7491SOL    MW429738   5.851   1.633   6.027 -0.2827 -0.0902  0.3093
 7492SOL     OW29739   5.494   5.163   5.050 -0.3463  0.7959 -0.4362
 7492SOL    HW229740   5.572   5.215   5.067 -0.1387  0.1845  0.5695
 7492SOL    HW329741   5.515   5.114   4.971  0.6904 -0.0958  0.3590
 7492SOL    MW429742   5.507   5.164   5.042 -0.1821  0.5976 -0.1986
 7493SOL     OW29743   4.219   4.884   2.577  0.5226 -0.3494  0.4441
 7493SOL    HW229744   4.165   4.930   2.513  0.5787 -0.0884  0.5849
 7493SOL    HW329745   4.206   4.932   2.659  1.7343  0.3263  0.2676
 7493SOL    MW429746   4.210   4.896   2.580  0.6899 -0.2258  0.4394
 7494SOL     OW29747   2.849   2.485   1.493 -0.0011  0.7977  0.2497
 7494SOL    HW229748   2.802   2.463   1.573  1.2120  1.8842  1.3085
 7494SOL    HW329749   2.941   2.492   1.520  0.7703 -0.8130 -1.6466
 7494SOL    MW429750   2.855   2.483   1.507  0.2607  0.7286  0.1392
 7495SOL     OW29751   0.229   4.750   3.638 -0.5591  0.0557  0.0051
 7495SOL    HW229752   0.279   4.816   3.590 -1.7576  0.9100 -0.1088
 7495SOL    HW329753   0.140   4.758   3.604 -0.9679 -0.8356  0.8179
 7495SOL    MW429754   0.224   4.760   3.627 -0.7712  0.0508  0.0973
 7496SOL     OW29755   6.224   5.289   4.765  0.1184 -0.2718  0.1715
 7496SOL    HW229756   6.224   5.325   4.854 -0.0179  1.9185 -0.6563
 7496SOL    HW329757   6.309   5.315   4.729  0.3077 -1.4290 -0.2449
 7496SOL    MW429758   6.235   5.297   4.772  0.1254 -0.1355  0.0073
 7497SOL     OW29759   3.370   1.477   2.484  0.1217  0.1757  0.7837
 7497SOL    HW229760   3.415   1.472   2.569 -0.3115  1.2954  1.1015
 7497SOL    HW329761   3.362   1.386   2.456 -0.9643 -0.3493  2.6138
 7497SOL    MW429762   3.375   1.464   2.492 -0.0787  0.2542  1.0671
 7498SOL     OW29763   2.110   4.703   0.749  0.1142  0.6827 -0.6293
 7498SOL    HW229764   2.109   4.610   0.772  1.7386  0.1712 -2.4259
 7498SOL    HW329765   2.029   4.738   0.788 -0.7062 -1.5229 -0.2110
 7498SOL    MW429766   2.099   4.696   0.757  0.2203  0.3242 -0.8111
 7499SOL     OW29767   3.794   5.644   2.451 -0.0505 -0.2058  0.7870
 7499SOL    HW229768   3.855   5.705   2.492  0.1301  0.1043  0.0646
 7499SOL    HW329769   3.715   5.650   2.505 -0.0420  0.6819  0.7142
 7499SOL    MW429770   3.791   5.653   2.463 -0.0256 -0.0478  0.6821
 7500SOL     OW29771   5.568   5.826   4.812  0.3106 -0.3812  0.2639
 7500SOL    HW229772   5.612   5.886   4.752 -0.8070 -1.4421 -1.7337
 7500SOL    HW329773   5.624   5.748   4.813  0.4537 -0.2736  0.8170
 7500SOL    MW429774   5.581   5.824   4.804  0.1820 -0.5070  0.0733
 7501SOL     OW29775   3.311   3.910   4.516 -0.1897  0.2275  0.4670
 7501SOL    HW229776   3.258   3.896   4.438 -0.5934 -0.3695  0.8408
 7501SOL    HW329777   3.294   3.833   4.571  1.0755  0.0069  0.5844
 7501SOL    MW429778   3.302   3.898   4.513 -0.0760  0.1196  0.5318
 7502SOL     OW29779   2.253   6.155   0.960 -0.3844  0.2575 -0.2329
 7502SOL    HW229780   2.319   6.093   0.991 -0.4407  0.3192  0.0106
 7502SOL    HW329781   2.173   6.103   0.954 -0.3670  0.2382 -0.3110
 7502SOL    MW429782   2.251   6.140   0.963 -0.3896  0.2631 -0.2111
 7503SOL     OW29783   6.180   5.694   5.504  0.0530  0.0531 -0.0876
 7503SOL    HW229784   6.177   5.599   5.495 -1.1830  0.1971 -1.6027
 7503SOL    HW329785   6.244   5.723   5.438 -0.0964  0.3113 -0.1234
 7503SOL    MW429786   6.188   5.686   5.494 -0.1298  0.1062 -0.2922
 7504SOL     OW29787   4.021   6.340   2.422  0.1559  0.9502 -0.1334
 7504SOL    HW229788   4.022   6.429   2.386 -1.7957  0.9730 -0.1993
 7504SOL    HW329789   3.970   6.347   2.503  1.1495  0.1307  0.5895
 7504SOL    MW429790   4.015   6.352   2.428  0.0295  0.8450 -0.0467
 7505SOL     OW29791   2.256   4.744   3.229  0.3786  0.4026 -0.3084
 7505SOL    HW229792   2.242   4.832   3.263  0.6266  1.0881 -1.8899
 7505SOL    HW329793   2.351   4.733   3.228  0.3410  0.0003  0.1496
 7505SOL    MW429794   2.266   4.754   3.233  0.4064  0.4400 -0.4567
 7506SOL     OW29795   3.172   1.128   5.979 -0.3784 -0.3737 -0.1718
 7506SOL    HW229796   3.097   1.146   5.922 -1.6378 -3.7970  0.1253
 7506SOL    HW329797   3.144   1.155   6.066 -1.1604 -1.2072 -0.1429
 7506SOL    MW429798   3.158   1.134   5.983 -0.6478 -0.9353 -0.1288
 7507SOL     OW29799   3.905   1.574   5.497  0.4257 -0.2925 -0.0805
 7507SOL    HW229800   3.971   1.569   5.566  0.1800  1.2231  0.3043
 7507SOL    HW329801   3.830   1.525   5.532  1.0318 -1.3577 -0.2026
 7507SOL    MW429802   3.904   1.567   5.511  0.4732 -0.2331 -0.0458
 7508SOL     OW29803   0.205   5.625   0.936 -0.6372 -0.3377 -0.1439
 7508SOL    HW229804   0.134   5.583   0.887 -1.0450 -0.4840  0.5628
 7508SOL    HW329805   0.161   5.682   0.999 -0.1053  1.8532 -1.6431
 7508SOL    MW429806   0.190   5.627   0.938 -0.6208 -0.0679 -0.2485
 7509SOL     OW29807   0.827   0.236   4.807  0.0424  0.1204  0.5233
 7509SOL    HW229808   0.856   0.191   4.887 -1.0602  2.3771  2.3315
 7509SOL    HW329809   0.902   0.290   4.781  0.8278 -1.4904 -0.7618
 7509SOL    MW429810   0.841   0.237   4.814  0.0006  0.2056  0.5923
 7510SOL     OW29811   2.048   2.922   0.887 -0.5474 -0.2617  0.1375
 7510SOL    HW229812   2.118   2.866   0.853 -1.6261 -1.4721 -0.1715
 7510SOL    HW329813   2.092   3.003   0.910  0.9967 -1.0576  0.1473
 7510SOL    MW429814   2.063   2.925   0.885 -0.4860 -0.5264  0.0980
 7511SOL     OW29815   4.040   5.041   1.055 -0.0134  0.4301  0.3404
 7511SOL    HW229816   3.952   5.050   1.020  0.2356  0.0884 -0.4104
 7511SOL    HW329817   4.061   5.127   1.091 -1.4560 -0.0556  2.5319
 7511SOL    MW429818   4.031   5.054   1.055 -0.1709  0.3209  0.5305
 7512SOL     OW29819   0.957   4.582   3.029 -0.1099  0.0042  0.4878
 7512SOL    HW229820   1.034   4.607   2.977  0.4288  0.7586  1.6050
 7512SOL    HW329821   0.883   4.613   2.978  0.2524 -1.4753 -1.0193
 7512SOL    MW429822   0.957   4.590   3.015  0.0090 -0.0915  0.4363
 7513SOL     OW29823   2.763   0.012   1.634 -0.2645 -0.2483  0.4137
 7513SOL    HW229824   2.830   0.078   1.615 -0.5709  0.2296  0.9665
 7513SOL    HW329825   2.764   0.002   1.729 -0.4320 -0.8231  0.3629
 7513SOL    MW429826   2.772   0.019   1.644 -0.3270 -0.2611  0.4799
 7514SOL     OW29827   5.313   0.862   5.500  0.3056  0.8421 -0.8817
 7514SOL    HW229828   5.401   0.841   5.472 -0.5260 -0.1489 -2.9662
 7514SOL    HW329829   5.306   0.957   5.491  1.6705  1.1905  1.0937
 7514SOL    MW429830   5.323   0.871   5.495  0.3760  0.7573 -0.8961
 7515SOL     OW29831   0.432   2.976   5.745 -0.5152  0.0406  1.0495
 7515SOL    HW229832   0.461   3.004   5.832  1.6286 -0.6681  0.6398
 7515SOL    HW329833   0.371   2.904   5.762 -3.3427  2.4802  1.9984
 7515SOL    MW429834   0.428   2.970   5.759 -0.6054  0.2689  1.1206
 7516SOL     OW29835   5.701   4.933   3.415 -0.6277 -0.1904 -0.1671
 7516SOL    HW229836   5.630   4.967   3.469 -0.7727  1.8371 -1.5070
 7516SOL    HW329837   5.723   4.848   3.454 -0.9728  0.9586  2.7791
 7516SOL    MW429838   5.694   4.926   3.427 -0.6924  0.2287  0.0448
 7517SOL     OW29839   2.416   3.108   2.473 -0.2455 -0.2339  0.2483
 7517SOL    HW229840   2.440   3.026   2.515  2.4970  0.5691  0.4639
 7517SOL    HW329841   2.444   3.098   2.382  0.0904  0.4335  0.2721
 7517SOL    MW429842   2.423   3.096   2.467  0.1607 -0.0399  0.2799
 7518SOL     OW29843   0.384   2.472   1.474 -0.2558 -0.1969 -0.0301
 7518SOL    HW229844   0.372   2.487   1.381 -0.1430  0.6520  0.0863
 7518SOL    HW329845   0.381   2.559   1.514  1.1005 -0.4020  0.5850
 7518SOL    MW429846   0.382   2.485   1.467 -0.0620 -0.1120  0.0664
 7519SOL     OW29847   1.339   6.234   3.524 -0.7443  0.5129  0.1130
 7519SOL    HW229848   1.323   6.328   3.513  0.1847  0.7948  0.9772
 7519SOL    HW329849   1.418   6.230   3.578 -0.9257 -0.7731  0.3032
 7519SOL    MW429850   1.348   6.246   3.530 -0.6456  0.3804  0.2521
 7520SOL     OW29851   3.714   6.104   5.913  0.2544  0.1724  0.1434
 7520SOL    HW229852   3.733   6.180   5.968  3.1522 -1.1346  1.1745
 7520SOL    HW329853   3.666   6.044   5.971  0.9154 -0.1046  0.4154
 7520SOL    MW429854   3.710   6.106   5.928  0.7239 -0.0366  0.3153
 7521SOL     OW29855   1.962   1.420   1.280 -0.0897  0.3004 -0.2219
 7521SOL    HW229856   2.027   1.403   1.212 -1.4306 -1.9034 -1.0764
 7521SOL    HW329857   2.013   1.428   1.361  1.4363  1.8367 -1.2751
 7521SOL    MW429858   1.977   1.419   1.282 -0.0653  0.2123 -0.4736
 7522SOL     OW29859   6.174   2.163   2.411  0.1242  0.4437 -0.2880
 7522SOL    HW229860   6.198   2.094   2.474 -0.1461  2.5594  2.3107
 7522SOL    HW329861   6.247   2.166   2.350  0.8291 -1.1404  0.4117
 7522SOL    MW429862   6.187   2.154   2.411  0.1816  0.5138  0.1472
 7523SOL     OW29863   4.987   2.497   2.958  0.2317  0.2077  0.0064
 7523SOL    HW229864   4.976   2.425   3.019 -3.6296  0.3182 -0.2793
 7523SOL    HW329865   5.001   2.456   2.873 -0.8138 -0.2360  0.0296
 7523SOL    MW429866   4.987   2.482   2.955 -0.4157  0.1637 -0.0282
 7524SOL     OW29867   0.086   3.457   6.034  0.3556 -0.3941 -0.0340
 7524SOL    HW229868   0.129   3.388   6.085  2.1412  0.4937 -0.2980
 7524SOL    HW329869   0.064   3.415   5.951  0.7959 -0.8272  0.0651
 7524SOL    MW429870   0.089   3.442   6.030  0.6493 -0.3341 -0.0557
 7525SOL     OW29871   5.001   6.361   5.446  0.1088  0.2668  0.5115
 7525SOL    HW229872   4.986   6.390   5.536  0.0296 -0.5049  0.7503
 7525SOL    HW329873   5.087   6.398   5.423 -0.8069  2.3175  0.1158
 7525SOL    MW429874   5.011   6.370   5.455 -0.0225  0.4355  0.4908
 7526SOL     OW29875   1.090   5.298   2.610 -0.1351  0.4673  0.5208
 7526SOL    HW229876   1.127   5.385   2.597 -0.2358  0.4209 -0.0704
 7526SOL    HW329877   1.162   5.248   2.649  0.7737  0.1022 -1.5340
 7526SOL    MW429878   1.104   5.303   2.614 -0.0285  0.4130  0.1717
 7527SOL     OW29879   1.799   0.169   1.665 -0.1245 -0.0820 -0.0208
 7527SOL    HW229880   1.825   0.249   1.619 -2.5014  0.1652 -1.0785
 7527SOL    HW329881   1.768   0.200   1.750 -0.8673  0.1429 -0.3587
 7527SOL    MW429882   1.799   0.184   1.670 -0.5361 -0.0197 -0.2049
 7528SOL     OW29883   0.122   1.269   4.106 -0.4797  0.0113  0.0637
 7528SOL    HW229884   0.132   1.326   4.030 -0.1996 -1.1624 -0.8220
 7528SOL    HW329885   0.037   1.291   4.143  0.0704  1.7247  0.4016
 7528SOL    MW429886   0.112   1.279   4.101 -0.3702  0.0825 -0.0086
 7529SOL     OW29887   5.585   0.532   2.413 -0.7453 -0.2247 -0.1935
 7529SOL    HW229888   5.599   0.496   2.500  2.4709 -4.0987 -1.9830
 7529SOL    HW329889   5.509   0.484   2.380  0.3814 -1.6918 -0.7595
 7529SOL    MW429890   5.577   0.521   2.420 -0.1723 -0.9294 -0.5043
 7530SOL     OW29891   2.776   0.500   1.943 -0.1409  0.0485 -0.1817
 7530SOL    HW229892   2.778   0.558   2.019  1.1267  0.3148 -0.3945
 7530SOL    HW329893   2.867   0.473   1.931 -0.8321 -3.0013  0.6724
 7530SOL    MW429894   2.788   0.504   1.951 -0.0649 -0.3187 -0.0971
 7531SOL     OW29895   3.700   1.478   0.837 -0.5927 -0.2413 -0.0741
 7531SOL    HW229896   3.612   1.449   0.859  0.0495 -0.3376  2.7850
 7531SOL    HW329897   3.710   1.561   0.885 -0.0521  1.3053 -2.6417
 7531SOL    MW429898   3.690   1.485   0.846 -0.4367 -0.0499 -0.0357
 7532SOL     OW29899   1.609   4.419   0.948 -0.1932 -0.2047 -0.0016
 7532SOL    HW229900   1.561   4.426   0.866 -0.8244  1.4502  0.4478
 7532SOL    HW329901   1.698   4.447   0.927  0.2077 -1.8353 -0.5358
 7532SOL    MW429902   1.615   4.424   0.935 -0.2236 -0.2015 -0.0128
 7533SOL     OW29903   0.328   5.270   0.365  0.6171  0.0711  0.3595
 7533SOL    HW229904   0.346   5.291   0.273  1.1386  0.1704  0.4818
 7533SOL    HW329905   0.278   5.345   0.397 -0.6281 -0.5049 -0.1612
 7533SOL    MW429906   0.324   5.282   0.357  0.5216  0.0082  0.3069
 7534SOL     OW29907   4.414   5.659   1.909 -0.1115  0.2257 -0.1710
 7534SOL    HW229908   4.355   5.639   1.836  1.8878 -0.9920 -1.5330
 7534SOL    HW329909   4.404   5.754   1.922  0.1870  0.6747 -2.7148
 7534SOL    MW429910   4.405   5.669   1.901  0.1916  0.1243 -0.6863
 7535SOL     OW29911   5.187   2.408   4.046  0.2165 -0.2497  0.0842
 7535SOL    HW229912   5.144   2.408   4.131  1.4232  1.7478  0.7502
 7535SOL    HW329913   5.278   2.430   4.065  1.1279 -2.2855 -1.4863
 7535SOL    MW429914   5.193   2.411   4.060  0.4960 -0.2548 -0.0351
 7536SOL     OW29915   0.072   2.438   5.868 -0.4216 -0.5986 -0.0081
 7536SOL    HW229916   0.141   2.414   5.806 -0.6533 -4.3806  0.9827
 7536SOL    HW329917   0.115   2.437   5.953 -1.3156 -1.2117  0.4459
 7536SOL    MW429918   0.087   2.435   5.871 -0.5701 -1.1785  0.1825
 7537SOL     OW29919   5.838   2.100   5.016  0.6927  1.0434 -0.1647
 7537SOL    HW229920   5.795   2.168   4.963 -0.6175  0.8558  0.6301
 7537SOL    HW329921   5.828   2.020   4.965 -1.2211  0.7168  0.6345
 7537SOL    MW429922   5.831   2.099   5.002  0.2673  0.9755  0.0457
 7538SOL     OW29923   5.892   6.092   4.096 -0.2183  0.0353  0.4477
 7538SOL    HW229924   5.956   6.026   4.125 -1.9302 -1.4961  0.9007
 7538SOL    HW329925   5.945   6.160   4.056  1.6160 -1.9110 -0.6497
 7538SOL    MW429926   5.908   6.092   4.095 -0.2022 -0.4236  0.3627
 7539SOL     OW29927   1.319   4.872   0.474  0.3076 -0.5040  0.1440
 7539SOL    HW229928   1.288   4.781   0.475 -0.0557 -0.3798  0.9136
 7539SOL    HW329929   1.242   4.924   0.498  0.5616 -0.0083 -0.1069
 7539SOL    MW429930   1.305   4.867   0.477  0.2932 -0.4223  0.2125
 7540SOL     OW29931   2.896   2.621   0.490 -0.4717  0.0146 -0.3094
 7540SOL    HW229932   2.967   2.647   0.431 -0.4304  1.1750  0.2144
 7540SOL    HW329933   2.938   2.611   0.576 -0.8719  0.3607 -0.0694
 7540SOL    MW429934   2.911   2.623   0.494 -0.5191  0.2134 -0.2086
 7541SOL     OW29935   4.004   6.161   1.967 -0.9153 -0.4260  0.1138
 7541SOL    HW229936   3.916   6.196   1.953 -1.6570 -2.2348 -0.0911
 7541SOL    HW329937   3.996   6.068   1.946  1.7641 -0.1523 -3.0413
 7541SOL    MW429938   3.991   6.153   1.962 -0.6596 -0.6286 -0.3295
 7542SOL     OW29939   1.665   5.013   5.875 -0.7006  0.3593  0.0512
 7542SOL    HW229940   1.671   5.005   5.970  0.9849  0.1236 -0.0544
 7542SOL    HW329941   1.626   4.930   5.847 -0.7410  0.2235  0.4981
 7542SOL    MW429942   1.660   5.001   5.884 -0.4836  0.3103  0.0962
 7543SOL     OW29943   4.802   4.071   5.295 -0.0672  0.1076  0.5285
 7543SOL    HW229944   4.752   4.038   5.369 -2.2997  0.3060 -0.8050
 7543SOL    HW329945   4.887   4.027   5.301 -0.2812 -0.0778  2.9911
 7543SOL    MW429946   4.807   4.061   5.306 -0.3900  0.1093  0.6775
 7544SOL     OW29947   0.623   4.828   5.579 -0.0857 -0.5590 -0.3132
 7544SOL    HW229948   0.682   4.767   5.536  0.5345 -0.2730  0.1220
 7544SOL    HW329949   0.585   4.879   5.507 -0.3409 -1.2090 -0.6478
 7544SOL    MW429950   0.626   4.827   5.563 -0.0376 -0.6070 -0.2999
 7545SOL     OW29951   4.504   0.336   1.004  0.3597  0.7759  0.4683
 7545SOL    HW229952   4.457   0.272   0.950  3.8093 -1.5129 -0.1641
 7545SOL    HW329953   4.436   0.376   1.058 -2.2125 -2.9854  0.4462
 7545SOL    MW429954   4.489   0.333   1.004  0.4755 -0.0223  0.3819
 7546SOL     OW29955   3.028   4.635   3.304  0.2929  0.4304 -0.3737
 7546SOL    HW229956   3.057   4.710   3.251 -0.3407  1.0894  0.1849
 7546SOL    HW329957   2.954   4.599   3.255 -1.1730  1.8640  0.6552
 7546SOL    MW429958   3.022   4.640   3.290  0.0159  0.7065 -0.1642
 7547SOL     OW29959   0.423   1.741   1.408 -0.0100 -0.4018 -0.4943
 7547SOL    HW229960   0.328   1.751   1.405 -0.0945 -0.9208  0.2261
 7547SOL    HW329961   0.442   1.713   1.497  0.7843 -0.6488 -0.7290
 7547SOL    MW429962   0.413   1.738   1.419  0.0836 -0.5029 -0.4302
 7548SOL     OW29963   3.579   2.021   6.123  0.2506  0.1227 -0.4989
 7548SOL    HW229964   3.632   2.004   6.045  2.1980 -0.9400  0.9546
 7548SOL    HW329965   3.617   2.099   6.161  0.5445 -0.4226  0.3529
 7548SOL    MW429966   3.591   2.029   6.117  0.5463 -0.0894 -0.1947
 7549SOL     OW29967   0.978   3.557   2.537  0.5231 -0.9024  0.2231
 7549SOL    HW229968   0.886   3.583   2.546  0.1467 -1.7014 -1.0657
 7549SOL    HW329969   0.979   3.465   2.563  0.0597 -2.2199 -3.7481
 7549SOL    MW429970   0.966   3.548   2.542  0.4123 -1.1816 -0.4709
 7550SOL     OW29971   3.249   1.863   1.799 -0.6256  0.1940 -0.0798
 7550SOL    HW229972   3.324   1.807   1.784 -0.4373  0.1129  1.1094
 7550SOL    HW329973   3.177   1.803   1.820 -0.6215  0.3402  0.3743
 7550SOL    MW429974   3.249   1.848   1.800 -0.6002  0.2026  0.1371
 7551SOL     OW29975   6.054   2.350   4.099  0.0592 -0.0550 -0.4167
 7551SOL    HW229976   5.977   2.390   4.057  0.2940  0.7282 -0.1302
 7551SOL    HW329977   6.019   2.272   4.143 -0.7875  0.8097  0.5267
 7551SOL    MW429978   6.039   2.345   4.099 -0.0216  0.1624 -0.2544
 7552SOL     OW29979   6.154   4.254   5.434 -0.4231 -0.4922 -0.0212
 7552SOL    HW229980   6.243   4.223   5.414 -0.2022 -0.4643  0.8554
 7552SOL    HW329981   6.153   4.345   5.404  0.3762  0.0146  1.3817
 7552SOL    MW429982   6.166   4.262   5.427 -0.2885 -0.4216  0.2796
 7553SOL     OW29983   2.339   1.685   3.841 -0.2292 -0.1461  0.1793
 7553SOL    HW229984   2.319   1.777   3.856  1.1242  0.3074 -0.6386
 7553SOL    HW329985   2.267   1.654   3.786 -0.0752  0.7649 -0.5761
 7553SOL    MW429986   2.327   1.693   3.836 -0.0303  0.0339 -0.0282
 7554SOL     OW29987   6.423   3.984   3.922  0.1249  0.0611 -0.0749
 7554SOL    HW229988   6.447   3.983   4.015  1.1004 -0.8035 -0.3152
 7554SOL    HW329989   6.432   3.892   3.894 -1.5760  0.0338 -0.6848
 7554SOL    MW429990   6.427   3.971   3.931  0.0292 -0.0566 -0.1871
 7555SOL     OW29991   2.642   0.269   3.123  0.8083 -0.2839  0.1927
 7555SOL    HW229992   2.720   0.291   3.071  0.1252  0.0213 -0.7385
 7555SOL    HW329993   2.638   0.338   3.189  0.7457  0.3122 -0.4166
 7555SOL    MW429994   2.652   0.281   3.125  0.7099 -0.1650 -0.0105
 7556SOL     OW29995   2.234   5.949   0.635 -0.8527  0.2984 -0.1585
 7556SOL    HW229996   2.283   6.020   0.676 -2.1599  1.6358 -0.8186
 7556SOL    HW329997   2.298   5.906   0.578 -0.0174  0.8651  0.3172
 7556SOL    MW429998   2.249   5.953   0.633 -0.9150  0.5496 -0.1829
 7557SOL     OW29999   5.216   0.424   1.373 -0.0104 -0.1901  0.0223
 7557SOL    HW230000   5.200   0.478   1.296  0.9680  1.4439  0.9078
 7557SOL    HW330001   5.287   0.365   1.347  0.0270  0.0583 -0.4459
 7557SOL    MW430002   5.223   0.423   1.360  0.1236  0.0583  0.0774
 7558SOL     OW30003   6.077   1.275   4.478 -0.2995  0.3797 -0.2409
 7558SOL    HW230004   6.023   1.267   4.399  0.1362 -0.5612 -0.4525
 7558SOL    HW330005   6.042   1.352   4.523 -1.7125 -0.1150 -0.4574
 7558SOL    MW430006   6.065   1.284   4.473 -0.4285  0.1903 -0.2974
 7559SOL     OW30007   2.840   1.302   0.724  0.0449  0.3338  0.3185
 7559SOL    HW230008   2.805   1.271   0.808 -1.3243  2.9255  0.7932
 7559SOL    HW330009   2.763   1.330   0.675  1.0017  0.7489 -0.9882
 7559SOL    MW430010   2.825   1.302   0.729 -0.0095  0.7305  0.2088
 7560SOL     OW30011   4.241   5.280   1.359 -0.1986  0.4802  0.3903
 7560SOL    HW230012   4.305   5.343   1.327  0.6878  0.9438  2.8187
 7560SOL    HW330013   4.273   5.255   1.446 -1.6633 -1.7104  0.3888
 7560SOL    MW430014   4.254   5.285   1.366 -0.2749  0.2524  0.7105
 7561SOL     OW30015   4.772   5.024   1.778 -0.3547 -0.3090 -0.0013
 7561SOL    HW230016   4.816   5.047   1.696 -0.3901 -0.8219 -0.1650
 7561SOL    HW330017   4.795   5.095   1.838  0.5866 -0.4942 -0.1236
 7561SOL    MW430018   4.781   5.037   1.775 -0.2352 -0.4011 -0.0390
 7562SOL     OW30019   0.151   3.404   2.727 -0.5541  0.2034  0.3819
 7562SOL    HW230020   0.200   3.465   2.783  0.5888 -1.6718  1.5441
 7562SOL    HW330021   0.061   3.412   2.757 -0.5058  1.5400  0.2665
 7562SOL    MW430022   0.146   3.413   2.738 -0.3969  0.1323  0.5200
 7563SOL     OW30023   4.783   2.572   3.923  0.0035 -0.6423 -0.0231
 7563SOL    HW230024   4.751   2.505   3.983  2.7344 -1.3127  0.8223
 7563SOL    HW330025   4.822   2.639   3.980 -0.3603  0.3921 -0.9542
 7563SOL    MW430026   4.784   2.572   3.939  0.3158 -0.5943 -0.0344
 7564SOL     OW30027   4.352   4.217   3.215 -0.8257 -0.2399 -0.1649
 7564SOL    HW230028   4.266   4.174   3.221 -0.3580 -1.4040 -1.4114
 7564SOL    HW330029   4.410   4.149   3.182  0.2880  0.9364 -0.6803
 7564SOL    MW430030   4.348   4.203   3.212 -0.6170 -0.2383 -0.3974
 7565SOL     OW30031   2.474   4.772   5.132  0.3863  0.0001  0.3486
 7565SOL    HW230032   2.479   4.863   5.160  2.3531  0.3004 -0.7498
 7565SOL    HW330033   2.489   4.721   5.212  0.4648  0.6632  0.7631
 7565SOL    MW430034   2.477   4.777   5.146  0.6562  0.1272  0.2584
 7566SOL     OW30035   2.516   3.574   6.246  0.6806  0.2501 -0.5404
 7566SOL    HW230036   2.468   3.608   6.322  2.6939  2.6425 -0.2279
 7566SOL    HW330037   2.549   3.489   6.275 -2.5539 -1.1715 -0.5175
 7566SOL    MW430038   2.514   3.568   6.260  0.5195  0.3782 -0.4961
 7567SOL     OW30039   4.111   1.170   6.053  0.6242  0.5933  0.2693
 7567SOL    HW230040   4.112   1.090   6.104 -0.6080  0.2765 -0.1610
 7567SOL    HW330041   4.158   1.234   6.106  2.1861 -0.5641  0.3331
 7567SOL    MW430042   4.118   1.168   6.066  0.6677  0.3988  0.2210
 7568SOL     OW30043   0.949   0.916   4.884  0.2332  0.4409 -0.2874
 7568SOL    HW230044   0.925   0.842   4.829 -0.0965 -0.2377  0.7469
 7568SOL    HW330045   1.007   0.969   4.829  0.2154 -0.4115 -1.1459
 7568SOL    MW430046   0.954   0.913   4.870  0.1874  0.2389 -0.2642
 7569SOL     OW30047   0.904   3.629   5.793  0.6075 -1.0102 -0.8082
 7569SOL    HW230048   0.961   3.694   5.835 -1.0849  0.3827 -0.5188
 7569SOL    HW330049   0.954   3.548   5.795  1.9577 -0.2070  0.8080
 7569SOL    MW430050   0.918   3.627   5.799  0.5624 -0.7205 -0.5568
 7570SOL     OW30051   5.758   5.375   2.618  0.0309 -0.0926 -0.1499
 7570SOL    HW230052   5.844   5.333   2.610 -0.1609 -0.6297  0.4706
 7570SOL    HW330053   5.726   5.381   2.528  1.2218  1.2403 -0.5301
 7570SOL    MW430054   5.765   5.370   2.605  0.1627  0.0124 -0.1182
 7571SOL     OW30055   1.324   1.244   5.245 -0.6425  0.1758 -0.0967
 7571SOL    HW230056   1.282   1.330   5.255  0.4932  0.9258 -1.3234
 7571SOL    HW330057   1.417   1.265   5.232 -0.3140 -1.2593 -0.1670
 7571SOL    MW430058   1.331   1.258   5.244 -0.4493  0.0854 -0.2679
 7572SOL     OW30059   4.588   3.156   5.092  0.4254 -0.1294 -0.0515
 7572SOL    HW230060   4.549   3.140   5.178 -1.6388 -0.5028 -1.0033
 7572SOL    HW330061   4.518   3.197   5.041  1.1425 -1.1981 -1.9890
 7572SOL    MW430062   4.574   3.160   5.097  0.2476 -0.3197 -0.4327
 7573SOL     OW30063   1.871   0.192   1.313  0.3695  0.2327 -0.1928
 7573SOL    HW230064   1.927   0.250   1.365  0.4271  0.5185 -0.5671
 7573SOL    HW330065   1.883   0.222   1.223  1.2249 -1.0449 -0.5230
 7573SOL    MW430066   1.880   0.204   1.308  0.4900  0.1018 -0.2857
 7574SOL     OW30067   3.570   5.890   6.044 -0.2548  0.0398 -0.2228
 7574SOL    HW230068   3.522   5.862   5.966 -0.9932 -0.9588  0.5668
 7574SOL    HW330069   3.518   5.856   6.117  1.3901 -0.6514  0.6700
 7574SOL    MW430070   3.556   5.882   6.043 -0.1352 -0.1832 -0.0008
 7575SOL     OW30071   0.403   4.958   4.950  0.2057  0.3790 -0.2497
 7575SOL    HW230072   0.405   5.054   4.946 -0.8003  0.4535  0.7137
 7575SOL    HW330073   0.437   4.930   4.865  1.2915  1.5811 -0.2422
 7575SOL    MW430074   0.408   4.967   4.938  0.2162  0.5475 -0.1216
 7576SOL     OW30075   5.614   6.301   6.339 -0.1322  0.5176  0.4199
 7576SOL    HW230076   5.652   6.388   6.350 -0.0427  0.7035 -1.1452
 7576SOL    HW330077   5.689   6.244   6.322 -0.2287  0.1941  1.0465
 7576SOL    MW430078   5.629   6.305   6.339 -0.1332  0.4995  0.2960
 7577SOL     OW30079   1.567   1.422   3.566 -0.6263  0.2281  0.4191
 7577SOL    HW230080   1.472   1.424   3.578 -0.4256  1.7463  2.1351
 7577SOL    HW330081   1.602   1.412   3.655  0.8364 -1.9146 -0.3158
 7577SOL    MW430082   1.559   1.421   3.580 -0.4069  0.1457  0.5485
 7578SOL     OW30083   0.731   5.523   6.201 -0.3622  0.3877 -0.2106
 7578SOL    HW230084   0.753   5.562   6.285 -1.0653  1.9461 -0.7204
 7578SOL    HW330085   0.683   5.443   6.224  1.2084 -0.3253  0.8463
 7578SOL    MW430086   0.728   5.517   6.215 -0.2478  0.4992 -0.1384
 7579SOL     OW30087   4.303   1.508   5.532  0.3947  0.8769  0.6150
 7579SOL    HW230088   4.330   1.454   5.606  0.4858  2.8319  2.0683
 7579SOL    HW330089   4.262   1.585   5.571 -1.8109  0.8656 -1.4314
 7579SOL    MW430090   4.301   1.511   5.547  0.1158  1.1334  0.5367
 7580SOL     OW30091   3.089   4.630   1.774 -0.6286 -0.7111  0.0285
 7580SOL    HW230092   3.171   4.679   1.784  0.5167 -2.6930  0.7695
 7580SOL    HW330093   3.033   4.662   1.844 -1.0034  1.4850 -1.1595
 7580SOL    MW430094   3.092   4.641   1.784 -0.5269 -0.6828 -0.0305
 7581SOL     OW30095   2.378   5.985   3.163  0.4486  0.1446  0.0293
 7581SOL    HW230096   2.441   6.053   3.187 -0.9118  1.7605 -0.8491
 7581SOL    HW330097   2.352   6.006   3.074 -1.6078 -0.2766  0.4848
 7581SOL    MW430098   2.383   5.997   3.155 -0.0022  0.3023 -0.0265
 7582SOL     OW30099   2.627   6.147   0.069  0.2896 -0.4579  0.0897
 7582SOL    HW230100   2.603   6.075   0.127 -1.4421 -0.1338 -0.1737
 7582SOL    HW330101   2.606   6.226   0.120  1.8376 -0.0924  0.2422
 7582SOL    MW430102   2.621   6.148   0.084  0.2653 -0.3669  0.0750
 7583SOL     OW30103   5.426   1.144   2.234 -0.1245  0.2556  0.3578
 7583SOL    HW230104   5.421   1.061   2.282  1.2499 -0.9518 -1.4765
 7583SOL    HW330105   5.471   1.204   2.294 -2.6626  0.2988  2.4103
 7583SOL    MW430106   5.431   1.141   2.248 -0.2781  0.1020  0.3866
 7584SOL     OW30107   1.668   3.956   4.801 -0.4041  0.1143  0.1228
 7584SOL    HW230108   1.762   3.940   4.791 -0.7790 -1.7755 -0.9397
 7584SOL    HW330109   1.634   3.874   4.838 -1.7512  0.4600 -0.3102
 7584SOL    MW430110   1.676   3.943   4.805 -0.6313 -0.0894 -0.0745
 7585SOL     OW30111   3.498   5.762   0.210  0.2562 -0.0207  0.3636
 7585SOL    HW230112   3.484   5.856   0.200 -0.6823 -0.1207  0.6883
 7585SOL    HW330113   3.591   5.754   0.233  0.1730  0.8790  1.0624
 7585SOL    MW430114   3.509   5.774   0.211  0.1214  0.0848  0.4986
 7586SOL     OW30115   5.393   5.368   4.224 -0.5017  0.3871  0.0809
 7586SOL    HW230116   5.320   5.401   4.172  0.2706  1.8237 -0.1507
 7586SOL    HW330117   5.355   5.298   4.277 -1.4816 -0.6084 -1.8316
 7586SOL    MW430118   5.378   5.363   4.224 -0.5291  0.4453 -0.2020
 7587SOL     OW30119   2.594   4.099   1.918 -0.0342 -1.0064  0.1042
 7587SOL    HW230120   2.617   4.017   1.961  1.0099 -0.4163  0.7303
 7587SOL    HW330121   2.651   4.102   1.841 -1.9871 -2.1222 -1.4818
 7587SOL    MW430122   2.605   4.089   1.914 -0.1541 -1.0757 -0.0224
 7588SOL     OW30123   3.470   3.534   1.918 -0.1176 -0.4610 -0.1851
 7588SOL    HW230124   3.386   3.492   1.900 -0.0028 -1.0492  0.6040
 7588SOL    HW330125   3.482   3.526   2.013  0.5885  0.0702 -0.2161
 7588SOL    MW430126   3.461   3.527   1.928 -0.0093 -0.4685 -0.0850
 7589SOL     OW30127   4.332   0.620   0.071 -0.3873  0.2715 -0.9179
 7589SOL    HW230128   4.317   0.580   0.156 -0.5414  0.3366 -0.9140
 7589SOL    HW330129   4.412   0.671   0.082 -0.0643 -0.2175 -0.9866
 7589SOL    MW430130   4.340   0.622   0.084 -0.3650  0.2155 -0.9264
 7590SOL     OW30131   0.048   0.307   5.626  0.0156  0.1836 -0.5195
 7590SOL    HW230132   0.027   0.353   5.707  1.9827 -1.8853  1.3296
 7590SOL    HW330133  -0.016   0.236   5.621  0.2081  0.0054 -0.4839
 7590SOL    MW430134   0.037   0.303   5.636  0.3005 -0.1129 -0.2708
 7591SOL     OW30135   4.913   4.409   4.295 -0.0473 -0.4842 -0.3070
 7591SOL    HW230136   4.936   4.319   4.316  2.3870 -0.1532 -1.1602
 7591SOL    HW330137   4.822   4.419   4.324  0.0453 -2.7956  1.0012
 7591SOL    MW430138   4.904   4.398   4.302  0.2861 -0.7455 -0.2469
 7592SOL     OW30139   5.166   1.574   5.909  0.0972  0.6372 -0.6659
 7592SOL    HW230140   5.080   1.592   5.872 -0.4933 -1.0790 -0.2199
 7592SOL    HW330141   5.151   1.506   5.975  1.7398  0.5494 -0.3200
 7592SOL    MW430142   5.153   1.567   5.913  0.2360  0.3992 -0.5614
 7593SOL     OW30143   3.285   2.111   3.950 -0.4476 -0.0684 -0.6639
 7593SOL    HW230144   3.365   2.058   3.947 -1.3617 -1.5847  0.1666
 7593SOL    HW330145   3.265   2.130   3.858  0.0359 -1.0100 -0.9750
 7593SOL    MW430146   3.293   2.106   3.937 -0.5044 -0.3927 -0.5954
 7594SOL     OW30147   2.520   1.056   0.576  0.9357 -0.1679 -0.5091
 7594SOL    HW230148   2.614   1.070   0.589  0.5089  0.4079  3.0848
 7594SOL    HW330149   2.502   0.976   0.625 -0.9686  1.8023  2.2653
 7594SOL    MW430150   2.530   1.047   0.584  0.6281  0.1680  0.3311
 7595SOL     OW30151   3.796   2.860   0.239 -0.0808  0.4168  0.2718
 7595SOL    HW230152   3.723   2.922   0.250  0.2617  1.0367 -0.8059
 7595SOL    HW330153   3.762   2.794   0.179 -0.1268  0.0540  0.6855
 7595SOL    MW430154   3.782   2.860   0.233 -0.0417  0.4507  0.1842
 7596SOL     OW30155   3.408   4.091   0.819  0.2232  0.5289  0.9057
 7596SOL    HW230156   3.430   4.184   0.832 -2.5563  1.5343 -0.5094
 7596SOL    HW330157   3.315   4.086   0.842  0.2084 -1.8136  0.4986
 7596SOL    MW430158   3.399   4.103   0.824 -0.1455  0.3525  0.6653
 7597SOL     OW30159   5.144   5.814   2.177  0.3045 -0.2915  0.2574
 7597SOL    HW230160   5.222   5.758   2.174 -0.2849 -1.1346  0.4328
 7597SOL    HW330161   5.131   5.841   2.086  1.3068  0.5877  0.3484
 7597SOL    MW430162   5.153   5.810   2.164  0.3590 -0.2867  0.2925
 7598SOL     OW30163   4.328   0.388   1.607  0.5329  0.7539 -0.2184
 7598SOL    HW230164   4.366   0.333   1.538  0.4346 -0.9970  1.0529
 7598SOL    HW330165   4.344   0.340   1.688 -0.1989  2.2889  0.8916
 7598SOL    MW430166   4.335   0.374   1.608  0.4234  0.7254  0.0958
 7599SOL     OW30167   1.816   4.676   1.064  0.2601 -0.2863  0.3402
 7599SOL    HW230168   1.752   4.645   1.129  0.8543 -0.5016  0.8299
 7599SOL    HW330169   1.876   4.731   1.114 -0.0031  0.5615 -0.2740
 7599SOL    MW430170   1.815   4.679   1.079  0.3038 -0.2029  0.3238
 7600SOL     OW30171   0.095   5.249   3.517  0.5700  0.8096  0.3602
 7600SOL    HW230172   0.121   5.171   3.468  2.5152  2.0025 -0.6318
 7600SOL    HW330173   0.120   5.231   3.607  1.4795  0.4661  0.0475
 7600SOL    MW430174   0.102   5.236   3.523  0.9466  0.9217  0.1881
 7601SOL     OW30175   4.708   1.855   2.278  0.4359 -0.2908 -0.2933
 7601SOL    HW230176   4.718   1.830   2.370  1.0305 -1.5942 -0.6927
 7601SOL    HW330177   4.757   1.789   2.230  0.3263  0.5136 -1.5425
 7601SOL    MW430178   4.716   1.843   2.284  0.4999 -0.3567 -0.5108
 7602SOL     OW30179   4.837   4.641   1.574  0.3134 -0.1466 -0.0484
 7602SOL    HW230180   4.747   4.613   1.556  0.9716 -1.8834 -0.7822
 7602SOL    HW330181   4.890   4.563   1.561  1.7658  0.4051  2.0448
 7602SOL    MW430182   4.832   4.627   1.570  0.5919 -0.3030  0.1309
 7603SOL     OW30183   1.317   2.268   6.043  0.8428 -0.1543  0.4259
 7603SOL    HW230184   1.350   2.349   6.080 -1.1525  1.0282 -0.2502
 7603SOL    HW330185   1.266   2.228   6.114  0.1733  0.2049  0.1558
 7603SOL    MW430186   1.315   2.273   6.057  0.4912  0.0491  0.3011
 7604SOL     OW30187   3.231   0.685   3.613  0.0332  0.3853  0.8963
 7604SOL    HW230188   3.165   0.676   3.682 -0.9470 -1.1380 -0.1995
 7604SOL    HW330189   3.207   0.766   3.568 -1.5147 -0.4669  0.1210
 7604SOL    MW430190   3.219   0.695   3.616 -0.3003  0.0719  0.6494
 7605SOL     OW30191   3.806   3.245   3.143  0.6727  0.0784  0.4919
 7605SOL    HW230192   3.893   3.282   3.131  0.9440  0.2113  2.4990
 7605SOL    HW330193   3.776   3.281   3.227 -1.0915 -0.3874  0.1079
 7605SOL    MW430194   3.813   3.255   3.153  0.4757  0.0345  0.7061
 7606SOL     OW30195   5.151   5.171   5.985 -0.4532  0.3076 -0.0409
 7606SOL    HW230196   5.081   5.109   6.007 -1.3359  1.6016  0.9651
 7606SOL    HW330197   5.105   5.245   5.945  0.5275  0.5392 -0.7818
 7606SOL    MW430198   5.136   5.172   5.983 -0.4403  0.5089 -0.0059
 7607SOL     OW30199   6.194   1.872   4.050 -0.2030  0.7872 -0.3187
 7607SOL    HW230200   6.238   1.860   3.966 -0.1758 -1.0122 -0.1036
 7607SOL    HW330201   6.107   1.836   4.037 -0.0444  0.0642  0.5300
 7607SOL    MW430202   6.189   1.865   4.037 -0.1785  0.4544 -0.1784
 7608SOL     OW30203   2.571   5.710   4.058  0.4104 -0.1370 -0.0688
 7608SOL    HW230204   2.522   5.788   4.032 -0.4338 -0.8914 -0.8540
 7608SOL    HW330205   2.513   5.665   4.120 -0.4823 -1.6447 -1.8997
 7608SOL    MW430206   2.557   5.714   4.063  0.1812 -0.4355 -0.4140
 7609SOL     OW30207   2.866   0.098   3.875  0.2125  0.1088  0.0398
 7609SOL    HW230208   2.919   0.104   3.954 -1.0108 -0.4820  0.9234
 7609SOL    HW330209   2.812   0.020   3.886 -0.7388  0.5924 -0.8987
 7609SOL    MW430210   2.866   0.089   3.887 -0.0744  0.0947  0.0326
 7610SOL     OW30211   4.731   5.935   3.804 -0.0110  0.5103  0.1825
 7610SOL    HW230212   4.659   5.956   3.745  1.4350  0.5210 -1.6587
 7610SOL    HW330213   4.735   6.009   3.865 -2.7399 -0.3830  1.6341
 7610SOL    MW430214   4.722   5.948   3.805 -0.1802  0.3938  0.1311
 7611SOL     OW30215   4.143   2.795   4.296  0.6392  0.1540 -0.0375
 7611SOL    HW230216   4.167   2.708   4.263  1.5012  0.4068 -0.0981
 7611SOL    HW330217   4.211   2.853   4.263  0.9387  0.5949  1.2893
 7611SOL    MW430218   4.155   2.791   4.287  0.7925  0.2455  0.1295
 7612SOL     OW30219   0.565   1.975   1.483 -0.5930  0.5111  0.0463
 7612SOL    HW230220   0.509   1.907   1.446 -1.4469  1.5500 -0.6354
 7612SOL    HW330221   0.629   1.994   1.413 -0.4468  0.5147  0.1799
 7612SOL    MW430222   0.566   1.968   1.469 -0.6864  0.6487 -0.0260
 7613SOL     OW30223   3.967   0.526   2.722 -0.7829 -0.1052  0.2009
 7613SOL    HW230224   3.962   0.455   2.785  2.0098  1.3791  2.3186
 7613SOL    HW330225   3.992   0.484   2.640 -1.9409 -1.8123  0.6852
 7613SOL    MW430226   3.970   0.511   2.719 -0.5672 -0.1346  0.5442
 7614SOL     OW30227   2.793   0.507   2.810  0.2890  0.2195  0.5734
 7614SOL    HW230228   2.820   0.572   2.874 -0.0519  0.9972 -0.0562
 7614SOL    HW330229   2.860   0.513   2.741  1.2389 -1.3326  1.3008
 7614SOL    MW430230   2.806   0.516   2.809  0.3693  0.1173  0.5863
 7615SOL     OW30231   4.181   4.907   1.768 -0.5787 -0.2940  0.1362
 7615SOL    HW230232   4.139   4.975   1.714 -1.0384 -0.9354 -0.3242
 7615SOL    HW330233   4.122   4.832   1.762  0.6380 -1.2242 -0.5514
 7615SOL    MW430234   4.168   4.906   1.760 -0.4788 -0.5014 -0.0153
 7616SOL     OW30235   0.742   0.979   5.069 -0.5210  0.4760  0.1113
 7616SOL    HW230236   0.732   1.062   5.024 -0.8263  0.0935 -0.5365
 7616SOL    HW330237   0.812   0.933   5.022 -0.2684  0.4157  0.5394
 7616SOL    MW430238   0.750   0.984   5.057 -0.5279  0.4176  0.0823
 7617SOL     OW30239   5.231   6.248   3.899 -0.1964  0.6822 -0.0335
 7617SOL    HW230240   5.163   6.242   3.967 -0.0519 -0.4617  0.0350
 7617SOL    HW330241   5.245   6.157   3.872  1.3219  0.8938 -0.0342
 7617SOL    MW430242   5.223   6.235   3.904  0.0229  0.5592 -0.0246
 7618SOL     OW30243   2.713   2.547   2.616 -0.0733 -0.3096  0.6105
 7618SOL    HW230244   2.720   2.453   2.631 -0.0644 -0.5210 -0.5781
 7618SOL    HW330245   2.739   2.558   2.525 -0.0222  0.8559  0.7545
 7618SOL    MW430246   2.717   2.536   2.606 -0.0653 -0.1837  0.4727
 7619SOL     OW30247   4.730   2.453   2.434  0.3728  0.0204  0.2581
 7619SOL    HW230248   4.695   2.537   2.404  1.5398  0.8068  0.9853
 7619SOL    HW330249   4.776   2.418   2.358 -0.1266  0.0438 -0.0532
 7619SOL    MW430250   4.732   2.460   2.420  0.4609  0.1273  0.3130
 7620SOL     OW30251   4.637   2.545   2.015  0.1732  0.3250 -0.4623
 7620SOL    HW230252   4.694   2.612   2.052  1.1518 -0.6974 -0.0817
 7620SOL    HW330253   4.689   2.465   2.016 -0.4051 -0.1467 -2.3408
 7620SOL    MW430254   4.651   2.544   2.020  0.2260  0.1279 -0.6599
 7621SOL     OW30255   5.423   4.832   3.997 -0.1389  0.5100 -0.4580
 7621SOL    HW230256   5.511   4.862   4.022  0.2763  1.1500 -2.4267
 7621SOL    HW330257   5.437   4.784   3.915 -1.6537  0.9272 -0.9986
 7621SOL    MW430258   5.437   4.830   3.989 -0.2840  0.6495 -0.7891
 7622SOL     OW30259   1.209   2.672   5.343  0.4931 -0.4179 -0.1622
 7622SOL    HW230260   1.262   2.736   5.389  0.8156 -1.0185  0.3190
 7622SOL    HW330261   1.257   2.653   5.263  0.5091 -0.2310 -0.1969
 7622SOL    MW430262   1.222   2.678   5.339  0.5377 -0.4725 -0.1033
 7623SOL     OW30263   5.576   1.723   6.337  0.0012 -0.9671 -0.6715
 7623SOL    HW230264   5.522   1.726   6.416 -0.5413 -0.2472 -1.0605
 7623SOL    HW330265   5.666   1.734   6.369 -0.3894  2.3942 -0.3353
 7623SOL    MW430266   5.581   1.725   6.352 -0.1219 -0.4286 -0.6785
 7624SOL     OW30267   1.641   0.982   3.312 -0.6087 -0.1677 -0.0574
 7624SOL    HW230268   1.591   0.997   3.232  0.2242  2.7432 -0.1579
 7624SOL    HW330269   1.610   1.050   3.373  2.3588  1.0961  0.2338
 7624SOL    MW430270   1.630   0.993   3.310 -0.1073  0.3831 -0.0322
 7625SOL     OW30271   0.269   0.273   3.329  0.4275 -0.2853 -0.2137
 7625SOL    HW230272   0.234   0.316   3.407  0.8398 -0.5080  0.0953
 7625SOL    HW330273   0.195   0.272   3.268 -0.1903 -0.9667  0.5204
 7625SOL    MW430274   0.254   0.278   3.331  0.4004 -0.4046 -0.0761
 7626SOL     OW30275   4.101   5.198   5.035  0.8575 -0.0329 -0.0810
 7626SOL    HW230276   4.153   5.126   4.999 -0.8552 -2.6817  2.2576
 7626SOL    HW330277   4.141   5.215   5.121 -1.6505 -1.8529  1.5947
 7626SOL    MW430278   4.113   5.191   5.042  0.3006 -0.6225  0.4486
 7627SOL     OW30279   0.651   3.992   4.480 -0.8300 -0.5164  0.1145
 7627SOL    HW230280   0.602   4.070   4.453  0.4806  0.1338 -0.4473
 7627SOL    HW330281   0.636   3.986   4.575  0.0095  1.1181  0.3818
 7627SOL    MW430282   0.642   4.002   4.489 -0.5463 -0.2149  0.0757
 7628SOL     OW30283   0.038   3.942   4.192  0.1811 -0.7174  0.5214
 7628SOL    HW230284   0.090   3.867   4.222  1.8195  0.0986 -0.1412
 7628SOL    HW330285   0.028   3.996   4.269  2.2718  0.1773  0.2444
 7628SOL    MW430286   0.044   3.939   4.206  0.6731 -0.4917  0.3974
 7629SOL     OW30287   6.270   4.921   0.977  0.1807  0.1347 -0.1432
 7629SOL    HW230288   6.286   4.879   0.892 -0.7546 -0.3439 -0.1038
 7629SOL    HW330289   6.285   4.851   1.041 -1.0887 -0.0687 -0.0533
 7629SOL    MW430290   6.274   4.906   0.974 -0.1102  0.0447 -0.1262
 7630SOL     OW30291   5.319   2.550   2.537  0.6094 -0.1254 -0.5749
 7630SOL    HW230292   5.301   2.505   2.620  1.3486  0.7467  0.0805
 7630SOL    HW330293   5.248   2.613   2.528  0.4923 -0.2663 -0.6377
 7630SOL    MW430294   5.307   2.552   2.547  0.6915 -0.0289 -0.4967
 7631SOL     OW30295   2.150   2.847   2.289 -0.0443 -0.1819  0.2609
 7631SOL    HW230296   2.065   2.851   2.333 -1.0453 -0.8612 -1.4913
 7631SOL    HW330297   2.198   2.779   2.335 -1.8669 -2.4099 -0.8911
 7631SOL    MW430298   2.145   2.839   2.301 -0.4168 -0.5655 -0.1223
 7632SOL     OW30299   3.110   5.708   5.769  0.2517  0.5163  0.6204
 7632SOL    HW230300   3.163   5.646   5.820  0.1036  0.4445  0.6860
 7632SOL    HW330301   3.035   5.728   5.825 -1.5276 -1.9058 -0.7419
 7632SOL    MW430302   3.107   5.703   5.783 -0.0026  0.1872  0.4493
 7633SOL     OW30303   1.094   1.118   5.385  0.2139 -0.1889  0.0225
 7633SOL    HW230304   1.174   1.155   5.347 -0.4877 -0.0715 -1.4089
 7633SOL    HW330305   1.085   1.033   5.342 -0.4400 -0.1930  0.1620
 7633SOL    MW430306   1.103   1.111   5.374  0.0351 -0.1739 -0.1479
 7634SOL     OW30307   6.288   1.040   2.980  0.3022 -0.3167 -0.5631
 7634SOL    HW230308   6.204   1.083   2.965  0.4486  0.0209 -0.4245
 7634SOL    HW330309   6.333   1.047   2.896  1.0001  1.3092 -0.0862
 7634SOL    MW430310   6.283   1.047   2.967  0.4136 -0.0576 -0.4819
 7635SOL     OW30311   3.442   4.619   0.978  0.0638  0.0110  0.0428
 7635SOL    HW230312   3.358   4.579   1.005 -0.4187  1.3568  0.6418
 7635SOL    HW330313   3.420   4.672   0.902  0.5234 -0.1892 -0.2322
 7635SOL    MW430314   3.428   4.621   0.972  0.0608  0.1621  0.0856
 7636SOL     OW30315   4.577   4.383   3.140 -0.1506  0.0522  0.6572
 7636SOL    HW230316   4.634   4.311   3.114 -0.1563  0.1089  0.4818
 7636SOL    HW330317   4.505   4.342   3.187 -1.7758 -0.4311 -2.0301
 7636SOL    MW430318   4.575   4.368   3.143 -0.3658 -0.0041  0.2795
 7637SOL     OW30319   1.228   0.938   4.526 -0.2074 -0.5306  0.1097
 7637SOL    HW230320   1.260   0.859   4.570  0.5810 -0.4275 -0.2560
 7637SOL    HW330321   1.194   0.993   4.596  0.8179 -0.4691  0.5791
 7637SOL    MW430322   1.228   0.935   4.541  0.0319 -0.5089  0.1234
 7638SOL     OW30323   2.365   5.231   3.647 -0.0065  0.5984 -0.3869
 7638SOL    HW230324   2.343   5.146   3.686  0.6639  0.8688  0.6120
 7638SOL    HW330325   2.298   5.244   3.580 -0.5838 -0.3615 -0.0233
 7638SOL    MW430326   2.353   5.221   3.643  0.0058  0.5074 -0.2071
 7639SOL     OW30327   4.896   5.053   1.529 -0.1199  0.1362  0.3498
 7639SOL    HW230328   4.885   5.108   1.452  0.9575  2.0323  1.4747
 7639SOL    HW330329   4.915   4.966   1.494  0.8952  1.0544 -1.5426
 7639SOL    MW430330   4.897   5.048   1.514  0.1562  0.5075  0.2486
 7640SOL     OW30331   5.616   0.707   1.969 -0.2814  0.1480  0.6476
 7640SOL    HW230332   5.565   0.750   2.037 -1.5561  1.0558 -0.8165
 7640SOL    HW330333   5.697   0.759   1.963 -0.7369  0.8637  0.5767
 7640SOL    MW430334   5.620   0.720   1.977 -0.5097  0.3622  0.4450
 7641SOL     OW30335   6.386   1.564   1.768 -0.0355  0.0707  0.1986
 7641SOL    HW230336   6.359   1.472   1.771 -0.7674  0.2274 -1.1283
 7641SOL    HW330337   6.323   1.609   1.824  0.0174 -0.1585  0.4443
 7641SOL    MW430338   6.374   1.558   1.776 -0.1251  0.0612  0.0559
 7642SOL     OW30339   6.072   4.873   0.296  0.1440  0.1049 -0.1846
 7642SOL    HW230340   6.118   4.957   0.299  0.2624  0.0977 -1.2724
 7642SOL    HW330341   5.988   4.894   0.254 -0.1893 -0.1653  0.3458
 7642SOL    MW430342   6.067   4.887   0.291  0.1157  0.0683 -0.2581
 7643SOL     OW30343   4.711   5.428   1.497  0.5703  0.1367  0.2476
 7643SOL    HW230344   4.784   5.422   1.558 -0.2634  0.8600  1.3490
 7643SOL    HW330345   4.633   5.414   1.551 -0.1112 -1.0465 -0.9693
 7643SOL    MW430346   4.710   5.425   1.512  0.3704  0.0760  0.2324
 7644SOL     OW30347   3.883   0.165   3.560  0.1651 -0.2134 -0.2045
 7644SOL    HW230348   3.873   0.258   3.581  0.2362 -0.0993 -0.6552
 7644SOL    HW330349   3.963   0.161   3.508  0.5212 -0.6222  0.3693
 7644SOL    MW430350   3.892   0.176   3.556  0.2215 -0.2523 -0.1882
 7645SOL     OW30351   5.799   5.862   0.563  0.2548 -0.1850  0.4269
 7645SOL    HW230352   5.718   5.874   0.614 -1.4055 -0.5315 -1.9379
 7645SOL    HW330353   5.833   5.778   0.592 -1.0346 -0.7142  0.4874
 7645SOL    MW430354   5.793   5.853   0.573 -0.1344 -0.3005  0.1228
 7646SOL     OW30355   3.056   1.296   6.212  0.4371 -0.2160  0.0039
 7646SOL    HW230356   3.067   1.388   6.186 -2.2227 -0.0423 -0.7928
 7646SOL    HW330357   2.962   1.286   6.224  0.7849 -2.5615  1.2870
 7646SOL    MW430358   3.045   1.307   6.210  0.1320 -0.5025  0.0681
 7647SOL     OW30359   5.176   5.922   1.885 -0.2633  0.1423 -0.6405
 7647SOL    HW230360   5.107   5.959   1.829 -1.4218 -1.2051 -0.1541
 7647SOL    HW330361   5.225   5.999   1.916 -1.5340  1.1416 -1.0008
 7647SOL    MW430362   5.173   5.937   1.881 -0.5838  0.0964 -0.6239
 7648SOL     OW30363   0.723   5.491   2.828 -0.1975  0.6016 -0.1080
 7648SOL    HW230364   0.743   5.409   2.872 -1.9452  0.0414 -0.2894
 7648SOL    HW330365   0.678   5.465   2.747 -1.6410  1.7210  0.2910
 7648SOL    MW430366   0.720   5.477   2.823 -0.6185  0.6754 -0.0793
 7649SOL     OW30367   4.089   2.816   6.142 -0.1703  0.1733 -0.5452
 7649SOL    HW230368   4.164   2.816   6.083 -0.5662 -0.4807 -1.0646
 7649SOL    HW330369   4.126   2.832   6.229  0.5565 -0.0339 -0.8116
 7649SOL    MW430370   4.104   2.818   6.146 -0.1267  0.0597 -0.6489
 7650SOL     OW30371   2.953   5.087   4.096  0.4355 -0.2167 -0.4345
 7650SOL    HW230372   2.902   5.126   4.167  0.7043  1.5941 -1.2027
 7650SOL    HW330373   3.026   5.147   4.082  0.9222 -1.0453 -1.6091
 7650SOL    MW430374   2.956   5.100   4.104  0.5352 -0.0871 -0.6909
 7651SOL     OW30375   5.351   2.574   1.551 -0.0029  0.2848 -0.1768
 7651SOL    HW230376   5.281   2.609   1.605  0.8445  0.3013  0.9559
 7651SOL    HW330377   5.361   2.483   1.579  0.8259  0.4577  0.1139
 7651SOL    MW430378   5.343   2.567   1.562  0.2183  0.3098  0.0110
 7652SOL     OW30379   3.136   4.822   1.014  0.2482 -0.3994 -1.1767
 7652SOL    HW230380   3.186   4.829   1.095 -2.2735  0.4233  0.4169
 7652SOL    HW330381   3.078   4.897   1.015  0.5540  0.0041 -4.1410
 7652SOL    MW430382   3.135   4.833   1.024 -0.0442 -0.2377 -1.3575
 7653SOL     OW30383   1.674   1.966   5.955  0.2070 -0.1677 -0.0338
 7653SOL    HW230384   1.671   1.911   5.877 -0.5783  0.8349 -0.7258
 7653SOL    HW330385   1.583   1.988   5.973  0.5144  1.0570  0.1114
 7653SOL    MW430386   1.662   1.962   5.947  0.1439  0.1262 -0.1059
 7654SOL     OW30387   5.229   0.523   4.793  0.2442 -0.5523 -0.7145
 7654SOL    HW230388   5.191   0.546   4.709 -2.8625 -2.7826 -0.0791
 7654SOL    HW330389   5.288   0.450   4.774  0.5166 -0.2361 -1.0963
 7654SOL    MW430390   5.232   0.516   4.780 -0.1298 -0.8048 -0.6810
 7655SOL     OW30391   2.658   1.504   5.947 -0.1872 -0.1624 -0.2821
 7655SOL    HW230392   2.682   1.573   6.009  1.1115 -0.9161  0.1002
 7655SOL    HW330393   2.715   1.518   5.872 -0.0209 -0.7119 -0.2649
 7655SOL    MW430394   2.669   1.515   5.946  0.0061 -0.3343 -0.2294
 7656SOL     OW30395   5.985   3.617   4.387  0.2244 -0.0751 -0.1069
 7656SOL    HW230396   6.029   3.559   4.325  1.6286 -0.7602  1.4363
 7656SOL    HW330397   5.995   3.704   4.350  3.4204 -0.1183  0.3670
 7656SOL    MW430398   5.992   3.621   4.374  0.8313 -0.1712  0.1592
 7657SOL     OW30399   0.154   0.268   2.378  0.2312 -0.2487  0.8254
 7657SOL    HW230400   0.218   0.232   2.438  2.4038  0.6735 -0.8034
 7657SOL    HW330401   0.174   0.362   2.375 -1.0672  0.0335  0.1218
 7657SOL    MW430402   0.165   0.276   2.385  0.3466 -0.0898  0.5177
 7658SOL     OW30403   4.081   5.464   5.756 -0.2415  0.3843  0.4498
 7658SOL    HW230404   4.075   5.434   5.665  0.9624 -0.9534  0.7672
 7658SOL    HW330405   4.067   5.559   5.751  0.5059  0.4462 -1.2169
 7658SOL    MW430406   4.078   5.472   5.743  0.0160  0.2160  0.2718
 7659SOL     OW30407   6.422   0.037   4.075 -0.0555 -0.3552  0.0618
 7659SOL    HW230408   6.377   0.023   3.992 -0.1688  0.4688 -0.0192
 7659SOL    HW330409   6.356   0.020   4.142 -0.0315 -0.7723 -0.0157
 7659SOL    MW430410   6.407   0.033   4.073 -0.0673 -0.3015  0.0409
 7660SOL     OW30411   3.506   5.202   4.047 -0.2818 -0.4682  0.2360
 7660SOL    HW230412   3.568   5.272   4.026 -0.2375 -0.0705  1.5684
 7660SOL    HW330413   3.426   5.225   4.000 -0.0245  0.0708  0.0524
 7660SOL    MW430414   3.504   5.214   4.038 -0.2420 -0.3446  0.3876
 7661SOL     OW30415   4.325   4.411   0.989  0.3547  0.3597  0.9014
 7661SOL    HW230416   4.287   4.373   0.910  2.6209 -1.8214  0.7422
 7661SOL    HW330417   4.371   4.489   0.958  1.1655 -0.4411  0.0304
 7661SOL    MW430418   4.326   4.417   0.975  0.7607 -0.0338  0.7654
 7662SOL     OW30419   4.861   2.721   1.146 -0.1947  0.3561 -0.4271
 7662SOL    HW230420   4.835   2.704   1.055 -0.9268  0.4884 -0.2537
 7662SOL    HW330421   4.795   2.783   1.178  0.2399  0.5506  0.0985
 7662SOL    MW430422   4.849   2.727   1.138 -0.2339  0.3992 -0.3348
 7663SOL     OW30423   2.343   2.780   1.254  0.2518  0.2739  1.2469
 7663SOL    HW230424   2.257   2.804   1.217  0.5537 -0.2342  0.1702
 7663SOL    HW330425   2.335   2.801   1.347 -1.4568 -0.8586  1.4131
 7663SOL    MW430426   2.330   2.786   1.261  0.0662  0.0574  1.1267
 7664SOL     OW30427   5.171   6.336   3.636  0.4715 -0.5776  0.0267
 7664SOL    HW230428   5.140   6.427   3.645  0.4633 -0.5319 -0.4480
 7664SOL    HW330429   5.186   6.307   3.726  0.7315 -0.0147  0.1665
 7664SOL    MW430430   5.169   6.344   3.649  0.5047 -0.4973 -0.0175
 7665SOL     OW30431   0.576   1.403   0.503 -0.2646 -0.0444  0.3352
 7665SOL    HW230432   0.541   1.420   0.590  1.6348  0.4210  1.0601
 7665SOL    HW330433   0.554   1.311   0.485  0.6418 -0.6109  1.9803
 7665SOL    MW430434   0.568   1.393   0.512  0.1056 -0.0577  0.6479
 7666SOL     OW30435   6.336   3.061   1.373  0.0201 -0.2927  0.3748
 7666SOL    HW230436   6.359   3.123   1.443 -2.8631  0.4689  0.7990
 7666SOL    HW330437   6.393   3.085   1.300  0.3572  1.5724  1.1869
 7666SOL    MW430438   6.346   3.072   1.373 -0.3158  0.0539  0.5379
 7667SOL     OW30439   3.862   5.198   5.191 -0.3862 -0.2350 -0.2987
 7667SOL    HW230440   3.926   5.191   5.121 -0.2820 -2.0579 -0.0573
 7667SOL    HW330441   3.791   5.140   5.164 -0.5389 -0.6220  0.9060
 7667SOL    MW430442   3.861   5.190   5.178 -0.3926 -0.5266 -0.1079
 7668SOL     OW30443   0.974   5.962   5.504 -0.5130 -0.3849  0.1440
 7668SOL    HW230444   1.025   5.889   5.470 -1.1203  0.1736 -2.1270
 7668SOL    HW330445   1.003   5.971   5.595  3.0363 -0.4495 -0.8277
 7668SOL    MW430446   0.984   5.954   5.512 -0.1248 -0.3197 -0.2838
 7669SOL     OW30447   4.508   4.026   6.363  0.5466 -0.5980 -0.0756
 7669SOL    HW230448   4.533   3.936   6.343  0.2356 -0.7444  0.1844
 7669SOL    HW330449   4.486   4.064   6.278  0.9782 -0.6733 -0.2217
 7669SOL    MW430450   4.508   4.019   6.349  0.5625 -0.6272 -0.0606
 7670SOL     OW30451   1.075   6.345   1.804 -0.2111  0.0227  0.6300
 7670SOL    HW230452   0.985   6.322   1.779 -0.2117  0.5582  0.1121
 7670SOL    HW330453   1.094   6.423   1.752  1.1957 -1.1125 -0.6284
 7670SOL    MW430454   1.065   6.352   1.794 -0.0256 -0.0564  0.3957
 7671SOL     OW30455   5.733   5.429   2.962  0.2297 -0.1094 -0.1780
 7671SOL    HW230456   5.658   5.441   2.903 -0.6325 -1.2600  0.6474
 7671SOL    HW330457   5.701   5.459   3.047  0.9954  0.1786  0.0189
 7671SOL    MW430458   5.719   5.435   2.965  0.2169 -0.2232 -0.0431
 7672SOL     OW30459   1.347   6.264   4.724 -0.6543  0.5721  0.2455
 7672SOL    HW230460   1.264   6.302   4.753  0.3301  2.1192  1.2220
 7672SOL    HW330461   1.359   6.298   4.635 -0.3758  1.6162  0.6617
 7672SOL    MW430462   1.338   6.274   4.716 -0.4876  0.9140  0.4292
 7673SOL     OW30463   1.399   1.441   5.496 -0.1015  0.2534  0.1357
 7673SOL    HW230464   1.369   1.353   5.516  0.4902 -0.1978 -0.8718
 7673SOL    HW330465   1.447   1.432   5.414  0.8494  1.3349  0.5400
 7673SOL    MW430466   1.401   1.428   5.488  0.1020  0.3366  0.0561
 7674SOL     OW30467   2.509   2.339   3.096  0.2746 -0.6362 -0.3075
 7674SOL    HW230468   2.587   2.387   3.069  0.1459 -0.8675 -1.1494
 7674SOL    HW330469   2.535   2.294   3.176  0.6138  0.2585  0.0989
 7674SOL    MW430470   2.523   2.339   3.103  0.3023 -0.5486 -0.3649
 7675SOL     OW30471   5.163   4.749   6.104  0.4091 -0.1326  0.2417
 7675SOL    HW230472   5.236   4.809   6.112  0.6816 -0.1751 -1.4294
 7675SOL    HW330473   5.191   4.686   6.038  0.1313 -2.1223  1.9261
 7675SOL    MW430474   5.176   4.748   6.096  0.4084 -0.4007  0.2435
 7676SOL     OW30475   5.720   1.876   4.413  0.5141  0.6864  0.1910
 7676SOL    HW230476   5.638   1.841   4.379  0.4831  1.4463 -0.5323
 7676SOL    HW330477   5.748   1.941   4.349  2.1850 -0.2320 -0.0805
 7676SOL    MW430478   5.713   1.880   4.400  0.7305  0.6655  0.0598
 7677SOL     OW30479   6.401   3.807   2.590  0.5397  0.1284 -0.6089
 7677SOL    HW230480   6.487   3.772   2.566  1.3613  1.8280 -0.3315
 7677SOL    HW330481   6.412   3.902   2.584 -0.9222  0.4233  0.7530
 7677SOL    MW430482   6.414   3.815   2.586  0.4552  0.3915 -0.3926
 7678SOL     OW30483   6.158   4.818   2.283  0.1205  0.3860  0.2030
 7678SOL    HW230484   6.076   4.770   2.291 -1.1191  2.7049  2.8132
 7678SOL    HW330485   6.202   4.777   2.208 -2.2560 -2.5477  0.2320
 7678SOL    MW430486   6.153   4.806   2.274 -0.3566  0.3049  0.5512
 7679SOL     OW30487   2.272   2.157   5.522  0.2001  0.0901 -0.0504
 7679SOL    HW230488   2.203   2.202   5.473  1.1652  1.0933 -0.5001
 7679SOL    HW330489   2.254   2.179   5.613  0.0692  0.5562 -0.1847
 7679SOL    MW430490   2.260   2.165   5.528  0.3102  0.2840 -0.1274
 7680SOL     OW30491   2.098   3.036   0.439 -0.3557  0.6402 -0.3735
 7680SOL    HW230492   2.049   2.963   0.399 -0.7442  2.3802 -3.4264
 7680SOL    HW330493   2.031   3.102   0.457  0.2632  1.0811  0.3312
 7680SOL    MW430494   2.083   3.035   0.436 -0.3253  0.9280 -0.6833
 7681SOL     OW30495   1.016   2.921   4.797  0.3261  0.0706 -0.0078
 7681SOL    HW230496   1.109   2.911   4.817  1.0166  1.8311 -1.9529
 7681SOL    HW330497   1.013   2.988   4.729 -2.2889 -0.7143 -0.8032
 7681SOL    MW430498   1.028   2.929   4.790  0.0722  0.1993 -0.3694
 7682SOL     OW30499   1.514   3.736   4.902 -0.2975  0.0822  0.3571
 7682SOL    HW230500   1.493   3.651   4.863 -0.8861 -0.0927  1.0336
 7682SOL    HW330501   1.431   3.784   4.901 -0.0637  0.4968  0.3686
 7682SOL    MW430502   1.500   3.731   4.896 -0.3443  0.1138  0.4479
 7683SOL     OW30503   2.891   1.034   1.321  0.6486  0.2591  0.2748
 7683SOL    HW230504   2.946   1.110   1.339  0.9620 -0.0635  0.7156
 7683SOL    HW330505   2.877   0.994   1.407 -0.9558  0.7897  0.2912
 7683SOL    MW430506   2.896   1.039   1.335  0.4783  0.2866  0.3351
 7684SOL     OW30507   5.111   2.687   4.382 -0.2927  0.5828 -0.2813
 7684SOL    HW230508   5.059   2.620   4.338 -1.2831  0.7219  0.6260
 7684SOL    HW330509   5.047   2.741   4.427  0.6454  0.5325  1.1883
 7684SOL    MW430510   5.096   2.685   4.382 -0.2996  0.5945  0.0323
 7685SOL     OW30511   6.146   2.818   1.149  0.3126 -0.2803 -0.1772
 7685SOL    HW230512   6.160   2.725   1.171  0.5585  0.1022  1.3628
 7685SOL    HW330513   6.070   2.843   1.201  0.9382  0.6786  0.2854
 7685SOL    MW430514   6.138   2.809   1.158  0.4276 -0.1033  0.0870
 7686SOL     OW30515   1.174   3.741   2.562 -0.1686 -0.2573 -0.1594
 7686SOL    HW230516   1.139   3.830   2.569 -0.1182 -0.2506 -0.0011
 7686SOL    HW330517   1.096   3.685   2.569 -0.2037 -0.2252 -0.2886
 7686SOL    MW430518   1.159   3.746   2.564 -0.1666 -0.2522 -0.1556
 7687SOL     OW30519   6.047   5.806   4.586  0.1224 -0.2175  0.0469
 7687SOL    HW230520   6.130   5.770   4.554  0.3391  0.4211 -0.1398
 7687SOL    HW330521   5.987   5.797   4.512  0.2793  0.1308 -0.1269
 7687SOL    MW430522   6.050   5.800   4.572  0.1717 -0.0873 -0.0007
 7688SOL     OW30523   1.135   3.548   4.901  0.2631 -0.2650  0.2585
 7688SOL    HW230524   1.195   3.600   4.955 -0.1973  0.5554  0.0059
 7688SOL    HW330525   1.048   3.569   4.934  0.0752 -1.0126  0.2532
 7688SOL    MW430526   1.131   3.558   4.912  0.1776 -0.2554  0.2245
 7689SOL     OW30527   1.397   4.774   2.966 -0.1385  0.2689 -0.0176
 7689SOL    HW230528   1.426   4.688   2.996  0.5683  0.9977  1.4720
 7689SOL    HW330529   1.405   4.831   3.043 -1.8048  1.3978 -0.6160
 7689SOL    MW430530   1.402   4.770   2.980 -0.2651  0.5140  0.1000
 7690SOL     OW30531   6.053   4.830   3.585 -0.2373 -0.0473  0.3280
 7690SOL    HW230532   6.075   4.784   3.504 -0.9202 -0.4403  0.3556
 7690SOL    HW330533   5.985   4.776   3.625  0.3381 -0.0549  1.3471
 7690SOL    MW430534   6.047   4.817   3.580 -0.2514 -0.1002  0.4661
 7691SOL     OW30535   4.332   1.455   1.135  0.2001 -0.7009  0.3436
 7691SOL    HW230536   4.317   1.364   1.110  0.2562 -0.9552  1.2298
 7691SOL    HW330537   4.289   1.465   1.219 -1.9657  0.7651 -0.8322
 7691SOL    MW430538   4.324   1.444   1.143 -0.0782 -0.5410  0.3054
 7692SOL     OW30539   0.336   0.933   0.605 -0.2620  0.2732  0.1189
 7692SOL    HW230540   0.370   0.992   0.538 -0.0164  0.4970  0.4371
 7692SOL    HW330541   0.353   0.979   0.688 -1.7278  0.5989  0.2656
 7692SOL    MW430542   0.343   0.947   0.607 -0.4230  0.3457  0.1802
 7693SOL     OW30543   1.628   1.074   5.759  0.3677 -0.0580 -0.3014
 7693SOL    HW230544   1.581   1.064   5.676 -0.3482 -1.5318  0.2513
 7693SOL    HW330545   1.565   1.114   5.818  0.4826 -0.1264 -0.1308
 7693SOL    MW430546   1.614   1.078   5.756  0.2884 -0.2615 -0.2060
 7694SOL     OW30547   0.956   6.126   1.222  0.1836  0.2250 -0.7421
 7694SOL    HW230548   0.964   6.150   1.314  2.4902 -0.4538 -0.6833
 7694SOL    HW330549   0.863   6.109   1.209 -0.0345 -1.0367  1.8327
 7694SOL    MW430550   0.945   6.127   1.232  0.4592 -0.0311 -0.3946
 7695SOL     OW30551   4.270   0.857   3.652 -0.0120  0.2678 -0.0651
 7695SOL    HW230552   4.194   0.837   3.707 -0.4825 -2.5679 -1.5668
 7695SOL    HW330553   4.302   0.941   3.686 -1.6954 -0.1264  2.9017
 7695SOL    MW430554   4.264   0.866   3.664 -0.2962 -0.1583  0.1282
 7696SOL     OW30555   4.645   1.483   6.327 -0.0706 -0.3303 -0.2882
 7696SOL    HW230556   4.553   1.484   6.350  0.4645 -1.3256  2.2034
 7696SOL    HW330557   4.660   1.398   6.287 -0.0318 -0.6682  0.4209
 7696SOL    MW430558   4.635   1.472   6.325  0.0051 -0.5062  0.1341
 7697SOL     OW30559   0.580   5.985   4.327 -0.0630  0.2097 -0.9745
 7697SOL    HW230560   0.559   5.994   4.234  0.6387  0.0961 -1.1482
 7697SOL    HW330561   0.602   5.892   4.338  0.7392  0.4033 -0.8880
 7697SOL    MW430562   0.580   5.974   4.316  0.1354  0.2203 -0.9860
 7698SOL     OW30563   3.229   3.285   4.766  0.0864 -0.1518  0.1345
 7698SOL    HW230564   3.234   3.235   4.684 -1.1617  2.6550 -1.8206
 7698SOL    HW330565   3.159   3.243   4.815  0.3284 -1.4416 -0.5643
 7698SOL    MW430566   3.221   3.273   4.761 -0.0463  0.0483 -0.2157
 7699SOL     OW30567   4.005   2.055   3.175  0.3356  0.2967  0.3886
 7699SOL    HW230568   4.038   2.111   3.245  2.1391  0.8315 -0.8136
 7699SOL    HW330569   3.926   2.014   3.211 -0.1278  2.3638  1.8603
 7699SOL    MW430570   3.999   2.057   3.189  0.5124  0.6400  0.4241
 7700SOL     OW30571   0.837   3.842   1.557  0.3851  0.0003  0.1843
 7700SOL    HW230572   0.904   3.817   1.493  0.8714 -0.9790  1.0511
 7700SOL    HW330573   0.885   3.892   1.623 -0.1992  1.4331 -0.4336
 7700SOL    MW430574   0.852   3.845   1.557  0.3722  0.0601  0.2171
 7701SOL     OW30575   0.655   3.826   4.078  0.7614 -0.2765 -0.3297
 7701SOL    HW230576   0.565   3.860   4.076  0.9309  0.4059  1.6300
 7701SOL    HW330577   0.710   3.901   4.058  0.9492 -0.4829 -0.6011
 7701SOL    MW430578   0.650   3.840   4.075  0.8086 -0.2137 -0.1069
 7702SOL     OW30579   5.326   6.207   4.716  0.5556 -0.0937  0.1480
 7702SOL    HW230580   5.299   6.155   4.641 -1.5678  1.5205 -0.3124
 7702SOL    HW330581   5.343   6.143   4.785 -0.0182 -1.4806 -0.9492
 7702SOL    MW430582   5.325   6.192   4.715  0.1997 -0.0637 -0.0575
 7703SOL     OW30583   3.134   2.838   1.698  0.0674  0.1047 -0.2496
 7703SOL    HW230584   3.208   2.853   1.756  0.2147  1.8338 -0.8368
 7703SOL    HW330585   3.154   2.755   1.654  0.7009 -0.4193  0.9826
 7703SOL    MW430586   3.146   2.829   1.700  0.1704  0.2637 -0.1645
 7704SOL     OW30587   2.036   0.113   0.319  0.0004  0.4925 -0.0560
 7704SOL    HW230588   1.987   0.110   0.237  1.0713  0.3900 -0.7137
 7704SOL    HW330589   2.092   0.190   0.310  0.3037  0.3386  0.4755
 7704SOL    MW430590   2.037   0.123   0.307  0.1817  0.4587 -0.0726
 7705SOL     OW30591   5.921   6.324   1.387 -0.3065 -0.3442  0.4458
 7705SOL    HW230592   5.922   6.368   1.473 -1.6495  0.4749  0.0753
 7705SOL    HW330593   6.009   6.337   1.352  0.5201 -1.3690  2.0133
 7705SOL    MW430594   5.933   6.331   1.394 -0.3747 -0.3713  0.6037
 7706SOL     OW30595   0.913   5.617   1.916  0.0010 -0.3657  0.2136
 7706SOL    HW230596   0.834   5.629   1.863  0.7079 -0.5786 -0.9195
 7706SOL    HW330597   0.881   5.576   1.997 -0.9606 -1.1296 -0.5303
 7706SOL    MW430598   0.899   5.613   1.920 -0.0326 -0.4946 -0.0340
 7707SOL     OW30599   2.916   3.445   5.114  0.0176 -0.0371  0.2347
 7707SOL    HW230600   2.938   3.490   5.032  1.1100  2.9197  2.0371
 7707SOL    HW330601   2.840   3.492   5.147 -0.8801 -1.6869  0.6384
 7707SOL    MW430602   2.909   3.457   5.107  0.0433  0.1353  0.5258
 7708SOL     OW30603   2.237   5.793   5.565  0.6700 -0.1661  0.2500
 7708SOL    HW230604   2.293   5.727   5.606 -1.0994 -1.9122 -0.0165
 7708SOL    HW330605   2.172   5.815   5.632 -0.1205 -0.4241 -0.4122
 7708SOL    MW430606   2.236   5.787   5.579  0.3322 -0.4305  0.1274
 7709SOL     OW30607   1.734   2.562   3.401 -0.3168 -0.3805  0.4386
 7709SOL    HW230608   1.760   2.511   3.479 -0.3558  0.9632  1.3629
 7709SOL    HW330609   1.781   2.520   3.329  0.2449 -1.2587  1.2794
 7709SOL    MW430610   1.744   2.550   3.402 -0.2478 -0.3191  0.6715
 7710SOL     OW30611   4.762   4.772   4.838  0.0962  0.3109 -0.3248
 7710SOL    HW230612   4.726   4.790   4.925 -1.2050 -0.0897 -0.7517
 7710SOL    HW330613   4.753   4.856   4.791 -1.5053 -0.0914 -0.8137
 7710SOL    MW430614   4.756   4.786   4.843 -0.2868  0.2050 -0.4457
 7711SOL     OW30615   6.053   2.078   1.866 -0.0732  0.2793  0.2313
 7711SOL    HW230616   5.964   2.050   1.890  0.2287 -1.6449 -0.7054
 7711SOL    HW330617   6.049   2.090   1.771  0.9654 -1.2051 -0.0415
 7711SOL    MW430618   6.040   2.076   1.856  0.1036 -0.1704  0.0717
 7712SOL     OW30619   2.469   0.792   5.864 -0.1273  0.3217 -0.4038
 7712SOL    HW230620   2.379   0.782   5.835 -0.6347  1.0344  0.8548
 7712SOL    HW330621   2.501   0.870   5.819 -0.8796  1.3742  0.8434
 7712SOL    MW430622   2.461   0.801   5.854 -0.2935  0.5546 -0.0732
 7713SOL     OW30623   1.799   5.768   5.280  0.3273 -0.6177 -0.2636
 7713SOL    HW230624   1.831   5.855   5.259 -0.5039 -0.3598 -0.4863
 7713SOL    HW330625   1.878   5.718   5.300  0.6863  0.7185  1.9600
 7713SOL    MW430626   1.814   5.772   5.280  0.2650 -0.4074  0.0004
 7714SOL     OW30627   0.673   4.165   0.843 -0.1761 -0.3175  0.5674
 7714SOL    HW230628   0.652   4.093   0.785 -1.2719 -0.0882  0.6606
 7714SOL    HW330629   0.648   4.134   0.930 -1.0689  0.3233  0.5503
 7714SOL    MW430630   0.667   4.152   0.847 -0.4385 -0.2027  0.5774
 7715SOL     OW30631   4.355   0.557   4.879  0.4487  0.2507  0.2505
 7715SOL    HW230632   4.338   0.464   4.895 -1.0597  0.0634 -1.9601
 7715SOL    HW330633   4.413   0.584   4.951  0.6722 -2.2956  1.1216
 7715SOL    MW430634   4.360   0.548   4.891  0.2792 -0.1100  0.0738
 7716SOL     OW30635   0.240   5.460   1.818 -0.2584  0.2142 -0.0448
 7716SOL    HW230636   0.237   5.437   1.724  0.4873 -0.3829  0.0601
 7716SOL    HW330637   0.311   5.405   1.853  1.2140  2.2620  0.3739
 7716SOL    MW430638   0.249   5.449   1.810  0.0342  0.4056  0.0243
 7717SOL     OW30639   3.041   2.090   2.145  0.6910  0.2881 -0.2878
 7717SOL    HW230640   3.113   2.080   2.082  0.6887 -0.9420 -0.1173
 7717SOL    HW330641   2.962   2.079   2.093  0.6587  0.2960 -0.2407
 7717SOL    MW430642   3.040   2.087   2.130  0.6865  0.1269 -0.2591
 7718SOL     OW30643   6.152   4.763   4.214  0.4444 -0.4618  0.3603
 7718SOL    HW230644   6.231   4.720   4.247  1.7580  0.9063 -0.8466
 7718SOL    HW330645   6.178   4.854   4.201 -1.1095 -0.1436 -0.8064
 7718SOL    MW430646   6.166   4.769   4.216  0.4127 -0.2393  0.0471
 7719SOL     OW30647   2.567   5.097   4.728 -0.2657  0.0119 -0.1766
 7719SOL    HW230648   2.491   5.057   4.686 -0.7040  1.8650 -1.2332
 7719SOL    HW330649   2.537   5.117   4.816 -0.8108  0.1614 -0.3876
 7719SOL    MW430650   2.553   5.094   4.734 -0.3955  0.2761 -0.3439
 7720SOL     OW30651   5.445   2.948   1.019 -0.4954 -0.0044 -0.6580
 7720SOL    HW230652   5.454   3.024   1.076  0.4555 -1.7673  1.6951
 7720SOL    HW330653   5.351   2.935   1.010 -0.7373 -0.7263  2.1235
 7720SOL    MW430654   5.434   2.956   1.025 -0.4019 -0.3323  0.0195
 7721SOL     OW30655   0.188   3.617   2.520  0.3606 -0.0489  0.4626
 7721SOL    HW230656   0.279   3.627   2.548  0.2404  0.3861  0.6991
 7721SOL    HW330657   0.151   3.553   2.581  0.3917  0.0932  0.6309
 7721SOL    MW430658   0.195   3.610   2.532  0.3488  0.0272  0.5160
 7722SOL     OW30659   3.028   3.677   5.464  0.1493 -0.9527  0.0894
 7722SOL    HW230660   3.110   3.724   5.482 -0.3539 -0.4252  1.0872
 7722SOL    HW330661   3.057   3.593   5.427  1.1616 -0.9284  0.7686
 7722SOL    MW430662   3.043   3.672   5.462  0.2165 -0.8799  0.3107
 7723SOL     OW30663   2.424   5.930   5.986  0.1534 -0.2770  0.6150
 7723SOL    HW230664   2.359   5.999   5.997 -1.1564 -0.7277 -2.8372
 7723SOL    HW330665   2.427   5.885   6.070 -2.5052  1.0265  1.5242
 7723SOL    MW430666   2.416   5.933   5.998 -0.3701 -0.1645  0.2795
 7724SOL     OW30667   2.211   4.579   5.338 -0.3248 -0.7415 -0.2608
 7724SOL    HW230668   2.210   4.566   5.243  1.3575  0.4873 -0.4870
 7724SOL    HW330669   2.304   4.571   5.362 -0.8464 -2.2373  1.4841
 7724SOL    MW430670   2.223   4.576   5.329 -0.1717 -0.7767 -0.0604
 7725SOL     OW30671   5.170   2.513   5.791  0.0784  0.5911  0.4470
 7725SOL    HW230672   5.209   2.589   5.749  1.8172 -0.5847 -0.1515
 7725SOL    HW330673   5.080   2.512   5.759  0.5428  1.3779 -0.9417
 7725SOL    MW430674   5.163   2.523   5.782  0.3691  0.5398  0.1848
 7726SOL     OW30675   5.753   1.943   3.069 -0.4365 -0.3923  0.1792
 7726SOL    HW230676   5.785   1.982   2.988 -0.3660  1.3483  0.9912
 7726SOL    HW330677   5.692   1.875   3.040  0.0964 -0.2687 -1.3289
 7726SOL    MW430678   5.749   1.939   3.054 -0.3569 -0.1463  0.0874
 7727SOL     OW30679   2.554   1.521   3.865 -0.0900  0.4572 -0.2003
 7727SOL    HW230680   2.491   1.589   3.885  2.2775  2.6375  0.3947
 7727SOL    HW330681   2.589   1.494   3.950 -0.3631 -0.9125 -0.4932
 7727SOL    MW430682   2.550   1.526   3.879  0.1863  0.5642 -0.1604
 7728SOL     OW30683   4.329   1.865   4.718 -0.1612 -0.3451 -0.3026
 7728SOL    HW230684   4.359   1.934   4.778  0.8234 -1.2433  0.2716
 7728SOL    HW330685   4.244   1.896   4.687  0.0762  0.9323  0.2617
 7728SOL    MW430686   4.322   1.878   4.722 -0.0000 -0.2950 -0.1524
 7729SOL     OW30687   4.232   4.570   1.472 -0.0066  0.2336  0.6097
 7729SOL    HW230688   4.224   4.644   1.411 -1.9992  0.8626  1.5635
 7729SOL    HW330689   4.150   4.570   1.521  0.7518 -1.4363  1.9813
 7729SOL    MW430690   4.220   4.580   1.470 -0.1694  0.0962  0.9165
 7730SOL     OW30691   6.398   0.671   3.314  0.4320  0.5182  0.6964
 7730SOL    HW230692   6.367   0.758   3.339  1.3544  0.7462  1.0623
 7730SOL    HW330693   6.348   0.611   3.371 -0.1903  0.7988  0.4563
 7730SOL    MW430694   6.387   0.674   3.325  0.4716  0.5853  0.7130
 7731SOL     OW30695   5.837   5.320   6.201  0.5664 -0.0046  0.0762
 7731SOL    HW230696   5.912   5.270   6.233  2.8880  0.6012 -3.7699
 7731SOL    HW330697   5.865   5.411   6.210 -0.3342  0.2905 -0.0939
 7731SOL    MW430698   5.851   5.326   6.206  0.7538  0.1143 -0.4537
 7732SOL     OW30699   2.330   2.415   4.994 -0.2149 -0.0068 -0.0627
 7732SOL    HW230700   2.308   2.456   4.910 -1.0033  0.0335  0.1500
 7732SOL    HW330701   2.258   2.353   5.010 -0.8639  1.0355  1.2731
 7732SOL    MW430702   2.317   2.412   4.985 -0.4046  0.1361  0.1416
 7733SOL     OW30703   5.298   5.255   2.683  0.0434  0.2693  0.1810
 7733SOL    HW230704   5.306   5.238   2.589 -0.5536 -1.6971  0.4433
 7733SOL    HW330705   5.345   5.183   2.724 -0.5192  0.5816  1.4024
 7733SOL    MW430706   5.305   5.243   2.676 -0.1096  0.0511  0.3767
 7734SOL     OW30707   0.758   4.042   0.538  0.1524  0.0871 -0.0594
 7734SOL    HW230708   0.682   3.987   0.515 -0.9336  1.3929  0.2548
 7734SOL    HW330709   0.779   4.089   0.457 -1.8732  2.5753  0.7317
 7734SOL    MW430710   0.750   4.041   0.524 -0.2581  0.5877  0.0864
 7735SOL     OW30711   0.844   1.099   1.202 -0.4896  0.3418  0.8771
 7735SOL    HW230712   0.816   1.038   1.135  1.2552  0.0471  0.3654
 7735SOL    HW330713   0.764   1.145   1.228 -1.6783 -1.4762  0.6093
 7735SOL    MW430714   0.830   1.097   1.197 -0.4162  0.0630  0.7743
 7736SOL     OW30715   1.033   2.397   3.633 -0.3692  0.2069 -0.2128
 7736SOL    HW230716   1.036   2.491   3.654 -0.6928  0.1344  0.1689
 7736SOL    HW330717   1.013   2.355   3.716  0.9650 -0.3029 -0.1261
 7736SOL    MW430718   1.031   2.404   3.647 -0.2358  0.1301 -0.1510
 7737SOL     OW30719   0.429   4.459   0.215 -0.1318 -0.0416  0.3575
 7737SOL    HW230720   0.352   4.480   0.269 -1.4189 -3.4206  0.0726
 7737SOL    HW330721   0.404   4.485   0.126 -1.0175 -1.1076  0.2676
 7737SOL    MW430722   0.416   4.465   0.211 -0.4185 -0.6281  0.3081
 7738SOL     OW30723   5.037   3.679   2.027 -0.1247 -0.3516 -0.1704
 7738SOL    HW230724   5.067   3.717   2.110  0.9087 -0.1800 -0.6003
 7738SOL    HW330725   5.111   3.691   1.968 -1.0488  0.0085 -1.2793
 7738SOL    MW430726   5.051   3.685   2.031 -0.1103 -0.2815 -0.3735
 7739SOL     OW30727   1.361   0.505   0.186  0.1934 -0.6666 -0.2853
 7739SOL    HW230728   1.378   0.411   0.179  0.7056 -0.7293  1.3609
 7739SOL    HW330729   1.433   0.539   0.239 -0.2948  0.5630 -0.3643
 7739SOL    MW430730   1.373   0.497   0.192  0.1966 -0.5126 -0.0785
 7740SOL     OW30731   1.743   4.314   4.785 -0.2652  0.4695  0.0326
 7740SOL    HW230732   1.706   4.319   4.873  2.2032  1.1955  1.1217
 7740SOL    HW330733   1.675   4.273   4.732 -2.3820  1.3489  1.9364
 7740SOL    MW430734   1.729   4.309   4.789 -0.2188  0.6813  0.4275
 7741SOL     OW30735   2.221   0.374   1.641  0.2803 -0.3877  0.4715
 7741SOL    HW230736   2.227   0.280   1.656  0.7218 -0.0814  2.4530
 7741SOL    HW330737   2.186   0.409   1.723  1.3746  1.3056  0.2597
 7741SOL    MW430738   2.217   0.366   1.654  0.4829 -0.1239  0.7050
 7742SOL     OW30739   3.031   2.577   5.118  0.1357  0.2152 -0.1932
 7742SOL    HW230740   3.072   2.646   5.170 -1.1826  1.2912 -0.5361
 7742SOL    HW330741   2.975   2.623   5.056  1.2609 -1.0490 -2.2937
 7742SOL    MW430742   3.029   2.592   5.117  0.1102  0.1904 -0.5156
 7743SOL     OW30743   1.704   5.454   0.849  0.4720  0.2262 -0.0290
 7743SOL    HW230744   1.722   5.387   0.915  1.2501  1.5246  1.1231
 7743SOL    HW330745   1.613   5.478   0.863  0.5165  0.2053  0.3013
 7743SOL    MW430746   1.694   5.448   0.860  0.5806  0.3947  0.1666
 7744SOL     OW30747   1.433   2.526   0.200 -0.0264 -0.1716 -0.2176
 7744SOL    HW230748   1.510   2.575   0.171  0.0264 -0.1956 -0.1197
 7744SOL    HW330749   1.414   2.561   0.287  1.2608 -1.7429  0.7535
 7744SOL    MW430750   1.441   2.537   0.208  0.1504 -0.3821 -0.0766
 7745SOL     OW30751   3.566   4.271   3.045 -0.2496 -0.5484  0.1975
 7745SOL    HW230752   3.570   4.360   3.008 -0.7102 -0.2797  0.7841
 7745SOL    HW330753   3.598   4.215   2.974  0.9911  0.1742  0.1576
 7745SOL    MW430754   3.570   4.276   3.031 -0.1467 -0.4176  0.2696
 7746SOL     OW30755   0.618   0.960   3.896 -0.4549 -0.2274 -0.3764
 7746SOL    HW230756   0.608   0.890   3.961 -0.0715 -0.4891 -0.5923
 7746SOL    HW330757   0.589   0.921   3.814 -0.2693 -0.1237 -0.4924
 7746SOL    MW430758   0.613   0.946   3.894 -0.3798 -0.2482 -0.4202
 7747SOL     OW30759   6.100   1.893   4.940  0.2950 -0.3350 -0.4683
 7747SOL    HW230760   6.157   1.918   4.866  0.2305 -2.5427 -1.3605
 7747SOL    HW330761   6.013   1.920   4.913  0.4114 -0.2565 -0.7770
 7747SOL    MW430762   6.096   1.900   4.926  0.3019 -0.6159 -0.6268
 7748SOL     OW30763   4.063   0.234   1.304 -0.6684 -0.2341  0.8344
 7748SOL    HW230764   4.082   0.258   1.395  0.0485  0.9374  0.3902
 7748SOL    HW330765   3.982   0.183   1.310 -0.2320 -0.8297  2.2057
 7748SOL    MW430766   4.054   0.230   1.317 -0.5163 -0.1581  0.9567
 7749SOL     OW30767   0.567   6.225   2.084 -0.0819  0.3447 -0.2629
 7749SOL    HW230768   0.643   6.266   2.125  0.8187  0.1095 -1.6472
 7749SOL    HW330769   0.516   6.191   2.158  2.3231 -1.5358  0.6647
 7749SOL    MW430770   0.570   6.226   2.099  0.3542  0.0656 -0.3232
 7750SOL     OW30771   5.679   0.987   0.704 -0.4085 -0.2530  0.1593
 7750SOL    HW230772   5.722   1.003   0.789 -0.1753  0.0293 -0.0088
 7750SOL    HW330773   5.739   1.026   0.640 -1.1879  0.6600 -0.0375
 7750SOL    MW430774   5.693   0.995   0.707 -0.4805 -0.0953  0.1111
 7751SOL     OW30775   2.165   5.556   6.354 -0.0610  0.2012  0.2386
 7751SOL    HW230776   2.159   5.617   6.427  1.7435  2.4756 -1.3536
 7751SOL    HW330777   2.226   5.488   6.384  1.1032  1.4096  0.6780
 7751SOL    MW430778   2.172   5.555   6.367  0.3307  0.6607  0.0865
 7752SOL     OW30779   1.561   4.813   2.265  0.4319 -0.0954 -0.4639
 7752SOL    HW230780   1.473   4.828   2.231  0.7839  0.3608 -1.1947
 7752SOL    HW330781   1.615   4.879   2.222  1.4253 -1.3801 -1.2705
 7752SOL    MW430782   1.557   4.824   2.255  0.6094 -0.2047 -0.6668
 7753SOL     OW30783   2.793   0.522   0.451 -0.5577 -0.1134  0.0063
 7753SOL    HW230784   2.769   0.577   0.526 -3.1420 -0.7028 -0.2899
 7753SOL    HW330785   2.794   0.581   0.376  0.9203  0.2620  0.2819
 7753SOL    MW430786   2.790   0.537   0.451 -0.7036 -0.1416  0.0036
 7754SOL     OW30787   3.387   4.186   6.337 -0.3363 -0.3680  0.0410
 7754SOL    HW230788   3.343   4.200   6.253 -1.3696 -1.3653  0.3827
 7754SOL    HW330789   3.413   4.273   6.366  0.4052 -0.0572 -1.5053
 7754SOL    MW430790   3.384   4.199   6.330 -0.3748 -0.4586 -0.1179
 7755SOL     OW30791   1.839   4.951   4.698  0.2729 -0.0450 -0.8332
 7755SOL    HW230792   1.777   4.948   4.625 -1.0704  0.5524  0.2327
 7755SOL    HW330793   1.804   5.017   4.757  0.4185 -1.6211  1.1517
 7755SOL    MW430794   1.826   4.959   4.696  0.1149 -0.1741 -0.4307
 7756SOL     OW30795   0.909   0.115   5.075 -0.3198  0.0866 -0.5943
 7756SOL    HW230796   0.999   0.127   5.104 -0.2896  0.5875 -0.8936
 7756SOL    HW330797   0.861   0.188   5.113 -0.4599  0.2245 -1.0354
 7756SOL    MW430798   0.914   0.126   5.084 -0.3343  0.1709 -0.6920
 7757SOL     OW30799   6.132   5.918   4.132 -0.4703 -0.2584 -0.2486
 7757SOL    HW230800   6.178   5.995   4.164 -0.3834  0.8576 -2.7978
 7757SOL    HW330801   6.129   5.858   4.207  0.6187  1.6716  1.4209
 7757SOL    MW430802   6.138   5.920   4.146 -0.3152  0.1435 -0.3647
 7758SOL     OW30803   2.013   0.840   2.281  0.1087 -0.3833 -1.0380
 7758SOL    HW230804   1.973   0.786   2.212 -0.6985  0.2348 -1.0657
 7758SOL    HW330805   2.049   0.916   2.234 -1.2132  0.4795 -0.7058
 7758SOL    MW430806   2.013   0.843   2.265 -0.1722 -0.1879 -0.9978
 7759SOL     OW30807   6.089   0.375   5.878 -0.2777  0.1034  0.1033
 7759SOL    HW230808   6.179   0.403   5.861  0.3100 -1.0200  1.1859
 7759SOL    HW330809   6.092   0.279   5.870 -1.6983  0.1269 -1.2106
 7759SOL    MW430810   6.101   0.366   5.875 -0.3876 -0.0417  0.0728
 7760SOL     OW30811   2.022   6.009   0.451  0.6576 -0.2965 -0.2464
 7760SOL    HW230812   2.080   5.986   0.524  1.3399  1.4828 -0.1812
 7760SOL    HW330813   2.063   6.087   0.412 -1.7917  1.1526 -0.0882
 7760SOL    MW430814   2.035   6.016   0.455  0.4245  0.1294 -0.2169
 7761SOL     OW30815   4.459   6.137   4.561  0.4878 -0.0581  0.0719
 7761SOL    HW230816   4.393   6.116   4.495 -0.4018  0.2165  0.8498
 7761SOL    HW330817   4.447   6.230   4.578 -0.4404 -0.4490  1.8108
 7761SOL    MW430818   4.449   6.147   4.555  0.2480 -0.0734  0.4039
 7762SOL     OW30819   5.740   0.925   2.237  0.3369 -0.0679 -0.3846
 7762SOL    HW230820   5.711   1.003   2.191 -0.7468 -0.3450 -0.2036
 7762SOL    HW330821   5.827   0.948   2.271  0.5968  0.5833 -1.4454
 7762SOL    MW430822   5.748   0.938   2.235  0.2282 -0.0185 -0.5007
 7763SOL     OW30823   4.768   2.427   1.124 -0.2173 -0.0023 -0.3199
 7763SOL    HW230824   4.708   2.414   1.051 -0.6196 -1.0976  0.1866
 7763SOL    HW330825   4.806   2.514   1.109  0.1756 -0.4559 -2.1466
 7763SOL    MW430826   4.765   2.437   1.113 -0.2185 -0.2067 -0.4941
 7764SOL     OW30827   4.415   6.110   3.531  0.1812  0.1670  0.0417
 7764SOL    HW230828   4.376   6.183   3.483 -2.1861 -0.3613  1.0190
 7764SOL    HW330829   4.417   6.139   3.622  1.1781 -0.2406  0.1710
 7764SOL    MW430830   4.410   6.123   3.537  0.0004  0.0435  0.1877
 7765SOL     OW30831   3.765   2.853   5.618 -0.2036 -0.6936  0.3265
 7765SOL    HW230832   3.820   2.838   5.694  0.9690  1.9535  0.1268
 7765SOL    HW330833   3.677   2.865   5.653  0.5153  1.7802  1.5300
 7765SOL    MW430834   3.760   2.853   5.632  0.0460 -0.0179  0.4590
 7766SOL     OW30835   0.194   4.015   5.698 -0.0558 -0.2851 -0.3583
 7766SOL    HW230836   0.217   3.981   5.785 -0.1030  1.0477  0.1937
 7766SOL    HW330837   0.263   4.078   5.678  0.1188 -0.8040 -1.4410
 7766SOL    MW430838   0.206   4.019   5.707 -0.0390 -0.1777 -0.4283
 7767SOL     OW30839   1.590   5.186   1.597 -0.1588  0.1768  0.3096
 7767SOL    HW230840   1.536   5.215   1.522  0.5828 -0.4589 -0.4919
 7767SOL    HW330841   1.672   5.235   1.587  0.1109 -0.2462  0.4439
 7767SOL    MW430842   1.593   5.197   1.586 -0.0253  0.0371  0.2216
 7768SOL     OW30843   6.356   3.235   2.983 -0.1907 -0.3003 -0.4101
 7768SOL    HW230844   6.448   3.210   2.978 -0.1281 -0.1701  0.0187
 7768SOL    HW330845   6.308   3.155   2.964  0.0117 -0.2308 -1.2182
 7768SOL    MW430846   6.362   3.221   2.980 -0.1557 -0.2740 -0.4602
 7769SOL     OW30847   6.194   0.323   2.391  0.1168  0.4332  0.1291
 7769SOL    HW230848   6.252   0.259   2.432 -0.7373 -0.4257  0.0347
 7769SOL    HW330849   6.107   0.301   2.425 -0.0809  2.1365  0.8191
 7769SOL    MW430850   6.190   0.311   2.401 -0.0220  0.5446  0.2077
 7770SOL     OW30851   1.226   4.584   3.420 -0.2942  0.2172  0.2800
 7770SOL    HW230852   1.139   4.579   3.462  0.1379 -2.5831  1.0149
 7770SOL    HW330853   1.214   4.544   3.334  0.2406 -0.0465  0.3264
 7770SOL    MW430854   1.213   4.578   3.414 -0.1666 -0.1871  0.3831
 7771SOL     OW30855   6.008   2.745   3.237 -0.8293  0.2436 -0.4744
 7771SOL    HW230856   5.917   2.772   3.234 -1.1737 -0.5325  1.3816
 7771SOL    HW330857   6.047   2.802   3.304 -0.4958 -0.8702  0.2985
 7771SOL    MW430858   6.001   2.756   3.246 -0.8308 -0.0057 -0.1276
 7772SOL     OW30859   2.576   2.589   3.352 -0.0902 -0.1351  0.5870
 7772SOL    HW230860   2.665   2.568   3.325 -0.6857 -0.5943 -1.1318
 7772SOL    HW330861   2.558   2.530   3.425  1.1307  0.2512  1.2297
 7772SOL    MW430862   2.586   2.578   3.358 -0.0077 -0.1447  0.4450
 7773SOL     OW30863   2.393   5.937   4.044  0.0295 -0.2689 -0.3292
 7773SOL    HW230864   2.324   5.874   4.027 -1.2814  1.1817 -0.6440
 7773SOL    HW330865   2.361   5.988   4.119  1.6156 -0.7334  0.7168
 7773SOL    MW430866   2.380   5.936   4.052  0.0658 -0.1388 -0.2327
 7774SOL     OW30867   6.260   2.713   2.661  0.4613  0.0142 -0.5476
 7774SOL    HW230868   6.188   2.763   2.699  0.0556 -1.2535  0.4255
 7774SOL    HW330869   6.337   2.766   2.677 -0.0026  0.5056  0.1287
 7774SOL    MW430870   6.260   2.727   2.668  0.3466 -0.0882 -0.3300
 7775SOL     OW30871   5.569   1.316   5.692  0.1671  0.1849  0.0302
 7775SOL    HW230872   5.574   1.376   5.767  1.5431 -0.4402  0.4703
 7775SOL    HW330873   5.501   1.254   5.716 -0.3993  0.8223  0.1175
 7775SOL    MW430874   5.561   1.316   5.705  0.2739  0.1865  0.0998
 7776SOL     OW30875   1.609   2.332   0.600  0.0705  0.6595 -0.1608
 7776SOL    HW230876   1.521   2.311   0.568  0.7660 -1.8244 -0.6179
 7776SOL    HW330877   1.649   2.383   0.529 -0.4565  0.3908 -0.6596
 7776SOL    MW430878   1.603   2.336   0.586  0.0927  0.2963 -0.2869
 7777SOL     OW30879   3.655   5.172   6.039 -0.5044 -0.1470  0.0662
 7777SOL    HW230880   3.720   5.238   6.016 -1.5632  0.8436 -0.1501
 7777SOL    HW330881   3.704   5.107   6.089  0.2346  1.6867  1.8621
 7777SOL    MW430882   3.670   5.172   6.042 -0.5466  0.2256  0.2746
 7778SOL     OW30883   5.350   1.118   3.898 -0.4728 -0.2739  0.6432
 7778SOL    HW230884   5.314   1.030   3.894  0.4585 -0.6232 -0.4517
 7778SOL    HW330885   5.410   1.124   3.824 -0.5786  1.3134  0.6352
 7778SOL    MW430886   5.354   1.107   3.888 -0.3639 -0.1106  0.4977
 7779SOL     OW30887   0.926   5.303   0.174 -0.6479 -0.1587 -0.2264
 7779SOL    HW230888   0.932   5.297   0.269  0.1162 -0.1599 -0.2693
 7779SOL    HW330889   1.000   5.252   0.142 -0.6214  0.2455 -0.8164
 7779SOL    MW430890   0.936   5.295   0.182 -0.5436 -0.1056 -0.3099
 7780SOL     OW30891   0.520   1.638   5.778  0.2508 -0.4631  0.1143
 7780SOL    HW230892   0.498   1.673   5.865 -0.4023 -1.6411  0.4519
 7780SOL    HW330893   0.436   1.634   5.733  0.4482 -0.7524 -0.2261
 7780SOL    MW430894   0.506   1.642   5.784  0.1907 -0.6567  0.1139
 7781SOL     OW30895   4.381   1.330   5.722  0.6080 -0.2609 -0.9413
 7781SOL    HW230896   4.344   1.245   5.745  0.2545 -0.3321 -1.7233
 7781SOL    HW330897   4.438   1.311   5.647  1.0212  0.0965 -0.7224
 7781SOL    MW430898   4.384   1.316   5.715  0.6159 -0.2232 -1.0156
 7782SOL     OW30899   1.527   4.348   4.985  0.2278  0.2504  0.4696
 7782SOL    HW230900   1.562   4.410   5.049 -0.0544  1.2342 -0.3148
 7782SOL    HW330901   1.437   4.332   5.014  0.4587 -0.2203  0.9652
 7782SOL    MW430902   1.520   4.354   4.997  0.2211  0.3181  0.4315
 7783SOL     OW30903   5.355   6.309   1.679 -0.1085  0.5539  0.2088
 7783SOL    HW230904   5.440   6.322   1.637 -0.0332  0.4274  0.3215
 7783SOL    HW330905   5.326   6.398   1.702  0.5260  0.5165  1.2233
 7783SOL    MW430906   5.363   6.323   1.677 -0.0149  0.5323  0.3575
 7784SOL     OW30907   0.918   3.625   4.025  0.4496  0.6663  0.2925
 7784SOL    HW230908   0.849   3.626   4.092  0.6394  1.7397  0.4945
 7784SOL    HW330909   0.991   3.671   4.066 -0.1920  3.4377 -1.3886
 7784SOL    MW430910   0.918   3.631   4.039  0.3900  1.1736  0.0973
 7785SOL     OW30911   2.413   5.562   4.247 -0.4810 -0.1629  0.1237
 7785SOL    HW230912   2.471   5.488   4.226  0.2334 -0.1815  1.9706
 7785SOL    HW330913   2.446   5.595   4.331 -1.9584  1.0783  0.2590
 7785SOL    MW430914   2.425   5.556   4.255 -0.5817 -0.0016  0.3852
 7786SOL     OW30915   5.673   5.975   1.745  1.3012  0.5922  0.2930
 7786SOL    HW230916   5.598   5.993   1.688  2.2584  1.3234 -0.7875
 7786SOL    HW330917   5.686   5.881   1.740  0.4140  0.4484  0.5576
 7786SOL    MW430918   5.665   5.965   1.737  1.3104  0.6697  0.1854
 7787SOL     OW30919   1.104   1.386   2.849 -0.2992 -0.6624  0.3859
 7787SOL    HW230920   1.166   1.436   2.903 -0.8503  0.9875 -0.4176
 7787SOL    HW330921   1.159   1.341   2.784  0.1083  0.9699 -0.4639
 7787SOL    MW430922   1.119   1.387   2.847 -0.3181 -0.2294  0.1677
 7788SOL     OW30923   1.249   0.671   4.628 -0.0998  0.2239 -0.3439
 7788SOL    HW230924   1.340   0.660   4.603  0.4075 -0.1271  1.5093
 7788SOL    HW330925   1.200   0.615   4.567  1.0758 -0.8805 -0.3072
 7788SOL    MW430926   1.254   0.662   4.617  0.1223  0.0318 -0.0945
 7789SOL     OW30927   1.502   2.021   0.309 -0.0758 -0.4960  0.5117
 7789SOL    HW230928   1.516   2.115   0.302 -0.8941 -0.3530  0.6006
 7789SOL    HW330929   1.542   1.984   0.230  3.1204 -0.4599  1.9935
 7789SOL    MW430930   1.509   2.028   0.297  0.2379 -0.4724  0.7189
 7790SOL     OW30931   1.724   3.469   0.902 -0.3505  0.0675  0.0210
 7790SOL    HW230932   1.721   3.497   0.810  2.9541 -0.5078 -0.3946
 7790SOL    HW330933   1.645   3.417   0.914 -1.3373  0.9006 -2.2068
 7790SOL    MW430934   1.713   3.466   0.892 -0.0447  0.1015 -0.3278
 7791SOL     OW30935   5.917   2.886   1.326 -0.0256 -0.0977 -0.1297
 7791SOL    HW230936   5.891   2.861   1.415  0.0045  2.1147  0.5496
 7791SOL    HW330937   5.951   2.975   1.334  0.2517  0.0618 -2.3177
 7791SOL    MW430938   5.918   2.895   1.339  0.0150  0.2152 -0.3288
 7792SOL     OW30939   5.699   0.131   6.392  0.3190 -0.1838  0.2202
 7792SOL    HW230940   5.739   0.178   6.319 -1.9670  0.3517 -0.7877
 7792SOL    HW330941   5.721   0.182   6.470  2.0967 -0.2964 -0.1798
 7792SOL    MW430942   5.707   0.144   6.393  0.2519 -0.1280  0.0344
 7793SOL     OW30943   2.027   5.028   1.286  0.2862  0.2056 -0.1646
 7793SOL    HW230944   2.048   4.952   1.231 -0.3097 -0.9510  1.1646
 7793SOL    HW330945   1.935   5.047   1.267  1.1178  2.4457 -2.6043
 7793SOL    MW430946   2.018   5.020   1.276  0.3173  0.3485 -0.3111
 7794SOL     OW30947   5.867   4.447   3.551  0.1381 -0.1730  0.3180
 7794SOL    HW230948   5.941   4.437   3.492 -0.7842 -3.2231 -0.4875
 7794SOL    HW330949   5.876   4.376   3.613 -1.3824  0.2407  1.0650
 7794SOL    MW430950   5.878   4.437   3.551 -0.1842 -0.5208  0.3103
 7795SOL     OW30951   2.293   5.134   2.302  0.0143  0.2158  0.2179
 7795SOL    HW230952   2.198   5.123   2.308 -0.0307  0.6779  0.4781
 7795SOL    HW330953   2.324   5.058   2.254 -0.4612 -0.0741  0.3642
 7795SOL    MW430954   2.285   5.123   2.297 -0.0544  0.2385  0.2715
 7796SOL     OW30955   3.307   5.802   0.456  0.0700 -0.3590 -0.2223
 7796SOL    HW230956   3.261   5.881   0.430  0.9069  1.3793  3.0502
 7796SOL    HW330957   3.379   5.794   0.392 -2.5339 -1.1970 -3.3015
 7796SOL    MW430958   3.311   5.811   0.444 -0.1631 -0.2402 -0.1968
 7797SOL     OW30959   6.226   3.473   1.337 -0.2328 -0.3347  0.0515
 7797SOL    HW230960   6.310   3.514   1.358 -0.5967  1.4395 -1.7361
 7797SOL    HW330961   6.164   3.545   1.332 -1.9366 -1.5997  1.3139
 7797SOL    MW430962   6.229   3.488   1.339 -0.5056 -0.2675 -0.0178
 7798SOL     OW30963   2.102   5.260   1.156  0.0070 -0.5902 -0.3461
 7798SOL    HW230964   2.196   5.277   1.165 -0.2849  0.6704  0.5573
 7798SOL    HW330965   2.083   5.198   1.227  0.2538 -1.3555 -0.9290
 7798SOL    MW430966   2.112   5.254   1.167  0.0011 -0.5249 -0.3038
 7799SOL     OW30967   2.856   0.064   3.413 -0.0208  0.0622  0.0838
 7799SOL    HW230968   2.773   0.112   3.420 -1.6328 -2.7293  2.1924
 7799SOL    HW330969   2.883   0.050   3.504  1.6829 -0.9025 -0.5252
 7799SOL    MW430970   2.849   0.069   3.426 -0.0087 -0.4334  0.2816
 7800SOL     OW30971   3.805   0.125   1.257 -0.1917  0.4682  0.7036
 7800SOL    HW230972   3.821   0.047   1.205  0.3739  0.6869  0.5473
 7800SOL    HW330973   3.748   0.179   1.202 -0.7247  0.1018  0.8811
 7800SOL    MW430974   3.799   0.122   1.243 -0.1874  0.4487  0.7064
 7801SOL     OW30975   0.273   1.685   4.896 -0.3456 -0.0829 -0.4259
 7801SOL    HW230976   0.289   1.686   4.802 -0.3928  0.9298 -0.4256
 7801SOL    HW330977   0.188   1.641   4.905 -0.3996 -0.0678 -0.8597
 7801SOL    MW430978   0.264   1.679   4.885 -0.3589  0.0527 -0.4831
 7802SOL     OW30979   0.916   5.269   0.476  0.5399 -0.4303  0.1804
 7802SOL    HW230980   0.857   5.199   0.447  1.7385 -1.4373  0.1171
 7802SOL    HW330981   0.865   5.316   0.543 -1.7330  1.0685 -2.4026
 7802SOL    MW430982   0.901   5.266   0.481  0.3981 -0.3654 -0.1687
 7803SOL     OW30983   5.928   0.756   1.964  0.1133  0.6023 -0.1013
 7803SOL    HW230984   5.981   0.836   1.974 -0.0293  0.6869 -0.0115
 7803SOL    HW330985   5.913   0.749   1.870 -1.1663  1.5396 -0.0041
 7803SOL    MW430986   5.933   0.766   1.953 -0.0744  0.7371 -0.0766
 7804SOL     OW30987   4.283   6.106   1.316  0.0692 -1.2293  0.2405
 7804SOL    HW230988   4.365   6.072   1.280  1.6218  1.0259  1.4235
 7804SOL    HW330989   4.233   6.133   1.240  0.3608 -2.6640 -0.5079
 7804SOL    MW430990   4.287   6.105   1.301  0.3125 -1.1211  0.2979
 7805SOL     OW30991   0.107   4.200   1.034  0.1112 -0.6343  0.1436
 7805SOL    HW230992   0.124   4.264   0.965  0.2165 -0.7942  0.0191
 7805SOL    HW330993   0.128   4.115   0.994 -1.3528 -0.8893 -0.1430
 7805SOL    MW430994   0.112   4.197   1.020 -0.0681 -0.6891  0.0894
 7806SOL     OW30995   5.817   3.457   4.701 -0.4675 -0.1202  0.2842
 7806SOL    HW230996   5.794   3.457   4.794 -0.7190  2.0763  0.2787
 7806SOL    HW330997   5.905   3.495   4.699 -1.2346  1.7111 -0.4850
 7806SOL    MW430998   5.826   3.462   4.713 -0.6019  0.4112  0.1820
 7807SOL     OW30999   5.272   0.928   1.281  0.4029  0.1196 -0.7887
 7807SOL    HW231000   5.329   0.953   1.354 -1.7584  0.7692  0.7895
 7807SOL    HW331001   5.259   1.010   1.232 -0.8451  0.4974  0.1246
 7807SOL    MW431002   5.278   0.942   1.284 -0.0469  0.2552 -0.4600
 7808SOL     OW31003   5.369   4.334   5.621 -0.4468  0.3324 -0.1317
 7808SOL    HW231004   5.283   4.362   5.590 -0.4684  2.3025  1.4790
 7808SOL    HW331005   5.361   4.330   5.717  0.8436 -0.9940 -0.0251
 7808SOL    MW431006   5.357   4.337   5.630 -0.2794  0.4174  0.0949
 7809SOL     OW31007   1.762   0.417   2.161  0.2846  0.4347  0.1019
 7809SOL    HW231008   1.765   0.421   2.257 -1.1745  1.5525  0.1345
 7809SOL    HW331009   1.675   0.381   2.142 -0.0996  1.7785 -0.8093
 7809SOL    MW431010   1.751   0.413   2.171  0.0414  0.7595 -0.0140
 7810SOL     OW31011   4.079   1.963   4.876 -0.0252  0.0991  0.0022
 7810SOL    HW231012   3.995   2.008   4.889 -0.0201  0.5694 -1.4051
 7810SOL    HW331013   4.055   1.872   4.860 -0.1092 -0.2062  1.6804
 7810SOL    MW431014   4.065   1.957   4.876 -0.0357  0.1209  0.0380
 7811SOL     OW31015   1.126   1.984   1.196  0.0817  0.1246  0.2069
 7811SOL    HW231016   1.222   1.977   1.190  0.0618  0.5109 -0.6764
 7811SOL    HW331017   1.111   2.076   1.221 -0.1018  0.5166 -1.2599
 7811SOL    MW431018   1.137   1.996   1.199  0.0549  0.2273 -0.1032
 7812SOL     OW31019   2.183   2.312   2.287 -0.2450 -0.1743 -0.3126
 7812SOL    HW231020   2.235   2.232   2.291 -0.1851 -0.1802 -1.0511
 7812SOL    HW331021   2.187   2.339   2.195  1.1368  1.6220  0.2113
 7812SOL    MW431022   2.190   2.305   2.276 -0.0548  0.0619 -0.3409
 7813SOL     OW31023   3.191   4.042   5.662  0.4002  0.3492  0.2497
 7813SOL    HW231024   3.235   4.019   5.745  1.7910  0.2201 -0.4847
 7813SOL    HW331025   3.197   4.138   5.658  0.4877  0.3438  0.2328
 7813SOL    MW431026   3.198   4.052   5.673  0.5952  0.3315  0.1506
 7814SOL     OW31027   6.111   4.323   4.884 -0.1110  0.6536 -0.0108
 7814SOL    HW231028   6.078   4.256   4.944 -1.2556  0.8338 -0.4193
 7814SOL    HW331029   6.128   4.399   4.939  1.0755  0.0990  0.4373
 7814SOL    MW431030   6.109   4.324   4.899 -0.1054  0.6042 -0.0056
 7815SOL     OW31031   5.974   2.469   3.287  0.1646 -0.9056 -0.0839
 7815SOL    HW231032   5.979   2.564   3.275  3.0806 -0.9768 -0.0977
 7815SOL    HW331033   6.006   2.455   3.376  0.1451 -1.9156 -0.2308
 7815SOL    MW431034   5.979   2.480   3.297  0.5467 -1.0483 -0.1051
 7816SOL     OW31035   4.789   2.327   1.800  0.5330 -0.4639  0.6394
 7816SOL    HW231036   4.876   2.364   1.820 -0.9180  1.9778  3.1084
 7816SOL    HW331037   4.755   2.382   1.730  1.7454 -2.8917 -2.0517
 7816SOL    MW431038   4.796   2.339   1.794  0.5016 -0.4621  0.6101
 7817SOL     OW31039   3.310   6.241   4.050  0.2148 -0.4793 -0.5559
 7817SOL    HW231040   3.325   6.242   4.144 -2.9927  3.7164  0.2372
 7817SOL    HW331041   3.385   6.287   4.013 -0.6107  2.0682  0.6952
 7817SOL    MW431042   3.322   6.248   4.057 -0.3173  0.4103 -0.2862
 7818SOL     OW31043   3.728   2.419   4.404 -0.5932 -0.7384 -0.0406
 7818SOL    HW231044   3.674   2.425   4.326 -0.4383 -1.1011 -0.1796
 7818SOL    HW331045   3.707   2.497   4.455 -1.4780 -1.0267  0.0574
 7818SOL    MW431046   3.718   2.430   4.401 -0.6895 -0.8243 -0.0460
 7819SOL     OW31047   1.186   3.856   5.485 -0.1753  0.1163  0.0434
 7819SOL    HW231048   1.143   3.772   5.502  1.1812 -0.8510 -1.0638
 7819SOL    HW331049   1.165   3.875   5.393  0.6022  0.3120 -0.1009
 7819SOL    MW431050   1.177   3.847   5.475  0.1063  0.0145 -0.1217
 7820SOL     OW31051   3.663   3.863   0.126 -0.4114  0.2928  0.0053
 7820SOL    HW231052   3.757   3.876   0.118 -0.3068 -0.9663 -1.1904
 7820SOL    HW331053   3.651   3.768   0.128 -1.5847  0.4245  1.4231
 7820SOL    MW431054   3.674   3.852   0.125 -0.5524  0.1441  0.0346
 7821SOL     OW31055   1.380   3.252   2.923  0.4684  0.7174  0.3173
 7821SOL    HW231056   1.474   3.261   2.908  0.5785 -0.9564 -0.2613
 7821SOL    HW331057   1.352   3.338   2.952  1.7816  1.9003 -1.6925
 7821SOL    MW431058   1.389   3.264   2.925  0.6562  0.6527 -0.0242
 7822SOL     OW31059   0.207   3.192   1.866 -0.7164  0.4808  0.1000
 7822SOL    HW231060   0.208   3.106   1.826 -3.1301  1.3036 -2.0283
 7822SOL    HW331061   0.146   3.184   1.940  1.5852 -0.3376  2.0413
 7822SOL    MW431062   0.199   3.180   1.871 -0.7312  0.4814  0.0753
 7823SOL     OW31063   2.522   2.213   1.503 -0.1070 -0.1130  0.6564
 7823SOL    HW231064   2.556   2.253   1.423 -0.6143 -2.7430 -1.0015
 7823SOL    HW331065   2.566   2.128   1.508 -2.7692 -1.5966  1.0379
 7823SOL    MW431066   2.532   2.207   1.493 -0.5252 -0.6557  0.4880
 7824SOL     OW31067   2.383   1.414   3.378 -0.1124 -0.4039 -0.3524
 7824SOL    HW231068   2.429   1.372   3.451  1.2876  1.2406 -0.2441
 7824SOL    HW331069   2.291   1.393   3.393  0.1877 -0.4509  1.6591
 7824SOL    MW431070   2.377   1.406   3.390  0.1119 -0.1931 -0.0727
 7825SOL     OW31071   0.195   2.162   2.420 -0.0827 -0.5137 -0.0248
 7825SOL    HW231072   0.181   2.079   2.466  0.7717  0.4550  2.0705
 7825SOL    HW331073   0.207   2.227   2.489  0.2864  1.2075 -1.6188
 7825SOL    MW431074   0.194   2.160   2.435  0.0787 -0.1588  0.0413
 7826SOL     OW31075   3.244   2.239   3.704 -0.6827  0.2591 -0.4163
 7826SOL    HW231076   3.236   2.208   3.614 -1.7423  1.7571 -0.8796
 7826SOL    HW331077   3.156   2.266   3.728 -0.1885  1.0217  0.6393
 7826SOL    MW431078   3.232   2.239   3.695 -0.7573  0.5574 -0.3382
 7827SOL     OW31079   1.220   2.806   6.421 -0.2774 -0.0127  0.8262
 7827SOL    HW231080   1.150   2.817   6.357  0.7146  2.6290  0.0421
 7827SOL    HW331081   1.291   2.764   6.372  0.8554  2.9196 -0.2580
 7827SOL    MW431082   1.220   2.802   6.406  0.0030  0.7227  0.5797
 7828SOL     OW31083   5.437   0.169   6.289  0.1268  0.3851 -0.2095
 7828SOL    HW231084   5.509   0.116   6.322 -0.6387 -0.2580  0.4766
 7828SOL    HW331085   5.378   0.178   6.364 -0.5669  0.7923 -0.7947
 7828SOL    MW431086   5.439   0.163   6.303 -0.0657  0.3540 -0.1962
 7829SOL     OW31087   5.891   4.481   4.500 -0.0593  0.1991 -0.2167
 7829SOL    HW231088   5.838   4.439   4.567 -1.4867  0.6155 -1.0488
 7829SOL    HW331089   5.836   4.551   4.465 -0.1252 -1.1134 -3.0756
 7829SOL    MW431090   5.877   4.485   4.504 -0.2563  0.0809 -0.7037
 7830SOL     OW31091   1.953   2.441   4.463  0.6614 -0.2244 -0.6703
 7830SOL    HW231092   1.959   2.366   4.405  0.2114 -0.2213 -0.7277
 7830SOL    HW331093   2.003   2.416   4.540  0.8805 -0.4073 -0.8703
 7830SOL    MW431094   1.960   2.428   4.465  0.6309 -0.2482 -0.7043
 7831SOL     OW31095   1.470   5.126   0.328 -0.1864 -0.0506 -0.4916
 7831SOL    HW231096   1.535   5.195   0.340 -0.5479  0.4975 -1.5127
 7831SOL    HW331097   1.401   5.146   0.391  0.6159 -0.6500  0.6144
 7831SOL    MW431098   1.469   5.138   0.338 -0.1283 -0.0574 -0.4804
 7832SOL     OW31099   3.512   4.949   0.423  0.1938  0.0851  0.2681
 7832SOL    HW231100   3.416   4.947   0.420  0.2114  0.0939 -1.2016
 7832SOL    HW331101   3.535   4.905   0.505 -1.0513 -1.0523  0.0488
 7832SOL    MW431102   3.502   4.943   0.433  0.0318 -0.0638  0.0452
 7833SOL     OW31103   1.830   6.253   5.368 -0.2704 -0.0487 -0.1889
 7833SOL    HW231104   1.862   6.237   5.457  0.0424  0.4677 -0.2053
 7833SOL    HW331105   1.842   6.169   5.324 -0.3433 -0.2847  0.2270
 7833SOL    MW431106   1.836   6.240   5.374 -0.2388 -0.0117 -0.1362
 7834SOL     OW31107   3.840   0.344   4.201 -0.0260 -0.4685  0.2193
 7834SOL    HW231108   3.756   0.359   4.244  0.2805  1.3744  0.2435
 7834SOL    HW331109   3.904   0.388   4.257  0.7166 -0.2609 -0.7617
 7834SOL    MW431110   3.837   0.351   4.214  0.1124 -0.1979  0.0931
 7835SOL     OW31111   4.640   4.103   4.181 -0.2791 -0.4534  0.6909
 7835SOL    HW231112   4.636   4.181   4.237 -0.1628 -0.7960  1.1816
 7835SOL    HW331113   4.614   4.134   4.094  0.7886  0.3476  0.6399
 7835SOL    MW431114   4.636   4.117   4.177 -0.1229 -0.3929  0.7489
 7836SOL     OW31115   0.212   1.296   1.148 -0.1420 -0.4596 -0.3612
 7836SOL    HW231116   0.180   1.206   1.155  0.8166 -0.8303 -0.6328
 7836SOL    HW331117   0.242   1.318   1.236  0.2973 -0.6671 -0.4579
 7836SOL    MW431118   0.212   1.287   1.160  0.0424 -0.5359 -0.4098
 7837SOL     OW31119   1.338   1.161   6.321  0.8218  0.1971 -0.1785
 7837SOL    HW231120   1.259   1.109   6.307  1.7372 -1.5951  0.9330
 7837SOL    HW331121   1.315   1.248   6.289 -2.1156  0.1869  1.5201
 7837SOL    MW431122   1.325   1.165   6.315  0.5550 -0.0407  0.1923
 7838SOL     OW31123   1.763   4.573   3.854 -0.2836  0.5054  0.6353
 7838SOL    HW231124   1.800   4.537   3.773 -0.6064 -0.2700  0.8212
 7838SOL    HW331125   1.748   4.666   3.835 -0.5813  0.2787 -0.2799
 7838SOL    MW431126   1.766   4.580   3.841 -0.3655  0.3732  0.5391
 7839SOL     OW31127   5.257   4.495   4.807 -0.3125 -0.3558 -0.2775
 7839SOL    HW231128   5.262   4.587   4.783 -0.9443 -0.1080  0.4973
 7839SOL    HW331129   5.262   4.495   4.903  2.5984 -1.3392 -0.3494
 7839SOL    MW431130   5.258   4.507   4.817 -0.0118 -0.4528 -0.1848
 7840SOL     OW31131   0.862   5.592   2.395 -0.9984 -0.1917 -0.0821
 7840SOL    HW231132   0.859   5.545   2.312  0.9330 -0.0494 -0.2915
 7840SOL    HW331133   0.951   5.628   2.399 -1.0012 -0.2584  2.0676
 7840SOL    MW431134   0.874   5.591   2.385 -0.7439 -0.1817  0.1739
 7841SOL     OW31135   0.764   3.333   5.204  0.0426  0.7701  0.2703
 7841SOL    HW231136   0.800   3.421   5.192 -0.8258  1.2907  1.3665
 7841SOL    HW331137   0.766   3.318   5.299  1.8370 -1.1279  0.0212
 7841SOL    MW431138   0.769   3.342   5.215  0.1648  0.5883  0.3820
 7842SOL     OW31139   4.846   3.667   2.642 -0.2028 -0.3495 -0.5928
 7842SOL    HW231140   4.909   3.626   2.583  0.0291  0.4632 -0.9273
 7842SOL    HW331141   4.769   3.611   2.638 -0.6403  0.3293 -2.6200
 7842SOL    MW431142   4.844   3.654   2.634 -0.2299 -0.1527 -0.9044
 7843SOL     OW31143   5.697   0.661   4.899  0.1526 -0.2212 -0.7603
 7843SOL    HW231144   5.642   0.715   4.842 -0.3867  0.2333  0.1670
 7843SOL    HW331145   5.748   0.608   4.838  0.3927  1.0190 -1.7051
 7843SOL    MW431146   5.696   0.661   4.883  0.1132  0.0024 -0.7626
 7844SOL     OW31147   0.465   5.214   4.905  0.0262  0.2927 -0.1020
 7844SOL    HW231148   0.387   5.227   4.851 -0.7280  1.0284  1.1238
 7844SOL    HW331149   0.537   5.249   4.853 -0.3554 -0.8163 -1.4531
 7844SOL    MW431150   0.464   5.220   4.891 -0.1237  0.2435 -0.1185
 7845SOL     OW31151   4.590   0.991   1.294 -0.1138  0.0815  0.1668
 7845SOL    HW231152   4.621   1.024   1.210 -0.2890 -0.7450 -0.2371
 7845SOL    HW331153   4.546   0.909   1.273 -1.0800  0.3805  0.9384
 7845SOL    MW431154   4.589   0.984   1.280 -0.2644  0.0119  0.2153
 7846SOL     OW31155   5.357   3.628   3.286 -0.0203  0.4220 -0.4285
 7846SOL    HW231156   5.430   3.600   3.231 -2.0766 -1.8912 -2.1844
 7846SOL    HW331157   5.387   3.610   3.376  2.5693  2.2427 -0.8131
 7846SOL    MW431158   5.370   3.622   3.291  0.0501  0.3570 -0.7109
 7847SOL     OW31159   0.922   0.347   1.328 -0.2227 -0.0307  0.0739
 7847SOL    HW231160   0.864   0.280   1.365 -0.6591 -0.8232 -1.9233
 7847SOL    HW331161   0.895   0.354   1.236  0.6001  2.0637 -0.0549
 7847SOL    MW431162   0.911   0.339   1.321 -0.1717  0.1410 -0.2066
 7848SOL     OW31163   3.499   3.880   2.743  0.1492  0.3671 -1.1569
 7848SOL    HW231164   3.525   3.969   2.766 -0.7662  0.0837  1.2425
 7848SOL    HW331165   3.581   3.830   2.744  0.2496  0.4065  1.7229
 7848SOL    MW431166   3.514   3.885   2.746  0.0417  0.3350 -0.4604
 7849SOL     OW31167   5.590   4.468   2.809 -0.1217  0.5715 -0.5207
 7849SOL    HW231168   5.672   4.466   2.857 -0.1006 -0.6690 -0.5909
 7849SOL    HW331169   5.542   4.542   2.846 -0.3775 -0.7069  1.8692
 7849SOL    MW431170   5.595   4.478   2.820 -0.1526  0.2392 -0.2146
 7850SOL     OW31171   3.219   3.135   4.514  0.6207 -0.2426  0.3169
 7850SOL    HW231172   3.258   3.052   4.543  0.9135  0.0192  0.6892
 7850SOL    HW331173   3.126   3.116   4.505  0.8726 -0.9746 -0.9258
 7850SOL    MW431174   3.212   3.121   4.517  0.6926 -0.3046  0.2021
 7851SOL     OW31175   2.544   6.413   6.010 -0.0481 -0.4546  0.2592
 7851SOL    HW231176   2.527   6.342   5.948 -3.7582 -0.3469  0.9382
 7851SOL    HW331177   2.536   6.493   5.958  1.2666 -0.4207  0.0720
 7851SOL    MW431178   2.541   6.414   5.995 -0.3642 -0.4360  0.3241
 7852SOL     OW31179   3.905   4.822   0.042  0.1749 -0.2816  0.2807
 7852SOL    HW231180   3.829   4.814   0.100 -1.9489  0.9431 -2.0952
 7852SOL    HW331181   3.917   4.733   0.006  1.1660 -0.9189  2.0958
 7852SOL    MW431182   3.896   4.809   0.045  0.0255 -0.2041  0.2067
 7853SOL     OW31183   2.373   3.341   6.030  0.2786  0.2257 -0.5658
 7853SOL    HW231184   2.401   3.251   6.013 -1.1055 -0.0544 -1.5027
 7853SOL    HW331185   2.321   3.335   6.110 -1.2090 -0.1296 -1.5226
 7853SOL    MW431186   2.370   3.328   6.038 -0.1003  0.1419 -0.8157
 7854SOL     OW31187   4.407   0.282   3.879 -0.5970 -0.0108  0.2811
 7854SOL    HW231188   4.359   0.273   3.797  1.1908  0.4426 -0.8595
 7854SOL    HW331189   4.422   0.191   3.907 -0.0901 -0.2106 -0.5959
 7854SOL    MW431190   4.403   0.269   3.872 -0.2942  0.0227  0.0149
 7855SOL     OW31191   2.563   4.341   5.217 -0.4572 -0.0716  0.2681
 7855SOL    HW231192   2.646   4.338   5.266 -0.8185 -0.6448  0.8800
 7855SOL    HW331193   2.527   4.253   5.229  0.0696 -0.6792 -2.1807
 7855SOL    MW431194   2.569   4.329   5.225 -0.4353 -0.2274  0.0257
 7856SOL     OW31195   5.619   3.915   0.959  0.1977  0.0150 -0.3823
 7856SOL    HW231196   5.591   3.830   0.994 -1.8072  0.5595 -0.5745
 7856SOL    HW331197   5.712   3.920   0.982 -0.0572 -1.4410  1.2045
 7856SOL    MW431198   5.628   3.904   0.966 -0.1005 -0.1053 -0.1983
 7857SOL     OW31199   2.110   2.231   0.571  0.0811  0.5546 -0.1364
 7857SOL    HW231200   2.067   2.157   0.615  0.9644 -0.3205 -0.6909
 7857SOL    HW331201   2.203   2.209   0.574  0.2751  1.2097 -1.1149
 7857SOL    MW431202   2.116   2.218   0.578  0.2232  0.5256 -0.3387
 7858SOL     OW31203   1.312   4.131   1.884 -0.2866 -0.4196 -0.2703
 7858SOL    HW231204   1.265   4.155   1.964 -0.4421  1.5016 -0.8931
 7858SOL    HW331205   1.250   4.149   1.813  0.6901  0.2930 -0.9763
 7858SOL    MW431206   1.298   4.136   1.885 -0.1783 -0.0721 -0.4456
 7859SOL     OW31207   3.529   2.037   4.567  0.1184 -0.7304  0.1583
 7859SOL    HW231208   3.526   2.059   4.474 -0.7033  0.5844  0.4745
 7859SOL    HW331209   3.441   2.057   4.600  0.7130 -0.0816  1.4437
 7859SOL    MW431210   3.517   2.042   4.559  0.0885 -0.4713  0.3696
 7860SOL     OW31211   0.463   2.242   3.604  0.6615 -0.0049 -0.3009
 7860SOL    HW231212   0.368   2.246   3.620  0.8121  0.9841  0.4883
 7860SOL    HW331213   0.493   2.332   3.617  2.0827 -0.7291  2.0671
 7860SOL    MW431214   0.454   2.255   3.608  0.8689  0.0300  0.1157
 7861SOL     OW31215   0.614   4.727   6.265  0.2517  0.1764  0.0217
 7861SOL    HW231216   0.638   4.731   6.172 -3.4739 -2.6856 -1.2928
 7861SOL    HW331217   0.590   4.817   6.287 -1.0610  0.5557 -2.5705
 7861SOL    MW431218   0.614   4.739   6.256 -0.4130 -0.1511 -0.4937
 7862SOL     OW31219   2.691   0.473   3.312  0.0701  0.9138  0.4968
 7862SOL    HW231220   2.668   0.560   3.278  1.1518  1.4435  1.0843
 7862SOL    HW331221   2.649   0.469   3.398 -1.5596  0.0882 -0.2896
 7862SOL    MW431222   2.682   0.484   3.319 -0.0022  0.8748  0.4705
 7863SOL     OW31223   1.410   2.556   1.077  0.1968  0.0074  0.1101
 7863SOL    HW231224   1.414   2.643   1.035 -0.9460 -0.8515 -1.9429
 7863SOL    HW331225   1.464   2.500   1.021 -0.1579 -0.8885  0.6439
 7863SOL    MW431226   1.417   2.560   1.064 -0.0008 -0.2241 -0.0904
 7864SOL     OW31227   4.548   4.747   1.166 -0.5374  0.2577 -0.5580
 7864SOL    HW231228   4.561   4.674   1.227 -1.1446 -0.9436 -1.7995
 7864SOL    HW331229   4.631   4.795   1.168 -0.8618  0.8465  1.9046
 7864SOL    MW431230   4.561   4.744   1.174 -0.6603  0.1769 -0.3969
 7865SOL     OW31231   5.334   3.335   0.493 -0.2201 -0.1023 -0.5703
 7865SOL    HW231232   5.247   3.362   0.461 -0.1266  0.5800 -0.2818
 7865SOL    HW331233   5.354   3.255   0.445 -0.7618  0.0497 -1.0626
 7865SOL    MW431234   5.325   3.328   0.483 -0.2793  0.0078 -0.5972
 7866SOL     OW31235   2.693   3.499   2.052 -0.0404  0.1864 -0.8259
 7866SOL    HW231236   2.707   3.411   2.017  0.2720 -0.3940  0.6451
 7866SOL    HW331237   2.603   3.521   2.029 -0.3514 -0.8174 -0.6328
 7866SOL    MW431238   2.683   3.490   2.045 -0.0402 -0.0226 -0.6064
 7867SOL     OW31239   2.037   5.148   5.024  0.4663 -0.0407  0.2451
 7867SOL    HW231240   2.001   5.101   5.099 -0.7793  1.4555  0.6445
 7867SOL    HW331241   2.093   5.084   4.979 -1.8044 -2.1369  0.2354
 7867SOL    MW431242   2.040   5.134   5.028  0.0024 -0.1199  0.2965
 7868SOL     OW31243   6.082   4.020   1.205 -0.0347  0.2347 -0.4872
 7868SOL    HW231244   6.115   4.072   1.279  2.8658  2.0102 -2.7762
 7868SOL    HW331245   6.143   3.947   1.198  1.5207  1.5964 -2.6336
 7868SOL    MW431246   6.095   4.017   1.214  0.5532  0.6486 -1.0724
 7869SOL     OW31247   2.572   1.974   3.751  0.6881 -0.3788 -0.1550
 7869SOL    HW231248   2.618   1.996   3.670 -0.8463 -0.4812 -1.0921
 7869SOL    HW331249   2.485   2.011   3.740  0.9661  1.2634  2.2522
 7869SOL    MW431250   2.567   1.982   3.739  0.5224 -0.1756  0.0390
 7870SOL     OW31251   1.161   1.778   2.979  0.1895 -0.2411 -0.3665
 7870SOL    HW231252   1.210   1.696   2.982 -0.5806 -0.7092 -0.4484
 7870SOL    HW331253   1.070   1.754   2.997  0.1084  0.7355  0.6688
 7870SOL    MW431254   1.156   1.764   2.981  0.0772 -0.1740 -0.2407
 7871SOL     OW31255   5.490   0.236   2.187 -0.0618 -0.0315 -0.2844
 7871SOL    HW231256   5.435   0.159   2.206 -1.7624  1.3244  0.6380
 7871SOL    HW331257   5.440   0.284   2.121  0.4493  0.8200 -0.0566
 7871SOL    MW431258   5.476   0.232   2.181 -0.2187  0.2598 -0.1326
 7872SOL     OW31259   1.564   1.488   6.003  0.0787  0.0651 -0.3102
 7872SOL    HW231260   1.633   1.520   5.945 -0.0478  0.5278 -0.2157
 7872SOL    HW331261   1.589   1.521   6.090 -1.0981  1.6598 -0.5271
 7872SOL    MW431262   1.576   1.497   6.007 -0.0932  0.3365 -0.3264
 7873SOL     OW31263   2.986   5.231   2.710 -0.5937 -0.0761 -0.0488
 7873SOL    HW231264   3.056   5.191   2.761 -0.7345  1.0088  1.0315
 7873SOL    HW331265   2.917   5.164   2.708 -0.4827 -0.2368  0.9734
 7873SOL    MW431266   2.986   5.217   2.716 -0.5977  0.0458  0.2286
 7874SOL     OW31267   4.570   1.160   4.347 -0.0391 -0.3272  0.5271
 7874SOL    HW231268   4.505   1.107   4.393  1.2297 -1.9532  0.5321
 7874SOL    HW331269   4.598   1.105   4.274 -0.6218  1.4419 -1.1125
 7874SOL    MW431270   4.565   1.146   4.343  0.0514 -0.3083  0.3114
 7875SOL     OW31271   6.247   3.104   0.499  0.1389 -0.0053 -0.0574
 7875SOL    HW231272   6.177   3.044   0.525  0.4017 -0.0756  0.4933
 7875SOL    HW331273   6.312   3.048   0.457 -0.0607  0.0407 -0.4417
 7875SOL    MW431274   6.246   3.089   0.497  0.1473 -0.0085 -0.0355
 7876SOL     OW31275   3.121   3.078   2.893 -1.0333  0.0528  0.0955
 7876SOL    HW231276   3.113   3.151   2.831  0.6211  1.4695  1.4487
 7876SOL    HW331277   3.197   3.029   2.863 -0.6194  0.3664  0.6207
 7876SOL    MW431278   3.130   3.081   2.881 -0.7604  0.2811  0.3433
 7877SOL     OW31279   2.466   2.669   0.410 -0.4844  0.4361  0.1627
 7877SOL    HW231280   2.398   2.727   0.376 -0.7806 -0.0912 -0.1630
 7877SOL    HW331281   2.440   2.581   0.381 -0.3861  0.0497  1.1835
 7877SOL    MW431282   2.454   2.665   0.402 -0.5105  0.3156  0.2544
 7878SOL     OW31283   1.892   3.229   0.436 -0.2128 -0.8016 -0.3997
 7878SOL    HW231284   1.954   3.299   0.457 -2.7258  1.5913 -0.2349
 7878SOL    HW331285   1.875   3.241   0.342 -1.7294 -0.1750 -0.0756
 7878SOL    MW431286   1.898   3.240   0.426 -0.7445 -0.4032 -0.3352
 7879SOL     OW31287   2.848   2.623   4.563 -0.7241 -0.0532  0.1038
 7879SOL    HW231288   2.873   2.638   4.471 -1.0831 -0.3474 -0.0478
 7879SOL    HW331289   2.829   2.710   4.597 -0.6685  0.0509 -0.1256
 7879SOL    MW431290   2.849   2.636   4.555 -0.7642 -0.0783  0.0535
 7880SOL     OW31291   1.583   1.382   5.271 -0.0826 -0.4865  0.1700
 7880SOL    HW231292   1.621   1.408   5.187  0.4688 -0.9317  0.2770
 7880SOL    HW331293   1.651   1.329   5.313  0.0314  0.5333  1.3175
 7880SOL    MW431294   1.597   1.378   5.266  0.0052 -0.4107  0.3355
 7881SOL     OW31295   3.539   5.424   3.303 -0.4308 -0.3377 -0.6068
 7881SOL    HW231296   3.605   5.451   3.239 -1.5487 -0.4721 -1.8580
 7881SOL    HW331297   3.577   5.347   3.345  0.6123  0.1526 -0.6055
 7881SOL    MW431298   3.553   5.417   3.300 -0.4407 -0.2908 -0.7717
 7882SOL     OW31299   0.710   3.472   0.514  0.2737  0.1668  0.2530
 7882SOL    HW231300   0.780   3.532   0.540  0.6744  0.3066 -1.0847
 7882SOL    HW331301   0.709   3.406   0.583  2.8277 -0.7491 -0.4843
 7882SOL    MW431302   0.719   3.471   0.527  0.6635  0.0644 -0.0207
 7883SOL     OW31303   1.713   2.053   1.135 -0.6855  0.2703 -0.0465
 7883SOL    HW231304   1.767   2.068   1.212  0.1012  2.6056 -0.9780
 7883SOL    HW331305   1.645   2.119   1.140  0.0966  1.2930 -1.9384
 7883SOL    MW431306   1.711   2.063   1.146 -0.4785  0.7134 -0.4190
 7884SOL     OW31307   3.959   0.900   3.383 -0.3339 -0.3192 -0.0864
 7884SOL    HW231308   4.013   0.940   3.451 -0.7377  1.1639 -0.6116
 7884SOL    HW331309   3.888   0.962   3.368 -2.1198 -2.1163  0.4331
 7884SOL    MW431310   3.956   0.914   3.390 -0.6228 -0.3606 -0.0872
 7885SOL     OW31311   4.368   1.455   4.005 -0.3551 -0.7296 -0.0747
 7885SOL    HW231312   4.302   1.522   4.020 -1.5626 -1.8627 -0.1741
 7885SOL    HW331313   4.349   1.422   3.917 -0.2922 -1.7550  0.2895
 7885SOL    MW431314   4.357   1.460   3.995 -0.5061 -1.0144 -0.0398
 7886SOL     OW31315   3.990   0.936   5.066 -0.1082  0.0761 -0.1964
 7886SOL    HW231316   3.939   1.010   5.099  0.2873 -0.0770  0.7950
 7886SOL    HW331317   4.080   0.966   5.068  0.0605 -0.4346  0.2593
 7886SOL    MW431318   3.995   0.949   5.071 -0.0337 -0.0115 -0.0055
 7887SOL     OW31319   1.585   0.063   2.927 -0.1325  0.3024  0.4018
 7887SOL    HW231320   1.571   0.086   2.835  1.0425 -1.2103 -0.2148
 7887SOL    HW331321   1.535  -0.017   2.939  1.3124 -0.6282  0.4624
 7887SOL    MW431322   1.577   0.056   2.916  0.2131 -0.0200  0.3284
 7888SOL     OW31323   2.537   3.134   4.167  0.0660 -0.1388  0.2982
 7888SOL    HW231324   2.539   3.211   4.110  2.9692 -0.4647 -0.1639
 7888SOL    HW331325   2.512   3.169   4.253  1.0703  1.3010  0.0371
 7888SOL    MW431326   2.534   3.149   4.171  0.5815  0.0081  0.2028
 7889SOL     OW31327   1.560   1.660   2.270  0.7130  0.3448  0.2970
 7889SOL    HW231328   1.466   1.658   2.291  1.1609  0.5470  2.4554
 7889SOL    HW331329   1.592   1.574   2.297  1.1139  0.1360 -0.7907
 7889SOL    MW431330   1.552   1.648   2.276  0.8250  0.3439  0.4383
 7890SOL     OW31331   4.504   1.578   0.819  0.3417  0.0927 -0.3268
 7890SOL    HW231332   4.545   1.566   0.733 -2.2288 -0.5041 -1.5776
 7890SOL    HW331333   4.440   1.648   0.805  0.3846  0.4900  1.3127
 7890SOL    MW431334   4.501   1.586   0.805  0.0082  0.0664 -0.2755
 7891SOL     OW31335   4.733   5.551   4.834 -0.5606 -0.2951 -0.8265
 7891SOL    HW231336   4.654   5.535   4.886  1.2844  0.3189  2.4137
 7891SOL    HW331337   4.764   5.637   4.862  1.5020 -0.7023 -1.6639
 7891SOL    MW431338   4.726   5.560   4.844 -0.0450 -0.2678 -0.5095
 7892SOL     OW31339   5.017   6.378   2.998  0.3521  0.4383 -0.1992
 7892SOL    HW231340   5.013   6.283   2.981  0.1243  0.7348 -2.1044
 7892SOL    HW331341   5.069   6.386   3.078  0.0184 -1.3164  0.2390
 7892SOL    MW431342   5.023   6.366   3.006  0.2780  0.2459 -0.3928
 7893SOL     OW31343   1.836   6.019   1.317 -0.1358  0.3369 -0.1908
 7893SOL    HW231344   1.859   6.108   1.290 -0.6522  0.3738 -0.5128
 7893SOL    HW331345   1.764   6.031   1.379 -0.6127  0.1075 -0.7004
 7893SOL    MW431346   1.830   6.033   1.322 -0.2668  0.3115 -0.3006
 7894SOL     OW31347   2.092   5.224   4.064  0.5730  0.1985 -0.3120
 7894SOL    HW231348   2.075   5.238   4.158  0.5414  0.7945 -0.4067
 7894SOL    HW331349   2.161   5.158   4.062  0.1964 -0.2189  0.1239
 7894SOL    MW431350   2.099   5.217   4.076  0.5191  0.2221 -0.2670
 7895SOL     OW31351   1.013   5.028   1.809 -0.0226 -0.0579 -0.6927
 7895SOL    HW231352   0.958   5.042   1.886  1.6278 -2.8934  1.1922
 7895SOL    HW331353   0.964   4.967   1.754  0.2109 -0.7052 -0.1890
 7895SOL    MW431354   1.000   5.022   1.812  0.2260 -0.5174 -0.3776
 7896SOL     OW31355   1.005   5.270   4.384  0.5669 -0.0683 -0.1178
 7896SOL    HW231356   0.954   5.245   4.307  0.7560 -0.4927 -0.1075
 7896SOL    HW331357   0.940   5.287   4.452  0.4580 -2.7962  0.5804
 7896SOL    MW431358   0.990   5.269   4.382  0.5775 -0.4842 -0.0244
 7897SOL     OW31359   2.416   1.205   4.520  0.1779 -0.0530  0.3890
 7897SOL    HW231360   2.324   1.191   4.543 -0.1672  2.2360  0.6236
 7897SOL    HW331361   2.418   1.292   4.480  1.6935 -1.5001 -3.0189
 7897SOL    MW431362   2.404   1.215   4.518  0.3323  0.0581 -0.0297
 7898SOL     OW31363   1.296   0.228   0.570 -0.0331  0.8914 -0.0496
 7898SOL    HW231364   1.326   0.160   0.510 -2.0246 -0.8528  0.7907
 7898SOL    HW331365   1.359   0.226   0.642  0.7559  0.9948 -0.7251
 7898SOL    MW431366   1.309   0.219   0.571 -0.1918  0.6749 -0.0279
 7899SOL     OW31367   0.132   5.107   5.495 -0.5786  0.0346 -0.0711
 7899SOL    HW231368   0.191   5.100   5.420 -0.6596 -0.3074 -0.1063
 7899SOL    HW331369   0.182   5.154   5.561 -0.1300 -0.5791  0.0333
 7899SOL    MW431370   0.146   5.112   5.494 -0.5301 -0.0915 -0.0619
 7900SOL     OW31371   4.596   2.355   1.382  0.1767 -0.0326  0.0184
 7900SOL    HW231372   4.638   2.412   1.318  0.2752 -1.0902 -0.8911
 7900SOL    HW331373   4.544   2.294   1.330 -3.1572  1.6326  1.1068
 7900SOL    MW431374   4.595   2.354   1.367 -0.2502  0.0475  0.0420
 7901SOL     OW31375   4.671   0.431   0.030  0.8543  0.1303 -0.2919
 7901SOL    HW231376   4.630   0.348   0.009 -0.6541  1.1334 -1.5770
 7901SOL    HW331377   4.728   0.450  -0.045  3.8598 -1.2414  1.4597
 7901SOL    MW431378   4.673   0.423   0.018  1.0518  0.0817 -0.2304
 7902SOL     OW31379   6.299   5.776   1.790 -0.5250 -0.2635  0.6724
 7902SOL    HW231380   6.371   5.740   1.737 -0.7712  0.4068 -0.1292
 7902SOL    HW331381   6.226   5.716   1.775 -0.0235 -1.2433  1.8904
 7902SOL    MW431382   6.299   5.763   1.781 -0.4913 -0.3044  0.7274
 7903SOL     OW31383   3.411   6.140   3.722 -0.7821 -0.1083  0.1691
 7903SOL    HW231384   3.457   6.195   3.785 -2.4058  2.0168 -0.4228
 7903SOL    HW331385   3.428   6.180   3.637 -3.1833  0.4191 -0.1335
 7903SOL    MW431386   3.420   6.152   3.719 -1.3131  0.2416  0.0511
 7904SOL     OW31387   3.978   3.743   6.377  0.1894  0.1025  0.6333
 7904SOL    HW231388   3.975   3.838   6.378  0.8948  0.2113 -1.7763
 7904SOL    HW331389   3.896   3.716   6.335  0.4817 -0.2859  0.2965
 7904SOL    MW431390   3.967   3.752   6.372  0.3210  0.0656  0.2710
 7905SOL     OW31391   5.390   4.265   2.720 -0.4100  0.1896 -0.3878
 7905SOL    HW231392   5.465   4.320   2.743  2.0132 -2.9766  0.0210
 7905SOL    HW331393   5.388   4.268   2.624  1.1140 -0.6096 -0.4866
 7905SOL    MW431394   5.400   4.273   2.710  0.1108 -0.3336 -0.3469
 7906SOL     OW31395   1.454   3.386   1.624  0.0727  0.0069 -0.2327
 7906SOL    HW231396   1.392   3.458   1.617  1.0522  0.9567  0.5321
 7906SOL    HW331397   1.539   3.425   1.605  0.5926 -1.0101 -0.0924
 7906SOL    MW431398   1.457   3.401   1.621  0.2705 -0.0019 -0.1133
 7907SOL     OW31399   1.522   0.540   3.695 -0.1961  0.1441 -0.3524
 7907SOL    HW231400   1.601   0.520   3.644  1.1397 -0.4076  1.7706
 7907SOL    HW331401   1.456   0.479   3.663  1.0201 -1.1618 -0.4680
 7907SOL    MW431402   1.524   0.529   3.684  0.1406 -0.1010 -0.0876
 7908SOL     OW31403   1.745   6.129   4.014  0.5908  0.2262  0.7683
 7908SOL    HW231404   1.713   6.219   4.007  1.5827  0.5029 -4.3299
 7908SOL    HW331405   1.665   6.076   4.018 -0.2445  1.2607 -0.8550
 7908SOL    MW431406   1.730   6.134   4.014  0.6115  0.3992 -0.1185
 7909SOL     OW31407   2.156   5.767   5.028  0.2244 -0.0841 -0.0994
 7909SOL    HW231408   2.243   5.780   5.067  0.5643  0.0951 -0.8961
 7909SOL    HW331409   2.100   5.741   5.102  0.6605  1.0348  0.6458
 7909SOL    MW431410   2.160   5.765   5.043  0.3268  0.0872 -0.1062
 7910SOL     OW31411   4.530   1.552   1.829  0.2560 -0.4351 -0.0709
 7910SOL    HW231412   4.587   1.500   1.773  1.8077  0.5286  0.5353
 7910SOL    HW331413   4.499   1.623   1.773 -0.2133 -0.8602 -0.3553
 7910SOL    MW431414   4.534   1.555   1.815  0.3988 -0.3640 -0.0284
 7911SOL     OW31415   1.750   4.377   2.136 -0.7554 -0.1216  0.0633
 7911SOL    HW231416   1.740   4.300   2.193 -0.9148  0.3243  0.6438
 7911SOL    HW331417   1.677   4.433   2.158  0.2085  0.9059  0.7698
 7911SOL    MW431418   1.739   4.374   2.147 -0.6492  0.0728  0.2331
 7912SOL     OW31419   0.459   3.413   1.032 -0.0684 -0.3515  0.7420
 7912SOL    HW231420   0.507   3.477   0.980 -0.3251 -1.1511 -0.5092
 7912SOL    HW331421   0.523   3.345   1.050 -0.0570 -0.2108  1.2595
 7912SOL    MW431422   0.474   3.413   1.028 -0.1008 -0.4384  0.6452
 7913SOL     OW31423   1.919   4.103   5.976 -0.2285 -0.3913 -0.3927
 7913SOL    HW231424   1.941   4.044   5.904  1.0494  0.9941 -1.1734
 7913SOL    HW331425   1.868   4.173   5.936 -2.0188 -1.0576  0.5877
 7913SOL    MW431426   1.915   4.104   5.961 -0.2961 -0.2964 -0.3663
 7914SOL     OW31427   1.299   2.699   2.280  0.2177  0.0513 -0.4996
 7914SOL    HW231428   1.328   2.649   2.356 -1.2006 -0.5326 -0.3158
 7914SOL    HW331429   1.257   2.777   2.317 -0.6835 -0.3457 -0.6483
 7914SOL    MW431430   1.297   2.703   2.295 -0.0883 -0.0782 -0.4949
 7915SOL     OW31431   2.140   1.579   4.496  0.3416  0.4075 -0.7511
 7915SOL    HW231432   2.134   1.653   4.436  1.0130  0.5146 -0.6962
 7915SOL    HW331433   2.224   1.538   4.474  0.0238 -0.2786 -0.7135
 7915SOL    MW431434   2.151   1.583   4.485  0.3883  0.3311 -0.7389
 7916SOL     OW31435   1.386   6.063   1.113  0.1945 -0.5139  0.5103
 7916SOL    HW231436   1.469   6.086   1.154 -0.7000  1.1679  1.4694
 7916SOL    HW331437   1.346   5.999   1.172  0.3675 -0.5897  0.5459
 7916SOL    MW431438   1.391   6.057   1.126  0.0993 -0.3020  0.6416
 7917SOL     OW31439   2.871   1.329   3.803  0.1990 -0.0841  0.8229
 7917SOL    HW231440   2.962   1.328   3.774 -0.0121 -0.5374  0.1656
 7917SOL    HW331441   2.851   1.422   3.818  0.7768  0.0126  1.0181
 7917SOL    MW431442   2.880   1.341   3.801  0.2473 -0.1311  0.7619
 7918SOL     OW31443   0.339   2.732   2.191  0.2641 -0.2999  0.1473
 7918SOL    HW231444   0.309   2.799   2.129 -0.9130 -0.8311  0.1160
 7918SOL    HW331445   0.316   2.767   2.277  0.0156 -0.4810  0.1551
 7918SOL    MW431446   0.332   2.746   2.194  0.0760 -0.3939  0.1442
 7919SOL     OW31447   2.872   3.612   3.640 -0.2572 -0.0186  0.0694
 7919SOL    HW231448   2.799   3.568   3.598 -0.1904 -1.8250  1.6968
 7919SOL    HW331449   2.944   3.549   3.637  0.5951  0.8949  0.3975
 7919SOL    MW431450   2.872   3.598   3.634 -0.1360 -0.1365  0.3274
 7920SOL     OW31451   0.764   2.021   1.308  0.0878  0.1875  0.1036
 7920SOL    HW231452   0.794   1.970   1.233 -0.6789  0.5114 -0.4293
 7920SOL    HW331453   0.842   2.069   1.337  0.5600 -0.4751 -0.0282
 7920SOL    MW431454   0.778   2.020   1.302  0.0489  0.1428  0.0159
 7921SOL     OW31455   2.654   6.075   4.316  0.0435 -0.1070  0.3044
 7921SOL    HW231456   2.599   6.013   4.364  0.0324 -0.8221 -0.6112
 7921SOL    HW331457   2.616   6.079   4.229  0.5831  0.5123  0.0838
 7921SOL    MW431458   2.642   6.068   4.311  0.1132 -0.1196  0.1545
 7922SOL     OW31459   5.689   3.655   4.537 -0.2212 -0.3708 -0.2777
 7922SOL    HW231460   5.625   3.665   4.607 -1.4788  1.6312 -1.6030
 7922SOL    HW331461   5.760   3.606   4.577 -2.1123 -1.8002  1.5562
 7922SOL    MW431462   5.690   3.650   4.552 -0.6366 -0.2953 -0.2106
 7923SOL     OW31463   4.126   0.307   4.623 -0.2178 -0.3186 -0.0437
 7923SOL    HW231464   4.176   0.237   4.665  0.0281  0.3895  0.8838
 7923SOL    HW331465   4.191   0.355   4.572 -0.4421 -0.9344 -0.9245
 7923SOL    MW431466   4.142   0.304   4.622 -0.2150 -0.3065 -0.0375
 7924SOL     OW31467   2.125   3.095   2.523  0.2987  0.3056  0.3783
 7924SOL    HW231468   2.214   3.089   2.488 -0.0129  2.1030 -0.8935
 7924SOL    HW331469   2.106   3.007   2.554  2.2445 -0.3117  0.0016
 7924SOL    MW431470   2.134   3.083   2.522  0.5143  0.4613  0.1608
 7925SOL     OW31471   4.476   0.393   2.178  0.0990  0.2364 -0.0680
 7925SOL    HW231472   4.442   0.456   2.114 -2.6800 -0.9786  0.0765
 7925SOL    HW331473   4.487   0.312   2.128  0.3345 -0.0794  0.4929
 7925SOL    MW431474   4.473   0.391   2.163 -0.2366  0.0344  0.0250
 7926SOL     OW31475   2.951   5.517   4.077 -0.7199 -0.5329  0.0291
 7926SOL    HW231476   2.892   5.545   4.147  0.6906  0.0959  1.0105
 7926SOL    HW331477   2.979   5.599   4.035 -1.5121 -0.8994 -1.2703
 7926SOL    MW431478   2.947   5.532   4.081 -0.6383 -0.4983 -0.0128
 7927SOL     OW31479   5.812   5.522   4.988  0.0675 -0.0701 -0.0268
 7927SOL    HW231480   5.866   5.587   5.034 -0.3352  0.6181 -0.4949
 7927SOL    HW331481   5.799   5.561   4.901  1.3159 -1.5971 -0.9570
 7927SOL    MW431482   5.818   5.536   4.982  0.1791 -0.1808 -0.2113
 7928SOL     OW31483   2.132   2.013   2.552  0.4538 -0.3130  0.3756
 7928SOL    HW231484   2.176   1.969   2.625 -1.5157 -1.5980  0.8510
 7928SOL    HW331485   2.041   1.984   2.557 -0.2839  1.5084 -1.1278
 7928SOL    MW431486   2.126   2.004   2.562  0.0966 -0.2422  0.2400
 7929SOL     OW31487   5.567   5.977   0.182  0.2557 -0.8935 -0.2973
 7929SOL    HW231488   5.657   5.945   0.186  0.0529 -1.3525  2.4401
 7929SOL    HW331489   5.574   6.069   0.208  0.0291 -0.6454 -1.0965
 7929SOL    MW431490   5.580   5.985   0.186  0.1990 -0.9213 -0.0416
 7930SOL     OW31491   5.120   5.331   6.373  0.0417 -0.4686  0.4757
 7930SOL    HW231492   5.104   5.321   6.467 -0.5067  1.8402  0.6782
 7930SOL    HW331493   5.045   5.288   6.331 -1.5412  1.4265  1.2165
 7930SOL    MW431494   5.108   5.324   6.380 -0.2395  0.0861  0.6001
 7931SOL     OW31495   5.053   6.394   0.830 -0.2165  0.6521  0.4654
 7931SOL    HW231496   5.140   6.420   0.797 -1.1620  1.4352 -1.6127
 7931SOL    HW331497   4.993   6.458   0.790 -2.2169 -2.2390 -1.5508
 7931SOL    MW431498   5.057   6.406   0.820 -0.6052  0.3740 -0.0747
 7932SOL     OW31499   2.204   4.900   4.952 -0.3709  0.4962  0.2862
 7932SOL    HW231500   2.251   4.832   4.903 -1.0538  0.6837 -0.6520
 7932SOL    HW331501   2.225   4.882   5.044  0.4373 -0.2387 -0.0332
 7932SOL    MW431502   2.213   4.888   4.958 -0.3544  0.4240  0.1203
 7933SOL     OW31503   2.848   0.288   0.741  0.3521 -0.5634  0.4331
 7933SOL    HW231504   2.781   0.342   0.782  2.1013 -0.6561  3.7198
 7933SOL    HW331505   2.822   0.198   0.761  0.9454 -0.6299  0.9525
 7933SOL    MW431506   2.836   0.283   0.749  0.6611 -0.5844  0.9352
 7934SOL     OW31507   3.771   6.333   2.924 -0.1177 -0.7084  0.8650
 7934SOL    HW231508   3.705   6.360   2.988  0.7076 -0.8928  1.8219
 7934SOL    HW331509   3.848   6.314   2.977  0.5706 -0.9113 -0.1973
 7934SOL    MW431510   3.772   6.334   2.940  0.0820 -0.7595  0.8511
 7935SOL     OW31511   4.303   3.136   6.353 -0.0673 -0.4098  0.1887
 7935SOL    HW231512   4.372   3.087   6.397 -2.8269 -3.8633  1.2142
 7935SOL    HW331513   4.254   3.178   6.423 -0.3252  0.1334 -0.3034
 7935SOL    MW431514   4.305   3.135   6.368 -0.4654 -0.7938  0.2591
 7936SOL     OW31515   3.981   5.715   5.783 -0.0872  0.0083 -0.0727
 7936SOL    HW231516   3.888   5.720   5.763  0.1707  1.4589 -1.0808
 7936SOL    HW331517   4.009   5.806   5.792  1.2637 -0.3970  0.0615
 7936SOL    MW431518   3.973   5.728   5.781  0.1251  0.1462 -0.1880
 7937SOL     OW31519   3.095   2.165   1.471 -0.0262  0.3274 -0.4247
 7937SOL    HW231520   3.106   2.231   1.401 -0.1240 -0.5401 -1.2802
 7937SOL    HW331521   3.033   2.102   1.435 -0.2635 -0.0151  0.5540
 7937SOL    MW431522   3.089   2.166   1.457 -0.0704  0.1677 -0.4084
 7938SOL     OW31523   2.080   2.360   4.754 -0.5592 -0.8222 -0.0584
 7938SOL    HW231524   2.119   2.445   4.776 -2.5121 -0.3575  2.0104
 7938SOL    HW331525   2.141   2.295   4.788  0.4930 -0.2634 -0.8101
 7938SOL    MW431526   2.093   2.363   4.761 -0.6780 -0.6872  0.1154
 7939SOL     OW31527   6.072   2.956   5.560  0.2482  0.3172 -0.5143
 7939SOL    HW231528   6.117   2.978   5.641 -1.2968  2.0487 -0.0664
 7939SOL    HW331529   6.129   2.891   5.518  0.9666 -0.8469  2.0479
 7939SOL    MW431530   6.085   2.950   5.565  0.1391  0.3921 -0.1172
 7940SOL     OW31531   0.057   5.845   2.310 -0.5027  0.4631  0.0174
 7940SOL    HW231532   0.078   5.938   2.297 -0.1873  0.5823  1.2537
 7940SOL    HW331533   0.122   5.815   2.374 -1.1667 -0.3831  0.3105
 7940SOL    MW431534   0.069   5.853   2.316 -0.5487  0.3672  0.2192
 7941SOL     OW31535   6.157   1.823   1.144 -0.1830 -0.3030 -0.2972
 7941SOL    HW231536   6.074   1.848   1.103  0.3768  1.6932 -0.3344
 7941SOL    HW331537   6.201   1.769   1.078 -0.2762  0.9611 -1.4377
 7941SOL    MW431538   6.152   1.819   1.129 -0.1215  0.1272 -0.4526
 7942SOL     OW31539   2.559   4.042   1.147  0.0170  0.1776 -0.2135
 7942SOL    HW231540   2.643   4.076   1.178 -0.5669 -0.2034  1.9823
 7942SOL    HW331541   2.574   3.949   1.132  0.0424  0.1419  0.0253
 7942SOL    MW431542   2.572   4.035   1.149 -0.0567  0.1226  0.1078
 7943SOL     OW31543   0.510   2.528   5.887 -0.3738  0.4375 -0.0236
 7943SOL    HW231544   0.568   2.520   5.963 -0.5661  0.6736  0.1502
 7943SOL    HW331545   0.529   2.614   5.851  0.5899 -0.1565 -0.9754
 7943SOL    MW431546   0.520   2.538   5.892 -0.2720  0.3902 -0.1262
 7944SOL     OW31547   1.355   2.424   1.680  0.9500  0.3876  0.3304
 7944SOL    HW231548   1.374   2.403   1.772  1.0849  0.7054  0.3766
 7944SOL    HW331549   1.419   2.373   1.630  0.0967 -0.7419  0.3464
 7944SOL    MW431550   1.366   2.415   1.686  0.8552  0.2805  0.3386
 7945SOL     OW31551   4.815   0.039   3.952 -0.0612  0.2655  0.3495
 7945SOL    HW231552   4.879   0.078   4.012 -0.4082 -1.5703  2.0096
 7945SOL    HW331553   4.839   0.074   3.866  2.3273  0.6948  1.1134
 7945SOL    MW431554   4.827   0.049   3.948  0.2081  0.0800  0.6693
 7946SOL     OW31555   1.546   6.388   2.471 -0.3765 -0.4209 -0.7326
 7946SOL    HW231556   1.611   6.374   2.402  1.4104 -1.3827  1.0395
 7946SOL    HW331557   1.485   6.453   2.435  1.1606 -0.0171 -2.7437
 7946SOL    MW431558   1.547   6.395   2.457  0.0620 -0.4946 -0.7641
 7947SOL     OW31559   3.550   1.702   4.552 -0.1284  0.3646  0.3256
 7947SOL    HW231560   3.455   1.709   4.540 -0.2360  2.5857  2.0356
 7947SOL    HW331561   3.587   1.766   4.492  0.2079  0.5846  0.7662
 7947SOL    MW431562   3.542   1.711   4.542 -0.0982  0.6867  0.6093
 7948SOL     OW31563   1.471   5.213   1.060  0.2702  0.2125 -0.0875
 7948SOL    HW231564   1.563   5.239   1.066  0.6110 -0.3010 -2.1683
 7948SOL    HW331565   1.423   5.295   1.052  0.8550  0.4366 -1.7410
 7948SOL    MW431566   1.477   5.227   1.060  0.3924  0.1743 -0.5802
 7949SOL     OW31567   3.865   0.375   6.263 -0.2722 -0.2383 -0.1906
 7949SOL    HW231568   3.813   0.452   6.285 -0.1585  0.4427 -2.0896
 7949SOL    HW331569   3.818   0.334   6.190  1.0937 -0.3983 -1.0246
 7949SOL    MW431570   3.852   0.380   6.256 -0.0770 -0.1696 -0.5512
 7950SOL     OW31571   3.717   0.276   0.475  0.1732  0.0963 -0.1184
 7950SOL    HW231572   3.739   0.191   0.438 -0.6043 -0.3762  0.4996
 7950SOL    HW331573   3.803   0.317   0.492  0.5545 -0.6543 -0.1926
 7950SOL    MW431574   3.731   0.270   0.472  0.1209 -0.0650 -0.0466
 7951SOL     OW31575   3.903   2.986   0.031  0.8684 -0.6406 -0.1764
 7951SOL    HW231576   3.865   2.969   0.117  0.7210  2.8415  0.6205
 7951SOL    HW331577   3.983   2.934   0.029 -0.9159 -3.6192  0.4980
 7951SOL    MW431578   3.909   2.977   0.042  0.6135 -0.5742  0.0177
 7952SOL     OW31579   0.039   0.876   3.726 -0.0068 -0.1094 -0.3128
 7952SOL    HW231580   0.023   0.789   3.762  0.1160  0.0596  0.1533
 7952SOL    HW331581   0.122   0.868   3.679  1.2624  0.3541  1.7607
 7952SOL    MW431582   0.048   0.864   3.724  0.1768 -0.0259  0.0223
 7953SOL     OW31583   3.926   3.141   4.388  0.0895 -0.2121 -0.1858
 7953SOL    HW231584   3.986   3.162   4.317 -0.4873  0.3171 -0.5239
 7953SOL    HW331585   3.867   3.216   4.393 -1.0029 -1.0399 -0.3561
 7953SOL    MW431586   3.926   3.153   4.379 -0.1307 -0.2515 -0.2529
 7954SOL     OW31587   1.308   4.287   3.761 -0.0663  0.0849  0.2674
 7954SOL    HW231588   1.318   4.252   3.673  0.1890 -0.5481  0.5396
 7954SOL    HW331589   1.331   4.380   3.754 -2.2816  0.6167 -0.7849
 7954SOL    MW431590   1.313   4.295   3.749 -0.3249  0.0716  0.1645
 7955SOL     OW31591   1.088   1.807   2.191 -0.5671 -0.0108  0.3254
 7955SOL    HW231592   1.037   1.770   2.119  0.4740 -1.6907  0.4005
 7955SOL    HW331593   1.148   1.737   2.216 -0.0599  0.9761  2.0150
 7955SOL    MW431594   1.089   1.793   2.185 -0.3628 -0.1022  0.5582
 7956SOL     OW31595   4.249   2.097   3.674 -0.0604 -0.9726 -0.2836
 7956SOL    HW231596   4.344   2.087   3.684  0.5118  2.2169 -1.4096
 7956SOL    HW331597   4.235   2.191   3.664 -3.4027 -1.3097  0.0311
 7956SOL    MW431598   4.260   2.108   3.674 -0.4259 -0.5963 -0.3907
 7957SOL     OW31599   2.312   0.752   0.525 -0.5168  0.1982  0.2162
 7957SOL    HW231600   2.234   0.795   0.490 -1.2358  0.2211  1.7752
 7957SOL    HW331601   2.379   0.767   0.458 -2.3051 -1.5768 -2.1434
 7957SOL    MW431602   2.310   0.760   0.512 -0.8476 -0.0330  0.1105
 7958SOL     OW31603   3.149   2.431   0.800 -0.5057 -0.1887  0.2613
 7958SOL    HW231604   3.171   2.397   0.713 -0.8303  0.7703 -0.2039
 7958SOL    HW331605   3.231   2.465   0.834 -0.4695 -0.1595  0.1446
 7958SOL    MW431606   3.163   2.431   0.793 -0.5437 -0.0583  0.1845
 7959SOL     OW31607   1.286   1.515   3.003 -0.5301  0.0920  0.0251
 7959SOL    HW231608   1.275   1.505   3.097 -0.5131  1.5740  0.2084
 7959SOL    HW331609   1.369   1.561   2.993  0.1039 -1.1482 -0.8021
 7959SOL    MW431610   1.295   1.520   3.014 -0.4442  0.1239 -0.0598
 7960SOL     OW31611   0.357   3.956   5.333  0.3769  0.8784  0.2617
 7960SOL    HW231612   0.263   3.973   5.330  0.4185  1.0298 -0.4227
 7960SOL    HW331613   0.397   4.040   5.355  0.3846  0.9401  0.0144
 7960SOL    MW431614   0.350   3.969   5.335  0.3834  0.9065  0.1388
 7961SOL     OW31615   4.232   3.947   4.849  0.3443  0.1286 -0.0305
 7961SOL    HW231616   4.170   3.889   4.892 -0.0813  1.4749  1.2597
 7961SOL    HW331617   4.316   3.929   4.892 -0.1463  1.7155  1.7033
 7961SOL    MW431618   4.235   3.937   4.861  0.2235  0.5156  0.3685
 7962SOL     OW31619   2.587   0.264   5.951 -0.2363 -0.1692 -0.4779
 7962SOL    HW231620   2.559   0.354   5.931  0.7213  0.5602  1.2706
 7962SOL    HW331621   2.679   0.261   5.925  0.6307  0.3670  2.1985
 7962SOL    MW431622   2.595   0.275   5.945  0.0044 -0.0022  0.1059
 7963SOL     OW31623   2.860   5.051   1.325  0.0345 -0.2170 -0.1606
 7963SOL    HW231624   2.943   5.097   1.334 -0.4687  0.7939 -0.5100
 7963SOL    HW331625   2.854   5.030   1.232  0.5981 -1.6779  0.1070
 7963SOL    MW431626   2.870   5.055   1.314  0.0425 -0.2764 -0.1714
 7964SOL     OW31627   1.038   4.351   2.872  0.8670  0.0201 -0.2325
 7964SOL    HW231628   1.001   4.428   2.915  0.1451 -0.9867  0.9909
 7964SOL    HW331629   1.086   4.387   2.797  0.1179  1.6105  0.0086
 7964SOL    MW431630   1.040   4.366   2.867  0.6729  0.0971 -0.0392
 7965SOL     OW31631   0.875   1.187   5.242  0.5140  0.0259  0.2987
 7965SOL    HW231632   0.956   1.170   5.290  1.2828 -0.2800 -1.0409
 7965SOL    HW331633   0.845   1.101   5.214 -0.3510  0.1304  0.8717
 7965SOL    MW431634   0.882   1.174   5.245  0.5013 -0.0007  0.1976
 7966SOL     OW31635   3.264   3.811   5.415 -0.5392  0.2064 -0.6304
 7966SOL    HW231636   3.311   3.794   5.333 -0.8034  0.3829 -0.8198
 7966SOL    HW331637   3.214   3.891   5.398  0.8559  1.3130  0.3191
 7966SOL    MW431638   3.263   3.819   5.402 -0.3900  0.3757 -0.5301
 7967SOL     OW31639   4.891   3.062   5.923  0.0510  0.6672  0.3606
 7967SOL    HW231640   4.804   3.084   5.957  0.9500  1.3900  2.3109
 7967SOL    HW331641   4.907   3.125   5.853 -0.3425  1.5930  1.0902
 7967SOL    MW431642   4.882   3.073   5.918  0.1177  0.8847  0.7142
 7968SOL     OW31643   4.567   5.190   3.103 -0.2132  0.6128  0.3516
 7968SOL    HW231644   4.497   5.129   3.079 -0.6484  1.0626  0.4735
 7968SOL    HW331645   4.645   5.135   3.108 -0.3151  0.3040 -1.0071
 7968SOL    MW431646   4.568   5.175   3.100 -0.2841  0.6314  0.1884
 7969SOL     OW31647   5.693   4.845   4.105 -0.2420 -0.0457 -0.4250
 7969SOL    HW231648   5.732   4.764   4.072  1.3610 -0.0944  1.4196
 7969SOL    HW331649   5.762   4.911   4.095 -0.5715  0.4704  0.5734
 7969SOL    MW431650   5.707   4.843   4.099 -0.0740  0.0160 -0.0499
 7970SOL     OW31651   5.579   4.739   2.468  0.3816 -0.3515 -0.2537
 7970SOL    HW231652   5.641   4.799   2.427 -1.6983  0.9883 -1.6277
 7970SOL    HW331653   5.557   4.676   2.400 -1.4357  0.5668 -0.5833
 7970SOL    MW431654   5.584   4.738   2.454 -0.1326 -0.0536 -0.4785
 7971SOL     OW31655   4.810   1.274   2.015  0.6832 -0.6353 -0.1513
 7971SOL    HW231656   4.861   1.249   2.093  1.2144 -0.1758 -0.3406
 7971SOL    HW331657   4.727   1.306   2.050  0.3386 -1.8133  0.1373
 7971SOL    MW431658   4.806   1.275   2.030  0.7078 -0.7301 -0.1382
 7972SOL     OW31659   5.785   2.349   2.637 -0.2730 -0.3060 -0.0228
 7972SOL    HW231660   5.863   2.322   2.684  0.1726  0.0441 -0.5521
 7972SOL    HW331661   5.809   2.343   2.545 -1.8944 -3.4518 -0.3968
 7972SOL    MW431662   5.798   2.345   2.631 -0.4281 -0.6748 -0.1420
 7973SOL     OW31663   4.380   2.977   4.885 -0.1863 -0.2610 -0.4566
 7973SOL    HW231664   4.382   3.070   4.862  0.5631 -0.5980 -1.8698
 7973SOL    HW331665   4.347   2.975   4.975 -0.7966  1.3201 -0.6207
 7973SOL    MW431666   4.376   2.989   4.894 -0.1680 -0.0969 -0.6647
 7974SOL     OW31667   2.744   3.116   5.144 -0.4779  0.5045 -0.0487
 7974SOL    HW231668   2.743   3.177   5.071 -0.2162  0.5480 -0.0175
 7974SOL    HW331669   2.837   3.101   5.161 -0.5418 -0.4262 -0.4902
 7974SOL    MW431670   2.756   3.122   5.137 -0.4518  0.3874 -0.1028
 7975SOL     OW31671   1.678   5.770   2.350  0.1210  0.2257 -0.1387
 7975SOL    HW231672   1.619   5.741   2.419 -0.2785  0.6792 -0.2874
 7975SOL    HW331673   1.760   5.789   2.395 -0.0667  0.2934  0.1740
 7975SOL    MW431674   1.681   5.768   2.365  0.0435  0.2945 -0.1171
 7976SOL     OW31675   2.640   3.107   3.691 -0.2025 -0.3568 -0.0270
 7976SOL    HW231676   2.727   3.113   3.732 -0.2209  0.5816 -0.1081
 7976SOL    HW331677   2.587   3.060   3.754 -0.6656  2.4322  1.8108
 7976SOL    MW431678   2.645   3.102   3.704 -0.2660  0.1350  0.2048
 7977SOL     OW31679   2.850   2.498   2.066 -0.2258  0.0261  0.3876
 7977SOL    HW231680   2.898   2.434   2.119  0.5058 -0.7750 -1.1557
 7977SOL    HW331681   2.897   2.580   2.079  0.6811 -0.4252  0.0888
 7977SOL    MW431682   2.863   2.500   2.075 -0.0096 -0.1391  0.1446
 7978SOL     OW31683   2.163   3.969   5.198  0.5006  0.3290 -0.4410
 7978SOL    HW231684   2.078   4.013   5.209  0.5589  0.1695  0.7442
 7978SOL    HW331685   2.161   3.935   5.108 -0.1390  1.4772 -0.8903
 7978SOL    MW431686   2.151   3.970   5.187  0.4239  0.4595 -0.3439
 7979SOL     OW31687   4.486   2.438   4.204 -0.2791 -0.3398  0.3030
 7979SOL    HW231688   4.526   2.518   4.238  0.3311  0.3014 -1.7648
 7979SOL    HW331689   4.391   2.453   4.214 -0.1437 -0.3563  1.9580
 7979SOL    MW431690   4.478   2.451   4.210 -0.1807 -0.2573  0.2485
 7980SOL     OW31691   3.884   1.472   0.514  0.0823  0.6505 -0.4654
 7980SOL    HW231692   3.892   1.431   0.428  0.7421 -1.6509  0.6018
 7980SOL    HW331693   3.957   1.533   0.519  0.8827 -0.2321 -1.0290
 7980SOL    MW431694   3.895   1.474   0.504  0.2749  0.2304 -0.3990
 7981SOL     OW31695   3.934   3.817   2.233  0.2540 -0.5121 -0.1121
 7981SOL    HW231696   3.933   3.892   2.173  0.3103 -1.0242 -0.7701
 7981SOL    HW331697   3.864   3.836   2.296 -0.7517 -0.6111 -1.1712
 7981SOL    MW431698   3.924   3.829   2.233  0.1287 -0.5927 -0.3387
 7982SOL     OW31699   3.248   2.919   0.357  0.5837 -0.4254 -0.2932
 7982SOL    HW231700   3.269   2.856   0.425 -0.0749 -1.1819 -0.7755
 7982SOL    HW331701   3.307   2.899   0.285  0.0988 -0.7695 -0.6033
 7982SOL    MW431702   3.258   2.908   0.356  0.4329 -0.5706 -0.3978
 7983SOL     OW31703   2.768   1.340   6.210  0.3295  0.5106  0.6526
 7983SOL    HW231704   2.765   1.398   6.134 -0.9308 -0.4284 -0.0547
 7983SOL    HW331705   2.759   1.252   6.173  2.3132 -0.1859  1.6836
 7983SOL    MW431706   2.767   1.336   6.195  0.4250  0.2948  0.6953
 7984SOL     OW31707   4.847   1.474   4.601  0.0967 -0.1143 -0.2919
 7984SOL    HW231708   4.893   1.419   4.537  2.4290 -0.0379  1.2007
 7984SOL    HW331709   4.913   1.537   4.631 -1.1382  0.3740  1.5879
 7984SOL    MW431710   4.862   1.475   4.597  0.2415 -0.0398  0.1531
 7985SOL     OW31711   1.156   0.919   2.916 -0.1442  0.6853 -0.8980
 7985SOL    HW231712   1.093   0.866   2.966  1.6817 -0.0204  0.7945
 7985SOL    HW331713   1.154   0.882   2.828 -0.2549 -1.0462 -0.2136
 7985SOL    MW431714   1.148   0.907   2.911  0.0821  0.3638 -0.5844
 7986SOL     OW31715   5.852   0.441   1.838 -0.2289  0.5829 -0.2480
 7986SOL    HW231716   5.924   0.427   1.899 -3.0335 -0.9466  3.1418
 7986SOL    HW331717   5.860   0.369   1.775  0.8059 -0.0410  0.5580
 7986SOL    MW431718   5.862   0.429   1.838 -0.4624  0.2988  0.3056
 7987SOL     OW31719   6.071   1.645   3.156 -0.0999 -0.2485  0.3067
 7987SOL    HW231720   5.983   1.668   3.184  0.0323  2.5664 -1.1598
 7987SOL    HW331721   6.075   1.672   3.064  2.5221  0.6630  0.5824
 7987SOL    MW431722   6.060   1.652   3.148  0.2635  0.2431  0.1496
 7988SOL     OW31723   2.200   1.118   0.098  0.1014  0.5238 -0.2190
 7988SOL    HW231724   2.206   1.050   0.031  0.2935  0.3395 -0.0143
 7988SOL    HW331725   2.257   1.088   0.168 -0.4139  0.5199  0.2050
 7988SOL    MW431726   2.208   1.105   0.098  0.0588  0.4990 -0.1361
 7989SOL     OW31727   2.967   6.369   0.158 -0.4108 -0.1477  0.0776
 7989SOL    HW231728   3.054   6.408   0.156 -1.1020  1.6252  1.3713
 7989SOL    HW331729   2.968   6.303   0.089  2.1921 -0.7433  0.5764
 7989SOL    MW431730   2.979   6.366   0.149 -0.1585  0.0076  0.3141
 7990SOL     OW31731   3.530   2.536   2.679 -0.2697 -0.1408 -0.0969
 7990SOL    HW231732   3.587   2.610   2.659  0.4688 -0.0199  2.1885
 7990SOL    HW331733   3.576   2.488   2.747 -0.9363 -2.4988 -1.2140
 7990SOL    MW431734   3.543   2.540   2.685 -0.2602 -0.4359  0.0573
 7991SOL     OW31735   4.825   4.708   0.239 -0.0786 -0.9471  0.5513
 7991SOL    HW231736   4.792   4.785   0.286  0.9588 -0.7630  1.0038
 7991SOL    HW331737   4.826   4.639   0.305 -0.1880 -1.1185  0.3707
 7991SOL    MW431738   4.821   4.709   0.254  0.0439 -0.9454  0.5872
 7992SOL     OW31739   2.923   1.978   2.762 -0.1996 -0.3707 -0.0031
 7992SOL    HW231740   2.894   2.000   2.673  0.6351  0.1716 -0.1570
 7992SOL    HW331741   2.982   1.903   2.749  0.0036 -0.2252  0.0815
 7992SOL    MW431742   2.927   1.971   2.748 -0.0626 -0.2800 -0.0122
 7993SOL     OW31743   0.040   1.090   2.744 -0.3965  0.1838 -0.1796
 7993SOL    HW231744  -0.010   1.149   2.688 -0.5860 -0.4567 -0.6835
 7993SOL    HW331745   0.130   1.097   2.713 -0.0092  1.8184  1.1271
 7993SOL    MW431746   0.045   1.099   2.733 -0.3704  0.3150 -0.0737
 7994SOL     OW31747   0.897   1.881   4.091  0.3154 -0.3973  0.0046
 7994SOL    HW231748   0.980   1.848   4.056  1.0379  0.1695  1.1177
 7994SOL    HW331749   0.848   1.909   4.014  0.3296 -2.5351 -0.8499
 7994SOL    MW431750   0.902   1.880   4.076  0.4126 -0.6046  0.0387
 7995SOL     OW31751   2.699   3.823   1.429  0.3405 -0.1396 -0.2170
 7995SOL    HW231752   2.793   3.837   1.417  0.6753 -1.9365 -0.0980
 7995SOL    HW331753   2.691   3.728   1.441 -1.6233 -0.1645 -1.3705
 7995SOL    MW431754   2.710   3.812   1.429  0.1255 -0.3799 -0.3535
 7996SOL     OW31755   2.063   6.162   3.395 -0.2515  0.6761 -0.0855
 7996SOL    HW231756   2.101   6.244   3.426 -0.3918  0.3806  0.9045
 7996SOL    HW331757   1.972   6.165   3.424  0.2542 -0.7234  1.8457
 7996SOL    MW431758   2.056   6.173   3.403 -0.2033  0.4525  0.3000
 7997SOL     OW31759   0.959   6.136   5.294 -0.2326  0.1071 -0.1890
 7997SOL    HW231760   0.970   6.074   5.367 -1.7134 -0.0408 -0.0704
 7997SOL    HW331761   0.987   6.088   5.217 -1.6338 -0.8427 -0.1372
 7997SOL    MW431762   0.964   6.122   5.294 -0.6129 -0.0378 -0.1665
 7998SOL     OW31763   0.307   6.298   1.996  0.2730  0.5715  0.4540
 7998SOL    HW231764   0.397   6.278   2.021  0.8044  2.0187 -0.1958
 7998SOL    HW331765   0.285   6.231   1.931  0.2906 -0.7506  1.7654
 7998SOL    MW431766   0.316   6.287   1.990  0.3454  0.5880  0.5413
 7999SOL     OW31767   1.091   2.597   3.060  0.2266  0.1348 -0.2810
 7999SOL    HW231768   1.087   2.652   3.139 -0.8132 -1.2879  0.6990
 7999SOL    HW331769   1.120   2.657   2.991  1.8735  1.2868  1.2937
 7999SOL    MW431770   1.094   2.612   3.062  0.3067  0.0991  0.0561
 8000SOL     OW31771   6.035   4.333   4.114  0.4113  0.0678 -0.1204
 8000SOL    HW231772   6.130   4.330   4.117  0.5629  2.5221  2.6917
 8000SOL    HW331773   6.008   4.298   4.199 -1.1979 -0.4582 -0.8112
 8000SOL    MW431774   6.044   4.328   4.126  0.2190  0.3222  0.1595
 8001SOL     OW31775   3.039   4.585   4.418 -0.3701  0.2641 -0.2264
 8001SOL    HW231776   3.008   4.658   4.365 -0.0263 -1.0667 -2.3527
 8001SOL    HW331777   3.133   4.602   4.430 -0.5124  0.7348  0.2995
 8001SOL    MW431778   3.047   4.597   4.413 -0.3435  0.1506 -0.4376
 8002SOL     OW31779   2.518   4.089   4.032 -0.3110  0.0065  0.0386
 8002SOL    HW231780   2.535   4.012   3.979 -1.2657 -0.6854  0.7013
 8002SOL    HW331781   2.515   4.162   3.970 -1.0019 -0.7255 -0.7965
 8002SOL    MW431782   2.520   4.089   4.017 -0.5281 -0.1814  0.0158
 8003SOL     OW31783   5.952   5.212   0.858  0.1845  0.2207  0.4080
 8003SOL    HW231784   5.931   5.142   0.797  0.0104 -0.1380  0.8739
 8003SOL    HW331785   5.872   5.264   0.864  0.8936  1.6537 -1.4631
 8003SOL    MW431786   5.939   5.210   0.851  0.2551  0.3624  0.2226
 8004SOL     OW31787   1.149   3.265   1.280 -0.0007 -0.2999  0.2222
 8004SOL    HW231788   1.121   3.215   1.203  0.0219  0.9843 -0.6513
 8004SOL    HW331789   1.083   3.246   1.346 -0.3725 -0.9214 -0.3141
 8004SOL    MW431790   1.137   3.256   1.278 -0.0468 -0.2124  0.0362
 8005SOL     OW31791   3.898   0.048   4.176 -0.5208 -0.2314 -0.0425
 8005SOL    HW231792   3.972   0.049   4.237 -0.9838 -1.0060  0.5382
 8005SOL    HW331793   3.892   0.139   4.145 -0.7706  0.3579  1.6455
 8005SOL    MW431794   3.907   0.060   4.180 -0.6148 -0.2559  0.2568
 8006SOL     OW31795   3.799   5.155   0.139  0.0255  0.0208  0.0462
 8006SOL    HW231796   3.752   5.198   0.210  0.5710  1.3885 -0.3931
 8006SOL    HW331797   3.876   5.118   0.181  0.1232  0.4476  0.2514
 8006SOL    MW431798   3.803   5.156   0.154  0.1103  0.2575  0.0153
 8007SOL     OW31799   5.454   2.440   4.082  0.6233  0.3017  0.2148
 8007SOL    HW231800   5.449   2.474   4.171  2.5331 -0.3747  0.6269
 8007SOL    HW331801   5.493   2.512   4.031 -1.2203  0.9932 -0.2950
 8007SOL    MW431802   5.458   2.454   4.087  0.6320  0.3037  0.2019
 8008SOL     OW31803   4.296   1.976   1.846  0.2185 -0.6272  0.3785
 8008SOL    HW231804   4.286   2.071   1.853 -0.6029 -0.6247 -0.5257
 8008SOL    HW331805   4.386   1.958   1.875  0.4961  0.4654  0.2125
 8008SOL    MW431806   4.306   1.986   1.851  0.1467 -0.4827  0.2373
 8009SOL     OW31807   2.881   5.009   2.029  0.0850 -0.4474 -0.5314
 8009SOL    HW231808   2.798   4.997   2.074  0.3673 -0.2240  0.0534
 8009SOL    HW331809   2.856   5.049   1.945 -0.4236 -0.6953 -0.5033
 8009SOL    MW431810   2.867   5.013   2.024  0.0552 -0.4506 -0.4505
 8010SOL     OW31811   3.691   5.846   0.836 -0.3186 -0.5374  0.2031
 8010SOL    HW231812   3.624   5.899   0.793 -1.4811 -0.8900  1.5067
 8010SOL    HW331813   3.649   5.761   0.850  0.2466 -0.6340  1.4315
 8010SOL    MW431814   3.676   5.842   0.832 -0.3974 -0.5967  0.5371
 8011SOL     OW31815   1.943   0.056   0.065 -0.0032 -0.2998  0.4605
 8011SOL    HW231816   1.854   0.065   0.030  0.3079 -0.0549 -0.2958
 8011SOL    HW331817   1.997   0.109   0.005  0.4231  0.8712  1.8213
 8011SOL    MW431818   1.939   0.064   0.052  0.0941 -0.1130  0.5402
 8012SOL     OW31819   3.000   2.962   1.147  0.0625  0.5920  0.1350
 8012SOL    HW231820   2.982   3.048   1.185 -0.6887 -0.6344  2.7620
 8012SOL    HW331821   3.000   2.902   1.222  1.3358 -1.6053 -1.5154
 8012SOL    MW431822   2.998   2.965   1.162  0.1314  0.1403  0.2638
 8013SOL     OW31823   2.345   0.950   3.126 -0.1050 -0.2296 -0.1338
 8013SOL    HW231824   2.330   1.044   3.119 -2.1658 -0.2913  2.0477
 8013SOL    HW331825   2.411   0.931   3.059  0.4407  2.7429 -0.5899
 8013SOL    MW431826   2.352   0.960   3.116 -0.3049  0.1544  0.0938
 8014SOL     OW31827   0.680   3.234   1.396  0.3525  0.3080  0.1987
 8014SOL    HW231828   0.723   3.150   1.413 -0.8890 -0.5057 -0.5347
 8014SOL    HW331829   0.623   3.247   1.471 -0.3918 -0.1495 -0.2705
 8014SOL    MW431830   0.678   3.225   1.408  0.0905  0.1403  0.0401
 8015SOL     OW31831   5.677   4.002   5.016  0.7364 -0.8816 -0.0437
 8015SOL    HW231832   5.667   4.067   4.946  0.3423 -0.2017  0.6342
 8015SOL    HW331833   5.686   3.918   4.970  2.0156 -0.2642 -0.9535
 8015SOL    MW431834   5.677   3.999   5.001  0.8532 -0.7105 -0.0743
 8016SOL     OW31835   4.995   2.103   4.582 -0.1340 -0.1549  0.0653
 8016SOL    HW231836   5.056   2.050   4.633  0.2402  0.6874  0.5060
 8016SOL    HW331837   4.929   2.133   4.645  0.2732  0.8039  0.0546
 8016SOL    MW431838   4.994   2.100   4.597 -0.0309  0.0827  0.1220
 8017SOL     OW31839   5.143   2.428   4.880 -0.6972 -0.9767  0.3123
 8017SOL    HW231840   5.067   2.378   4.850 -1.4883 -0.9850  2.1674
 8017SOL    HW331841   5.132   2.434   4.975 -0.1877  1.9251  0.3040
 8017SOL    MW431842   5.131   2.422   4.889 -0.7344 -0.5949  0.5560
 8018SOL     OW31843   0.498   1.744   3.831 -0.3148 -0.6017 -0.6013
 8018SOL    HW231844   0.470   1.662   3.872  1.0809 -0.8250 -0.0370
 8018SOL    HW331845   0.418   1.797   3.827 -1.5050 -2.3923 -2.0748
 8018SOL    MW431846   0.484   1.740   3.836 -0.2877 -0.8674 -0.7213
 8019SOL     OW31847   2.626   6.308   4.616  0.2398 -0.1087 -0.6584
 8019SOL    HW231848   2.611   6.343   4.704  1.4850  1.4237 -0.9965
 8019SOL    HW331849   2.648   6.216   4.629  1.5959  0.3742  0.7859
 8019SOL    MW431850   2.627   6.301   4.629  0.5830  0.1572 -0.5125
 8020SOL     OW31851   6.225   3.496   0.367 -0.3589 -0.2436  0.0586
 8020SOL    HW231852   6.251   3.445   0.290  1.1088  1.7028 -0.8192
 8020SOL    HW331853   6.261   3.447   0.442  0.0492 -1.0595 -0.6528
 8020SOL    MW431854   6.233   3.483   0.367 -0.1114 -0.0944 -0.1511
 8021SOL     OW31855   4.061   0.011   5.580  0.0454 -0.2972  0.1403
 8021SOL    HW231856   4.152  -0.012   5.563 -0.0455 -0.8107  0.3059
 8021SOL    HW331857   4.014  -0.072   5.571 -0.5691  0.1633 -1.0486
 8021SOL    MW431858   4.067  -0.003   5.576 -0.0477 -0.3042  0.0053
 8022SOL     OW31859   1.745   1.715   4.380  0.2211  0.1524 -0.2240
 8022SOL    HW231860   1.664   1.682   4.342  0.6381 -0.6937 -0.3985
 8022SOL    HW331861   1.815   1.675   4.328  0.7564  0.7282  0.0361
 8022SOL    MW431862   1.744   1.705   4.368  0.3467  0.1167 -0.2127
 8023SOL     OW31863   1.293   1.690   1.446 -0.1022 -0.0749  0.3779
 8023SOL    HW231864   1.362   1.756   1.452 -0.2804  0.1742 -0.2395
 8023SOL    HW331865   1.339   1.606   1.446  0.2357  0.1030 -0.5833
 8023SOL    MW431866   1.308   1.688   1.447 -0.0811 -0.0186  0.1696
 8024SOL     OW31867   2.698   5.085   2.437  0.1194 -0.2324 -0.1042
 8024SOL    HW231868   2.687   5.028   2.361 -0.1376 -0.0566 -0.1987
 8024SOL    HW331869   2.638   5.158   2.422 -0.2703 -0.4211  0.4842
 8024SOL    MW431870   2.688   5.087   2.425  0.0341 -0.2341 -0.0390
 8025SOL     OW31871   0.373   3.387   1.337 -0.3479  0.2722  0.4412
 8025SOL    HW231872   0.406   3.409   1.251  1.2691 -2.7180  0.1724
 8025SOL    HW331873   0.280   3.366   1.322 -0.7637  2.2195 -0.0224
 8025SOL    MW431874   0.365   3.387   1.324 -0.1894  0.1346  0.3445
 8026SOL     OW31875   3.878   3.078   6.014 -0.2903 -0.1784 -0.3264
 8026SOL    HW231876   3.964   3.096   6.053  0.1227 -1.9894 -0.3096
 8026SOL    HW331877   3.829   3.035   6.083 -0.5338 -0.8715 -0.9179
 8026SOL    MW431878   3.883   3.075   6.028 -0.2679 -0.5088 -0.4022
 8027SOL     OW31879   1.017   4.106   0.888  0.1674 -0.0388  0.4275
 8027SOL    HW231880   1.053   4.061   0.964  0.6802  0.8839  0.7473
 8027SOL    HW331881   1.084   4.096   0.821 -1.0539 -2.4609 -0.5634
 8027SOL    MW431882   1.030   4.099   0.889  0.0739 -0.2366  0.3390
 8028SOL     OW31883   1.832   5.285   6.066 -0.2599  0.6459 -0.0264
 8028SOL    HW231884   1.845   5.297   5.972  2.2440 -1.9257 -0.1479
 8028SOL    HW331885   1.803   5.194   6.075 -0.3374  0.7942  1.7069
 8028SOL    MW431886   1.830   5.274   6.055  0.0603  0.3262  0.1863
 8029SOL     OW31887   4.980   1.788   5.541  0.0043 -0.5366 -0.0684
 8029SOL    HW231888   4.950   1.817   5.455 -1.1441 -2.0100 -0.2058
 8029SOL    HW331889   5.057   1.735   5.524 -0.3421 -0.9960 -0.2168
 8029SOL    MW431890   4.986   1.785   5.527 -0.1929 -0.7916 -0.1061
 8030SOL     OW31891   5.740   5.766   1.386  0.0926  0.3527 -0.4902
 8030SOL    HW231892   5.751   5.745   1.478 -1.5820  0.6527 -0.1973
 8030SOL    HW331893   5.693   5.691   1.349 -0.2648  0.7441 -0.8427
 8030SOL    MW431894   5.735   5.753   1.393 -0.1755  0.4439 -0.4980
 8031SOL     OW31895   4.176   1.046   5.564  0.0758 -0.2150  0.0118
 8031SOL    HW231896   4.084   1.066   5.581 -0.1079 -1.8527  1.2300
 8031SOL    HW331897   4.222   1.076   5.643  0.3434 -0.7975  0.0873
 8031SOL    MW431898   4.170   1.053   5.577  0.0868 -0.5079  0.1825
 8032SOL     OW31899   2.531   3.017   1.612 -0.2216  0.4744  0.1221
 8032SOL    HW231900   2.593   3.029   1.540 -0.9455 -1.5713 -0.9164
 8032SOL    HW331901   2.473   2.948   1.582 -1.4165  0.5321  2.1401
 8032SOL    MW431902   2.531   3.010   1.599 -0.4748  0.2121  0.2513
 8033SOL     OW31903   3.705   5.937   5.573 -0.3196  0.1325  0.0054
 8033SOL    HW231904   3.764   5.929   5.498  1.0580 -2.3199  1.2459
 8033SOL    HW331905   3.713   6.029   5.598  1.6505  0.2866 -0.9348
 8033SOL    MW431906   3.714   5.948   5.566  0.1221 -0.1707  0.0450
 8034SOL     OW31907   6.195   5.268   4.389 -0.1424 -0.9725 -0.6332
 8034SOL    HW231908   6.223   5.329   4.457 -0.1581 -1.6011 -0.0558
 8034SOL    HW331909   6.153   5.323   4.323 -0.3819 -0.3947 -0.0034
 8034SOL    MW431910   6.193   5.283   4.389 -0.1760 -0.9792 -0.4739
 8035SOL     OW31911   6.204   2.201   4.414  0.0324 -0.0989 -0.2247
 8035SOL    HW231912   6.122   2.245   4.434  1.0819  0.7560  2.7666
 8035SOL    HW331913   6.267   2.271   4.398  1.1250 -0.4480  2.0127
 8035SOL    MW431914   6.202   2.216   4.415  0.3150 -0.0322  0.4651
 8036SOL     OW31915   3.238   3.249   2.036 -0.0682 -0.3781  0.3675
 8036SOL    HW231916   3.326   3.278   2.011  0.3309 -1.7513  0.0863
 8036SOL    HW331917   3.220   3.295   2.117 -0.6357  2.7785 -1.3802
 8036SOL    MW431918   3.248   3.259   2.043 -0.0904 -0.1428  0.0998
 8037SOL     OW31919   5.476   6.001   6.334 -0.2522 -0.7014  0.3667
 8037SOL    HW231920   5.494   6.022   6.426  2.1213 -0.4884 -0.0824
 8037SOL    HW331921   5.400   6.055   6.312 -0.2141  0.0365  1.9004
 8037SOL    MW431922   5.468   6.011   6.343  0.0660 -0.5760  0.5098
 8038SOL     OW31923   1.193   5.613   4.278 -0.2417 -0.4384  0.2405
 8038SOL    HW231924   1.260   5.646   4.339 -0.0940 -0.6318  0.1826
 8038SOL    HW331925   1.220   5.524   4.258  0.6235  0.1623 -1.4103
 8038SOL    MW431926   1.205   5.606   4.284 -0.1081 -0.3846  0.0151
 8039SOL     OW31927   4.059   0.317   1.581  0.2900 -0.4330  0.3349
 8039SOL    HW231928   4.065   0.245   1.644  0.2629  0.2240  1.1059
 8039SOL    HW331929   4.146   0.357   1.581 -0.6478  1.9400  2.8798
 8039SOL    MW431930   4.071   0.313   1.590  0.1627 -0.0332  0.7724
 8040SOL     OW31931   2.704   3.022   1.376  0.4036 -0.1833  0.0129
 8040SOL    HW231932   2.788   2.978   1.383 -0.0924 -1.5794 -1.9767
 8040SOL    HW331933   2.667   2.991   1.293 -1.4158  1.5384  0.1030
 8040SOL    MW431934   2.710   3.012   1.366  0.0982 -0.1403 -0.2377
 8041SOL     OW31935   2.171   2.328   1.004  0.1687 -0.6054  0.0270
 8041SOL    HW231936   2.091   2.348   1.053  1.0875 -0.7947  1.6911
 8041SOL    HW331937   2.185   2.406   0.950 -0.6036 -0.1357  0.4687
 8041SOL    MW431938   2.162   2.341   1.004  0.1880 -0.5684  0.3049
 8042SOL     OW31939   3.751   5.679   4.464 -0.0667 -0.5939 -0.2032
 8042SOL    HW231940   3.824   5.633   4.505  0.1098  0.8447  1.1886
 8042SOL    HW331941   3.722   5.620   4.395  0.4906 -2.5404  1.1271
 8042SOL    MW431942   3.757   5.665   4.461  0.0301 -0.6609  0.1560
 8043SOL     OW31943   3.517   3.277   3.657 -0.5541 -0.3970  0.1582
 8043SOL    HW231944   3.429   3.270   3.619 -1.0532 -1.8211  1.4782
 8043SOL    HW331945   3.548   3.363   3.628 -1.6196 -0.6281 -1.8722
 8043SOL    MW431946   3.510   3.287   3.648 -0.7605 -0.6154  0.0645
 8044SOL     OW31947   5.570   4.660   6.175  0.3538  0.2211  0.4893
 8044SOL    HW231948   5.659   4.694   6.181  0.0910  1.0703 -0.2659
 8044SOL    HW331949   5.554   4.650   6.081 -0.3764  0.1638  0.6133
 8044SOL    MW431950   5.579   4.663   6.164  0.2228  0.3256  0.4060
 8045SOL     OW31951   1.405   3.701   2.419 -0.1831  0.1775 -0.7792
 8045SOL    HW231952   1.319   3.701   2.461 -0.3563 -1.1426 -1.0852
 8045SOL    HW331953   1.412   3.614   2.378  1.2211  0.3168 -0.8937
 8045SOL    MW431954   1.395   3.689   2.419 -0.0207  0.0217 -0.8347
 8046SOL     OW31955   4.262   6.305   2.083  0.4143 -0.2012 -0.1352
 8046SOL    HW231956   4.220   6.389   2.099  4.2326  1.6640  1.2650
 8046SOL    HW331957   4.243   6.286   1.991 -2.2890  1.0294  0.0732
 8046SOL    MW431958   4.254   6.313   2.073  0.5614  0.2072  0.0770
 8047SOL     OW31959   5.913   6.411   6.013 -0.3906 -0.2467 -0.0146
 8047SOL    HW231960   5.833   6.451   5.977 -2.1673 -2.5838  1.0529
 8047SOL    HW331961   5.916   6.324   5.973  1.6439 -0.2062 -0.0095
 8047SOL    MW431962   5.903   6.405   6.003 -0.3566 -0.5497  0.1269
 8048SOL     OW31963   3.364   1.215   2.384  0.4412  0.3436  0.0250
 8048SOL    HW231964   3.360   1.182   2.474  1.8178 -0.9975 -0.3611
 8048SOL    HW331965   3.348   1.138   2.330 -0.7765  1.2098 -0.9062
 8048SOL    MW431966   3.361   1.200   2.389  0.4622  0.2809 -0.1488
 8049SOL     OW31967   1.804   4.113   2.946  1.0726 -0.3849  0.0131
 8049SOL    HW231968   1.717   4.133   2.980  1.4937  0.7369  0.4730
 8049SOL    HW331969   1.852   4.077   3.020  0.9081 -1.3337 -0.3282
 8049SOL    MW431970   1.799   4.111   2.960  1.1065 -0.3621  0.0287
 8050SOL     OW31971   4.646   2.924   4.962 -1.0375  0.6170 -0.0277
 8050SOL    HW231972   4.583   2.873   4.910 -1.3615 -1.6611  2.4005
 8050SOL    HW331973   4.596   3.000   4.993 -1.3411  1.0410 -1.4747
 8050SOL    MW431974   4.631   2.927   4.959 -1.1203  0.3724  0.1017
 8051SOL     OW31975   3.973   5.023   3.642 -0.4338  0.2148  0.1207
 8051SOL    HW231976   3.956   4.958   3.574  2.7776 -1.6481  0.9222
 8051SOL    HW331977   3.887   5.040   3.680 -2.1594  0.3598 -3.4323
 8051SOL    MW431978   3.959   5.017   3.638 -0.2378 -0.0118 -0.2423
 8052SOL     OW31979   2.601   3.813   3.361 -0.1333  0.4350 -0.5262
 8052SOL    HW231980   2.560   3.876   3.302  0.0974  1.1154  0.0283
 8052SOL    HW331981   2.586   3.728   3.319 -0.5529  0.8403 -1.2217
 8052SOL    MW431982   2.594   3.810   3.348 -0.1582  0.5782 -0.5448
 8053SOL     OW31983   2.793   3.610   5.343 -0.1828  0.4813  0.2844
 8053SOL    HW231984   2.871   3.643   5.387  0.6285  0.7340 -1.2568
 8053SOL    HW331985   2.749   3.556   5.408  1.0521  0.6867  1.3252
 8053SOL    MW431986   2.797   3.607   5.357  0.0872  0.5417  0.2184
 8054SOL     OW31987   5.036   4.182   6.096 -0.1477  0.0788  0.1897
 8054SOL    HW231988   5.004   4.094   6.114  1.2960 -0.5888 -0.3692
 8054SOL    HW331989   4.969   4.221   6.039 -0.8713 -0.5897  0.5682
 8054SOL    MW431990   5.023   4.176   6.091 -0.0527 -0.0975  0.1659
 8055SOL     OW31991   3.339   4.210   0.294 -0.6614  0.0638 -0.0514
 8055SOL    HW231992   3.399   4.135   0.299 -0.5953  0.1499  0.4455
 8055SOL    HW331993   3.252   4.171   0.293 -0.5975 -0.1054 -1.5914
 8055SOL    MW431994   3.335   4.195   0.294 -0.6443  0.0528 -0.1890
 8056SOL     OW31995   5.877   1.507   3.530 -0.5192  0.1306  0.8276
 8056SOL    HW231996   5.932   1.430   3.545 -0.9124 -0.3258 -0.0051
 8056SOL    HW331997   5.788   1.472   3.525 -0.4511  0.0289 -3.1543
 8056SOL    MW431998   5.873   1.492   3.531 -0.5621  0.0569  0.1924
 8057SOL     OW31999   1.269   2.241   3.881 -0.2097  0.8519  0.0497
 8057SOL    HW232000   1.234   2.209   3.964 -0.4537  1.3847  0.1564
 8057SOL    HW332001   1.260   2.166   3.821 -2.2216  1.1544 -0.1157
 8057SOL    MW432002   1.263   2.226   3.884 -0.5073  0.9621  0.0420
 8058SOL     OW32003   6.422   3.674   6.183 -0.2062  0.0377 -0.0003
 8058SOL    HW232004   6.358   3.717   6.126  0.0026 -0.4879 -0.6489
 8058SOL    HW332005   6.445   3.593   6.136 -0.5130 -0.7368  1.1367
 8058SOL    MW432006   6.417   3.669   6.169 -0.2191 -0.1338  0.0642
 8059SOL     OW32007   5.283   1.465   3.418 -0.3104  0.0419  0.0135
 8059SOL    HW232008   5.323   1.393   3.467 -2.5191 -1.4348 -0.2555
 8059SOL    HW332009   5.330   1.466   3.334 -0.5165 -1.3319 -0.1241
 8059SOL    MW432010   5.295   1.456   3.413 -0.6290 -0.3342 -0.0401
 8060SOL     OW32011   1.534   1.613   4.240 -0.1646 -0.1786  0.2392
 8060SOL    HW232012   1.500   1.539   4.290  0.5487  0.4649  1.7495
 8060SOL    HW332013   1.462   1.675   4.235 -0.1461 -0.1073  0.7897
 8060SOL    MW432014   1.520   1.612   4.246 -0.0680 -0.0843  0.5111
 8061SOL     OW32015   0.069   2.019   4.122 -0.6485 -0.0334 -0.3917
 8061SOL    HW232016   0.110   1.970   4.050 -1.9464 -0.0293 -1.1655
 8061SOL    HW332017  -0.003   1.963   4.151 -2.0113  1.2548 -1.1239
 8061SOL    MW432018   0.065   2.005   4.116 -0.9995  0.1371 -0.5904
 8062SOL     OW32019   5.176   1.106   0.594  0.5451 -0.3955 -0.6555
 8062SOL    HW232020   5.232   1.184   0.589 -0.8754  0.6240 -1.4734
 8062SOL    HW332021   5.235   1.033   0.574  1.6745  0.5860 -1.0699
 8062SOL    MW432022   5.191   1.107   0.590  0.5067 -0.1315 -0.8181
 8063SOL     OW32023   6.027   2.299   1.272  0.3347 -0.0952 -0.0532
 8063SOL    HW232024   6.108   2.253   1.296 -0.1329 -0.6597  0.4521
 8063SOL    HW332025   5.966   2.280   1.343 -0.0377  0.8790 -0.0973
 8063SOL    MW432026   6.030   2.291   1.284  0.2239 -0.0411  0.0076
 8064SOL     OW32027   2.906   2.218   5.470 -0.1953 -0.7037 -0.1502
 8064SOL    HW232028   2.883   2.267   5.549  0.3077 -0.9761  0.1679
 8064SOL    HW332029   2.971   2.155   5.499 -1.4385 -2.1370 -0.3700
 8064SOL    MW432030   2.911   2.216   5.484 -0.2929 -0.9287 -0.1372
 8065SOL     OW32031   6.171   3.058   5.837 -0.1938 -0.4087 -0.0694
 8065SOL    HW232032   6.158   2.983   5.895  0.3572  1.9354  3.3265
 8065SOL    HW332033   6.264   3.055   5.815  0.2958  0.3630  1.7689
 8065SOL    MW432034   6.182   3.047   5.842 -0.0565  0.0024  0.6212
 8066SOL     OW32035   3.324   2.655   0.966  0.1697  0.3312 -0.1252
 8066SOL    HW232036   3.345   2.561   0.960 -1.3838  0.0641 -3.7287
 8066SOL    HW332037   3.394   2.691   1.021  1.3927 -2.7519  0.5691
 8066SOL    MW432038   3.336   2.647   0.972  0.1261 -0.1108 -0.5090
 8067SOL     OW32039   2.346   3.232   2.167  0.0192  0.4877  0.4025
 8067SOL    HW232040   2.370   3.279   2.087  2.3725 -1.8173 -0.3860
 8067SOL    HW332041   2.276   3.173   2.141  0.1897  0.3468  0.2632
 8067SOL    MW432042   2.340   3.231   2.153  0.3522  0.1650  0.2801
 8068SOL     OW32043   2.431   0.979   0.930  0.1395  0.1401  0.0374
 8068SOL    HW232044   2.395   0.922   0.998 -1.0943  0.3809 -0.3847
 8068SOL    HW332045   2.454   0.920   0.859 -0.8319  0.1152 -0.2701
 8068SOL    MW432046   2.429   0.964   0.930 -0.1515  0.1686 -0.0589
 8069SOL     OW32047   2.078   2.694   4.240  0.2465 -0.2494 -0.3218
 8069SOL    HW232048   2.091   2.784   4.209  1.4504 -0.8581 -1.6570
 8069SOL    HW332049   2.117   2.693   4.327  0.5491  0.4186 -0.4414
 8069SOL    MW432050   2.085   2.706   4.248  0.4452 -0.2416 -0.5138
 8070SOL     OW32051   1.557   0.714   1.308  0.1294 -0.5419  0.0372
 8070SOL    HW232052   1.553   0.809   1.298  0.2135 -0.3478  1.6358
 8070SOL    HW332053   1.527   0.698   1.398  2.7739 -1.7552  0.7962
 8070SOL    MW432054   1.553   0.724   1.319  0.4894 -0.6764  0.3483
 8071SOL     OW32055   0.604   0.821   3.347  0.2780 -0.5938 -0.1832
 8071SOL    HW232056   0.639   0.754   3.289  1.0787 -0.6549  0.3598
 8071SOL    HW332057   0.510   0.822   3.329  0.7474  0.9037 -3.0573
 8071SOL    MW432058   0.596   0.813   3.337  0.4456 -0.4043 -0.4907
 8072SOL     OW32059   5.288   5.640   2.998  0.3777 -0.2629  0.6555
 8072SOL    HW232060   5.230   5.564   2.989  0.9695 -0.6033 -0.4119
 8072SOL    HW332061   5.277   5.688   2.916  1.4494 -0.2296  0.5176
 8072SOL    MW432062   5.279   5.636   2.986  0.5972 -0.3034  0.4964
 8073SOL     OW32063   1.672   4.963   3.542  0.3867 -0.3551 -0.1978
 8073SOL    HW232064   1.694   4.934   3.630  0.7621 -0.2331 -0.2497
 8073SOL    HW332065   1.615   5.039   3.555  0.7857 -0.0739 -0.0538
 8073SOL    MW432066   1.667   4.969   3.555  0.4888 -0.3019 -0.1856
 8074SOL     OW32067   5.395   2.968   4.563 -0.0860 -0.2230 -0.3005
 8074SOL    HW232068   5.321   3.015   4.602  0.2825  0.0693  0.0604
 8074SOL    HW332069   5.451   3.037   4.528 -0.1952 -0.4634 -0.9697
 8074SOL    MW432070   5.393   2.984   4.564 -0.0518 -0.2161 -0.3412
 8075SOL     OW32071   3.582   1.996   0.629  0.1719  0.1529  0.4175
 8075SOL    HW232072   3.641   1.968   0.699  0.3584 -0.4046  0.0502
 8075SOL    HW332073   3.546   1.914   0.594 -0.4271  0.4626  0.3010
 8075SOL    MW432074   3.585   1.982   0.633  0.1175  0.1202  0.3536
 8076SOL     OW32075   3.006   3.239   2.464  0.3068  0.2500  0.6432
 8076SOL    HW232076   2.913   3.260   2.465  0.7066  2.2178  0.7175
 8076SOL    HW332077   3.031   3.239   2.557 -0.1563 -3.2496  0.8882
 8076SOL    MW432078   2.997   3.242   2.477  0.2985  0.0479  0.6853
 8077SOL     OW32079   5.845   1.913   2.509 -0.0719  0.3610 -0.1270
 8077SOL    HW232080   5.826   1.913   2.415 -1.3288 -1.2547  0.0749
 8077SOL    HW332081   5.939   1.929   2.515 -0.2844  2.5654 -1.5342
 8077SOL    MW432082   5.855   1.915   2.497 -0.2657  0.4387 -0.2860
 8078SOL     OW32083   5.397   5.550   1.942 -0.6731  0.3430 -0.1518
 8078SOL    HW232084   5.371   5.478   1.999  0.7283 -0.1431 -0.0926
 8078SOL    HW332085   5.480   5.522   1.904 -0.6259  1.4854 -0.9357
 8078SOL    MW432086   5.404   5.537   1.945 -0.4820  0.4296 -0.2475
 8079SOL     OW32087   5.199   1.666   3.012  0.5141 -0.1344 -0.1351
 8079SOL    HW232088   5.233   1.744   2.967 -0.2024 -0.5697 -1.5012
 8079SOL    HW332089   5.181   1.604   2.941 -0.6344 -0.8650  0.7701
 8079SOL    MW432090   5.201   1.668   2.996  0.2680 -0.2882 -0.1959
 8080SOL     OW32091   5.422   0.456   3.753  0.1166  0.1714  0.8857
 8080SOL    HW232092   5.401   0.549   3.750  0.1680  0.1702 -0.5162
 8080SOL    HW332093   5.516   0.452   3.771  0.3224  0.4467 -0.0559
 8080SOL    MW432094   5.431   0.468   3.755  0.1505  0.2076  0.5765
 8081SOL     OW32095   4.944   3.391   2.082  0.1157 -0.2007 -0.6028
 8081SOL    HW232096   4.947   3.365   2.174  1.3712 -0.4791 -0.7045
 8081SOL    HW332097   4.975   3.482   2.082 -1.7749  0.4828 -0.5467
 8081SOL    MW432098   4.948   3.399   2.094  0.0319 -0.1473 -0.6088
 8082SOL     OW32099   0.544   4.174   1.729  0.3273 -0.1188 -0.1504
 8082SOL    HW232100   0.540   4.251   1.673 -0.7180 -1.0482 -1.4187
 8082SOL    HW332101   0.469   4.121   1.702 -0.6774 -0.3021  2.6266
 8082SOL    MW432102   0.533   4.177   1.718  0.0569 -0.2656  0.0487
 8083SOL     OW32103   5.795   4.491   4.891  0.1839 -0.0864 -0.6392
 8083SOL    HW232104   5.699   4.499   4.895  0.2104 -0.2248  1.1124
 8083SOL    HW332105   5.821   4.475   4.982  2.0789  2.1109 -0.7152
 8083SOL    MW432106   5.786   4.490   4.904  0.4374  0.1852 -0.4181
 8084SOL     OW32107   5.294   2.880   5.310  0.0992 -0.2792  0.1272
 8084SOL    HW232108   5.255   2.823   5.244  2.4936 -1.0914 -0.6826
 8084SOL    HW332109   5.344   2.945   5.260 -1.6014  1.9170  1.0723
 8084SOL    MW432110   5.295   2.881   5.295  0.1907 -0.0966  0.1451
 8085SOL     OW32111   1.296   4.185   3.510  0.1191 -0.5253  0.0863
 8085SOL    HW232112   1.244   4.112   3.477 -2.1653  0.2888  1.6204
 8085SOL    HW332113   1.333   4.225   3.431  0.8571 -2.8660 -0.8353
 8085SOL    MW432114   1.294   4.181   3.495 -0.0849 -0.7267  0.1671
 8086SOL     OW32115   5.313   2.715   5.717 -0.3342  0.1801  0.2186
 8086SOL    HW232116   5.396   2.698   5.671 -0.5692 -0.5076  0.0407
 8086SOL    HW332117   5.280   2.795   5.678  0.3980  0.6279  0.4977
 8086SOL    MW432118   5.320   2.723   5.705 -0.2686  0.1484  0.2320
 8087SOL     OW32119   0.980   3.700   4.434  0.0465  0.2117  0.1567
 8087SOL    HW232120   0.963   3.661   4.348 -0.4338  0.0360  0.3266
 8087SOL    HW332121   1.044   3.769   4.417 -0.2507  0.3589 -0.3800
 8087SOL    MW432122   0.986   3.704   4.421 -0.0561  0.2080  0.1083
 8088SOL     OW32123   1.884   3.096   2.417  0.2383  0.3073  0.1219
 8088SOL    HW232124   1.841   3.179   2.439  1.7734  1.3460 -0.6014
 8088SOL    HW332125   1.976   3.110   2.439  0.7443 -0.7436 -1.1984
 8088SOL    MW432126   1.890   3.109   2.423  0.5076  0.3057 -0.1477
 8089SOL     OW32127   0.579   0.923   3.603  0.4832  0.0171  0.3429
 8089SOL    HW232128   0.620   1.010   3.598  2.2529 -0.8011 -0.2062
 8089SOL    HW332129   0.582   0.891   3.513 -0.9688 -0.2948  0.3807
 8089SOL    MW432130   0.585   0.930   3.591  0.5251 -0.1320  0.2754
 8090SOL     OW32131   2.152   3.647   3.368 -0.2537 -0.2517 -0.1405
 8090SOL    HW232132   2.066   3.636   3.328 -0.5443 -0.6175  0.5546
 8090SOL    HW332133   2.186   3.558   3.378  0.0244 -0.1371 -0.0408
 8090SOL    MW432134   2.145   3.633   3.364 -0.2554 -0.2848 -0.0357
 8091SOL     OW32135   4.171   1.003   2.086 -0.2398 -0.0726 -0.3150
 8091SOL    HW232136   4.209   1.078   2.131  0.5202 -1.9135  2.3896
 8091SOL    HW332137   4.245   0.945   2.070 -1.0840 -1.1432 -0.4394
 8091SOL    MW432138   4.186   1.005   2.090 -0.2509 -0.4567  0.0254
 8092SOL     OW32139   1.810   5.016   0.609  0.2609  0.3967  0.0995
 8092SOL    HW232140   1.718   4.995   0.595  0.5208  0.0742 -1.2176
 8092SOL    HW332141   1.812   5.112   0.610 -0.0391  0.4113 -0.2875
 8092SOL    MW432142   1.798   5.026   0.607  0.2556  0.3561 -0.1253
 8093SOL     OW32143   0.941   6.256   6.137  0.3671 -0.1669  0.1379
 8093SOL    HW232144   1.037   6.263   6.144  0.3755 -0.5538  0.4449
 8093SOL    HW332145   0.927   6.210   6.054  0.4973 -1.1708  0.6561
 8093SOL    MW432146   0.952   6.251   6.127  0.3854 -0.3504  0.2467
 8094SOL     OW32147   0.288   4.491   4.256  0.2494  0.0706  0.0839
 8094SOL    HW232148   0.378   4.479   4.285  0.4768  1.9681  0.2381
 8094SOL    HW332149   0.289   4.466   4.163  0.2358 -2.7757  0.7380
 8094SOL    MW432150   0.300   4.486   4.248  0.2776 -0.0546  0.1905
 8095SOL     OW32151   3.192   5.079   1.623 -0.1554  0.3775  0.9272
 8095SOL    HW232152   3.217   5.088   1.531 -1.1105 -0.6458  0.5470
 8095SOL    HW332153   3.125   5.146   1.636  1.1671  1.6677  1.3650
 8095SOL    MW432154   3.186   5.089   1.613 -0.1069  0.4127  0.9348
 8096SOL     OW32155   0.078   1.444   6.183  0.5338  0.2175  0.6322
 8096SOL    HW232156   0.097   1.414   6.094 -1.5698 -0.1744  0.2548
 8096SOL    HW332157   0.026   1.523   6.171  0.1784  0.1342  1.4970
 8096SOL    MW432158   0.074   1.450   6.170  0.2093  0.1548  0.6965
 8097SOL     OW32159   1.048   5.416   2.988 -0.2701  0.6668  0.5329
 8097SOL    HW232160   1.138   5.447   2.974 -0.4921  0.5949 -1.2534
 8097SOL    HW332161   1.058   5.323   3.009  0.0138  0.1745 -1.5791
 8097SOL    MW432162   1.061   5.408   2.989 -0.2620  0.5924  0.0186
 8098SOL     OW32163   1.025   5.352   1.240  0.2351 -0.2072 -0.0869
 8098SOL    HW232164   1.049   5.433   1.285 -1.4123  0.3668 -0.1729
 8098SOL    HW332165   1.041   5.370   1.148  0.8824 -0.3705 -0.0121
 8098SOL    MW432166   1.031   5.365   1.234  0.1031 -0.1530 -0.0884
 8099SOL     OW32167   1.518   4.982   0.636 -0.3087 -0.2966  0.3945
 8099SOL    HW232168   1.462   4.923   0.585 -0.7863 -0.3852  1.0085
 8099SOL    HW332169   1.481   5.069   0.622 -0.0088 -0.2306  0.0206
 8099SOL    MW432170   1.505   4.985   0.628 -0.3322 -0.2996  0.4262
 8100SOL     OW32171   4.622   4.454   0.246  0.5269  0.0840 -0.2335
 8100SOL    HW232172   4.618   4.363   0.215  0.7287 -0.5363  1.4402
 8100SOL    HW332173   4.637   4.446   0.340  0.4112  1.8669 -0.0355
 8100SOL    MW432174   4.623   4.441   0.254  0.5383  0.2374  0.0135
 8101SOL     OW32175   5.108   4.382   1.114 -1.0849 -0.4315  0.7938
 8101SOL    HW232176   5.146   4.304   1.073  0.0219 -0.2142  1.3652
 8101SOL    HW332177   5.184   4.434   1.140 -1.8034  1.1283 -0.1076
 8101SOL    MW432178   5.123   4.379   1.112 -1.0336 -0.1970  0.7503
 8102SOL     OW32179   1.504   2.115   1.713  0.0707  0.0956 -0.4210
 8102SOL    HW232180   1.464   2.049   1.656  1.8606  0.0989 -1.7386
 8102SOL    HW332181   1.439   2.128   1.783 -1.5156 -1.0263 -1.6140
 8102SOL    MW432182   1.490   2.108   1.715  0.0975 -0.0520 -0.7522
 8103SOL     OW32183   3.384   6.394   0.449  0.5843  0.4375  0.3433
 8103SOL    HW232184   3.445   6.399   0.523  1.5145 -0.1409 -0.3551
 8103SOL    HW332185   3.394   6.477   0.403  0.2084  0.6885  0.7184
 8103SOL    MW432186   3.394   6.406   0.453  0.6574  0.3943  0.3006
 8104SOL     OW32187   1.821   0.873   4.487  0.2748  0.2677  0.4755
 8104SOL    HW232188   1.889   0.940   4.481 -0.0093  0.4822 -0.7441
 8104SOL    HW332189   1.749   0.915   4.533 -0.0554  0.9617 -0.6344
 8104SOL    MW432190   1.821   0.887   4.492  0.1938  0.3876  0.1681
 8105SOL     OW32191   0.917   2.356   0.221  0.3576 -0.1962 -0.7299
 8105SOL    HW232192   0.859   2.377   0.294  0.6560 -0.2310 -0.4779
 8105SOL    HW332193   0.903   2.263   0.204  0.0381 -0.1117 -0.9453
 8105SOL    MW432194   0.908   2.346   0.228  0.3548 -0.1897 -0.7251
 8106SOL     OW32195   2.660   5.488   1.086 -0.1883 -0.5634  0.1512
 8106SOL    HW232196   2.707   5.562   1.050 -0.1489 -0.7288 -0.1413
 8106SOL    HW332197   2.729   5.428   1.115 -0.2194 -0.4201  0.5251
 8106SOL    MW432198   2.675   5.490   1.085 -0.1872 -0.5663  0.1619
 8107SOL     OW32199   1.888   5.552   4.856  0.3436 -0.1001  0.3244
 8107SOL    HW232200   1.920   5.485   4.796 -0.5133  0.1474 -0.4261
 8107SOL    HW332201   1.918   5.635   4.819 -1.5492  0.1754 -0.6775
 8107SOL    MW432202   1.896   5.554   4.843 -0.0192 -0.0311  0.0932
 8108SOL     OW32203   6.242   4.109   0.611 -0.0922 -0.3338  1.0193
 8108SOL    HW232204   6.267   4.027   0.654 -3.0344 -1.3969  0.9336
 8108SOL    HW332205   6.259   4.177   0.676  0.7823 -1.2064  1.7313
 8108SOL    MW432206   6.248   4.107   0.625 -0.3650 -0.5892  1.1020
 8109SOL     OW32207   2.866   0.063   2.780 -0.1850 -0.1065 -0.2751
 8109SOL    HW232208   2.780   0.025   2.799 -0.3085  0.7560  0.9941
 8109SOL    HW332209   2.886   0.117   2.856  0.5743  1.3251 -1.4308
 8109SOL    MW432210   2.857   0.065   2.793 -0.1011  0.1962 -0.2601
 8110SOL     OW32211   6.346   5.108   5.210  0.3592  0.1349  0.0615
 8110SOL    HW232212   6.401   5.044   5.255  1.3885 -0.2387 -1.6261
 8110SOL    HW332213   6.257   5.078   5.224  0.7581 -0.9714  0.3373
 8110SOL    MW432214   6.342   5.096   5.217  0.5476 -0.0604 -0.1248
 8111SOL     OW32215   0.372   0.764   5.859  0.2794  0.0949  0.7002
 8111SOL    HW232216   0.400   0.818   5.785  0.9712  2.4391  2.5517
 8111SOL    HW332217   0.443   0.773   5.923 -0.5250 -1.4665  1.8634
 8111SOL    MW432218   0.385   0.773   5.858  0.2645  0.1982  1.0980
 8112SOL     OW32219   0.491   3.932   0.849 -0.0137  0.4022  0.4848
 8112SOL    HW232220   0.500   3.862   0.785 -2.2261  1.4610 -1.1299
 8112SOL    HW332221   0.414   3.981   0.820 -1.7321  0.4598  4.4707
 8112SOL    MW432222   0.482   3.929   0.837 -0.5323  0.5495  0.7977
 8113SOL     OW32223   4.086   5.109   1.605  0.1155  0.4824  0.0038
 8113SOL    HW232224   4.009   5.152   1.568  0.1095  0.0990 -0.4407
 8113SOL    HW332225   4.151   5.179   1.612  0.0507  0.6080 -0.5579
 8113SOL    MW432226   4.085   5.124   1.601  0.1061  0.4484 -0.1289
 8114SOL     OW32227   6.242   2.012   2.622 -0.2007  0.0222  0.1203
 8114SOL    HW232228   6.214   1.922   2.634  0.0651  0.2178  2.8695
 8114SOL    HW332229   6.169   2.064   2.657  0.3602  0.8124  0.1301
 8114SOL    MW432230   6.228   2.007   2.628 -0.0917  0.1523  0.4843
 8115SOL     OW32231   0.801   0.265   5.791  0.6626  0.2165 -0.0541
 8115SOL    HW232232   0.766   0.198   5.850  1.2157 -0.0791 -0.0646
 8115SOL    HW332233   0.818   0.219   5.709 -0.9128  0.7941 -0.7536
 8115SOL    MW432234   0.798   0.250   5.788  0.5277  0.2537 -0.1478
 8116SOL     OW32235   2.554   3.651   4.037 -0.1077  0.0234  0.4158
 8116SOL    HW232236   2.509   3.631   4.119 -2.0688 -0.0208 -0.6041
 8116SOL    HW332237   2.491   3.704   3.987  1.3689  0.8029 -0.7113
 8116SOL    MW432238   2.539   3.656   4.041 -0.1716  0.1204  0.1325
 8117SOL     OW32239   3.338   2.530   0.102  0.5090 -0.0369 -0.1001
 8117SOL    HW232240   3.408   2.550   0.164  0.7477  1.0673 -0.6806
 8117SOL    HW332241   3.383   2.496   0.025  0.3048 -0.4404 -0.0416
 8117SOL    MW432242   3.353   2.528   0.100  0.5136  0.0555 -0.1690
 8118SOL     OW32243   4.579   5.210   2.461 -0.8632  0.0819  0.0518
 8118SOL    HW232244   4.674   5.210   2.474 -0.8395 -0.1100 -0.1285
 8118SOL    HW332245   4.554   5.118   2.462 -0.7978  0.0177 -1.7222
 8118SOL    MW432246   4.588   5.198   2.463 -0.8514  0.0481 -0.2060
 8119SOL     OW32247   0.664   4.616   4.567  0.3286  0.0843  0.0858
 8119SOL    HW232248   0.752   4.577   4.575  0.3522 -0.7166 -2.7754
 8119SOL    HW332249   0.680   4.703   4.530 -0.0275  0.7732  1.4828
 8119SOL    MW432250   0.678   4.622   4.563  0.2848  0.0695 -0.1074
 8120SOL     OW32251   2.879   1.578   4.714 -0.4563 -0.5602  0.2457
 8120SOL    HW232252   2.843   1.654   4.667 -0.4556 -0.3955  0.5049
 8120SOL    HW332253   2.957   1.612   4.757  0.5348 -1.1418 -1.0439
 8120SOL    MW432254   2.884   1.593   4.714 -0.3255 -0.6152  0.1097
 8121SOL     OW32255   4.918   2.479   5.653  0.1851 -0.8191 -0.2761
 8121SOL    HW232256   4.981   2.507   5.587  1.4346 -1.0491  0.7897
 8121SOL    HW332257   4.918   2.384   5.648 -0.7388 -0.8065 -0.8459
 8121SOL    MW432258   4.926   2.470   5.643  0.2281 -0.8478 -0.2107
 8122SOL     OW32259   5.833   3.794   3.947 -0.8956  0.1353 -0.2988
 8122SOL    HW232260   5.746   3.755   3.958 -1.4054  0.3665 -2.8489
 8122SOL    HW332261   5.817   3.873   3.896  0.7852  0.4241 -0.4403
 8122SOL    MW432262   5.819   3.799   3.942 -0.7411  0.2039 -0.6539
 8123SOL     OW32263   1.339   0.307   1.787 -0.1333 -0.0927  0.0081
 8123SOL    HW232264   1.307   0.393   1.814 -0.0998 -0.1194  0.1360
 8123SOL    HW332265   1.422   0.324   1.744  0.7590 -0.2154  1.6047
 8123SOL    MW432266   1.346   0.320   1.785 -0.0112 -0.1124  0.2356
 8124SOL     OW32267   3.764   4.289   2.429  0.8200 -0.3545 -0.4285
 8124SOL    HW232268   3.719   4.306   2.511  1.0074 -2.5000  0.1623
 8124SOL    HW332269   3.695   4.291   2.362  0.6830  1.4835 -0.2907
 8124SOL    MW432270   3.749   4.292   2.431  0.8267 -0.3951 -0.3324
 8125SOL     OW32271   4.066   1.097   0.377  0.2542  0.0407 -0.0393
 8125SOL    HW232272   4.043   1.163   0.442  2.4220 -1.9058  2.9374
 8125SOL    HW332273   3.987   1.043   0.369  0.4554 -0.7347  2.4474
 8125SOL    MW432274   4.052   1.098   0.384  0.5668 -0.3184  0.6816
 8126SOL     OW32275   3.258   4.856   4.635 -0.2584 -0.2265 -0.4086
 8126SOL    HW232276   3.279   4.938   4.591  0.3045 -0.7941 -1.2358
 8126SOL    HW332277   3.294   4.788   4.577 -0.4569 -1.0398  0.4012
 8126SOL    MW432278   3.265   4.858   4.621 -0.2103 -0.4087 -0.4109
 8127SOL     OW32279   2.273   4.995   4.044 -0.0008  0.2209 -0.9579
 8127SOL    HW232280   2.354   5.017   4.090 -0.4799 -0.1532  0.0878
 8127SOL    HW332281   2.302   4.955   3.962  0.8754 -0.1274 -0.4948
 8127SOL    MW432282   2.287   4.993   4.039  0.0516  0.1256 -0.7588
 8128SOL     OW32283   3.378   5.549   3.502 -0.2560  0.2225 -0.4861
 8128SOL    HW232284   3.423   5.498   3.435  0.6749  0.8894 -0.3909
 8128SOL    HW332285   3.449   5.595   3.548 -0.9134  0.1515  0.6358
 8128SOL    MW432286   3.394   5.548   3.499 -0.2199  0.3011 -0.3256
 8129SOL     OW32287   3.816   1.154   4.012 -0.0072  0.0930 -0.3964
 8129SOL    HW232288   3.801   1.101   3.934  0.8273 -0.1914 -0.3750
 8129SOL    HW332289   3.730   1.164   4.051 -0.3244 -0.3894 -0.9551
 8129SOL    MW432290   3.803   1.148   4.007  0.0610 -0.0082 -0.4673
 8130SOL     OW32291   4.405   1.330   5.099  0.3104 -0.4907  0.4058
 8130SOL    HW232292   4.467   1.403   5.099 -2.4016  2.0131  0.3885
 8130SOL    HW332293   4.387   1.314   5.006  0.2078 -0.5084  0.4284
 8130SOL    MW432294   4.411   1.338   5.087 -0.0610 -0.1627  0.4065
 8131SOL     OW32295   3.199   3.343   2.283  0.3825 -0.1412 -0.4788
 8131SOL    HW232296   3.263   3.371   2.349  0.1101 -3.5568  1.4492
 8131SOL    HW332297   3.127   3.305   2.334 -0.6182 -1.4409 -2.7266
 8131SOL    MW432298   3.198   3.342   2.298  0.2145 -0.7633 -0.5210
 8132SOL     OW32299   1.355   0.610   5.707  0.6339  0.4616  0.2237
 8132SOL    HW232300   1.401   0.603   5.791  0.8615  2.3583  0.2820
 8132SOL    HW332301   1.284   0.673   5.723  0.6639  0.8247 -0.9964
 8132SOL    MW432302   1.352   0.617   5.720  0.6679  0.7598  0.0704
 8133SOL     OW32303   1.305   5.526   2.924  0.1394 -0.2564 -0.4132
 8133SOL    HW232304   1.293   5.614   2.958 -0.4062 -1.0237  1.4608
 8133SOL    HW332305   1.289   5.534   2.830  0.4408  1.6831 -0.3275
 8133SOL    MW432306   1.302   5.538   2.916  0.1072 -0.1017 -0.1546
 8134SOL     OW32307   3.359   0.528   1.033 -0.1845  0.7324  0.7651
 8134SOL    HW232308   3.353   0.514   0.938 -0.8741 -1.4938  1.0972
 8134SOL    HW332309   3.269   0.527   1.064  0.0169  1.7315  1.4413
 8134SOL    MW432310   3.346   0.526   1.025 -0.2489  0.5705  0.8981
 8135SOL     OW32311   6.056   5.297   2.614 -0.5127  0.0681 -0.0701
 8135SOL    HW232312   6.086   5.209   2.638  0.5976  0.7029  1.0474
 8135SOL    HW332313   6.085   5.308   2.524  0.3417 -0.3202  0.1369
 8135SOL    MW432314   6.064   5.287   2.606 -0.2535  0.1006  0.1047
 8136SOL     OW32315   3.280   2.010   2.826 -0.1954  0.3038 -0.2000
 8136SOL    HW232316   3.291   2.070   2.752 -1.3921 -0.9832 -1.5047
 8136SOL    HW332317   3.256   1.927   2.785 -1.8323 -0.2256  1.6931
 8136SOL    MW432318   3.278   2.007   2.811 -0.5692  0.0641 -0.1224
 8137SOL     OW32319   2.415   3.457   1.005  0.3210 -0.1793 -0.5534
 8137SOL    HW232320   2.339   3.499   0.965 -0.6142  0.0905  1.4099
 8137SOL    HW332321   2.419   3.371   0.962 -2.1476 -0.8881  0.4163
 8137SOL    MW432322   2.405   3.451   0.994 -0.1281 -0.2372 -0.1664
 8138SOL     OW32323   5.417   1.541   3.196  0.5870 -0.0350  0.5541
 8138SOL    HW232324   5.337   1.534   3.145  0.1628 -0.3076  1.2409
 8138SOL    HW332325   5.480   1.583   3.137  0.1072 -0.3257 -0.1744
 8138SOL    MW432326   5.415   1.545   3.182  0.4677 -0.1093  0.5486
 8139SOL     OW32327   4.527   3.321   1.101 -0.6115 -0.1370 -0.1113
 8139SOL    HW232328   4.505   3.388   1.036 -2.7763 -0.9773 -0.3445
 8139SOL    HW332329   4.564   3.369   1.175 -1.8650  1.3107 -0.3781
 8139SOL    MW432330   4.529   3.336   1.102 -1.0625 -0.0568 -0.1773
 8140SOL     OW32331   4.560   1.305   0.511 -0.1198  0.2963 -0.3514
 8140SOL    HW232332   4.512   1.246   0.570 -1.4950  0.9391 -0.8086
 8140SOL    HW332333   4.601   1.369   0.570 -1.2365  0.7549 -0.0480
 8140SOL    MW432334   4.559   1.305   0.527 -0.4486  0.4416 -0.3717
 8141SOL     OW32335   6.109   2.306   0.906  0.1976  0.2715  0.3413
 8141SOL    HW232336   6.114   2.210   0.899  0.7712  0.1371  2.0599
 8141SOL    HW332337   6.135   2.324   0.996 -3.2685  1.8276  1.1783
 8141SOL    MW432338   6.113   2.296   0.917 -0.1840  0.4591  0.6785
 8142SOL     OW32339   3.573   4.520   2.945 -0.1649  0.0752 -0.0443
 8142SOL    HW232340   3.596   4.563   3.027 -0.7797 -0.8311  0.6275
 8142SOL    HW332341   3.650   4.531   2.890 -0.5918  2.7271 -0.2255
 8142SOL    MW432342   3.586   4.527   2.949 -0.3024  0.3055  0.0204
 8143SOL     OW32343   5.832   0.252   6.174  0.8365 -0.3435  0.5323
 8143SOL    HW232344   5.895   0.318   6.145  0.7099 -0.9304 -1.1731
 8143SOL    HW332345   5.880   0.170   6.172 -0.1816 -0.9711 -1.8184
 8143SOL    MW432346   5.846   0.250   6.170  0.6855 -0.5038 -0.0029
 8144SOL     OW32347   0.527   5.014   5.392  0.5577  0.1116 -0.0293
 8144SOL    HW232348   0.553   4.974   5.310 -0.0648 -0.7159  0.1680
 8144SOL    HW332349   0.603   5.067   5.418  0.2529  1.4927 -1.8088
 8144SOL    MW432350   0.541   5.016   5.385  0.4354  0.1846 -0.2381
 8145SOL     OW32351   3.823   6.280   1.131 -0.1324 -0.1921  0.4075
 8145SOL    HW232352   3.824   6.214   1.063 -0.4624 -1.3327  1.4679
 8145SOL    HW332353   3.893   6.254   1.191 -0.9835 -0.2351  1.4130
 8145SOL    MW432354   3.832   6.268   1.130 -0.2882 -0.3483  0.6801
 8146SOL     OW32355   3.905   4.741   3.765  0.0026  0.1075 -0.3292
 8146SOL    HW232356   3.936   4.769   3.851 -0.1405  0.4939 -0.4025
 8146SOL    HW332357   3.983   4.705   3.722 -0.0571 -0.6608  0.1906
 8146SOL    MW432358   3.919   4.740   3.770 -0.0242  0.0572 -0.2703
 8147SOL     OW32359   3.110   6.393   2.035  0.0055 -0.2044  0.2809
 8147SOL    HW232360   3.204   6.374   2.033 -0.1429 -1.0504  0.7276
 8147SOL    HW332361   3.069   6.307   2.044 -0.9184 -0.0631 -2.0205
 8147SOL    MW432362   3.117   6.379   2.036 -0.1360 -0.2974  0.0362
 8148SOL     OW32363   1.525   3.464   5.671  0.3514 -0.3312 -0.6724
 8148SOL    HW232364   1.437   3.466   5.708  0.5965  0.9300 -0.1184
 8148SOL    HW332365   1.563   3.383   5.705  0.3084  0.4116  1.2616
 8148SOL    MW432366   1.518   3.453   5.680  0.3781 -0.0668 -0.3441
 8149SOL     OW32367   3.754   5.373   0.758 -0.2132 -0.4525  0.3693
 8149SOL    HW232368   3.673   5.336   0.723 -0.3166 -0.6209  0.7847
 8149SOL    HW332369   3.800   5.406   0.681 -0.0989 -1.4955 -0.0339
 8149SOL    MW432370   3.750   5.372   0.743 -0.2118 -0.6124  0.3709
 8150SOL     OW32371   3.077   1.816   2.229  0.0876  0.2036  0.0557
 8150SOL    HW232372   3.168   1.806   2.202  0.0830 -2.1399  0.6414
 8150SOL    HW332373   3.056   1.908   2.213  2.1617  0.5006 -1.2650
 8150SOL    MW432374   3.086   1.826   2.223  0.3607 -0.0664 -0.0413
 8151SOL     OW32375   3.152   2.052   6.401  0.1209 -0.6224  0.2404
 8151SOL    HW232376   3.239   2.074   6.368  0.6720 -2.9847 -0.0358
 8151SOL    HW332377   3.092   2.108   6.351  1.3392 -0.1890 -0.7687
 8151SOL    MW432378   3.155   2.063   6.390  0.3543 -0.8769  0.0709
 8152SOL     OW32379   2.121   4.364   3.410 -0.1274 -0.5135 -0.2381
 8152SOL    HW232380   2.176   4.285   3.409 -0.2473 -0.6287  1.0166
 8152SOL    HW332381   2.060   4.351   3.338 -0.0086 -1.4695 -0.1799
 8152SOL    MW432382   2.120   4.352   3.401 -0.1275 -0.6548 -0.0649
 8153SOL     OW32383   4.153   4.182   4.056  0.1533  0.3809  0.2316
 8153SOL    HW232384   4.205   4.185   4.136 -0.0311 -1.0085  0.4248
 8153SOL    HW332385   4.170   4.266   4.013  2.3113  0.1042  0.4402
 8153SOL    MW432386   4.162   4.194   4.061  0.4137  0.1611  0.2846
 8154SOL     OW32387   4.088   5.715   3.211  0.0096 -0.0210  0.7691
 8154SOL    HW232388   4.153   5.783   3.229 -0.3514  0.0534  1.8537
 8154SOL    HW332389   4.060   5.732   3.121  3.0224 -1.3628 -0.5798
 8154SOL    MW432390   4.093   5.726   3.202  0.3595 -0.1882  0.7342
 8155SOL     OW32391   2.116   1.789   0.133  0.4846  0.2567  0.0295
 8155SOL    HW232392   2.199   1.824   0.166  0.8585  0.6152 -1.2479
 8155SOL    HW332393   2.056   1.794   0.208  1.1722  1.4622  0.5274
 8155SOL    MW432394   2.119   1.794   0.147  0.6246  0.4631 -0.0733
 8156SOL     OW32395   3.144   1.375   3.717 -0.0037  1.1139  0.6310
 8156SOL    HW232396   3.165   1.445   3.654  0.9519  0.3947  0.1199
 8156SOL    HW332397   3.204   1.304   3.695  0.3115  0.8105  2.3337
 8156SOL    MW432398   3.155   1.375   3.706  0.1640  0.9790  0.7882
 8157SOL     OW32399   5.718   2.980   0.204  0.3393 -0.3590 -0.1054
 8157SOL    HW232400   5.776   2.904   0.204  0.3110 -0.3816 -0.2906
 8157SOL    HW332401   5.718   3.010   0.295  0.3328 -0.5938 -0.0266
 8157SOL    MW432402   5.726   2.974   0.216  0.3347 -0.3929 -0.1195
 8158SOL     OW32403   0.059   5.403   4.580 -0.4041  0.0880 -0.0988
 8158SOL    HW232404   0.125   5.365   4.523  0.4705  0.0542  0.9115
 8158SOL    HW332405   0.094   5.488   4.605 -0.0532 -0.5076  1.5733
 8158SOL    MW432406   0.072   5.409   4.576 -0.2424  0.0050  0.2551
 8159SOL     OW32407   1.494   3.037   0.559 -0.0562 -0.2631 -0.3470
 8159SOL    HW232408   1.402   3.050   0.535  0.4576  2.7117 -1.1566
 8159SOL    HW332409   1.529   2.981   0.489 -0.6781  0.8230 -1.5871
 8159SOL    MW432410   1.486   3.032   0.546 -0.0705  0.2727 -0.6174
 8160SOL     OW32411   2.107   1.843   1.789 -0.4306  0.2598 -0.0429
 8160SOL    HW232412   2.020   1.851   1.828 -0.9279  0.6157 -1.1856
 8160SOL    HW332413   2.127   1.931   1.757 -0.2854 -0.1473 -1.0985
 8160SOL    MW432414   2.098   1.856   1.790 -0.4770  0.2531 -0.3329
 8161SOL     OW32415   4.271   4.384   0.188 -0.5405 -0.0976  0.3332
 8161SOL    HW232416   4.285   4.299   0.229 -1.3033 -1.0002 -1.1898
 8161SOL    HW332417   4.339   4.389   0.120 -0.7032  0.3502  0.2006
 8161SOL    MW432418   4.282   4.373   0.184 -0.6626 -0.1576  0.1147
 8162SOL     OW32419   3.129   1.651   2.491 -0.1693 -0.5282  0.3598
 8162SOL    HW232420   3.121   1.684   2.401 -0.0861 -0.5169  0.3572
 8162SOL    HW332421   3.197   1.585   2.486  1.5171  1.0945  0.8771
 8162SOL    MW432422   3.137   1.647   2.478  0.0641 -0.3126  0.4277
 8163SOL     OW32423   3.686   2.682   3.463  0.6160 -0.2024  0.0581
 8163SOL    HW232424   3.609   2.626   3.460  0.9761 -0.6784 -0.6905
 8163SOL    HW332425   3.663   2.752   3.525 -0.2873 -0.5123  0.0850
 8163SOL    MW432426   3.673   2.684   3.471  0.5444 -0.3061 -0.0371
 8164SOL     OW32427   1.080   3.744   2.897 -0.2687  0.1583 -0.6403
 8164SOL    HW232428   1.088   3.812   2.965 -0.4101 -2.7574  2.5568
 8164SOL    HW332429   1.170   3.733   2.865 -0.0987  1.2106 -0.5838
 8164SOL    MW432430   1.093   3.752   2.902 -0.2649 -0.0875 -0.2110
 8165SOL     OW32431   1.976   1.140   0.295 -0.0612 -0.7083  0.9634
 8165SOL    HW232432   2.018   1.099   0.220 -2.6635 -0.3633 -0.8368
 8165SOL    HW332433   1.886   1.108   0.292 -1.7110  3.3175  0.6801
 8165SOL    MW432434   1.969   1.130   0.285 -0.6222 -0.1316  0.6885
 8166SOL     OW32435   5.854   5.914   0.040  0.0674 -0.0105 -0.0672
 8166SOL    HW232436   5.927   5.881  -0.012  0.8319 -0.6615  1.3684
 8166SOL    HW332437   5.776   5.880  -0.005  0.7529 -1.9101  0.0865
 8166SOL    MW432438   5.853   5.905   0.027  0.2587 -0.3470  0.1425
 8167SOL     OW32439   1.993   0.346   1.976  0.3223  0.0121 -0.1953
 8167SOL    HW232440   2.041   0.332   2.058  0.2253  2.0316  0.2825
 8167SOL    HW332441   2.012   0.270   1.923  0.7717 -1.1456  1.5380
 8167SOL    MW432442   2.002   0.334   1.980  0.3688  0.1258  0.0964
 8168SOL     OW32443   4.034   1.975   3.834  0.4710  0.3082  0.0355
 8168SOL    HW232444   4.091   2.019   3.771  0.1580  0.9855  0.2166
 8168SOL    HW332445   4.090   1.908   3.874  0.7571  0.0755 -0.7356
 8168SOL    MW432446   4.049   1.972   3.831  0.4675  0.3669 -0.0424
 8169SOL     OW32447   4.829   0.799   1.920  0.6693  0.0930 -0.1599
 8169SOL    HW232448   4.872   0.730   1.970 -0.0574 -1.2535 -1.3151
 8169SOL    HW332449   4.827   0.766   1.830 -0.0911  1.4323 -0.6643
 8169SOL    MW432450   4.834   0.785   1.915  0.4731  0.0920 -0.3789
 8170SOL     OW32451   5.703   3.870   0.349 -0.5232 -0.4246 -0.2064
 8170SOL    HW232452   5.732   3.859   0.440  0.1710  0.7913 -0.2579
 8170SOL    HW332453   5.608   3.879   0.355 -0.2774  5.0881  1.1509
 8170SOL    MW432454   5.695   3.870   0.362 -0.3991  0.4631 -0.0341
 8171SOL     OW32455   3.430   1.950   5.526 -0.4772 -0.3308 -0.4858
 8171SOL    HW232456   3.456   2.020   5.466 -0.2357  0.1300  0.1325
 8171SOL    HW332457   3.509   1.897   5.536 -0.5161 -0.4050 -0.5763
 8171SOL    MW432458   3.444   1.952   5.520 -0.4505 -0.2798 -0.4161
 8172SOL     OW32459   3.589   3.333   2.780 -0.1498  0.0582 -0.3191
 8172SOL    HW232460   3.635   3.394   2.839 -0.4796  1.7909 -1.7815
 8172SOL    HW332461   3.657   3.274   2.749  0.4458  0.4922  0.1328
 8172SOL    MW432462   3.604   3.333   2.784 -0.1147  0.3441 -0.4525
 8173SOL     OW32463   4.865   2.702   0.865  0.2621 -0.0171 -0.2025
 8173SOL    HW232464   4.920   2.625   0.851 -0.0816 -0.4362  0.6818
 8173SOL    HW332465   4.897   2.766   0.803  1.5831 -0.3379  0.1257
 8173SOL    MW432466   4.876   2.700   0.855  0.3911 -0.1147 -0.0426
 8174SOL     OW32467   0.599   4.430   5.471 -0.3170  0.2918  0.0383
 8174SOL    HW232468   0.523   4.475   5.433 -1.1058  0.3088  1.5439
 8174SOL    HW332469   0.605   4.465   5.560  0.8679 -0.4382  0.2618
 8174SOL    MW432470   0.590   4.441   5.478 -0.2648  0.1977  0.2664
 8175SOL     OW32471   2.631   4.687   5.823  0.3387  0.1922 -0.6821
 8175SOL    HW232472   2.593   4.700   5.910  0.4638 -0.7706 -0.4701
 8175SOL    HW332473   2.697   4.619   5.836 -0.6433 -1.0311 -1.7869
 8175SOL    MW432474   2.635   4.680   5.836  0.2256 -0.0962 -0.7999
 8176SOL     OW32475   5.954   5.533   3.171 -0.2350 -0.0230  0.4336
 8176SOL    HW232476   5.986   5.476   3.101  1.3134  0.6894  0.5215
 8176SOL    HW332477   5.904   5.476   3.228  0.4939 -1.1034  0.0198
 8176SOL    MW432478   5.952   5.518   3.169  0.0655 -0.0715  0.3906
 8177SOL     OW32479   5.914   5.107   3.053  0.4786 -0.1533  0.2549
 8177SOL    HW232480   5.912   5.192   3.010 -0.7907 -0.7144 -0.8663
 8177SOL    HW332481   5.825   5.073   3.044  0.6587 -1.1075  1.7070
 8177SOL    MW432482   5.902   5.113   3.046  0.3349 -0.3533  0.2986
 8178SOL     OW32483   1.489   0.867   2.050 -0.2042  0.9265  0.1000
 8178SOL    HW232484   1.553   0.934   2.072 -0.6317  0.5461  2.7854
 8178SOL    HW332485   1.423   0.913   1.998  1.7660  1.4702 -2.0904
 8178SOL    MW432486   1.488   0.882   2.046 -0.0006  0.9481  0.1653
 8179SOL     OW32487   1.419   0.634   1.640  0.4492  0.6344 -0.1050
 8179SOL    HW232488   1.472   0.657   1.716 -0.4124  0.0332  0.7074
 8179SOL    HW332489   1.438   0.542   1.623 -1.8876 -0.2812  1.6038
 8179SOL    MW432490   1.428   0.625   1.648  0.0272  0.4343  0.2277
 8180SOL     OW32491   3.438   0.740   3.891 -0.0740 -0.3899 -0.4066
 8180SOL    HW232492   3.428   0.651   3.857  0.2687 -0.4499 -0.3530
 8180SOL    HW332493   3.420   0.796   3.815  0.0337 -0.5112 -0.5226
 8180SOL    MW432494   3.434   0.736   3.876 -0.0145 -0.4138 -0.4149
 8181SOL     OW32495   4.644   2.825   5.576 -0.2866  0.5083 -0.1402
 8181SOL    HW232496   4.647   2.803   5.483  0.3484  0.1531 -0.0442
 8181SOL    HW332497   4.693   2.755   5.619 -0.9966  0.4018  0.5211
 8181SOL    MW432498   4.651   2.813   5.569 -0.2965  0.4474 -0.0402
 8182SOL     OW32499   4.748   2.622   3.053 -0.7022 -0.0786  0.1253
 8182SOL    HW232500   4.672   2.622   2.995  0.0092 -0.2645 -0.8364
 8182SOL    HW332501   4.821   2.592   2.997 -0.1890 -1.2927  1.3751
 8182SOL    MW432502   4.748   2.618   3.038 -0.5406 -0.2634  0.1633
 8183SOL     OW32503   0.089   5.895   3.201 -0.4281  0.0832  0.4375
 8183SOL    HW232504   0.089   5.982   3.241  0.8469  0.9502 -1.2963
 8183SOL    HW332505   0.039   5.906   3.120  3.5725  0.6025 -2.2773
 8183SOL    MW432506   0.082   5.908   3.196  0.2680  0.2661 -0.1494
 8184SOL     OW32507   5.995   3.095   1.637  0.0781 -0.5199 -0.1677
 8184SOL    HW232508   6.040   3.166   1.590  3.2797 -1.7508  0.7475
 8184SOL    HW332509   5.965   3.136   1.718  2.4515 -0.2144  0.6485
 8184SOL    MW432510   5.997   3.110   1.642  0.8137 -0.6420  0.0607
 8185SOL     OW32511   5.703   3.948   4.602  0.2895 -0.7123  0.6184
 8185SOL    HW232512   5.655   3.976   4.523  0.3147  1.3505  1.2565
 8185SOL    HW332513   5.709   3.853   4.595 -1.5753 -0.7708 -0.7987
 8185SOL    MW432514   5.698   3.939   4.590  0.0468 -0.4479  0.5156
 8186SOL     OW32515   1.218   5.882   0.200  0.1394 -0.1846 -0.4681
 8186SOL    HW232516   1.159   5.808   0.210  0.1643 -0.2392 -0.7081
 8186SOL    HW332517   1.278   5.876   0.274 -1.7091  1.3323  1.2642
 8186SOL    MW432518   1.219   5.871   0.211 -0.1012  0.0083 -0.2712
 8187SOL     OW32519   4.403   5.057   2.749 -0.1732 -0.1066  0.4766
 8187SOL    HW232520   4.481   5.059   2.694 -0.8626  0.7036 -0.5119
 8187SOL    HW332521   4.333   5.091   2.693 -0.5986  2.3921  2.3645
 8187SOL    MW432522   4.404   5.061   2.734 -0.3203  0.3300  0.5952
 8188SOL     OW32523   4.175   0.634   4.673 -0.6340  0.3508  0.4086
 8188SOL    HW232524   4.080   0.623   4.674 -0.4691 -1.1835  0.7430
 8188SOL    HW332525   4.203   0.604   4.759  0.4275 -2.0961 -0.7201
 8188SOL    MW432526   4.166   0.629   4.684 -0.4722 -0.1745  0.3038
 8189SOL     OW32527   3.334   2.800   1.898  0.1339  0.3671  0.0618
 8189SOL    HW232528   3.315   2.712   1.930 -1.7072  0.6243 -0.2257
 8189SOL    HW332529   3.380   2.786   1.815 -1.1711 -0.3727 -0.5737
 8189SOL    MW432530   3.338   2.786   1.891 -0.2812  0.3034 -0.0600
 8190SOL     OW32531   2.904   1.836   1.660 -0.0518 -0.4660 -0.0222
 8190SOL    HW232532   2.980   1.792   1.621 -0.5529 -0.9939 -0.4143
 8190SOL    HW332533   2.867   1.771   1.719 -1.4980 -1.0476 -1.4887
 8190SOL    MW432534   2.909   1.821   1.662 -0.3087 -0.6124 -0.2674
 8191SOL     OW32535   3.140   2.260   3.421  0.3927  0.4225  0.0659
 8191SOL    HW232536   3.070   2.280   3.360  0.9162  0.1049 -0.6536
 8191SOL    HW332537   3.217   2.246   3.366  0.7742 -0.3188  0.7612
 8191SOL    MW432538   3.141   2.260   3.406  0.5121  0.2828  0.0627
 8192SOL     OW32539   0.066   4.419   3.103  0.2303 -0.3461 -0.3416
 8192SOL    HW232540   0.009   4.495   3.118  0.3890 -0.4678  1.0444
 8192SOL    HW332541   0.152   4.448   3.132  0.5478 -0.6737 -0.9448
 8192SOL    MW432542   0.070   4.433   3.109  0.2931 -0.4054 -0.2383
 8193SOL     OW32543   2.511   0.404   1.613  0.0467  0.0027  0.1770
 8193SOL    HW232544   2.416   0.404   1.624  0.2124 -1.6121  2.3819
 8193SOL    HW332545   2.533   0.496   1.598 -1.7091  0.7035  1.5000
 8193SOL    MW432546   2.501   0.417   1.613 -0.1631 -0.1179  0.6424
 8194SOL     OW32547   1.419   5.536   5.873  0.3435  0.5968 -0.3573
 8194SOL    HW232548   1.360   5.602   5.836  1.1603  1.0107 -0.9595
 8194SOL    HW332549   1.435   5.476   5.801 -1.2889 -0.9301  0.5008
 8194SOL    MW432550   1.413   5.537   5.859  0.2359  0.4500 -0.3235
 8195SOL     OW32551   4.240   3.671   2.035  0.0216  0.0845  0.1791
 8195SOL    HW232552   4.233   3.744   2.095  1.5212 -1.2936  2.1512
 8195SOL    HW332553   4.333   3.668   2.011 -0.1815 -0.6452 -0.5778
 8195SOL    MW432554   4.252   3.680   2.040  0.1927 -0.1936  0.3394
 8196SOL     OW32555   6.003   6.085   2.684  0.0700  0.4649 -0.1188
 8196SOL    HW232556   5.996   6.071   2.778 -1.7172 -0.4504 -0.3376
 8196SOL    HW332557   5.931   6.143   2.663 -0.0827 -0.0315 -1.0353
 8196SOL    MW432558   5.993   6.091   2.693 -0.1859  0.2786 -0.2686
 8197SOL     OW32559   1.170   4.290   4.768 -0.2036  0.0182  0.3129
 8197SOL    HW232560   1.200   4.216   4.715  1.9575  0.6027  0.6505
 8197SOL    HW332561   1.079   4.269   4.789  0.2637 -2.4030  0.1777
 8197SOL    MW432562   1.162   4.278   4.763  0.1432 -0.2241  0.3396
 8198SOL     OW32563   0.158   3.710   4.325 -0.0320 -0.2692 -0.1655
 8198SOL    HW232564   0.066   3.689   4.340 -0.3138  0.8549 -0.1660
 8198SOL    HW332565   0.185   3.758   4.403  0.7768 -1.2182  0.1604
 8198SOL    MW432566   0.150   3.714   4.337  0.0375 -0.2461 -0.1226
 8199SOL     OW32567   3.639   5.730   5.276 -0.0934  0.4830  0.2883
 8199SOL    HW232568   3.711   5.792   5.267 -1.8588  2.6020 -0.0191
 8199SOL    HW332569   3.658   5.682   5.357  2.2916  0.0122 -0.4702
 8199SOL    MW432570   3.651   5.732   5.286 -0.0116  0.7005  0.1477
 8200SOL     OW32571   0.583   2.720   3.383  0.0900  0.2437 -0.2970
 8200SOL    HW232572   0.490   2.716   3.362  0.1427 -0.8169 -0.4098
 8200SOL    HW332573   0.605   2.813   3.382 -1.1035  0.5385  0.3388
 8200SOL    MW432574   0.574   2.732   3.380 -0.0605  0.1427 -0.2280
 8201SOL     OW32575   3.803   1.573   4.482 -0.0176  0.1575 -0.0471
 8201SOL    HW232576   3.808   1.488   4.438 -0.7023  0.6860 -1.2184
 8201SOL    HW332577   3.709   1.591   4.489  0.1043  0.5896  0.6604
 8201SOL    MW432578   3.791   1.564   4.477 -0.0919  0.2843 -0.1083
 8202SOL     OW32579   4.553   4.165   0.910 -0.1973 -0.6030 -0.1354
 8202SOL    HW232580   4.462   4.152   0.938  0.0021 -1.6189  0.0868
 8202SOL    HW332581   4.605   4.126   0.981  0.3956 -0.3610 -0.4374
 8202SOL    MW432582   4.548   4.158   0.923 -0.0927 -0.7051 -0.1460
 8203SOL     OW32583   1.312   5.617   2.126  0.3467  0.6630  0.0730
 8203SOL    HW232584   1.382   5.682   2.132  1.1885 -0.2884  1.2966
 8203SOL    HW332585   1.237   5.664   2.091  1.1088  2.1187  0.3407
 8203SOL    MW432586   1.312   5.632   2.122  0.5583  0.7295  0.2698
 8204SOL     OW32587   1.958   2.380   2.870 -0.2663 -0.3315 -0.1917
 8204SOL    HW232588   1.930   2.404   2.958 -0.7322 -2.4302  0.2834
 8204SOL    HW332589   1.889   2.414   2.813  0.1008  1.1535  0.1978
 8204SOL    MW432590   1.946   2.388   2.874 -0.2794 -0.4125 -0.0776
 8205SOL     OW32591   1.507   1.081   2.384  0.1926  0.5735 -0.2257
 8205SOL    HW232592   1.476   1.071   2.474 -0.2843 -0.6642 -0.4945
 8205SOL    HW332593   1.595   1.045   2.384  0.1146  0.3767 -0.2836
 8205SOL    MW432594   1.514   1.075   2.396  0.1194  0.3843 -0.2688
 8206SOL     OW32595   2.205   3.043   4.480 -0.2882  0.5899  0.2401
 8206SOL    HW232596   2.227   3.102   4.552 -0.5517  0.6369  0.2819
 8206SOL    HW332597   2.113   3.062   4.461 -1.1496 -1.4810  1.8834
 8206SOL    MW432598   2.196   3.053   4.487 -0.4367  0.3229  0.4625
 8207SOL     OW32599   0.766   3.381   2.653 -0.3416  0.1026  0.1119
 8207SOL    HW232600   0.681   3.344   2.628  0.5059 -2.1905  0.3380
 8207SOL    HW332601   0.800   3.320   2.719  2.5621 -0.5416 -1.7917
 8207SOL    MW432602   0.759   3.368   2.658  0.1533 -0.2849 -0.1094
 8208SOL     OW32603   2.668   3.746   1.165 -0.0989 -0.1869  0.6788
 8208SOL    HW232604   2.718   3.665   1.153  0.3644  0.2210 -0.2546
 8208SOL    HW332605   2.676   3.765   1.259  0.7432 -0.6160  0.7111
 8208SOL    MW432606   2.676   3.738   1.176  0.0733 -0.1897  0.5599
 8209SOL     OW32607   0.908   2.101   1.581  0.4120 -0.4804  0.2576
 8209SOL    HW232608   0.974   2.168   1.565  1.2639 -1.2686  0.3796
 8209SOL    HW332609   0.957   2.019   1.583 -0.6066 -1.1139  0.1170
 8209SOL    MW432610   0.923   2.099   1.579  0.3900 -0.6680  0.2551
 8210SOL     OW32611   2.410   1.911   2.054  0.2639  0.3905  0.2295
 8210SOL    HW232612   2.366   1.938   2.134 -0.0691 -1.5130  0.7516
 8210SOL    HW332613   2.420   1.991   2.003  1.3080  1.8354  2.5430
 8210SOL    MW432614   2.406   1.925   2.058  0.3578  0.3300  0.6036
 8211SOL     OW32615   4.236   3.999   1.902 -0.1517 -0.2097 -0.3490
 8211SOL    HW232616   4.253   4.072   1.843 -0.5928  1.7351  1.8077
 8211SOL    HW332617   4.189   3.935   1.848 -2.5551  2.3888 -1.5703
 8211SOL    MW432618   4.232   4.000   1.887 -0.5270  0.3897 -0.2256
 8212SOL     OW32619   0.441   1.578   5.409  0.2403  0.0980  0.0899
 8212SOL    HW232620   0.423   1.621   5.326  0.3480 -0.0515 -0.0113
 8212SOL    HW332621   0.466   1.488   5.385 -1.0089 -0.3447  0.3573
 8212SOL    MW432622   0.442   1.572   5.395  0.0897  0.0199  0.1118
 8213SOL     OW32623   5.529   0.708   4.274 -0.5225  0.1262  0.0648
 8213SOL    HW232624   5.486   0.728   4.191 -0.1892 -0.5759 -0.2917
 8213SOL    HW332625   5.468   0.649   4.319 -1.3981  1.6748  1.0079
 8213SOL    MW432626   5.516   0.703   4.269 -0.5941  0.2379  0.1422
 8214SOL     OW32627   2.974   1.554   2.160 -0.3658 -0.1376 -0.4214
 8214SOL    HW232628   2.885   1.536   2.190  0.3015  0.3733  2.1669
 8214SOL    HW332629   2.984   1.649   2.169  0.6745 -0.2818  0.1998
 8214SOL    MW432630   2.964   1.564   2.165 -0.1405 -0.0892  0.0020
 8215SOL     OW32631   4.785   6.284   1.923 -0.2344  0.1058  0.5040
 8215SOL    HW232632   4.815   6.341   1.853  1.3576 -1.2035  0.0587
 8215SOL    HW332633   4.779   6.341   2.000  0.5438  1.0244 -0.1010
 8215SOL    MW432634   4.788   6.299   1.924  0.0783  0.0542  0.3654
 8216SOL     OW32635   2.233   5.212   0.666  0.0353  0.1628 -0.4264
 8216SOL    HW232636   2.272   5.156   0.600 -1.7790 -0.1671 -1.2750
 8216SOL    HW332637   2.251   5.168   0.749 -0.0244 -0.8500 -0.9433
 8216SOL    MW432638   2.240   5.199   0.669 -0.2120 -0.0143 -0.6065
 8217SOL     OW32639   5.253   5.704   5.404 -0.3071  0.3971 -0.0517
 8217SOL    HW232640   5.245   5.652   5.484 -1.4576  0.4400 -0.1258
 8217SOL    HW332641   5.305   5.650   5.345  1.1330  0.6327  0.9233
 8217SOL    MW432642   5.259   5.690   5.407 -0.2689  0.4339  0.0672
 8218SOL     OW32643   0.753   5.909   1.797  0.0906 -0.3253 -0.3673
 8218SOL    HW232644   0.794   5.936   1.879  0.0596  0.2347 -0.5375
 8218SOL    HW332645   0.728   5.817   1.812  1.3791 -0.6691 -0.2538
 8218SOL    MW432646   0.755   5.900   1.809  0.2565 -0.2968 -0.3748
 8219SOL     OW32647   4.158   2.864   1.641 -0.1838  0.2527 -0.4393
 8219SOL    HW232648   4.087   2.928   1.634 -0.7264 -0.4021 -1.0802
 8219SOL    HW332649   4.148   2.827   1.728  0.1393  1.0392 -0.0579
 8219SOL    MW432650   4.147   2.868   1.652 -0.2127  0.2701 -0.4735
 8220SOL     OW32651   5.022   3.091   3.150 -0.3435  0.7468  0.0380
 8220SOL    HW232652   5.010   3.116   3.242  2.9694  0.9906  0.5250
 8220SOL    HW332653   4.989   3.001   3.145 -0.6824  0.7727  1.4286
 8220SOL    MW432654   5.016   3.082   3.162  0.0489  0.7824  0.2858
 8221SOL     OW32655   1.401   4.566   0.019 -0.1142 -0.2086  0.0720
 8221SOL    HW232656   1.394   4.524   0.105 -2.6720  0.8820  0.5126
 8221SOL    HW332657   1.362   4.503  -0.042  0.1633 -0.3011 -0.0098
 8221SOL    MW432658   1.395   4.552   0.022 -0.4151 -0.0769  0.1193
 8222SOL     OW32659   2.373   3.475   1.360 -0.3925  0.7679 -0.7279
 8222SOL    HW232660   2.328   3.404   1.405 -2.6001  1.9042 -0.9887
 8222SOL    HW332661   2.446   3.433   1.314 -1.3106 -1.2079 -0.4632
 8222SOL    MW432662   2.377   3.460   1.360 -0.8049  0.6571 -0.7274
 8223SOL     OW32663   4.246   3.495   0.459 -0.0903  0.3461  0.0954
 8223SOL    HW232664   4.179   3.469   0.396 -0.5744  1.3239  0.1807
 8223SOL    HW332665   4.308   3.422   0.461 -2.2534 -1.6000  1.6417
 8223SOL    MW432666   4.245   3.482   0.451 -0.4395  0.2184  0.3107
 8224SOL     OW32667   4.921   3.600   2.896 -0.3786  0.1809  0.3314
 8224SOL    HW232668   5.010   3.566   2.884 -0.3636 -0.2574  1.5415
 8224SOL    HW332669   4.895   3.629   2.809  0.4350 -0.9504 -0.3240
 8224SOL    MW432670   4.930   3.599   2.883 -0.2693 -0.0262  0.4046
 8225SOL     OW32671   0.840   4.343   0.116 -0.1464  0.0524 -0.3177
 8225SOL    HW232672   0.829   4.435   0.092  0.6079  0.5971  1.2834
 8225SOL    HW332673   0.824   4.295   0.035  1.5262  1.6979 -1.7042
 8225SOL    MW432674   0.836   4.349   0.102  0.1738  0.3414 -0.2894
 8226SOL     OW32675   0.722   4.571   4.120 -0.4688  0.2959  0.0080
 8226SOL    HW232676   0.690   4.536   4.037  0.6887 -0.7229 -0.0267
 8226SOL    HW332677   0.661   4.537   4.185  0.7196 -2.0552  0.0053
 8226SOL    MW432678   0.710   4.562   4.118 -0.1593 -0.1487  0.0031
 8227SOL     OW32679   0.628   0.227   1.240 -0.2190 -0.1825  0.3182
 8227SOL    HW232680   0.552   0.169   1.233  0.3558 -0.7757 -1.8036
 8227SOL    HW332681   0.698   0.180   1.196  0.0898  2.3576 -2.2247
 8227SOL    MW432682   0.627   0.214   1.233 -0.1024  0.0743 -0.2973
 8228SOL     OW32683   2.865   3.084   5.669  0.0437  0.0268 -0.0489
 8228SOL    HW232684   2.817   3.123   5.742  0.3905  3.0450 -1.2892
 8228SOL    HW332685   2.906   3.006   5.706 -3.9318 -1.5411  1.6060
 8228SOL    MW432686   2.864   3.079   5.683 -0.4351  0.2181  0.0058
 8229SOL     OW32687   2.574   0.351   0.437  0.2088 -0.2778  0.1953
 8229SOL    HW232688   2.505   0.404   0.476 -0.3732  0.8619 -2.1901
 8229SOL    HW332689   2.655   0.393   0.463 -0.1807  0.7510 -0.2155
 8229SOL    MW432690   2.575   0.363   0.445  0.0806  0.0083 -0.1736
 8230SOL     OW32691   5.826   0.453   2.330 -0.0223  0.6204  0.3643
 8230SOL    HW232692   5.737   0.487   2.340 -0.5596 -0.5031 -0.4196
 8230SOL    HW332693   5.816   0.377   2.273  1.4853  0.6283  0.0649
 8230SOL    MW432694   5.813   0.448   2.324  0.1057  0.4732  0.2214
 8231SOL     OW32695   3.558   0.016   3.081  0.6749  0.1005 -0.9780
 8231SOL    HW232696   3.492  -0.041   3.043 -1.0299  1.3250  0.0071
 8231SOL    HW332697   3.508   0.089   3.119  2.5911  1.0799 -0.1927
 8231SOL    MW432698   3.543   0.018   3.081  0.7028  0.3913 -0.7444
 8232SOL     OW32699   2.824   1.691   1.396 -0.4682 -0.1409 -0.4439
 8232SOL    HW232700   2.753   1.751   1.377 -2.0011 -1.8190 -0.3052
 8232SOL    HW332701   2.791   1.635   1.466  1.0613 -0.8520 -0.2282
 8232SOL    MW432702   2.810   1.691   1.403 -0.4686 -0.4561 -0.3972
 8233SOL     OW32703   3.366   6.079   4.779 -0.0657 -0.9063  0.0984
 8233SOL    HW232704   3.325   6.165   4.789  1.0355 -0.3567  0.0029
 8233SOL    HW332705   3.293   6.017   4.778 -0.8041 -0.0758  1.2895
 8233SOL    MW432706   3.351   6.082   4.780 -0.0178 -0.7242  0.2430
 8234SOL     OW32707   3.693   2.594   3.194 -0.4598 -0.2695 -0.5904
 8234SOL    HW232708   3.689   2.637   3.279 -0.7456  1.3644 -1.3767
 8234SOL    HW332709   3.616   2.537   3.192 -1.8337  1.4847 -0.6329
 8234SOL    MW432710   3.682   2.592   3.205 -0.6787  0.1775 -0.6998
 8235SOL     OW32711   0.602   4.889   5.150  0.0809  0.3862 -0.1267
 8235SOL    HW232712   0.648   4.953   5.096  0.3118 -1.0924 -1.7673
 8235SOL    HW332713   0.515   4.882   5.110 -1.0880  1.9485  1.9616
 8235SOL    MW432714   0.597   4.896   5.138 -0.0429  0.3973 -0.0676
 8236SOL     OW32715   5.651   5.356   4.693  0.0216 -0.4223  0.1860
 8236SOL    HW232716   5.574   5.382   4.743  0.3785  1.0531 -0.0061
 8236SOL    HW332717   5.617   5.329   4.608 -0.4476 -1.6525  0.7264
 8236SOL    MW432718   5.637   5.356   4.689  0.0068 -0.3900  0.2320
 8237SOL     OW32719   1.114   5.491   4.829 -0.1036  0.2022  0.9056
 8237SOL    HW232720   1.042   5.532   4.781  0.2275  1.0802  1.1359
 8237SOL    HW332721   1.099   5.397   4.819 -0.8816  0.3726  0.3586
 8237SOL    MW432722   1.102   5.484   4.821 -0.1625  0.3405  0.8638
 8238SOL     OW32723   6.311   3.120   1.654  0.2971  0.2631 -0.6420
 8238SOL    HW232724   6.377   3.052   1.670 -0.8535 -0.9608 -0.9206
 8238SOL    HW332725   6.362   3.197   1.628  1.6010 -0.7794 -1.3293
 8238SOL    MW432726   6.326   3.121   1.653  0.3173 -0.0359 -0.7694
 8239SOL     OW32727   2.998   2.197   1.739 -0.5634  0.2328  0.3940
 8239SOL    HW232728   3.064   2.149   1.790 -0.9466  0.2707  0.9484
 8239SOL    HW332729   3.033   2.200   1.650 -0.2575 -0.5682  0.4783
 8239SOL    MW432730   3.011   2.191   1.734 -0.5736  0.1321  0.4782
 8240SOL     OW32731   1.887   0.267   5.759 -0.0189  0.1481  0.2745
 8240SOL    HW232732   1.923   0.346   5.719  1.3827 -1.7162 -2.4596
 8240SOL    HW332733   1.912   0.197   5.699 -3.8307 -2.0228  0.8962
 8240SOL    MW432734   1.895   0.269   5.746 -0.3369 -0.3843 -0.0042
 8241SOL     OW32735   0.468   1.141   6.050 -0.3905 -0.5154 -0.1128
 8241SOL    HW232736   0.553   1.176   6.025 -0.8512  0.4448 -0.3661
 8241SOL    HW332737   0.488   1.057   6.092  0.5440 -1.2756 -1.9572
 8241SOL    MW432738   0.482   1.135   6.052 -0.3280 -0.4890 -0.3895
 8242SOL     OW32739   5.368   4.044   6.338 -0.3368  0.3109 -0.0671
 8242SOL    HW232740   5.421   4.118   6.307  1.9793 -0.7420  1.1770
 8242SOL    HW332741   5.430   3.985   6.380 -2.3144 -1.7417  0.1823
 8242SOL    MW432742   5.383   4.046   6.339 -0.2921 -0.0988  0.1299
 8243SOL     OW32743   5.323   5.741   0.214 -0.0808 -0.1500  0.1947
 8243SOL    HW232744   5.397   5.802   0.208 -0.4909  0.3497  0.1157
 8243SOL    HW332745   5.265   5.767   0.142 -0.5929 -0.1759  0.5892
 8243SOL    MW432746   5.325   5.753   0.204 -0.2025 -0.0875  0.2363
 8244SOL     OW32747   1.177   3.129   6.075  0.1351  0.3110  0.7110
 8244SOL    HW232748   1.173   3.124   6.170  0.3998  0.0549  0.7107
 8244SOL    HW332749   1.165   3.222   6.055 -0.7790  0.2466  0.9429
 8244SOL    MW432750   1.175   3.140   6.085  0.0494  0.2687  0.7416
 8245SOL     OW32751   2.607   3.348   1.716  0.4468 -0.0014 -0.2984
 8245SOL    HW232752   2.614   3.435   1.676 -0.5736 -0.2054 -0.9397
 8245SOL    HW332753   2.614   3.287   1.643 -0.7561 -0.3986 -0.1055
 8245SOL    MW432754   2.609   3.352   1.701  0.1535 -0.0807 -0.3575
 8246SOL     OW32755   0.093   1.656   2.067 -0.0162 -0.4784  0.1711
 8246SOL    HW232756   0.153   1.660   1.992 -1.5629  0.6066 -1.0703
 8246SOL    HW332757   0.053   1.570   2.062 -0.9442 -0.0012 -0.9606
 8246SOL    MW432758   0.096   1.645   2.057 -0.3427 -0.2723 -0.1420
 8247SOL     OW32759   0.771   0.910   2.934  0.7063  0.0469 -0.2676
 8247SOL    HW232760   0.750   0.992   2.978 -0.2249 -0.3306  0.0111
 8247SOL    HW332761   0.840   0.872   2.988  2.1248  1.2525 -1.1461
 8247SOL    MW432762   0.777   0.916   2.947  0.7706  0.1562 -0.3467
 8248SOL     OW32763   1.328   3.253   3.729  0.1249 -0.6698 -0.2060
 8248SOL    HW232764   1.348   3.262   3.823  0.6133 -0.0756 -0.3603
 8248SOL    HW332765   1.379   3.323   3.687 -1.0165 -0.1696 -0.7953
 8248SOL    MW432766   1.338   3.263   3.736  0.0387 -0.5254 -0.3041
 8249SOL     OW32767   3.250   0.192   2.872 -0.1277  0.7276 -0.2707
 8249SOL    HW232768   3.188   0.124   2.845 -2.1161  2.6529 -0.8171
 8249SOL    HW332769   3.335   0.162   2.840 -1.0792 -1.0809 -1.2188
 8249SOL    MW432770   3.253   0.179   2.864 -0.5156  0.7430 -0.4679
 8250SOL     OW32771   0.422   0.345   4.837  0.2313  0.2810  0.0504
 8250SOL    HW232772   0.369   0.266   4.852  1.3052 -0.3043  0.9539
 8250SOL    HW332773   0.500   0.313   4.791  0.7729  0.7589  0.5997
 8250SOL    MW432774   0.426   0.330   4.833  0.4445  0.2668  0.2421
 8251SOL     OW32775   1.706   5.148   5.141 -0.2758 -0.3688  0.2188
 8251SOL    HW232776   1.728   5.241   5.144  0.2281 -0.4595 -0.4688
 8251SOL    HW332777   1.759   5.108   5.210 -0.5071 -0.1470  0.5275
 8251SOL    MW432778   1.716   5.155   5.151 -0.2398 -0.3515  0.1688
 8252SOL     OW32779   4.007   4.727   2.685 -0.6260  0.0398 -0.5309
 8252SOL    HW232780   4.069   4.764   2.622  1.8030  0.6842  2.0531
 8252SOL    HW332781   4.039   4.638   2.700 -1.7460 -0.4355 -0.8635
 8252SOL    MW432782   4.019   4.720   2.679 -0.4533  0.0621 -0.2339
 8253SOL     OW32783   2.035   3.373   4.502  0.1691  0.4429 -0.2182
 8253SOL    HW232784   2.007   3.282   4.489  1.8949 -0.2709  0.6184
 8253SOL    HW332785   1.955   3.420   4.525 -0.3965 -1.5172  2.4476
 8253SOL    MW432786   2.021   3.367   4.504  0.3222  0.0901  0.2439
 8254SOL     OW32787   4.360   3.626   3.405 -0.1867  0.6049  0.3882
 8254SOL    HW232788   4.357   3.720   3.384  2.7415  1.0606  1.5167
 8254SOL    HW332789   4.434   3.593   3.354 -0.6163 -0.9161  0.7050
 8254SOL    MW432790   4.370   3.634   3.396  0.1429  0.4644  0.5789
 8255SOL     OW32791   0.805   3.985   2.586  0.2593  0.7250 -0.0296
 8255SOL    HW232792   0.873   3.963   2.523 -0.2946 -1.0715 -0.0374
 8255SOL    HW332793   0.724   3.986   2.536  0.0525  1.2707  0.2932
 8255SOL    MW432794   0.804   3.983   2.571  0.1590  0.5600  0.0120
 8256SOL     OW32795   4.543   6.161   5.835  0.9958 -0.1675 -0.0045
 8256SOL    HW232796   4.609   6.217   5.795  0.7576  0.0922 -0.0295
 8256SOL    HW332797   4.589   6.078   5.850  2.0682  0.7226  2.1672
 8256SOL    MW432798   4.558   6.157   5.832  1.1058 -0.0158  0.2787
 8257SOL     OW32799   2.447   1.292   2.059 -0.1964 -0.6175 -0.1373
 8257SOL    HW232800   2.382   1.243   2.008  1.5993 -4.3538  0.7539
 8257SOL    HW332801   2.482   1.357   1.999 -0.6253 -2.5118 -2.5753
 8257SOL    MW432802   2.443   1.294   2.045 -0.0160 -1.3604 -0.3414
 8258SOL     OW32803   0.860   1.961   3.292 -0.0130  0.3469 -0.2266
 8258SOL    HW232804   0.792   2.013   3.249  0.6671  1.5825  0.1336
 8258SOL    HW332805   0.921   2.026   3.326  0.6169 -0.6935  0.6791
 8258SOL    MW432806   0.859   1.976   3.291  0.1598  0.3727 -0.0596
 8259SOL     OW32807   2.448   2.395   2.354  0.0992 -0.4499  0.1759
 8259SOL    HW232808   2.361   2.378   2.318 -0.0640  0.2505  0.2115
 8259SOL    HW332809   2.435   2.391   2.449  0.3247 -1.3445  0.1735
 8259SOL    MW432810   2.435   2.392   2.362  0.1074 -0.4755  0.1803
 8260SOL     OW32811   0.053   2.151   4.966 -0.8077  0.0849  0.0019
 8260SOL    HW232812   0.099   2.224   4.924  1.1526  0.0893  1.9563
 8260SOL    HW332813  -0.031   2.147   4.921  1.3871 -0.6280 -4.6182
 8260SOL    MW432814   0.048   2.160   4.954 -0.2595 -0.0086 -0.3498
 8261SOL     OW32815   5.544   3.002   0.767 -0.2442 -0.4714 -0.3180
 8261SOL    HW232816   5.500   2.979   0.849  0.3169 -1.9194 -0.4047
 8261SOL    HW332817   5.561   3.096   0.775 -1.2828 -0.3477  0.6954
 8261SOL    MW432818   5.541   3.011   0.779 -0.3072 -0.6461 -0.1957
 8262SOL     OW32819   6.020   0.636   3.385  0.9450 -0.2901 -0.2044
 8262SOL    HW232820   6.012   0.553   3.338 -0.8481  1.1298 -2.6524
 8262SOL    HW332821   5.933   0.651   3.422  1.1921  0.5608  0.0486
 8262SOL    MW432822   6.008   0.627   3.384  0.7411  0.0095 -0.4940
 8263SOL     OW32823   4.840   2.272   5.329 -0.0726  0.2527 -0.4231
 8263SOL    HW232824   4.838   2.237   5.418  1.6220 -1.4097 -0.9691
 8263SOL    HW332825   4.816   2.364   5.339  0.6819  0.2782  1.8345
 8263SOL    MW432826   4.836   2.279   5.342  0.2505  0.0368 -0.1973
 8264SOL     OW32827   3.219   4.246   4.652 -0.2013 -0.1030 -0.1882
 8264SOL    HW232828   3.270   4.274   4.576  1.2103  1.8899  1.3782
 8264SOL    HW332829   3.148   4.310   4.658 -0.5783 -0.5286 -0.0896
 8264SOL    MW432830   3.216   4.258   4.643 -0.0648  0.1038  0.0315
 8265SOL     OW32831   5.846   1.150   0.539  0.4842 -0.4680  0.0401
 8265SOL    HW232832   5.863   1.207   0.614  1.8241  2.5338 -2.3002
 8265SOL    HW332833   5.926   1.156   0.486 -0.0671 -3.1527 -1.2890
 8265SOL    MW432834   5.859   1.158   0.542  0.5882 -0.4262 -0.4440
 8266SOL     OW32835   1.451   2.761   5.735 -0.3807  0.3906 -0.9087
 8266SOL    HW232836   1.543   2.762   5.706  0.4895  0.1546  1.5835
 8266SOL    HW332837   1.430   2.668   5.744 -0.7928  0.4510 -1.2483
 8266SOL    MW432838   1.461   2.749   5.732 -0.3202  0.3675 -0.6247
 8267SOL     OW32839   5.301   4.559   0.190 -0.2529 -0.4476 -0.0157
 8267SOL    HW232840   5.300   4.576   0.096 -0.7024 -1.2336 -0.1614
 8267SOL    HW332841   5.340   4.472   0.199  2.0091  0.5709  0.7149
 8267SOL    MW432842   5.306   4.550   0.179 -0.0138 -0.4169  0.0615
 8268SOL     OW32843   3.808   0.752   4.950 -0.3077  0.3846  0.5725
 8268SOL    HW232844   3.795   0.681   5.013  0.4385  1.3878  1.8943
 8268SOL    HW332845   3.880   0.804   4.986  0.6829  0.5660 -1.4975
 8268SOL    MW432846   3.816   0.749   4.963 -0.0786  0.5409  0.4738
 8269SOL     OW32847   4.999   6.186   0.664  0.1928 -0.0561 -0.1160
 8269SOL    HW232848   4.939   6.124   0.708 -0.5964  0.6437 -0.1721
 8269SOL    HW332849   5.015   6.254   0.729 -1.4869  1.3243 -1.0576
 8269SOL    MW432850   4.993   6.187   0.678 -0.1330  0.2183 -0.2476
 8270SOL     OW32851   1.635   5.611   1.317 -0.1013  0.2198 -0.4449
 8270SOL    HW232852   1.679   5.631   1.399 -0.0095  0.2210 -0.4942
 8270SOL    HW332853   1.679   5.665   1.252  0.6753 -0.6990 -0.7136
 8270SOL    MW432854   1.647   5.620   1.319  0.0133  0.0988 -0.4868
 8271SOL     OW32855   2.685   2.322   1.303 -0.3977 -0.6902  0.7669
 8271SOL    HW232856   2.764   2.349   1.350  0.2053 -0.5843 -0.2710
 8271SOL    HW332857   2.639   2.404   1.286 -0.3635 -0.6779  0.7327
 8271SOL    MW432858   2.690   2.337   1.307 -0.3136 -0.6746  0.6255
 8272SOL     OW32859   2.061   3.992   3.624  0.3290  0.6177  0.1569
 8272SOL    HW232860   2.028   4.016   3.537 -0.6311 -0.4563  0.2096
 8272SOL    HW332861   2.143   3.945   3.607  0.1885  0.4874 -0.1621
 8272SOL    MW432862   2.068   3.989   3.610  0.1838  0.4588  0.1218
 8273SOL     OW32863   0.194   5.894   1.812  0.3958 -0.3763 -0.7681
 8273SOL    HW232864   0.236   5.975   1.783  0.4491  0.2526  0.9419
 8273SOL    HW332865   0.118   5.924   1.863  0.9874 -1.3455  0.7321
 8273SOL    MW432866   0.189   5.909   1.815  0.4809 -0.4212 -0.3446
 8274SOL     OW32867   0.108   5.670   2.956  0.0787  0.4202  0.4404
 8274SOL    HW232868   0.023   5.701   2.989  0.5599  2.1396  0.1577
 8274SOL    HW332869   0.092   5.650   2.864 -0.0544  0.6431  0.4132
 8274SOL    MW432870   0.095   5.671   2.948  0.1246  0.6764  0.3995
 8275SOL     OW32871   5.097   1.863   4.288 -0.3685  0.4525 -0.1659
 8275SOL    HW232872   5.007   1.886   4.311 -0.9220 -1.0715 -0.6607
 8275SOL    HW332873   5.110   1.903   4.202 -0.9801 -0.2587 -0.5996
 8275SOL    MW432874   5.087   1.871   4.280 -0.5222  0.1576 -0.2884
 8276SOL     OW32875   4.216   6.398   2.893 -0.1635 -0.3613  0.2392
 8276SOL    HW232876   4.224   6.493   2.904 -2.5870  0.3387 -2.6225
 8276SOL    HW332877   4.266   6.379   2.813 -0.6805 -1.2446  0.1081
 8276SOL    MW432878   4.224   6.408   2.884 -0.5514 -0.3855 -0.1557
 8277SOL     OW32879   5.856   5.905   5.010  0.0286  0.2289 -0.4435
 8277SOL    HW232880   5.909   5.842   4.961  1.9048  0.4496  1.2150
 8277SOL    HW332881   5.888   5.991   4.982  0.0318  0.3839  0.0334
 8277SOL    MW432882   5.867   5.908   5.000  0.2766  0.2785 -0.1618
 8278SOL     OW32883   5.185   4.471   5.080  0.1244 -0.1561  0.7067
 8278SOL    HW232884   5.204   4.526   5.156 -0.6582 -1.3337  1.7991
 8278SOL    HW332885   5.142   4.394   5.116 -0.1228 -0.8352 -0.9301
 8278SOL    MW432886   5.182   4.468   5.095 -0.0115 -0.4011  0.6348
 8279SOL     OW32887   4.649   3.285   0.582  0.4114 -0.4345 -0.4107
 8279SOL    HW232888   4.649   3.352   0.651 -1.9976  1.4892 -2.1253
 8279SOL    HW332889   4.589   3.217   0.614  0.1338 -0.0776 -0.1675
 8279SOL    MW432890   4.641   3.285   0.596  0.0570 -0.1336 -0.6049
 8280SOL     OW32891   5.719   4.659   3.442 -0.2580 -0.0595  0.8524
 8280SOL    HW232892   5.785   4.597   3.473 -0.6218 -0.2030  1.3593
 8280SOL    HW332893   5.744   4.677   3.352 -0.2612 -1.1154  0.6206
 8280SOL    MW432894   5.731   4.653   3.435 -0.3064 -0.2178  0.8887
 8281SOL     OW32895   1.109   0.237   3.673  0.5405  0.6169  0.6672
 8281SOL    HW232896   1.151   0.165   3.719 -1.2679 -0.6525  0.4719
 8281SOL    HW332897   1.177   0.274   3.617  1.5058 -0.9818  0.7309
 8281SOL    MW432898   1.123   0.232   3.672  0.4292  0.2385  0.6498
 8282SOL     OW32899   5.249   6.013   0.821  0.0168 -0.0913 -0.5157
 8282SOL    HW232900   5.154   6.004   0.811  0.1192  0.1632 -1.8734
 8282SOL    HW332901   5.285   5.980   0.739  1.1236 -0.2759  0.0193
 8282SOL    MW432902   5.241   6.007   0.809  0.1763 -0.0820 -0.6242
 8283SOL     OW32903   2.589   4.810   1.892 -0.0442  0.1860 -0.1583
 8283SOL    HW232904   2.675   4.773   1.912 -0.7074 -1.1032  0.4223
 8283SOL    HW332905   2.546   4.743   1.839 -0.9300  0.5334  0.1067
 8283SOL    MW432906   2.595   4.796   1.887 -0.2485  0.0618 -0.0467
 8284SOL     OW32907   5.243   4.722   4.433  0.4077  0.2780  0.6213
 8284SOL    HW232908   5.257   4.742   4.341 -0.5498  1.9189  0.8018
 8284SOL    HW332909   5.195   4.639   4.433 -1.0490  1.0864 -0.4381
 8284SOL    MW432910   5.239   4.713   4.421  0.0892  0.6011  0.5054
 8285SOL     OW32911   0.035   0.153   5.917 -0.1495 -0.0380  0.2135
 8285SOL    HW232912  -0.005   0.240   5.917  1.2191  0.6123 -0.9426
 8285SOL    HW332913   0.127   0.167   5.895  0.6100 -1.5816  2.0487
 8285SOL    MW432914   0.042   0.166   5.914  0.1313 -0.1559  0.3031
 8286SOL     OW32915   2.700   3.793   2.368  0.1606 -0.4958  0.3006
 8286SOL    HW232916   2.699   3.698   2.382  1.7513 -0.4292  1.0272
 8286SOL    HW332917   2.745   3.829   2.444  0.9585  0.7037 -0.6980
 8286SOL    MW432918   2.706   3.785   2.380  0.4757 -0.3288  0.2647
 8287SOL     OW32919   1.418   3.228   1.396  0.1034  0.3360 -0.0096
 8287SOL    HW232920   1.332   3.254   1.363  0.2814  2.4264  1.0308
 8287SOL    HW332921   1.429   3.277   1.477  2.4630  0.4938 -0.3501
 8287SOL    MW432922   1.408   3.238   1.402  0.4382  0.6326  0.0827
 8288SOL     OW32923   6.384   3.662   5.602 -0.0373  0.3221 -0.3021
 8288SOL    HW232924   6.472   3.679   5.569  0.1189 -1.4036 -0.8968
 8288SOL    HW332925   6.330   3.654   5.524 -0.3566 -0.3837 -0.0167
 8288SOL    MW432926   6.389   3.663   5.587 -0.0588  0.0013 -0.3429
 8289SOL     OW32927   3.017   5.920   3.675  0.4477 -0.6132  0.1972
 8289SOL    HW232928   3.015   5.858   3.602  1.2952 -0.5920  0.1407
 8289SOL    HW332929   3.108   5.918   3.705  1.0248  2.0374 -1.0512
 8289SOL    MW432930   3.029   5.912   3.669  0.6357 -0.2607  0.0251
 8290SOL     OW32931   1.924   6.417   4.203  0.5982 -0.8366  0.2513
 8290SOL    HW232932   1.848   6.408   4.145 -0.4824  1.4312  1.1926
 8290SOL    HW332933   1.988   6.466   4.152 -1.2358  3.2728  1.5066
 8290SOL    MW432934   1.922   6.422   4.189  0.2136  0.0048  0.5411
 8291SOL     OW32935   1.851   0.978   1.223 -0.6495  0.5371 -0.4079
 8291SOL    HW232936   1.757   0.977   1.207 -0.8837  0.2458  0.8959
 8291SOL    HW332937   1.867   1.064   1.263 -0.0945  1.2112 -1.9881
 8291SOL    MW432938   1.841   0.990   1.226 -0.6072  0.5876 -0.4444
 8292SOL     OW32939   2.968   6.040   3.081 -0.4129  0.4027  0.6571
 8292SOL    HW232940   3.045   5.991   3.110 -0.0334  0.5928  0.0031
 8292SOL    HW332941   2.940   6.088   3.159  0.2650  0.5033  0.8500
 8292SOL    MW432942   2.975   6.040   3.095 -0.2734  0.4411  0.5963
 8293SOL     OW32943   4.638   5.830   0.270 -0.0099 -0.4474  0.4019
 8293SOL    HW232944   4.642   5.832   0.365 -1.5248  0.1033  0.4851
 8293SOL    HW332945   4.633   5.737   0.248 -2.6932 -0.5319  1.0753
 8293SOL    MW432946   4.638   5.818   0.279 -0.5638 -0.3859  0.5017
 8294SOL     OW32947   2.568   1.369   5.597  0.0716 -0.5027 -0.3615
 8294SOL    HW232948   2.540   1.338   5.683 -1.9910  2.2819  0.0948
 8294SOL    HW332949   2.491   1.361   5.541  0.4860  0.4841 -1.1207
 8294SOL    MW432950   2.554   1.364   5.601 -0.1459 -0.0051 -0.4015
 8295SOL     OW32951   0.828   3.220   4.896 -0.1814  0.5706  0.5926
 8295SOL    HW232952   0.741   3.247   4.924 -0.0075  2.0203 -0.1396
 8295SOL    HW332953   0.886   3.250   4.967 -0.2600 -0.2802  1.0203
 8295SOL    MW432954   0.824   3.228   4.909 -0.1688  0.6496  0.5524
 8296SOL     OW32955   4.691   1.232   6.242  0.0386 -0.4594 -0.1758
 8296SOL    HW232956   4.772   1.212   6.196  0.0669 -2.7082  0.7129
 8296SOL    HW332957   4.622   1.196   6.185 -0.0388 -1.7882  0.7211
 8296SOL    MW432958   4.692   1.224   6.228  0.0321 -0.9314  0.0598
 8297SOL     OW32959   3.297   3.619   4.603  0.3834 -0.1228  0.3944
 8297SOL    HW232960   3.313   3.541   4.656  2.6978  1.0593  1.6130
 8297SOL    HW332961   3.327   3.596   4.515 -0.3490 -1.0414  0.3689
 8297SOL    MW432962   3.303   3.606   4.599  0.5921 -0.0880  0.5518
 8298SOL     OW32963   2.393   1.526   5.814 -0.3801 -0.3134 -0.0428
 8298SOL    HW232964   2.345   1.518   5.896  1.0298 -1.1178  0.7414
 8298SOL    HW332965   2.485   1.514   5.839  0.3190  1.7467 -1.3972
 8298SOL    MW432966   2.399   1.524   5.828 -0.1018 -0.1477 -0.1180
 8299SOL     OW32967   1.457   4.564   1.929 -0.0885 -0.2193  0.4077
 8299SOL    HW232968   1.547   4.594   1.915 -0.8222  1.9975  0.0954
 8299SOL    HW332969   1.453   4.479   1.885  2.0937 -0.8354  1.2473
 8299SOL    MW432970   1.468   4.557   1.922  0.1026 -0.0081  0.4773
 8300SOL     OW32971   3.345   2.067   5.796 -0.2931  0.5094 -0.1684
 8300SOL    HW232972   3.428   2.108   5.821  0.2698 -1.6914  1.9359
 8300SOL    HW332973   3.363   2.028   5.710  1.0933 -0.4545  0.5225
 8300SOL    MW432974   3.359   2.067   5.788 -0.0359  0.0918  0.2004
 8301SOL     OW32975   1.620   4.433   2.475  0.0617 -0.2684 -0.3641
 8301SOL    HW232976   1.619   4.421   2.570  0.5107 -2.5904 -0.5990
 8301SOL    HW332977   1.635   4.527   2.463 -1.0066  0.2581  1.8404
 8301SOL    MW432978   1.622   4.444   2.486 -0.0200 -0.5053 -0.1042
 8302SOL     OW32979   2.468   0.228   2.897  0.7001  0.1545 -0.3905
 8302SOL    HW232980   2.537   0.233   2.963 -1.2267 -1.3167  1.9388
 8302SOL    HW332981   2.415   0.306   2.913 -0.2089 -0.5962  0.4218
 8302SOL    MW432982   2.470   0.239   2.908  0.3260 -0.1387  0.0240
 8303SOL     OW32983   2.820   4.942   3.067 -0.3517  0.4826  0.2003
 8303SOL    HW232984   2.738   4.935   3.117 -0.4981  2.5482  0.3390
 8303SOL    HW332985   2.829   5.036   3.049  1.0358  0.0796 -1.4502
 8303SOL    MW432986   2.810   4.954   3.071 -0.1880  0.7019  0.0008
 8304SOL     OW32987   6.301   1.099   1.580  0.2484 -0.1336  0.4341
 8304SOL    HW232988   6.215   1.141   1.584 -0.2730 -1.1971  1.0246
 8304SOL    HW332989   6.361   1.169   1.555 -0.8566  0.5245 -0.4891
 8304SOL    MW432990   6.297   1.114   1.577  0.0338 -0.1871  0.3902
 8305SOL     OW32991   0.317   4.014   1.653 -0.4143  0.0017 -0.3155
 8305SOL    HW232992   0.252   4.052   1.712 -0.3905  0.7510 -0.7625
 8305SOL    HW332993   0.298   4.054   1.568 -0.3679 -0.9695 -0.7935
 8305SOL    MW432994   0.306   4.024   1.649 -0.4050 -0.0276 -0.4375
 8306SOL     OW32995   5.982   4.117   5.054  0.2530 -1.1334  0.2344
 8306SOL    HW232996   6.063   4.147   5.094 -0.3591 -0.4546  1.0009
 8306SOL    HW332997   5.914   4.175   5.090 -0.5675 -1.6578 -0.4153
 8306SOL    MW432998   5.984   4.129   5.064  0.0640 -1.1130  0.2498
 8307SOL     OW32999   5.775   4.478   0.879  0.0770  0.2359 -0.3782
 8307SOL    HW233000   5.729   4.482   0.963  1.7723 -1.9213  0.7484
 8307SOL    HW333001   5.796   4.386   0.867 -0.1801  0.4698 -3.2638
 8307SOL    MW433002   5.772   4.467   0.888  0.2667 -0.0178 -0.6103
 8308SOL     OW33003   3.835   0.396   3.237  0.2968  0.3618  0.0195
 8308SOL    HW233004   3.843   0.474   3.291 -0.6131 -0.2757  1.1273
 8308SOL    HW333005   3.779   0.337   3.288  0.1311 -0.6143 -1.2330
 8308SOL    MW433006   3.828   0.399   3.251  0.1549  0.1489  0.0004
 8309SOL     OW33007   1.340   0.442   1.434  0.3827 -0.3763 -0.1461
 8309SOL    HW233008   1.313   0.428   1.343 -3.0367  0.4561  0.5875
 8309SOL    HW333009   1.300   0.525   1.458  0.4232 -1.0141  2.3910
 8309SOL    MW433010   1.331   0.451   1.425 -0.0631 -0.3507  0.2854
 8310SOL     OW33011   0.692   0.729   0.001 -0.0904  0.2640 -0.0787
 8310SOL    HW233012   0.770   0.777  -0.028 -0.1516  0.6847  0.4223
 8310SOL    HW333013   0.624   0.796   0.006 -0.0389  0.2579  1.1739
 8310SOL    MW433014   0.694   0.744  -0.002 -0.0917  0.3187  0.1527
 8311SOL     OW33015   4.075   5.803   3.563 -0.7679 -0.1538 -0.3960
 8311SOL    HW233016   4.082   5.718   3.519 -0.3803 -0.4430  0.2120
 8311SOL    HW333017   4.165   5.837   3.562 -0.9914  0.4579 -1.0260
 8311SOL    MW433018   4.088   5.796   3.557 -0.7463 -0.1112 -0.3989
 8312SOL     OW33019   6.407   0.834   0.953  0.0082 -0.1367 -0.6984
 8312SOL    HW233020   6.312   0.832   0.959 -0.0522  0.1929 -1.4221
 8312SOL    HW333021   6.425   0.853   0.861  0.7204  2.9164 -0.0372
 8312SOL    MW433022   6.397   0.836   0.942  0.0942  0.3096 -0.7066
 8313SOL     OW33023   0.578   6.368   4.585 -0.4572  0.0246 -0.3432
 8313SOL    HW233024   0.645   6.336   4.525 -0.4414  2.3872 -1.6970
 8313SOL    HW333025   0.559   6.293   4.641  1.7442 -1.3708 -1.3015
 8313SOL    MW433026   0.585   6.354   4.585 -0.1646  0.1522 -0.6483
 8314SOL     OW33027   0.460   2.409   4.992  0.2572 -0.0349  0.5039
 8314SOL    HW233028   0.452   2.488   5.045  0.0319 -0.2207  0.7461
 8314SOL    HW333029   0.456   2.337   5.055 -0.0919 -0.2609  0.2233
 8314SOL    MW433030   0.459   2.410   5.008  0.1814 -0.0892  0.4988
 8315SOL     OW33031   6.292   5.507   3.688 -0.0535  0.0093  0.0150
 8315SOL    HW233032   6.227   5.473   3.749  0.0259  0.9650  0.6601
 8315SOL    HW333033   6.246   5.512   3.604 -0.5532 -0.1121  0.2779
 8315SOL    MW433034   6.277   5.503   3.685 -0.1089  0.1194  0.1348
 8316SOL     OW33035   1.228   0.683   3.704 -0.3405  0.5625 -0.0339
 8316SOL    HW233036   1.135   0.695   3.683 -0.1720 -0.6233 -1.5902
 8316SOL    HW333037   1.228   0.617   3.774 -0.5955 -1.5387 -1.9304
 8316SOL    MW433038   1.215   0.676   3.711 -0.3519  0.1288 -0.4895
 8317SOL     OW33039   6.283   1.334   2.937 -0.2645 -0.8232  0.5188
 8317SOL    HW233040   6.289   1.239   2.947 -0.9634 -0.9169  0.1319
 8317SOL    HW333041   6.266   1.367   3.025  3.2176 -0.7283  1.2872
 8317SOL    MW433042   6.282   1.326   2.950  0.1027 -0.8230  0.5691
 8318SOL     OW33043   6.226   3.284   6.243 -0.4928  0.5577 -0.0140
 8318SOL    HW233044   6.282   3.344   6.292 -0.0892  1.0024 -0.9982
 8318SOL    HW333045   6.207   3.330   6.162  0.4107 -0.9198 -1.1096
 8318SOL    MW433046   6.231   3.298   6.239 -0.3204  0.4215 -0.2884
 8319SOL     OW33047   2.416   2.004   6.175 -0.2529  0.5458  0.1939
 8319SOL    HW233048   2.330   2.045   6.182 -0.0108  0.7107  4.0232
 8319SOL    HW333049   2.398   1.910   6.173 -0.5513  0.6138 -0.6223
 8319SOL    MW433050   2.402   1.997   6.176 -0.2603  0.5765  0.5914
 8320SOL     OW33051   1.552   1.933   3.852 -0.2251  0.3580  0.3589
 8320SOL    HW233052   1.465   1.968   3.834  0.3012  1.5256 -0.0218
 8320SOL    HW333053   1.537   1.841   3.871 -1.6255  0.7086  1.0783
 8320SOL    MW433054   1.539   1.926   3.852 -0.3405  0.5583  0.4036
 8321SOL     OW33055   4.553   5.378   1.720  0.3074 -0.4019 -0.7317
 8321SOL    HW233056   4.601   5.441   1.774  0.9221 -0.3963 -1.2705
 8321SOL    HW333057   4.491   5.337   1.780  0.2714  0.3304 -0.2524
 8321SOL    MW433058   4.551   5.381   1.735  0.3838 -0.3045 -0.7395
 8322SOL     OW33059   1.895   2.658   5.343 -0.1296 -0.3855  0.7791
 8322SOL    HW233060   1.812   2.701   5.325  0.5742  0.3406 -1.0006
 8322SOL    HW333061   1.919   2.687   5.431 -1.0455  0.5824  0.7315
 8322SOL    MW433062   1.888   2.668   5.352 -0.1576 -0.1620  0.5380
 8323SOL     OW33063   3.704   6.264   4.840 -0.5473 -0.1318  0.0921
 8323SOL    HW233064   3.685   6.186   4.788  0.5654 -0.6488  0.4431
 8323SOL    HW333065   3.765   6.235   4.908 -1.1904  0.7428  1.0939
 8323SOL    MW433066   3.709   6.250   4.843 -0.4854 -0.0846  0.2706
 8324SOL     OW33067   1.098   2.341   1.542 -0.0233 -0.1375 -0.4531
 8324SOL    HW233068   1.181   2.385   1.563  0.8294 -1.0168 -1.7897
 8324SOL    HW333069   1.039   2.412   1.516  0.0315  0.5812  1.2324
 8324SOL    MW433070   1.102   2.356   1.542  0.0965 -0.1587 -0.4071
 8325SOL     OW33071   6.070   3.693   1.437  0.5396 -0.2446 -0.2363
 8325SOL    HW233072   6.133   3.719   1.504  0.4206  1.4640 -0.7571
 8325SOL    HW333073   5.995   3.659   1.486  1.5465 -1.6775  0.4044
 8325SOL    MW433074   6.069   3.692   1.452  0.6567 -0.2083 -0.2205
 8326SOL     OW33075   4.958   4.946   6.020 -0.0776 -0.1544 -0.0795
 8326SOL    HW233076   4.960   4.946   5.925 -0.3388  0.7191 -0.0967
 8326SOL    HW333077   5.025   4.883   6.046  0.6767  0.3170 -0.8358
 8326SOL    MW433078   4.967   4.938   6.011 -0.0125  0.0231 -0.1815
 8327SOL     OW33079   5.158   4.871   5.076  0.5675  0.2372  0.3301
 8327SOL    HW233080   5.233   4.815   5.057  1.2322  1.2208 -0.0608
 8327SOL    HW333081   5.157   4.935   5.005 -0.9198 -0.0132  0.0853
 8327SOL    MW433082   5.168   4.872   5.064  0.4589  0.3339  0.2462
 8328SOL     OW33083   1.616   6.334   4.499 -0.5070 -0.4220  0.0765
 8328SOL    HW233084   1.658   6.282   4.432  0.4348 -0.2582  0.5274
 8328SOL    HW333085   1.525   6.342   4.470 -0.2463 -0.8288 -0.8762
 8328SOL    MW433086   1.609   6.328   4.487 -0.3484 -0.4541  0.0103
 8329SOL     OW33087   4.955   1.916   6.147  0.5005  0.5554  0.1007
 8329SOL    HW233088   4.873   1.947   6.184 -0.7447 -2.5201  0.2019
 8329SOL    HW333089   4.979   1.841   6.202  2.9781  0.8878 -0.4161
 8329SOL    MW433090   4.948   1.910   6.159  0.6631  0.1935  0.0459
 8330SOL     OW33091   4.668   3.143   3.287 -0.4784 -0.1060  0.0141
 8330SOL    HW233092   4.625   3.145   3.372 -2.6499  1.7335 -1.0212
 8330SOL    HW333093   4.674   3.050   3.265 -1.4395 -0.5314  1.4348
 8330SOL    MW433094   4.663   3.131   3.295 -0.8917  0.0806  0.0650
 8331SOL     OW33095   4.576   0.713   0.779  0.1202  0.0376  0.1083
 8331SOL    HW233096   4.618   0.698   0.863  2.4952 -0.6585 -1.1055
 8331SOL    HW333097   4.524   0.634   0.763 -1.3406  0.6831  1.3914
 8331SOL    MW433098   4.575   0.701   0.788  0.2408  0.0310  0.1174
 8332SOL     OW33099   3.489   0.352   6.197  0.3132  0.0470  0.4590
 8332SOL    HW233100   3.417   0.311   6.148  0.2182  0.1349  0.5226
 8332SOL    HW333101   3.568   0.312   6.162  0.4627  1.9530 -1.6352
 8332SOL    MW433102   3.490   0.341   6.186  0.3204  0.3101  0.1911
 8333SOL     OW33103   5.148   0.198   3.682  0.2942  0.2421  0.1496
 8333SOL    HW233104   5.166   0.227   3.771  0.0104 -0.2570  0.3701
 8333SOL    HW333105   5.130   0.279   3.634 -1.7217  0.3905  1.0372
 8333SOL    MW433106   5.148   0.213   3.687 -0.0092  0.1958  0.2958
 8334SOL     OW33107   5.565   3.527   5.564  0.5194  0.3570  0.2019
 8334SOL    HW233108   5.593   3.617   5.582  1.2740  0.3344 -0.7673
 8334SOL    HW333109   5.472   3.535   5.542  0.0992  0.6401  1.9406
 8334SOL    MW433110   5.556   3.540   5.563  0.5635  0.3913  0.3034
 8335SOL     OW33111   0.620   3.640   0.315 -0.6255  0.3697 -0.2068
 8335SOL    HW233112   0.699   3.676   0.274 -0.1170 -0.3108  0.1516
 8335SOL    HW333113   0.650   3.607   0.400 -1.3776  0.4617  0.1020
 8335SOL    MW433114   0.635   3.640   0.321 -0.6576  0.2921 -0.1188
 8336SOL     OW33115   1.280   2.400   3.032  0.7267  0.2536 -0.5306
 8336SOL    HW233116   1.355   2.459   3.026  1.5613 -0.5110  1.5174
 8336SOL    HW333117   1.209   2.456   3.063  1.0482  0.5459 -0.3020
 8336SOL    MW433118   1.281   2.415   3.036  0.8792  0.1913 -0.2302
 8337SOL     OW33119   2.300   5.443   3.835 -0.3741 -0.3394  0.1353
 8337SOL    HW233120   2.305   5.352   3.806 -0.1185 -0.4964  0.6499
 8337SOL    HW333121   2.281   5.436   3.929  1.2742  0.1114  0.5309
 8337SOL    MW433122   2.298   5.430   3.844 -0.1229 -0.3006  0.2554
 8338SOL     OW33123   1.547   1.923   2.874 -0.0745  0.3021 -0.2423
 8338SOL    HW233124   1.612   1.989   2.900 -0.4383  1.0292 -1.1068
 8338SOL    HW333125   1.465   1.971   2.869 -1.0903 -0.9536  2.5295
 8338SOL    MW433126   1.545   1.938   2.877 -0.2566  0.2324  0.0093
 8339SOL     OW33127   2.722   2.102   4.631  0.1574 -0.0272 -0.1453
 8339SOL    HW233128   2.765   2.039   4.572 -0.8010 -0.1166 -0.7751
 8339SOL    HW333129   2.686   2.169   4.572  0.2608  0.5545  0.4412
 8339SOL    MW433130   2.723   2.103   4.615  0.0446  0.0378 -0.1510
 8340SOL     OW33131   1.394   0.024   1.943  0.0064  0.5134  0.2775
 8340SOL    HW233132   1.405  -0.039   1.872 -1.3942 -0.7525  1.1329
 8340SOL    HW333133   1.372   0.106   1.898  0.3744  0.0476 -0.7915
 8340SOL    MW433134   1.393   0.027   1.928 -0.1299  0.2850  0.2493
 8341SOL     OW33135   4.341   5.285   0.644 -0.2879 -0.0245 -0.1191
 8341SOL    HW233136   4.261   5.284   0.696 -0.1340 -1.7372  0.1530
 8341SOL    HW333137   4.361   5.193   0.630 -0.1453  0.3583 -2.9770
 8341SOL    MW433138   4.333   5.273   0.649 -0.2488 -0.1999 -0.4603
 8342SOL     OW33139   2.509   3.834   0.117  0.4085  0.4833  0.0796
 8342SOL    HW233140   2.511   3.921   0.157 -1.8926  1.1508 -1.0828
 8342SOL    HW333141   2.435   3.837   0.056 -0.8427 -2.7844  1.1970
 8342SOL    MW433142   2.499   3.846   0.114 -0.0602  0.1402  0.0737
 8343SOL     OW33143   1.536   3.995   3.702 -0.2438 -0.1312  0.4297
 8343SOL    HW233144   1.444   3.970   3.698  0.1346 -1.4188 -1.2856
 8343SOL    HW333145   1.581   3.915   3.728  0.2691  0.9952  3.3901
 8343SOL    MW433146   1.530   3.981   3.705 -0.1262 -0.1524  0.5940
 8344SOL     OW33147   4.196   0.319   4.049  0.0997 -0.2080  0.1265
 8344SOL    HW233148   4.263   0.312   3.981  0.5442 -0.2156  0.5556
 8344SOL    HW333149   4.129   0.375   4.011  1.3537  1.6406  0.4637
 8344SOL    MW433150   4.196   0.325   4.035  0.3238  0.0349  0.2276
 8345SOL     OW33151   4.448   2.225   0.487  0.5698  0.2548 -0.8228
 8345SOL    HW233152   4.490   2.294   0.434  1.0789  0.6081  0.0171
 8345SOL    HW333153   4.434   2.153   0.426  0.3451  0.9769 -1.6414
 8345SOL    MW433154   4.452   2.225   0.472  0.6073  0.3967 -0.8200
 8346SOL     OW33155   5.817   6.284   3.097 -0.1516 -0.1891 -0.2700
 8346SOL    HW233156   5.724   6.270   3.075 -0.0911  0.4229 -0.9558
 8346SOL    HW333157   5.824   6.377   3.115  0.2546 -0.3059  0.1742
 8346SOL    MW433158   5.806   6.294   3.096 -0.0900 -0.1238 -0.3018
 8347SOL     OW33159   2.136   0.160   6.317  0.0912 -0.1584  0.1755
 8347SOL    HW233160   2.148   0.230   6.252 -1.5666  1.0150  1.0507
 8347SOL    HW333161   2.215   0.164   6.371  1.6563 -1.3650 -1.8534
 8347SOL    MW433162   2.148   0.170   6.315  0.0789 -0.1628  0.0233
 8348SOL     OW33163   4.631   1.156   2.398 -0.0241  0.1544  0.0677
 8348SOL    HW233164   4.567   1.186   2.334  0.6143 -0.6879 -0.9958
 8348SOL    HW333165   4.716   1.163   2.353  0.3284 -1.4569  0.4015
 8348SOL    MW433166   4.634   1.161   2.384  0.1066 -0.1694 -0.0286
 8349SOL     OW33167   2.360   6.348   5.538  0.0394 -0.4199 -0.2595
 8349SOL    HW233168   2.432   6.288   5.517 -0.7923 -0.8115 -2.2337
 8349SOL    HW333169   2.347   6.398   5.458 -1.0486  0.5386  0.4955
 8349SOL    MW433170   2.368   6.346   5.525 -0.2139 -0.3451 -0.4204
 8350SOL     OW33171   0.516   6.189   5.200  0.4627 -0.5550 -0.3747
 8350SOL    HW233172   0.589   6.241   5.167 -1.0522  1.9492  0.0024
 8350SOL    HW333173   0.438   6.227   5.158 -0.9199 -1.1220  1.5307
 8350SOL    MW433174   0.515   6.201   5.190  0.0804 -0.2994 -0.0735
 8351SOL     OW33175   3.105   2.786   5.529 -0.5099  0.4381  0.3800
 8351SOL    HW233176   3.052   2.710   5.553 -0.2175  0.1043 -0.0226
 8351SOL    HW333177   3.195   2.756   5.537 -0.3835  0.9079  0.7436
 8351SOL    MW433178   3.110   2.772   5.533 -0.4547  0.4560  0.3749
 8352SOL     OW33179   2.624   2.343   5.243  0.3704 -0.1142 -0.3510
 8352SOL    HW233180   2.610   2.313   5.154  1.5664  0.3628 -0.7188
 8352SOL    HW333181   2.544   2.390   5.266  0.5446  0.8522 -1.6397
 8352SOL    MW433182   2.612   2.345   5.234  0.5512  0.0762 -0.5695
 8353SOL     OW33183   1.293   1.303   3.900 -0.0508 -0.2840 -0.1868
 8353SOL    HW233184   1.234   1.335   3.969 -0.1400  1.0976 -0.8566
 8353SOL    HW333185   1.236   1.253   3.842 -0.0874 -0.9655  0.4223
 8353SOL    MW433186   1.277   1.301   3.902 -0.0674 -0.1916 -0.1948
 8354SOL     OW33187   3.089   6.349   1.684  0.0960 -0.1264 -0.7215
 8354SOL    HW233188   3.105   6.264   1.725  0.3375  1.4385  2.7837
 8354SOL    HW333189   2.995   6.363   1.691  0.3542  1.0207  1.4737
 8354SOL    MW433190   3.079   6.340   1.691  0.1619  0.2314  0.0306
 8355SOL     OW33191   4.633   4.882   2.763  0.1970 -0.1373 -0.0314
 8355SOL    HW233192   4.638   4.817   2.693  1.4829 -0.3390  0.2160
 8355SOL    HW333193   4.690   4.953   2.734 -1.1880  0.9025 -0.2907
 8355SOL    MW433194   4.641   4.883   2.750  0.1839 -0.0267 -0.0329
 8356SOL     OW33195   0.482   2.597   1.825  0.2745 -0.3316  0.0057
 8356SOL    HW233196   0.563   2.610   1.777  1.8810 -1.0408  2.3226
 8356SOL    HW333197   0.467   2.502   1.822  0.0438 -0.3076  0.3104
 8356SOL    MW433198   0.491   2.586   1.819  0.4560 -0.4220  0.3516
 8357SOL     OW33199   2.566   5.655   4.470 -0.1119  0.1735  0.2142
 8357SOL    HW233200   2.527   5.596   4.534 -2.5564 -0.5226 -1.7897
 8357SOL    HW333201   2.515   5.736   4.478  0.3971  0.5230 -0.0183
 8357SOL    MW433202   2.554   5.658   4.480 -0.3672  0.1278 -0.0809
 8358SOL     OW33203   5.759   5.524   4.290  0.2040  0.0953  0.0919
 8358SOL    HW233204   5.698   5.569   4.349  0.2485  0.3118 -0.0267
 8358SOL    HW333205   5.708   5.507   4.211  0.4117  0.6404 -0.1640
 8358SOL    MW433206   5.744   5.528   4.288  0.2373  0.1958  0.0425
 8359SOL     OW33207   2.171   2.783   3.936 -0.6684 -0.1994  0.2036
 8359SOL    HW233208   2.243   2.795   3.874 -1.3446  0.5018 -0.4609
 8359SOL    HW333209   2.183   2.694   3.969  0.6617  0.0053  0.3113
 8359SOL    MW433210   2.182   2.773   3.932 -0.5821 -0.0799  0.1301
 8360SOL     OW33211   0.520   3.274   1.628  0.2536  0.0864  0.8441
 8360SOL    HW233212   0.493   3.366   1.639 -0.4109  0.1307 -0.8279
 8360SOL    HW333213   0.439   3.228   1.608  0.8226 -0.5321 -0.1296
 8360SOL    MW433214   0.506   3.280   1.627  0.2410  0.0107  0.4950
 8361SOL     OW33215   5.899   5.691   5.266  0.4320 -0.7212 -0.3100
 8361SOL    HW233216   5.838   5.646   5.325  0.9397  1.4976  2.1158
 8361SOL    HW333217   5.971   5.629   5.254 -0.7940 -2.1494 -0.6074
 8361SOL    MW433218   5.900   5.677   5.272  0.3372 -0.6169 -0.0292
 8362SOL     OW33219   0.259   3.328   3.939  0.4794 -0.1092 -0.3713
 8362SOL    HW233220   0.289   3.263   3.876  1.7851  1.2722 -1.2485
 8362SOL    HW333221   0.168   3.345   3.915  0.2734 -1.2165 -0.4393
 8362SOL    MW433222   0.251   3.322   3.928  0.6245 -0.0730 -0.4960
 8363SOL     OW33223   6.179   5.534   4.536  0.2709  0.3841 -0.2547
 8363SOL    HW233224   6.143   5.578   4.459  0.1694  1.2205  0.2640
 8363SOL    HW333225   6.259   5.583   4.557  0.7630 -0.3646 -0.3260
 8363SOL    MW433226   6.185   5.546   4.529  0.3224  0.3957 -0.1957
 8364SOL     OW33227   3.623   2.107   1.619  0.2419 -0.5298  0.5332
 8364SOL    HW233228   3.670   2.160   1.555 -0.9757  0.5944  0.5220
 8364SOL    HW333229   3.658   2.019   1.608  1.8835  0.1401  0.1207
 8364SOL    MW433230   3.634   2.102   1.610  0.2978 -0.2931  0.4773
 8365SOL     OW33231   1.616   4.553   5.895 -0.3008 -0.4832 -0.0554
 8365SOL    HW233232   1.654   4.467   5.874 -0.6353 -0.6460  0.0066
 8365SOL    HW333233   1.670   4.585   5.967  0.0657 -0.4716 -0.3292
 8365SOL    MW433234   1.628   4.546   5.902 -0.2966 -0.5031 -0.0834
 8366SOL     OW33235   1.837   2.507   0.840 -1.0944 -0.4928 -0.6407
 8366SOL    HW233236   1.854   2.479   0.750  1.1094  0.2903 -0.5071
 8366SOL    HW333237   1.847   2.602   0.838 -1.1224 -0.4577  0.4315
 8366SOL    MW433238   1.840   2.516   0.828 -0.8073 -0.3848 -0.4816
 8367SOL     OW33239   2.629   4.704   2.290 -0.3589 -0.5667  0.2564
 8367SOL    HW233240   2.672   4.619   2.282 -0.6881 -0.9788  2.2838
 8367SOL    HW333241   2.627   4.721   2.384  0.7767  2.2789 -0.1337
 8367SOL    MW433242   2.634   4.695   2.301 -0.2525 -0.2456  0.4724
 8368SOL     OW33243   5.425   4.730   3.719 -0.0375  0.1793 -0.4407
 8368SOL    HW233244   5.424   4.647   3.672 -0.0477  0.6117 -1.2259
 8368SOL    HW333245   5.388   4.793   3.657 -0.8318  0.6145  0.4484
 8368SOL    MW433246   5.420   4.728   3.705 -0.1437  0.2937 -0.4270
 8369SOL     OW33247   4.940   6.138   6.070  0.1809 -0.5252  0.6553
 8369SOL    HW233248   4.856   6.095   6.059 -0.7252  1.2800  0.1193
 8369SOL    HW333249   4.991   6.078   6.125 -1.5196 -1.5408  1.1911
 8369SOL    MW433250   4.936   6.124   6.075 -0.1630 -0.4210  0.6553
 8370SOL     OW33251   6.132   3.533   1.761  0.2127 -0.0113  0.2136
 8370SOL    HW233252   6.166   3.459   1.813 -0.6990 -0.2490  0.4779
 8370SOL    HW333253   6.211   3.583   1.738  0.8219 -0.9224  0.2461
 8370SOL    MW433254   6.147   3.530   1.765  0.1728 -0.1628  0.2528
 8371SOL     OW33255   5.047   4.382   3.174  0.2592  0.4432 -0.1734
 8371SOL    HW233256   4.980   4.441   3.209 -0.2352  0.9792 -1.9037
 8371SOL    HW333257   5.009   4.350   3.092  0.2932 -2.7007  0.9189
 8371SOL    MW433258   5.033   4.385   3.168  0.1985  0.0991 -0.2576
 8372SOL     OW33259   2.764   4.009   6.356  1.0123  0.8020 -0.7093
 8372SOL    HW233260   2.688   4.043   6.404  1.1116  2.2569 -1.5351
 8372SOL    HW333261   2.731   3.931   6.311  0.7287 -0.1756  1.0976
 8372SOL    MW433262   2.749   4.003   6.357  0.9880  0.8649 -0.5799
 8373SOL     OW33263   3.678   1.404   3.103 -0.1389 -0.1013 -0.4620
 8373SOL    HW233264   3.731   1.391   3.024  0.1000  1.0416 -0.5061
 8373SOL    HW333265   3.740   1.398   3.175 -0.2842 -0.6993 -0.3806
 8373SOL    MW433266   3.693   1.402   3.102 -0.1266 -0.0294 -0.4571
 8374SOL     OW33267   1.211   2.441   5.498  0.0694  0.2044  0.0135
 8374SOL    HW233268   1.124   2.421   5.531 -0.7547  0.7041 -1.7820
 8374SOL    HW333269   1.198   2.510   5.434  1.6800 -0.3170 -0.9441
 8374SOL    MW433270   1.198   2.448   5.494  0.1731  0.2015 -0.3497
 8375SOL     OW33271   0.375   2.572   1.217 -0.2150  0.1133 -0.3705
 8375SOL    HW233272   0.401   2.534   1.133 -0.7272  1.5611 -1.2171
 8375SOL    HW333273   0.310   2.638   1.195 -0.3231  0.5682  1.1680
 8375SOL    MW433274   0.370   2.575   1.203 -0.2968  0.3643 -0.2792
 8376SOL     OW33275   0.308   3.241   5.716 -0.3624 -0.2180  0.4415
 8376SOL    HW233276   0.342   3.152   5.725 -1.1447 -0.3490  2.9330
 8376SOL    HW333277   0.372   3.285   5.661 -0.3507 -2.4837 -1.5257
 8376SOL    MW433278   0.321   3.235   5.710 -0.4641 -0.5342  0.5107
 8377SOL     OW33279   4.849   0.841   1.384 -0.3229  0.0483  0.8152
 8377SOL    HW233280   4.934   0.799   1.397 -1.2402 -2.7198 -1.2465
 8377SOL    HW333281   4.835   0.838   1.290 -1.2743  3.6288  0.6823
 8377SOL    MW433282   4.858   0.835   1.373 -0.5695  0.1555  0.5257
 8378SOL     OW33283   1.570   0.981   6.314  1.0156 -0.0407 -0.3728
 8378SOL    HW233284   1.590   0.956   6.223  0.0023  0.3541 -0.7156
 8378SOL    HW333285   1.492   1.036   6.307  1.7700  1.2025  0.6033
 8378SOL    MW433286   1.562   0.985   6.301  0.9815  0.1755 -0.2892
 8379SOL     OW33287   2.354   4.754   4.756  0.4293 -0.5885  0.5244
 8379SOL    HW233288   2.340   4.684   4.692  3.1670 -0.4029 -0.4282
 8379SOL    HW333289   2.450   4.762   4.762  0.2300  2.2843  1.4843
 8379SOL    MW433290   2.365   4.746   4.749  0.7642 -0.1850  0.5254
 8380SOL     OW33291   1.798   4.669   1.982 -0.6154  0.1742 -0.4760
 8380SOL    HW233292   1.854   4.603   2.023 -0.5710  0.0082 -0.8039
 8380SOL    HW333293   1.852   4.749   1.983 -1.4518  0.8054  1.9159
 8380SOL    MW433294   1.813   4.671   1.988 -0.7199  0.2356 -0.2037
 8381SOL     OW33295   4.953   2.886   0.660 -0.2695 -0.0049 -0.3536
 8381SOL    HW233296   4.923   2.968   0.700 -0.8866 -0.3515 -0.0833
 8381SOL    HW333297   4.879   2.859   0.606  0.2923  0.0930 -1.1755
 8381SOL    MW433298   4.939   2.893   0.658 -0.2768 -0.0377 -0.4264
 8382SOL     OW33299   1.351   5.169   2.978  0.5513  0.1120  0.1341
 8382SOL    HW233300   1.359   5.151   2.884  0.3133  2.1015 -0.3049
 8382SOL    HW333301   1.441   5.182   3.008  0.7861 -2.1880  0.5903
 8382SOL    MW433302   1.364   5.168   2.969  0.5508  0.0711  0.1363
 8383SOL     OW33303   0.174   5.903   5.153  0.3822 -0.1437 -0.0765
 8383SOL    HW233304   0.155   5.837   5.086 -1.1095  0.7963 -0.6321
 8383SOL    HW333305   0.254   5.872   5.195  0.6988 -1.3778 -1.4971
 8383SOL    MW433306   0.182   5.890   5.150  0.2271 -0.1825 -0.3372
 8384SOL     OW33307   5.559   3.953   3.568  0.3928  0.3649  0.0520
 8384SOL    HW233308   5.579   3.910   3.484 -1.0447 -0.0452 -0.0980
 8384SOL    HW333309   5.556   4.046   3.546 -2.1382  0.1331 -0.8753
 8384SOL    MW433310   5.561   3.960   3.554 -0.1308  0.2802 -0.0901
 8385SOL     OW33311   0.493   0.457   5.087  0.4462  0.6430 -0.2790
 8385SOL    HW233312   0.458   0.406   5.014  0.4519  0.6267 -0.2703
 8385SOL    HW333313   0.494   0.548   5.055 -0.6044  0.7982  0.0971
 8385SOL    MW433314   0.488   0.462   5.073  0.3084  0.6613 -0.2282
 8386SOL     OW33315   3.317   1.495   1.197  0.0386  0.2310 -0.3439
 8386SOL    HW233316   3.351   1.412   1.164  0.4410 -0.0644  0.7818
 8386SOL    HW333317   3.378   1.520   1.266 -2.0053 -0.3337  1.7748
 8386SOL    MW433318   3.329   1.488   1.202 -0.1779  0.1175  0.0842
 8387SOL     OW33319   5.906   4.245   1.859  0.2116  0.3235  0.2030
 8387SOL    HW233320   5.967   4.230   1.787 -2.4145 -1.4292 -1.8813
 8387SOL    HW333321   5.904   4.340   1.870  0.0827  0.7696 -2.7378
 8387SOL    MW433322   5.914   4.255   1.851 -0.1519  0.1511 -0.4600
 8388SOL     OW33323   5.453   3.089   5.992  0.0220  1.0043  0.0709
 8388SOL    HW233324   5.542   3.126   5.992 -0.7600  3.0634  0.6728
 8388SOL    HW333325   5.419   3.110   6.080 -1.4143  1.2465 -0.5193
 8388SOL    MW433326   5.461   3.097   6.004 -0.2706  1.3079  0.0724
 8389SOL     OW33327   5.408   0.241   1.300 -0.6086  0.0558  0.1260
 8389SOL    HW233328   5.352   0.164   1.313 -1.6463  1.0496  1.9244
 8389SOL    HW333329   5.480   0.230   1.362 -0.8647  0.5990  0.5324
 8389SOL    MW433330   5.410   0.230   1.310 -0.7793  0.2586  0.4169
 8390SOL     OW33331   2.752   4.588   6.262 -0.0211 -0.1016 -0.0665
 8390SOL    HW233332   2.776   4.589   6.355  1.2792 -0.9994 -0.3565
 8390SOL    HW333333   2.696   4.511   6.253  0.7485 -0.6669 -0.1975
 8390SOL    MW433334   2.748   4.578   6.273  0.2520 -0.2947 -0.1220
 8391SOL     OW33335   0.370   3.839   1.258 -0.0046  0.2094 -0.0438
 8391SOL    HW233336   0.407   3.886   1.333  1.4121 -2.2802  0.9740
 8391SOL    HW333337   0.446   3.807   1.210 -0.8713 -0.7953 -0.8049
 8391SOL    MW433338   0.385   3.841   1.262  0.0680 -0.2516 -0.0099
 8392SOL     OW33339   3.854   1.591   2.690 -0.5569 -0.7715  1.1093
 8392SOL    HW233340   3.946   1.570   2.702 -0.2263  0.4463  0.8261
 8392SOL    HW333341   3.846   1.683   2.715 -1.0704  0.0490 -1.6346
 8392SOL    MW433342   3.865   1.600   2.695 -0.5810 -0.5025  0.7099
 8393SOL     OW33343   5.772   6.244   3.374  0.0659 -0.0409  0.3299
 8393SOL    HW233344   5.835   6.253   3.303 -1.8564  1.9505 -1.2789
 8393SOL    HW333345   5.740   6.333   3.389 -2.1642 -0.9211  1.2392
 8393SOL    MW433346   5.776   6.257   3.367 -0.4820  0.1057  0.2376
 8394SOL     OW33347   0.524   1.318   4.586  0.0495  0.0076  0.7966
 8394SOL    HW233348   0.578   1.259   4.533 -0.1648 -0.4603  1.0854
 8394SOL    HW333349   0.476   1.370   4.522  0.8474  0.4412  0.5343
 8394SOL    MW433350   0.525   1.317   4.571  0.1265  0.0031  0.8001
 8395SOL     OW33351   5.661   4.870   3.732  0.0581  0.3157  0.3505
 8395SOL    HW233352   5.744   4.822   3.733 -0.3379 -0.4185  2.3622
 8395SOL    HW333353   5.594   4.802   3.735 -0.5984  0.9337 -0.1040
 8395SOL    MW433354   5.663   4.855   3.733 -0.0808  0.3003  0.5559
 8396SOL     OW33355   4.004   3.125   5.773 -0.4659 -0.0408 -0.0549
 8396SOL    HW233356   3.936   3.101   5.836 -0.7883  0.1530 -0.3231
 8396SOL    HW333357   3.958   3.176   5.706 -0.0407  0.1591 -0.2001
 8396SOL    MW433358   3.989   3.128   5.772 -0.4523  0.0111 -0.1094
 8397SOL     OW33359   1.553   3.463   3.226  0.4155 -0.7112  0.2568
 8397SOL    HW233360   1.492   3.391   3.211 -0.8488  0.2791  0.4802
 8397SOL    HW333361   1.500   3.542   3.213  1.2537  0.1833  2.0452
 8397SOL    MW433362   1.538   3.464   3.222  0.3593 -0.4625  0.5222
 8398SOL     OW33363   5.047   4.799   4.755  0.1333  0.7252  0.2162
 8398SOL    HW233364   5.067   4.872   4.812  0.0720  1.1450 -0.2911
 8398SOL    HW333365   4.962   4.767   4.786  1.1735 -0.5721  1.8696
 8398SOL    MW433366   5.038   4.804   4.766  0.2624  0.6094  0.3674
 8399SOL     OW33367   3.392   6.133   5.464 -0.0312  0.5202 -0.2263
 8399SOL    HW233368   3.472   6.117   5.413 -0.0439  0.4938 -0.2378
 8399SOL    HW333369   3.423   6.150   5.553 -0.0364  0.1232 -0.1461
 8399SOL    MW433370   3.407   6.133   5.469 -0.0336  0.4643 -0.2172
 8400SOL     OW33371   1.674   0.674   2.219  0.6001  0.0759 -0.0301
 8400SOL    HW233372   1.663   0.593   2.169 -2.2081 -0.8802  1.8851
 8400SOL    HW333373   1.696   0.645   2.307 -0.6143  1.3553  0.7277
 8400SOL    MW433374   1.676   0.659   2.224  0.0694  0.1185  0.3225
 8401SOL     OW33375   1.755   1.257   1.368  0.0511 -0.2220  0.5562
 8401SOL    HW233376   1.825   1.314   1.335 -1.2354  1.4188  0.5522
 8401SOL    HW333377   1.792   1.218   1.447  0.6103  1.4431  1.1521
 8401SOL    MW433378   1.769   1.259   1.374 -0.0449  0.2142  0.6343
 8402SOL     OW33379   3.522   0.314   4.576 -0.0567 -0.0614  0.1734
 8402SOL    HW233380   3.446   0.368   4.596 -0.2411 -0.9445  2.0359
 8402SOL    HW333381   3.562   0.356   4.500 -2.0430  0.7783 -0.4876
 8402SOL    MW433382   3.517   0.326   4.568 -0.3431 -0.0671  0.3319
 8403SOL     OW33383   3.550   2.237   2.605 -0.4624  0.1704  0.2260
 8403SOL    HW233384   3.585   2.166   2.551  0.7407  1.0219 -0.1343
 8403SOL    HW333385   3.457   2.215   2.615 -0.6397 -0.2322 -1.8595
 8403SOL    MW433386   3.542   2.225   2.599 -0.3271  0.2297 -0.0967
 8404SOL     OW33387   0.363   2.924   2.720  0.0085  0.0759  0.2287
 8404SOL    HW233388   0.455   2.925   2.693  0.4503 -0.8575  1.5986
 8404SOL    HW333389   0.344   3.014   2.746  0.9019  0.0341  1.0811
 8404SOL    MW433390   0.372   2.936   2.720  0.1846 -0.0527  0.5219
 8405SOL     OW33391   2.816   3.468   6.182 -0.0527  0.4367  0.7873
 8405SOL    HW233392   2.841   3.404   6.250 -0.4559  2.3480  2.8538
 8405SOL    HW333393   2.743   3.427   6.136 -0.3351 -0.5905  2.0878
 8405SOL    MW433394   2.810   3.454   6.185 -0.1431  0.5534  1.2315
 8406SOL     OW33395   3.174   3.140   4.224 -0.1270 -0.3068 -0.4706
 8406SOL    HW233396   3.223   3.150   4.305  1.6092  0.8591 -1.5768
 8406SOL    HW333397   3.154   3.230   4.196 -0.2094 -0.6519 -1.5910
 8406SOL    MW433398   3.178   3.153   4.231  0.0912 -0.1985 -0.7643
 8407SOL     OW33399   1.938   0.484   0.279 -0.5079 -0.3300  0.1831
 8407SOL    HW233400   1.930   0.574   0.247 -2.5195 -0.5400 -0.0185
 8407SOL    HW333401   1.867   0.436   0.235  0.7364 -2.1193 -0.0008
 8407SOL    MW433402   1.927   0.490   0.269 -0.6091 -0.5938  0.1323
 8408SOL     OW33403   0.868   6.189   0.056 -0.2444  0.1848  0.2695
 8408SOL    HW233404   0.910   6.137   0.125 -0.2834  1.5488  1.3610
 8408SOL    HW333405   0.914   6.272   0.057 -0.8456  0.5522 -0.7551
 8408SOL    MW433406   0.880   6.193   0.065 -0.3288  0.4132  0.2783
 8409SOL     OW33407   4.274   6.076   6.212  0.4684  0.4878 -0.2317
 8409SOL    HW233408   4.318   5.998   6.247  1.6346  0.5720 -1.4156
 8409SOL    HW333409   4.203   6.041   6.158  0.9839  0.2351 -0.7523
 8409SOL    MW433410   4.270   6.061   6.209  0.6903  0.4655 -0.4566
 8410SOL     OW33411   1.435   2.660   4.001  0.9586 -0.2970  0.7056
 8410SOL    HW233412   1.495   2.587   4.016 -0.1367 -1.5220 -0.6321
 8410SOL    HW333413   1.466   2.728   4.061  2.5633 -1.5145  1.3527
 8410SOL    MW433414   1.447   2.659   4.011  1.0258 -0.6192  0.6145
 8411SOL     OW33415   2.816   0.739   3.480  0.4352  0.0925 -0.2114
 8411SOL    HW233416   2.769   0.684   3.543 -0.1610  1.4820  0.5914
 8411SOL    HW333417   2.885   0.682   3.446  0.9692 -0.6112  1.9092
 8411SOL    MW433418   2.819   0.724   3.484  0.4270  0.1830  0.1743
 8412SOL     OW33419   5.474   3.243   2.243 -0.2635 -0.2638  0.3274
 8412SOL    HW233420   5.525   3.176   2.198 -0.2512  0.0085 -0.0674
 8412SOL    HW333421   5.405   3.266   2.180 -0.7752 -0.5143  0.7909
 8412SOL    MW433422   5.471   3.237   2.229 -0.3294 -0.2609  0.3365
 8413SOL     OW33423   3.308   6.246   1.525  0.5062 -0.2675 -0.0206
 8413SOL    HW233424   3.351   6.270   1.443  0.1312 -1.9938 -0.7579
 8413SOL    HW333425   3.224   6.291   1.522  0.7881  0.2534 -0.2369
 8413SOL    MW433426   3.303   6.255   1.514  0.4939 -0.4266 -0.1464
 8414SOL     OW33427   0.488   2.149   2.971 -0.0203  0.0740  0.1470
 8414SOL    HW233428   0.544   2.227   2.966 -0.6192  0.6555  1.8357
 8414SOL    HW333429   0.415   2.176   3.026 -1.2670 -1.1008 -0.8713
 8414SOL    MW433430   0.486   2.163   2.978 -0.2638 -0.0043  0.2354
 8415SOL     OW33431   0.509   6.233   1.150  0.4364 -0.5391  0.0991
 8415SOL    HW233432   0.571   6.181   1.201  0.2819 -1.6298 -0.7955
 8415SOL    HW333433   0.456   6.169   1.103 -1.3408  0.3690  0.7779
 8415SOL    MW433434   0.510   6.218   1.151  0.1816 -0.5632  0.0706
 8416SOL     OW33435   1.990   2.826   5.128  0.3152  0.2529  0.6651
 8416SOL    HW233436   1.973   2.751   5.185  0.1203  1.1793  1.8641
 8416SOL    HW333437   1.940   2.898   5.167  2.3861  1.6108  0.9616
 8416SOL    MW433438   1.981   2.825   5.141  0.5627  0.5543  0.8624
 8417SOL     OW33439   1.917   1.175   3.806 -0.7543 -0.4263  0.0032
 8417SOL    HW233440   1.976   1.143   3.874 -1.2713 -1.4357 -0.0040
 8417SOL    HW333441   1.973   1.228   3.749 -0.4181  0.8539  1.4563
 8417SOL    MW433442   1.932   1.178   3.807 -0.7782 -0.3906  0.1939
 8418SOL     OW33443   2.337   1.446   4.295  0.3341  0.0637  0.6619
 8418SOL    HW233444   2.335   1.403   4.209 -1.4322  0.4555  0.4769
 8418SOL    HW333445   2.430   1.466   4.309  0.5865  0.7763 -1.5553
 8418SOL    MW433446   2.349   1.443   4.285  0.1344  0.2094  0.3450
 8419SOL     OW33447   4.894   3.785   5.178  0.4424  0.0995  0.0744
 8419SOL    HW233448   4.928   3.696   5.167  0.1710  0.0155 -0.0799
 8419SOL    HW333449   4.799   3.776   5.170  0.4832  0.5712 -1.1001
 8419SOL    MW433450   4.886   3.772   5.175  0.4120  0.1507 -0.1009
 8420SOL     OW33451   2.714   0.461   4.517 -0.0905 -0.2354  0.3616
 8420SOL    HW233452   2.809   0.472   4.521  0.2918 -2.3280 -1.0531
 8420SOL    HW333453   2.682   0.540   4.474  0.7069  1.5050  2.7998
 8420SOL    MW433454   2.723   0.473   4.512  0.0651 -0.2819  0.4966
 8421SOL     OW33455   2.970   0.211   0.501  0.0481 -0.1997  0.7735
 8421SOL    HW233456   2.912   0.235   0.573 -0.3373 -3.1213  1.5610
 8421SOL    HW333457   3.020   0.137   0.535 -1.0126 -2.5094 -2.2655
 8421SOL    MW433458   2.969   0.204   0.515 -0.1427 -0.8899  0.4764
 8422SOL     OW33459   5.393   3.153   1.856 -0.4128  0.2817 -0.0036
 8422SOL    HW233460   5.312   3.178   1.901 -1.2704 -0.6592 -0.9390
 8422SOL    HW333461   5.400   3.059   1.871  0.8538  0.4550  0.5675
 8422SOL    MW433462   5.383   3.144   1.864 -0.3589  0.1804 -0.0517
 8423SOL     OW33463   6.347   2.496   0.523  0.1269  0.4954  0.5064
 8423SOL    HW233464   6.304   2.490   0.437 -3.0179 -1.6839  2.0306
 8423SOL    HW333465   6.281   2.536   0.580  1.9087  1.3223  2.0905
 8423SOL    MW433466   6.333   2.500   0.519 -0.0529  0.3170  0.9165
 8424SOL     OW33467   0.230   2.979   5.506  0.3464  0.1139 -0.1498
 8424SOL    HW233468   0.316   2.954   5.541  0.6386 -0.9362 -1.5232
 8424SOL    HW333469   0.251   3.031   5.428 -0.2593 -0.2139 -0.5357
 8424SOL    MW433470   0.244   2.982   5.500  0.3050 -0.0679 -0.3819
 8425SOL     OW33471   4.760   1.363   3.195 -0.1354 -0.3628  0.0224
 8425SOL    HW233472   4.762   1.407   3.111 -1.5116 -0.3109  0.0043
 8425SOL    HW333473   4.820   1.414   3.250  1.9820 -1.2721 -1.3003
 8425SOL    MW433474   4.768   1.375   3.191 -0.0376 -0.4759 -0.1545
 8426SOL     OW33475   2.967   1.880   0.143  0.1074  0.0560 -0.5661
 8426SOL    HW233476   3.030   1.937   0.098 -0.9794  0.9349 -1.0416
 8426SOL    HW333477   2.926   1.936   0.208 -1.1605 -0.0829 -1.2072
 8426SOL    MW433478   2.970   1.895   0.145 -0.2033  0.1536 -0.7134
 8427SOL     OW33479   6.349   3.088   4.230  0.1193  0.5201 -0.3010
 8427SOL    HW233480   6.381   3.016   4.285  0.5757  1.9211  1.3413
 8427SOL    HW333481   6.256   3.066   4.216  0.6902 -1.3727 -1.5245
 8427SOL    MW433482   6.341   3.075   4.235  0.2548  0.4552 -0.2458
 8428SOL     OW33483   4.891   3.941   1.069  0.4189 -0.9251 -0.0446
 8428SOL    HW233484   4.897   3.899   1.155  1.5355 -1.8831 -0.5718
 8428SOL    HW333485   4.797   3.953   1.056  0.2363 -0.6035  1.3803
 8428SOL    MW433486   4.879   3.937   1.079  0.5421 -1.0091  0.0738
 8429SOL     OW33487   2.702   1.503   2.172  0.2635 -0.2059  0.0429
 8429SOL    HW233488   2.638   1.567   2.143  1.1957  1.0466  0.6628
 8429SOL    HW333489   2.669   1.472   2.256  0.1440 -0.0510  0.0533
 8429SOL    MW433490   2.689   1.507   2.179  0.3707 -0.0202  0.1260
 8430SOL     OW33491   3.421   4.747   2.804  0.1949 -0.1102  0.0660
 8430SOL    HW233492   3.426   4.658   2.839  1.1771  0.8988  2.7418
 8430SOL    HW333493   3.367   4.738   2.725  0.2471 -3.0474  0.2381
 8430SOL    MW433494   3.415   4.734   2.799  0.3313 -0.3646  0.4418
 8431SOL     OW33495   1.344   3.099   5.082 -0.6634 -0.8649 -0.2802
 8431SOL    HW233496   1.250   3.109   5.099 -0.6346 -1.5006  0.3178
 8431SOL    HW333497   1.380   3.069   5.166 -0.2355 -2.5114 -0.9978
 8431SOL    MW433498   1.336   3.096   5.096 -0.6031 -1.1660 -0.2959
 8432SOL     OW33499   5.983   5.807   0.921  0.3287 -0.6912  0.0274
 8432SOL    HW233500   6.076   5.828   0.916 -0.0046  1.2575  0.9920
 8432SOL    HW333501   5.963   5.807   1.014 -1.1203  1.4848 -0.2120
 8432SOL    MW433502   5.992   5.809   0.932  0.0936 -0.1470  0.1231
 8433SOL     OW33503   5.180   3.138   4.686  0.6846 -0.1828  0.2994
 8433SOL    HW233504   5.123   3.129   4.763 -0.3683 -0.8459 -0.5252
 8433SOL    HW333505   5.230   3.218   4.703 -1.4542  1.2137  0.5008
 8433SOL    MW433506   5.179   3.147   4.698  0.2635 -0.0861  0.2171
 8434SOL     OW33507   2.097   4.462   5.732 -0.0298 -0.2833 -0.8751
 8434SOL    HW233508   2.099   4.475   5.827 -1.9257  1.2170 -0.9820
 8434SOL    HW333509   2.159   4.527   5.698 -1.4113  1.1187 -0.7888
 8434SOL    MW433510   2.106   4.472   5.740 -0.4622  0.0996 -0.8779
 8435SOL     OW33511   4.524   3.197   1.424 -0.4670  0.3902  0.3026
 8435SOL    HW233512   4.534   3.271   1.484  3.2446  0.1984  0.1597
 8435SOL    HW333513   4.558   3.122   1.472  0.1114 -0.2831 -1.0985
 8435SOL    MW433514   4.530   3.197   1.438  0.0990  0.2761  0.0989
 8436SOL     OW33515   3.646   3.528   0.571  0.4150 -0.2112  0.3129
 8436SOL    HW233516   3.649   3.623   0.575 -0.2917 -0.0729 -1.4603
 8436SOL    HW333517   3.569   3.508   0.517  1.4792 -1.7255 -0.7511
 8436SOL    MW433518   3.636   3.538   0.564  0.4622 -0.3928 -0.0614
 8437SOL     OW33519   1.288   2.313   4.949  0.4400 -0.5246  0.1463
 8437SOL    HW233520   1.281   2.252   4.876  0.9689 -1.4062  0.8074
 8437SOL    HW333521   1.303   2.398   4.908  1.6989 -1.1473 -0.7546
 8437SOL    MW433522   1.289   2.316   4.934  0.6759 -0.7231  0.1146
 8438SOL     OW33523   2.992   4.837   4.278  0.6427 -0.1798 -0.3417
 8438SOL    HW233524   2.931   4.886   4.332  0.9151 -0.1567 -0.0486
 8438SOL    HW333525   3.062   4.900   4.258  0.5820 -0.2085 -0.6621
 8438SOL    MW433526   2.993   4.852   4.282  0.6706 -0.1806 -0.3453
 8439SOL     OW33527   1.920   6.286   4.485 -0.2168 -0.0383 -0.4914
 8439SOL    HW233528   1.882   6.294   4.397 -0.6847  0.4419 -0.2494
 8439SOL    HW333529   1.892   6.199   4.515  0.6620 -0.5625 -1.1467
 8439SOL    MW433530   1.911   6.276   4.477 -0.1626 -0.0441 -0.5459
 8440SOL     OW33531   2.092   1.203   3.588 -0.4636 -0.1004  0.6250
 8440SOL    HW233532   2.095   1.254   3.507 -1.7939  1.0477  1.2757
 8440SOL    HW333533   2.119   1.115   3.561  2.2343  0.9413 -0.4585
 8440SOL    MW433534   2.096   1.198   3.573 -0.2831  0.1885  0.5679
 8441SOL     OW33535   3.854   2.165   1.963 -0.6033 -0.4469  0.0699
 8441SOL    HW233536   3.877   2.146   2.054  1.7135  0.4464 -0.2655
 8441SOL    HW333537   3.907   2.104   1.912 -1.4870 -0.5776 -0.7079
 8441SOL    MW433538   3.864   2.154   1.969 -0.4143 -0.3463 -0.0770
 8442SOL     OW33539   5.954   0.087   3.209 -0.0112 -0.0398 -0.1355
 8442SOL    HW233540   5.886   0.112   3.271 -1.5038  1.2907 -2.1804
 8442SOL    HW333541   5.966   0.164   3.155  1.9566 -0.8254 -0.8849
 8442SOL    MW433542   5.946   0.100   3.210  0.0515  0.0321 -0.5042
 8443SOL     OW33543   6.282   0.911   5.004 -0.1832 -0.8535  0.0064
 8443SOL    HW233544   6.235   0.914   4.921  1.1539 -1.8429 -0.8221
 8443SOL    HW333545   6.334   0.991   5.005  0.7664 -1.4405 -0.7302
 8443SOL    MW433546   6.283   0.922   4.993  0.1185 -1.0615 -0.2001
 8444SOL     OW33547   1.542   4.366   2.789 -0.2156 -0.0297 -0.5564
 8444SOL    HW233548   1.557   4.279   2.753  2.2825  0.2949 -0.5065
 8444SOL    HW333549   1.630   4.399   2.810 -1.1728  1.9788  0.6738
 8444SOL    MW433550   1.556   4.359   2.787 -0.0123  0.2781 -0.3875
 8445SOL     OW33551   4.179   4.173   5.434 -0.6170  0.2864  0.0594
 8445SOL    HW233552   4.214   4.098   5.386  0.4477  0.1037  1.0710
 8445SOL    HW333553   4.204   4.249   5.380 -0.8731 -0.0144 -0.4914
 8445SOL    MW433554   4.187   4.173   5.420 -0.5103  0.2226  0.1202
 8446SOL     OW33555   3.802   0.265   5.211 -0.0267  0.3426 -0.3036
 8446SOL    HW233556   3.751   0.303   5.282 -1.1086 -0.9082 -0.3525
 8446SOL    HW333557   3.890   0.254   5.246 -0.0582  1.5209  0.1687
 8446SOL    MW433558   3.807   0.268   5.225 -0.1736  0.3331 -0.2478
 8447SOL     OW33559   2.286   5.989   0.227  0.2949 -0.4006 -0.4011
 8447SOL    HW233560   2.337   6.035   0.294 -1.3931 -0.1357  0.7920
 8447SOL    HW333561   2.240   6.059   0.180  0.5060 -0.6651 -1.0067
 8447SOL    MW433562   2.287   6.004   0.230  0.1000 -0.4006 -0.3236
 8448SOL     OW33563   4.855   0.084   0.078  0.2730  0.1973  0.4007
 8448SOL    HW233564   4.884   0.009   0.026  0.2659  1.6357 -1.8342
 8448SOL    HW333565   4.765   0.062   0.104  0.0502 -0.3342 -0.7494
 8448SOL    MW433566   4.847   0.071   0.075  0.2427  0.3169 -0.0459
 8449SOL     OW33567   5.685   3.806   3.342 -0.2453 -0.0727  0.5877
 8449SOL    HW233568   5.676   3.713   3.320  0.1487  0.2488 -1.1276
 8449SOL    HW333569   5.644   3.851   3.268  1.2249  1.1241  0.4660
 8449SOL    MW433570   5.679   3.799   3.329  0.0007  0.1276  0.3453
 8450SOL     OW33571   2.390   5.557   5.039 -0.1816  0.0211 -0.0763
 8450SOL    HW233572   2.325   5.559   5.108  0.9708 -2.6841  1.2090
 8450SOL    HW333573   2.468   5.598   5.077  0.4399 -1.4251  0.2717
 8450SOL    MW433574   2.392   5.563   5.053  0.0525 -0.5266  0.1392
 8451SOL     OW33575   5.809   3.230   6.334  0.3862  0.2942 -0.0150
 8451SOL    HW233576   5.827   3.300   6.271 -1.0380 -0.0914 -0.9066
 8451SOL    HW333577   5.813   3.150   6.281  0.0087 -0.1116  0.5634
 8451SOL    MW433578   5.812   3.228   6.319  0.1485  0.1898 -0.0564
 8452SOL     OW33579   4.437   6.201   3.789 -0.4173  0.2335 -0.1426
 8452SOL    HW233580   4.479   6.154   3.861  1.2512  0.2955 -1.0306
 8452SOL    HW333581   4.446   6.294   3.812 -0.0228  0.2483 -0.3508
 8452SOL    MW433582   4.443   6.207   3.801 -0.1451  0.2436 -0.2872
 8453SOL     OW33583   2.670   6.164   1.088 -0.4504 -0.3862 -0.6100
 8453SOL    HW233584   2.652   6.252   1.120 -0.0079 -0.6723  0.4742
 8453SOL    HW333585   2.587   6.117   1.098 -0.4233 -0.3600 -0.2404
 8453SOL    MW433586   2.657   6.169   1.093 -0.3884 -0.4205 -0.4182
 8454SOL     OW33587   0.203   3.767   0.329 -0.4754 -0.0537 -0.9357
 8454SOL    HW233588   0.227   3.854   0.360 -1.1980  0.1710 -0.9943
 8454SOL    HW333589   0.146   3.783   0.254  0.0443 -0.5876 -1.4548
 8454SOL    MW433590   0.199   3.781   0.323 -0.5021 -0.0945 -1.0119
 8455SOL     OW33591   1.372   1.658   5.863  0.0662  0.1718  0.2889
 8455SOL    HW233592   1.396   1.661   5.770 -1.1566 -0.7080 -0.0848
 8455SOL    HW333593   1.445   1.613   5.905 -0.1442 -1.0306 -0.5651
 8455SOL    MW433594   1.385   1.652   5.856 -0.1228 -0.1029  0.1269
 8456SOL     OW33595   3.612   3.413   1.056 -0.8807  0.1119 -0.1470
 8456SOL    HW233596   3.695   3.368   1.070 -0.7093  0.2326 -0.7421
 8456SOL    HW333597   3.562   3.396   1.136  0.2540  1.2469  0.8644
 8456SOL    MW433598   3.616   3.405   1.069 -0.7084  0.2776 -0.0921
 8457SOL     OW33599   3.472   3.502   5.436 -0.2324 -0.3570 -0.3690
 8457SOL    HW233600   3.505   3.412   5.440  0.3092 -0.1680 -0.4829
 8457SOL    HW333601   3.391   3.500   5.487 -0.7150 -1.1202 -1.1516
 8457SOL    MW433602   3.466   3.490   5.444 -0.2246 -0.4328 -0.4873
 8458SOL     OW33603   1.420   6.317   5.754  0.0753  0.3236  0.4747
 8458SOL    HW233604   1.510   6.289   5.738 -0.3311 -0.5535 -0.3682
 8458SOL    HW333605   1.407   6.390   5.693  0.0210  0.0386  0.1401
 8458SOL    MW433606   1.430   6.323   5.744  0.0145  0.1703  0.3193
 8459SOL     OW33607   0.307   1.869   5.858  0.5673 -0.0356  0.3453
 8459SOL    HW233608   0.325   1.961   5.840  1.0979 -0.2749 -0.3684
 8459SOL    HW333609   0.218   1.869   5.896  0.6664  0.7839  0.5898
 8459SOL    MW433610   0.297   1.881   5.861  0.6504  0.0409  0.2834
 8460SOL     OW33611   3.743   6.255   1.941  0.7200 -0.2115 -0.5467
 8460SOL    HW233612   3.722   6.265   1.848 -1.2779 -1.0344 -0.2315
 8460SOL    HW333613   3.704   6.171   1.966 -2.1256  1.5892  1.8295
 8460SOL    MW433614   3.735   6.246   1.932  0.0810 -0.0825 -0.1916
 8461SOL     OW33615   3.689   3.207   5.187  0.3355  0.1427  0.3176
 8461SOL    HW233616   3.677   3.141   5.256 -2.0453  0.5319  0.3899
 8461SOL    HW333617   3.600   3.240   5.172  1.3181  2.5874 -0.4673
 8461SOL    MW433618   3.675   3.202   5.194  0.1511  0.5166  0.2236
 8462SOL     OW33619   6.213   5.458   2.806  0.0395  0.2380  0.5524
 8462SOL    HW233620   6.182   5.404   2.734  1.7727 -0.0571 -0.0114
 8462SOL    HW333621   6.285   5.409   2.844  0.7255  1.4822  0.9305
 8462SOL    MW433622   6.218   5.445   2.801  0.3587  0.3632  0.5279
 8463SOL     OW33623   4.312   1.310   4.238  0.3970 -0.0113 -0.1357
 8463SOL    HW233624   4.337   1.374   4.304  2.3647 -0.3520 -0.4790
 8463SOL    HW333625   4.345   1.347   4.156 -2.1631  0.4982 -1.0391
 8463SOL    MW433626   4.320   1.324   4.236  0.3188  0.0110 -0.3002
 8464SOL     OW33627   0.614   1.625   1.228  0.6695  0.2501 -0.2122
 8464SOL    HW233628   0.691   1.596   1.276  0.8468  0.2354 -0.5069
 8464SOL    HW333629   0.564   1.676   1.292  1.8256  1.8388 -0.5390
 8464SOL    MW433630   0.617   1.628   1.243  0.8454  0.4578 -0.2942
 8465SOL     OW33631   2.297   0.911   1.165  0.1806 -0.1121 -0.0654
 8465SOL    HW233632   2.213   0.917   1.119  0.5153  1.9327 -0.4669
 8465SOL    HW333633   2.320   0.818   1.159 -1.6775 -0.5850 -0.5939
 8465SOL    MW433634   2.289   0.899   1.158 -0.0204  0.0953 -0.1881
 8466SOL     OW33635   5.107   5.129   1.692  0.2259 -0.6264 -0.5287
 8466SOL    HW233636   5.106   5.045   1.739  1.3688  0.5435  1.7955
 8466SOL    HW333637   5.027   5.129   1.640 -2.1979 -1.3821  2.8460
 8466SOL    MW433638   5.096   5.118   1.692  0.0569 -0.5717  0.2232
 8467SOL     OW33639   1.728   6.154   4.329 -0.1382  0.3012  0.3906
 8467SOL    HW233640   1.733   6.059   4.343  1.9669  0.1961 -0.6546
 8467SOL    HW333641   1.743   6.165   4.235  0.9787  1.7086  0.6887
 8467SOL    MW433642   1.731   6.143   4.318  0.2869  0.4730  0.2920
 8468SOL     OW33643   0.307   1.078   2.675 -0.4524 -0.2068  0.5861
 8468SOL    HW233644   0.362   1.078   2.753  0.8821 -0.0327 -0.3089
 8468SOL    HW333645   0.353   1.136   2.614 -1.2613 -0.6408 -0.4681
 8468SOL    MW433646   0.321   1.086   2.677 -0.3830 -0.2411  0.3290
 8469SOL     OW33647   2.754   0.229   5.400  0.0751 -0.2943  0.5570
 8469SOL    HW233648   2.843   0.262   5.386 -0.6239  1.3950 -0.2258
 8469SOL    HW333649   2.718   0.221   5.311 -0.8236 -0.1019  0.8924
 8469SOL    MW433650   2.761   0.233   5.386 -0.1357 -0.0460  0.4980
 8470SOL     OW33651   1.403   0.068   0.787 -0.1696  0.3159 -0.4152
 8470SOL    HW233652   1.398  -0.026   0.770 -0.7986  0.6117 -2.0810
 8470SOL    HW333653   1.489   0.094   0.753  1.5292 -0.1388  3.0807
 8470SOL    MW433654   1.414   0.059   0.780 -0.0285  0.2950 -0.1737
 8471SOL     OW33655   4.117   5.670   2.933  0.0690 -0.5880  0.1907
 8471SOL    HW233656   4.134   5.577   2.921 -1.6580 -0.7699 -1.1587
 8471SOL    HW333657   4.196   5.713   2.900  0.5537 -1.5410  0.0672
 8471SOL    MW433658   4.130   5.663   2.927 -0.0949 -0.7377 -0.0036
 8472SOL     OW33659   5.988   3.260   5.894  0.3048  0.4467 -0.6735
 8472SOL    HW233660   5.979   3.324   5.823 -1.7341  0.1293 -0.7727
 8472SOL    HW333661   6.037   3.188   5.855 -2.3690 -0.5844 -2.5044
 8472SOL    MW433662   5.993   3.259   5.880 -0.3170  0.2688 -0.9282
 8473SOL     OW33663   6.002   2.067   2.937  0.1198  0.2392 -0.3658
 8473SOL    HW233664   6.002   2.117   2.855  0.7424  0.3371 -0.3120
 8473SOL    HW333665   6.043   2.125   3.000  0.2657 -0.0989 -0.1476
 8473SOL    MW433666   6.008   2.081   2.934  0.2212  0.2075 -0.3299
 8474SOL     OW33667   0.212   0.201   4.510  0.0417  0.4146  0.2394
 8474SOL    HW233668   0.253   0.281   4.543 -0.4610  0.6738  0.2514
 8474SOL    HW333669   0.280   0.159   4.458  0.5501  0.4653  0.8595
 8474SOL    MW433670   0.226   0.206   4.508  0.0425  0.4555  0.3228
 8475SOL     OW33671   0.218   5.550   2.160  0.0176 -0.5969  0.5367
 8475SOL    HW233672   0.255   5.613   2.099 -1.3366  0.1035  0.3851
 8475SOL    HW333673   0.125   5.573   2.164  0.1995  0.0387  3.6089
 8475SOL    MW433674   0.210   5.561   2.152 -0.1370 -0.4206  0.9221
 8476SOL     OW33675   1.038   4.282   3.697 -0.0614  0.6075  0.1892
 8476SOL    HW233676   0.992   4.335   3.762 -1.0121  1.1894 -0.9222
 8476SOL    HW333677   1.127   4.273   3.732 -0.6568  0.5361  1.7638
 8476SOL    MW433678   1.044   4.288   3.710 -0.2654  0.6749  0.2503
 8477SOL     OW33679   3.794   3.856   6.070 -0.6046  0.1385 -0.3908
 8477SOL    HW233680   3.861   3.805   6.024 -0.1419  0.8938 -0.5603
 8477SOL    HW333681   3.747   3.791   6.122 -0.7618 -0.6399 -1.4697
 8477SOL    MW433682   3.797   3.841   6.071 -0.5643  0.1354 -0.5555
 8478SOL     OW33683   4.100   3.034   4.619  0.2023 -0.2168  0.1770
 8478SOL    HW233684   4.066   3.079   4.542 -1.5200 -2.2089 -0.3269
 8478SOL    HW333685   4.190   3.011   4.596  0.3764  0.9856 -0.4011
 8478SOL    MW433686   4.107   3.037   4.606 -0.0020 -0.3210  0.0342
 8479SOL     OW33687   5.015   5.842   5.385  0.0316 -0.1924 -0.5679
 8479SOL    HW233688   4.943   5.783   5.408 -0.2168 -0.3127 -1.6206
 8479SOL    HW333689   5.094   5.793   5.407 -0.1970 -0.1136  0.4674
 8479SOL    MW433690   5.016   5.828   5.391 -0.0313 -0.1979 -0.5702
 8480SOL     OW33691   3.769   0.146   4.468 -0.7961  0.5250 -0.0269
 8480SOL    HW233692   3.828   0.221   4.477  2.3537 -1.5233 -1.7452
 8480SOL    HW333693   3.735   0.151   4.379 -1.5241  0.4969  0.2372
 8480SOL    MW433694   3.772   0.156   4.458 -0.4765  0.2511 -0.2188
 8481SOL     OW33695   2.379   2.680   2.370  0.2290  0.4090 -0.4037
 8481SOL    HW233696   2.449   2.623   2.337  0.5414  0.7930 -0.4159
 8481SOL    HW333697   2.414   2.716   2.451  1.1758  2.6734 -1.7029
 8481SOL    MW433698   2.393   2.677   2.376  0.3951  0.7584 -0.5767
 8482SOL     OW33699   6.370   3.337   4.393 -0.6919  0.2552  0.1835
 8482SOL    HW233700   6.459   3.369   4.383 -0.5862  1.2295  3.1373
 8482SOL    HW333701   6.363   3.264   4.332  1.9348  0.4915 -0.5006
 8482SOL    MW433702   6.381   3.332   4.384 -0.3314  0.4149  0.4830
 8483SOL     OW33703   0.421   5.424   4.127 -0.3631 -0.0025 -0.4975
 8483SOL    HW233704   0.438   5.342   4.174  1.7170 -0.5647 -2.0721
 8483SOL    HW333705   0.339   5.407   4.080 -2.1909  0.3874  2.3270
 8483SOL    MW433706   0.412   5.411   4.127 -0.3298 -0.0252 -0.3326
 8484SOL     OW33707   0.749   0.089   2.226 -0.0068  0.2603  0.4244
 8484SOL    HW233708   0.668   0.119   2.267 -1.6611 -1.5630 -1.2916
 8484SOL    HW333709   0.737   0.107   2.133  1.0365 -1.1834 -0.0184
 8484SOL    MW433710   0.737   0.096   2.220 -0.0874 -0.1708  0.1396
 8485SOL     OW33711   3.225   5.143   4.763  0.2795 -0.7710  0.2988
 8485SOL    HW233712   3.211   5.140   4.668 -0.7074 -1.9433  0.4635
 8485SOL    HW333713   3.284   5.217   4.776 -1.8869  1.3133 -0.9456
 8485SOL    MW433714   3.231   5.152   4.752 -0.1365 -0.6507  0.1563
 8486SOL     OW33715   5.970   0.053   1.051 -0.4393 -0.2384 -0.2807
 8486SOL    HW233716   5.995   0.116   1.118  0.2888 -0.5164 -0.2851
 8486SOL    HW333717   5.892   0.011   1.086 -0.8294  0.5296 -0.1970
 8486SOL    MW433718   5.963   0.056   1.064 -0.3947 -0.1738 -0.2703
 8487SOL     OW33719   1.156   6.134   1.989  0.4823 -0.4716  0.5831
 8487SOL    HW233720   1.191   6.171   1.908  0.6203 -0.0896  0.8121
 8487SOL    HW333721   1.108   6.206   2.030 -0.4004 -0.9272  0.3799
 8487SOL    MW433722   1.154   6.148   1.984  0.3840 -0.4813  0.5865
 8488SOL     OW33723   1.768   3.339   2.512  0.1901 -0.1394  0.8618
 8488SOL    HW233724   1.679   3.336   2.548 -0.1520  0.1698  0.0689
 8488SOL    HW333725   1.823   3.363   2.586 -0.3200 -0.7954  1.4722
 8488SOL    MW433726   1.764   3.341   2.526  0.0777 -0.1852  0.8378
 8489SOL     OW33727   3.821   6.328   3.904 -0.5350 -0.0986  0.5982
 8489SOL    HW233728   3.832   6.245   3.858 -1.0160  0.6189 -0.8823
 8489SOL    HW333729   3.886   6.326   3.974  0.3748 -1.1594 -0.2384
 8489SOL    MW433730   3.831   6.317   3.907 -0.4784 -0.1439  0.2925
 8490SOL     OW33731   2.131   0.224   3.620 -0.3927 -0.0800 -0.2423
 8490SOL    HW233732   2.067   0.181   3.563 -2.3022 -0.5910  2.0999
 8490SOL    HW333733   2.111   0.317   3.613  0.3147 -0.0010 -1.4119
 8490SOL    MW433734   2.120   0.230   3.611 -0.5513 -0.1370 -0.0876
 8491SOL     OW33735   2.504   2.853   2.149  0.0365  0.0585 -0.5642
 8491SOL    HW233736   2.538   2.878   2.063 -1.9612  0.1749 -1.3835
 8491SOL    HW333737   2.523   2.759   2.155  0.5082  0.1193 -0.9638
 8491SOL    MW433738   2.511   2.844   2.138 -0.1648  0.0819 -0.7250
 8492SOL     OW33739   5.114   2.293   4.425  0.0094 -0.0990 -0.0910
 8492SOL    HW233740   5.059   2.226   4.466  0.8690  0.7761  2.6963
 8492SOL    HW333741   5.202   2.255   4.424 -0.2176 -0.8079 -2.9565
 8492SOL    MW433742   5.118   2.279   4.430  0.0928 -0.0770 -0.1013
 8493SOL     OW33743   0.452   3.512   4.353  0.0541  0.0394  0.1006
 8493SOL    HW233744   0.488   3.451   4.417 -1.1651  1.6404  2.4835
 8493SOL    HW333745   0.498   3.594   4.369 -0.3992  0.5339 -1.0079
 8493SOL    MW433746   0.463   3.515   4.363 -0.1666  0.3159  0.2687
 8494SOL     OW33747   2.528   4.205   2.675  0.3771  0.1519 -0.5390
 8494SOL    HW233748   2.609   4.255   2.684 -0.3324  1.5606 -1.5646
 8494SOL    HW333749   2.491   4.233   2.591 -2.1445  1.0566  0.7632
 8494SOL    MW433750   2.534   4.215   2.665 -0.0492  0.4571 -0.5025
 8495SOL     OW33751   3.933   5.243   6.082  0.1976  0.1113 -0.5277
 8495SOL    HW233752   3.926   5.321   6.138  2.5736  1.0494 -1.3996
 8495SOL    HW333753   3.921   5.169   6.142 -0.2189  1.1192  0.6753
 8495SOL    MW433754   3.931   5.244   6.098  0.4561  0.3681 -0.4840
 8496SOL     OW33755   3.039   3.755   4.655 -0.2241  0.6751  0.1266
 8496SOL    HW233756   3.117   3.709   4.624 -0.1555  0.2949  0.8361
 8496SOL    HW333757   3.073   3.835   4.694 -0.1758  0.5074  0.4398
 8496SOL    MW433758   3.054   3.759   4.656 -0.2086  0.6028  0.2615
 8497SOL     OW33759   0.490   5.022   5.920 -0.0722 -0.1791  0.1684
 8497SOL    HW233760   0.472   4.935   5.957 -0.5762 -0.2338 -0.1988
 8497SOL    HW333761   0.404   5.062   5.909  0.0978 -0.0055 -0.5579
 8497SOL    MW433762   0.477   5.016   5.924 -0.1163 -0.1634  0.0241
 8498SOL     OW33763   3.734   5.575   5.981  0.9301 -0.0538  0.1287
 8498SOL    HW233764   3.653   5.585   6.031  1.6491 -0.1502  1.3366
 8498SOL    HW333765   3.715   5.617   5.897 -0.1741  0.4403  0.5996
 8498SOL    MW433766   3.720   5.582   5.977  0.8792 -0.0013  0.3502
 8499SOL     OW33767   2.311   2.578   0.649  0.1074  0.1546 -0.0540
 8499SOL    HW233768   2.232   2.631   0.661  0.4961  0.6091  0.5312
 8499SOL    HW333769   2.359   2.622   0.579 -0.0473 -0.0000 -0.2604
 8499SOL    MW433770   2.307   2.591   0.641  0.1383  0.1942 -0.0040
 8500SOL     OW33771   3.909   2.605   5.228  0.0822  0.2483  0.3203
 8500SOL    HW233772   3.820   2.600   5.194 -0.2653  0.9215  1.0990
 8500SOL    HW333773   3.899   2.615   5.323  0.9604  1.0879  0.3433
 8500SOL    MW433774   3.896   2.606   5.236  0.1522  0.4479  0.4261
 8501SOL     OW33775   3.836   1.747   5.835  0.4758 -0.2351  0.8198
 8501SOL    HW233776   3.792   1.713   5.758  0.9450  0.6192  0.1542
 8501SOL    HW333777   3.904   1.806   5.800  1.0858 -0.2971  1.8582
 8501SOL    MW433778   3.839   1.751   5.820  0.6182 -0.1306  0.8690
 8502SOL     OW33779   3.060   0.831   2.740  0.1279 -0.1033  0.0986
 8502SOL    HW233780   2.972   0.868   2.732 -0.2398 -0.3966  2.0753
 8502SOL    HW333781   3.059   0.752   2.686 -0.6702  0.1457 -0.2576
 8502SOL    MW433782   3.048   0.826   2.732 -0.0259 -0.1092  0.3124
 8503SOL     OW33783   0.228   2.352   0.411  0.7807 -0.2216  0.2743
 8503SOL    HW233784   0.191   2.361   0.499 -1.5129  2.3071 -0.8208
 8503SOL    HW333785   0.155   2.322   0.357  1.6589  0.0509 -1.1157
 8503SOL    MW433786   0.213   2.349   0.416  0.5939  0.1480 -0.0536
 8504SOL     OW33787   1.440   0.589   2.101  0.1015  0.4877 -0.0973
 8504SOL    HW233788   1.346   0.578   2.091  0.1582 -0.6217  0.4156
 8504SOL    HW333789   1.453   0.683   2.106 -0.9460  0.6630 -0.4717
 8504SOL    MW433790   1.429   0.600   2.100 -0.0292  0.3645 -0.0790
 8505SOL     OW33791   6.188   4.818   6.029 -0.0816  0.0535  0.1920
 8505SOL    HW233792   6.100   4.788   6.006 -0.1109 -0.9688  1.5095
 8505SOL    HW333793   6.246   4.750   5.993  0.2603  1.1350 -1.3889
 8505SOL    MW433794   6.184   4.805   6.021 -0.0403  0.0613  0.1572
 8506SOL     OW33795   1.679   2.940   3.919 -0.2774 -0.6191  0.2192
 8506SOL    HW233796   1.617   2.978   3.858  0.3298 -0.5124 -0.3353
 8506SOL    HW333797   1.637   2.948   4.005 -0.3561  0.8737  0.0558
 8506SOL    MW433798   1.665   2.946   3.923 -0.2077 -0.4080  0.1245
 8507SOL     OW33799   3.616   2.549   2.049  0.2514  0.1962 -0.3621
 8507SOL    HW233800   3.597   2.458   2.067  0.1485  0.0083 -1.3548
 8507SOL    HW333801   3.630   2.553   1.954 -0.1625  1.2767 -0.4023
 8507SOL    MW433802   3.615   2.538   2.039  0.1832  0.3140 -0.4984
 8508SOL     OW33803   3.959   4.773   1.587 -0.2026 -0.3524 -0.1866
 8508SOL    HW233804   3.938   4.821   1.507 -0.5454  0.3565  0.3187
 8508SOL    HW333805   3.935   4.682   1.568  3.7676 -1.1717 -2.4915
 8508SOL    MW433806   3.953   4.767   1.574  0.2760 -0.3670 -0.4240
 8509SOL     OW33807   4.284   1.965   4.089  0.4091 -0.3588  0.1983
 8509SOL    HW233808   4.336   2.035   4.050  0.7431 -0.5367  0.3236
 8509SOL    HW333809   4.329   1.944   4.171  0.9477 -1.4942 -0.3681
 8509SOL    MW433810   4.297   1.971   4.095  0.5242 -0.5320  0.1401
 8510SOL     OW33811   5.538   2.906   0.011  0.3753  0.3089 -0.5508
 8510SOL    HW233812   5.581   2.972   0.066  0.0475 -0.3859  0.5809
 8510SOL    HW333813   5.569   2.822   0.047 -1.0643 -0.1850 -0.4098
 8510SOL    MW433814   5.548   2.904   0.023  0.1421  0.1520 -0.3829
 8511SOL     OW33815   4.552   6.146   1.874  0.1729  0.2944  0.1214
 8511SOL    HW233816   4.631   6.191   1.904 -0.7892  1.6285  0.7784
 8511SOL    HW333817   4.500   6.214   1.832 -1.3104 -0.1847  1.0967
 8511SOL    MW433818   4.556   6.161   1.873 -0.1497  0.4072  0.3367
 8512SOL     OW33819   0.796   6.357   1.740  0.6152 -0.0792  0.0622
 8512SOL    HW233820   0.740   6.284   1.767  3.2356 -2.0031  0.6819
 8512SOL    HW333821   0.785   6.422   1.809 -0.4250 -0.6393  0.4465
 8512SOL    MW433822   0.787   6.356   1.753  0.8237 -0.4069  0.1946
 8513SOL     OW33823   4.522   4.134   2.283  0.1359  0.1469 -0.0151
 8513SOL    HW233824   4.614   4.152   2.264  0.4136  0.5172  1.5680
 8513SOL    HW333825   4.520   4.040   2.302 -0.0570 -0.1234 -1.2986
 8513SOL    MW433826   4.534   4.124   2.283  0.1471  0.1601  0.0244
 8514SOL     OW33827   6.241   2.529   5.063 -0.1974  0.7109  0.4029
 8514SOL    HW233828   6.305   2.513   4.994 -1.3008  0.5394 -0.6180
 8514SOL    HW333829   6.162   2.483   5.035 -0.2659 -0.6034  2.5126
 8514SOL    MW433830   6.239   2.521   5.050 -0.3520  0.5149  0.5465
 8515SOL     OW33831   1.358   0.310   6.231 -0.1420  0.0519 -0.1279
 8515SOL    HW233832   1.424   0.280   6.294  0.2570 -0.6449 -0.8603
 8515SOL    HW333833   1.312   0.230   6.205 -0.7841  0.4336 -0.1850
 8515SOL    MW433834   1.361   0.296   6.236 -0.1741  0.0103 -0.2321
 8516SOL     OW33835   2.215   1.172   4.909  0.0570 -0.2855 -0.6179
 8516SOL    HW233836   2.303   1.135   4.911  0.5371  0.7476  2.3247
 8516SOL    HW333837   2.228   1.266   4.895 -0.5426 -0.0759  0.1380
 8516SOL    MW433838   2.228   1.179   4.907  0.0413 -0.1216 -0.1299
 8517SOL     OW33839   2.364   3.383   1.937  0.4942  0.0289  0.2803
 8517SOL    HW233840   2.274   3.412   1.950  1.6539  3.1368  2.3147
 8517SOL    HW333841   2.355   3.303   1.885 -3.6581 -2.0894  3.6004
 8517SOL    MW433842   2.351   3.376   1.932  0.0993  0.1594  0.9868
 8518SOL     OW33843   0.564   1.292   3.412 -0.7035 -0.0816  0.0580
 8518SOL    HW233844   0.624   1.252   3.475  0.6327  0.6793 -0.6971
 8518SOL    HW333845   0.546   1.223   3.348  1.9000  0.5058 -1.4582
 8518SOL    MW433846   0.569   1.277   3.412 -0.1837  0.0963 -0.2417
 8519SOL     OW33847   5.235   0.308   4.211  0.0429 -0.2876 -0.3405
 8519SOL    HW233848   5.205   0.292   4.121 -0.0708  1.4852 -0.6639
 8519SOL    HW333849   5.174   0.260   4.266 -1.6252  0.8368 -1.1238
 8519SOL    MW433850   5.223   0.300   4.206 -0.1922  0.0946 -0.4865
 8520SOL     OW33851   4.082   4.661   1.935 -0.7285  0.3215  0.1364
 8520SOL    HW233852   4.030   4.607   1.995 -0.9742  0.5830  0.1647
 8520SOL    HW333853   4.072   4.750   1.969 -1.1015  0.5121 -0.4464
 8520SOL    MW433854   4.074   4.665   1.948 -0.8101  0.3811  0.0632
 8521SOL     OW33855   1.557   2.871   6.037  0.2840  0.0562  0.7634
 8521SOL    HW233856   1.636   2.827   6.006  0.4238  2.3141 -2.5144
 8521SOL    HW333857   1.488   2.840   5.979 -0.5181  0.8449  1.2820
 8521SOL    MW433858   1.558   2.861   6.026  0.1966  0.4582  0.3993
 8522SOL     OW33859   1.994   4.007   3.132 -0.2466 -0.0531 -0.2365
 8522SOL    HW233860   1.946   3.924   3.126  1.4689 -1.4130  2.5634
 8522SOL    HW333861   1.964   4.046   3.214  0.1079  1.3334 -0.7527
 8522SOL    MW433862   1.984   4.001   3.142  0.0265 -0.0496  0.0648
 8523SOL     OW33863   0.286   6.243   0.788 -0.3263  0.3679 -0.2975
 8523SOL    HW233864   0.270   6.321   0.841  0.0935  0.4934 -0.3499
 8523SOL    HW333865   0.380   6.246   0.769  0.4503 -1.8543  2.4751
 8523SOL    MW433866   0.296   6.253   0.792 -0.1685  0.0912  0.0614
 8524SOL     OW33867   1.859   2.216   3.279  0.0791 -0.6310  0.1730
 8524SOL    HW233868   1.831   2.252   3.363 -0.8718  1.7271 -1.0551
 8524SOL    HW333869   1.954   2.233   3.276 -0.2697  1.5707 -0.1822
 8524SOL    MW433870   1.868   2.223   3.289 -0.0924 -0.0294 -0.0359
 8525SOL     OW33871   2.670   2.985   5.505  0.0127 -0.5558 -0.4767
 8525SOL    HW233872   2.732   3.024   5.566  0.4702  0.3409 -1.4913
 8525SOL    HW333873   2.629   3.059   5.461 -0.1392 -1.1955 -1.4366
 8525SOL    MW433874   2.673   3.000   5.507  0.0530 -0.5219 -0.7372
 8526SOL     OW33875   1.163   0.528   6.270  0.1585 -0.2147 -0.0140
 8526SOL    HW233876   1.227   0.458   6.283  0.1087 -0.1683  0.5036
 8526SOL    HW333877   1.122   0.539   6.356 -0.2885  0.0053 -0.2522
 8526SOL    MW433878   1.166   0.520   6.283  0.0929 -0.1795  0.0228
 8527SOL     OW33879   5.885   3.227   2.149  0.2416  0.3836  0.1880
 8527SOL    HW233880   5.970   3.233   2.192  0.1081  2.3783  0.2844
 8527SOL    HW333881   5.851   3.142   2.174  0.5291  1.0934  3.3731
 8527SOL    MW433882   5.892   3.217   2.158  0.2619  0.7404  0.6210
 8528SOL     OW33883   3.955   1.731   4.822 -0.0097 -0.2753  0.7278
 8528SOL    HW233884   3.860   1.740   4.818  0.0600  0.1188 -0.3126
 8528SOL    HW333885   3.972   1.693   4.908 -1.1098 -0.4105  0.8960
 8528SOL    MW433886   3.944   1.727   4.833 -0.1457 -0.2411  0.6127
 8529SOL     OW33887   6.298   1.302   1.792  0.3005  0.3260 -0.0497
 8529SOL    HW233888   6.328   1.212   1.805  0.8637  0.4767 -0.2930
 8529SOL    HW333889   6.218   1.293   1.739 -1.4140 -0.2169  2.4669
 8529SOL    MW433890   6.291   1.289   1.787  0.1486  0.2743  0.2503
 8530SOL     OW33891   1.080   2.766   0.262 -0.3098 -0.3940  0.1474
 8530SOL    HW233892   1.127   2.735   0.184 -0.1191  0.6597 -0.1788
 8530SOL    HW333893   0.989   2.741   0.247  0.0035 -1.7954  0.4360
 8530SOL    MW433894   1.074   2.759   0.249 -0.2433 -0.4399  0.1424
 8531SOL     OW33895   2.817   2.556   5.322  0.0184  0.0122 -0.4860
 8531SOL    HW233896   2.902   2.537   5.282 -0.3806  0.3643 -1.5460
 8531SOL    HW333897   2.760   2.487   5.290 -0.2756  0.2179 -0.4048
 8531SOL    MW433898   2.821   2.545   5.313 -0.0731  0.0858 -0.6151
 8532SOL     OW33899   5.613   4.717   5.270 -0.4444 -0.0773  0.0053
 8532SOL    HW233900   5.667   4.795   5.286  0.2758 -0.4932 -0.3829
 8532SOL    HW333901   5.565   4.738   5.190  1.2231 -0.7801 -1.2449
 8532SOL    MW433902   5.614   4.730   5.262 -0.1293 -0.2249 -0.2109
 8533SOL     OW33903   1.530   4.275   3.313 -0.5314  0.3567  0.6042
 8533SOL    HW233904   1.500   4.319   3.233  2.1259  0.1043 -0.6486
 8533SOL    HW333905   1.575   4.344   3.362  0.6239 -0.1528  0.3005
 8533SOL    MW433906   1.532   4.290   3.309 -0.0284  0.2561  0.3988
 8534SOL     OW33907   3.898   3.858   3.243  0.3733 -0.3502  0.1833
 8534SOL    HW233908   3.938   3.791   3.187  0.8516 -0.2921  0.4429
 8534SOL    HW333909   3.956   3.934   3.235 -0.3566  0.1585 -0.3827
 8534SOL    MW433910   3.911   3.859   3.235  0.3401 -0.2754  0.1429
 8535SOL     OW33911   4.767   5.801   6.234  0.3097  0.6247  0.0822
 8535SOL    HW233912   4.793   5.847   6.314  0.5977 -0.7682  0.8093
 8535SOL    HW333913   4.835   5.736   6.220 -0.8404 -0.5679 -0.1081
 8535SOL    MW433914   4.779   5.799   6.243  0.1959  0.2835  0.1530
 8536SOL     OW33915   1.847   3.667   4.386  0.0632 -0.9607 -0.0756
 8536SOL    HW233916   1.886   3.610   4.320  2.1212  0.2386  0.0064
 8536SOL    HW333917   1.841   3.752   4.342 -0.3749 -0.6073  0.6598
 8536SOL    MW433918   1.851   3.671   4.371  0.2770 -0.7559  0.0322
 8537SOL     OW33919   2.702   4.706   1.480 -0.3155  0.0514 -0.8028
 8537SOL    HW233920   2.742   4.784   1.518 -0.4378  0.5700 -1.7111
 8537SOL    HW333921   2.714   4.716   1.386 -0.2531 -1.0781 -0.9336
 8537SOL    MW433922   2.709   4.717   1.473 -0.3234 -0.0292 -0.9399
 8538SOL     OW33923   2.432   2.368   0.364 -0.1030 -0.6928 -0.3554
 8538SOL    HW233924   2.520   2.364   0.326 -0.0305  0.4352 -0.3510
 8538SOL    HW333925   2.435   2.307   0.437  1.8035  1.6899  1.7803
 8538SOL    MW433926   2.444   2.360   0.369  0.1581 -0.2296 -0.0730
 8539SOL     OW33927   4.295   2.625   0.473 -0.3651 -0.6650  0.3789
 8539SOL    HW233928   4.223   2.683   0.450  0.1837  0.1005  0.5447
 8539SOL    HW333929   4.269   2.587   0.557  0.0137  0.6618  1.1286
 8539SOL    MW433930   4.282   2.627   0.481 -0.2427 -0.3889  0.4997
 8540SOL     OW33931   0.665   1.157   4.425  0.2676 -0.2004 -0.4419
 8540SOL    HW233932   0.752   1.158   4.463 -0.0711  1.2491  0.3855
 8540SOL    HW333933   0.628   1.072   4.450  1.0098 -0.3350  0.2192
 8540SOL    MW433934   0.671   1.146   4.433  0.3209 -0.0269 -0.2455
 8541SOL     OW33935   3.561   2.318   5.225 -0.5770 -0.4913 -0.1700
 8541SOL    HW233936   3.544   2.249   5.160  0.5022 -0.0829 -0.9064
 8541SOL    HW333937   3.637   2.286   5.274  0.1969  0.3607 -0.7997
 8541SOL    MW433938   3.569   2.304   5.223 -0.3325 -0.3250 -0.3502
 8542SOL     OW33939   2.099   3.411   0.489  0.6924 -0.4201  0.4457
 8542SOL    HW233940   2.043   3.464   0.546  0.8545  0.1994  0.0343
 8542SOL    HW333941   2.094   3.453   0.403 -0.2024 -1.8039 -0.2274
 8542SOL    MW433942   2.091   3.423   0.485  0.5957 -0.5209  0.3026
 8543SOL     OW33943   0.743   5.035   4.962  0.5571  0.2912 -0.4298
 8543SOL    HW233944   0.757   5.122   5.000 -0.2367  0.6326 -0.8894
 8543SOL    HW333945   0.828   5.011   4.925  0.8052  0.8376 -0.2338
 8543SOL    MW433946   0.756   5.043   4.962  0.4851  0.4083 -0.4646
 8544SOL     OW33947   5.255   1.553   4.496 -0.2151 -0.3289 -0.1946
 8544SOL    HW233948   5.318   1.538   4.425 -0.5477 -0.4377 -0.4671
 8544SOL    HW333949   5.175   1.582   4.452 -0.7676 -1.4319  0.0407
 8544SOL    MW433950   5.253   1.555   4.480 -0.3319 -0.4888 -0.1995
 8545SOL     OW33951   3.255   6.372   3.703  0.5473  0.0608 -0.1493
 8545SOL    HW233952   3.275   6.393   3.612  1.3734  0.4595  0.1063
 8545SOL    HW333953   3.289   6.284   3.716  0.7213  0.1281 -0.1436
 8545SOL    MW433954   3.262   6.363   3.693  0.6792  0.1223 -0.1148
 8546SOL     OW33955   0.111   3.057   1.157 -0.3808 -0.6788  0.6545
 8546SOL    HW233956   0.068   3.096   1.081  0.0582 -1.3787  0.0281
 8546SOL    HW333957   0.135   2.969   1.128  1.0108 -0.4821  1.1570
 8546SOL    MW433958   0.109   3.050   1.143 -0.1393 -0.7452  0.6381
 8547SOL     OW33959   0.745   1.799   2.229  0.0924 -0.1681  0.3405
 8547SOL    HW233960   0.824   1.842   2.261  0.2483 -0.7525  0.7576
 8547SOL    HW333961   0.675   1.834   2.284  0.0471  0.3873 -0.0623
 8547SOL    MW433962   0.746   1.809   2.240  0.1070 -0.1719  0.3424
 8548SOL     OW33963   0.155   2.245   4.285 -0.1270 -0.1443  0.4361
 8548SOL    HW233964   0.089   2.191   4.239 -0.3327 -0.5900  1.2415
 8548SOL    HW333965   0.217   2.269   4.217 -1.3010  0.5787 -0.4328
 8548SOL    MW433966   0.154   2.241   4.270 -0.3090 -0.1077  0.4278
 8549SOL     OW33967   4.895   0.681   0.045  0.6134 -0.0433  0.1548
 8549SOL    HW233968   4.974   0.642   0.082  0.0456 -0.1060  1.3705
 8549SOL    HW333969   4.909   0.680  -0.049  1.9507 -0.2777  0.3388
 8549SOL    MW433970   4.907   0.676   0.038  0.7150 -0.0825  0.3395
 8550SOL     OW33971   4.452   2.623   5.506  0.1912  0.3757 -0.0093
 8550SOL    HW233972   4.359   2.639   5.523 -0.2900 -0.5359 -1.6058
 8550SOL    HW333973   4.498   2.674   5.573 -1.4549  0.6703  0.9358
 8550SOL    MW433974   4.446   2.632   5.517 -0.0894  0.2943 -0.0953
 8551SOL     OW33975   5.150   2.810   6.100  0.2995 -0.4971  0.1925
 8551SOL    HW233976   5.135   2.902   6.121 -0.8827 -0.3125 -1.2224
 8551SOL    HW333977   5.232   2.810   6.050  0.1056 -0.1446 -0.1348
 8551SOL    MW433978   5.159   2.822   6.096  0.1179 -0.4262 -0.0373
 8552SOL     OW33979   5.544   1.982   3.987  0.4191  0.1913 -0.0569
 8552SOL    HW233980   5.625   2.033   3.993  0.4822  0.1659 -0.6270
 8552SOL    HW333981   5.481   2.030   4.041  0.8625  0.1125  0.5342
 8552SOL    MW433982   5.546   1.995   3.995  0.4859  0.1775 -0.0542
 8553SOL     OW33983   1.020   1.350   5.073 -0.0261  0.7177  0.5144
 8553SOL    HW233984   0.956   1.300   5.124 -0.2466 -0.7173 -1.0924
 8553SOL    HW333985   0.977   1.364   4.988  1.9857 -0.9439 -0.8803
 8553SOL    MW433986   1.006   1.345   5.069  0.2102  0.3092  0.1184
 8554SOL     OW33987   1.787   0.739   4.250 -0.7931  0.3907 -0.1011
 8554SOL    HW233988   1.796   0.798   4.325  2.4095  0.7906 -0.6286
 8554SOL    HW333989   1.830   0.658   4.278 -2.0597 -0.4650 -0.5693
 8554SOL    MW433990   1.794   0.736   4.263 -0.5376  0.3306 -0.2324
 8555SOL     OW33991   6.109   4.741   3.301  0.0038 -0.5573 -0.2495
 8555SOL    HW233992   6.168   4.672   3.272  0.1007 -0.3868 -0.4634
 8555SOL    HW333993   6.028   4.726   3.252  0.2661 -0.0920 -0.8480
 8555SOL    MW433994   6.107   4.730   3.290  0.0512 -0.4734 -0.3567
 8556SOL     OW33995   4.704   2.527   2.705  0.1245  0.0929 -0.0740
 8556SOL    HW233996   4.681   2.464   2.773  0.3515 -0.5859 -0.6096
 8556SOL    HW333997   4.699   2.477   2.623  2.6559  0.1017 -0.3168
 8556SOL    MW433998   4.700   2.512   2.703  0.4884  0.0045 -0.1767
 8557SOL     OW33999   1.460   2.151   4.499 -0.2165  0.6609  0.0888
 8557SOL    HW234000   1.470   2.072   4.446  0.7044  0.4784  0.5198
 8557SOL    HW334001   1.544   2.162   4.543 -0.0246  2.3342 -0.5820
 8557SOL    MW434002   1.472   2.142   4.498 -0.0697  0.8576  0.0572
 8558SOL     OW34003   0.231   5.789   6.006 -0.2711 -0.1497 -0.1582
 8558SOL    HW234004   0.209   5.868   6.055 -1.2535  0.5574 -1.6764
 8558SOL    HW334005   0.309   5.754   6.050 -0.5723  0.9347  1.3180
 8558SOL    MW434006   0.238   5.795   6.019 -0.4405  0.0867 -0.1637
 8559SOL     OW34007   5.615   6.032   5.067  0.3819  0.0048  0.7287
 8559SOL    HW234008   5.530   6.025   5.024  0.7661  1.5230 -0.3367
 8559SOL    HW334009   5.678   6.002   5.001  0.7767 -0.0503  1.1222
 8559SOL    MW434010   5.612   6.027   5.053  0.4847  0.1979  0.6400
 8560SOL     OW34011   3.071   3.835   1.137  0.5078 -0.3792  0.5582
 8560SOL    HW234012   3.138   3.855   1.072 -0.2621 -0.2146 -0.2045
 8560SOL    HW334013   3.092   3.747   1.167  0.5433 -0.6882 -0.3376
 8560SOL    MW434014   3.083   3.826   1.132  0.4109 -0.3983  0.3394
 8561SOL     OW34015   3.184   4.837   2.904 -0.1877  0.3294 -0.0303
 8561SOL    HW234016   3.271   4.813   2.872  0.6218  1.3789  1.2744
 8561SOL    HW334017   3.137   4.754   2.911  0.9186 -0.3243 -0.1457
 8561SOL    MW434018   3.190   4.823   2.901  0.0651  0.3816  0.1266
 8562SOL     OW34019   0.493   3.035   5.015  0.6234 -0.0798 -0.5285
 8562SOL    HW234020   0.578   3.002   5.045  0.4848 -1.2804 -1.3837
 8562SOL    HW334021   0.477   2.989   4.933 -0.4966  0.7290 -0.7871
 8562SOL    MW434022   0.502   3.025   5.008  0.4574 -0.1315 -0.6755
 8563SOL     OW34023   2.264   3.218   0.635  0.0696 -0.2529 -0.1023
 8563SOL    HW234024   2.249   3.139   0.582  0.9841 -0.2111 -0.4326
 8563SOL    HW334025   2.222   3.288   0.585  1.1365 -0.1726 -0.9205
 8563SOL    MW434026   2.256   3.217   0.621  0.3310 -0.2368 -0.2538
 8564SOL     OW34027   0.732   5.047   6.056  0.2432 -0.4993 -0.0011
 8564SOL    HW234028   0.649   5.025   6.013 -0.3282 -0.7826  1.2068
 8564SOL    HW334029   0.791   5.066   5.983 -1.3564  1.5718 -0.8902
 8564SOL    MW434030   0.729   5.047   6.040 -0.0432 -0.2634  0.0409
 8565SOL     OW34031   5.181   0.530   2.154  0.2633  0.0958  0.2338
 8565SOL    HW234032   5.198   0.529   2.060  2.5360  1.1244  0.5516
 8565SOL    HW334033   5.178   0.622   2.177 -1.1413 -0.1348  1.0596
 8565SOL    MW434034   5.183   0.542   2.145  0.3778  0.2011  0.3847
 8566SOL     OW34035   5.275   6.202   5.195  0.1452  0.0655  0.3677
 8566SOL    HW234036   5.307   6.292   5.193  0.9993 -0.2142  0.7731
 8566SOL    HW334037   5.310   6.166   5.277  3.1627 -1.8117 -1.5238
 8566SOL    MW434038   5.284   6.209   5.206  0.6560 -0.2191  0.1716
 8567SOL     OW34039   3.700   4.400   3.683 -0.6131  0.3294 -0.1717
 8567SOL    HW234040   3.665   4.314   3.663  0.9844 -0.1551 -1.0565
 8567SOL    HW334041   3.770   4.413   3.619 -1.2058  2.5517 -0.4682
 8567SOL    MW434042   3.704   4.391   3.672 -0.4805  0.5587 -0.3276
 8568SOL     OW34043   4.477   0.258   2.827 -0.3209  0.2362 -0.1888
 8568SOL    HW234044   4.389   0.249   2.864  0.2147 -1.5397  0.7636
 8568SOL    HW334045   4.521   0.323   2.883 -0.2093 -0.8276  0.9945
 8568SOL    MW434046   4.471   0.266   2.839 -0.2355 -0.1384  0.0930
 8569SOL     OW34047   5.162   2.922   0.945 -0.1633 -0.4020  0.0518
 8569SOL    HW234048   5.082   2.930   0.998 -0.4591 -0.9519 -0.3017
 8569SOL    HW334049   5.152   2.988   0.877 -0.5783 -0.8274 -0.3114
 8569SOL    MW434050   5.150   2.932   0.943 -0.2571 -0.5307 -0.0427
 8570SOL     OW34051   0.368   2.627   3.998  0.0892  0.5151  0.1966
 8570SOL    HW234052   0.278   2.596   3.989  0.2300  0.3358 -0.6444
 8570SOL    HW334053   0.359   2.721   4.014 -0.2448  0.5086  0.0587
 8570SOL    MW434054   0.355   2.636   3.999  0.0637  0.4906  0.0675
 8571SOL     OW34055   2.580   5.562   6.107  0.0900 -0.0738  0.2753
 8571SOL    HW234056   2.501   5.604   6.141 -0.0464  0.7633 -1.0056
 8571SOL    HW334057   2.595   5.488   6.165 -0.5691  0.8340  1.6632
 8571SOL    MW434058   2.572   5.558   6.119 -0.0150  0.1564  0.2894
 8572SOL     OW34059   5.560   3.922   3.141 -0.5401 -0.1649 -0.2644
 8572SOL    HW234060   5.609   3.998   3.109 -0.6136  0.2654  0.6200
 8572SOL    HW334061   5.513   3.890   3.064 -0.3763  0.5783 -0.6854
 8572SOL    MW434062   5.561   3.927   3.126 -0.5282 -0.0101 -0.2032
 8573SOL     OW34063   5.362   4.062   3.277  0.1769  0.0161  0.9026
 8573SOL    HW234064   5.429   4.024   3.220  1.3972 -1.7411  3.3294
 8573SOL    HW334065   5.328   4.136   3.227  2.2354 -0.4693 -1.4321
 8573SOL    MW434066   5.366   4.067   3.263  0.6095 -0.2798  0.9148
 8574SOL     OW34067   5.184   3.848   3.236 -0.2193 -0.2848 -0.3697
 8574SOL    HW234068   5.237   3.926   3.251 -0.4336 -0.5653  2.3511
 8574SOL    HW334069   5.243   3.775   3.256 -1.2546 -0.6358  1.5958
 8574SOL    MW434070   5.199   3.849   3.240 -0.3842 -0.3681  0.2486
 8575SOL     OW34071   5.449   1.758   0.166 -0.1572  0.0272 -0.6970
 8575SOL    HW234072   5.418   1.681   0.213 -1.3289 -0.0736 -1.5732
 8575SOL    HW334073   5.462   1.825   0.233 -1.4339 -0.2203 -0.1823
 8575SOL    MW434074   5.446   1.757   0.181 -0.4802 -0.0188 -0.7447
 8576SOL     OW34075   0.484   6.105   3.269  0.0877  0.2145 -0.5231
 8576SOL    HW234076   0.461   6.190   3.231 -1.3220 -0.1038 -0.3997
 8576SOL    HW334077   0.554   6.126   3.331 -0.8966  1.4551  0.2196
 8576SOL    MW434078   0.491   6.119   3.272 -0.2281  0.3362 -0.4088
 8577SOL     OW34079   5.537   4.894   1.362 -0.2266  0.0076  0.3964
 8577SOL    HW234080   5.543   4.981   1.401  0.5530  0.4411 -0.6206
 8577SOL    HW334081   5.555   4.909   1.269 -0.8777 -1.1371  0.0670
 8577SOL    MW434082   5.540   4.907   1.355 -0.2097 -0.0862  0.2187
 8578SOL     OW34083   1.021   0.866   5.156 -0.4080  0.1010 -0.0565
 8578SOL    HW234084   1.026   0.871   5.060 -0.9587  0.7958 -0.0643
 8578SOL    HW334085   0.963   0.792   5.173  2.6729 -2.5534 -0.1327
 8578SOL    MW434086   1.014   0.857   5.145 -0.0741 -0.1575 -0.0675
 8579SOL     OW34087   4.288   4.780   4.101  0.0430 -0.0464 -0.1305
 8579SOL    HW234088   4.222   4.743   4.159 -0.3765 -0.8668 -1.0957
 8579SOL    HW334089   4.329   4.850   4.152 -1.2269  0.1477  0.6624
 8579SOL    MW434090   4.285   4.784   4.115 -0.1799 -0.1290 -0.1532
 8580SOL     OW34091   5.857   4.337   5.160 -0.2575  0.0098 -0.2189
 8580SOL    HW234092   5.919   4.385   5.215 -0.3174  0.1897 -0.3086
 8580SOL    HW334093   5.773   4.346   5.205  0.0234 -1.3832  0.6296
 8580SOL    MW434094   5.854   4.345   5.173 -0.2283 -0.1502 -0.1188
 8581SOL     OW34095   1.572   2.640   1.304  1.0773  0.7858  0.0786
 8581SOL    HW234096   1.531   2.630   1.389 -0.4823 -0.8639 -0.7904
 8581SOL    HW334097   1.500   2.630   1.241  2.2763  1.2820 -1.4344
 8581SOL    MW434098   1.557   2.637   1.307  1.0297  0.6336 -0.2357
 8582SOL     OW34099   0.177   2.762   1.028 -0.0180 -0.0900 -0.0405
 8582SOL    HW234100   0.094   2.719   1.006 -0.1921  0.2088  0.0200
 8582SOL    HW334101   0.234   2.744   0.953 -0.9730  1.8777 -1.3100
 8582SOL    MW434102   0.174   2.754   1.015 -0.1670  0.2090 -0.2000
 8583SOL     OW34103   2.553   3.152   2.705 -0.0584  0.0244  0.6838
 8583SOL    HW234104   2.487   3.104   2.755  0.3039 -1.7560 -0.4710
 8583SOL    HW334105   2.513   3.166   2.619  1.7683 -3.0775 -0.8183
 8583SOL    MW434106   2.539   3.148   2.701  0.2304 -0.6198  0.3333
 8584SOL     OW34107   6.334   1.049   4.587 -0.0093 -0.0545  0.1336
 8584SOL    HW234108   6.301   1.040   4.498  2.3016 -0.9522 -0.7140
 8584SOL    HW334109   6.313   0.966   4.630 -0.4511  0.0857  0.1910
 8584SOL    MW434110   6.327   1.037   4.581  0.2373 -0.1545  0.0293
 8585SOL     OW34111   4.339   5.111   3.946  0.5233 -0.0976 -0.1414
 8585SOL    HW234112   4.286   5.040   3.909  2.6841 -2.1428  0.4761
 8585SOL    HW334113   4.429   5.081   3.937  1.6626  3.1735 -0.9811
 8585SOL    MW434114   4.344   5.097   3.940  0.9587  0.0642 -0.1707
 8586SOL     OW34115   2.460   0.385   5.464 -0.4256 -0.0471 -0.2087
 8586SOL    HW234116   2.529   0.416   5.405  0.2628  1.8687  1.4879
 8586SOL    HW334117   2.504   0.324   5.523 -0.4316  0.2925  0.1503
 8586SOL    MW434118   2.475   0.381   5.464 -0.3356  0.2505  0.0625
 8587SOL     OW34119   3.504   1.748   1.850 -0.2954  0.0102  0.3193
 8587SOL    HW234120   3.497   1.662   1.891  0.3178 -0.7646 -1.1053
 8587SOL    HW334121   3.564   1.797   1.906 -0.2955 -0.6519  0.9121
 8587SOL    MW434122   3.511   1.743   1.863 -0.2145 -0.1794  0.2096
 8588SOL     OW34123   3.905   5.164   4.022 -0.6419  0.3965 -0.6963
 8588SOL    HW234124   3.962   5.200   3.954 -0.0065  0.4548 -0.1368
 8588SOL    HW334125   3.883   5.239   4.077  0.3600  0.0316  0.2366
 8588SOL    MW434126   3.910   5.179   4.020 -0.4259  0.3560 -0.4994
 8589SOL     OW34127   0.085   4.254   2.864  0.4379 -0.0976 -0.6147
 8589SOL    HW234128   0.063   4.257   2.958  0.3438 -3.4932 -0.3795
 8589SOL    HW334129   0.006   4.219   2.822  0.9205  0.1596 -1.7664
 8589SOL    MW434130   0.071   4.250   2.871  0.4891 -0.5117 -0.7357
 8590SOL     OW34131   1.513   4.845   2.706  0.1306 -0.1014 -0.1133
 8590SOL    HW234132   1.483   4.836   2.796 -0.2031 -1.5688 -0.3391
 8590SOL    HW334133   1.508   4.939   2.688 -0.6426  0.1130  1.1033
 8590SOL    MW434134   1.509   4.856   2.715 -0.0155 -0.2667  0.0174
 8591SOL     OW34135   1.318   0.755   6.217  0.2980  0.4978 -0.3283
 8591SOL    HW234136   1.258   0.681   6.226  1.1919 -0.1138  0.8286
 8591SOL    HW334137   1.316   0.798   6.302  1.9820  0.0831 -0.0526
 8591SOL    MW434138   1.310   0.751   6.229  0.6381  0.3624 -0.1393
 8592SOL     OW34139   5.430   5.459   4.845 -0.0958  0.5602  0.2534
 8592SOL    HW234140   5.399   5.410   4.921 -0.9309 -0.1531 -0.5198
 8592SOL    HW334141   5.369   5.532   4.837  0.3435  0.9689  0.6116
 8592SOL    MW434142   5.418   5.462   4.854 -0.1480  0.5200  0.1987
 8593SOL     OW34143   0.598   4.609   2.466  0.2754 -0.3134 -0.1164
 8593SOL    HW234144   0.637   4.696   2.472  3.0103 -1.2678 -2.1021
 8593SOL    HW334145   0.620   4.567   2.549 -1.0083  0.7989  0.8288
 8593SOL    MW434146   0.606   4.615   2.478  0.4669 -0.2925 -0.2537
 8594SOL     OW34147   4.035   1.817   0.443 -0.5016 -0.1645 -0.2529
 8594SOL    HW234148   4.003   1.795   0.356  1.0366 -0.3164 -0.8139
 8594SOL    HW334149   4.106   1.755   0.459  1.2345  1.7527 -0.1619
 8594SOL    MW434150   4.040   1.806   0.434 -0.0696  0.0684 -0.3149
 8595SOL     OW34151   3.697   2.684   0.046 -0.5068  0.0695  0.7510
 8595SOL    HW234152   3.771   2.664  -0.012 -1.2646  0.4575 -0.3810
 8595SOL    HW334153   3.670   2.598   0.080 -2.2470 -0.7137 -2.2332
 8595SOL    MW434154   3.703   2.670   0.042 -0.8364  0.0173  0.2079
 8596SOL     OW34155   0.044   0.902   6.208  0.0194  0.2306  0.0853
 8596SOL    HW234156   0.076   0.871   6.123  1.4797 -0.6462  0.9064
 8596SOL    HW334157   0.111   0.963   6.239 -0.0398 -0.1451  0.9982
 8596SOL    MW434158   0.057   0.906   6.201  0.2042  0.0654  0.3141
 8597SOL     OW34159   6.085   3.111   1.278 -0.4613  0.8828  0.4485
 8597SOL    HW234160   6.167   3.083   1.319 -0.8952  1.1288  1.5169
 8597SOL    HW334161   6.110   3.190   1.229 -0.2995  1.7807  1.9027
 8597SOL    MW434162   6.099   3.118   1.277 -0.4972  1.0337  0.7814
 8598SOL     OW34163   1.548   1.207   4.242 -0.5279 -0.6863  0.3450
 8598SOL    HW234164   1.533   1.127   4.292  1.0351 -1.4204 -0.2752
 8598SOL    HW334165   1.581   1.176   4.157  0.2237  0.6005  0.1392
 8598SOL    MW434166   1.550   1.192   4.237 -0.2225 -0.6134  0.2360
 8599SOL     OW34167   0.949   1.343   4.800  0.0311 -0.4444  0.1055
 8599SOL    HW234168   0.863   1.309   4.826 -0.8080  0.2408 -1.5818
 8599SOL    HW334169   0.943   1.437   4.814  1.2693 -0.5675  1.8663
 8599SOL    MW434170   0.937   1.351   4.805  0.0837 -0.3702  0.1152
 8600SOL     OW34171   0.727   1.844   1.096 -0.5721  0.3277 -0.1877
 8600SOL    HW234172   0.776   1.806   1.023  0.3264 -0.3695  0.7459
 8600SOL    HW334173   0.692   1.768   1.143 -0.9475  0.7578  0.2305
 8600SOL    MW434174   0.729   1.829   1.092 -0.5031  0.2924 -0.0093
 8601SOL     OW34175   2.510   0.830   3.540 -0.6870 -0.4708 -0.2237
 8601SOL    HW234176   2.605   0.839   3.534 -0.8294  0.3027 -1.6031
 8601SOL    HW334177   2.496   0.779   3.620  0.7297  2.1826  1.8872
 8601SOL    MW434178   2.521   0.824   3.550 -0.5189 -0.0186 -0.1272
 8602SOL     OW34179   4.827   0.198   3.281  0.2942  0.3094 -0.5017
 8602SOL    HW234180   4.756   0.259   3.300 -0.9421 -0.7672 -1.4418
 8602SOL    HW334181   4.810   0.169   3.191  0.9506 -1.2698 -0.1528
 8602SOL    MW434182   4.816   0.202   3.271  0.2177 -0.0410 -0.5797
 8603SOL     OW34183   3.063   0.382   0.908 -0.8136 -0.1369  0.2565
 8603SOL    HW234184   3.139   0.395   0.851 -1.4497  0.5709 -0.4542
 8603SOL    HW334185   2.992   0.361   0.848 -0.4899 -4.6337  1.0791
 8603SOL    MW434186   3.064   0.381   0.893 -0.8548 -0.6368  0.2713
 8604SOL     OW34187   3.744   5.983   4.417 -0.1428  0.4768  0.1293
 8604SOL    HW234188   3.812   6.022   4.362 -1.5501  0.2077 -1.9068
 8604SOL    HW334189   3.778   5.895   4.437  1.2961  1.2917  1.4951
 8604SOL    MW434190   3.758   5.976   4.412 -0.1386  0.5488  0.0408
 8605SOL     OW34191   3.936   3.989   2.013  0.5538 -0.1305 -0.4005
 8605SOL    HW234192   3.979   4.073   2.030  0.6980 -0.3059  0.1293
 8605SOL    HW334193   4.008   3.931   1.989  0.6383 -0.4443  0.5633
 8605SOL    MW434194   3.951   3.993   2.012  0.5840 -0.1950 -0.2034
 8606SOL     OW34195   0.831   2.849   2.311 -0.1613 -0.1282  0.7279
 8606SOL    HW234196   0.865   2.840   2.221 -1.1529  2.1718  0.0619
 8606SOL    HW334197   0.756   2.790   2.314 -0.4360  0.1566 -0.1407
 8606SOL    MW434198   0.826   2.840   2.299 -0.3283  0.2128  0.5255
 8607SOL     OW34199   3.430   3.454   4.837  0.1920 -0.1957 -0.4315
 8607SOL    HW234200   3.347   3.407   4.824  0.4993 -0.5546 -1.1470
 8607SOL    HW334201   3.403   3.543   4.859 -0.3834 -0.3126 -0.6308
 8607SOL    MW434202   3.415   3.459   4.838  0.1566 -0.2585 -0.5522
 8608SOL     OW34203   2.348   2.769   5.844 -0.2989 -1.1672 -0.3287
 8608SOL    HW234204   2.386   2.777   5.757 -1.0773 -0.0437 -0.5838
 8608SOL    HW334205   2.417   2.730   5.897  0.5663 -0.8550 -1.2029
 8608SOL    MW434206   2.362   2.765   5.840 -0.2874 -0.9777 -0.4777
 8609SOL     OW34207   0.275   5.012   2.529  0.0381 -0.0550 -0.4018
 8609SOL    HW234208   0.328   5.041   2.604 -0.6587  0.4461 -0.0854
 8609SOL    HW334209   0.225   5.090   2.504 -1.7402 -0.9115  0.3396
 8609SOL    MW434210   0.275   5.026   2.536 -0.2885 -0.1019 -0.2622
 8610SOL     OW34211   2.961   6.161   4.860 -0.3472 -0.5179 -0.0726
 8610SOL    HW234212   2.904   6.116   4.798 -0.9150 -1.3581  1.0252
 8610SOL    HW334213   2.903   6.220   4.908 -0.0786 -0.5158  0.2545
 8610SOL    MW434214   2.946   6.163   4.858 -0.3867 -0.6285  0.1154
 8611SOL     OW34215   5.536   3.661   4.312  0.0556 -0.5457 -0.0793
 8611SOL    HW234216   5.517   3.755   4.309 -2.9243 -1.0627 -0.6307
 8611SOL    HW334217   5.593   3.651   4.388 -1.6915  1.4409  1.6196
 8611SOL    MW434218   5.541   3.672   4.322 -0.5680 -0.3518  0.0721
 8612SOL     OW34219   3.824   1.355   0.273 -0.5250 -0.0442  0.0789
 8612SOL    HW234220   3.872   1.316   0.201 -1.6459  0.8140 -1.1745
 8612SOL    HW334221   3.733   1.361   0.242 -1.2004 -0.3605  1.8539
 8612SOL    MW434222   3.818   1.351   0.260 -0.7620  0.0273  0.1477
 8613SOL     OW34223   4.477   1.590   5.865  0.2608 -0.4018 -0.5747
 8613SOL    HW234224   4.492   1.598   5.771  0.0464 -2.9687 -0.8949
 8613SOL    HW334225   4.422   1.512   5.875  1.0867 -0.7992  1.7342
 8613SOL    MW434226   4.472   1.581   5.854  0.3415 -0.7929 -0.3123
 8614SOL     OW34227   0.627   2.674   2.391  0.9473  0.5671 -0.0394
 8614SOL    HW234228   0.693   2.605   2.401  0.1791 -0.2896 -0.8056
 8614SOL    HW334229   0.543   2.629   2.394  0.4408  1.3747 -1.1744
 8614SOL    MW434230   0.625   2.659   2.393  0.7791  0.5606 -0.2903
 8615SOL     OW34231   1.444   0.779   2.401  0.1985 -0.0358 -0.0639
 8615SOL    HW234232   1.509   0.754   2.334  0.6764 -0.3306  0.5000
 8615SOL    HW334233   1.433   0.873   2.388 -0.0998 -0.1727 -0.8889
 8615SOL    MW434234   1.451   0.788   2.390  0.2222 -0.0927 -0.0983
 8616SOL     OW34235   4.768   5.848   2.669  0.4590 -0.4198 -0.3460
 8616SOL    HW234236   4.828   5.780   2.701 -0.6527 -1.4745 -0.4560
 8616SOL    HW334237   4.805   5.930   2.703 -0.1141 -1.3680  2.8410
 8616SOL    MW434238   4.781   5.850   2.678  0.2367 -0.6840  0.0600
 8617SOL     OW34239   2.396   6.036   4.742 -0.0184 -0.2079 -0.0010
 8617SOL    HW234240   2.463   5.990   4.792  0.4964  0.7902  0.2484
 8617SOL    HW334241   2.317   6.030   4.796  0.5840  1.0504  1.0682
 8617SOL    MW434242   2.394   6.030   4.756  0.1290  0.0898  0.1730
 8618SOL     OW34243   6.116   3.434   4.253  0.2051  0.6115  0.4302
 8618SOL    HW234244   6.199   3.434   4.301 -0.5781  0.6961  1.8536
 8618SOL    HW334245   6.064   3.366   4.296 -0.6730  0.9610 -0.0602
 8618SOL    MW434246   6.120   3.425   4.265 -0.0141  0.6688  0.5533
 8619SOL     OW34247   4.131   3.683   4.137  0.2144  0.5046 -0.1771
 8619SOL    HW234248   4.172   3.643   4.060 -4.1476 -0.0890 -2.5089
 8619SOL    HW334249   4.195   3.748   4.167  2.9179 -0.5201 -3.1511
 8619SOL    MW434250   4.145   3.686   4.130 -0.0044  0.2911 -0.8772
 8620SOL     OW34251   2.279   4.036   1.578 -0.6833  0.5411  0.3301
 8620SOL    HW234252   2.315   4.043   1.666  0.6869  2.1936 -0.3096
 8620SOL    HW334253   2.349   3.998   1.525 -1.6575 -0.9082  0.0031
 8620SOL    MW434254   2.293   4.032   1.582 -0.6310  0.5679  0.2025
 8621SOL     OW34255   4.338   0.846   5.905  0.4503  0.4731 -0.2193
 8621SOL    HW234256   4.244   0.841   5.892  0.3908 -0.2218  0.3888
 8621SOL    HW334257   4.376   0.802   5.830  0.2774  0.4697 -0.3037
 8621SOL    MW434258   4.331   0.840   5.894  0.4196  0.3810 -0.1502
 8622SOL     OW34259   4.134   2.237   1.300  0.5606 -0.2768 -0.4008
 8622SOL    HW234260   4.172   2.268   1.382 -0.2752  0.3902 -0.2568
 8622SOL    HW334261   4.185   2.280   1.232  0.8155 -0.3032 -0.2288
 8622SOL    MW434262   4.146   2.246   1.302  0.4839 -0.1923 -0.3591
 8623SOL     OW34263   4.011   6.427   0.310 -0.1726  0.2935 -0.1018
 8623SOL    HW234264   4.065   6.352   0.285  0.1933 -0.7333  3.2603
 8623SOL    HW334265   4.065   6.503   0.291  0.3739 -0.4176 -1.4778
 8623SOL    MW434266   4.025   6.427   0.304 -0.0522  0.0642  0.1603
 8624SOL     OW34267   1.279   2.128   1.921 -0.0387 -0.7087  0.1558
 8624SOL    HW234268   1.293   2.054   1.980  0.5997 -1.5673 -1.0299
 8624SOL    HW334269   1.326   2.200   1.963  0.4341 -1.3069  0.6869
 8624SOL    MW434270   1.287   2.128   1.934  0.1079 -0.9009  0.0694
 8625SOL     OW34271   2.035   5.408   0.578 -0.2599 -0.1533  0.0414
 8625SOL    HW234272   2.025   5.473   0.647 -0.8163 -0.1336 -0.0516
 8625SOL    HW334273   2.107   5.352   0.608  0.5590  0.7862 -0.1145
 8625SOL    MW434274   2.043   5.409   0.591 -0.2253 -0.0268  0.0086
 8626SOL     OW34275   4.112   6.042   0.040  0.5854  0.4026  0.0769
 8626SOL    HW234276   4.170   6.009  -0.029  0.4065  0.1414  0.0525
 8626SOL    HW334277   4.073   5.963   0.078 -0.2569  0.6184 -0.3361
 8626SOL    MW434278   4.115   6.027   0.036  0.4506  0.3966  0.0192
 8627SOL     OW34279   4.198   2.980   5.652 -0.4348  0.3810  0.3250
 8627SOL    HW234280   4.176   2.887   5.645 -0.6882  0.3494  1.3659
 8627SOL    HW334281   4.122   3.020   5.695  1.1978  0.3703  3.5037
 8627SOL    MW434282   4.185   2.973   5.656 -0.2528  0.3754  0.8817
 8628SOL     OW34283   6.187   5.070   5.852  0.4463 -0.2102  0.5106
 8628SOL    HW234284   6.185   4.975   5.847 -0.3781 -0.3210  2.2915
 8628SOL    HW334285   6.277   5.091   5.879  0.2812 -0.5733  1.3618
 8628SOL    MW434286   6.199   5.061   5.855  0.3158 -0.2728  0.8579
 8629SOL     OW34287   3.983   0.469   3.938 -0.5197  0.1670 -0.0659
 8629SOL    HW234288   3.991   0.564   3.927 -1.5648  0.1797 -0.8382
 8629SOL    HW334289   3.895   0.456   3.972 -0.0886 -0.4886  0.8652
 8629SOL    MW434290   3.973   0.480   3.941 -0.6007  0.0822 -0.0449
 8630SOL     OW34291   1.503   4.528   4.784 -0.0307 -0.3196 -0.0625
 8630SOL    HW234292   1.518   4.454   4.842  0.1763 -0.4692 -0.3055
 8630SOL    HW334293   1.585   4.537   4.735  0.3626  0.7821  0.7658
 8630SOL    MW434294   1.516   4.520   4.785  0.0485 -0.1940  0.0147
 8631SOL     OW34295   2.377   2.395   1.666 -0.0305  0.7529 -0.2391
 8631SOL    HW234296   2.417   2.477   1.636 -0.8765  0.9935 -0.7342
 8631SOL    HW334297   2.423   2.327   1.617  1.0416  0.8683  0.5584
 8631SOL    MW434298   2.388   2.396   1.656 -0.0007  0.7998 -0.1992
 8632SOL     OW34299   0.758   3.155   1.734 -0.2547  0.3431  0.6255
 8632SOL    HW234300   0.669   3.172   1.703 -0.6896 -1.9307  0.4206
 8632SOL    HW334301   0.753   3.067   1.773  1.7756  0.4074  1.1442
 8632SOL    MW434302   0.746   3.145   1.735 -0.0442  0.0516  0.6669
 8633SOL     OW34303   0.749   5.299   5.058  0.1451 -0.4374 -0.4157
 8633SOL    HW234304   0.808   5.292   5.133  0.6244 -1.7563 -0.8752
 8633SOL    HW334305   0.722   5.391   5.056  0.9866 -0.1509  0.7102
 8633SOL    MW434306   0.753   5.310   5.068  0.3193 -0.5736 -0.3278
 8634SOL     OW34307   5.845   4.161   4.012 -0.1444 -0.1639  0.3946
 8634SOL    HW234308   5.897   4.235   4.044  0.2941 -0.5669  0.6166
 8634SOL    HW334309   5.762   4.201   3.985 -0.2418  0.2981  1.3225
 8634SOL    MW434310   5.841   4.176   4.013 -0.0994 -0.1561  0.5463
 8635SOL     OW34311   5.247   6.027   1.254 -0.5801  0.4977 -0.3538
 8635SOL    HW234312   5.304   6.035   1.178 -0.0394 -0.0577 -0.0185
 8635SOL    HW334313   5.189   5.954   1.233 -0.6784  0.5883 -0.3945
 8635SOL    MW434314   5.247   6.018   1.241 -0.5217  0.4363 -0.3149
 8636SOL     OW34315   6.227   2.326   1.626 -0.4630  0.0653  0.0630
 8636SOL    HW234316   6.147   2.273   1.621 -0.4559 -0.1175  1.4145
 8636SOL    HW334317   6.199   2.415   1.608 -1.0791  0.0756  1.0193
 8636SOL    MW434318   6.213   2.330   1.623 -0.5434  0.0426  0.3675
 8637SOL     OW34319   2.595   5.919   0.223 -0.3951 -0.7766  0.1177
 8637SOL    HW234320   2.665   5.864   0.187 -0.7256 -1.9636  1.2134
 8637SOL    HW334321   2.515   5.887   0.180 -0.3920  0.0059 -0.4983
 8637SOL    MW434322   2.594   5.907   0.212 -0.4383 -0.8300  0.1810
 8638SOL     OW34323   5.806   0.067   2.707  0.5169 -0.0769 -0.0677
 8638SOL    HW234324   5.900   0.071   2.727 -0.1046  0.8693  3.2867
 8638SOL    HW334325   5.766   0.130   2.767 -2.3300 -0.7414 -1.1054
 8638SOL    MW434326   5.813   0.076   2.718  0.0593 -0.0397  0.2379
 8639SOL     OW34327   4.064   5.412   5.481 -0.0826 -0.1784 -0.2656
 8639SOL    HW234328   4.121   5.354   5.432  0.6764  0.2825  0.0624
 8639SOL    HW334329   4.049   5.487   5.423  1.6192  0.8397  0.5316
 8639SOL    MW434330   4.069   5.414   5.467  0.2421  0.0167 -0.1171
 8640SOL     OW34331   4.005   5.741   1.468  0.1194  0.1245 -0.3267
 8640SOL    HW234332   4.046   5.788   1.395 -0.0439  1.3039  0.3077
 8640SOL    HW334333   3.983   5.810   1.531  1.8332 -1.0049  1.6314
 8640SOL    MW434334   4.007   5.756   1.467  0.3239  0.1311  0.0154
 8641SOL     OW34335   4.385   6.271   5.280  0.0724  0.6338 -0.0569
 8641SOL    HW234336   4.411   6.185   5.314 -1.4469 -0.1313 -0.7156
 8641SOL    HW334337   4.468   6.315   5.261  0.9077 -0.2678  1.2564
 8641SOL    MW434338   4.400   6.266   5.282 -0.0178  0.4139  0.0295
 8642SOL     OW34339   5.350   2.169   4.374 -0.3364  0.2393 -0.5981
 8642SOL    HW234340   5.352   2.074   4.388  1.3605  0.3733  0.3221
 8642SOL    HW334341   5.346   2.179   4.279  1.5025 -0.7840 -0.8195
 8642SOL    MW434342   5.350   2.157   4.364  0.1301  0.1220 -0.5059
 8643SOL     OW34343   1.521   3.314   2.607 -0.0237 -0.0835  0.1795
 8643SOL    HW234344   1.502   3.222   2.627 -0.4429 -0.4289 -1.6560
 8643SOL    HW334345   1.438   3.349   2.574  0.3951  0.6702 -0.0982
 8643SOL    MW434346   1.508   3.306   2.605 -0.0238 -0.0296 -0.0993
 8644SOL     OW34347   3.119   0.223   2.533  0.1314 -0.1659  0.0332
 8644SOL    HW234348   3.033   0.226   2.573 -0.1626 -3.2338 -0.1095
 8644SOL    HW334349   3.103   0.193   2.443  1.2836 -0.5212 -0.0768
 8644SOL    MW434350   3.106   0.219   2.526  0.2446 -0.6175 -0.0001
 8645SOL     OW34351   5.916   6.157   5.899 -0.4297  0.0904  0.3222
 8645SOL    HW234352   5.848   6.158   5.832  0.3206 -2.8843 -0.6468
 8645SOL    HW334353   5.998   6.159   5.850  0.1973  1.3349  1.3635
 8645SOL    MW434354   5.918   6.157   5.884 -0.2480 -0.1379  0.3318
 8646SOL     OW34355   3.609   1.313   2.218 -0.1805  0.1904  0.2118
 8646SOL    HW234356   3.687   1.341   2.264 -0.0219 -0.8662  0.6242
 8646SOL    HW334357   3.551   1.280   2.286  0.0511 -1.3787 -0.3037
 8646SOL    MW434358   3.611   1.312   2.233 -0.1290 -0.1560  0.1982
 8647SOL     OW34359   6.382   2.430   4.348  0.1420 -0.2001  0.0852
 8647SOL    HW234360   6.351   2.477   4.271 -0.7944  1.6006  1.4948
 8647SOL    HW334361   6.454   2.375   4.316 -2.5686 -2.4338 -2.7845
 8647SOL    MW434362   6.388   2.429   4.334 -0.3392 -0.2572 -0.1075
 8648SOL     OW34363   0.520   3.448   6.076  0.0118  0.5444 -0.1078
 8648SOL    HW234364   0.485   3.460   6.165 -1.8262  0.4105 -0.7732
 8648SOL    HW334365   0.491   3.360   6.050  2.3670 -0.3187 -0.0920
 8648SOL    MW434366   0.512   3.438   6.085  0.0800  0.4129 -0.1935
 8649SOL     OW34367   2.504   2.396   3.818 -0.1977 -0.5265  0.0114
 8649SOL    HW234368   2.457   2.358   3.892  0.5120 -1.6612 -0.0962
 8649SOL    HW334369   2.567   2.456   3.858  1.2904 -2.3071  0.5017
 8649SOL    MW434370   2.506   2.399   3.833  0.0923 -0.9111  0.0619
 8650SOL     OW34371   1.479   4.444   3.076  0.7217 -0.3422  0.5851
 8650SOL    HW234372   1.496   4.417   2.986  0.2820 -0.2045  0.4577
 8650SOL    HW334373   1.561   4.483   3.106  0.3103  1.4284 -0.4332
 8650SOL    MW434374   1.492   4.446   3.068  0.6094 -0.0904  0.4339
 8651SOL     OW34375   6.362   6.214   6.302  0.5751 -0.1795 -0.3503
 8651SOL    HW234376   6.321   6.229   6.217 -1.3426  4.3798  1.0999
 8651SOL    HW334377   6.296   6.165   6.351 -0.0019  0.6039 -0.3254
 8651SOL    MW434378   6.348   6.209   6.297  0.2459  0.5254 -0.1557
 8652SOL     OW34379   5.930   3.816   0.707 -0.0616  0.5663 -0.6056
 8652SOL    HW234380   5.836   3.829   0.697 -1.0665 -1.4882  3.5806
 8652SOL    HW334381   5.949   3.735   0.658 -0.8667  0.1443 -0.2389
 8652SOL    MW434382   5.920   3.807   0.699 -0.3004  0.2395 -0.0049
 8653SOL     OW34383   4.100   0.228   0.133 -0.2016  0.8844  0.4010
 8653SOL    HW234384   4.022   0.276   0.161  0.0116  0.3020  2.1164
 8653SOL    HW334385   4.075   0.187   0.050 -1.4005  1.4463  0.4684
 8653SOL    MW434386   4.087   0.229   0.126 -0.3316  0.8817  0.6362
 8654SOL     OW34387   1.682   4.857   4.479 -0.4934 -0.2338  0.4266
 8654SOL    HW234388   1.665   4.763   4.487  3.0800 -1.0270  0.4778
 8654SOL    HW334389   1.606   4.899   4.519 -1.6830 -3.1224  1.4653
 8654SOL    MW434390   1.670   4.850   4.485 -0.1789 -0.7196  0.5704
 8655SOL     OW34391   4.751   5.215   1.334  0.2603 -0.5447 -0.1442
 8655SOL    HW234392   4.683   5.152   1.358  1.4290 -1.4490  0.8405
 8655SOL    HW334393   4.723   5.297   1.376 -1.3226 -0.2967 -1.5292
 8655SOL    MW434394   4.738   5.218   1.342  0.2057 -0.6313 -0.1970
 8656SOL     OW34395   4.419   6.296   4.958 -0.0212 -0.2244  0.2540
 8656SOL    HW234396   4.342   6.345   4.987 -1.7860 -1.8522 -1.4121
 8656SOL    HW334397   4.440   6.240   5.033 -0.6109  0.0472  0.6370
 8656SOL    MW434398   4.412   6.295   4.972 -0.3319 -0.4033  0.0847
 8657SOL     OW34399   4.389   5.246   1.899 -0.2445  0.4669  0.1896
 8657SOL    HW234400   4.397   5.157   1.865 -1.0202  0.8280 -1.0238
 8657SOL    HW334401   4.402   5.237   1.993 -0.9953 -1.0291  0.1806
 8657SOL    MW434402   4.392   5.233   1.907 -0.4459  0.3171  0.0283
 8658SOL     OW34403   2.586   4.056   0.552  0.1768 -0.5038  0.0564
 8658SOL    HW234404   2.609   3.984   0.610 -1.1466 -2.5111 -1.7455
 8658SOL    HW334405   2.660   4.063   0.492  0.0082 -0.8339 -0.1907
 8658SOL    MW434406   2.599   4.047   0.552 -0.0200 -0.8122 -0.2139
 8659SOL     OW34407   4.320   2.497   4.878  0.4518 -0.4217 -0.1733
 8659SOL    HW234408   4.325   2.558   4.804 -0.3368 -0.8303 -0.5805
 8659SOL    HW334409   4.260   2.539   4.940 -0.8094 -1.1412 -0.8451
 8659SOL    MW434410   4.312   2.511   4.876  0.1813 -0.5705 -0.3157
 8660SOL     OW34411   3.409   4.623   0.529  0.4386 -1.0127 -0.1102
 8660SOL    HW234412   3.449   4.542   0.560  0.7350 -0.9262 -0.2659
 8660SOL    HW334413   3.369   4.661   0.608  1.5022 -0.6104  0.2555
 8660SOL    MW434414   3.409   4.618   0.544  0.6180 -0.9482 -0.0825
 8661SOL     OW34415   0.185   1.857   4.629  0.0654 -0.1258 -0.1352
 8661SOL    HW234416   0.186   1.950   4.607  0.4514  0.7321  3.0555
 8661SOL    HW334417   0.278   1.832   4.632 -0.0347 -0.6506 -0.9163
 8661SOL    MW434418   0.198   1.866   4.626  0.1031 -0.0818  0.1827
 8662SOL     OW34419   3.808   3.168   2.722 -0.7591  0.1351  0.3294
 8662SOL    HW234420   3.819   3.144   2.814 -1.0903  0.5849  0.4893
 8662SOL    HW334421   3.869   3.240   2.709  1.3331 -1.6512 -0.5347
 8662SOL    MW434422   3.818   3.174   2.733 -0.5267 -0.0412  0.2365
 8663SOL     OW34423   5.928   6.413   5.679 -0.2666  0.0540  0.0738
 8663SOL    HW234424   6.009   6.370   5.705 -0.7137 -0.1794  1.1377
 8663SOL    HW334425   5.955   6.499   5.648  0.5159 -0.5438 -0.9635
 8663SOL    MW434426   5.942   6.419   5.678 -0.2224 -0.0556  0.0773
 8664SOL     OW34427   2.600   5.407   6.367 -0.0909  0.2030 -1.0416
 8664SOL    HW234428   2.633   5.321   6.342  1.1176  0.6680 -1.1204
 8664SOL    HW334429   2.507   5.392   6.387  0.2583 -1.2483 -0.3464
 8664SOL    MW434430   2.592   5.394   6.366  0.1146  0.0729 -0.9603
 8665SOL     OW34431   5.218   1.621   4.973 -0.5430  0.7493 -0.6716
 8665SOL    HW234432   5.243   1.529   4.967 -1.3126  0.4959 -0.1674
 8665SOL    HW334433   5.301   1.667   4.990 -0.1862  0.1250 -0.6806
 8665SOL    MW434434   5.232   1.615   4.975 -0.5975  0.6335 -0.6063
 8666SOL     OW34435   2.555   1.117   5.315  0.4513 -0.7612 -0.3451
 8666SOL    HW234436   2.485   1.063   5.279  1.4140 -0.3309 -3.1174
 8666SOL    HW334437   2.550   1.199   5.267  2.5428 -0.5463 -0.3064
 8666SOL    MW434438   2.545   1.120   5.304  0.8543 -0.6760 -0.7057
 8667SOL     OW34439   3.433   2.409   0.923 -0.6293 -0.0557  0.1886
 8667SOL    HW234440   3.456   2.351   0.850  1.5016 -0.1707  0.8701
 8667SOL    HW334441   3.509   2.406   0.981 -1.6117  1.2704  1.6435
 8667SOL    MW434442   3.446   2.401   0.921 -0.4778  0.1041  0.4704
 8668SOL     OW34443   1.454   5.558   0.877  0.4513  0.2760  0.1662
 8668SOL    HW234444   1.502   5.641   0.886 -1.4779  1.3059  1.6313
 8668SOL    HW334445   1.403   5.569   0.796 -1.1207  1.3081  1.2337
 8668SOL    MW434446   1.454   5.571   0.867 -0.0106  0.5481  0.5003
 8669SOL     OW34447   4.629   1.006   0.788  0.7074  0.3614  0.0915
 8669SOL    HW234448   4.614   1.026   0.880  0.6143 -0.5570  0.2767
 8669SOL    HW334449   4.559   1.054   0.742 -0.0358 -0.2195  0.5996
 8669SOL    MW434450   4.618   1.015   0.794  0.5971  0.1636  0.1829
 8670SOL     OW34451   3.667   1.241   5.683  0.8803 -0.6744 -0.2668
 8670SOL    HW234452   3.721   1.186   5.740 -0.9421 -1.3442  0.8962
 8670SOL    HW334453   3.583   1.196   5.680  0.6855 -0.2806 -2.9665
 8670SOL    MW434454   3.663   1.228   5.690  0.6142 -0.7108 -0.4695
 8671SOL     OW34455   2.831   1.589   3.826 -0.5280  0.4198  0.3567
 8671SOL    HW234456   2.846   1.630   3.741 -0.9110 -1.8634 -0.9050
 8671SOL    HW334457   2.736   1.588   3.836 -0.5071  0.1650  0.5424
 8671SOL    MW434458   2.821   1.594   3.816 -0.5758  0.0849  0.2147
 8672SOL     OW34459   2.348   4.941   3.774 -0.7472 -0.3382  0.2450
 8672SOL    HW234460   2.442   4.957   3.766 -0.8578 -0.5282 -1.9094
 8672SOL    HW334461   2.336   4.850   3.744 -1.8069  0.2856 -1.3859
 8672SOL    MW434462   2.359   4.931   3.769 -0.9016 -0.2810 -0.2544
 8673SOL     OW34463   5.089   4.145   5.585  0.3918  0.1374 -0.1678
 8673SOL    HW234464   5.150   4.138   5.659  0.1426 -1.2214 -0.0667
 8673SOL    HW334465   5.079   4.055   5.554  0.3732  0.6666 -1.7686
 8673SOL    MW434466   5.096   4.132   5.591  0.3564  0.0279 -0.3656
 8674SOL     OW34467   2.289   2.803   5.253  0.1737 -0.7845  0.2086
 8674SOL    HW234468   2.209   2.830   5.208  0.5665 -0.0582 -0.0764
 8674SOL    HW334469   2.262   2.789   5.344  0.0435  1.1653  0.5156
 8674SOL    MW434470   2.275   2.805   5.259  0.2084 -0.4314  0.2115
 8675SOL     OW34471   1.187   5.304   5.639  0.0792  0.1348 -0.2524
 8675SOL    HW234472   1.192   5.210   5.627  0.2935  0.0977  0.1078
 8675SOL    HW334473   1.245   5.341   5.571  1.1364 -0.0599  0.5153
 8675SOL    MW434474   1.195   5.297   5.628  0.2470  0.1042 -0.1036
 8676SOL     OW34475   1.398   1.223   4.589 -0.4291  0.2073 -0.7166
 8676SOL    HW234476   1.457   1.148   4.597 -1.8788 -0.8893  0.6426
 8676SOL    HW334477   1.430   1.286   4.653 -0.9884 -0.6205  0.4321
 8676SOL    MW434478   1.410   1.221   4.599 -0.6941 -0.0466 -0.3857
 8677SOL     OW34479   4.850   2.190   5.594 -0.0681 -0.0156  0.2910
 8677SOL    HW234480   4.798   2.150   5.663  2.0132  1.2875  2.7724
 8677SOL    HW334481   4.939   2.158   5.610  1.0377  2.7549  0.2336
 8677SOL    MW434482   4.855   2.180   5.605  0.3524  0.5219  0.6108
 8678SOL     OW34483   3.379   5.314   1.285 -0.2475 -0.3008 -0.2041
 8678SOL    HW234484   3.459   5.360   1.262  0.0502 -1.0168 -0.6172
 8678SOL    HW334485   3.366   5.333   1.378 -1.2298  2.2584 -0.7944
 8678SOL    MW434486   3.388   5.322   1.294 -0.3378 -0.0576 -0.3365
 8679SOL     OW34487   4.093   2.667   3.363 -0.4848  0.4778 -0.0403
 8679SOL    HW234488   4.032   2.594   3.367  0.5354 -0.4006  0.0504
 8679SOL    HW334489   4.125   2.676   3.453 -1.3118  1.6708  0.1463
 8679SOL    MW434490   4.089   2.658   3.376 -0.4593  0.5193 -0.0037
 8680SOL     OW34491   1.289   5.788   5.753  0.1119  0.2791  0.3204
 8680SOL    HW234492   1.331   5.872   5.770 -0.3479  0.4953  0.4219
 8680SOL    HW334493   1.229   5.776   5.826 -0.1093  0.0465  0.1050
 8680SOL    MW434494   1.286   5.797   5.765  0.0220  0.2769  0.3054
 8681SOL     OW34495   1.425   0.097   5.547  0.1652  0.7967  0.3761
 8681SOL    HW234496   1.498   0.053   5.504  0.2546  1.1848  0.1251
 8681SOL    HW334497   1.467   0.159   5.607  0.0718 -0.5875  1.9736
 8681SOL    MW434498   1.440   0.099   5.549  0.1646  0.6653  0.5537
 8682SOL     OW34499   3.608   0.451   4.335  0.2083  0.1083 -0.2280
 8682SOL    HW234500   3.517   0.465   4.308 -0.4469 -0.5311  1.5133
 8682SOL    HW334501   3.648   0.538   4.329 -0.5654  0.4434 -0.7860
 8682SOL    MW434502   3.601   0.465   4.330  0.0198  0.0682 -0.0719
 8683SOL     OW34503   3.572   1.336   4.595  0.1263  0.0756  0.0713
 8683SOL    HW234504   3.497   1.323   4.653  1.0589 -1.1095  1.0697
 8683SOL    HW334505   3.626   1.400   4.641 -0.1771  0.7942 -0.5608
 8683SOL    MW434506   3.569   1.343   4.609  0.2093  0.0141  0.1197
 8684SOL     OW34507   6.187   6.039   1.189  0.4081  0.3840 -0.1108
 8684SOL    HW234508   6.152   6.066   1.104 -0.5636  2.5641  0.8969
 8684SOL    HW334509   6.192   6.120   1.240  0.6730 -0.8938  2.0321
 8684SOL    MW434510   6.183   6.053   1.185  0.3149  0.5031  0.3049
 8685SOL     OW34511   5.238   2.651   0.921 -0.2629 -0.2970 -0.1470
 8685SOL    HW234512   5.280   2.640   0.836  1.6754  0.9972  0.5872
 8685SOL    HW334513   5.215   2.744   0.925  1.4133  0.1041  1.4552
 8685SOL    MW434514   5.240   2.661   0.910  0.2140 -0.0733  0.1613
 8686SOL     OW34515   6.129   0.395   4.150  0.6861 -0.1299 -0.1757
 8686SOL    HW234516   6.079   0.476   4.155  0.2514 -0.4406  0.9609
 8686SOL    HW334517   6.193   0.402   4.221 -0.6419 -1.5695  1.2641
 8686SOL    MW434518   6.131   0.406   4.160  0.4535 -0.3608  0.1642
 8687SOL     OW34519   5.185   1.287   3.669 -0.1860 -0.2399  0.5070
 8687SOL    HW234520   5.150   1.249   3.750 -1.9505  0.7490  0.2598
 8687SOL    HW334521   5.176   1.381   3.680  2.8688  0.1489  0.5449
 8687SOL    MW434522   5.179   1.294   3.681 -0.0158 -0.0581  0.4794
 8688SOL     OW34523   3.541   2.210   3.802 -0.1181 -0.7699  0.2982
 8688SOL    HW234524   3.450   2.220   3.775 -0.3661 -1.0730  1.0185
 8688SOL    HW334525   3.589   2.197   3.720 -0.5097  0.8327 -0.2263
 8688SOL    MW434526   3.535   2.210   3.787 -0.2025 -0.5985  0.3240
 8689SOL     OW34527   0.922   2.139   0.983  0.2723 -0.1593  0.2866
 8689SOL    HW234528   1.009   2.161   0.948  0.0025 -1.6303 -1.4769
 8689SOL    HW334529   0.931   2.150   1.077  2.1482  0.5151  0.0819
 8689SOL    MW434530   0.935   2.143   0.991  0.4842 -0.2644  0.0269
 8690SOL     OW34531   4.607   3.806   5.192 -0.2394  0.2269 -0.4250
 8690SOL    HW234532   4.570   3.718   5.193  0.3443 -0.0650 -1.8988
 8690SOL    HW334533   4.570   3.847   5.114  0.5845  0.7995 -0.5293
 8690SOL    MW434534   4.597   3.800   5.182 -0.0537  0.2639 -0.6332
 8691SOL     OW34535   1.144   3.053   3.168 -0.2098 -0.0631  0.2475
 8691SOL    HW234536   1.127   3.078   3.077  0.8701  0.4258  0.1589
 8691SOL    HW334537   1.223   3.102   3.192  0.6906 -1.7086  0.8073
 8691SOL    MW434538   1.152   3.063   3.159  0.0515 -0.2157  0.3096
 8692SOL     OW34539   1.610   4.796   0.841 -0.6848 -0.2359 -0.0623
 8692SOL    HW234540   1.593   4.885   0.811  0.5169  0.4138  1.1102
 8692SOL    HW334541   1.601   4.800   0.936  0.9109 -1.0081  0.1455
 8692SOL    MW434542   1.606   4.808   0.849 -0.3157 -0.2521  0.1198
 8693SOL     OW34543   0.056   2.035   2.791  0.0049  0.5945  0.5697
 8693SOL    HW234544  -0.004   2.010   2.721  0.4309  0.8650  0.1046
 8693SOL    HW334545  -0.001   2.047   2.867 -0.3018 -1.2343  0.6923
 8693SOL    MW434546   0.040   2.033   2.792  0.0206  0.3889  0.5245
 8694SOL     OW34547   5.255   0.120   0.081  0.4486  0.6843 -0.0144
 8694SOL    HW234548   5.206   0.163   0.151  1.8564  2.3631 -0.0090
 8694SOL    HW334549   5.288   0.039   0.121 -3.0163 -1.0769 -0.2961
 8694SOL    MW434550   5.253   0.115   0.095  0.1772  0.6734 -0.0509
 8695SOL     OW34551   4.437   4.823   5.075 -0.2305 -0.6270  0.1968
 8695SOL    HW234552   4.516   4.867   5.106 -0.1004 -1.0911  0.5254
 8695SOL    HW334553   4.402   4.882   5.008  1.0398 -1.0024 -0.8118
 8695SOL    MW434554   4.442   4.837   5.070 -0.0457 -0.7378  0.1071
 8696SOL     OW34555   6.227   3.843   6.082 -0.2964  0.0867  0.1732
 8696SOL    HW234556   6.162   3.775   6.104 -0.0987  0.2251  1.2169
 8696SOL    HW334557   6.237   3.835   5.987 -0.7619 -0.9124  0.1840
 8696SOL    MW434558   6.220   3.833   6.072 -0.3317 -0.0269  0.3123
 8697SOL     OW34559   3.197   2.898   0.844 -0.1060 -0.3017 -0.4226
 8697SOL    HW234560   3.208   2.817   0.896 -0.6790 -1.3835 -1.9247
 8697SOL    HW334561   3.102   2.904   0.829 -0.0881  0.7712 -0.1713
 8697SOL    MW434562   3.186   2.888   0.849 -0.1793 -0.3029 -0.5876
 8698SOL     OW34563   3.394   4.379   4.331  0.0851  0.6011  0.0005
 8698SOL    HW234564   3.446   4.454   4.302  1.4659  0.5258  2.1173
 8698SOL    HW334565   3.303   4.408   4.324  0.4567  1.4536 -1.8273
 8698SOL    MW434566   3.389   4.393   4.326  0.3163  0.7037  0.0386
 8699SOL     OW34567   5.884   3.644   5.079  0.0997 -0.1445  0.0314
 8699SOL    HW234568   5.931   3.574   5.122  0.7250  1.0736  1.4035
 8699SOL    HW334569   5.949   3.713   5.066 -0.3661  0.0142 -1.7818
 8699SOL    MW434570   5.899   3.644   5.083  0.1208  0.0372 -0.0268
 8700SOL     OW34571   5.162   0.892   6.340  0.1943  0.0214  0.6945
 8700SOL    HW234572   5.214   0.971   6.325 -1.5372  1.1168  0.1884
 8700SOL    HW334573   5.125   0.904   6.427 -2.5094  1.3037 -0.5250
 8700SOL    MW434574   5.164   0.904   6.349 -0.3909  0.3351  0.4668
 8701SOL     OW34575   2.113   3.196   4.725 -0.0300  0.6531  0.7125
 8701SOL    HW234576   2.073   3.115   4.758 -0.3462 -0.4837 -2.1812
 8701SOL    HW334577   2.039   3.255   4.710 -0.0322  0.6479  0.7022
 8701SOL    MW434578   2.098   3.193   4.727 -0.0720  0.5024  0.3293
 8702SOL     OW34579   1.271   2.774   4.897 -0.3182 -0.2576  0.0787
 8702SOL    HW234580   1.335   2.819   4.952 -0.6173 -0.1840  0.3706
 8702SOL    HW334581   1.312   2.690   4.876 -0.1400 -0.2243  0.2910
 8702SOL    MW434582   1.285   2.769   4.902 -0.3342 -0.2435  0.1452
 8703SOL     OW34583   2.997   2.577   5.725  0.2492  0.3103 -0.5584
 8703SOL    HW234584   2.921   2.630   5.747 -0.3338 -0.7916  0.1933
 8703SOL    HW334585   2.965   2.487   5.729  1.8649 -0.2644  1.0049
 8703SOL    MW434586   2.983   2.572   5.728  0.3855  0.0891 -0.2529
 8704SOL     OW34587   5.719   1.075   4.067 -0.4000  0.1618  0.6651
 8704SOL    HW234588   5.649   1.066   4.132 -1.5966  1.1597 -0.4427
 8704SOL    HW334589   5.687   1.140   4.005  1.1597  0.0157 -0.3652
 8704SOL    MW434590   5.706   1.082   4.068 -0.3521  0.2742  0.3830
 8705SOL     OW34591   0.554   3.239   5.544  0.0943 -0.4634  0.1353
 8705SOL    HW234592   0.582   3.165   5.490 -0.4521  0.2503 -1.1885
 8705SOL    HW334593   0.633   3.293   5.554  0.4015 -1.0215  0.7848
 8705SOL    MW434594   0.568   3.236   5.538  0.0628 -0.4429  0.0463
 8706SOL     OW34595   2.469   5.765   0.540 -0.4668 -0.4058  0.0688
 8706SOL    HW234596   2.431   5.701   0.480  0.5360 -0.5516 -0.4479
 8706SOL    HW334597   2.457   5.849   0.497  2.4850 -0.7306 -1.6671
 8706SOL    MW434598   2.463   5.768   0.527  0.0550 -0.4679 -0.2284
 8707SOL     OW34599   0.445   0.367   2.757 -0.1400 -0.2373 -0.1203
 8707SOL    HW234600   0.425   0.329   2.671 -0.6826  0.0316 -0.1155
 8707SOL    HW334601   0.458   0.460   2.739  0.6131 -0.3186 -0.0394
 8707SOL    MW434602   0.444   0.374   2.743 -0.1122 -0.2125 -0.1090
 8708SOL     OW34603   3.098   6.098   2.811  0.6550  0.1776 -0.2173
 8708SOL    HW234604   3.170   6.040   2.837  0.0015 -0.5901 -0.0484
 8708SOL    HW334605   3.043   6.104   2.890 -0.0911 -0.2384 -0.6884
 8708SOL    MW434606   3.100   6.091   2.825  0.4704  0.0214 -0.2572
 8709SOL     OW34607   0.935   2.203   5.988  0.5155  0.1570  0.3741
 8709SOL    HW234608   0.961   2.295   5.985  0.6737  0.2150  2.2450
 8709SOL    HW334609   0.991   2.160   5.922  1.0607  1.2434  0.0996
 8709SOL    MW434610   0.946   2.209   5.979  0.6083  0.3080  0.5847
 8710SOL     OW34611   0.539   2.316   5.351 -0.2107  0.3313 -0.0956
 8710SOL    HW234612   0.583   2.399   5.334 -3.0397  1.7910 -0.8543
 8710SOL    HW334613   0.487   2.332   5.429  1.5707 -1.8242  1.6903
 8710SOL    MW434614   0.538   2.329   5.359 -0.3489  0.2395  0.0399
 8711SOL     OW34615   1.818   1.888   1.915  0.2333 -0.6078  0.4894
 8711SOL    HW234616   1.821   1.962   1.854  1.1722 -1.7317 -0.8645
 8711SOL    HW334617   1.738   1.842   1.893  0.3349 -0.7505  0.4167
 8711SOL    MW434618   1.808   1.892   1.904  0.3706 -0.7749  0.3012
 8712SOL     OW34619   5.863   2.830   2.625  0.3125 -0.4356  0.7880
 8712SOL    HW234620   5.938   2.884   2.649  0.7432  1.0283 -3.1222
 8712SOL    HW334621   5.798   2.893   2.593 -0.6496 -1.9581 -0.4222
 8712SOL    MW434622   5.864   2.846   2.624  0.2424 -0.4433  0.1124
 8713SOL     OW34623   4.003   2.077   0.598  0.2915 -0.2868 -0.6271
 8713SOL    HW234624   4.035   1.998   0.554 -0.4319 -0.6809 -0.4594
 8713SOL    HW334625   4.065   2.145   0.572  0.2853 -0.6597 -1.6961
 8713SOL    MW434626   4.015   2.075   0.588  0.1952 -0.3880 -0.7460
 8714SOL     OW34627   0.450   3.745   3.040 -0.3717 -0.3585  0.2797
 8714SOL    HW234628   0.517   3.770   2.977 -0.1616 -0.4904  0.4517
 8714SOL    HW334629   0.490   3.675   3.092 -1.3251 -1.8043 -0.8582
 8714SOL    MW434630   0.464   3.739   3.039 -0.4698 -0.5667  0.1523
 8715SOL     OW34631   5.854   1.875   3.721  0.6936  0.4143  0.5345
 8715SOL    HW234632   5.890   1.962   3.733  1.0796  0.5394 -1.3568
 8715SOL    HW334633   5.765   1.890   3.690  1.2715  0.1879 -1.3323
 8715SOL    MW434634   5.847   1.888   3.719  0.8208  0.4010  0.0387
 8716SOL     OW34635   4.921   5.502   5.828  0.3749 -0.0046  1.0849
 8716SOL    HW234636   4.833   5.500   5.791  0.2456 -0.0429  1.3922
 8716SOL    HW334637   4.907   5.518   5.922  0.6836 -0.1917  1.1642
 8716SOL    MW434638   4.908   5.504   5.836  0.3986 -0.0344  1.1359
 8717SOL     OW34639   4.075   5.488   4.949  0.0214 -0.4362 -0.2616
 8717SOL    HW234640   3.980   5.489   4.944 -0.0854 -0.6626  1.2328
 8717SOL    HW334641   4.098   5.397   4.970  0.3227  0.1967  2.4642
 8717SOL    MW434642   4.066   5.476   4.951  0.0470 -0.3825  0.2952
 8718SOL     OW34643   3.455   3.910   3.690  0.0131  0.3557  0.3266
 8718SOL    HW234644   3.372   3.872   3.660 -1.9217  3.3167  1.4056
 8718SOL    HW334645   3.492   3.844   3.748 -1.8621 -0.9101  0.1704
 8718SOL    MW434646   3.449   3.897   3.694 -0.4896  0.5794  0.4484
 8719SOL     OW34647   2.072   5.709   1.358 -0.1094 -0.0377 -0.3509
 8719SOL    HW234648   2.159   5.682   1.327 -0.4105  0.4181 -1.6558
 8719SOL    HW334649   2.086   5.794   1.398  0.6301 -1.4496  2.6748
 8719SOL    MW434650   2.085   5.716   1.359 -0.0515 -0.1639 -0.1239
 8720SOL     OW34651   2.379   4.403   4.847  0.3295  0.2946  0.3247
 8720SOL    HW234652   2.463   4.367   4.875  0.5696 -0.8714 -1.6610
 8720SOL    HW334653   2.315   4.334   4.870  0.3618 -0.1221 -0.7581
 8720SOL    MW434654   2.381   4.389   4.853  0.3655  0.0858 -0.0801
 8721SOL     OW34655   0.654   0.205   0.058  0.0357  0.0167  0.2239
 8721SOL    HW234656   0.702   0.275   0.012  0.4805  0.1628  0.8987
 8721SOL    HW334657   0.663   0.227   0.150 -1.8352  0.3631  0.3510
 8721SOL    MW434658   0.662   0.217   0.064 -0.1524  0.0816  0.3297
 8722SOL     OW34659   0.442   5.442   2.277 -0.0206  0.0072 -0.3552
 8722SOL    HW234660   0.363   5.488   2.248 -0.5522  1.1842  2.6094
 8722SOL    HW334661   0.513   5.490   2.235 -0.7620  0.1064 -1.5759
 8722SOL    MW434662   0.441   5.454   2.267 -0.1886  0.1756 -0.1251
 8723SOL     OW34663   1.806   4.810   3.327 -0.2332  0.0131  0.5618
 8723SOL    HW234664   1.754   4.865   3.385 -0.5392 -1.2629  1.5424
 8723SOL    HW334665   1.878   4.778   3.382  0.3955  0.0568 -0.2089
 8723SOL    MW434666   1.809   4.813   3.342 -0.1907 -0.1495  0.5895
 8724SOL     OW34667   4.071   1.455   0.882  0.6269 -0.4931 -0.1373
 8724SOL    HW234668   4.053   1.549   0.882 -1.0046 -0.7771 -0.0443
 8724SOL    HW334669   4.049   1.426   0.971 -2.5826 -1.5378 -1.1245
 8724SOL    MW434670   4.066   1.464   0.894 -0.0118 -0.6684 -0.2553
 8725SOL     OW34671   0.520   0.040   3.838 -0.5186  0.1940  0.0055
 8725SOL    HW234672   0.518   0.068   3.747  0.2294  0.5017  0.0726
 8725SOL    HW334673   0.557  -0.048   3.835 -0.4695  0.2141  0.0055
 8725SOL    MW434674   0.525   0.032   3.826 -0.4134  0.2372  0.0144
 8726SOL     OW34675   0.357   0.635   4.843  0.1667 -0.8011 -0.2998
 8726SOL    HW234676   0.422   0.700   4.819 -1.2353  0.3221 -1.2035
 8726SOL    HW334677   0.393   0.552   4.810  2.5699 -0.7770  1.9980
 8726SOL    MW434678   0.370   0.632   4.835  0.2988 -0.6497 -0.1159
 8727SOL     OW34679   0.621   0.760   5.998  0.0375  0.0031  0.1447
 8727SOL    HW234680   0.709   0.785   6.023 -0.1011  0.7292 -0.0711
 8727SOL    HW334681   0.628   0.668   5.973  0.6404 -0.0590  0.5419
 8727SOL    MW434682   0.633   0.751   5.998  0.0988  0.0907  0.1687
 8728SOL     OW34683   4.727   0.920   3.621  0.4419 -0.1588  0.5196
 8728SOL    HW234684   4.802   0.966   3.582  0.7765 -0.2800  0.9995
 8728SOL    HW334685   4.693   0.981   3.686 -1.2237  0.7761 -1.1418
 8728SOL    MW434686   4.733   0.934   3.625  0.2663 -0.0514  0.3637
 8729SOL     OW34687   4.827   1.175   3.524 -0.1303 -0.2103 -0.1133
 8729SOL    HW234688   4.887   1.234   3.572 -3.0378  2.4056  0.6636
 8729SOL    HW334689   4.849   1.188   3.432 -0.2884  1.7388  0.0802
 8729SOL    MW434690   4.838   1.185   3.518 -0.5348  0.3920  0.0148
 8730SOL     OW34691   2.315   5.102   5.747 -0.7104  1.2561 -0.1218
 8730SOL    HW234692   2.311   5.175   5.685 -1.0815  0.5969 -0.8963
 8730SOL    HW334693   2.224   5.073   5.756 -0.3916 -0.1172 -1.0718
 8730SOL    MW434694   2.302   5.108   5.740 -0.7173  0.9879 -0.3493
 8731SOL     OW34695   2.077   4.647   6.226 -0.0997  0.8184  0.1215
 8731SOL    HW234696   2.032   4.618   6.306  0.9644 -0.2901  0.3429
 8731SOL    HW334697   2.168   4.661   6.253  0.4810 -0.4449 -1.0707
 8731SOL    MW434698   2.083   4.645   6.240  0.1173  0.5055 -0.0066
 8732SOL     OW34699   0.024   4.260   2.247  0.1873  0.3963  0.1223
 8732SOL    HW234700  -0.011   4.316   2.316 -0.5118 -0.3391  0.3603
 8732SOL    HW334701   0.118   4.257   2.265  0.1002  0.7312  0.6601
 8732SOL    MW434702   0.032   4.267   2.258  0.0836  0.3434  0.2246
 8733SOL     OW34703   5.364   2.196   1.259  0.0964 -0.2519 -0.1867
 8733SOL    HW234704   5.314   2.277   1.266 -0.4655 -0.3921 -2.0476
 8733SOL    HW334705   5.455   2.224   1.258 -0.1055  0.4532 -1.3920
 8733SOL    MW434706   5.369   2.210   1.260 -0.0043 -0.1774 -0.5912
 8734SOL     OW34707   3.755   1.091   4.589 -0.2153  0.3200  0.2533
 8734SOL    HW234708   3.697   1.156   4.550  0.2986  0.3347 -0.4929
 8734SOL    HW334709   3.793   1.136   4.665  0.7864  1.2022 -0.7427
 8734SOL    MW434710   3.752   1.106   4.594 -0.0154  0.4384  0.0234
 8735SOL     OW34711   4.025   6.015   0.700  0.2327 -0.4779  0.5631
 8735SOL    HW234712   3.944   6.064   0.713  2.5428  3.5514  1.8369
 8735SOL    HW334713   4.002   5.945   0.640 -3.4472  2.6143 -2.0952
 8735SOL    MW434714   4.012   6.012   0.694  0.0519  0.4617  0.3804
 8736SOL     OW34715   5.032   4.806   0.100  0.1712 -0.0448 -0.3245
 8736SOL    HW234716   4.975   4.740   0.139 -0.8664 -0.2915 -2.1569
 8736SOL    HW334717   5.121   4.778   0.125 -0.3528 -1.1041  0.4409
 8736SOL    MW434718   5.036   4.793   0.108 -0.0348 -0.2171 -0.4653
 8737SOL     OW34719   6.255   5.149   5.572  0.1909  0.2109  0.7212
 8737SOL    HW234720   6.321   5.109   5.515 -0.5808 -0.1752  0.0640
 8737SOL    HW334721   6.287   5.134   5.661  0.7049 -0.4599  0.4320
 8737SOL    MW434722   6.268   5.142   5.576  0.1569  0.0715  0.5963
 8738SOL     OW34723   0.956   1.154   4.135  0.4973 -0.3192  0.4722
 8738SOL    HW234724   1.028   1.216   4.122 -0.3086  0.4281 -0.5352
 8738SOL    HW334725   0.896   1.171   4.063 -1.1176 -0.3559  1.7597
 8738SOL    MW434726   0.958   1.164   4.124  0.1779 -0.2255  0.5091
 8739SOL     OW34727   3.804   1.042   1.395 -0.3409  0.2854 -0.0460
 8739SOL    HW234728   3.849   1.052   1.311 -1.1388 -0.5591 -0.5961
 8739SOL    HW334729   3.711   1.040   1.373 -0.6149  0.9571  0.9620
 8739SOL    MW434730   3.798   1.043   1.381 -0.4824  0.2626  0.0144
 8740SOL     OW34731   1.310   0.057   3.393  0.6983  0.2643 -0.0824
 8740SOL    HW234732   1.270   0.123   3.337  0.1721 -0.6357 -0.7855
 8740SOL    HW334733   1.403   0.059   3.369  1.1276  2.2939  1.4946
 8740SOL    MW434734   1.317   0.066   3.382  0.6855  0.4134  0.0329
 8741SOL     OW34735   5.334   3.616   5.402 -0.0202  0.5385  0.1919
 8741SOL    HW234736   5.389   3.662   5.339  1.3768  1.5549  2.0709
 8741SOL    HW334737   5.299   3.684   5.459 -0.4416 -0.4289  1.1358
 8741SOL    MW434738   5.337   3.631   5.401  0.1085  0.5450  0.5644
 8742SOL     OW34739   4.243   3.959   0.014 -0.4127 -0.3968 -0.4238
 8742SOL    HW234740   4.232   3.916  -0.070  1.2566 -2.1367  0.1859
 8742SOL    HW334741   4.331   3.996   0.011 -1.1328  1.4419 -0.2217
 8742SOL    MW434742   4.253   3.958   0.003 -0.2875 -0.3838 -0.3167
 8743SOL     OW34743   1.782   0.180   6.009  0.5845 -0.0458 -0.1008
 8743SOL    HW234744   1.704   0.127   5.991  0.1685  0.3868  0.3865
 8743SOL    HW334745   1.814   0.205   5.923  0.2491 -0.3198 -0.3117
 8743SOL    MW434746   1.776   0.176   5.995  0.4854 -0.0248 -0.0644
 8744SOL     OW34747   2.452   0.567   1.368  0.0217 -0.7028 -0.1541
 8744SOL    HW234748   2.422   0.641   1.317  0.1081  1.3249  2.5127
 8744SOL    HW334749   2.544   0.586   1.387 -0.3555 -0.6182  1.8432
 8744SOL    MW434750   2.460   0.579   1.364 -0.0166 -0.4241  0.4613
 8745SOL     OW34751   4.971   5.044   2.326 -0.6990 -0.4090 -0.7394
 8745SOL    HW234752   4.937   4.955   2.337 -0.2771 -0.5225 -0.3319
 8745SOL    HW334753   5.003   5.046   2.236 -0.0693 -0.8941 -0.5363
 8745SOL    MW434754   4.970   5.032   2.316 -0.5602 -0.4880 -0.6588
 8746SOL     OW34755   0.674   3.295   0.718  0.0178  0.4391 -0.3083
 8746SOL    HW234756   0.688   3.214   0.670 -2.4224 -0.2447  0.0092
 8746SOL    HW334757   0.679   3.270   0.810 -1.7959  0.3665 -0.1919
 8746SOL    MW434758   0.676   3.281   0.724 -0.5434  0.3393 -0.2511
 8747SOL     OW34759   2.014   5.427   5.059 -0.5757 -0.3428 -0.1600
 8747SOL    HW234760   1.977   5.471   4.982  0.8883 -0.1955 -0.8242
 8747SOL    HW334761   2.024   5.335   5.032  0.3914 -0.1959 -0.3436
 8747SOL    MW434762   2.011   5.421   5.045 -0.2549 -0.3040 -0.2719
 8748SOL     OW34763   2.551   1.086   1.595 -0.3589 -0.0746 -0.3210
 8748SOL    HW234764   2.640   1.061   1.618 -0.5159 -1.8338 -1.4325
 8748SOL    HW334765   2.550   1.085   1.499 -1.6230 -0.3392 -0.3215
 8748SOL    MW434766   2.562   1.082   1.585 -0.5464 -0.3416 -0.4677
 8749SOL     OW34767   2.611   1.231   4.118 -0.0914  0.2669 -0.5042
 8749SOL    HW234768   2.630   1.324   4.133  0.6805 -0.0924  0.8930
 8749SOL    HW334769   2.696   1.192   4.095 -0.1558 -0.3393  0.2607
 8749SOL    MW434770   2.625   1.238   4.117  0.0019  0.1395 -0.2189
 8750SOL     OW34771   0.908   4.250   5.091 -0.0732 -0.1643 -0.4003
 8750SOL    HW234772   0.883   4.263   4.999 -1.6186 -1.3489 -0.1923
 8750SOL    HW334773   0.837   4.198   5.128  1.0686 -0.6603  1.2070
 8750SOL    MW434774   0.895   4.245   5.084 -0.1264 -0.3861 -0.1608
 8751SOL     OW34775   1.561   3.678   2.118 -0.7310 -0.1436 -0.1310
 8751SOL    HW234776   1.611   3.747   2.160 -1.4871  0.1908  0.2450
 8751SOL    HW334777   1.575   3.601   2.174 -0.1574 -0.2174 -0.3678
 8751SOL    MW434778   1.569   3.677   2.131 -0.7551 -0.1092 -0.1126
 8752SOL     OW34779   1.110   0.735   5.750 -0.1481 -0.5297 -0.3223
 8752SOL    HW234780   1.115   0.768   5.660  0.5681 -2.4617 -1.0437
 8752SOL    HW334781   1.017   0.721   5.766 -0.4448  1.4403 -0.1006
 8752SOL    MW434782   1.098   0.738   5.740 -0.0928 -0.5247 -0.3882
 8753SOL     OW34783   2.769   4.523   4.792  0.2587  0.5703 -0.7705
 8753SOL    HW234784   2.707   4.458   4.827 -1.8485  3.2434  0.9222
 8753SOL    HW334785   2.728   4.555   4.712  0.8097  0.4602 -1.1005
 8753SOL    MW434786   2.755   4.519   4.786  0.0534  0.9085 -0.5907
 8754SOL     OW34787   0.614   3.517   4.988 -0.1369  0.4816  0.5266
 8754SOL    HW234788   0.576   3.436   4.953  0.1603  0.8125 -0.6264
 8754SOL    HW334789   0.559   3.586   4.951  0.2939  0.8591  0.5859
 8754SOL    MW434790   0.601   3.515   4.978 -0.0409  0.5750  0.3823
 8755SOL     OW34791   0.027   1.491   0.790  0.0794 -0.4288 -0.2847
 8755SOL    HW234792   0.076   1.548   0.730 -0.2903  2.0078  1.5455
 8755SOL    HW334793  -0.024   1.552   0.844 -2.7185 -2.6846 -0.1220
 8755SOL    MW434794   0.026   1.507   0.790 -0.3385 -0.4050 -0.0217
 8756SOL     OW34795   1.678   3.735   6.316  0.0597  0.7529 -0.6988
 8756SOL    HW234796   1.596   3.722   6.268  1.0284  1.0708 -2.5081
 8756SOL    HW334797   1.747   3.716   6.253  1.4354 -1.2157  1.2557
 8756SOL    MW434798   1.676   3.731   6.302  0.3690  0.5351 -0.6796
 8757SOL     OW34799   3.768   3.392   4.419 -0.8360  0.4051  0.7785
 8757SOL    HW234800   3.765   3.399   4.515  0.3688 -2.1222  1.0561
 8757SOL    HW334801   3.676   3.382   4.393 -1.0863  0.0362  1.7711
 8757SOL    MW434802   3.755   3.392   4.428 -0.7100  0.0229  0.9461
 8758SOL     OW34803   4.506   0.720   2.324 -0.0661 -0.3039  0.1023
 8758SOL    HW234804   4.426   0.685   2.362  0.5268 -0.3000  1.4030
 8758SOL    HW334805   4.480   0.751   2.238 -1.2563 -1.1548  0.1288
 8758SOL    MW434806   4.492   0.719   2.318 -0.1449 -0.4156  0.2774
 8759SOL     OW34807   4.082   4.329   1.142 -0.5763  0.0442 -0.1352
 8759SOL    HW234808   4.085   4.390   1.215 -1.6719 -0.5727  0.4384
 8759SOL    HW334809   4.139   4.368   1.076 -1.6063  1.9113  0.0362
 8759SOL    MW434810   4.090   4.342   1.143 -0.8568  0.2092 -0.0369
 8760SOL     OW34811   4.563   1.895   1.805  0.2772 -0.0553 -0.2064
 8760SOL    HW234812   4.606   1.827   1.857 -0.4165 -0.1107  0.3069
 8760SOL    HW334813   4.525   1.848   1.731 -0.9999 -0.3949  0.6283
 8760SOL    MW434814   4.564   1.880   1.802  0.0172 -0.1074 -0.0286
 8761SOL     OW34815   5.646   4.187   5.922 -0.6067 -0.2980 -0.7882
 8761SOL    HW234816   5.652   4.193   6.018 -1.6967  0.7865 -0.7627
 8761SOL    HW334817   5.647   4.093   5.904 -0.0245 -0.5086  0.2563
 8761SOL    MW434818   5.647   4.175   5.933 -0.6737 -0.1827 -0.6470
 8762SOL     OW34819   5.572   2.309   5.225  0.8678  0.1236  0.0959
 8762SOL    HW234820   5.562   2.214   5.222  1.8528 -0.1156  2.3113
 8762SOL    HW334821   5.596   2.328   5.315  0.6337  2.5101 -0.2720
 8762SOL    MW434822   5.574   2.299   5.236  0.9668  0.4069  0.3397
 8763SOL     OW34823   5.062   3.613   3.397 -1.1356  0.0574 -0.2596
 8763SOL    HW234824   5.072   3.657   3.312 -0.9736  1.0962  0.2798
 8763SOL    HW334825   4.968   3.610   3.412 -1.3650 -2.3604 -1.5747
 8763SOL    MW434826   5.051   3.618   3.388 -1.1445 -0.1245 -0.3620
 8764SOL     OW34827   6.222   5.640   1.368  0.4166  0.6937 -1.2178
 8764SOL    HW234828   6.167   5.593   1.306  0.2300  0.2711 -0.7361
 8764SOL    HW334829   6.161   5.687   1.425  0.5813  0.9717 -1.2666
 8764SOL    MW434830   6.207   5.640   1.368  0.4137  0.6746 -1.1607
 8765SOL     OW34831   2.749   5.675   5.501 -1.1257 -0.0245 -0.1168
 8765SOL    HW234832   2.766   5.755   5.552  0.2097  0.3312 -1.0725
 8765SOL    HW334833   2.770   5.604   5.562 -0.9053  0.3752  0.2859
 8765SOL    MW434834   2.754   5.676   5.516 -0.9204  0.0752 -0.1898
 8766SOL     OW34835   3.880   3.924   5.224  0.0907 -0.0132 -0.0244
 8766SOL    HW234836   3.787   3.914   5.241  0.2772 -1.0424  0.4397
 8766SOL    HW334837   3.914   3.968   5.302  0.2977 -1.3296  0.6567
 8766SOL    MW434838   3.872   3.929   5.237  0.1426 -0.3227  0.1267
 8767SOL     OW34839   3.934   5.985   3.403 -0.1281 -0.2620  0.2435
 8767SOL    HW234840   3.953   5.910   3.459 -2.4329 -0.8349  0.3413
 8767SOL    HW334841   3.862   6.030   3.447  0.2026  1.1527 -0.6044
 8767SOL    MW434842   3.927   5.981   3.416 -0.3886 -0.1509  0.1445
 8768SOL     OW34843   2.124   0.410   3.978 -0.6364  0.2670  0.4340
 8768SOL    HW234844   2.042   0.384   3.938  0.2978 -1.1181 -0.6752
 8768SOL    HW334845   2.146   0.338   4.038  0.6889 -0.3555 -0.7306
 8768SOL    MW434846   2.116   0.397   3.981 -0.3383  0.0021  0.1340
 8769SOL     OW34847   1.273   1.949   5.180 -0.4132  0.0813  0.1599
 8769SOL    HW234848   1.274   2.036   5.219  0.1833 -0.1922  0.7730
 8769SOL    HW334849   1.185   1.915   5.199 -0.0708 -0.1318  1.4959
 8769SOL    MW434850   1.261   1.956   5.187 -0.2893  0.0171  0.4170
 8770SOL     OW34851   1.672   2.050   5.652  0.4710  0.2969  0.6511
 8770SOL    HW234852   1.759   2.090   5.658  1.0174 -0.4570 -1.4132
 8770SOL    HW334853   1.622   2.110   5.597  0.5881 -0.6493 -0.5259
 8770SOL    MW434854   1.677   2.063   5.646  0.5586  0.0726  0.2235
 8771SOL     OW34855   2.820   2.979   3.415 -0.3520  0.1418  0.2688
 8771SOL    HW234856   2.849   2.901   3.463 -0.0924  0.0563 -0.0280
 8771SOL    HW334857   2.869   3.051   3.454 -2.2128  0.5177  2.0940
 8771SOL    MW434858   2.830   2.978   3.426 -0.5633  0.1801  0.4704
 8772SOL     OW34859   3.003   3.032   5.231 -0.7306 -0.3936 -0.6559
 8772SOL    HW234860   2.925   2.979   5.245  0.0973 -1.8872 -1.3834
 8772SOL    HW334861   3.000   3.098   5.300 -2.1771 -0.9566 -0.1392
 8772SOL    MW434862   2.993   3.034   5.242 -0.8122 -0.6649 -0.6837
 8773SOL     OW34863   5.706   3.286   5.535  0.1239 -0.1738  0.1051
 8773SOL    HW234864   5.723   3.286   5.441 -3.0613 -2.3727 -0.6527
 8773SOL    HW334865   5.641   3.355   5.547  0.2025 -0.1860  0.5922
 8773SOL    MW434866   5.700   3.295   5.524 -0.2860 -0.4655  0.0694
 8774SOL     OW34867   5.782   3.876   2.357 -0.3182 -0.0465 -0.0018
 8774SOL    HW234868   5.790   3.844   2.447 -0.7349  1.2746  0.5186
 8774SOL    HW334869   5.870   3.865   2.321 -0.5758 -2.3990 -0.0981
 8774SOL    MW434870   5.795   3.870   2.364 -0.4071 -0.1826  0.0541
 8775SOL     OW34871   4.677   4.367   6.252  0.2828 -0.3298  0.2296
 8775SOL    HW234872   4.685   4.460   6.229 -1.4613  0.0582  0.9999
 8775SOL    HW334873   4.752   4.349   6.308  2.1995 -0.1579 -2.1128
 8775SOL    MW434874   4.688   4.377   6.256  0.3056 -0.2560  0.0222
 8776SOL     OW34875   5.284   5.112   0.472 -0.9473 -0.5286  0.4210
 8776SOL    HW234876   5.248   5.178   0.532  1.0480  1.2905 -0.2314
 8776SOL    HW334877   5.319   5.044   0.529  1.4144  1.4239  1.5052
 8776SOL    MW434878   5.284   5.112   0.488 -0.3725 -0.0310  0.4780
 8777SOL     OW34879   2.458   3.933   1.386  0.3708 -0.1055  0.0513
 8777SOL    HW234880   2.541   3.885   1.390  1.4833  1.5804 -1.6040
 8777SOL    HW334881   2.468   3.994   1.314 -1.6989  1.3501  0.8859
 8777SOL    MW434882   2.470   3.934   1.377  0.2445  0.3090 -0.0570
 8778SOL     OW34883   5.154   4.062   4.542  0.4973 -0.1922  0.2495
 8778SOL    HW234884   5.195   3.977   4.524 -0.6140 -0.8029  0.4943
 8778SOL    HW334885   5.219   4.109   4.594  1.7170 -0.3208 -1.0919
 8778SOL    MW434886   5.168   4.057   4.546  0.5116 -0.2897  0.1048
 8779SOL     OW34887   1.254   0.806   0.070  0.3053 -0.4167 -0.0319
 8779SOL    HW234888   1.256   0.713   0.092 -3.3629 -0.2530  1.6606
 8779SOL    HW334889   1.286   0.850   0.149  0.7183 -0.1649 -0.3322
 8779SOL    MW434890   1.258   0.799   0.083 -0.1242 -0.3619  0.1518
 8780SOL     OW34891   3.175   4.683   3.586 -0.4551  0.5060 -0.2228
 8780SOL    HW234892   3.140   4.768   3.613  1.1544  1.0774  0.1593
 8780SOL    HW334893   3.205   4.643   3.668 -0.1582  0.0675 -0.5478
 8780SOL    MW434894   3.175   4.689   3.601 -0.2036  0.5235 -0.2153
 8781SOL     OW34895   4.966   4.374   2.900 -0.1289  0.3821 -0.3630
 8781SOL    HW234896   4.953   4.279   2.888 -0.2441  0.5314 -1.6401
 8781SOL    HW334897   5.045   4.394   2.850  0.2974  0.8504  0.4899
 8781SOL    MW434898   4.975   4.364   2.892 -0.0878  0.4636 -0.4189
 8782SOL     OW34899   2.813   1.977   5.309  0.1648 -0.4274  0.1766
 8782SOL    HW234900   2.774   2.013   5.388 -0.4339  0.5975 -0.5668
 8782SOL    HW334901   2.740   1.966   5.248  0.8652  0.5861 -0.8894
 8782SOL    MW434902   2.798   1.980   5.311  0.1782 -0.1585 -0.0621
 8783SOL     OW34903   5.746   3.951   1.334  0.5134  0.4004 -0.5211
 8783SOL    HW234904   5.653   3.949   1.313  0.2217 -0.1183  0.7318
 8783SOL    HW334905   5.786   3.889   1.274 -0.2304 -0.7654  0.1495
 8783SOL    MW434906   5.739   3.943   1.324  0.3768  0.1781 -0.2673
 8784SOL     OW34907   5.924   2.494   1.910 -0.3242  0.9471 -0.0554
 8784SOL    HW234908   5.994   2.473   1.972 -0.7576  3.9966  1.6881
 8784SOL    HW334909   5.844   2.478   1.959 -0.7565  0.8166 -0.8018
 8784SOL    MW434910   5.923   2.489   1.925 -0.4385  1.3322  0.0761
 8785SOL     OW34911   2.896   5.587   0.579 -0.2129 -0.2275  0.1997
 8785SOL    HW234912   2.819   5.603   0.634  0.0383  1.3012  0.1635
 8785SOL    HW334913   2.951   5.665   0.592  1.6072 -1.5227  0.6727
 8785SOL    MW434914   2.893   5.599   0.588  0.0604 -0.1967  0.2573
 8786SOL     OW34915   0.824   0.744   5.468 -0.4224  0.2451 -0.5701
 8786SOL    HW234916   0.780   0.665   5.436  0.2530 -0.3751 -0.0014
 8786SOL    HW334917   0.822   0.736   5.563 -1.7778  1.7299 -0.4258
 8786SOL    MW434918   0.818   0.732   5.476 -0.5121  0.3592 -0.4760
 8787SOL     OW34919   0.736   4.653   2.875  0.4812 -0.0515 -0.1946
 8787SOL    HW234920   0.765   4.617   2.792 -0.8515 -0.2453 -0.6044
 8787SOL    HW334921   0.649   4.616   2.889 -0.7549  2.5127 -0.3573
 8787SOL    MW434922   0.728   4.644   2.866  0.1423  0.2612 -0.2701
 8788SOL     OW34923   3.242   6.412   0.855  0.0684 -0.4550 -0.1953
 8788SOL    HW234924   3.238   6.343   0.921  1.6347 -1.3358 -0.9561
 8788SOL    HW334925   3.335   6.421   0.835 -0.3391 -0.3867 -2.4003
 8788SOL    MW434926   3.253   6.404   0.861  0.2213 -0.5622 -0.5866
 8789SOL     OW34927   1.402   0.708   0.691 -0.2185  0.4155  0.3784
 8789SOL    HW234928   1.470   0.734   0.628  0.4157 -1.1005  0.3881
 8789SOL    HW334929   1.451   0.686   0.771 -0.7123 -0.5141  0.4454
 8789SOL    MW434930   1.418   0.708   0.693 -0.2000  0.0928  0.3885
 8790SOL     OW34931   2.324   1.938   5.326  0.3164  0.1996 -0.4877
 8790SOL    HW234932   2.308   1.850   5.361  0.0154  0.0500 -0.9997
 8790SOL    HW334933   2.289   1.996   5.394 -1.7561 -0.1118 -1.2267
 8790SOL    MW434934   2.317   1.934   5.340  0.0032  0.1388 -0.6528
 8791SOL     OW34935   1.674   0.383   3.272  0.8367 -0.2307  0.2698
 8791SOL    HW234936   1.595   0.401   3.221  1.8616 -0.4540 -1.4751
 8791SOL    HW334937   1.676   0.453   3.337  0.6865  1.5198 -1.4836
 8791SOL    MW434938   1.664   0.395   3.274  0.9521 -0.0292 -0.1918
 8792SOL     OW34939   6.359   0.487   3.540  0.3120  0.1854  1.2967
 8792SOL    HW234940   6.277   0.501   3.588 -0.4582  0.7931 -0.1209
 8792SOL    HW334941   6.340   0.413   3.482  0.2886  1.1909 -0.0160
 8792SOL    MW434942   6.345   0.479   3.539  0.2073  0.3983  0.9365
 8793SOL     OW34943   3.420   4.381   0.833 -0.3870 -0.0820  0.4982
 8793SOL    HW234944   3.474   4.455   0.861 -0.0627 -0.1187 -0.0109
 8793SOL    HW334945   3.343   4.422   0.792 -0.7099 -0.0306  1.1386
 8793SOL    MW434946   3.417   4.396   0.831 -0.3868 -0.0801  0.5155
 8794SOL     OW34947   1.220   0.661   4.247  0.3649 -0.2709  0.0038
 8794SOL    HW234948   1.193   0.728   4.184  0.8217 -0.7867 -0.7478
 8794SOL    HW334949   1.306   0.690   4.277  0.1284 -0.0021  0.4345
 8794SOL    MW434950   1.227   0.674   4.243  0.3940 -0.3035 -0.0385
 8795SOL     OW34951   3.964   1.816   6.194 -0.6724 -0.0953  0.3882
 8795SOL    HW234952   3.985   1.805   6.287 -0.1210  0.8848  0.3852
 8795SOL    HW334953   4.013   1.746   6.151  1.8762  1.5249  0.4883
 8795SOL    MW434954   3.973   1.805   6.201 -0.2634  0.2478  0.4010
 8796SOL     OW34955   2.544   4.534   0.220 -0.1702 -0.5565  0.7887
 8796SOL    HW234956   2.530   4.465   0.285  0.5459 -2.5024 -1.0039
 8796SOL    HW334957   2.617   4.503   0.167 -1.3910  0.3690 -1.6141
 8796SOL    MW434958   2.552   4.521   0.222 -0.2368 -0.6911  0.2352
 8797SOL     OW34959   3.095   1.314   2.769 -0.4160 -0.6900 -0.3101
 8797SOL    HW234960   3.036   1.244   2.797 -1.1317 -0.0605 -0.2294
 8797SOL    HW334961   3.167   1.269   2.724 -2.1825 -1.3240 -2.6543
 8797SOL    MW434962   3.097   1.299   2.767 -0.7435 -0.6906 -0.6087
 8798SOL     OW34963   3.582   3.060   3.502  0.1198 -0.8343  0.0409
 8798SOL    HW234964   3.559   2.986   3.557 -0.7475 -1.0774 -0.6164
 8798SOL    HW334965   3.562   3.137   3.556  2.0128 -1.0399  1.1148
 8798SOL    MW434966   3.576   3.061   3.516  0.2551 -0.8935  0.0959
 8799SOL     OW34967   3.975   6.012   5.797  0.1688 -0.3656  0.2908
 8799SOL    HW234968   3.889   6.035   5.833  1.2098 -0.6312  3.2118
 8799SOL    HW334969   4.023   6.095   5.796  0.6276 -0.6114  1.0146
 8799SOL    MW434970   3.970   6.026   5.802  0.3667 -0.4331  0.7717
 8800SOL     OW34971   1.374   5.545   0.585  0.6445 -0.0169 -0.0131
 8800SOL    HW234972   1.292   5.591   0.601 -0.4296 -1.5156 -0.9211
 8800SOL    HW334973   1.438   5.615   0.571  0.1577  1.2702  3.1911
 8800SOL    MW434974   1.372   5.560   0.585  0.4385 -0.0448  0.2898
 8801SOL     OW34975   3.375   5.107   4.469 -0.5563  0.1806  0.1034
 8801SOL    HW234976   3.433   5.183   4.469  1.5389 -1.2905  1.5685
 8801SOL    HW334977   3.332   5.108   4.384  2.8218  0.5608 -1.7452
 8801SOL    MW434978   3.377   5.117   4.458  0.1658  0.0367  0.0528
 8802SOL     OW34979   4.156   0.351   0.863  0.4182 -0.0490 -0.4302
 8802SOL    HW234980   4.156   0.375   0.956 -1.9371 -2.8692  0.4636
 8802SOL    HW334981   4.228   0.289   0.855  0.5934  0.1606 -0.4923
 8802SOL    MW434982   4.165   0.346   0.874  0.1306 -0.3934 -0.3205
 8803SOL     OW34983   0.750   2.534   4.201 -0.0191  0.3527  0.1092
 8803SOL    HW234984   0.761   2.616   4.153  1.1002 -0.4059 -0.9829
 8803SOL    HW334985   0.663   2.542   4.242 -0.4669  1.5432 -1.0003
 8803SOL    MW434986   0.740   2.546   4.200  0.0695  0.4097 -0.1813
 8804SOL     OW34987   2.024   1.610   5.997 -0.1032  0.4977  0.2023
 8804SOL    HW234988   2.037   1.676   5.929  1.4327 -0.0696 -0.1124
 8804SOL    HW334989   1.981   1.538   5.953  0.9351  0.1119 -0.2231
 8804SOL    MW434990   2.020   1.609   5.982  0.2365  0.3719  0.1046
 8805SOL     OW34991   3.056   2.581   2.564 -0.1437  0.0795 -0.0323
 8805SOL    HW234992   3.054   2.567   2.659 -1.7261  0.6230  0.0426
 8805SOL    HW334993   3.143   2.551   2.537 -0.0171 -1.0034  1.4451
 8805SOL    MW434994   3.067   2.575   2.573 -0.3358  0.0083  0.1725
 8806SOL     OW34995   0.246   1.670   3.528  0.4031 -0.6221  0.2776
 8806SOL    HW234996   0.327   1.628   3.498 -0.3906 -0.8249 -1.7221
 8806SOL    HW334997   0.190   1.597   3.554  1.1217 -0.4446  2.5245
 8806SOL    MW434998   0.249   1.655   3.527  0.3932 -0.6254  0.3102
 8807SOL     OW34999   2.480   5.539   3.644  0.4202 -0.0848  0.1480
 8807SOL    HW235000   2.419   5.505   3.710 -0.5698  1.6183  0.1626
 8807SOL    HW335001   2.490   5.632   3.666  2.5502 -0.1518 -0.2416
 8807SOL    MW435002   2.474   5.547   3.656  0.5706  0.1311  0.0986
 8808SOL     OW35003   0.853   3.394   1.258  0.3398 -0.7123 -0.0618
 8808SOL    HW235004   0.774   3.349   1.287  0.1567 -0.8931 -0.8409
 8808SOL    HW335005   0.830   3.487   1.259  0.1769 -0.7533 -0.1251
 8808SOL    MW435006   0.840   3.400   1.262  0.2942 -0.7416 -0.1730
 8809SOL     OW35007   4.920   5.728   3.444 -0.0290  0.2286  0.4904
 8809SOL    HW235008   4.949   5.696   3.530  2.5401  0.7743 -0.0998
 8809SOL    HW335009   4.941   5.657   3.384  1.0061  0.9951 -0.0860
 8809SOL    MW435010   4.927   5.714   3.448  0.4465  0.4017  0.3365
 8810SOL     OW35011   6.141   1.685   0.719  0.0793  0.2590  0.3824
 8810SOL    HW235012   6.198   1.671   0.795  1.5655  1.7570 -0.3920
 8810SOL    HW335013   6.055   1.704   0.757  0.5201 -0.1556  1.6518
 8810SOL    MW435014   6.137   1.686   0.734  0.3335  0.4020  0.4477
 8811SOL     OW35015   1.779   5.074   0.027 -0.3015  0.4702  0.3864
 8811SOL    HW235016   1.730   5.147  -0.012  0.1590 -0.1316 -1.4239
 8811SOL    HW335017   1.815   5.028  -0.048 -1.0922 -2.0032  1.4439
 8811SOL    MW435018   1.777   5.078   0.012 -0.3451  0.0645  0.2871
 8812SOL     OW35019   0.118   0.880   2.052 -0.0172  0.4402 -0.1908
 8812SOL    HW235020   0.051   0.832   2.100 -0.5261  1.0880 -0.2380
 8812SOL    HW335021   0.167   0.927   2.119 -0.4234  0.9676 -0.2600
 8812SOL    MW435022   0.116   0.880   2.067 -0.1379  0.5952 -0.2062
 8813SOL     OW35023   6.244   0.481   0.216  0.5262 -0.2940  0.9844
 8813SOL    HW235024   6.320   0.510   0.266  2.2588 -1.8802 -0.5363
 8813SOL    HW335025   6.201   0.417   0.273  0.9168 -0.1369  1.4623
 8813SOL    MW435026   6.248   0.476   0.230  0.8063 -0.4826  0.8468
 8814SOL     OW35027   1.977   5.753   2.368 -0.1878  0.0975  0.0927
 8814SOL    HW235028   1.931   5.718   2.292 -0.4752  0.9374 -0.1284
 8814SOL    HW335029   2.020   5.677   2.407 -1.5638 -0.6712  0.1703
 8814SOL    MW435030   1.976   5.738   2.363 -0.4072  0.1069  0.0737
 8815SOL     OW35031   3.940   4.926   1.344  0.2020 -0.1270  0.0625
 8815SOL    HW235032   3.932   5.016   1.375  0.9695  0.0843 -0.3121
 8815SOL    HW335033   4.019   4.927   1.288 -0.0384 -0.9229 -0.3091
 8815SOL    MW435034   3.950   4.938   1.340  0.2715 -0.2042 -0.0359
 8816SOL     OW35035   2.006   4.885   0.215  0.1842  0.0992  0.0980
 8816SOL    HW235036   1.925   4.851   0.175  1.0195  0.7934 -2.3645
 8816SOL    HW335037   1.977   4.927   0.296 -1.8330 -0.2766 -0.3745
 8816SOL    MW435038   1.991   4.886   0.221  0.0283  0.1412 -0.2893
 8817SOL     OW35039   1.450   3.719   6.154  0.5612 -0.1016  0.1948
 8817SOL    HW235040   1.371   3.667   6.168  0.4100 -0.8390 -2.6940
 8817SOL    HW335041   1.419   3.809   6.146  0.0544 -0.3242 -0.4129
 8817SOL    MW435042   1.436   3.724   6.154  0.4744 -0.2283 -0.2665
 8818SOL     OW35043   0.304   0.781   1.374 -0.0133  0.4270 -0.5496
 8818SOL    HW235044   0.373   0.715   1.364 -0.6575 -0.5239  0.8783
 8818SOL    HW335045   0.348   0.864   1.355  1.6397 -0.1105  0.6246
 8818SOL    MW435046   0.319   0.783   1.370  0.1198  0.2306 -0.2063
 8819SOL     OW35047   5.036   3.663   0.114  0.0307  0.0880 -0.0017
 8819SOL    HW235048   5.013   3.590   0.057 -0.3421  0.4580 -0.3342
 8819SOL    HW335049   4.977   3.655   0.189 -0.7721  0.6676 -0.5532
 8819SOL    MW435050   5.025   3.652   0.117 -0.1244  0.2133 -0.1183
 8820SOL     OW35051   3.256   2.699   1.429  0.1437 -0.2516 -0.5215
 8820SOL    HW235052   3.232   2.680   1.339  0.1069  1.1244 -0.8219
 8820SOL    HW335053   3.225   2.623   1.479 -0.0209 -0.9262 -1.6286
 8820SOL    MW435054   3.249   2.686   1.424  0.1171 -0.1590 -0.7072
 8821SOL     OW35055   0.615   3.002   5.978 -0.4208 -0.4072 -0.2704
 8821SOL    HW235056   0.703   2.965   5.966 -0.0049  0.7322 -0.8458
 8821SOL    HW335057   0.630   3.096   5.988 -1.4855 -0.3435  0.8742
 8821SOL    MW435058   0.629   3.009   5.978 -0.5064 -0.2485 -0.1953
 8822SOL     OW35059   3.985   4.854   4.004  0.3051  0.1593  0.0031
 8822SOL    HW235060   3.941   4.938   3.994 -0.3162 -0.3430 -1.9972
 8822SOL    HW335061   4.068   4.875   4.046  0.2143  1.7846 -0.5682
 8822SOL    MW435062   3.990   4.868   4.008  0.2111  0.3075 -0.3362
 8823SOL     OW35063   1.644   3.486   2.289  0.5881 -0.2348  0.2334
 8823SOL    HW235064   1.679   3.459   2.373 -0.1119 -0.5896  0.4158
 8823SOL    HW335065   1.638   3.405   2.238  0.7871 -0.0577 -0.0800
 8823SOL    MW435066   1.648   3.472   2.293  0.5220 -0.2582  0.2161
 8824SOL     OW35067   3.381   6.283   2.884  0.2154  0.4015  0.2294
 8824SOL    HW235068   3.320   6.298   2.812 -0.1977 -0.7944  0.3101
 8824SOL    HW335069   3.455   6.238   2.843 -0.5713 -1.4421  0.7181
 8824SOL    MW435070   3.383   6.279   2.869  0.0571  0.0004  0.3045
 8825SOL     OW35071   3.339   6.276   5.194  0.1502 -0.4668 -0.6493
 8825SOL    HW235072   3.245   6.286   5.211  0.6302  1.2414  1.5126
 8825SOL    HW335073   3.375   6.241   5.275  1.4518 -0.7813 -1.3276
 8825SOL    MW435074   3.332   6.273   5.207  0.3853 -0.2829 -0.4535
 8826SOL     OW35075   5.148   2.076   0.356  0.9469 -0.7598  0.6395
 8826SOL    HW235076   5.174   2.144   0.295  0.6169 -1.0978  0.1149
 8826SOL    HW335077   5.225   2.021   0.367  0.6013 -1.5432 -0.6175
 8826SOL    MW435078   5.161   2.078   0.350  0.8578 -0.9077  0.4044
 8827SOL     OW35079   6.360   4.481   3.580  0.0325  0.1905  0.2059
 8827SOL    HW235080   6.430   4.417   3.570  1.4160  1.2405  2.3443
 8827SOL    HW335081   6.380   4.549   3.515  0.9747  0.4298  0.7263
 8827SOL    MW435082   6.372   4.482   3.570  0.3393  0.3606  0.5567
 8828SOL     OW35083   3.769   3.417   1.505  0.1163 -0.0393  0.4285
 8828SOL    HW235084   3.815   3.349   1.455 -0.6853  0.0502 -0.4557
 8828SOL    HW335085   3.826   3.435   1.580  0.9201 -0.8074  0.0110
 8828SOL    MW435086   3.782   3.410   1.508  0.1166 -0.1289  0.2568
 8829SOL     OW35087   0.447   0.918   0.095  0.3209  0.5037  0.2701
 8829SOL    HW235088   0.509   0.981   0.131 -1.0046  0.5981  2.5841
 8829SOL    HW335089   0.432   0.856   0.166 -0.6065 -0.7427 -0.9746
 8829SOL    MW435090   0.453   0.918   0.109  0.0237  0.3517  0.4112
 8830SOL     OW35091   1.758   4.168   0.798  0.5271 -0.0898 -0.2133
 8830SOL    HW235092   1.737   4.136   0.886  1.5041 -1.3302 -0.4019
 8830SOL    HW335093   1.713   4.107   0.739 -0.2260  0.8081 -0.5955
 8830SOL    MW435094   1.749   4.156   0.802  0.5566 -0.1350 -0.2886
 8831SOL     OW35095   2.744   6.395   6.227  0.1207 -0.7067  0.0501
 8831SOL    HW235096   2.672   6.402   6.164  1.7087 -0.7322 -1.8731
 8831SOL    HW335097   2.759   6.301   6.235  2.1647 -0.7286 -2.4124
 8831SOL    MW435098   2.737   6.383   6.219  0.5999 -0.7130 -0.5286
 8832SOL     OW35099   5.275   3.117   1.326 -0.1584  0.3668  0.3386
 8832SOL    HW235100   5.319   3.170   1.393 -0.7992  1.1500  0.1670
 8832SOL    HW335101   5.255   3.180   1.256  0.0218 -0.3318 -0.3426
 8832SOL    MW435102   5.278   3.133   1.326 -0.2192  0.3780  0.2261
 8833SOL     OW35103   3.505   3.386   4.302 -0.0842  0.0290  0.3781
 8833SOL    HW235104   3.435   3.448   4.319  2.0475  2.7699 -0.1936
 8833SOL    HW335105   3.555   3.424   4.229  0.4888 -3.1579 -1.0969
 8833SOL    MW435106   3.502   3.399   4.294  0.2726 -0.0298  0.1081
 8834SOL     OW35107   3.670   5.422   1.842 -0.4428 -0.4428 -0.5112
 8834SOL    HW235108   3.729   5.454   1.773 -0.0218  0.1426  0.1003
 8834SOL    HW335109   3.612   5.496   1.860  1.2027  0.4507  1.6506
 8834SOL    MW435110   3.670   5.436   1.835 -0.1701 -0.2477 -0.1453
 8835SOL     OW35111   2.323   0.614   2.659 -0.1139  0.0402 -0.0974
 8835SOL    HW235112   2.249   0.656   2.614 -1.1541 -1.7340 -0.1617
 8835SOL    HW335113   2.329   0.527   2.618  0.9046 -0.4813  1.1000
 8835SOL    MW435114   2.314   0.608   2.648 -0.1168 -0.2626  0.0521
 8836SOL     OW35115   1.422   3.636   4.218  0.5689 -0.0611 -0.1326
 8836SOL    HW235116   1.512   3.603   4.208  0.7036 -0.3105  1.5590
 8836SOL    HW335117   1.426   3.692   4.296 -0.7977 -0.2724  0.1077
 8836SOL    MW435118   1.435   3.639   4.227  0.4064 -0.1219  0.1223
 8837SOL     OW35119   2.336   4.578   1.886 -0.3740 -0.0562  0.3018
 8837SOL    HW235120   2.343   4.586   1.982 -3.8131 -0.5187  0.7334
 8837SOL    HW335121   2.417   4.535   1.859  0.0584 -1.3237  3.2193
 8837SOL    MW435122   2.348   4.574   1.895 -0.7707 -0.2844  0.7437
 8838SOL     OW35123   2.079   1.748   0.905 -0.2719 -0.4570 -0.1041
 8838SOL    HW235124   2.074   1.826   0.850  0.3722  0.8284  1.5629
 8838SOL    HW335125   2.028   1.682   0.858 -0.8244  0.9472 -1.5787
 8838SOL    MW435126   2.072   1.750   0.892 -0.2598 -0.1022 -0.0787
 8839SOL     OW35127   4.150   0.733   0.734 -0.6470  0.0755  0.0503
 8839SOL    HW235128   4.083   0.704   0.795 -0.5097  0.9846  0.6508
 8839SOL    HW335129   4.210   0.659   0.727 -0.2210  0.2262  1.6551
 8839SOL    MW435130   4.149   0.720   0.741 -0.5727  0.2153  0.3412
 8840SOL     OW35131   2.285   4.138   3.424  0.3555  0.3902 -0.0063
 8840SOL    HW235132   2.281   4.043   3.430  0.3595  0.4741  2.1564
 8840SOL    HW335133   2.363   4.162   3.474  0.9510  1.4956 -1.3954
 8840SOL    MW435134   2.295   4.129   3.432  0.4346  0.5471  0.0957
 8841SOL     OW35135   1.564   2.953   3.138  0.0919 -0.4577  0.3072
 8841SOL    HW235136   1.500   2.970   3.069 -0.3143  2.9498  1.3258
 8841SOL    HW335137   1.520   2.891   3.196  0.0534 -2.5980 -1.8413
 8841SOL    MW435138   1.550   2.947   3.136  0.0333 -0.2905  0.1581
 8842SOL     OW35139   2.497   4.822   0.179 -0.1690 -0.0790  0.0491
 8842SOL    HW235140   2.523   4.856   0.264  1.0217  0.3722 -0.4786
 8842SOL    HW335141   2.498   4.727   0.189  2.0211 -0.1051 -0.0104
 8842SOL    MW435142   2.500   4.814   0.191  0.2770 -0.0229 -0.0284
 8843SOL     OW35143   5.163   0.741   5.284  0.5573  0.4108 -0.3186
 8843SOL    HW235144   5.233   0.715   5.224  0.9636 -2.6073  1.2702
 8843SOL    HW335145   5.206   0.757   5.367 -0.5785 -2.1602  0.8722
 8843SOL    MW435146   5.178   0.740   5.287  0.4610 -0.3266  0.0481
 8844SOL     OW35147   3.979   1.407   5.958 -0.0553  0.8466  0.7806
 8844SOL    HW235148   4.011   1.327   6.002  1.0572  1.3348  0.8993
 8844SOL    HW335149   4.017   1.403   5.871 -1.8459  0.1412 -0.0102
 8844SOL    MW435150   3.989   1.396   5.953 -0.1448  0.8179  0.6919
 8845SOL     OW35151   5.652   6.273   2.344 -0.2369 -0.5610  0.0868
 8845SOL    HW235152   5.605   6.255   2.263 -0.5936  0.8364 -0.0490
 8845SOL    HW335153   5.653   6.368   2.350 -1.1633 -0.6235  2.2693
 8845SOL    MW435154   5.646   6.283   2.334 -0.4062 -0.3849  0.3568
 8846SOL     OW35155   1.806   3.623   3.487 -0.1109  0.2222 -0.2502
 8846SOL    HW235156   1.791   3.528   3.485 -2.0755  0.4986 -2.1625
 8846SOL    HW335157   1.845   3.642   3.401  1.4210  1.0133  0.5950
 8846SOL    MW435158   1.809   3.613   3.475 -0.1680  0.3630 -0.3910
 8847SOL     OW35159   4.661   6.158   3.426 -0.8489  1.0389 -0.0448
 8847SOL    HW235160   4.637   6.153   3.333  0.7474 -2.3019 -0.4502
 8847SOL    HW335161   4.592   6.110   3.471  0.6407 -1.5170 -0.2360
 8847SOL    MW435162   4.649   6.151   3.420 -0.4418  0.2609 -0.1235
 8848SOL     OW35163   0.855   2.732   5.490 -0.0520 -0.2507  0.0529
 8848SOL    HW235164   0.930   2.771   5.444  0.1091  1.8737  1.9076
 8848SOL    HW335165   0.892   2.659   5.539 -0.1400 -2.2385 -2.6308
 8848SOL    MW435166   0.870   2.728   5.490 -0.0424 -0.2327 -0.0564
 8849SOL     OW35167   1.664   4.210   1.604  0.0056 -0.0434  0.2420
 8849SOL    HW235168   1.704   4.143   1.659  0.7742  0.6593  0.5583
 8849SOL    HW335169   1.605   4.257   1.662 -0.3187 -0.2572  0.0895
 8849SOL    MW435170   1.661   4.207   1.619  0.0642  0.0211  0.2636
 8850SOL     OW35171   5.626   5.785   6.301  0.1378  0.5505  0.1844
 8850SOL    HW235172   5.579   5.706   6.327  0.3757 -0.6993 -2.7842
 8850SOL    HW335173   5.564   5.856   6.317 -0.3987 -0.2914  2.1197
 8850SOL    MW435174   5.612   5.784   6.306  0.0984  0.2746  0.0480
 8851SOL     OW35175   3.056   5.866   6.196  0.0390  0.5272  0.1619
 8851SOL    HW235176   3.013   5.781   6.204  0.4384 -0.0043 -2.4187
 8851SOL    HW335177   2.986   5.925   6.169  0.0311  0.7253  0.6080
 8851SOL    MW435178   3.041   5.863   6.193  0.0907  0.4832 -0.1197
 8852SOL     OW35179   1.987   0.879   5.711 -0.3693 -0.4112 -0.0371
 8852SOL    HW235180   2.016   0.921   5.630 -0.0473 -0.4265  0.0703
 8852SOL    HW335181   1.895   0.859   5.696 -0.0600 -1.3425 -0.7841
 8852SOL    MW435182   1.979   0.882   5.698 -0.2860 -0.5361 -0.1215
 8853SOL     OW35183   5.852   2.811   1.575  0.0301  0.2516 -0.3752
 8853SOL    HW235184   5.885   2.827   1.663 -0.0432  0.7746 -0.4401
 8853SOL    HW335185   5.801   2.730   1.583  2.2795 -1.2748 -0.5322
 8853SOL    MW435186   5.850   2.803   1.588  0.3172  0.1192 -0.4045
 8854SOL     OW35187   2.160   0.441   5.874  0.4655  0.3634  0.0117
 8854SOL    HW235188   2.140   0.347   5.879  0.5463  0.1885 -2.1128
 8854SOL    HW335189   2.192   0.463   5.962  0.6591 -1.6442  0.4977
 8854SOL    MW435190   2.161   0.431   5.886  0.5017  0.0754 -0.2045
 8855SOL     OW35191   6.176   0.546   6.277  0.0012 -0.5093  0.4077
 8855SOL    HW235192   6.159   0.636   6.250  2.0311 -0.6287 -1.5221
 8855SOL    HW335193   6.269   0.533   6.261 -0.0398 -2.6803  1.5497
 8855SOL    MW435194   6.186   0.556   6.271  0.2636 -0.8115  0.3037
 8856SOL     OW35195   6.267   0.737   2.717  0.2532 -0.3774  0.0923
 8856SOL    HW235196   6.224   0.795   2.654  0.4544 -0.1801  0.1362
 8856SOL    HW335197   6.221   0.751   2.799 -0.5459 -1.2309 -0.1867
 8856SOL    MW435198   6.255   0.746   2.719  0.1743 -0.4640  0.0613
 8857SOL     OW35199   1.276   5.569   0.066  0.4766 -0.1128 -0.2352
 8857SOL    HW235200   1.316   5.521   0.138 -0.3961 -2.3122 -1.1397
 8857SOL    HW335201   1.196   5.606   0.103  0.0771 -1.1589 -0.0162
 8857SOL    MW435202   1.271   5.568   0.080  0.3087 -0.5410 -0.3256
 8858SOL     OW35203   5.827   4.994   4.413  0.1158  0.0452  0.0189
 8858SOL    HW235204   5.751   4.978   4.469 -0.2382  1.1331 -0.1287
 8858SOL    HW335205   5.870   5.070   4.452 -0.1313  0.8145 -1.1618
 8858SOL    MW435206   5.823   5.002   4.426  0.0365  0.2902 -0.1564
 8859SOL     OW35207   3.526   5.714   3.929  0.5649  0.5350  0.4718
 8859SOL    HW235208   3.492   5.802   3.945  0.9130  0.4567  1.8065
 8859SOL    HW335209   3.621   5.723   3.940  0.6309  0.0524  0.3217
 8859SOL    MW435210   3.534   5.726   3.932  0.6195  0.4610  0.6281
 8860SOL     OW35211   0.887   0.158   3.394 -0.8307 -0.0271 -0.4650
 8860SOL    HW235212   0.814   0.104   3.364  0.0137 -0.8514 -1.0725
 8860SOL    HW335213   0.959   0.097   3.408 -0.6015  0.5903  1.3884
 8860SOL    MW435214   0.887   0.143   3.392 -0.6890 -0.0544 -0.3007
 8861SOL     OW35215   4.096   4.668   0.458  0.3192  0.2648  0.1823
 8861SOL    HW235216   4.140   4.752   0.450  1.5538 -0.3848 -0.1601
 8861SOL    HW335217   4.003   4.688   0.448  0.7344  1.3190 -2.1290
 8861SOL    MW435218   4.090   4.681   0.456  0.5369  0.3182 -0.1678
 8862SOL     OW35219   5.191   5.685   6.047  0.2687 -0.2416 -0.1870
 8862SOL    HW235220   5.227   5.743   5.979 -0.0360 -0.6769 -0.7258
 8862SOL    HW335221   5.267   5.646   6.089  0.4495 -0.5916 -0.8275
 8862SOL    MW435222   5.206   5.688   6.043  0.2524 -0.3452 -0.3426
 8863SOL     OW35223   0.950   5.957   4.256 -0.2457  0.0142 -0.6411
 8863SOL    HW235224   1.015   6.026   4.254  0.4501 -0.5668  0.7336
 8863SOL    HW335225   0.872   5.996   4.216  0.3821  1.3144 -0.6361
 8863SOL    MW435226   0.948   5.971   4.250 -0.0711  0.1091 -0.4591
 8864SOL     OW35227   2.196   1.580   6.383 -0.3981 -0.0059 -0.0863
 8864SOL    HW235228   2.169   1.649   6.443 -0.9043 -0.2712  0.0047
 8864SOL    HW335229   2.119   1.565   6.327  0.6519  1.4945 -2.0405
 8864SOL    MW435230   2.182   1.587   6.384 -0.3264  0.1571 -0.3322
 8865SOL     OW35231   2.730   3.263   4.396  0.1232  0.6524 -0.3691
 8865SOL    HW235232   2.745   3.311   4.314  0.2565  2.1195  0.4725
 8865SOL    HW335233   2.806   3.206   4.405  1.2532  2.1254 -0.1760
 8865SOL    MW435234   2.742   3.262   4.386  0.2899  1.0403 -0.2326
 8866SOL     OW35235   5.416   2.029   0.279 -0.0534  0.3154 -0.6755
 8866SOL    HW235236   5.452   2.046   0.366  0.5271  0.2244 -0.8961
 8866SOL    HW335237   5.489   2.043   0.219 -0.4623  0.4257 -1.1556
 8866SOL    MW435238   5.430   2.033   0.283 -0.0307  0.3180 -0.7680
 8867SOL     OW35239   3.547   1.154   4.095 -0.1002 -0.0999  0.8588
 8867SOL    HW235240   3.452   1.153   4.080  0.1278  0.6554 -0.8803
 8867SOL    HW335241   3.561   1.230   4.151 -0.5275 -0.2451  1.1719
 8867SOL    MW435242   3.536   1.164   4.100 -0.1265 -0.0194  0.6707
 8868SOL     OW35243   2.772   4.682   5.517 -0.6516  0.4174 -0.7013
 8868SOL    HW235244   2.811   4.635   5.444  1.1196  0.4421  0.1810
 8868SOL    HW335245   2.741   4.613   5.576 -1.1857  0.3977 -0.9947
 8868SOL    MW435246   2.773   4.667   5.515 -0.4884  0.4181 -0.6236
 8869SOL     OW35247   6.195   3.877   5.254  0.5215 -0.4451 -0.3889
 8869SOL    HW235248   6.144   3.941   5.303  1.6115  0.4052 -0.3510
 8869SOL    HW335249   6.147   3.867   5.172  0.4299  0.5448 -0.4666
 8869SOL    MW435250   6.182   3.884   5.250  0.6533 -0.2023 -0.3942
 8870SOL     OW35251   3.438   5.533   0.603 -0.3851 -0.2407  0.0031
 8870SOL    HW235252   3.460   5.441   0.591  1.2266  0.0407  0.6245
 8870SOL    HW335253   3.501   5.580   0.549 -1.3827  0.5049 -0.5397
 8870SOL    MW435254   3.449   5.527   0.594 -0.3041 -0.1052  0.0135
 8871SOL     OW35255   2.718   6.136   0.433 -0.6559  0.4703 -0.0888
 8871SOL    HW235256   2.735   6.050   0.471  0.9777  0.0026 -1.7347
 8871SOL    HW335257   2.803   6.165   0.401 -1.7016  1.2941 -2.3376
 8871SOL    MW435258   2.731   6.128   0.434 -0.5783  0.5173 -0.6026
 8872SOL     OW35259   3.502   3.759   5.773  0.2823 -0.0204  0.3445
 8872SOL    HW235260   3.556   3.684   5.796 -0.8061 -0.1257  2.8836
 8872SOL    HW335261   3.426   3.753   5.831  0.5739  3.5112  1.3792
 8872SOL    MW435262   3.499   3.749   5.784  0.1771  0.4317  0.8160
 8873SOL     OW35263   2.953   5.333   3.477  0.3734  0.6225 -0.3512
 8873SOL    HW235264   2.917   5.245   3.488  1.2171  0.3320  0.1856
 8873SOL    HW335265   2.963   5.343   3.383 -1.3263  0.8207 -0.5503
 8873SOL    MW435266   2.949   5.322   3.466  0.2605  0.6104 -0.3067
 8874SOL     OW35267   3.985   3.763   3.490  0.1206 -0.3287 -0.6711
 8874SOL    HW235268   3.949   3.798   3.408  0.0428 -0.1128 -0.5462
 8874SOL    HW335269   4.022   3.679   3.465 -0.0480 -0.3395 -0.8984
 8874SOL    MW435270   3.985   3.757   3.476  0.0881 -0.3016 -0.6846
 8875SOL     OW35271   4.686   0.252   0.375 -0.2025 -0.3369  0.0543
 8875SOL    HW235272   4.745   0.184   0.407  0.7279  0.1760 -0.5147
 8875SOL    HW335273   4.599   0.213   0.380  0.4960 -2.5647 -2.7114
 8875SOL    MW435274   4.682   0.238   0.380  0.0124 -0.5632 -0.3857
 8876SOL     OW35275   1.216   4.093   0.071  0.2461 -0.0033  0.0319
 8876SOL    HW235276   1.179   4.173   0.109  1.2449 -0.2537  1.6328
 8876SOL    HW335277   1.207   4.027   0.139  0.3672 -1.0091 -0.8887
 8876SOL    MW435278   1.210   4.095   0.085  0.3939 -0.1690  0.1217
 8877SOL     OW35279   0.316   2.273   4.006  0.5249 -0.2514  0.5292
 8877SOL    HW235280   0.284   2.347   3.955 -1.4666 -1.4622 -0.0753
 8877SOL    HW335281   0.376   2.227   3.947  3.0479  1.6220  1.4250
 8877SOL    MW435282   0.320   2.277   3.992  0.5950 -0.1639  0.5676
 8878SOL     OW35283   5.295   2.485   1.975 -0.0799 -0.2219 -0.6096
 8878SOL    HW235284   5.342   2.543   1.914 -1.7993  1.1947 -0.6651
 8878SOL    HW335285   5.365   2.438   2.021  1.3407  0.6808 -1.7392
 8878SOL    MW435286   5.311   2.487   1.973 -0.1193  0.0841 -0.7660
 8879SOL     OW35287   2.698   3.398   3.023  0.3360  0.0878  0.1054
 8879SOL    HW235288   2.675   3.334   3.091  0.6863  1.5699  1.6919
 8879SOL    HW335289   2.689   3.482   3.066  0.7969  1.0853 -1.6591
 8879SOL    MW435290   2.694   3.400   3.038  0.4430  0.4150  0.0819
 8880SOL     OW35291   5.840   5.935   2.346 -0.2321  0.6157 -0.3422
 8880SOL    HW235292   5.909   5.898   2.401 -0.8356 -0.8171 -0.5135
 8880SOL    HW335293   5.879   6.014   2.308  0.5000  1.1338  1.3935
 8880SOL    MW435294   5.854   5.941   2.348 -0.2151  0.4950 -0.1358
 8881NA      NA35295   4.718   0.657   0.190  0.0834  0.3989  0.0095
 8882NA      NA35296   3.553   0.083   4.549 -0.5278  0.0887  0.0291
 8883NA      NA35297   2.233   1.354   0.033  0.4441 -0.0461 -0.4910
 8884NA      NA35298   5.334   2.654   1.325 -0.3764 -0.3283 -0.4788
 8885NA      NA35299   5.646   0.485   5.793  0.1370  0.2506  0.0051
 8886NA      NA35300   2.400   1.318   1.645 -0.0335 -0.1742  0.0082
 8887NA      NA35301   2.830   3.852   2.161  0.1968  0.0984  0.6744
   6.42842   6.42842   6.42842
