A-SYNC WITH LIG-47 in water
35301
  121NASP     N    1   1.574   6.349   4.704 -0.2884 -0.0541  0.2318
  121NASP    H1    2   1.588   6.412   4.627 -0.0990 -1.4167 -0.8823
  121NASP    H2    3   1.664   6.314   4.733  0.0478 -1.3294 -2.0878
  121NASP    H3    4   1.525   6.400   4.776  1.7786  0.4519  1.3472
  121NASP    CA    5   1.491   6.240   4.650  0.7930 -0.7084 -0.0708
  121NASP    HA    6   1.479   6.158   4.722  1.1100  0.1950  1.0492
  121NASP    CB    7   1.346   6.282   4.636  0.5898 -0.5342  0.1116
  121NASP   HB1    8   1.298   6.270   4.734 -0.9922 -1.0985 -0.7026
  121NASP   HB2    9   1.295   6.215   4.567 -3.0715  1.5043  0.5740
  121NASP    CG   10   1.318   6.421   4.578 -0.3496 -0.1490 -0.6271
  121NASP   OD1   11   1.199   6.460   4.551  0.6186  0.2796 -0.3458
  121NASP   OD2   12   1.414   6.494   4.542  0.1528  0.3578 -0.3283
  121NASP     C   13   1.554   6.176   4.530  0.1896  0.0535  0.3178
  121NASP     O   14   1.543   6.223   4.424  0.8511  0.1822 -0.1719
  122ASN      N   15   1.628   6.071   4.546  0.3855 -0.1236  0.0472
  122ASN      H   16   1.624   6.023   4.634 -1.0952  0.8664  0.5585
  122ASN     CA   17   1.704   6.013   4.428  0.5742 -0.3660  0.3172
  122ASN     HA   18   1.656   6.051   4.337 -1.6228  2.4620  2.4540
  122ASN     CB   19   1.848   6.064   4.437 -0.5617  0.2782 -0.7362
  122ASN    HB1   20   1.882   6.048   4.539 -0.3363 -0.2000 -0.8874
  122ASN    HB2   21   1.847   6.172   4.421 -0.1372  0.4531  0.3688
  122ASN     CG   22   1.939   5.989   4.341  0.4734 -0.4260  0.6072
  122ASN    OD1   23   1.908   5.969   4.228  0.2672 -0.6444  0.3139
  122ASN    ND2   24   2.039   5.923   4.392 -0.6081  0.3241 -0.4994
  122ASN   HD21   25   2.103   5.867   4.338 -0.2910 -0.4352  0.6285
  122ASN   HD22   26   2.070   5.938   4.487  1.9919 -1.9849 -0.8613
  122ASN      C   27   1.688   5.855   4.425 -0.3137 -0.6372 -0.8152
  122ASN      O   28   1.751   5.788   4.505 -0.6142 -0.0949 -0.6444
  123GLU      N   29   1.617   5.796   4.333 -0.0696 -0.8753  0.2634
  123GLU      H   30   1.565   5.853   4.268  0.1219 -1.6781 -0.6073
  123GLU     CA   31   1.613   5.651   4.302  0.4101 -0.2233  0.1552
  123GLU     HA   32   1.560   5.610   4.388 -0.1359 -0.4242 -0.2724
  123GLU     CB   33   1.515   5.639   4.183  0.3027 -0.0006 -0.6914
  123GLU    HB1   34   1.421   5.681   4.217  1.4231  3.1279 -1.0882
  123GLU    HB2   35   1.507   5.532   4.163  2.0532 -0.2852 -0.0475
  123GLU     CG   36   1.562   5.722   4.070  0.3076 -0.2848 -0.4384
  123GLU    HG1   37   1.666   5.696   4.047  0.2746 -0.9233  0.0918
  123GLU    HG2   38   1.552   5.829   4.086  1.0330 -0.1204 -1.0312
  123GLU     CD   39   1.489   5.688   3.941  0.2517  0.3491 -0.1018
  123GLU    OE1   40   1.527   5.741   3.836 -0.1221  0.2036 -0.0509
  123GLU    OE2   41   1.390   5.609   3.941  0.5645  0.2939  0.4163
  123GLU      C   42   1.753   5.577   4.277  0.3444 -1.5527  0.4390
  123GLU      O   43   1.752   5.459   4.258 -0.0029  0.5074  0.3099
  124ALA      N   44   1.864   5.647   4.266  0.5159 -0.3573 -0.0227
  124ALA      H   45   1.863   5.747   4.283  0.5427 -0.5279  1.0887
  124ALA     CA   46   2.001   5.595   4.267 -0.6878  0.2163 -0.0742
  124ALA     HA   47   2.067   5.671   4.225 -0.6426  0.4371  0.3953
  124ALA     CB   48   2.034   5.573   4.415 -0.9800  0.1937 -0.2062
  124ALA    HB1   49   1.989   5.483   4.456  1.7679 -1.2499 -0.0884
  124ALA    HB2   50   1.998   5.659   4.473 -0.7871  1.1912 -1.5123
  124ALA    HB3   51   2.142   5.561   4.431 -0.8293  0.0287 -1.2767
  124ALA      C   52   2.021   5.472   4.174 -0.0723 -0.0592  0.7713
  124ALA      O   53   2.057   5.363   4.216  0.1378  0.3931 -0.6044
  125TYR      N   54   1.967   5.483   4.051 -0.2822 -0.0601 -0.1131
  125TYR      H   55   1.919   5.569   4.029  1.2718  0.9488  0.3284
  125TYR     CA   56   1.946   5.369   3.969 -0.2507  0.0417  0.2337
  125TYR     HA   57   1.877   5.294   4.008  1.4345 -1.7053 -0.0108
  125TYR     CB   58   1.882   5.420   3.836 -0.6635 -0.5965 -0.4017
  125TYR    HB1   59   1.940   5.495   3.783  0.1550  0.0189  1.3030
  125TYR    HB2   60   1.783   5.457   3.864 -0.9670 -0.9633 -0.9707
  125TYR     CG   61   1.848   5.320   3.732 -0.0337 -0.3801 -0.3399
  125TYR    CD1   62   1.756   5.218   3.764 -0.4076 -0.0258  0.8417
  125TYR    HD1   63   1.707   5.207   3.859 -3.5209 -0.0220 -0.6340
  125TYR    CE1   64   1.731   5.121   3.667 -0.2444 -0.3655 -0.0330
  125TYR    HE1   65   1.660   5.042   3.687 -0.7110 -0.4663 -1.9097
  125TYR     CZ   66   1.788   5.131   3.540  0.0982  0.2114 -0.1035
  125TYR     OH   67   1.749   5.044   3.441  0.0304 -0.2787 -0.1928
  125TYR     HH   68   1.689   4.973   3.467 -0.3400 -0.2551 -0.9510
  125TYR    CE2   69   1.883   5.228   3.507  0.5357 -0.8910 -0.1535
  125TYR    HE2   70   1.920   5.237   3.406 -3.0025 -1.8460 -1.7038
  125TYR    CD2   71   1.912   5.323   3.612  0.2523  0.4790 -0.0709
  125TYR    HD2   72   1.981   5.404   3.595  1.7495 -0.5770  0.7620
  125TYR      C   73   2.075   5.286   3.937  0.7551  0.5403 -1.0130
  125TYR      O   74   2.069   5.166   3.932 -0.7674  0.2378 -0.1991
  126GLU      N   75   2.187   5.353   3.916 -0.1112  0.0727 -1.1786
  126GLU      H   76   2.190   5.454   3.923 -0.5513  0.1391 -1.8202
  126GLU     CA   77   2.313   5.279   3.875  0.7173 -0.2581 -0.2150
  126GLU     HA   78   2.290   5.211   3.793  0.8819  1.3555 -1.6607
  126GLU     CB   79   2.407   5.376   3.813 -0.3550  0.1380  0.0976
  126GLU    HB1   80   2.458   5.442   3.883 -2.1997  1.8122 -0.0553
  126GLU    HB2   81   2.347   5.445   3.754 -1.4541 -0.1946  0.8009
  126GLU     CG   82   2.523   5.325   3.726  0.2727  0.5000  0.0211
  126GLU    HG1   83   2.479   5.294   3.631  1.0518 -0.4522 -0.0341
  126GLU    HG2   84   2.583   5.257   3.786  0.7565  1.0592  0.1798
  126GLU     CD   85   2.622   5.432   3.691  0.0997 -0.2252  0.6915
  126GLU    OE1   86   2.590   5.543   3.646  0.7876  0.4256  0.1639
  126GLU    OE2   87   2.742   5.401   3.714 -0.2257  0.0269 -0.2238
  126GLU      C   88   2.370   5.196   3.990 -0.8392 -0.1998 -0.0349
  126GLU      O   89   2.442   5.098   3.970 -0.0215  0.0075 -0.0257
  127MET      N   90   2.357   5.248   4.109  0.1013 -0.3097 -0.5375
  127MET      H   91   2.310   5.337   4.107  0.5569 -0.0775 -0.9371
  127MET     CA   92   2.401   5.190   4.235 -0.2515  0.3983  0.8823
  127MET     HA   93   2.507   5.165   4.228 -0.6492 -1.0229 -0.6545
  127MET     CB   94   2.378   5.286   4.351  0.5285  0.5119  0.3304
  127MET    HB1   95   2.379   5.238   4.449 -1.6170  0.0552  0.1738
  127MET    HB2   96   2.285   5.336   4.324  0.2307 -0.4676 -0.4967
  127MET     CG   97   2.489   5.384   4.363  0.1208 -0.3991  0.6244
  127MET    HG1   98   2.452   5.470   4.419  0.4821  0.5414 -0.5541
  127MET    HG2   99   2.507   5.421   4.262  0.2399 -1.4565  0.2410
  127MET     SD  100   2.641   5.306   4.432  0.0955 -0.1552  0.2436
  127MET     CE  101   2.727   5.465   4.445 -0.3272  0.6287 -0.1123
  127MET    HE1  102   2.694   5.517   4.535 -1.0580  0.4935 -0.2935
  127MET    HE2  103   2.701   5.535   4.365  0.3519 -0.8310 -1.6744
  127MET    HE3  104   2.834   5.448   4.437 -0.7781 -2.0295 -1.5331
  127MET      C  105   2.329   5.057   4.254 -0.0099  0.4777  0.1070
  127MET      O  106   2.210   5.060   4.271  0.8393  0.1161  0.4276
  128PRO      N  107   2.402   4.939   4.260  0.8446 -0.3026 -0.3685
  128PRO     CD  108   2.547   4.911   4.265 -0.4021 -0.3026  0.2544
  128PRO    HD1  109   2.609   4.989   4.309  0.9827 -0.2306 -1.6623
  128PRO    HD2  110   2.582   4.895   4.163  0.8652 -1.0457  0.7722
  128PRO     CG  111   2.571   4.785   4.345 -0.2071  0.4563  0.3229
  128PRO    HG1  112   2.561   4.809   4.451  0.2458 -1.9401  0.9652
  128PRO    HG2  113   2.669   4.739   4.337 -0.9409 -1.4595  1.7550
  128PRO     CB  114   2.445   4.711   4.287 -0.1151  0.7288  0.1780
  128PRO    HB1  115   2.471   4.669   4.190 -0.9714 -0.9438  0.6211
  128PRO    HB2  116   2.417   4.630   4.354 -0.3375  0.3973 -0.3106
  128PRO     CA  117   2.331   4.810   4.283 -0.0321 -0.2290  0.0154
  128PRO     HA  118   2.273   4.792   4.193 -3.3562  0.5082  1.8587
  128PRO      C  119   2.241   4.802   4.408 -0.2353 -0.0416  0.0332
  128PRO      O  120   2.283   4.832   4.518 -0.3595 -0.0256  0.0300
  129SER      N  121   2.109   4.768   4.392 -0.0522 -0.0853  0.7278
  129SER      H  122   2.081   4.736   4.300  3.4137 -0.1757 -0.4620
  129SER     CA  123   2.014   4.784   4.502 -0.3431  0.4644 -0.1785
  129SER     HA  124   2.045   4.871   4.560  0.7207  1.4867 -2.1616
  129SER     CB  125   1.879   4.821   4.450  0.6333  0.9696 -0.2781
  129SER    HB1  126   1.899   4.904   4.383  2.6008 -0.2841 -1.3703
  129SER    HB2  127   1.821   4.831   4.541  0.8050 -1.5338  0.1896
  129SER     OG  128   1.832   4.712   4.364  0.2236  0.1752 -0.0313
  129SER    HG1  129   1.753   4.751   4.325 -0.1065 -1.9535 -1.6769
  129SER      C  130   2.012   4.675   4.603  1.0112  0.2169 -0.7961
  129SER      O  131   2.061   4.563   4.569 -0.3276  0.4623 -0.3659
  130GLU      N  132   1.962   4.705   4.725  0.1443  0.2818  0.1380
  130GLU      H  133   1.947   4.804   4.737 -1.4340 -0.1430  2.2696
  130GLU     CA  134   1.928   4.609   4.831 -0.1063 -0.2183  0.0091
  130GLU     HA  135   1.937   4.504   4.804  2.4426  0.2145 -1.1281
  130GLU     CB  136   2.027   4.636   4.953  0.1380  0.3095 -0.7528
  130GLU    HB1  137   1.981   4.597   5.044 -1.3460  2.0270 -0.7040
  130GLU    HB2  138   2.037   4.742   4.977  1.2426  0.3962 -1.5042
  130GLU     CG  139   2.164   4.580   4.936  0.2194 -0.1968 -0.0875
  130GLU    HG1  140   2.223   4.646   4.872  1.5095 -0.1973  1.0668
  130GLU    HG2  141   2.156   4.482   4.888  2.2414 -0.9178  0.8881
  130GLU     CD  142   2.255   4.570   5.062 -0.7880  0.2275  0.2127
  130GLU    OE1  143   2.299   4.673   5.113 -0.1410 -0.2405 -0.0227
  130GLU    OE2  144   2.288   4.457   5.105 -0.7613 -0.0326 -0.3102
  130GLU      C  145   1.786   4.625   4.878 -0.4850  0.2791  0.2025
  130GLU      O  146   1.753   4.581   4.989  0.1383  0.0393 -0.5404
  131GLU      N  147   1.697   4.685   4.797 -0.1041  0.3971 -0.6307
  131GLU      H  148   1.730   4.723   4.709 -0.2261  3.2797  0.4316
  131GLU     CA  149   1.556   4.711   4.826 -0.3958 -0.5809  0.6395
  131GLU     HA  150   1.558   4.780   4.911 -2.7883  0.3599 -0.0029
  131GLU     CB  151   1.493   4.789   4.710 -0.1108 -0.7162 -0.0795
  131GLU    HB1  152   1.387   4.766   4.705 -0.3820  0.5717 -0.5286
  131GLU    HB2  153   1.540   4.754   4.618  0.6171 -1.7163  0.6535
  131GLU     CG  154   1.517   4.945   4.736  0.2052 -0.4781 -0.6759
  131GLU    HG1  155   1.625   4.959   4.741  0.0869  0.4028 -0.3451
  131GLU    HG2  156   1.466   4.973   4.828 -0.1042  0.2594 -1.0649
  131GLU     CD  157   1.475   5.047   4.629 -0.5747  0.3535 -0.0002
  131GLU    OE1  158   1.415   4.998   4.528  0.1489 -0.1044 -0.5140
  131GLU    OE2  159   1.498   5.170   4.634  0.1645 -0.0964  0.4945
  131GLU      C  160   1.474   4.585   4.854  0.5442 -0.4290 -0.1546
  131GLU      O  161   1.374   4.600   4.915  0.0778 -0.2425  0.7449
  132GLY      N  162   1.520   4.468   4.813 -0.4610 -0.1787  0.6339
  132GLY      H  163   1.604   4.476   4.759 -0.9357  1.9643  0.1369
  132GLY     CA  164   1.457   4.342   4.848 -0.5390  0.1682  0.2012
  132GLY    HA1  165   1.424   4.344   4.952  0.7495 -0.7312  0.6567
  132GLY    HA2  166   1.533   4.264   4.840 -0.0071  0.7167 -0.1707
  132GLY      C  167   1.324   4.305   4.776 -0.0230  0.3180 -0.1160
  132GLY      O  168   1.280   4.376   4.682 -0.3506 -0.6664 -0.4136
  133TYR      N  169   1.261   4.197   4.820 -0.4638  0.3790  0.0517
  133TYR      H  170   1.297   4.156   4.905  0.1519 -0.1149 -0.4413
  133TYR     CA  171   1.141   4.145   4.757 -0.0188 -0.5372 -0.5977
  133TYR     HA  172   1.151   4.146   4.649 -0.6000  0.9187 -0.6680
  133TYR     CB  173   1.127   4.001   4.801  0.2221 -0.2068  0.2852
  133TYR    HB1  174   1.201   3.947   4.742  0.7059  0.1117  0.5929
  133TYR    HB2  175   1.030   3.966   4.765 -0.3432 -0.0859  1.6146
  133TYR     CG  176   1.139   3.974   4.950 -0.7348 -0.3735  1.0549
  133TYR    CD1  177   1.021   3.973   5.025  0.0766  0.1164  0.4123
  133TYR    HD1  178   0.922   3.989   4.985  0.2653  0.0189 -0.0913
  133TYR    CE1  179   1.023   3.960   5.166  0.0416 -0.6979 -0.4776
  133TYR    HE1  180   0.931   3.944   5.221 -0.2268 -1.4771 -1.1272
  133TYR     CZ  181   1.141   3.953   5.235 -0.3120 -0.0443  0.1126
  133TYR     OH  182   1.144   3.957   5.370 -0.2420  0.8457 -0.7238
  133TYR     HH  183   1.059   3.933   5.407  0.3708  1.1460  1.0152
  133TYR    CE2  184   1.259   3.967   5.159  0.3437  0.6656  0.0939
  133TYR    HE2  185   1.355   3.958   5.208  0.9084 -2.2314 -1.3357
  133TYR    CD2  186   1.263   3.966   5.019 -0.1501 -0.7993 -0.0058
  133TYR    HD2  187   1.358   3.970   4.967  1.6188  0.4440  3.0078
  133TYR      C  188   1.014   4.221   4.800  0.2002  0.1607 -0.6337
  133TYR      O  189   0.919   4.224   4.723  0.1227 -0.5035  0.4896
  134GLN      N  190   1.016   4.295   4.915 -0.3288  0.2926 -0.4382
  134GLN      H  191   1.099   4.285   4.971  0.3882 -0.1532 -1.5585
  134GLN     CA  192   0.907   4.391   4.966  0.3864  0.7184  0.9479
  134GLN     HA  193   0.815   4.334   4.955  1.3625 -0.6362 -0.5930
  134GLN     CB  194   0.944   4.441   5.106  0.0907 -0.4847  0.6084
  134GLN    HB1  195   0.870   4.517   5.132 -1.9709 -1.6377 -1.4911
  134GLN    HB2  196   1.045   4.481   5.102  0.1881 -0.5948  1.5628
  134GLN     CG  197   0.930   4.330   5.211 -0.0716 -0.4340  0.1421
  134GLN    HG1  198   1.024   4.275   5.220 -0.0085 -0.1519  1.3763
  134GLN    HG2  199   0.850   4.259   5.189 -1.1864  0.3061  1.5985
  134GLN     CD  200   0.907   4.382   5.349  0.0710 -0.0741  0.3226
  134GLN    OE1  201   0.986   4.357   5.442  0.3841  0.5264  0.6896
  134GLN    NE2  202   0.801   4.459   5.366  0.2307 -0.8343 -0.4726
  134GLN   HE21  203   0.778   4.501   5.455 -0.8327  0.6129 -1.3895
  134GLN   HE22  204   0.730   4.466   5.294  0.3592  1.3317 -0.4692
  134GLN      C  205   0.871   4.515   4.878 -0.1611  0.5958  0.0758
  134GLN      O  206   0.951   4.597   4.826  0.1596  0.2567 -0.2655
  135ASP      N  207   0.738   4.527   4.853  0.0353 -0.4564  0.1980
  135ASP      H  208   0.681   4.449   4.883  0.2474 -0.8887 -0.4931
  135ASP     CA  209   0.681   4.657   4.812  0.0511 -0.2723 -0.5652
  135ASP     HA  210   0.732   4.702   4.726  0.3492  2.1003  0.7812
  135ASP     CB  211   0.540   4.629   4.774  0.3926  0.3224 -0.2583
  135ASP    HB1  212   0.495   4.724   4.748  0.6333  0.1331 -1.4186
  135ASP    HB2  213   0.498   4.582   4.863  0.5762  1.7234  0.5938
  135ASP     CG  214   0.516   4.522   4.653  0.3517 -0.5817 -0.3676
  135ASP    OD1  215   0.398   4.478   4.638  0.6191 -0.2618 -0.1560
  135ASP    OD2  216   0.615   4.488   4.578  0.3023  0.1574  0.3397
  135ASP      C  217   0.684   4.770   4.925  0.7131 -0.2186  0.1233
  135ASP      O  218   0.698   4.887   4.892  0.2251  0.1697  0.1598
  136TYR      N  219   0.685   4.726   5.048 -0.0160 -0.0989  0.5033
  136TYR      H  220   0.696   4.626   5.055 -0.3424 -0.3050 -1.3348
  136TYR     CA  221   0.676   4.801   5.173  0.0448  0.1396 -0.7889
  136TYR     HA  222   0.681   4.724   5.250 -0.1090  2.6279  1.8881
  136TYR     CB  223   0.792   4.905   5.194  0.4307  0.1509 -0.7864
  136TYR    HB1  224   0.795   4.947   5.295  2.1361  1.2940 -1.2607
  136TYR    HB2  225   0.781   4.987   5.123  2.9191 -0.5410 -2.0627
  136TYR     CG  226   0.932   4.843   5.177  0.1074 -0.2376 -0.0015
  136TYR    CD1  227   1.015   4.838   5.064 -0.1391 -0.0728  0.4499
  136TYR    HD1  228   0.976   4.877   4.971 -1.1146  0.3594  1.0321
  136TYR    CE1  229   1.126   4.766   5.054 -0.2466  0.4938 -0.2291
  136TYR    HE1  230   1.182   4.767   4.961  1.1100 -0.3542  0.5409
  136TYR     CZ  231   1.176   4.702   5.169 -0.4031  0.9158  1.3174
  136TYR     OH  232   1.289   4.627   5.164 -0.1627  0.0242  0.4634
  136TYR     HH  233   1.319   4.624   5.073  2.3418  0.1699  1.2116
  136TYR    CE2  234   1.097   4.689   5.281  0.3707 -0.3845  0.4259
  136TYR    HE2  235   1.131   4.622   5.359 -2.3137 -1.0418  1.1352
  136TYR    CD2  236   0.974   4.761   5.286  0.7865 -0.0457  0.1100
  136TYR    HD2  237   0.911   4.762   5.374  0.4795  0.5880 -0.1130
  136TYR      C  238   0.540   4.863   5.207  0.3312  0.0928  0.7583
  136TYR      O  239   0.464   4.893   5.112 -0.2403 -0.5341 -0.6793
  137GLU      N  240   0.512   4.858   5.334  0.3475 -0.6032  0.0565
  137GLU      H  241   0.569   4.811   5.403  0.0890 -1.2103 -0.1393
  137GLU     CA  242   0.384   4.916   5.389 -0.6504  0.1650 -0.0539
  137GLU     HA  243   0.298   4.919   5.322  0.1867  0.8230 -1.1498
  137GLU     CB  244   0.359   4.820   5.506  0.7551 -0.2244  0.0758
  137GLU    HB1  245   0.265   4.846   5.555 -0.6050 -2.6363 -1.0913
  137GLU    HB2  246   0.435   4.823   5.585  1.0992  2.2663 -0.2805
  137GLU     CG  247   0.348   4.669   5.481  0.1142 -0.1109 -0.2822
  137GLU    HG1  248   0.434   4.636   5.423 -0.2648 -1.9353  0.1142
  137GLU    HG2  249   0.263   4.666   5.413  1.3435  2.6996 -2.1066
  137GLU     CD  250   0.326   4.576   5.603 -0.5955  0.3036  0.3597
  137GLU    OE1  251   0.346   4.622   5.715  0.5277  0.2954  0.5532
  137GLU    OE2  252   0.271   4.463   5.583 -0.5155 -0.2570  0.1896
  137GLU      C  253   0.414   5.057   5.441  0.3116 -0.5279  0.6857
  137GLU      O  254   0.524   5.074   5.497  0.3770  0.1376 -0.1772
  138PRO      N  255   0.312   5.142   5.447  0.1660  0.3848 -0.2365
  138PRO     CD  256   0.178   5.121   5.391  0.2763 -0.0715 -0.2656
  138PRO    HD1  257   0.121   5.051   5.453  0.8172  0.0393  0.3636
  138PRO    HD2  258   0.175   5.088   5.287 -1.1531 -0.0871 -0.2427
  138PRO     CG  259   0.112   5.252   5.405  0.4602  0.0167  0.2396
  138PRO    HG1  260   0.021   5.231   5.461 -0.4529 -0.3725 -1.3201
  138PRO    HG2  261   0.069   5.287   5.312  0.7162  0.0264  0.1243
  138PRO     CB  262   0.207   5.356   5.460  0.2797 -0.4510  0.1184
  138PRO    HB1  263   0.243   5.425   5.382  1.7324 -0.3535  0.8357
  138PRO    HB2  264   0.156   5.416   5.535  0.9946  0.4048 -0.0493
  138PRO     CA  265   0.330   5.281   5.496 -0.3110 -0.6965 -0.1869
  138PRO     HA  266   0.416   5.321   5.442  1.3536 -5.3822 -1.4431
  138PRO      C  267   0.350   5.294   5.647 -0.6216  0.2197  1.0974
  138PRO      O  268   0.332   5.197   5.721 -0.4034 -0.2622  0.6420
  139GLU      N  269   0.381   5.413   5.694  0.1142  0.3317  0.1936
  139GLU      H  270   0.387   5.488   5.626  1.5055  0.6353  0.6230
  139GLU     CA  271   0.414   5.449   5.833 -0.6857 -0.1544 -0.5494
  139GLU     HA  272   0.484   5.376   5.873  2.4105  3.0053  0.3132
  139GLU     CB  273   0.492   5.582   5.838 -0.2549 -0.4253  0.3315
  139GLU    HB1  274   0.542   5.583   5.935 -3.5784 -2.4754  2.2608
  139GLU    HB2  275   0.425   5.668   5.837  1.0249  0.6336  1.2911
  139GLU     CG  276   0.603   5.601   5.736 -0.1686 -0.0968 -0.2097
  139GLU    HG1  277   0.562   5.616   5.636  0.9578  2.9466 -0.3337
  139GLU    HG2  278   0.656   5.506   5.745  1.4562  0.7004 -1.1018
  139GLU     CD  279   0.700   5.718   5.756 -0.6619  0.0897  0.0319
  139GLU    OE1  280   0.817   5.705   5.701  0.4811 -0.1628 -0.4101
  139GLU    OE2  281   0.668   5.823   5.816 -0.3155 -0.1862  0.2975
  139GLU      C  282   0.295   5.450   5.926  0.0112 -0.3199 -0.6214
  139GLU      O  283   0.289   5.527   6.029  0.1479 -0.0624  0.4785
  140CALA     N  284   0.194   5.370   5.903  0.0624 -0.4131 -0.4663
  140CALA     H  285   0.215   5.294   5.840 -1.1561 -0.5117 -0.7818
  140CALA    CA  286   0.085   5.344   6.001  0.2618  0.5050 -0.1126
  140CALA    HA  287   0.053   5.424   6.069 -2.2111 -0.5005  0.0117
  140CALA    CB  288  -0.034   5.312   5.913 -0.0470 -0.3546 -0.2925
  140CALA   HB1  289  -0.055   5.395   5.846  0.8341 -1.5729 -2.1739
  140CALA   HB2  290  -0.123   5.296   5.974 -1.1829 -0.3324 -1.8737
  140CALA   HB3  291  -0.005   5.219   5.864 -1.4717 -0.2035 -1.4905
  140CALA     C  292   0.119   5.223   6.090 -0.1665  0.2765  0.2129
  140CALA   OC1  293   0.115   5.224   6.217  0.3852  0.0082  0.0132
  140CALA   OC2  294   0.177   5.123   6.042 -0.0100 -0.6097 -0.3043
  141L47      C  295   0.937   4.920   5.808  0.0268  0.0869  0.1159
  141L47      H  296   0.920   5.027   5.821 -0.9350 -0.1221  0.6462
  141L47     H1  297   0.960   4.878   5.906 -1.8646 -0.3269  0.4141
  141L47     H2  298   0.849   4.868   5.766  0.9439 -1.6668  0.2419
  141L47     C1  299   1.062   4.900   5.725 -0.4316  0.8227 -0.3954
  141L47      O  300   1.144   4.816   5.765 -0.5941 -0.1493 -0.2953
  141L47      N  301   1.074   4.971   5.610 -0.3560  0.8276  0.8189
  141L47     C2  302   0.963   5.050   5.559  0.2950 -0.1702  0.5374
  141L47     H3  303   0.929   5.119   5.637 -0.0048 -0.2707  0.4994
  141L47     H4  304   0.882   4.982   5.529  0.4784  0.2404 -0.9959
  141L47     C3  305   1.011   5.121   5.440  0.0696 -0.3743  0.1294
  141L47     H5  306   1.022   5.227   5.467  0.3757 -0.2172 -0.6003
  141L47     H6  307   0.938   5.111   5.358  1.2248  0.5685 -1.0495
  141L47     C4  308   1.142   5.053   5.407 -0.4829 -0.4396  0.5749
  141L47     C5  309   1.177   4.963   5.508  0.5998 -0.0319 -0.0678
  141L47     C6  310   1.285   4.879   5.495  0.0088 -0.3789 -0.2998
  141L47     H7  311   1.297   4.804   5.573 -2.1365 -1.8654 -1.2951
  141L47     C7  312   1.369   4.884   5.378 -0.0222  0.3800 -0.0622
  141L47     H8  313   1.451   4.813   5.368  0.6314  1.0088  0.6383
  141L47     C8  314   1.338   4.991   5.282 -0.4848 -0.4727 -0.3164
  141L47     C9  315   1.224   5.075   5.298 -0.7236 -0.1556  0.1016
  141L47     H9  316   1.209   5.160   5.233 -1.9285  0.2406  0.8571
  141L47      S  317   1.439   5.019   5.134 -0.0864 -0.3127 -0.1628
  141L47     O1  318   1.352   5.092   5.040  0.1685 -0.4802  0.1665
  141L47     O2  319   1.505   4.896   5.088  0.2169 -0.0358 -0.6834
  141L47     N1  320   1.557   5.140   5.162  0.2944 -0.1168 -0.3186
  141L47    C10  321   1.641   5.172   5.043 -0.0295 -0.0230  0.6078
  141L47    H10  322   1.592   5.129   4.954  0.8841 -0.5479  0.3403
  141L47    H11  323   1.736   5.116   5.045  3.5111  5.2279  0.2733
  141L47    C11  324   1.672   5.320   5.020 -0.5500  0.9994 -0.0584
  141L47    H12  325   1.579   5.377   5.026 -1.6436 -0.7830  0.5426
  141L47    H13  326   1.721   5.338   4.923 -0.0406 -0.0848 -0.0244
  141L47    C12  327   1.773   5.385   5.122 -0.0221  0.0051  0.1431
  141L47    H14  328   1.790   5.489   5.093  1.0397 -0.1542  0.1603
  141L47    H15  329   1.868   5.334   5.110 -0.0524 -0.1248  0.4361
  141L47     N2  330   1.733   5.361   5.276 -0.1322  0.3194  0.3792
  141L47    H16  331   1.793   5.415   5.339 -1.6750  0.5042  1.7574
  141L47    H17  332   1.640   5.403   5.288 -0.3648  0.8110 -2.3937
  141L47    C13  333   1.743   5.216   5.323 -0.2779 -0.6960  0.4330
  141L47    H18  334   1.759   5.224   5.431 -1.6044  0.4419  0.5725
  141L47    H19  335   1.835   5.188   5.272  0.9038 -0.5569  2.3997
  141L47    C14  336   1.621   5.120   5.287  0.1582  0.6186  0.2040
  141L47    H20  337   1.658   5.017   5.289 -3.8356 -1.0150 -0.6678
  141L47    H21  338   1.552   5.131   5.372  0.7967  0.8351  0.7069
  142SOL     OW  339   1.666   5.429   5.653 -0.4305  0.0608  0.0682
  142SOL    HW2  340   1.620   5.480   5.720  1.5045  1.5833  0.3151
  142SOL    HW3  341   1.604   5.360   5.629 -2.9221  2.0903  0.2049
  142SOL    MW4  342   1.652   5.427   5.659 -0.5040  0.5294  0.1188
  143SOL     OW  343   3.721   1.068   2.306  0.1241  0.1391  0.1770
  143SOL    HW2  344   3.738   1.125   2.231  0.0675 -0.2787 -0.1608
  143SOL    HW3  345   3.778   1.101   2.375  0.7085  0.0813 -0.2748
  143SOL    MW4  346   3.731   1.080   2.305  0.1937  0.0763  0.0728
  144SOL     OW  347   5.786   5.058   3.242  0.4836  0.7741 -0.2736
  144SOL    HW2  348   5.757   5.130   3.298  2.1648  0.2037  1.4259
  144SOL    HW3  349   5.845   5.100   3.179  0.8657  0.9884  0.2276
  144SOL    MW4  350   5.790   5.073   3.241  0.7558  0.7271  0.0168
  145SOL     OW  351   6.289   4.324   2.040 -0.1331  0.1028  0.3849
  145SOL    HW2  352   6.197   4.337   2.062 -0.3414  1.2417 -1.0182
  145SOL    HW3  353   6.289   4.248   1.982 -0.0025 -0.7398  1.4621
  145SOL    MW4  354   6.277   4.316   2.035 -0.1434  0.1419  0.3419
  146SOL     OW  355   0.180   4.355   0.314  0.2862 -0.1698 -0.1178
  146SOL    HW2  356   0.181   4.303   0.394 -0.8901  0.3589  0.2481
  146SOL    HW3  357   0.248   4.421   0.327  0.8042 -0.7152  0.0014
  146SOL    MW4  358   0.189   4.357   0.326  0.1994 -0.1720 -0.0538
  147SOL     OW  359   2.557   4.125   4.202 -0.2550  0.6028 -0.3611
  147SOL    HW2  360   2.516   4.205   4.236 -0.6430  0.6323 -0.8795
  147SOL    HW3  361   2.507   4.105   4.123 -0.5470 -0.4867  0.0892
  147SOL    MW4  362   2.545   4.133   4.196 -0.3447  0.4629 -0.3701
  148SOL     OW  363   6.279   2.161   5.045 -0.3227 -0.3308 -0.1803
  148SOL    HW2  364   6.214   2.187   5.110 -0.3901 -0.4797 -0.1885
  148SOL    HW3  365   6.291   2.067   5.060  1.5570  0.0809  1.3575
  148SOL    MW4  366   6.272   2.152   5.056 -0.0836 -0.2961  0.0215
  149SOL     OW  367   0.438   5.117   6.043 -0.2778  0.3519  0.6285
  149SOL    HW2  368   0.343   5.123   6.035 -0.7451 -3.3735  1.4788
  149SOL    HW3  369   0.452   5.063   6.121  2.5320  0.4781  0.3052
  149SOL    MW4  370   0.427   5.111   6.052  0.0313 -0.1230  0.6980
  150SOL     OW  371   6.097   1.997   2.277  0.0883 -0.3915  0.0976
  150SOL    HW2  372   6.174   2.032   2.231 -0.5921  2.0840  0.6890
  150SOL    HW3  373   6.091   1.907   2.246  3.0079 -0.5957 -0.2427
  150SOL    MW4  374   6.107   1.990   2.267  0.3838 -0.0919  0.1307
  151SOL     OW  375   0.159   2.989   3.356  0.7126 -0.2982 -0.6147
  151SOL    HW2  376   0.157   2.999   3.261 -0.3576  1.8400 -0.4291
  151SOL    HW3  377   0.252   2.979   3.377  0.8902 -1.9446 -1.9274
  151SOL    MW4  378   0.171   2.989   3.346  0.5948 -0.2333 -0.7634
  152SOL     OW  379   4.204   5.388   5.309 -0.3452  0.0436  0.6016
  152SOL    HW2  380   4.124   5.336   5.297 -1.0159  1.1856 -0.0811
  152SOL    HW3  381   4.250   5.380   5.226  0.7250 -1.3334  1.2914
  152SOL    MW4  382   4.199   5.380   5.297 -0.2925  0.0126  0.6025
  153SOL     OW  383   1.463   5.436   4.566  0.2266  0.1957  0.0497
  153SOL    HW2  384   1.494   5.348   4.586 -1.0033  0.1649  2.0241
  153SOL    HW3  385   1.523   5.494   4.613 -0.0687  0.3204  0.2767
  153SOL    MW4  386   1.475   5.432   4.574  0.0254  0.2081  0.3402
  154SOL     OW  387   5.483   2.201   5.923  0.3595 -0.0078  0.0509
  154SOL    HW2  388   5.567   2.246   5.912  0.1862  0.1790 -0.5353
  154SOL    HW3  389   5.426   2.239   5.856 -0.6605  0.9311  1.3856
  154SOL    MW4  390   5.487   2.212   5.913  0.2021  0.1407  0.1496
  155SOL     OW  391   2.089   0.239   5.442 -0.1830  0.2404 -0.0877
  155SOL    HW2  392   2.062   0.163   5.390 -2.6576  1.4627 -0.7965
  155SOL    HW3  393   2.152   0.205   5.505 -0.0114 -2.0613 -1.3926
  155SOL    MW4  394   2.093   0.224   5.443 -0.4868  0.0980 -0.3534
  156SOL     OW  395   1.285   4.926   4.157 -0.4947 -0.3971 -0.3982
  156SOL    HW2  396   1.265   4.858   4.222  0.7316 -0.4405 -0.0332
  156SOL    HW3  397   1.303   5.004   4.209 -2.3322  0.3653 -0.8355
  156SOL    MW4  398   1.285   4.927   4.173 -0.5753 -0.3023 -0.4078
  157SOL     OW  399   1.056   5.537   1.940 -0.5012  0.4165  0.3492
  157SOL    HW2  400   1.010   5.584   1.870  0.5370 -2.5575 -2.6137
  157SOL    HW3  401   0.987   5.489   1.986 -0.9474  0.1864 -0.5280
  157SOL    MW4  402   1.041   5.537   1.936 -0.4231 -0.0063 -0.1575
  158SOL     OW  403   4.016   2.090   4.348 -0.3066 -0.3139  0.0380
  158SOL    HW2  404   3.976   2.175   4.334  1.3765  0.5094 -0.0010
  158SOL    HW3  405   4.088   2.086   4.285  0.7784 -0.9896  1.2644
  158SOL    MW4  406   4.020   2.101   4.337  0.0586 -0.2944  0.1946
  159SOL     OW  407   4.947   4.638   5.735  0.4441 -0.1271 -0.1166
  159SOL    HW2  408   4.996   4.617   5.656 -0.3263  2.2326 -1.3128
  159SOL    HW3  409   4.864   4.591   5.725  0.1024  0.6455 -1.0507
  159SOL    MW4  410   4.943   4.629   5.723  0.2974  0.2862 -0.3977
  160SOL     OW  411   3.938   3.942   4.188  0.4347  0.2059  0.7067
  160SOL    HW2  412   4.021   3.976   4.154  0.9722 -2.1827 -0.5991
  160SOL    HW3  413   3.964   3.885   4.260 -0.0594 -0.5136  0.3219
  160SOL    MW4  414   3.952   3.939   4.193  0.4404 -0.2042  0.4836
  161SOL     OW  415   3.786   1.977   2.800  0.5553  0.6599  0.3779
  161SOL    HW2  416   3.853   2.045   2.807  0.2026  1.0028  0.4467
  161SOL    HW3  417   3.789   1.932   2.885  1.4131 -0.0055  0.0099
  161SOL    MW4  418   3.795   1.980   2.812  0.6219  0.6174  0.3384
  162SOL     OW  419   1.760   2.898   6.362  0.1702 -0.4276  1.2712
  162SOL    HW2  420   1.674   2.940   6.367  0.4978  0.6406 -0.9787
  162SOL    HW3  421   1.822   2.967   6.385  0.5897 -0.1834 -0.4566
  162SOL    MW4  422   1.757   2.913   6.366  0.2688 -0.2544  0.7464
  163SOL     OW  423   4.628   0.682   0.603  0.1247 -0.2653 -0.6853
  163SOL    HW2  424   4.684   0.708   0.530  2.4307  1.8256  1.6514
  163SOL    HW3  425   4.657   0.736   0.676 -1.3594 -2.9378  2.0988
  163SOL    MW4  426   4.639   0.692   0.603  0.2331 -0.3421 -0.0097
  164SOL     OW  427   1.755   2.918   2.816 -0.0255  0.5498  0.0214
  164SOL    HW2  428   1.734   3.011   2.817  1.3465  0.9466 -1.9816
  164SOL    HW3  429   1.836   2.911   2.868  1.1008  0.8831 -1.6107
  164SOL    MW4  430   1.763   2.929   2.823  0.3041  0.6461 -0.4582
  165SOL     OW  431   0.136   4.549   0.995  0.4600 -0.1964 -0.1981
  165SOL    HW2  432   0.084   4.523   0.919 -1.1432  2.6435 -0.2443
  165SOL    HW3  433   0.205   4.605   0.958  1.4246 -1.0620  0.2301
  165SOL    MW4  434   0.138   4.553   0.980  0.3757  0.0641 -0.1477
  166SOL     OW  435   6.072   2.257   3.882  1.0561  0.1026 -0.0445
  166SOL    HW2  436   6.003   2.202   3.919  2.2348 -0.8501  0.7866
  166SOL    HW3  437   6.123   2.286   3.957  2.0991  0.0730 -0.7193
  166SOL    MW4  438   6.070   2.254   3.897  1.3492 -0.0270 -0.0239
  167SOL     OW  439   4.051   1.427   2.334  0.9499 -0.3186  0.8178
  167SOL    HW2  440   4.050   1.435   2.429  1.1790 -2.7741  1.0995
  167SOL    HW3  441   3.961   1.449   2.308  0.6833 -0.3409  1.6767
  167SOL    MW4  442   4.039   1.431   2.343  0.9449 -0.6455  0.9683
  168SOL     OW  443   6.343   3.094   0.673 -0.0989 -0.0935 -0.3284
  168SOL    HW2  444   6.326   3.131   0.759 -1.5778 -0.0425 -0.6100
  168SOL    HW3  445   6.260   3.052   0.648  1.0429 -2.3208 -0.6521
  168SOL    MW4  446   6.330   3.093   0.681 -0.1434 -0.3806 -0.4083
  169SOL     OW  447   5.176   4.182   1.588  0.3740  0.0867  0.3286
  169SOL    HW2  448   5.124   4.105   1.614  1.4954 -0.9365 -0.3432
  169SOL    HW3  449   5.247   4.185   1.651  0.6158  0.2744  0.0494
  169SOL    MW4  450   5.178   4.172   1.600  0.5538 -0.0235  0.2032
  170SOL     OW  451   0.111   3.444   0.153 -0.2743  0.3635  0.0119
  170SOL    HW2  452   0.142   3.534   0.159  0.7220  0.1766 -1.5820
  170SOL    HW3  453   0.144   3.402   0.233  0.8491  0.9821 -0.0994
  170SOL    MW4  454   0.120   3.450   0.165  0.0054  0.4204 -0.2131
  171SOL     OW  455   5.525   4.595   4.219  0.1825  0.7977 -0.2242
  171SOL    HW2  456   5.536   4.686   4.192  1.2634  0.9227  0.5616
  171SOL    HW3  457   5.562   4.591   4.307 -0.0931 -0.3516 -0.1342
  171SOL    MW4  458   5.531   4.606   4.227  0.2888  0.6626 -0.1086
  172SOL     OW  459   3.601   4.103   3.936 -0.2260 -0.1137 -0.9271
  172SOL    HW2  460   3.589   4.189   3.977  0.2305 -0.9055  0.9650
  172SOL    HW3  461   3.564   4.041   3.998  0.4799 -1.3863 -1.7269
  172SOL    MW4  462   3.594   4.106   3.950 -0.0726 -0.3861 -0.7830
  173SOL     OW  463   4.895   1.491   3.327 -0.3357 -0.3520  0.2977
  173SOL    HW2  464   4.887   1.417   3.388 -0.2212  0.3259  1.1497
  173SOL    HW3  465   4.986   1.486   3.296 -0.7667 -1.4960 -0.8823
  173SOL    MW4  466   4.906   1.480   3.331 -0.3775 -0.4135  0.2544
  174SOL     OW  467   2.566   1.777   0.012 -0.5687  0.4970 -0.3673
  174SOL    HW2  468   2.586   1.724   0.090 -2.0448  1.9073  1.0363
  174SOL    HW3  469   2.525   1.856   0.046  1.6808  2.7024 -2.3786
  174SOL    MW4  470   2.563   1.780   0.027 -0.4667  0.9741 -0.4475
  175SOL     OW  471   3.541   4.178   1.805 -0.2218  0.3219 -0.2240
  175SOL    HW2  472   3.471   4.180   1.870 -0.8827 -0.2999 -0.8952
  175SOL    HW3  473   3.581   4.264   1.811 -0.7977  0.5578  0.4330
  175SOL    MW4  474   3.537   4.189   1.815 -0.3850  0.2710 -0.2259
  176SOL     OW  475   5.155   0.031   4.563 -0.0735 -0.4572 -0.1029
  176SOL    HW2  476   5.172   0.085   4.485  0.7111 -0.2864  0.1807
  176SOL    HW3  477   5.146   0.095   4.634 -0.6191 -0.6245 -0.0120
  176SOL    MW4  478   5.156   0.047   4.562 -0.0420 -0.4567 -0.0535
  177SOL     OW  479   5.678   4.822   5.610  0.0669 -0.4778 -0.0218
  177SOL    HW2  480   5.616   4.753   5.586  0.1346  0.1317 -2.0791
  177SOL    HW3  481   5.632   4.874   5.676 -1.5607 -0.1526 -1.3723
  177SOL    MW4  482   5.664   4.820   5.616 -0.1389 -0.3545 -0.4714
  178SOL     OW  483   3.661   4.900   3.449  0.2311  0.5287 -0.3003
  178SOL    HW2  484   3.598   4.852   3.501  2.6193 -1.2905  1.1158
  178SOL    HW3  485   3.709   4.953   3.513  1.9078 -0.2251 -0.8805
  178SOL    MW4  486   3.659   4.901   3.464  0.7674  0.1892 -0.1900
  179SOL     OW  487   0.757   1.934   2.657 -0.3596 -0.1565 -0.1925
  179SOL    HW2  488   0.681   1.955   2.603 -1.0322 -0.1819  0.7173
  179SOL    HW3  489   0.828   1.987   2.620 -0.8264 -0.0901 -1.0203
  179SOL    MW4  490   0.756   1.944   2.645 -0.5099 -0.1511 -0.1817
  180SOL     OW  491   1.751   2.589   5.122 -0.1228  0.8112  0.0613
  180SOL    HW2  492   1.777   2.497   5.121 -2.3195  0.0789  2.0525
  180SOL    HW3  493   1.791   2.624   5.201 -0.2895  1.2484 -0.0458
  180SOL    MW4  494   1.760   2.581   5.132 -0.4346  0.7722  0.3099
  181SOL     OW  495   6.192   4.085   5.670  0.7579 -0.3190 -0.5368
  181SOL    HW2  496   6.110   4.055   5.630  0.6437  0.5113 -0.9414
  181SOL    HW3  497   6.188   4.180   5.663  1.5466 -0.2548 -0.1279
  181SOL    MW4  498   6.180   4.094   5.664  0.8469 -0.2010 -0.5363
  182SOL     OW  499   0.672   4.543   5.711  0.1117 -0.2846  0.2339
  182SOL    HW2  500   0.625   4.470   5.752  2.3954 -2.1930 -0.3787
  182SOL    HW3  501   0.749   4.557   5.766  0.9310  0.0634 -0.9530
  182SOL    MW4  502   0.676   4.535   5.723  0.5211 -0.4905 -0.0035
  183SOL     OW  503   0.113   1.539   6.323 -0.1765  0.1845 -0.1838
  183SOL    HW2  504   0.046   1.561   6.258  1.0418  3.0658 -0.6082
  183SOL    HW3  505   0.103   1.605   6.391  1.6010  0.0977  0.2195
  183SOL    MW4  506   0.103   1.550   6.323  0.2188  0.5532 -0.1866
  184SOL     OW  507   0.354   2.487   4.660  0.1500  0.2667  0.2353
  184SOL    HW2  508   0.331   2.477   4.753  0.0206 -0.5948  0.1187
  184SOL    HW3  509   0.281   2.537   4.623 -0.3781 -0.3892  0.3649
  184SOL    MW4  510   0.341   2.492   4.667  0.0632  0.0665  0.2370
  185SOL     OW  511   2.010   5.961   6.293  0.0838  0.0326  0.2716
  185SOL    HW2  512   2.002   5.988   6.201  0.9389 -0.7316 -0.0456
  185SOL    HW3  513   1.968   6.031   6.342  0.3348  0.8604 -0.6571
  185SOL    MW4  514   2.003   5.974   6.287  0.2297  0.0410  0.1072
  186SOL     OW  515   6.330   4.795   1.437 -0.0742 -0.0939  0.0496
  186SOL    HW2  516   6.351   4.703   1.419 -2.2429 -0.5472 -0.4802
  186SOL    HW3  517   6.235   4.796   1.447  0.0754  1.8160  1.9010
  186SOL    MW4  518   6.320   4.783   1.436 -0.3406  0.0983  0.2240
  187SOL     OW  519   3.256   0.138   1.366  0.3581 -0.1353  0.5354
  187SOL    HW2  520   3.265   0.044   1.348 -1.8627 -0.9232  2.7904
  187SOL    HW3  521   3.307   0.152   1.445  0.2123  0.4366  0.5286
  187SOL    MW4  522   3.264   0.127   1.374  0.0459 -0.1638  0.8320
  188SOL     OW  523   1.917   3.957   0.437  0.3150  0.3421  0.0176
  188SOL    HW2  524   1.929   3.946   0.532 -1.2165 -0.8784  0.1087
  188SOL    HW3  525   1.989   3.909   0.398  1.5291  1.6701  0.5470
  188SOL    MW4  526   1.928   3.949   0.445  0.2731  0.3563  0.0995
  189SOL     OW  527   3.197   3.709   4.211  0.2265 -0.5115 -0.2039
  189SOL    HW2  528   3.216   3.795   4.172  0.2382  0.4989  1.9140
  189SOL    HW3  529   3.133   3.727   4.280  1.0731 -2.0373  1.0384
  189SOL    MW4  530   3.191   3.723   4.215  0.3398 -0.5795  0.2394
  190SOL     OW  531   2.747   2.947   6.210  0.2755  0.1263  0.6144
  190SOL    HW2  532   2.830   2.940   6.162  0.1065 -0.8081  0.4490
  190SOL    HW3  533   2.683   2.973   6.143  0.0625 -1.0649  0.3289
  190SOL    MW4  534   2.750   2.950   6.195  0.2251 -0.1542  0.5549
  191SOL     OW  535   4.209   6.015   3.631  0.3174  0.0759 -0.1587
  191SOL    HW2  536   4.243   5.970   3.554 -0.4129  2.2808 -1.8895
  191SOL    HW3  537   4.114   6.006   3.625  0.2617 -0.0122  0.6966
  191SOL    MW4  538   4.201   6.008   3.620  0.2137  0.3552 -0.2742
  192SOL     OW  539   0.931   5.809   0.558 -0.0139  0.0941 -0.1347
  192SOL    HW2  540   0.964   5.827   0.470  2.2672  3.4668  1.1682
  192SOL    HW3  541   0.863   5.875   0.572 -1.1047 -1.0867  0.3411
  192SOL    MW4  542   0.926   5.820   0.548  0.1431  0.3833  0.1000
  193SOL     OW  543   3.692   3.869   5.965 -0.0977 -0.6274  0.6256
  193SOL    HW2  544   3.722   3.793   6.013  0.5363 -0.3906  0.6100
  193SOL    HW3  545   3.676   3.837   5.876  0.5082 -0.6676  0.5309
  193SOL    MW4  546   3.694   3.855   5.959  0.0659 -0.6015  0.6111
  194SOL     OW  547   1.946   2.962   5.448 -0.0477 -0.3887 -0.2583
  194SOL    HW2  548   1.971   2.920   5.531 -0.1625 -1.6859 -0.8662
  194SOL    HW3  549   2.026   3.007   5.421  0.3569 -0.9442 -0.0290
  194SOL    MW4  550   1.960   2.962   5.456 -0.0095 -0.6331 -0.3083
  195SOL     OW  551   2.047   3.775   2.180 -0.3872 -0.2274  0.1631
  195SOL    HW2  552   2.140   3.757   2.194 -0.1299  0.5554 -0.4897
  195SOL    HW3  553   2.005   3.689   2.190  0.3073 -0.4625  1.1755
  195SOL    MW4  554   2.054   3.761   2.183 -0.2616 -0.1552  0.2106
  196SOL     OW  555   4.190   6.037   2.111  0.1051 -0.1881  0.1853
  196SOL    HW2  556   4.216   6.114   2.061 -1.1833 -0.1090 -0.4170
  196SOL    HW3  557   4.095   6.047   2.123  0.0115 -1.3840  0.6183
  196SOL    MW4  558   4.181   6.049   2.106 -0.0772 -0.3354  0.1629
  197SOL     OW  559   2.515   1.139   0.411 -0.0404  0.2976  0.5524
  197SOL    HW2  560   2.538   1.169   0.323 -2.6944  1.0753  0.0559
  197SOL    HW3  561   2.466   1.211   0.449  0.8243 -0.1398  2.6032
  197SOL    MW4  562   2.512   1.152   0.404 -0.2765  0.3425  0.7575
  198SOL     OW  563   3.360   4.305   5.819 -0.0466  0.2942  0.2553
  198SOL    HW2  564   3.447   4.286   5.784  0.0067 -3.3997  1.9099
  198SOL    HW3  565   3.303   4.308   5.742  1.3108  1.3693 -0.7421
  198SOL    MW4  566   3.364   4.303   5.805  0.1395 -0.0513  0.3420
  199SOL     OW  567   5.621   5.941   0.032 -0.3922 -0.0295 -0.3641
  199SOL    HW2  568   5.635   6.034   0.013 -2.3139  0.2280 -0.6805
  199SOL    HW3  569   5.563   5.941   0.107  1.2160 -1.0300  0.9397
  199SOL    MW4  570   5.615   5.953   0.039 -0.4336 -0.1275 -0.2338
  200SOL     OW  571   3.923   4.982   4.232  0.3907 -0.1225 -0.0249
  200SOL    HW2  572   3.846   4.964   4.178  0.1210  0.5101  0.1373
  200SOL    HW3  573   3.996   4.941   4.185  0.0156 -0.3903 -0.3777
  200SOL    MW4  574   3.923   4.974   4.219  0.3056 -0.0743 -0.0500
  201SOL     OW  575   1.682   2.668   3.575 -0.5622  0.2172  0.8385
  201SOL    HW2  576   1.700   2.755   3.608 -2.6761  0.3084  1.9362
  201SOL    HW3  577   1.610   2.636   3.630 -2.6177 -0.5903 -2.0766
  201SOL    MW4  578   1.675   2.675   3.587 -1.1123  0.1227  0.5987
  202SOL     OW  579   2.605   1.583   4.817  0.0817 -0.7722  0.9095
  202SOL    HW2  580   2.634   1.493   4.828  0.3995 -0.7470  0.3100
  202SOL    HW3  581   2.526   1.577   4.764  1.1638 -0.5928 -0.8155
  202SOL    MW4  582   2.598   1.571   4.812  0.2664 -0.7452  0.6028
  203SOL     OW  583   4.482   1.351   1.904  0.2959  0.3099 -0.0925
  203SOL    HW2  584   4.403   1.300   1.888  0.1555  0.7886 -0.9770
  203SOL    HW3  585   4.453   1.423   1.961  0.1532  0.3160 -0.1722
  203SOL    MW4  586   4.468   1.354   1.910  0.2585  0.3738 -0.2197
  204SOL     OW  587   3.661   5.979   2.605  0.1620 -0.0550 -0.3292
  204SOL    HW2  588   3.572   5.989   2.640 -0.3077  2.1613 -1.9646
  204SOL    HW3  589   3.717   5.974   2.683 -1.0846  2.0872  0.8062
  204SOL    MW4  590   3.657   5.980   2.620 -0.0644  0.5201 -0.3951
  205SOL     OW  591   0.254   5.446   3.348  0.7383 -0.1745  0.2085
  205SOL    HW2  592   0.199   5.524   3.351 -2.0593 -1.5417 -4.4309
  205SOL    HW3  593   0.216   5.387   3.413  1.0383  1.1530  1.6673
  205SOL    MW4  594   0.242   5.449   3.357  0.4088 -0.1797 -0.2112
  206SOL     OW  595   2.822   4.480   1.886 -0.1042 -0.1207  0.1267
  206SOL    HW2  596   2.729   4.501   1.875 -0.0693 -0.1868 -0.3013
  206SOL    HW3  597   2.868   4.539   1.827  0.1142 -0.2216  0.1926
  206SOL    MW4  598   2.816   4.491   1.877 -0.0708 -0.1427  0.0789
  207SOL     OW  599   3.437   0.823   2.998 -0.1131  0.2320 -0.0042
  207SOL    HW2  600   3.380   0.760   2.953  1.8219 -0.5273 -1.5170
  207SOL    HW3  601   3.520   0.817   2.952  0.9172  2.0315  1.5049
  207SOL    MW4  602   3.440   0.814   2.986  0.2781  0.3692 -0.0047
  208SOL     OW  603   3.033   0.348   1.815 -0.3313 -0.2684  0.2912
  208SOL    HW2  604   3.113   0.303   1.844 -0.5163 -0.7670  0.0412
  208SOL    HW3  605   3.051   0.440   1.830 -0.0823 -0.4497  1.1746
  208SOL    MW4  606   3.046   0.354   1.821 -0.3229 -0.3581  0.3748
  209SOL     OW  607   3.939   2.392   0.338  0.3940  0.0782  0.1180
  209SOL    HW2  608   3.893   2.331   0.395  0.6054 -1.2625 -1.1009
  209SOL    HW3  609   3.995   2.443   0.398 -0.6957 -0.0551  1.2902
  209SOL    MW4  610   3.941   2.391   0.354  0.2781 -0.1163  0.1118
  210SOL     OW  611   4.217   1.894   4.902 -0.0125  0.2031 -0.0986
  210SOL    HW2  612   4.228   1.989   4.907 -0.7368  0.3209 -0.5801
  210SOL    HW3  613   4.127   1.879   4.933 -0.3725 -0.1838 -1.2937
  210SOL    MW4  614   4.206   1.904   4.907 -0.1555  0.1676 -0.3198
  211SOL     OW  615   6.014   2.526   0.856  0.1859  0.6456 -0.7474
  211SOL    HW2  616   6.093   2.506   0.906 -0.4054  2.1156  0.8856
  211SOL    HW3  617   6.020   2.471   0.778  1.4633 -1.2795  0.6254
  211SOL    MW4  618   6.025   2.516   0.852  0.2765  0.5856 -0.3508
  212SOL     OW  619   4.951   4.232   6.132  1.2355 -0.0729  0.0194
  212SOL    HW2  620   5.040   4.267   6.137  0.7132  1.4116 -0.4491
  212SOL    HW3  621   4.899   4.293   6.184  0.3048 -0.2426 -0.6955
  212SOL    MW4  622   4.956   4.245   6.139  1.0438  0.1006 -0.1367
  213SOL     OW  623   5.121   6.101   4.013  0.0872 -0.0235 -0.1658
  213SOL    HW2  624   5.152   6.012   3.991 -0.2878 -0.2253  0.1197
  213SOL    HW3  625   5.201   6.151   4.027  0.2948 -0.5468  0.5781
  213SOL    MW4  626   5.136   6.096   4.012  0.0651 -0.1192 -0.0300
  214SOL     OW  627   2.191   2.469   0.503  0.3840 -0.1113 -0.1963
  214SOL    HW2  628   2.220   2.532   0.568  0.5122 -1.1356  0.7768
  214SOL    HW3  629   2.237   2.388   0.526  0.6658 -0.4230 -1.7500
  214SOL    MW4  630   2.201   2.467   0.514  0.4381 -0.2875 -0.2729
  215SOL     OW  631   3.894   0.525   1.344 -0.4433  0.0915  0.6275
  215SOL    HW2  632   3.815   0.543   1.396 -0.6394  1.1313  0.0056
  215SOL    HW3  633   3.928   0.611   1.321  0.6534 -0.3487  0.5370
  215SOL    MW4  634   3.888   0.539   1.348 -0.3245  0.1706  0.5335
  216SOL     OW  635   5.253   5.323   3.022  0.0809  0.3712  0.5986
  216SOL    HW2  636   5.295   5.244   3.057 -2.3352 -1.1015  0.3711
  216SOL    HW3  637   5.236   5.377   3.099  0.2761 -0.0690  0.9563
  216SOL    MW4  638   5.256   5.319   3.037 -0.2121  0.1188  0.6158
  217SOL     OW  639   1.282   3.017   1.397 -0.5102 -0.7732 -0.5019
  217SOL    HW2  640   1.343   2.979   1.333  0.3422 -2.3413  1.1443
  217SOL    HW3  641   1.235   2.941   1.432 -0.4634 -0.0500  1.1998
  217SOL    MW4  642   1.284   3.002   1.393 -0.3915 -0.8847 -0.0602
  218SOL     OW  643   6.249   0.050   0.103 -0.2878 -0.9181 -0.6410
  218SOL    HW2  644   6.293   0.128   0.137  0.7191 -1.0265 -1.6280
  218SOL    HW3  645   6.301   0.024   0.027 -0.5145 -2.6493 -0.2520
  218SOL    MW4  646   6.262   0.057   0.098 -0.1849 -1.1608 -0.7199
  219SOL     OW  647   2.689   1.610   1.328 -0.0958  0.1083  0.4353
  219SOL    HW2  648   2.748   1.590   1.400 -0.4646  1.2291  1.0840
  219SOL    HW3  649   2.700   1.704   1.314  0.9302 -0.2790 -1.8670
  219SOL    MW4  650   2.698   1.620   1.335 -0.0091  0.2051  0.2171
  220SOL     OW  651   1.549   5.958   1.394 -0.2809 -0.1659  0.1425
  220SOL    HW2  652   1.573   6.015   1.320  0.1294 -0.0994  0.3254
  220SOL    HW3  653   1.628   5.907   1.412  0.0100  0.6586  1.3059
  220SOL    MW4  654   1.562   5.959   1.386 -0.1884 -0.0483  0.3201
  221SOL     OW  655   4.212   1.450   4.796 -0.1703  0.6775  0.0521
  221SOL    HW2  656   4.231   1.539   4.768 -1.4315  1.9855  2.8902
  221SOL    HW3  657   4.244   1.446   4.886 -1.8782 -1.0778  0.6499
  221SOL    MW4  658   4.219   1.461   4.804 -0.5620  0.6184  0.5054
  222SOL     OW  659   2.385   1.935   2.556 -0.2110  0.2552 -0.7268
  222SOL    HW2  660   2.379   1.984   2.638  0.0827  1.8655 -1.6291
  222SOL    HW3  661   2.419   1.849   2.581 -0.8869  0.4389  0.9240
  222SOL    MW4  662   2.389   1.930   2.570 -0.2614  0.4919 -0.6281
  223SOL     OW  663   6.152   3.692   3.746  0.2302 -0.3175 -0.3429
  223SOL    HW2  664   6.077   3.632   3.741  1.2664 -1.6836 -0.2197
  223SOL    HW3  665   6.180   3.687   3.837  1.9412 -1.7669 -0.8867
  223SOL    MW4  666   6.146   3.683   3.758  0.5927 -0.6890 -0.3984
  224SOL     OW  667   2.533   2.692   4.775  0.3753  0.4945  0.2419
  224SOL    HW2  668   2.577   2.699   4.691  0.7882 -0.3031  0.3836
  224SOL    HW3  669   2.466   2.625   4.763  0.7453  0.0398  0.6752
  224SOL    MW4  670   2.530   2.684   4.763  0.4786  0.3293  0.3178
  225SOL     OW  671   0.886   2.142   6.354  0.6046 -1.1741  0.0254
  225SOL    HW2  672   0.843   2.096   6.426 -0.9484 -0.3066 -0.3238
  225SOL    HW3  673   0.910   2.227   6.391 -1.4259 -0.1860 -0.8002
  225SOL    MW4  674   0.884   2.147   6.368  0.1318 -0.9293 -0.1296
  226SOL     OW  675   3.946   1.930   4.943  0.4350  0.3270 -0.2909
  226SOL    HW2  676   3.931   1.933   4.849  1.3678  0.7218 -0.4379
  226SOL    HW3  677   3.912   2.013   4.976 -0.4588 -0.0725 -0.1824
  226SOL    MW4  678   3.939   1.941   4.935  0.4401  0.3263 -0.2960
  227SOL     OW  679   6.102   2.566   1.395  0.0990 -0.0946 -0.1185
  227SOL    HW2  680   6.036   2.592   1.458  0.4803 -0.2418  0.3495
  227SOL    HW3  681   6.091   2.471   1.386 -1.7883  0.2417 -2.3856
  227SOL    MW4  682   6.092   2.557   1.402 -0.0997 -0.0696 -0.3559
  228SOL     OW  683   5.326   5.001   1.656  0.1022  0.4354  0.2323
  228SOL    HW2  684   5.405   4.976   1.704  0.2046  0.4325  0.0658
  228SOL    HW3  685   5.258   4.944   1.691  0.1819  0.4155  0.3551
  228SOL    MW4  686   5.328   4.990   1.667  0.1262  0.4324  0.2265
  229SOL     OW  687   0.564   2.131   2.124 -0.0509  0.0250  0.4845
  229SOL    HW2  688   0.610   2.162   2.203 -0.8135 -0.0655  0.9780
  229SOL    HW3  689   0.610   2.052   2.099  1.6410  1.2637 -0.5157
  229SOL    MW4  690   0.576   2.125   2.131  0.0717  0.1765  0.4176
  230SOL     OW  691   0.889   2.122   1.932  0.7006 -0.4018 -0.1328
  230SOL    HW2  692   0.879   2.197   1.991 -1.2042  0.8396 -1.9166
  230SOL    HW3  693   0.940   2.059   1.983 -1.1068  0.4248  2.9836
  230SOL    MW4  694   0.895   2.124   1.947  0.2108 -0.1289  0.0431
  231SOL     OW  695   3.746   5.267   4.633  0.9838  0.4800 -0.0883
  231SOL    HW2  696   3.711   5.346   4.592  1.1782 -0.3968 -2.0659
  231SOL    HW3  697   3.817   5.240   4.575  0.2871 -1.6924  0.0024
  231SOL    MW4  698   3.751   5.274   4.620  0.9175  0.0777 -0.3373
  232SOL     OW  699   4.494   2.224   3.761  0.4843  0.0719 -0.3157
  232SOL    HW2  700   4.526   2.156   3.821 -1.5138 -0.4204  0.2653
  232SOL    HW3  701   4.437   2.278   3.816  0.7068  1.2163 -1.1867
  232SOL    MW4  702   4.491   2.222   3.776  0.2501  0.1580 -0.3539
  233SOL     OW  703   1.489   1.059   3.984 -0.4132  0.2948  0.2209
  233SOL    HW2  704   1.528   1.060   4.072  0.4978 -0.4247 -0.1540
  233SOL    HW3  705   1.411   1.005   3.993 -0.9592  1.1388  0.8181
  233SOL    MW4  706   1.484   1.052   3.997 -0.3650  0.3112  0.2503
  234SOL     OW  707   4.491   1.745   3.213  0.4252 -0.3555 -0.0421
  234SOL    HW2  708   4.505   1.736   3.307  1.8974 -1.0145 -0.3086
  234SOL    HW3  709   4.484   1.655   3.181 -0.1440 -0.1354 -0.5643
  234SOL    MW4  710   4.492   1.732   3.221  0.5444 -0.4134 -0.1462
  235SOL     OW  711   3.874   1.905   4.116  0.2122  0.5404  0.1968
  235SOL    HW2  712   3.789   1.862   4.108 -0.4064  1.5090  1.1597
  235SOL    HW3  713   3.887   1.949   4.033  0.8179 -1.3693 -0.7777
  235SOL    MW4  714   3.864   1.905   4.104  0.2105  0.4162  0.1953
  236SOL     OW  715   5.163   3.888   1.438  0.2337  0.2168  0.3828
  236SOL    HW2  716   5.132   3.904   1.527  0.2793  1.3916  0.2025
  236SOL    HW3  717   5.089   3.846   1.393 -0.3450  1.0583  0.5419
  236SOL    MW4  718   5.149   3.884   1.443  0.1634  0.4828  0.3800
  237SOL     OW  719   3.013   3.496   0.471 -0.1895 -0.3018  0.1259
  237SOL    HW2  720   3.060   3.413   0.480  0.7905  0.1484 -0.6294
  237SOL    HW3  721   3.073   3.552   0.421  0.0207  1.4991  2.1962
  237SOL    MW4  722   3.027   3.492   0.466 -0.0325 -0.0048  0.2994
  238SOL     OW  723   5.554   1.283   1.985 -0.3465 -0.2109  0.3868
  238SOL    HW2  724   5.597   1.287   1.900  1.1890  2.6736  1.1628
  238SOL    HW3  725   5.611   1.227   2.037 -0.9609 -1.4906 -0.2955
  238SOL    MW4  726   5.568   1.276   1.981 -0.2250  0.0008  0.3992
  239SOL     OW  727   6.415   1.489   0.338  0.2498  0.0097 -0.1749
  239SOL    HW2  728   6.373   1.538   0.267  1.4265 -0.5093 -1.2857
  239SOL    HW3  729   6.382   1.400   0.329  0.6158 -0.1208 -0.2776
  239SOL    MW4  730   6.405   1.484   0.327  0.4533 -0.0760 -0.3350
  240SOL     OW  731   3.948   5.270   5.257  0.1103 -0.0849  0.0862
  240SOL    HW2  732   3.909   5.280   5.170 -0.4903 -0.3571  0.3168
  240SOL    HW3  733   3.875   5.281   5.317  0.6002  0.5292  0.5764
  240SOL    MW4  734   3.933   5.273   5.253  0.0957 -0.0398  0.1813
  241SOL     OW  735   2.242   1.778   1.363 -0.2939  0.2011 -0.2205
  241SOL    HW2  736   2.299   1.710   1.397 -0.4145 -0.4251 -1.2173
  241SOL    HW3  737   2.235   1.842   1.434  1.2954  0.0894  0.0718
  241SOL    MW4  738   2.249   1.778   1.377 -0.1001  0.1038 -0.3134
  242SOL     OW  739   3.817   2.486   2.596 -0.2006 -0.0411 -0.0940
  242SOL    HW2  740   3.847   2.520   2.511 -1.5908 -0.3377 -0.7332
  242SOL    HW3  741   3.758   2.554   2.629  0.0536 -0.0912  0.4765
  242SOL    MW4  742   3.813   2.500   2.589 -0.3505 -0.0869 -0.1031
  243SOL     OW  743   1.551   5.782   2.041  0.1062  0.6317  0.4203
  243SOL    HW2  744   1.507   5.730   2.108 -0.6575  0.1049 -0.4587
  243SOL    HW3  745   1.522   5.872   2.058 -1.0198  0.3458  0.1036
  243SOL    MW4  746   1.541   5.787   2.052 -0.1431  0.5245  0.2625
  244SOL     OW  747   6.145   4.599   4.341 -0.1785 -0.5071 -0.3762
  244SOL    HW2  748   6.155   4.536   4.270  1.3804  0.3031 -0.9190
  244SOL    HW3  749   6.191   4.678   4.311 -1.7209  0.7627  0.4576
  244SOL    MW4  750   6.153   4.601   4.328 -0.1763 -0.2327 -0.3378
  245SOL     OW  751   3.613   0.034   0.466  0.1132  0.2721  0.6070
  245SOL    HW2  752   3.564   0.054   0.546 -2.1571  0.3822 -0.7560
  245SOL    HW3  753   3.636   0.119   0.429  0.3893  0.2238  0.6585
  245SOL    MW4  754   3.610   0.048   0.472 -0.1499  0.2803  0.4340
  246SOL     OW  755   3.272   5.315   2.771 -0.1430 -0.1099 -0.1382
  246SOL    HW2  756   3.356   5.361   2.769 -0.1543 -0.0586  0.3703
  246SOL    HW3  757   3.296   5.223   2.780 -0.1309 -0.1450 -0.5358
  246SOL    MW4  758   3.286   5.309   2.772 -0.1429 -0.1078 -0.1236
  247SOL     OW  759   4.450   4.897   4.255  0.2042  0.0447  0.1763
  247SOL    HW2  760   4.455   4.947   4.173 -0.9288  0.9036  0.5966
  247SOL    HW3  761   4.541   4.878   4.277  0.6822  1.8157 -0.0981
  247SOL    MW4  762   4.462   4.901   4.247  0.1178  0.3917  0.1955
  248SOL     OW  763   1.424   2.891   1.195  0.0383 -0.5050  0.3622
  248SOL    HW2  764   1.516   2.870   1.209 -0.0177 -2.0794 -1.3089
  248SOL    HW3  765   1.425   2.958   1.126 -0.0682  0.0251  0.8626
  248SOL    MW4  766   1.436   2.897   1.188  0.0168 -0.6428  0.2078
  249SOL     OW  767   3.041   5.895   5.081  0.2357  0.5116 -0.7130
  249SOL    HW2  768   3.055   5.960   5.150  0.8880 -1.0285  0.6905
  249SOL    HW3  769   3.038   5.811   5.128  1.3617 -0.6731 -2.6207
  249SOL    MW4  770   3.043   5.892   5.097  0.4703  0.1521 -0.7795
  250SOL     OW  771   6.210   4.963   1.811 -0.1916 -0.0885 -0.1379
  250SOL    HW2  772   6.146   4.955   1.741 -0.2490 -1.1521  0.0265
  250SOL    HW3  773   6.281   4.904   1.786  1.1226  1.6548 -0.7192
  250SOL    MW4  774   6.211   4.954   1.799 -0.0258  0.0012 -0.1929
  251SOL     OW  775   4.029   3.681   2.848 -0.1960 -0.3461  0.3973
  251SOL    HW2  776   3.964   3.676   2.918 -0.6065  2.4782  0.3461
  251SOL    HW3  777   3.992   3.742   2.785  0.5675 -2.1311 -1.9284
  251SOL    MW4  778   4.016   3.688   2.849 -0.1494 -0.2090  0.0837
  252SOL     OW  779   1.884   3.581   3.475  0.1953 -0.2867  0.0619
  252SOL    HW2  780   1.951   3.611   3.413 -1.2165  0.1902 -1.3018
  252SOL    HW3  781   1.884   3.486   3.467 -1.0840 -0.1785 -1.9798
  252SOL    MW4  782   1.893   3.573   3.466 -0.1597 -0.2095 -0.3874
  253SOL     OW  783   1.719   1.898   4.654  0.1681  0.2831 -0.2062
  253SOL    HW2  784   1.666   1.873   4.729 -0.2609  0.6852 -0.3717
  253SOL    HW3  785   1.657   1.906   4.581  0.6892 -0.8914 -0.7992
  253SOL    MW4  786   1.704   1.896   4.654  0.1803  0.1812 -0.3063
  254SOL     OW  787   0.620   3.139   3.486  0.0490  0.0927  0.6099
  254SOL    HW2  788   0.700   3.116   3.440 -0.5122 -0.6450 -0.0328
  254SOL    HW3  789   0.574   3.055   3.496 -1.7695  0.8060 -1.2071
  254SOL    MW4  790   0.624   3.125   3.481 -0.2650  0.0895  0.2854
  255SOL     OW  791   0.517   4.213   1.630  0.2959  0.1484  0.2954
  255SOL    HW2  792   0.472   4.130   1.617 -0.0887  0.4301 -0.2158
  255SOL    HW3  793   0.451   4.270   1.668  0.6318  0.1505  0.8915
  255SOL    MW4  794   0.502   4.210   1.633  0.2894  0.1859  0.3066
  256SOL     OW  795   5.709   3.917   2.024  0.0683  0.0223 -0.2484
  256SOL    HW2  796   5.738   4.007   2.038 -0.8513  0.4109 -0.7599
  256SOL    HW3  797   5.645   3.902   2.094 -0.3738  0.0422 -0.6484
  256SOL    MW4  798   5.704   3.927   2.035 -0.1114  0.0762 -0.3687
  257SOL     OW  799   3.689   6.322   5.385 -0.2427  0.3375 -0.0574
  257SOL    HW2  800   3.684   6.267   5.463 -0.7945  0.9918  0.3768
  257SOL    HW3  801   3.778   6.308   5.351  0.0137  0.0866  0.7073
  257SOL    MW4  802   3.700   6.313   5.390 -0.2816  0.3907  0.1008
  258SOL     OW  803   2.785   0.982   1.798  0.6446  0.0229 -0.2334
  258SOL    HW2  804   2.729   0.990   1.721 -0.8988  0.1240  0.8598
  258SOL    HW3  805   2.843   0.909   1.778 -0.3092 -0.5171 -1.1431
  258SOL    MW4  806   2.785   0.974   1.786  0.3151 -0.0350 -0.2092
  259SOL     OW  807   0.206   5.154   0.902 -0.0610 -0.5299 -0.2657
  259SOL    HW2  808   0.226   5.208   0.825  0.2385 -0.8471 -0.4134
  259SOL    HW3  809   0.229   5.065   0.875 -1.0327 -0.8093 -0.2062
  259SOL    MW4  810   0.212   5.149   0.888 -0.1497 -0.6086 -0.2773
  260SOL     OW  811   5.176   3.796   3.394 -0.2217  0.0336  0.3151
  260SOL    HW2  812   5.209   3.841   3.316 -1.0200  1.6274  0.8420
  260SOL    HW3  813   5.237   3.724   3.408  1.0701  0.8821 -0.6675
  260SOL    MW4  814   5.189   3.793   3.386 -0.1566  0.3559  0.2550
  261SOL     OW  815   1.298   2.268   4.349 -0.4301 -0.8045  0.0278
  261SOL    HW2  816   1.349   2.342   4.381 -1.3338 -0.1492 -0.0018
  261SOL    HW3  817   1.232   2.307   4.292  0.3099 -1.8281 -1.5997
  261SOL    MW4  818   1.296   2.283   4.346 -0.4517 -0.8531 -0.1909
  262SOL     OW  819   5.170   5.737   0.552  0.1478 -0.2116  0.2249
  262SOL    HW2  820   5.232   5.705   0.486  1.8115 -0.7101  1.9476
  262SOL    HW3  821   5.219   5.801   0.602 -1.2255  0.4842  0.7339
  262SOL    MW4  822   5.184   5.741   0.550  0.1861 -0.1856  0.5193
  263SOL     OW  823   4.170   2.759   1.960  0.4449 -0.7574 -0.3405
  263SOL    HW2  824   4.216   2.740   1.878  1.1398  0.5057 -0.2743
  263SOL    HW3  825   4.127   2.843   1.944  2.7742  0.9161  1.3752
  263SOL    MW4  826   4.170   2.768   1.947  0.8439 -0.3700 -0.1054
  264SOL     OW  827   3.154   3.954   0.347  0.1275  0.2556 -0.5289
  264SOL    HW2  828   3.152   3.859   0.338 -1.3519  0.1843  0.1636
  264SOL    HW3  829   3.166   3.969   0.440 -1.6591  0.6735 -0.3151
  264SOL    MW4  830   3.155   3.944   0.358 -0.3034  0.3013 -0.4093
  265SOL     OW  831   1.832   0.573   0.988  0.0307  0.1660  0.9078
  265SOL    HW2  832   1.805   0.524   1.066 -0.5153  1.1821  1.3662
  265SOL    HW3  833   1.758   0.565   0.928 -0.3608  1.0487  1.2728
  265SOL    MW4  834   1.819   0.565   0.990 -0.0930  0.4165  1.0165
  266SOL     OW  835   0.832   5.962   2.047  0.0824 -0.2184  0.2937
  266SOL    HW2  836   0.923   5.985   2.066 -0.8379  1.4604  3.4179
  266SOL    HW3  837   0.783   5.996   2.122 -3.3557  0.5037 -2.0502
  266SOL    MW4  838   0.838   5.970   2.059 -0.4926  0.0984  0.3967
  267SOL     OW  839   1.947   0.469   2.691  0.2472  0.1490  0.1604
  267SOL    HW2  840   1.948   0.560   2.662  2.6519  0.0969 -0.1488
  267SOL    HW3  841   1.881   0.427   2.636  0.7739  1.2356 -1.3614
  267SOL    MW4  842   1.938   0.475   2.680  0.6340  0.2855 -0.0812
  268SOL     OW  843   4.962   5.399   4.013  0.4248 -0.2769 -0.4776
  268SOL    HW2  844   4.959   5.398   3.918  0.7717  0.4396 -0.4947
  268SOL    HW3  845   5.051   5.424   4.035  0.9935 -2.5121  0.0522
  268SOL    MW4  846   4.973   5.402   4.003  0.5456 -0.4773 -0.4100
  269SOL     OW  847   5.966   0.137   1.058 -0.1259 -0.2619  0.1800
  269SOL    HW2  848   6.035   0.080   1.023  1.9126  1.8371  0.5166
  269SOL    HW3  849   5.984   0.223   1.019 -2.5707  0.4161  0.3358
  269SOL    MW4  850   5.977   0.141   1.048 -0.1795  0.1045  0.2450
  270SOL     OW  851   3.744   2.244   1.883  0.0770  0.1964  0.0467
  270SOL    HW2  852   3.794   2.321   1.855  0.0785  0.3008  0.3346
  270SOL    HW3  853   3.731   2.194   1.803 -0.9500  1.0714 -0.3645
  270SOL    MW4  854   3.749   2.248   1.869 -0.0583  0.3256  0.0304
  271SOL     OW  855   0.058   2.515   6.023 -0.5957 -0.0184  0.0686
  271SOL    HW2  856   0.010   2.597   6.012 -2.3011 -0.6503  2.0660
  271SOL    HW3  857   0.142   2.541   6.061 -0.1393  0.9394 -1.4954
  271SOL    MW4  858   0.063   2.530   6.026 -0.7605  0.0246  0.1258
  272SOL     OW  859   0.523   4.092   2.144  0.1594  0.0993  0.3812
  272SOL    HW2  860   0.592   4.109   2.080  1.8418 -0.7596  1.8585
  272SOL    HW3  861   0.464   4.030   2.101  1.1498 -0.3300 -0.3980
  272SOL    MW4  862   0.525   4.086   2.130  0.5120 -0.0706  0.4733
  273SOL     OW  863   0.129   3.790   3.487  0.2051 -0.3499  0.1824
  273SOL    HW2  864   0.149   3.808   3.395 -0.8656  1.7637  0.2987
  273SOL    HW3  865   0.035   3.768   3.487 -0.1476  1.0858  0.9069
  273SOL    MW4  866   0.119   3.789   3.474  0.0173  0.1184  0.2933
  274SOL     OW  867   2.215   1.325   3.891 -0.2677 -0.4990  0.0284
  274SOL    HW2  868   2.281   1.264   3.923 -0.5610 -0.1860  1.2689
  274SOL    HW3  869   2.242   1.411   3.923 -0.0102  0.0210 -1.4698
  274SOL    MW4  870   2.227   1.328   3.899 -0.2724 -0.3891 -0.0056
  275SOL     OW  871   1.239   2.573   4.613  0.3427  0.3045  0.2237
  275SOL    HW2  872   1.205   2.492   4.575 -1.4227  0.5998  1.0441
  275SOL    HW3  873   1.224   2.639   4.545 -0.3150  0.3369  0.3906
  275SOL    MW4  874   1.232   2.571   4.599  0.0230  0.3477  0.3539
  276SOL     OW  875   6.244   3.867   2.786 -0.1339  0.0472 -0.6607
  276SOL    HW2  876   6.278   3.780   2.768  0.2061  0.1269 -0.4119
  276SOL    HW3  877   6.149   3.854   2.796  0.1543 -0.7380  1.8490
  276SOL    MW4  878   6.236   3.854   2.785 -0.0510 -0.0459 -0.2968
  277SOL     OW  879   1.019   1.137   2.429  0.8724 -0.2810  0.6016
  277SOL    HW2  880   1.069   1.205   2.384 -0.7632  0.5724 -0.0100
  277SOL    HW3  881   1.049   1.141   2.520  1.6248  0.4761  0.3299
  277SOL    MW4  882   1.029   1.147   2.435  0.7559 -0.0685  0.4850
  278SOL     OW  883   1.178   6.294   3.218  0.2035 -0.5611  0.0778
  278SOL    HW2  884   1.118   6.367   3.229  0.6163 -0.0422 -0.9578
  278SOL    HW3  885   1.260   6.324   3.259  0.5878 -0.1425 -0.9691
  278SOL    MW4  886   1.181   6.308   3.225  0.3087 -0.4374 -0.1970
  279SOL     OW  887   3.638   1.585   0.587  0.0326  0.2105 -0.0422
  279SOL    HW2  888   3.712   1.588   0.647  0.3144 -0.7848 -0.3224
  279SOL    HW3  889   3.606   1.495   0.593 -2.6256  1.1646  1.7888
  279SOL    MW4  890   3.644   1.574   0.596 -0.2809  0.2051  0.1624
  280SOL     OW  891   0.848   5.715   2.561 -0.6383 -0.1936 -0.4096
  280SOL    HW2  892   0.908   5.727   2.636 -1.8337 -2.8288  1.1129
  280SOL    HW3  893   0.904   5.682   2.491 -0.1443 -2.1386  0.8314
  280SOL    MW4  894   0.864   5.713   2.562 -0.7308 -0.7979 -0.0450
  281SOL     OW  895   4.210   0.129   2.442  0.7503 -0.1730  0.0614
  281SOL    HW2  896   4.117   0.110   2.434  0.5174  0.5976  0.8606
  281SOL    HW3  897   4.249   0.092   2.362 -0.3161  0.0343 -0.5646
  281SOL    MW4  898   4.203   0.122   2.430  0.5788 -0.0439  0.0843
  282SOL     OW  899   1.759   5.969   1.710 -0.4111 -0.7651 -0.3756
  282SOL    HW2  900   1.775   5.940   1.620  1.4418 -0.9046 -0.0550
  282SOL    HW3  901   1.729   5.891   1.756  2.3263 -1.7528 -0.0539
  282SOL    MW4  902   1.757   5.955   1.704  0.1945 -0.9138 -0.2909
  283SOL     OW  903   2.414   4.204   3.617  0.1513 -0.8792 -0.2167
  283SOL    HW2  904   2.331   4.229   3.575 -0.8958 -2.6367  0.7063
  283SOL    HW3  905   2.457   4.287   3.637 -2.1745  0.1609  0.7993
  283SOL    MW4  906   2.409   4.218   3.614 -0.2938 -0.9738  0.0392
  284SOL     OW  907   4.484   0.635   5.739  0.1868 -0.4641 -0.1296
  284SOL    HW2  908   4.533   0.595   5.811 -1.9942 -0.8195  1.2686
  284SOL    HW3  909   4.447   0.714   5.778  0.0071  0.0190 -1.2607
  284SOL    MW4  910   4.485   0.640   5.754 -0.1246 -0.4472 -0.0944
  285SOL     OW  911   0.747   3.509   1.443  0.0022  0.0441 -0.0771
  285SOL    HW2  912   0.841   3.508   1.427 -0.0679  0.8550 -0.6304
  285SOL    HW3  913   0.708   3.479   1.361 -0.2205 -0.6622  0.2759
  285SOL    MW4  914   0.754   3.505   1.430 -0.0364  0.0579 -0.1036
  286SOL     OW  915   6.009   0.010   3.126  0.2294 -0.6097 -0.1201
  286SOL    HW2  916   5.946   0.072   3.090 -0.1884 -1.1721 -0.3643
  286SOL    HW3  917   5.967  -0.026   3.204  1.0767  0.5045  0.8945
  286SOL    MW4  918   5.995   0.014   3.131  0.2861 -0.5369 -0.0184
  287SOL     OW  919   4.165   3.716   2.043 -0.1182 -0.3539  0.3238
  287SOL    HW2  920   4.181   3.777   1.971 -0.0213 -1.7333 -0.8765
  287SOL    HW3  921   4.249   3.710   2.089 -0.2310  0.6792  0.6771
  287SOL    MW4  922   4.178   3.723   2.039 -0.1203 -0.3996  0.2121
  288SOL     OW  923   6.353   2.483   3.285  0.0294 -0.2944  0.0662
  288SOL    HW2  924   6.305   2.493   3.368  1.1237 -0.1260  0.7087
  288SOL    HW3  925   6.377   2.573   3.261 -0.9638 -0.2607 -0.8767
  288SOL    MW4  926   6.350   2.496   3.293  0.0428 -0.2677  0.0266
  289SOL     OW  927   3.129   3.995   4.135 -0.2300 -0.8043 -0.6273
  289SOL    HW2  928   3.037   3.998   4.163 -0.0438 -1.4441  0.0926
  289SOL    HW3  929   3.126   3.958   4.047 -0.5288 -2.5752  0.0989
  289SOL    MW4  930   3.116   3.991   4.127 -0.2449 -1.1224 -0.4365
  290SOL     OW  931   2.120   4.158   3.834  0.3936 -0.2003 -0.0199
  290SOL    HW2  932   2.045   4.204   3.797  0.4271 -0.3773 -0.3098
  290SOL    HW3  933   2.137   4.087   3.773  1.4803  0.4825 -0.5351
  290SOL    MW4  934   2.112   4.155   3.821  0.5414 -0.1336 -0.1261
  291SOL     OW  935   5.966   6.007   0.317  0.2023  0.7868  0.0033
  291SOL    HW2  936   5.994   6.067   0.386 -1.6345  1.8711 -0.1533
  291SOL    HW3  937   6.019   5.928   0.332 -0.3118  0.8557  2.8266
  291SOL    MW4  938   5.977   6.005   0.328 -0.1079  0.9390  0.3551
  292SOL     OW  939   1.145   2.330   5.000  0.3848  0.4468  0.6438
  292SOL    HW2  940   1.083   2.322   5.073  0.2691  0.1944  0.5204
  292SOL    HW3  941   1.139   2.246   4.955  1.0544  0.3024  0.8128
  292SOL    MW4  942   1.136   2.318   5.004  0.4579  0.3945  0.6498
  293SOL     OW  943   0.311   4.447   5.907 -0.5403  0.4119 -0.0438
  293SOL    HW2  944   0.220   4.460   5.934  0.1646  2.1226  1.7871
  293SOL    HW3  945   0.323   4.508   5.833 -0.9022  0.0804 -0.3807
  293SOL    MW4  946   0.300   4.457   5.901 -0.4950  0.5939  0.1533
  294SOL     OW  947   4.820   1.250   0.072 -0.1600 -0.3394 -0.3381
  294SOL    HW2  948   4.788   1.310   0.005 -1.5711 -1.1594 -0.4211
  294SOL    HW3  949   4.749   1.244   0.135  0.2071 -1.4685 -0.0173
  294SOL    MW4  950   4.807   1.257   0.072 -0.2978 -0.5966 -0.3067
  295SOL     OW  951   3.956   2.195   5.684  0.2433  0.0972  0.2546
  295SOL    HW2  952   3.870   2.213   5.646 -0.2145 -0.5676  0.9443
  295SOL    HW3  953   3.955   2.101   5.703  0.9685  0.1579  0.6366
  295SOL    MW4  954   3.944   2.185   5.682  0.2786  0.0175  0.3960
  296SOL     OW  955   0.881   4.259   0.931 -0.4979 -0.0555 -0.1414
  296SOL    HW2  956   0.929   4.248   0.849  1.6355 -0.6550  1.1133
  296SOL    HW3  957   0.892   4.176   0.977 -2.4268 -0.0555  0.4052
  296SOL    MW4  958   0.889   4.246   0.927 -0.4709 -0.1346  0.0963
  297SOL     OW  959   4.800   3.283   4.771 -0.4426 -0.3731 -0.0932
  297SOL    HW2  960   4.711   3.271   4.739 -0.8376 -0.4114  0.9847
  297SOL    HW3  961   4.825   3.197   4.805  0.2370 -0.5188 -0.9328
  297SOL    MW4  962   4.792   3.270   4.771 -0.4050 -0.3974 -0.0618
  298SOL     OW  963   5.618   3.817   1.766  0.6737  0.1514 -0.1173
  298SOL    HW2  964   5.689   3.859   1.815  0.8989  1.4090 -1.4689
  298SOL    HW3  965   5.542   3.873   1.782 -0.1069 -1.2399  1.4030
  298SOL    MW4  966   5.618   3.830   1.775  0.6004  0.1338 -0.0950
  299SOL     OW  967   5.456   1.436   2.533 -0.2098 -0.6231  0.6337
  299SOL    HW2  968   5.369   1.397   2.530 -0.4743 -0.0378  0.7643
  299SOL    HW3  969   5.508   1.382   2.473 -0.2733 -1.9070  1.6912
  299SOL    MW4  970   5.452   1.423   2.524 -0.2531 -0.7153  0.7905
  300SOL     OW  971   3.569   1.761   5.988 -0.5061  0.5873 -0.7063
  300SOL    HW2  972   3.572   1.693   6.054  0.4927 -0.2349 -1.5652
  300SOL    HW3  973   3.563   1.714   5.905 -0.2492  1.5525 -1.2937
  300SOL    MW4  974   3.568   1.746   5.986 -0.3404  0.6062 -0.8971
  301SOL     OW  975   4.886   2.082   3.698 -0.2676 -0.0310  0.5641
  301SOL    HW2  976   4.836   2.152   3.656  0.6213  0.7011  0.6985
  301SOL    HW3  977   4.977   2.101   3.676  0.0681 -0.5783  1.4375
  301SOL    MW4  978   4.891   2.094   3.690 -0.1060 -0.0066  0.6970
  302SOL     OW  979   0.837   2.792   6.065 -0.2306 -0.4983 -0.0977
  302SOL    HW2  980   0.773   2.837   6.121 -0.0277 -0.6682  0.2702
  302SOL    HW3  981   0.791   2.714   6.034 -0.5696 -0.0701 -0.7047
  302SOL    MW4  982   0.822   2.788   6.068 -0.2486 -0.4642 -0.1293
  303SOL     OW  983   6.040   5.743   0.983 -0.7677  0.3001 -0.3176
  303SOL    HW2  984   6.110   5.699   0.935 -0.4527  1.3122 -0.8058
  303SOL    HW3  985   6.025   5.688   1.060 -0.7438 -0.9380 -1.1691
  303SOL    MW4  986   6.047   5.730   0.987 -0.7230  0.2703 -0.4943
  304SOL     OW  987   0.580   0.307   0.578 -0.4976  0.5902  0.3233
  304SOL    HW2  988   0.642   0.299   0.651  0.3008  1.6573 -0.2019
  304SOL    HW3  989   0.608   0.386   0.532 -0.1684 -0.7580 -1.9072
  304SOL    MW4  990   0.592   0.316   0.582 -0.3489  0.5531 -0.0403
  305SOL     OW  991   0.946   0.134   0.548 -0.2280 -0.4325  0.0771
  305SOL    HW2  992   0.914   0.191   0.478 -0.1921 -2.3932 -1.6187
  305SOL    HW3  993   0.898   0.162   0.626 -2.9669 -0.4912 -1.4768
  305SOL    MW4  994   0.936   0.145   0.549 -0.5846 -0.6989 -0.3516
  306SOL     OW  995   0.152   3.736   2.256 -0.5107  0.4404 -0.0347
  306SOL    HW2  996   0.225   3.771   2.204 -0.7708 -0.2749 -0.9121
  306SOL    HW3  997   0.193   3.671   2.313 -0.4371  0.1218 -0.4458
  306SOL    MW4  998   0.167   3.732   2.256 -0.5353  0.3040 -0.2047
  307SOL     OW  999   4.405   4.941   1.743 -0.5354 -0.3926  0.1439
  307SOL    HW2 1000   4.407   4.914   1.652  2.0216 -0.6908  0.2234
  307SOL    HW3 1001   4.374   5.032   1.741 -0.6689 -0.4570 -0.9920
  307SOL    MW4 1002   4.401   4.950   1.731 -0.2156 -0.4404  0.0045
  308SOL     OW 1003   3.962   1.881   1.290 -0.5052 -0.2009 -0.5787
  308SOL    HW2 1004   3.985   1.866   1.198 -0.0212 -0.5624 -0.4036
  308SOL    HW3 1005   4.009   1.962   1.313  1.2292 -1.2966 -0.0289
  308SOL    MW4 1006   3.972   1.890   1.281 -0.2125 -0.3932 -0.4830
  309SOL     OW 1007   5.023   0.818   1.300  0.1978  0.1479  0.0421
  309SOL    HW2 1008   5.099   0.846   1.351  0.1391 -0.9609  0.7654
  309SOL    HW3 1009   5.033   0.724   1.292 -1.1017 -0.0125  0.1315
  309SOL    MW4 1010   5.035   0.810   1.305  0.0186 -0.0196  0.1494
  310SOL     OW 1011   2.409   1.085   2.043  0.3601  0.5009  0.5063
  310SOL    HW2 1012   2.498   1.090   2.010  0.6916 -1.5896  0.9549
  310SOL    HW3 1013   2.360   1.041   1.973  0.1134 -0.0336  1.0074
  310SOL    MW4 1014   2.414   1.080   2.029  0.3713  0.1545  0.6316
  311SOL     OW 1015   2.065   1.823   5.251 -0.0328  0.0631  0.0495
  311SOL    HW2 1016   2.092   1.900   5.301 -0.0647 -0.9961  1.7744
  311SOL    HW3 1017   2.142   1.767   5.251 -1.4890 -2.3268  3.7416
  311SOL    MW4 1018   2.079   1.826   5.258 -0.2291 -0.3919  0.7642
  312SOL     OW 1019   2.596   3.735   2.564  0.5156 -0.2225  0.0929
  312SOL    HW2 1020   2.640   3.688   2.634 -0.7765 -0.4907  0.7388
  312SOL    HW3 1021   2.566   3.816   2.605  1.2994  0.4459 -0.6092
  312SOL    MW4 1022   2.598   3.740   2.578  0.4485 -0.1697  0.0855
  313SOL     OW 1023   1.713   2.420   5.940 -0.5564  0.2008 -0.3331
  313SOL    HW2 1024   1.663   2.396   6.018 -1.8874 -1.8125 -1.7091
  313SOL    HW3 1025   1.667   2.496   5.905 -0.0912  0.9691  0.6612
  313SOL    MW4 1026   1.701   2.427   5.946 -0.6707  0.0366 -0.3835
  314SOL     OW 1027   2.364   0.555   1.386 -0.2976  0.1047  0.1584
  314SOL    HW2 1028   2.422   0.629   1.369 -0.2975  0.2640  0.8535
  314SOL    HW3 1029   2.392   0.488   1.324 -0.2837  0.6749 -0.4593
  314SOL    MW4 1030   2.375   0.556   1.375 -0.2958  0.2009  0.1686
  315SOL     OW 1031   2.146   4.067   4.244 -0.0552  0.2220  0.1432
  315SOL    HW2 1032   2.183   4.014   4.315  0.9292 -0.0699 -0.5728
  315SOL    HW3 1033   2.085   4.009   4.199  1.9244 -0.7907 -1.4096
  315SOL    MW4 1034   2.143   4.052   4.248  0.3359  0.0498 -0.1562
  316SOL     OW 1035   0.436   4.987   2.649 -0.1198 -0.3166 -0.4953
  316SOL    HW2 1036   0.432   4.975   2.554 -1.9631  0.5928 -0.5812
  316SOL    HW3 1037   0.427   5.082   2.661  1.4172 -0.2629  0.5750
  316SOL    MW4 1038   0.434   4.998   2.638 -0.1602 -0.1896 -0.3654
  317SOL     OW 1039   3.464   1.348   2.979  0.9153  0.3805 -0.0851
  317SOL    HW2 1040   3.399   1.405   2.937 -0.3347 -1.3694 -0.5952
  317SOL    HW3 1041   3.449   1.360   3.073  2.2799  2.6504 -0.0682
  317SOL    MW4 1042   3.454   1.357   2.986  0.9304  0.4491 -0.1502
  318SOL     OW 1043   1.796   5.777   0.270  0.3899 -0.3141  0.4867
  318SOL    HW2 1044   1.835   5.754   0.186  1.3945  0.3199  0.7653
  318SOL    HW3 1045   1.746   5.699   0.295  2.2789 -1.5612  0.5759
  318SOL    MW4 1046   1.794   5.763   0.262  0.7716 -0.3950  0.5352
  319SOL     OW 1047   1.742   0.037   2.357 -0.3239  0.1939  0.6136
  319SOL    HW2 1048   1.668   0.065   2.302  0.3802 -1.2734 -1.1885
  319SOL    HW3 1049   1.712  -0.043   2.400 -1.3389  2.0018  3.5578
  319SOL    MW4 1050   1.728   0.030   2.355 -0.3649  0.2388  0.7643
  320SOL     OW 1051   4.742   4.753   4.017  0.5659 -0.5794 -0.5927
  320SOL    HW2 1052   4.777   4.745   4.106 -0.2864 -1.6990 -0.3337
  320SOL    HW3 1053   4.767   4.841   3.989  1.7695 -0.6007  0.3505
  320SOL    MW4 1054   4.750   4.764   4.025  0.6122 -0.7299 -0.4341
  321SOL     OW 1055   1.651   6.219   1.718 -0.3288 -0.5268 -0.5635
  321SOL    HW2 1056   1.691   6.132   1.724 -1.0226 -0.9881 -2.0861
  321SOL    HW3 1057   1.703   6.264   1.652 -0.1093  0.1500  0.0623
  321SOL    MW4 1058   1.663   6.213   1.710 -0.3914 -0.4984 -0.6818
  322SOL     OW 1059   4.308   5.478   1.637  0.4786  0.1740  0.2630
  322SOL    HW2 1060   4.236   5.480   1.701 -1.4060 -0.1064 -1.7172
  322SOL    HW3 1061   4.336   5.386   1.635 -1.1758 -0.3584 -1.0145
  322SOL    MW4 1062   4.302   5.466   1.645  0.0117  0.0667 -0.1668
  323SOL     OW 1063   0.417   3.912   1.586 -0.0510  0.1419 -0.3225
  323SOL    HW2 1064   0.435   3.942   1.497  2.5039  1.9349  0.6718
  323SOL    HW3 1065   0.501   3.879   1.618 -0.9843 -0.7935  1.3359
  323SOL    MW4 1066   0.431   3.911   1.579  0.1630  0.2550  0.0275
  324SOL     OW 1067   4.526   1.015   1.831  0.0923  0.4775 -0.3468
  324SOL    HW2 1068   4.601   0.964   1.798  0.7481  1.1952 -0.0043
  324SOL    HW3 1069   4.558   1.054   1.913 -1.4155 -1.0781  1.0773
  324SOL    MW4 1070   4.540   1.014   1.838 -0.0201  0.3670 -0.1138
  325SOL     OW 1071   5.319   1.054   3.295 -0.1745  0.3466 -0.0128
  325SOL    HW2 1072   5.290   1.075   3.206  0.2184  0.5194 -0.0993
  325SOL    HW3 1073   5.288   0.964   3.309 -0.7925  0.5384 -0.0885
  325SOL    MW4 1074   5.311   1.045   3.285 -0.2042  0.3947 -0.0342
  326SOL     OW 1075   5.165   0.651   5.950 -0.5148  0.6009  0.0826
  326SOL    HW2 1076   5.234   0.704   5.990 -1.0093  1.6387 -0.3881
  326SOL    HW3 1077   5.123   0.711   5.887 -1.9333  0.0461  0.4685
  326SOL    MW4 1078   5.169   0.666   5.947 -0.7672  0.6646  0.0714
  327SOL     OW 1079   3.593   5.631   1.449 -0.0227 -0.0032  0.0664
  327SOL    HW2 1080   3.607   5.572   1.523 -1.1863 -1.1588 -0.5971
  327SOL    HW3 1081   3.514   5.681   1.472 -1.6227 -1.8209 -1.2235
  327SOL    MW4 1082   3.584   5.630   1.462 -0.3873 -0.3955 -0.1913
  328SOL     OW 1083   4.981   2.032   4.727 -0.2386 -0.4077  0.0942
  328SOL    HW2 1084   4.984   2.109   4.784 -0.4100  0.4904 -1.0686
  328SOL    HW3 1085   4.895   2.036   4.686  0.3226 -0.3322 -1.1357
  328SOL    MW4 1086   4.970   2.043   4.729 -0.1872 -0.2792 -0.2215
  329SOL     OW 1087   5.181   4.081   3.692 -0.1040 -0.1789 -0.0563
  329SOL    HW2 1088   5.142   4.056   3.608  2.9933  0.4114 -1.8230
  329SOL    HW3 1089   5.106   4.103   3.748 -2.2744  1.2497 -3.2361
  329SOL    MW4 1090   5.166   4.081   3.689  0.0183  0.0875 -0.7089
  330SOL     OW 1091   5.585   3.560   2.042  0.6880 -0.2022  0.0399
  330SOL    HW2 1092   5.644   3.564   2.117 -2.4036  1.0139  2.6882
  330SOL    HW3 1093   5.642   3.562   1.966  4.1321 -2.7027  2.2725
  330SOL    MW4 1094   5.600   3.561   2.042  0.7345 -0.3716  0.6838
  331SOL     OW 1095   3.008   2.577   6.396 -0.8710  0.8589  0.0025
  331SOL    HW2 1096   3.013   2.590   6.302  0.2548  1.5445  0.1334
  331SOL    HW3 1097   3.076   2.512   6.415  1.5635  3.4054  0.7333
  331SOL    MW4 1098   3.018   2.571   6.386 -0.4013  1.2853  0.1162
  332SOL     OW 1099   4.916   0.461   3.423 -0.4586 -0.0243 -0.5092
  332SOL    HW2 1100   4.871   0.429   3.502  1.1760 -1.3906 -0.0755
  332SOL    HW3 1101   5.007   0.436   3.436 -0.2941 -1.1454 -3.2715
  332SOL    MW4 1102   4.922   0.453   3.435 -0.2212 -0.3525 -0.8164
  333SOL     OW 1103   0.037   1.524   1.537  0.0431 -1.0558 -0.6665
  333SOL    HW2 1104   0.062   1.441   1.578  1.5251 -0.2432  0.1834
  333SOL    HW3 1105  -0.006   1.574   1.607  1.0640 -0.3159 -0.5366
  333SOL    MW4 1106   0.035   1.520   1.551  0.3733 -0.8509 -0.5372
  334SOL     OW 1107   3.212   4.566   1.933 -0.1755  0.2137 -0.1959
  334SOL    HW2 1108   3.152   4.529   1.869  0.1943  0.1872 -0.5314
  334SOL    HW3 1109   3.274   4.617   1.881  1.5634 -1.7080 -0.1091
  334SOL    MW4 1110   3.212   4.568   1.918  0.1027 -0.0433 -0.2287
  335SOL     OW 1111   0.744   5.300   6.357 -0.6672 -0.3421 -0.2304
  335SOL    HW2 1112   0.738   5.384   6.402  0.7403  1.3637 -2.9249
  335SOL    HW3 1113   0.660   5.291   6.311 -0.3319  0.2838 -0.9842
  335SOL    MW4 1114   0.732   5.310   6.356 -0.4373 -0.0344 -0.6854
  336SOL     OW 1115   5.310   1.793   4.152 -0.0087 -0.1265 -0.2020
  336SOL    HW2 1116   5.306   1.808   4.246  1.9375  1.3380 -0.2806
  336SOL    HW3 1117   5.222   1.764   4.128 -0.2555 -1.5485  2.1972
  336SOL    MW4 1118   5.298   1.791   4.161  0.2155 -0.1209  0.1042
  337SOL     OW 1119   3.666   3.527   1.219  0.3734 -0.5593 -0.4738
  337SOL    HW2 1120   3.741   3.488   1.175  2.0610  0.5761  1.2051
  337SOL    HW3 1121   3.705   3.577   1.291 -2.0955 -1.0749  1.3408
  337SOL    MW4 1122   3.681   3.529   1.223  0.2703 -0.4775 -0.0129
  338SOL     OW 1123   4.606   4.021   3.441 -0.0650 -0.0492 -0.1432
  338SOL    HW2 1124   4.680   4.080   3.450 -1.4726  1.6461  1.2144
  338SOL    HW3 1125   4.614   3.984   3.353  3.2602 -1.2825  0.5285
  338SOL    MW4 1126   4.617   4.024   3.431  0.1880  0.0118  0.1246
  339SOL     OW 1127   4.130   6.018   4.147  0.2030  0.0106  0.5778
  339SOL    HW2 1128   4.044   6.000   4.184  0.8434 -1.5240  1.3968
  339SOL    HW3 1129   4.118   6.008   4.052 -0.0599 -2.4621  0.8196
  339SOL    MW4 1130   4.117   6.014   4.139  0.2528 -0.5181  0.7178
  340SOL     OW 1131   2.861   1.102   1.330 -0.1216  0.6584  0.0020
  340SOL    HW2 1132   2.911   1.118   1.410 -1.5142 -0.1352  1.0687
  340SOL    HW3 1133   2.923   1.121   1.260  1.1490  1.3575  1.2485
  340SOL    MW4 1134   2.876   1.107   1.332 -0.1377  0.6460  0.3072
  341SOL     OW 1135   2.845   3.979   4.799 -0.7072  0.3569  0.2205
  341SOL    HW2 1136   2.840   3.982   4.703 -2.6942  0.8816  0.2900
  341SOL    HW3 1137   2.755   3.964   4.827 -0.2731  0.8704  2.0391
  341SOL    MW4 1138   2.832   3.977   4.790 -0.9121  0.4939  0.4696
  342SOL     OW 1139   4.104   6.335   5.114 -0.2947  0.1272  0.4429
  342SOL    HW2 1140   4.018   6.292   5.107 -1.0728  1.5380  0.8658
  342SOL    HW3 1141   4.087   6.412   5.169  1.5348 -0.3026  1.7002
  342SOL    MW4 1142   4.090   6.340   5.121 -0.1559  0.2566  0.6646
  343SOL     OW 1143   1.557   3.074   4.092 -0.0718  0.1678 -0.4576
  343SOL    HW2 1144   1.518   3.089   4.005 -0.6911 -2.5503 -0.7485
  343SOL    HW3 1145   1.639   3.027   4.073  0.1450  0.1801  0.4198
  343SOL    MW4 1146   1.563   3.070   4.078 -0.1249 -0.1892 -0.3802
  344SOL     OW 1147   0.118   5.355   0.287  0.0388 -0.1912 -0.1263
  344SOL    HW2 1148   0.036   5.319   0.254  0.0037 -1.5131  1.2560
  344SOL    HW3 1149   0.093   5.413   0.358  0.2463  0.1992 -0.3711
  344SOL    MW4 1150   0.104   5.358   0.292  0.0616 -0.3141  0.0238
  345SOL     OW 1151   2.407   4.824   6.160 -0.1361 -0.1737  0.0767
  345SOL    HW2 1152   2.323   4.851   6.124 -0.6965 -1.9728 -0.0746
  345SOL    HW3 1153   2.469   4.836   6.089 -0.6531 -0.7353 -0.4813
  345SOL    MW4 1154   2.404   4.829   6.146 -0.2783 -0.4852 -0.0169
  346SOL     OW 1155   6.305   1.897   0.440 -0.0851  0.1861 -0.0404
  346SOL    HW2 1156   6.393   1.870   0.468 -0.7207 -0.4064  1.5182
  346SOL    HW3 1157   6.259   1.916   0.522 -1.8170 -0.8111 -0.7260
  346SOL    MW4 1158   6.310   1.896   0.455 -0.3974 -0.0236  0.0748
  347SOL     OW 1159   5.093   0.964   6.098  0.3680  0.4043 -0.0677
  347SOL    HW2 1160   5.077   1.029   6.166  0.0465 -0.8360  1.0784
  347SOL    HW3 1161   5.007   0.926   6.080  0.2263  1.4979 -2.0525
  347SOL    MW4 1162   5.080   0.968   6.104  0.3069  0.3850 -0.1784
  348SOL     OW 1163   0.105   0.394   4.517 -0.0067  0.3443  0.3798
  348SOL    HW2 1164   0.143   0.417   4.432  0.4480  2.7538  1.1687
  348SOL    HW3 1165   0.167   0.331   4.555 -0.6749 -1.4872 -1.3717
  348SOL    MW4 1166   0.118   0.389   4.511 -0.0349  0.4206  0.2528
  349SOL     OW 1167   5.670   0.348   2.296  0.7129 -0.6633  0.0905
  349SOL    HW2 1168   5.761   0.321   2.288  0.8305 -0.1241 -0.5060
  349SOL    HW3 1169   5.663   0.425   2.239  0.4839  0.7713  1.9596
  349SOL    MW4 1170   5.681   0.355   2.287  0.6982 -0.4028  0.2584
  350SOL     OW 1171   5.198   3.156   5.555 -0.0400 -0.3402 -0.2797
  350SOL    HW2 1172   5.179   3.062   5.553  0.2412 -0.3957 -0.6133
  350SOL    HW3 1173   5.287   3.162   5.588  0.0128 -0.2048 -0.4413
  350SOL    MW4 1174   5.207   3.145   5.559  0.0041 -0.3296 -0.3451
  351SOL     OW 1175   5.831   5.844   4.785  0.1344 -0.2559 -0.6469
  351SOL    HW2 1176   5.912   5.797   4.765  1.5567  0.1626  3.1611
  351SOL    HW3 1177   5.857   5.936   4.785 -0.5699 -0.0517 -0.2620
  351SOL    MW4 1178   5.845   5.850   4.782  0.2291 -0.1738 -0.0937
  352SOL     OW 1179   5.369   4.857   2.018  0.1447 -0.9917  0.4645
  352SOL    HW2 1180   5.446   4.912   2.002 -0.5094 -0.3761 -0.6880
  352SOL    HW3 1181   5.398   4.768   2.000  0.2102 -0.6158 -1.5149
  352SOL    MW4 1182   5.383   4.853   2.014  0.0670 -0.8609  0.0513
  353SOL     OW 1183   2.428   1.355   2.349  0.2685  0.4152  0.6636
  353SOL    HW2 1184   2.505   1.388   2.396  1.0949  0.1095 -0.4308
  353SOL    HW3 1185   2.399   1.279   2.400  1.2002  0.0341  0.6490
  353SOL    MW4 1186   2.435   1.349   2.362  0.5004  0.3246  0.5173
  354SOL     OW 1187   3.225   5.578   5.383  0.6459  0.1473 -0.1166
  354SOL    HW2 1188   3.249   5.517   5.313  1.7752 -0.2716  0.6024
  354SOL    HW3 1189   3.284   5.652   5.372  0.5183  0.2864  0.1141
  354SOL    MW4 1190   3.236   5.580   5.373  0.7781  0.1104  0.0087
  355SOL     OW 1191   2.311   1.864   1.116  0.2078  0.4812 -0.0948
  355SOL    HW2 1192   2.270   1.804   1.053 -0.5190  0.0581  0.7604
  355SOL    HW3 1193   2.286   1.829   1.202  1.4637  0.8539  0.4388
  355SOL    MW4 1194   2.302   1.852   1.119  0.2776  0.4745  0.0885
  356SOL     OW 1195   2.805   1.511   0.114  0.0722  0.6372  0.1452
  356SOL    HW2 1196   2.846   1.499   0.199 -2.8677  2.4586  1.9805
  356SOL    HW3 1197   2.831   1.599   0.087 -0.2751  0.6589 -0.1166
  356SOL    MW4 1198   2.814   1.521   0.121 -0.3615  0.8803  0.3528
  357SOL     OW 1199   1.744   2.009   2.721 -0.0934  0.0796 -0.1963
  357SOL    HW2 1200   1.758   1.922   2.684 -2.5322 -1.0030  1.1478
  357SOL    HW3 1201   1.823   2.027   2.771  1.7134  0.0089 -2.8539
  357SOL    MW4 1202   1.756   2.000   2.723 -0.1768 -0.0726 -0.3696
  358SOL     OW 1203   6.073   2.924   2.804 -0.1885  0.4417 -0.1929
  358SOL    HW2 1204   6.152   2.923   2.859 -0.3466 -1.0422  0.0370
  358SOL    HW3 1205   6.070   3.013   2.769  0.9481  0.8664  0.7181
  358SOL    MW4 1206   6.083   2.936   2.806 -0.0594  0.3019 -0.0424
  359SOL     OW 1207   2.320   1.761   0.757 -0.1358 -0.5093  0.0652
  359SOL    HW2 1208   2.248   1.764   0.820  0.3812 -1.1880  0.7074
  359SOL    HW3 1209   2.294   1.694   0.693  0.2358 -1.2874  0.7097
  359SOL    MW4 1210   2.307   1.752   0.757 -0.0185 -0.7015  0.2350
  360SOL     OW 1211   5.435   3.666   3.657 -0.7112 -0.5784  0.6214
  360SOL    HW2 1212   5.437   3.761   3.674  1.0201 -0.7953  1.8434
  360SOL    HW3 1213   5.527   3.640   3.656 -1.1634 -2.2458  0.2057
  360SOL    MW4 1214   5.447   3.675   3.659 -0.5424 -0.8270  0.7278
  361SOL     OW 1215   1.768   4.469   6.386 -0.0055 -0.1974 -0.6282
  361SOL    HW2 1216   1.684   4.480   6.341  0.5775 -0.6227 -1.8724
  361SOL    HW3 1217   1.775   4.547   6.441 -1.4356 -0.3982 -0.0968
  361SOL    MW4 1218   1.758   4.481   6.387 -0.1173 -0.2800 -0.7222
  362SOL     OW 1219   2.166   4.109   4.941 -0.4908 -0.0463  0.2894
  362SOL    HW2 1220   2.126   4.068   5.017  0.4573  0.6559  1.1990
  362SOL    HW3 1221   2.236   4.163   4.977 -1.1326  1.7006 -0.9089
  362SOL    MW4 1222   2.170   4.111   4.955 -0.4504  0.2768  0.2513
  363SOL     OW 1223   4.810   5.872   1.291  0.1583 -0.2926  0.8605
  363SOL    HW2 1224   4.748   5.806   1.323  0.1236 -0.6483  0.1049
  363SOL    HW3 1225   4.756   5.945   1.263 -0.0019 -0.8301 -0.3357
  363SOL    MW4 1226   4.795   5.873   1.291  0.1326 -0.4104  0.6030
  364SOL     OW 1227   5.992   2.690   5.129  0.3186 -0.0533 -0.0819
  364SOL    HW2 1228   6.033   2.624   5.073  1.7064  0.3709  0.3799
  364SOL    HW3 1229   5.918   2.722   5.079  0.7754 -0.5939 -1.1274
  364SOL    MW4 1230   5.988   2.685   5.115  0.5620 -0.0687 -0.1589
  365SOL     OW 1231   2.978   2.639   4.845 -0.2040  0.2695 -0.6326
  365SOL    HW2 1232   2.974   2.688   4.762 -0.8812  0.6026 -0.4136
  365SOL    HW3 1233   3.031   2.695   4.903 -0.2327  0.3195 -0.6546
  365SOL    MW4 1234   2.985   2.653   4.842 -0.2971  0.3200 -0.6066
  366SOL     OW 1235   3.028   5.692   5.257 -0.2602  0.2761  0.3629
  366SOL    HW2 1236   2.983   5.636   5.194 -0.9029  0.4990  0.6172
  366SOL    HW3 1237   3.090   5.634   5.300  0.2554  0.1427 -0.5366
  366SOL    MW4 1238   3.030   5.677   5.254 -0.2770  0.2879  0.2778
  367SOL     OW 1239   0.681   1.986   4.083 -0.3842  0.4134 -0.6271
  367SOL    HW2 1240   0.729   1.932   4.020 -3.1377  1.0410 -3.5513
  367SOL    HW3 1241   0.629   1.923   4.133  2.2375 -0.1416  1.6463
  367SOL    MW4 1242   0.680   1.970   4.081 -0.4016  0.4229 -0.7130
  368SOL     OW 1243   4.540   4.646   2.995 -0.0574  0.4651 -0.0159
  368SOL    HW2 1244   4.616   4.654   3.053  0.4123 -0.1371 -0.5296
  368SOL    HW3 1245   4.471   4.695   3.040  0.0666 -0.6167  1.4433
  368SOL    MW4 1246   4.541   4.653   3.009  0.0209  0.2429  0.1088
  369SOL     OW 1247   2.936   4.444   5.258 -0.3212 -0.1203  0.2288
  369SOL    HW2 1248   2.968   4.533   5.243  1.3661 -0.8224 -0.5784
  369SOL    HW3 1249   3.013   4.395   5.284 -0.8705 -1.7447 -1.0454
  369SOL    MW4 1250   2.950   4.449   5.260 -0.1711 -0.4273 -0.0458
  370SOL     OW 1251   0.307   0.890   5.730  0.3555 -0.3330 -0.1264
  370SOL    HW2 1252   0.326   0.983   5.741  1.7370 -0.7424  1.2679
  370SOL    HW3 1253   0.386   0.846   5.759 -1.5244 -2.0626  2.8776
  370SOL    MW4 1254   0.320   0.897   5.735  0.2897 -0.6152  0.4539
  371SOL     OW 1255   3.411   3.627   2.250 -0.0059 -0.4648 -0.2218
  371SOL    HW2 1256   3.322   3.628   2.216  0.3174 -1.8751 -1.1471
  371SOL    HW3 1257   3.467   3.649   2.176  0.5279 -1.1404 -0.0365
  371SOL    MW4 1258   3.407   3.630   2.236  0.1072 -0.7400 -0.3194
  372SOL     OW 1259   5.656   1.881   0.610  0.1556  0.1824 -0.0249
  372SOL    HW2 1260   5.663   1.812   0.544  1.4691  0.1534  0.1091
  372SOL    HW3 1261   5.612   1.839   0.684  1.0663 -0.5740  0.1109
  372SOL    MW4 1262   5.651   1.866   0.611  0.4491  0.0787  0.0107
  373SOL     OW 1263   0.214   3.105   1.618 -0.3324 -0.0087 -0.1107
  373SOL    HW2 1264   0.252   3.188   1.647  2.3569 -1.0737 -0.3105
  373SOL    HW3 1265   0.140   3.091   1.676  0.1934  1.6958  1.0606
  373SOL    MW4 1266   0.209   3.114   1.629  0.0918  0.0756  0.0175
  374SOL     OW 1267   2.714   6.033   2.762  0.7805 -0.8542 -1.1631
  374SOL    HW2 1268   2.770   6.007   2.835  1.3502 -2.9962 -2.2585
  374SOL    HW3 1269   2.674   5.951   2.733 -2.0665  0.4326 -1.1828
  374SOL    MW4 1270   2.716   6.018   2.768  0.4800 -0.9670 -1.3102
  375SOL     OW 1271   6.115   3.041   0.302 -0.1975  0.3580  0.3243
  375SOL    HW2 1272   6.088   3.081   0.385 -0.7108  0.3361  0.1668
  375SOL    HW3 1273   6.076   2.953   0.303 -1.2106  0.7791 -0.4657
  375SOL    MW4 1274   6.107   3.034   0.313 -0.3989  0.4107  0.1993
  376SOL     OW 1275   3.062   1.423   1.003 -0.1082  0.0243  0.0752
  376SOL    HW2 1276   2.976   1.398   0.968 -0.2513 -0.0141  0.4536
  376SOL    HW3 1277   3.045   1.500   1.058  0.2674  0.7118 -0.7401
  376SOL    MW4 1278   3.048   1.430   1.005 -0.0775  0.1100  0.0176
  377SOL     OW 1279   3.599   4.940   3.862  0.0162  0.7863 -0.2480
  377SOL    HW2 1280   3.681   4.932   3.813  0.3096 -0.5304  0.4178
  377SOL    HW3 1281   3.612   5.019   3.916  1.1741  0.1767  0.4174
  377SOL    MW4 1282   3.612   4.950   3.863  0.2077  0.5321 -0.0724
  378SOL     OW 1283   5.055   3.874   5.872 -0.3545  0.0731 -0.5024
  378SOL    HW2 1284   5.076   3.784   5.894  1.1130  0.5268  0.0319
  378SOL    HW3 1285   5.014   3.909   5.951 -0.8716 -0.0893 -0.6907
  378SOL    MW4 1286   5.052   3.867   5.885 -0.2291  0.1116 -0.4568
  379SOL     OW 1287   4.034   0.843   5.873  0.4359  0.0244  0.2902
  379SOL    HW2 1288   3.962   0.907   5.875 -0.2557 -0.6903 -0.6173
  379SOL    HW3 1289   3.997   0.764   5.913  0.3428 -0.6771 -1.1031
  379SOL    MW4 1290   4.019   0.841   5.878  0.3323 -0.1624 -0.0134
  380SOL     OW 1291   3.359   2.694   2.216 -0.6140 -0.3409  0.1252
  380SOL    HW2 1292   3.272   2.653   2.213  0.1867 -2.1055 -0.6165
  380SOL    HW3 1293   3.405   2.657   2.141  0.4791  1.3384 -0.0805
  380SOL    MW4 1294   3.354   2.683   2.206 -0.3642 -0.3522  0.0002
  381SOL     OW 1295   1.913   5.185   2.857  0.2895  0.3299  0.3858
  381SOL    HW2 1296   1.986   5.182   2.795  0.7509 -1.3069  0.9593
  381SOL    HW3 1297   1.954   5.184   2.943 -0.3891 -0.7317  0.7206
  381SOL    MW4 1298   1.928   5.184   2.860  0.2609 -0.0261  0.5056
  382SOL     OW 1299   2.475   2.985   4.284 -0.3341  0.2273  0.2190
  382SOL    HW2 1300   2.397   3.039   4.297 -0.3002  0.2005  0.5455
  382SOL    HW3 1301   2.506   3.007   4.197 -1.1794 -0.3625 -0.2442
  382SOL    MW4 1302   2.469   2.995   4.275 -0.4412  0.1460  0.2009
  383SOL     OW 1303   0.809   2.447   1.793 -0.2970 -0.4032  0.1288
  383SOL    HW2 1304   0.778   2.461   1.703 -0.0855 -2.7577 -0.3839
  383SOL    HW3 1305   0.732   2.416   1.840 -0.4648  1.0566  0.8582
  383SOL    MW4 1306   0.795   2.445   1.787 -0.2912 -0.5213  0.1574
  384SOL     OW 1307   3.286   1.944   4.393 -0.1143  0.1099 -0.0978
  384SOL    HW2 1308   3.272   1.870   4.453  0.9170 -1.3528 -1.5693
  384SOL    HW3 1309   3.216   1.935   4.329 -1.2795  1.7347  0.8552
  384SOL    MW4 1310   3.275   1.933   4.393 -0.1319  0.1313 -0.1662
  385SOL     OW 1311   3.201   2.409   2.969 -0.6429 -0.3861  0.3178
  385SOL    HW2 1312   3.190   2.320   3.003  0.5514 -0.7365 -0.1614
  385SOL    HW3 1313   3.147   2.463   3.026 -0.9508 -1.3374  0.9634
  385SOL    MW4 1314   3.192   2.404   2.981 -0.5260 -0.5579  0.3398
  386SOL     OW 1315   3.640   6.317   3.370  0.0828 -0.2211  0.1899
  386SOL    HW2 1316   3.645   6.332   3.276 -0.3077  2.2638  0.5004
  386SOL    HW3 1317   3.645   6.405   3.409  3.2268 -1.3018  2.6684
  386SOL    MW4 1318   3.641   6.331   3.363  0.4460 -0.0359  0.5579
  387SOL     OW 1319   3.096   5.103   3.346 -0.1620 -0.1739 -0.2373
  387SOL    HW2 1320   3.079   5.186   3.391 -1.3687  0.0761 -1.1140
  387SOL    HW3 1321   3.039   5.040   3.390  0.0366 -0.3275 -0.2015
  387SOL    MW4 1322   3.086   5.106   3.358 -0.2950 -0.1612 -0.3482
  388SOL     OW 1323   4.200   3.211   1.979 -0.7625 -0.4434 -0.2654
  388SOL    HW2 1324   4.113   3.173   1.985 -0.6298 -0.7611 -0.3657
  388SOL    HW3 1325   4.190   3.283   1.917 -1.4082  0.7915  1.2012
  388SOL    MW4 1326   4.187   3.216   1.972 -0.8302 -0.3224 -0.0851
  389SOL     OW 1327   1.003   6.337   3.800 -0.1276 -0.1681 -0.2830
  389SOL    HW2 1328   1.075   6.298   3.751  1.4551  0.7734  1.1834
  389SOL    HW3 1329   1.025   6.321   3.892 -2.2454 -0.5948  0.1971
  389SOL    MW4 1330   1.015   6.330   3.806 -0.1982 -0.1002 -0.0262
  390SOL     OW 1331   1.380   3.889   5.923 -0.1285 -0.2035  0.4540
  390SOL    HW2 1332   1.367   3.796   5.906 -1.2516 -0.1661  1.0372
  390SOL    HW3 1333   1.409   3.924   5.839 -0.1079 -1.0032  0.1143
  390SOL    MW4 1334   1.382   3.881   5.909 -0.2739 -0.3040  0.4861
  391SOL     OW 1335   3.836   4.927   3.672  0.4724 -0.4338 -0.3950
  391SOL    HW2 1336   3.905   4.862   3.690  0.6526  0.0716  0.8343
  391SOL    HW3 1337   3.872   5.009   3.705 -0.2327  0.0742 -0.8753
  391SOL    MW4 1338   3.850   4.929   3.679  0.4032 -0.3001 -0.2962
  392SOL     OW 1339   1.582   2.264   0.083 -0.3096 -0.0770 -0.1981
  392SOL    HW2 1340   1.494   2.266   0.045 -0.4610  0.7025  0.1908
  392SOL    HW3 1341   1.620   2.183   0.048 -1.5906 -1.0565  0.5570
  392SOL    MW4 1342   1.575   2.253   0.073 -0.4986 -0.1034 -0.0472
  393SOL     OW 1343   0.140   0.519   3.603  0.5171 -0.3181  0.3997
  393SOL    HW2 1344   0.193   0.439   3.595 -1.7180 -2.1093  2.1346
  393SOL    HW3 1345   0.071   0.508   3.537 -0.1620 -0.1568  1.0720
  393SOL    MW4 1346   0.138   0.507   3.593  0.1326 -0.5331  0.7173
  394SOL     OW 1347   4.287   6.297   3.631 -0.0909 -0.8158  0.1562
  394SOL    HW2 1348   4.265   6.205   3.616 -1.8826 -0.5780  0.9821
  394SOL    HW3 1349   4.205   6.336   3.661  0.6815  1.0208  0.0109
  394SOL    MW4 1350   4.273   6.290   3.633 -0.2254 -0.5421  0.2460
  395SOL     OW 1351   5.201   4.480   0.727 -0.8946 -0.4696 -0.3727
  395SOL    HW2 1352   5.263   4.421   0.683  1.2086  0.3773  1.2495
  395SOL    HW3 1353   5.161   4.529   0.656  1.6686  0.2061 -1.4873
  395SOL    MW4 1354   5.204   4.478   0.712 -0.2789 -0.2687 -0.3057
  396SOL     OW 1355   2.555   4.798   0.727  0.1040  0.2851  0.0363
  396SOL    HW2 1356   2.507   4.879   0.715 -0.0100  0.5618  1.9924
  396SOL    HW3 1357   2.504   4.732   0.679 -0.0309  1.2511 -1.2085
  396SOL    MW4 1358   2.542   4.800   0.719  0.0712  0.4491  0.1302
  397SOL     OW 1359   2.812   3.409   6.122  0.4895  0.4804 -0.7273
  397SOL    HW2 1360   2.815   3.501   6.147 -0.1234  0.3233 -0.0551
  397SOL    HW3 1361   2.750   3.369   6.183  1.5935 -0.6077 -0.2791
  397SOL    MW4 1362   2.804   3.416   6.133  0.5543  0.3161 -0.5795
  398SOL     OW 1363   0.398   1.143   5.951  0.3687 -0.1429  0.1332
  398SOL    HW2 1364   0.401   1.209   6.021 -0.1170  1.1940 -1.0517
  398SOL    HW3 1365   0.369   1.063   5.995 -2.6514  1.2960  1.0415
  398SOL    MW4 1366   0.394   1.141   5.966 -0.0938  0.2234  0.0967
  399SOL     OW 1367   2.131   4.447   2.015  0.4579 -0.8078 -0.0036
  399SOL    HW2 1368   2.213   4.419   2.055  0.8447  0.1592 -0.1021
  399SOL    HW3 1369   2.063   4.418   2.076  0.9578 -0.5188  0.6971
  399SOL    MW4 1370   2.133   4.439   2.028  0.5749 -0.6421  0.0759
  400SOL     OW 1371   1.814   4.919   2.573  0.8956  0.4371 -0.1169
  400SOL    HW2 1372   1.740   4.913   2.632  1.2336  1.1769  0.3919
  400SOL    HW3 1373   1.782   4.884   2.490  1.1573 -3.2044  1.1387
  400SOL    MW4 1374   1.800   4.913   2.570  0.9747  0.0542  0.1159
  401SOL     OW 1375   0.581   5.442   4.388  0.5083 -0.3026  0.4129
  401SOL    HW2 1376   0.577   5.365   4.446  0.6897  0.9682  2.1812
  401SOL    HW3 1377   0.504   5.433   4.331 -1.3711 -0.1527  2.7682
  401SOL    MW4 1378   0.570   5.430   4.388  0.2843 -0.1152  0.9570
  402SOL     OW 1379   1.426   1.223   2.361 -0.0435 -0.1225 -0.3536
  402SOL    HW2 1380   1.476   1.193   2.285 -1.1882 -0.0032 -1.1725
  402SOL    HW3 1381   1.343   1.253   2.325 -0.1090  1.1826  0.7907
  402SOL    MW4 1382   1.422   1.223   2.346 -0.2032  0.0654 -0.3106
  403SOL     OW 1383   4.561   6.351   3.526  0.4033 -0.2433  0.2519
  403SOL    HW2 1384   4.602   6.265   3.538  0.5512 -0.0271  1.4111
  403SOL    HW3 1385   4.471   6.339   3.557 -0.0129 -0.3528 -0.9736
  403SOL    MW4 1386   4.555   6.338   3.532  0.3679 -0.2292  0.2432
  404SOL     OW 1387   0.058   1.693   5.413 -0.3166  0.0589 -0.1751
  404SOL    HW2 1388   0.073   1.602   5.386  0.4954 -0.0409  0.5717
  404SOL    HW3 1389   0.120   1.707   5.484 -0.8134  1.0355  0.0775
  404SOL    MW4 1390   0.068   1.683   5.419 -0.2750  0.1746 -0.0433
  405SOL     OW 1391   2.805   0.234   6.311  0.0930  0.1748 -0.3301
  405SOL    HW2 1392   2.756   0.307   6.350 -1.5953 -1.2581  0.3350
  405SOL    HW3 1393   2.766   0.156   6.349  3.3464 -1.0786  0.7020
  405SOL    MW4 1394   2.793   0.233   6.321  0.2995 -0.1796 -0.1062
  406SOL     OW 1395   5.668   6.246   4.699 -0.2180  0.5366  0.1969
  406SOL    HW2 1396   5.704   6.178   4.643  0.2943  1.4283 -0.5890
  406SOL    HW3 1397   5.719   6.239   4.780 -0.5415 -0.3505  0.3397
  406SOL    MW4 1398   5.679   6.236   4.703 -0.1931  0.5372  0.1121
  407SOL     OW 1399   5.029   2.944   3.718  0.0800  0.3558 -0.3205
  407SOL    HW2 1400   4.952   2.902   3.681 -0.3588  0.4040  0.5058
  407SOL    HW3 1401   5.097   2.877   3.714 -0.3071 -0.0603 -0.0605
  407SOL    MW4 1402   5.028   2.930   3.713 -0.0290  0.3073 -0.1772
  408SOL     OW 1403   0.687   1.704   0.081 -0.0359  0.2796 -0.5370
  408SOL    HW2 1404   0.778   1.696   0.108 -0.3485  1.4658  0.9573
  408SOL    HW3 1405   0.654   1.614   0.081  0.9583 -0.0919 -0.4859
  408SOL    MW4 1406   0.694   1.691   0.085  0.0540  0.3871 -0.3331
  409SOL     OW 1407   0.083   3.736   3.861 -0.6671 -0.3894 -0.3442
  409SOL    HW2 1408   0.146   3.808   3.860  0.7980 -1.6274 -0.2383
  409SOL    HW3 1409   0.085   3.703   3.951  0.9610 -2.4563 -1.0703
  409SOL    MW4 1410   0.091   3.741   3.873 -0.2590 -0.8254 -0.4261
  410SOL     OW 1411   1.904   2.197   6.267  0.5055  0.1779 -0.0287
  410SOL    HW2 1412   1.894   2.282   6.311  1.0223  1.2371 -1.8522
  410SOL    HW3 1413   1.823   2.151   6.286 -1.1045  2.2513 -1.3602
  410SOL    MW4 1414   1.892   2.202   6.275  0.3613  0.5912 -0.4450
  411SOL     OW 1415   0.923   2.382   0.096 -0.1110  0.1859  0.2265
  411SOL    HW2 1416   1.009   2.421   0.084 -0.6532  1.6357  0.8279
  411SOL    HW3 1417   0.866   2.431   0.037 -0.6859 -0.1618  0.4852
  411SOL    MW4 1418   0.927   2.394   0.087 -0.2584  0.3313  0.3400
  412SOL     OW 1419   0.835   0.181   2.018 -0.4039 -0.4875 -0.5170
  412SOL    HW2 1420   0.758   0.156   1.968 -0.1202 -1.3055 -0.5458
  412SOL    HW3 1421   0.804   0.187   2.108 -1.2362  2.2864 -0.8935
  412SOL    MW4 1422   0.821   0.179   2.023 -0.4763 -0.2295 -0.5705
  413SOL     OW 1423   3.037   0.371   1.539  0.1049 -0.0630  0.3147
  413SOL    HW2 1424   3.077   0.298   1.492  1.3862  0.5235  0.4308
  413SOL    HW3 1425   3.045   0.347   1.632 -0.8416 -0.4443  0.3005
  413SOL    MW4 1426   3.044   0.358   1.545  0.1491 -0.0359  0.3282
  414SOL     OW 1427   4.325   5.477   3.018  0.2635 -0.0705 -0.7774
  414SOL    HW2 1428   4.370   5.556   3.049  1.6975 -1.4473  0.9072
  414SOL    HW3 1429   4.295   5.499   2.930  0.3232  2.4437 -0.2477
  414SOL    MW4 1430   4.327   5.491   3.011  0.4606  0.0795 -0.4852
  415SOL     OW 1431   0.634   5.912   1.362 -0.1667 -0.0382  0.0788
  415SOL    HW2 1432   0.668   5.980   1.420  0.0857 -0.2911  0.2252
  415SOL    HW3 1433   0.582   5.856   1.418  0.4964 -0.5762  0.1568
  415SOL    MW4 1434   0.631   5.914   1.377 -0.0459 -0.1425  0.1084
  416SOL     OW 1435   0.996   0.569   4.953  0.4505 -0.3117 -0.3274
  416SOL    HW2 1436   1.031   0.573   5.042 -1.8021  1.3211  0.5740
  416SOL    HW3 1437   0.921   0.510   4.959  0.4953 -0.4745 -1.2394
  416SOL    MW4 1438   0.991   0.562   4.965  0.1592 -0.1177 -0.3288
  417SOL     OW 1439   0.785   6.348   2.689  0.0320 -0.1147  0.5210
  417SOL    HW2 1440   0.816   6.295   2.763  1.5035  0.7931  0.5789
  417SOL    HW3 1441   0.864   6.373   2.642 -0.9273 -2.4018 -2.6450
  417SOL    MW4 1442   0.800   6.344   2.693  0.0996 -0.2967  0.1109
  418SOL     OW 1443   3.168   2.817   4.169  0.3003  0.2350 -0.4854
  418SOL    HW2 1444   3.119   2.774   4.099  0.9535  0.1776 -0.9118
  418SOL    HW3 1445   3.222   2.882   4.124  0.0405  0.8395  0.0599
  418SOL    MW4 1446   3.168   2.820   4.154  0.3522  0.3072 -0.4697
  419SOL     OW 1447   1.348   4.115   1.761 -0.4857  0.2126  0.2223
  419SOL    HW2 1448   1.344   4.143   1.853 -0.1813  0.3061  0.2091
  419SOL    HW3 1449   1.398   4.184   1.717  0.4407 -0.4329  0.2263
  419SOL    MW4 1450   1.354   4.127   1.767 -0.3233  0.1398  0.2211
  420SOL     OW 1451   6.137   3.756   2.056  0.5015  0.3949 -0.3401
  420SOL    HW2 1452   6.205   3.705   2.099 -0.2549 -0.5915 -0.2886
  420SOL    HW3 1453   6.162   3.847   2.071  1.7741  0.0460 -0.2783
  420SOL    MW4 1454   6.149   3.762   2.064  0.5696  0.2188 -0.3252
  421SOL     OW 1455   4.358   1.495   0.801  0.3663  0.4839  0.6777
  421SOL    HW2 1456   4.333   1.587   0.801  0.6041  0.5467  1.1016
  421SOL    HW3 1457   4.432   1.490   0.740  0.0955  0.5005  0.3429
  421SOL    MW4 1458   4.365   1.506   0.793  0.3619  0.4944  0.6894
  422SOL     OW 1459   1.337   3.239   4.659 -0.0983  0.2483  0.6369
  422SOL    HW2 1460   1.347   3.277   4.746 -1.6126  1.4704  0.3135
  422SOL    HW3 1461   1.396   3.291   4.604 -1.2485  1.4040  0.4332
  422SOL    MW4 1462   1.346   3.251   4.663 -0.4499  0.5621  0.5673
  423SOL     OW 1463   3.352   0.198   5.997 -0.0168  0.1305  0.9767
  423SOL    HW2 1464   3.268   0.159   5.974 -0.0831 -0.7081  2.5201
  423SOL    HW3 1465   3.415   0.126   5.987  0.7146  0.9650 -1.0182
  423SOL    MW4 1466   3.349   0.184   5.993  0.0709  0.1300  0.9171
  424SOL     OW 1467   1.989   4.116   6.154  0.3516  0.2699  0.2564
  424SOL    HW2 1468   2.067   4.087   6.200  0.1077 -0.3845  0.2723
  424SOL    HW3 1469   1.961   4.194   6.201 -0.1771 -0.6559  1.5623
  424SOL    MW4 1470   1.995   4.122   6.167  0.2496  0.0614  0.4308
  425SOL     OW 1471   0.688   2.222   2.361  0.2382  0.0318  0.3104
  425SOL    HW2 1472   0.613   2.214   2.419 -1.1913 -0.0566 -1.4612
  425SOL    HW3 1473   0.757   2.171   2.403 -2.1549 -4.1357 -0.2683
  425SOL    MW4 1474   0.687   2.214   2.374 -0.2662 -0.5297  0.0003
  426SOL     OW 1475   3.890   4.875   5.476 -0.4405 -0.1679 -0.0387
  426SOL    HW2 1476   3.828   4.853   5.545  1.0355 -2.6325  0.5900
  426SOL    HW3 1477   3.855   4.831   5.398 -0.2581 -0.3105 -0.0390
  426SOL    MW4 1478   3.877   4.866   5.475 -0.2217 -0.5119  0.0442
  427SOL     OW 1479   5.737   0.236   1.210 -0.7673  0.0476  0.4725
  427SOL    HW2 1480   5.687   0.307   1.169 -0.0283  0.3757  0.1078
  427SOL    HW3 1481   5.778   0.191   1.136 -1.6013 -1.0594  0.6655
  427SOL    MW4 1482   5.736   0.240   1.195 -0.7798 -0.0552  0.4498
  428SOL     OW 1483   2.733   3.341   4.422  0.3387 -0.4309 -0.1071
  428SOL    HW2 1484   2.820   3.327   4.459 -0.2928  0.1143  1.6819
  428SOL    HW3 1485   2.702   3.253   4.398  1.2048 -0.6653 -0.3795
  428SOL    MW4 1486   2.740   3.328   4.424  0.3696 -0.3899  0.0930
  429SOL     OW 1487   6.268   0.338   1.036 -0.6175  0.1410 -0.2175
  429SOL    HW2 1488   6.249   0.307   0.948 -1.8235 -1.1667  0.4763
  429SOL    HW3 1489   6.184   0.368   1.071 -0.1667  0.6034  0.5116
  429SOL    MW4 1490   6.255   0.338   1.029 -0.7172  0.0295 -0.0298
  430SOL     OW 1491   3.684   4.689   4.960 -0.3341  0.0662  0.3871
  430SOL    HW2 1492   3.757   4.748   4.978 -0.6960  0.1107  1.8644
  430SOL    HW3 1493   3.725   4.604   4.943  0.0581 -0.0906  1.9852
  430SOL    MW4 1494   3.699   4.686   4.960 -0.3301  0.0514  0.7929
  431SOL     OW 1495   1.958   1.758   1.406  0.0487  0.4978  1.0889
  431SOL    HW2 1496   1.944   1.687   1.470  0.1292 -0.2120  0.3303
  431SOL    HW3 1497   2.051   1.778   1.414  0.4166 -0.7048  0.0740
  431SOL    MW4 1498   1.969   1.751   1.416  0.1079  0.2455  0.8549
  432SOL     OW 1499   6.023   1.950   5.169  0.0688  0.8795 -0.3276
  432SOL    HW2 1500   6.043   1.950   5.263 -0.0443  2.1220 -0.2972
  432SOL    HW3 1501   6.097   1.905   5.129  0.6603  1.3288  0.2477
  432SOL    MW4 1502   6.035   1.944   5.176  0.1319  1.1027 -0.2477
  433SOL     OW 1503   5.226   3.524   6.193  0.0973  0.0761  0.3784
  433SOL    HW2 1504   5.217   3.619   6.198  1.4420  0.2159  0.5302
  433SOL    HW3 1505   5.254   3.498   6.280  0.2099 -0.4006  0.2006
  433SOL    MW4 1506   5.229   3.533   6.205  0.2896  0.0317  0.3750
  434SOL     OW 1507   0.428   2.985   1.486  0.3791 -0.2910 -0.3614
  434SOL    HW2 1508   0.485   3.038   1.430  1.5581  0.4077  1.4385
  434SOL    HW3 1509   0.373   3.048   1.532 -0.3888 -0.8470 -0.4847
  434SOL    MW4 1510   0.428   3.000   1.485  0.4334 -0.2722 -0.1402
  435SOL     OW 1511   2.918   4.452   2.512  0.5186  0.6489  0.0391
  435SOL    HW2 1512   2.829   4.489   2.512  0.6898  1.0877 -0.6511
  435SOL    HW3 1513   2.951   4.468   2.601 -0.9014 -1.5537  1.0327
  435SOL    MW4 1514   2.910   4.459   2.524  0.3539  0.4162  0.0791
  436SOL     OW 1515   5.126   0.207   0.773 -0.4448  0.3165 -0.0013
  436SOL    HW2 1516   5.098   0.238   0.687  0.0165  2.0564  0.4241
  436SOL    HW3 1517   5.209   0.163   0.758  0.1294  1.4855 -0.3447
  436SOL    MW4 1518   5.133   0.205   0.760 -0.3082  0.7003  0.0095
  437SOL     OW 1519   1.178   5.979   0.070  0.4082  0.4473 -0.1165
  437SOL    HW2 1520   1.244   6.003   0.134  0.4361 -0.7258  0.3234
  437SOL    HW3 1521   1.228   5.944  -0.004  0.4660  3.1857 -1.4707
  437SOL    MW4 1522   1.193   5.977   0.068  0.4195  0.6538 -0.2371
  438SOL     OW 1523   3.183   3.063   2.578 -0.0440 -0.3925  0.4479
  438SOL    HW2 1524   3.139   3.023   2.653 -1.4888 -0.8108 -0.5968
  438SOL    HW3 1525   3.268   3.019   2.574  0.5423  0.3971  2.4601
  438SOL    MW4 1526   3.189   3.052   2.587 -0.1572 -0.3435  0.5755
  439SOL     OW 1527   1.864   4.312   5.842  0.3732  0.4618 -0.0019
  439SOL    HW2 1528   1.820   4.388   5.881  1.4786  1.6965 -1.0686
  439SOL    HW3 1529   1.915   4.349   5.770 -0.2898 -1.5148 -1.5604
  439SOL    MW4 1530   1.865   4.327   5.838  0.4316  0.3639 -0.3483
  440SOL     OW 1531   5.570   5.390   0.788 -0.4891 -0.5078 -0.1238
  440SOL    HW2 1532   5.497   5.330   0.773 -1.0682  0.2480 -0.3582
  440SOL    HW3 1533   5.555   5.462   0.727  0.8386 -0.6678 -0.6928
  440SOL    MW4 1534   5.558   5.391   0.778 -0.3903 -0.4292 -0.2298
  441SOL     OW 1535   2.744   4.980   1.704  0.2189 -0.2447  0.7021
  441SOL    HW2 1536   2.664   4.929   1.717  1.2067 -2.1540 -0.2948
  441SOL    HW3 1537   2.742   5.046   1.773 -2.0464 -0.4263  0.8854
  441SOL    MW4 1538   2.733   4.982   1.714  0.0504 -0.5205  0.5948
  442SOL     OW 1539   1.061   1.139   4.947 -0.9072  0.5161 -0.3113
  442SOL    HW2 1540   0.968   1.115   4.954 -0.1559 -2.4338  1.1607
  442SOL    HW3 1541   1.098   1.074   4.887  0.5421  0.4728  0.5730
  442SOL    MW4 1542   1.054   1.127   4.940 -0.6169  0.1212 -0.0004
  443SOL     OW 1543   0.477   0.936   5.296  0.2768 -0.1683  0.0349
  443SOL    HW2 1544   0.548   0.887   5.338 -0.0744 -1.5101 -0.8771
  443SOL    HW3 1545   0.436   0.984   5.368  2.1690  0.7797  0.5716
  443SOL    MW4 1546   0.481   0.936   5.311  0.4801 -0.2203 -0.0146
  444SOL     OW 1547   0.572   2.040   5.125  0.3702  0.2413  0.1798
  444SOL    HW2 1548   0.503   2.073   5.183 -0.7288 -0.2746 -0.7834
  444SOL    HW3 1549   0.579   1.947   5.146 -0.2882 -0.0240 -0.7498
  444SOL    MW4 1550   0.564   2.032   5.136  0.1384  0.1383 -0.0699
  445SOL     OW 1551   0.182   0.665   0.269  0.1600 -0.2353 -0.7658
  445SOL    HW2 1552   0.097   0.709   0.275 -0.0595 -0.7477 -0.0599
  445SOL    HW3 1553   0.203   0.640   0.359  1.3295  0.3804 -0.8552
  445SOL    MW4 1554   0.174   0.668   0.282  0.2853 -0.2217 -0.6844
  446SOL     OW 1555   1.678   0.944   1.775 -0.0277  0.1499 -1.0622
  446SOL    HW2 1556   1.762   0.928   1.819 -0.3231 -0.1742 -0.6046
  446SOL    HW3 1557   1.681   0.889   1.697  0.6612  1.0172 -1.6723
  446SOL    MW4 1558   1.689   0.935   1.771  0.0242  0.2215 -1.0823
  447SOL     OW 1559   3.823   1.026   5.875 -0.5624 -0.1649  0.1845
  447SOL    HW2 1560   3.759   1.026   5.803  1.5676 -0.6714 -1.8351
  447SOL    HW3 1561   3.784   0.970   5.942 -2.0150 -0.8981 -1.2008
  447SOL    MW4 1562   3.809   1.019   5.874 -0.4730 -0.3285 -0.2648
  448SOL     OW 1563   3.603   2.046   0.013 -0.1276 -0.0509 -0.2312
  448SOL    HW2 1564   3.609   2.113  -0.055  1.0400  1.1374  0.9859
  448SOL    HW3 1565   3.512   2.016   0.009 -0.4719  1.0553 -1.3155
  448SOL    MW4 1566   3.592   2.051   0.004 -0.0190  0.2518 -0.2137
  449SOL     OW 1567   2.710   3.077   4.364 -0.1178 -0.5443  0.0763
  449SOL    HW2 1568   2.627   3.036   4.342  0.0532 -0.4683 -0.7336
  449SOL    HW3 1569   2.766   3.060   4.289  0.9091 -1.4150  1.0115
  449SOL    MW4 1570   2.706   3.070   4.351  0.0402 -0.6492  0.0928
  450SOL     OW 1571   0.467   1.197   4.673  0.5230 -0.3039 -0.0513
  450SOL    HW2 1572   0.536   1.253   4.709  0.7266 -0.9527  0.5823
  450SOL    HW3 1573   0.510   1.113   4.658 -0.2659 -0.8999  0.9174
  450SOL    MW4 1574   0.482   1.194   4.676  0.4458 -0.4682  0.1601
  451SOL     OW 1575   0.120   4.280   1.550 -0.0533  0.0075  0.6363
  451SOL    HW2 1576   0.048   4.340   1.570  1.0438  1.1312  1.3335
  451SOL    HW3 1577   0.155   4.255   1.635  0.4560 -0.4363  0.3050
  451SOL    MW4 1578   0.115   4.284   1.564  0.1586  0.0972  0.6846
  452SOL     OW 1579   2.137   1.976   3.988  0.4944  0.1893 -0.0709
  452SOL    HW2 1580   2.066   2.040   3.983  0.2461  0.0187  1.1192
  452SOL    HW3 1581   2.105   1.900   3.939 -0.4437 -0.1612  1.0680
  452SOL    MW4 1582   2.124   1.975   3.981  0.3378  0.1205  0.2364
  453SOL     OW 1583   1.295   5.300   1.308 -0.5140  0.3400 -0.4616
  453SOL    HW2 1584   1.311   5.263   1.394  3.1651  1.1885 -0.6123
  453SOL    HW3 1585   1.324   5.391   1.315 -0.7037  0.6064 -2.4279
  453SOL    MW4 1586   1.301   5.307   1.320 -0.0536  0.4871 -0.7409
  454SOL     OW 1587   2.234   3.121   4.287 -0.4294  0.8920 -0.2871
  454SOL    HW2 1588   2.267   3.175   4.215  0.1787  2.1521  0.8964
  454SOL    HW3 1589   2.250   3.173   4.365  0.7538 -1.2490  1.0064
  454SOL    MW4 1590   2.241   3.135   4.288 -0.1930  0.7758  0.0397
  455SOL     OW 1591   2.956   1.656   4.454  0.1684 -0.0900 -0.5415
  455SOL    HW2 1592   2.875   1.675   4.501  0.2579  0.9750 -0.7741
  455SOL    HW3 1593   2.974   1.564   4.472  0.0902  0.2071  1.3718
  455SOL    MW4 1594   2.948   1.647   4.463  0.1699  0.0897 -0.3198
  456SOL     OW 1595   4.024   1.239   5.847 -0.7105 -1.1569  0.0528
  456SOL    HW2 1596   3.937   1.201   5.839 -0.6997 -1.1409 -0.1510
  456SOL    HW3 1597   4.010   1.333   5.847 -0.5453 -1.0946 -2.0380
  456SOL    MW4 1598   4.011   1.246   5.846 -0.6872 -1.1466 -0.2499
  457SOL     OW 1599   3.161   5.921   1.958 -0.1573  0.2301 -0.0996
  457SOL    HW2 1600   3.099   5.975   2.006 -0.0788 -0.2079  0.5048
  457SOL    HW3 1601   3.174   5.844   2.014 -0.2783 -0.4169 -0.9515
  457SOL    MW4 1602   3.154   5.918   1.972 -0.1629  0.0869 -0.1323
  458SOL     OW 1603   3.887   5.907   0.806 -0.3343 -0.5729 -0.4509
  458SOL    HW2 1604   3.864   5.890   0.897 -1.2288 -1.1639 -0.7718
  458SOL    HW3 1605   3.965   5.854   0.790 -1.3319 -2.0632 -0.5722
  458SOL    MW4 1606   3.895   5.898   0.816 -0.5839 -0.8475 -0.5093
  459SOL     OW 1607   2.248   3.561   3.519  0.7183  0.2899 -0.3994
  459SOL    HW2 1608   2.295   3.586   3.598  0.4891  1.2798 -0.5669
  459SOL    HW3 1609   2.273   3.470   3.504 -1.0399 -0.7239  2.1312
  459SOL    MW4 1610   2.257   3.552   3.527  0.4561  0.2867 -0.0876
  460SOL     OW 1611   5.945   3.454   5.681 -0.0051  1.0938 -0.7753
  460SOL    HW2 1612   5.931   3.538   5.637  1.2400  0.8202 -1.7659
  460SOL    HW3 1613   6.038   3.454   5.704  0.4045 -0.5902 -2.1536
  460SOL    MW4 1614   5.956   3.465   5.678  0.2132  0.8355 -1.0878
  461SOL     OW 1615   3.692   0.088   1.043 -0.0073 -0.4706 -0.2866
  461SOL    HW2 1616   3.667   0.001   1.075  0.0730 -0.7434 -0.9452
  461SOL    HW3 1617   3.611   0.138   1.043  0.0441 -0.3755  0.6136
  461SOL    MW4 1618   3.678   0.083   1.047  0.0101 -0.4940 -0.2547
  462SOL     OW 1619   6.005   4.861   5.766  0.0531  0.3788  0.4267
  462SOL    HW2 1620   5.913   4.857   5.794 -0.4175  1.2189 -0.9091
  462SOL    HW3 1621   6.001   4.870   5.671  1.4838  1.6520  0.4476
  462SOL    MW4 1622   5.992   4.862   5.757  0.1798  0.6576  0.2532
  463SOL     OW 1623   0.920   6.293   0.490  0.1582  0.3790 -0.0689
  463SOL    HW2 1624   0.940   6.379   0.527  0.4727  0.0893  0.4535
  463SOL    HW3 1625   0.911   6.236   0.567 -2.4484  0.4297 -0.2709
  463SOL    MW4 1626   0.922   6.297   0.505 -0.1442  0.3475 -0.0266
  464SOL     OW 1627   5.516   0.682   5.511  0.0799 -0.0771  0.0248
  464SOL    HW2 1628   5.513   0.662   5.417  0.0055  0.4573 -0.0873
  464SOL    HW3 1629   5.554   0.603   5.551 -0.4716 -0.5518 -0.3782
  464SOL    MW4 1630   5.521   0.669   5.504 -0.0027 -0.0692 -0.0431
  465SOL     OW 1631   5.665   4.117   5.296 -0.0423 -0.2501  0.5161
  465SOL    HW2 1632   5.684   4.053   5.227 -2.1778 -0.7284  0.3100
  465SOL    HW3 1633   5.714   4.195   5.270  0.0790 -0.7868 -0.9655
  465SOL    MW4 1634   5.674   4.119   5.284 -0.3081 -0.3840  0.2934
  466SOL     OW 1635   6.390   3.664   3.189  0.3388  0.7142  0.1296
  466SOL    HW2 1636   6.380   3.599   3.259  0.1183  2.0282  1.3716
  466SOL    HW3 1637   6.479   3.696   3.200  0.5964  0.3410 -0.7600
  466SOL    MW4 1638   6.401   3.659   3.200  0.3437  0.8384  0.1761
  467SOL     OW 1639   5.120   3.122   3.152 -0.0164 -0.8101 -0.4540
  467SOL    HW2 1640   5.154   3.166   3.074  0.4272  0.1427  0.2574
  467SOL    HW3 1641   5.025   3.119   3.138  0.1766 -1.9901 -1.6908
  467SOL    MW4 1642   5.112   3.128   3.140  0.0676 -0.8401 -0.5233
  468SOL     OW 1643   2.848   3.496   2.447 -0.5946 -0.6356  0.0367
  468SOL    HW2 1644   2.839   3.591   2.437 -1.6166 -0.6617  0.6032
  468SOL    HW3 1645   2.942   3.482   2.455 -0.4471  0.3634  0.1987
  468SOL    MW4 1646   2.859   3.507   2.447 -0.7100 -0.5073  0.1328
  469SOL     OW 1647   4.165   3.109   6.331  0.2498 -0.6894 -0.1702
  469SOL    HW2 1648   4.074   3.087   6.314  0.2498 -0.4050 -0.5528
  469SOL    HW3 1649   4.215   3.062   6.264  0.3654 -0.6825 -0.0896
  469SOL    MW4 1650   4.160   3.100   6.320  0.2650 -0.6510 -0.2101
  470SOL     OW 1651   0.614   2.660   3.679 -0.1848  0.1979  0.7406
  470SOL    HW2 1652   0.696   2.697   3.646 -0.7604 -0.1247 -1.2016
  470SOL    HW3 1653   0.583   2.723   3.744 -0.2226  2.2509 -1.1393
  470SOL    MW4 1654   0.621   2.673   3.683 -0.2657  0.4262  0.2363
  471SOL     OW 1655   5.987   4.277   4.341  0.0373  0.2104  0.0032
  471SOL    HW2 1656   6.033   4.199   4.310  1.1235  0.7020  0.3109
  471SOL    HW3 1657   6.050   4.319   4.400  0.4116  2.5364 -1.8954
  471SOL    MW4 1658   6.002   4.272   4.345  0.2300  0.5822 -0.2067
  472SOL     OW 1659   5.846   0.254   3.113  0.2722  0.2574  0.4797
  472SOL    HW2 1660   5.830   0.329   3.171 -0.8019  1.2607 -1.0448
  472SOL    HW3 1661   5.902   0.288   3.044 -0.6213 -0.1712 -0.4950
  472SOL    MW4 1662   5.851   0.268   3.112  0.0126  0.3333  0.1500
  473SOL     OW 1663   0.105   2.082   5.227  0.4946 -0.0183  0.2878
  473SOL    HW2 1664   0.190   2.113   5.258  0.2914  0.0011  0.8275
  473SOL    HW3 1665   0.114   1.987   5.222  0.3042 -0.0891  1.1092
  473SOL    MW4 1666   0.117   2.074   5.230  0.4427 -0.0251  0.4674
  474SOL     OW 1667   6.355   5.570   1.781 -0.1957  0.6425  0.0747
  474SOL    HW2 1668   6.309   5.652   1.795  0.5132  0.9754  0.4689
  474SOL    HW3 1669   6.285   5.507   1.762 -0.8153  1.1424  0.6424
  474SOL    MW4 1670   6.340   5.572   1.780 -0.1839  0.7524  0.2016
  475SOL     OW 1671   4.567   3.458   0.415 -0.2441  0.1370 -0.0378
  475SOL    HW2 1672   4.494   3.520   0.412  0.4701  0.9779 -1.1504
  475SOL    HW3 1673   4.608   3.465   0.329  1.8514  0.5807  0.9222
  475SOL    MW4 1674   4.563   3.467   0.403  0.1266  0.3065 -0.0579
  476SOL     OW 1675   1.104   5.933   5.080  0.4327 -0.2798 -0.1072
  476SOL    HW2 1676   1.057   5.870   5.134 -0.8091  1.3935  0.8494
  476SOL    HW3 1677   1.049   5.944   5.003  0.0910  0.4175  0.2290
  476SOL    MW4 1678   1.091   5.926   5.077  0.2237  0.0330  0.0634
  477SOL     OW 1679   5.441   5.100   1.037  0.6633 -0.5151 -0.3244
  477SOL    HW2 1680   5.494   5.024   1.013 -1.2365 -1.4643 -1.7582
  477SOL    HW3 1681   5.407   5.133   0.954 -0.9827  0.0305  0.5198
  477SOL    MW4 1682   5.444   5.094   1.023  0.1955 -0.5684 -0.4022
  478SOL     OW 1683   0.005   4.837   1.703 -0.0734 -0.1927 -0.3225
  478SOL    HW2 1684   0.087   4.788   1.709 -0.3178 -0.8297 -1.8185
  478SOL    HW3 1685  -0.011   4.845   1.610 -0.8714  1.3964 -0.0755
  478SOL    MW4 1686   0.014   4.831   1.692 -0.2109 -0.0671 -0.4873
  479SOL     OW 1687   5.572   4.506   0.707  0.1918  0.4467  0.1894
  479SOL    HW2 1688   5.523   4.433   0.669 -2.5019  1.0430  2.2175
  479SOL    HW3 1689   5.505   4.573   0.723  2.5085  3.3771 -1.4148
  479SOL    MW4 1690   5.556   4.506   0.704  0.1420  0.9120  0.2454
  480SOL     OW 1691   5.325   0.786   1.000  0.5251  0.4189  0.8247
  480SOL    HW2 1692   5.330   0.774   0.905  2.5757 -1.2991  1.0492
  480SOL    HW3 1693   5.250   0.843   1.014  0.6567  1.3871 -1.8780
  480SOL    MW4 1694   5.316   0.792   0.990  0.8130  0.3200  0.4977
  481SOL     OW 1695   3.929   2.057   2.508 -0.0738  0.5672  0.1707
  481SOL    HW2 1696   3.854   2.078   2.453  0.5595  1.7575 -0.2642
  481SOL    HW3 1697   3.926   1.961   2.517 -0.6422  0.4338 -1.2663
  481SOL    MW4 1698   3.919   2.047   2.502 -0.0652  0.7066 -0.0763
  482SOL     OW 1699   2.716   1.899   0.895  0.7050 -0.2361  0.1048
  482SOL    HW2 1700   2.630   1.913   0.936  0.7994  2.9738 -0.5134
  482SOL    HW3 1701   2.714   1.808   0.865 -1.2304 -1.2258  2.8480
  482SOL    MW4 1702   2.704   1.889   0.897  0.4621  0.0569  0.3852
  483SOL     OW 1703   3.456   4.182   5.133  0.3729  0.4342  0.0419
  483SOL    HW2 1704   3.407   4.254   5.093  0.6861  0.4699 -0.2729
  483SOL    HW3 1705   3.529   4.225   5.178 -1.0216  0.6046  2.3205
  483SOL    MW4 1706   3.459   4.197   5.134  0.2303  0.4614  0.3010
  484SOL     OW 1707   3.693   0.438   4.531 -0.1373  0.3095 -0.0360
  484SOL    HW2 1708   3.604   0.418   4.500  0.0602 -0.5228 -0.0886
  484SOL    HW3 1709   3.723   0.509   4.475 -1.1550  1.3260  0.6503
  484SOL    MW4 1710   3.685   0.445   4.520 -0.2455  0.3338  0.0476
  485SOL     OW 1711   4.001   0.498   0.182 -0.3813 -0.2962 -0.1279
  485SOL    HW2 1712   3.993   0.587   0.214 -0.2881 -0.6450  0.8872
  485SOL    HW3 1713   4.081   0.464   0.224  0.3836 -0.4031 -1.5961
  485SOL    MW4 1714   4.011   0.505   0.192 -0.2681 -0.3563 -0.1877
  486SOL     OW 1715   4.351   2.975   4.433  0.6463  0.1834 -0.4045
  486SOL    HW2 1716   4.369   2.914   4.505 -0.8219  1.6485  1.2852
  486SOL    HW3 1717   4.264   2.950   4.401  0.8554  0.2060 -1.0151
  486SOL    MW4 1718   4.342   2.964   4.438  0.4802  0.3797 -0.2621
  487SOL     OW 1719   3.953   5.737   1.815  0.2496  0.1652  0.3839
  487SOL    HW2 1720   3.985   5.647   1.806 -1.2157 -0.3193 -0.3409
  487SOL    HW3 1721   4.000   5.772   1.891  1.3201 -0.9880  0.2891
  487SOL    MW4 1722   3.963   5.730   1.824  0.1975 -0.0509  0.2758
  488SOL     OW 1723   2.815   5.912   3.975 -0.0234 -0.3678 -0.6848
  488SOL    HW2 1724   2.883   5.866   4.025  2.4468  2.1418 -1.5098
  488SOL    HW3 1725   2.774   5.843   3.922  1.3882 -2.0911  0.3575
  488SOL    MW4 1726   2.819   5.896   3.974  0.4888 -0.2641 -0.6561
  489SOL     OW 1727   2.063   1.672   1.859  0.1711  0.2537  0.0597
  489SOL    HW2 1728   2.144   1.716   1.833  0.6886 -0.4191  0.4811
  489SOL    HW3 1729   2.092   1.584   1.885 -0.5442  0.3436  1.2227
  489SOL    MW4 1730   2.078   1.666   1.859  0.1450  0.1768  0.2688
  490SOL     OW 1731   0.297   2.073   2.361 -0.0406 -0.2918  0.2486
  490SOL    HW2 1732   0.384   2.049   2.393  0.8473  0.3038 -1.5502
  490SOL    HW3 1733   0.240   2.067   2.438  1.5370 -0.9197  1.4199
  490SOL    MW4 1734   0.301   2.069   2.375  0.2847 -0.2960  0.1658
  491SOL     OW 1735   2.494   0.505   6.238 -0.7041  0.2375 -0.7252
  491SOL    HW2 1736   2.524   0.595   6.255  5.2036 -1.2010 -1.1540
  491SOL    HW3 1737   2.496   0.498   6.142 -0.7396 -0.4252 -0.6788
  491SOL    MW4 1738   2.499   0.516   6.227  0.0706 -0.0397 -0.7756
  492SOL     OW 1739   3.555   5.789   0.110  0.2709 -0.7059 -0.4961
  492SOL    HW2 1740   3.649   5.800   0.126  0.3799 -1.3480 -0.6781
  492SOL    HW3 1741   3.539   5.696   0.124 -0.2539 -0.6817 -0.9053
  492SOL    MW4 1742   3.566   5.778   0.114  0.2161 -0.7875 -0.5741
  493SOL     OW 1743   5.507   3.067   1.820  0.0254 -0.5693 -0.1984
  493SOL    HW2 1744   5.448   3.005   1.776 -0.9104  1.2832 -1.7250
  493SOL    HW3 1745   5.493   3.052   1.913 -0.9319 -1.9217 -0.5296
  493SOL    MW4 1746   5.497   3.057   1.826 -0.2244 -0.5033 -0.4435
  494SOL     OW 1747   1.956   4.629   0.983  0.0866 -0.3303 -0.2226
  494SOL    HW2 1748   1.978   4.640   1.076 -1.2750  0.8860  0.0033
  494SOL    HW3 1749   2.016   4.688   0.937 -0.8541  0.9588  0.1426
  494SOL    MW4 1750   1.967   4.639   0.989 -0.2172  0.0003 -0.1446
  495SOL     OW 1751   5.718   3.026   0.063 -0.6113 -0.7736  0.7136
  495SOL    HW2 1752   5.797   3.074   0.087 -1.2677  0.4830  0.4432
  495SOL    HW3 1753   5.674   3.009   0.146 -1.3671  0.9009  0.7057
  495SOL    MW4 1754   5.723   3.030   0.077 -0.7976 -0.3869  0.6769
  496SOL     OW 1755   1.441   2.839   0.168 -0.0917  0.1576 -0.0302
  496SOL    HW2 1756   1.365   2.798   0.209 -0.2556 -1.2771 -1.6067
  496SOL    HW3 1757   1.404   2.897   0.102  0.1765  0.6166  0.2205
  496SOL    MW4 1758   1.426   2.841   0.164 -0.0779  0.0289 -0.2051
  497SOL     OW 1759   4.195   4.197   3.627 -0.6633  0.6621 -0.0536
  497SOL    HW2 1760   4.192   4.268   3.692  1.1429 -0.6924  1.6162
  497SOL    HW3 1761   4.274   4.215   3.575 -0.3055  0.0166  0.2499
  497SOL    MW4 1762   4.205   4.209   3.629 -0.3778  0.3982  0.2068
  498SOL     OW 1763   3.787   0.700   3.782  0.1833 -0.7338  0.2752
  498SOL    HW2 1764   3.696   0.695   3.811 -0.3919 -0.7777 -1.4341
  498SOL    HW3 1765   3.782   0.720   3.689  1.9633  0.7830  0.4374
  498SOL    MW4 1766   3.775   0.702   3.774  0.3423 -0.5394  0.0711
  499SOL     OW 1767   0.832   1.846   4.312 -0.2524 -0.4567  0.9073
  499SOL    HW2 1768   0.743   1.821   4.285 -0.1959 -0.3502  0.6120
  499SOL    HW3 1769   0.858   1.780   4.376 -0.2825 -0.8822  0.4805
  499SOL    MW4 1770   0.823   1.834   4.317 -0.2489 -0.4988  0.8120
  500SOL     OW 1771   5.018   0.548   0.069 -0.0694  0.0143  0.1358
  500SOL    HW2 1772   5.020   0.566   0.163 -0.8870  1.9368 -0.1779
  500SOL    HW3 1773   5.110   0.548   0.042  0.0672  2.1125  0.4969
  500SOL    MW4 1774   5.031   0.550   0.078 -0.1593  0.5448  0.1421
  501SOL     OW 1775   4.398   4.392   0.359  0.4225 -0.7113 -0.3118
  501SOL    HW2 1776   4.476   4.362   0.405 -0.3303 -1.2158  0.6834
  501SOL    HW3 1777   4.355   4.451   0.421 -0.0436 -0.5299 -0.7983
  501SOL    MW4 1778   4.403   4.396   0.374  0.2617 -0.7539 -0.2447
  502SOL     OW 1779   6.337   1.891   5.882  0.1102  0.2423 -0.0681
  502SOL    HW2 1780   6.387   1.845   5.949 -0.5930  0.9981  1.0244
  502SOL    HW3 1781   6.288   1.957   5.931 -1.0321  0.3027 -1.2425
  502SOL    MW4 1782   6.337   1.894   5.897 -0.1333  0.3499 -0.0789
  503SOL     OW 1783   5.996   6.200   1.502  0.4192 -0.6054  0.4262
  503SOL    HW2 1784   5.943   6.193   1.582  2.2695 -2.6877  1.5752
  503SOL    HW3 1785   6.082   6.229   1.534  0.7699  0.0261 -1.0397
  503SOL    MW4 1786   6.000   6.203   1.517  0.7096 -0.7968  0.3844
  504SOL     OW 1787   3.750   1.556   0.854 -0.4696 -0.2126 -0.2798
  504SOL    HW2 1788   3.680   1.557   0.920 -0.3538 -0.4847 -0.1521
  504SOL    HW3 1789   3.820   1.608   0.894 -1.2984  1.7161 -1.1923
  504SOL    MW4 1790   3.750   1.563   0.868 -0.5637  0.0059 -0.3833
  505SOL     OW 1791   5.135   5.301   2.752  0.5460 -0.3102  0.1902
  505SOL    HW2 1792   5.159   5.288   2.843  0.5354  1.9129  0.5484
  505SOL    HW3 1793   5.043   5.274   2.747  0.3145  0.3113  1.0215
  505SOL    MW4 1794   5.126   5.295   2.763  0.5140  0.0651  0.3471
  506SOL     OW 1795   3.708   0.360   1.645 -0.2435 -0.3863  0.1081
  506SOL    HW2 1796   3.658   0.303   1.587 -0.5324 -0.5603  0.5228
  506SOL    HW3 1797   3.647   0.381   1.716  0.3939 -0.9413  0.8358
  506SOL    MW4 1798   3.693   0.355   1.647 -0.1975 -0.4825  0.2588
  507SOL     OW 1799   5.704   4.541   2.044 -0.2483  0.1402  0.6099
  507SOL    HW2 1800   5.712   4.465   2.101 -1.9249  0.2982  1.1015
  507SOL    HW3 1801   5.724   4.507   1.956  1.6278 -0.2543  1.1318
  507SOL    MW4 1802   5.708   4.527   2.040 -0.2219  0.1090  0.7436
  508SOL     OW 1803   5.386   1.030   1.229 -0.4621  0.5416 -0.4713
  508SOL    HW2 1804   5.433   1.098   1.277  1.6882 -1.8040  1.0154
  508SOL    HW3 1805   5.454   0.968   1.203 -2.2281 -0.6948 -2.4243
  508SOL    MW4 1806   5.401   1.031   1.232 -0.4114  0.0690 -0.5328
  509SOL     OW 1807   5.492   2.564   1.569 -0.3353  0.3813  0.0287
  509SOL    HW2 1808   5.522   2.506   1.500  0.0515 -0.5862  0.9773
  509SOL    HW3 1809   5.404   2.532   1.590 -0.7238  1.1021 -0.4709
  509SOL    MW4 1810   5.484   2.552   1.563 -0.3355  0.3488  0.0880
  510SOL     OW 1811   1.551   4.677   3.825 -0.0552  0.3004 -0.3495
  510SOL    HW2 1812   1.539   4.771   3.837  0.9254  0.5647 -1.2247
  510SOL    HW3 1813   1.616   4.652   3.890  0.6748  0.5102 -0.9789
  510SOL    MW4 1814   1.558   4.686   3.835  0.1705  0.3630 -0.5480
  511SOL     OW 1815   1.009   3.543   4.002  0.3530 -0.3718 -0.3620
  511SOL    HW2 1816   1.025   3.637   4.008  0.0984 -0.4343  2.0302
  511SOL    HW3 1817   0.963   3.532   3.918 -0.5794  1.7705 -0.1956
  511SOL    MW4 1818   1.005   3.554   3.992  0.1964 -0.0974 -0.0244
  512SOL     OW 1819   2.506   3.636   1.246 -0.0620  0.0213 -0.1730
  512SOL    HW2 1820   2.484   3.561   1.301 -2.2566  0.8242  0.1567
  512SOL    HW3 1821   2.428   3.650   1.193  1.5842 -0.0178 -2.7337
  512SOL    MW4 1822   2.493   3.628   1.247 -0.1343  0.1221 -0.4674
  513SOL     OW 1823   6.266   3.229   3.673  0.1342 -0.3298 -0.5193
  513SOL    HW2 1824   6.322   3.208   3.598  0.5722  0.6330 -0.4713
  513SOL    HW3 1825   6.183   3.257   3.634  0.1611 -0.4076 -0.6319
  513SOL    MW4 1826   6.262   3.230   3.658  0.1956 -0.2131 -0.5278
  514SOL     OW 1827   5.916   1.071   6.126  0.2497 -0.4605 -0.4093
  514SOL    HW2 1828   5.934   1.160   6.095 -0.0232 -1.6222 -4.4503
  514SOL    HW3 1829   5.823   1.073   6.150  0.4293  0.4706  0.2883
  514SOL    MW4 1830   5.906   1.083   6.125  0.2374 -0.4910 -0.8505
  515SOL     OW 1831   0.443   3.286   4.421 -0.1858  0.1157  0.1969
  515SOL    HW2 1832   0.529   3.314   4.451  1.4941 -3.5376 -0.5848
  515SOL    HW3 1833   0.398   3.259   4.501  0.7297 -1.0105  0.3653
  515SOL    MW4 1834   0.448   3.286   4.436  0.1566 -0.5149  0.1160
  516SOL     OW 1835   5.907   5.373   4.448 -0.2276 -0.7721  0.1607
  516SOL    HW2 1836   5.928   5.390   4.356 -0.0190  0.4864  0.4228
  516SOL    HW3 1837   5.814   5.348   4.447 -0.8055  1.2176 -0.2054
  516SOL    MW4 1838   5.897   5.372   4.436 -0.2763 -0.3436  0.1470
  517SOL     OW 1839   4.560   2.575   3.212  0.5150  0.4919 -0.5201
  517SOL    HW2 1840   4.513   2.575   3.128  0.7411 -1.3844 -0.7026
  517SOL    HW3 1841   4.491   2.583   3.278 -0.0030 -0.9867 -0.8281
  517SOL    MW4 1842   4.545   2.576   3.210  0.4765  0.0492 -0.5848
  518SOL     OW 1843   4.111   5.935   3.883  0.2443  0.0228 -0.2025
  518SOL    HW2 1844   4.121   5.841   3.869  0.7870 -0.0417  0.5666
  518SOL    HW3 1845   4.166   5.976   3.816  0.7813 -0.2262  0.0848
  518SOL    MW4 1846   4.119   5.928   3.872  0.3867 -0.0186 -0.0632
  519SOL     OW 1847   4.473   1.976   1.853  0.4248 -0.0633 -0.0781
  519SOL    HW2 1848   4.541   1.988   1.788 -0.2714 -1.1097 -1.0373
  519SOL    HW3 1849   4.452   2.064   1.883  2.1856  0.2781  0.2648
  519SOL    MW4 1850   4.479   1.989   1.848  0.5653 -0.1563 -0.1594
  520SOL     OW 1851   4.034   2.719   2.760 -0.3853  0.4363  0.0340
  520SOL    HW2 1852   4.034   2.627   2.734  1.3532  0.8413 -1.6141
  520SOL    HW3 1853   3.946   2.734   2.795 -0.6203 -1.8920  0.6048
  520SOL    MW4 1854   4.023   2.709   2.761 -0.1869  0.1825 -0.1081
  521SOL     OW 1855   4.581   0.284   4.392  0.3457 -0.3672 -0.3326
  521SOL    HW2 1856   4.677   0.287   4.399  0.3321  2.0197 -0.1872
  521SOL    HW3 1857   4.565   0.239   4.309  1.5884 -0.7979 -0.3651
  521SOL    MW4 1858   4.592   0.279   4.382  0.5078 -0.1091 -0.3177
  522SOL     OW 1859   1.516   0.690   2.107  0.3166  0.5860 -0.4674
  522SOL    HW2 1860   1.426   0.657   2.113 -0.0036  1.4926 -0.1809
  522SOL    HW3 1861   1.570   0.614   2.128 -0.3950  0.1311 -0.2407
  522SOL    MW4 1862   1.511   0.676   2.111  0.1805  0.6456 -0.3997
  523SOL     OW 1863   0.467   0.180   2.460  0.3898 -0.2867 -0.0139
  523SOL    HW2 1864   0.465   0.116   2.531  1.3131 -0.0393  0.2501
  523SOL    HW3 1865   0.559   0.207   2.455  0.1810  0.3099 -0.7537
  523SOL    MW4 1866   0.479   0.176   2.469  0.4841 -0.1754 -0.0767
  524SOL     OW 1867   5.567   6.266   0.455  0.0132 -0.2832 -0.0850
  524SOL    HW2 1868   5.647   6.317   0.472 -2.4058  3.5063  1.3744
  524SOL    HW3 1869   5.545   6.285   0.364  0.2634 -0.4594 -0.1800
  524SOL    MW4 1870   5.575   6.276   0.445 -0.2729  0.1935  0.0950
  525SOL     OW 1871   1.957   5.449   0.592 -0.2145 -0.6267  0.6282
  525SOL    HW2 1872   1.867   5.427   0.617  0.4980 -2.0843  2.1580
  525SOL    HW3 1873   1.977   5.390   0.519 -0.2641 -0.8314  0.7787
  525SOL    MW4 1874   1.948   5.438   0.586 -0.1270 -0.8461  0.8499
  526SOL     OW 1875   2.423   5.921   0.418 -0.1276 -0.4517 -0.2073
  526SOL    HW2 1876   2.447   5.866   0.492  1.0888 -0.8558 -0.8851
  526SOL    HW3 1877   2.502   5.971   0.398 -1.2518  1.8111  0.5725
  526SOL    MW4 1878   2.436   5.921   0.425 -0.1155 -0.2065 -0.1938
  527SOL     OW 1879   0.053   6.111   0.375 -0.1168  0.6016  0.5705
  527SOL    HW2 1880   0.028   6.020   0.360  0.4477 -0.0090  2.9630
  527SOL    HW3 1881   0.147   6.113   0.355  0.2351  0.2223  2.0697
  527SOL    MW4 1882   0.062   6.099   0.370  0.0041  0.4710  1.0839
  528SOL     OW 1883   3.089   6.012   1.408  0.1428 -0.1583  0.2612
  528SOL    HW2 1884   3.038   6.069   1.350  0.6344  0.9663  0.8830
  528SOL    HW3 1885   3.117   6.071   1.479  2.2006 -0.7735  0.0024
  528SOL    MW4 1886   3.086   6.027   1.410  0.4791 -0.0911  0.3091
  529SOL     OW 1887   3.246   3.291   4.192  0.0580 -0.2238  0.3641
  529SOL    HW2 1888   3.327   3.336   4.218  0.2074 -1.2164  1.6923
  529SOL    HW3 1889   3.212   3.253   4.273 -1.2716 -0.5980 -0.3381
  529SOL    MW4 1890   3.252   3.292   4.206 -0.0977 -0.4042  0.4467
  530SOL     OW 1891   5.810   5.850   1.637  0.1749 -0.1569  0.0329
  530SOL    HW2 1892   5.723   5.817   1.615  0.6316 -1.9940  0.7381
  530SOL    HW3 1893   5.865   5.826   1.562  0.2368  0.2212 -0.0415
  530SOL    MW4 1894   5.806   5.842   1.624  0.2434 -0.3494  0.1161
  531SOL     OW 1895   4.869   0.296   0.024 -0.0337 -0.4617 -0.6454
  531SOL    HW2 1896   4.790   0.327  -0.020  0.7535  0.5008 -1.4243
  531SOL    HW3 1897   4.928   0.371   0.022  0.0501 -0.3717  2.0719
  531SOL    MW4 1898   4.866   0.310   0.018  0.0812 -0.3228 -0.3896
  532SOL     OW 1899   4.292   0.094   5.734 -0.3667 -0.1883 -0.1989
  532SOL    HW2 1900   4.268   0.149   5.809 -0.8001  1.1911 -1.2978
  532SOL    HW3 1901   4.269   0.005   5.761 -0.9063  0.3303  1.1426
  532SOL    MW4 1902   4.286   0.090   5.747 -0.4950  0.0621 -0.1669
  533SOL     OW 1903   3.083   3.415   5.010 -0.2744  0.4052  0.3362
  533SOL    HW2 1904   3.045   3.345   5.063 -0.7144  1.4382  1.4294
  533SOL    HW3 1905   3.011   3.477   4.997 -0.1992  0.1337 -1.5775
  533SOL    MW4 1906   3.068   3.414   5.016 -0.3225  0.5057  0.2279
  534SOL     OW 1907   5.129   2.975   2.038 -0.0397  0.0452 -0.1500
  534SOL    HW2 1908   5.075   2.907   2.080  0.8140  0.1188  1.1131
  534SOL    HW3 1909   5.142   2.943   1.949 -0.0758 -1.2195  0.2688
  534SOL    MW4 1910   5.123   2.962   2.032  0.0682 -0.1120  0.0719
  535SOL     OW 1911   1.228   4.813   4.412  0.6425 -0.5083 -0.6044
  535SOL    HW2 1912   1.187   4.757   4.478 -0.3264 -0.0795 -0.8151
  535SOL    HW3 1913   1.291   4.866   4.461  0.7292 -0.9729 -0.2118
  535SOL    MW4 1914   1.231   4.813   4.427  0.5261 -0.5130 -0.5804
  536SOL     OW 1915   3.850   5.322   0.133 -0.2763 -0.1948  0.1705
  536SOL    HW2 1916   3.811   5.398   0.090  0.9639 -0.5397 -1.6650
  536SOL    HW3 1917   3.804   5.247   0.094  0.5933 -0.5003 -0.2785
  536SOL    MW4 1918   3.839   5.322   0.122  0.0021 -0.2806 -0.1309
  537SOL     OW 1919   1.870   2.597   2.469  0.0562 -0.2320 -0.5199
  537SOL    HW2 1920   1.929   2.582   2.395 -0.8037  1.1296 -1.5341
  537SOL    HW3 1921   1.807   2.661   2.436 -1.5597 -1.0997  0.7516
  537SOL    MW4 1922   1.869   2.603   2.455 -0.2705 -0.1668 -0.4859
  538SOL     OW 1923   3.811   4.096   2.456  0.2621 -0.5808  0.5396
  538SOL    HW2 1924   3.777   4.114   2.544  1.1917  0.4139  0.7152
  538SOL    HW3 1925   3.906   4.105   2.466  0.2778  2.7934 -1.2252
  538SOL    MW4 1926   3.819   4.100   2.469  0.3868 -0.0044  0.3299
  539SOL     OW 1927   0.273   1.719   1.506  0.8682  0.0121  0.1576
  539SOL    HW2 1928   0.274   1.807   1.543  0.2385  0.0570  0.0821
  539SOL    HW3 1929   0.220   1.668   1.568  0.5793 -0.1282 -0.2034
  539SOL    MW4 1930   0.266   1.724   1.519  0.7470 -0.0005  0.1000
  540SOL     OW 1931   6.047   5.531   3.008 -0.1006 -0.2534  0.2659
  540SOL    HW2 1932   6.110   5.575   3.065  1.2888 -0.3825 -1.1073
  540SOL    HW3 1933   6.099   5.466   2.960 -0.8945  0.7868 -2.1582
  540SOL    MW4 1934   6.062   5.528   3.009 -0.0220 -0.1332 -0.2351
  541SOL     OW 1935   2.181   3.368   4.912 -0.0740 -0.2620 -0.1310
  541SOL    HW2 1936   2.192   3.303   4.981 -1.9651 -0.3891  0.0986
  541SOL    HW3 1937   2.103   3.340   4.864 -1.1266  1.9468  0.1409
  541SOL    MW4 1938   2.172   3.356   4.915 -0.4624  0.0126 -0.0648
  542SOL     OW 1939   4.063   1.470   1.555 -0.1085 -0.2655 -0.7974
  542SOL    HW2 1940   4.002   1.484   1.627 -0.2716 -0.1718 -0.9535
  542SOL    HW3 1941   4.131   1.413   1.592 -0.3544 -0.4694 -0.6585
  542SOL    MW4 1942   4.064   1.464   1.569 -0.1625 -0.2801 -0.7997
  543SOL     OW 1943   5.451   3.949   3.689  0.0100  0.1962 -0.5591
  543SOL    HW2 1944   5.484   3.966   3.777  2.0544 -0.2090 -1.2121
  543SOL    HW3 1945   5.373   4.005   3.681  0.4699  1.1058  1.0754
  543SOL    MW4 1946   5.445   3.959   3.699  0.3404  0.2628 -0.4296
  544SOL     OW 1947   2.215   4.376   3.479 -0.0823 -0.6482  0.0008
  544SOL    HW2 1948   2.235   4.465   3.450 -0.0015 -0.8643 -0.6206
  544SOL    HW3 1949   2.166   4.337   3.406 -1.7992 -0.5101  1.0116
  544SOL    MW4 1950   2.211   4.383   3.466 -0.2981 -0.6585  0.0522
  545SOL     OW 1951   2.933   5.565   3.626 -0.0988  0.3132  0.0324
  545SOL    HW2 1952   2.943   5.624   3.701 -0.4950 -1.4265  1.5360
  545SOL    HW3 1953   2.862   5.506   3.652  0.4879 -1.0139 -1.2702
  545SOL    MW4 1954   2.925   5.565   3.639 -0.0737 -0.0914  0.0589
  546SOL     OW 1955   5.879   5.131   1.813 -0.8211 -0.6867  0.9665
  546SOL    HW2 1956   5.848   5.062   1.872  0.2884  0.1174  2.5456
  546SOL    HW3 1957   5.840   5.211   1.846 -0.2587 -0.2379  0.5596
  546SOL    MW4 1958   5.870   5.132   1.825 -0.6005 -0.5214  1.1212
  547SOL     OW 1959   1.569   0.810   3.640 -0.5366  0.3781  0.2052
  547SOL    HW2 1960   1.598   0.719   3.631 -0.9749  0.2584 -0.0320
  547SOL    HW3 1961   1.617   0.843   3.716  0.9364  0.4768 -0.7329
  547SOL    MW4 1962   1.579   0.802   3.649 -0.4001  0.3753  0.0501
  548SOL     OW 1963   6.265   3.651   5.257  0.6162 -0.1036  0.2348
  548SOL    HW2 1964   6.205   3.620   5.189  1.2781 -2.4838  0.6335
  548SOL    HW3 1965   6.347   3.604   5.240  0.5293 -1.5454  3.1497
  548SOL    MW4 1966   6.268   3.640   5.246  0.6921 -0.6079  0.6720
  549SOL     OW 1967   4.356   2.573   0.449  1.1409  0.0421 -0.4839
  549SOL    HW2 1968   4.272   2.566   0.494  0.9749 -1.5169 -0.9651
  549SOL    HW3 1969   4.414   2.615   0.512  0.5373 -0.7531  0.6463
  549SOL    MW4 1970   4.353   2.578   0.463  1.0394 -0.2685 -0.3983
  550SOL     OW 1971   1.455   1.084   4.746  0.4180 -0.3373  0.6210
  550SOL    HW2 1972   1.461   1.128   4.830  1.5726 -1.3510  1.0978
  550SOL    HW3 1973   1.362   1.060   4.738  0.2947 -0.1953  1.5777
  550SOL    MW4 1974   1.443   1.086   4.756  0.5540 -0.4523  0.8101
  551SOL     OW 1975   3.216   0.945   5.098  0.6565  0.3678  0.6622
  551SOL    HW2 1976   3.229   0.865   5.048 -0.0688  0.2207  0.7001
  551SOL    HW3 1977   3.147   0.923   5.161  0.1373  1.1430  0.3796
  551SOL    MW4 1978   3.209   0.932   5.100  0.4923  0.4507  0.6299
  552SOL     OW 1979   3.965   2.978   5.003 -0.0481  0.2066 -0.4989
  552SOL    HW2 1980   3.903   3.026   5.059  2.0940  1.0404  1.2960
  552SOL    HW3 1981   4.023   2.934   5.064  0.1137 -2.0152 -2.1338
  552SOL    MW4 1982   3.964   2.979   5.019  0.2559  0.0235 -0.4778
  553SOL     OW 1983   0.822   4.078   0.311 -0.2391  0.9653  0.2047
  553SOL    HW2 1984   0.853   4.163   0.342  0.6559  1.2578 -1.3733
  553SOL    HW3 1985   0.730   4.074   0.338  0.1515  1.7085  1.7193
  553SOL    MW4 1986   0.814   4.089   0.319 -0.0695  1.1019  0.1963
  554SOL     OW 1987   4.981   4.926   1.338 -0.6724  0.5386 -0.1619
  554SOL    HW2 1988   4.903   4.906   1.285 -0.8497 -0.0128  0.2921
  554SOL    HW3 1989   4.993   5.020   1.330 -0.3336  0.3879 -1.6809
  554SOL    MW4 1990   4.972   4.936   1.330 -0.6511  0.4460 -0.3025
  555SOL     OW 1991   3.506   6.113   3.741 -0.0755 -0.3199  0.1992
  555SOL    HW2 1992   3.474   6.128   3.652  0.8173 -0.2611 -0.1219
  555SOL    HW3 1993   3.453   6.040   3.773 -0.5952 -0.1593 -0.2812
  555SOL    MW4 1994   3.495   6.105   3.734 -0.0263 -0.2910  0.0935
  556SOL     OW 1995   3.842   3.737   5.529 -0.6628  0.1109 -0.0744
  556SOL    HW2 1996   3.820   3.816   5.479  2.3309  0.7500 -0.5752
  556SOL    HW3 1997   3.876   3.676   5.463  3.1786  0.9009  0.9476
  556SOL    MW4 1998   3.843   3.740   5.514  0.2390  0.2994 -0.0056
  557SOL     OW 1999   3.088   5.719   0.634 -0.4457  0.1029 -0.1598
  557SOL    HW2 2000   2.996   5.708   0.612 -0.8925  1.0166  1.1423
  557SOL    HW3 2001   3.128   5.751   0.553 -1.8595  2.5101  0.0081
  557SOL    MW4 2002   3.081   5.722   0.620 -0.6912  0.5410  0.0342
  558SOL     OW 2003   1.329   5.789   3.516 -0.3262  0.2683  0.5016
  558SOL    HW2 2004   1.268   5.734   3.467 -0.9925  0.8508  0.6600
  558SOL    HW3 2005   1.304   5.779   3.607  0.2171  0.0352  0.6330
  558SOL    MW4 2006   1.318   5.781   3.521 -0.3424  0.3144  0.5399
  559SOL     OW 2007   6.186   3.715   1.103 -0.3893 -0.2701  0.3528
  559SOL    HW2 2008   6.278   3.698   1.123  0.5395  3.0309 -0.5225
  559SOL    HW3 2009   6.189   3.778   1.031 -3.2679  1.7032  1.7987
  559SOL    MW4 2010   6.199   3.721   1.096 -0.6466  0.4258  0.4281
  560SOL     OW 2011   4.269   2.160   4.872 -0.0027  0.6111  0.1606
  560SOL    HW2 2012   4.364   2.148   4.880 -0.1903 -1.0709  0.2928
  560SOL    HW3 2013   4.247   2.119   4.789 -0.8688 -0.9564  1.1073
  560SOL    MW4 2014   4.279   2.153   4.862 -0.1417  0.1824  0.3029
  561SOL     OW 2015   4.124   1.016   2.393  0.4013 -0.0212  0.2250
  561SOL    HW2 2016   4.094   0.928   2.415  2.2078 -0.6451  0.3878
  561SOL    HW3 2017   4.058   1.075   2.430  0.1853 -1.2529  1.8834
  561SOL    MW4 2018   4.111   1.012   2.401  0.6111 -0.2660  0.4653
  562SOL     OW 2019   3.965   1.593   6.406  0.4337  0.2799  0.0614
  562SOL    HW2 2020   3.903   1.562   6.471  1.0088 -1.0962 -0.0015
  562SOL    HW3 2021   3.964   1.525   6.338  1.4669  0.5774 -0.2706
  562SOL    MW4 2022   3.957   1.580   6.406  0.6459  0.1376  0.0093
  563SOL     OW 2023   4.845   4.542   6.139  0.6604  0.3706  0.0568
  563SOL    HW2 2024   4.928   4.528   6.094  1.5087  2.6663  0.7725
  563SOL    HW3 2025   4.785   4.569   6.069  1.2331  1.2384 -0.1167
  563SOL    MW4 2026   4.848   4.544   6.124  0.8479  0.7880  0.1284
  564SOL     OW 2027   3.915   4.156   6.228  0.3806  0.5127 -0.3171
  564SOL    HW2 2028   3.837   4.210   6.237  0.1177  0.2472 -0.9652
  564SOL    HW3 2029   3.885   4.076   6.184  0.4276 -0.8905  2.0277
  564SOL    MW4 2030   3.901   4.153   6.223  0.3521  0.2925 -0.0933
  565SOL     OW 2031   5.892   5.092   4.170 -0.4517  0.5621  0.1842
  565SOL    HW2 2032   5.797   5.092   4.157 -0.1480  2.0778 -2.5654
  565SOL    HW3 2033   5.927   5.049   4.092  1.1057 -3.6369  2.8465
  565SOL    MW4 2034   5.884   5.086   4.158 -0.2062  0.2080  0.1727
  566SOL     OW 2035   4.904   1.897   1.995 -0.1219 -0.3598  0.3091
  566SOL    HW2 2036   4.856   1.975   2.022  1.6003  0.3850  1.3585
  566SOL    HW3 2037   4.847   1.824   2.021 -1.9860  0.4944 -1.1417
  566SOL    MW4 2038   4.890   1.898   2.002 -0.1406 -0.1488  0.2561
  567SOL     OW 2039   2.031   1.966   2.303 -0.3138  0.3512 -0.3305
  567SOL    HW2 2040   2.123   1.993   2.307 -0.5394  1.5293 -1.9835
  567SOL    HW3 2041   2.024   1.921   2.219 -0.8460 -1.4952  0.6601
  567SOL    MW4 2042   2.043   1.964   2.293 -0.4138  0.2630 -0.4179
  568SOL     OW 2043   4.730   6.184   4.896  0.0907 -0.4352  0.0905
  568SOL    HW2 2044   4.700   6.258   4.949 -1.4566 -0.9361 -0.0523
  568SOL    HW3 2045   4.822   6.204   4.877  0.6551 -0.1302  2.7693
  568SOL    MW4 2046   4.739   6.196   4.901 -0.0390 -0.4610  0.4251
  569SOL     OW 2047   5.396   1.207   5.656  0.3039 -0.4209 -0.0387
  569SOL    HW2 2048   5.323   1.268   5.664  0.2667 -0.1749 -1.7513
  569SOL    HW3 2049   5.467   1.247   5.706  0.0619  0.6905 -0.5572
  569SOL    MW4 2050   5.396   1.220   5.664  0.2671 -0.2418 -0.3331
  570SOL     OW 2051   4.715   1.698   4.527 -0.1500  0.3869  0.3243
  570SOL    HW2 2052   4.795   1.674   4.479 -0.0899  0.1726  0.5262
  570SOL    HW3 2053   4.644   1.681   4.466 -0.1128 -0.4012  0.4901
  570SOL    MW4 2054   4.717   1.693   4.513 -0.1371  0.2547  0.3728
  571SOL     OW 2055   0.706   4.444   1.174 -0.1032 -0.7202 -0.6975
  571SOL    HW2 2056   0.800   4.435   1.158  0.5835  2.3579  0.8497
  571SOL    HW3 2057   0.682   4.525   1.130 -1.8205 -0.9610 -0.2560
  571SOL    MW4 2058   0.715   4.453   1.166 -0.2392 -0.3459 -0.4351
  572SOL     OW 2059   0.095   4.414   3.113 -0.2149  0.4431 -0.3034
  572SOL    HW2 2060   0.066   4.398   3.202 -1.3507 -0.0623 -0.7440
  572SOL    HW3 2061   0.033   4.365   3.058  1.4747 -0.6632 -1.3039
  572SOL    MW4 2062   0.083   4.406   3.117 -0.1418  0.2305 -0.4935
  573SOL     OW 2063   0.745   2.478   2.260  0.2179  0.6606 -0.4615
  573SOL    HW2 2064   0.785   2.531   2.328 -2.2446  1.8376  0.2004
  573SOL    HW3 2065   0.729   2.393   2.302 -1.2577  1.3680  0.4910
  573SOL    MW4 2066   0.748   2.473   2.275 -0.3017  0.9093 -0.2485
  574SOL     OW 2067   2.211   1.277   2.984 -0.2894 -0.2434  0.3360
  574SOL    HW2 2068   2.154   1.342   2.942  1.8069  3.8270  3.0358
  574SOL    HW3 2069   2.170   1.263   3.070  0.2556 -1.1359  0.4553
  574SOL    MW4 2070   2.198   1.284   2.990  0.0591  0.1759  0.7079
  575SOL     OW 2071   1.379   0.319   2.153  0.1844  0.1258  0.0965
  575SOL    HW2 2072   1.300   0.286   2.111 -0.8539  0.4700  1.6800
  575SOL    HW3 2073   1.426   0.241   2.182 -0.4980 -0.0728  0.7152
  575SOL    MW4 2074   1.375   0.304   2.151 -0.0426  0.1450  0.3871
  576SOL     OW 2075   3.755   1.096   3.260 -0.2218 -0.0888 -0.1452
  576SOL    HW2 2076   3.673   1.096   3.211 -0.4580 -1.8111  0.1579
  576SOL    HW3 2077   3.809   1.163   3.218 -2.0355  1.6575  0.1520
  576SOL    MW4 2078   3.751   1.105   3.248 -0.4923 -0.0856 -0.0660
  577SOL     OW 2079   2.165   5.762   5.779  0.2804  0.0445  0.0481
  577SOL    HW2 2080   2.193   5.833   5.721  4.0207 -2.9544 -2.2864
  577SOL    HW3 2081   2.219   5.774   5.858  0.3830  0.1400 -0.0367
  577SOL    MW4 2082   2.176   5.773   5.782  0.7874 -0.3385 -0.2711
  578SOL     OW 2083   1.569   0.558   0.712 -0.0292  0.7002 -0.1931
  578SOL    HW2 2084   1.622   0.636   0.727  1.4070 -0.4357  0.8470
  578SOL    HW3 2085   1.632   0.489   0.693 -1.2317 -0.3565 -0.4895
  578SOL    MW4 2086   1.584   0.559   0.711  0.0016  0.4109 -0.0949
  579SOL     OW 2087   3.431   2.325   4.544  0.1513 -0.0733  0.0443
  579SOL    HW2 2088   3.361   2.261   4.558 -0.6141  0.3627 -1.5740
  579SOL    HW3 2089   3.387   2.410   4.542  0.8947  0.3313  0.1871
  579SOL    MW4 2090   3.416   2.328   4.546  0.1484  0.0376 -0.1504
  580SOL     OW 2091   1.349   1.128   3.226  0.0364  0.2322 -0.1133
  580SOL    HW2 2092   1.328   1.104   3.136  0.5649  0.2474 -0.2451
  580SOL    HW3 2093   1.266   1.120   3.274  0.2499 -2.2323 -0.0485
  580SOL    MW4 2094   1.335   1.124   3.221  0.1343 -0.0910 -0.1222
  581SOL     OW 2095   3.026   1.063   2.417 -0.5438  0.3917 -0.8249
  581SOL    HW2 2096   3.056   1.008   2.345  0.3394 -0.4863  0.1886
  581SOL    HW3 2097   2.933   1.077   2.399 -0.1238  1.1246 -2.7130
  581SOL    MW4 2098   3.018   1.058   2.405 -0.3718  0.3725 -0.9403
  582SOL     OW 2099   3.804   5.613   0.274 -0.4770  0.0048  0.0149
  582SOL    HW2 2100   3.760   5.641   0.354  1.1264 -1.4821  1.4740
  582SOL    HW3 2101   3.897   5.627   0.290 -0.1653  0.6920 -2.0285
  582SOL    MW4 2102   3.810   5.618   0.287 -0.2243 -0.1007 -0.0622
  583SOL     OW 2103   4.555   3.024   2.367  0.8261 -0.1513 -0.4330
  583SOL    HW2 2104   4.539   3.075   2.447  0.6586  1.7129 -1.5851
  583SOL    HW3 2105   4.477   3.038   2.314  1.3263 -0.5804 -1.3070
  583SOL    MW4 2106   4.543   3.033   2.370  0.8700  0.0380 -0.7003
  584SOL     OW 2107   2.475   6.334   3.559 -1.0674  0.3668 -0.1312
  584SOL    HW2 2108   2.512   6.246   3.559  1.3169  1.2912  0.3512
  584SOL    HW3 2109   2.422   6.338   3.479 -1.8701 -1.7123  0.2518
  584SOL    MW4 2110   2.473   6.323   3.548 -0.8587  0.2144 -0.0170
  585SOL     OW 2111   5.149   5.616   4.372  0.1746 -0.3309 -0.2628
  585SOL    HW2 2112   5.104   5.697   4.396  0.6129  0.5781 -2.2792
  585SOL    HW3 2113   5.234   5.623   4.415  0.2416  0.3258 -0.4925
  585SOL    MW4 2114   5.154   5.628   4.381  0.2413 -0.1243 -0.5592
  586SOL     OW 2115   0.924   0.912   1.475  0.1915 -0.1148 -0.8451
  586SOL    HW2 2116   0.972   0.927   1.394 -0.0703  0.2843 -0.9277
  586SOL    HW3 2117   0.972   0.962   1.541 -0.6460  1.0868 -1.1089
  586SOL    MW4 2118   0.936   0.921   1.473  0.0465  0.0964 -0.8908
  587SOL     OW 2119   2.338   3.444   2.328  0.0614  0.0637  0.1405
  587SOL    HW2 2120   2.347   3.492   2.410  0.6623  0.7680 -0.3193
  587SOL    HW3 2121   2.425   3.448   2.288 -0.6037  1.2400 -1.3120
  587SOL    MW4 2122   2.350   3.451   2.333  0.0529  0.3118 -0.1118
  588SOL     OW 2123   4.068   4.768   3.711 -0.5782  0.6991  0.6806
  588SOL    HW2 2124   4.157   4.769   3.747  0.4583 -1.2578 -1.6027
  588SOL    HW3 2125   4.020   4.710   3.770  1.2050 -2.8324 -1.0579
  588SOL    MW4 2126   4.074   4.761   3.724 -0.2062 -0.0250  0.1500
  589SOL     OW 2127   6.365   4.966   1.205 -0.4418  0.0942 -0.5170
  589SOL    HW2 2128   6.351   4.920   1.287 -2.4819 -1.1486 -1.4908
  589SOL    HW3 2129   6.376   4.897   1.140 -1.3845  0.9880 -1.6668
  589SOL    MW4 2130   6.365   4.951   1.207 -0.8354  0.0482 -0.7972
  590SOL     OW 2131   3.406   3.577   1.008 -0.3021 -0.3696 -0.5191
  590SOL    HW2 2132   3.447   3.582   0.922  0.5251  1.6772 -0.0476
  590SOL    HW3 2133   3.425   3.488   1.039  1.3371 -0.3908 -1.4984
  590SOL    MW4 2134   3.414   3.566   1.001  0.0233 -0.1024 -0.5861
  591SOL     OW 2135   3.531   3.662   5.439  0.1455  0.0204 -0.2742
  591SOL    HW2 2136   3.492   3.731   5.385  0.9159  0.0870 -0.7524
  591SOL    HW3 2137   3.485   3.669   5.523 -0.3120  0.6199 -0.5669
  591SOL    MW4 2138   3.520   3.672   5.443  0.1868  0.1083 -0.3759
  592SOL     OW 2139   5.853   0.125   0.273  0.3566 -0.1273 -0.0469
  592SOL    HW2 2140   5.790   0.194   0.294 -0.2831 -0.0587 -1.9975
  592SOL    HW3 2141   5.935   0.156   0.310 -0.2759  0.8580  0.5866
  592SOL    MW4 2142   5.855   0.138   0.280  0.1888  0.0118 -0.2207
  593SOL     OW 2143   2.827   4.644   4.965  0.3297  0.5788  0.2636
  593SOL    HW2 2144   2.838   4.719   4.905 -0.1905 -0.8056 -1.6676
  593SOL    HW3 2145   2.733   4.624   4.960  0.7838 -1.5181 -0.9902
  593SOL    MW4 2146   2.816   4.652   4.956  0.3210  0.1195 -0.1566
  594SOL     OW 2147   5.004   5.283   6.329  0.0713  0.2090 -0.3956
  594SOL    HW2 2148   4.925   5.329   6.356 -1.1425 -1.6288 -0.6324
  594SOL    HW3 2149   5.045   5.257   6.411 -0.4696 -0.2483 -0.2598
  594SOL    MW4 2150   4.999   5.286   6.343 -0.1602 -0.0938 -0.4089
  595SOL     OW 2151   1.045   0.459   0.454 -0.8649 -0.3270 -0.4368
  595SOL    HW2 2152   0.998   0.448   0.537  0.4190  0.4173  0.4288
  595SOL    HW3 2153   0.985   0.510   0.399 -1.3760 -0.0364  0.3714
  595SOL    MW4 2154   1.031   0.465   0.458 -0.7629 -0.1905 -0.2160
  596SOL     OW 2155   4.454   3.279   3.738  0.1925 -0.2085 -0.1400
  596SOL    HW2 2156   4.447   3.303   3.645 -0.8217 -0.2752 -0.0962
  596SOL    HW3 2157   4.365   3.289   3.772  0.5269 -0.3139  0.7986
  596SOL    MW4 2158   4.441   3.283   3.730  0.1028 -0.2312 -0.0104
  597SOL     OW 2159   4.571   4.511   4.048 -0.4578 -0.1347 -0.2638
  597SOL    HW2 2160   4.598   4.602   4.032  0.2535 -0.4385 -0.8168
  597SOL    HW3 2161   4.507   4.493   3.979 -0.6616 -0.0366 -0.1042
  597SOL    MW4 2162   4.566   4.521   4.037 -0.3908 -0.1619 -0.3157
  598SOL     OW 2163   0.506   0.950   4.358 -0.1013  0.3330  0.3688
  598SOL    HW2 2164   0.522   1.033   4.313  2.2045 -0.2792 -0.0636
  598SOL    HW3 2165   0.569   0.889   4.320 -1.5231 -1.5661  0.8919
  598SOL    MW4 2166   0.516   0.953   4.347  0.0153  0.0016  0.3808
  599SOL     OW 2167   6.117   2.123   1.882  0.3551 -0.0316 -0.1259
  599SOL    HW2 2168   6.023   2.110   1.877  0.3070  0.2848 -0.0626
  599SOL    HW3 2169   6.144   2.144   1.792  0.1721  1.1270  0.0697
  599SOL    MW4 2170   6.108   2.124   1.869  0.3246  0.1630 -0.0917
  600SOL     OW 2171   1.140   0.597   4.438 -0.1384  0.0462  0.3820
  600SOL    HW2 2172   1.087   0.623   4.362  0.9783  0.5908 -0.2464
  600SOL    HW3 2173   1.163   0.506   4.421 -1.6454 -0.5039  1.1410
  600SOL    MW4 2174   1.136   0.589   4.425 -0.1899  0.0455  0.3992
  601SOL     OW 2175   5.363   5.997   5.845  0.3527  0.4821 -0.4261
  601SOL    HW2 2176   5.361   6.077   5.898 -2.1440 -0.7198  1.5064
  601SOL    HW3 2177   5.365   6.029   5.755 -0.8577  2.7872  0.2725
  601SOL    MW4 2178   5.363   6.012   5.840 -0.1365  0.6277 -0.0789
  602SOL     OW 2179   4.002   6.199   2.828  0.4312 -0.1133  0.7608
  602SOL    HW2 2180   3.993   6.251   2.908  2.1926 -1.1802  1.7182
  602SOL    HW3 2181   4.096   6.192   2.814  0.3220 -3.3650  0.9614
  602SOL    MW4 2182   4.013   6.205   2.837  0.6492 -0.6831  0.9136
  603SOL     OW 2183   6.070   1.754   1.657  0.0216  0.0834  0.7242
  603SOL    HW2 2184   6.061   1.787   1.746  2.4720  0.5417  0.8603
  603SOL    HW3 2185   6.011   1.678   1.654 -1.3882  1.0560  2.1635
  603SOL    MW4 2186   6.061   1.748   1.668  0.1589  0.2722  0.9320
  604SOL     OW 2187   5.456   4.195   2.421  0.2693  0.0791  0.4999
  604SOL    HW2 2188   5.521   4.169   2.486  0.3621  1.1105  0.8396
  604SOL    HW3 2189   5.379   4.220   2.472 -0.6681 -1.7553  0.0814
  604SOL    MW4 2190   5.454   4.195   2.436  0.1579 -0.0269  0.4895
  605SOL     OW 2191   3.577   0.914   3.481 -0.1875 -0.2230  0.1082
  605SOL    HW2 2192   3.615   0.957   3.558  1.1444 -0.7428 -0.2385
  605SOL    HW3 2193   3.519   0.980   3.444  0.8121  0.8280  0.3340
  605SOL    MW4 2194   3.574   0.928   3.487  0.1201 -0.1529  0.0923
  606SOL     OW 2195   3.166   0.257   2.319  0.2284 -0.6558  0.8704
  606SOL    HW2 2196   3.112   0.314   2.375  1.0128 -0.0628  1.0371
  606SOL    HW3 2197   3.103   0.217   2.259 -0.2794  0.8845  0.3244
  606SOL    MW4 2198   3.150   0.260   2.318  0.2649 -0.3743  0.8204
  607SOL     OW 2199   2.584   4.451   3.605  0.0516  0.0918  0.3861
  607SOL    HW2 2200   2.549   4.532   3.569 -2.3239 -1.4387 -1.0219
  607SOL    HW3 2201   2.574   4.461   3.700  0.3173  1.6316  0.2791
  607SOL    MW4 2202   2.578   4.463   3.613 -0.2268  0.0930  0.1862
  608SOL     OW 2203   5.316   5.233   3.489 -0.4300 -0.8294 -0.9894
  608SOL    HW2 2204   5.242   5.172   3.495 -1.0081 -0.2445 -1.8875
  608SOL    HW3 2205   5.278   5.313   3.453  0.4953 -0.2401 -0.6931
  608SOL    MW4 2206   5.301   5.236   3.485 -0.3842 -0.6745 -1.0688
  609SOL     OW 2207   1.042   2.446   3.706 -0.2887 -0.2137 -0.6693
  609SOL    HW2 2208   1.064   2.419   3.616 -0.9599 -0.0649 -0.8788
  609SOL    HW3 2209   0.975   2.384   3.734  0.5937 -0.8521  0.0857
  609SOL    MW4 2210   1.036   2.434   3.698 -0.2608 -0.2783 -0.5973
  610SOL     OW 2211   4.765   3.141   1.700 -0.1555  0.3489 -0.0155
  610SOL    HW2 2212   4.795   3.100   1.781  0.0277  0.2291 -0.1432
  610SOL    HW3 2213   4.839   3.133   1.641 -0.5124 -0.1517 -0.4069
  610SOL    MW4 2214   4.778   3.134   1.703 -0.1784  0.2670 -0.0840
  611SOL     OW 2215   6.251   1.098   0.927 -0.0398 -0.3162 -0.9180
  611SOL    HW2 2216   6.283   1.152   0.855 -1.3268  0.6096 -0.8431
  611SOL    HW3 2217   6.259   1.008   0.897  3.0472 -0.1988 -0.6980
  611SOL    MW4 2218   6.256   1.093   0.914  0.1977 -0.1786 -0.8791
  612SOL     OW 2219   0.427   4.088   2.395 -0.2941 -0.1785  0.3727
  612SOL    HW2 2220   0.333   4.082   2.379 -0.1541 -0.6990 -0.2781
  612SOL    HW3 2221   0.466   4.086   2.308  0.3225  0.0349  0.6408
  612SOL    MW4 2222   0.420   4.087   2.382 -0.1943 -0.2190  0.3222
  613SOL     OW 2223   4.506   3.146   4.092 -0.2336  0.3720 -0.0732
  613SOL    HW2 2224   4.438   3.208   4.118 -0.9773 -1.2086  2.0480
  613SOL    HW3 2225   4.588   3.192   4.111 -0.6991  1.5564 -0.7922
  613SOL    MW4 2226   4.508   3.160   4.098 -0.3931  0.3197  0.1118
  614SOL     OW 2227   4.313   3.767   0.323 -0.7834 -0.7711  0.1060
  614SOL    HW2 2228   4.238   3.802   0.276  0.0072 -0.3902 -0.8856
  614SOL    HW3 2229   4.300   3.672   0.321 -0.3363 -0.8298 -1.6548
  614SOL    MW4 2230   4.302   3.759   0.317 -0.6201 -0.7286 -0.2572
  615SOL     OW 2231   5.070   4.457   4.750  0.5042  0.1761 -0.4979
  615SOL    HW2 2232   4.992   4.508   4.770  0.5794  0.0744  0.0759
  615SOL    HW3 2233   5.060   4.432   4.658  0.2371  0.8190 -0.6484
  615SOL    MW4 2234   5.059   4.460   4.740  0.4789  0.2475 -0.4420
  616SOL     OW 2235   1.605   1.641   5.456 -0.2998  0.0763 -0.1213
  616SOL    HW2 2236   1.614   1.582   5.531 -0.8773  0.0361 -0.0767
  616SOL    HW3 2237   1.693   1.647   5.419  0.3885  1.4996  1.6187
  616SOL    MW4 2238   1.618   1.634   5.461 -0.2852  0.2588  0.1142
  617SOL     OW 2239   3.058   0.052   1.825 -0.2014 -0.3601 -0.2876
  617SOL    HW2 2240   3.041  -0.040   1.846  0.9243 -0.8405 -1.3563
  617SOL    HW3 2241   3.095   0.050   1.736  1.3513  0.9543  0.2740
  617SOL    MW4 2242   3.061   0.040   1.816  0.1520 -0.2501 -0.3545
  618SOL     OW 2243   0.946   1.476   3.477  0.0628  0.1285 -0.9054
  618SOL    HW2 2244   0.971   1.396   3.522 -0.6408  0.4367  0.0689
  618SOL    HW3 2245   0.912   1.533   3.546 -3.4126 -0.2948 -2.0827
  618SOL    MW4 2246   0.945   1.473   3.492 -0.4886  0.1133 -0.9322
  619SOL     OW 2247   5.869   4.263   0.664  0.7356  0.4761  0.1642
  619SOL    HW2 2248   5.857   4.356   0.644  2.8085  0.0506 -4.0914
  619SOL    HW3 2249   5.825   4.217   0.593  1.1771 -1.8028  1.2618
  619SOL    MW4 2250   5.861   4.269   0.652  1.0673  0.1192 -0.2524
  620SOL     OW 2251   0.830   4.836   1.986 -0.1856  0.5470 -0.2769
  620SOL    HW2 2252   0.789   4.901   2.044 -1.9110  0.0627 -0.8890
  620SOL    HW3 2253   0.756   4.797   1.939  1.0977  0.3981 -2.2600
  620SOL    MW4 2254   0.815   4.840   1.988 -0.2439  0.4635 -0.6193
  621SOL     OW 2255   3.321   5.602   3.815 -0.1329  0.0777  0.0716
  621SOL    HW2 2256   3.339   5.696   3.816  0.4498 -0.0298  1.3132
  621SOL    HW3 2257   3.313   5.581   3.722 -0.8308  1.4462 -0.2113
  621SOL    MW4 2258   3.323   5.612   3.803 -0.1481  0.2441  0.1981
  622SOL     OW 2259   3.770   2.783   4.650  0.1711 -0.2280  0.0682
  622SOL    HW2 2260   3.865   2.780   4.652  0.1882  0.1348 -0.0991
  622SOL    HW3 2261   3.743   2.696   4.620  0.4292 -0.5115  0.6620
  622SOL    MW4 2262   3.779   2.771   4.646  0.2074 -0.2176  0.1245
  623SOL     OW 2263   2.005   0.853   4.967  0.2761 -0.3920  1.0164
  623SOL    HW2 2264   2.082   0.799   4.984  0.8258 -0.8066 -2.1295
  623SOL    HW3 2265   2.015   0.880   4.875 -2.5827  0.7787  0.9528
  623SOL    MW4 2266   2.017   0.849   4.957 -0.0286 -0.2922  0.5929
  624SOL     OW 2267   2.280   5.883   6.298  0.0700 -0.0615 -0.5320
  624SOL    HW2 2268   2.197   5.928   6.306  0.1177 -0.0242 -0.2504
  624SOL    HW3 2269   2.266   5.819   6.228 -0.3827 -0.4718 -0.0748
  624SOL    MW4 2270   2.267   5.880   6.290  0.0166 -0.1107 -0.4345
  625SOL     OW 2271   2.801   0.700   3.145  0.1836  0.3808 -0.4581
  625SOL    HW2 2272   2.725   0.755   3.163  2.5228  3.5226  0.8900
  625SOL    HW3 2273   2.807   0.698   3.049 -1.5121  0.0585 -0.5930
  625SOL    MW4 2274   2.792   0.707   3.135  0.2685  0.7528 -0.2980
  626SOL     OW 2275   5.225   1.725   4.417 -0.3385  0.3493 -0.3018
  626SOL    HW2 2276   5.255   1.651   4.469  0.2523  1.2578  0.7037
  626SOL    HW3 2277   5.130   1.713   4.410 -0.6837  0.9204  2.2503
  626SOL    MW4 2278   5.216   1.714   4.423 -0.3061  0.5445  0.1676
  627SOL     OW 2279   2.869   2.966   2.155 -0.7234 -0.7549  0.2962
  627SOL    HW2 2280   2.868   3.010   2.070  1.4171 -0.7844  0.2013
  627SOL    HW3 2281   2.818   3.023   2.212  1.9830  2.0242  0.2102
  627SOL    MW4 2282   2.863   2.979   2.151 -0.0839 -0.3922  0.2723
  628SOL     OW 2283   1.440   2.787   5.609 -0.2469 -0.0443  0.4929
  628SOL    HW2 2284   1.488   2.868   5.594 -1.0620  0.5056  0.7776
  628SOL    HW3 2285   1.348   2.811   5.596 -0.5842 -0.6617  1.6073
  628SOL    MW4 2286   1.434   2.801   5.605 -0.3989 -0.0532  0.6775
  629SOL     OW 2287   3.167   3.253   3.036 -0.2995 -0.1705 -0.4396
  629SOL    HW2 2288   3.176   3.319   2.968 -1.1547 -1.2235 -1.6453
  629SOL    HW3 2289   3.077   3.221   3.026  0.0859 -1.5012  0.0959
  629SOL    MW4 2290   3.156   3.257   3.026 -0.3615 -0.4850 -0.5280
  630SOL     OW 2291   5.261   2.203   4.013  0.0377 -0.5388 -0.0243
  630SOL    HW2 2292   5.297   2.125   3.971 -0.2406  0.3362 -2.0430
  630SOL    HW3 2293   5.281   2.274   3.952 -1.5991  0.6084  0.6961
  630SOL    MW4 2294   5.268   2.202   3.999 -0.2149 -0.2720 -0.1956
  631SOL     OW 2295   5.289   0.160   4.335  0.7256  0.0935  0.7201
  631SOL    HW2 2296   5.359   0.122   4.387  0.2085  0.0744  1.4218
  631SOL    HW3 2297   5.329   0.235   4.291  1.7349 -1.1651 -0.6048
  631SOL    MW4 2298   5.303   0.165   4.336  0.7906 -0.0751  0.6378
  632SOL     OW 2299   2.770   6.210   5.776  0.0782 -0.4289  0.0070
  632SOL    HW2 2300   2.738   6.147   5.712  0.9999  0.1133 -1.0367
  632SOL    HW3 2301   2.779   6.291   5.726  1.3792 -0.1421  0.6735
  632SOL    MW4 2302   2.767   6.212   5.761  0.3714 -0.3195 -0.0428
  633SOL     OW 2303   4.503   1.396   0.335 -0.3085 -0.3760 -0.1617
  633SOL    HW2 2304   4.441   1.435   0.274 -1.1014 -1.1093  0.1541
  633SOL    HW3 2305   4.455   1.324   0.375  0.7477 -0.9490  0.1101
  633SOL    MW4 2306   4.489   1.392   0.332 -0.2738 -0.5484 -0.0842
  634SOL     OW 2307   0.612   5.021   0.975  0.1756  0.3846  0.1923
  634SOL    HW2 2308   0.683   5.067   0.930  1.2065 -1.5715 -0.2872
  634SOL    HW3 2309   0.650   4.993   1.058  0.0877 -0.9409 -0.1964
  634SOL    MW4 2310   0.626   5.023   0.980  0.3000 -0.0484  0.0778
  635SOL     OW 2311   5.499   4.650   0.013  0.0248  0.5603 -0.1563
  635SOL    HW2 2312   5.593   4.668   0.005 -0.2465  2.4585  0.3931
  635SOL    HW3 2313   5.473   4.693   0.095 -1.6505  1.6352 -1.1860
  635SOL    MW4 2314   5.508   4.658   0.023 -0.2320  0.9526 -0.2196
  636SOL     OW 2315   2.990   2.690   0.345 -0.7899 -0.2873  0.0755
  636SOL    HW2 2316   3.043   2.737   0.281 -1.6666  1.1636  0.3623
  636SOL    HW3 2317   3.017   2.599   0.337  0.8159  0.2230 -0.6625
  636SOL    MW4 2318   3.000   2.684   0.336 -0.6937 -0.0285  0.0160
  637SOL     OW 2319   2.854   2.742   4.342  0.7940 -0.5441  0.3665
  637SOL    HW2 2320   2.772   2.767   4.384  1.1118 -0.6757  1.0937
  637SOL    HW3 2321   2.838   2.750   4.248 -0.0148 -0.4756  0.5101
  637SOL    MW4 2322   2.841   2.746   4.335  0.7292 -0.5524  0.4814
  638SOL     OW 2323   5.317   6.036   3.550  0.2685  0.0835  0.0749
  638SOL    HW2 2324   5.226   6.063   3.564  0.8887  1.3008  2.4012
  638SOL    HW3 2325   5.318   5.943   3.572 -0.5916 -0.2216 -1.0769
  638SOL    MW4 2326   5.305   6.027   3.555  0.2369  0.2039  0.2298
  639SOL     OW 2327   2.073   4.644   0.237  0.6934 -0.2748 -0.2932
  639SOL    HW2 2328   2.091   4.602   0.322  1.0431  0.8922  0.2284
  639SOL    HW3 2329   2.138   4.607   0.178  1.0447 -0.4158  0.1747
  639SOL    MW4 2330   2.084   4.634   0.241  0.7859 -0.1395 -0.1627
  640SOL     OW 2331   0.569   1.193   1.051  0.5508 -0.5301  0.2853
  640SOL    HW2 2332   0.539   1.189   1.141 -0.1857  1.6999  0.2209
  640SOL    HW3 2333   0.550   1.283   1.024  2.2712 -0.6462 -1.5679
  640SOL    MW4 2334   0.562   1.204   1.059  0.6806 -0.2512  0.0323
  641SOL     OW 2335   4.529   2.025   4.843 -0.0486 -0.0716  0.8102
  641SOL    HW2 2336   4.622   2.050   4.845  0.0233 -0.2189 -0.1762
  641SOL    HW3 2337   4.531   1.929   4.843 -0.1642 -0.0818 -0.0389
  641SOL    MW4 2338   4.542   2.015   4.843 -0.0543 -0.0923  0.5680
  642SOL     OW 2339   2.308   1.200   6.139  0.3450 -0.1067  0.1762
  642SOL    HW2 2340   2.216   1.191   6.112  0.1951  0.5489  0.4355
  642SOL    HW3 2341   2.354   1.221   6.058  0.2929 -0.5931  0.0185
  642SOL    MW4 2342   2.302   1.202   6.124  0.3184 -0.0844  0.1896
  643SOL     OW 2343   1.647   0.231   3.784  0.2077 -0.5112  0.5892
  643SOL    HW2 2344   1.622   0.170   3.853 -0.6393 -0.7165  0.1075
  643SOL    HW3 2345   1.742   0.243   3.796  0.9987 -4.0469 -0.9695
  643SOL    MW4 2346   1.656   0.225   3.795  0.2003 -1.0047  0.3199
  644SOL     OW 2347   2.373   5.744   5.403  0.3455  0.1700 -0.4497
  644SOL    HW2 2348   2.330   5.722   5.321  2.3641 -0.5866 -1.3937
  644SOL    HW3 2349   2.315   5.807   5.446 -2.5775 -2.1203 -0.6915
  644SOL    MW4 2350   2.360   5.749   5.398  0.2262 -0.2320 -0.6061
  645SOL     OW 2351   4.734   2.997   4.870  0.1091 -0.3791  0.4730
  645SOL    HW2 2352   4.785   3.019   4.949 -0.4833  0.7686  0.5594
  645SOL    HW3 2353   4.646   3.031   4.888 -0.1377 -0.4530 -0.5316
  645SOL    MW4 2354   4.729   3.005   4.883 -0.0016 -0.2374  0.3518
  646SOL     OW 2355   6.418   1.305   4.785  0.1294  0.1890  0.0378
  646SOL    HW2 2356   6.394   1.373   4.847  1.1652  0.4510  0.1724
  646SOL    HW3 2357   6.447   1.353   4.707 -2.8081 -0.1193 -1.3885
  646SOL    MW4 2358   6.419   1.320   4.783 -0.1215  0.1829 -0.1326
  647SOL     OW 2359   5.877   1.361   2.499 -0.6740  0.1224  0.6866
  647SOL    HW2 2360   5.794   1.369   2.453 -0.0241  1.2694 -0.3240
  647SOL    HW3 2361   5.885   1.442   2.549 -0.5349 -0.3376  1.4323
  647SOL    MW4 2362   5.867   1.372   2.500 -0.5699  0.2130  0.6516
  648SOL     OW 2363   2.433   3.397   1.929 -0.5080 -0.3182  0.6840
  648SOL    HW2 2364   2.483   3.469   1.891 -0.1854  0.6959  2.9182
  648SOL    HW3 2365   2.355   3.438   1.965 -1.8871 -1.5712 -0.7439
  648SOL    MW4 2366   2.430   3.412   1.928 -0.6474 -0.3497  0.7904
  649SOL     OW 2367   6.329   6.160   1.241  0.0346  0.0922  0.5040
  649SOL    HW2 2368   6.398   6.129   1.299 -0.0598 -1.2147 -0.0496
  649SOL    HW3 2369   6.330   6.255   1.251  1.9812  0.1091  0.4207
  649SOL    MW4 2370   6.338   6.169   1.250  0.2790 -0.0780  0.4200
  650SOL     OW 2371   3.484   0.480   2.519 -0.4440 -0.0007  0.1608
  650SOL    HW2 2372   3.571   0.442   2.509 -0.8611 -0.9034 -0.1748
  650SOL    HW3 2373   3.463   0.515   2.433 -0.7655 -0.5930 -0.0125
  650SOL    MW4 2374   3.493   0.479   2.506 -0.5414 -0.1980  0.0937
  651SOL     OW 2375   0.921   4.730   1.012 -0.2652  0.4572 -0.0126
  651SOL    HW2 2376   0.954   4.786   1.082 -1.7773  0.7090  0.5352
  651SOL    HW3 2377   0.949   4.642   1.036  1.6432  0.8434 -0.5916
  651SOL    MW4 2378   0.929   4.726   1.024 -0.2129  0.5414 -0.0167
  652SOL     OW 2379   2.747   4.693   2.277  0.6860  0.0326  0.7544
  652SOL    HW2 2380   2.703   4.659   2.355  3.2160 -1.2721  1.7403
  652SOL    HW3 2381   2.790   4.616   2.240  1.0458  0.9977 -0.8851
  652SOL    MW4 2382   2.747   4.678   2.283  1.0673 -0.0122  0.6681
  653SOL     OW 2383   2.672   5.451   2.080  0.0464 -0.2507  0.1009
  653SOL    HW2 2384   2.724   5.380   2.120  1.3520 -0.6561 -2.1833
  653SOL    HW3 2385   2.586   5.411   2.063 -0.3954 -0.2035  1.9261
  653SOL    MW4 2386   2.667   5.436   2.083  0.1604 -0.2979  0.0404
  654SOL     OW 2387   2.207   2.274   1.951  0.5780 -0.2687 -0.1923
  654SOL    HW2 2388   2.253   2.356   1.968 -0.1419  0.4214 -1.4139
  654SOL    HW3 2389   2.132   2.275   2.010  1.5376 -0.9446  1.1083
  654SOL    MW4 2390   2.203   2.285   1.961  0.6097 -0.2668 -0.1819
  655SOL     OW 2391   1.742   3.588   3.142  0.4071  0.1765 -0.6690
  655SOL    HW2 2392   1.763   3.657   3.205  0.9580 -1.4388  1.0478
  655SOL    HW3 2393   1.777   3.508   3.183 -2.4912 -1.5304 -1.2502
  655SOL    MW4 2394   1.749   3.586   3.156  0.0974 -0.2618 -0.5192
  656SOL     OW 2395   2.526   1.610   0.864  0.8933 -0.4877 -0.1671
  656SOL    HW2 2396   2.491   1.521   0.871 -1.2341  0.3079 -0.0352
  656SOL    HW3 2397   2.451   1.663   0.838  1.4289  1.7207  2.4092
  656SOL    MW4 2398   2.511   1.605   0.861  0.6833 -0.0914  0.1902
  657SOL     OW 2399   3.947   4.469   3.676 -0.8384 -0.0458 -0.2079
  657SOL    HW2 2400   3.883   4.531   3.641  0.2246  0.7163 -0.8648
  657SOL    HW3 2401   3.930   4.388   3.628 -1.1734  0.2097 -0.5319
  657SOL    MW4 2402   3.936   4.467   3.665 -0.7423  0.0884 -0.3373
  658SOL     OW 2403   4.578   6.416   0.736  0.0182 -0.7614  0.3447
  658SOL    HW2 2404   4.499   6.430   0.684 -0.2591 -1.5578  0.5393
  658SOL    HW3 2405   4.561   6.464   0.818  0.0887 -0.2437  0.0600
  658SOL    MW4 2406   4.565   6.424   0.740 -0.0091 -0.7982  0.3328
  659SOL     OW 2407   6.011   3.086   3.312 -0.6366  0.1936  0.1856
  659SOL    HW2 2408   5.928   3.082   3.265 -0.2469 -0.2778 -0.4823
  659SOL    HW3 2409   6.072   3.124   3.249 -0.2164  0.0094  0.4770
  659SOL    MW4 2410   6.008   3.091   3.297 -0.5297  0.1071  0.1359
  660SOL     OW 2411   4.612   6.022   1.607  0.0814  0.1320  0.3038
  660SOL    HW2 2412   4.641   6.111   1.586  1.0713 -0.3030 -0.2132
  660SOL    HW3 2413   4.692   5.971   1.615 -0.4841 -1.2714 -1.9197
  660SOL    MW4 2414   4.626   6.027   1.605  0.1374 -0.1106 -0.0578
  661SOL     OW 2415   0.285   3.248   0.043  0.2147  0.4048 -0.7695
  661SOL    HW2 2416   0.235   3.329   0.053  1.0483  0.7611  0.8455
  661SOL    HW3 2417   0.347   3.267  -0.028 -2.8142 -0.5630 -3.9071
  661SOL    MW4 2418   0.287   3.261   0.035 -0.0750  0.3241 -0.9704
  662SOL     OW 2419   2.277   0.722   3.592 -0.0027 -0.4152 -0.0582
  662SOL    HW2 2420   2.299   0.815   3.591  2.5104 -0.6711 -5.5753
  662SOL    HW3 2421   2.347   0.682   3.645 -0.1637  0.6378  0.9906
  662SOL    MW4 2422   2.289   0.729   3.599  0.3076 -0.3100 -0.6477
  663SOL     OW 2423   6.049   1.396   3.398 -0.1934  0.5105 -0.3578
  663SOL    HW2 2424   6.076   1.316   3.445  1.0530  0.7254 -0.6781
  663SOL    HW3 2425   5.999   1.446   3.463 -0.6958 -0.3548 -0.0481
  663SOL    MW4 2426   6.046   1.392   3.413 -0.0953  0.4247 -0.3592
  664SOL     OW 2427   5.950   5.117   6.093 -0.3796  0.5144 -0.1085
  664SOL    HW2 2428   5.887   5.129   6.165 -2.3599  3.3510 -2.0775
  664SOL    HW3 2429   6.035   5.131   6.133 -1.0520 -1.6211  2.3220
  664SOL    MW4 2430   5.953   5.120   6.108 -0.7296  0.6069 -0.0476
  665SOL     OW 2431   2.388   3.056   4.735 -0.9000  0.1465  0.2465
  665SOL    HW2 2432   2.321   3.120   4.712  0.3796  1.5353  0.2240
  665SOL    HW3 2433   2.372   3.037   4.828 -1.3150  0.4884  0.2455
  665SOL    MW4 2434   2.377   3.062   4.744 -0.7859  0.3748  0.2434
  666SOL     OW 2435   3.538   4.130   4.642  1.4005 -0.0982  0.5063
  666SOL    HW2 2436   3.594   4.208   4.649 -0.6236  1.7434 -1.8316
  666SOL    HW3 2437   3.582   4.075   4.577  1.0047  0.9386 -0.6848
  666SOL    MW4 2438   3.552   4.133   4.634  1.0812  0.2816  0.0407
  667SOL     OW 2439   0.789   1.932   3.433  0.0149  0.2514 -0.1518
  667SOL    HW2 2440   0.721   1.977   3.384  0.1697 -1.2350 -1.8418
  667SOL    HW3 2441   0.867   1.939   3.378  0.2563 -1.2462 -0.0537
  667SOL    MW4 2442   0.790   1.939   3.419  0.0671 -0.1423 -0.3618
  668SOL     OW 2443   0.475   4.331   3.777 -0.0899  0.1477  0.4446
  668SOL    HW2 2444   0.384   4.352   3.757 -0.4819 -2.6256 -1.2127
  668SOL    HW3 2445   0.526   4.389   3.722 -0.8891  0.7036  0.2748
  668SOL    MW4 2446   0.470   4.341   3.767 -0.2470 -0.1448  0.2035
  669SOL     OW 2447   3.833   3.802   0.635  0.2431 -0.4434  0.2892
  669SOL    HW2 2448   3.920   3.762   0.629  0.9244  1.0910 -0.7843
  669SOL    HW3 2449   3.818   3.840   0.549 -1.9831 -1.5583  0.1171
  669SOL    MW4 2450   3.842   3.802   0.623  0.0393 -0.3880  0.1249
  670SOL     OW 2451   3.349   4.968   1.979  0.2166  0.1960 -0.4035
  670SOL    HW2 2452   3.256   4.951   1.964  0.1816 -0.0421  0.0529
  670SOL    HW3 2453   3.360   4.959   2.074  0.5648  0.9398 -0.3703
  670SOL    MW4 2454   3.338   4.964   1.990  0.2579  0.2627 -0.3389
  671SOL     OW 2455   1.870   3.863   4.347  0.1502  0.3447  0.1460
  671SOL    HW2 2456   1.925   3.812   4.407 -0.0967 -1.1562 -0.8616
  671SOL    HW3 2457   1.846   3.941   4.398 -0.3517 -1.0312  2.1403
  671SOL    MW4 2458   1.874   3.867   4.362  0.0514 -0.0348  0.2762
  672SOL     OW 2459   5.635   1.697   3.281  0.5224 -0.5329 -1.0340
  672SOL    HW2 2460   5.655   1.790   3.271  0.4749 -0.3952  0.0138
  672SOL    HW3 2461   5.708   1.653   3.238  2.2341 -0.0170  1.1277
  672SOL    MW4 2462   5.648   1.704   3.274  0.7420 -0.4466 -0.6106
  673SOL     OW 2463   0.871   1.252   0.658  0.0434  0.0118  0.6647
  673SOL    HW2 2464   0.931   1.237   0.586  1.4036 -0.8384  1.9309
  673SOL    HW3 2465   0.926   1.287   0.729 -1.4193  1.8232  0.9842
  673SOL    MW4 2466   0.886   1.255   0.658  0.0299  0.1386  0.8739
  674SOL     OW 2467   2.564   3.928   1.679 -0.1453  0.2960  0.0634
  674SOL    HW2 2468   2.513   3.929   1.598  0.2881 -0.4582 -0.2303
  674SOL    HW3 2469   2.533   4.004   1.728 -2.2783 -0.7170  0.3629
  674SOL    MW4 2470   2.553   3.938   1.675 -0.3695  0.0628  0.0642
  675SOL     OW 2471   5.628   1.110   6.109  0.4082 -0.7379 -0.2472
  675SOL    HW2 2472   5.615   1.090   6.201  0.2506 -0.4783 -0.2129
  675SOL    HW3 2473   5.584   1.039   6.062 -1.7989  0.4987 -0.1415
  675SOL    MW4 2474   5.621   1.098   6.115  0.0962 -0.5405 -0.2287
  676SOL     OW 2475   1.545   0.976   1.354 -0.6320  0.0211 -0.0911
  676SOL    HW2 2476   1.544   0.936   1.441 -0.4581  1.5570  0.6557
  676SOL    HW3 2477   1.452   0.983   1.330 -0.6666 -0.7496 -0.2066
  676SOL    MW4 2478   1.532   0.971   1.362 -0.6136  0.1220 -0.0078
  677SOL     OW 2479   2.405   1.248   1.793 -0.4008 -0.2197  0.2160
  677SOL    HW2 2480   2.360   1.163   1.798 -0.1150 -0.3465  0.6841
  677SOL    HW3 2481   2.413   1.264   1.699 -3.5173  0.9584  0.0479
  677SOL    MW4 2482   2.400   1.239   1.781 -0.7743 -0.0810  0.2556
  678SOL     OW 2483   5.164   0.672   5.373 -0.3963 -0.9859 -0.3962
  678SOL    HW2 2484   5.186   0.601   5.313  0.1091 -1.0098 -0.1844
  678SOL    HW3 2485   5.230   0.739   5.355 -1.4345 -0.1561 -1.2779
  678SOL    MW4 2486   5.175   0.671   5.362 -0.4666 -0.8796 -0.4846
  679SOL     OW 2487   1.350   4.699   2.276 -0.5654 -0.5582  1.0641
  679SOL    HW2 2488   1.375   4.727   2.364 -0.8705 -0.5250  1.1414
  679SOL    HW3 2489   1.262   4.733   2.265  0.4978  2.0134 -0.3922
  679SOL    MW4 2490   1.342   4.707   2.287 -0.4654 -0.2146  0.8822
  680SOL     OW 2491   1.771   2.375   1.525 -0.3940  0.0498 -0.7481
  680SOL    HW2 2492   1.795   2.302   1.469  2.6013 -0.0320  0.4229
  680SOL    HW3 2493   1.832   2.445   1.501 -0.5525  0.7726  0.7965
  680SOL    MW4 2494   1.782   2.375   1.515 -0.0197  0.1344 -0.3898
  681SOL     OW 2495   2.582   1.759   5.023  0.3782 -0.1464 -0.0411
  681SOL    HW2 2496   2.561   1.698   5.094 -0.7462 -1.0207 -1.0724
  681SOL    HW3 2497   2.601   1.702   4.948 -0.0749  0.7594 -0.8646
  681SOL    MW4 2498   2.582   1.743   5.022  0.1700 -0.1423 -0.2858
  682SOL     OW 2499   6.373   2.271   1.405 -0.5933  0.1758 -0.3142
  682SOL    HW2 2500   6.420   2.321   1.472 -0.8463  0.6794 -0.5072
  682SOL    HW3 2501   6.360   2.334   1.333 -0.0776 -0.4342 -0.9537
  682SOL    MW4 2502   6.378   2.286   1.404 -0.5586  0.1618 -0.4241
  683SOL     OW 2503   0.454   2.410   3.829  0.0174  0.2873 -0.2034
  683SOL    HW2 2504   0.511   2.363   3.891  0.8904 -1.6096 -2.2695
  683SOL    HW3 2505   0.390   2.344   3.801 -0.4402  1.1253 -1.1945
  683SOL    MW4 2506   0.453   2.395   3.834  0.0722  0.1476 -0.6068
  684SOL     OW 2507   5.036   2.317   2.567 -0.1999 -0.5868 -0.1369
  684SOL    HW2 2508   5.056   2.410   2.583 -1.9852 -0.2111  0.1188
  684SOL    HW3 2509   5.114   2.271   2.596  0.5866  0.8101  0.0951
  684SOL    MW4 2510   5.049   2.323   2.573 -0.3317 -0.3530 -0.0726
  685SOL     OW 2511   1.104   2.654   4.360  0.4680 -0.0391 -0.6889
  685SOL    HW2 2512   1.015   2.663   4.392  0.7174  0.5229 -0.1245
  685SOL    HW3 2513   1.134   2.744   4.347  0.6922 -0.2427 -1.6061
  685SOL    MW4 2514   1.096   2.667   4.363  0.5305  0.0082 -0.7355
  686SOL     OW 2515   5.076   4.140   5.139 -0.6644 -0.0808  0.1023
  686SOL    HW2 2516   5.144   4.076   5.115  1.1100  1.6714  0.1682
  686SOL    HW3 2517   5.037   4.165   5.055  1.7212  1.9345 -0.5473
  686SOL    MW4 2518   5.080   4.135   5.125 -0.1155  0.4163  0.0253
  687SOL     OW 2519   1.298   5.376   5.492 -0.0889  0.5002 -0.1212
  687SOL    HW2 2520   1.283   5.426   5.572 -1.3019  0.4649 -0.2980
  687SOL    HW3 2521   1.349   5.300   5.520  0.1884  0.9013  0.4729
  687SOL    MW4 2522   1.303   5.373   5.506 -0.2124  0.5485 -0.0661
  688SOL     OW 2523   0.794   3.784   4.335 -0.2299  0.3248  0.1740
  688SOL    HW2 2524   0.753   3.867   4.310 -0.4115  0.2026  0.0592
  688SOL    HW3 2525   0.777   3.726   4.261 -0.1554  0.1675  0.2804
  688SOL    MW4 2526   0.786   3.788   4.322 -0.2440  0.2879  0.1729
  689SOL     OW 2527   1.074   2.068   2.757 -0.9601 -0.7066 -0.1898
  689SOL    HW2 2528   1.048   1.991   2.807 -1.2634 -0.7172 -0.3610
  689SOL    HW3 2529   1.152   2.100   2.801 -1.5826 -0.3461  0.6770
  689SOL    MW4 2530   1.080   2.062   2.769 -1.0822 -0.6604 -0.0980
  690SOL     OW 2531   3.760   5.485   2.887  0.0012 -0.0376  0.4817
  690SOL    HW2 2532   3.689   5.445   2.938 -0.1687  1.1829  1.2305
  690SOL    HW3 2533   3.838   5.434   2.911 -0.5452 -1.2385 -0.1646
  690SOL    MW4 2534   3.761   5.473   2.897 -0.0933 -0.0350  0.4952
  691SOL     OW 2535   1.694   0.871   4.424 -0.7507 -0.2416  0.1833
  691SOL    HW2 2536   1.651   0.791   4.394 -0.5795  0.4308 -2.0490
  691SOL    HW3 2537   1.787   0.850   4.426 -0.8067 -0.4426  0.7925
  691SOL    MW4 2538   1.700   0.858   4.420 -0.7355 -0.1794 -0.0309
  692SOL     OW 2539   3.420   0.158   1.616 -0.1705 -0.4428 -0.2199
  692SOL    HW2 2540   3.407   0.200   1.701  2.2992  0.3138 -0.1535
  692SOL    HW3 2541   3.419   0.064   1.635  2.1296 -0.2897  1.0218
  692SOL    MW4 2542   3.418   0.151   1.630  0.4588 -0.3228 -0.0473
  693SOL     OW 2543   3.091   1.191   5.053  0.1086  0.2910 -0.1484
  693SOL    HW2 2544   3.083   1.245   5.132  1.0175 -1.1390  0.9577
  693SOL    HW3 2545   3.127   1.108   5.083 -0.1278 -0.5390 -1.9866
  693SOL    MW4 2546   3.095   1.188   5.067  0.1973 -0.0072 -0.2450
  694SOL     OW 2547   4.084   5.560   5.852  0.1314  0.1230  0.4675
  694SOL    HW2 2548   4.160   5.595   5.806 -0.2011 -0.1160 -0.2799
  694SOL    HW3 2549   4.009   5.608   5.816 -0.4717 -2.0255 -1.3983
  694SOL    MW4 2550   4.084   5.571   5.841  0.0080 -0.1920  0.1227
  695SOL     OW 2551   3.588   4.487   1.768 -0.1294 -0.0197 -0.2491
  695SOL    HW2 2552   3.620   4.518   1.683  0.8289 -0.7102 -0.1512
  695SOL    HW3 2553   3.507   4.536   1.782  0.8294  1.7150 -0.5414
  695SOL    MW4 2554   3.581   4.498   1.759  0.1236  0.1181 -0.2748
  696SOL     OW 2555   0.851   3.503   5.827  0.7865 -0.2184  0.1944
  696SOL    HW2 2556   0.875   3.575   5.768 -1.4325  1.1017  0.7892
  696SOL    HW3 2557   0.758   3.487   5.809  1.1587 -2.8498  0.2242
  696SOL    MW4 2558   0.842   3.510   5.817  0.5428 -0.3914  0.2768
  697SOL     OW 2559   3.667   4.769   2.087  0.1681  0.0497  0.0612
  697SOL    HW2 2560   3.691   4.732   2.173 -1.4330 -0.6589  0.2623
  697SOL    HW3 2561   3.711   4.713   2.024 -1.8086 -2.0582  0.3793
  697SOL    MW4 2562   3.676   4.757   2.090 -0.3040 -0.3219  0.1297
  698SOL     OW 2563   1.395   0.322   0.968 -0.3917  0.2815  0.1412
  698SOL    HW2 2564   1.440   0.401   0.997 -1.6384  2.0132 -2.2405
  698SOL    HW3 2565   1.325   0.309   1.032  1.3299 -0.4857  1.9839
  698SOL    MW4 2566   1.392   0.331   0.980 -0.3291  0.4087  0.0701
  699SOL     OW 2567   2.827   1.073   3.907  0.0797 -0.0438 -0.1393
  699SOL    HW2 2568   2.785   1.000   3.953  0.6509 -0.0012  0.4657
  699SOL    HW3 2569   2.810   1.149   3.964  0.3467  0.1058 -0.2605
  699SOL    MW4 2570   2.819   1.074   3.921  0.1903 -0.0184 -0.0755
  700SOL     OW 2571   5.281   1.087   4.273 -0.5575  0.2657  0.0123
  700SOL    HW2 2572   5.265   1.170   4.317 -0.2787 -0.4816  1.5608
  700SOL    HW3 2573   5.371   1.093   4.241 -0.1952  0.1743  1.0048
  700SOL    MW4 2574   5.290   1.099   4.274 -0.4729  0.1550  0.3475
  701SOL     OW 2575   5.139   5.265   1.662 -0.3695 -0.0372  0.0049
  701SOL    HW2 2576   5.232   5.267   1.640 -0.6386  0.0846 -1.1840
  701SOL    HW3 2577   5.119   5.172   1.670  0.0236 -0.0477  1.1137
  701SOL    MW4 2578   5.149   5.253   1.660 -0.3532 -0.0226 -0.0057
  702SOL     OW 2579   2.533   6.018   4.877  0.2202 -0.1964 -0.2373
  702SOL    HW2 2580   2.490   6.010   4.962  0.1538 -0.5375 -0.3000
  702SOL    HW3 2581   2.622   5.984   4.892 -0.3422 -2.0286 -0.7231
  702SOL    MW4 2582   2.539   6.012   4.890  0.1373 -0.4832 -0.3097
  703SOL     OW 2583   4.357   1.489   4.071 -0.4987  0.0156 -0.1866
  703SOL    HW2 2584   4.414   1.431   4.121 -0.9670  0.4098  0.8114
  703SOL    HW3 2585   4.417   1.551   4.028 -0.1589  0.3646  0.7738
  703SOL    MW4 2586   4.372   1.490   4.072 -0.5157  0.1136  0.0718
  704SOL     OW 2587   0.843   4.803   2.522 -0.7100 -0.0502 -0.1257
  704SOL    HW2 2588   0.937   4.796   2.541 -0.6734 -0.8799 -0.5865
  704SOL    HW3 2589   0.828   4.743   2.449 -1.9440 -1.4346  1.1731
  704SOL    MW4 2590   0.853   4.794   2.515 -0.8680 -0.3424 -0.0151
  705SOL     OW 2591   1.770   6.068   0.525  0.5299 -0.3723  0.3133
  705SOL    HW2 2592   1.848   6.103   0.483 -0.5964  1.4603 -0.3584
  705SOL    HW3 2593   1.803   6.014   0.596  2.4043 -0.1278 -0.3187
  705SOL    MW4 2594   1.784   6.065   0.529  0.6286 -0.0983  0.1413
  706SOL     OW 2595   3.669   2.915   3.286  0.4361 -0.1389  0.6041
  706SOL    HW2 2596   3.686   2.915   3.380 -0.7855 -1.2654  0.8672
  706SOL    HW3 2597   3.620   2.834   3.271  0.4122  0.1314 -0.9705
  706SOL    MW4 2598   3.665   2.904   3.296  0.2718 -0.2519  0.4311
  707SOL     OW 2599   3.602   4.010   0.917 -0.9396 -0.2536  0.8405
  707SOL    HW2 2600   3.525   4.065   0.933 -2.0531 -1.3646 -0.4158
  707SOL    HW3 2601   3.598   3.942   0.984 -1.7464 -0.9961  0.0533
  707SOL    MW4 2602   3.592   4.008   0.928 -1.1930 -0.4982  0.5709
  708SOL     OW 2603   4.528   1.759   3.473  0.6249 -0.5822 -0.2938
  708SOL    HW2 2604   4.490   1.714   3.549  0.9415 -1.0375 -0.4044
  708SOL    HW3 2605   4.618   1.777   3.499  0.1999  0.9971  0.1880
  708SOL    MW4 2606   4.535   1.755   3.487  0.6106 -0.4339 -0.2448
  709SOL     OW 2607   3.188   2.168   3.111  0.1927  0.1014  0.2081
  709SOL    HW2 2608   3.171   2.074   3.102 -2.8619  0.5371  0.4341
  709SOL    HW3 2609   3.253   2.173   3.181  0.5115 -1.8482  0.1210
  709SOL    MW4 2610   3.194   2.156   3.119 -0.1683 -0.0983  0.2265
  710SOL     OW 2611   0.965   5.513   4.860  0.6811  0.4872 -0.1493
  710SOL    HW2 2612   1.045   5.528   4.810  0.5091  1.5609 -0.1140
  710SOL    HW3 2613   0.992   5.451   4.928  1.7228  1.4965  0.4112
  710SOL    MW4 2614   0.979   5.507   4.862  0.7958  0.7620 -0.0707
  711SOL     OW 2615   4.460   5.728   3.070 -0.1642 -0.5356 -0.8009
  711SOL    HW2 2616   4.423   5.802   3.023 -1.0591  0.9947  2.1176
  711SOL    HW3 2617   4.554   5.731   3.048 -0.6415 -0.5619 -3.1862
  711SOL    MW4 2618   4.468   5.738   3.061 -0.3453 -0.3372 -0.7305
  712SOL     OW 2619   3.895   1.793   0.336 -0.0422 -0.7362  0.2988
  712SOL    HW2 2620   3.847   1.855   0.282  0.0750 -0.3746  0.6071
  712SOL    HW3 2621   3.971   1.769   0.283  0.5399  0.2888  0.6379
  712SOL    MW4 2622   3.899   1.798   0.322  0.0501 -0.5532  0.3842
  713SOL     OW 2623   4.635   1.627   5.694  0.4881 -0.3869 -0.0479
  713SOL    HW2 2624   4.680   1.695   5.643  0.5100  0.1871  0.7213
  713SOL    HW3 2625   4.574   1.587   5.632  0.0824  0.7010 -0.3824
  713SOL    MW4 2626   4.633   1.631   5.679  0.4375 -0.1676  0.0095
  714SOL     OW 2627   3.577   0.008   5.935 -0.0478  0.0448  0.4154
  714SOL    HW2 2628   3.648   0.051   5.982  2.2311 -1.3041 -1.5795
  714SOL    HW3 2629   3.614  -0.076   5.907 -2.7926 -1.2031  0.1658
  714SOL    MW4 2630   3.591   0.002   5.938 -0.1093 -0.2978  0.1192
  715SOL     OW 2631   4.073   1.569   0.694  0.3308 -0.4240  0.0805
  715SOL    HW2 2632   4.041   1.480   0.681 -1.1506 -0.0157  0.7360
  715SOL    HW3 2633   4.142   1.579   0.628 -1.1840 -1.2113 -1.7475
  715SOL    MW4 2634   4.078   1.558   0.683 -0.0645 -0.4740 -0.0742
  716SOL     OW 2635   6.285   1.765   2.861 -0.0639  0.4114 -0.0949
  716SOL    HW2 2636   6.358   1.759   2.800  0.5267  2.6803  0.2837
  716SOL    HW3 2637   6.238   1.844   2.834 -0.1989  1.0722  1.8922
  716SOL    MW4 2638   6.288   1.775   2.849 -0.0038  0.7979  0.2173
  717SOL     OW 2639   2.103   1.205   3.222 -0.1964  0.1011 -0.1546
  717SOL    HW2 2640   2.041   1.145   3.180 -2.2850  1.2443  1.0879
  717SOL    HW3 2641   2.145   1.152   3.290  1.2118 -1.0272 -1.8332
  717SOL    MW4 2642   2.100   1.190   3.226 -0.2861  0.1031 -0.2121
  718SOL     OW 2643   5.652   1.436   2.761  0.6404 -0.2212 -0.3847
  718SOL    HW2 2644   5.709   1.363   2.736 -0.4622 -0.9359 -0.9027
  718SOL    HW3 2645   5.579   1.432   2.699  0.6833  1.5202 -0.6099
  718SOL    MW4 2646   5.650   1.426   2.749  0.5005 -0.0857 -0.4827
  719SOL     OW 2647   0.287   6.207   0.610  0.4125  0.2172 -0.3226
  719SOL    HW2 2648   0.251   6.295   0.617 -1.5208 -0.4559 -0.8394
  719SOL    HW3 2649   0.291   6.190   0.515  2.0743  0.2119 -0.2804
  719SOL    MW4 2650   0.282   6.216   0.598  0.3767  0.1277 -0.3852
  720SOL     OW 2651   5.433   6.316   3.113  0.6367  0.2708 -0.4302
  720SOL    HW2 2652   5.487   6.396   3.117  0.6284  0.3790 -2.0365
  720SOL    HW3 2653   5.406   6.302   3.204  1.9514  1.1886  0.1502
  720SOL    MW4 2654   5.437   6.325   3.126  0.8090  0.4062 -0.5655
  721SOL     OW 2655   5.407   2.070   2.354  0.2569  0.3052 -0.2328
  721SOL    HW2 2656   5.496   2.082   2.384  0.2247 -0.3399  0.1439
  721SOL    HW3 2657   5.401   2.122   2.274  0.9625  0.3594 -0.2535
  721SOL    MW4 2658   5.418   2.078   2.347  0.3457  0.2272 -0.1859
  722SOL     OW 2659   2.697   2.094   4.245  0.3222 -0.1028  0.1514
  722SOL    HW2 2660   2.636   2.160   4.211 -2.3645 -1.6417  1.6017
  722SOL    HW3 2661   2.727   2.129   4.328  2.2418  1.0548 -0.9657
  722SOL    MW4 2662   2.693   2.107   4.251  0.2210 -0.1531  0.1954
  723SOL     OW 2663   0.083   3.780   6.060 -0.4782 -0.0270  0.0319
  723SOL    HW2 2664   0.093   3.843   6.131  1.8989  1.0490 -1.1461
  723SOL    HW3 2665   0.050   3.832   5.986 -0.7501 -0.6623 -0.3058
  723SOL    MW4 2666   0.080   3.795   6.059 -0.2004  0.0311 -0.1681
  724SOL     OW 2667   4.331   5.193   6.213 -0.1029 -1.1388  0.5956
  724SOL    HW2 2668   4.398   5.261   6.211 -0.8812 -0.3234  1.2503
  724SOL    HW3 2669   4.357   5.135   6.285 -1.0842  0.2629  2.1474
  724SOL    MW4 2670   4.343   5.194   6.222 -0.3351 -0.8463  0.8867
  725SOL     OW 2671   2.207   2.941   1.471 -0.0431 -0.3476 -0.0720
  725SOL    HW2 2672   2.189   2.918   1.562  1.5016 -0.7738  0.1395
  725SOL    HW3 2673   2.198   3.037   1.469 -1.9271 -0.4731  0.0704
  725SOL    MW4 2674   2.203   2.951   1.483 -0.0879 -0.4204 -0.0253
  726SOL     OW 2675   3.051   0.080   2.948  0.1002 -0.1054  0.2878
  726SOL    HW2 2676   3.104   0.135   3.005 -2.1063 -0.2874  2.6923
  726SOL    HW3 2677   2.983   0.139   2.914 -0.0085 -0.5189 -0.2299
  726SOL    MW4 2678   3.049   0.095   2.951 -0.2053 -0.1840  0.5367
  727SOL     OW 2679   2.350   3.125   2.139  0.2920  0.2730 -0.3762
  727SOL    HW2 2680   2.433   3.161   2.107  0.0406  1.7468  0.5419
  727SOL    HW3 2681   2.350   3.144   2.233 -0.5729 -0.7600 -0.1562
  727SOL    MW4 2682   2.361   3.132   2.147  0.1447  0.3311 -0.2261
  728SOL     OW 2683   5.141   3.179   4.246 -0.0270  0.6485 -0.3192
  728SOL    HW2 2684   5.157   3.100   4.298 -0.5762  1.5960  1.3759
  728SOL    HW3 2685   5.061   3.160   4.197  0.0737  0.0073 -0.2496
  728SOL    MW4 2686   5.133   3.166   4.247 -0.0862  0.6889 -0.0864
  729SOL     OW 2687   5.547   1.044   3.053  0.0855 -0.1634 -0.2013
  729SOL    HW2 2688   5.582   1.130   3.027 -0.6884 -0.5672 -2.7927
  729SOL    HW3 2689   5.452   1.057   3.057 -0.1123 -1.0408 -1.4042
  729SOL    MW4 2690   5.539   1.057   3.050 -0.0427 -0.3325 -0.7019
  730SOL     OW 2691   0.866   5.785   1.194 -0.4029 -0.0582  0.1064
  730SOL    HW2 2692   0.771   5.776   1.205 -0.2021 -1.6150  0.8405
  730SOL    HW3 2693   0.876   5.818   1.105 -1.6643  1.4815  0.4903
  730SOL    MW4 2694   0.855   5.788   1.184 -0.5428 -0.0605  0.2539
  731SOL     OW 2695   2.744   2.274   4.919 -0.0396 -0.5368  0.1280
  731SOL    HW2 2696   2.745   2.369   4.916  0.0267 -0.4869  1.2358
  731SOL    HW3 2697   2.767   2.246   4.830 -1.5587  0.4667 -0.6122
  731SOL    MW4 2698   2.747   2.283   4.907 -0.2313 -0.3978  0.1765
  732SOL     OW 2699   4.618   1.161   5.974  0.4078  0.6256  0.3107
  732SOL    HW2 2700   4.665   1.239   5.943 -0.4696  0.4569 -1.5561
  732SOL    HW3 2701   4.544   1.151   5.913  0.1331 -1.3043  0.8901
  732SOL    MW4 2702   4.614   1.170   5.962  0.2558  0.3487  0.1408
  733SOL     OW 2703   2.522   2.185   1.997 -0.5127  0.3962 -0.1127
  733SOL    HW2 2704   2.542   2.197   1.904 -0.9098 -1.0648 -0.4268
  733SOL    HW3 2705   2.443   2.130   1.997  0.5626 -1.2340  1.0584
  733SOL    MW4 2706   2.514   2.179   1.985 -0.4232 -0.0117  0.0004
  734SOL     OW 2707   1.961   4.348   3.672 -0.1184  0.4966  0.1603
  734SOL    HW2 2708   2.046   4.344   3.628  0.2520  0.1623  0.8931
  734SOL    HW3 2709   1.902   4.299   3.615 -0.3032  2.3758 -1.3763
  734SOL    MW4 2710   1.964   4.341   3.659 -0.0939  0.7004  0.0542
  735SOL     OW 2711   6.042   4.986   2.455  0.3144  0.0906 -0.2339
  735SOL    HW2 2712   6.000   4.954   2.535  0.2484  0.1436 -0.2476
  735SOL    HW3 2713   6.076   4.908   2.413  2.4049  0.2589  1.0132
  735SOL    MW4 2714   6.041   4.972   2.460  0.5815  0.1198 -0.0711
  736SOL     OW 2715   1.717   0.344   2.543  0.2823  0.0887  0.5004
  736SOL    HW2 2716   1.668   0.263   2.533 -0.3153  0.1229  2.7266
  736SOL    HW3 2717   1.653   0.413   2.527  0.0160  0.1237  1.6765
  736SOL    MW4 2718   1.702   0.343   2.540  0.1683  0.0978  0.9493
  737SOL     OW 2719   5.792   5.106   5.011  0.2778 -0.1219  0.8067
  737SOL    HW2 2720   5.717   5.164   5.025  0.3755 -0.0244  0.9254
  737SOL    HW3 2721   5.860   5.139   5.070  1.2073  1.2146 -0.9298
  737SOL    MW4 2722   5.791   5.118   5.021  0.4133  0.0673  0.5933
  738SOL     OW 2723   6.274   4.730   2.127 -0.0591 -0.3213  0.0842
  738SOL    HW2 2724   6.297   4.818   2.097  1.0635 -0.3816  0.7334
  738SOL    HW3 2725   6.333   4.713   2.200  1.2326 -2.4249 -1.3311
  738SOL    MW4 2726   6.285   4.739   2.133  0.2595 -0.6068 -0.0169
  739SOL     OW 2727   5.683   3.556   4.217  0.3594  0.1147 -0.0789
  739SOL    HW2 2728   5.607   3.571   4.273 -0.4794 -3.5119  0.0054
  739SOL    HW3 2729   5.693   3.461   4.215  3.3512  0.3271 -2.2001
  739SOL    MW4 2730   5.674   3.545   4.224  0.6435 -0.3357 -0.3477
  740SOL     OW 2731   0.981   3.875   0.473  0.0144  0.0148  0.5455
  740SOL    HW2 2732   0.956   3.943   0.410  1.3134 -1.8471 -2.1457
  740SOL    HW3 2733   0.926   3.800   0.451  0.0053 -0.4944  2.1516
  740SOL    MW4 2734   0.970   3.874   0.462  0.1846 -0.2980  0.4023
  741SOL     OW 2735   1.352   2.974   4.568 -0.4259 -0.5617  0.0690
  741SOL    HW2 2736   1.338   3.067   4.585 -0.3650 -0.5980  0.3319
  741SOL    HW3 2737   1.404   2.971   4.488  2.7741 -0.1980  1.9501
  741SOL    MW4 2738   1.357   2.986   4.560  0.0043 -0.5185  0.3519
  742SOL     OW 2739   1.624   2.016   6.176 -0.3269 -0.2017 -0.2769
  742SOL    HW2 2740   1.597   2.106   6.158  0.8296  0.6913  2.0187
  742SOL    HW3 2741   1.656   1.983   6.092 -1.1773  1.3662 -1.2633
  742SOL    MW4 2742   1.625   2.023   6.162 -0.2866  0.1230 -0.1042
  743SOL     OW 2743   3.528   2.485   1.440 -0.0974 -0.1758  0.4382
  743SOL    HW2 2744   3.463   2.476   1.510  1.3548 -2.6677  1.6052
  743SOL    HW3 2745   3.501   2.421   1.375 -0.1666  0.5435 -0.2522
  743SOL    MW4 2746   3.516   2.475   1.441  0.0850 -0.4097  0.5011
  744SOL     OW 2747   5.999   4.647   4.977 -0.2355  0.2523  0.2028
  744SOL    HW2 2748   6.014   4.673   5.068  1.4293 -1.0486  0.3370
  744SOL    HW3 2749   6.084   4.660   4.934  0.1864 -2.9512 -0.1710
  744SOL    MW4 2750   6.012   4.652   4.983  0.0398 -0.3420  0.1712
  745SOL     OW 2751   0.887   1.028   2.979 -0.1374 -0.0817  0.7747
  745SOL    HW2 2752   0.850   1.107   3.017 -0.1154  0.6426 -0.6243
  745SOL    HW3 2753   0.949   1.060   2.913 -1.0376 -1.2219 -0.7007
  745SOL    MW4 2754   0.890   1.043   2.975 -0.2533 -0.1366  0.3954
  746SOL     OW 2755   1.570   5.151   2.172 -0.0450  0.3029 -0.9694
  746SOL    HW2 2756   1.544   5.163   2.080 -0.0483  0.4269 -0.9519
  746SOL    HW3 2757   1.533   5.066   2.196  1.1758 -0.4130 -1.5155
  746SOL    MW4 2758   1.561   5.141   2.163  0.1156  0.2248 -1.0391
  747SOL     OW 2759   1.248   3.870   0.216 -0.3196  0.3285 -0.0939
  747SOL    HW2 2760   1.291   3.935   0.160  0.1236  0.3034  0.2115
  747SOL    HW3 2761   1.314   3.803   0.231 -0.5215  0.2010  0.2414
  747SOL    MW4 2762   1.262   3.870   0.211 -0.2877  0.3084 -0.0094
  748SOL     OW 2763   2.309   0.062   1.483 -0.2078 -0.2528  0.2920
  748SOL    HW2 2764   2.310   0.036   1.574 -0.5517 -1.9218 -0.1526
  748SOL    HW3 2765   2.332   0.155   1.484  1.1432 -0.5697  1.9450
  748SOL    MW4 2766   2.312   0.071   1.495 -0.0749 -0.5148  0.4514
  749SOL     OW 2767   0.058   4.340   3.887 -0.1200  0.8001 -0.5076
  749SOL    HW2 2768  -0.014   4.366   3.830  0.5732  0.2304 -1.6855
  749SOL    HW3 2769   0.135   4.339   3.829  0.0276 -3.3759 -0.5506
  749SOL    MW4 2770   0.059   4.343   3.872 -0.0090  0.1740 -0.6687
  750SOL     OW 2771   4.410   2.566   4.925  0.3610 -0.4440 -0.2499
  750SOL    HW2 2772   4.493   2.561   4.876 -0.6185 -0.1612 -2.0264
  750SOL    HW3 2773   4.394   2.660   4.935  0.6864 -0.4963  0.9106
  750SOL    MW4 2774   4.419   2.578   4.920  0.2747 -0.4136 -0.3312
  751SOL     OW 2775   0.630   1.525   5.666 -0.1390  0.0181 -0.0057
  751SOL    HW2 2776   0.709   1.475   5.644 -0.6690 -1.0981  0.5381
  751SOL    HW3 2777   0.595   1.481   5.743 -1.4724  0.3115 -0.4232
  751SOL    MW4 2778   0.636   1.513   5.673 -0.3848 -0.0904  0.0110
  752SOL     OW 2779   5.898   4.345   3.425 -0.5615  0.2183  0.1417
  752SOL    HW2 2780   5.814   4.375   3.391 -0.9006 -0.7101  0.1178
  752SOL    HW3 2781   5.888   4.250   3.430  0.0708  0.1976  1.2519
  752SOL    MW4 2782   5.885   4.336   3.421 -0.5228  0.0931  0.2850
  753SOL     OW 2783   1.875   2.605   0.818 -0.3078  0.4187 -0.1585
  753SOL    HW2 2784   1.937   2.556   0.871 -1.1031 -0.4936 -0.0491
  753SOL    HW3 2785   1.811   2.639   0.882  0.7415  2.4608 -0.0924
  753SOL    MW4 2786   1.875   2.603   0.834 -0.2743  0.5678 -0.1354
  754SOL     OW 2787   3.898   6.336   4.116  0.7164  0.5820 -0.2548
  754SOL    HW2 2788   3.915   6.431   4.119 -0.9923  0.8961  0.0732
  754SOL    HW3 2789   3.922   6.305   4.203 -1.9962  1.3516  0.8768
  754SOL    MW4 2790   3.904   6.345   4.128  0.1331  0.7250 -0.0622
  755SOL     OW 2791   5.550   2.110   5.611 -0.1178 -0.0179  0.6667
  755SOL    HW2 2792   5.575   2.018   5.620 -2.9008 -0.8823  0.4513
  755SOL    HW3 2793   5.619   2.158   5.657  1.0321 -2.2443  1.4103
  755SOL    MW4 2794   5.562   2.104   5.618 -0.3332 -0.4257  0.7364
  756SOL     OW 2795   3.960   0.980   1.861  0.6704 -0.1055  0.1652
  756SOL    HW2 2796   3.906   1.034   1.805  0.0650 -1.7078 -0.8418
  756SOL    HW3 2797   4.009   1.043   1.915 -1.3867  1.3894  0.3843
  756SOL    MW4 2798   3.960   0.995   1.861  0.3191 -0.1196  0.0612
  757SOL     OW 2799   4.810   0.276   1.118 -0.2621 -0.0867  0.0921
  757SOL    HW2 2800   4.781   0.351   1.169  0.0120 -0.1190  0.3009
  757SOL    HW3 2801   4.856   0.220   1.181 -2.3784 -1.5357  0.4438
  757SOL    MW4 2802   4.812   0.278   1.133 -0.5051 -0.2821  0.1661
  758SOL     OW 2803   2.307   5.501   6.232  0.2666  0.8156  0.5858
  758SOL    HW2 2804   2.282   5.429   6.173 -0.5962  2.1156 -0.7069
  758SOL    HW3 2805   2.361   5.459   6.299 -0.8828 -1.1756  0.3478
  758SOL    MW4 2806   2.311   5.486   6.233  0.0011  0.7244  0.3838
  759SOL     OW 2807   5.022   1.359   5.190  0.3667  0.0641 -0.0304
  759SOL    HW2 2808   5.064   1.281   5.227 -1.5826 -0.4162  1.3480
  759SOL    HW3 2809   5.077   1.432   5.217  2.0651 -0.7608 -1.0876
  759SOL    MW4 2810   5.034   1.358   5.198  0.3336 -0.1081  0.0120
  760SOL     OW 2811   1.558   3.736   2.907  0.5180  0.0305  0.2347
  760SOL    HW2 2812   1.480   3.791   2.900  0.9583  0.5678 -0.5211
  760SOL    HW3 2813   1.545   3.688   2.989 -0.3507  0.5025  0.3939
  760SOL    MW4 2814   1.546   3.737   2.917  0.4615  0.1637  0.1560
  761SOL     OW 2815   1.183   5.015   6.166 -0.5874  0.1565 -0.3537
  761SOL    HW2 2816   1.094   5.047   6.177 -1.6719 -2.4613 -0.6445
  761SOL    HW3 2817   1.220   5.067   6.094 -1.6392  1.6627  0.1585
  761SOL    MW4 2818   1.176   5.026   6.158 -0.8693  0.0099 -0.3245
  762SOL     OW 2819   5.216   5.851   6.051  0.1999  0.0175  0.1406
  762SOL    HW2 2820   5.269   5.903   5.992  1.3999 -1.0481  0.2439
  762SOL    HW3 2821   5.275   5.784   6.085 -0.4020  0.6278  2.6218
  762SOL    MW4 2822   5.231   5.849   6.048  0.2788 -0.0426  0.4816
  763SOL     OW 2823   2.506   4.543   5.255 -0.2375 -0.6965 -0.1557
  763SOL    HW2 2824   2.428   4.531   5.202 -1.5827  2.2718  0.9532
  763SOL    HW3 2825   2.489   4.491   5.334 -0.0494 -1.8049 -0.8141
  763SOL    MW4 2826   2.494   4.534   5.259 -0.3901 -0.4511 -0.0962
  764SOL     OW 2827   5.977   1.926   6.119 -0.0478  0.1861  0.0155
  764SOL    HW2 2828   6.053   1.985   6.119  0.4336 -0.3751 -1.2095
  764SOL    HW3 2829   5.975   1.889   6.207  3.3003 -2.4123 -0.7313
  764SOL    MW4 2830   5.987   1.929   6.130  0.4575 -0.2308 -0.2447
  765SOL     OW 2831   1.917   5.313   1.040 -0.1565 -0.0708 -0.3082
  765SOL    HW2 2832   1.888   5.389   1.090 -0.1578  0.0641 -0.5115
  765SOL    HW3 2833   1.837   5.281   0.998 -0.0393  0.2123 -0.7505
  765SOL    MW4 2834   1.903   5.319   1.041 -0.1412 -0.0157 -0.3934
  766SOL     OW 2835   4.550   1.925   5.713 -0.4331  0.1775  0.2629
  766SOL    HW2 2836   4.638   1.936   5.748 -0.3555 -1.0277  0.5193
  766SOL    HW3 2837   4.515   1.849   5.761 -1.5796  0.5983  0.1212
  766SOL    MW4 2838   4.557   1.916   5.724 -0.5741  0.0740  0.2780
  767SOL     OW 2839   3.822   0.850   6.333  0.1772  0.2902 -0.0179
  767SOL    HW2 2840   3.819   0.939   6.369  0.2630  1.4242 -2.5592
  767SOL    HW3 2841   3.768   0.855   6.254  0.8300 -1.7205 -0.6393
  767SOL    MW4 2842   3.815   0.862   6.328  0.2747  0.1746 -0.4352
  768SOL     OW 2843   1.854   4.431   4.338  0.1669 -0.6253 -0.2945
  768SOL    HW2 2844   1.875   4.525   4.340 -0.2221 -0.5475  0.7511
  768SOL    HW3 2845   1.936   4.389   4.313  0.7900 -0.1095  0.8060
  768SOL    MW4 2846   1.867   4.438   4.335  0.1978 -0.5470 -0.0113
  769SOL     OW 2847   5.982   5.089   3.884  0.4175 -0.2979 -0.1947
  769SOL    HW2 2848   5.907   5.077   3.826  0.9284  1.1205 -1.2151
  769SOL    HW3 2849   6.045   5.022   3.857 -0.1460 -0.9603  0.1142
  769SOL    MW4 2850   5.981   5.078   3.873  0.4105 -0.1982 -0.2886
  770SOL     OW 2851   3.404   2.301   4.890  0.5302 -0.3830 -0.1032
  770SOL    HW2 2852   3.455   2.382   4.876  1.1081  0.0473  3.6352
  770SOL    HW3 2853   3.313   2.330   4.893  0.6921  0.0545  0.6911
  770SOL    MW4 2854   3.399   2.316   4.888  0.6278 -0.2685  0.4949
  771SOL     OW 2855   3.463   6.065   2.079 -0.3650 -0.1772 -0.1072
  771SOL    HW2 2856   3.380   6.099   2.045 -1.3510 -0.4310  1.8951
  771SOL    HW3 2857   3.448   6.055   2.173  2.8316  2.4032  0.8607
  771SOL    MW4 2858   3.450   6.068   2.087 -0.0733  0.1298  0.2847
  772SOL     OW 2859   3.828   1.566   2.261 -0.1070 -0.0066 -0.0490
  772SOL    HW2 2860   3.866   1.604   2.182 -1.6031 -0.2951 -0.9316
  772SOL    HW3 2861   3.775   1.636   2.299 -0.1464 -0.1643  0.1928
  772SOL    MW4 2862   3.826   1.580   2.256 -0.3096 -0.0655 -0.1336
  773SOL     OW 2863   4.385   5.673   1.468 -0.2888 -0.3862 -0.6485
  773SOL    HW2 2864   4.476   5.697   1.485 -0.7939  1.3546 -0.1464
  773SOL    HW3 2865   4.369   5.597   1.524  0.8606 -0.7640 -0.8032
  773SOL    MW4 2866   4.395   5.666   1.477 -0.2038 -0.2064 -0.6026
  774SOL     OW 2867   0.629   4.112   2.963 -0.0699  0.1319 -0.3916
  774SOL    HW2 2868   0.617   4.041   3.026  1.8106 -0.5048 -0.6649
  774SOL    HW3 2869   0.722   4.134   2.969 -0.5102  2.2790 -0.6631
  774SOL    MW4 2870   0.640   4.105   2.972  0.1201  0.3312 -0.4635
  775SOL     OW 2871   4.137   6.389   4.401  0.8884  0.1066  0.0915
  775SOL    HW2 2872   4.201   6.320   4.383  3.0183  1.8308  0.5892
  775SOL    HW3 2873   4.154   6.455   4.333 -0.8033  0.3496 -0.1335
  775SOL    MW4 2874   4.148   6.389   4.389  0.9462  0.3661  0.1275
  776SOL     OW 2875   1.956   4.776   2.178 -0.4721  0.3778 -0.1289
  776SOL    HW2 2876   1.909   4.745   2.100  0.2175 -0.2287 -0.3212
  776SOL    HW3 2877   1.945   4.871   2.176  0.0111  0.4377 -1.3066
  776SOL    MW4 2878   1.948   4.785   2.167 -0.3174  0.3056 -0.3097
  777SOL     OW 2879   1.058   4.195   2.152  0.1071 -0.2544 -0.3853
  777SOL    HW2 2880   1.130   4.173   2.093  0.1311 -0.1384 -0.4003
  777SOL    HW3 2881   1.101   4.221   2.234  0.0651 -0.6601 -0.2332
  777SOL    MW4 2882   1.074   4.196   2.155  0.1047 -0.2927 -0.3672
  778SOL     OW 2883   1.008   1.010   1.234 -0.3408  0.1395 -0.3250
  778SOL    HW2 2884   1.034   1.098   1.264  1.0005  0.0433 -1.1163
  778SOL    HW3 2885   0.965   1.025   1.150  1.8657 -0.0604 -1.5861
  778SOL    MW4 2886   1.006   1.024   1.227  0.1273  0.1004 -0.5958
  779SOL     OW 2887   3.336   3.027   2.910  0.1097  0.3035  0.2127
  779SOL    HW2 2888   3.282   2.978   2.848  1.1930  0.7789 -1.1582
  779SOL    HW3 2889   3.274   3.085   2.955 -0.9096 -1.0576  0.6297
  779SOL    MW4 2890   3.321   3.028   2.908  0.1182  0.1866  0.0869
  780SOL     OW 2891   5.834   6.125   1.706 -0.3948  0.5782  0.3529
  780SOL    HW2 2892   5.825   6.042   1.658 -0.8344  0.9260 -0.1754
  780SOL    HW3 2893   5.900   6.106   1.774  0.9842  0.3378 -0.9834
  780SOL    MW4 2894   5.842   6.111   1.709 -0.2709  0.5924  0.1069
  781SOL     OW 2895   2.548   3.768   0.086  0.0238  0.3964  0.0274
  781SOL    HW2 2896   2.571   3.678   0.062  0.7294  0.8548 -1.0761
  781SOL    HW3 2897   2.489   3.797   0.017 -0.4826  0.6733  0.5698
  781SOL    MW4 2898   2.543   3.760   0.074  0.0501  0.4934 -0.0467
  782SOL     OW 2899   5.335   1.049   5.048  0.1676 -0.3192 -0.3154
  782SOL    HW2 2900   5.261   1.098   5.011  0.4538 -0.1347 -0.6567
  782SOL    HW3 2901   5.395   1.117   5.079  0.9202 -0.4110 -1.4803
  782SOL    MW4 2902   5.333   1.065   5.047  0.3047 -0.3070 -0.5142
  783SOL     OW 2903   5.341   5.586   6.093  0.0784 -0.5196 -0.0096
  783SOL    HW2 2904   5.402   5.568   6.165  0.7699  0.7142 -0.2490
  783SOL    HW3 2905   5.267   5.527   6.108  0.3145 -0.4508  1.5732
  783SOL    MW4 2906   5.340   5.576   6.105  0.2008 -0.3477  0.1676
  784SOL     OW 2907   5.197   2.304   1.202  0.4068 -0.7283 -0.7342
  784SOL    HW2 2908   5.248   2.249   1.143  2.5619 -0.1981  0.5489
  784SOL    HW3 2909   5.239   2.293   1.287  0.2209  2.0316 -0.2196
  784SOL    MW4 2910   5.209   2.295   1.205  0.6666 -0.2942 -0.4970
  785SOL     OW 2911   1.302   5.870   6.300  0.5282  0.7582  0.2715
  785SOL    HW2 2912   1.253   5.873   6.218 -0.4340  0.3427  0.8154
  785SOL    HW3 2913   1.381   5.922   6.282  0.2067  0.9069 -0.8208
  785SOL    MW4 2914   1.306   5.877   6.287  0.3588  0.7230  0.1992
  786SOL     OW 2915   3.608   5.672   4.364  0.3610 -0.3233 -0.2153
  786SOL    HW2 2916   3.588   5.761   4.394 -0.9734 -0.7378  0.1806
  786SOL    HW3 2917   3.700   5.677   4.336  0.9534  0.6785  1.7080
  786SOL    MW4 2918   3.618   5.685   4.364  0.2631 -0.2458  0.0907
  787SOL     OW 2919   0.835   2.228   5.633  0.1724 -0.0461 -0.1046
  787SOL    HW2 2920   0.883   2.309   5.619 -0.4623  0.3217 -0.1847
  787SOL    HW3 2921   0.788   2.213   5.551  1.4367 -1.2906 -0.6364
  787SOL    MW4 2922   0.835   2.236   5.620  0.2555 -0.1617 -0.1853
  788SOL     OW 2923   4.947   1.654   4.368 -0.1048  0.0671 -0.3637
  788SOL    HW2 2924   4.928   1.565   4.337 -1.4305 -0.1869  1.0538
  788SOL    HW3 2925   4.917   1.711   4.297 -1.8752 -0.5402 -0.1570
  788SOL    MW4 2926   4.941   1.649   4.354 -0.5133 -0.0465 -0.1494
  789SOL     OW 2927   1.983   3.422   5.265  0.1831  0.4991 -0.6065
  789SOL    HW2 2928   2.020   3.352   5.320 -0.2274 -0.3312 -1.3720
  789SOL    HW3 2929   1.942   3.482   5.328  1.8761  0.8985  0.1861
  789SOL    MW4 2930   1.982   3.421   5.281  0.3523  0.4423 -0.6030
  790SOL     OW 2931   3.077   6.174   4.445  0.4419 -0.5932  0.0013
  790SOL    HW2 2932   3.091   6.088   4.485  1.3917 -0.5052 -0.1223
  790SOL    HW3 2933   3.137   6.232   4.491 -1.6895  0.5144  1.6022
  790SOL    MW4 2934   3.087   6.170   4.456  0.2860 -0.4355  0.1962
  791SOL     OW 2935   2.970   1.449   6.171 -0.0151  0.3302 -0.0235
  791SOL    HW2 2936   2.959   1.381   6.237  1.6101 -2.0114 -2.0058
  791SOL    HW3 2937   2.902   1.514   6.192  0.7713  0.0394  4.2027
  791SOL    MW4 2938   2.959   1.449   6.182  0.3031 -0.0171  0.2726
  792SOL     OW 2939   3.270   0.312   0.553 -0.2021 -0.2996  0.0781
  792SOL    HW2 2940   3.225   0.387   0.591 -0.6417  0.2485 -1.4487
  792SOL    HW3 2941   3.200   0.261   0.511  0.4392  0.0556 -1.4891
  792SOL    MW4 2942   3.255   0.315   0.552 -0.1755 -0.1804 -0.3301
  793SOL     OW 2943   4.696   3.732   4.222  0.6171  0.0936 -0.2289
  793SOL    HW2 2944   4.789   3.729   4.202  0.8948  0.8738  0.8160
  793SOL    HW3 2945   4.693   3.742   4.317 -0.5678 -1.2938 -0.0903
  793SOL    MW4 2946   4.708   3.733   4.232  0.4974  0.0135 -0.0727
  794SOL     OW 2947   1.464   4.003   3.253 -0.0778  0.2164  0.4788
  794SOL    HW2 2948   1.547   3.955   3.258 -0.0242  0.2049 -0.3942
  794SOL    HW3 2949   1.468   4.049   3.169 -1.2568 -0.3328  0.1124
  794SOL    MW4 2950   1.476   4.003   3.243 -0.2263  0.1424  0.3152
  795SOL     OW 2951   4.371   2.960   0.473 -0.0075  0.8042 -0.2430
  795SOL    HW2 2952   4.435   2.924   0.412 -0.5767 -0.3806 -0.1760
  795SOL    HW3 2953   4.423   3.009   0.537  0.9022 -0.5686  0.1119
  795SOL    MW4 2954   4.386   2.961   0.474  0.0374  0.4667 -0.1873
  796SOL     OW 2955   3.256   0.992   0.469  0.0930 -0.2189 -0.0719
  796SOL    HW2 2956   3.281   0.971   0.379 -1.4934 -1.9674 -0.1687
  796SOL    HW3 2957   3.161   0.992   0.468  0.0452  0.9257  1.3841
  796SOL    MW4 2958   3.247   0.989   0.457 -0.1227 -0.2986  0.1074
  797SOL     OW 2959   3.694   6.284   2.365  0.4116 -0.3630 -0.2501
  797SOL    HW2 2960   3.664   6.278   2.274  2.9595  3.3908 -1.5726
  797SOL    HW3 2961   3.762   6.217   2.372  0.2634 -0.6188 -1.1430
  797SOL    MW4 2962   3.699   6.274   2.354  0.7282  0.0985 -0.5424
  798SOL     OW 2963   5.372   3.697   0.764 -0.0570  0.2182 -0.3311
  798SOL    HW2 2964   5.340   3.638   0.695  1.3977 -0.8929 -0.1174
  798SOL    HW3 2965   5.436   3.644   0.812  0.2580  1.5521  0.7648
  798SOL    MW4 2966   5.376   3.682   0.761  0.1765  0.2476 -0.1583
  799SOL     OW 2967   5.171   3.563   2.210  0.5487  0.2484  0.0043
  799SOL    HW2 2968   5.204   3.477   2.183 -0.3610  0.2521 -1.1905
  799SOL    HW3 2969   5.230   3.625   2.168 -0.8612  0.2539 -2.1190
  799SOL    MW4 2970   5.183   3.560   2.201  0.2426  0.2496 -0.4335
  800SOL     OW 2971   1.724   0.558   0.430  0.7069 -0.0525 -0.5225
  800SOL    HW2 2972   1.725   0.508   0.348  0.7832 -0.0684 -0.5120
  800SOL    HW3 2973   1.658   0.627   0.415 -0.8117 -1.2974  0.1508
  800SOL    MW4 2974   1.715   0.561   0.417  0.5166 -0.2189 -0.4323
  801SOL     OW 2975   3.813   3.281   3.971 -0.8231  0.1199 -0.7652
  801SOL    HW2 2976   3.729   3.271   4.015 -0.5887 -0.9727 -0.5328
  801SOL    HW3 2977   3.858   3.349   4.020 -1.6351  0.8440 -1.0058
  801SOL    MW4 2978   3.808   3.289   3.983 -0.8993  0.0713 -0.7663
  802SOL     OW 2979   4.073   2.418   3.611 -0.4215  0.1859  0.0807
  802SOL    HW2 2980   4.029   2.472   3.677 -2.6806  0.2403 -1.3435
  802SOL    HW3 2981   4.019   2.339   3.606 -1.4832  0.9645 -2.9373
  802SOL    MW4 2982   4.060   2.415   3.619 -0.8596  0.2958 -0.5054
  803SOL     OW 2983   1.548   1.655   5.140 -0.1050  0.0400  0.0235
  803SOL    HW2 2984   1.470   1.662   5.085 -0.1962 -0.0844  0.1363
  803SOL    HW3 2985   1.535   1.575   5.191 -0.6850  0.8778  1.2379
  803SOL    MW4 2986   1.536   1.645   5.139 -0.1936  0.1341  0.1986
  804SOL     OW 2987   6.274   2.300   0.725  0.3826 -0.3105  0.6666
  804SOL    HW2 2988   6.201   2.352   0.692  2.2782  0.9307 -1.9204
  804SOL    HW3 2989   6.304   2.348   0.802 -0.1387  0.3999  0.4408
  804SOL    MW4 2990   6.268   2.313   0.731  0.5639 -0.0530  0.2955
  805SOL     OW 2991   4.240   0.741   3.974 -0.0403  0.4317 -0.2700
  805SOL    HW2 2992   4.290   0.758   3.894  2.4846 -1.1232  0.8704
  805SOL    HW3 2993   4.262   0.814   4.032  1.0697 -0.3440  0.2961
  805SOL    MW4 2994   4.249   0.753   3.971  0.4393  0.1242 -0.0449
  806SOL     OW 2995   3.817   2.429   4.931  0.2186  0.4768 -0.3672
  806SOL    HW2 2996   3.727   2.455   4.910  0.4056  0.6570 -0.9489
  806SOL    HW3 2997   3.832   2.467   5.018 -1.0021 -1.3779  0.7231
  806SOL    MW4 2998   3.807   2.437   4.940  0.0822  0.2559 -0.3001
  807SOL     OW 2999   2.240   5.592   1.154 -0.1322  0.0640  0.3676
  807SOL    HW2 3000   2.334   5.598   1.172 -0.1470  0.2942  0.3689
  807SOL    HW3 3001   2.234   5.594   1.059 -0.2251  1.4632  0.3852
  807SOL    MW4 3002   2.252   5.593   1.144 -0.1464  0.2790  0.3701
  808SOL     OW 3003   0.395   6.313   3.907 -0.2546  0.2139 -0.2811
  808SOL    HW2 3004   0.473   6.273   3.866 -0.3835  0.3478 -0.6648
  808SOL    HW3 3005   0.402   6.290   3.999 -0.7729 -1.4343 -0.6147
  808SOL    MW4 3006   0.407   6.305   3.914 -0.3400  0.0141 -0.3757
  809SOL     OW 3007   0.988   1.256   0.932  0.1984 -0.3694 -0.1432
  809SOL    HW2 3008   0.994   1.314   1.007  0.4563  0.8162 -1.0512
  809SOL    HW3 3009   0.917   1.195   0.954  1.7263 -1.5261  2.0028
  809SOL    MW4 3010   0.979   1.255   0.945  0.4340 -0.3656  0.0202
  810SOL     OW 3011   2.541   1.801   4.466  0.2312 -0.1587  0.5225
  810SOL    HW2 3012   2.535   1.709   4.442  2.3936 -0.0506 -0.6553
  810SOL    HW3 3013   2.496   1.848   4.395  0.3232 -0.2359  0.4131
  810SOL    MW4 3014   2.534   1.795   4.454  0.5286 -0.1546  0.3526
  811SOL     OW 3015   6.331   6.092   3.298 -0.0348 -0.3243 -0.0245
  811SOL    HW2 3016   6.333   6.118   3.206 -0.2168 -1.6433 -0.4115
  811SOL    HW3 3017   6.246   6.050   3.309 -0.8940  1.6107  1.2716
  811SOL    MW4 3018   6.320   6.090   3.287 -0.1721 -0.2430  0.0954
  812SOL     OW 3019   6.404   5.761   1.420  0.6655  0.5126 -0.5327
  812SOL    HW2 3020   6.446   5.704   1.484 -0.9405  1.5707  1.5615
  812SOL    HW3 3021   6.423   5.719   1.336  2.4626 -1.1845  0.6180
  812SOL    MW4 3022   6.412   5.748   1.417  0.6907  0.4283 -0.1046
  813SOL     OW 3023   5.068   0.608   3.987 -0.2452  0.0986  0.1215
  813SOL    HW2 3024   5.121   0.614   3.907 -0.8031 -0.1474 -0.2731
  813SOL    HW3 3025   5.029   0.521   3.983 -1.4114  0.6138 -0.0630
  813SOL    MW4 3026   5.070   0.597   3.976 -0.4727  0.1341  0.0451
  814SOL     OW 3027   3.861   6.189   5.013  1.2383 -0.0186 -0.2658
  814SOL    HW2 3028   3.891   6.111   4.967  1.9677 -0.5724  1.0953
  814SOL    HW3 3029   3.802   6.232   4.951  2.1261 -0.7550 -1.6697
  814SOL    MW4 3030   3.857   6.184   4.999  1.4517 -0.1888 -0.2714
  815SOL     OW 3031   1.620   5.596   6.068  0.3755  0.1340  0.2289
  815SOL    HW2 3032   1.588   5.590   6.158 -4.2395 -0.3641 -1.1954
  815SOL    HW3 3033   1.670   5.678   6.066  1.2048 -0.1698  3.3156
  815SOL    MW4 3034   1.623   5.606   6.079 -0.1240  0.0282  0.4482
  816SOL     OW 3035   2.829   4.285   0.605 -0.0170 -0.0779  0.2254
  816SOL    HW2 3036   2.811   4.238   0.523 -1.0171 -0.1137  0.4473
  816SOL    HW3 3037   2.824   4.378   0.581 -2.3415 -0.0314  0.5831
  816SOL    MW4 3038   2.826   4.291   0.591 -0.4556 -0.0765  0.3018
  817SOL     OW 3039   5.274   4.517   4.250 -0.2271  0.6645 -0.2982
  817SOL    HW2 3040   5.276   4.439   4.194  1.3902  1.4073 -1.3580
  817SOL    HW3 3041   5.365   4.546   4.255 -0.5210  1.4313  1.6354
  817SOL    MW4 3042   5.286   4.511   4.243 -0.0524  0.8637 -0.1829
  818SOL     OW 3043   1.372   6.066   0.295  0.2107  0.4910  0.2169
  818SOL    HW2 3044   1.308   6.135   0.311 -0.2384  0.4673 -1.3288
  818SOL    HW3 3045   1.403   6.041   0.383 -3.8357 -1.4168  1.3414
  818SOL    MW4 3046   1.368   6.072   0.309 -0.3824  0.2361  0.1613
  819SOL     OW 3047   5.212   1.339   2.427  0.1196 -0.3276 -0.2313
  819SOL    HW2 3048   5.179   1.261   2.471 -0.4499  0.4323  0.7452
  819SOL    HW3 3049   5.135   1.378   2.386  0.5843 -0.8278 -1.6226
  819SOL    MW4 3050   5.197   1.334   2.427  0.1058 -0.2933 -0.2860
  820SOL     OW 3051   2.528   0.197   5.053  0.2029  0.1491  0.2423
  820SOL    HW2 3052   2.449   0.161   5.092  1.0831 -1.2492  0.8227
  820SOL    HW3 3053   2.585   0.121   5.040  1.4058  1.1005 -0.2628
  820SOL    MW4 3054   2.525   0.182   5.056  0.4777  0.0901  0.2522
  821SOL     OW 3055   0.964   2.238   1.184  0.0699  0.4768  0.0603
  821SOL    HW2 3056   0.924   2.289   1.254  0.9692 -0.2609  1.1393
  821SOL    HW3 3057   1.042   2.200   1.223  1.0386  0.6757 -1.5611
  821SOL    MW4 3058   0.969   2.240   1.198  0.3164  0.4057 -0.0113
  822SOL     OW 3059   4.931   5.952   5.360 -0.2435 -0.5179  0.1499
  822SOL    HW2 3060   4.878   5.881   5.395 -0.3376 -0.7814 -0.5155
  822SOL    HW3 3061   4.879   5.988   5.287 -1.0383  1.4293  1.5897
  822SOL    MW4 3062   4.917   5.947   5.355 -0.3608 -0.2958  0.2520
  823SOL     OW 3063   0.008   1.159   4.521 -0.4992  0.1155  0.6248
  823SOL    HW2 3064   0.063   1.130   4.594 -1.3290  2.8337  2.5159
  823SOL    HW3 3065   0.071   1.189   4.455  0.2666 -1.3692  0.6387
  823SOL    MW4 3066   0.024   1.159   4.522 -0.5077  0.2782  0.8762
  824SOL     OW 3067   1.696   1.845   1.388  0.1137 -0.9469 -0.7316
  824SOL    HW2 3068   1.791   1.841   1.401  0.2358  0.8413 -0.7207
  824SOL    HW3 3069   1.663   1.761   1.420  1.5328 -0.9480  0.8572
  824SOL    MW4 3070   1.704   1.834   1.394  0.3171 -0.7111 -0.5205
  825SOL     OW 3071   5.078   1.742   6.147 -0.0118  0.0892  0.0893
  825SOL    HW2 3072   5.122   1.731   6.063 -0.9003 -1.4717 -0.2145
  825SOL    HW3 3073   5.058   1.835   6.151 -0.4669  0.1123 -1.7084
  825SOL    MW4 3074   5.081   1.753   6.136 -0.1891 -0.1137 -0.1880
  826SOL     OW 3075   1.373   2.748   3.476  0.5468 -0.1746  0.0384
  826SOL    HW2 3076   1.356   2.675   3.417  1.4443  0.3019 -0.8470
  826SOL    HW3 3077   1.383   2.708   3.562 -1.8805 -0.7827  0.1087
  826SOL    MW4 3078   1.372   2.733   3.480  0.3450 -0.1920 -0.0691
  827SOL     OW 3079   1.288   5.622   2.832  0.2952  0.5584  0.0009
  827SOL    HW2 3080   1.207   5.572   2.816  0.7025 -0.3051  0.5858
  827SOL    HW3 3081   1.355   5.555   2.844  0.9276  1.2602  0.4324
  827SOL    MW4 3082   1.286   5.607   2.831  0.4323  0.5371  0.1350
  828SOL     OW 3083   4.668   1.052   3.252 -0.2147  0.1016  0.1448
  828SOL    HW2 3084   4.583   1.055   3.209 -0.5885  0.7718  0.8942
  828SOL    HW3 3085   4.712   0.976   3.214 -1.2880 -0.4658 -0.0043
  828SOL    MW4 3086   4.663   1.042   3.242 -0.4056  0.1152  0.2240
  829SOL     OW 3087   4.759   5.329   5.239  0.1086 -0.1707 -0.8326
  829SOL    HW2 3088   4.726   5.411   5.204  0.2618 -0.1669 -0.9707
  829SOL    HW3 3089   4.718   5.261   5.185  1.1439 -0.1314 -1.7214
  829SOL    MW4 3090   4.749   5.331   5.227  0.2654 -0.1650 -0.9680
  830SOL     OW 3091   1.897   5.727   6.415  0.2541  0.5396  0.1856
  830SOL    HW2 3092   1.972   5.670   6.399  0.5752  0.6916  1.0711
  830SOL    HW3 3093   1.920   5.810   6.372 -0.2189  0.0183 -1.1109
  830SOL    MW4 3094   1.910   5.731   6.407  0.2341  0.4909  0.1314
  831SOL     OW 3095   5.808   5.753   0.061  0.3742 -0.4864 -0.2816
  831SOL    HW2 3096   5.750   5.829   0.052 -1.4537 -1.8207 -0.3260
  831SOL    HW3 3097   5.892   5.790   0.087 -0.2997  1.5935 -0.8709
  831SOL    MW4 3098   5.812   5.768   0.063  0.0441 -0.3881 -0.3652
  832SOL     OW 3099   3.515   2.411   3.586 -0.0276  0.1712 -0.3375
  832SOL    HW2 3100   3.452   2.443   3.522 -0.3928 -1.0169 -0.5978
  832SOL    HW3 3101   3.462   2.362   3.649  0.4597  0.4463  0.3008
  832SOL    MW4 3102   3.500   2.409   3.586 -0.0115  0.0507 -0.2876
  833SOL     OW 3103   4.078   3.700   6.236 -0.6073  0.0238  0.4785
  833SOL    HW2 3104   4.002   3.730   6.285 -0.2537  2.9249 -0.5452
  833SOL    HW3 3105   4.153   3.722   6.293 -0.4300 -1.2292  0.7467
  833SOL    MW4 3106   4.078   3.707   6.250 -0.5373  0.2412  0.3788
  834SOL     OW 3107   1.316   3.395   6.225  0.6632 -0.0004  0.2598
  834SOL    HW2 3108   1.231   3.352   6.236  0.6301 -1.5170 -3.9801
  834SOL    HW3 3109   1.379   3.330   6.257  0.3527  0.7237  2.4851
  834SOL    MW4 3110   1.313   3.381   6.231  0.6178 -0.1050 -0.0060
  835SOL     OW 3111   0.137   1.813   0.497 -0.5528 -0.0024  0.0302
  835SOL    HW2 3112   0.107   1.728   0.529  1.8749 -0.4902  1.2262
  835SOL    HW3 3113   0.178   1.793   0.413 -1.3272  0.2528 -0.4139
  835SOL    MW4 3114   0.138   1.799   0.490 -0.3346 -0.0331  0.1294
  836SOL     OW 3115   4.716   0.150   3.900 -0.0889  0.1746  0.2904
  836SOL    HW2 3116   4.717   0.054   3.891 -1.7853  0.2726 -2.0379
  836SOL    HW3 3117   4.803   0.177   3.871 -1.0817 -0.5174 -4.0267
  836SOL    MW4 3118   4.728   0.141   3.895 -0.4437  0.0962 -0.5864
  837SOL     OW 3119   4.804   2.502   3.420 -0.6839 -0.0372 -0.0195
  837SOL    HW2 3120   4.768   2.421   3.456 -1.2337 -0.6187 -1.7832
  837SOL    HW3 3121   4.745   2.524   3.348  0.3198  1.1206 -0.5087
  837SOL    MW4 3122   4.791   2.494   3.415 -0.6240  0.0388 -0.3167
  838SOL     OW 3123   1.679   5.353   0.663 -0.1548  0.0126 -0.3955
  838SOL    HW2 3124   1.610   5.405   0.623 -1.7946 -1.0431  0.9047
  838SOL    HW3 3125   1.660   5.263   0.636  0.5527 -0.3296  0.2016
  838SOL    MW4 3126   1.667   5.348   0.654 -0.2778 -0.1718 -0.1452
  839SOL     OW 3127   2.674   4.088   3.179  0.2871  0.2004  0.0967
  839SOL    HW2 3128   2.582   4.110   3.190  0.4649  1.8020 -1.2995
  839SOL    HW3 3129   2.674   4.016   3.117  0.0239  1.6437 -1.6545
  839SOL    MW4 3130   2.662   4.081   3.172  0.2759  0.6022 -0.3186
  840SOL     OW 3131   1.321   3.549   0.030 -0.4579  1.3880  0.0159
  840SOL    HW2 3132   1.397   3.606   0.026 -1.2165  2.5242  1.0951
  840SOL    HW3 3133   1.318   3.506  -0.056 -0.1192  3.2939 -0.9893
  840SOL    MW4 3134   1.331   3.551   0.018 -0.5133  1.7893  0.0257
  841SOL     OW 3135   4.733   0.114   6.125 -0.1385 -0.2617 -0.3796
  841SOL    HW2 3136   4.671   0.120   6.198  0.7607  1.2352  0.3013
  841SOL    HW3 3137   4.710   0.032   6.082 -0.9034 -1.0535  1.4031
  841SOL    MW4 3138   4.722   0.104   6.129 -0.1208 -0.1686 -0.0546
  842SOL     OW 3139   0.700   4.005   0.728  0.5989  0.1477 -0.3475
  842SOL    HW2 3140   0.657   4.087   0.704  1.6162  0.4026 -1.3948
  842SOL    HW3 3141   0.679   3.993   0.820 -0.3339  1.1072 -0.4216
  842SOL    MW4 3142   0.692   4.014   0.737  0.6100  0.3079 -0.4954
  843SOL     OW 3143   1.160   0.992   4.316 -0.5465  0.4916  0.2221
  843SOL    HW2 3144   1.211   0.927   4.365  0.1175  0.1001 -0.9473
  843SOL    HW3 3145   1.069   0.976   4.341 -0.8075 -3.0074 -2.3027
  843SOL    MW4 3146   1.155   0.982   4.326 -0.4933 -0.0217 -0.2653
  844SOL     OW 3147   0.031   3.565   4.533  0.9953 -0.5577  0.2725
  844SOL    HW2 3148   0.014   3.658   4.547  0.0603 -0.8308  1.0597
  844SOL    HW3 3149   0.122   3.561   4.505  1.0955  0.5815  0.4038
  844SOL    MW4 3150   0.041   3.577   4.531  0.8852 -0.4434  0.3937
  845SOL     OW 3151   4.162   3.407   1.780 -0.5246  0.0848 -0.0662
  845SOL    HW2 3152   4.088   3.459   1.814 -1.0054 -0.8016  0.2597
  845SOL    HW3 3153   4.132   3.377   1.694  0.3344  1.5592 -0.9275
  845SOL    MW4 3154   4.148   3.410   1.773 -0.4747  0.1623 -0.1368
  846SOL     OW 3155   5.207   1.254   0.598  0.2413  0.0587 -0.1735
  846SOL    HW2 3156   5.115   1.262   0.575  0.1028  0.9388  0.6209
  846SOL    HW3 3157   5.254   1.270   0.516 -0.3029  0.3284 -0.4372
  846SOL    MW4 3158   5.201   1.257   0.584  0.1512  0.2104 -0.1035
  847SOL     OW 3159   0.875   4.153   6.167  0.1232 -0.4305  0.1617
  847SOL    HW2 3160   0.781   4.170   6.173  0.1687 -0.5585  1.8908
  847SOL    HW3 3161   0.915   4.230   6.208  0.7065 -0.9549  0.5868
  847SOL    MW4 3162   0.868   4.165   6.174  0.2062 -0.5166  0.4459
  848SOL     OW 3163   1.404   5.108   0.631  0.0920 -0.2242  0.0703
  848SOL    HW2 3164   1.329   5.049   0.625  0.5870 -0.9763  1.0771
  848SOL    HW3 3165   1.439   5.111   0.542 -0.7046 -0.4105 -0.2613
  848SOL    MW4 3166   1.398   5.101   0.618  0.0522 -0.3480  0.1594
  849SOL     OW 3167   0.536   2.214   3.067  0.0884 -0.4582 -0.2363
  849SOL    HW2 3168   0.594   2.168   3.006  1.1553 -0.4371  0.7125
  849SOL    HW3 3169   0.509   2.293   3.019  0.3313 -0.7852 -0.9286
  849SOL    MW4 3170   0.540   2.218   3.053  0.2612 -0.4986 -0.2025
  850SOL     OW 3171   1.857   0.318   5.595 -0.4696  0.2665 -0.7373
  850SOL    HW2 3172   1.940   0.305   5.550 -0.0749 -0.1630  0.0904
  850SOL    HW3 3173   1.859   0.256   5.668  0.5073  3.3225  2.0559
  850SOL    MW4 3174   1.868   0.308   5.598 -0.2886  0.6130 -0.2596
  851SOL     OW 3175   2.111   1.075   1.469  0.1662 -0.4598  0.1456
  851SOL    HW2 3176   2.162   1.032   1.399  1.5659  0.2975  0.6608
  851SOL    HW3 3177   2.153   1.160   1.481 -0.7542 -0.1208  1.1489
  851SOL    MW4 3178   2.124   1.080   1.461  0.2294 -0.3151  0.3459
  852SOL     OW 3179   0.224   1.733   5.632 -0.3649  0.0697  0.2634
  852SOL    HW2 3180   0.316   1.733   5.607 -0.0538 -1.2640  1.3070
  852SOL    HW3 3181   0.220   1.681   5.713 -2.0570 -0.0977  0.1236
  852SOL    MW4 3182   0.236   1.726   5.640 -0.5471 -0.1283  0.3827
  853SOL     OW 3183   4.874   6.226   0.267 -0.2915 -0.6837  0.0567
  853SOL    HW2 3184   4.908   6.137   0.271  1.5802  0.0178  2.5540
  853SOL    HW3 3185   4.878   6.257   0.358 -0.0376  2.2433 -0.8511
  853SOL    MW4 3186   4.879   6.218   0.280 -0.0110 -0.2049  0.2664
  854SOL     OW 3187   1.929   1.259   2.016  0.0575 -0.6304  0.0422
  854SOL    HW2 3188   1.867   1.228   1.950  0.3209  0.6643 -0.8624
  854SOL    HW3 3189   1.991   1.313   1.967  0.2916  0.3398  1.3423
  854SOL    MW4 3190   1.929   1.262   2.001  0.1232 -0.3316  0.0944
  855SOL     OW 3191   0.471   5.175   5.037 -0.5375 -0.0830 -0.0508
  855SOL    HW2 3192   0.542   5.156   4.975 -0.1254  1.1260  0.0181
  855SOL    HW3 3193   0.441   5.089   5.066  1.5917 -0.6358  0.7177
  855SOL    MW4 3194   0.476   5.161   5.032 -0.2022  0.0036  0.0597
  856SOL     OW 3195   2.619   1.871   1.776  0.1831  0.0360  0.7027
  856SOL    HW2 3196   2.703   1.879   1.731  0.3948  0.7586  1.2231
  856SOL    HW3 3197   2.566   1.815   1.718  1.1180 -0.6952  0.5288
  856SOL    MW4 3198   2.623   1.864   1.762  0.3344  0.0348  0.7484
  857SOL     OW 3199   0.481   0.586   6.258  0.0134  0.6833  0.6202
  857SOL    HW2 3200   0.445   0.609   6.343  1.1034  0.0146  1.2814
  857SOL    HW3 3201   0.463   0.493   6.249  1.4834  0.3436  0.9435
  857SOL    MW4 3202   0.474   0.577   6.268  0.3512  0.5503  0.7501
  858SOL     OW 3203   5.887   2.230   0.449 -0.3777  0.1641  0.1056
  858SOL    HW2 3204   5.802   2.209   0.489 -0.1586  0.2749  0.6350
  858SOL    HW3 3205   5.868   2.301   0.388 -0.4540  1.0657  1.1559
  858SOL    MW4 3206   5.873   2.236   0.446 -0.3589  0.2977  0.3140
  859SOL     OW 3207   1.861   5.594   1.852  0.3206 -0.5650 -0.2551
  859SOL    HW2 3208   1.924   5.655   1.890 -0.3489 -0.1642  0.2493
  859SOL    HW3 3209   1.829   5.543   1.926 -0.6648 -0.0848 -0.3301
  859SOL    MW4 3210   1.865   5.595   1.867  0.1023 -0.4488 -0.1985
  860SOL     OW 3211   3.137   0.605   1.861 -0.0552  0.1114  0.1678
  860SOL    HW2 3212   3.177   0.572   1.941 -1.6627 -1.1777  0.4881
  860SOL    HW3 3213   3.061   0.655   1.891  0.7578  1.8032 -0.4617
  860SOL    MW4 3214   3.132   0.607   1.876 -0.1600  0.1645  0.1270
  861SOL     OW 3215   1.369   2.060   0.799  0.2346 -0.4053  0.0153
  861SOL    HW2 3216   1.398   2.146   0.771 -0.6823  0.4052  1.4171
  861SOL    HW3 3217   1.385   2.003   0.724 -0.5144  1.2858 -1.4996
  861SOL    MW4 3218   1.375   2.064   0.786  0.0148 -0.0753  0.0004
  862SOL     OW 3219   1.574   6.199   3.553  0.3986 -0.2949  0.0131
  862SOL    HW2 3220   1.565   6.116   3.600 -2.9195 -1.0269 -1.5484
  862SOL    HW3 3221   1.553   6.266   3.618  0.4316 -0.8951  0.6550
  862SOL    MW4 3222   1.570   6.197   3.568 -0.0348 -0.4707 -0.1083
  863SOL     OW 3223   3.951   1.476   2.842 -0.5863  0.4794 -0.0375
  863SOL    HW2 3224   4.007   1.528   2.900 -0.0871  1.6322 -1.5163
  863SOL    HW3 3225   3.863   1.486   2.879 -0.2596  1.0942  0.5948
  863SOL    MW4 3226   3.947   1.484   2.855 -0.4773  0.7126 -0.1492
  864SOL     OW 3227   6.257   2.745   2.617  0.7009  0.3413  0.1301
  864SOL    HW2 3228   6.183   2.773   2.671  0.6827 -0.1723  0.3763
  864SOL    HW3 3229   6.310   2.691   2.675  0.3072 -0.8169 -0.5589
  864SOL    MW4 3230   6.255   2.742   2.632  0.6466  0.1207  0.0717
  865SOL     OW 3231   0.420   0.671   3.965  0.2265 -0.2680  0.1004
  865SOL    HW2 3232   0.396   0.651   3.874 -1.1035  0.4693  0.2476
  865SOL    HW3 3233   0.386   0.760   3.978 -0.2335 -0.6290  1.5255
  865SOL    MW4 3234   0.412   0.680   3.954 -0.0096 -0.2184  0.3078
  866SOL     OW 3235   2.177   2.915   2.742  0.6300  0.1661  0.3664
  866SOL    HW2 3236   2.171   2.978   2.670  1.2811 -1.8234 -1.5218
  866SOL    HW3 3237   2.094   2.867   2.739  1.1521 -0.7500  0.0884
  866SOL    MW4 3238   2.166   2.917   2.732  0.7848 -0.2173  0.0806
  867SOL     OW 3239   0.816   0.801   4.798  0.1510  0.5138 -0.2971
  867SOL    HW2 3240   0.904   0.769   4.775  0.2907  1.8757 -1.8221
  867SOL    HW3 3241   0.832   0.881   4.847 -0.2452  0.3026  0.1803
  867SOL    MW4 3242   0.830   0.807   4.802  0.1171  0.6656 -0.4353
  868SOL     OW 3243   3.158   1.588   3.872 -0.3152  0.4687  0.0266
  868SOL    HW2 3244   3.089   1.526   3.852  0.3536  0.2414 -1.7319
  868SOL    HW3 3245   3.218   1.583   3.797 -0.7475  3.9256 -0.7345
  868SOL    MW4 3246   3.157   1.579   3.859 -0.2840  0.8948 -0.3059
  869SOL     OW 3247   5.883   0.577   0.052  0.1995 -0.3832  0.1529
  869SOL    HW2 3248   5.930   0.634   0.112  1.2818  0.4847 -1.4527
  869SOL    HW3 3249   5.926   0.492   0.061 -1.2724 -0.9734  2.3822
  869SOL    MW4 3250   5.895   0.573   0.061  0.1481 -0.3465  0.2352
  870SOL     OW 3251   4.236   6.411   2.195 -0.7481  0.3327  0.1333
  870SOL    HW2 3252   4.262   6.341   2.254  0.5451  0.6878  0.0252
  870SOL    HW3 3253   4.145   6.392   2.173 -1.2417  0.1381  2.1391
  870SOL    MW4 3254   4.227   6.400   2.200 -0.6426  0.3539  0.3837
  871SOL     OW 3255   1.155   4.343   0.820  0.7884 -0.0311  0.3600
  871SOL    HW2 3256   1.204   4.396   0.882  0.1991  0.6414  0.2580
  871SOL    HW3 3257   1.098   4.405   0.775  0.1791 -0.7307  0.1487
  871SOL    MW4 3258   1.154   4.358   0.822  0.6303 -0.0347  0.3187
  872SOL     OW 3259   1.918   6.166   2.716 -0.2732 -0.3240  0.2265
  872SOL    HW2 3260   1.961   6.148   2.800  1.3728 -1.1870 -0.7311
  872SOL    HW3 3261   1.956   6.249   2.687  0.1253 -0.6608 -0.2319
  872SOL    MW4 3262   1.929   6.175   2.723 -0.0035 -0.4823  0.0397
  873SOL     OW 3263   0.545   4.138   5.610 -0.1422 -0.0896 -0.2677
  873SOL    HW2 3264   0.599   4.071   5.651 -1.8832 -0.4919  1.5037
  873SOL    HW3 3265   0.535   4.206   5.677 -2.3838 -0.3767 -0.2076
  873SOL    MW4 3266   0.550   4.138   5.624 -0.6676 -0.1806 -0.0260
  874SOL     OW 3267   3.143   2.320   1.783  0.0493 -0.1015 -0.2436
  874SOL    HW2 3268   3.130   2.251   1.848  0.9909 -0.3624 -0.3184
  874SOL    HW3 3269   3.097   2.395   1.819 -1.5741 -0.9277 -0.4754
  874SOL    MW4 3270   3.135   2.321   1.796 -0.0406 -0.2449 -0.2841
  875SOL     OW 3271   0.895   5.867   1.621  0.1483 -0.0904  0.9441
  875SOL    HW2 3272   0.806   5.902   1.616 -0.1570 -0.8992  0.7414
  875SOL    HW3 3273   0.936   5.895   1.540 -0.0075  0.0282  0.9044
  875SOL    MW4 3274   0.889   5.876   1.610  0.0874 -0.1815  0.9121
  876SOL     OW 3275   2.938   1.904   0.584 -0.3067  0.0996  0.4819
  876SOL    HW2 3276   2.888   1.828   0.613 -2.1465  1.0077 -0.1684
  876SOL    HW3 3277   2.898   1.978   0.630  1.1483  0.7436  0.7598
  876SOL    MW4 3278   2.926   1.904   0.594 -0.3575  0.3044  0.4328
  877SOL     OW 3279   3.722   0.351   2.468 -0.1995  0.3520 -0.2546
  877SOL    HW2 3280   3.730   0.312   2.556  0.4110 -0.7623 -0.7849
  877SOL    HW3 3281   3.670   0.287   2.419 -2.5858  2.0615 -0.0943
  877SOL    MW4 3282   3.716   0.337   2.473 -0.4338  0.4305 -0.3034
  878SOL     OW 3283   1.956   3.928   4.102 -0.8793  0.0811  0.0949
  878SOL    HW2 3284   1.926   3.885   4.182 -2.7319 -2.0931 -1.6088
  878SOL    HW3 3285   1.917   3.876   4.031  2.0389  0.8357 -2.2855
  878SOL    MW4 3286   1.947   3.916   4.103 -0.7387 -0.1062 -0.4439
  879SOL     OW 3287   1.538   2.824   2.953 -0.3983 -0.3086  0.0302
  879SOL    HW2 3288   1.625   2.853   2.924  0.2520 -0.4563  1.7425
  879SOL    HW3 3289   1.480   2.897   2.929  0.4926  0.5401  0.3741
  879SOL    MW4 3290   1.542   2.838   2.946 -0.1950 -0.2161  0.3015
  880SOL     OW 3291   2.349   2.518   2.325  0.3872  0.1756  0.6415
  880SOL    HW2 3292   2.311   2.590   2.376  1.2055  1.7738 -0.8704
  880SOL    HW3 3293   2.302   2.520   2.242 -1.5043 -2.9212  1.5021
  880SOL    MW4 3294   2.338   2.528   2.321  0.2456 -0.0221  0.5556
  881SOL     OW 3295   0.606   3.998   4.276 -0.1614  0.1167  0.0323
  881SOL    HW2 3296   0.595   4.063   4.345  0.8273  0.7844 -0.4103
  881SOL    HW3 3297   0.619   4.049   4.196  2.2843 -0.5203 -0.0800
  881SOL    MW4 3298   0.606   4.013   4.275  0.2917  0.1208 -0.0409
  882SOL     OW 3299   5.411   5.500   2.243 -0.0783 -0.2622  0.0380
  882SOL    HW2 3300   5.316   5.513   2.251 -0.1513 -0.1466 -0.9282
  882SOL    HW3 3301   5.445   5.522   2.329 -0.7555  1.3167 -0.0695
  882SOL    MW4 3302   5.403   5.504   2.255 -0.1773 -0.0386 -0.1037
  883SOL     OW 3303   3.638   5.062   3.024 -0.2813 -0.2890  0.2721
  883SOL    HW2 3304   3.597   5.062   3.111 -0.5093  0.6518  0.1775
  883SOL    HW3 3305   3.731   5.075   3.042  0.0223 -2.4179  0.4870
  883SOL    MW4 3306   3.645   5.064   3.038 -0.2713 -0.4457  0.2880
  884SOL     OW 3307   5.803   5.387   6.031 -0.0966 -0.2969  0.1614
  884SOL    HW2 3308   5.746   5.435   6.091 -0.0007  0.0358 -0.0111
  884SOL    HW3 3309   5.859   5.455   5.993  0.2000 -0.5799  0.0955
  884SOL    MW4 3310   5.803   5.402   6.034 -0.0448 -0.2904  0.1299
  885SOL     OW 3311   0.133   2.929   4.209 -0.2051 -0.3084  0.2824
  885SOL    HW2 3312   0.112   2.853   4.155 -0.1106  0.3992 -0.7748
  885SOL    HW3 3313   0.121   3.005   4.151  0.0203  0.4681  1.2143
  885SOL    MW4 3314   0.129   2.929   4.194 -0.1629 -0.1126  0.2659
  886SOL     OW 3315   1.744   0.347   0.624 -0.3934 -0.3558  0.2973
  886SOL    HW2 3316   1.706   0.409   0.562 -0.3210  0.1524  0.7505
  886SOL    HW3 3317   1.673   0.286   0.644 -0.9097  0.4237  0.9322
  886SOL    MW4 3318   1.730   0.347   0.618 -0.4519 -0.1859  0.4409
  887SOL     OW 3319   5.690   6.143   5.815  0.3011 -0.2754  0.0129
  887SOL    HW2 3320   5.638   6.223   5.816  1.0586  0.2280 -0.1974
  887SOL    HW3 3321   5.668   6.100   5.732  0.3927  0.0521 -0.1816
  887SOL    MW4 3322   5.680   6.148   5.804  0.4131 -0.1658 -0.0405
  888SOL     OW 3323   3.395   6.305   0.301  0.0875 -0.5929  0.0769
  888SOL    HW2 3324   3.461   6.339   0.362  0.7747 -0.7367 -0.5689
  888SOL    HW3 3325   3.330   6.262   0.357  0.3308 -0.0999  0.7504
  888SOL    MW4 3326   3.395   6.304   0.317  0.2103 -0.5468  0.0805
  889SOL     OW 3327   1.861   1.049   5.637  0.5900  0.2648  0.0464
  889SOL    HW2 3328   1.889   0.978   5.695 -0.0531 -1.4317 -1.6138
  889SOL    HW3 3329   1.798   1.099   5.689  3.3237  1.5953  2.3396
  889SOL    MW4 3330   1.857   1.046   5.652  0.8658  0.2165  0.1299
  890SOL     OW 3331   0.306   2.382   4.980  0.3038 -0.2783  0.0445
  890SOL    HW2 3332   0.367   2.311   4.960  0.6361 -0.4517  1.5408
  890SOL    HW3 3333   0.361   2.461   4.983  0.0520 -0.0491 -0.8922
  890SOL    MW4 3334   0.321   2.383   4.978  0.3145 -0.2710  0.1183
  891SOL     OW 3335   5.405   4.353   1.228  0.1117 -0.0140 -0.4168
  891SOL    HW2 3336   5.424   4.314   1.142 -1.6293  1.0150 -1.3312
  891SOL    HW3 3337   5.448   4.439   1.225 -1.0967  0.6053 -0.8613
  891SOL    MW4 3338   5.413   4.360   1.216 -0.2774  0.2034 -0.5961
  892SOL     OW 3339   1.975   1.285   5.485  0.3555  0.0081 -0.0304
  892SOL    HW2 3340   1.942   1.320   5.403 -2.3129  1.6133  1.5728
  892SOL    HW3 3341   1.939   1.197   5.490 -0.3328  0.2739 -0.1667
  892SOL    MW4 3342   1.966   1.278   5.475 -0.0874  0.2549  0.1631
  893SOL     OW 3343   3.163   0.307   3.912  1.3332 -0.2094 -0.2059
  893SOL    HW2 3344   3.182   0.376   3.976 -1.9517 -1.0226  1.9356
  893SOL    HW3 3345   3.188   0.226   3.956 -0.4939 -0.7474 -0.0894
  893SOL    MW4 3346   3.169   0.306   3.927  0.6587 -0.3877  0.0920
  894SOL     OW 3347   2.033   4.386   0.874 -0.0166  0.0668  0.3236
  894SOL    HW2 3348   1.981   4.459   0.907 -0.9002 -0.4580  0.1348
  894SOL    HW3 3349   1.970   4.315   0.864  0.1221  0.2677 -2.8148
  894SOL    MW4 3350   2.018   4.386   0.877 -0.1149  0.0241 -0.1154
  895SOL     OW 3351   0.344   0.933   6.103 -0.4893 -0.2457  0.1888
  895SOL    HW2 3352   0.386   0.857   6.063  0.2482  0.6243 -0.7715
  895SOL    HW3 3353   0.403   0.958   6.175  1.6023  1.8566 -2.0568
  895SOL    MW4 3354   0.358   0.926   6.107 -0.1160  0.1464 -0.2342
  896SOL     OW 3355   5.313   1.737   6.307  0.1705  0.1181 -1.1929
  896SOL    HW2 3356   5.236   1.740   6.249 -2.4645 -0.7756  1.9606
  896SOL    HW3 3357   5.303   1.813   6.364 -0.0148 -1.4890  1.0393
  896SOL    MW4 3358   5.301   1.747   6.307 -0.2016 -0.2119 -0.4823
  897SOL     OW 3359   1.515   4.867   2.125 -0.1405  0.4329  0.1794
  897SOL    HW2 3360   1.486   4.850   2.035 -1.2312 -0.8392  0.7421
  897SOL    HW3 3361   1.454   4.817   2.179  1.1566  0.3358  1.5847
  897SOL    MW4 3362   1.503   4.858   2.120 -0.1133  0.2522  0.4391
  898SOL     OW 3363   1.563   0.327   2.921  0.6475 -0.0792  0.0659
  898SOL    HW2 3364   1.582   0.420   2.922 -1.2178  0.4701 -2.7052
  898SOL    HW3 3365   1.633   0.288   2.869 -0.6261  0.4725 -2.1664
  898SOL    MW4 3366   1.574   0.334   2.914  0.2334  0.0661 -0.5943
  899SOL     OW 3367   4.610   4.701   0.959  0.7645  0.1126 -0.5037
  899SOL    HW2 3368   4.538   4.659   0.912 -1.1993  1.6008  1.0423
  899SOL    HW3 3369   4.638   4.635   1.023 -0.4881  0.1351  0.1042
  899SOL    MW4 3370   4.604   4.687   0.961  0.3401  0.3120 -0.2195
  900SOL     OW 3371   1.124   3.948   3.402  0.1346  0.0156  0.1577
  900SOL    HW2 3372   1.123   3.952   3.307  0.5935  1.4119  0.1910
  900SOL    HW3 3373   1.212   3.977   3.427  0.2543 -0.9892  1.0015
  900SOL    MW4 3374   1.135   3.952   3.393  0.2109  0.0672  0.2734
  901SOL     OW 3375   1.117   5.695   1.473 -0.1691  0.5725  0.1084
  901SOL    HW2 3376   1.065   5.649   1.407 -0.1223  0.3371  0.2334
  901SOL    HW3 3377   1.168   5.758   1.423  0.8311 -0.4808 -0.2533
  901SOL    MW4 3378   1.117   5.697   1.458 -0.0310  0.4025  0.0771
  902SOL     OW 3379   5.308   3.882   5.265 -0.1246 -0.0338 -0.7087
  902SOL    HW2 3380   5.368   3.812   5.291 -0.3427  0.1403  0.3404
  902SOL    HW3 3381   5.360   3.941   5.210  0.7419  0.2328  0.3665
  902SOL    MW4 3382   5.323   3.881   5.261 -0.0390  0.0244 -0.4285
  903SOL     OW 3383   3.806   1.120   6.414  0.0606  0.1491 -0.5383
  903SOL    HW2 3384   3.853   1.159   6.340 -0.7472  1.6432 -0.3060
  903SOL    HW3 3385   3.873   1.112   6.483  0.1790  1.5682 -0.4527
  903SOL    MW4 3386   3.821   1.124   6.413 -0.0304  0.5335 -0.4963
  904SOL     OW 3387   1.720   4.829   2.337  0.0120 -0.1698 -0.0318
  904SOL    HW2 3388   1.671   4.869   2.266  0.2420  1.4034  0.6495
  904SOL    HW3 3389   1.803   4.804   2.298  1.7544  4.1528  0.3059
  904SOL    MW4 3390   1.725   4.831   2.323  0.2722  0.6081  0.1026
  905SOL     OW 3391   2.986   2.550   1.870  0.3073 -0.3195 -0.2734
  905SOL    HW2 3392   2.913   2.570   1.929  0.1161  1.0213 -0.9292
  905SOL    HW3 3393   2.960   2.587   1.786  2.0086  0.7742 -0.3656
  905SOL    MW4 3394   2.973   2.557   1.867  0.5065  0.0017 -0.3720
  906SOL     OW 3395   1.659   6.418   5.858 -0.1714  0.0924  0.4246
  906SOL    HW2 3396   1.725   6.479   5.825 -2.3690  1.4387 -1.8797
  906SOL    HW3 3397   1.642   6.359   5.784 -1.4926 -0.2525  0.9696
  906SOL    MW4 3398   1.665   6.418   5.844 -0.6357  0.2245  0.1925
  907SOL     OW 3399   1.638   1.574   1.332 -0.0226  0.4141  0.1378
  907SOL    HW2 3400   1.579   1.508   1.296 -1.1989  1.5322 -0.0350
  907SOL    HW3 3401   1.666   1.625   1.256 -0.7796  1.4114  0.5140
  907SOL    MW4 3402   1.634   1.572   1.317 -0.2777  0.6932  0.1647
  908SOL     OW 3403   5.726   2.317   6.283  0.1293 -0.0912 -0.4640
  908SOL    HW2 3404   5.734   2.232   6.239  0.7189  0.7697 -2.1230
  908SOL    HW3 3405   5.633   2.339   6.277  0.2526  0.1812 -1.6771
  908SOL    MW4 3406   5.715   2.309   6.276  0.2234  0.0583 -0.8430
  909SOL     OW 3407   1.865   0.209   0.029  0.1676 -0.1896 -0.5534
  909SOL    HW2 3408   1.900   0.171  -0.051  1.2238  0.2668 -0.3250
  909SOL    HW3 3409   1.814   0.285   0.000  0.4351 -0.1032 -0.7990
  909SOL    MW4 3410   1.863   0.214   0.015  0.3422 -0.1180 -0.5557
  910SOL     OW 3411   0.642   5.963   2.241  0.0125  0.2438 -0.1858
  910SOL    HW2 3412   0.642   5.877   2.200  0.5549  0.4016 -0.5162
  910SOL    HW3 3413   0.658   5.946   2.334 -1.2982 -0.1194 -0.0061
  910SOL    MW4 3414   0.644   5.950   2.248 -0.0889  0.2167 -0.2057
  911SOL     OW 3415   2.655   6.288   1.405  0.0726  0.1334  0.1958
  911SOL    HW2 3416   2.598   6.311   1.331 -0.1976  0.2921  0.4537
  911SOL    HW3 3417   2.683   6.198   1.385 -0.7539 -0.1705  0.3685
  911SOL    MW4 3418   2.651   6.279   1.392 -0.0721  0.1142  0.2526
  912SOL     OW 3419   4.588   3.118   0.937 -0.0740 -0.2148 -0.1670
  912SOL    HW2 3420   4.656   3.051   0.943  2.6316  2.2797 -0.0420
  912SOL    HW3 3421   4.548   3.120   1.023 -0.0831 -1.5357 -0.1282
  912SOL    MW4 3422   4.592   3.110   0.949  0.2818 -0.0599 -0.1454
  913SOL     OW 3423   1.133   5.553   6.082 -0.1290  0.2975  0.8278
  913SOL    HW2 3424   1.173   5.635   6.053 -0.9241  0.5476  0.4077
  913SOL    HW3 3425   1.039   5.568   6.074 -0.2817 -0.7150  0.5946
  913SOL    MW4 3426   1.126   5.565   6.077 -0.2540  0.1969  0.7416
  914SOL     OW 3427   3.426   1.606   4.879 -0.2663  0.0788 -0.0547
  914SOL    HW2 3428   3.361   1.566   4.937 -0.1372 -0.8224 -0.5210
  914SOL    HW3 3429   3.411   1.567   4.794 -0.6430  1.6190 -0.7367
  914SOL    MW4 3430   3.416   1.596   4.876 -0.2990  0.1631 -0.2062
  915SOL     OW 3431   1.517   6.142   5.040  0.1608 -0.0079 -0.9312
  915SOL    HW2 3432   1.469   6.073   4.996 -2.3334  0.4131  0.9293
  915SOL    HW3 3433   1.459   6.218   5.036  1.8968  1.3775 -1.0097
  915SOL    MW4 3434   1.503   6.143   5.034  0.0608  0.2305 -0.6961
  916SOL     OW 3435   2.518   0.696   5.801 -0.0896  0.5024 -0.3104
  916SOL    HW2 3436   2.611   0.712   5.788 -0.1837  1.8407  0.4923
  916SOL    HW3 3437   2.486   0.773   5.848 -1.5956  0.0467 -0.5152
  916SOL    MW4 3438   2.526   0.708   5.806 -0.3007  0.6189 -0.2315
  917SOL     OW 3439   6.034   5.067   0.409 -0.2158  0.5313 -0.2041
  917SOL    HW2 3440   6.124   5.039   0.392 -0.1313  0.9757 -0.4883
  917SOL    HW3 3441   6.002   5.005   0.475  0.3946  0.5519  0.1153
  917SOL    MW4 3442   6.041   5.055   0.415 -0.1241  0.5927 -0.1994
  918SOL     OW 3443   1.496   2.296   5.409 -0.2481  0.5631  0.5751
  918SOL    HW2 3444   1.569   2.252   5.366 -1.4217  0.1127 -1.0661
  918SOL    HW3 3445   1.514   2.389   5.401 -0.6516  0.5024 -1.3537
  918SOL    MW4 3446   1.508   2.302   5.403 -0.4562  0.4957  0.1041
  919SOL     OW 3447   0.102   6.110   6.097  0.6614  0.4214  0.2136
  919SOL    HW2 3448   0.071   6.181   6.040 -0.8687 -0.5743 -0.2408
  919SOL    HW3 3449   0.132   6.042   6.038  2.2966  0.6981  0.6521
  919SOL    MW4 3450   0.102   6.111   6.082  0.6753  0.3265  0.2115
  920SOL     OW 3451   1.950   4.569   5.682 -0.2278  0.1159  0.0989
  920SOL    HW2 3452   1.858   4.590   5.695  0.0299  0.5346  1.4021
  920SOL    HW3 3453   1.966   4.585   5.589 -1.0909  1.5450  0.1700
  920SOL    MW4 3454   1.940   4.574   5.672 -0.3077  0.3597  0.2802
  921SOL     OW 3455   6.013   6.367   2.610  0.1432 -0.0467  0.2953
  921SOL    HW2 3456   5.949   6.434   2.588  1.4797  1.4490  0.7580
  921SOL    HW3 3457   6.073   6.365   2.535 -0.2020 -1.1763  0.0233
  921SOL    MW4 3458   6.012   6.375   2.597  0.2740  0.0016  0.3205
  922SOL     OW 3459   2.130   4.577   6.380 -0.8261 -1.2184 -0.3097
  922SOL    HW2 3460   2.076   4.651   6.353 -1.0883  0.0655  3.1961
  922SOL    HW3 3461   2.200   4.572   6.315 -1.9806  0.7293 -1.8015
  922SOL    MW4 3462   2.132   4.586   6.368 -1.0130 -0.7920 -0.0440
  923SOL     OW 3463   0.894   4.132   2.973  0.4733  0.7426 -0.2881
  923SOL    HW2 3464   0.957   4.115   3.043  2.0838 -1.0470 -2.0616
  923SOL    HW3 3465   0.934   4.200   2.919  0.4137  0.3521 -0.8396
  923SOL    MW4 3466   0.907   4.138   2.975  0.6779  0.4550 -0.5949
  924SOL     OW 3467   0.059   0.874   1.985 -0.3965 -0.0875 -0.3068
  924SOL    HW2 3468   0.131   0.825   1.946 -0.2038 -0.2730  0.2600
  924SOL    HW3 3469   0.064   0.961   1.945 -0.8096 -0.5567 -1.3996
  924SOL    MW4 3470   0.069   0.879   1.975 -0.4256 -0.1739 -0.3762
  925SOL     OW 3471   0.106   1.297   5.941 -0.1251  0.3952 -0.4264
  925SOL    HW2 3472   0.021   1.326   5.973 -0.0376  0.5033 -0.2881
  925SOL    HW3 3473   0.116   1.208   5.973 -0.1091  0.4456 -0.2889
  925SOL    MW4 3474   0.096   1.289   5.949 -0.1115  0.4161 -0.3900
  926SOL     OW 3475   2.067   2.482   4.230 -0.2221  0.8111  0.1988
  926SOL    HW2 3476   2.133   2.463   4.165 -1.2037  2.2240 -1.3091
  926SOL    HW3 3477   2.106   2.550   4.286  0.9168 -0.9614  1.6610
  926SOL    MW4 3478   2.081   2.489   4.229 -0.2013  0.7637  0.1927
  927SOL     OW 3479   5.598   3.503   5.057 -0.1796 -0.3135 -0.3853
  927SOL    HW2 3480   5.659   3.436   5.026  0.3008 -0.6464  1.2041
  927SOL    HW3 3481   5.514   3.457   5.065  0.0473 -0.6194  0.2718
  927SOL    MW4 3482   5.595   3.488   5.054 -0.0863 -0.3978 -0.0889
  928SOL     OW 3483   3.418   5.009   2.285 -0.9525 -0.5779  0.2228
  928SOL    HW2 3484   3.333   5.019   2.329 -0.1819 -1.5111  1.9989
  928SOL    HW3 3485   3.466   4.947   2.339  0.8413 -0.1634 -0.8236
  928SOL    MW4 3486   3.413   5.002   2.298 -0.6142 -0.6463  0.3191
  929SOL     OW 3487   5.849   0.292   4.663 -0.3595 -0.4518  0.3731
  929SOL    HW2 3488   5.815   0.209   4.631  2.0822 -0.6489 -2.0013
  929SOL    HW3 3489   5.845   0.351   4.587  2.5447  0.0652  0.4993
  929SOL    MW4 3490   5.844   0.289   4.649  0.3458 -0.4096  0.0765
  930SOL     OW 3491   5.098   5.021   4.186  0.0796 -0.1455 -0.4987
  930SOL    HW2 3492   5.142   5.098   4.222 -1.8080  0.6626  0.2156
  930SOL    HW3 3493   5.132   4.948   4.236 -1.7943  0.8386  2.4695
  930SOL    MW4 3494   5.109   5.022   4.197 -0.4167  0.0910 -0.0128
  931SOL     OW 3495   2.564   3.544   0.963  0.0546 -0.2191 -0.4438
  931SOL    HW2 3496   2.532   3.557   1.052 -1.0508 -3.1925 -0.3151
  931SOL    HW3 3497   2.659   3.540   0.972 -0.1156 -2.2552  0.9440
  931SOL    MW4 3498   2.572   3.545   0.976 -0.1137 -0.8800 -0.2437
  932SOL     OW 3499   3.601   6.150   5.595 -0.5388  0.3426  0.2396
  932SOL    HW2 3500   3.522   6.099   5.611  0.6871 -1.8775 -0.4021
  932SOL    HW3 3501   3.638   6.166   5.682 -0.5742 -0.4989  0.4160
  932SOL    MW4 3502   3.596   6.145   5.609 -0.3817 -0.0613  0.1782
  933SOL     OW 3503   0.375   5.767   2.415 -0.1080  0.2462 -0.2387
  933SOL    HW2 3504   0.370   5.861   2.399 -0.0598  0.5381  1.2691
  933SOL    HW3 3505   0.288   5.744   2.449  0.2634  0.0184  0.5966
  933SOL    MW4 3506   0.363   5.776   2.418 -0.0527  0.2546  0.0705
  934SOL     OW 3507   1.932   1.220   1.143  0.3855 -0.0776  0.5744
  934SOL    HW2 3508   1.881   1.187   1.217  0.5025 -1.1911  0.1849
  934SOL    HW3 3509   1.909   1.162   1.070  1.9741 -0.4330  0.3149
  934SOL    MW4 3510   1.922   1.208   1.143  0.6106 -0.2714  0.4887
  935SOL     OW 3511   4.131   4.205   0.707 -0.1246 -0.0907 -0.1020
  935SOL    HW2 3512   4.077   4.133   0.740  0.3201 -0.0040  0.8580
  935SOL    HW3 3513   4.221   4.178   0.726  0.1010  0.2989 -0.5991
  935SOL    MW4 3514   4.136   4.192   0.714 -0.0361 -0.0279 -0.0409
  936SOL     OW 3515   2.837   6.397   5.583 -0.4867 -0.4368  0.4398
  936SOL    HW2 3516   2.818   6.485   5.614 -0.4257 -0.9616  2.0576
  936SOL    HW3 3517   2.790   6.390   5.500  1.1279  1.7742 -0.7713
  936SOL    MW4 3518   2.828   6.408   5.576 -0.2657 -0.2143  0.4935
  937SOL     OW 3519   5.941   3.567   0.872 -0.2505  0.5506 -0.3679
  937SOL    HW2 3520   5.968   3.656   0.895  1.6819 -0.1504  0.3023
  937SOL    HW3 3521   6.001   3.510   0.922 -2.5586 -1.1746  0.6130
  937SOL    MW4 3522   5.953   3.571   0.882 -0.3001  0.2305 -0.1501
  938SOL     OW 3523   3.050   1.465   3.436 -0.3213 -0.5505 -0.2446
  938SOL    HW2 3524   3.108   1.433   3.505  1.5241  2.2094 -0.3957
  938SOL    HW3 3525   3.095   1.444   3.355 -0.6054 -0.3050 -0.4675
  938SOL    MW4 3526   3.063   1.458   3.434 -0.1153 -0.1540 -0.2940
  939SOL     OW 3527   4.888   5.576   2.810  0.2668 -0.1916  0.6712
  939SOL    HW2 3528   4.895   5.619   2.895 -0.4208 -0.4204  0.8532
  939SOL    HW3 3529   4.978   5.554   2.786  0.5714  0.8475  0.8302
  939SOL    MW4 3530   4.901   5.578   2.818  0.2163 -0.0847  0.7162
  940SOL     OW 3531   0.493   2.735   5.531 -0.6099 -0.0463  0.1646
  940SOL    HW2 3532   0.520   2.798   5.465 -0.3092 -0.6601 -0.3135
  940SOL    HW3 3533   0.460   2.788   5.603 -2.1953  0.6184 -1.0060
  940SOL    MW4 3534   0.492   2.750   5.531 -0.7794 -0.0396 -0.0529
  941SOL     OW 3535   6.085   4.013   1.461  0.1347 -0.1649  0.6797
  941SOL    HW2 3536   6.138   3.986   1.537 -2.7225 -2.0976  2.1785
  941SOL    HW3 3537   6.057   4.102   1.482  1.4761  0.3078  0.5757
  941SOL    MW4 3538   6.089   4.021   1.474 -0.0653 -0.3575  0.8637
  942SOL     OW 3539   4.841   2.673   1.573 -0.1985 -0.1864  0.0479
  942SOL    HW2 3540   4.770   2.722   1.614 -1.1410 -0.9181 -0.6743
  942SOL    HW3 3541   4.910   2.670   1.640 -0.3396  1.6020  0.3020
  942SOL    MW4 3542   4.841   2.679   1.587 -0.3415 -0.0470 -0.0138
  943SOL     OW 3543   0.820   0.417   3.298  0.3740 -0.0054  0.1289
  943SOL    HW2 3544   0.779   0.463   3.225 -1.2254 -1.3473  0.1247
  943SOL    HW3 3545   0.852   0.335   3.260 -1.4760 -1.2372  1.0765
  943SOL    MW4 3546   0.819   0.412   3.283 -0.0811 -0.3449  0.2534
  944SOL     OW 3547   2.377   5.946   1.000  0.1196  0.7104  0.0501
  944SOL    HW2 3548   2.305   5.908   1.050 -0.2023  0.2847 -0.7203
  944SOL    HW3 3549   2.346   6.033   0.976 -0.0855  0.5772 -0.1682
  944SOL    MW4 3550   2.363   5.953   1.004  0.0500  0.6366 -0.0804
  945SOL     OW 3551   0.542   1.811   5.287 -0.8005 -0.3418  0.5325
  945SOL    HW2 3552   0.539   1.715   5.296 -1.6625 -0.2896  0.9823
  945SOL    HW3 3553   0.537   1.843   5.377 -1.4233  0.1362  0.3357
  945SOL    MW4 3554   0.541   1.802   5.300 -0.9964 -0.2718  0.5659
  946SOL     OW 3555   5.228   1.502   0.012 -0.0938  0.0392 -0.0780
  946SOL    HW2 3556   5.150   1.517   0.065 -0.7951 -2.6187 -0.2056
  946SOL    HW3 3557   5.245   1.586  -0.030 -0.1242  1.9948  3.4628
  946SOL    MW4 3558   5.220   1.515   0.013 -0.1904 -0.0534  0.3723
  947SOL     OW 3559   3.639   2.584   0.450 -0.1538  0.2799 -0.5759
  947SOL    HW2 3560   3.614   2.494   0.470 -0.8906  0.4119 -0.8727
  947SOL    HW3 3561   3.557   2.633   0.455  0.6232  1.4774  2.3606
  947SOL    MW4 3562   3.625   2.578   0.453 -0.1485  0.4553 -0.2276
  948SOL     OW 3563   5.548   5.481   4.038 -0.4605  0.4674 -0.6297
  948SOL    HW2 3564   5.521   5.402   3.990 -1.4469  1.4047 -1.6696
  948SOL    HW3 3565   5.641   5.491   4.018  0.1735 -1.4198  0.9890
  948SOL    MW4 3566   5.557   5.472   4.029 -0.5070  0.3421 -0.5533
  949SOL     OW 3567   5.061   4.696   0.044 -0.0990  0.7176 -0.0200
  949SOL    HW2 3568   5.086   4.774  -0.005 -0.2568 -0.0582 -1.3992
  949SOL    HW3 3569   4.993   4.726   0.105  0.8420  1.9141  0.4780
  949SOL    MW4 3570   5.055   4.710   0.045  0.0043  0.7731 -0.1362
  950SOL     OW 3571   3.493   2.174   5.644 -0.2315 -0.4697 -0.0253
  950SOL    HW2 3572   3.460   2.261   5.620  0.5114 -0.3475 -0.6291
  950SOL    HW3 3573   3.578   2.167   5.600  0.8556 -0.5472  1.9919
  950SOL    MW4 3574   3.500   2.185   5.635  0.0099 -0.4638  0.1612
  951SOL     OW 3575   1.494   5.580   1.068 -0.1736 -0.3009  0.1157
  951SOL    HW2 3576   1.424   5.568   1.131 -1.3838 -0.7394 -1.2549
  951SOL    HW3 3577   1.501   5.496   1.023  0.8148 -0.0680 -0.2079
  951SOL    MW4 3578   1.486   5.568   1.070 -0.2028 -0.3280 -0.1078
  952SOL     OW 3579   5.384   2.280   4.258 -0.3679 -0.3593  0.2958
  952SOL    HW2 3580   5.353   2.260   4.169  1.6168 -0.5171 -0.4199
  952SOL    HW3 3581   5.396   2.194   4.298 -0.8271 -0.2995  0.5673
  952SOL    MW4 3582   5.381   2.266   4.251 -0.1666 -0.3722  0.2372
  953SOL     OW 3583   0.353   0.122   2.916  0.0547 -0.0471 -0.4760
  953SOL    HW2 3584   0.432   0.127   2.863 -0.2941  1.7401 -0.9135
  953SOL    HW3 3585   0.286   0.165   2.862 -0.9609 -0.5763  0.3266
  953SOL    MW4 3586   0.354   0.128   2.902 -0.1253  0.1189 -0.4278
  954SOL     OW 3587   0.307   3.496   5.060 -0.1030  0.0462 -0.0938
  954SOL    HW2 3588   0.378   3.451   5.106  1.7592 -0.8984 -3.5274
  954SOL    HW3 3589   0.265   3.427   5.007 -1.9787  1.0729 -0.0352
  954SOL    MW4 3590   0.311   3.481   5.059 -0.1048  0.0570 -0.5391
  955SOL     OW 3591   5.771   3.022   3.125  0.0990  0.1224 -0.1511
  955SOL    HW2 3592   5.836   2.956   3.100  1.1591  0.8817  0.4883
  955SOL    HW3 3593   5.770   3.083   3.051  0.4150  0.3140 -0.0025
  955SOL    MW4 3594   5.780   3.021   3.112  0.2806  0.2479 -0.0471
  956SOL     OW 3595   5.046   6.026   6.367 -0.0330  0.7630  0.3383
  956SOL    HW2 3596   5.071   5.955   6.426 -0.8470  2.3052  2.6472
  956SOL    HW3 3597   4.956   6.004   6.340  1.0478 -1.0491 -2.2025
  956SOL    MW4 3598   5.037   6.014   6.371  0.0022  0.7274  0.3077
  957SOL     OW 3599   3.136   4.957   4.432 -0.3378  0.3787 -0.4616
  957SOL    HW2 3600   3.190   4.897   4.381  0.1912  1.2493 -0.9491
  957SOL    HW3 3601   3.063   4.904   4.462  0.6901 -0.7798  0.0565
  957SOL    MW4 3602   3.133   4.942   4.429 -0.1324  0.3407 -0.4576
  958SOL     OW 3603   2.590   4.547   3.891 -0.3638  0.4493 -1.1789
  958SOL    HW2 3604   2.560   4.638   3.894  1.5600  1.1612 -2.1740
  958SOL    HW3 3605   2.682   4.553   3.865  0.2510 -1.7019  0.2850
  958SOL    MW4 3606   2.598   4.560   3.888 -0.0289  0.2594 -1.1171
  959SOL     OW 3607   4.958   4.997   6.240 -0.4232 -0.2887 -0.8246
  959SOL    HW2 3608   4.963   5.076   6.293  1.8731 -1.4433  0.8426
  959SOL    HW3 3609   5.010   5.017   6.162  0.2381 -0.1845 -0.3596
  959SOL    MW4 3610   4.965   5.010   6.237 -0.0330 -0.4273 -0.5433
  960SOL     OW 3611   2.236   0.136   0.770  0.4989 -0.0000 -0.3022
  960SOL    HW2 3612   2.163   0.075   0.779 -1.6624  1.9242 -2.7912
  960SOL    HW3 3613   2.274   0.143   0.857 -2.3687 -1.0939  1.1451
  960SOL    MW4 3614   2.231   0.129   0.783 -0.1646  0.1095 -0.4396
  961SOL     OW 3615   5.780   4.181   5.012 -0.2094  0.0146 -0.2422
  961SOL    HW2 3616   5.765   4.089   5.029 -0.1347  0.2329  1.0817
  961SOL    HW3 3617   5.729   4.199   4.932 -0.8521 -0.9779 -0.0777
  961SOL    MW4 3618   5.771   4.171   5.003 -0.2843 -0.0875 -0.0458
  962SOL     OW 3619   5.456   2.554   2.699 -0.5402 -0.0965 -0.1913
  962SOL    HW2 3620   5.522   2.588   2.760  0.0888 -1.3436 -0.1431
  962SOL    HW3 3621   5.373   2.588   2.731 -0.4111 -1.8625  2.2573
  962SOL    MW4 3622   5.454   2.563   2.711 -0.4402 -0.4940  0.1381
  963SOL     OW 3623   3.469   3.626   0.744  0.3119  0.8786 -0.0091
  963SOL    HW2 3624   3.461   3.719   0.721  1.5493  0.9389 -0.2951
  963SOL    HW3 3625   3.558   3.618   0.780  0.5978 -0.3779 -0.9161
  963SOL    MW4 3626   3.480   3.637   0.746  0.5129  0.7208 -0.1665
  964SOL     OW 3627   3.111   5.526   4.432 -0.0665 -0.1458 -0.6949
  964SOL    HW2 3628   3.060   5.606   4.428  0.9339  0.5132 -0.6892
  964SOL    HW3 3629   3.188   5.549   4.484  0.4371 -0.9909 -1.0388
  964SOL    MW4 3630   3.115   5.539   4.438  0.1319 -0.1704 -0.7395
  965SOL     OW 3631   5.488   3.811   2.734 -0.2779  0.0705 -0.4755
  965SOL    HW2 3632   5.398   3.824   2.704 -0.3375  0.3977 -0.1671
  965SOL    HW3 3633   5.542   3.827   2.656 -0.4294  0.9339 -0.4162
  965SOL    MW4 3634   5.483   3.815   2.720 -0.3058  0.2276 -0.4270
  966SOL     OW 3635   5.066   3.313   2.857 -0.6157 -0.2447  0.2757
  966SOL    HW2 3636   5.021   3.373   2.916  0.0143 -1.2270  1.8088
  966SOL    HW3 3637   5.129   3.368   2.811  1.6005  0.0575  3.3177
  966SOL    MW4 3638   5.068   3.328   2.859 -0.2402 -0.3344  0.8793
  967SOL     OW 3639   5.929   3.731   2.569  0.2494  0.2882  0.3199
  967SOL    HW2 3640   6.013   3.702   2.533 -0.4568 -1.3973 -0.1071
  967SOL    HW3 3641   5.882   3.649   2.586 -0.7043  1.1585  2.0487
  967SOL    MW4 3642   5.934   3.716   2.566  0.0304  0.1807  0.4917
  968SOL     OW 3643   4.386   0.917   5.744  0.3654 -1.0130 -0.0956
  968SOL    HW2 3644   4.384   0.900   5.839 -1.0826 -1.1950 -0.1346
  968SOL    HW3 3645   4.477   0.939   5.726  0.3152  1.1369  1.7289
  968SOL    MW4 3646   4.398   0.918   5.754  0.1677 -0.7533  0.1400
  969SOL     OW 3647   4.242   5.720   4.622  0.1739  0.7257  0.3178
  969SOL    HW2 3648   4.261   5.671   4.542  1.5601  0.0796  1.0041
  969SOL    HW3 3649   4.179   5.667   4.669  0.6928  0.2167  0.4533
  969SOL    MW4 3650   4.236   5.707   4.617  0.4253  0.5733  0.4262
  970SOL     OW 3651   0.528   4.079   0.244  0.3575 -0.1249 -0.0809
  970SOL    HW2 3652   0.544   4.141   0.316  1.0625  0.2794 -0.5693
  970SOL    HW3 3653   0.441   4.102   0.211 -0.0528 -0.4333  0.7510
  970SOL    MW4 3654   0.519   4.090   0.249  0.3964 -0.1123 -0.0356
  971SOL     OW 3655   5.211   1.370   5.833  0.5628  0.1141 -0.3060
  971SOL    HW2 3656   5.167   1.452   5.853  0.2897  0.2934 -1.5221
  971SOL    HW3 3657   5.261   1.349   5.911  0.5036  1.3547  0.0823
  971SOL    MW4 3658   5.211   1.378   5.846  0.5190  0.3015 -0.4152
  972SOL     OW 3659   3.620   4.376   3.630 -0.2435  0.4334  0.5540
  972SOL    HW2 3660   3.695   4.318   3.619 -0.1092  0.1360  2.6028
  972SOL    HW3 3661   3.554   4.341   3.570  1.2140  0.7519 -1.3491
  972SOL    MW4 3662   3.621   4.363   3.620 -0.0335  0.4362  0.5732
  973SOL     OW 3663   5.708   2.327   5.113  0.0876  0.0785 -0.3903
  973SOL    HW2 3664   5.787   2.293   5.070  0.2455 -2.1181  1.4551
  973SOL    HW3 3665   5.716   2.298   5.203 -2.9545 -0.4331 -0.1907
  973SOL    MW4 3666   5.720   2.318   5.119 -0.2929 -0.2788 -0.1205
  974SOL     OW 3667   6.160   3.259   5.078 -0.2188  0.5666  0.4509
  974SOL    HW2 3668   6.090   3.194   5.075  1.1065 -0.9180 -0.4831
  974SOL    HW3 3669   6.117   3.343   5.061 -1.5230 -0.5374 -2.2796
  974SOL    MW4 3670   6.145   3.261   5.076 -0.2160  0.2251 -0.0326
  975SOL     OW 3671   1.748   2.941   3.690 -0.3047  0.2143  0.5616
  975SOL    HW2 3672   1.760   2.948   3.784  0.8630 -2.1823  0.6652
  975SOL    HW3 3673   1.815   2.998   3.652  0.4145 -0.1892  1.2025
  975SOL    MW4 3674   1.759   2.949   3.697 -0.0558 -0.1551  0.6598
  976SOL     OW 3675   4.656   2.371   0.033  0.3845  0.1337  0.4448
  976SOL    HW2 3676   4.603   2.448   0.013  0.4468 -0.0365 -0.3717
  976SOL    HW3 3677   4.685   2.338  -0.052  0.0093 -1.0470  0.7509
  976SOL    MW4 3678   4.653   2.377   0.020  0.3432 -0.0445  0.3774
  977SOL     OW 3679   5.689   5.551   0.230  0.3320 -0.9517  0.4671
  977SOL    HW2 3680   5.732   5.614   0.173  0.9246 -1.0654  0.7852
  977SOL    HW3 3681   5.717   5.575   0.318  0.1727 -1.3613  0.6304
  977SOL    MW4 3682   5.698   5.563   0.234  0.3892 -1.0208  0.5306
  978SOL     OW 3683   3.670   3.165   4.781  0.5222 -0.4277  0.3439
  978SOL    HW2 3684   3.743   3.184   4.722 -0.6552  1.4925 -0.5949
  978SOL    HW3 3685   3.677   3.231   4.850 -0.8382  0.4613 -0.3055
  978SOL    MW4 3686   3.680   3.176   4.782  0.1874 -0.0571  0.1343
  979SOL     OW 3687   3.927   1.799   2.615  0.2666  0.0059 -0.0875
  979SOL    HW2 3688   4.005   1.753   2.646 -0.0873  0.2446  1.2486
  979SOL    HW3 3689   3.915   1.871   2.678 -0.1202  0.9414 -1.1920
  979SOL    MW4 3690   3.936   1.803   2.628  0.1689  0.1608 -0.0570
  980SOL     OW 3691   3.340   5.074   4.071  0.1049  0.3833 -0.4209
  980SOL    HW2 3692   3.427   5.106   4.048 -0.9030  3.2758 -0.5980
  980SOL    HW3 3693   3.320   5.117   4.154 -1.4006  0.2674 -0.6996
  980SOL    MW4 3694   3.349   5.084   4.079 -0.2267  0.7496 -0.4810
  981SOL     OW 3695   0.420   3.659   4.198  0.8125 -0.5183 -0.3595
  981SOL    HW2 3696   0.377   3.667   4.113 -0.3010  2.4454  0.3304
  981SOL    HW3 3697   0.480   3.733   4.202 -0.2629  0.3392  1.9531
  981SOL    MW4 3698   0.422   3.670   4.187  0.5237 -0.0141  0.0366
  982SOL     OW 3699   2.477   6.157   3.066 -0.2907 -0.3381  0.0416
  982SOL    HW2 3700   2.435   6.097   3.005  2.3787 -2.4662  0.0833
  982SOL    HW3 3701   2.459   6.119   3.152  0.3790 -0.3930  0.1611
  982SOL    MW4 3702   2.469   6.144   3.070  0.1499 -0.6261  0.0628
  983SOL     OW 3703   4.120   4.101   0.441  0.6772  0.5160 -0.7245
  983SOL    HW2 3704   4.130   4.128   0.532 -0.3708  2.2170 -1.0508
  983SOL    HW3 3705   4.206   4.069   0.415  1.0659  0.2806  0.7644
  983SOL    MW4 3706   4.133   4.101   0.450  0.5902  0.7094 -0.5711
  984SOL     OW 3707   0.551   0.611   2.503 -0.6974 -0.5049 -0.8243
  984SOL    HW2 3708   0.615   0.587   2.570 -0.8935  2.0249  0.4033
  984SOL    HW3 3709   0.484   0.542   2.508  1.8418 -3.2985 -2.2477
  984SOL    MW4 3710   0.551   0.599   2.513 -0.3883 -0.5397 -0.8501
  985SOL     OW 3711   3.501   1.264   1.017  0.0270 -0.3074 -0.1636
  985SOL    HW2 3712   3.464   1.222   0.939 -0.0408 -2.0834  0.7684
  985SOL    HW3 3713   3.572   1.206   1.045 -0.9697 -0.5861  1.9885
  985SOL    MW4 3714   3.505   1.251   1.011 -0.1135 -0.5785  0.2433
  986SOL     OW 3715   6.125   5.406   1.697  0.4902 -0.7489 -0.3934
  986SOL    HW2 3716   6.116   5.387   1.791 -0.9166  0.3835 -0.2562
  986SOL    HW3 3717   6.109   5.323   1.654  0.4251 -1.1373  0.3606
  986SOL    MW4 3718   6.121   5.393   1.704  0.2960 -0.6508 -0.2758
  987SOL     OW 3719   5.828   2.050   1.877  0.5477 -0.6974  0.0084
  987SOL    HW2 3720   5.776   2.058   1.957 -0.9852  0.0575 -1.0200
  987SOL    HW3 3721   5.763   2.040   1.807  1.8112 -0.4479 -1.2445
  987SOL    MW4 3722   5.813   2.050   1.879  0.5122 -0.5649 -0.2926
  988SOL     OW 3723   5.907   6.121   4.811 -0.9986  0.0044 -0.3758
  988SOL    HW2 3724   5.935   6.173   4.736 -0.1494  1.0332  0.6198
  988SOL    HW3 3725   5.961   6.151   4.884 -0.7996 -1.9632  0.3607
  988SOL    MW4 3726   5.918   6.132   4.811 -0.8603 -0.1195 -0.1473
  989SOL     OW 3727   4.664   2.241   0.833 -1.2239  0.0588  0.0523
  989SOL    HW2 3728   4.577   2.274   0.853 -1.0484  0.2295  0.5496
  989SOL    HW3 3729   4.692   2.196   0.913 -0.8959 -0.0816 -0.1364
  989SOL    MW4 3730   4.656   2.239   0.846 -1.1575  0.0628  0.0930
  990SOL     OW 3731   5.574   4.138   4.334 -0.3563  0.2010 -0.4484
  990SOL    HW2 3732   5.615   4.087   4.404 -0.0680 -0.7760 -1.2934
  990SOL    HW3 3733   5.504   4.187   4.377  0.3037  0.2191  0.6465
  990SOL    MW4 3734   5.570   4.137   4.349 -0.2312  0.0745 -0.4154
  991SOL     OW 3735   4.959   3.766   4.118 -0.1496  0.3933 -0.1420
  991SOL    HW2 3736   5.018   3.760   4.194  1.2417 -0.1499 -1.2208
  991SOL    HW3 3737   4.993   3.701   4.057 -0.1130  2.0587 -1.9878
  991SOL    MW4 3738   4.972   3.756   4.120  0.0388  0.5414 -0.5278
  992SOL     OW 3739   0.672   4.253   4.662  0.2845 -0.4319  0.4453
  992SOL    HW2 3740   0.766   4.238   4.678  0.8207 -1.3736 -2.8381
  992SOL    HW3 3741   0.668   4.340   4.622 -0.2874 -0.3287  0.7167
  992SOL    MW4 3742   0.684   4.262   4.659  0.2798 -0.5425  0.0479
  993SOL     OW 3743   1.407   6.321   0.045  0.1436 -0.0679 -0.2185
  993SOL    HW2 3744   1.313   6.304   0.048  0.1603 -0.5761 -1.9615
  993SOL    HW3 3745   1.442   6.254  -0.013  1.3215  1.1953 -1.0348
  993SOL    MW4 3746   1.399   6.310   0.038  0.3012  0.0317 -0.5561
  994SOL     OW 3747   4.319   2.595   5.851  0.0002 -0.5758  0.3714
  994SOL    HW2 3748   4.379   2.529   5.816 -1.3370 -1.3119 -0.6279
  994SOL    HW3 3749   4.242   2.591   5.794 -1.1468  0.1223  1.7856
  994SOL    MW4 3750   4.317   2.586   5.839 -0.3276 -0.5808  0.4261
  995SOL     OW 3751   3.204   2.532   5.169  0.5953  0.3053 -0.1946
  995SOL    HW2 3752   3.260   2.458   5.192 -0.5340 -0.1937  1.0062
  995SOL    HW3 3753   3.191   2.580   5.251  1.7991  2.2369 -1.0392
  995SOL    MW4 3754   3.210   2.529   5.183  0.6051  0.4943 -0.1476
  996SOL     OW 3755   6.329   0.491   3.410 -0.4097 -0.3389 -0.7982
  996SOL    HW2 3756   6.293   0.507   3.322 -1.9555 -1.2990 -0.3810
  996SOL    HW3 3757   6.253   0.467   3.463  0.4360  0.6539  0.9327
  996SOL    MW4 3758   6.315   0.490   3.405 -0.5021 -0.3346 -0.5148
  997SOL     OW 3759   5.355   1.630   1.006  0.0390 -0.1418 -0.2136
  997SOL    HW2 3760   5.304   1.616   0.926  0.6775 -0.7636 -0.5244
  997SOL    HW3 3761   5.382   1.542   1.033  1.6063  0.2212 -0.5052
  997SOL    MW4 3762   5.352   1.617   0.999  0.3301 -0.1759 -0.2931
  998SOL     OW 3763   6.382   3.195   3.426 -0.4483  0.0819  0.4972
  998SOL    HW2 3764   6.332   3.192   3.344 -0.0417 -2.4295  0.2883
  998SOL    HW3 3765   6.464   3.150   3.407 -0.6116 -1.1593  2.4411
  998SOL    MW4 3766   6.386   3.189   3.413 -0.4162 -0.4132  0.7261
  999SOL     OW 3767   5.673   2.565   0.974  0.3290  0.2965 -0.1341
  999SOL    HW2 3768   5.654   2.651   1.012 -2.4371 -0.2986  0.0516
  999SOL    HW3 3769   5.733   2.524   1.037  0.9173  1.6934  0.2531
  999SOL    MW4 3770   5.679   2.571   0.988  0.0416  0.4023 -0.0585
 1000SOL     OW 3771   3.293   1.641   0.320  0.7294  0.2798 -0.0832
 1000SOL    HW2 3772   3.247   1.679   0.245  0.6966  2.5195  0.9988
 1000SOL    HW3 3773   3.271   1.547   0.317  1.2565  0.1499 -3.1981
 1000SOL    MW4 3774   3.284   1.633   0.310  0.7946  0.5582 -0.3514
 1001SOL     OW 3775   4.239   2.016   5.362  0.1641  0.3354 -0.6710
 1001SOL    HW2 3776   4.319   2.041   5.317  1.3129 -1.3187  0.3807
 1001SOL    HW3 3777   4.255   2.037   5.454 -1.7453  2.6769 -0.7558
 1001SOL    MW4 3778   4.252   2.022   5.369  0.0637  0.4261 -0.5434
 1002SOL     OW 3779   4.713   2.728   4.781 -0.0761  0.1571 -0.0010
 1002SOL    HW2 3780   4.712   2.819   4.811  1.0485 -0.1958  1.1516
 1002SOL    HW3 3781   4.762   2.730   4.699 -0.1461  0.5887 -0.0342
 1002SOL    MW4 3782   4.719   2.740   4.774  0.0630  0.1675  0.1467
 1003SOL     OW 3783   1.191   3.346   2.475 -0.3304 -0.6121  0.3230
 1003SOL    HW2 3784   1.224   3.397   2.549  0.0620 -2.2303  1.3170
 1003SOL    HW3 3785   1.267   3.335   2.417  0.5586 -2.8790  1.7775
 1003SOL    MW4 3786   1.206   3.351   2.477 -0.1613 -1.1247  0.6460
 1004SOL     OW 3787   4.344   3.005   2.174 -0.3002 -0.1543  0.1380
 1004SOL    HW2 3788   4.294   3.070   2.124 -0.3163 -1.2756 -1.3894
 1004SOL    HW3 3789   4.279   2.957   2.225 -0.2231  1.3914  1.8025
 1004SOL    MW4 3790   4.329   3.007   2.174 -0.2921 -0.0983  0.1561
 1005SOL     OW 3791   2.893   2.960   0.856 -0.0076 -0.5586 -0.2460
 1005SOL    HW2 3792   2.900   2.883   0.912 -1.0680 -0.3966  0.1434
 1005SOL    HW3 3793   2.982   2.977   0.827  0.3133 -1.6276  0.0689
 1005SOL    MW4 3794   2.905   2.952   0.860 -0.1052 -0.6782 -0.1531
 1006SOL     OW 3795   0.961   4.328   2.795  0.4397 -0.4933 -0.0787
 1006SOL    HW2 3796   0.929   4.348   2.708 -1.7437  3.2103  1.3534
 1006SOL    HW3 3797   1.045   4.373   2.802 -0.6410  1.5300  0.4956
 1006SOL    MW4 3798   0.968   4.336   2.785  0.0090  0.2623  0.1860
 1007SOL     OW 3799   6.339   2.852   3.443 -0.8409 -0.2458 -0.1957
 1007SOL    HW2 3800   6.291   2.926   3.480 -0.2030 -0.4363  1.0737
 1007SOL    HW3 3801   6.425   2.888   3.422 -0.9471 -0.3290 -0.7967
 1007SOL    MW4 3802   6.344   2.867   3.445 -0.7707 -0.2819 -0.1075
 1008SOL     OW 3803   1.647   3.824   2.225 -0.5580 -0.1833 -0.1402
 1008SOL    HW2 3804   1.560   3.853   2.253 -0.2755  0.1604  0.4088
 1008SOL    HW3 3805   1.664   3.872   2.144  0.1723  1.7331  1.0946
 1008SOL    MW4 3806   1.638   3.834   2.218 -0.4244  0.1149  0.0952
 1009SOL     OW 3807   0.317   0.478   1.752 -0.4574 -0.2115  0.0228
 1009SOL    HW2 3808   0.367   0.400   1.727 -0.6689 -0.4964  0.4846
 1009SOL    HW3 3809   0.227   0.448   1.760 -0.6520  0.2247 -0.4488
 1009SOL    MW4 3810   0.312   0.464   1.750 -0.5110 -0.1915  0.0215
 1010SOL     OW 3811   4.963   2.149   5.231 -0.0422 -0.7912 -0.1004
 1010SOL    HW2 3812   5.031   2.094   5.190  0.1221 -1.3658  0.9091
 1010SOL    HW3 3813   5.007   2.232   5.248  0.1684 -0.8788 -0.2112
 1010SOL    MW4 3814   4.978   2.153   5.228  0.0073 -0.8786  0.0182
 1011SOL     OW 3815   1.146   1.210   4.512 -0.1141  0.3126 -0.3653
 1011SOL    HW2 3816   1.097   1.290   4.493 -0.0381  0.0305 -1.9419
 1011SOL    HW3 3817   1.168   1.175   4.425  0.5369 -0.9954  0.3003
 1011SOL    MW4 3818   1.142   1.216   4.498 -0.0181  0.1028 -0.4855
 1012SOL     OW 3819   1.615   3.558   2.127 -0.0097  0.0459 -0.5989
 1012SOL    HW2 3820   1.638   3.650   2.144 -3.1028  0.6321  1.2058
 1012SOL    HW3 3821   1.595   3.556   2.033 -1.0946  1.5690 -0.4374
 1012SOL    MW4 3822   1.615   3.570   2.117 -0.5609  0.3242 -0.3395
 1013SOL     OW 3823   4.152   0.328   4.062 -0.4652  0.0817  0.2614
 1013SOL    HW2 3824   4.203   0.341   3.981  1.1182  1.7598  1.4366
 1013SOL    HW3 3825   4.187   0.248   4.100  1.0586  0.9939  0.8447
 1013SOL    MW4 3826   4.164   0.319   4.056 -0.0553  0.4235  0.4935
 1014SOL     OW 3827   3.898   3.589   3.123  0.3561 -0.6389  0.4537
 1014SOL    HW2 3828   3.804   3.606   3.125  0.0588 -2.2055  1.3240
 1014SOL    HW3 3829   3.905   3.497   3.098  1.7481 -0.0792 -1.3884
 1014SOL    MW4 3830   3.887   3.579   3.120  0.5006 -0.7718  0.3255
 1015SOL     OW 3831   4.471   1.514   1.064 -0.6773 -0.1550 -0.8015
 1015SOL    HW2 3832   4.422   1.500   0.983  0.0533 -0.3329 -1.2192
 1015SOL    HW3 3833   4.415   1.477   1.133 -1.8913  1.1525 -1.0535
 1015SOL    MW4 3834   4.457   1.507   1.063 -0.7411 -0.0059 -0.8898
 1016SOL     OW 3835   5.481   2.866   5.062  0.2312 -0.3740  0.1255
 1016SOL    HW2 3836   5.551   2.881   5.126  0.2189  0.3994 -0.0331
 1016SOL    HW3 3837   5.467   2.952   5.022 -0.5836 -0.5961 -0.0754
 1016SOL    MW4 3838   5.489   2.879   5.065  0.1221 -0.3012  0.0781
 1017SOL     OW 3839   6.224   2.537   4.295 -0.3852  0.2420  0.0063
 1017SOL    HW2 3840   6.279   2.481   4.350  0.3428  1.3819  0.4821
 1017SOL    HW3 3841   6.153   2.565   4.352  0.5642  1.7107  0.5015
 1017SOL    MW4 3842   6.222   2.533   4.310 -0.1639  0.5862  0.1344
 1018SOL     OW 3843   4.669   2.675   5.650 -0.3314 -0.6333 -0.5014
 1018SOL    HW2 3844   4.664   2.726   5.731  0.8498 -1.3945  0.0835
 1018SOL    HW3 3845   4.608   2.602   5.665 -1.0719 -0.0868 -0.8254
 1018SOL    MW4 3846   4.660   2.672   5.663 -0.2732 -0.6616 -0.4670
 1019SOL     OW 3847   2.224   6.199   0.105 -0.3078  0.3354 -0.2041
 1019SOL    HW2 3848   2.310   6.241   0.112 -0.5186  0.5885  1.0036
 1019SOL    HW3 3849   2.237   6.112   0.143 -0.6893  0.5347  0.3873
 1019SOL    MW4 3850   2.237   6.193   0.111 -0.3860  0.3951  0.0333
 1020SOL     OW 3851   3.089   3.747   5.609  0.0545 -0.3532  0.1902
 1020SOL    HW2 3852   3.141   3.707   5.539 -1.2921 -0.0512 -1.0158
 1020SOL    HW3 3853   3.017   3.790   5.564 -2.0049 -1.8245  1.8685
 1020SOL    MW4 3854   3.087   3.747   5.594 -0.3949 -0.5074  0.2525
 1021SOL     OW 3855   5.519   2.937   2.676  0.2467  0.4222  0.6017
 1021SOL    HW2 3856   5.533   2.931   2.581  1.3444 -2.4923  0.8204
 1021SOL    HW3 3857   5.441   2.991   2.686 -0.1064  0.5099 -1.9748
 1021SOL    MW4 3858   5.511   2.943   2.665  0.3449  0.0492  0.2906
 1022SOL     OW 3859   3.132   4.775   3.568 -0.1649  0.0585 -0.0351
 1022SOL    HW2 3860   3.180   4.713   3.623 -0.9834 -0.1151  0.5117
 1022SOL    HW3 3861   3.187   4.788   3.491  0.2413 -0.9874  0.0676
 1022SOL    MW4 3862   3.145   4.768   3.565 -0.2193 -0.1024  0.0506
 1023SOL     OW 3863   5.008   2.045   0.654 -0.4353 -0.1871  0.2430
 1023SOL    HW2 3864   4.913   2.057   0.660 -0.4453 -0.8082  2.2083
 1023SOL    HW3 3865   5.043   2.099   0.724  0.8372  1.1988 -1.3845
 1023SOL    MW4 3866   5.000   2.054   0.664 -0.2687 -0.0862  0.2875
 1024SOL     OW 3867   0.217   5.928   0.714 -0.0467  0.3333  0.2861
 1024SOL    HW2 3868   0.203   6.019   0.688 -0.7991 -0.1022 -0.9044
 1024SOL    HW3 3869   0.130   5.898   0.741 -0.0697 -0.4150 -0.5952
 1024SOL    MW4 3870   0.203   5.936   0.714 -0.1490  0.1771  0.0128
 1025SOL     OW 3871   1.531   4.493   4.138  0.5333 -0.4256  0.3170
 1025SOL    HW2 3872   1.575   4.408   4.146  0.3173 -0.5316  0.3855
 1025SOL    HW3 3873   1.526   4.526   4.228  2.7154  0.7415  0.0830
 1025SOL    MW4 3874   1.536   4.486   4.151  0.7927 -0.2856  0.2952
 1026SOL     OW 3875   4.023   4.823   4.479  0.4616 -0.1688  0.0041
 1026SOL    HW2 3876   4.017   4.889   4.411  0.4258 -0.4920 -0.3067
 1026SOL    HW3 3877   4.111   4.786   4.470  0.9852  0.7554  1.0354
 1026SOL    MW4 3878   4.034   4.826   4.469  0.5259 -0.0895  0.0992
 1027SOL     OW 3879   0.435   5.965   3.446 -0.6114  0.6133 -0.3375
 1027SOL    HW2 3880   0.528   5.981   3.432 -0.3409 -0.2922  0.2993
 1027SOL    HW3 3881   0.394   6.051   3.445  0.1976  0.9967 -0.8669
 1027SOL    MW4 3882   0.442   5.978   3.444 -0.4690  0.5444 -0.3233
 1028SOL     OW 3883   3.963   1.337   3.747  0.0202  0.4791  0.9426
 1028SOL    HW2 3884   3.930   1.298   3.665 -1.6968 -0.3168  1.9470
 1028SOL    HW3 3885   4.018   1.268   3.785  2.4859  1.5733 -0.4238
 1028SOL    MW4 3886   3.966   1.322   3.741  0.1190  0.5185  0.8948
 1029SOL     OW 3887   4.816   2.566   0.589 -0.2216 -0.3215 -0.2689
 1029SOL    HW2 3888   4.789   2.613   0.668 -0.5028 -2.3890  0.9482
 1029SOL    HW3 3889   4.891   2.514   0.618  1.4322  0.9153 -2.1052
 1029SOL    MW4 3890   4.823   2.565   0.603 -0.0405 -0.4311 -0.3506
 1030SOL     OW 3891   5.146   0.184   4.939 -0.2712  0.0740 -0.3804
 1030SOL    HW2 3892   5.204   0.171   5.014 -2.6897  0.3636  1.6656
 1030SOL    HW3 3893   5.198   0.235   4.878  2.0393 -0.7430  0.7630
 1030SOL    MW4 3894   5.161   0.189   4.941 -0.2855  0.0044  0.0404
 1031SOL     OW 3895   0.006   0.286   1.943  0.2115 -0.3707 -0.1204
 1031SOL    HW2 3896  -0.027   0.224   2.008 -1.2879 -0.5361 -1.0056
 1031SOL    HW3 3897  -0.001   0.239   1.859  0.8281  0.3227 -0.5767
 1031SOL    MW4 3898   0.001   0.272   1.940  0.0950 -0.3010 -0.2974
 1032SOL     OW 3899   6.148   3.803   3.176 -0.2921 -0.3384 -0.5236
 1032SOL    HW2 3900   6.170   3.874   3.115  0.6339  1.1329  1.4178
 1032SOL    HW3 3901   6.224   3.745   3.173  0.2100  0.2815 -0.0265
 1032SOL    MW4 3902   6.161   3.805   3.168 -0.1037 -0.0625 -0.2018
 1033SOL     OW 3903   4.219   1.728   5.356  0.4891 -0.4599  0.4640
 1033SOL    HW2 3904   4.278   1.732   5.280  0.5519  0.1221  0.5326
 1033SOL    HW3 3905   4.217   1.818   5.388 -2.1954  0.0748 -0.8933
 1033SOL    MW4 3906   4.226   1.741   5.350  0.1432 -0.3126  0.2940
 1034SOL     OW 3907   5.352   2.385   5.085 -0.4121 -0.2940  0.1986
 1034SOL    HW2 3908   5.352   2.467   5.035  1.1679  0.3744  1.2362
 1034SOL    HW3 3909   5.401   2.324   5.029  0.0765  0.0304  0.2621
 1034SOL    MW4 3910   5.359   2.388   5.071 -0.1392 -0.1630  0.3439
 1035SOL     OW 3911   1.549   1.861   1.163 -0.1821  0.4321  0.3343
 1035SOL    HW2 3912   1.597   1.874   1.244  0.4058 -1.5642  0.3704
 1035SOL    HW3 3913   1.598   1.793   1.117 -2.5011 -1.1605  0.0236
 1035SOL    MW4 3914   1.561   1.853   1.167 -0.4105 -0.0414  0.2981
 1036SOL     OW 3915   6.031   2.505   6.112 -0.0010 -0.5671  0.5627
 1036SOL    HW2 3916   6.112   2.474   6.155  0.8253 -0.3567 -0.7847
 1036SOL    HW3 3917   5.975   2.533   6.184  0.7463 -1.6204  1.5963
 1036SOL    MW4 3918   6.034   2.504   6.127  0.2066 -0.6783  0.5213
 1037SOL     OW 3919   3.935   3.042   3.790  0.7435  0.5903  0.1593
 1037SOL    HW2 3920   4.025   3.075   3.788  0.6572  0.7773 -1.3560
 1037SOL    HW3 3921   3.882   3.116   3.762  0.3033 -0.0407 -0.7156
 1037SOL    MW4 3922   3.940   3.056   3.786  0.6741  0.5317 -0.1561
 1038SOL     OW 3923   3.595   0.868   4.529  0.3206  0.1110  0.1316
 1038SOL    HW2 3924   3.655   0.847   4.600 -0.4965 -1.0603  0.5060
 1038SOL    HW3 3925   3.618   0.806   4.459  1.7407  1.8456 -1.0492
 1038SOL    MW4 3926   3.606   0.857   4.529  0.4002  0.1853  0.0252
 1039SOL     OW 3927   5.707   3.624   3.566  0.8115  0.2033 -0.1994
 1039SOL    HW2 3928   5.780   3.598   3.622  0.2386 -0.4138  0.2847
 1039SOL    HW3 3929   5.748   3.661   3.488  1.6324  0.0447  0.1466
 1039SOL    MW4 3930   5.722   3.626   3.563  0.8442  0.1009 -0.0899
 1040SOL     OW 3931   1.574   4.958   2.739  0.4776 -0.7178 -0.5988
 1040SOL    HW2 3932   1.633   4.965   2.814 -0.2971 -0.6316  0.0127
 1040SOL    HW3 3933   1.587   5.040   2.691 -1.0014  0.4785  0.9380
 1040SOL    MW4 3934   1.584   4.970   2.742  0.1803 -0.5486 -0.3153
 1041SOL     OW 3935   1.221   4.899   0.385 -0.0959 -0.4119 -0.1891
 1041SOL    HW2 3936   1.171   4.821   0.360 -0.0643 -0.0857 -1.3215
 1041SOL    HW3 3937   1.294   4.902   0.323 -0.7871  1.1933 -0.9776
 1041SOL    MW4 3938   1.224   4.889   0.374 -0.1829 -0.1571 -0.4425
 1042SOL     OW 3939   0.285   2.012   4.761  0.1404 -0.4437 -0.5953
 1042SOL    HW2 3940   0.296   1.921   4.734  0.1372 -0.6261  0.0169
 1042SOL    HW3 3941   0.215   2.010   4.826  2.7156 -0.5954  2.3837
 1042SOL    MW4 3942   0.277   2.000   4.766  0.4798 -0.4878 -0.1215
 1043SOL     OW 3943   3.511   3.329   2.168  0.2298  0.1243  0.2400
 1043SOL    HW2 3944   3.544   3.418   2.156 -0.1814  0.1168 -1.1093
 1043SOL    HW3 3945   3.416   3.336   2.158  0.0930 -0.3203  1.1125
 1043SOL    MW4 3946   3.503   3.341   2.165  0.1575  0.0647  0.1771
 1044SOL     OW 3947   6.019   1.991   4.893  1.0285  0.1392 -0.0527
 1044SOL    HW2 3948   6.004   1.898   4.880 -0.6377  0.4029 -0.2839
 1044SOL    HW3 3949   6.003   2.006   4.986  1.6477  0.1402  0.0560
 1044SOL    MW4 3950   6.015   1.981   4.903  0.8903  0.1741 -0.0689
 1045SOL     OW 3951   4.685   0.567   5.489  0.1187 -0.2829  0.2504
 1045SOL    HW2 3952   4.636   0.555   5.570  1.5705  2.6375  1.7251
 1045SOL    HW3 3953   4.628   0.621   5.434 -1.0097 -2.5446 -0.9362
 1045SOL    MW4 3954   4.671   0.573   5.492  0.1614 -0.1960  0.2884
 1046SOL     OW 3955   2.041   4.194   1.363 -0.3726  0.2746 -0.5138
 1046SOL    HW2 3956   1.987   4.138   1.418 -0.3899  0.6943 -0.1040
 1046SOL    HW3 3957   2.083   4.133   1.302  3.1975 -0.9205  2.7354
 1046SOL    MW4 3958   2.039   4.178   1.362  0.0962  0.1723 -0.0310
 1047SOL     OW 3959   1.408   5.165   4.304 -0.0627 -0.0129  0.5638
 1047SOL    HW2 3960   1.424   5.131   4.392  0.6248  1.7381  1.1605
 1047SOL    HW3 3961   1.346   5.237   4.316  0.9310  1.0124 -0.2028
 1047SOL    MW4 3962   1.402   5.170   4.317  0.1592  0.3534  0.5414
 1048SOL     OW 3963   1.238   4.653   3.468 -0.0765  0.1097  1.0456
 1048SOL    HW2 3964   1.240   4.734   3.518  0.3904 -0.1081  1.3836
 1048SOL    HW3 3965   1.304   4.597   3.509  0.4316 -0.0118  0.0909
 1048SOL    MW4 3966   1.247   4.656   3.480  0.0521  0.0649  0.9642
 1049SOL     OW 3967   3.099   2.630   1.382 -0.2388  0.1955  0.0265
 1049SOL    HW2 3968   3.123   2.537   1.376  0.9906  0.4851  0.2395
 1049SOL    HW3 3969   3.093   2.659   1.291 -1.5272 -0.2936 -0.0674
 1049SOL    MW4 3970   3.102   2.621   1.369 -0.2466  0.1692  0.0422
 1050SOL     OW 3971   4.821   1.813   1.222  0.1332 -0.2793 -0.3866
 1050SOL    HW2 3972   4.822   1.730   1.175  0.1953 -0.0113 -0.8667
 1050SOL    HW3 3973   4.734   1.816   1.263  0.3811 -0.8891  0.2084
 1050SOL    MW4 3974   4.809   1.803   1.221  0.1741 -0.3244 -0.3714
 1051SOL     OW 3975   4.569   5.702   1.108  0.0154  0.6128 -0.0686
 1051SOL    HW2 3976   4.596   5.612   1.123  0.7239  0.8018 -0.1950
 1051SOL    HW3 3977   4.648   5.746   1.077 -0.2281  1.3731  0.3795
 1051SOL    MW4 3978   4.583   5.696   1.106  0.0768  0.7380 -0.0262
 1052SOL     OW 3979   0.474   2.728   0.810  0.4596  0.7724 -0.6100
 1052SOL    HW2 3980   0.569   2.739   0.808  0.6820 -0.9920 -0.8542
 1052SOL    HW3 3981   0.446   2.782   0.884  2.1427 -1.7977  2.1334
 1052SOL    MW4 3982   0.483   2.737   0.819  0.7110  0.2005 -0.2803
 1053SOL     OW 3983   1.092   5.940   5.783 -0.1814 -0.7414  0.6493
 1053SOL    HW2 3984   1.040   5.928   5.704  0.2889 -2.0386  0.5142
 1053SOL    HW3 3985   1.136   6.024   5.771 -0.3152 -0.8071 -0.3572
 1053SOL    MW4 3986   1.091   5.949   5.771 -0.1370 -0.9212  0.4987
 1054SOL     OW 3987   0.458   5.689   3.457 -0.2243 -0.6600 -0.0422
 1054SOL    HW2 3988   0.406   5.769   3.445 -0.7266 -0.8410  0.8505
 1054SOL    HW3 3989   0.490   5.668   3.369 -0.0203  0.5615 -0.2751
 1054SOL    MW4 3990   0.455   5.697   3.443 -0.2636 -0.5227  0.0448
 1055SOL     OW 3991   5.074   2.479   0.787 -0.2110  0.2167 -0.4781
 1055SOL    HW2 3992   5.164   2.472   0.758  0.6473  2.5017  1.3188
 1055SOL    HW3 3993   5.055   2.573   0.786 -1.2688  0.1738  2.6170
 1055SOL    MW4 3994   5.083   2.491   0.783 -0.2373  0.5125  0.1673
 1056SOL     OW 3995   3.320   3.260   6.230 -0.1962 -0.0222 -0.1245
 1056SOL    HW2 3996   3.371   3.195   6.182 -0.3565 -0.7866  0.7255
 1056SOL    HW3 3997   3.235   3.260   6.186  0.0814  0.2515 -0.6704
 1056SOL    MW4 3998   3.315   3.252   6.218 -0.1808 -0.0869 -0.0844
 1057SOL     OW 3999   2.777   5.806   0.323 -0.0712  0.2558  0.3889
 1057SOL    HW2 4000   2.815   5.748   0.389  1.8474 -1.1175 -1.7480
 1057SOL    HW3 4001   2.753   5.885   0.371  1.9252 -0.3733  2.5995
 1057SOL    MW4 4002   2.779   5.809   0.338  0.4453 -0.0084  0.3986
 1058SOL     OW 4003   1.557   0.774   0.308 -0.0339  0.1890  0.7465
 1058SOL    HW2 4004   1.494   0.843   0.328 -2.3653 -1.7096  0.3972
 1058SOL    HW3 4005   1.560   0.772   0.212 -1.4014 -1.2903  0.6846
 1058SOL    MW4 4006   1.549   0.783   0.298 -0.5219 -0.2567  0.6923
 1059SOL     OW 4007   3.147   5.002   2.713  0.4850  0.0413  0.1207
 1059SOL    HW2 4008   3.169   4.998   2.620  1.3432 -0.7151  0.3428
 1059SOL    HW3 4009   3.097   5.083   2.722 -0.0922 -0.1569 -1.0913
 1059SOL    MW4 4010   3.144   5.012   2.702  0.5221 -0.0846 -0.0099
 1060SOL     OW 4011   2.226   3.600   5.867 -0.1615 -0.1871  0.0864
 1060SOL    HW2 4012   2.220   3.648   5.785 -3.2158 -1.7155 -0.7355
 1060SOL    HW3 4013   2.139   3.561   5.878  0.0716  0.0204  4.1105
 1060SOL    MW4 4014   2.214   3.601   5.858 -0.5337 -0.3614  0.5089
 1061SOL     OW 4015   2.783   5.232   5.806 -0.1237  0.3872 -0.3371
 1061SOL    HW2 4016   2.817   5.147   5.835 -1.2008  0.0041 -0.1461
 1061SOL    HW3 4017   2.858   5.291   5.812  0.3411 -0.2770  0.7167
 1061SOL    MW4 4018   2.797   5.229   5.811 -0.2045  0.2490 -0.1729
 1062SOL     OW 4019   0.474   4.821   1.639 -0.3319 -0.0406  0.0715
 1062SOL    HW2 4020   0.460   4.824   1.734 -0.9363  0.0918 -0.0146
 1062SOL    HW3 4021   0.510   4.907   1.618 -0.0853 -0.1126  0.1969
 1062SOL    MW4 4022   0.477   4.833   1.649 -0.3791 -0.0326  0.0766
 1063SOL     OW 4023   5.356   0.747   0.706  0.2436 -0.2098  0.3894
 1063SOL    HW2 4024   5.314   0.672   0.663  0.0770  0.3668 -0.4786
 1063SOL    HW3 4025   5.306   0.823   0.677  1.9301  0.5233 -0.8096
 1063SOL    MW4 4026   5.344   0.747   0.697  0.4441 -0.0370  0.1167
 1064SOL     OW 4027   5.253   5.702   5.220  0.1935 -0.3218  0.2845
 1064SOL    HW2 4028   5.312   5.719   5.146  0.5170 -0.3583  0.5312
 1064SOL    HW3 4029   5.308   5.658   5.284  0.2656  0.8713  1.0792
 1064SOL    MW4 4030   5.268   5.699   5.219  0.2457 -0.1692  0.4219
 1065SOL     OW 4031   6.197   3.511   2.241 -0.3268  0.5635  0.1485
 1065SOL    HW2 4032   6.181   3.570   2.315  0.8026  1.2387 -0.1105
 1065SOL    HW3 4033   6.286   3.479   2.255  0.9090  2.6444 -2.1496
 1065SOL    MW4 4034   6.207   3.515   2.252 -0.0147  0.9271 -0.1889
 1066SOL     OW 4035   0.969   3.065   0.784  0.0543 -0.1692 -0.0822
 1066SOL    HW2 4036   1.030   3.138   0.772 -0.9703  0.8906  0.9605
 1066SOL    HW3 4037   1.023   2.995   0.822  0.4791  1.0228  1.5665
 1066SOL    MW4 4038   0.984   3.065   0.787 -0.0248  0.1279  0.2729
 1067SOL     OW 4039   0.955   3.766   1.586  0.3175  0.5054  0.1098
 1067SOL    HW2 4040   1.018   3.831   1.558 -0.4157  1.0114 -0.3973
 1067SOL    HW3 4041   0.988   3.734   1.670  0.2967  2.0724  0.7419
 1067SOL    MW4 4042   0.968   3.770   1.594  0.2180  0.7789  0.1263
 1068SOL     OW 4043   0.246   5.819   2.009  0.1134  0.1657  0.3199
 1068SOL    HW2 4044   0.192   5.811   1.931  0.4094  0.0900  0.1208
 1068SOL    HW3 4045   0.257   5.913   2.022 -0.7071  0.2028  0.8098
 1068SOL    MW4 4046   0.240   5.830   2.000  0.0442  0.1606  0.3583
 1069SOL     OW 4047   4.218   4.519   3.059 -0.1533  0.3405  0.2933
 1069SOL    HW2 4048   4.194   4.483   3.144 -2.0252 -0.3775 -0.4943
 1069SOL    HW3 4049   4.252   4.444   3.010  1.4036  0.8488  0.5296
 1069SOL    MW4 4050   4.219   4.504   3.064 -0.1949  0.3128  0.2206
 1070SOL     OW 4051   4.598   0.181   1.403 -0.0722  0.3902  0.4981
 1070SOL    HW2 4052   4.557   0.122   1.466 -0.5162 -0.7761 -0.8147
 1070SOL    HW3 4053   4.622   0.124   1.330  2.3048  1.3394  0.4615
 1070SOL    MW4 4054   4.595   0.166   1.401  0.1828  0.3616  0.3201
 1071SOL     OW 4055   0.775   1.818   1.167 -0.5407 -0.0310 -0.2732
 1071SOL    HW2 4056   0.774   1.726   1.140  0.5014  0.1569 -0.9914
 1071SOL    HW3 4057   0.836   1.860   1.107  0.9094  0.6514  1.5886
 1071SOL    MW4 4058   0.783   1.811   1.156 -0.2119  0.0838 -0.1223
 1072SOL     OW 4059   0.893   2.270   3.433  0.5977  0.1638 -0.9605
 1072SOL    HW2 4060   0.987   2.279   3.416  0.6465 -2.1432 -2.1900
 1072SOL    HW3 4061   0.852   2.269   3.347 -0.6995  1.8698 -0.4265
 1072SOL    MW4 4062   0.900   2.271   3.420  0.4329  0.0845 -1.0522
 1073SOL     OW 4063   4.584   3.171   2.005 -0.3739  0.2767 -1.2259
 1073SOL    HW2 4064   4.550   3.196   2.091  1.0529 -0.3098 -0.4543
 1073SOL    HW3 4065   4.656   3.112   2.024  0.8743  1.2099 -2.7801
 1073SOL    MW4 4066   4.589   3.167   2.019 -0.0209  0.3225 -1.3291
 1074SOL     OW 4067   5.327   3.968   5.839 -0.2393  0.0492 -0.2482
 1074SOL    HW2 4068   5.366   3.902   5.781  0.9479 -0.7776  1.4066
 1074SOL    HW3 4069   5.241   3.933   5.861 -0.0542 -0.4172 -0.2519
 1074SOL    MW4 4070   5.321   3.954   5.834 -0.0582 -0.1214 -0.0303
 1075SOL     OW 4071   1.383   1.484   3.710 -0.1578  0.2425  0.0245
 1075SOL    HW2 4072   1.292   1.466   3.735 -0.0244 -2.0327 -0.8564
 1075SOL    HW3 4073   1.435   1.428   3.768  0.6654  1.0803  0.1201
 1075SOL    MW4 4074   1.378   1.474   3.721 -0.0316  0.0529 -0.0791
 1076SOL     OW 4075   4.962   3.263   2.300  0.7666 -0.2344  0.6792
 1076SOL    HW2 4076   4.923   3.349   2.282  2.8867  0.4342 -1.1534
 1076SOL    HW3 4077   5.056   3.280   2.305  1.3379 -2.5788 -0.7038
 1076SOL    MW4 4078   4.969   3.277   2.298  1.1217 -0.4555  0.2549
 1077SOL     OW 4079   2.943   3.627   1.799 -0.8196 -0.0994 -0.3355
 1077SOL    HW2 4080   2.948   3.689   1.872 -1.6049  0.0154 -0.3757
 1077SOL    HW3 4081   2.874   3.662   1.742 -0.2056 -0.1755 -1.1492
 1077SOL    MW4 4082   2.935   3.640   1.801 -0.8422 -0.0943 -0.4482
 1078SOL     OW 4083   3.999   1.069   5.084  0.2656 -0.0404  0.1210
 1078SOL    HW2 4084   4.050   1.044   5.007  4.0460 -0.2932  2.4308
 1078SOL    HW3 4085   4.044   1.026   5.157 -2.0758  1.5356  2.6973
 1078SOL    MW4 4086   4.012   1.060   5.084  0.4555  0.1342  0.7657
 1079SOL     OW 4087   3.900   2.647   3.722 -0.3787 -0.0820 -0.1306
 1079SOL    HW2 4088   3.926   2.689   3.640  1.6070 -1.1644 -0.1044
 1079SOL    HW3 4089   3.941   2.701   3.790 -0.3651 -0.3352  0.0611
 1079SOL    MW4 4090   3.909   2.660   3.720 -0.1149 -0.2582 -0.1018
 1080SOL     OW 4091   4.264   0.876   4.406  0.2475 -0.1261  0.3379
 1080SOL    HW2 4092   4.285   0.785   4.385  1.0904 -0.0934  0.9872
 1080SOL    HW3 4093   4.336   0.905   4.461  2.2640  2.2505 -3.1469
 1080SOL    MW4 4094   4.276   0.868   4.410  0.6248  0.1918 -0.0362
 1081SOL     OW 4095   2.528   4.412   0.808  0.0075  0.0397  0.1194
 1081SOL    HW2 4096   2.607   4.420   0.862  0.0240 -0.2404  0.1399
 1081SOL    HW3 4097   2.535   4.324   0.770 -0.8566 -0.4179  0.9918
 1081SOL    MW4 4098   2.539   4.401   0.810 -0.1043 -0.0576  0.2372
 1082SOL     OW 4099   0.565   2.224   1.664 -0.2246 -0.2258  0.2031
 1082SOL    HW2 4100   0.510   2.251   1.591 -0.7730 -2.9399 -0.4780
 1082SOL    HW3 4101   0.650   2.205   1.624 -0.0147 -0.0545  0.5634
 1082SOL    MW4 4102   0.569   2.225   1.649 -0.2693 -0.5613  0.1608
 1083SOL     OW 4103   0.238   6.089   4.330  0.4878 -0.2875  0.2668
 1083SOL    HW2 4104   0.231   5.994   4.334 -3.5452 -0.2430 -0.7410
 1083SOL    HW3 4105   0.264   6.115   4.419 -1.1986 -2.2880  1.4487
 1083SOL    MW4 4106   0.240   6.080   4.342 -0.2668 -0.5455  0.2898
 1084SOL     OW 4107   0.886   2.896   1.400 -0.1935 -0.2097  0.2564
 1084SOL    HW2 4108   0.826   2.935   1.464  0.8935 -2.3599  2.7522
 1084SOL    HW3 4109   0.848   2.811   1.380  0.7950 -0.6069  0.0151
 1084SOL    MW4 4110   0.873   2.890   1.406  0.0804 -0.5458  0.5539
 1085SOL     OW 4111   4.564   5.015   5.532 -0.0630 -0.7713 -0.1285
 1085SOL    HW2 4112   4.504   5.081   5.567  0.1853  0.0652 -1.2364
 1085SOL    HW3 4113   4.625   4.998   5.604 -1.0935 -1.0050  0.7192
 1085SOL    MW4 4114   4.564   5.021   5.546 -0.1662 -0.6917 -0.1628
 1086SOL     OW 4115   5.063   0.267   5.375 -0.7673 -0.0697 -0.2684
 1086SOL    HW2 4116   5.017   0.189   5.404 -2.0753  0.6396 -0.3578
 1086SOL    HW3 4117   5.061   0.326   5.451 -1.7192  0.7015 -0.8633
 1086SOL    MW4 4118   5.057   0.265   5.389 -1.0654  0.1256 -0.3587
 1087SOL     OW 4119   6.413   0.481   4.081  0.6002 -0.3834  0.0356
 1087SOL    HW2 4120   6.393   0.393   4.112  1.5180 -1.0812 -1.2830
 1087SOL    HW3 4121   6.506   0.493   4.098  0.2991  0.7188  1.0639
 1087SOL    MW4 4122   6.422   0.471   4.087  0.6816 -0.3300 -0.0027
 1088SOL     OW 4123   2.437   4.357   4.287  0.5916  0.1117  0.1120
 1088SOL    HW2 4124   2.367   4.354   4.352  0.9137 -1.1689  0.4237
 1088SOL    HW3 4125   2.395   4.394   4.209 -0.0817  0.5907  0.6896
 1088SOL    MW4 4126   2.422   4.362   4.285  0.5453  0.0059  0.2293
 1089SOL     OW 4127   6.029   5.520   5.416 -0.3785  0.2633 -0.2324
 1089SOL    HW2 4128   5.996   5.432   5.436 -1.4964  0.7471  0.0763
 1089SOL    HW3 4129   6.026   5.526   5.321  2.1632 -0.9557 -0.4858
 1089SOL    MW4 4130   6.024   5.509   5.406 -0.1906  0.1663 -0.2251
 1090SOL     OW 4131   0.430   2.550   4.233  0.8048  0.3028 -0.2978
 1090SOL    HW2 4132   0.422   2.642   4.260  2.1514  0.3773 -0.0873
 1090SOL    HW3 4133   0.475   2.508   4.306  0.4162 -0.4775 -0.5004
 1090SOL    MW4 4134   0.435   2.557   4.246  0.9312  0.2097 -0.2967
 1091SOL     OW 4135   3.317   5.336   0.542 -0.0565  0.1723 -0.3484
 1091SOL    HW2 4136   3.324   5.315   0.635  1.0298  0.7161 -0.2901
 1091SOL    HW3 4137   3.406   5.325   0.509  0.3522  3.3525 -0.5778
 1091SOL    MW4 4138   3.330   5.332   0.550  0.1407  0.6637 -0.3710
 1092SOL     OW 4139   4.345   5.863   5.873 -0.1614  0.3815  0.1848
 1092SOL    HW2 4140   4.338   5.814   5.791 -0.3452  1.1657 -0.2704
 1092SOL    HW3 4141   4.259   5.903   5.886 -0.2151  0.0589  0.8961
 1092SOL    MW4 4142   4.333   5.862   5.864 -0.1927  0.4424  0.2186
 1093SOL     OW 4143   3.224   3.267   0.404  0.5142 -0.2499  0.1591
 1093SOL    HW2 4144   3.194   3.221   0.326 -0.5463 -1.3575  1.1839
 1093SOL    HW3 4145   3.300   3.318   0.374  0.3521 -0.9168 -1.4942
 1093SOL    MW4 4146   3.230   3.268   0.390  0.3529 -0.4840  0.0762
 1094SOL     OW 4147   5.881   3.214   5.223 -0.7280 -0.3060 -0.4089
 1094SOL    HW2 4148   5.945   3.270   5.265  1.0942 -0.9873 -2.1333
 1094SOL    HW3 4149   5.892   3.128   5.264  0.2335 -0.6819 -1.4195
 1094SOL    MW4 4150   5.891   3.210   5.234 -0.3607 -0.4455 -0.7697
 1095SOL     OW 4151   0.138   6.080   2.530  1.1250  0.4314 -0.0571
 1095SOL    HW2 4152   0.071   6.123   2.583 -0.9465 -1.1488 -1.2474
 1095SOL    HW3 4153   0.219   6.092   2.579 -0.2167  1.3848  2.0581
 1095SOL    MW4 4154   0.140   6.087   2.543  0.6747  0.3487  0.0650
 1096SOL     OW 4155   5.269   4.698   0.418  0.0397 -0.0986  0.0283
 1096SOL    HW2 4156   5.175   4.709   0.425 -0.1619 -1.2084 -0.7096
 1096SOL    HW3 4157   5.306   4.780   0.452 -1.1990  0.6212 -0.3224
 1096SOL    MW4 4158   5.262   4.711   0.423 -0.1503 -0.1500 -0.1154
 1097SOL     OW 4159   5.529   5.931   4.012  0.0224 -0.3120  0.4724
 1097SOL    HW2 4160   5.579   5.947   3.932  1.1099 -1.4722  0.8824
 1097SOL    HW3 4161   5.533   6.014   4.060  0.6287 -0.0537 -0.0093
 1097SOL    MW4 4162   5.536   5.944   4.008  0.2459 -0.4310  0.4630
 1098SOL     OW 4163   0.130   0.958   2.805 -0.7094 -0.7855 -0.1790
 1098SOL    HW2 4164   0.138   1.011   2.725  2.5745 -0.0365  0.5064
 1098SOL    HW3 4165   0.068   1.007   2.860 -0.8673  0.1574 -1.1585
 1098SOL    MW4 4166   0.123   0.971   2.802 -0.2969 -0.5623 -0.2178
 1099SOL     OW 4167   2.436   3.532   5.542  0.0028 -0.1049  0.0921
 1099SOL    HW2 4168   2.528   3.531   5.565  0.4151 -1.0165 -1.4284
 1099SOL    HW3 4169   2.395   3.471   5.602  0.1259  1.2452  1.6150
 1099SOL    MW4 4170   2.443   3.524   5.553  0.0734 -0.0470  0.0925
 1100SOL     OW 4171   0.312   1.137   0.950  0.2671 -0.0814 -0.2119
 1100SOL    HW2 4172   0.293   1.225   0.919 -0.4744 -0.3455 -0.5483
 1100SOL    HW3 4173   0.397   1.143   0.993  0.9635  0.4576 -1.6324
 1100SOL    MW4 4174   0.321   1.149   0.952  0.2611 -0.0451 -0.4437
 1101SOL     OW 4175   4.857   5.185   4.159  0.5855  0.1290  0.6181
 1101SOL    HW2 4176   4.888   5.261   4.109 -0.4712  0.6487  0.7292
 1101SOL    HW3 4177   4.936   5.136   4.179  1.2405  0.9747  0.1683
 1101SOL    MW4 4178   4.871   5.189   4.155  0.5325  0.3092  0.5734
 1102SOL     OW 4179   5.573   3.562   1.288 -0.0543  0.1140  0.7193
 1102SOL    HW2 4180   5.495   3.605   1.322 -1.9683 -2.3667 -0.2679
 1102SOL    HW3 4181   5.603   3.619   1.217 -0.8600  1.1727  1.2026
 1102SOL    MW4 4182   5.567   3.575   1.283 -0.4131 -0.0736  0.6528
 1103SOL     OW 4183   3.833   1.796   5.569  0.2795  0.5772  0.0331
 1103SOL    HW2 4184   3.828   1.851   5.647 -4.5569  2.4935 -1.2363
 1103SOL    HW3 4185   3.837   1.858   5.496  0.3272 -0.9797 -1.3522
 1103SOL    MW4 4186   3.833   1.811   5.570 -0.3523  0.6246 -0.3171
 1104SOL     OW 4187   2.899   2.134   3.089  0.3524  0.0702  0.4632
 1104SOL    HW2 4188   2.815   2.095   3.065  0.8774 -0.9759  0.2665
 1104SOL    HW3 4189   2.960   2.103   3.022  1.5598 -1.8022  2.2745
 1104SOL    MW4 4190   2.896   2.125   3.077  0.5809 -0.3149  0.6762
 1105SOL     OW 4191   4.049   0.324   4.798  1.0663 -0.2462 -0.3042
 1105SOL    HW2 4192   3.989   0.261   4.758  0.8617 -0.0319 -0.3404
 1105SOL    HW3 4193   4.111   0.271   4.847  0.5451 -0.4551  0.1398
 1105SOL    MW4 4194   4.049   0.309   4.800  0.9705 -0.2455 -0.2504
 1106SOL     OW 4195   1.687   4.648   5.723  0.2042 -0.0385  0.2915
 1106SOL    HW2 4196   1.710   4.740   5.729  1.7711 -0.4393  1.2012
 1106SOL    HW3 4197   1.664   4.623   5.813 -1.1498 -0.3362 -0.1086
 1106SOL    MW4 4198   1.687   4.657   5.736  0.2323 -0.1307  0.3587
 1107SOL     OW 4199   3.062   0.070   2.109  0.0769 -0.9962  0.1563
 1107SOL    HW2 4200   3.145   0.047   2.150  1.3274  1.9529 -0.4917
 1107SOL    HW3 4201   3.077   0.059   2.016 -0.0434  0.0942 -0.0007
 1107SOL    MW4 4202   3.075   0.066   2.102  0.2260 -0.4632  0.0501
 1108SOL     OW 4203   0.343   1.140   1.450  0.2500  0.5460 -0.4899
 1108SOL    HW2 4204   0.375   1.214   1.398  1.7223  1.0708  1.0588
 1108SOL    HW3 4205   0.388   1.064   1.412  1.2223  0.9064 -0.0996
 1108SOL    MW4 4206   0.353   1.139   1.438  0.5725  0.6628 -0.2341
 1109SOL     OW 4207   1.673   4.225   5.558  0.3111  0.1665  0.0976
 1109SOL    HW2 4208   1.622   4.178   5.491 -1.8951  2.6123 -0.1093
 1109SOL    HW3 4209   1.706   4.302   5.512  1.6644  0.1583  1.0274
 1109SOL    MW4 4210   1.670   4.229   5.543  0.1986  0.4881  0.1930
 1110SOL     OW 4211   5.764   5.634   5.826 -0.0870  0.4652 -0.0927
 1110SOL    HW2 4212   5.678   5.594   5.839 -0.2338  1.0667  0.9042
 1110SOL    HW3 4213   5.747   5.728   5.824  0.6119  0.6252  0.7793
 1110SOL    MW4 4214   5.750   5.641   5.827 -0.0141  0.5657  0.1539
 1111SOL     OW 4215   3.027   6.106   5.274  0.6771 -0.3136 -0.2127
 1111SOL    HW2 4216   2.985   6.065   5.349 -0.8124 -0.7307 -1.2524
 1111SOL    HW3 4217   3.029   6.199   5.297  0.1840 -0.4274  0.3216
 1111SOL    MW4 4218   3.022   6.113   5.287  0.4155 -0.3836 -0.2794
 1112SOL     OW 4219   5.441   4.408   2.930 -0.2450  0.1196  0.2128
 1112SOL    HW2 4220   5.505   4.391   2.999  0.2244 -0.1128 -0.2692
 1112SOL    HW3 4221   5.492   4.400   2.849 -0.4097  2.0067 -0.1080
 1112SOL    MW4 4222   5.457   4.405   2.928 -0.2048  0.3379  0.1069
 1113SOL     OW 4223   5.817   0.448   5.394 -0.0322  1.0027 -0.1128
 1113SOL    HW2 4224   5.892   0.485   5.348 -1.1995  2.5580 -0.9030
 1113SOL    HW3 4225   5.817   0.356   5.371  1.2521  1.1068 -0.6177
 1113SOL    MW4 4226   5.827   0.441   5.385 -0.0168  1.2216 -0.2837
 1114SOL     OW 4227   2.896   6.268   6.313  0.2778 -0.2290  0.1790
 1114SOL    HW2 4228   2.991   6.259   6.310  0.7101  3.1392 -0.9572
 1114SOL    HW3 4229   2.868   6.256   6.222 -0.5896 -2.1397  0.6418
 1114SOL    MW4 4230   2.905   6.265   6.300  0.2204 -0.0367  0.0902
 1115SOL     OW 4231   1.138   2.035   0.390  0.3135  0.0447 -0.0493
 1115SOL    HW2 4232   1.186   2.057   0.311  0.6550 -0.4795  0.0036
 1115SOL    HW3 4233   1.206   2.014   0.455  0.0509  0.9297  0.5254
 1115SOL    MW4 4234   1.154   2.035   0.388  0.3239  0.0923  0.0335
 1116SOL     OW 4235   5.378   3.762   1.046  0.2960 -0.6028  0.2427
 1116SOL    HW2 4236   5.343   3.820   1.114 -3.0200 -2.0102 -0.0770
 1116SOL    HW3 4237   5.375   3.814   0.966  2.1904  0.3365  0.7003
 1116SOL    MW4 4238   5.373   3.777   1.044  0.1085 -0.6645  0.2609
 1117SOL     OW 4239   4.925   4.599   4.202 -0.2847  0.2842 -0.2930
 1117SOL    HW2 4240   4.928   4.543   4.124  1.8420  1.2916 -1.0166
 1117SOL    HW3 4241   5.010   4.642   4.204 -0.5199  0.8089  2.2436
 1117SOL    MW4 4242   4.937   4.597   4.192 -0.0351  0.4864 -0.0538
 1118SOL     OW 4243   4.484   3.790   3.525  0.1528 -0.3352 -0.5068
 1118SOL    HW2 4244   4.555   3.737   3.562 -0.9241 -0.5662  1.3272
 1118SOL    HW3 4245   4.526   3.870   3.495  1.2386 -0.6401  0.1687
 1118SOL    MW4 4246   4.499   3.793   3.526  0.1540 -0.4059 -0.1757
 1119SOL     OW 4247   3.988   5.450   2.411  0.3764  0.4073  0.5660
 1119SOL    HW2 4248   4.081   5.469   2.427  0.5391  0.5338 -0.4962
 1119SOL    HW3 4249   3.976   5.361   2.445  1.1527 -0.0339 -0.2863
 1119SOL    MW4 4250   3.999   5.441   2.418  0.5003  0.3658  0.3134
 1120SOL     OW 4251   5.485   2.269   2.751 -0.5508 -0.1664 -0.0835
 1120SOL    HW2 4252   5.464   2.362   2.743  1.0371  0.2211 -0.1766
 1120SOL    HW3 4253   5.422   2.225   2.694 -0.7559  0.9403 -0.7338
 1120SOL    MW4 4254   5.474   2.275   2.742 -0.3684  0.0307 -0.1816
 1121SOL     OW 4255   4.878   1.170   1.784  0.2262  0.3327 -0.2897
 1121SOL    HW2 4256   4.867   1.082   1.746  1.6575  1.1181 -2.7863
 1121SOL    HW3 4257   4.831   1.228   1.723  1.4181  1.5280 -0.1177
 1121SOL    MW4 4258   4.871   1.166   1.771  0.5723  0.5940 -0.5964
 1122SOL     OW 4259   0.589   0.939   4.649  0.6947  0.1533 -0.4273
 1122SOL    HW2 4260   0.597   0.930   4.554  0.0733 -1.0577 -0.3879
 1122SOL    HW3 4261   0.678   0.923   4.682  0.9099  0.5639 -0.7988
 1122SOL    MW4 4262   0.602   0.936   4.641  0.6411  0.0477 -0.4711
 1123SOL     OW 4263   0.199   2.613   2.344 -0.0423 -0.3090  0.0282
 1123SOL    HW2 4264   0.258   2.541   2.321 -0.5177 -0.6086 -0.2648
 1123SOL    HW3 4265   0.195   2.611   2.440  1.3553  0.4708  0.1337
 1123SOL    MW4 4266   0.207   2.603   2.354  0.0794 -0.2457  0.0035
 1124SOL     OW 4267   5.879   3.292   4.706 -0.2419  0.0109  0.3581
 1124SOL    HW2 4268   5.826   3.336   4.639  0.5950  2.4308  1.1667
 1124SOL    HW3 4269   5.849   3.331   4.788  0.9723 -0.5077  1.0721
 1124SOL    MW4 4270   5.868   3.303   4.708  0.0287  0.2617  0.5590
 1125SOL     OW 4271   2.020   1.764   3.854  0.1955 -0.1095  0.3527
 1125SOL    HW2 4272   2.028   1.684   3.907  1.3543  0.1879  0.6685
 1125SOL    HW3 4273   2.073   1.746   3.776  1.2180  0.6656  0.8481
 1125SOL    MW4 4274   2.028   1.751   3.851  0.4833  0.0320  0.4597
 1126SOL     OW 4275   2.425   0.219   3.174 -0.1169 -0.3524  0.1077
 1126SOL    HW2 4276   2.370   0.239   3.250  0.1449 -1.8275  0.7067
 1126SOL    HW3 4277   2.478   0.298   3.162 -1.5324  0.6654  0.2221
 1126SOL    MW4 4278   2.424   0.232   3.183 -0.2691 -0.4128  0.2018
 1127SOL     OW 4279   0.101   4.894   5.076  0.3686 -0.1193 -0.4462
 1127SOL    HW2 4280   0.116   4.892   4.981  2.0437  1.8941 -0.2910
 1127SOL    HW3 4281   0.114   4.986   5.100  0.2684 -0.6422  1.8015
 1127SOL    MW4 4282   0.105   4.906   5.066  0.5764  0.0774 -0.1292
 1128SOL     OW 4283   0.854   3.106   3.345 -0.2057  0.3267  0.1062
 1128SOL    HW2 4284   0.847   3.116   3.250 -1.2891  1.0999  0.2420
 1128SOL    HW3 4285   0.945   3.082   3.361 -0.1417 -0.3097 -1.1689
 1128SOL    MW4 4286   0.865   3.104   3.335 -0.3402  0.3448 -0.0441
 1129SOL     OW 4287   4.657   1.725   2.276 -0.4118  0.1177 -0.6181
 1129SOL    HW2 4288   4.697   1.643   2.247 -1.7264 -0.6263 -0.4201
 1129SOL    HW3 4289   4.696   1.742   2.362  1.2413  0.7149 -1.4421
 1129SOL    MW4 4290   4.667   1.717   2.284 -0.3671  0.0983 -0.7007
 1130SOL     OW 4291   5.776   1.201   2.139  0.2254 -0.1351  0.0701
 1130SOL    HW2 4292   5.800   1.130   2.079  0.7257  0.0084  0.0902
 1130SOL    HW3 4293   5.820   1.180   2.221  0.3329  0.1650  0.0930
 1130SOL    MW4 4294   5.785   1.189   2.142  0.3056 -0.0766  0.0758
 1131SOL     OW 4295   3.283   3.669   4.941 -0.0207  0.1398  0.1539
 1131SOL    HW2 4296   3.295   3.576   4.962  1.1813 -0.5597 -3.0855
 1131SOL    HW3 4297   3.192   3.675   4.913 -0.0189 -0.1293  0.0859
 1131SOL    MW4 4298   3.272   3.658   4.940  0.1381  0.0120 -0.2825
 1132SOL     OW 4299   3.971   5.427   1.577  0.0441  0.7179  0.0271
 1132SOL    HW2 4300   3.998   5.507   1.533 -0.6047  0.9675  0.0652
 1132SOL    HW3 4301   3.931   5.374   1.507 -0.8828  1.0672  0.2692
 1132SOL    MW4 4302   3.969   5.430   1.562 -0.1638  0.7969  0.0641
 1133SOL     OW 4303   2.143   4.052   2.452 -0.5183  0.2387 -0.3141
 1133SOL    HW2 4304   2.052   4.038   2.428  0.1360 -0.3918 -2.7219
 1133SOL    HW3 4305   2.173   3.968   2.487 -0.5127 -0.0016 -0.8761
 1133SOL    MW4 4306   2.135   4.039   2.453 -0.4312  0.1238 -0.7059
 1134SOL     OW 4307   1.905   0.240   6.130  0.1645  0.3650 -0.5712
 1134SOL    HW2 4308   1.816   0.273   6.137 -0.1557 -0.8582  2.0778
 1134SOL    HW3 4309   1.954   0.312   6.089 -1.3557  2.3879  0.9874
 1134SOL    MW4 4310   1.900   0.254   6.125 -0.0783  0.4705 -0.0161
 1135SOL     OW 4311   3.127   1.629   4.955  0.0762  0.0453 -0.5921
 1135SOL    HW2 4312   3.110   1.723   4.942 -0.6221  0.0797  0.4512
 1135SOL    HW3 4313   3.042   1.593   4.981  0.2768 -0.9366 -1.2511
 1135SOL    MW4 4314   3.114   1.637   4.957  0.0106 -0.0797 -0.5414
 1136SOL     OW 4315   3.606   0.462   0.844 -0.0274 -0.5834  0.2076
 1136SOL    HW2 4316   3.556   0.541   0.821  2.1500  0.3535 -1.7832
 1136SOL    HW3 4317   3.683   0.495   0.890  0.6530 -1.5934 -0.1712
 1136SOL    MW4 4318   3.610   0.477   0.847  0.3496 -0.5930 -0.1051
 1137SOL     OW 4319   1.123   0.697   0.845 -0.2859 -0.4056 -0.2080
 1137SOL    HW2 4320   1.059   0.633   0.875 -0.8418 -0.3370 -1.2091
 1137SOL    HW3 4321   1.180   0.649   0.786  0.6194 -0.4691  0.6854
 1137SOL    MW4 4322   1.122   0.683   0.841 -0.2398 -0.4049 -0.2222
 1138SOL     OW 4323   0.090   3.261   1.404  0.3386  0.1254  0.7423
 1138SOL    HW2 4324   0.133   3.346   1.420  0.2252  0.2504  0.3748
 1138SOL    HW3 4325   0.144   3.199   1.452  3.4204 -0.3713 -2.9139
 1138SOL    MW4 4326   0.103   3.264   1.413  0.7302  0.0763  0.2114
 1139SOL     OW 4327   6.337   6.349   6.301  0.1485  0.0430 -0.0283
 1139SOL    HW2 4328   6.292   6.368   6.218  0.7666  2.6178  0.1556
 1139SOL    HW3 4329   6.430   6.359   6.281  0.5244 -2.2006  0.3424
 1139SOL    MW4 4330   6.343   6.353   6.287  0.2797  0.0867  0.0448
 1140SOL     OW 4331   2.511   0.281   1.534  0.3547 -0.8510 -0.1070
 1140SOL    HW2 4332   2.482   0.335   1.461  0.9052 -0.9753 -0.4235
 1140SOL    HW3 4333   2.461   0.312   1.609  1.8600  1.2765  0.1157
 1140SOL    MW4 4334   2.501   0.292   1.534  0.6260 -0.5867 -0.1193
 1141SOL     OW 4335   0.377   5.680   4.744  0.4507  0.1106 -0.5086
 1141SOL    HW2 4336   0.433   5.607   4.768 -0.7246 -0.8035 -0.4192
 1141SOL    HW3 4337   0.427   5.758   4.767  1.6078 -0.6631 -0.3154
 1141SOL    MW4 4338   0.391   5.680   4.750  0.4483 -0.1121 -0.4713
 1142SOL     OW 4339   3.976   3.138   5.735  0.2110 -0.1488 -0.1762
 1142SOL    HW2 4340   3.936   3.137   5.648  1.6952  0.2798 -0.8870
 1142SOL    HW3 4341   3.997   3.229   5.752  0.9146 -0.3582  0.1518
 1142SOL    MW4 4342   3.973   3.150   5.726  0.4997 -0.1199 -0.2267
 1143SOL     OW 4343   1.823   4.931   5.883  0.3047  0.2142  0.6845
 1143SOL    HW2 4344   1.750   4.992   5.900 -1.1298 -1.2632  0.0854
 1143SOL    HW3 4345   1.824   4.873   5.959  0.4937 -0.1124  0.4338
 1143SOL    MW4 4346   1.813   4.932   5.895  0.1403 -0.0238  0.5724
 1144SOL     OW 4347   4.700   0.168   2.531  0.5455 -0.1073  0.4381
 1144SOL    HW2 4348   4.696   0.261   2.554  2.1197  0.8460 -2.6594
 1144SOL    HW3 4349   4.787   0.156   2.493 -0.1237 -2.5220 -0.5424
 1144SOL    MW4 4350   4.711   0.178   2.529  0.6649 -0.3001 -0.1000
 1145SOL     OW 4351   3.326   4.798   4.086  0.6016 -0.2695 -0.5279
 1145SOL    HW2 4352   3.346   4.891   4.095  0.5107 -0.3536  0.8140
 1145SOL    HW3 4353   3.316   4.767   4.176  2.4771 -1.9955 -0.8423
 1145SOL    MW4 4354   3.327   4.806   4.099  0.8370 -0.5083 -0.3924
 1146SOL     OW 4355   3.595   5.336   0.298 -0.3390  0.0816  0.5846
 1146SOL    HW2 4356   3.610   5.431   0.297  0.6300 -0.0596  0.3965
 1146SOL    HW3 4357   3.666   5.300   0.244 -0.5144 -0.7727  0.9060
 1146SOL    MW4 4358   3.607   5.344   0.290 -0.2343 -0.0497  0.6022
 1147SOL     OW 4359   4.155   4.157   4.241 -0.7017 -0.3173 -0.5104
 1147SOL    HW2 4360   4.168   4.248   4.267  1.2515 -0.6792 -0.1112
 1147SOL    HW3 4361   4.229   4.110   4.279 -0.4939 -1.7108 -2.4897
 1147SOL    MW4 4362   4.166   4.163   4.249 -0.4166 -0.5489 -0.7189
 1148SOL     OW 4363   5.641   1.558   0.737 -0.2749 -0.4330  0.2931
 1148SOL    HW2 4364   5.650   1.472   0.778 -1.4296  0.5484  2.8340
 1148SOL    HW3 4365   5.553   1.558   0.698 -0.0485 -0.5876 -0.2258
 1148SOL    MW4 4366   5.630   1.547   0.737 -0.3974 -0.3239  0.5598
 1149SOL     OW 4367   0.309   0.949   3.930  0.0570 -0.2719  0.0350
 1149SOL    HW2 4368   0.272   1.030   3.966 -0.6042 -0.6359  0.2022
 1149SOL    HW3 4369   0.244   0.918   3.867  1.6153  0.8428 -2.2519
 1149SOL    MW4 4370   0.295   0.955   3.927  0.1754 -0.1728 -0.2447
 1150SOL     OW 4371   5.489   0.492   2.720 -0.4316 -0.7884 -0.0887
 1150SOL    HW2 4372   5.506   0.414   2.772 -0.2951 -0.2454  0.7028
 1150SOL    HW3 4373   5.515   0.565   2.777 -1.8503 -0.0999 -0.2936
 1150SOL    MW4 4374   5.495   0.491   2.734 -0.6008 -0.6259 -0.0113
 1151SOL     OW 4375   6.359   5.785   2.079 -0.0532 -0.5735  0.2645
 1151SOL    HW2 4376   6.452   5.774   2.060  0.1092  2.1196 -1.0244
 1151SOL    HW3 4377   6.318   5.802   1.994 -1.2509  0.7294  1.0426
 1151SOL    MW4 4378   6.366   5.786   2.065 -0.1898 -0.0463  0.1971
 1152SOL     OW 4379   2.352   5.753   6.001 -0.0369  0.5951 -0.0314
 1152SOL    HW2 4380   2.435   5.800   5.991  0.6226 -0.1512  1.6569
 1152SOL    HW3 4381   2.375   5.661   5.989 -0.9604  0.5033 -1.2934
 1152SOL    MW4 4382   2.366   5.747   5.998 -0.0717  0.4846  0.0249
 1153SOL     OW 4383   5.376   2.269   3.033  0.3458  0.0519 -0.1218
 1153SOL    HW2 4384   5.319   2.196   3.008  0.5571 -0.6809  1.4086
 1153SOL    HW3 4385   5.449   2.264   2.971 -0.8371  0.5238 -1.6096
 1153SOL    MW4 4386   5.379   2.259   3.021  0.2176  0.0175 -0.1162
 1154SOL     OW 4387   3.935   3.639   2.511 -0.0603  0.0809  0.5137
 1154SOL    HW2 4388   3.854   3.623   2.463  1.7451 -1.3192 -2.3367
 1154SOL    HW3 4389   3.936   3.572   2.579 -1.7040  0.7599  1.2628
 1154SOL    MW4 4390   3.925   3.628   2.514 -0.0389 -0.0142  0.2364
 1155SOL     OW 4391   2.090   0.373   1.195  0.1326  0.2432  0.3237
 1155SOL    HW2 4392   2.113   0.281   1.179  1.9419  0.4188  1.5261
 1155SOL    HW3 4393   2.081   0.411   1.108 -4.1097 -1.7446 -0.3382
 1155SOL    MW4 4394   2.092   0.366   1.182 -0.1884  0.0041  0.3950
 1156SOL     OW 4395   5.827   1.475   4.318 -0.3489  0.1267  0.1647
 1156SOL    HW2 4396   5.831   1.400   4.377 -1.3879 -0.0627  0.0044
 1156SOL    HW3 4397   5.776   1.445   4.243  0.0580  0.6951 -0.3544
 1156SOL    MW4 4398   5.821   1.461   4.316 -0.4323  0.1767  0.0750
 1157SOL     OW 4399   4.297   4.807   5.944  0.1691  0.5091  0.1113
 1157SOL    HW2 4400   4.308   4.717   5.912 -0.5534  0.6519 -0.5710
 1157SOL    HW3 4401   4.240   4.798   6.020 -3.7139  0.7022 -2.4543
 1157SOL    MW4 4402   4.291   4.794   5.950 -0.4385  0.5534 -0.3172
 1158SOL     OW 4403   2.961   3.116   4.874 -0.5537  0.1935 -0.4479
 1158SOL    HW2 4404   3.049   3.127   4.909  0.3564  0.3878 -2.6396
 1158SOL    HW3 4405   2.974   3.071   4.790 -2.5147  0.4912 -0.9633
 1158SOL    MW4 4406   2.974   3.111   4.867 -0.6923  0.2584 -0.8050
 1159SOL     OW 4407   3.958   1.491   3.445 -0.5325 -0.0029 -0.2649
 1159SOL    HW2 4408   4.002   1.497   3.360  1.4711 -1.7752  0.5660
 1159SOL    HW3 4409   3.931   1.399   3.451 -1.2587  0.2570  0.7462
 1159SOL    MW4 4410   3.960   1.480   3.434 -0.3639 -0.2025 -0.0218
 1160SOL     OW 4411   4.770   2.127   2.703  0.6790  0.2258 -0.1507
 1160SOL    HW2 4412   4.708   2.191   2.738  1.1112  0.8046 -0.4317
 1160SOL    HW3 4413   4.742   2.112   2.613  0.0660 -0.6361  0.1708
 1160SOL    MW4 4414   4.758   2.134   2.696  0.6552  0.1884 -0.1454
 1161SOL     OW 4415   4.632   0.636   2.392  0.1415  0.1596  0.3966
 1161SOL    HW2 4416   4.538   0.649   2.392  0.1075  0.0270 -0.5693
 1161SOL    HW3 4417   4.649   0.586   2.312  0.8710 -1.0284  1.2512
 1161SOL    MW4 4418   4.622   0.631   2.381  0.2332 -0.0147  0.3819
 1162SOL     OW 4419   4.536   4.688   3.658 -0.1060  0.3602 -0.1765
 1162SOL    HW2 4420   4.492   4.614   3.698 -0.3995 -0.4837 -1.9745
 1162SOL    HW3 4421   4.498   4.695   3.570  2.6282  0.1869 -1.4674
 1162SOL    MW4 4422   4.525   4.679   3.652  0.2160  0.2260 -0.5840
 1163SOL     OW 4423   4.917   1.139   2.249  0.4991 -0.1871  0.4445
 1163SOL    HW2 4424   4.876   1.202   2.307  1.5215 -0.6875  1.7549
 1163SOL    HW3 4425   4.861   1.061   2.255 -0.7356  0.5242 -1.1366
 1163SOL    MW4 4426   4.904   1.137   2.257  0.4711 -0.1593  0.4088
 1164SOL     OW 4427   6.290   0.240   4.237 -0.3461  0.2712  0.1431
 1164SOL    HW2 4428   6.307   0.264   4.329  1.8607 -1.1280  0.1873
 1164SOL    HW3 4429   6.326   0.151   4.230  0.4302  0.7237 -2.3113
 1164SOL    MW4 4430   6.297   0.232   4.248  0.0475  0.1463 -0.1749
 1165SOL     OW 4431   5.471   4.320   0.076 -0.5083  0.4775 -0.2907
 1165SOL    HW2 4432   5.382   4.288   0.059 -0.4709 -1.3754  2.4801
 1165SOL    HW3 4433   5.458   4.395   0.134 -0.2539  0.7068 -0.5249
 1165SOL    MW4 4434   5.458   4.326   0.081 -0.4698  0.2633  0.0440
 1166SOL     OW 4435   1.233   3.807   2.116 -0.2042 -0.5261 -0.0740
 1166SOL    HW2 4436   1.265   3.726   2.077  0.4826 -1.0816  1.5290
 1166SOL    HW3 4437   1.140   3.810   2.094 -0.6647 -2.6932  1.2814
 1166SOL    MW4 4438   1.225   3.797   2.108 -0.1744 -0.8853  0.3163
 1167SOL     OW 4439   0.691   0.005   1.337  0.2854  0.3499 -0.2633
 1167SOL    HW2 4440   0.620   0.066   1.356 -1.1151 -1.6571  1.3207
 1167SOL    HW3 4441   0.664  -0.077   1.376  3.1837 -0.7259 -0.2323
 1167SOL    MW4 4442   0.678   0.003   1.344  0.4830 -0.0568 -0.0502
 1168SOL     OW 4443   2.577   2.927   5.456 -0.2874 -0.0506  0.1360
 1168SOL    HW2 4444   2.660   2.882   5.440 -0.4857  0.2647 -2.1215
 1168SOL    HW3 4445   2.563   2.919   5.550  3.3182  1.6591  0.9787
 1168SOL    MW4 4446   2.586   2.920   5.466  0.1622  0.2166 -0.0507
 1169SOL     OW 4447   3.130   6.126   6.036  0.2067  0.3805  0.3500
 1169SOL    HW2 4448   3.046   6.086   6.058  0.3559  1.4117  3.0970
 1169SOL    HW3 4449   3.113   6.172   5.953 -1.5178 -0.5594  0.1368
 1169SOL    MW4 4450   3.116   6.127   6.028 -0.0012  0.3926  0.6843
 1170SOL     OW 4451   2.157   5.349   0.743  0.3552 -1.0075  0.0309
 1170SOL    HW2 4452   2.126   5.285   0.807  1.1485 -2.1580 -0.7116
 1170SOL    HW3 4453   2.079   5.374   0.694  0.0930 -1.6305  0.1187
 1170SOL    MW4 4454   2.143   5.344   0.745  0.4252 -1.2415 -0.0555
 1171SOL     OW 4455   1.715   4.710   1.489  0.6354  0.8262  0.4112
 1171SOL    HW2 4456   1.749   4.782   1.541 -0.4430  2.3260 -0.8837
 1171SOL    HW3 4457   1.644   4.674   1.541  2.2924 -0.5076  1.8570
 1171SOL    MW4 4458   1.710   4.714   1.502  0.7118  0.8481  0.4311
 1172SOL     OW 4459   1.114   4.183   4.031  0.4320  0.0459 -0.6297
 1172SOL    HW2 4460   1.149   4.177   4.119  0.5815  1.5422 -0.5584
 1172SOL    HW3 4461   1.149   4.107   3.985  1.5497  0.0586  0.1836
 1172SOL    MW4 4462   1.123   4.172   4.036  0.5992  0.2450 -0.5130
 1173SOL     OW 4463   2.224   5.726   3.847 -0.0248 -0.6313  0.0070
 1173SOL    HW2 4464   2.201   5.706   3.756 -1.1030  0.7266 -0.0550
 1173SOL    HW3 4465   2.180   5.809   3.865 -0.9852 -1.5410  2.2051
 1173SOL    MW4 4466   2.215   5.734   3.837 -0.2938 -0.5722  0.2889
 1174SOL     OW 4467   0.136   2.354   2.788  0.1913  0.1129  0.1167
 1174SOL    HW2 4468   0.095   2.306   2.717 -0.1288  1.0474 -0.3517
 1174SOL    HW3 4469   0.109   2.307   2.867 -2.2645  0.9546 -0.1223
 1174SOL    MW4 4470   0.127   2.342   2.789 -0.1750  0.3473  0.0234
 1175SOL     OW 4471   1.901   5.248   1.986  0.8701  0.7340  0.7463
 1175SOL    HW2 4472   1.878   5.167   1.939  1.4946  0.5685  0.7129
 1175SOL    HW3 4473   1.994   5.259   1.969  1.1164  0.6494  1.9833
 1175SOL    MW4 4474   1.910   5.238   1.977  0.9850  0.7010  0.9051
 1176SOL     OW 4475   0.095   3.760   0.754  0.1725 -0.7671  0.1101
 1176SOL    HW2 4476   0.167   3.805   0.711 -1.1903  0.7848 -0.6410
 1176SOL    HW3 4477   0.066   3.819   0.823 -0.5868 -1.2229  0.2022
 1176SOL    MW4 4478   0.101   3.774   0.757 -0.1075 -0.6225  0.0232
 1177SOL     OW 4479   4.724   4.368   2.022 -0.2725 -0.2464  0.4291
 1177SOL    HW2 4480   4.799   4.389   1.965  1.3382 -0.4000  2.3757
 1177SOL    HW3 4481   4.702   4.277   2.001  0.7866 -0.5444  0.5671
 1177SOL    MW4 4482   4.731   4.359   2.011  0.0798 -0.3060  0.7042
 1178SOL     OW 4483   5.737   0.695   6.150  0.1584  0.4411  0.1992
 1178SOL    HW2 4484   5.659   0.642   6.130  0.5598  0.2726 -0.9898
 1178SOL    HW3 4485   5.758   0.738   6.067  2.9609 -1.6672 -0.3085
 1178SOL    MW4 4486   5.729   0.694   6.136  0.5811  0.1407 -0.0246
 1179SOL     OW 4487   2.908   2.215   3.750  0.2685 -0.2273  0.3048
 1179SOL    HW2 4488   2.983   2.167   3.785 -0.3827 -0.0846  2.0017
 1179SOL    HW3 4489   2.877   2.268   3.824  1.5519  3.6496 -1.6514
 1179SOL    MW4 4490   2.914   2.216   3.764  0.3519  0.3031  0.2706
 1180SOL     OW 4491   4.820   1.362   4.535  0.3186 -0.1652  0.3243
 1180SOL    HW2 4492   4.818   1.333   4.443 -0.2693 -0.5165  0.4418
 1180SOL    HW3 4493   4.901   1.324   4.569 -0.1470 -1.2099  0.3144
 1180SOL    MW4 4494   4.830   1.353   4.527  0.1796 -0.3494  0.3385
 1181SOL     OW 4495   2.127   2.113   5.434  0.2722 -0.2852  0.5388
 1181SOL    HW2 4496   2.127   2.206   5.456 -0.5953 -0.5815  1.9922
 1181SOL    HW3 4497   2.219   2.089   5.425  0.4700  1.1097 -1.8856
 1181SOL    MW4 4498   2.139   2.122   5.436  0.1838 -0.1403  0.4107
 1182SOL     OW 4499   5.720   5.866   4.228  0.4145  0.3378 -0.4113
 1182SOL    HW2 4500   5.711   5.904   4.141 -1.3087 -0.3964 -0.6019
 1182SOL    HW3 4501   5.680   5.930   4.287 -0.8602 -0.3270 -0.5170
 1182SOL    MW4 4502   5.713   5.879   4.224  0.0190  0.1532 -0.4504
 1183SOL     OW 4503   0.033   0.699   5.066 -0.1663  0.0884 -0.3371
 1183SOL    HW2 4504   0.121   0.691   5.103 -0.0991  0.8274 -0.3222
 1183SOL    HW3 4505   0.027   0.627   5.003  0.7967  0.5879 -1.0380
 1183SOL    MW4 4506   0.044   0.689   5.063 -0.0304  0.2518 -0.4276
 1184SOL     OW 4507   5.476   4.049   2.170 -0.2613  0.2922  0.7865
 1184SOL    HW2 4508   5.541   4.103   2.215 -2.1299  2.8695  0.6072
 1184SOL    HW3 4509   5.398   4.056   2.225 -0.6926 -2.0083  0.5555
 1184SOL    MW4 4510   5.474   4.057   2.183 -0.5647  0.3287  0.7324
 1185SOL     OW 4511   2.393   3.823   5.665 -0.1733  0.0882  0.0339
 1185SOL    HW2 4512   2.326   3.843   5.599 -0.0948  0.4474  0.0607
 1185SOL    HW3 4513   2.417   3.732   5.648  1.6034  0.8529 -2.0477
 1185SOL    MW4 4514   2.387   3.814   5.654  0.0715  0.2365 -0.2372
 1186SOL     OW 4515   2.141   4.819   5.282 -0.0290  0.2670 -0.3507
 1186SOL    HW2 4516   2.194   4.766   5.222 -0.9674 -0.4323 -0.5819
 1186SOL    HW3 4517   2.084   4.756   5.325  1.9782  0.4162  2.8508
 1186SOL    MW4 4518   2.141   4.803   5.280  0.1120  0.1944  0.0412
 1187SOL     OW 4519   0.824   1.388   5.161  0.4568  0.2574 -0.4925
 1187SOL    HW2 4520   0.821   1.481   5.140  0.6609  0.8360  1.8095
 1187SOL    HW3 4521   0.915   1.363   5.148  0.1272 -0.0182 -2.5179
 1187SOL    MW4 4522   0.836   1.397   5.157  0.4402  0.2973 -0.4560
 1188SOL     OW 4523   0.254   5.360   1.454 -0.1391  0.6522 -0.1774
 1188SOL    HW2 4524   0.225   5.340   1.365 -1.0991 -2.2334  0.6796
 1188SOL    HW3 4525   0.186   5.419   1.487 -1.5618 -0.7923 -0.3722
 1188SOL    MW4 4526   0.241   5.365   1.446 -0.4535  0.0809 -0.0900
 1189SOL     OW 4527   4.727   2.038   0.649 -0.2279  0.3316 -0.1487
 1189SOL    HW2 4528   4.673   2.058   0.572 -0.7151 -0.5474 -0.0487
 1189SOL    HW3 4529   4.699   2.100   0.715 -0.9520  0.0497 -0.1791
 1189SOL    MW4 4530   4.716   2.049   0.647 -0.3877  0.1784 -0.1395
 1190SOL     OW 4531   3.037   0.069   0.681  0.2312  0.2892  0.3796
 1190SOL    HW2 4532   2.947   0.098   0.666  0.2763  0.4311  0.3856
 1190SOL    HW3 4533   3.063   0.110   0.763 -0.3085 -1.1748  1.3236
 1190SOL    MW4 4534   3.029   0.078   0.690  0.1659  0.1148  0.5050
 1191SOL     OW 4535   6.066   0.330   6.395 -0.6390 -0.3193  0.0584
 1191SOL    HW2 4536   6.043   0.238   6.406 -0.5278 -0.1525  2.1356
 1191SOL    HW3 4537   6.035   0.352   6.307 -0.3457 -2.4117 -0.6328
 1191SOL    MW4 4538   6.059   0.321   6.385 -0.5857 -0.5734  0.2413
 1192SOL     OW 4539   3.258   2.351   2.266 -0.3329 -0.3056 -0.3871
 1192SOL    HW2 4540   3.195   2.421   2.249  0.3555  0.6513  0.7927
 1192SOL    HW3 4541   3.243   2.327   2.357  0.9972 -0.0283 -0.0618
 1192SOL    MW4 4542   3.248   2.357   2.276 -0.0666 -0.1428 -0.1885
 1193SOL     OW 4543   3.946   4.754   0.345  0.0958 -0.1083 -0.1797
 1193SOL    HW2 4544   3.892   4.723   0.272  2.2101  2.0721 -2.9066
 1193SOL    HW3 4545   3.903   4.834   0.375  0.0700 -0.1397 -0.1336
 1193SOL    MW4 4546   3.933   4.761   0.339  0.3713  0.1752 -0.5334
 1194SOL     OW 4547   2.198   2.648   5.565  0.0854  0.0238  0.3874
 1194SOL    HW2 4548   2.265   2.689   5.511 -1.7480 -0.3450 -2.3991
 1194SOL    HW3 4549   2.246   2.602   5.633  2.4665  2.2115  0.3515
 1194SOL    MW4 4550   2.213   2.648   5.567  0.1577  0.2638  0.0150
 1195SOL     OW 4551   5.005   5.557   1.941  0.3007  0.2940  0.0513
 1195SOL    HW2 4552   5.063   5.486   1.965  2.6786  2.4091  0.9852
 1195SOL    HW3 4553   4.966   5.529   1.858  2.0915 -1.5545 -0.2466
 1195SOL    MW4 4554   5.007   5.544   1.933  0.8507  0.3292  0.1352
 1196SOL     OW 4555   5.586   4.464   3.580 -0.0817  0.0093  0.1968
 1196SOL    HW2 4556   5.522   4.479   3.650 -1.2732 -1.8897 -0.3939
 1196SOL    HW3 4557   5.616   4.374   3.594  0.1037 -0.2033 -1.3474
 1196SOL    MW4 4558   5.581   4.454   3.591 -0.2144 -0.2693 -0.0849
 1197SOL     OW 4559   1.416   0.341   1.342 -0.2488 -0.2949  0.3712
 1197SOL    HW2 4560   1.458   0.355   1.427  3.6706 -0.3701 -1.3330
 1197SOL    HW3 4561   1.474   0.280   1.296 -2.5218 -0.7365 -2.1713
 1197SOL    MW4 4562   1.429   0.335   1.347 -0.0316 -0.3631 -0.1891
 1198SOL     OW 4563   6.396   1.071   0.574 -0.4395 -0.3262 -0.9190
 1198SOL    HW2 4564   6.488   1.059   0.548 -0.2937 -0.5207 -0.3335
 1198SOL    HW3 4565   6.363   1.139   0.516  0.7261  1.4312  0.3895
 1198SOL    MW4 4566   6.404   1.078   0.563 -0.2665 -0.1200 -0.6691
 1199SOL     OW 4567   2.322   0.447   4.619  0.2150 -0.1350 -0.0670
 1199SOL    HW2 4568   2.377   0.386   4.669 -0.1610  0.8188  1.5764
 1199SOL    HW3 4569   2.333   0.531   4.664 -2.7988  0.0323  0.5444
 1199SOL    MW4 4570   2.331   0.450   4.632 -0.2323  0.0129  0.2305
 1200SOL     OW 4571   3.462   5.016   6.417  0.1885 -0.1371  0.0786
 1200SOL    HW2 4572   3.432   4.951   6.480  1.6993  0.2499  1.2757
 1200SOL    HW3 4573   3.438   5.100   6.457  0.5491  0.0915 -0.1827
 1200SOL    MW4 4574   3.455   5.019   6.431  0.4354 -0.0559  0.2021
 1201SOL     OW 4575   4.576   6.363   2.060  0.3861 -0.0014 -0.0993
 1201SOL    HW2 4576   4.578   6.373   2.155  0.7785 -0.4237 -0.0600
 1201SOL    HW3 4577   4.581   6.453   2.027  1.1500  0.1021  0.2735
 1201SOL    MW4 4578   4.577   6.376   2.068  0.5386 -0.0435 -0.0449
 1202SOL     OW 4579   6.412   5.764   4.550 -0.2824  0.7349  0.9933
 1202SOL    HW2 4580   6.391   5.705   4.477  2.1288  0.8148  0.1442
 1202SOL    HW3 4581   6.435   5.706   4.622 -1.3930  0.6669  1.3161
 1202SOL    MW4 4582   6.412   5.749   4.550 -0.1108  0.7364  0.9238
 1203SOL     OW 4583   5.167   1.603   5.198 -0.4308  0.0871  0.5149
 1203SOL    HW2 4584   5.208   1.611   5.112 -1.6622  0.9919 -0.0169
 1203SOL    HW3 4585   5.077   1.633   5.184 -1.4579 -2.2954  1.5099
 1203SOL    MW4 4586   5.161   1.608   5.185 -0.7288 -0.1078  0.5760
 1204SOL     OW 4587   6.343   4.628   1.145  0.5863 -0.2028  0.1100
 1204SOL    HW2 4588   6.375   4.620   1.234 -0.7394 -0.6228  0.5831
 1204SOL    HW3 4589   6.420   4.614   1.090  2.1229  3.1671  1.1427
 1204SOL    MW4 4590   6.357   4.625   1.149  0.6141  0.1864  0.3087
 1205SOL     OW 4591   5.615   1.836   2.346  0.3259  0.0025 -0.1755
 1205SOL    HW2 4592   5.565   1.756   2.360  2.1295 -0.9589  1.3170
 1205SOL    HW3 4593   5.616   1.849   2.251  0.6623 -2.2104 -0.5173
 1205SOL    MW4 4594   5.608   1.827   2.336  0.6083 -0.4163 -0.0237
 1206SOL     OW 4595   3.995   0.532   6.282  0.3014 -0.2089 -0.0352
 1206SOL    HW2 4596   3.924   0.550   6.344 -0.6062 -0.3649 -0.9888
 1206SOL    HW3 4597   4.066   0.497   6.335 -0.4305 -0.2798  0.9158
 1206SOL    MW4 4598   3.995   0.530   6.297  0.0851 -0.2389 -0.0355
 1207SOL     OW 4599   3.905   6.144   4.632  0.3824 -0.1832  0.3090
 1207SOL    HW2 4600   3.812   6.153   4.651  0.4985 -1.1619  1.3907
 1207SOL    HW3 4601   3.949   6.198   4.698  0.5731  1.3181 -0.9694
 1207SOL    MW4 4602   3.899   6.153   4.643  0.4229 -0.1142  0.2831
 1208SOL     OW 4603   1.640   3.348   0.130  0.0438  0.1986 -0.3518
 1208SOL    HW2 4604   1.589   3.296   0.191  0.7603  1.0469  1.0138
 1208SOL    HW3 4605   1.685   3.413   0.184  0.6139  1.0659 -1.7877
 1208SOL    MW4 4606   1.639   3.350   0.145  0.2135  0.4249 -0.3611
 1209SOL     OW 4607   3.718   5.810   3.744 -0.2987 -0.2176 -0.1389
 1209SOL    HW2 4608   3.640   5.865   3.755 -0.4304 -0.2068 -1.0514
 1209SOL    HW3 4609   3.790   5.865   3.776 -0.7079 -0.4199  1.1963
 1209SOL    MW4 4610   3.717   5.825   3.750 -0.3700 -0.2429 -0.0831
 1210SOL     OW 4611   5.491   0.550   1.646  0.3216 -0.0556 -0.2124
 1210SOL    HW2 4612   5.413   0.604   1.658  1.3415  0.8780  3.4812
 1210SOL    HW3 4613   5.458   0.465   1.618 -2.0435  0.3322  1.1275
 1210SOL    MW4 4614   5.477   0.546   1.644  0.1441  0.1187  0.4517
 1211SOL     OW 4615   1.941   0.006   5.360 -0.0837 -0.2623 -0.1419
 1211SOL    HW2 4616   1.925  -0.016   5.268  0.1574  0.9536 -0.4901
 1211SOL    HW3 4617   2.021  -0.042   5.382  1.6585  1.7960 -1.5266
 1211SOL    MW4 4618   1.950  -0.003   5.351  0.1780  0.1697 -0.3705
 1212SOL     OW 4619   5.929   6.146   5.514 -0.3092  0.2840  0.8945
 1212SOL    HW2 4620   5.875   6.225   5.521  0.8644  1.2848 -0.7485
 1212SOL    HW3 4621   6.001   6.161   5.575 -0.6720 -0.0337  1.4077
 1212SOL    MW4 4622   5.931   6.158   5.523 -0.2022  0.3741  0.7455
 1213SOL     OW 4623   5.299   4.483   1.575 -0.6450 -0.1743  0.5039
 1213SOL    HW2 4624   5.355   4.550   1.535 -1.6628  0.9270  0.8620
 1213SOL    HW3 4625   5.259   4.438   1.500 -0.5804  0.1698  0.2596
 1213SOL    MW4 4626   5.301   4.486   1.560 -0.7708  0.0164  0.5189
 1214SOL     OW 4627   4.765   2.171   6.128 -0.6857  0.0013  0.2795
 1214SOL    HW2 4628   4.805   2.099   6.177 -1.8950 -1.0631 -0.2470
 1214SOL    HW3 4629   4.817   2.248   6.153 -1.4338 -0.3812  3.5012
 1214SOL    MW4 4630   4.777   2.172   6.138 -0.9440 -0.1896  0.6351
 1215SOL     OW 4631   5.398   3.489   3.143 -0.0517  0.1399 -0.1490
 1215SOL    HW2 4632   5.358   3.491   3.230  0.0599  0.2616 -0.1005
 1215SOL    HW3 4633   5.472   3.550   3.148 -1.2189  1.6727 -0.9134
 1215SOL    MW4 4634   5.403   3.497   3.155 -0.1909  0.3582 -0.2435
 1216SOL     OW 4635   6.372   3.107   5.786 -0.5080  0.1811 -0.0554
 1216SOL    HW2 4636   6.409   3.193   5.769  0.4662 -0.5936 -2.1238
 1216SOL    HW3 4637   6.291   3.104   5.735 -1.8901  0.7094  1.9681
 1216SOL    MW4 4638   6.366   3.118   5.777 -0.5618  0.1486 -0.0614
 1217SOL     OW 4639   4.504   5.078   2.518 -0.8020 -0.5485 -0.1700
 1217SOL    HW2 4640   4.479   5.132   2.593 -0.3977 -0.4926 -0.0697
 1217SOL    HW3 4641   4.442   5.005   2.518  0.3545 -1.6084  1.3879
 1217SOL    MW4 4642   4.493   5.076   2.528 -0.5961 -0.6809  0.0487
 1218SOL     OW 4643   3.531   0.406   5.873  0.1069  0.2086 -0.3032
 1218SOL    HW2 4644   3.454   0.361   5.907 -0.3991  0.1205 -1.5154
 1218SOL    HW3 4645   3.578   0.339   5.823  0.6118  0.4301 -0.1273
 1218SOL    MW4 4646   3.527   0.391   5.871  0.1067  0.2262 -0.4399
 1219SOL     OW 4647   6.002   4.624   0.879  0.1290 -0.0153 -0.1923
 1219SOL    HW2 4648   5.916   4.650   0.911  0.7452  0.3663  1.2425
 1219SOL    HW3 4649   6.064   4.674   0.932  1.2509 -0.9118 -0.6018
 1219SOL    MW4 4650   5.999   4.634   0.891  0.3583 -0.0833 -0.0571
 1220SOL     OW 4651   3.235   6.268   4.236 -0.2814 -0.0652 -0.2860
 1220SOL    HW2 4652   3.313   6.223   4.267  0.6332  0.1571 -2.0849
 1220SOL    HW3 4653   3.162   6.223   4.278  0.7739 -0.6228  1.0227
 1220SOL    MW4 4654   3.236   6.256   4.245 -0.0215 -0.1095 -0.3506
 1221SOL     OW 4655   1.331   3.135   5.185  0.2966  0.0718 -0.2424
 1221SOL    HW2 4656   1.425   3.133   5.204  0.3543 -1.4861 -0.5672
 1221SOL    HW3 4657   1.306   3.043   5.176 -0.5441  0.4918 -3.5543
 1221SOL    MW4 4658   1.340   3.122   5.186  0.1933 -0.0783 -0.7222
 1222SOL     OW 4659   2.324   1.393   4.316 -0.0133  0.4489 -0.7628
 1222SOL    HW2 4660   2.295   1.452   4.386  3.3101  3.2276 -1.4926
 1222SOL    HW3 4661   2.304   1.439   4.235 -0.0048 -0.8129 -1.5148
 1222SOL    MW4 4662   2.317   1.407   4.315  0.4263  0.6490 -0.9583
 1223SOL     OW 4663   5.000   5.978   2.224  0.1405  0.1270  0.1019
 1223SOL    HW2 4664   4.990   5.891   2.185  0.6119 -0.0726  0.4023
 1223SOL    HW3 4665   4.916   6.021   2.211 -0.2444 -0.5393  0.3310
 1223SOL    MW4 4666   4.988   5.972   2.217  0.1519  0.0128  0.1718
 1224SOL     OW 4667   1.039   4.664   6.100 -0.1511 -0.8535  0.8894
 1224SOL    HW2 4668   0.982   4.740   6.116 -0.1682 -0.9044  1.0790
 1224SOL    HW3 4669   1.005   4.625   6.020  0.8355  0.2458 -0.1034
 1224SOL    MW4 4670   1.027   4.669   6.092 -0.0232 -0.7152  0.7834
 1225SOL     OW 4671   3.612   4.263   0.148 -0.1654 -0.2010 -0.0662
 1225SOL    HW2 4672   3.526   4.247   0.110 -0.6785 -1.1255  1.3739
 1225SOL    HW3 4673   3.644   4.176   0.172 -0.8285  0.3414  3.4671
 1225SOL    MW4 4674   3.605   4.249   0.146 -0.3206 -0.2514  0.5900
 1226SOL     OW 4675   3.658   1.673   1.531 -0.0340  0.3086 -0.2119
 1226SOL    HW2 4676   3.743   1.655   1.572  0.7625  0.7245 -1.6038
 1226SOL    HW3 4677   3.659   1.620   1.451 -1.4248 -0.2569  0.1196
 1226SOL    MW4 4678   3.670   1.663   1.526 -0.1124  0.2889 -0.3518
 1227SOL     OW 4679   2.244   1.602   3.410  0.3478 -0.5892 -0.0165
 1227SOL    HW2 4680   2.291   1.519   3.417 -1.5287 -1.8012 -1.0645
 1227SOL    HW3 4681   2.264   1.633   3.321  0.4212 -0.2763  0.1043
 1227SOL    MW4 4682   2.253   1.595   3.399  0.1099 -0.7079 -0.1388
 1228SOL     OW 4683   0.310   6.361   4.497 -0.4435 -0.0339 -0.4264
 1228SOL    HW2 4684   0.287   6.434   4.554  0.3315  0.7924 -1.1390
 1228SOL    HW3 4685   0.301   6.283   4.553 -0.6603  0.6566  0.5251
 1228SOL    MW4 4686   0.306   6.360   4.512 -0.3699  0.1662 -0.3949
 1229SOL     OW 4687   3.375   0.388   5.528 -0.2206  0.4850 -0.2620
 1229SOL    HW2 4688   3.382   0.405   5.435 -1.4583  1.3808 -0.2204
 1229SOL    HW3 4689   3.419   0.303   5.541 -0.0784  0.3306 -1.6471
 1229SOL    MW4 4690   3.382   0.379   5.518 -0.3652  0.5828 -0.4392
 1230SOL     OW 4691   4.938   0.471   6.110 -0.1526 -0.4126 -0.5014
 1230SOL    HW2 4692   4.903   0.464   6.021  0.5247  0.0591 -0.8155
 1230SOL    HW3 4693   5.017   0.525   6.101 -1.3882  1.7515  0.7293
 1230SOL    MW4 4694   4.944   0.477   6.097 -0.2263 -0.0648 -0.3805
 1231SOL     OW 4695   1.501   0.993   2.533  0.2991  0.3599  0.2724
 1231SOL    HW2 4696   1.528   1.083   2.549  0.9021  0.1084  0.7386
 1231SOL    HW3 4697   1.427   1.000   2.473  1.4559  1.0807 -1.1174
 1231SOL    MW4 4698   1.495   1.006   2.528  0.5313  0.4218  0.1505
 1232SOL     OW 4699   1.871   1.763   2.474 -0.7088 -0.4447  0.6131
 1232SOL    HW2 4700   1.924   1.728   2.545  0.6033 -1.1420 -0.6470
 1232SOL    HW3 4701   1.934   1.802   2.414 -1.8275  0.6420  0.1029
 1232SOL    MW4 4702   1.886   1.763   2.475 -0.6833 -0.3933  0.3795
 1233SOL     OW 4703   0.406   3.140   5.893  0.1060  0.0402 -0.3569
 1233SOL    HW2 4704   0.369   3.093   5.968 -0.1657  0.8896  0.0550
 1233SOL    HW3 4705   0.492   3.170   5.924 -1.6026  3.9932  1.1958
 1233SOL    MW4 4706   0.413   3.137   5.907 -0.1552  0.6738 -0.0977
 1234SOL     OW 4707   1.209   1.205   2.067 -0.2444  0.3909  0.3214
 1234SOL    HW2 4708   1.261   1.245   1.998  0.2951 -1.0749 -0.1675
 1234SOL    HW3 4709   1.225   1.111   2.058 -0.9473  0.0895  1.8113
 1234SOL    MW4 4710   1.218   1.198   2.057 -0.2659  0.1577  0.4535
 1235SOL     OW 4711   2.260   5.767   2.329 -0.2531  0.4448  0.2648
 1235SOL    HW2 4712   2.273   5.712   2.252  1.0047  2.6847 -1.2479
 1235SOL    HW3 4713   2.303   5.720   2.400  0.5935 -0.6164 -0.9046
 1235SOL    MW4 4714   2.268   5.753   2.328  0.0246  0.6003 -0.0891
 1236SOL     OW 4715   6.230   5.215   2.361 -0.4158 -0.3877  0.2638
 1236SOL    HW2 4716   6.183   5.141   2.401 -1.1639 -0.3317 -0.4894
 1236SOL    HW3 4717   6.161   5.278   2.340 -0.4564 -1.4061 -3.3145
 1236SOL    MW4 4718   6.215   5.213   2.364 -0.5198 -0.5147 -0.3077
 1237SOL     OW 4719   5.174   5.288   5.854 -0.0957 -0.4099 -0.3293
 1237SOL    HW2 4720   5.112   5.309   5.784  0.0793  0.9735 -0.0998
 1237SOL    HW3 4721   5.166   5.361   5.916  0.6619 -0.9783  0.4578
 1237SOL    MW4 4722   5.165   5.301   5.853  0.0273 -0.3023 -0.1952
 1238SOL     OW 4723   0.447   6.373   5.622  0.3001 -0.0378 -0.0071
 1238SOL    HW2 4724   0.430   6.464   5.649  0.7220  0.1791 -0.4560
 1238SOL    HW3 4725   0.494   6.335   5.696  1.0946  0.4333 -0.2575
 1238SOL    MW4 4726   0.451   6.380   5.635  0.4606  0.0530 -0.0993
 1239SOL     OW 4727   4.734   5.745   3.024  0.0734 -0.2184 -0.0724
 1239SOL    HW2 4728   4.733   5.809   3.095 -0.6173  1.4981 -1.5506
 1239SOL    HW3 4729   4.735   5.798   2.944 -0.6590 -2.0549 -1.3682
 1239SOL    MW4 4730   4.734   5.761   3.023 -0.1144 -0.2342 -0.4384
 1240SOL     OW 4731   2.180   5.047   2.290 -0.2023  1.3126  0.3042
 1240SOL    HW2 4732   2.089   5.078   2.282 -0.9594 -0.3697  1.5773
 1240SOL    HW3 4733   2.192   4.991   2.214 -0.4448  1.1018  0.4162
 1240SOL    MW4 4734   2.169   5.043   2.279 -0.3342  1.0628  0.4870
 1241SOL     OW 4735   0.379   2.884   1.041  0.2902  0.1493  0.4112
 1241SOL    HW2 4736   0.285   2.890   1.059  0.7183  2.1273  2.4071
 1241SOL    HW3 4737   0.404   2.973   1.016  1.3033 -0.7929 -2.2136
 1241SOL    MW4 4738   0.370   2.896   1.040  0.4804  0.2860  0.3282
 1242SOL     OW 4739   0.545   0.016   4.378  0.2776  0.1976  0.4418
 1242SOL    HW2 4740   0.470  -0.013   4.430  0.4249  1.0576  1.1780
 1242SOL    HW3 4741   0.532   0.111   4.370  1.4603  0.4141  0.9012
 1242SOL    MW4 4742   0.533   0.025   4.384  0.4531  0.3396  0.5995
 1243SOL     OW 4743   6.059   3.004   1.102 -0.0940  0.2536 -0.5285
 1243SOL    HW2 4744   6.121   2.931   1.099 -0.4546 -0.0261 -2.5736
 1243SOL    HW3 4745   5.987   2.976   1.045 -0.3222  2.1195 -1.2060
 1243SOL    MW4 4746   6.057   2.990   1.094 -0.1717  0.4629 -0.8877
 1244SOL     OW 4747   5.563   5.785   0.795 -0.3229  0.5244  0.1897
 1244SOL    HW2 4748   5.658   5.774   0.793 -0.4806 -0.7710 -0.6587
 1244SOL    HW3 4749   5.543   5.802   0.887  0.6037 -0.3391  0.5599
 1244SOL    MW4 4750   5.572   5.786   0.807 -0.2215  0.2396  0.1266
 1245SOL     OW 4751   5.193   4.661   5.253 -0.3418 -0.1685 -0.4560
 1245SOL    HW2 4752   5.144   4.580   5.241 -0.2414 -0.5130  1.2464
 1245SOL    HW3 4753   5.126   4.728   5.266 -0.4035 -0.1935 -0.6447
 1245SOL    MW4 4754   5.178   4.659   5.253 -0.3367 -0.2172 -0.2563
 1246SOL     OW 4755   4.945   5.707   2.156 -0.3583  0.6021 -0.2669
 1246SOL    HW2 4756   4.949   5.655   2.076 -0.0217 -2.0575  1.3573
 1246SOL    HW3 4757   4.852   5.715   2.176 -0.3992 -1.8997  0.9015
 1246SOL    MW4 4758   4.933   5.701   2.148 -0.3192 -0.0789  0.1016
 1247SOL     OW 4759   3.147   1.915   5.222 -0.0769  0.2220 -0.1181
 1247SOL    HW2 4760   3.179   1.826   5.237 -0.0384 -0.0913 -1.8209
 1247SOL    HW3 4761   3.226   1.966   5.204 -0.0678  0.7008  1.1659
 1247SOL    MW4 4762   3.162   1.910   5.221 -0.0706  0.2438 -0.1734
 1248SOL     OW 4763   4.544   4.267   4.711 -0.2514  0.1969  0.3796
 1248SOL    HW2 4764   4.583   4.267   4.624  0.2721  1.4106  0.6057
 1248SOL    HW3 4765   4.457   4.230   4.698 -0.1652  0.3453 -0.6588
 1248SOL    MW4 4766   4.537   4.262   4.698 -0.1710  0.3766  0.2724
 1249SOL     OW 4767   1.122   4.663   1.916  0.3475 -0.1749  0.0318
 1249SOL    HW2 4768   1.061   4.603   1.960 -0.1935 -1.4095 -2.2435
 1249SOL    HW3 4769   1.067   4.736   1.888 -0.2262 -1.3872 -2.2052
 1249SOL    MW4 4770   1.106   4.665   1.918  0.2005 -0.4978 -0.5635
 1250SOL     OW 4771   4.820   3.037   6.405 -0.2437 -0.6405 -0.3003
 1250SOL    HW2 4772   4.823   3.127   6.436  0.2124 -0.7874  0.0802
 1250SOL    HW3 4773   4.910   3.017   6.380 -0.5576 -0.5811 -1.5624
 1250SOL    MW4 4774   4.832   3.046   6.405 -0.2250 -0.6521 -0.4166
 1251SOL     OW 4775   2.414   4.074   2.027 -0.1453 -0.2268  0.3801
 1251SOL    HW2 4776   2.422   4.014   2.101 -0.9049 -0.9066 -0.0773
 1251SOL    HW3 4777   2.361   4.027   1.963  0.1914  0.4936 -0.4546
 1251SOL    MW4 4778   2.408   4.060   2.028 -0.2011 -0.2214  0.2096
 1252SOL     OW 4779   4.180   1.690   2.199 -0.3425 -0.0304  0.1732
 1252SOL    HW2 4780   4.231   1.706   2.279  0.5038 -1.2981 -0.0879
 1252SOL    HW3 4781   4.125   1.615   2.221 -0.7891  0.2026 -0.1449
 1252SOL    MW4 4782   4.179   1.682   2.213 -0.2898 -0.1669  0.0967
 1253SOL     OW 4783   3.365   1.595   3.607 -0.3446 -0.3280 -0.0329
 1253SOL    HW2 4784   3.425   1.623   3.538 -0.4746  0.3250  0.1042
 1253SOL    HW3 4785   3.395   1.507   3.631  0.4494 -0.0854 -0.0885
 1253SOL    MW4 4786   3.377   1.587   3.601 -0.2570 -0.2098 -0.0222
 1254SOL     OW 4787   4.558   1.862   5.227  0.0930  0.0175 -0.0635
 1254SOL    HW2 4788   4.634   1.880   5.171  1.4402  0.5672  1.8313
 1254SOL    HW3 4789   4.570   1.918   5.303 -1.4420 -0.9888  0.9903
 1254SOL    MW4 4790   4.570   1.872   5.230  0.0682 -0.0428  0.3255
 1255SOL     OW 4791   0.479   6.413   5.025 -0.0643  0.0372 -0.1929
 1255SOL    HW2 4792   0.444   6.429   4.937 -1.4430 -2.1792 -0.1407
 1255SOL    HW3 4793   0.423   6.465   5.082  0.6608  1.2752 -0.5928
 1255SOL    MW4 4794   0.467   6.422   5.021 -0.1505 -0.0919 -0.2388
 1256SOL     OW 4795   5.015   0.920   5.260 -0.4009 -0.1668  0.1917
 1256SOL    HW2 4796   5.084   0.856   5.245  0.6915  0.8684  0.6293
 1256SOL    HW3 4797   4.955   0.909   5.186 -0.1169 -1.5223  0.1527
 1256SOL    MW4 4798   5.016   0.910   5.248 -0.2193 -0.2091  0.2443
 1257SOL     OW 4799   4.358   2.802   5.065 -0.1405  0.1605  0.0227
 1257SOL    HW2 4800   4.276   2.819   5.110  0.9780  0.7080  1.9919
 1257SOL    HW3 4801   4.400   2.888   5.058  0.7627 -0.2593  0.1192
 1257SOL    MW4 4802   4.353   2.816   5.070  0.1263  0.1774  0.2952
 1258SOL     OW 4803   1.217   4.352   6.075  0.3779 -0.1294 -0.1981
 1258SOL    HW2 4804   1.267   4.294   6.017 -1.0632  0.7027 -2.3928
 1258SOL    HW3 4805   1.263   4.435   6.072  0.7866 -0.3129  0.6005
 1258SOL    MW4 4806   1.230   4.355   6.067  0.2417 -0.0439 -0.3823
 1259SOL     OW 4807   3.539   5.427   6.325  0.0386  0.1335 -0.1718
 1259SOL    HW2 4808   3.621   5.473   6.342  0.6009 -0.5186 -1.0433
 1259SOL    HW3 4809   3.479   5.459   6.393  1.3190 -0.1832  1.1790
 1259SOL    MW4 4810   3.542   5.437   6.336  0.2817  0.0057 -0.1086
 1260SOL     OW 4811   5.407   4.958   1.406 -0.9362 -0.2959 -0.1337
 1260SOL    HW2 4812   5.377   4.973   1.496  2.6300  0.7255  1.0473
 1260SOL    HW3 4813   5.392   5.042   1.362 -0.5136 -0.0386  0.2087
 1260SOL    MW4 4814   5.401   4.971   1.412 -0.4099 -0.1272  0.0673
 1261SOL     OW 4815   3.492   5.147   6.148 -0.0298  0.5651 -0.4258
 1261SOL    HW2 4816   3.457   5.166   6.061 -0.4131  0.8490 -0.2105
 1261SOL    HW3 4817   3.565   5.208   6.157  0.5688 -0.0637 -0.8932
 1261SOL    MW4 4818   3.497   5.158   6.137 -0.0014  0.5196 -0.4590
 1262SOL     OW 4819   5.850   5.697   4.480 -0.1455  0.0533 -0.0560
 1262SOL    HW2 4820   5.929   5.657   4.444  0.2914  0.4852  0.4239
 1262SOL    HW3 4821   5.780   5.667   4.421  0.5597  0.7800 -1.3108
 1262SOL    MW4 4822   5.851   5.688   4.467  0.0052  0.2062 -0.1582
 1263SOL     OW 4823   4.645   1.013   3.542  0.5750  0.2661  0.4086
 1263SOL    HW2 4824   4.652   1.039   3.450 -0.4540  2.8230  0.9514
 1263SOL    HW3 4825   4.551   1.001   3.556  0.6511  0.6401  1.2961
 1263SOL    MW4 4826   4.633   1.015   3.532  0.4493  0.6528  0.5973
 1264SOL     OW 4827   6.083   5.803   0.046 -0.3243 -0.2184  0.1319
 1264SOL    HW2 4828   6.134   5.724   0.061  1.0557  0.9068  1.7304
 1264SOL    HW3 4829   6.127   5.847  -0.027  0.8003  0.5303  1.2192
 1264SOL    MW4 4830   6.095   5.798   0.039  0.0062  0.0289  0.4863
 1265SOL     OW 4831   6.208   3.634   4.040 -0.1266  0.9752 -0.0764
 1265SOL    HW2 4832   6.224   3.613   4.132 -3.2987  1.2225  0.6443
 1265SOL    HW3 4833   6.241   3.557   3.992 -2.4198 -1.2988  1.6890
 1265SOL    MW4 4834   6.215   3.621   4.046 -0.8476  0.7078  0.2516
 1266SOL     OW 4835   0.942   3.473   6.097  0.2647  0.5615  0.8567
 1266SOL    HW2 4836   0.925   3.475   6.003  2.0979  1.2781  0.5059
 1266SOL    HW3 4837   0.880   3.536   6.134 -3.1772 -2.4036  0.7061
 1266SOL    MW4 4838   0.931   3.481   6.089  0.0525  0.2649  0.7906
 1267SOL     OW 4839   3.700   2.180   4.813  0.0423  0.0529 -0.4301
 1267SOL    HW2 4840   3.786   2.178   4.771 -0.3002  0.0417 -1.1385
 1267SOL    HW3 4841   3.715   2.231   4.893  0.9510 -0.8886  0.0329
 1267SOL    MW4 4842   3.714   2.187   4.818  0.1170 -0.0728 -0.4625
 1268SOL     OW 4843   6.176   2.871   5.576 -0.1608 -0.6846 -0.4819
 1268SOL    HW2 4844   6.137   2.814   5.510 -1.7436 -0.4317  0.1842
 1268SOL    HW3 4845   6.269   2.872   5.556 -0.4782 -1.4084 -2.0856
 1268SOL    MW4 4846   6.183   2.864   5.565 -0.4115 -0.7468 -0.6056
 1269SOL     OW 4847   0.221   3.769   5.652 -0.1051 -0.0052 -0.2761
 1269SOL    HW2 4848   0.127   3.757   5.665 -0.1543 -1.5709 -1.7992
 1269SOL    HW3 4849   0.242   3.717   5.574  2.3875 -1.2943  1.1454
 1269SOL    MW4 4850   0.211   3.761   5.643  0.2173 -0.3819 -0.2895
 1270SOL     OW 4851   6.013   1.056   3.796 -0.2510  0.0177  0.8977
 1270SOL    HW2 4852   5.966   0.984   3.755  1.9509 -0.4683 -0.9173
 1270SOL    HW3 4853   5.997   1.131   3.739  1.0296 -0.1227  0.3319
 1270SOL    MW4 4854   6.004   1.057   3.783  0.2085 -0.0650  0.5836
 1271SOL     OW 4855   4.519   3.605   3.059 -0.5026 -0.1923 -0.3430
 1271SOL    HW2 4856   4.429   3.624   3.034 -0.0840 -1.4124 -3.0391
 1271SOL    HW3 4857   4.513   3.532   3.121 -1.3888  0.6800  0.6427
 1271SOL    MW4 4858   4.506   3.598   3.064 -0.5643 -0.2382 -0.5687
 1272SOL     OW 4859   2.130   5.574   0.243 -0.4364  0.2686 -0.1763
 1272SOL    HW2 4860   2.061   5.563   0.178 -3.3658  0.0253  2.6914
 1272SOL    HW3 4861   2.163   5.485   0.257 -1.2646 -0.0051  0.1031
 1272SOL    MW4 4862   2.125   5.560   0.237 -0.9322  0.2004  0.2389
 1273SOL     OW 4863   4.509   1.491   3.150  0.0818  0.1223  0.1850
 1273SOL    HW2 4864   4.603   1.480   3.137  0.1024  0.8725 -0.3635
 1273SOL    HW3 4865   4.484   1.417   3.206  1.3893  1.1024  2.2043
 1273SOL    MW4 4866   4.518   1.480   3.156  0.2570  0.3506  0.3790
 1274SOL     OW 4867   2.275   0.036   5.910 -0.3103 -0.0079 -0.3866
 1274SOL    HW2 4868   2.357  -0.006   5.937 -0.1227 -0.4545 -1.5846
 1274SOL    HW3 4869   2.296   0.077   5.826 -1.1002  0.5792 -0.3062
 1274SOL    MW4 4870   2.288   0.036   5.903 -0.3898  0.0106 -0.5340
 1275SOL     OW 4871   4.697   3.709   3.277 -0.5961  0.2762  0.3902
 1275SOL    HW2 4872   4.692   3.773   3.206 -0.3109  0.1621  0.2677
 1275SOL    HW3 4873   4.660   3.629   3.240  0.3946 -0.0447  0.0735
 1275SOL    MW4 4874   4.691   3.707   3.263 -0.4278  0.2188  0.3323
 1276SOL     OW 4875   2.950   3.210   1.076 -0.4705  0.6321 -0.4394
 1276SOL    HW2 4876   2.909   3.239   1.157  1.3464  0.2300  0.6785
 1276SOL    HW3 4877   2.900   3.132   1.051  1.9343 -2.4370  3.1822
 1276SOL    MW4 4878   2.938   3.204   1.083  0.0865  0.1741  0.1859
 1277SOL     OW 4879   1.317   0.921   0.327  0.1711  0.6188 -0.5654
 1277SOL    HW2 4880   1.266   0.852   0.368 -0.2187  0.9481 -0.4975
 1277SOL    HW3 4881   1.294   0.917   0.235  1.5457 -0.5644 -0.9114
 1277SOL    MW4 4882   1.307   0.911   0.320  0.3011  0.5062 -0.6021
 1278SOL     OW 4883   4.216   5.289   3.702 -0.3842  0.1653 -0.1877
 1278SOL    HW2 4884   4.259   5.236   3.635 -0.4650 -0.5541  0.3106
 1278SOL    HW3 4885   4.275   5.284   3.777 -1.5462 -1.2953  0.6920
 1278SOL    MW4 4886   4.230   5.281   3.703 -0.5482 -0.1223 -0.0059
 1279SOL     OW 4887   2.347   6.010   2.878 -0.3713  0.1929 -0.2171
 1279SOL    HW2 4888   2.331   5.919   2.902  1.0591 -0.2003 -0.6373
 1279SOL    HW3 4889   2.260   6.048   2.869 -1.0345 -1.4133 -1.0567
 1279SOL    MW4 4890   2.333   6.003   2.880 -0.2701 -0.0709 -0.3833
 1280SOL     OW 4891   5.210   2.169   0.516  0.0126 -0.5013 -0.9741
 1280SOL    HW2 4892   5.279   2.102   0.517  0.0345 -0.4768  0.1606
 1280SOL    HW3 4893   5.133   2.124   0.550  0.7877  0.7693  3.0607
 1280SOL    MW4 4894   5.209   2.154   0.521  0.1178 -0.3304 -0.2920
 1281SOL     OW 4895   4.693   3.138   6.014  0.1074  0.0971 -0.3998
 1281SOL    HW2 4896   4.601   3.135   5.986  0.2573 -1.1092 -0.8630
 1281SOL    HW3 4897   4.705   3.225   6.052 -0.4343  1.4596 -3.0883
 1281SOL    MW4 4898   4.683   3.149   6.015  0.0557  0.1177 -0.8157
 1282SOL     OW 4899   1.928   3.889   2.996  0.4292 -0.5739 -0.1213
 1282SOL    HW2 4900   1.874   3.819   2.960 -3.2446  1.9078  0.0560
 1282SOL    HW3 4901   1.953   3.942   2.920 -0.5940  0.2994  0.1263
 1282SOL    MW4 4902   1.924   3.887   2.982 -0.1905 -0.1313 -0.0653
 1283SOL     OW 4903   2.356   1.152   2.527 -0.1840 -0.1196 -0.1584
 1283SOL    HW2 4904   2.301   1.086   2.483 -0.4512  0.2669 -0.4150
 1283SOL    HW3 4905   2.445   1.126   2.506 -0.2939 -0.3018 -0.4083
 1283SOL    MW4 4906   2.360   1.140   2.518 -0.2338 -0.0926 -0.2252
 1284SOL     OW 4907   2.718   0.107   1.514  0.0134 -0.6335 -0.2857
 1284SOL    HW2 4908   2.647   0.172   1.513 -0.9128 -1.4481  2.9973
 1284SOL    HW3 4909   2.680   0.029   1.474 -0.2659 -0.4528 -0.3742
 1284SOL    MW4 4910   2.704   0.106   1.508 -0.1457 -0.7172  0.1357
 1285SOL     OW 4911   4.606   1.635   1.760  0.2467  0.6417  0.2352
 1285SOL    HW2 4912   4.513   1.655   1.756 -0.1913 -0.7556  2.1646
 1285SOL    HW3 4913   4.638   1.684   1.836  0.4093 -1.1469  1.3757
 1285SOL    MW4 4914   4.598   1.644   1.769  0.2104  0.2214  0.6402
 1286SOL     OW 4915   2.079   2.690   3.294  0.1638 -0.1135  0.1832
 1286SOL    HW2 4916   2.072   2.619   3.229  0.0351  0.4523 -0.4286
 1286SOL    HW3 4917   2.154   2.665   3.348  0.1731 -0.6766 -0.0807
 1286SOL    MW4 4918   2.088   2.677   3.292  0.1480 -0.1131  0.0676
 1287SOL     OW 4919   3.351   0.338   0.271 -0.0301 -0.5833  0.5814
 1287SOL    HW2 4920   3.324   0.255   0.231  1.6723 -1.6505  1.4896
 1287SOL    HW3 4921   3.315   0.335   0.360  0.2871 -0.4891  0.7145
 1287SOL    MW4 4922   3.343   0.327   0.278  0.2364 -0.7116  0.7187
 1288SOL     OW 4923   1.878   4.728   3.451 -0.0849  0.4470  0.8236
 1288SOL    HW2 4924   1.785   4.747   3.466 -0.4324 -0.7809  0.3293
 1288SOL    HW3 4925   1.906   4.796   3.390 -1.0924 -0.1073 -0.3024
 1288SOL    MW4 4926   1.869   4.740   3.445 -0.2637  0.2118  0.6098
 1289SOL     OW 4927   5.671   1.313   1.433  0.1237  0.0314  0.0432
 1289SOL    HW2 4928   5.581   1.279   1.429 -0.2795  1.1558 -2.7054
 1289SOL    HW3 4929   5.662   1.406   1.412  1.9125  0.2860  0.2805
 1289SOL    MW4 4930   5.658   1.321   1.430  0.3066  0.2133 -0.2881
 1290SOL     OW 4931   4.022   1.053   1.411  0.2044 -0.0659 -0.2119
 1290SOL    HW2 4932   4.052   1.023   1.497 -1.1696  1.2469  0.7907
 1290SOL    HW3 4933   3.956   1.121   1.431  0.9528  1.3855 -2.3039
 1290SOL    MW4 4934   4.017   1.058   1.425  0.1219  0.2988 -0.3557
 1291SOL     OW 4935   1.143   3.229   1.319  0.3924  0.6117 -0.7421
 1291SOL    HW2 4936   1.190   3.150   1.347 -0.2068  0.1565 -1.0131
 1291SOL    HW3 4937   1.213   3.289   1.291  0.9341  0.6454  0.5858
 1291SOL    MW4 4938   1.159   3.227   1.319  0.3848  0.5561 -0.6026
 1292SOL     OW 4939   1.630   3.629   5.576 -0.2153  0.3752  0.3308
 1292SOL    HW2 4940   1.712   3.627   5.526 -0.0611 -1.8169  0.5852
 1292SOL    HW3 4941   1.570   3.680   5.521  0.0613 -1.6400 -2.0297
 1292SOL    MW4 4942   1.633   3.635   5.562 -0.1585 -0.1799  0.0529
 1293SOL     OW 4943   1.232   4.144   0.047  0.1791  0.1831 -0.5278
 1293SOL    HW2 4944   1.260   4.209   0.111  1.1265  0.3238 -1.0562
 1293SOL    HW3 4945   1.160   4.187   0.000 -2.1144 -0.7700  1.8760
 1293SOL    MW4 4946   1.227   4.159   0.049  0.0015  0.0759 -0.2803
 1294SOL     OW 4947   3.369   1.095   0.798  0.2538  0.1826  0.0247
 1294SOL    HW2 4948   3.285   1.078   0.755 -0.1042 -0.7764  1.0839
 1294SOL    HW3 4949   3.434   1.075   0.730 -0.3183 -0.7988 -0.2576
 1294SOL    MW4 4950   3.367   1.090   0.783  0.1311 -0.0734  0.1272
 1295SOL     OW 4951   5.911   2.801   0.474  0.2509  0.2861  0.4701
 1295SOL    HW2 4952   5.973   2.748   0.423  1.3073  1.2824  0.6894
 1295SOL    HW3 4953   5.926   2.774   0.565 -0.7860 -0.6146  0.4003
 1295SOL    MW4 4954   5.921   2.790   0.479  0.2534  0.2987  0.4898
 1296SOL     OW 4955   4.940   2.654   5.758 -0.2633 -0.2317 -0.3454
 1296SOL    HW2 4956   4.865   2.663   5.700  0.6339  0.4026 -1.4672
 1296SOL    HW3 4957   4.959   2.744   5.786 -0.3933 -0.4777  0.5678
 1296SOL    MW4 4958   4.933   2.667   5.754 -0.1621 -0.1805 -0.3729
 1297SOL     OW 4959   5.878   2.160   4.601 -0.3785  0.0216  0.0332
 1297SOL    HW2 4960   5.923   2.167   4.517 -1.4184  0.0254 -0.5332
 1297SOL    HW3 4961   5.903   2.073   4.634 -0.2708 -0.1346 -0.4549
 1297SOL    MW4 4962   5.887   2.149   4.595 -0.5015  0.0015 -0.1059
 1298SOL     OW 4963   1.385   2.073   1.067 -0.0381 -0.4065 -0.4314
 1298SOL    HW2 4964   1.435   2.000   1.103  0.5293 -0.2219 -0.8323
 1298SOL    HW3 4965   1.375   2.053   0.974 -0.9866 -0.5935 -0.2909
 1298SOL    MW4 4966   1.390   2.061   1.060 -0.0884 -0.4068 -0.4658
 1299SOL     OW 4967   4.651   1.348   3.526  0.3531  0.1139 -0.1082
 1299SOL    HW2 4968   4.667   1.434   3.565 -1.2760  0.7593 -0.7782
 1299SOL    HW3 4969   4.639   1.289   3.601  1.5169  0.4405  0.3535
 1299SOL    MW4 4970   4.652   1.351   3.541  0.2917  0.2421 -0.1357
 1300SOL     OW 4971   4.567   6.231   4.677 -0.3291 -0.1456  0.2231
 1300SOL    HW2 4972   4.626   6.221   4.752  0.1444 -0.8528 -0.2340
 1300SOL    HW3 4973   4.533   6.143   4.662  0.0307 -0.1280 -0.7503
 1300SOL    MW4 4974   4.570   6.218   4.685 -0.2192 -0.2365  0.0343
 1301SOL     OW 4975   2.935   2.375   3.250 -0.1871  0.6066 -0.4085
 1301SOL    HW2 4976   2.974   2.455   3.214  3.5542 -1.0166 -0.4028
 1301SOL    HW3 4977   2.950   2.309   3.182 -2.4590 -0.3565 -0.0753
 1301SOL    MW4 4978   2.942   2.377   3.236  0.0068  0.2653 -0.3638
 1302SOL     OW 4979   3.543   3.530   4.691  0.5961 -0.1074  0.2811
 1302SOL    HW2 4980   3.636   3.541   4.672  0.8912 -0.1760  1.5466
 1302SOL    HW3 4981   3.504   3.616   4.676  1.4229  0.7360  2.5040
 1302SOL    MW4 4982   3.550   3.543   4.687  0.7441 -0.0052  0.7414
 1303SOL     OW 4983   3.449   6.056   3.130 -0.2337  0.0585  0.1081
 1303SOL    HW2 4984   3.451   5.961   3.129  0.3252  0.0780 -0.5344
 1303SOL    HW3 4985   3.519   6.083   3.072 -0.7614  0.8639 -0.1751
 1303SOL    MW4 4986   3.458   6.047   3.122 -0.2296  0.1673 -0.0140
 1304SOL     OW 4987   5.619   1.855   5.667 -0.2271 -0.0972 -0.3177
 1304SOL    HW2 4988   5.688   1.833   5.604 -0.7468  0.7982 -1.2313
 1304SOL    HW3 4989   5.541   1.812   5.633 -0.1326 -1.2225  0.7903
 1304SOL    MW4 4990   5.618   1.846   5.655 -0.2832 -0.1275 -0.2920
 1305SOL     OW 4991   3.972   2.168   2.909 -0.0729 -0.3632  0.1834
 1305SOL    HW2 4992   4.062   2.139   2.923 -0.8817 -4.4964 -1.5577
 1305SOL    HW3 4993   3.929   2.153   2.993  0.1305 -2.0305  0.0226
 1305SOL    MW4 4994   3.978   2.162   2.922 -0.1528 -1.1285 -0.0676
 1306SOL     OW 4995   2.696   0.826   3.521  0.2309  0.1014  0.5298
 1306SOL    HW2 4996   2.630   0.830   3.590 -0.3932 -1.1724  0.0379
 1306SOL    HW3 4997   2.723   0.734   3.519 -0.6231 -0.1498 -1.6945
 1306SOL    MW4 4998   2.691   0.815   3.530  0.0359 -0.0998  0.1715
 1307SOL     OW 4999   1.017   0.910   3.890 -0.7900  0.2043 -0.5528
 1307SOL    HW2 5000   1.044   0.977   3.827 -1.8065  0.6623 -0.5165
 1307SOL    HW3 5001   0.961   0.957   3.952  0.2909 -0.2014  0.7895
 1307SOL    MW4 5002   1.013   0.925   3.890 -0.7815  0.2112 -0.3709
 1308SOL     OW 5003   6.400   5.929   5.735  0.3856 -0.0046 -0.3533
 1308SOL    HW2 5004   6.440   5.849   5.701  1.5693  0.9741 -1.3841
 1308SOL    HW3 5005   6.306   5.912   5.734  0.5327 -0.9028 -1.8355
 1308SOL    MW4 5006   6.393   5.916   5.730  0.5612  0.0060 -0.6849
 1309SOL     OW 5007   4.774   4.758   1.690  0.6074 -0.0210 -0.4285
 1309SOL    HW2 5008   4.861   4.721   1.679  0.8212 -0.0846  1.2586
 1309SOL    HW3 5009   4.722   4.687   1.729 -0.4035 -0.1888 -1.9577
 1309SOL    MW4 5010   4.779   4.744   1.694  0.5023 -0.0515 -0.4077
 1310SOL     OW 5011   4.673   5.140   1.114  0.0901 -0.3778 -0.1476
 1310SOL    HW2 5012   4.633   5.225   1.098  0.9522  0.1795  0.5421
 1310SOL    HW3 5013   4.729   5.125   1.038  0.4581  0.0012  0.0415
 1310SOL    MW4 5014   4.675   5.149   1.102  0.2524 -0.2543 -0.0316
 1311SOL     OW 5015   6.368   0.756   1.146 -0.7046  0.1547 -0.2030
 1311SOL    HW2 5016   6.425   0.833   1.137 -0.6080  0.0428 -0.5877
 1311SOL    HW3 5017   6.279   0.791   1.139 -0.7038  0.3811  0.7690
 1311SOL    MW4 5018   6.364   0.771   1.143 -0.6918  0.1698 -0.1255
 1312SOL     OW 5019   4.539   4.097   0.153  0.1012 -0.3621  0.2171
 1312SOL    HW2 5020   4.590   4.178   0.160  0.0860 -0.4437  1.4959
 1312SOL    HW3 5021   4.460   4.123   0.104 -0.0364  0.4682  0.8613
 1312SOL    MW4 5022   4.535   4.111   0.147  0.0810 -0.2633  0.4708
 1313SOL     OW 5023   5.644   5.969   2.010 -0.2028  0.6030  0.0266
 1313SOL    HW2 5024   5.661   5.887   1.964 -1.2492  0.2134  0.2916
 1313SOL    HW3 5025   5.578   6.013   1.956 -0.2290  0.8975  0.2945
 1313SOL    MW4 5026   5.637   5.964   1.997 -0.3443  0.5905  0.0969
 1314SOL     OW 5027   2.715   2.467   5.236  0.2685  0.0390 -0.2240
 1314SOL    HW2 5028   2.674   2.527   5.298  1.4295  0.3451  0.2769
 1314SOL    HW3 5029   2.705   2.509   5.150 -0.4474  0.1021 -0.1118
 1314SOL    MW4 5030   2.709   2.480   5.233  0.3272  0.0877 -0.1431
 1315SOL     OW 5031   2.481   2.791   2.065  0.5401 -0.0466 -0.4960
 1315SOL    HW2 5032   2.479   2.806   2.160 -1.8999  0.6387 -0.6082
 1315SOL    HW3 5033   2.554   2.845   2.034  0.4384  0.8981  0.8190
 1315SOL    MW4 5034   2.491   2.800   2.073  0.2048  0.1685 -0.3373
 1316SOL     OW 5035   4.255   3.157   3.366  0.2855  0.2602  0.0243
 1316SOL    HW2 5036   4.170   3.166   3.322 -0.6713 -0.0185  1.7105
 1316SOL    HW3 5037   4.280   3.066   3.350  1.2752  0.8501 -2.1225
 1316SOL    MW4 5038   4.247   3.146   3.358  0.2898  0.3013 -0.0364
 1317SOL     OW 5039   5.000   4.762   4.875 -0.0123  0.1443 -0.1022
 1317SOL    HW2 5040   5.088   4.778   4.842  0.1283 -0.4282 -0.0152
 1317SOL    HW3 5041   4.973   4.846   4.914  0.6265  0.2179  0.1858
 1317SOL    MW4 5042   5.008   4.775   4.876  0.0905  0.0784 -0.0527
 1318SOL     OW 5043   5.896   0.863   1.391  0.0153  0.4260 -0.1540
 1318SOL    HW2 5044   5.844   0.939   1.417 -0.3168  0.5932 -1.2726
 1318SOL    HW3 5045   5.864   0.792   1.446  0.5320  1.1392  1.1203
 1318SOL    MW4 5046   5.885   0.864   1.402  0.0397  0.5421 -0.1335
 1319SOL     OW 5047   0.614   2.275   4.040 -0.0045 -0.5620  0.6988
 1319SOL    HW2 5048   0.655   2.192   4.065  1.1874  0.4351  2.1758
 1319SOL    HW3 5049   0.607   2.324   4.122  1.4741  1.7481 -0.4705
 1319SOL    MW4 5050   0.618   2.270   4.054  0.3478 -0.1256  0.7394
 1320SOL     OW 5051   4.767   2.146   2.065 -0.0073  0.2469  0.2538
 1320SOL    HW2 5052   4.743   2.193   1.985 -0.4915  0.5565  0.5803
 1320SOL    HW3 5053   4.735   2.201   2.136 -2.9111 -1.7146  0.6546
 1320SOL    MW4 5054   4.760   2.159   2.064 -0.4543  0.0289  0.3497
 1321SOL     OW 5055   1.815   2.989   0.740  0.4777 -0.0563  0.2269
 1321SOL    HW2 5056   1.832   3.014   0.649  2.2724  0.9562  0.7840
 1321SOL    HW3 5057   1.743   2.926   0.735  0.9801 -0.5324 -1.9479
 1321SOL    MW4 5058   1.808   2.984   0.727  0.7808  0.0144  0.0134
 1322SOL     OW 5059   5.852   6.419   1.437  0.0162 -0.3956  0.0638
 1322SOL    HW2 5060   5.770   6.420   1.487 -0.5371  0.2054 -0.8133
 1322SOL    HW3 5061   5.892   6.334   1.457 -0.0085 -0.0432  1.7715
 1322SOL    MW4 5062   5.846   6.408   1.446 -0.0601 -0.2698  0.1734
 1323SOL     OW 5063   2.902   5.413   3.075 -0.0333  0.0691  0.1446
 1323SOL    HW2 5064   2.956   5.336   3.095  1.0201  0.6839 -0.3020
 1323SOL    HW3 5065   2.827   5.405   3.134  0.4209 -0.9200  0.6113
 1323SOL    MW4 5066   2.899   5.401   3.085  0.1656  0.0197  0.1473
 1324SOL     OW 5067   3.003   3.055   0.294 -0.2831 -0.6842 -0.3386
 1324SOL    HW2 5068   2.915   3.092   0.283  0.7554  1.7131 -1.2878
 1324SOL    HW3 5069   3.026   3.021   0.208  1.0753  2.1626 -1.2482
 1324SOL    MW4 5070   2.994   3.056   0.281  0.0332  0.0077 -0.5839
 1325SOL     OW 5071   2.749   0.192   2.880  0.2290  0.2276 -0.2406
 1325SOL    HW2 5072   2.718   0.257   2.942  2.3633 -1.3257  2.6719
 1325SOL    HW3 5073   2.691   0.116   2.893 -0.0505  0.2794 -1.0750
 1325SOL    MW4 5074   2.737   0.190   2.890  0.4737  0.0295  0.0336
 1326SOL     OW 5075   6.155   3.332   4.225  0.2400  0.5059 -0.0703
 1326SOL    HW2 5076   6.183   3.415   4.263 -0.7551 -0.5539  3.3535
 1326SOL    HW3 5077   6.186   3.266   4.287 -2.2173 -1.3306 -0.6442
 1326SOL    MW4 5078   6.163   3.335   4.238 -0.2155  0.1238  0.3057
 1327SOL     OW 5079   6.174   0.789   5.041 -0.5978 -0.6534  0.7507
 1327SOL    HW2 5080   6.191   0.815   4.951  0.1156  0.4779  1.1816
 1327SOL    HW3 5081   6.244   0.728   5.063  1.0904  1.3848  1.4411
 1327SOL    MW4 5082   6.186   0.784   5.032 -0.2809 -0.2352  0.8986
 1328SOL     OW 5083   0.072   4.597   0.680  0.2396 -0.0512  0.0581
 1328SOL    HW2 5084  -0.003   4.541   0.698  0.6416 -0.3527  0.8682
 1328SOL    HW3 5085   0.035   4.679   0.648 -0.3830 -0.5577 -0.5476
 1328SOL    MW4 5086   0.057   4.600   0.678  0.2105 -0.1578  0.0850
 1329SOL     OW 5087   0.765   5.765   5.353 -0.1509 -0.0739  0.1929
 1329SOL    HW2 5088   0.702   5.695   5.371 -0.6614  0.4511  0.4785
 1329SOL    HW3 5089   0.711   5.838   5.323  0.5188 -0.3674 -1.8966
 1329SOL    MW4 5090   0.750   5.765   5.351 -0.1299 -0.0433 -0.0451
 1330SOL     OW 5091   5.279   3.112   6.375  0.7373 -0.0656 -0.8385
 1330SOL    HW2 5092   5.279   3.206   6.393 -3.0997 -0.0699  0.0462
 1330SOL    HW3 5093   5.331   3.074   6.445  0.3928  1.2523  0.1628
 1330SOL    MW4 5094   5.285   3.120   6.386  0.1856  0.1077 -0.5897
 1331SOL     OW 5095   1.738   1.855   1.937  0.6431 -0.0541 -0.2735
 1331SOL    HW2 5096   1.730   1.931   1.995  1.0107 -0.8930  0.8973
 1331SOL    HW3 5097   1.825   1.821   1.954  0.4493 -0.7977 -0.7348
 1331SOL    MW4 5098   1.748   1.861   1.947  0.6660 -0.2629 -0.1799
 1332SOL     OW 5099   1.707   4.504   3.091 -0.1390  0.3304  0.2946
 1332SOL    HW2 5100   1.787   4.511   3.143 -0.2118  2.5497  0.1706
 1332SOL    HW3 5101   1.733   4.526   3.002 -0.6043 -0.5179 -0.0695
 1332SOL    MW4 5102   1.721   4.508   3.086 -0.2100  0.5113  0.2302
 1333SOL     OW 5103   4.082   1.133   3.323  0.2042 -0.8235  0.1398
 1333SOL    HW2 5104   4.040   1.068   3.267  0.5769 -0.5106 -0.5125
 1333SOL    HW3 5105   4.056   1.217   3.285  0.3697 -0.6011  0.5098
 1333SOL    MW4 5106   4.073   1.136   3.311  0.2752 -0.7529  0.1026
 1334SOL     OW 5107   2.641   2.250   2.967 -0.5325 -0.0111 -0.1920
 1334SOL    HW2 5108   2.615   2.168   3.008  0.5910 -0.3591 -0.1441
 1334SOL    HW3 5109   2.720   2.228   2.918 -0.0385  1.1021  0.0811
 1334SOL    MW4 5110   2.648   2.236   2.966 -0.3191  0.0898 -0.1496
 1335SOL     OW 5111   0.797   4.422   0.593  0.1369 -0.3726 -0.4724
 1335SOL    HW2 5112   0.836   4.466   0.517  1.6668 -0.8535 -0.0076
 1335SOL    HW3 5113   0.840   4.337   0.596  0.8108 -0.0161  1.4470
 1335SOL    MW4 5114   0.808   4.417   0.583  0.4277 -0.3890 -0.1578
 1336SOL     OW 5115   6.297   2.599   5.496  0.3194  0.2111  0.2225
 1336SOL    HW2 5116   6.306   2.596   5.592  0.5706  0.9084  0.2212
 1336SOL    HW3 5117   6.373   2.552   5.463  0.7433  0.8063  0.3459
 1336SOL    MW4 5118   6.308   2.592   5.505  0.4085  0.3816  0.2386
 1337SOL     OW 5119   2.839   5.556   5.120 -0.5912 -0.1392  0.0434
 1337SOL    HW2 5120   2.783   5.565   5.198  0.7865  1.0663  0.9415
 1337SOL    HW3 5121   2.785   5.589   5.048 -2.6660 -3.1667  0.0353
 1337SOL    MW4 5122   2.825   5.562   5.121 -0.6832 -0.3796  0.1608
 1338SOL     OW 5123   0.746   5.943   3.333  0.0475 -0.3091  0.1122
 1338SOL    HW2 5124   0.826   5.912   3.289 -0.1580  0.2038 -0.6377
 1338SOL    HW3 5125   0.747   5.898   3.417  1.8541  0.7202  0.7048
 1338SOL    MW4 5126   0.757   5.933   3.338  0.2588 -0.1056  0.0914
 1339SOL     OW 5127   3.683   5.244   2.745 -0.3129  0.4798  0.0352
 1339SOL    HW2 5128   3.688   5.315   2.810  1.0012  0.4143  0.0252
 1339SOL    HW3 5129   3.607   5.192   2.773 -0.7184  1.3466  0.5959
 1339SOL    MW4 5130   3.673   5.246   2.757 -0.1930  0.5855  0.1079
 1340SOL     OW 5131   1.238   0.958   2.442 -0.2782 -0.5356  0.3123
 1340SOL    HW2 5132   1.218   0.887   2.504 -2.1132 -1.2203 -0.9739
 1340SOL    HW3 5133   1.157   1.008   2.435  0.8806  1.5174  0.8999
 1340SOL    MW4 5134   1.225   0.955   2.449 -0.3675 -0.3551  0.2201
 1341SOL     OW 5135   3.634   0.650   5.749  0.2630  0.1152 -0.4047
 1341SOL    HW2 5136   3.710   0.623   5.699  1.6586  1.0938  1.0822
 1341SOL    HW3 5137   3.603   0.569   5.791  0.2031 -0.3617 -1.3517
 1341SOL    MW4 5138   3.640   0.635   5.748  0.4392  0.1814 -0.3335
 1342SOL     OW 5139   1.853   5.712   3.120 -0.4085 -0.0402  0.2540
 1342SOL    HW2 5140   1.846   5.653   3.194 -1.7106  0.5738  0.6435
 1342SOL    HW3 5141   1.786   5.682   3.058  0.6301 -0.5211 -0.6931
 1342SOL    MW4 5142   1.843   5.700   3.121 -0.4433 -0.0227  0.1804
 1343SOL     OW 5143   2.740   4.578   4.600  0.0956  0.0973  0.0293
 1343SOL    HW2 5144   2.752   4.493   4.642  0.0743  0.2639  0.3718
 1343SOL    HW3 5145   2.655   4.609   4.632  0.0793  0.2258 -0.1366
 1343SOL    MW4 5146   2.730   4.571   4.609  0.0906  0.1363  0.0526
 1344SOL     OW 5147   5.859   4.084   2.704 -0.1965 -0.0623  0.3548
 1344SOL    HW2 5148   5.939   4.087   2.652 -1.1462  0.5840 -1.1481
 1344SOL    HW3 5149   5.844   4.175   2.730 -2.1137  0.4362 -2.1399
 1344SOL    MW4 5150   5.867   4.097   2.701 -0.5748  0.0888 -0.1726
 1345SOL     OW 5151   4.295   2.332   2.995  0.1381  0.2667 -0.8957
 1345SOL    HW2 5152   4.216   2.304   2.948  0.8520 -0.5535 -1.6486
 1345SOL    HW3 5153   4.302   2.426   2.977 -1.2253  0.5888  0.0530
 1345SOL    MW4 5154   4.285   2.341   2.987  0.0524  0.2010 -0.8699
 1346SOL     OW 5155   1.643   3.400   6.072  0.0970  0.4675 -0.4225
 1346SOL    HW2 5156   1.583   3.326   6.073 -1.8217  1.9592 -0.4086
 1346SOL    HW3 5157   1.629   3.442   5.987  0.7280  1.1370 -0.2095
 1346SOL    MW4 5158   1.633   3.396   6.061 -0.0729  0.7527 -0.3925
 1347SOL     OW 5159   1.206   0.356   5.096  0.1076  0.0759 -0.4227
 1347SOL    HW2 5160   1.147   0.281   5.095 -2.1534  1.7254  0.0902
 1347SOL    HW3 5161   1.284   0.326   5.142 -0.1434 -2.2979 -1.4096
 1347SOL    MW4 5162   1.208   0.342   5.102 -0.2238 -0.0197 -0.4853
 1348SOL     OW 5163   0.965   0.190   2.606  0.9686 -0.4216  0.5199
 1348SOL    HW2 5164   0.975   0.285   2.596  0.4547 -0.3849  0.3229
 1348SOL    HW3 5165   0.979   0.155   2.519  3.8805 -0.8028  1.0448
 1348SOL    MW4 5166   0.968   0.198   2.593  1.2850 -0.4670  0.5632
 1349SOL     OW 5167   1.554   4.667   1.724 -0.2451 -0.1141 -0.2322
 1349SOL    HW2 5168   1.492   4.595   1.734 -0.9229  0.5461  0.3453
 1349SOL    HW3 5169   1.504   4.746   1.742  0.4443  0.5327 -1.0649
 1349SOL    MW4 5170   1.539   4.668   1.728 -0.2436  0.0584 -0.2659
 1350SOL     OW 5171   6.360   0.780   3.045  0.3923 -0.0874 -0.4352
 1350SOL    HW2 5172   6.386   0.762   3.135  0.1333  1.2396 -0.0653
 1350SOL    HW3 5173   6.325   0.697   3.012 -0.2422 -0.3897  0.9522
 1350SOL    MW4 5174   6.359   0.767   3.052  0.2744  0.0478 -0.2033
 1351SOL     OW 5175   0.753   1.003   2.685  0.4919  0.1033  0.1482
 1351SOL    HW2 5176   0.803   1.078   2.718  1.6973 -0.5878 -0.0349
 1351SOL    HW3 5177   0.670   1.041   2.655 -0.4229  0.8448  3.3175
 1351SOL    MW4 5178   0.749   1.018   2.685  0.5302  0.1099  0.5422
 1352SOL     OW 5179   2.524   4.690   4.972 -0.3924 -0.3345  0.2819
 1352SOL    HW2 5180   2.506   4.691   4.878  0.6408 -1.8216  0.0263
 1352SOL    HW3 5181   2.442   4.662   5.013 -0.9416  0.6274 -0.1295
 1352SOL    MW4 5182   2.511   4.687   4.965 -0.3285 -0.4038  0.1939
 1353SOL     OW 5183   4.343   4.185   2.558  0.1829 -0.1690 -0.3708
 1353SOL    HW2 5184   4.329   4.267   2.605 -0.9085 -0.4855 -0.1138
 1353SOL    HW3 5185   4.389   4.129   2.621 -0.1997 -0.1759 -0.0894
 1353SOL    MW4 5186   4.347   4.189   2.573 -0.0116 -0.2117 -0.2998
 1354SOL     OW 5187   1.800   4.141   2.653  0.2668 -0.0234 -0.8374
 1354SOL    HW2 5188   1.824   4.232   2.633  1.4860 -0.2947 -0.6800
 1354SOL    HW3 5189   1.881   4.101   2.686 -0.5197 -0.8788  0.1365
 1354SOL    MW4 5190   1.814   4.148   2.655  0.3239 -0.1720 -0.6882
 1355SOL     OW 5191   1.599   1.020   0.927 -0.2888 -0.4615  0.6930
 1355SOL    HW2 5192   1.552   1.088   0.975 -0.4711 -2.3120  3.3348
 1355SOL    HW3 5193   1.588   0.941   0.979  1.2108 -2.2244 -1.4346
 1355SOL    MW4 5194   1.591   1.018   0.940 -0.1150 -0.9382  0.7609
 1356SOL     OW 5195   3.767   2.375   3.643  0.2700  0.2029 -0.4501
 1356SOL    HW2 5196   3.797   2.459   3.677 -0.6092  0.3438 -0.0170
 1356SOL    HW3 5197   3.673   2.386   3.628  0.2717 -0.4848 -1.0487
 1356SOL    MW4 5198   3.759   2.388   3.646  0.1542  0.1307 -0.4719
 1357SOL     OW 5199   0.921   1.103   1.789  0.1493  0.2614 -0.3536
 1357SOL    HW2 5200   0.927   1.143   1.876 -2.1101 -0.2514  0.1044
 1357SOL    HW3 5201   0.941   1.010   1.804 -1.7535 -0.1539 -0.0035
 1357SOL    MW4 5202   0.924   1.096   1.803 -0.3998  0.1389 -0.2470
 1358SOL     OW 5203   2.556   6.015   1.880 -0.2793 -0.3977 -0.1405
 1358SOL    HW2 5204   2.517   6.071   1.812  0.6589 -0.0116 -0.3825
 1358SOL    HW3 5205   2.513   5.931   1.869 -1.1687  0.0585 -0.2754
 1358SOL    MW4 5206   2.545   6.011   1.869 -0.2729 -0.2866 -0.1902
 1359SOL     OW 5207   3.261   4.918   5.338  0.1222 -0.1121 -0.4407
 1359SOL    HW2 5208   3.183   4.915   5.283 -0.0203 -1.2518 -0.2021
 1359SOL    HW3 5209   3.313   4.844   5.309  1.3943  0.9400 -0.9656
 1359SOL    MW4 5210   3.258   4.908   5.327  0.2712 -0.1237 -0.4784
 1360SOL     OW 5211   1.175   1.340   2.306 -0.2820  0.6837 -0.1109
 1360SOL    HW2 5212   1.174   1.435   2.295  1.3901  0.6075 -1.3710
 1360SOL    HW3 5213   1.181   1.306   2.217  2.7183 -0.4472  0.4193
 1360SOL    MW4 5214   1.175   1.348   2.293  0.3345  0.5244 -0.2072
 1361SOL     OW 5215   4.382   5.224   1.701 -0.3100  0.4247 -0.4070
 1361SOL    HW2 5216   4.445   5.267   1.759 -0.8757  1.8297 -0.7790
 1361SOL    HW3 5217   4.298   5.233   1.746 -0.4659 -0.1447 -0.5811
 1361SOL    MW4 5218   4.379   5.231   1.715 -0.4052  0.5350 -0.4791
 1362SOL     OW 5219   0.993   0.854   3.157 -0.3767 -0.8763  0.0248
 1362SOL    HW2 5220   0.962   0.906   3.082  0.5546 -1.4378 -0.7838
 1362SOL    HW3 5221   1.029   0.774   3.117  2.5039 -0.0802  0.8136
 1362SOL    MW4 5222   0.994   0.850   3.142  0.1262 -0.8453  0.0222
 1363SOL     OW 5223   6.189   1.193   3.566 -0.5040  0.5954  0.2807
 1363SOL    HW2 5224   6.189   1.113   3.514 -0.0966  0.9016 -0.2082
 1363SOL    HW3 5225   6.274   1.234   3.546 -1.3605  1.9470 -0.7220
 1363SOL    MW4 5226   6.200   1.188   3.556 -0.5633  0.8141  0.0839
 1364SOL     OW 5227   5.013   2.414   2.226  0.3004 -0.6529  0.8825
 1364SOL    HW2 5228   4.969   2.332   2.246 -0.0692 -0.3262  1.4623
 1364SOL    HW3 5229   5.106   2.394   2.233  0.2309 -1.1693  0.3960
 1364SOL    MW4 5230   5.020   2.401   2.230  0.2425 -0.6780  0.8948
 1365SOL     OW 5231   2.003   0.864   4.402  0.8596  0.6853  0.0734
 1365SOL    HW2 5232   2.041   0.952   4.399  0.7845  0.7052 -0.3867
 1365SOL    HW3 5233   2.062   0.814   4.459  1.3036  0.8425 -0.2465
 1365SOL    MW4 5234   2.016   0.869   4.409  0.9083  0.7087 -0.0295
 1366SOL     OW 5235   5.191   3.311   3.336 -0.2544 -0.2188  0.6374
 1366SOL    HW2 5236   5.164   3.271   3.419 -1.9556 -0.2178  0.1387
 1366SOL    HW3 5237   5.156   3.252   3.269 -0.1991  0.5450 -0.0866
 1366SOL    MW4 5238   5.183   3.298   3.338 -0.4716 -0.1179  0.4761
 1367SOL     OW 5239   4.251   4.511   3.346 -0.2333  0.3083 -0.2243
 1367SOL    HW2 5240   4.237   4.440   3.409 -2.4544 -0.4757 -1.4821
 1367SOL    HW3 5241   4.197   4.583   3.379 -0.7779  0.1662 -0.7823
 1367SOL    MW4 5242   4.242   4.511   3.359 -0.5982  0.1861 -0.4639
 1368SOL     OW 5243   4.562   4.173   2.194 -0.3732  0.2884  0.2777
 1368SOL    HW2 5244   4.551   4.101   2.256 -1.9295 -0.0727 -0.3520
 1368SOL    HW3 5245   4.500   4.240   2.225 -3.5039 -1.0536 -2.4156
 1368SOL    MW4 5246   4.552   4.173   2.206 -0.9916  0.0637 -0.1607
 1369SOL     OW 5247   4.968   5.986   5.974 -0.0214 -0.1963  0.4951
 1369SOL    HW2 5248   4.981   5.974   5.880 -1.7359  0.3800  0.1370
 1369SOL    HW3 5249   5.056   5.989   6.011  0.6796 -0.4334 -1.0880
 1369SOL    MW4 5250   4.981   5.985   5.967 -0.1551 -0.1516  0.2390
 1370SOL     OW 5251   4.616   5.064   4.549  0.0097  0.1305 -0.2778
 1370SOL    HW2 5252   4.535   5.027   4.585 -1.2431  1.3365 -1.7560
 1370SOL    HW3 5253   4.641   5.002   4.480  0.8316 -0.6612  0.6932
 1370SOL    MW4 5254   4.609   5.051   4.545 -0.0472  0.1851 -0.3447
 1371SOL     OW 5255   4.204   2.612   3.844  0.0308  0.6293  0.1695
 1371SOL    HW2 5256   4.164   2.667   3.776  1.0512  0.9323 -0.2092
 1371SOL    HW3 5257   4.283   2.660   3.870  1.2593 -0.8950 -0.5606
 1371SOL    MW4 5258   4.209   2.626   3.839  0.3275  0.4682  0.0232
 1372SOL     OW 5259   6.334   5.737   3.779 -0.0063  0.5525 -0.3725
 1372SOL    HW2 5260   6.306   5.649   3.754 -1.6946  0.7798  0.5749
 1372SOL    HW3 5261   6.286   5.755   3.860 -0.8500  2.9039 -1.3125
 1372SOL    MW4 5262   6.324   5.728   3.786 -0.3404  0.8928 -0.3715
 1373SOL     OW 5263   5.340   3.483   1.128  0.7055 -0.0852 -0.1338
 1373SOL    HW2 5264   5.426   3.499   1.168  0.2503 -0.8527  1.2259
 1373SOL    HW3 5265   5.312   3.569   1.098  1.4307  0.3909  0.5056
 1373SOL    MW4 5266   5.348   3.497   1.129  0.7412 -0.1236  0.1300
 1374SOL     OW 5267   0.972   1.881   0.964 -0.0566  0.6715  0.5361
 1374SOL    HW2 5268   1.046   1.896   1.022  0.4083  1.3243 -0.1995
 1374SOL    HW3 5269   0.933   1.967   0.953  0.2609  0.6817 -0.6288
 1374SOL    MW4 5270   0.977   1.894   0.970  0.0466  0.7589  0.2854
 1375SOL     OW 5271   0.420   4.785   0.285  0.2398  0.2390 -0.0063
 1375SOL    HW2 5272   0.359   4.781   0.211 -0.5273  0.1906  0.6300
 1375SOL    HW3 5273   0.478   4.858   0.264 -0.2967  0.5559 -0.4122
 1375SOL    MW4 5274   0.420   4.794   0.272  0.0678  0.2744  0.0241
 1376SOL     OW 5275   3.319   1.152   3.937 -0.2661 -0.1322 -0.2719
 1376SOL    HW2 5276   3.285   1.083   3.880 -0.2142 -0.5011  0.1426
 1376SOL    HW3 5277   3.294   1.124   4.025  0.4308 -0.0109 -0.0370
 1376SOL    MW4 5278   3.311   1.139   3.941 -0.1673 -0.1649 -0.1862
 1377SOL     OW 5279   3.606   0.686   4.309 -0.3696  0.3404 -0.2068
 1377SOL    HW2 5280   3.667   0.661   4.240 -0.8493 -0.8222 -0.2386
 1377SOL    HW3 5281   3.545   0.746   4.267  0.4330  1.1180 -0.2973
 1377SOL    MW4 5282   3.606   0.691   4.295 -0.3270  0.2896 -0.2229
 1378SOL     OW 5283   4.921   5.624   0.120  0.2812  0.2199  0.2909
 1378SOL    HW2 5284   4.947   5.564   0.190  2.4790  0.1386 -0.5224
 1378SOL    HW3 5285   4.890   5.568   0.050  0.3655  0.1644  0.2986
 1378SOL    MW4 5286   4.920   5.609   0.120  0.5823  0.2019  0.1846
 1379SOL     OW 5287   2.298   1.662   5.210  0.3203  0.2894 -0.0135
 1379SOL    HW2 5288   2.266   1.574   5.229 -0.6514  0.9448  1.5898
 1379SOL    HW3 5289   2.370   1.676   5.271 -0.1607  0.9480  0.4181
 1379SOL    MW4 5290   2.303   1.652   5.220  0.1286  0.4627  0.2550
 1380SOL     OW 5291   2.580   2.450   0.655 -0.0708 -0.3634 -0.2005
 1380SOL    HW2 5292   2.637   2.407   0.592 -0.2331  1.4280 -1.6549
 1380SOL    HW3 5293   2.497   2.401   0.649 -0.0679 -0.2629 -1.3667
 1380SOL    MW4 5294   2.576   2.438   0.646 -0.0918 -0.1138 -0.5462
 1381SOL     OW 5295   5.303   0.587   2.289 -0.3534 -0.5336  0.1434
 1381SOL    HW2 5296   5.383   0.589   2.341  0.5178 -0.2212 -1.1773
 1381SOL    HW3 5297   5.331   0.607   2.200 -2.0459  0.6709 -0.1654
 1381SOL    MW4 5298   5.317   0.590   2.284 -0.4617 -0.3335 -0.0716
 1382SOL     OW 5299   6.016   0.346   2.934 -0.0384 -0.6318  0.4732
 1382SOL    HW2 5300   6.088   0.397   2.971 -1.4353  1.7185  0.1595
 1382SOL    HW3 5301   6.058   0.273   2.890  2.0728  0.1252  1.1289
 1382SOL    MW4 5302   6.031   0.343   2.933  0.0559 -0.2219  0.5183
 1383SOL     OW 5303   1.992   4.705   2.990  0.2154 -0.6316 -0.0498
 1383SOL    HW2 5304   2.014   4.677   3.079 -0.8760 -0.4429  0.2860
 1383SOL    HW3 5305   1.956   4.793   3.000 -0.6836 -0.9299 -0.5838
 1383SOL    MW4 5306   1.990   4.713   3.003 -0.0472 -0.6461 -0.0760
 1384SOL     OW 5307   1.819   1.891   4.352 -0.2186 -0.4326 -0.3140
 1384SOL    HW2 5308   1.873   1.854   4.422 -0.8240 -1.7209 -0.5077
 1384SOL    HW3 5309   1.876   1.956   4.311  0.9529 -1.2583 -0.0660
 1384SOL    MW4 5310   1.834   1.895   4.356 -0.1439 -0.7115 -0.3069
 1385SOL     OW 5311   1.648   1.430   2.036 -0.0292  0.5877 -0.4963
 1385SOL    HW2 5312   1.727   1.470   2.072  0.8254 -0.3052 -1.3446
 1385SOL    HW3 5313   1.635   1.351   2.089  0.2751  0.1539 -1.0697
 1385SOL    MW4 5314   1.657   1.425   2.048  0.1237  0.4126 -0.6839
 1386SOL     OW 5315   3.959   0.670   0.739 -0.4803 -0.2896  0.0882
 1386SOL    HW2 5316   3.878   0.718   0.724 -0.6025  0.0015  1.5049
 1386SOL    HW3 5317   3.936   0.604   0.804  0.3312 -0.4421  0.2301
 1386SOL    MW4 5318   3.946   0.668   0.746 -0.3894 -0.2713  0.2938
 1387SOL     OW 5319   3.168   0.292   3.081 -0.0295 -0.3106 -0.0054
 1387SOL    HW2 5320   3.235   0.252   3.136  1.5057  1.4879 -0.4800
 1387SOL    HW3 5321   3.096   0.311   3.142  1.1895  0.6252  1.1884
 1387SOL    MW4 5322   3.167   0.289   3.096  0.3339  0.0502  0.0895
 1388SOL     OW 5323   0.135   5.034   1.877 -0.0096  0.0182  0.2990
 1388SOL    HW2 5324   0.087   5.117   1.874 -3.8820 -1.8949  2.4144
 1388SOL    HW3 5325   0.102   4.984   1.802  1.1631 -0.1988 -0.0925
 1388SOL    MW4 5326   0.124   5.038   1.866 -0.3658 -0.2629  0.5265
 1389SOL     OW 5327   4.973   1.444   2.705  0.0865 -0.0671 -0.2401
 1389SOL    HW2 5328   5.004   1.511   2.766 -0.8820  0.0743  0.1137
 1389SOL    HW3 5329   5.035   1.447   2.632  0.5167  0.6514  0.1474
 1389SOL    MW4 5330   4.986   1.453   2.703  0.0154  0.0464 -0.1423
 1390SOL     OW 5331   6.014   5.759   3.780  0.3619  0.1399  0.3024
 1390SOL    HW2 5332   6.009   5.850   3.808  1.2762  0.1754  0.3814
 1390SOL    HW3 5333   5.965   5.756   3.697 -0.5670  0.4686  0.8182
 1390SOL    MW4 5334   6.007   5.771   3.773  0.3600  0.1879  0.3809
 1391SOL     OW 5335   0.686   2.799   0.507 -0.0313  0.3904  0.6648
 1391SOL    HW2 5336   0.684   2.893   0.488  0.0842  0.0770 -0.9737
 1391SOL    HW3 5337   0.697   2.795   0.602  1.3079  2.0254  0.6218
 1391SOL    MW4 5338   0.687   2.811   0.517  0.1606  0.5647  0.4430
 1392SOL     OW 5339   3.111   3.202   2.332 -0.4778  0.4657 -0.0059
 1392SOL    HW2 5340   3.149   3.144   2.398  1.3447 -0.4287 -1.7386
 1392SOL    HW3 5341   3.142   3.289   2.358  1.4990 -0.0476 -0.4388
 1392SOL    MW4 5342   3.120   3.206   2.344  0.0235  0.2800 -0.2916
 1393SOL     OW 5343   3.313   2.563   2.744 -0.5117 -0.4843 -0.4201
 1393SOL    HW2 5344   3.346   2.495   2.686 -0.9596 -1.8063  0.8307
 1393SOL    HW3 5345   3.257   2.517   2.806 -2.2389  1.2574 -0.5891
 1393SOL    MW4 5346   3.310   2.548   2.744 -0.7987 -0.4289 -0.2773
 1394SOL     OW 5347   0.620   3.102   3.795 -0.3974 -0.2341 -0.0609
 1394SOL    HW2 5348   0.630   3.129   3.704  2.0137 -0.0186  0.1877
 1394SOL    HW3 5349   0.571   3.173   3.836  0.7683  0.9809 -0.6679
 1394SOL    MW4 5350   0.615   3.115   3.788  0.0745 -0.0454 -0.1082
 1395SOL     OW 5351   5.025   1.619   5.448 -0.0022 -0.3123 -0.7736
 1395SOL    HW2 5352   4.958   1.636   5.381  0.7119  0.3353 -1.3358
 1395SOL    HW3 5353   4.977   1.574   5.518 -1.5117  1.9520 -0.2342
 1395SOL    MW4 5354   5.010   1.615   5.449 -0.1071  0.0719 -0.7766
 1396SOL     OW 5355   0.733   2.234   5.334 -0.5442 -0.4894 -0.5660
 1396SOL    HW2 5356   0.827   2.234   5.316 -0.4990  1.2393 -0.4594
 1396SOL    HW3 5357   0.707   2.142   5.325  0.7606 -0.7186 -2.6270
 1396SOL    MW4 5358   0.742   2.222   5.331 -0.3660 -0.2916 -0.8239
 1397SOL     OW 5359   1.818   5.372   5.950 -0.5154 -0.5804  0.5150
 1397SOL    HW2 5360   1.753   5.441   5.961  0.6825  0.9281 -1.1940
 1397SOL    HW3 5361   1.777   5.309   5.891 -0.4657  0.3981 -0.6062
 1397SOL    MW4 5362   1.804   5.373   5.943 -0.3508 -0.2523  0.1416
 1398SOL     OW 5363   1.365   1.587   1.042 -0.2731 -0.1566  0.3570
 1398SOL    HW2 5364   1.333   1.509   1.087 -0.7526 -0.1445  0.0440
 1398SOL    HW3 5365   1.311   1.593   0.963 -1.1546  1.2585  1.0482
 1398SOL    MW4 5366   1.354   1.577   1.037 -0.4526  0.0317  0.4069
 1399SOL     OW 5367   0.351   6.179   6.322 -0.1565 -0.4143  0.2468
 1399SOL    HW2 5368   0.427   6.136   6.282 -0.0867 -0.1827  0.1277
 1399SOL    HW3 5369   0.302   6.108   6.363  0.3313 -0.5173  0.6593
 1399SOL    MW4 5370   0.355   6.164   6.322 -0.0829 -0.3973  0.2855
 1400SOL     OW 5371   0.917   5.281   2.009 -0.7049 -0.1023 -0.4259
 1400SOL    HW2 5372   0.833   5.277   2.054  0.2262 -2.5208  1.3774
 1400SOL    HW3 5373   0.897   5.259   1.918 -1.9535 -2.1346  0.2565
 1400SOL    MW4 5374   0.904   5.277   2.003 -0.7468 -0.6895 -0.0980
 1401SOL     OW 5375   6.188   1.556   0.159 -0.3183  0.0065 -0.4210
 1401SOL    HW2 5376   6.172   1.478   0.105 -1.9819 -0.0377  0.0682
 1401SOL    HW3 5377   6.186   1.629   0.098  0.4346 -0.2587 -0.7708
 1401SOL    MW4 5378   6.186   1.555   0.144 -0.4384 -0.0343 -0.4026
 1402SOL     OW 5379   3.723   2.998   5.234 -0.0735  0.1064  0.1035
 1402SOL    HW2 5380   3.680   3.081   5.255 -0.8328 -0.1982 -0.1951
 1402SOL    HW3 5381   3.688   2.974   5.148 -0.0980 -0.6693  0.3192
 1402SOL    MW4 5382   3.712   3.006   5.226 -0.1769 -0.0361  0.0926
 1403SOL     OW 5383   2.365   1.362   3.460  0.3392  0.0786 -0.3122
 1403SOL    HW2 5384   2.318   1.283   3.487 -2.3951  1.2547 -1.2684
 1403SOL    HW3 5385   2.400   1.397   3.542 -1.6223 -0.1946  0.7006
 1403SOL    MW4 5386   2.363   1.356   3.475 -0.2804  0.1977 -0.3047
 1404SOL     OW 5387   6.400   5.630   5.150 -0.1805 -0.0376  0.3752
 1404SOL    HW2 5388   6.384   5.561   5.214  0.8349  0.3747  1.0917
 1404SOL    HW3 5389   6.461   5.689   5.193  0.1594  0.4933 -0.8063
 1404SOL    MW4 5390   6.406   5.629   5.164 -0.0017  0.0868  0.3139
 1405SOL     OW 5391   2.123   0.067   2.944  0.1504  0.2457 -0.3263
 1405SOL    HW2 5392   2.040   0.101   2.979 -1.4951 -3.1929 -0.4904
 1405SOL    HW3 5393   2.172   0.038   3.021 -0.1013 -0.3589 -0.3887
 1405SOL    MW4 5394   2.119   0.068   2.959 -0.0999 -0.2877 -0.3562
 1406SOL     OW 5395   4.132   3.022   2.580  0.3172 -0.0589 -0.2197
 1406SOL    HW2 5396   4.135   3.111   2.546 -0.0415  0.2918  0.6520
 1406SOL    HW3 5397   4.071   3.026   2.653 -0.5619 -1.2596 -0.8508
 1406SOL    MW4 5398   4.125   3.034   2.585  0.1539 -0.1711 -0.1879
 1407SOL     OW 5399   3.588   5.023   0.429  0.1216  0.6014 -0.3182
 1407SOL    HW2 5400   3.536   5.023   0.510 -1.1258 -1.1994 -1.0392
 1407SOL    HW3 5401   3.524   5.012   0.359  1.3432 -0.0538 -1.3846
 1407SOL    MW4 5402   3.573   5.021   0.431  0.1182  0.2773 -0.5540
 1408SOL     OW 5403   1.128   5.015   0.692 -0.8102 -0.2406  0.3465
 1408SOL    HW2 5404   1.089   5.095   0.658 -1.6691 -0.2881  1.2157
 1408SOL    HW3 5405   1.058   4.950   0.687  0.5306 -1.6489 -2.6746
 1408SOL    MW4 5406   1.114   5.017   0.687 -0.7467 -0.4327  0.0626
 1409SOL     OW 5407   2.433   3.918   0.916 -0.5694 -0.0822 -0.5028
 1409SOL    HW2 5408   2.491   3.870   0.857  1.5409  1.1444  0.4469
 1409SOL    HW3 5409   2.396   3.851   0.974  3.1094 -0.6633  1.4842
 1409SOL    MW4 5410   2.436   3.903   0.916  0.1944  0.0029 -0.1153
 1410SOL     OW 5411   0.518   1.791   2.893 -0.0528  0.1379 -0.1663
 1410SOL    HW2 5412   0.574   1.715   2.905  0.8002  1.0079  1.9403
 1410SOL    HW3 5413   0.576   1.866   2.908 -1.5403  1.0936  1.1955
 1410SOL    MW4 5414   0.533   1.791   2.897 -0.1365  0.3787  0.2913
 1411SOL     OW 5415   0.683   5.496   4.989 -0.0296 -0.1312 -0.1814
 1411SOL    HW2 5416   0.752   5.453   5.040  0.2936  0.5451 -0.0359
 1411SOL    HW3 5417   0.713   5.587   4.981  0.3499 -0.4094 -2.3295
 1411SOL    MW4 5418   0.696   5.503   4.995  0.0631 -0.0787 -0.4456
 1412SOL     OW 5419   2.060   2.991   4.781 -0.3928 -0.0941  0.9391
 1412SOL    HW2 5420   2.021   3.079   4.775  0.3086  0.1808  0.2388
 1412SOL    HW3 5421   2.027   2.946   4.703 -0.4611 -0.3282  1.1061
 1412SOL    MW4 5422   2.050   2.997   4.770 -0.3093 -0.0887  0.8687
 1413SOL     OW 5423   1.174   4.131   0.634  0.0715  0.0502 -0.4620
 1413SOL    HW2 5424   1.193   4.163   0.546  0.5703 -1.6987 -1.0242
 1413SOL    HW3 5425   1.175   4.210   0.689 -2.0642  1.4468 -2.2603
 1413SOL    MW4 5426   1.176   4.146   0.630 -0.1445  0.0037 -0.7735
 1414SOL     OW 5427   2.193   3.177   3.190 -0.1094  0.1441  0.1578
 1414SOL    HW2 5428   2.183   3.203   3.098 -1.7158  0.0378  0.2900
 1414SOL    HW3 5429   2.208   3.083   3.187 -0.5921  0.0717  0.0299
 1414SOL    MW4 5430   2.194   3.168   3.177 -0.3851  0.1205  0.1583
 1415SOL     OW 5431   0.238   1.148   3.064 -0.2209 -0.0858 -0.1757
 1415SOL    HW2 5432   0.239   1.055   3.043 -2.7533 -0.6176  1.5658
 1415SOL    HW3 5433   0.199   1.190   2.988 -2.3222 -0.9877  0.3212
 1415SOL    MW4 5434   0.233   1.141   3.051 -0.8322 -0.2749  0.1196
 1416SOL     OW 5435   3.787   2.205   1.508 -0.6017  0.0962  0.1700
 1416SOL    HW2 5436   3.776   2.228   1.416 -1.5135 -0.8694  0.0193
 1416SOL    HW3 5437   3.704   2.164   1.533 -0.6227  0.9249  1.6119
 1416SOL    MW4 5438   3.775   2.203   1.499 -0.7247  0.0782  0.3404
 1417SOL     OW 5439   5.670   2.692   2.865  0.2066  0.3013  0.0090
 1417SOL    HW2 5440   5.750   2.727   2.906 -0.4570  0.6203  1.0938
 1417SOL    HW3 5441   5.612   2.768   2.857 -0.2617 -0.0604 -0.0815
 1417SOL    MW4 5442   5.673   2.707   2.870  0.0572  0.2957  0.1402
 1418SOL     OW 5443   3.663   0.142   2.281 -0.0063 -0.0075  0.2159
 1418SOL    HW2 5444   3.706   0.070   2.235  0.0831 -1.0510  1.8820
 1418SOL    HW3 5445   3.576   0.107   2.303 -1.5119  1.7422 -2.2904
 1418SOL    MW4 5446   3.657   0.128   2.278 -0.1932  0.0857  0.1050
 1419SOL     OW 5447   5.980   5.248   5.490  0.1869  0.3629  0.4777
 1419SOL    HW2 5448   6.048   5.204   5.539  0.9395  1.6498  0.6236
 1419SOL    HW3 5449   5.901   5.238   5.543  0.8336  1.1170  1.6197
 1419SOL    MW4 5450   5.978   5.241   5.503  0.3715  0.6322  0.6476
 1420SOL     OW 5451   5.744   5.594   2.174  0.4184 -0.3804 -0.1622
 1420SOL    HW2 5452   5.713   5.649   2.246  2.5576 -0.0548  0.6048
 1420SOL    HW3 5453   5.665   5.571   2.125 -0.8303  1.3235  0.9311
 1420SOL    MW4 5454   5.730   5.598   2.177  0.5359 -0.1126  0.0832
 1421SOL     OW 5455   4.399   1.535   6.338  0.2838  0.0108  0.4513
 1421SOL    HW2 5456   4.481   1.568   6.375 -0.3145  1.2820  0.6769
 1421SOL    HW3 5457   4.427   1.474   6.270  1.4146  0.1361  0.7774
 1421SOL    MW4 5458   4.413   1.531   6.334  0.3541  0.1951  0.5241
 1422SOL     OW 5459   1.540   2.258   1.237  0.3642 -0.5546 -0.7503
 1422SOL    HW2 5460   1.504   2.190   1.180  1.6737 -0.8432 -1.2693
 1422SOL    HW3 5461   1.620   2.219   1.274  1.2599  0.7628 -1.2282
 1422SOL    MW4 5462   1.546   2.244   1.234  0.6551 -0.4188 -0.8819
 1423SOL     OW 5463   1.348   3.300   2.890 -0.3220  0.0642 -0.7117
 1423SOL    HW2 5464   1.407   3.368   2.858  0.7757 -0.5972 -0.1230
 1423SOL    HW3 5465   1.281   3.349   2.940  1.1632  0.6613  0.8029
 1423SOL    MW4 5466   1.347   3.316   2.893  0.0188  0.0558 -0.4342
 1424SOL     OW 5467   2.309   2.978   3.860  0.0010  0.2700 -0.0699
 1424SOL    HW2 5468   2.380   2.976   3.796 -1.1836  1.0283 -1.4469
 1424SOL    HW3 5469   2.328   2.904   3.919  2.1583  0.7287 -0.1104
 1424SOL    MW4 5470   2.321   2.968   3.860  0.1293  0.4305 -0.2569
 1425SOL     OW 5471   3.537   2.320   0.480  0.3781 -0.1824 -0.0629
 1425SOL    HW2 5472   3.497   2.276   0.555 -0.1927 -1.8403 -1.2621
 1425SOL    HW3 5473   3.490   2.285   0.404  0.4459  1.9669 -1.1715
 1425SOL    MW4 5474   3.526   2.309   0.480  0.3117 -0.1176 -0.3674
 1426SOL     OW 5475   0.833   5.229   3.532 -0.0063  0.4411  0.1934
 1426SOL    HW2 5476   0.737   5.226   3.542 -0.1801  1.3520 -1.0395
 1426SOL    HW3 5477   0.866   5.215   3.621 -1.2977  0.6642  0.7374
 1426SOL    MW4 5478   0.824   5.227   3.545 -0.1996  0.5907  0.1025
 1427SOL     OW 5479   4.828   0.521   4.875  0.4878  0.0645  0.2282
 1427SOL    HW2 5480   4.795   0.448   4.822  0.2682  1.3304 -1.4357
 1427SOL    HW3 5481   4.766   0.528   4.947 -0.0778 -0.7223 -0.1670
 1427SOL    MW4 5482   4.816   0.512   4.878  0.3842  0.1277 -0.0434
 1428SOL     OW 5483   0.900   2.533   3.075 -0.1858 -0.3711  0.8024
 1428SOL    HW2 5484   0.901   2.623   3.109  2.0676 -0.3456  0.7748
 1428SOL    HW3 5485   0.988   2.500   3.090 -0.8738 -2.4997  0.5111
 1428SOL    MW4 5486   0.911   2.541   3.081  0.0207 -0.6486  0.7603
 1429SOL     OW 5487   1.494   1.798   5.806  0.1450  0.3445 -0.5860
 1429SOL    HW2 5488   1.425   1.797   5.873  0.5196 -0.4057 -0.1982
 1429SOL    HW3 5489   1.524   1.707   5.801  0.5797  0.5184 -1.3046
 1429SOL    MW4 5490   1.489   1.786   5.814  0.2518  0.2684 -0.6297
 1430SOL     OW 5491   0.106   3.644   4.129 -0.3260 -0.2985  0.2551
 1430SOL    HW2 5492   0.107   3.549   4.121  0.9106 -0.3833  1.1047
 1430SOL    HW3 5493   0.134   3.661   4.219 -0.8805  0.8591  0.2255
 1430SOL    MW4 5494   0.110   3.634   4.140 -0.2360 -0.1570  0.3633
 1431SOL     OW 5495   2.912   2.685   1.006 -0.1987 -0.5198  0.0788
 1431SOL    HW2 5496   2.961   2.665   0.926 -0.0205 -0.1277  0.0902
 1431SOL    HW3 5497   2.825   2.646   0.991 -0.7456  1.0475 -1.0314
 1431SOL    MW4 5498   2.907   2.677   0.993 -0.2473 -0.2612 -0.0662
 1432SOL     OW 5499   1.020   3.085   2.782 -0.5800 -0.3488  0.3281
 1432SOL    HW2 5500   0.956   3.154   2.763  0.0257  0.6687  1.8006
 1432SOL    HW3 5501   1.088   3.096   2.716 -0.9643 -0.1650 -0.0403
 1432SOL    MW4 5502   1.020   3.096   2.771 -0.5508 -0.1903  0.4738
 1433SOL     OW 5503   4.334   3.806   6.358  0.2325 -0.1313  0.1596
 1433SOL    HW2 5504   4.409   3.778   6.409 -0.3884 -0.1276  1.1121
 1433SOL    HW3 5505   4.269   3.834   6.424 -1.4173 -2.1265 -0.5149
 1433SOL    MW4 5506   4.335   3.806   6.373 -0.0671 -0.3941  0.1963
 1434SOL     OW 5507   2.947   0.404   5.736 -0.1121  0.2174 -0.2064
 1434SOL    HW2 5508   3.012   0.432   5.801 -0.0200 -0.7153  0.1104
 1434SOL    HW3 5509   2.933   0.482   5.682  2.9409 -0.1321 -1.7212
 1434SOL    MW4 5510   2.954   0.418   5.737  0.3029  0.0483 -0.3645
 1435SOL     OW 5511   2.226   2.961   1.115  0.3860  0.0015 -0.0513
 1435SOL    HW2 5512   2.305   3.010   1.138 -0.0820 -0.1336  2.1142
 1435SOL    HW3 5513   2.249   2.870   1.134 -0.1024 -0.1021  0.0463
 1435SOL    MW4 5514   2.240   2.955   1.121  0.2598 -0.0300  0.2473
 1436SOL     OW 5515   4.022   4.797   1.830 -0.6579 -0.2361  0.2510
 1436SOL    HW2 5516   4.009   4.861   1.760  0.7393 -0.6479 -0.4292
 1436SOL    HW3 5517   3.965   4.723   1.806 -0.4377 -0.2378 -0.2796
 1436SOL    MW4 5518   4.013   4.795   1.818 -0.4445 -0.2906  0.0913
 1437SOL     OW 5519   2.210   3.122   6.270 -0.3440 -0.0184  0.6258
 1437SOL    HW2 5520   2.185   3.030   6.273  0.4926 -0.3882 -1.6045
 1437SOL    HW3 5521   2.133   3.169   6.300 -2.2804 -1.2977 -1.9496
 1437SOL    MW4 5522   2.197   3.116   6.274 -0.4891 -0.2360 -0.0083
 1438SOL     OW 5523   4.969   1.077   6.333 -0.1098  0.2076 -0.2847
 1438SOL    HW2 5524   4.930   0.990   6.343 -1.2373  0.6673 -0.4870
 1438SOL    HW3 5525   4.917   1.133   6.391 -0.0590  0.9428 -0.9375
 1438SOL    MW4 5526   4.957   1.073   6.342 -0.2519  0.3652 -0.3975
 1439SOL     OW 5527   6.328   4.290   6.384 -0.7910 -0.2114  0.3384
 1439SOL    HW2 5528   6.280   4.278   6.302  1.0774 -1.4882 -0.6430
 1439SOL    HW3 5529   6.409   4.333   6.359  0.0619 -1.1366  1.4127
 1439SOL    MW4 5530   6.332   4.294   6.370 -0.4320 -0.5019  0.3507
 1440SOL     OW 5531   1.521   5.227   0.012 -0.1557  0.0070  0.2602
 1440SOL    HW2 5532   1.593   5.282   0.042  0.3767 -0.0933 -0.8050
 1440SOL    HW3 5533   1.446   5.256   0.064  0.1498  1.6186 -0.1579
 1440SOL    MW4 5534   1.521   5.238   0.023 -0.0452  0.2064  0.0645
 1441SOL     OW 5535   4.116   1.517   4.202 -0.2672 -0.3830  0.0738
 1441SOL    HW2 5536   4.151   1.554   4.283  1.6079 -2.3056  0.2259
 1441SOL    HW3 5537   4.191   1.514   4.142 -0.7784 -2.0950 -0.5424
 1441SOL    MW4 5538   4.131   1.521   4.205 -0.0872 -0.8625  0.0125
 1442SOL     OW 5539   2.837   4.570   3.801 -0.3143  0.3256 -0.6883
 1442SOL    HW2 5540   2.854   4.574   3.707  0.3063 -0.2748 -0.6127
 1442SOL    HW3 5541   2.854   4.659   3.832  1.3694  0.1051 -0.8585
 1442SOL    MW4 5542   2.842   4.583   3.792 -0.0103  0.2173 -0.7008
 1443SOL     OW 5543   6.200   2.189   1.036  0.1825 -0.0813 -0.0796
 1443SOL    HW2 5544   6.106   2.198   1.021  0.1779  1.2232  0.6310
 1443SOL    HW3 5545   6.206   2.156   1.126  0.4132  0.0087 -0.0629
 1443SOL    MW4 5546   6.188   2.186   1.046  0.2123  0.1027  0.0164
 1444SOL     OW 5547   4.633   0.637   0.952 -0.2063  0.0621  0.0328
 1444SOL    HW2 5548   4.645   0.718   1.003  1.5301 -0.4515  0.4995
 1444SOL    HW3 5549   4.717   0.624   0.907  0.2674 -2.4392  1.4357
 1444SOL    MW4 5550   4.646   0.646   0.953  0.0853 -0.3357  0.2795
 1445SOL     OW 5551   2.000   3.322   4.486 -0.2299 -0.3524  0.4552
 1445SOL    HW2 5552   1.945   3.246   4.468  0.7705 -1.0387  0.1951
 1445SOL    HW3 5553   1.939   3.392   4.508 -1.3009 -0.6041 -1.5334
 1445SOL    MW4 5554   1.985   3.321   4.487 -0.2393 -0.4762  0.1585
 1446SOL     OW 5555   1.773   0.642   3.956 -0.4814 -0.2465 -0.2424
 1446SOL    HW2 5556   1.701   0.597   3.912  0.8097 -1.5501 -1.0961
 1446SOL    HW3 5557   1.740   0.730   3.973 -3.5155 -1.6850  2.4366
 1446SOL    MW4 5558   1.759   0.648   3.953 -0.7114 -0.6083 -0.0016
 1447SOL     OW 5559   5.255   3.278   2.302 -0.0819 -0.2852 -0.6020
 1447SOL    HW2 5560   5.349   3.292   2.289  0.0112 -1.5189 -1.4744
 1447SOL    HW3 5561   5.249   3.188   2.334 -1.0136 -0.5102 -1.3741
 1447SOL    MW4 5562   5.267   3.268   2.304 -0.1926 -0.4776 -0.8190
 1448SOL     OW 5563   6.145   0.836   4.019  0.7227 -0.4981 -0.8789
 1448SOL    HW2 5564   6.090   0.835   4.097  0.1947  3.0938 -1.0456
 1448SOL    HW3 5565   6.102   0.775   3.959 -1.5553  0.1589 -0.0292
 1448SOL    MW4 5566   6.132   0.828   4.021  0.3525  0.0625 -0.7888
 1449SOL     OW 5567   4.498   3.285   2.238 -0.2940 -0.6225 -1.2244
 1449SOL    HW2 5568   4.474   3.292   2.330 -0.1998 -2.7078 -0.9939
 1449SOL    HW3 5569   4.464   3.365   2.198 -2.4817 -0.7834  0.1595
 1449SOL    MW4 5570   4.490   3.296   2.244 -0.5702 -0.9188 -1.0114
 1450SOL     OW 5571   1.897   4.387   2.597 -0.8452  0.0397  0.3241
 1450SOL    HW2 5572   1.908   4.419   2.508 -1.1549 -2.7839 -0.8553
 1450SOL    HW3 5573   1.986   4.372   2.629 -0.7496  0.4539  0.2530
 1450SOL    MW4 5574   1.910   4.389   2.590 -0.8735 -0.2782  0.1591
 1451SOL     OW 5575   1.660   4.315   0.697 -0.5484 -0.2654  0.2816
 1451SOL    HW2 5576   1.633   4.347   0.783 -0.1793  1.9678 -0.3865
 1451SOL    HW3 5577   1.730   4.253   0.717  0.1615  0.8917  1.5732
 1451SOL    MW4 5578   1.666   4.311   0.711 -0.4061  0.1819  0.3638
 1452SOL     OW 5579   2.884   0.108   2.650  0.2198 -0.0711 -0.0230
 1452SOL    HW2 5580   2.831   0.118   2.730  0.3693 -3.0036  0.5920
 1452SOL    HW3 5581   2.820   0.083   2.583  0.1579  1.9554 -0.7842
 1452SOL    MW4 5582   2.868   0.106   2.652  0.2313 -0.1906 -0.0423
 1453SOL     OW 5583   3.446   4.025   3.591 -0.5170  0.4539 -0.3880
 1453SOL    HW2 5584   3.540   4.029   3.606 -0.1761 -0.2829 -2.0201
 1453SOL    HW3 5585   3.414   3.958   3.652  0.2093 -0.0417 -0.5399
 1453SOL    MW4 5586   3.454   4.017   3.601 -0.3762  0.2913 -0.6234
 1454SOL     OW 5587   0.250   5.544   4.519  0.7434 -0.6217  0.5162
 1454SOL    HW2 5588   0.175   5.537   4.579  0.6894 -0.6707  0.4432
 1454SOL    HW3 5589   0.317   5.590   4.569  0.1278  0.8006  0.0713
 1454SOL    MW4 5590   0.249   5.549   4.533  0.6551 -0.4405  0.4478
 1455SOL     OW 5591   4.673   0.829   4.792  0.0674  0.3284  0.0988
 1455SOL    HW2 5592   4.619   0.750   4.779  0.5149 -0.3699  2.1159
 1455SOL    HW3 5593   4.622   0.882   4.853  1.0127  0.2981  0.9297
 1455SOL    MW4 5594   4.659   0.825   4.798  0.2512  0.2323  0.4746
 1456SOL     OW 5595   6.362   1.038   2.987  0.2040 -0.2822  0.2763
 1456SOL    HW2 5596   6.349   0.950   3.023 -0.3449 -0.2589  0.1460
 1456SOL    HW3 5597   6.335   1.096   3.057 -2.8571 -0.2340 -0.7951
 1456SOL    MW4 5598   6.357   1.034   3.001 -0.2723 -0.2727  0.1178
 1457SOL     OW 5599   4.777   2.022   2.967  0.1099  0.5401  0.0741
 1457SOL    HW2 5600   4.853   2.058   3.012 -0.0749 -0.2400  1.0584
 1457SOL    HW3 5601   4.778   2.063   2.880  0.1515  2.5495  0.9668
 1457SOL    MW4 5602   4.787   2.032   2.961  0.0910  0.7023  0.3218
 1458SOL     OW 5603   5.008   1.492   1.370  0.6679 -0.5248  0.0322
 1458SOL    HW2 5604   4.918   1.468   1.349  0.3691 -0.9104  1.6291
 1458SOL    HW3 5605   5.059   1.415   1.348  0.2026 -1.3572  1.7057
 1458SOL    MW4 5606   5.003   1.479   1.364  0.5671 -0.6855  0.4637
 1459SOL     OW 5607   4.981   5.115   0.607  0.0329  0.3829 -0.5187
 1459SOL    HW2 5608   5.006   5.097   0.516  1.2290  0.0465 -0.1477
 1459SOL    HW3 5609   4.997   5.032   0.653 -1.0646  0.3930 -0.0922
 1459SOL    MW4 5610   4.987   5.101   0.601  0.0459  0.3399 -0.4135
 1460SOL     OW 5611   3.123   6.105   0.938  0.0016 -0.3447  0.1992
 1460SOL    HW2 5612   3.073   6.149   0.870  0.3327 -1.0048 -0.4814
 1460SOL    HW3 5613   3.137   6.017   0.904 -1.1563 -1.1908  1.7678
 1460SOL    MW4 5614   3.118   6.099   0.925 -0.1075 -0.5434  0.3163
 1461SOL     OW 5615   3.253   2.327   3.753 -0.2692 -0.0091 -0.3751
 1461SOL    HW2 5616   3.182   2.276   3.715 -1.2544  0.6290  0.5360
 1461SOL    HW3 5617   3.255   2.299   3.845  1.3810 -0.7875 -0.6081
 1461SOL    MW4 5618   3.244   2.316   3.760 -0.1815 -0.0276 -0.2856
 1462SOL     OW 5619   6.028   0.327   1.954  0.2692  0.1146  0.2194
 1462SOL    HW2 5620   6.006   0.321   1.861 -1.6186 -0.7911  0.6694
 1462SOL    HW3 5621   6.049   0.237   1.980 -0.1174  0.2004  0.8606
 1462SOL    MW4 5622   6.028   0.314   1.945 -0.0308  0.0064  0.3634
 1463SOL     OW 5623   4.262   6.143   4.333  0.5409  0.1286 -0.4182
 1463SOL    HW2 5624   4.341   6.138   4.279 -0.1063 -0.4161 -1.3386
 1463SOL    HW3 5625   4.194   6.103   4.280 -0.2281  0.0107  0.6204
 1463SOL    MW4 5626   4.264   6.137   4.319  0.3541  0.0412 -0.4026
 1464SOL     OW 5627   1.937   4.963   3.253 -0.3741  0.1374  0.1273
 1464SOL    HW2 5628   1.972   5.037   3.204 -0.9555  0.3606  0.0418
 1464SOL    HW3 5629   1.860   4.998   3.298 -1.8974 -0.8793 -1.5483
 1464SOL    MW4 5630   1.932   4.978   3.252 -0.6518  0.0327 -0.1051
 1465SOL     OW 5631   0.339   3.726   4.646 -0.1449 -0.3793  0.0912
 1465SOL    HW2 5632   0.281   3.789   4.602  0.2630  0.1434  0.2855
 1465SOL    HW3 5633   0.340   3.650   4.589  0.7769  0.4719 -1.0714
 1465SOL    MW4 5634   0.331   3.724   4.633  0.0305 -0.1980 -0.0366
 1466SOL     OW 5635   4.962   5.676   1.539  0.6701  0.0469 -0.3491
 1466SOL    HW2 5636   5.053   5.685   1.513  0.7849 -0.8139 -0.2636
 1466SOL    HW3 5637   4.959   5.597   1.592 -0.4005 -0.9050 -1.7305
 1466SOL    MW4 5638   4.973   5.667   1.542  0.5440 -0.1923 -0.5201
 1467SOL     OW 5639   5.917   0.103   2.308  0.5076 -0.1995 -0.0939
 1467SOL    HW2 5640   5.897   0.010   2.317 -1.2771  0.0916 -0.7460
 1467SOL    HW3 5641   5.888   0.142   2.390 -0.7203  0.0675 -0.6334
 1467SOL    MW4 5642   5.911   0.096   2.320  0.1101 -0.1258 -0.2511
 1468SOL     OW 5643   3.677   3.358   0.664  0.1647 -0.3708 -0.1817
 1468SOL    HW2 5644   3.710   3.417   0.731 -1.2978 -0.1291  0.3565
 1468SOL    HW3 5645   3.634   3.288   0.713  1.0981 -1.4295 -0.8328
 1468SOL    MW4 5646   3.675   3.356   0.679  0.0949 -0.4786 -0.1966
 1469SOL     OW 5647   5.941   3.244   0.404  0.2224 -0.3251  0.2804
 1469SOL    HW2 5648   5.850   3.215   0.397 -1.0279  3.0929  0.3663
 1469SOL    HW3 5649   5.950   3.271   0.496  0.4096  1.7884 -0.3057
 1469SOL    MW4 5650   5.930   3.244   0.415  0.0821  0.4047  0.2144
 1470SOL     OW 5651   4.379   0.379   1.411 -0.1353  0.4901 -0.3556
 1470SOL    HW2 5652   4.306   0.329   1.446 -0.0520  0.7199  0.1500
 1470SOL    HW3 5653   4.453   0.318   1.412 -0.5176 -0.0480 -1.7548
 1470SOL    MW4 5654   4.379   0.365   1.416 -0.1747  0.4494 -0.4735
 1471SOL     OW 5655   2.439   1.579   1.461 -0.1733  0.3597  0.0125
 1471SOL    HW2 5656   2.434   1.484   1.472 -0.5035  0.0882 -2.1078
 1471SOL    HW3 5657   2.527   1.595   1.427  0.0087  0.8708  0.6984
 1471SOL    MW4 5658   2.450   1.569   1.458 -0.1929  0.3913 -0.1768
 1472SOL     OW 5659   6.060   1.524   4.459  0.7278 -0.1632 -0.1504
 1472SOL    HW2 5660   5.978   1.520   4.410  0.6343  1.7821 -0.2189
 1472SOL    HW3 5661   6.109   1.448   4.429  0.6506  0.8805 -3.2797
 1472SOL    MW4 5662   6.056   1.513   4.449  0.7053  0.2312 -0.5724
 1473SOL     OW 5663   5.853   0.608   0.645  0.2721  0.0081 -0.4374
 1473SOL    HW2 5664   5.780   0.650   0.599  1.4648  1.5108 -1.0302
 1473SOL    HW3 5665   5.882   0.672   0.709  1.1900 -0.4855 -0.3399
 1473SOL    MW4 5666   5.847   0.622   0.647  0.5506  0.1412 -0.5027
 1474SOL     OW 5667   6.063   2.693   5.386 -0.8406  0.2509  0.1904
 1474SOL    HW2 5668   6.147   2.649   5.401 -0.2162  2.0106  2.4568
 1474SOL    HW3 5669   6.054   2.695   5.291  2.8937  2.0429 -0.3287
 1474SOL    MW4 5670   6.073   2.688   5.375 -0.2655  0.7195  0.4210
 1475SOL     OW 5671   1.323   1.356   0.547 -0.3775 -0.6593  0.0159
 1475SOL    HW2 5672   1.285   1.296   0.482 -1.5387 -1.8550  1.7108
 1475SOL    HW3 5673   1.290   1.324   0.631 -0.6461  2.0919  1.0536
 1475SOL    MW4 5674   1.313   1.344   0.549 -0.5662 -0.4541  0.3764
 1476SOL     OW 5675   0.009   1.693   2.062  0.2943  0.3161 -0.4525
 1476SOL    HW2 5676   0.049   1.752   1.997 -1.1640  1.9379  0.0584
 1476SOL    HW3 5677   0.021   1.738   2.146  1.5941 -1.4590  0.3705
 1476SOL    MW4 5678   0.016   1.707   2.064  0.2734  0.2959 -0.2765
 1477SOL     OW 5679   3.094   0.116   5.877  0.2394 -0.2963  0.5053
 1477SOL    HW2 5680   3.048   0.186   5.923 -1.3735 -1.3655  0.5892
 1477SOL    HW3 5681   3.113   0.152   5.791  1.8159  1.1421  1.3850
 1477SOL    MW4 5682   3.091   0.130   5.872  0.2346 -0.2476  0.6324
 1478SOL     OW 5683   0.799   3.655   2.823  0.4482  0.2359  0.1653
 1478SOL    HW2 5684   0.713   3.660   2.782  0.0983 -0.1517  0.8190
 1478SOL    HW3 5685   0.837   3.742   2.811  0.4714  0.0499 -1.1822
 1478SOL    MW4 5686   0.792   3.668   2.816  0.4051  0.1602  0.0737
 1479SOL     OW 5687   2.218   1.656   4.933  0.3147  0.1948 -0.2042
 1479SOL    HW2 5688   2.252   1.675   5.021  0.3673  1.0442 -0.4073
 1479SOL    HW3 5689   2.132   1.699   4.931  0.5724  0.6732 -0.7812
 1479SOL    MW4 5690   2.211   1.664   4.945  0.3556  0.3700 -0.3072
 1480SOL     OW 5691   3.756   4.478   0.468 -0.3491  0.1836  0.2939
 1480SOL    HW2 5692   3.838   4.481   0.418 -0.8166 -1.6472 -0.6682
 1480SOL    HW3 5693   3.726   4.569   0.471  0.3133  0.5228 -1.7143
 1480SOL    MW4 5694   3.763   4.490   0.462 -0.3234 -0.0132 -0.0980
 1481SOL     OW 5695   1.457   1.379   1.269  0.6000 -0.7101  0.1989
 1481SOL    HW2 5696   1.440   1.309   1.205  0.2676 -0.1794 -0.2983
 1481SOL    HW3 5697   1.491   1.333   1.346  2.4598 -1.2577 -0.8660
 1481SOL    MW4 5698   1.460   1.364   1.270  0.8015 -0.7123 -0.0072
 1482SOL     OW 5699   0.110   2.176   1.158  0.2908  0.2126 -0.2361
 1482SOL    HW2 5700   0.105   2.158   1.064 -2.9192  0.6714 -0.2808
 1482SOL    HW3 5701   0.102   2.271   1.164 -2.0853  0.0393  0.4786
 1482SOL    MW4 5702   0.108   2.186   1.147 -0.4462  0.2503 -0.1477
 1483SOL     OW 5703   1.727   6.371   2.862 -0.6827 -0.0952  0.3762
 1483SOL    HW2 5704   1.648   6.324   2.838 -1.3194 -0.5825  3.0488
 1483SOL    HW3 5705   1.799   6.314   2.836 -1.1769  0.1466 -1.6544
 1483SOL    MW4 5706   1.726   6.357   2.856 -0.8319 -0.1276  0.4609
 1484SOL     OW 5707   3.435   2.779   0.821 -0.1831 -0.2967 -0.3671
 1484SOL    HW2 5708   3.445   2.794   0.915 -0.5341  0.1494 -0.3929
 1484SOL    HW3 5709   3.355   2.827   0.798  0.7778  0.9758 -1.1869
 1484SOL    MW4 5710   3.426   2.788   0.830 -0.1026 -0.0700 -0.4787
 1485SOL     OW 5711   5.084   3.443   3.602 -0.6235  0.4471  0.0438
 1485SOL    HW2 5712   4.991   3.421   3.593 -0.8440  1.3602 -0.0839
 1485SOL    HW3 5713   5.115   3.390   3.675 -1.5549  1.0015  0.8773
 1485SOL    MW4 5714   5.076   3.433   3.610 -0.7755  0.6407  0.1369
 1486SOL     OW 5715   0.772   1.545   4.294  0.2655 -0.1978 -0.2693
 1486SOL    HW2 5716   0.860   1.546   4.256 -0.2918 -0.4131 -1.6338
 1486SOL    HW3 5717   0.718   1.593   4.231 -1.0993 -2.3094 -0.8332
 1486SOL    MW4 5718   0.776   1.552   4.281  0.0119 -0.5048 -0.5237
 1487SOL     OW 5719   2.293   6.404   1.744  0.3194 -0.0005  0.3711
 1487SOL    HW2 5720   2.340   6.328   1.710  1.3071  1.5784 -2.0916
 1487SOL    HW3 5721   2.360   6.456   1.788  0.4369  1.1197 -1.0756
 1487SOL    MW4 5722   2.308   6.401   1.745  0.4652  0.3556 -0.1447
 1488SOL     OW 5723   2.459   0.358   3.603 -0.0271 -0.3402 -0.1852
 1488SOL    HW2 5724   2.398   0.323   3.538 -0.4573  3.8941 -2.4097
 1488SOL    HW3 5725   2.542   0.315   3.584 -1.0853 -2.2855 -0.6470
 1488SOL    MW4 5726   2.462   0.348   3.592 -0.2235 -0.0382 -0.5396
 1489SOL     OW 5727   5.738   5.959   5.580 -0.3584  0.0367 -0.1181
 1489SOL    HW2 5728   5.784   5.876   5.570 -1.1952 -0.6458  1.3568
 1489SOL    HW3 5729   5.805   6.026   5.569  0.9512 -0.9142  1.6400
 1489SOL    MW4 5730   5.753   5.957   5.577 -0.2960 -0.1788  0.3084
 1490SOL     OW 5731   1.887   2.786   0.394  0.5983  0.4905  0.4433
 1490SOL    HW2 5732   1.942   2.794   0.472  1.4452 -1.2579  0.0766
 1490SOL    HW3 5733   1.917   2.857   0.336  0.5798  1.2355  1.3204
 1490SOL    MW4 5734   1.899   2.797   0.396  0.7076  0.3581  0.5106
 1491SOL     OW 5735   2.635   0.742   2.552 -0.0649  0.6541  0.3289
 1491SOL    HW2 5736   2.582   0.747   2.472 -2.5574 -1.1777  1.6936
 1491SOL    HW3 5737   2.688   0.663   2.540  0.0985  0.7879  0.1778
 1491SOL    MW4 5738   2.635   0.732   2.540 -0.3722  0.4301  0.4890
 1492SOL     OW 5739   4.820   6.338   0.537 -0.2751 -0.4766 -0.1620
 1492SOL    HW2 5740   4.892   6.282   0.565 -1.1095 -2.1741 -1.2455
 1492SOL    HW3 5741   4.778   6.366   0.619  0.5450 -0.9163  0.4138
 1492SOL    MW4 5742   4.824   6.335   0.552 -0.2770 -0.7586 -0.2290
 1493SOL     OW 5743   3.553   3.336   4.064  0.6166  0.2152  0.1726
 1493SOL    HW2 5744   3.537   3.246   4.035 -1.7747  0.2682  1.0452
 1493SOL    HW3 5745   3.532   3.389   3.987  3.8461  0.0632 -0.9581
 1493SOL    MW4 5746   3.548   3.331   4.050  0.7272  0.2021  0.1385
 1494SOL     OW 5747   2.049   6.345   5.783 -0.4062 -0.1836 -0.2981
 1494SOL    HW2 5748   1.997   6.303   5.852 -0.1685  2.8689  1.9778
 1494SOL    HW3 5749   2.135   6.358   5.823 -0.5251  2.5020 -0.6987
 1494SOL    MW4 5750   2.053   6.341   5.798 -0.3905  0.5735 -0.0507
 1495SOL     OW 5751   0.831   1.662   5.071 -0.0644  0.1373 -0.1482
 1495SOL    HW2 5752   0.766   1.698   5.010 -1.7395  0.0890  1.5208
 1495SOL    HW3 5753   0.879   1.738   5.103 -0.8861  0.4523  0.3518
 1495SOL    MW4 5754   0.829   1.677   5.067 -0.3939  0.1725  0.1380
 1496SOL     OW 5755   2.803   0.513   1.519  0.2503  0.1028  0.0738
 1496SOL    HW2 5756   2.733   0.488   1.580 -1.3678  0.0049 -1.6965
 1496SOL    HW3 5757   2.876   0.455   1.541 -1.0843 -1.5381  0.4316
 1496SOL    MW4 5758   2.803   0.502   1.530 -0.1393 -0.1266 -0.1126
 1497SOL     OW 5759   4.819   6.299   3.161 -0.1343  0.3641  0.4609
 1497SOL    HW2 5760   4.758   6.347   3.106  0.5724 -0.8609 -1.5007
 1497SOL    HW3 5761   4.851   6.228   3.105 -0.3229 -1.7428  2.8862
 1497SOL    MW4 5762   4.815   6.296   3.146 -0.0660 -0.0755  0.5221
 1498SOL     OW 5763   6.095   0.090   1.307  0.4310  0.0971 -0.7910
 1498SOL    HW2 5764   6.025   0.057   1.363 -0.5935 -0.0251 -2.0791
 1498SOL    HW3 5765   6.049   0.139   1.239  1.6434  0.4672 -1.3623
 1498SOL    MW4 5766   6.080   0.092   1.305  0.4558  0.1298 -1.0363
 1499SOL     OW 5767   5.609   2.416   1.787  0.2915 -0.6981 -0.3412
 1499SOL    HW2 5768   5.704   2.426   1.799  0.0748  0.0348  1.0167
 1499SOL    HW3 5769   5.588   2.475   1.715  0.7431 -0.1520 -0.0363
 1499SOL    MW4 5770   5.619   2.425   1.779  0.3225 -0.5293 -0.1218
 1500SOL     OW 5771   1.335   3.620   4.750 -0.4250  0.2897  0.4217
 1500SOL    HW2 5772   1.248   3.660   4.751  0.3770  2.2152  2.9383
 1500SOL    HW3 5773   1.389   3.682   4.703 -0.1835 -0.4309 -0.2736
 1500SOL    MW4 5774   1.331   3.633   4.744 -0.2873  0.4487  0.6620
 1501SOL     OW 5775   2.176   5.741   3.572  0.3138 -0.2266 -0.7919
 1501SOL    HW2 5776   2.181   5.837   3.572  1.0290 -0.2105  1.2308
 1501SOL    HW3 5777   2.083   5.722   3.584  0.1261  0.1991 -1.5007
 1501SOL    MW4 5778   2.165   5.751   3.573  0.3834 -0.1683 -0.6185
 1502SOL     OW 5779   3.989   2.500   4.016  0.4498  0.2386 -0.1655
 1502SOL    HW2 5780   3.905   2.545   4.007 -1.1767 -2.7415 -1.2385
 1502SOL    HW3 5781   4.052   2.559   3.975 -1.4029  1.8177 -0.9031
 1502SOL    MW4 5782   3.986   2.514   4.010 -0.0092  0.0538 -0.4044
 1503SOL     OW 5783   3.791   5.025   2.058 -0.0967 -0.5168  0.0793
 1503SOL    HW2 5784   3.729   4.953   2.070 -0.0465 -0.5235  0.2902
 1503SOL    HW3 5785   3.756   5.096   2.112 -0.3105 -0.2818 -0.3571
 1503SOL    MW4 5786   3.778   5.025   2.067 -0.1182 -0.4867  0.0496
 1504SOL     OW 5787   1.397   4.728   1.100  0.0429  0.5209 -0.0213
 1504SOL    HW2 5788   1.378   4.809   1.053 -1.3124  0.8964  1.0927
 1504SOL    HW3 5789   1.398   4.754   1.192  1.5875 -0.3841  0.2507
 1504SOL    MW4 5790   1.394   4.742   1.106  0.0679  0.4510  0.1616
 1505SOL     OW 5791   3.897   1.901   3.836 -0.6246  0.4870  0.3211
 1505SOL    HW2 5792   3.896   1.965   3.765  1.3758 -1.3592 -1.5141
 1505SOL    HW3 5793   3.941   1.825   3.799  0.6958 -0.5259  3.6206
 1505SOL    MW4 5794   3.903   1.900   3.822 -0.1864  0.1098  0.5143
 1506SOL     OW 5795   2.199   4.773   1.099  0.2645  0.3037  0.4904
 1506SOL    HW2 5796   2.237   4.686   1.102  0.0551  0.2220  0.9086
 1506SOL    HW3 5797   2.274   4.832   1.104  0.4010  0.1476  0.3022
 1506SOL    MW4 5798   2.214   4.769   1.100  0.2549  0.2723  0.5208
 1507SOL     OW 5799   1.702   2.111   2.340  0.1185 -0.0570 -0.5738
 1507SOL    HW2 5800   1.782   2.145   2.379  0.1626 -1.1057  0.2856
 1507SOL    HW3 5801   1.643   2.187   2.338  0.9760  0.6167 -0.8203
 1507SOL    MW4 5802   1.704   2.126   2.345  0.2375 -0.1065 -0.4929
 1508SOL     OW 5803   5.873   1.495   6.034 -0.2657  0.4824 -0.1156
 1508SOL    HW2 5804   5.793   1.546   6.029  0.1261  1.0387 -0.9066
 1508SOL    HW3 5805   5.942   1.555   6.004  0.0721 -0.7940 -2.0530
 1508SOL    MW4 5806   5.872   1.510   6.029 -0.1695  0.3874 -0.4756
 1509SOL     OW 5807   2.991   4.407   0.856  0.0378  0.2688  0.3742
 1509SOL    HW2 5808   3.008   4.426   0.764 -1.9167  0.4052 -0.0002
 1509SOL    HW3 5809   3.071   4.435   0.901  0.0950  2.5325 -0.9856
 1509SOL    MW4 5810   3.004   4.413   0.850 -0.2125  0.5855  0.1454
 1510SOL     OW 5811   4.184   0.418   3.410  0.2201  0.3505  0.1392
 1510SOL    HW2 5812   4.158   0.454   3.495  0.7239  0.9151  0.0582
 1510SOL    HW3 5813   4.208   0.494   3.358  1.2876 -0.0862 -0.0398
 1510SOL    MW4 5814   4.184   0.433   3.415  0.4274  0.3674  0.1049
 1511SOL     OW 5815   2.194   2.872   5.931 -0.0320 -0.0468  0.6526
 1511SOL    HW2 5816   2.127   2.835   5.989  0.1865  0.7558  1.4327
 1511SOL    HW3 5817   2.271   2.817   5.946 -0.4643 -0.9185 -0.1832
 1511SOL    MW4 5818   2.196   2.860   5.940 -0.0602 -0.0559  0.6453
 1512SOL     OW 5819   2.755   3.109   2.580 -0.1837 -0.0604  0.4884
 1512SOL    HW2 5820   2.799   3.025   2.568 -0.4027 -0.0541 -0.4547
 1512SOL    HW3 5821   2.776   3.159   2.501  0.9664  1.2579  1.5758
 1512SOL    MW4 5822   2.763   3.105   2.568 -0.0609  0.1143  0.5074
 1513SOL     OW 5823   4.308   6.373   1.739  0.4536  0.8174 -0.2291
 1513SOL    HW2 5824   4.239   6.439   1.751 -0.9593 -0.5364 -0.5631
 1513SOL    HW3 5825   4.276   6.318   1.667  1.3175 -0.5898  0.4200
 1513SOL    MW4 5826   4.295   6.374   1.731  0.3812  0.4531 -0.1875
 1514SOL     OW 5827   6.104   5.320   3.295  0.3931 -0.6127 -0.0235
 1514SOL    HW2 5828   6.154   5.397   3.323 -1.3386  0.5148  0.1066
 1514SOL    HW3 5829   6.051   5.298   3.372 -0.9858 -0.3530 -0.8774
 1514SOL    MW4 5830   6.104   5.327   3.309 -0.0173 -0.4297 -0.1190
 1515SOL     OW 5831   2.677   4.386   5.096 -0.3071 -0.3678 -0.0357
 1515SOL    HW2 5832   2.608   4.420   5.154 -0.6513  1.9489 -1.6660
 1515SOL    HW3 5833   2.758   4.407   5.141 -0.6073 -0.8332  0.7411
 1515SOL    MW4 5834   2.678   4.393   5.109 -0.3921 -0.1236 -0.1483
 1516SOL     OW 5835   2.457   0.826   1.404  0.3525  0.2174 -0.0682
 1516SOL    HW2 5836   2.389   0.880   1.364 -0.1246 -0.0574  0.3528
 1516SOL    HW3 5837   2.521   0.888   1.437  1.5475  0.4110 -2.5853
 1516SOL    MW4 5838   2.456   0.841   1.403  0.4472  0.2067 -0.3448
 1517SOL     OW 5839   0.580   4.241   0.881  0.0690 -0.5463 -0.3165
 1517SOL    HW2 5840   0.604   4.192   0.960 -1.9352  1.1106  1.4149
 1517SOL    HW3 5841   0.639   4.316   0.881 -0.3909 -0.1857 -0.0108
 1517SOL    MW4 5842   0.591   4.244   0.891 -0.2561 -0.2801 -0.0477
 1518SOL     OW 5843   5.597   6.229   1.817 -0.1043  0.8416 -0.1393
 1518SOL    HW2 5844   5.667   6.176   1.780 -0.2090  0.1026  0.6855
 1518SOL    HW3 5845   5.625   6.246   1.907 -0.6511  1.1580 -0.0218
 1518SOL    MW4 5846   5.610   6.224   1.824 -0.1903  0.7858 -0.0150
 1519SOL     OW 5847   5.377   4.692   0.789  0.0698  0.2470 -0.2069
 1519SOL    HW2 5848   5.304   4.636   0.765 -1.0845  1.2699  0.7556
 1519SOL    HW3 5849   5.373   4.698   0.884 -0.3945  2.5843 -0.2935
 1519SOL    MW4 5850   5.367   4.686   0.798 -0.1437  0.6903 -0.0914
 1520SOL     OW 5851   2.879   3.875   0.710  0.3642  0.1004  0.1374
 1520SOL    HW2 5852   2.957   3.923   0.681  0.3155 -0.3229 -0.7200
 1520SOL    HW3 5853   2.910   3.824   0.786  0.2178  2.0569  1.5805
 1520SOL    MW4 5854   2.894   3.874   0.716  0.3385  0.3027  0.2147
 1521SOL     OW 5855   0.642   5.572   2.439  0.6330  0.5349  0.0257
 1521SOL    HW2 5856   0.709   5.628   2.480  1.7334 -0.2497 -0.6420
 1521SOL    HW3 5857   0.607   5.626   2.368 -0.2820  1.3763  1.0857
 1521SOL    MW4 5858   0.646   5.587   2.435  0.6574  0.5424  0.0775
 1522SOL     OW 5859   2.738   6.397   5.323  0.1985  0.2643  0.2047
 1522SOL    HW2 5860   2.765   6.456   5.253  1.6153 -0.9659 -0.3546
 1522SOL    HW3 5861   2.724   6.313   5.279 -0.7407 -0.0829  1.1260
 1522SOL    MW4 5862   2.740   6.394   5.308  0.2615  0.0562  0.2524
 1523SOL     OW 5863   1.443   4.571   0.451  0.0656 -0.7215 -0.1844
 1523SOL    HW2 5864   1.428   4.635   0.520  2.0538  0.0718 -0.4343
 1523SOL    HW3 5865   1.393   4.604   0.376  0.0307 -0.1556  0.0836
 1523SOL    MW4 5866   1.435   4.584   0.450  0.3233 -0.5421 -0.1820
 1524SOL     OW 5867   2.099   4.661   5.900  0.6612  0.4512 -0.3327
 1524SOL    HW2 5868   2.099   4.571   5.932  2.1459  0.2510 -0.8154
 1524SOL    HW3 5869   2.061   4.655   5.812  0.0058  0.4329 -0.0535
 1524SOL    MW4 5870   2.094   4.649   5.892  0.7706  0.4223 -0.3596
 1525SOL     OW 5871   5.623   3.583   2.864  0.8803 -0.2092  0.0790
 1525SOL    HW2 5872   5.582   3.657   2.819 -0.9704 -0.7415  0.7762
 1525SOL    HW3 5873   5.691   3.553   2.803 -0.6406 -0.0805 -1.7967
 1525SOL    MW4 5874   5.626   3.589   2.850  0.4355 -0.2625 -0.0765
 1526SOL     OW 5875   1.801   4.180   1.997  0.2727 -0.3977  0.4069
 1526SOL    HW2 5876   1.750   4.102   1.973  1.8122 -1.3468  0.1161
 1526SOL    HW3 5877   1.762   4.250   1.943  0.2658 -1.4184 -0.9877
 1526SOL    MW4 5878   1.789   4.179   1.986  0.4749 -0.6576  0.1845
 1527SOL     OW 5879   6.233   5.605   5.691  0.2224  0.4189  0.6771
 1527SOL    HW2 5880   6.286   5.638   5.764 -0.1996  1.3766  0.5696
 1527SOL    HW3 5881   6.167   5.549   5.733  1.3613 -0.8771  0.7993
 1527SOL    MW4 5882   6.231   5.602   5.706  0.3170  0.3743  0.6790
 1528SOL     OW 5883   0.989   4.570   3.849 -0.2316  0.1072 -0.3145
 1528SOL    HW2 5884   1.028   4.656   3.865  0.1317  0.4986 -2.8978
 1528SOL    HW3 5885   1.063   4.512   3.833 -0.5408 -0.3395 -0.1656
 1528SOL    MW4 5886   1.004   4.574   3.849 -0.2245  0.0999 -0.6357
 1529SOL     OW 5887   2.688   4.624   6.000  0.2610  0.2878 -0.3846
 1529SOL    HW2 5888   2.761   4.590   6.052 -0.5931  0.4190  0.9494
 1529SOL    HW3 5889   2.640   4.545   5.971 -0.0514  0.2492  0.2229
 1529SOL    MW4 5890   2.691   4.609   6.003  0.1071  0.3000 -0.1285
 1530SOL     OW 5891   3.950   3.363   0.804 -0.0594 -0.1084  0.1314
 1530SOL    HW2 5892   4.030   3.316   0.825  0.2812 -0.1501 -1.1881
 1530SOL    HW3 5893   3.905   3.373   0.888  2.4133  1.9869  1.3378
 1530SOL    MW4 5894   3.954   3.358   0.818  0.3118  0.1625  0.1165
 1531SOL     OW 5895   6.351   0.007   2.874  0.5238  0.4989 -0.3317
 1531SOL    HW2 5896   6.422   0.063   2.842 -0.1267  0.6168 -1.6286
 1531SOL    HW3 5897   6.321   0.050   2.954  2.3699  0.0547  0.6444
 1531SOL    MW4 5898   6.356   0.020   2.880  0.6816  0.4558 -0.3740
 1532SOL     OW 5899   0.773   5.119   3.285  0.5690 -0.3062 -0.0410
 1532SOL    HW2 5900   0.679   5.114   3.268  0.3689 -0.7666  1.1482
 1532SOL    HW3 5901   0.780   5.157   3.372  1.5247  0.5410 -0.4639
 1532SOL    MW4 5902   0.762   5.123   3.294  0.6687 -0.2551  0.0601
 1533SOL     OW 5903   5.370   6.031   1.908 -0.0780  0.4051 -1.0244
 1533SOL    HW2 5904   5.316   6.031   1.829  0.5963  2.4877 -1.5449
 1533SOL    HW3 5905   5.331   6.098   1.964  1.9286  2.0149 -1.4435
 1533SOL    MW4 5906   5.357   6.040   1.905  0.2757  0.8923 -1.1484
 1534SOL     OW 5907   3.890   2.121   3.173 -0.1604 -0.1182 -0.2096
 1534SOL    HW2 5908   3.888   2.044   3.230 -1.4306  0.9150  1.2483
 1534SOL    HW3 5909   3.828   2.182   3.213  2.9705  2.9499  0.5518
 1534SOL    MW4 5910   3.882   2.119   3.186  0.0851  0.4229  0.0832
 1535SOL     OW 5911   5.283   3.636   5.705 -0.1753  0.6705 -0.2984
 1535SOL    HW2 5912   5.256   3.572   5.638  0.0745 -1.4174  1.4856
 1535SOL    HW3 5913   5.207   3.643   5.763 -1.1025  3.8780 -1.6452
 1535SOL    MW4 5914   5.269   3.628   5.704 -0.2647  0.8183 -0.2407
 1536SOL     OW 5915   0.948   0.246   5.961  0.0412 -0.5602  0.1040
 1536SOL    HW2 5916   0.869   0.193   5.949 -0.0420 -1.0265  2.2423
 1536SOL    HW3 5917   1.015   0.182   5.985  1.3995 -0.2973 -2.6211
 1536SOL    MW4 5918   0.946   0.231   5.962  0.2094 -0.5871  0.0265
 1537SOL     OW 5919   1.561   4.835   4.364 -0.5010 -0.3013  0.0351
 1537SOL    HW2 5920   1.596   4.885   4.290 -2.1056  0.4830 -0.2304
 1537SOL    HW3 5921   1.524   4.901   4.422 -1.6459 -1.1031  0.2354
 1537SOL    MW4 5922   1.561   4.850   4.361 -0.8638 -0.3036  0.0265
 1538SOL     OW 5923   4.893   0.111   0.886  0.0747 -0.4313  0.5532
 1538SOL    HW2 5924   4.860   0.175   0.950 -1.2578  1.2800 -1.6755
 1538SOL    HW3 5925   4.967   0.154   0.845  0.0693 -0.9241  0.0168
 1538SOL    MW4 5926   4.898   0.125   0.889 -0.1019 -0.2705  0.1884
 1539SOL     OW 5927   2.783   6.049   0.019  0.0430  0.1580 -0.2739
 1539SOL    HW2 5928   2.816   6.127  -0.026 -2.0013  1.6718  0.7006
 1539SOL    HW3 5929   2.711   6.019  -0.036 -0.4096  0.1309  0.3212
 1539SOL    MW4 5930   2.778   6.056   0.006 -0.2865  0.3542 -0.0668
 1540SOL     OW 5931   3.551   3.051   5.880  0.3450 -0.2725 -0.8229
 1540SOL    HW2 5932   3.639   3.018   5.863 -0.2541 -0.9297 -2.8786
 1540SOL    HW3 5933   3.526   3.097   5.800 -0.4212  1.7237  0.4786
 1540SOL    MW4 5934   3.559   3.053   5.867  0.1649 -0.0959 -0.9224
 1541SOL     OW 5935   3.767   4.579   6.078 -0.0159 -0.3177 -0.1673
 1541SOL    HW2 5936   3.731   4.607   5.994 -0.3435  0.4711  0.2320
 1541SOL    HW3 5937   3.853   4.542   6.056 -1.0613 -2.2974 -1.1415
 1541SOL    MW4 5938   3.774   4.578   6.064 -0.1971 -0.4748 -0.2431
 1542SOL     OW 5939   2.176   4.312   0.093 -0.3675  0.4037  0.4887
 1542SOL    HW2 5940   2.174   4.372   0.019 -2.8335  0.5606  0.5840
 1542SOL    HW3 5941   2.259   4.329   0.136  1.0789  0.4449 -2.0867
 1542SOL    MW4 5942   2.186   4.322   0.089 -0.5020  0.4299  0.1615
 1543SOL     OW 5943   3.091   2.592   2.258 -0.1737 -0.4452 -0.1437
 1543SOL    HW2 5944   3.006   2.579   2.218  0.3284 -0.1262 -1.3645
 1543SOL    HW3 5945   3.083   2.675   2.306 -0.5741 -0.4766 -0.1588
 1543SOL    MW4 5946   3.079   2.602   2.259 -0.1602 -0.4072 -0.3068
 1544SOL     OW 5947   6.236   6.350   4.688  0.7556  0.3233 -0.5883
 1544SOL    HW2 5948   6.157   6.390   4.651  0.4193 -0.6136 -0.9344
 1544SOL    HW3 5949   6.205   6.304   4.766  0.8848 -0.3325 -0.9145
 1544SOL    MW4 5950   6.221   6.349   4.693  0.7282  0.1131 -0.6770
 1545SOL     OW 5951   1.573   3.091   2.422 -0.1535  0.6161  0.2538
 1545SOL    HW2 5952   1.631   3.132   2.486 -1.1661  1.0170  0.9406
 1545SOL    HW3 5953   1.564   3.001   2.452 -1.4616  1.0714  1.3129
 1545SOL    MW4 5954   1.579   3.084   2.434 -0.4597  0.7291  0.4842
 1546SOL     OW 5955   0.989   1.419   4.629 -0.0187  0.0123 -0.2133
 1546SOL    HW2 5956   0.981   1.514   4.620 -0.0003  0.1390  0.9786
 1546SOL    HW3 5957   0.899   1.389   4.643  0.0220 -0.1054 -0.2046
 1546SOL    MW4 5958   0.976   1.428   4.629 -0.0109  0.0135 -0.0549
 1547SOL     OW 5959   5.776   1.590   4.592 -0.4593  0.8906  0.2609
 1547SOL    HW2 5960   5.749   1.576   4.501  0.3974  2.0066 -0.1848
 1547SOL    HW3 5961   5.788   1.501   4.627  0.3702  0.4482 -1.0712
 1547SOL    MW4 5962   5.774   1.576   4.584 -0.2368  0.9795  0.0263
 1548SOL     OW 5963   6.030   0.442   1.196  0.1596 -0.2551 -0.0480
 1548SOL    HW2 5964   5.963   0.460   1.130  2.2326  5.2480 -1.2010
 1548SOL    HW3 5965   5.988   0.462   1.279 -0.2883  1.2018 -0.5849
 1548SOL    MW4 5966   6.016   0.447   1.198  0.3740  0.6632 -0.2710
 1549SOL     OW 5967   1.065   3.677   4.703  0.1732  0.1646 -0.4212
 1549SOL    HW2 5968   1.028   3.589   4.705  2.0477 -0.7618 -2.1446
 1549SOL    HW3 5969   1.050   3.706   4.613  0.8762  1.0101 -0.2720
 1549SOL    MW4 5970   1.058   3.669   4.691  0.5133  0.1539 -0.6289
 1550SOL     OW 5971   5.597   2.213   4.044  0.1310 -0.6892  0.0373
 1550SOL    HW2 5972   5.568   2.147   4.107  1.8483 -0.8667  0.7120
 1550SOL    HW3 5973   5.693   2.205   4.043  0.6626  3.0634  1.6317
 1550SOL    MW4 5974   5.606   2.203   4.052  0.4277 -0.2175  0.3367
 1551SOL     OW 5975   6.079   1.434   0.402  0.3544  0.7968 -0.1059
 1551SOL    HW2 5976   6.112   1.480   0.325  0.5810  0.4246 -0.2362
 1551SOL    HW3 5977   6.015   1.372   0.368  1.7105 -0.6046 -0.2342
 1551SOL    MW4 5978   6.075   1.432   0.388  0.5633  0.5628 -0.1400
 1552SOL     OW 5979   5.577   3.041   5.898  0.3798  0.4568  0.4313
 1552SOL    HW2 5980   5.534   3.030   5.983  0.0458 -0.0926  0.1934
 1552SOL    HW3 5981   5.654   2.985   5.903  0.0494 -0.0233  0.1597
 1552SOL    MW4 5982   5.582   3.032   5.910  0.2921  0.3209  0.3641
 1553SOL     OW 5983   4.197   5.833   5.097 -0.0845 -0.0459 -0.5057
 1553SOL    HW2 5984   4.114   5.787   5.088 -0.4337  0.1654  1.3128
 1553SOL    HW3 5985   4.258   5.784   5.042 -1.5413  0.2374 -2.4896
 1553SOL    MW4 5986   4.194   5.821   5.088 -0.3228  0.0193 -0.5275
 1554SOL     OW 5987   5.090   2.868   5.585 -0.3744  0.1226 -0.0826
 1554SOL    HW2 5988   5.160   2.804   5.577  1.3198  2.0736 -2.1251
 1554SOL    HW3 5989   5.018   2.831   5.534 -0.9690 -1.8827  2.0098
 1554SOL    MW4 5990   5.089   2.854   5.577 -0.2293  0.1155 -0.0760
 1555SOL     OW 5991   2.961   3.070   4.225 -0.0155 -0.8270  0.0344
 1555SOL    HW2 5992   3.017   3.095   4.298 -0.7817  3.2317 -0.5192
 1555SOL    HW3 5993   3.018   3.019   4.167  2.7392  1.7065  0.2853
 1555SOL    MW4 5994   2.976   3.067   4.227  0.2468  0.0428 -0.0056
 1556SOL     OW 5995   2.472   6.094   2.616 -0.4099  0.1221  0.3331
 1556SOL    HW2 5996   2.420   6.035   2.671  0.0918 -0.2708  0.3870
 1556SOL    HW3 5997   2.552   6.110   2.665 -1.0063  1.7853  0.8505
 1556SOL    MW4 5998   2.475   6.089   2.629 -0.4224  0.2897  0.4085
 1557SOL     OW 5999   6.084   0.039   5.445 -0.6080 -0.4809 -0.0734
 1557SOL    HW2 6000   6.046  -0.016   5.376 -1.6852  1.7023 -1.3441
 1557SOL    HW3 6001   6.146   0.096   5.398  0.2055 -0.3545  1.1266
 1557SOL    MW4 6002   6.087   0.039   5.429 -0.6428 -0.1762 -0.0827
 1558SOL     OW 6003   2.837   5.213   2.116 -0.5150 -0.2921  0.8126
 1558SOL    HW2 6004   2.932   5.207   2.113 -0.5183 -0.5389  1.1330
 1558SOL    HW3 6005   2.806   5.142   2.059 -0.5031  0.4432 -0.1322
 1558SOL    MW4 6006   2.845   5.203   2.108 -0.5138 -0.2276  0.7302
 1559SOL     OW 6007   5.380   0.897   5.673  0.7723  0.0188  0.1822
 1559SOL    HW2 6008   5.373   0.992   5.658 -0.2469  0.0284  0.6397
 1559SOL    HW3 6009   5.435   0.866   5.602 -0.4888  0.6816 -1.1476
 1559SOL    MW4 6010   5.386   0.906   5.662  0.4715  0.1075  0.0671
 1560SOL     OW 6011   4.090   5.221   1.763  0.4683  0.0087  0.4918
 1560SOL    HW2 6012   4.056   5.310   1.770  1.3848  0.3576  0.6099
 1560SOL    HW3 6013   4.088   5.202   1.669  1.2923  0.5667  0.3559
 1560SOL    MW4 6014   4.085   5.230   1.752  0.6979  0.1283  0.4895
 1561SOL     OW 6015   2.499   4.864   1.807  0.3900 -0.1049  0.3860
 1561SOL    HW2 6016   2.487   4.788   1.750 -0.5998  1.2330 -1.2661
 1561SOL    HW3 6017   2.535   4.827   1.888 -0.9360 -2.4498  0.0031
 1561SOL    MW4 6018   2.502   4.849   1.810  0.0845 -0.2377  0.1175
 1562SOL     OW 6019   5.165   1.180   1.935  0.1160  0.1512  0.1981
 1562SOL    HW2 6020   5.146   1.105   1.991 -1.2747  0.3323 -0.0007
 1562SOL    HW3 6021   5.100   1.176   1.865  0.2478  1.3354 -0.0257
 1562SOL    MW4 6022   5.154   1.170   1.933 -0.0501  0.3313  0.1423
 1563SOL     OW 6023   1.763   3.306   3.512  0.0315  0.1454  0.1843
 1563SOL    HW2 6024   1.681   3.321   3.559  0.4505  1.1668  0.6161
 1563SOL    HW3 6025   1.829   3.298   3.581  0.3481 -0.3471 -0.1708
 1563SOL    MW4 6026   1.761   3.307   3.527  0.1285  0.2152  0.1944
 1564SOL     OW 6027   1.677   5.725   5.574 -0.6712 -0.0495  0.1479
 1564SOL    HW2 6028   1.693   5.634   5.597  0.2110 -0.2918 -1.3073
 1564SOL    HW3 6029   1.619   5.721   5.497 -0.3237  0.5956 -0.1576
 1564SOL    MW4 6030   1.671   5.712   5.567 -0.5089  0.0036 -0.0844
 1565SOL     OW 6031   1.125   2.955   5.857 -0.1370 -0.1244 -0.1355
 1565SOL    HW2 6032   1.164   2.925   5.775 -1.0340  2.0315 -1.4356
 1565SOL    HW3 6033   1.059   3.020   5.830  0.9322  2.1992  2.3281
 1565SOL    MW4 6034   1.122   2.960   5.843 -0.1143  0.4666  0.0180
 1566SOL     OW 6035   6.093   0.690   1.557  0.2116  0.0552 -0.2655
 1566SOL    HW2 6036   6.147   0.720   1.630  0.1577  0.5114 -0.4064
 1566SOL    HW3 6037   6.085   0.767   1.500 -2.4453  0.7136  0.8527
 1566SOL    MW4 6038   6.099   0.704   1.559 -0.1461  0.2022 -0.1366
 1567SOL     OW 6039   6.160   3.953   3.413 -0.4564 -0.0404  0.6526
 1567SOL    HW2 6040   6.175   3.929   3.321 -0.1471 -0.0174  0.6985
 1567SOL    HW3 6041   6.187   3.876   3.463  1.4848  0.7373  0.8650
 1567SOL    MW4 6042   6.166   3.940   3.407 -0.1595  0.0653  0.6867
 1568SOL     OW 6043   4.911   2.358   4.648 -0.5285 -0.1709  0.4904
 1568SOL    HW2 6044   4.912   2.318   4.561 -1.3407 -2.4031  1.4130
 1568SOL    HW3 6045   4.988   2.415   4.650  2.7346 -4.1170  0.0347
 1568SOL    MW4 6046   4.921   2.360   4.637 -0.2052 -0.9861  0.5520
 1569SOL     OW 6047   4.919   3.101   0.580 -0.4210  0.1587  0.5311
 1569SOL    HW2 6048   4.882   3.013   0.576  1.4595 -0.6398 -1.1716
 1569SOL    HW3 6049   4.852   3.157   0.542 -0.8019 -0.9136 -0.4465
 1569SOL    MW4 6050   4.906   3.097   0.574 -0.2231 -0.0881  0.1774
 1570SOL     OW 6051   3.198   5.189   0.318  0.2635  0.5309  0.8153
 1570SOL    HW2 6052   3.229   5.234   0.240 -1.8899  0.1817 -0.3147
 1570SOL    HW3 6053   3.235   5.239   0.391  3.1204  0.3129 -0.3471
 1570SOL    MW4 6054   3.207   5.201   0.317  0.3563  0.4561  0.5129
 1571SOL     OW 6055   2.367   1.345   0.180 -0.0783 -0.3365 -0.0052
 1571SOL    HW2 6056   2.431   1.411   0.206  0.6141 -0.4676 -1.3032
 1571SOL    HW3 6057   2.344   1.368   0.090 -0.2396 -1.5452 -0.2846
 1571SOL    MW4 6058   2.373   1.357   0.172 -0.0082 -0.5133 -0.2133
 1572SOL     OW 6059   1.236   2.193   5.410  0.0999 -0.3566  0.0213
 1572SOL    HW2 6060   1.222   2.110   5.363 -0.0671  0.0494 -0.6626
 1572SOL    HW3 6061   1.323   2.221   5.383 -0.3671  0.3546 -0.8158
 1572SOL    MW4 6062   1.245   2.185   5.400  0.0163 -0.2092 -0.1794
 1573SOL     OW 6063   3.196   6.353   3.737  0.2500 -0.4399 -0.9070
 1573SOL    HW2 6064   3.260   6.345   3.808 -0.5735  1.2348  0.0924
 1573SOL    HW3 6065   3.235   6.418   3.678 -0.4188  0.5122 -0.3438
 1573SOL    MW4 6066   3.210   6.361   3.739  0.0531 -0.0933 -0.7008
 1574SOL     OW 6067   2.161   2.445   4.888 -0.4595  0.2875 -0.6736
 1574SOL    HW2 6068   2.119   2.479   4.967  3.2049  1.0857  1.1451
 1574SOL    HW3 6069   2.126   2.356   4.879 -0.7896  0.0563  2.0526
 1574SOL    MW4 6070   2.151   2.438   4.897 -0.0196  0.3623 -0.0740
 1575SOL     OW 6071   2.946   1.165   1.599  0.5408 -0.7574  0.0695
 1575SOL    HW2 6072   2.958   1.093   1.661 -1.1555 -1.3660 -0.2534
 1575SOL    HW3 6073   3.004   1.234   1.631 -1.2210 -0.5285  3.1759
 1575SOL    MW4 6074   2.955   1.165   1.611  0.0846 -0.8075  0.4368
 1576SOL     OW 6075   4.055   5.506   4.713  0.4330  0.1203  0.2729
 1576SOL    HW2 6076   3.972   5.532   4.753 -1.3506 -1.3787 -2.1882
 1576SOL    HW3 6077   4.077   5.424   4.756 -1.3276 -1.3389 -1.4229
 1576SOL    MW4 6078   4.047   5.499   4.724 -0.0346 -0.2700 -0.2756
 1577SOL     OW 6079   4.224   3.549   4.741 -0.1642 -0.1782  0.2433
 1577SOL    HW2 6080   4.172   3.607   4.796 -0.5640  0.1040 -0.4195
 1577SOL    HW3 6081   4.183   3.553   4.655 -0.7767 -2.1815  0.3902
 1577SOL    MW4 6082   4.212   3.557   4.737 -0.2977 -0.4052  0.1752
 1578SOL     OW 6083   3.246   1.297   6.321 -0.1880 -0.2596  0.0218
 1578SOL    HW2 6084   3.273   1.384   6.293 -0.7857  0.9063  2.6569
 1578SOL    HW3 6085   3.150   1.303   6.327 -0.2929 -1.3219 -0.3814
 1578SOL    MW4 6086   3.237   1.309   6.318 -0.2807 -0.2459  0.3163
 1579SOL     OW 6087   5.680   4.806   0.697  0.1251 -0.0990  0.2932
 1579SOL    HW2 6088   5.686   4.710   0.698  1.0099 -0.0455  0.2547
 1579SOL    HW3 6089   5.654   4.829   0.787  1.8043 -0.2661  0.8493
 1579SOL    MW4 6090   5.677   4.796   0.709  0.4634 -0.1140  0.3615
 1580SOL     OW 6091   2.959   1.950   6.179 -0.1871  0.0152 -0.4126
 1580SOL    HW2 6092   2.992   2.037   6.202  0.6731  0.3060 -2.4915
 1580SOL    HW3 6093   3.031   1.890   6.200 -1.7381 -0.7058  3.6363
 1580SOL    MW4 6094   2.973   1.954   6.185 -0.2782 -0.0415 -0.1527
 1581SOL     OW 6095   4.256   6.257   5.501  0.7000 -0.0333  0.0062
 1581SOL    HW2 6096   4.228   6.203   5.427  0.1718 -0.6498  0.6410
 1581SOL    HW3 6097   4.309   6.326   5.462  2.6431 -1.8214 -0.7245
 1581SOL    MW4 6098   4.260   6.259   5.486  0.8867 -0.3506 -0.0065
 1582SOL     OW 6099   3.677   1.434   4.327  0.2161  0.0795  0.3125
 1582SOL    HW2 6100   3.708   1.380   4.254  0.1632  1.1693 -0.5392
 1582SOL    HW3 6101   3.592   1.468   4.298 -0.7840 -1.0692  1.7116
 1582SOL    MW4 6102   3.670   1.431   4.314  0.0772  0.0717  0.3847
 1583SOL     OW 6103   0.450   3.247   1.991 -0.0778 -0.3867 -0.1086
 1583SOL    HW2 6104   0.438   3.159   2.026  2.8654 -0.4702  0.9637
 1583SOL    HW3 6105   0.537   3.246   1.952 -1.0179  1.3579 -2.4871
 1583SOL    MW4 6106   0.460   3.235   1.991  0.1865 -0.1675 -0.2809
 1584SOL     OW 6107   2.740   0.481   2.610  0.1945  0.4962  0.0207
 1584SOL    HW2 6108   2.775   0.522   2.689  0.2929  1.4425 -0.5001
 1584SOL    HW3 6109   2.651   0.456   2.633  0.4723  0.0950  0.6613
 1584SOL    MW4 6110   2.733   0.483   2.623  0.2441  0.5681  0.0365
 1585SOL     OW 6111   5.638   2.840   4.642 -0.2808  0.2415 -0.5668
 1585SOL    HW2 6112   5.570   2.859   4.706  1.2272 -0.0709  1.2114
 1585SOL    HW3 6113   5.692   2.919   4.640 -0.3980  0.3052 -1.5858
 1585SOL    MW4 6114   5.636   2.853   4.650 -0.0973  0.2087 -0.4666
 1586SOL     OW 6115   0.016   4.651   3.988  0.1268  0.3030  0.3017
 1586SOL    HW2 6116   0.032   4.584   4.053  1.6229  0.8012  0.4838
 1586SOL    HW3 6117   0.103   4.675   3.955 -0.5643 -0.0256 -1.9823
 1586SOL    MW4 6118   0.029   4.645   3.992  0.2330  0.3254  0.0244
 1587SOL     OW 6119   3.195   1.758   4.606 -0.4689  0.2349  0.3364
 1587SOL    HW2 6120   3.249   1.681   4.627  0.0132  0.6817  0.7933
 1587SOL    HW3 6121   3.118   1.723   4.562  0.1688 -0.4310 -0.2819
 1587SOL    MW4 6122   3.192   1.743   4.603 -0.3212  0.2060  0.3151
 1588SOL     OW 6123   5.316   0.493   0.591  0.2057 -0.1893 -0.1110
 1588SOL    HW2 6124   5.265   0.413   0.575 -2.7452  1.7460 -1.2072
 1588SOL    HW3 6125   5.373   0.500   0.515 -2.0190  0.4091 -1.8545
 1588SOL    MW4 6126   5.317   0.483   0.579 -0.4771  0.1450 -0.4857
 1589SOL     OW 6127   0.672   2.229   6.180 -0.5241 -0.2681  0.0556
 1589SOL    HW2 6128   0.684   2.171   6.105  0.7550  0.5948 -0.4443
 1589SOL    HW3 6129   0.747   2.211   6.237 -1.4593 -0.8836  1.1425
 1589SOL    MW4 6130   0.683   2.219   6.177 -0.4788 -0.2355  0.1330
 1590SOL     OW 6131   1.553   2.341   3.672 -0.3131  0.3829  0.1403
 1590SOL    HW2 6132   1.637   2.358   3.631  0.9894 -1.0867  2.0433
 1590SOL    HW3 6133   1.510   2.277   3.614  1.9936 -2.5961  1.4625
 1590SOL    MW4 6134   1.558   2.335   3.659  0.1631 -0.2041  0.5659
 1591SOL     OW 6135   3.605   5.091   1.202 -0.0832  0.5860 -0.2495
 1591SOL    HW2 6136   3.538   5.125   1.262  1.2391  2.0934  0.4630
 1591SOL    HW3 6137   3.638   5.169   1.157  0.8814 -0.1793 -0.9098
 1591SOL    MW4 6138   3.601   5.106   1.204  0.2186  0.6839 -0.2426
 1592SOL     OW 6139   4.540   4.817   0.313  0.4484  0.2367  0.0397
 1592SOL    HW2 6140   4.449   4.845   0.325 -0.2085 -1.6438 -0.2353
 1592SOL    HW3 6141   4.534   4.733   0.269  2.2305 -0.9038  1.7737
 1592SOL    MW4 6142   4.527   4.810   0.309  0.5969 -0.1619  0.2322
 1593SOL     OW 6143   2.240   2.574   1.756  0.0185  0.0838 -0.0147
 1593SOL    HW2 6144   2.157   2.622   1.754 -0.8570 -1.2322  1.6294
 1593SOL    HW3 6145   2.232   2.511   1.684 -0.6777 -0.4112  0.4778
 1593SOL    MW4 6146   2.228   2.572   1.746 -0.1888 -0.1552  0.2672
 1594SOL     OW 6147   1.260   0.497   0.739  0.0161 -0.1458 -0.4256
 1594SOL    HW2 6148   1.233   0.430   0.677  0.3960 -0.8590  0.1658
 1594SOL    HW3 6149   1.353   0.482   0.754  0.3252  1.0671 -0.9381
 1594SOL    MW4 6150   1.268   0.486   0.733  0.1070 -0.0799 -0.4152
 1595SOL     OW 6151   4.613   0.041   3.036  0.5944 -0.1585 -0.2426
 1595SOL    HW2 6152   4.600   0.096   3.113  2.1039 -0.2178  0.0684
 1595SOL    HW3 6153   4.574   0.090   2.964  1.1149  0.8999  0.1823
 1595SOL    MW4 6154   4.606   0.054   3.037  0.8623 -0.0267 -0.1455
 1596SOL     OW 6155   2.596   1.009   5.170  0.0817 -0.5905  0.1664
 1596SOL    HW2 6156   2.601   1.093   5.215  2.5297 -0.3840 -0.3412
 1596SOL    HW3 6157   2.660   0.954   5.215  0.4658 -1.2911 -1.1789
 1596SOL    MW4 6158   2.605   1.013   5.182  0.4554 -0.6557 -0.0781
 1597SOL     OW 6159   4.760   2.360   3.820  0.1412  0.0001 -0.3491
 1597SOL    HW2 6160   4.683   2.415   3.823  0.6132  0.6926 -0.6594
 1597SOL    HW3 6161   4.750   2.309   3.739 -0.0584 -0.0184 -0.3123
 1597SOL    MW4 6162   4.749   2.360   3.809  0.1771  0.0890 -0.3852
 1598SOL     OW 6163   4.589   5.412   1.137  0.1713 -0.3574  0.6602
 1598SOL    HW2 6164   4.599   5.404   1.232  0.2474 -1.0395  0.6043
 1598SOL    HW3 6165   4.495   5.404   1.122  0.1701 -0.3692  0.6742
 1598SOL    MW4 6166   4.578   5.410   1.148  0.1812 -0.4490  0.6547
 1599SOL     OW 6167   5.565   5.691   1.915 -0.0984 -0.4881  0.1737
 1599SOL    HW2 6168   5.508   5.710   1.990  0.0528  3.1447 -0.4398
 1599SOL    HW3 6169   5.509   5.704   1.839  0.6729 -0.3618 -0.3864
 1599SOL    MW4 6170   5.550   5.696   1.915  0.0233  0.0079  0.0189
 1600SOL     OW 6171   3.040   2.284   0.554  0.7620  0.2855 -0.5448
 1600SOL    HW2 6172   3.058   2.208   0.500 -1.0311 -1.8037  1.5664
 1600SOL    HW3 6173   3.051   2.253   0.644 -0.7812  2.2829  0.4279
 1600SOL    MW4 6174   3.044   2.270   0.559  0.3218  0.2734 -0.1379
 1601SOL     OW 6175   1.968   1.617   1.166 -0.0944  0.2146 -0.3020
 1601SOL    HW2 6176   2.006   1.543   1.214 -0.0837 -0.2371 -0.9883
 1601SOL    HW3 6177   1.944   1.680   1.234 -0.7856 -0.7344  0.3591
 1601SOL    MW4 6178   1.970   1.615   1.181 -0.1842  0.0298 -0.3054
 1602SOL     OW 6179   1.443   4.063   1.233 -0.6103  0.3564  0.3048
 1602SOL    HW2 6180   1.430   4.154   1.260 -1.7095  0.5358 -0.7237
 1602SOL    HW3 6181   1.499   4.025   1.301 -0.5031  1.6752  0.9822
 1602SOL    MW4 6182   1.449   4.070   1.245 -0.7412  0.5541  0.2585
 1603SOL     OW 6183   5.456   3.615   4.353 -0.4275  0.1939 -0.6110
 1603SOL    HW2 6184   5.419   3.543   4.301 -0.3761 -1.1446  1.1232
 1603SOL    HW3 6185   5.437   3.694   4.302 -0.4615 -1.0307 -2.5882
 1603SOL    MW4 6186   5.449   3.616   4.339 -0.4252 -0.1443 -0.6430
 1604SOL     OW 6187   3.687   3.723   4.379  0.0827 -0.2591 -0.1536
 1604SOL    HW2 6188   3.642   3.706   4.296  3.0200 -0.9560 -1.7121
 1604SOL    HW3 6189   3.674   3.816   4.394  0.0628  0.0258 -1.7664
 1604SOL    MW4 6190   3.679   3.733   4.370  0.4676 -0.3134 -0.5720
 1605SOL     OW 6191   4.617   1.058   0.544  0.1503 -0.3742 -0.0484
 1605SOL    HW2 6192   4.670   0.996   0.594 -0.5391 -1.0038 -0.0733
 1605SOL    HW3 6193   4.579   1.116   0.610  1.2929  0.4325 -0.0767
 1605SOL    MW4 6194   4.619   1.057   0.559  0.2101 -0.3508 -0.0554
 1606SOL     OW 6195   6.250   5.198   1.125  0.2310  0.4277  0.0452
 1606SOL    HW2 6196   6.306   5.225   1.053 -0.2748  1.8485  0.1538
 1606SOL    HW3 6197   6.303   5.136   1.175  0.6959 -0.3439 -1.3522
 1606SOL    MW4 6198   6.264   5.194   1.122  0.2256  0.5133 -0.1248
 1607SOL     OW 6199   2.715   0.986   6.134 -0.6557 -0.3682 -0.1894
 1607SOL    HW2 6200   2.676   1.022   6.055  0.3336 -2.3039 -1.6681
 1607SOL    HW3 6201   2.650   0.925   6.167 -0.5862 -0.4695 -0.2376
 1607SOL    MW4 6202   2.701   0.983   6.128 -0.5160 -0.6369 -0.3909
 1608SOL     OW 6203   6.327   2.698   1.519 -0.2544 -0.0378  0.3019
 1608SOL    HW2 6204   6.249   2.658   1.480  0.1700 -0.8777  0.3056
 1608SOL    HW3 6205   6.312   2.691   1.614  0.0414 -0.6413  0.3077
 1608SOL    MW4 6206   6.314   2.692   1.527 -0.1594 -0.2282  0.3031
 1609SOL     OW 6207   4.593   3.493   4.547 -0.4542  0.6778 -0.4716
 1609SOL    HW2 6208   4.579   3.475   4.640 -1.5314  3.0653 -0.1109
 1609SOL    HW3 6209   4.678   3.536   4.543 -0.0557 -0.1086 -0.7205
 1609SOL    MW4 6210   4.603   3.496   4.558 -0.5438  0.8891 -0.4569
 1610SOL     OW 6211   3.129   2.999   3.224  0.5044 -0.0616 -0.6312
 1610SOL    HW2 6212   3.091   3.063   3.284  2.2885  0.3586  0.1046
 1610SOL    HW3 6213   3.217   3.033   3.205  1.2937 -1.9946 -0.6755
 1610SOL    MW4 6214   3.136   3.012   3.229  0.8439 -0.2612 -0.5400
 1611SOL     OW 6215   1.993   5.964   2.519  0.4198 -0.1784 -0.1231
 1611SOL    HW2 6216   1.956   5.876   2.530 -0.0632 -0.0085 -0.3709
 1611SOL    HW3 6217   1.969   6.010   2.600  0.4185 -0.1868 -0.1189
 1611SOL    MW4 6218   1.985   5.958   2.531  0.3559 -0.1571 -0.1553
 1612SOL     OW 6219   3.609   4.646   0.803  0.2854  0.1621 -0.3042
 1612SOL    HW2 6220   3.534   4.591   0.780  0.5120 -0.9620  1.4549
 1612SOL    HW3 6221   3.679   4.584   0.824  1.2767  1.1800 -0.4955
 1612SOL    MW4 6222   3.608   4.631   0.803  0.4461  0.1481 -0.0973
 1613SOL     OW 6223   6.162   1.088   2.809 -0.1397 -0.3725  0.4845
 1613SOL    HW2 6224   6.141   1.180   2.822  1.3653 -0.1003  1.2128
 1613SOL    HW3 6225   6.239   1.073   2.864 -0.8941 -2.2920  1.1091
 1613SOL    MW4 6226   6.169   1.098   2.818 -0.0407 -0.5898  0.6630
 1614SOL     OW 6227   4.604   3.412   3.267  0.4056  0.4859  0.0498
 1614SOL    HW2 6228   4.614   3.342   3.203 -1.5003  1.5054 -1.4649
 1614SOL    HW3 6229   4.533   3.383   3.325 -0.2247  1.0248 -0.4344
 1614SOL    MW4 6230   4.596   3.399   3.266  0.0710  0.6915 -0.2140
 1615SOL     OW 6231   3.769   0.111   4.987  0.1021  1.1551 -0.6742
 1615SOL    HW2 6232   3.821   0.109   4.907  2.0566 -1.6714  0.4883
 1615SOL    HW3 6233   3.706   0.039   4.977  1.1312 -0.0065  0.6854
 1615SOL    MW4 6234   3.767   0.101   4.975  0.4957  0.6289 -0.3414
 1616SOL     OW 6235   2.971   0.596   5.148 -0.5545  0.3012  0.8608
 1616SOL    HW2 6236   2.953   0.676   5.098  2.8986 -0.2463 -1.6485
 1616SOL    HW3 6237   3.054   0.614   5.192 -0.1058 -1.5967  0.8672
 1616SOL    MW4 6238   2.980   0.609   5.147 -0.0397 -0.0215  0.5306
 1617SOL     OW 6239   4.980   4.812   3.601  0.3491  0.3446 -0.2565
 1617SOL    HW2 6240   5.034   4.748   3.555 -0.0242 -0.0650 -0.1214
 1617SOL    HW3 6241   4.925   4.760   3.659  0.8108  0.8515  0.6598
 1617SOL    MW4 6242   4.980   4.797   3.603  0.3608  0.3574 -0.1178
 1618SOL     OW 6243   2.912   1.020   4.708 -0.0220  0.1048  0.2856
 1618SOL    HW2 6244   2.883   1.024   4.799  0.3235 -0.5371  0.4369
 1618SOL    HW3 6245   2.917   1.111   4.679 -1.6930  0.2615  0.3963
 1618SOL    MW4 6246   2.909   1.032   4.716 -0.1969  0.0408  0.3202
 1619SOL     OW 6247   0.500   3.138   0.931 -0.2001 -0.0362 -0.0982
 1619SOL    HW2 6248   0.585   3.160   0.892 -0.1443  1.3720  0.7512
 1619SOL    HW3 6249   0.439   3.144   0.858  0.1178  1.1716 -0.2932
 1619SOL    MW4 6250   0.504   3.142   0.916 -0.1508  0.3090 -0.0119
 1620SOL     OW 6251   5.395   1.761   5.932  0.3903 -0.0195 -0.1472
 1620SOL    HW2 6252   5.418   1.837   5.986  1.6470 -0.2864 -0.2924
 1620SOL    HW3 6253   5.382   1.796   5.844 -1.5970  0.4071  0.2564
 1620SOL    MW4 6254   5.396   1.776   5.928  0.2939  0.0016 -0.1131
 1621SOL     OW 6255   4.190   6.192   1.555  0.4231 -0.0997  0.1457
 1621SOL    HW2 6256   4.161   6.124   1.615 -0.3047 -0.4761 -0.6170
 1621SOL    HW3 6257   4.256   6.150   1.500 -0.3663 -0.3456 -0.6395
 1621SOL    MW4 6258   4.195   6.178   1.556  0.2229 -0.1818 -0.0585
 1622SOL     OW 6259   6.387   2.129   5.467  0.2698 -0.2936 -0.2411
 1622SOL    HW2 6260   6.438   2.068   5.521  0.6549 -1.2198 -1.6134
 1622SOL    HW3 6261   6.429   2.126   5.381 -0.4568  1.0079 -0.6659
 1622SOL    MW4 6262   6.399   2.121   5.463  0.2248 -0.2441 -0.4782
 1623SOL     OW 6263   1.878   0.706   0.600  0.0284 -0.4328  0.4072
 1623SOL    HW2 6264   1.970   0.683   0.587 -0.3407 -1.7118 -0.1384
 1623SOL    HW3 6265   1.831   0.650   0.538 -1.0392  1.1554 -0.2987
 1623SOL    MW4 6266   1.884   0.695   0.590 -0.1612 -0.3920  0.2421
 1624SOL     OW 6267   0.051   3.603   1.126  0.2859  0.1600 -0.0279
 1624SOL    HW2 6268   0.111   3.591   1.052 -0.3177  0.6993 -0.6233
 1624SOL    HW3 6269   0.057   3.521   1.175  1.9981  0.4414  0.3118
 1624SOL    MW4 6270   0.060   3.590   1.123  0.4322  0.2683 -0.0616
 1625SOL     OW 6271   2.875   0.715   1.907 -0.0538  0.3684  0.0701
 1625SOL    HW2 6272   2.837   0.757   1.984  0.6017  0.2831  0.4548
 1625SOL    HW3 6273   2.816   0.642   1.887 -0.1060  0.2504  0.6387
 1625SOL    MW4 6274   2.862   0.711   1.914  0.0258  0.3416  0.1958
 1626SOL     OW 6275   0.656   5.127   4.442 -0.4769 -0.2414 -0.1848
 1626SOL    HW2 6276   0.739   5.175   4.445 -0.3567 -0.4882  1.6569
 1626SOL    HW3 6277   0.681   5.035   4.446 -0.8388 -0.2985  1.1368
 1626SOL    MW4 6278   0.670   5.121   4.443 -0.5088 -0.2815  0.2325
 1627SOL     OW 6279   3.509   3.235   1.924 -0.3425 -0.0141  0.3870
 1627SOL    HW2 6280   3.528   3.308   1.865  0.1132 -0.4939 -0.0684
 1627SOL    HW3 6281   3.538   3.265   2.010  1.1037 -0.1609 -0.0371
 1627SOL    MW4 6282   3.515   3.249   1.927 -0.0916 -0.0967  0.2709
 1628SOL     OW 6283   4.601   2.781   1.729 -0.3244 -0.0303 -0.1728
 1628SOL    HW2 6284   4.654   2.840   1.783 -2.7117  0.6552  1.5838
 1628SOL    HW3 6285   4.575   2.711   1.788 -3.7220  1.1834 -0.0016
 1628SOL    MW4 6286   4.605   2.780   1.744 -1.0877  0.2203  0.0815
 1629SOL     OW 6287   0.108   4.120   5.925 -0.7432 -0.1734 -0.2801
 1629SOL    HW2 6288   0.190   4.124   5.974 -0.8011 -0.1581 -0.1829
 1629SOL    HW3 6289   0.134   4.126   5.833 -0.6550  0.0570 -0.2393
 1629SOL    MW4 6290   0.122   4.121   5.919 -0.7392 -0.1410 -0.2619
 1630SOL     OW 6291   4.898   3.880   4.832 -0.2710  0.6340  0.3135
 1630SOL    HW2 6292   4.867   3.797   4.795  0.5344  0.5970 -0.3117
 1630SOL    HW3 6293   4.858   3.884   4.919 -0.5385 -0.2818  0.2444
 1630SOL    MW4 6294   4.889   3.869   4.839 -0.2000  0.5083  0.2219
 1631SOL     OW 6295   1.406   0.173   0.036 -0.8573 -0.0869  0.0354
 1631SOL    HW2 6296   1.392   0.078   0.034  0.2089 -0.2455 -0.0871
 1631SOL    HW3 6297   1.437   0.190   0.125  0.7498 -0.1210 -0.5011
 1631SOL    MW4 6298   1.408   0.163   0.048 -0.5046 -0.1123 -0.0516
 1632SOL     OW 6299   6.165   1.688   6.347 -0.0091  0.5440  0.3993
 1632SOL    HW2 6300   6.225   1.759   6.370  0.5811  0.7075 -1.4582
 1632SOL    HW3 6301   6.080   1.730   6.339 -0.0977  0.6008  1.5282
 1632SOL    MW4 6302   6.162   1.703   6.349  0.0571  0.5730  0.3032
 1633SOL     OW 6303   6.214   4.408   2.792 -0.9278  0.0059  0.3309
 1633SOL    HW2 6304   6.231   4.353   2.868 -1.3828 -0.0219  0.4111
 1633SOL    HW3 6305   6.123   4.391   2.769 -0.2419 -1.5887 -1.5149
 1633SOL    MW4 6306   6.204   4.399   2.799 -0.8973 -0.2082  0.0980
 1634SOL     OW 6307   3.014   0.225   0.912 -0.1440  0.2450  0.1522
 1634SOL    HW2 6308   3.106   0.237   0.937  0.0329  1.1916 -0.8914
 1634SOL    HW3 6309   2.975   0.312   0.919 -0.9505 -0.1259  0.4720
 1634SOL    MW4 6310   3.021   0.238   0.917 -0.2271  0.3209  0.0567
 1635SOL     OW 6311   4.286   2.878   3.336  0.2083  0.0634 -0.5003
 1635SOL    HW2 6312   4.344   2.879   3.260  0.3424 -1.3124 -0.4509
 1635SOL    HW3 6313   4.205   2.839   3.304  0.6361 -1.5525  0.2754
 1635SOL    MW4 6314   4.283   2.873   3.322  0.2824 -0.3313 -0.3914
 1636SOL     OW 6315   3.094   0.862   2.244  0.1614 -0.0592 -0.2230
 1636SOL    HW2 6316   3.134   0.897   2.164  0.5696  0.6460  0.2795
 1636SOL    HW3 6317   3.005   0.839   2.218 -0.2006  1.5546 -0.5427
 1636SOL    MW4 6318   3.087   0.863   2.230  0.1675  0.2468 -0.1989
 1637SOL     OW 6319   2.185   3.598   0.112  0.6918  0.3027 -0.1557
 1637SOL    HW2 6320   2.260   3.540   0.125 -0.4387 -1.2793 -0.2973
 1637SOL    HW3 6321   2.138   3.594   0.196 -0.7812 -1.1533 -0.9789
 1637SOL    MW4 6322   2.188   3.590   0.125  0.3483 -0.0981 -0.2830
 1638SOL     OW 6323   4.750   2.070   4.299  0.2788 -0.1442  0.3526
 1638SOL    HW2 6324   4.798   2.152   4.299  0.8916 -0.4764  1.6484
 1638SOL    HW3 6325   4.751   2.041   4.391 -0.6828 -1.1511  0.0731
 1638SOL    MW4 6326   4.756   2.077   4.311  0.2328 -0.3209  0.4867
 1639SOL     OW 6327   5.310   4.435   4.886 -0.5171 -0.1953 -0.4452
 1639SOL    HW2 6328   5.386   4.474   4.842 -0.7520 -1.7912 -2.4353
 1639SOL    HW3 6329   5.236   4.460   4.831 -1.2800  0.3376  0.8065
 1639SOL    MW4 6330   5.310   4.443   4.873 -0.6487 -0.3356 -0.5426
 1640SOL     OW 6331   3.003   0.622   3.643 -0.1128 -0.2107 -0.3072
 1640SOL    HW2 6332   3.033   0.607   3.733 -2.3388 -0.1172  0.5214
 1640SOL    HW3 6333   3.044   0.705   3.618 -0.8251  0.6998  1.3384
 1640SOL    MW4 6334   3.012   0.631   3.652 -0.5005 -0.0783  0.0192
 1641SOL     OW 6335   5.662   2.664   0.721  0.3735  0.3797 -0.5532
 1641SOL    HW2 6336   5.687   2.615   0.800  0.3456  2.3209  0.7153
 1641SOL    HW3 6337   5.636   2.750   0.753 -0.8518  0.8374 -2.5768
 1641SOL    MW4 6338   5.662   2.669   0.736  0.2082  0.6962 -0.6528
 1642SOL     OW 6339   2.531   2.258   4.112 -0.4507 -0.3633  1.0676
 1642SOL    HW2 6340   2.476   2.202   4.058 -0.8842  0.9368  0.1214
 1642SOL    HW3 6341   2.469   2.311   4.162 -0.0905  0.8914  0.2302
 1642SOL    MW4 6342   2.515   2.257   4.112 -0.4604 -0.0262  0.8323
 1643SOL     OW 6343   4.808   5.992   6.196  0.6760 -0.5975 -0.0382
 1643SOL    HW2 6344   4.761   5.909   6.192 -0.4898  0.0445  0.0508
 1643SOL    HW3 6345   4.858   5.995   6.114  0.4702 -1.2247 -0.1934
 1643SOL    MW4 6346   4.808   5.981   6.185  0.4950 -0.5956 -0.0469
 1644SOL     OW 6347   4.401   4.906   1.467 -0.0454  0.3071 -0.1609
 1644SOL    HW2 6348   4.486   4.861   1.464 -0.6906 -0.9572 -0.1604
 1644SOL    HW3 6349   4.413   4.982   1.410  0.5925 -0.7853 -1.5598
 1644SOL    MW4 6350   4.414   4.910   1.459 -0.0464 -0.0038 -0.3454
 1645SOL     OW 6351   3.151   0.901   4.648  0.3105  0.7501  0.1230
 1645SOL    HW2 6352   3.204   0.976   4.672  0.7923  0.1793  0.8809
 1645SOL    HW3 6353   3.060   0.931   4.660  0.5091  0.6909  2.1213
 1645SOL    MW4 6354   3.146   0.915   4.653  0.4003  0.6670  0.4866
 1646SOL     OW 6355   5.946   0.543   5.739 -0.6204 -0.9944  0.0746
 1646SOL    HW2 6356   5.989   0.589   5.811 -1.8363 -0.0294  0.2070
 1646SOL    HW3 6357   5.887   0.481   5.782 -3.1571  1.2341  0.0303
 1646SOL    MW4 6358   5.944   0.541   5.754 -1.1155 -0.5731  0.0862
 1647SOL     OW 6359   2.505   3.016   3.667 -0.2642  0.2208 -0.0824
 1647SOL    HW2 6360   2.436   3.010   3.600  0.4728  0.7557 -0.9119
 1647SOL    HW3 6361   2.558   3.091   3.639  1.1128 -0.6706  0.1060
 1647SOL    MW4 6362   2.503   3.025   3.654  0.0147  0.1738 -0.1670
 1648SOL     OW 6363   0.315   4.064   6.109 -0.5536 -0.1478  0.7943
 1648SOL    HW2 6364   0.259   4.022   6.174 -1.2809 -0.0573  0.2386
 1648SOL    HW3 6365   0.400   4.023   6.120 -0.7627 -0.3853  1.5610
 1648SOL    MW4 6366   0.319   4.053   6.119 -0.6771 -0.1672  0.8222
 1649SOL     OW 6367   0.744   2.915   2.877 -0.1223 -0.2650 -0.1942
 1649SOL    HW2 6368   0.649   2.919   2.890 -0.3190 -0.9264 -1.3929
 1649SOL    HW3 6369   0.777   2.992   2.925 -1.3199  0.3604 -0.3269
 1649SOL    MW4 6370   0.736   2.926   2.885 -0.3062 -0.2698 -0.3699
 1650SOL     OW 6371   0.508   5.455   1.309  0.4108  0.1452 -0.2143
 1650SOL    HW2 6372   0.585   5.402   1.326  1.0065  1.1718  0.3766
 1650SOL    HW3 6373   0.444   5.427   1.374  1.3521  1.3765  1.3248
 1650SOL    MW4 6374   0.509   5.444   1.320  0.6136  0.4431  0.0667
 1651SOL     OW 6375   5.576   6.320   5.267 -0.3623 -0.0658  0.2118
 1651SOL    HW2 6376   5.545   6.374   5.194 -0.4557  1.7163  1.4934
 1651SOL    HW3 6377   5.590   6.383   5.338  2.6809 -1.2858  0.8345
 1651SOL    MW4 6378   5.573   6.336   5.266  0.0269  0.0083  0.4631
 1652SOL     OW 6379   2.728   4.531   2.861  0.9130 -0.5508  0.2391
 1652SOL    HW2 6380   2.768   4.618   2.854 -0.8752  0.4051  1.0996
 1652SOL    HW3 6381   2.662   4.541   2.930  0.7703 -2.6579  0.4716
 1652SOL    MW4 6382   2.725   4.544   2.869  0.6582 -0.7027  0.3833
 1653SOL     OW 6383   1.163   5.894   4.678  0.2021  0.1292 -0.0131
 1653SOL    HW2 6384   1.096   5.921   4.741 -0.1484 -0.1897 -0.2428
 1653SOL    HW3 6385   1.131   5.926   4.593  0.3204 -0.0622 -0.1315
 1653SOL    MW4 6386   1.150   5.902   4.675  0.1714  0.0619 -0.0590
 1654SOL     OW 6387   3.569   3.688   2.770 -0.6412 -0.0774  0.0999
 1654SOL    HW2 6388   3.612   3.768   2.799 -0.1999  0.0352 -0.8365
 1654SOL    HW3 6389   3.542   3.707   2.680  0.3555 -1.3191 -0.4858
 1654SOL    MW4 6390   3.571   3.701   2.762 -0.4515 -0.2264 -0.1009
 1655SOL     OW 6391   2.101   4.030   5.883  0.2513 -0.0360 -1.0063
 1655SOL    HW2 6392   2.077   4.101   5.942  1.0178 -0.6250  0.0450
 1655SOL    HW3 6393   2.139   3.963   5.940  0.2598 -0.9718 -2.0667
 1655SOL    MW4 6394   2.103   4.030   5.899  0.3535 -0.2372 -1.0075
 1656SOL     OW 6395   5.380   5.750   2.123 -0.0995 -0.0198 -0.3467
 1656SOL    HW2 6396   5.397   5.683   2.190  0.8042  0.3177 -0.2313
 1656SOL    HW3 6397   5.397   5.833   2.167  0.6046  0.2038 -1.0273
 1656SOL    MW4 6398   5.384   5.752   2.138  0.1126  0.0542 -0.4213
 1657SOL     OW 6399   3.410   5.516   6.099  0.3026 -0.6971 -0.1755
 1657SOL    HW2 6400   3.433   5.480   6.184  0.2920  0.6900  0.4369
 1657SOL    HW3 6401   3.410   5.611   6.112  1.4248 -0.4004 -1.9965
 1657SOL    MW4 6402   3.413   5.524   6.112  0.4492 -0.4749 -0.3350
 1658SOL     OW 6403   0.452   5.385   2.516  0.3722 -0.3537 -0.6837
 1658SOL    HW2 6404   0.516   5.456   2.510 -0.1944  0.1024 -1.4927
 1658SOL    HW3 6405   0.450   5.362   2.609  1.5471 -0.2322 -0.6165
 1658SOL    MW4 6406   0.460   5.391   2.527  0.4525 -0.2775 -0.7816
 1659SOL     OW 6407   1.384   5.985   4.841  0.1957 -0.0561 -0.9438
 1659SOL    HW2 6408   1.302   5.952   4.803 -0.4969 -0.4423  0.7792
 1659SOL    HW3 6409   1.451   5.923   4.812 -0.4038 -0.6794 -1.0195
 1659SOL    MW4 6410   1.382   5.973   4.832  0.0252 -0.1893 -0.7265
 1660SOL     OW 6411   1.678   1.996   0.024 -0.5040 -0.4751 -0.3975
 1660SOL    HW2 6412   1.651   1.996  -0.068 -1.2108 -0.7154 -0.2013
 1660SOL    HW3 6413   1.602   1.959   0.070 -0.2525 -0.1186  0.3057
 1660SOL    MW4 6414   1.664   1.991   0.018 -0.5641 -0.4598 -0.2788
 1661SOL     OW 6415   5.235   2.373   5.520  0.3459  0.2726 -0.1713
 1661SOL    HW2 6416   5.304   2.324   5.475 -0.3800  0.4908 -1.5767
 1661SOL    HW3 6417   5.169   2.307   5.540  0.2664  0.3274 -0.2525
 1661SOL    MW4 6418   5.235   2.358   5.517  0.2396  0.3086 -0.3675
 1662SOL     OW 6419   3.151   4.226   2.525  0.1791 -0.0846  0.2862
 1662SOL    HW2 6420   3.179   4.317   2.540 -0.2677 -0.2349  2.3091
 1662SOL    HW3 6421   3.056   4.228   2.538 -0.0081 -0.6399 -0.8767
 1662SOL    MW4 6422   3.142   4.239   2.528  0.0954 -0.1777  0.3997
 1663SOL     OW 6423   3.043   5.628   6.210 -0.2581  0.3614  0.4663
 1663SOL    HW2 6424   3.004   5.541   6.210  0.0208  0.2387  0.2788
 1663SOL    HW3 6425   2.982   5.681   6.262 -0.7834  0.2180  0.0005
 1663SOL    MW4 6426   3.030   5.624   6.217 -0.2906  0.3263  0.3801
 1664SOL     OW 6427   1.079   3.531   4.313  0.2271 -0.9240  0.3341
 1664SOL    HW2 6428   1.098   3.474   4.388  1.2584  0.4412  1.1631
 1664SOL    HW3 6429   1.161   3.535   4.264 -0.0240 -0.6951 -0.0705
 1664SOL    MW4 6430   1.093   3.524   4.316  0.3300 -0.7137  0.3901
 1665SOL     OW 6431   0.773   2.853   4.796 -0.3344 -0.5008 -0.5479
 1665SOL    HW2 6432   0.864   2.856   4.765 -0.2719 -0.3009 -0.3469
 1665SOL    HW3 6433   0.742   2.767   4.770 -0.1828 -0.4519 -0.8937
 1665SOL    MW4 6434   0.781   2.842   4.788 -0.3061 -0.4680 -0.5670
 1666SOL     OW 6435   0.155   3.172   1.133  0.0220  0.4623  0.1573
 1666SOL    HW2 6436   0.118   3.085   1.118  0.4495  0.3364 -0.1784
 1666SOL    HW3 6437   0.124   3.196   1.221 -3.3307  1.6457 -1.1862
 1666SOL    MW4 6438   0.146   3.163   1.143 -0.3640  0.6019 -0.0643
 1667SOL     OW 6439   5.540   0.276   4.487 -0.0979  0.0672  0.5583
 1667SOL    HW2 6440   5.484   0.341   4.530 -1.1153 -1.1725  1.1462
 1667SOL    HW3 6441   5.535   0.199   4.543  0.7526 -0.6801 -0.3611
 1667SOL    MW4 6442   5.532   0.275   4.500 -0.1199 -0.1950  0.5146
 1668SOL     OW 6443   2.937   5.864   1.790 -0.0296  0.2095 -0.2188
 1668SOL    HW2 6444   2.918   5.957   1.776  0.4577  0.6443  1.7322
 1668SOL    HW3 6445   3.026   5.863   1.823  0.6851 -1.1629 -2.0024
 1668SOL    MW4 6446   2.946   5.876   1.792  0.1290  0.0858 -0.1967
 1669SOL     OW 6447   0.458   5.506   4.020 -0.3833  0.3003 -0.3159
 1669SOL    HW2 6448   0.506   5.430   3.988 -0.8514  0.0446 -0.4044
 1669SOL    HW3 6449   0.413   5.476   4.099 -0.6315  0.4670 -0.3928
 1669SOL    MW4 6450   0.458   5.492   4.026 -0.4778  0.2885 -0.3377
 1670SOL     OW 6451   3.188   1.180   1.317 -0.2614 -0.1971 -0.2492
 1670SOL    HW2 6452   3.155   1.137   1.238 -2.0398  1.0285 -0.2285
 1670SOL    HW3 6453   3.250   1.245   1.285 -3.0197  2.2421 -0.9963
 1670SOL    MW4 6454   3.192   1.183   1.303 -0.8600  0.2864 -0.3450
 1671SOL     OW 6455   4.360   1.692   2.415  0.4839  0.1892 -0.3219
 1671SOL    HW2 6456   4.415   1.614   2.420  1.0076  0.5297 -0.7181
 1671SOL    HW3 6457   4.421   1.765   2.416  0.0453  0.5723 -0.8896
 1671SOL    MW4 6458   4.375   1.692   2.416  0.4951  0.2847 -0.4490
 1672SOL     OW 6459   4.677   5.638   0.240 -0.2233 -0.3087  0.6571
 1672SOL    HW2 6460   4.768   5.646   0.211  0.2092  1.0516  2.2243
 1672SOL    HW3 6461   4.671   5.695   0.317 -2.0858 -1.3162  1.3330
 1672SOL    MW4 6462   4.688   5.646   0.246 -0.4120 -0.2621  0.9531
 1673SOL     OW 6463   3.074   0.936   1.716  0.8911  0.2713 -0.5728
 1673SOL    HW2 6464   3.137   0.971   1.653 -1.7481  1.5896 -2.6822
 1673SOL    HW3 6465   3.038   0.857   1.674  1.2507 -0.6198  0.7102
 1673SOL    MW4 6466   3.077   0.930   1.702  0.5903  0.3277 -0.6818
 1674SOL     OW 6467   5.702   3.274   2.573  0.2572  0.4285  0.1274
 1674SOL    HW2 6468   5.647   3.274   2.652 -1.3205  1.2842 -0.9149
 1674SOL    HW3 6469   5.738   3.185   2.568  0.8334  0.5061  2.0734
 1674SOL    MW4 6470   5.700   3.262   2.583  0.1251  0.5516  0.2466
 1675SOL     OW 6471   4.427   5.224   1.984  0.2782 -0.1518  0.1945
 1675SOL    HW2 6472   4.386   5.160   2.043  0.1425 -1.1120 -0.8909
 1675SOL    HW3 6473   4.517   5.193   1.975  0.3962  0.1997  0.1798
 1675SOL    MW4 6474   4.434   5.211   1.991  0.2759 -0.2321  0.0493
 1676SOL     OW 6475   0.656   6.336   0.440 -0.2167  0.5245 -0.1905
 1676SOL    HW2 6476   0.648   6.251   0.397 -1.8582  0.4313  0.2197
 1676SOL    HW3 6477   0.748   6.343   0.463  0.2427 -0.4793 -1.5501
 1676SOL    MW4 6478   0.667   6.326   0.437 -0.3726  0.3798 -0.3157
 1677SOL     OW 6479   4.826   2.731   4.508 -0.1349  0.4848 -0.2950
 1677SOL    HW2 6480   4.766   2.676   4.457  0.6336  0.3296 -1.0639
 1677SOL    HW3 6481   4.913   2.710   4.472  0.3253  1.0643  0.4610
 1677SOL    MW4 6482   4.830   2.721   4.497  0.0272  0.5408 -0.2967
 1678SOL     OW 6483   0.391   5.602   6.309 -0.3253 -0.3277 -0.5988
 1678SOL    HW2 6484   0.386   5.551   6.228 -2.1552 -0.6005 -0.3579
 1678SOL    HW3 6485   0.344   5.549   6.374  1.3164 -0.2261  0.7315
 1678SOL    MW4 6486   0.384   5.589   6.307 -0.3501 -0.3503 -0.3915
 1679SOL     OW 6487   1.025   4.090   1.268 -0.4573  0.1119 -0.5692
 1679SOL    HW2 6488   0.932   4.068   1.270 -0.1109 -1.4177  0.1857
 1679SOL    HW3 6489   1.057   4.052   1.187  0.0367 -1.9076  0.4952
 1679SOL    MW4 6490   1.017   4.082   1.258 -0.3464 -0.3564 -0.3292
 1680SOL     OW 6491   3.824   4.863   2.468  0.2462 -0.0210 -0.7062
 1680SOL    HW2 6492   3.805   4.925   2.539 -1.6042 -1.7240  0.3730
 1680SOL    HW3 6493   3.834   4.779   2.512  0.0715 -0.9542 -2.3878
 1680SOL    MW4 6494   3.823   4.860   2.483 -0.0210 -0.3688 -0.7857
 1681SOL     OW 6495   2.369   1.209   5.450  0.2820 -0.3203 -0.1708
 1681SOL    HW2 6496   2.371   1.167   5.536  0.1555 -0.2323 -0.1253
 1681SOL    HW3 6497   2.347   1.139   5.389 -0.6306 -0.1822 -0.0114
 1681SOL    MW4 6498   2.367   1.194   5.453  0.1449 -0.2905 -0.1437
 1682SOL     OW 6499   3.365   5.386   5.234 -0.1292  0.3053 -0.6542
 1682SOL    HW2 6500   3.380   5.299   5.269  0.8159  0.3259 -0.9637
 1682SOL    HW3 6501   3.451   5.428   5.237  0.2156  0.0449 -3.6841
 1682SOL    MW4 6502   3.378   5.380   5.239  0.0410  0.2736 -1.0948
 1683SOL     OW 6503   5.165   4.816   1.826 -0.0878  0.4323 -0.3946
 1683SOL    HW2 6504   5.106   4.816   1.901  0.0830  0.3097 -0.2582
 1683SOL    HW3 6505   5.252   4.816   1.865  0.0200 -0.9733 -0.5684
 1683SOL    MW4 6506   5.169   4.816   1.841 -0.0510  0.2307 -0.3995
 1684SOL     OW 6507   5.428   2.385   6.249  0.1086 -0.1280 -0.5392
 1684SOL    HW2 6508   5.462   2.452   6.308  2.3893 -2.5856  1.1705
 1684SOL    HW3 6509   5.369   2.432   6.190  0.4304  3.0572  1.4756
 1684SOL    MW4 6510   5.425   2.400   6.249  0.4520 -0.0320 -0.0478
 1685SOL     OW 6511   1.772   2.147   2.051  0.1400 -0.6645 -0.4249
 1685SOL    HW2 6512   1.708   2.204   2.007  1.4601  0.3166 -1.1684
 1685SOL    HW3 6513   1.732   2.126   2.135  0.4352  3.2713  0.9288
 1685SOL    MW4 6514   1.758   2.152   2.056  0.3531 -0.0158 -0.3444
 1686SOL     OW 6515   1.340   1.699   4.718  0.1685  0.2615 -0.1628
 1686SOL    HW2 6516   1.330   1.617   4.765  0.9219  0.1217 -0.2439
 1686SOL    HW3 6517   1.305   1.681   4.630 -0.4011  0.2668  0.0559
 1686SOL    MW4 6518   1.334   1.686   4.712  0.1928  0.2437 -0.1446
 1687SOL     OW 6519   3.748   3.595   5.106 -0.2326  0.4999 -0.0907
 1687SOL    HW2 6520   3.704   3.678   5.122 -1.1566 -0.1934  1.1753
 1687SOL    HW3 6521   3.814   3.589   5.175 -0.0371  0.2773 -0.2968
 1687SOL    MW4 6522   3.751   3.605   5.117 -0.3287  0.3791  0.0491
 1688SOL     OW 6523   5.557   2.628   6.339  0.0867  0.1903  0.0941
 1688SOL    HW2 6524   5.649   2.625   6.312  0.3519  1.6327  0.7320
 1688SOL    HW3 6525   5.518   2.695   6.283 -0.6863 -0.6858 -0.4371
 1688SOL    MW4 6526   5.564   2.636   6.328  0.0197  0.2650  0.1081
 1689SOL     OW 6527   3.877   4.086   3.864  0.9185 -0.2055  0.6012
 1689SOL    HW2 6528   3.908   3.996   3.874  2.3388  0.2380  0.4465
 1689SOL    HW3 6529   3.789   4.086   3.901  0.0846 -2.1070 -1.1648
 1689SOL    MW4 6530   3.870   4.074   3.870  0.9959 -0.3979  0.3478
 1690SOL     OW 6531   5.037   3.395   1.139 -0.2479 -0.1169  0.1161
 1690SOL    HW2 6532   4.993   3.357   1.063  0.0100 -1.2148  0.4893
 1690SOL    HW3 6533   5.114   3.439   1.103 -0.1779 -0.5468 -0.2721
 1690SOL    MW4 6534   5.042   3.396   1.124 -0.2047 -0.3185  0.1141
 1691SOL     OW 6535   3.558   1.112   1.866  0.1255  0.7850 -0.2699
 1691SOL    HW2 6536   3.557   1.016   1.857  1.2870  0.6892  0.5070
 1691SOL    HW3 6537   3.486   1.130   1.927 -0.4019  0.4684 -0.7744
 1691SOL    MW4 6538   3.548   1.102   1.873  0.2092  0.7306 -0.2340
 1692SOL     OW 6539   5.741   5.545   2.745 -0.2975 -0.4809  0.3349
 1692SOL    HW2 6540   5.712   5.458   2.772  2.3853 -1.2205  1.0704
 1692SOL    HW3 6541   5.660   5.597   2.744 -2.3602 -3.3595 -2.0923
 1692SOL    MW4 6542   5.726   5.541   2.749 -0.2157 -0.9583  0.1117
 1693SOL     OW 6543   4.616   1.887   2.745  0.2444  0.4246  0.3945
 1693SOL    HW2 6544   4.639   1.967   2.697  0.6191  0.3619  0.4693
 1693SOL    HW3 6545   4.694   1.866   2.796 -0.2494  0.6569  1.2639
 1693SOL    MW4 6546   4.630   1.895   2.745  0.2287  0.4470  0.5191
 1694SOL     OW 6547   4.710   2.372   4.370 -0.5516 -0.0644 -0.1192
 1694SOL    HW2 6548   4.787   2.383   4.315 -1.6145  1.7497 -1.3669
 1694SOL    HW3 6549   4.636   2.383   4.310 -1.7668  1.2040  1.4959
 1694SOL    MW4 6550   4.710   2.375   4.355 -0.8522  0.3423 -0.0707
 1695SOL     OW 6551   3.149   5.674   5.954  0.2841  0.6556  0.0727
 1695SOL    HW2 6552   3.136   5.667   6.048  0.5899 -1.1559  0.0163
 1695SOL    HW3 6553   3.069   5.716   5.921 -0.3983  0.0992  0.9918
 1695SOL    MW4 6554   3.137   5.679   5.962  0.2344  0.3432  0.1865
 1696SOL     OW 6555   3.657   0.874   1.714 -0.0384 -0.2941  0.0301
 1696SOL    HW2 6556   3.752   0.863   1.712  0.0472 -0.2034  1.9434
 1696SOL    HW3 6557   3.627   0.832   1.634  1.5056 -1.6026  0.0734
 1696SOL    MW4 6558   3.666   0.867   1.703  0.1766 -0.4548  0.2883
 1697SOL     OW 6559   0.794   5.351   2.386 -0.1252  0.2362 -0.0209
 1697SOL    HW2 6560   0.765   5.437   2.416  1.2401  0.7207 -0.0247
 1697SOL    HW3 6561   0.749   5.289   2.443 -0.4811  0.9910  0.5312
 1697SOL    MW4 6562   0.784   5.354   2.397  0.0080  0.3997  0.0515
 1698SOL     OW 6563   6.230   3.362   1.994  0.0018 -0.2890  0.0838
 1698SOL    HW2 6564   6.198   3.425   2.059 -0.7704  0.0731 -0.6211
 1698SOL    HW3 6565   6.156   3.302   1.980  0.7166 -1.3507  0.7214
 1698SOL    MW4 6566   6.216   3.363   2.001 -0.0058 -0.3813  0.0749
 1699SOL     OW 6567   3.129   3.175   3.793 -0.2147 -0.2564 -0.0539
 1699SOL    HW2 6568   3.170   3.094   3.762  0.4232  0.4201 -1.0079
 1699SOL    HW3 6569   3.141   3.238   3.722  1.2227  1.3181  1.4924
 1699SOL    MW4 6570   3.136   3.172   3.780  0.0591  0.0406  0.0243
 1700SOL     OW 6571   0.950   0.502   5.581  0.2200  0.6773  0.0041
 1700SOL    HW2 6572   0.987   0.573   5.529  0.7174  0.4427  0.0354
 1700SOL    HW3 6573   0.926   0.434   5.518  1.2764  0.1876  0.1097
 1700SOL    MW4 6574   0.951   0.502   5.566  0.4250  0.5817  0.0221
 1701SOL     OW 6575   1.835   2.316   5.078  0.0618 -0.4371  0.2572
 1701SOL    HW2 6576   1.791   2.267   5.148 -2.2116  0.9414 -0.0788
 1701SOL    HW3 6577   1.786   2.293   4.999  3.0525 -2.5435 -1.1357
 1701SOL    MW4 6578   1.822   2.307   5.077  0.1564 -0.5332  0.0291
 1702SOL     OW 6579   2.209   4.714   2.273 -0.0480  0.0492  0.6299
 1702SOL    HW2 6580   2.132   4.730   2.218 -0.4299 -2.6011  0.2393
 1702SOL    HW3 6581   2.189   4.631   2.317  3.5524 -2.1702 -1.4375
 1702SOL    MW4 6582   2.196   4.705   2.271  0.3766 -0.5933  0.3056
 1703SOL     OW 6583   5.002   4.639   0.589  0.8244  0.5546 -0.0838
 1703SOL    HW2 6584   4.941   4.602   0.654  1.1015 -0.2189 -0.2534
 1703SOL    HW3 6585   5.024   4.725   0.624  0.7271  0.2740  0.7013
 1703SOL    MW4 6586   4.997   4.645   0.602  0.8481  0.4156 -0.0026
 1704SOL     OW 6587   5.294   2.458   0.563  0.3781  0.2756 -0.6890
 1704SOL    HW2 6588   5.266   2.366   0.556 -0.6632  0.3546  1.6235
 1704SOL    HW3 6589   5.220   2.508   0.528  0.6451  0.2832 -1.2611
 1704SOL    MW4 6590   5.281   2.452   0.557  0.2760  0.2870 -0.4594
 1705SOL     OW 6591   1.252   1.735   5.105  0.2893 -0.1330 -0.4512
 1705SOL    HW2 6592   1.296   1.812   5.069 -0.9228  0.1284 -1.4217
 1705SOL    HW3 6593   1.212   1.692   5.030 -1.5852 -0.0607  0.4489
 1705SOL    MW4 6594   1.253   1.739   5.091 -0.1180 -0.0890 -0.4605
 1706SOL     OW 6595   2.764   1.811   2.536  0.5953 -0.4792 -0.8338
 1706SOL    HW2 6596   2.688   1.753   2.531 -0.3338  0.6757 -0.4496
 1706SOL    HW3 6597   2.727   1.899   2.549  2.0265 -0.0993  1.1579
 1706SOL    MW4 6598   2.749   1.815   2.537  0.6615 -0.2767 -0.5203
 1707SOL     OW 6599   1.201   5.934   1.061 -0.2056 -0.1800  0.3530
 1707SOL    HW2 6600   1.152   5.852   1.048 -0.9204  0.2973 -0.0361
 1707SOL    HW3 6601   1.258   5.939   0.985 -2.3256  1.1643 -1.2547
 1707SOL    MW4 6602   1.202   5.924   1.049 -0.5796  0.0604  0.0895
 1708SOL     OW 6603   5.597   0.688   1.877  0.6339  0.1510  0.4097
 1708SOL    HW2 6604   5.548   0.642   1.809 -0.1757  1.5849 -0.0352
 1708SOL    HW3 6605   5.677   0.637   1.888 -0.1579 -1.2668 -0.1203
 1708SOL    MW4 6606   5.601   0.676   1.869  0.4226  0.1531  0.2811
 1709SOL     OW 6607   2.202   5.439   1.450  0.2847  0.1180 -0.0964
 1709SOL    HW2 6608   2.136   5.509   1.446 -1.9698 -1.8944 -1.2696
 1709SOL    HW3 6609   2.253   5.449   1.369  0.5874  0.9290  0.1877
 1709SOL    MW4 6610   2.200   5.449   1.438  0.0272 -0.0405 -0.2137
 1710SOL     OW 6611   0.912   0.362   6.269  0.4390  0.5483  0.2054
 1710SOL    HW2 6612   1.000   0.326   6.261  0.2397 -0.3081  1.5560
 1710SOL    HW3 6613   0.855   0.285   6.271 -0.3438  1.0863 -0.4901
 1710SOL    MW4 6614   0.916   0.347   6.268  0.3094  0.5063  0.2918
 1711SOL     OW 6615   1.483   2.550   0.110 -0.0754  0.4013  0.7756
 1711SOL    HW2 6616   1.472   2.644   0.122  0.1233  0.4371  0.6820
 1711SOL    HW3 6617   1.513   2.519   0.196  2.2595  0.7995  0.1715
 1711SOL    MW4 6618   1.486   2.558   0.123  0.2589  0.4586  0.6835
 1712SOL     OW 6619   3.104   3.721   2.563  0.5476  0.1305  0.3242
 1712SOL    HW2 6620   3.089   3.720   2.658  1.7166  0.3082  0.5234
 1712SOL    HW3 6621   3.020   3.746   2.526 -0.1108 -0.5811  1.2771
 1712SOL    MW4 6622   3.091   3.724   2.571  0.6150  0.0601  0.4762
 1713SOL     OW 6623   2.247   6.185   1.012  0.1874  0.2927  0.5436
 1713SOL    HW2 6624   2.288   6.259   0.967 -0.8246  0.9307  0.6403
 1713SOL    HW3 6625   2.254   6.206   1.105 -0.4925  0.4972  0.5569
 1713SOL    MW4 6626   2.253   6.197   1.018 -0.0358  0.4039  0.5581
 1714SOL     OW 6627   0.758   1.976   1.675  0.1094 -0.1246 -0.4066
 1714SOL    HW2 6628   0.798   1.938   1.597 -0.3533  0.3866 -0.9079
 1714SOL    HW3 6629   0.830   2.021   1.720  0.2587  0.1169 -0.8797
 1714SOL    MW4 6630   0.772   1.977   1.670  0.0681 -0.0253 -0.5351
 1715SOL     OW 6631   0.283   1.890   4.358  0.7462  0.2241 -0.3377
 1715SOL    HW2 6632   0.243   1.805   4.376  3.3427 -0.7489  1.4203
 1715SOL    HW3 6633   0.262   1.907   4.266 -3.0961 -0.3853  0.2672
 1715SOL    MW4 6634   0.275   1.881   4.348  0.5818  0.0153 -0.0259
 1716SOL     OW 6635   3.186   0.601   5.632 -0.2467 -0.1891 -0.1229
 1716SOL    HW2 6636   3.244   0.552   5.573 -0.4706  0.9812 -1.3668
 1716SOL    HW3 6637   3.193   0.555   5.715  1.2709 -0.9956 -0.6464
 1716SOL    MW4 6638   3.194   0.588   5.635 -0.0760 -0.1411 -0.3561
 1717SOL     OW 6639   2.834   2.686   2.145  0.1660  0.1674  0.3184
 1717SOL    HW2 6640   2.861   2.777   2.136 -1.3112  0.4914 -1.2465
 1717SOL    HW3 6641   2.764   2.688   2.210 -1.2802  0.5022 -1.1929
 1717SOL    MW4 6642   2.828   2.698   2.152 -0.2197  0.2543 -0.0874
 1718SOL     OW 6643   1.977   3.892   0.723 -0.1382  0.3795  0.8326
 1718SOL    HW2 6644   1.959   3.818   0.781  0.5717 -1.4875 -1.1840
 1718SOL    HW3 6645   2.070   3.911   0.737  0.0358 -0.0781  0.3414
 1718SOL    MW4 6646   1.987   3.885   0.733 -0.0216  0.0728  0.5017
 1719SOL     OW 6647   1.430   3.556   2.339  0.1036  0.0758 -0.0241
 1719SOL    HW2 6648   1.501   3.538   2.400  0.0430 -1.8992 -0.4880
 1719SOL    HW3 6649   1.473   3.558   2.253 -0.2155  0.1554 -0.1807
 1719SOL    MW4 6650   1.445   3.554   2.336  0.0535 -0.1743 -0.1060
 1720SOL     OW 6651   3.935   4.961   1.632 -0.7511  0.5699  0.3874
 1720SOL    HW2 6652   3.917   4.990   1.543 -0.0440  1.8400  0.6338
 1720SOL    HW3 6653   3.900   5.032   1.687 -0.8254 -0.0158  1.1064
 1720SOL    MW4 6654   3.928   4.975   1.628 -0.6676  0.6602  0.5148
 1721SOL     OW 6655   5.640   0.952   6.342  0.3344  0.5893 -0.2995
 1721SOL    HW2 6656   5.689   0.892   6.287  2.0448 -1.0263  2.7131
 1721SOL    HW3 6657   5.565   0.901   6.374  0.1755  0.9964  0.0001
 1721SOL    MW4 6658   5.637   0.937   6.339  0.5391  0.4299  0.1375
 1722SOL     OW 6659   5.476   0.034   5.035 -0.3292  0.4018 -0.5658
 1722SOL    HW2 6660   5.413  -0.032   5.006  0.1617 -1.4937  2.2197
 1722SOL    HW3 6661   5.426   0.088   5.098  0.1870  0.4048 -0.1533
 1722SOL    MW4 6662   5.461   0.032   5.040 -0.1963  0.1521 -0.1439
 1723SOL     OW 6663   2.534   4.250   2.991 -0.1359 -0.4773 -0.0242
 1723SOL    HW2 6664   2.512   4.327   3.044 -1.5695 -0.4805 -0.5825
 1723SOL    HW3 6665   2.611   4.213   3.034  1.5218  2.0740 -0.5543
 1723SOL    MW4 6666   2.541   4.255   3.004 -0.1064 -0.1411 -0.1678
 1724SOL     OW 6667   0.847   1.356   5.552  0.0267 -0.0091  0.6805
 1724SOL    HW2 6668   0.908   1.425   5.524 -1.2690  2.6005  3.6187
 1724SOL    HW3 6669   0.785   1.348   5.481  0.6752  1.3139 -0.0827
 1724SOL    MW4 6670   0.847   1.364   5.539 -0.0587  0.5098  0.9675
 1725SOL     OW 6671   6.362   5.852   0.795 -0.5636  0.0874  0.0252
 1725SOL    HW2 6672   6.343   5.824   0.884  0.7116 -0.4946  0.1373
 1725SOL    HW3 6673   6.285   5.823   0.744 -1.1604  0.1558  0.8672
 1725SOL    MW4 6674   6.349   5.844   0.800 -0.4741  0.0197  0.1511
 1726SOL     OW 6675   3.287   6.372   2.206 -0.2910  0.1524 -0.0284
 1726SOL    HW2 6676   3.248   6.302   2.259 -1.3169  0.8792  0.1974
 1726SOL    HW3 6677   3.323   6.433   2.271  0.7797 -0.2334 -0.2275
 1726SOL    MW4 6678   3.287   6.371   2.222 -0.2851  0.1974 -0.0249
 1727SOL     OW 6679   5.544   2.147   1.395  0.1061  0.1891  0.5390
 1727SOL    HW2 6680   5.546   2.052   1.401 -1.3832  0.0183 -0.6879
 1727SOL    HW3 6681   5.519   2.177   1.482  1.6404 -0.4427  1.2257
 1727SOL    MW4 6682   5.541   2.139   1.407  0.1120  0.0832  0.4677
 1728SOL     OW 6683   6.106   3.111   5.668 -0.1155  0.6015 -0.1019
 1728SOL    HW2 6684   6.125   3.023   5.638  1.3740  0.3101  1.5440
 1728SOL    HW3 6685   6.143   3.168   5.601 -0.2523 -0.0112 -0.7080
 1728SOL    MW4 6686   6.113   3.107   5.655  0.0630  0.4822  0.0353
 1729SOL     OW 6687   1.127   3.942   1.505  0.0511  0.5930  0.1903
 1729SOL    HW2 6688   1.105   3.979   1.420  0.1942  0.2736  0.0127
 1729SOL    HW3 6689   1.093   4.006   1.568 -0.2253  0.7361 -0.0997
 1729SOL    MW4 6690   1.120   3.956   1.502  0.0335  0.5698  0.1286
 1730SOL     OW 6691   0.834   4.397   1.804 -0.5342 -0.2182 -0.0452
 1730SOL    HW2 6692   0.868   4.382   1.715 -0.6247 -0.9463  0.0368
 1730SOL    HW3 6693   0.910   4.428   1.853 -0.2678 -0.6507 -0.1688
 1730SOL    MW4 6694   0.848   4.399   1.799 -0.5110 -0.3713 -0.0507
 1731SOL     OW 6695   3.380   4.136   1.592  0.6254  0.0458  0.0364
 1731SOL    HW2 6696   3.440   4.152   1.665 -0.1872 -1.3339  1.0554
 1731SOL    HW3 6697   3.432   4.154   1.513  2.4928 -1.4446  0.8670
 1731SOL    MW4 6698   3.395   4.141   1.591  0.7645 -0.3329  0.2804
 1732SOL     OW 6699   0.441   5.884   0.525  0.0325 -0.3036  0.2310
 1732SOL    HW2 6700   0.376   5.898   0.595  1.6034 -3.0415  2.4317
 1732SOL    HW3 6701   0.408   5.808   0.477  0.3536 -0.1368 -0.2551
 1732SOL    MW4 6702   0.428   5.876   0.528  0.2822 -0.6428  0.4572
 1733SOL     OW 6703   3.845   2.525   1.829  0.4979  0.5298 -0.2991
 1733SOL    HW2 6704   3.888   2.543   1.745  0.2447  1.0389 -0.3289
 1733SOL    HW3 6705   3.767   2.581   1.827  1.1225  1.4701  0.7881
 1733SOL    MW4 6706   3.841   2.535   1.817  0.5469  0.7211 -0.1596
 1734SOL     OW 6707   5.661   1.660   5.940 -0.1818 -0.1221  0.1654
 1734SOL    HW2 6708   5.576   1.683   5.901 -0.5860 -1.8707 -0.0886
 1734SOL    HW3 6709   5.724   1.716   5.895 -1.1878  1.1990  0.3515
 1734SOL    MW4 6710   5.658   1.670   5.929 -0.3679 -0.1785  0.1565
 1735SOL     OW 6711   4.096   5.975   5.912  0.3083  0.2260  0.1423
 1735SOL    HW2 6712   4.074   6.058   5.955 -1.3338 -0.0247 -0.1813
 1735SOL    HW3 6713   4.057   5.982   5.825 -1.0094 -1.3989  0.5563
 1735SOL    MW4 6714   4.088   5.987   5.906 -0.0822 -0.0215  0.1542
 1736SOL     OW 6715   4.317   1.025   2.206 -0.2475  0.2119 -0.1670
 1736SOL    HW2 6716   4.244   1.003   2.263  0.3395  2.2160  1.5012
 1736SOL    HW3 6717   4.318   1.120   2.205  1.1345  0.2190 -1.7835
 1736SOL    MW4 6718   4.308   1.034   2.213  0.0123  0.4773 -0.1602
 1737SOL     OW 6719   4.811   4.336   5.913 -0.1785  0.1518  0.0291
 1737SOL    HW2 6720   4.866   4.309   5.986 -0.1863 -0.6917 -0.2595
 1737SOL    HW3 6721   4.753   4.261   5.899 -1.6156  1.1224  0.5198
 1737SOL    MW4 6722   4.810   4.323   5.921 -0.3692  0.1686  0.0558
 1738SOL     OW 6723   2.846   1.655   0.812 -0.0373 -0.0850  0.1841
 1738SOL    HW2 6724   2.858   1.628   0.721 -0.2094 -0.6771  0.3335
 1738SOL    HW3 6725   2.778   1.596   0.845  0.3709 -0.1937  0.8386
 1738SOL    MW4 6726   2.838   1.644   0.804 -0.0061 -0.1775  0.2902
 1739SOL     OW 6727   3.715   0.489   1.150  0.0600 -0.5201  0.1839
 1739SOL    HW2 6728   3.688   0.399   1.162  2.0677 -1.1595  0.3894
 1739SOL    HW3 6729   3.774   0.506   1.224  1.2794  0.2717 -0.9245
 1739SOL    MW4 6730   3.719   0.480   1.161  0.4858 -0.5000  0.0648
 1740SOL     OW 6731   5.801   3.882   3.659  0.4237 -0.1827 -0.1214
 1740SOL    HW2 6732   5.764   3.801   3.625 -0.7312  0.4455 -0.4170
 1740SOL    HW3 6733   5.763   3.891   3.746  0.7121 -0.0692 -0.0066
 1740SOL    MW4 6734   5.791   3.872   3.666  0.3094 -0.0848 -0.1453
 1741SOL     OW 6735   3.222   3.990   4.521 -0.3224  0.8004  0.2285
 1741SOL    HW2 6736   3.244   4.036   4.602  0.6671  0.2900  0.2654
 1741SOL    HW3 6737   3.126   3.992   4.517 -0.3482  1.5038  1.0115
 1741SOL    MW4 6738   3.212   3.996   4.531 -0.1952  0.8259  0.3367
 1742SOL     OW 6739   5.657   1.221   6.408 -0.1782 -0.3522  0.1194
 1742SOL    HW2 6740   5.567   1.237   6.435  0.0311  0.3892  0.4136
 1742SOL    HW3 6741   5.666   1.126   6.409 -1.1422 -0.4657 -0.5527
 1742SOL    MW4 6742   5.646   1.211   6.412 -0.2778 -0.2693  0.0696
 1743SOL     OW 6743   1.705   0.429   6.425  0.5406  0.3507  0.2102
 1743SOL    HW2 6744   1.616   0.457   6.405  0.0017 -2.3731 -1.7628
 1743SOL    HW3 6745   1.701   0.400   6.516 -1.3120 -1.9235 -0.4902
 1743SOL    MW4 6746   1.693   0.429   6.435  0.2251 -0.3087 -0.1426
 1744SOL     OW 6747   5.941   5.761   1.977  0.1296  0.0613  0.0956
 1744SOL    HW2 6748   5.992   5.797   2.049  1.4109 -0.3166 -0.6035
 1744SOL    HW3 6749   5.881   5.699   2.019  0.3784  0.3630  0.9068
 1744SOL    MW4 6750   5.940   5.758   1.992  0.3314  0.0513  0.1104
 1745SOL     OW 6751   4.532   0.973   4.961 -0.1453  0.3412 -0.3984
 1745SOL    HW2 6752   4.450   0.927   4.978  0.0965 -0.3079 -0.9423
 1745SOL    HW3 6753   4.509   1.066   4.967 -1.6006  0.2814 -3.3670
 1745SOL    MW4 6754   4.518   0.979   4.964 -0.3054  0.2477 -0.8619
 1746SOL     OW 6755   0.840   5.033   2.771  0.5106 -0.6817 -0.9174
 1746SOL    HW2 6756   0.781   4.958   2.774  0.5219 -0.7628 -2.0487
 1746SOL    HW3 6757   0.820   5.083   2.849 -0.3906 -1.2007 -0.8027
 1746SOL    MW4 6758   0.830   5.029   2.782  0.3932 -0.7609 -1.0515
 1747SOL     OW 6759   4.242   1.349   0.076 -0.1643  0.0208 -0.1864
 1747SOL    HW2 6760   4.314   1.293   0.106  1.5350  1.1532 -1.8948
 1747SOL    HW3 6761   4.285   1.418   0.026 -2.2917  2.0839  0.6501
 1747SOL    MW4 6762   4.257   1.351   0.074 -0.2208  0.4424 -0.3014
 1748SOL     OW 6763   2.817   2.193   4.664  0.0116 -0.1871 -0.0136
 1748SOL    HW2 6764   2.858   2.116   4.702  0.5363  0.2625  0.3627
 1748SOL    HW3 6765   2.888   2.238   4.618 -0.1567  0.3613  0.2475
 1748SOL    MW4 6766   2.832   2.189   4.663  0.0586 -0.0554  0.0705
 1749SOL     OW 6767   1.404   2.984   0.641  0.7702  0.4376  0.0288
 1749SOL    HW2 6768   1.435   3.070   0.611 -1.5648  1.5241  0.5561
 1749SOL    HW3 6769   1.335   2.961   0.580  1.3830 -1.1273 -0.1112
 1749SOL    MW4 6770   1.399   2.993   0.629  0.5430  0.3745  0.0799
 1750SOL     OW 6771   2.086   0.651   2.344  0.4278  0.1361  0.1837
 1750SOL    HW2 6772   2.059   0.737   2.313 -0.1946  0.9256  2.6869
 1750SOL    HW3 6773   2.006   0.599   2.345  0.7609 -0.4411 -1.1035
 1750SOL    MW4 6774   2.072   0.655   2.340  0.3897  0.1641  0.3442
 1751SOL     OW 6775   1.407   1.502   4.917  0.8207  0.2891 -0.1609
 1751SOL    HW2 6776   1.491   1.456   4.910 -0.2050 -1.4188 -2.1057
 1751SOL    HW3 6777   1.343   1.442   4.879 -1.0064  2.3048 -0.4443
 1751SOL    MW4 6778   1.410   1.488   4.911  0.4443  0.3297 -0.4549
 1752SOL     OW 6779   1.426   1.320   2.874  0.2022  0.1050  0.0791
 1752SOL    HW2 6780   1.366   1.384   2.913  0.6769  1.4210 -1.2468
 1752SOL    HW3 6781   1.429   1.343   2.781  1.7625 -0.7259 -0.1182
 1752SOL    MW4 6782   1.419   1.332   2.867  0.4707  0.1690 -0.1219
 1753SOL     OW 6783   1.386   3.199   1.613 -0.8297 -0.0778  0.2379
 1753SOL    HW2 6784   1.372   3.121   1.559 -0.1639  0.0950 -0.1929
 1753SOL    HW3 6785   1.385   3.166   1.703 -0.4913 -0.5946  0.0577
 1753SOL    MW4 6786   1.384   3.184   1.618 -0.6972 -0.1232  0.1573
 1754SOL     OW 6787   0.597   1.749   2.263  0.6462  0.2373  0.6347
 1754SOL    HW2 6788   0.683   1.752   2.221 -0.1181 -1.0872 -1.1488
 1754SOL    HW3 6789   0.579   1.656   2.274 -1.9477  0.2904 -2.1263
 1754SOL    MW4 6790   0.606   1.737   2.259  0.2031  0.0695  0.0351
 1755SOL     OW 6791   0.193   5.453   0.047  0.0923  0.2794  0.2905
 1755SOL    HW2 6792   0.142   5.415  -0.025  1.2248 -1.0927  0.1667
 1755SOL    HW3 6793   0.155   5.413   0.126  0.7096 -0.4644  0.2237
 1755SOL    MW4 6794   0.181   5.443   0.048  0.3232  0.0003  0.2653
 1756SOL     OW 6795   2.265   0.874   5.602  0.5344 -0.0887 -0.1936
 1756SOL    HW2 6796   2.318   0.796   5.589  0.7887 -0.0185  0.3512
 1756SOL    HW3 6797   2.240   0.902   5.514  0.5744 -0.6887 -0.3991
 1756SOL    MW4 6798   2.268   0.868   5.589  0.5732 -0.1586 -0.1488
 1757SOL     OW 6799   4.354   5.850   1.756  0.0041  0.3595 -0.1737
 1757SOL    HW2 6800   4.416   5.883   1.820 -0.1488 -0.9073  0.6752
 1757SOL    HW3 6801   4.405   5.838   1.676  0.4090  1.1128 -0.0296
 1757SOL    MW4 6802   4.369   5.852   1.754  0.0374  0.2917 -0.0427
 1758SOL     OW 6803   6.154   6.226   4.405 -0.4728 -0.6347  0.5170
 1758SOL    HW2 6804   6.169   6.164   4.333  1.6322 -1.3880  1.5132
 1758SOL    HW3 6805   6.242   6.247   4.437 -1.0676  3.1624  0.0517
 1758SOL    MW4 6806   6.167   6.220   4.400 -0.2736 -0.2331  0.5871
 1759SOL     OW 6807   4.972   0.091   3.324  0.5377 -0.3149  0.1216
 1759SOL    HW2 6808   4.905   0.110   3.390  0.0096 -3.4396  0.6392
 1759SOL    HW3 6809   4.934   0.020   3.272  1.8788  0.5486 -2.1767
 1759SOL    MW4 6810   4.958   0.084   3.326  0.6450 -0.6133 -0.1133
 1760SOL     OW 6811   6.158   4.241   3.927 -0.0580  0.4622  0.0701
 1760SOL    HW2 6812   6.238   4.193   3.908 -2.2645 -2.9726 -1.6702
 1760SOL    HW3 6813   6.089   4.189   3.885 -3.0902  3.8533  0.3925
 1760SOL    MW4 6814   6.159   4.228   3.919 -0.7492  0.4564 -0.1170
 1761SOL     OW 6815   3.621   2.904   6.326  0.2234  0.2866 -0.0419
 1761SOL    HW2 6816   3.639   2.995   6.349  0.2841  0.1476  0.4803
 1761SOL    HW3 6817   3.705   2.860   6.332  0.2995  0.3030 -0.8434
 1761SOL    MW4 6818   3.634   2.910   6.330  0.2415  0.2705 -0.0788
 1762SOL     OW 6819   2.624   3.992   5.660  0.5398 -0.2381 -0.2426
 1762SOL    HW2 6820   2.550   3.935   5.641  1.5958 -2.2508  1.3704
 1762SOL    HW3 6821   2.694   3.962   5.602  0.8638 -0.0299  0.0332
 1762SOL    MW4 6822   2.624   3.981   5.650  0.7219 -0.4762  0.0066
 1763SOL     OW 6823   3.287   2.384   0.911  0.2488 -0.4218  0.2722
 1763SOL    HW2 6824   3.239   2.312   0.870  0.5945 -1.1876  1.1671
 1763SOL    HW3 6825   3.334   2.426   0.839 -0.6291 -0.5493 -0.3919
 1763SOL    MW4 6826   3.287   2.380   0.896  0.1786 -0.5397  0.3027
 1764SOL     OW 6827   4.011   0.929   4.258  0.5202 -0.3831 -0.1267
 1764SOL    HW2 6828   3.961   0.947   4.337  0.8384  0.2953 -0.0743
 1764SOL    HW3 6829   4.103   0.934   4.285  0.7556  2.8191 -1.0795
 1764SOL    MW4 6830   4.017   0.932   4.272  0.5932  0.1289 -0.2455
 1765SOL     OW 6831   0.361   0.004   0.242 -0.4442 -0.0207 -0.4683
 1765SOL    HW2 6832   0.425   0.068   0.273 -1.1765  0.8783 -0.7708
 1765SOL    HW3 6833   0.414  -0.070   0.213  0.3327 -0.5282  1.9885
 1765SOL    MW4 6834   0.376   0.003   0.243 -0.4383  0.0310 -0.1841
 1766SOL     OW 6835   3.431   1.985   0.946 -0.0299  0.2653  0.3692
 1766SOL    HW2 6836   3.454   1.901   0.906  1.1073  0.7265 -0.0025
 1766SOL    HW3 6837   3.418   1.965   1.039 -0.5790 -0.4508  0.1471
 1766SOL    MW4 6838   3.432   1.972   0.953  0.0477  0.2317  0.2909
 1767SOL     OW 6839   5.953   4.937   3.463  0.2910 -0.3170 -0.1853
 1767SOL    HW2 6840   5.919   4.977   3.543  2.5800  2.3954 -0.3997
 1767SOL    HW3 6841   5.906   4.980   3.392 -0.2459 -1.1857 -0.3706
 1767SOL    MW4 6842   5.942   4.948   3.464  0.5222 -0.0738 -0.2380
 1768SOL     OW 6843   1.279   4.238   3.521  0.0764  0.3179 -0.1921
 1768SOL    HW2 6844   1.371   4.265   3.516  1.0080 -2.3748  0.6688
 1768SOL    HW3 6845   1.249   4.271   3.606  0.9732 -0.6890  0.5394
 1768SOL    MW4 6846   1.287   4.246   3.532  0.3176 -0.1702  0.0180
 1769SOL     OW 6847   3.692   2.121   2.367 -0.2998  0.3516 -0.1888
 1769SOL    HW2 6848   3.690   2.173   2.286  1.5919 -1.1314 -1.2695
 1769SOL    HW3 6849   3.635   2.047   2.350 -0.0960  0.1662 -0.0732
 1769SOL    MW4 6850   3.684   2.118   2.354 -0.0233  0.1315 -0.3161
 1770SOL     OW 6851   4.119   4.728   6.164 -0.0054  0.2895 -0.0423
 1770SOL    HW2 6852   4.053   4.796   6.148 -1.3830 -1.1150 -0.5954
 1770SOL    HW3 6853   4.147   4.743   6.254  1.0124  2.6285 -0.6851
 1770SOL    MW4 6854   4.114   4.739   6.174 -0.0529  0.4128 -0.2001
 1771SOL     OW 6855   3.535   5.089   3.272  0.0876 -0.2931 -0.5970
 1771SOL    HW2 6856   3.561   5.030   3.342  0.4393 -0.1434 -0.6016
 1771SOL    HW3 6857   3.502   5.167   3.317 -0.3200 -0.4645 -0.5919
 1771SOL    MW4 6858   3.534   5.091   3.287  0.0802 -0.2960 -0.5969
 1772SOL     OW 6859   0.208   1.613   3.883 -0.1021  0.5538  0.3256
 1772SOL    HW2 6860   0.183   1.544   3.944  2.3476  0.4362  1.2901
 1772SOL    HW3 6861   0.171   1.693   3.921  0.5643  0.3409  1.4668
 1772SOL    MW4 6862   0.200   1.614   3.896  0.3091  0.5102  0.6034
 1773SOL     OW 6863   5.371   1.452   3.714  0.0196  0.5876  0.4500
 1773SOL    HW2 6864   5.395   1.490   3.629 -0.5958  0.3396  0.1637
 1773SOL    HW3 6865   5.278   1.433   3.707  0.2741 -0.8323  0.6413
 1773SOL    MW4 6866   5.362   1.455   3.702 -0.0280  0.3675  0.4374
 1774SOL     OW 6867   5.602   4.433   2.673 -0.3567 -0.6385 -0.5255
 1774SOL    HW2 6868   5.617   4.339   2.661  0.6081 -0.3102 -2.3070
 1774SOL    HW3 6869   5.517   4.448   2.630 -0.8410 -0.7865  0.3577
 1774SOL    MW4 6870   5.592   4.422   2.665 -0.2933 -0.6147 -0.6440
 1775SOL     OW 6871   2.195   6.035   3.622  0.7616  0.1727 -0.7914
 1775SOL    HW2 6872   2.228   6.121   3.648  0.0285 -0.1311  1.3397
 1775SOL    HW3 6873   2.129   6.054   3.556 -0.2449  1.3648  0.5015
 1775SOL    MW4 6874   2.191   6.049   3.617  0.5321  0.2899 -0.3397
 1776SOL     OW 6875   0.381   3.635   1.652  0.0721 -0.2998  0.2198
 1776SOL    HW2 6876   0.391   3.729   1.636  0.9112 -0.5585 -0.8771
 1776SOL    HW3 6877   0.468   3.605   1.677 -0.5649 -0.4848  2.4208
 1776SOL    MW4 6878   0.394   3.643   1.653  0.0988 -0.3583  0.3654
 1777SOL     OW 6879   0.113   2.439   0.288  0.1672  0.2763  0.4283
 1777SOL    HW2 6880   0.178   2.476   0.348  0.4827  0.7425 -0.1924
 1777SOL    HW3 6881   0.119   2.493   0.209 -1.5941  0.9016  0.6691
 1777SOL    MW4 6882   0.122   2.451   0.286 -0.0235  0.4203  0.3782
 1778SOL     OW 6883   0.944   5.878   5.564  0.1437 -0.8371  0.2703
 1778SOL    HW2 6884   0.887   5.810   5.599 -1.9203  2.1518  3.3565
 1778SOL    HW3 6885   0.886   5.936   5.515  1.6763 -0.7275 -1.5226
 1778SOL    MW4 6886   0.929   5.877   5.562  0.0736 -0.4282  0.4409
 1779SOL     OW 6887   1.807   2.689   4.387 -0.4342  0.4820  0.3463
 1779SOL    HW2 6888   1.830   2.745   4.461 -0.7334 -0.7858  1.4527
 1779SOL    HW3 6889   1.831   2.600   4.415  0.9049  0.1218 -1.7086
 1779SOL    MW4 6890   1.813   2.684   4.400 -0.2970  0.2672  0.2212
 1780SOL     OW 6891   2.684   2.593   1.874 -0.5167 -0.4918 -0.2678
 1780SOL    HW2 6892   2.711   2.502   1.864 -1.1158 -0.7775  0.6008
 1780SOL    HW3 6893   2.668   2.604   1.968  0.5950  0.8187 -0.1872
 1780SOL    MW4 6894   2.685   2.583   1.885 -0.4491 -0.3566 -0.1425
 1781SOL     OW 6895   6.352   4.487   0.363 -0.5873  0.1933 -0.1401
 1781SOL    HW2 6896   6.341   4.570   0.317 -0.2925  0.5329  0.4011
 1781SOL    HW3 6897   6.435   4.452   0.328 -0.3987  0.4174  0.0811
 1781SOL    MW4 6898   6.362   4.493   0.352 -0.5235  0.2677 -0.0395
 1782SOL     OW 6899   2.740   3.812   4.536 -0.1516 -0.1428 -0.4554
 1782SOL    HW2 6900   2.828   3.803   4.499 -0.3718  0.3649 -1.1155
 1782SOL    HW3 6901   2.685   3.838   4.462 -0.4862  1.5726  0.3368
 1782SOL    MW4 6902   2.744   3.814   4.521 -0.2248  0.1505 -0.4380
 1783SOL     OW 6903   3.194   4.478   3.063 -0.0302 -0.2942 -0.0758
 1783SOL    HW2 6904   3.274   4.428   3.046 -0.3617 -1.2791  1.1031
 1783SOL    HW3 6905   3.214   4.566   3.031  2.5155  0.2210  2.4439
 1783SOL    MW4 6906   3.208   4.483   3.057  0.2620 -0.3562  0.4122
 1784SOL     OW 6907   5.782   1.060   5.328 -0.5840  0.1230 -0.6358
 1784SOL    HW2 6908   5.690   1.041   5.349 -0.1306 -2.1579 -0.5204
 1784SOL    HW3 6909   5.809   0.989   5.270  1.2183  0.5421 -0.3666
 1784SOL    MW4 6910   5.773   1.048   5.323 -0.2864 -0.1226 -0.5851
 1785SOL     OW 6911   6.181   0.852   0.543  0.3432  0.0381  0.7019
 1785SOL    HW2 6912   6.239   0.928   0.548  1.5124 -0.6826 -0.9157
 1785SOL    HW3 6913   6.220   0.797   0.474 -0.3695 -2.1045  1.9300
 1785SOL    MW4 6914   6.194   0.855   0.534  0.4034 -0.3397  0.6505
 1786SOL     OW 6915   5.584   2.596   3.818  0.0319  0.1478  0.2692
 1786SOL    HW2 6916   5.593   2.570   3.910  0.0828  1.1925  0.5773
 1786SOL    HW3 6917   5.561   2.689   3.822 -0.1486  0.1596 -0.7778
 1786SOL    MW4 6918   5.582   2.605   3.831  0.0148  0.2872  0.1717
 1787SOL     OW 6919   5.924   1.563   3.607  0.0405 -0.1643 -0.6850
 1787SOL    HW2 6920   5.858   1.632   3.613  0.1528 -0.0777 -0.4378
 1787SOL    HW3 6921   6.004   1.603   3.640 -0.1257 -0.7167  0.4500
 1787SOL    MW4 6922   5.926   1.577   3.612  0.0334 -0.2257 -0.5026
 1788SOL     OW 6923   5.155   1.146   5.304  0.0634 -0.3407 -0.1220
 1788SOL    HW2 6924   5.109   1.068   5.274 -1.2220 -0.0108  0.9084
 1788SOL    HW3 6925   5.139   1.149   5.398 -0.7038  1.6425 -0.2625
 1788SOL    MW4 6926   5.147   1.136   5.312 -0.2074 -0.0355 -0.0046
 1789SOL     OW 6927   4.341   5.066   3.568 -0.2572 -0.2108 -0.0041
 1789SOL    HW2 6928   4.432   5.052   3.541  0.2334  1.2674  0.7882
 1789SOL    HW3 6929   4.290   5.043   3.490  0.6251 -2.8956  0.1176
 1789SOL    MW4 6930   4.347   5.061   3.554 -0.0761 -0.3700  0.1165
 1790SOL     OW 6931   6.194   3.486   0.950  0.4375 -0.2624  0.6274
 1790SOL    HW2 6932   6.234   3.515   0.868  2.3730 -1.5749  1.0528
 1790SOL    HW3 6933   6.188   3.566   1.003  0.5986  0.3228 -0.2183
 1790SOL    MW4 6934   6.198   3.500   0.947  0.7141 -0.3584  0.5720
 1791SOL     OW 6935   4.423   6.149   3.958  0.2800 -0.0985  0.0829
 1791SOL    HW2 6936   4.339   6.195   3.955  0.8437  0.9274 -1.0988
 1791SOL    HW3 6937   4.435   6.127   4.050  0.0459  2.3256  0.7848
 1791SOL    MW4 6938   4.414   6.152   3.970  0.3235  0.3567  0.0196
 1792SOL     OW 6939   0.889   0.420   1.863  0.1798 -0.4205  0.1622
 1792SOL    HW2 6940   0.810   0.467   1.889  0.1890 -0.9384  1.1852
 1792SOL    HW3 6941   0.881   0.334   1.904 -0.2432 -1.6758 -2.3565
 1792SOL    MW4 6942   0.878   0.415   1.872  0.1252 -0.6544 -0.0352
 1793SOL     OW 6943   3.008   6.172   3.102 -0.4483  0.2788  0.4984
 1793SOL    HW2 6944   2.918   6.170   3.133 -0.5518  0.7379  0.2299
 1793SOL    HW3 6945   3.008   6.118   3.023 -0.6182  0.7635  0.1631
 1793SOL    MW4 6946   2.996   6.165   3.096 -0.4843  0.4033  0.4187
 1794SOL     OW 6947   0.322   4.648   2.583 -0.4878 -0.1227  0.7957
 1794SOL    HW2 6948   0.351   4.648   2.674 -0.5913 -0.3647  0.8287
 1794SOL    HW3 6949   0.333   4.558   2.554  0.8454  0.2246  0.1417
 1794SOL    MW4 6950   0.327   4.636   2.591 -0.3255 -0.1088  0.7138
 1795SOL     OW 6951   2.686   5.921   2.116  0.4400 -0.7662  0.4482
 1795SOL    HW2 6952   2.628   5.967   2.055 -0.3843 -0.2670  1.5749
 1795SOL    HW3 6953   2.638   5.920   2.198  0.7621 -2.9794  0.6690
 1795SOL    MW4 6954   2.672   5.927   2.118  0.3737 -0.9923  0.6260
 1796SOL     OW 6955   2.183   5.278   1.909  0.2391  0.4180 -0.1282
 1796SOL    HW2 6956   2.221   5.200   1.868  0.4181 -0.3678  1.4829
 1796SOL    HW3 6957   2.206   5.349   1.849  2.2260 -0.3918 -0.4163
 1796SOL    MW4 6958   2.191   5.277   1.895  0.5249  0.2074  0.0464
 1797SOL     OW 6959   1.137   0.112   4.295  0.2819  0.1218 -0.1306
 1797SOL    HW2 6960   1.154   0.082   4.384  2.5167 -0.8593 -0.8240
 1797SOL    HW3 6961   1.159   0.206   4.298  4.0905 -0.6203 -0.4159
 1797SOL    MW4 6962   1.142   0.121   4.307  1.0792 -0.1055 -0.2597
 1798SOL     OW 6963   0.597   0.601   2.195 -0.1239 -0.0444 -0.3208
 1798SOL    HW2 6964   0.627   0.563   2.278  2.0235  0.6611 -0.7091
 1798SOL    HW3 6965   0.572   0.525   2.142  1.0641 -0.7185  0.0403
 1798SOL    MW4 6966   0.598   0.586   2.199  0.3162 -0.0402 -0.3244
 1799SOL     OW 6967   4.380   4.078   0.703 -0.4219  0.3726 -0.5298
 1799SOL    HW2 6968   4.394   4.024   0.625  0.4320 -0.9269  0.4726
 1799SOL    HW3 6969   4.411   4.024   0.775  0.7600  2.3413  0.5225
 1799SOL    MW4 6970   4.386   4.064   0.702 -0.1533  0.4609 -0.2587
 1800SOL     OW 6971   2.006   6.002   3.439 -0.0192  0.1394  0.6920
 1800SOL    HW2 6972   1.944   5.944   3.483 -0.8457 -0.2491 -0.9093
 1800SOL    HW3 6973   1.959   6.084   3.429 -0.7374 -0.4877 -1.5048
 1800SOL    MW4 6974   1.992   6.005   3.444 -0.2230  0.0054  0.1909
 1801SOL     OW 6975   0.552   3.923   3.155 -0.8132  0.1791  0.2168
 1801SOL    HW2 6976   0.589   3.840   3.126 -1.0932  0.4204 -0.8620
 1801SOL    HW3 6977   0.592   3.938   3.241  1.4430  0.3489 -0.8097
 1801SOL    MW4 6978   0.562   3.914   3.163 -0.5524  0.2333 -0.0610
 1802SOL     OW 6979   2.164   5.071   5.450 -0.3858 -0.7461  0.6214
 1802SOL    HW2 6980   2.156   4.978   5.428 -1.2494 -0.3901 -0.7082
 1802SOL    HW3 6981   2.220   5.072   5.527  2.9264 -2.1304 -1.5077
 1802SOL    MW4 6982   2.170   5.059   5.457 -0.0627 -0.8817  0.1651
 1803SOL     OW 6983   6.358   5.869   0.224  0.2288 -0.1190  0.1006
 1803SOL    HW2 6984   6.334   5.881   0.132  0.1677 -0.1907  0.1075
 1803SOL    HW3 6985   6.279   5.835   0.265  0.4513 -0.6923  0.0553
 1803SOL    MW4 6986   6.345   5.866   0.217  0.2501 -0.2041  0.0955
 1804SOL     OW 6987   2.303   2.702   1.174 -0.7426  0.4851 -0.0540
 1804SOL    HW2 6988   2.348   2.725   1.255 -1.8150  2.3582  0.0690
 1804SOL    HW3 6989   2.369   2.657   1.121  1.2423  2.8747  0.2139
 1804SOL    MW4 6990   2.318   2.699   1.177 -0.6222  1.0475 -0.0025
 1805SOL     OW 6991   2.993   3.365   4.606  0.0505  0.1278  0.3765
 1805SOL    HW2 6992   2.932   3.368   4.679  1.1962  0.9986  1.3304
 1805SOL    HW3 6993   3.044   3.446   4.613 -0.6120  0.8649 -2.1035
 1805SOL    MW4 6994   2.992   3.376   4.616  0.1143  0.3399  0.1752
 1806SOL     OW 6995   1.773   0.424   3.572  0.1738 -0.3981  0.2761
 1806SOL    HW2 6996   1.692   0.457   3.534 -0.7260 -1.9086  0.8039
 1806SOL    HW3 6997   1.816   0.377   3.501 -0.5357 -1.5116  0.5564
 1806SOL    MW4 6998   1.768   0.422   3.558 -0.0386 -0.7443  0.3827
 1807SOL     OW 6999   6.359   4.729   5.233  0.8032  0.0837 -0.4581
 1807SOL    HW2 7000   6.393   4.753   5.319  0.4304 -0.0004 -0.2836
 1807SOL    HW3 7001   6.406   4.785   5.172  1.3134 -0.0937 -0.2310
 1807SOL    MW4 7002   6.370   4.740   5.236  0.8213  0.0492 -0.4051
 1808SOL     OW 7003   5.683   1.827   4.299 -0.2493 -0.3937 -0.2985
 1808SOL    HW2 7004   5.739   1.818   4.377  1.3016  0.0024 -1.3116
 1808SOL    HW3 7005   5.690   1.743   4.255 -0.0112 -0.1643 -0.7038
 1808SOL    MW4 7006   5.691   1.815   4.304 -0.0133 -0.3112 -0.4856
 1809SOL     OW 7007   5.959   4.873   6.189 -0.1194  0.2973  0.1985
 1809SOL    HW2 7008   6.010   4.832   6.119 -1.9509 -1.9634  0.0494
 1809SOL    HW3 7009   5.947   4.963   6.162  1.3931  0.1388 -1.1157
 1809SOL    MW4 7010   5.964   4.879   6.176 -0.1615 -0.0219  0.0055
 1810SOL     OW 7011   4.874   0.871   5.515 -0.0228 -0.2437 -0.7894
 1810SOL    HW2 7012   4.898   0.895   5.425  0.4568  0.3090 -0.5241
 1810SOL    HW3 7013   4.958   0.851   5.557  0.0833  2.1851  0.3014
 1810SOL    MW4 7014   4.888   0.872   5.508  0.0545  0.1497 -0.6105
 1811SOL     OW 7015   4.107   2.852   5.218  0.0926 -0.0846 -0.0005
 1811SOL    HW2 7016   4.118   2.758   5.207 -1.2716 -0.2401 -0.2090
 1811SOL    HW3 7017   4.095   2.864   5.312  0.3548 -0.0932  0.0371
 1811SOL    MW4 7018   4.107   2.841   5.229 -0.0528 -0.1063 -0.0230
 1812SOL     OW 7019   1.889   2.120   3.923 -0.6138  0.7353 -0.0143
 1812SOL    HW2 7020   1.807   2.076   3.945 -0.3617 -1.0218 -2.1891
 1812SOL    HW3 7021   1.873   2.212   3.943 -2.3555  0.1512  1.5706
 1812SOL    MW4 7022   1.876   2.126   3.928 -0.8104  0.4264 -0.0921
 1813SOL     OW 7023   4.795   2.687   2.659 -0.5417  0.0333  0.3534
 1813SOL    HW2 7024   4.727   2.648   2.714 -1.9293 -0.8853 -1.9149
 1813SOL    HW3 7025   4.755   2.696   2.573  2.1903 -0.5338 -1.0904
 1813SOL    MW4 7026   4.781   2.683   2.655 -0.3643 -0.1627 -0.1364
 1814SOL     OW 7027   1.406   5.918   2.422  0.6119  0.4341  0.4129
 1814SOL    HW2 7028   1.472   5.970   2.376 -0.2279  1.0350 -0.1412
 1814SOL    HW3 7029   1.323   5.959   2.399 -0.0336 -0.8536  0.3887
 1814SOL    MW4 7030   1.404   5.930   2.413  0.4159  0.3435  0.3366
 1815SOL     OW 7031   6.395   2.749   0.191 -0.2103  0.0510 -0.7180
 1815SOL    HW2 7032   6.491   2.745   0.195 -0.2146  0.1702 -0.4792
 1815SOL    HW3 7033   6.367   2.738   0.281 -0.4962 -1.7345 -0.9862
 1815SOL    MW4 7034   6.404   2.747   0.203 -0.2486 -0.1689 -0.7218
 1816SOL     OW 7035   5.095   5.073   6.002 -0.5742 -0.1356  0.2816
 1816SOL    HW2 7036   5.123   5.156   5.965 -1.1749  0.6146  1.4712
 1816SOL    HW3 7037   5.079   5.017   5.926  0.8814  0.4743 -0.5026
 1816SOL    MW4 7038   5.097   5.076   5.987 -0.4614  0.0438  0.3351
 1817SOL     OW 7039   2.826   1.688   6.247 -0.1695  0.1958  0.5172
 1817SOL    HW2 7040   2.768   1.720   6.316  0.6266  0.2764  1.1645
 1817SOL    HW3 7041   2.846   1.766   6.194 -1.1419  0.0485 -0.0945
 1817SOL    MW4 7042   2.821   1.703   6.249 -0.1928  0.1870  0.5219
 1818SOL     OW 7043   3.475   1.700   0.057 -0.6333  0.6878 -0.2594
 1818SOL    HW2 7044   3.493   1.744   0.141 -0.3569  1.6026 -0.7838
 1818SOL    HW3 7045   3.560   1.696   0.013 -0.2585 -2.1216  0.5452
 1818SOL    MW4 7046   3.489   1.705   0.063 -0.5474  0.4378 -0.2224
 1819SOL     OW 7047   1.183   5.474   4.666 -1.0472 -0.0382  0.5380
 1819SOL    HW2 7048   1.173   5.380   4.651 -1.4330  0.1800 -0.6302
 1819SOL    HW3 7049   1.270   5.494   4.632 -0.9987  0.0436  0.7107
 1819SOL    MW4 7050   1.193   5.464   4.660 -1.0917  0.0014  0.4067
 1820SOL     OW 7051   5.978   2.810   3.426  0.6710  0.2679  0.6107
 1820SOL    HW2 7052   6.010   2.825   3.515 -1.4882  0.8263  1.3689
 1820SOL    HW3 7053   5.997   2.892   3.379  1.6935  0.0192  0.5623
 1820SOL    MW4 7054   5.985   2.823   3.431  0.5210  0.3087  0.7044
 1821SOL     OW 7055   5.451   3.192   3.331  0.4472  0.6728 -0.7525
 1821SOL    HW2 7056   5.365   3.234   3.342  0.4299  0.5656 -0.4685
 1821SOL    HW3 7057   5.510   3.245   3.386 -0.1153 -1.3860  2.0892
 1821SOL    MW4 7058   5.447   3.205   3.340  0.3707  0.3870 -0.3401
 1822SOL     OW 7059   1.592   4.221   0.277  0.4191  0.0523  0.0481
 1822SOL    HW2 7060   1.686   4.219   0.293  0.3657 -0.2193  0.3317
 1822SOL    HW3 7061   1.554   4.260   0.356  0.0912 -1.9822  0.9667
 1822SOL    MW4 7062   1.599   4.226   0.289  0.3688 -0.2520  0.2067
 1823SOL     OW 7063   3.853   5.728   5.811 -0.0547  0.4787 -0.1459
 1823SOL    HW2 7064   3.821   5.713   5.722  0.9188 -3.3162 -0.0541
 1823SOL    HW3 7065   3.778   5.708   5.867 -0.6994  2.9689 -0.0024
 1823SOL    MW4 7066   3.839   5.723   5.807 -0.0113  0.3065 -0.1148
 1824SOL     OW 7067   3.304   0.888   3.219  0.3339 -0.5458  0.4954
 1824SOL    HW2 7068   3.352   0.859   3.141  1.2283  3.2654 -0.5903
 1824SOL    HW3 7069   3.217   0.847   3.210  0.8024 -1.1894 -1.8305
 1824SOL    MW4 7070   3.299   0.878   3.207  0.5137 -0.1279  0.0453
 1825SOL     OW 7071   4.738   1.402   5.896 -0.1362  0.6942  0.4725
 1825SOL    HW2 7072   4.809   1.416   5.959  0.3226  0.1989  0.0774
 1825SOL    HW3 7073   4.697   1.488   5.887 -2.0838  0.2605  3.6039
 1825SOL    MW4 7074   4.742   1.415   5.903 -0.3326  0.5716  0.8335
 1826SOL     OW 7075   5.073   1.902   5.744  0.0633 -0.0411  0.1462
 1826SOL    HW2 7076   5.061   1.914   5.650  0.4370 -0.5092  0.0389
 1826SOL    HW3 7077   5.150   1.954   5.766  0.7890 -1.0134 -0.0529
 1826SOL    MW4 7078   5.081   1.910   5.735  0.2084 -0.2312  0.1058
 1827SOL     OW 7079   0.362   3.507   2.081  0.1991 -0.5631 -0.2412
 1827SOL    HW2 7080   0.373   3.417   2.050  0.9504 -0.1664 -1.1969
 1827SOL    HW3 7081   0.450   3.544   2.081  0.0852 -0.2328  1.5012
 1827SOL    MW4 7082   0.375   3.500   2.077  0.2832 -0.4672 -0.1374
 1828SOL     OW 7083   2.862   4.458   2.167  0.1705 -0.3260 -0.2023
 1828SOL    HW2 7084   2.839   4.461   2.075 -2.2691  3.8133  0.2565
 1828SOL    HW3 7085   2.957   4.467   2.169  0.1179  1.4522 -2.3620
 1828SOL    MW4 7086   2.871   4.460   2.155 -0.1584  0.4548 -0.4267
 1829SOL     OW 7087   1.260   3.686   5.539  0.0820 -0.0275  0.4937
 1829SOL    HW2 7088   1.277   3.679   5.633 -0.1739  1.9657  0.7372
 1829SOL    HW3 7089   1.208   3.608   5.518 -0.6476 -0.0461  2.2012
 1829SOL    MW4 7090   1.255   3.675   5.548 -0.0480  0.2331  0.7511
 1830SOL     OW 7091   1.494   6.328   0.422  0.0269 -0.7199 -0.2997
 1830SOL    HW2 7092   1.526   6.262   0.360  1.7348  0.3668 -0.6551
 1830SOL    HW3 7093   1.573   6.355   0.470 -0.8766  0.0815  0.7830
 1830SOL    MW4 7094   1.509   6.323   0.420  0.1330 -0.4708 -0.2037
 1831SOL     OW 7095   0.149   0.303   0.748 -0.5019 -0.1341 -0.3101
 1831SOL    HW2 7096   0.152   0.222   0.698  1.1673  0.3401 -1.0595
 1831SOL    HW3 7097   0.237   0.340   0.739 -0.2402  0.1690  2.7021
 1831SOL    MW4 7098   0.161   0.297   0.740 -0.2472 -0.0315 -0.0115
 1832SOL     OW 7099   3.097   1.092   2.691  0.0843  0.1524  0.5761
 1832SOL    HW2 7100   3.069   1.090   2.599 -0.3527 -3.8993  0.5964
 1832SOL    HW3 7101   3.192   1.096   2.687  0.1206 -0.9964 -0.1412
 1832SOL    MW4 7102   3.106   1.092   2.678  0.0314 -0.5337  0.4841
 1833SOL     OW 7103   0.591   2.961   4.175 -0.6693 -0.1242 -0.0734
 1833SOL    HW2 7104   0.601   3.056   4.181 -1.3122 -0.1531  3.3452
 1833SOL    HW3 7105   0.676   2.926   4.203 -1.0896 -0.5190  0.7293
 1833SOL    MW4 7106   0.604   2.969   4.179 -0.8096 -0.1801  0.4835
 1834SOL     OW 7107   6.213   0.306   3.620  0.0456 -0.5505 -0.1331
 1834SOL    HW2 7108   6.232   0.371   3.689  0.2266  0.3564 -1.0108
 1834SOL    HW3 7109   6.297   0.264   3.603 -0.1286 -1.2373  0.6377
 1834SOL    MW4 7110   6.227   0.309   3.627  0.0465 -0.5215 -0.1472
 1835SOL     OW 7111   1.065   3.603   0.972  0.0526 -0.1917 -0.0502
 1835SOL    HW2 7112   1.048   3.633   0.883 -1.5792 -2.0238 -0.4493
 1835SOL    HW3 7113   1.160   3.594   0.978  0.3266  1.7140 -0.9520
 1835SOL    MW4 7114   1.075   3.606   0.961 -0.1265 -0.1820 -0.2218
 1836SOL     OW 7115   4.845   5.751   1.038 -0.4152 -0.1713 -0.1363
 1836SOL    HW2 7116   4.843   5.784   1.128  0.2877  0.6258 -0.4001
 1836SOL    HW3 7117   4.852   5.656   1.047 -1.3560 -0.1813  0.6440
 1836SOL    MW4 7118   4.846   5.743   1.051 -0.4466 -0.0674 -0.0682
 1837SOL     OW 7119   0.243   6.258   5.458 -0.2792 -0.3832  0.4338
 1837SOL    HW2 7120   0.288   6.186   5.414  0.9470 -0.2558  1.4332
 1837SOL    HW3 7121   0.308   6.295   5.518 -0.5571  2.1210 -0.6448
 1837SOL    MW4 7122   0.257   6.254   5.460 -0.1541 -0.0360  0.4233
 1838SOL     OW 7123   2.995   5.804   1.051 -0.1433  0.6583  0.4109
 1838SOL    HW2 7124   2.992   5.888   1.097 -1.0062  1.2087 -0.6031
 1838SOL    HW3 7125   3.062   5.816   0.984  1.6422 -0.3878  1.8953
 1838SOL    MW4 7126   3.004   5.816   1.049 -0.0216  0.5929  0.4730
 1839SOL     OW 7127   4.036   2.170   5.283  0.3266  0.0034 -0.3048
 1839SOL    HW2 7128   4.102   2.101   5.292 -0.4534 -0.5664  1.4972
 1839SOL    HW3 7129   4.021   2.176   5.189  1.6984 -1.0443 -0.6303
 1839SOL    MW4 7130   4.043   2.162   5.272  0.4047 -0.2100 -0.1100
 1840SOL     OW 7131   2.273   5.051   1.791 -0.3149 -0.0572  0.4339
 1840SOL    HW2 7132   2.232   5.078   1.709  0.3719  0.7322  0.3368
 1840SOL    HW3 7133   2.337   4.985   1.764  0.2937  0.5902  0.2461
 1840SOL    MW4 7134   2.276   5.046   1.776 -0.1440  0.1324  0.3963
 1841SOL     OW 7135   0.942   3.979   3.862  0.0459  0.0854 -0.1800
 1841SOL    HW2 7136   0.953   3.930   3.780  0.5621  0.6923 -0.4850
 1841SOL    HW3 7137   0.848   3.998   3.866  0.0400  0.1871 -0.7147
 1841SOL    MW4 7138   0.931   3.975   3.851  0.1132  0.1789 -0.2908
 1842SOL     OW 7139   1.110   3.446   2.178  0.2565 -0.0128 -0.4423
 1842SOL    HW2 7140   1.127   3.489   2.262  0.8658 -0.1269 -0.5035
 1842SOL    HW3 7141   1.134   3.354   2.193 -0.7147 -0.2698 -0.4100
 1842SOL    MW4 7142   1.115   3.440   2.191  0.2087 -0.0618 -0.4461
 1843SOL     OW 7143   2.852   3.396   0.089 -0.6545 -0.0303  0.6814
 1843SOL    HW2 7144   2.844   3.302   0.071 -1.4908  0.3493 -1.1480
 1843SOL    HW3 7145   2.780   3.436   0.040 -0.9663  1.4973  2.2822
 1843SOL    MW4 7146   2.841   3.389   0.080 -0.8060  0.2213  0.6512
 1844SOL     OW 7147   6.350   3.925   3.696 -0.1284 -0.5397 -0.5583
 1844SOL    HW2 7148   6.370   3.837   3.727 -0.5537 -0.4204  0.0552
 1844SOL    HW3 7149   6.426   3.949   3.642  1.7099  0.1226  2.1533
 1844SOL    MW4 7150   6.362   3.916   3.693  0.0580 -0.4366 -0.1196
 1845SOL     OW 7151   1.785   4.347   5.125  0.4265  0.1201  0.3427
 1845SOL    HW2 7152   1.835   4.322   5.047  0.1034  1.5871 -0.3628
 1845SOL    HW3 7153   1.724   4.413   5.094 -2.2912 -1.8683  1.0689
 1845SOL    MW4 7154   1.784   4.352   5.111  0.0253  0.0513  0.3454
 1846SOL     OW 7155   3.589   5.517   1.215 -0.3440 -0.7066  0.1123
 1846SOL    HW2 7156   3.582   5.564   1.298  0.7417  0.0349 -0.1982
 1846SOL    HW3 7157   3.507   5.534   1.170  1.0429  3.4488 -1.2735
 1846SOL    MW4 7158   3.577   5.525   1.220 -0.0177 -0.0605 -0.1115
 1847SOL     OW 7159   0.226   4.413   3.689 -0.1252  0.0879 -0.3758
 1847SOL    HW2 7160   0.185   4.347   3.633 -1.3430  0.7780 -0.3339
 1847SOL    HW3 7161   0.263   4.477   3.627 -0.3631  0.1905 -0.4162
 1847SOL    MW4 7162   0.225   4.413   3.673 -0.3173  0.1925 -0.3756
 1848SOL     OW 7163   1.341   2.108   2.883 -0.3947  0.3966 -0.1249
 1848SOL    HW2 7164   1.336   2.020   2.919 -1.5765  0.9057  1.0839
 1848SOL    HW3 7165   1.432   2.134   2.893  0.4427 -1.3698 -2.3501
 1848SOL    MW4 7166   1.352   2.100   2.889 -0.4401  0.2307 -0.2590
 1849SOL     OW 7167   5.239   1.788   3.366 -0.1486  0.1942 -0.8102
 1849SOL    HW2 7168   5.195   1.809   3.449 -2.2624 -3.2430 -0.8794
 1849SOL    HW3 7169   5.291   1.710   3.385 -1.5885 -1.3762 -2.8765
 1849SOL    MW4 7170   5.240   1.781   3.379 -0.6175 -0.4665 -1.0919
 1850SOL     OW 7171   1.809   1.163   2.304  0.1677 -0.0817 -0.2621
 1850SOL    HW2 7172   1.848   1.082   2.272  1.0803 -0.3303  1.4053
 1850SOL    HW3 7173   1.761   1.137   2.383  0.6665  1.0266  0.4227
 1850SOL    MW4 7174   1.808   1.149   2.310  0.3539  0.0317  0.0482
 1851SOL     OW 7175   3.392   5.634   5.824 -0.2951 -0.0411  0.0276
 1851SOL    HW2 7176   3.308   5.668   5.854  0.0771 -0.7645  2.0609
 1851SOL    HW3 7177   3.417   5.570   5.890  0.9328 -1.3096 -1.5695
 1851SOL    MW4 7178   3.385   5.630   5.836 -0.0840 -0.3039  0.0851
 1852SOL     OW 7179   1.914   4.346   5.371 -0.0100 -0.0769  0.6199
 1852SOL    HW2 7180   1.867   4.368   5.290  0.9133  2.3237  0.6495
 1852SOL    HW3 7181   2.002   4.324   5.341  0.4174  1.1063  0.9502
 1852SOL    MW4 7182   1.920   4.346   5.356  0.1682  0.3959  0.6674
 1853SOL     OW 7183   3.159   0.405   3.531 -0.1234 -0.5075 -0.2735
 1853SOL    HW2 7184   3.122   0.493   3.542 -0.0940 -0.6241  0.8032
 1853SOL    HW3 7185   3.093   0.346   3.567  1.5925 -0.6286  2.9822
 1853SOL    MW4 7186   3.145   0.409   3.537  0.1069 -0.5389  0.2981
 1854SOL     OW 7187   4.218   3.397   2.789  0.5327 -0.6607 -0.0406
 1854SOL    HW2 7188   4.139   3.405   2.735  1.4410  0.1337 -1.3092
 1854SOL    HW3 7189   4.263   3.480   2.778  0.4660 -0.2176  2.5103
 1854SOL    MW4 7190   4.213   3.409   2.780  0.6437 -0.4974  0.1286
 1855SOL     OW 7191   4.971   3.951   6.129  0.1539 -0.2358  0.1756
 1855SOL    HW2 7192   4.879   3.937   6.152 -0.3990  0.8289 -1.2438
 1855SOL    HW3 7193   4.978   4.045   6.114  1.0383 -0.5337 -1.4811
 1855SOL    MW4 7194   4.959   3.961   6.130  0.1977 -0.1347 -0.2302
 1856SOL     OW 7195   0.345   5.453   4.249  0.1321  0.2587  0.2241
 1856SOL    HW2 7196   0.283   5.383   4.230 -0.5915  0.4604  1.7541
 1856SOL    HW3 7197   0.315   5.491   4.332  0.8800  1.9597 -0.2346
 1856SOL    MW4 7198   0.333   5.449   4.257  0.1353  0.5097  0.3654
 1857SOL     OW 7199   5.881   4.680   1.205  0.0220 -0.5332  0.3456
 1857SOL    HW2 7200   5.915   4.753   1.257 -0.4151  0.2796 -0.4804
 1857SOL    HW3 7201   5.956   4.621   1.194  0.6312  0.2515  0.2329
 1857SOL    MW4 7202   5.896   4.682   1.211  0.0447 -0.3224  0.2218
 1858SOL     OW 7203   3.389   3.667   5.666 -0.4881 -0.0502  0.1992
 1858SOL    HW2 7204   3.371   3.753   5.705 -0.0654 -0.4686  1.3655
 1858SOL    HW3 7205   3.336   3.606   5.718  0.4338 -0.6767  0.4258
 1858SOL    MW4 7206   3.379   3.671   5.678 -0.3107 -0.1880  0.3830
 1859SOL     OW 7207   3.478   4.839   6.203 -0.2806 -0.2696  0.4193
 1859SOL    HW2 7208   3.570   4.814   6.192 -0.0519  1.3947 -2.3439
 1859SOL    HW3 7209   3.482   4.919   6.256 -0.4243 -1.6280  2.5984
 1859SOL    MW4 7210   3.491   4.846   6.209 -0.2694 -0.2292  0.3422
 1860SOL     OW 7211   5.540   5.145   3.630 -0.1048  0.3758  0.2099
 1860SOL    HW2 7212   5.526   5.162   3.723  0.0490 -0.3786  0.3793
 1860SOL    HW3 7213   5.470   5.194   3.586  0.7857  2.0793  0.5980
 1860SOL    MW4 7214   5.529   5.154   3.636  0.0329  0.5010  0.2835
 1861SOL     OW 7215   0.042   4.974   2.836  0.8311 -0.1248 -0.0541
 1861SOL    HW2 7216   0.109   4.926   2.884  0.6404  0.0785  0.4132
 1861SOL    HW3 7217   0.052   4.944   2.745  0.2839 -1.5675  0.3265
 1861SOL    MW4 7218   0.052   4.964   2.830  0.7337 -0.2884  0.0578
 1862SOL     OW 7219   4.665   4.031   4.124  0.0199 -0.6197  0.1935
 1862SOL    HW2 7220   4.682   3.946   4.164 -1.9646 -1.5548 -0.7639
 1862SOL    HW3 7221   4.570   4.040   4.128  0.0755  0.8636 -1.0781
 1862SOL    MW4 7222   4.654   4.021   4.130 -0.2346 -0.5473 -0.1006
 1863SOL     OW 7223   2.508   0.301   4.768 -0.1298  0.0715  0.3452
 1863SOL    HW2 7224   2.566   0.377   4.767 -0.0724  0.0310  0.4852
 1863SOL    HW3 7225   2.510   0.271   4.859  0.2351 -0.3943  0.1894
 1863SOL    MW4 7226   2.516   0.307   4.780 -0.0740  0.0047  0.3431
 1864SOL     OW 7227   2.425   4.589   1.685 -0.1002  0.3437 -0.2094
 1864SOL    HW2 7228   2.338   4.598   1.724 -0.1459 -0.1521 -0.1919
 1864SOL    HW3 7229   2.408   4.570   1.593 -0.0350 -0.7289 -0.0126
 1864SOL    MW4 7230   2.411   4.588   1.678 -0.0977  0.1368 -0.1811
 1865SOL     OW 7231   3.436   3.079   3.266  0.0824  0.1512  0.2686
 1865SOL    HW2 7232   3.457   3.170   3.243  0.3380  0.7910  2.7018
 1865SOL    HW3 7233   3.518   3.031   3.253  0.1998  0.4695 -0.1660
 1865SOL    MW4 7234   3.450   3.085   3.261  0.1316  0.2776  0.5323
 1866SOL     OW 7235   4.642   2.759   2.454 -0.0667  0.2070  0.7691
 1866SOL    HW2 7236   4.560   2.719   2.480  0.6115 -1.4621  0.4243
 1866SOL    HW3 7237   4.625   2.853   2.459 -1.7065 -0.0997  1.5661
 1866SOL    MW4 7238   4.629   2.766   2.458 -0.1936 -0.0537  0.8288
 1867SOL     OW 7239   6.059   4.619   1.880 -0.3349  0.9027  0.3428
 1867SOL    HW2 7240   6.023   4.569   1.953 -1.1232  0.1268 -0.5583
 1867SOL    HW3 7241   6.123   4.678   1.921 -0.8428  0.5732  1.6629
 1867SOL    MW4 7242   6.063   4.620   1.895 -0.5059  0.7569  0.3981
 1868SOL     OW 7243   2.894   1.288   4.672 -0.1100 -0.8199  0.0266
 1868SOL    HW2 7244   2.839   1.297   4.749 -0.3528 -1.9065 -0.0055
 1868SOL    HW3 7245   2.975   1.333   4.695 -0.3256 -0.7992  0.7653
 1868SOL    MW4 7246   2.898   1.295   4.685 -0.1705 -0.9605  0.1199
 1869SOL     OW 7247   5.845   5.012   2.102  0.5373 -0.1695  0.3744
 1869SOL    HW2 7248   5.806   4.938   2.148 -0.0591 -1.0413 -1.4513
 1869SOL    HW3 7249   5.939   4.995   2.104  0.4552 -0.6210  0.5567
 1869SOL    MW4 7250   5.852   5.000   2.108  0.4478 -0.3441  0.1576
 1870SOL     OW 7251   2.428   5.906   0.721 -0.0240 -0.2069  0.6748
 1870SOL    HW2 7252   2.393   5.922   0.809 -0.0671  0.3486  0.5615
 1870SOL    HW3 7253   2.391   5.976   0.667 -1.6480 -1.7192 -0.2565
 1870SOL    MW4 7254   2.419   5.917   0.726 -0.2440 -0.3332  0.5370
 1871SOL     OW 7255   4.944   1.302   3.927  0.5068 -0.3648 -0.0495
 1871SOL    HW2 7256   5.035   1.292   3.954  0.5961  1.4518  0.4938
 1871SOL    HW3 7257   4.926   1.226   3.873  1.9252 -1.4498  0.9419
 1871SOL    MW4 7258   4.954   1.291   3.923  0.7057 -0.2682  0.1530
 1872SOL     OW 7259   2.824   0.291   2.209 -0.4758  0.5066 -0.1392
 1872SOL    HW2 7260   2.840   0.202   2.239 -0.6393 -0.1113 -1.7884
 1872SOL    HW3 7261   2.732   0.308   2.231 -1.5291 -1.0651 -2.8256
 1872SOL    MW4 7262   2.814   0.282   2.216 -0.6364  0.2177 -0.7112
 1873SOL     OW 7263   2.987   5.216   5.419 -0.1335  0.3235  0.9387
 1873SOL    HW2 7264   2.966   5.234   5.327  0.0360 -0.3379  0.7632
 1873SOL    HW3 7265   2.972   5.299   5.464  1.5173  1.1727  0.0226
 1873SOL    MW4 7266   2.982   5.229   5.413  0.1067  0.3483  0.7947
 1874SOL     OW 7267   2.941   5.221   4.290 -0.3590 -0.3837  0.2442
 1874SOL    HW2 7268   2.935   5.148   4.229  1.0386 -0.0642 -0.3179
 1874SOL    HW3 7269   3.034   5.243   4.293 -0.6336  0.8072  1.0775
 1874SOL    MW4 7270   2.953   5.214   4.282 -0.2108 -0.1844  0.2800
 1875SOL     OW 7271   4.409   5.357   4.267  0.0381 -0.3030 -0.5904
 1875SOL    HW2 7272   4.495   5.320   4.286  0.2732 -0.1207 -1.2573
 1875SOL    HW3 7273   4.355   5.282   4.244 -0.0844 -0.4571  0.1739
 1875SOL    MW4 7274   4.413   5.342   4.266  0.0529 -0.2993 -0.5775
 1876SOL     OW 7275   4.857   1.948   3.938 -0.3143 -0.2933 -0.0662
 1876SOL    HW2 7276   4.864   1.985   3.850  2.8352 -0.4981 -0.0328
 1876SOL    HW3 7277   4.913   2.004   3.991 -1.8710 -0.3917  1.7853
 1876SOL    MW4 7278   4.865   1.960   3.933 -0.1042 -0.3333  0.1825
 1877SOL     OW 7279   5.053   2.617   1.734 -0.5691  0.1498 -0.0536
 1877SOL    HW2 7280   5.052   2.556   1.808 -0.8790  0.6382  0.3488
 1877SOL    HW3 7281   5.091   2.566   1.662 -1.8796 -0.8970 -0.0517
 1877SOL    MW4 7282   5.058   2.602   1.735 -0.7829  0.0761 -0.0003
 1878SOL     OW 7283   0.453   5.443   0.394  0.5781 -0.1181  0.6611
 1878SOL    HW2 7284   0.490   5.401   0.472  0.0227 -1.7525  0.1054
 1878SOL    HW3 7285   0.461   5.377   0.326 -1.2651  0.2940 -0.0241
 1878SOL    MW4 7286   0.459   5.428   0.396  0.2616 -0.2793  0.4974
 1879SOL     OW 7287   1.335   1.675   2.744 -0.0123  0.3185  0.3511
 1879SOL    HW2 7288   1.430   1.662   2.739 -0.2522 -1.3943 -0.5064
 1879SOL    HW3 7289   1.311   1.642   2.831 -0.2602 -2.9170 -0.8336
 1879SOL    MW4 7290   1.344   1.669   2.755 -0.0766 -0.3344  0.0816
 1880SOL     OW 7291   0.807   2.703   2.423 -0.4656  0.0577  0.2733
 1880SOL    HW2 7292   0.861   2.758   2.480 -1.9813  3.8970 -1.5815
 1880SOL    HW3 7293   0.731   2.681   2.476 -0.3771  0.8341  0.7434
 1880SOL    MW4 7294   0.804   2.708   2.437 -0.6539  0.6667  0.0906
 1881SOL     OW 7295   2.465   2.062   0.963 -0.0699  0.4765  0.2872
 1881SOL    HW2 7296   2.415   2.007   1.023  0.7983 -0.2731  0.3554
 1881SOL    HW3 7297   2.429   2.041   0.877  0.8990 -0.9748  0.2000
 1881SOL    MW4 7298   2.454   2.052   0.960  0.1725  0.1861  0.2847
 1882SOL     OW 7299   4.771   3.561   2.561 -0.2737  0.1302 -0.2360
 1882SOL    HW2 7300   4.741   3.579   2.650  1.0089  0.2098  0.1961
 1882SOL    HW3 7301   4.789   3.467   2.560 -3.0086 -0.4707 -1.2823
 1882SOL    MW4 7302   4.769   3.551   2.572 -0.4653  0.0615 -0.3171
 1883SOL     OW 7303   3.893   5.168   2.351  0.1519 -0.0373 -0.2379
 1883SOL    HW2 7304   3.889   5.075   2.372  0.5246  0.1563  0.7930
 1883SOL    HW3 7305   3.802   5.197   2.349 -0.0729 -0.7729 -2.3752
 1883SOL    MW4 7306   3.881   5.160   2.354  0.1714 -0.1088 -0.3839
 1884SOL     OW 7307   3.851   1.487   3.967 -0.0219  0.6896  0.2080
 1884SOL    HW2 7308   3.926   1.520   4.017  0.9605 -2.8771  1.3943
 1884SOL    HW3 7309   3.888   1.455   3.885 -0.5234  0.4622  0.0658
 1884SOL    MW4 7310   3.865   1.487   3.963  0.0415  0.1890  0.3458
 1885SOL     OW 7311   4.489   3.453   6.382 -0.4999  0.5772 -0.1940
 1885SOL    HW2 7312   4.428   3.401   6.434 -1.5782  0.4681 -1.5162
 1885SOL    HW3 7313   4.556   3.481   6.444 -0.9572 -0.7439  0.9486
 1885SOL    MW4 7314   4.490   3.450   6.397 -0.7025  0.3885 -0.2177
 1886SOL     OW 7315   5.188   4.317   2.829  0.3405 -0.8528 -0.4615
 1886SOL    HW2 7316   5.267   4.332   2.881  1.3088 -0.9418 -1.8251
 1886SOL    HW3 7317   5.135   4.258   2.882  0.8463 -0.2147  0.8068
 1886SOL    MW4 7318   5.192   4.312   2.843  0.5350 -0.7803 -0.4741
 1887SOL     OW 7319   5.965   3.834   2.813  0.1707 -0.1264  0.5170
 1887SOL    HW2 7320   5.951   3.796   2.727 -1.7141 -0.8240  1.0865
 1887SOL    HW3 7321   5.933   3.924   2.805 -0.4813 -0.3424  0.5915
 1887SOL    MW4 7322   5.959   3.841   2.801 -0.1640 -0.2470  0.6019
 1888SOL     OW 7323   5.807   1.662   4.066 -0.6759  0.7599  0.0374
 1888SOL    HW2 7324   5.890   1.618   4.048 -0.4515  0.7160  1.1158
 1888SOL    HW3 7325   5.744   1.591   4.079 -1.6171  0.7295 -3.6168
 1888SOL    MW4 7326   5.810   1.647   4.065 -0.7704  0.7501 -0.3025
 1889SOL     OW 7327   6.094   5.948   3.236 -0.0588 -0.6152 -0.3800
 1889SOL    HW2 7328   6.117   5.858   3.211 -1.7675 -0.7351 -1.7423
 1889SOL    HW3 7329   6.053   5.985   3.158  0.2896  1.2629  0.2607
 1889SOL    MW4 7330   6.092   5.941   3.222 -0.2383 -0.3832 -0.4752
 1890SOL     OW 7331   5.363   0.814   0.328 -0.0559  0.2753  0.2642
 1890SOL    HW2 7332   5.270   0.837   0.334 -0.0344  0.2996  0.5516
 1890SOL    HW3 7333   5.405   0.892   0.291 -0.5039 -0.6392 -2.3659
 1890SOL    MW4 7334   5.356   0.827   0.324 -0.1122  0.1578 -0.0449
 1891SOL     OW 7335   5.183   0.264   0.047  0.0077  0.1625  0.0858
 1891SOL    HW2 7336   5.100   0.221   0.064 -0.4130  0.3064 -1.4682
 1891SOL    HW3 7337   5.249   0.200   0.073 -0.5430  0.3121  1.9890
 1891SOL    MW4 7338   5.181   0.250   0.053 -0.1205  0.2012  0.1319
 1892SOL     OW 7339   2.641   3.279   3.631 -0.1362 -0.1010  0.1492
 1892SOL    HW2 7340   2.715   3.254   3.687  0.2104  0.7097  0.0658
 1892SOL    HW3 7341   2.643   3.375   3.629 -2.2161  0.0346  1.5137
 1892SOL    MW4 7342   2.651   3.288   3.638 -0.3649  0.0238  0.3183
 1893SOL     OW 7343   0.023   3.451   3.355 -0.2995  0.0342 -0.2762
 1893SOL    HW2 7344   0.014   3.507   3.432  0.0756  0.7571 -0.7391
 1893SOL    HW3 7345   0.007   3.363   3.387  1.1038  0.1605  0.9163
 1893SOL    MW4 7346   0.020   3.447   3.370 -0.0648  0.1462 -0.1799
 1894SOL     OW 7347   2.693   1.328   4.868 -0.9206 -0.1111  0.8567
 1894SOL    HW2 7348   2.725   1.253   4.917 -0.1775 -0.1991  0.2487
 1894SOL    HW3 7349   2.617   1.295   4.820  0.5345 -1.0325 -0.9390
 1894SOL    MW4 7350   2.687   1.314   4.869 -0.6306 -0.2443  0.5395
 1895SOL     OW 7351   1.972   1.549   4.784  0.2440  0.2171  0.3543
 1895SOL    HW2 7352   1.959   1.605   4.860  0.6133 -1.1814  1.5050
 1895SOL    HW3 7353   1.996   1.609   4.713 -0.6828  1.6102  1.1705
 1895SOL    MW4 7354   1.974   1.564   4.784  0.1704  0.2164  0.6138
 1896SOL     OW 7355   1.628   1.650   1.597  0.0817 -0.2344 -0.2375
 1896SOL    HW2 7356   1.618   1.583   1.665  1.1890 -1.0948 -0.8925
 1896SOL    HW3 7357   1.626   1.601   1.515 -2.3734  0.9117 -0.9335
 1896SOL    MW4 7358   1.627   1.635   1.595 -0.0961 -0.1967 -0.4158
 1897SOL     OW 7359   5.430   1.976   3.925  0.1710  0.8194 -0.2049
 1897SOL    HW2 7360   5.402   1.938   4.008 -0.0447  2.5364  0.5668
 1897SOL    HW3 7361   5.525   1.960   3.922  0.2008  0.8442  0.4439
 1897SOL    MW4 7362   5.439   1.969   3.936  0.1465  1.0492 -0.0175
 1898SOL     OW 7363   3.339   1.885   3.638  0.0259  0.4004 -0.5813
 1898SOL    HW2 7364   3.272   1.921   3.580  0.6673 -0.7765 -2.1173
 1898SOL    HW3 7365   3.334   1.791   3.626  0.6688  0.1632  0.7700
 1898SOL    MW4 7366   3.330   1.878   3.629  0.1954  0.2138 -0.6057
 1899SOL     OW 7367   3.849   5.998   3.929  0.0175 -0.3541 -0.1829
 1899SOL    HW2 7368   3.938   5.996   3.895  0.3416  1.4850  0.4372
 1899SOL    HW3 7369   3.859   5.983   4.023 -0.2879  0.1416 -0.0669
 1899SOL    MW4 7370   3.862   5.995   3.937  0.0199 -0.0461 -0.0858
 1900SOL     OW 7371   4.091   6.021   2.520 -0.1651  0.6546 -0.0452
 1900SOL    HW2 7372   4.144   6.091   2.483  1.1536 -0.8341 -1.1310
 1900SOL    HW3 7373   4.006   6.030   2.477  0.7483  0.1413 -2.1364
 1900SOL    MW4 7374   4.087   6.031   2.509  0.1294  0.3905 -0.4644
 1901SOL     OW 7375   2.064   2.199   4.764 -0.2577  0.3357  0.1472
 1901SOL    HW2 7376   2.113   2.149   4.699  0.1025  0.4193  0.3543
 1901SOL    HW3 7377   1.972   2.187   4.739 -0.2789 -1.5566  0.9904
 1901SOL    MW4 7378   2.058   2.191   4.752 -0.2130  0.0971  0.2858
 1902SOL     OW 7379   5.203   2.522   3.020  0.0373 -0.1679  0.4466
 1902SOL    HW2 7380   5.242   2.562   3.098 -0.0378 -0.7869  0.8016
 1902SOL    HW3 7381   5.255   2.444   3.003  0.1018  0.0007 -0.1733
 1902SOL    MW4 7382   5.215   2.517   3.028  0.0359 -0.2273  0.4117
 1903SOL     OW 7383   4.298   2.384   0.111  0.4260 -0.0324  0.2256
 1903SOL    HW2 7384   4.330   2.396   0.021  2.4347 -0.0644  0.8940
 1903SOL    HW3 7385   4.372   2.407   0.166 -1.0212  0.7953  1.9339
 1903SOL    MW4 7386   4.312   2.389   0.106  0.5001  0.0726  0.5392
 1904SOL     OW 7387   6.360   3.742   5.703 -0.6476  0.0927  0.1846
 1904SOL    HW2 7388   6.317   3.782   5.627  0.1566  1.0479  0.2175
 1904SOL    HW3 7389   6.327   3.791   5.778  1.0600  1.3761  0.1436
 1904SOL    MW4 7390   6.350   3.754   5.703 -0.3162  0.3880  0.1835
 1905SOL     OW 7391   5.980   3.341   3.099 -0.3973  0.1883  0.3272
 1905SOL    HW2 7392   5.907   3.292   3.060  0.1899  0.8794 -1.8172
 1905SOL    HW3 7393   5.962   3.433   3.077  0.6509  0.4616  0.5363
 1905SOL    MW4 7394   5.968   3.347   3.091 -0.1815  0.3155  0.0719
 1906SOL     OW 7395   5.326   0.912   2.382 -0.5166  0.7751  1.1289
 1906SOL    HW2 7396   5.265   0.962   2.328 -0.6869 -0.7909 -0.1970
 1906SOL    HW3 7397   5.284   0.827   2.394  1.0980 -0.1474  0.6610
 1906SOL    MW4 7398   5.312   0.907   2.376 -0.3260  0.4468  0.8922
 1907SOL     OW 7399   4.551   0.230   3.213  0.6261 -0.0911  0.1139
 1907SOL    HW2 7400   4.515   0.214   3.300 -1.3586  1.0380 -0.4365
 1907SOL    HW3 7401   4.488   0.289   3.171  0.5291 -1.9817 -2.7118
 1907SOL    MW4 7402   4.538   0.235   3.219  0.3514 -0.1915 -0.3315
 1908SOL     OW 7403   3.218   4.024   1.062  0.4003 -0.8627 -0.3702
 1908SOL    HW2 7404   3.156   4.045   0.993  1.3612 -0.4367 -1.1312
 1908SOL    HW3 7405   3.234   4.106   1.107  2.1193 -0.4348 -1.6437
 1908SOL    MW4 7406   3.212   4.037   1.059  0.7539 -0.7500 -0.6387
 1909SOL     OW 7407   2.805   2.419   1.539 -0.3504 -0.1425  0.0813
 1909SOL    HW2 7408   2.714   2.448   1.529 -0.3206 -0.7060 -2.1848
 1909SOL    HW3 7409   2.849   2.495   1.578 -1.2605  1.1363 -1.2574
 1909SOL    MW4 7410   2.799   2.433   1.543 -0.4666 -0.0482 -0.3943
 1910SOL     OW 7411   1.919   0.416   5.009 -0.1633  0.2109 -0.2603
 1910SOL    HW2 7412   1.864   0.384   5.081  0.8025 -1.7365 -0.3248
 1910SOL    HW3 7413   1.858   0.428   4.936 -0.8066  0.0003  0.2299
 1910SOL    MW4 7414   1.903   0.413   5.009 -0.1207 -0.0738 -0.2042
 1911SOL     OW 7415   2.965   4.034   4.557 -0.1997  0.3674  0.0585
 1911SOL    HW2 7416   2.920   4.089   4.491 -0.5211  0.5957  0.4628
 1911SOL    HW3 7417   2.995   4.096   4.623  1.0753  0.2626 -0.3974
 1911SOL    MW4 7418   2.963   4.049   4.557 -0.0739  0.3837  0.0517
 1912SOL     OW 7419   5.115   1.208   5.567 -0.0808 -0.4198 -0.5760
 1912SOL    HW2 7420   5.161   1.292   5.570  1.8257 -1.0476 -5.0047
 1912SOL    HW3 7421   5.031   1.229   5.525 -0.6071 -0.4392  0.4370
 1912SOL    MW4 7422   5.110   1.222   5.562  0.1013 -0.5052 -1.0266
 1913SOL     OW 7423   4.555   2.898   0.289 -0.5436 -0.0510 -0.2201
 1913SOL    HW2 7424   4.600   2.982   0.276  0.1569 -0.1806  1.1251
 1913SOL    HW3 7425   4.490   2.895   0.220 -1.3915  2.1493  0.3796
 1913SOL    MW4 7426   4.553   2.909   0.278 -0.5631  0.2222  0.0365
 1914SOL     OW 7427   0.370   1.207   1.708  0.3421 -0.1543  0.2793
 1914SOL    HW2 7428   0.354   1.173   1.620  0.0044 -1.0510  0.6757
 1914SOL    HW3 7429   0.359   1.131   1.765  2.2574  0.0118  0.9509
 1914SOL    MW4 7430   0.367   1.193   1.704  0.5503 -0.2507  0.4202
 1915SOL     OW 7431   4.656   1.906   1.656 -0.1439 -0.5329  0.1725
 1915SOL    HW2 7432   4.620   1.939   1.574  1.0189 -0.7156 -0.4316
 1915SOL    HW3 7433   4.623   1.816   1.663  0.0027 -0.6192 -0.2517
 1915SOL    MW4 7434   4.647   1.898   1.646  0.0289 -0.5684  0.0369
 1916SOL     OW 7435   3.623   0.284   0.301  0.1217  0.2496  0.2418
 1916SOL    HW2 7436   3.645   0.338   0.377  1.6245  0.0883 -0.0521
 1916SOL    HW3 7437   3.534   0.311   0.278  0.5718  2.1464  0.5158
 1916SOL    MW4 7438   3.614   0.295   0.308  0.3793  0.4786  0.2392
 1917SOL     OW 7439   1.748   2.257   0.915 -0.3828  0.0316  0.4682
 1917SOL    HW2 7440   1.657   2.287   0.910 -0.2398  0.3551 -0.2573
 1917SOL    HW3 7441   1.799   2.328   0.877 -0.0801 -1.3049 -1.8369
 1917SOL    MW4 7442   1.743   2.270   0.910 -0.3240 -0.1021  0.0684
 1918SOL     OW 7443   4.968   6.296   1.436  0.2718 -0.1326  0.2532
 1918SOL    HW2 7444   4.965   6.389   1.416  0.4638 -0.5251 -1.8601
 1918SOL    HW3 7445   5.057   6.281   1.470  1.0487  0.1009 -1.5772
 1918SOL    MW4 7446   4.980   6.306   1.438  0.3997 -0.1536 -0.2671
 1919SOL     OW 7447   1.353   6.352   4.209  0.1337  0.2376  0.1021
 1919SOL    HW2 7448   1.404   6.353   4.290  0.7652  1.4084 -0.2787
 1919SOL    HW3 7449   1.278   6.409   4.228  1.6456  2.7424 -0.9055
 1919SOL    MW4 7450   1.350   6.360   4.223  0.4165  0.7225 -0.0811
 1920SOL     OW 7451   0.626   4.615   2.964 -0.2129 -0.0382 -0.2812
 1920SOL    HW2 7452   0.690   4.647   3.028 -0.9670 -0.6365  0.7969
 1920SOL    HW3 7453   0.644   4.667   2.885  2.3329 -0.9351 -0.4148
 1920SOL    MW4 7454   0.637   4.626   2.962  0.0235 -0.2355 -0.1566
 1921SOL     OW 7455   4.166   2.056   3.107  0.2023 -0.3424 -0.1926
 1921SOL    HW2 7456   4.080   2.067   3.147  0.8382 -0.8392  1.4226
 1921SOL    HW3 7457   4.182   1.962   3.109  0.7543 -0.2579 -0.5003
 1921SOL    MW4 7458   4.157   2.045   3.113  0.3590 -0.3968 -0.0201
 1922SOL     OW 7459   0.580   3.501   2.470  0.0624 -0.0463 -0.0071
 1922SOL    HW2 7460   0.561   3.488   2.563 -1.5253  0.6351 -0.2048
 1922SOL    HW3 7461   0.575   3.595   2.457  2.6611  0.1229 -0.3508
 1922SOL    MW4 7462   0.577   3.511   2.480  0.1957  0.0659 -0.0785
 1923SOL     OW 7463   1.885   4.053   5.501  0.3659 -0.1686 -0.4407
 1923SOL    HW2 7464   1.831   4.000   5.443  0.3237  0.9970 -1.5187
 1923SOL    HW3 7465   1.828   4.124   5.530 -0.0376 -1.4586  2.2138
 1923SOL    MW4 7466   1.871   4.056   5.497  0.3071 -0.1850 -0.2327
 1924SOL     OW 7467   5.535   2.170   4.968 -0.0822 -0.1026 -0.0667
 1924SOL    HW2 7468   5.599   2.106   4.938  0.5597  0.9739 -1.0714
 1924SOL    HW3 7469   5.587   2.237   5.012 -0.7372 -0.1901  0.8860
 1924SOL    MW4 7470   5.550   2.170   4.970 -0.0839  0.0279 -0.0735
 1925SOL     OW 7471   2.515   4.609   2.428  0.1833 -0.1118 -0.3849
 1925SOL    HW2 7472   2.482   4.595   2.339 -1.3955 -1.0805  0.3091
 1925SOL    HW3 7473   2.477   4.693   2.455  1.6330  0.7812 -1.0173
 1925SOL    MW4 7474   2.506   4.618   2.420  0.1663 -0.1218 -0.3768
 1926SOL     OW 7475   6.356   5.373   6.336  0.6270  0.2652 -0.1242
 1926SOL    HW2 7476   6.351   5.448   6.277 -1.7773  0.0570 -0.2825
 1926SOL    HW3 7477   6.406   5.307   6.288 -0.4831  0.4306 -1.5460
 1926SOL    MW4 7478   6.362   5.374   6.322  0.1633  0.2596 -0.3326
 1927SOL     OW 7479   1.007   5.757   6.409 -0.8904 -0.3805 -0.5689
 1927SOL    HW2 7480   1.045   5.670   6.399 -0.4275 -0.1482 -0.8465
 1927SOL    HW3 7481   1.082   5.816   6.421 -1.2108 -0.0480 -0.1717
 1927SOL    MW4 7482   1.022   5.754   6.409 -0.8716 -0.3060 -0.5532
 1928SOL     OW 7483   2.077   1.135   4.360 -0.5675 -0.0217 -0.4576
 1928SOL    HW2 7484   2.015   1.206   4.379  0.1926  0.7981 -0.9623
 1928SOL    HW3 7485   2.152   1.153   4.416 -0.6270 -0.7934 -0.1287
 1928SOL    MW4 7486   2.079   1.147   4.370 -0.4751 -0.0154 -0.4808
 1929SOL     OW 7487   1.115   3.071   5.359 -0.2650  0.2995  0.4820
 1929SOL    HW2 7488   1.039   3.122   5.330 -0.3074  0.0601  0.1597
 1929SOL    HW3 7489   1.191   3.121   5.329 -0.3132 -0.1486 -0.4117
 1929SOL    MW4 7490   1.115   3.084   5.351 -0.2770  0.2088  0.3216
 1930SOL     OW 7491   0.337   3.311   2.617  0.2030  0.4056  0.1621
 1930SOL    HW2 7492   0.254   3.281   2.654  0.2055 -0.1998 -0.2996
 1930SOL    HW3 7493   0.403   3.257   2.661  0.2454  0.0207 -0.3736
 1930SOL    MW4 7494   0.335   3.300   2.628  0.2089  0.2749  0.0305
 1931SOL     OW 7495   1.109   3.088   6.258  0.3050  0.2092 -0.7428
 1931SOL    HW2 7496   1.160   3.041   6.192 -0.6910 -0.7372 -0.8714
 1931SOL    HW3 7497   1.024   3.102   6.217 -0.1914 -0.0172  0.1859
 1931SOL    MW4 7498   1.104   3.083   6.244  0.1081  0.0544 -0.6372
 1932SOL     OW 7499   3.049   5.327   4.625 -0.0606 -0.4406  0.1607
 1932SOL    HW2 7500   2.995   5.257   4.589 -0.6481  0.1097 -0.0544
 1932SOL    HW3 7501   3.064   5.386   4.552  0.5586 -0.4147  0.3017
 1932SOL    MW4 7502   3.043   5.326   4.611 -0.0564 -0.3646  0.1509
 1933SOL     OW 7503   2.437   6.072   1.254  0.0064  0.1934  0.5312
 1933SOL    HW2 7504   2.465   6.024   1.332 -1.4136 -0.6897  0.5393
 1933SOL    HW3 7505   2.450   6.011   1.182  1.9398  1.2314 -0.0836
 1933SOL    MW4 7506   2.442   6.058   1.255  0.0742  0.2139  0.4512
 1934SOL     OW 7507   4.048   4.006   2.193  0.3578 -0.5157 -0.5054
 1934SOL    HW2 7508   3.959   3.973   2.178  0.3678  0.0626 -2.0261
 1934SOL    HW3 7509   4.041   4.100   2.178  0.9338 -0.2340  0.8656
 1934SOL    MW4 7510   4.035   4.014   2.189  0.4351 -0.4022 -0.5251
 1935SOL     OW 7511   2.993   0.046   1.527  0.1331 -1.0913  0.1275
 1935SOL    HW2 7512   2.909   0.093   1.531  0.3968 -0.6702  2.6975
 1935SOL    HW3 7513   3.025   0.062   1.439 -1.4246  0.6564 -0.2012
 1935SOL    MW4 7514   2.986   0.054   1.516 -0.0376 -0.8051  0.4232
 1936SOL     OW 7515   5.537   3.439   3.828  0.4499 -0.6996  0.3174
 1936SOL    HW2 7516   5.588   3.377   3.881 -2.4897 -0.5568  3.7455
 1936SOL    HW3 7517   5.452   3.397   3.818 -0.2939  1.0121 -1.0042
 1936SOL    MW4 7518   5.533   3.425   3.834 -0.0361 -0.4549  0.5953
 1937SOL     OW 7519   4.271   4.140   4.618 -0.0466 -0.2862  0.4445
 1937SOL    HW2 7520   4.226   4.111   4.539 -0.9582  1.2880  0.3434
 1937SOL    HW3 7521   4.253   4.234   4.623  0.9276 -0.1430  1.9201
 1937SOL    MW4 7522   4.263   4.149   4.608 -0.0383 -0.0596  0.6258
 1938SOL     OW 7523   0.152   2.943   0.684 -0.1318  0.6906 -0.0948
 1938SOL    HW2 7524   0.080   2.999   0.657  0.5444  0.5478 -2.3442
 1938SOL    HW3 7525   0.166   2.884   0.610  1.9489  0.3672  0.5056
 1938SOL    MW4 7526   0.144   2.942   0.671  0.2320  0.6291 -0.3124
 1939SOL     OW 7527   2.600   0.814   2.830  1.0401 -0.9983  0.8533
 1939SOL    HW2 7528   2.551   0.747   2.876 -0.0655 -0.4591  0.5099
 1939SOL    HW3 7529   2.588   0.794   2.737 -0.8581  0.6631  0.6685
 1939SOL    MW4 7530   2.592   0.803   2.823  0.6438 -0.7080  0.7836
 1940SOL     OW 7531   5.914   3.628   5.452  0.7044  0.0763 -0.1458
 1940SOL    HW2 7532   5.837   3.634   5.394  0.8151 -0.6554 -0.3830
 1940SOL    HW3 7533   5.957   3.547   5.425  0.7537 -0.2805  0.9742
 1940SOL    MW4 7534   5.909   3.618   5.441  0.7255 -0.0673 -0.0293
 1941SOL     OW 7535   4.761   3.472   5.495  0.2570 -0.2907 -0.1075
 1941SOL    HW2 7536   4.826   3.402   5.498 -1.4688 -2.1035 -1.7595
 1941SOL    HW3 7537   4.691   3.441   5.552  0.5693  1.4149  1.2809
 1941SOL    MW4 7538   4.760   3.458   5.503  0.0705 -0.3048 -0.1423
 1942SOL     OW 7539   2.486   0.441   2.724  0.5346 -0.3366  0.2453
 1942SOL    HW2 7540   2.411   0.457   2.667  0.3179 -0.7403  0.4134
 1942SOL    HW3 7541   2.469   0.355   2.763  1.1351 -0.4751  0.2048
 1942SOL    MW4 7542   2.474   0.432   2.722  0.5853 -0.4081  0.2621
 1943SOL     OW 7543   4.157   1.291   0.844 -0.3146 -0.2863 -0.0892
 1943SOL    HW2 7544   4.187   1.201   0.860  1.8931  0.2800 -0.6785
 1943SOL    HW3 7545   4.237   1.342   0.838 -1.5309  1.8197  0.5535
 1943SOL    MW4 7546   4.171   1.286   0.845 -0.1838  0.0663 -0.0822
 1944SOL     OW 7547   5.742   2.703   5.588 -0.3915 -0.2702  0.2612
 1944SOL    HW2 7548   5.667   2.763   5.586 -0.9660 -1.0035 -1.0928
 1944SOL    HW3 7549   5.758   2.681   5.497  0.4740 -1.3757  0.6550
 1944SOL    MW4 7550   5.734   2.708   5.576 -0.3531 -0.5128  0.1345
 1945SOL     OW 7551   0.505   1.176   2.524 -0.6099  0.4493 -0.1593
 1945SOL    HW2 7552   0.562   1.138   2.458 -0.2230  0.1636  0.3380
 1945SOL    HW3 7553   0.420   1.184   2.480 -0.5747 -0.5162 -0.4295
 1945SOL    MW4 7554   0.501   1.172   2.509 -0.5542  0.2842 -0.1293
 1946SOL     OW 7555   5.570   0.468   3.129 -0.1714 -0.3348 -0.3189
 1946SOL    HW2 7556   5.530   0.411   3.063  0.2315  0.7018 -1.5010
 1946SOL    HW3 7557   5.615   0.407   3.188 -1.9596 -1.4033  0.0266
 1946SOL    MW4 7558   5.571   0.452   3.128 -0.3542 -0.3390 -0.4292
 1947SOL     OW 7559   3.233   5.371   1.449 -0.1481  0.0517  0.0784
 1947SOL    HW2 7560   3.153   5.417   1.423  0.0499 -0.9886 -2.6957
 1947SOL    HW3 7561   3.254   5.406   1.536 -2.3862  1.9386 -0.0520
 1947SOL    MW4 7562   3.225   5.382   1.457 -0.4173  0.1634 -0.3048
 1948SOL     OW 7563   1.187   4.282   3.270 -0.2600 -0.2491 -0.1471
 1948SOL    HW2 7564   1.264   4.323   3.230  0.4114 -1.4121 -0.0984
 1948SOL    HW3 7565   1.215   4.260   3.359 -0.2121 -1.8182 -0.5283
 1948SOL    MW4 7566   1.201   4.284   3.276 -0.1651 -0.6096 -0.1910
 1949SOL     OW 7567   1.501   4.936   3.899 -0.0935  0.8067  0.1569
 1949SOL    HW2 7568   1.445   4.904   3.970  0.9662  2.1834  1.6752
 1949SOL    HW3 7569   1.452   5.010   3.861 -0.7480 -0.0491 -0.7326
 1949SOL    MW4 7570   1.487   4.942   3.903 -0.0401  0.8754  0.2399
 1950SOL     OW 7571   1.741   4.780   5.172 -0.5420 -0.1629 -0.2495
 1950SOL    HW2 7572   1.657   4.816   5.145 -0.4268 -0.1219 -0.5506
 1950SOL    HW3 7573   1.746   4.695   5.129 -0.5479 -0.2858 -0.0134
 1950SOL    MW4 7574   1.731   4.774   5.163 -0.5276 -0.1737 -0.2581
 1951SOL     OW 7575   6.146   1.893   4.377  0.2708 -0.2341  0.3818
 1951SOL    HW2 7576   6.113   1.914   4.289 -1.2325 -0.6648  0.8138
 1951SOL    HW3 7577   6.176   1.977   4.412  0.1640  0.0774 -0.2554
 1951SOL    MW4 7578   6.145   1.907   4.370  0.0583 -0.2498  0.3547
 1952SOL     OW 7579   6.256   5.322   4.192 -0.5716 -0.1835 -0.0245
 1952SOL    HW2 7580   6.266   5.273   4.274 -3.7464  1.1622  1.3253
 1952SOL    HW3 7581   6.162   5.339   4.186 -0.0985  2.1733 -2.5417
 1952SOL    MW4 7582   6.245   5.318   4.202 -0.9281  0.3050 -0.1785
 1953SOL     OW 7583   5.363   3.672   1.411  0.7137  0.2108  0.1496
 1953SOL    HW2 7584   5.302   3.742   1.431  0.8808  1.2078 -2.4490
 1953SOL    HW3 7585   5.310   3.592   1.412  0.2307  0.5249  1.7332
 1953SOL    MW4 7586   5.348   3.671   1.414  0.6720  0.3838  0.0157
 1954SOL     OW 7587   2.237   5.939   0.210 -0.4112  0.5059 -0.4812
 1954SOL    HW2 7588   2.261   5.873   0.145 -0.4590  0.0563 -0.0491
 1954SOL    HW3 7589   2.290   5.917   0.287 -2.3168 -0.6478  0.5879
 1954SOL    MW4 7590   2.247   5.927   0.212 -0.6689  0.2944 -0.2832
 1955SOL     OW 7591   4.450   5.578   2.658  0.7399 -0.0832  0.1965
 1955SOL    HW2 7592   4.430   5.558   2.567 -0.2988  0.5906  0.2535
 1955SOL    HW3 7593   4.365   5.594   2.698  1.2921  1.3858  0.8512
 1955SOL    MW4 7594   4.436   5.578   2.651  0.6757  0.1995  0.2904
 1956SOL     OW 7595   6.046   2.398   0.589  0.4311 -0.3056  0.3241
 1956SOL    HW2 7596   5.970   2.354   0.550 -0.2101 -0.1197  1.3187
 1956SOL    HW3 7597   6.107   2.408   0.516 -0.7354  0.0676 -0.6499
 1956SOL    MW4 7598   6.044   2.393   0.574  0.1926 -0.2318  0.3268
 1957SOL     OW 7599   6.157   4.058   2.164  0.2352 -0.1347 -0.0526
 1957SOL    HW2 7600   6.195   4.072   2.077 -0.6485 -1.4641 -0.6895
 1957SOL    HW3 7601   6.230   4.071   2.224  1.3249 -0.9925 -1.1341
 1957SOL    MW4 7602   6.172   4.061   2.160  0.2624 -0.4232 -0.2794
 1958SOL     OW 7603   3.492   0.113   1.955 -0.7507 -0.6109 -0.1307
 1958SOL    HW2 7604   3.570   0.105   1.899 -0.6835  0.1981 -0.1605
 1958SOL    HW3 7605   3.499   0.040   2.017  0.1817 -0.3762  0.0520
 1958SOL    MW4 7606   3.503   0.102   1.956 -0.6188 -0.4732 -0.1105
 1959SOL     OW 7607   5.501   1.804   5.028 -0.0585  0.5302  0.0131
 1959SOL    HW2 7608   5.570   1.854   4.984  2.4055 -1.5324  1.2391
 1959SOL    HW3 7609   5.541   1.777   5.111 -2.2301 -1.1270  0.6022
 1959SOL    MW4 7610   5.516   1.807   5.033 -0.0199  0.0394  0.2526
 1960SOL     OW 7611   2.628   6.375   4.933  0.1283  0.2853  0.5676
 1960SOL    HW2 7612   2.635   6.302   4.994  1.1176 -0.1158 -0.0139
 1960SOL    HW3 7613   2.569   6.343   4.864  1.4425 -0.4020 -0.2720
 1960SOL    MW4 7614   2.621   6.361   4.932  0.4322  0.1417  0.3801
 1961SOL     OW 7615   2.755   3.699   3.239  0.4873  0.1102 -0.0380
 1961SOL    HW2 7616   2.808   3.739   3.308 -0.6161  2.1465 -0.2917
 1961SOL    HW3 7617   2.808   3.625   3.208  2.0782  0.6165  1.3282
 1961SOL    MW4 7618   2.769   3.695   3.244  0.5516  0.4456  0.1088
 1962SOL     OW 7619   3.388   1.035   2.593 -0.2295  0.3586 -0.2180
 1962SOL    HW2 7620   3.430   1.057   2.677 -3.4750  0.5797  1.5192
 1962SOL    HW3 7621   3.389   0.939   2.591 -1.0073  0.3163  0.6222
 1962SOL    MW4 7622   3.394   1.025   2.604 -0.7603  0.3822  0.1221
 1963SOL     OW 7623   0.377   6.260   2.945  0.3297  0.7285 -0.0066
 1963SOL    HW2 7624   0.372   6.354   2.928 -0.1023  0.6616 -0.2510
 1963SOL    HW3 7625   0.301   6.242   3.000 -0.4633  0.2544 -1.2242
 1963SOL    MW4 7626   0.366   6.270   2.950  0.1681  0.6571 -0.1995
 1964SOL     OW 7627   3.530   3.350   3.269 -0.0412  0.1882  0.3199
 1964SOL    HW2 7628   3.535   3.380   3.360  0.9103 -0.2909  0.4349
 1964SOL    HW3 7629   3.560   3.426   3.218 -0.4269  0.4065  0.4170
 1964SOL    MW4 7630   3.535   3.364   3.275  0.0334  0.1538  0.3479
 1965SOL     OW 7631   2.583   3.279   6.216 -0.0090 -0.3918  0.0365
 1965SOL    HW2 7632   2.574   3.236   6.301 -0.1363  0.9830  0.7520
 1965SOL    HW3 7633   2.510   3.341   6.212  1.2978  1.2319 -0.0221
 1965SOL    MW4 7634   2.572   3.282   6.226  0.1467  0.0038  0.1231
 1966SOL     OW 7635   5.595   0.852   1.226  0.1444  0.3172  0.0744
 1966SOL    HW2 7636   5.605   0.772   1.277  0.7627  0.1287 -0.3353
 1966SOL    HW3 7637   5.664   0.910   1.257 -0.8117  1.0155  0.9516
 1966SOL    MW4 7638   5.605   0.849   1.237  0.0998  0.3845  0.1361
 1967SOL     OW 7639   0.851   0.326   5.329  0.1924  0.5500 -0.3320
 1967SOL    HW2 7640   0.885   0.242   5.296  1.2670  0.7736  0.1711
 1967SOL    HW3 7641   0.766   0.303   5.367  0.0841 -0.1556 -0.9559
 1967SOL    MW4 7642   0.844   0.312   5.330  0.3199  0.4864 -0.3479
 1968SOL     OW 7643   3.081   1.753   3.447 -0.2746 -0.7612 -0.0640
 1968SOL    HW2 7644   3.100   1.659   3.451 -2.2667 -1.3074 -1.6111
 1968SOL    HW3 7645   3.031   1.770   3.527 -3.2612 -1.9755 -1.5215
 1968SOL    MW4 7646   3.077   1.743   3.458 -0.9315 -0.9935 -0.4605
 1969SOL     OW 7647   0.658   0.573   4.770  0.2646 -0.0387 -0.3295
 1969SOL    HW2 7648   0.717   0.648   4.773 -0.2292  0.3683 -0.4734
 1969SOL    HW3 7649   0.570   0.612   4.776 -0.1533 -0.3421 -3.1271
 1969SOL    MW4 7650   0.654   0.588   4.771  0.1443 -0.0250 -0.7176
 1970SOL     OW 7651   6.334   0.587   2.352 -0.2520 -0.7554 -0.3020
 1970SOL    HW2 7652   6.334   0.492   2.335  0.1034 -0.9949  0.9203
 1970SOL    HW3 7653   6.427   0.610   2.359 -0.3475 -0.6254  0.8729
 1970SOL    MW4 7654   6.347   0.577   2.351 -0.2177 -0.7699  0.0143
 1971SOL     OW 7655   3.130   1.799   3.085 -0.2147 -0.0180 -0.2326
 1971SOL    HW2 7656   3.064   1.742   3.124 -0.2655  0.0714 -0.1873
 1971SOL    HW3 7657   3.214   1.767   3.119 -0.1946 -0.4052 -0.6251
 1971SOL    MW4 7658   3.133   1.787   3.094 -0.2187 -0.0573 -0.2784
 1972SOL     OW 7659   0.149   5.741   4.924  0.2744  0.5598 -0.7333
 1972SOL    HW2 7660   0.108   5.675   4.979  0.0223  0.9870 -0.4025
 1972SOL    HW3 7661   0.199   5.691   4.859 -2.5008 -0.0390 -2.5434
 1972SOL    MW4 7662   0.150   5.725   4.923 -0.1250  0.5372 -0.9285
 1973SOL     OW 7663   0.509   1.102   4.961  0.1401  0.0677 -0.4977
 1973SOL    HW2 7664   0.451   1.125   4.888 -1.3083 -1.3216  0.1552
 1973SOL    HW3 7665   0.461   1.129   5.039 -0.0837 -1.8869  0.1033
 1973SOL    MW4 7666   0.495   1.108   4.962 -0.0805 -0.3735 -0.3323
 1974SOL     OW 7667   4.603   2.116   0.429  0.4273  0.2110 -0.1980
 1974SOL    HW2 7668   4.597   2.210   0.412 -0.0190  0.2363  0.0672
 1974SOL    HW3 7669   4.511   2.088   0.436  0.5491  0.1392  1.8036
 1974SOL    MW4 7670   4.590   2.125   0.428  0.3845  0.2049  0.1011
 1975SOL     OW 7671   4.055   4.924   2.083 -0.0021  0.0123 -0.7139
 1975SOL    HW2 7672   3.971   4.968   2.092  0.0347  0.2323 -1.3804
 1975SOL    HW3 7673   4.052   4.882   1.997  0.2241 -0.7420 -0.3693
 1975SOL    MW4 7674   4.044   4.924   2.073  0.0326 -0.0582 -0.7564
 1976SOL     OW 7675   3.766   4.684   1.137  0.7561 -0.2311  0.2991
 1976SOL    HW2 7676   3.784   4.627   1.063  0.3920 -1.2801  0.9856
 1976SOL    HW3 7677   3.850   4.727   1.155  0.9764 -0.3648 -0.3847
 1976SOL    MW4 7678   3.780   4.682   1.130  0.7371 -0.3872  0.2995
 1977SOL     OW 7679   3.356   2.626   0.244  0.2575  0.6354  0.0625
 1977SOL    HW2 7680   3.429   2.683   0.218  2.0795 -0.6603  1.9519
 1977SOL    HW3 7681   3.333   2.655   0.332  0.7851 -1.0378  0.7970
 1977SOL    MW4 7682   3.363   2.637   0.252  0.5675  0.2437  0.4087
 1978SOL     OW 7683   0.237   5.396   3.788 -0.6947 -0.2033  0.1855
 1978SOL    HW2 7684   0.282   5.316   3.813 -1.3374 -0.5081  0.3795
 1978SOL    HW3 7685   0.199   5.377   3.702 -0.9262 -0.1382  0.2734
 1978SOL    MW4 7686   0.238   5.383   3.780 -0.8101 -0.2349  0.2227
 1979SOL     OW 7687   3.336   2.086   2.757  0.1871  0.2044  0.1460
 1979SOL    HW2 7688   3.388   2.006   2.746 -0.0948  0.1947 -1.3421
 1979SOL    HW3 7689   3.325   2.120   2.668 -1.0593  1.0375  0.5875
 1979SOL    MW4 7690   3.341   2.080   2.744 -0.0146  0.3131  0.0079
 1980SOL     OW 7691   0.398   0.164   3.926 -0.0101  0.6444 -0.0862
 1980SOL    HW2 7692   0.401   0.191   4.018 -1.8335  0.2674  0.1214
 1980SOL    HW3 7693   0.398   0.069   3.930  0.1675  0.6272 -0.5028
 1980SOL    MW4 7694   0.398   0.155   3.939 -0.2273  0.5924 -0.1137
 1981SOL     OW 7695   3.899   1.100   0.594 -0.4409 -0.1110  0.1416
 1981SOL    HW2 7696   3.920   1.191   0.571 -2.2624  0.0126 -1.2207
 1981SOL    HW3 7697   3.850   1.067   0.519  0.2050 -2.2522  0.6000
 1981SOL    MW4 7698   3.896   1.108   0.581 -0.5960 -0.3772  0.0224
 1982SOL     OW 7699   5.833   4.565   4.633  0.1276 -0.1346 -0.1305
 1982SOL    HW2 7700   5.777   4.514   4.576 -0.0637  0.1201 -0.1729
 1982SOL    HW3 7701   5.786   4.568   4.716 -0.9395  1.8258 -0.7524
 1982SOL    MW4 7702   5.819   4.559   4.637 -0.0384  0.1577 -0.2182
 1983SOL     OW 7703   0.613   1.424   3.879  0.0830  0.0285 -0.1997
 1983SOL    HW2 7704   0.599   1.389   3.791  1.1370 -0.2332 -0.2795
 1983SOL    HW3 7705   0.558   1.502   3.883 -1.5606 -1.0712 -0.3633
 1983SOL    MW4 7706   0.604   1.430   3.868  0.0052 -0.1511 -0.2318
 1984SOL     OW 7707   3.445   2.286   1.867  0.0238 -0.0661 -0.5841
 1984SOL    HW2 7708   3.406   2.343   1.800 -0.1345 -1.4484 -1.6990
 1984SOL    HW3 7709   3.539   2.289   1.849  0.1079  0.4894 -0.1011
 1984SOL    MW4 7710   3.452   2.294   1.856  0.0140 -0.1752 -0.6675
 1985SOL     OW 7711   4.742   2.673   0.836  0.4650  0.3658 -0.4206
 1985SOL    HW2 7712   4.794   2.625   0.900 -0.8255  0.9592  1.1109
 1985SOL    HW3 7713   4.737   2.762   0.870 -2.7884  0.0065  0.3219
 1985SOL    MW4 7714   4.748   2.678   0.849 -0.1345  0.3967 -0.1206
 1986SOL     OW 7715   3.707   6.250   1.433  0.3180  0.1692  0.7189
 1986SOL    HW2 7716   3.649   6.190   1.481  0.9608  0.4491  1.9008
 1986SOL    HW3 7717   3.784   6.197   1.412 -0.0098  0.0171 -0.1312
 1986SOL    MW4 7718   3.710   6.235   1.437  0.3596  0.1860  0.7627
 1987SOL     OW 7719   1.095   5.088   4.894  0.1268  0.4669  0.8135
 1987SOL    HW2 7720   1.187   5.073   4.914 -0.4191 -0.6667  2.7604
 1987SOL    HW3 7721   1.064   5.006   4.858  0.1282  1.2527 -1.0920
 1987SOL    MW4 7722   1.103   5.075   4.892  0.0550  0.4210  0.8190
 1988SOL     OW 7723   0.344   2.505   5.814  0.3922 -0.2218  0.2172
 1988SOL    HW2 7724   0.286   2.559   5.761  1.3245  0.1585 -0.4405
 1988SOL    HW3 7725   0.431   2.520   5.777  0.9387 -0.6372  1.2989
 1988SOL    MW4 7726   0.348   2.514   5.802  0.5873 -0.2264  0.2731
 1989SOL     OW 7727   1.221   2.492   3.914 -0.2644  0.5526 -0.5465
 1989SOL    HW2 7728   1.183   2.458   3.995  3.5845 -0.3426  1.1040
 1989SOL    HW3 7729   1.161   2.462   3.845 -2.8890  0.0580  1.7713
 1989SOL    MW4 7730   1.208   2.483   3.915 -0.1028  0.3692 -0.0230
 1990SOL     OW 7731   5.453   2.628   4.899  0.4108  0.2469 -0.4535
 1990SOL    HW2 7732   5.473   2.705   4.952 -0.5932 -0.2058  0.6498
 1990SOL    HW3 7733   5.421   2.662   4.816  1.6825  0.9843 -0.6607
 1990SOL    MW4 7734   5.451   2.643   4.895  0.4461  0.2845 -0.3353
 1991SOL     OW 7735   2.132   3.851   1.535 -0.7326 -0.4827 -0.2521
 1991SOL    HW2 7736   2.215   3.899   1.528 -0.3950 -1.2270 -2.0066
 1991SOL    HW3 7737   2.066   3.916   1.512 -0.5601 -0.0921  0.3439
 1991SOL    MW4 7738   2.135   3.866   1.531 -0.6653 -0.5294 -0.4050
 1992SOL     OW 7739   4.130   0.756   2.260  0.4681 -0.2755  0.0679
 1992SOL    HW2 7740   4.210   0.709   2.236  1.6639  0.8705  1.6190
 1992SOL    HW3 7741   4.078   0.691   2.306  1.3878 -0.5411  0.7678
 1992SOL    MW4 7742   4.134   0.741   2.263  0.7472 -0.1593  0.3649
 1993SOL     OW 7743   2.425   1.741   2.214  0.0080 -0.3167  0.1858
 1993SOL    HW2 7744   2.490   1.811   2.227 -0.6700  0.3523  0.0841
 1993SOL    HW3 7745   2.458   1.691   2.140  1.2235 -0.9675  1.1305
 1993SOL    MW4 7746   2.438   1.744   2.206  0.0789 -0.3143  0.2971
 1994SOL     OW 7747   4.721   4.791   2.423 -0.1776  0.5183  0.1848
 1994SOL    HW2 7748   4.804   4.745   2.416 -0.5839 -0.0532 -1.0617
 1994SOL    HW3 7749   4.741   4.868   2.476  1.3515  0.8362 -0.7934
 1994SOL    MW4 7750   4.734   4.795   2.429 -0.0295  0.4849 -0.1087
 1995SOL     OW 7751   1.435   3.210   0.450 -0.4210  0.2428 -0.1185
 1995SOL    HW2 7752   1.339   3.218   0.452 -0.4468 -0.2745  1.4045
 1995SOL    HW3 7753   1.466   3.295   0.481 -0.4184 -0.0994  0.8269
 1995SOL    MW4 7754   1.426   3.223   0.454 -0.4241  0.1294  0.2071
 1996SOL     OW 7755   0.906   4.549   5.865 -0.3940  0.0187 -0.5268
 1996SOL    HW2 7756   0.905   4.456   5.891 -0.3104 -0.6476 -2.7591
 1996SOL    HW3 7757   0.965   4.553   5.790 -1.4956  1.6220 -1.3660
 1996SOL    MW4 7758   0.913   4.537   5.859 -0.5283  0.1423 -0.9320
 1997SOL     OW 7759   3.426   3.269   2.783  0.3932 -0.2194  0.5457
 1997SOL    HW2 7760   3.349   3.318   2.813  0.1925 -0.6972  0.8190
 1997SOL    HW3 7761   3.410   3.179   2.811  2.1542  0.0729  2.7782
 1997SOL    MW4 7762   3.413   3.264   2.791  0.5991 -0.2439  0.8763
 1998SOL     OW 7763   1.029   2.612   2.783 -0.4735 -0.5189  0.1296
 1998SOL    HW2 7764   1.056   2.670   2.854 -0.1115 -0.2935 -0.1871
 1998SOL    HW3 7765   1.111   2.571   2.753 -0.6160 -0.5835 -0.1820
 1998SOL    MW4 7766   1.044   2.614   2.788 -0.4445 -0.4977  0.0467
 1999SOL     OW 7767   3.073   2.546   3.717 -0.1320 -0.1984  0.0319
 1999SOL    HW2 7768   3.165   2.519   3.721 -0.2370 -0.7427 -0.8139
 1999SOL    HW3 7769   3.031   2.478   3.663 -1.2633 -0.5937  1.3395
 1999SOL    MW4 7770   3.080   2.533   3.710 -0.2951 -0.3224  0.0928
 2000SOL     OW 7771   1.860   1.869   0.203 -0.5822 -0.2518  0.8867
 2000SOL    HW2 7772   1.934   1.917   0.164  0.0876 -2.4164 -0.7258
 2000SOL    HW3 7773   1.785   1.892   0.148 -0.3263 -0.7581  0.3060
 2000SOL    MW4 7774   1.860   1.878   0.190 -0.4601 -0.6042  0.5973
 2001SOL     OW 7775   3.558   1.978   3.105 -0.2727 -0.0323  0.2717
 2001SOL    HW2 7776   3.585   2.026   3.183 -3.1242  0.9428  0.7693
 2001SOL    HW3 7777   3.525   2.045   3.045  1.3688 -0.8170 -1.6237
 2001SOL    MW4 7778   3.557   1.993   3.107 -0.4323 -0.0072  0.0872
 2002SOL     OW 7779   4.401   4.153   4.069 -0.3008 -0.2786 -0.3478
 2002SOL    HW2 7780   4.305   4.148   4.062 -0.3142 -0.1962 -0.2389
 2002SOL    HW3 7781   4.416   4.219   4.137 -0.1101  1.7732 -2.2663
 2002SOL    MW4 7782   4.390   4.161   4.077 -0.2774  0.0030 -0.5866
 2003SOL     OW 7783   0.348   6.078   0.343  0.1700  0.1764  0.3256
 2003SOL    HW2 7784   0.427   6.108   0.297  0.4190 -1.4407 -0.3540
 2003SOL    HW3 7785   0.378   6.002   0.394 -0.7142  0.2384  0.9540
 2003SOL    MW4 7786   0.363   6.072   0.344  0.0862 -0.0287  0.3188
 2004SOL     OW 7787   0.891   4.372   2.529 -0.0066  0.4899 -0.2071
 2004SOL    HW2 7788   0.833   4.298   2.543 -0.3674  0.6488 -0.8195
 2004SOL    HW3 7789   0.838   4.434   2.478  0.0531  1.4557  0.8624
 2004SOL    MW4 7790   0.876   4.371   2.524 -0.0463  0.6383 -0.1468
 2005SOL     OW 7791   0.456   2.819   6.386 -0.2001 -0.2371 -0.0247
 2005SOL    HW2 7792   0.537   2.853   6.425 -0.9886  0.9172  0.6502
 2005SOL    HW3 7793   0.438   2.738   6.435  1.2391 -1.2479 -1.0830
 2005SOL    MW4 7794   0.464   2.812   6.398 -0.1143 -0.2181 -0.0753
 2006SOL     OW 7795   3.629   0.736   2.794 -0.1449  0.1435  0.5989
 2006SOL    HW2 7796   3.636   0.641   2.790  0.6625  0.2125  0.1346
 2006SOL    HW3 7797   3.717   0.765   2.818 -0.6208  0.7295  1.6989
 2006SOL    MW4 7798   3.642   0.727   2.796 -0.1012  0.2299  0.6827
 2007SOL     OW 7799   0.399   5.799   2.928 -0.4631  0.3279  0.0498
 2007SOL    HW2 7800   0.344   5.850   2.987 -0.2945  1.6084 -0.8694
 2007SOL    HW3 7801   0.412   5.855   2.852  0.8546 -0.5531 -0.4150
 2007SOL    MW4 7802   0.393   5.813   2.926 -0.2670  0.3806 -0.1328
 2008SOL     OW 7803   3.395   4.189   0.871  0.2594  0.3325  0.1524
 2008SOL    HW2 7804   3.393   4.218   0.780 -0.3838 -3.1881 -1.1172
 2008SOL    HW3 7805   3.307   4.154   0.886  1.3214 -2.1758  0.9484
 2008SOL    MW4 7806   3.383   4.188   0.861  0.3147 -0.4629  0.0899
 2009SOL     OW 7807   2.984   5.747   4.166  0.0563 -0.2489 -0.6153
 2009SOL    HW2 7808   3.040   5.823   4.152 -2.9392  2.1731 -0.6158
 2009SOL    HW3 7809   3.009   5.685   4.098 -0.0732  2.4761 -3.3782
 2009SOL    MW4 7810   2.994   5.749   4.155 -0.3560  0.4302 -0.9799
 2010SOL     OW 7811   0.060   0.026   5.335  0.2466 -0.2077 -0.1137
 2010SOL    HW2 7812   0.109   0.104   5.361  1.2106 -0.7067 -0.3943
 2010SOL    HW3 7813   0.091  -0.042   5.394  0.3338 -0.6726 -0.6877
 2010SOL    MW4 7814   0.071   0.027   5.346  0.3853 -0.3349 -0.2265
 2011SOL     OW 7815   1.195   1.109   3.764  0.0224 -0.3688 -0.0007
 2011SOL    HW2 7816   1.220   1.169   3.833  0.9930 -0.9742  0.1916
 2011SOL    HW3 7817   1.256   1.127   3.692 -0.2241 -0.5391 -0.2579
 2011SOL    MW4 7818   1.206   1.119   3.764  0.1180 -0.4712 -0.0093
 2012SOL     OW 7819   2.632   0.913   0.064  0.7836 -0.2714  0.0657
 2012SOL    HW2 7820   2.633   0.883   0.155  2.0000  0.3404  0.2675
 2012SOL    HW3 7821   2.643   1.007   0.069 -1.8455  0.1552 -0.6237
 2012SOL    MW4 7822   2.634   0.921   0.076  0.5972 -0.1344  0.0014
 2013SOL     OW 7823   0.629   5.293   4.029  0.2734  0.5315  0.0037
 2013SOL    HW2 7824   0.665   5.340   4.104 -0.3942 -0.3040  0.8780
 2013SOL    HW3 7825   0.568   5.230   4.067 -1.1030  0.9944 -1.3406
 2013SOL    MW4 7826   0.626   5.291   4.044  0.0037  0.4824 -0.0583
 2014SOL     OW 7827   4.323   5.377   5.071  0.1784  0.1105  0.0058
 2014SOL    HW2 7828   4.401   5.326   5.051  0.1106  0.7269 -1.9543
 2014SOL    HW3 7829   4.353   5.468   5.069 -0.1262  0.2700  1.5178
 2014SOL    MW4 7830   4.338   5.383   5.068  0.1292  0.2129 -0.0533
 2015SOL     OW 7831   4.706   3.428   1.453 -0.2715 -0.3531  0.2363
 2015SOL    HW2 7832   4.763   3.380   1.393 -1.0428 -0.0043 -0.7915
 2015SOL    HW3 7833   4.654   3.360   1.496  2.6729 -0.9864  3.2255
 2015SOL    MW4 7834   4.707   3.413   1.451  0.0152 -0.3907  0.4951
 2016SOL     OW 7835   4.718   0.676   0.346 -0.3815 -0.5790  0.3077
 2016SOL    HW2 7836   4.770   0.601   0.316 -1.4896 -0.9866 -0.6824
 2016SOL    HW3 7837   4.631   0.660   0.309 -0.5552  1.3842 -0.2183
 2016SOL    MW4 7838   4.714   0.664   0.337 -0.5506 -0.3738  0.1077
 2017SOL     OW 7839   6.305   0.705   0.300  0.3369 -0.4707 -0.2303
 2017SOL    HW2 7840   6.334   0.783   0.254  0.1245 -0.2217  0.0566
 2017SOL    HW3 7841   6.211   0.700   0.284  0.0123  0.3723  1.2773
 2017SOL    MW4 7842   6.296   0.715   0.292  0.2661 -0.3266  0.0065
 2018SOL     OW 7843   4.495   5.945   2.009  0.6610  0.6743  0.8170
 2018SOL    HW2 7844   4.435   5.953   2.083 -1.4883 -0.4540 -0.6916
 2018SOL    HW3 7845   4.509   6.035   1.980 -1.6580  0.9234  0.2497
 2018SOL    MW4 7846   4.489   5.958   2.015  0.0715  0.5583  0.5431
 2019SOL     OW 7847   3.434   0.778   1.534 -0.7692  0.2864  0.5891
 2019SOL    HW2 7848   3.348   0.739   1.543 -1.1020  0.9460  0.3350
 2019SOL    HW3 7849   3.421   0.871   1.552 -0.1816  0.4556  0.1977
 2019SOL    MW4 7850   3.421   0.785   1.538 -0.7356  0.3957  0.5039
 2020SOL     OW 7851   4.354   0.332   2.630 -0.0724 -0.5003  0.2977
 2020SOL    HW2 7852   4.300   0.299   2.559 -0.0974 -0.1811  0.1665
 2020SOL    HW3 7853   4.318   0.418   2.650  1.2088  0.3033 -0.6975
 2020SOL    MW4 7854   4.342   0.339   2.624  0.0934 -0.3522  0.1491
 2021SOL     OW 7855   4.935   2.204   5.764 -0.6932 -0.1177 -0.5175
 2021SOL    HW2 7856   4.998   2.217   5.835 -0.1019  0.1811 -1.0974
 2021SOL    HW3 7857   4.884   2.127   5.792 -0.7674  0.2603  0.4407
 2021SOL    MW4 7858   4.936   2.195   5.777 -0.6250 -0.0284 -0.4676
 2022SOL     OW 7859   4.891   2.734   5.422 -0.4688  0.5089 -0.1821
 2022SOL    HW2 7860   4.897   2.710   5.330 -0.5540 -2.7578  0.5325
 2022SOL    HW3 7861   4.822   2.678   5.457  1.6784 -0.6991  2.4708
 2022SOL    MW4 7862   4.883   2.723   5.415 -0.1967 -0.0815  0.2622
 2023SOL     OW 7863   0.543   2.850   3.883 -0.6985 -0.0003 -0.7402
 2023SOL    HW2 7864   0.573   2.939   3.868 -0.2069 -0.0191  0.0827
 2023SOL    HW3 7865   0.499   2.852   3.968 -0.7760 -0.5188 -0.7598
 2023SOL    MW4 7866   0.541   2.862   3.892 -0.6439 -0.0712 -0.6342
 2024SOL     OW 7867   5.568   5.779   2.778  0.4621 -0.1455  0.0404
 2024SOL    HW2 7868   5.614   5.842   2.833  0.5821  0.5929 -0.8962
 2024SOL    HW3 7869   5.544   5.828   2.700 -0.5466 -0.9355 -0.1634
 2024SOL    MW4 7870   5.571   5.794   2.775  0.3448 -0.1523 -0.1100
 2025SOL     OW 7871   1.712   5.555   3.505 -0.3310 -0.0817  0.4089
 2025SOL    HW2 7872   1.667   5.624   3.456 -0.3452 -0.9635 -0.8773
 2025SOL    HW3 7873   1.649   5.529   3.573 -0.0754  1.5684  1.3367
 2025SOL    MW4 7874   1.698   5.560   3.508 -0.2992  0.0197  0.3616
 2026SOL     OW 7875   2.433   4.299   1.062 -0.0771 -0.2338 -0.0178
 2026SOL    HW2 7876   2.342   4.273   1.051 -1.2427  3.3105 -0.0065
 2026SOL    HW3 7877   2.464   4.315   0.973 -0.2759  0.8628  0.0978
 2026SOL    MW4 7878   2.425   4.298   1.049 -0.2571  0.3785 -0.0011
 2027SOL     OW 7879   4.259   6.130   0.251 -0.2527  0.0871  0.3001
 2027SOL    HW2 7880   4.289   6.142   0.341  0.1512  0.7363  0.0845
 2027SOL    HW3 7881   4.237   6.218   0.222  0.1067 -0.0510 -0.4056
 2027SOL    MW4 7882   4.260   6.143   0.259 -0.1520  0.1545  0.1786
 2028SOL     OW 7883   0.196   4.755   0.101 -0.6263 -0.5037 -0.5075
 2028SOL    HW2 7884   0.229   4.755   0.011 -0.4731 -0.9670 -0.4528
 2028SOL    HW3 7885   0.183   4.847   0.122  0.8730 -0.2930 -0.4378
 2028SOL    MW4 7886   0.198   4.767   0.092 -0.4083 -0.5370 -0.4910
 2029SOL     OW 7887   0.425   5.902   5.075 -0.0842 -0.3058 -0.2992
 2029SOL    HW2 7888   0.384   5.980   5.114 -2.9683 -1.4901 -0.7121
 2029SOL    HW3 7889   0.421   5.918   4.981 -0.0826 -0.6724 -0.3608
 2029SOL    MW4 7890   0.419   5.915   5.068 -0.4645 -0.5104 -0.3618
 2030SOL     OW 7891   6.179   1.000   1.386  0.2002 -0.1514  0.2106
 2030SOL    HW2 7892   6.269   1.032   1.371  0.2129 -0.2781  0.0231
 2030SOL    HW3 7893   6.154   1.041   1.469 -0.4200  1.7508 -0.8517
 2030SOL    MW4 7894   6.188   1.010   1.395  0.1201  0.0829  0.0457
 2031SOL     OW 7895   2.451   1.194   4.457  0.0203 -0.5453 -0.3094
 2031SOL    HW2 7896   2.477   1.123   4.397  1.9108  0.0365 -0.2476
 2031SOL    HW3 7897   2.422   1.264   4.399  1.9978  0.0759 -0.6185
 2031SOL    MW4 7898   2.451   1.194   4.441  0.5306 -0.3866 -0.3420
 2032SOL     OW 7899   6.404   1.045   1.698  0.2164  0.0578  0.5690
 2032SOL    HW2 7900   6.450   0.973   1.653  0.3777 -0.4193  1.4792
 2032SOL    HW3 7901   6.441   1.124   1.659  0.0863 -0.3432 -0.3996
 2032SOL    MW4 7902   6.415   1.046   1.687  0.2205 -0.0580  0.5613
 2033SOL     OW 7903   3.946   3.599   5.319  0.4003 -0.4505 -0.2982
 2033SOL    HW2 7904   4.002   3.671   5.289  1.1623 -0.6974  0.4631
 2033SOL    HW3 7905   3.999   3.521   5.304 -1.5980 -1.2881 -4.0860
 2033SOL    MW4 7906   3.961   3.598   5.313  0.2372 -0.5936 -0.6975
 2034SOL     OW 7907   2.076   0.404   5.815 -0.1017  0.2464  0.2055
 2034SOL    HW2 7908   2.079   0.446   5.901 -0.7583  0.6763  0.0230
 2034SOL    HW3 7909   2.039   0.318   5.832  0.5841 -0.0048  0.4765
 2034SOL    MW4 7910   2.072   0.398   5.829 -0.0978  0.2700  0.2172
 2035SOL     OW 7911   5.977   1.500   5.234  0.4853 -0.1852 -0.2545
 2035SOL    HW2 7912   5.978   1.491   5.329  0.1524 -1.3463 -0.3377
 2035SOL    HW3 7913   5.998   1.412   5.202 -0.1690  0.0049 -1.2484
 2035SOL    MW4 7914   5.980   1.487   5.242  0.3550 -0.3133 -0.3966
 2036SOL     OW 7915   6.279   1.673   4.017  0.6101  0.7152 -0.0735
 2036SOL    HW2 7916   6.313   1.738   4.079 -0.1248  1.0237  0.0162
 2036SOL    HW3 7917   6.263   1.596   4.071  1.2913  0.5172 -0.1431
 2036SOL    MW4 7918   6.281   1.671   4.033  0.6030  0.7298 -0.0709
 2037SOL     OW 7919   3.595   0.182   4.742 -0.0051 -0.0782  0.2231
 2037SOL    HW2 7920   3.583   0.138   4.658  0.3654 -1.6253  0.9552
 2037SOL    HW3 7921   3.525   0.247   4.745  1.0085  1.2653 -2.0272
 2037SOL    MW4 7922   3.584   0.185   4.731  0.1775 -0.1050  0.0228
 2038SOL     OW 7923   0.923   0.049   0.972  0.2635 -0.1150  0.4783
 2038SOL    HW2 7924   1.004   0.065   0.923  1.1540 -1.2282  1.5281
 2038SOL    HW3 7925   0.871  -0.007   0.914 -0.0324  1.0367 -0.4254
 2038SOL    MW4 7926   0.927   0.044   0.958  0.3419 -0.1099  0.4976
 2039SOL     OW 7927   5.109   2.899   1.749 -0.5248 -0.2746  0.1761
 2039SOL    HW2 7928   5.057   2.819   1.750  0.9673 -1.2679  0.8745
 2039SOL    HW3 7929   5.199   2.869   1.746  0.0907  1.3775  0.9646
 2039SOL    MW4 7930   5.114   2.885   1.749 -0.2467 -0.1877  0.3723
 2040SOL     OW 7931   6.175   1.070   0.173 -0.4893  0.5140  0.2596
 2040SOL    HW2 7932   6.088   1.043   0.200 -0.8909  0.5457 -0.9610
 2040SOL    HW3 7933   6.162   1.121   0.093  0.4454  2.4659  1.2517
 2040SOL    MW4 7934   6.162   1.073   0.166 -0.4190  0.7757  0.2295
 2041SOL     OW 7935   0.475   5.931   4.788 -0.2181  0.0578 -0.7339
 2041SOL    HW2 7936   0.561   5.936   4.747  0.3153 -1.1837  0.1931
 2041SOL    HW3 7937   0.413   5.949   4.717  0.8125  2.4002 -1.1213
 2041SOL    MW4 7938   0.478   5.934   4.773 -0.0117  0.2031 -0.6627
 2042SOL     OW 7939   1.004   1.727   2.412  0.8174 -0.1813  0.0466
 2042SOL    HW2 7940   0.975   1.734   2.321  0.2294 -1.4902  0.1175
 2042SOL    HW3 7941   0.924   1.715   2.463  1.1269  0.6750  0.7643
 2042SOL    MW4 7942   0.990   1.726   2.407  0.7807 -0.2410  0.1507
 2043SOL     OW 7943   3.339   1.534   6.200 -0.0858 -0.7722  0.1197
 2043SOL    HW2 7944   3.428   1.566   6.210 -0.3993  0.5426 -0.9583
 2043SOL    HW3 7945   3.330   1.515   6.106 -0.6804 -1.7248  0.3528
 2043SOL    MW4 7946   3.349   1.536   6.189 -0.2056 -0.7244  0.0083
 2044SOL     OW 7947   2.078   6.252   4.529 -0.4726  0.0738 -0.1575
 2044SOL    HW2 7948   2.142   6.219   4.466 -1.5777 -0.0902 -1.2491
 2044SOL    HW3 7949   2.039   6.328   4.487  1.2643  2.2529  1.8806
 2044SOL    MW4 7950   2.081   6.258   4.515 -0.3893  0.3396 -0.0327
 2045SOL     OW 7951   4.712   5.058   5.172  0.4906 -0.3898 -0.0337
 2045SOL    HW2 7952   4.771   5.016   5.110 -0.3718 -0.1022 -1.0950
 2045SOL    HW3 7953   4.667   4.986   5.215  0.1125 -0.5904 -0.7478
 2045SOL    MW4 7954   4.714   5.043   5.170  0.3270 -0.3783 -0.2680
 2046SOL     OW 7955   0.105   5.196   5.045 -0.0548 -0.4975 -0.0301
 2046SOL    HW2 7956   0.075   5.159   4.962 -2.7435  2.3504 -0.4996
 2046SOL    HW3 7957   0.121   5.288   5.026 -0.4409  0.1722  2.5125
 2046SOL    MW4 7958   0.103   5.203   5.031 -0.4605 -0.0334  0.2434
 2047SOL     OW 7959   3.328   5.289   4.644 -0.0400 -0.4915  0.1843
 2047SOL    HW2 7960   3.355   5.282   4.553  0.3352  0.3436  0.2249
 2047SOL    HW3 7961   3.232   5.289   4.641 -0.0262 -0.5660 -0.2046
 2047SOL    MW4 7962   3.319   5.288   4.632  0.0113 -0.3911  0.1384
 2048SOL     OW 7963   5.378   4.880   3.804 -0.1124  0.3566  0.2186
 2048SOL    HW2 7964   5.336   4.965   3.820 -0.4590 -0.1367  2.2160
 2048SOL    HW3 7965   5.305   4.818   3.798  0.1217  0.1924 -1.4872
 2048SOL    MW4 7966   5.363   4.883   3.805 -0.1273  0.2699  0.2571
 2049SOL     OW 7967   3.468   0.931   4.840  0.1509 -0.0872 -0.1643
 2049SOL    HW2 7968   3.421   0.853   4.870 -1.0645  0.5234 -0.4262
 2049SOL    HW3 7969   3.404   0.978   4.787  2.2969 -1.3358 -4.2821
 2049SOL    MW4 7970   3.453   0.927   4.837  0.2737 -0.1714 -0.7422
 2050SOL     OW 7971   1.239   1.486   3.001 -0.2667  0.1078  0.0998
 2050SOL    HW2 7972   1.252   1.491   3.096 -0.1865 -2.0356  0.2567
 2050SOL    HW3 7973   1.146   1.507   2.989 -0.3647  0.0510  0.7057
 2050SOL    MW4 7974   1.229   1.489   3.012 -0.2690 -0.1825  0.2004
 2051SOL     OW 7975   0.622   1.356   0.526 -0.3565  0.2447 -0.0397
 2051SOL    HW2 7976   0.601   1.280   0.471  0.7084  0.0106 -0.1444
 2051SOL    HW3 7977   0.692   1.325   0.583  0.7193  1.4054 -0.6905
 2051SOL    MW4 7978   0.628   1.342   0.527 -0.0741  0.3670 -0.1394
 2052SOL     OW 7979   3.804   1.839   3.058  0.2680  0.3561 -0.2461
 2052SOL    HW2 7980   3.856   1.887   3.122  2.2112  0.3150 -1.6868
 2052SOL    HW3 7981   3.715   1.871   3.069  0.9264  1.8186  1.0853
 2052SOL    MW4 7982   3.800   1.849   3.068  0.6112  0.5436 -0.2605
 2053SOL     OW 7983   4.235   2.112   6.380  0.1777  0.3734  0.0636
 2053SOL    HW2 7984   4.221   2.020   6.359  1.5973  0.4993 -1.6048
 2053SOL    HW3 7985   4.154   2.139   6.423 -0.4659 -1.4977  0.1285
 2053SOL    MW4 7986   4.223   2.104   6.383  0.2801  0.1431 -0.1480
 2054SOL     OW 7987   1.251   3.086   2.589 -0.5353  0.1093  0.6232
 2054SOL    HW2 7988   1.230   3.035   2.511  1.2048 -0.9569  0.7784
 2054SOL    HW3 7989   1.235   3.177   2.564 -4.5975 -0.4233  0.6234
 2054SOL    MW4 7990   1.246   3.091   2.575 -0.8417 -0.1017  0.6437
 2055SOL     OW 7991   1.842   1.202   5.024 -0.0099 -0.6894 -0.2332
 2055SOL    HW2 7992   1.924   1.172   5.063 -0.8425 -1.0311  1.3454
 2055SOL    HW3 7993   1.852   1.184   4.930  2.1743  0.4132 -0.2573
 2055SOL    MW4 7994   1.854   1.195   5.017  0.1684 -0.5890 -0.0281
 2056SOL     OW 7995   4.377   1.649   0.198 -0.0579 -0.0615  0.6068
 2056SOL    HW2 7996   4.390   1.712   0.127  0.1791 -0.9940 -0.1991
 2056SOL    HW3 7997   4.282   1.645   0.209 -0.0359  1.7155  1.8765
 2056SOL    MW4 7998   4.366   1.657   0.190 -0.0237  0.0499  0.6680
 2057SOL     OW 7999   1.078   4.575   0.346 -0.8465  0.3513 -0.2932
 2057SOL    HW2 8000   1.162   4.549   0.309 -2.8230 -2.5214 -3.4495
 2057SOL    HW3 8001   1.030   4.614   0.272 -1.9462  3.0967  1.7000
 2057SOL    MW4 8002   1.082   4.577   0.331 -1.2523  0.3345 -0.4467
 2058SOL     OW 8003   0.125   4.745   4.265  0.3526  0.2668  0.1779
 2058SOL    HW2 8004   0.175   4.689   4.205 -0.8608 -1.0528  0.3430
 2058SOL    HW3 8005   0.163   4.832   4.254  2.0554 -0.5015 -0.3778
 2058SOL    MW4 8006   0.136   4.749   4.255  0.4171 -0.0087  0.1263
 2059SOL     OW 8007   3.390   4.950   3.678  0.2936  0.1484 -0.0561
 2059SOL    HW2 8008   3.313   4.908   3.717  0.6796 -0.7469 -0.2190
 2059SOL    HW3 8009   3.460   4.935   3.742  0.8253 -0.9418 -0.8557
 2059SOL    MW4 8010   3.389   4.942   3.692  0.4147 -0.1136 -0.1831
 2060SOL     OW 8011   1.355   1.222   3.553 -0.4367 -0.3184 -0.7752
 2060SOL    HW2 8012   1.381   1.271   3.631  0.8682 -0.8583 -0.8412
 2060SOL    HW3 8013   1.413   1.255   3.484  0.3380 -1.7969 -0.8660
 2060SOL    MW4 8014   1.366   1.233   3.554 -0.1623 -0.5847 -0.7959
 2061SOL     OW 8015   3.821   0.944   5.485 -0.0215  0.3263  0.3108
 2061SOL    HW2 8016   3.770   0.881   5.435  0.3141  0.3771 -0.1095
 2061SOL    HW3 8017   3.761   0.978   5.551  0.3037 -1.8076  1.7878
 2061SOL    MW4 8018   3.806   0.941   5.487  0.0657  0.0514  0.4502
 2062SOL     OW 8019   3.710   1.943   0.721  0.5225 -0.0352 -0.1031
 2062SOL    HW2 8020   3.791   1.922   0.676 -0.0622  0.9735 -1.6762
 2062SOL    HW3 8021   3.673   2.017   0.673 -1.3535 -0.4923  0.5329
 2062SOL    MW4 8022   3.715   1.950   0.709  0.1979  0.0376 -0.2267
 2063SOL     OW 8023   1.522   3.969   2.558  1.1536  0.0604  0.1494
 2063SOL    HW2 8024   1.473   3.922   2.490 -1.1757  0.1566  1.6677
 2063SOL    HW3 8025   1.551   4.049   2.514  0.0568 -0.0548 -0.8477
 2063SOL    MW4 8026   1.519   3.973   2.543  0.7016  0.0579  0.2182
 2064SOL     OW 8027   3.103   0.137   4.802 -0.0308  0.0885 -0.1342
 2064SOL    HW2 8028   3.037   0.078   4.837  0.1544 -0.1571 -0.1966
 2064SOL    HW3 8029   3.053   0.204   4.755 -0.2692  0.3150  0.4348
 2064SOL    MW4 8030   3.088   0.138   4.800 -0.0378  0.0860 -0.0674
 2065SOL     OW 8031   4.495   2.034   3.325 -0.2599  0.6971  0.1812
 2065SOL    HW2 8032   4.503   1.954   3.273  1.3744  0.4115  0.7840
 2065SOL    HW3 8033   4.460   2.005   3.409  1.2638  0.3920  0.7568
 2065SOL    MW4 8034   4.492   2.020   3.329  0.1567  0.6192  0.3367
 2066SOL     OW 8035   4.824   0.742   4.444  0.2254 -0.5066  0.5736
 2066SOL    HW2 8036   4.876   0.706   4.515  0.6601 -0.9960  0.0077
 2066SOL    HW3 8037   4.823   0.837   4.461  0.1458 -0.6425  1.3450
 2066SOL    MW4 8038   4.830   0.750   4.455  0.2722 -0.5891  0.6007
 2067SOL     OW 8039   0.869   0.325   4.397 -0.0401  0.0102 -0.7272
 2067SOL    HW2 8040   0.823   0.242   4.412  0.6284 -0.5659 -1.6912
 2067SOL    HW3 8041   0.812   0.392   4.434  0.2199 -1.0206  1.6934
 2067SOL    MW4 8042   0.855   0.323   4.404  0.0824 -0.2018 -0.5350
 2068SOL     OW 8043   2.847   5.908   2.985 -0.0359 -0.1842  0.3884
 2068SOL    HW2 8044   2.838   5.845   2.914 -2.4902  2.6538 -2.0646
 2068SOL    HW3 8045   2.778   5.885   3.047  0.7945 -1.4079  0.9091
 2068SOL    MW4 8046   2.837   5.897   2.984 -0.2502  0.0288  0.1335
 2069SOL     OW 8047   4.880   1.088   1.413 -0.2643 -0.4126 -0.7131
 2069SOL    HW2 8048   4.815   1.149   1.446  0.5607 -0.3911  0.9821
 2069SOL    HW3 8049   4.833   1.005   1.403 -0.9281  0.0094 -1.1214
 2069SOL    MW4 8050   4.865   1.085   1.416 -0.2431 -0.3541 -0.5433
 2070SOL     OW 8051   1.876   2.076   1.105 -0.0755  0.1571 -0.4986
 2070SOL    HW2 8052   1.934   2.027   1.047  1.4125  0.2443  0.8432
 2070SOL    HW3 8053   1.832   2.138   1.048  0.0373 -0.9026 -1.7955
 2070SOL    MW4 8054   1.878   2.078   1.090  0.1357  0.0288 -0.4927
 2071SOL     OW 8055   4.338   2.039   2.160  0.1558  0.0074 -0.2786
 2071SOL    HW2 8056   4.249   2.064   2.188 -0.0723 -1.6547  0.6036
 2071SOL    HW3 8057   4.364   2.109   2.099 -1.4964  0.8695 -0.0687
 2071SOL    MW4 8058   4.329   2.052   2.156 -0.0923 -0.0982 -0.1345
 2072SOL     OW 8059   3.158   4.291   5.596 -0.1626 -0.2100 -0.2404
 2072SOL    HW2 8060   3.244   4.271   5.560 -0.6748 -3.2916 -0.0728
 2072SOL    HW3 8061   3.136   4.377   5.560  1.2949 -1.0387 -3.4846
 2072SOL    MW4 8062   3.167   4.300   5.587 -0.0379 -0.7259 -0.6463
 2073SOL     OW 8063   2.084   4.293   1.755  0.1947  0.1167 -0.1542
 2073SOL    HW2 8064   2.087   4.324   1.846 -0.4564  0.3877 -0.2132
 2073SOL    HW3 8065   2.026   4.217   1.758  1.2105 -0.6714 -0.1346
 2073SOL    MW4 8066   2.076   4.287   1.768  0.2428  0.0485 -0.1594
 2074SOL     OW 8067   0.964   4.335   1.550 -0.2652  1.3267  0.2197
 2074SOL    HW2 8068   0.880   4.345   1.506  0.5657  0.9671 -1.5234
 2074SOL    HW3 8069   1.029   4.349   1.481  1.0961  0.5211  1.2965
 2074SOL    MW4 8070   0.962   4.338   1.535  0.0240  1.1730  0.1318
 2075SOL     OW 8071   0.785   2.811   1.062 -0.3648  0.2289  0.1163
 2075SOL    HW2 8072   0.708   2.804   1.119  0.7275 -0.4323  1.5815
 2075SOL    HW3 8073   0.821   2.722   1.060  1.0893  0.7803  0.5580
 2075SOL    MW4 8074   0.780   2.798   1.070 -0.0288  0.2144  0.3679
 2076SOL     OW 8075   4.746   2.405   1.609 -0.0054 -0.6864  0.0845
 2076SOL    HW2 8076   4.767   2.498   1.600 -0.5706 -0.6362 -0.8237
 2076SOL    HW3 8077   4.783   2.364   1.531 -1.0585 -0.9781 -0.2799
 2076SOL    MW4 8078   4.754   2.412   1.597 -0.2189 -0.7183 -0.0834
 2077SOL     OW 8079   4.135   2.232   2.614 -0.1256  0.2182 -0.1064
 2077SOL    HW2 8080   4.081   2.298   2.657 -0.8411  0.8798 -1.9558
 2077SOL    HW3 8081   4.073   2.165   2.584 -0.0324  1.1718 -2.5858
 2077SOL    MW4 8082   4.120   2.232   2.616 -0.2077  0.4313 -0.6775
 2078SOL     OW 8083   5.145   2.171   3.319  1.0654 -0.0446 -0.3838
 2078SOL    HW2 8084   5.135   2.160   3.414  0.5955 -0.3756 -0.4697
 2078SOL    HW3 8085   5.210   2.106   3.294 -1.5618 -2.6793 -0.8634
 2078SOL    MW4 8086   5.152   2.161   3.328  0.6568 -0.4359 -0.4584
 2079SOL     OW 8087   2.639   5.543   2.395 -0.6946  0.4532 -0.2913
 2079SOL    HW2 8088   2.601   5.531   2.308  1.0426 -0.1155 -1.0051
 2079SOL    HW3 8089   2.604   5.470   2.446  0.7537 -1.1293 -1.4332
 2079SOL    MW4 8090   2.629   5.532   2.390 -0.2743  0.1694 -0.5361
 2080SOL     OW 8091   3.591   2.023   4.583  0.0799 -0.5228  0.7343
 2080SOL    HW2 8092   3.611   2.030   4.490 -0.7527  0.9137  0.6273
 2080SOL    HW3 8093   3.676   2.012   4.625  0.6039  0.1611 -0.1016
 2080SOL    MW4 8094   3.605   2.023   4.576  0.0392 -0.2431  0.6099
 2081SOL     OW 8095   2.033   6.326   1.814  0.4148  0.3334 -0.1673
 2081SOL    HW2 8096   2.033   6.261   1.885  1.1736  0.3457 -0.1528
 2081SOL    HW3 8097   2.125   6.346   1.799  0.4062 -0.9258 -2.3063
 2081SOL    MW4 8098   2.045   6.320   1.822  0.5138  0.1689 -0.4476
 2082SOL     OW 8099   5.410   5.070   4.902 -0.3664 -0.7802 -0.5751
 2082SOL    HW2 8100   5.366   5.106   4.825 -2.7739 -1.1198  0.5368
 2082SOL    HW3 8101   5.447   5.147   4.946 -0.7137 -0.3382 -1.0426
 2082SOL    MW4 8102   5.409   5.085   4.898 -0.7299 -0.7667 -0.4901
 2083SOL     OW 8103   5.668   3.750   1.082 -0.1751  0.0591 -0.4982
 2083SOL    HW2 8104   5.696   3.791   1.164  1.7617 -2.2558  0.1353
 2083SOL    HW3 8105   5.572   3.759   1.082  0.0017  2.7341  0.4798
 2083SOL    MW4 8106   5.659   3.757   1.093  0.1037  0.1066 -0.2856
 2084SOL     OW 8107   0.147   4.735   4.754  0.3355 -0.3855 -0.0217
 2084SOL    HW2 8108   0.177   4.735   4.663  0.0674  1.2681 -0.1481
 2084SOL    HW3 8109   0.205   4.798   4.798  0.2690 -0.9415  0.8911
 2084SOL    MW4 8110   0.159   4.743   4.748  0.2913 -0.2407  0.0821
 2085SOL     OW 8111   2.489   2.911   0.145 -0.2123 -0.0164 -0.1780
 2085SOL    HW2 8112   2.558   2.845   0.145 -0.2659 -0.3294  3.9975
 2085SOL    HW3 8113   2.523   2.982   0.199 -2.9309 -0.0789  1.8582
 2085SOL    MW4 8114   2.503   2.912   0.152 -0.5781 -0.0660  0.6415
 2086SOL     OW 8115   2.224   2.124   3.229  0.6745 -0.0629 -0.5781
 2086SOL    HW2 8116   2.285   2.092   3.296 -0.4557 -1.1495 -0.0199
 2086SOL    HW3 8117   2.256   2.088   3.147  2.0496  1.2420 -0.6545
 2086SOL    MW4 8118   2.236   2.115   3.227  0.7068 -0.0341 -0.5146
 2087SOL     OW 8119   6.094   2.412   5.704 -0.0674 -0.3909 -0.4701
 2087SOL    HW2 8120   6.090   2.504   5.729 -0.1243 -1.1307  2.6214
 2087SOL    HW3 8121   6.186   2.398   5.680 -0.1435  0.5366 -1.3635
 2087SOL    MW4 8122   6.106   2.422   5.704 -0.0850 -0.3661 -0.1801
 2088SOL     OW 8123   3.967   2.190   1.083  0.4634  0.1529  0.0307
 2088SOL    HW2 8124   3.945   2.234   1.001  1.5320 -1.5442 -1.2247
 2088SOL    HW3 8125   3.886   2.197   1.135 -0.3880  0.8914 -1.3132
 2088SOL    MW4 8126   3.953   2.197   1.079  0.4921  0.0264 -0.3122
 2089SOL     OW 8127   5.457   4.195   3.910 -0.0096  0.4838 -0.4280
 2089SOL    HW2 8128   5.530   4.170   3.967  1.0604 -1.0823 -2.3824
 2089SOL    HW3 8129   5.396   4.121   3.914 -0.4639  0.8455 -0.5010
 2089SOL    MW4 8130   5.458   4.182   3.918  0.0716  0.3249 -0.6955
 2090SOL     OW 8131   5.930   2.470   2.071  0.3844 -0.1284 -0.9812
 2090SOL    HW2 8132   6.012   2.421   2.080  0.5780  0.3164 -0.2516
 2090SOL    HW3 8133   5.922   2.484   1.976  1.3178  0.0781 -1.0481
 2090SOL    MW4 8134   5.940   2.465   2.059  0.5331 -0.0425 -0.8938
 2091SOL     OW 8135   0.634   2.059   5.966  0.3317  0.4364 -0.3002
 2091SOL    HW2 8136   0.727   2.039   5.968  0.3200  0.3327 -0.7096
 2091SOL    HW3 8137   0.623   2.117   5.891 -0.4168 -2.1355 -2.3574
 2091SOL    MW4 8138   0.645   2.064   5.956  0.2314  0.0834 -0.6256
 2092SOL     OW 8139   1.302   4.906   3.639  0.0388 -0.3060  0.4928
 2092SOL    HW2 8140   1.258   4.974   3.690  2.5894  1.1648  0.8928
 2092SOL    HW3 8141   1.291   4.934   3.548  0.9499  0.6156  0.6456
 2092SOL    MW4 8142   1.295   4.919   3.634  0.4956  0.0097  0.5657
 2093SOL     OW 8143   1.557   0.887   5.641 -0.2500 -0.2020  0.1320
 2093SOL    HW2 8144   1.561   0.894   5.545  3.4486  1.1862  0.2046
 2093SOL    HW3 8145   1.519   0.970   5.669  0.3914  0.1926 -0.1317
 2093SOL    MW4 8146   1.552   0.899   5.632  0.3226  0.0332  0.1068
 2094SOL     OW 8147   6.108   2.003   3.409 -0.5077 -0.6202  0.6224
 2094SOL    HW2 8148   6.198   1.972   3.405  0.0088  0.7693  0.9267
 2094SOL    HW3 8149   6.115   2.099   3.406 -1.9143 -0.4620  1.3602
 2094SOL    MW4 8150   6.121   2.012   3.408 -0.6251 -0.4160  0.7599
 2095SOL     OW 8151   4.565   4.654   4.880 -0.1865  0.9826 -0.1993
 2095SOL    HW2 8152   4.531   4.611   4.959 -0.5898 -0.2234 -0.9950
 2095SOL    HW3 8153   4.642   4.603   4.856  0.9384  2.3663  0.3341
 2095SOL    MW4 8154   4.570   4.641   4.887 -0.0913  1.0060 -0.2339
 2096SOL     OW 8155   5.174   3.310   3.952 -0.2621  0.2193 -0.1187
 2096SOL    HW2 8156   5.145   3.393   3.990 -1.9230 -0.2665 -0.2539
 2096SOL    HW3 8157   5.100   3.250   3.964  0.5909 -1.0196 -0.7494
 2096SOL    MW4 8158   5.160   3.313   3.959 -0.3687 -0.0082 -0.2198
 2097SOL     OW 8159   3.810   2.969   0.974  0.0492  0.4360  0.1648
 2097SOL    HW2 8160   3.777   2.977   1.063  0.5860 -0.9801  0.5151
 2097SOL    HW3 8161   3.825   2.875   0.962 -0.9306  0.4810 -1.7524
 2097SOL    MW4 8162   3.808   2.957   0.984 -0.0093  0.2551 -0.0420
 2098SOL     OW 8163   3.883   1.195   4.631 -0.4328 -0.2165 -0.3828
 2098SOL    HW2 8164   3.891   1.276   4.681 -1.6762 -0.8010  0.8281
 2098SOL    HW3 8165   3.952   1.138   4.666 -0.2624 -0.0615 -0.4674
 2098SOL    MW4 8166   3.893   1.198   4.642 -0.5744 -0.2731 -0.2342
 2099SOL     OW 8167   4.726   1.993   2.439  0.2823  0.6548  0.2238
 2099SOL    HW2 8168   4.787   2.056   2.400  0.8391  0.2326  0.3958
 2099SOL    HW3 8169   4.782   1.922   2.471 -0.3348  0.0902  0.0718
 2099SOL    MW4 8170   4.741   1.992   2.438  0.2744  0.5246  0.2264
 2100SOL     OW 8171   6.405   5.565   2.793 -0.5488  0.0651  0.0309
 2100SOL    HW2 8172   6.372   5.493   2.846 -0.2655  0.1424  0.3155
 2100SOL    HW3 8173   6.500   5.556   2.796 -0.5308 -1.0390 -2.0153
 2100SOL    MW4 8174   6.413   5.555   2.800 -0.5091 -0.0704 -0.2015
 2101SOL     OW 8175   1.337   3.319   0.177  0.0173  0.0263 -0.1590
 2101SOL    HW2 8176   1.333   3.404   0.135 -1.5222 -0.0870 -0.3044
 2101SOL    HW3 8177   1.319   3.337   0.270 -0.3433 -0.1506 -0.1955
 2101SOL    MW4 8178   1.334   3.332   0.184 -0.2334 -0.0120 -0.1830
 2102SOL     OW 8179   3.550   3.490   1.792  0.0717  0.0332 -0.2338
 2102SOL    HW2 8180   3.544   3.573   1.838  1.8584 -0.7231  1.5246
 2102SOL    HW3 8181   3.638   3.490   1.753  1.3326 -2.1175  2.2818
 2102SOL    MW4 8182   3.561   3.501   1.793  0.4738 -0.3504  0.3301
 2103SOL     OW 8183   2.544   6.053   3.564  0.2568  0.0168 -0.0954
 2103SOL    HW2 8184   2.488   6.027   3.638 -0.3053 -0.3738 -0.6450
 2103SOL    HW3 8185   2.497   6.021   3.487  0.4899  1.0191 -0.6696
 2103SOL    MW4 8186   2.530   6.045   3.564  0.2134  0.0975 -0.2437
 2104SOL     OW 8187   0.130   3.567   3.649 -0.6543 -0.0391 -0.2786
 2104SOL    HW2 8188   0.126   3.606   3.736 -0.3341 -0.3119 -0.1388
 2104SOL    HW3 8189   0.138   3.641   3.589 -4.1178  0.4317 -0.3746
 2104SOL    MW4 8190   0.131   3.582   3.652 -1.0690 -0.0130 -0.2728
 2105SOL     OW 8191   4.200   3.160   5.366  0.0682 -0.3954 -0.9914
 2105SOL    HW2 8192   4.262   3.233   5.356 -0.7741  0.3892 -0.6264
 2105SOL    HW3 8193   4.183   3.131   5.276  0.4344 -0.1752 -1.1378
 2105SOL    MW4 8194   4.206   3.166   5.353  0.0054 -0.2628 -0.9625
 2106SOL     OW 8195   0.512   4.424   1.963  0.1296  0.0366 -0.5225
 2106SOL    HW2 8196   0.480   4.428   2.053 -1.1493 -2.2620 -0.7939
 2106SOL    HW3 8197   0.557   4.340   1.957 -2.4106 -1.3112 -2.7224
 2106SOL    MW4 8198   0.514   4.413   1.974 -0.3743 -0.4445 -0.8485
 2107SOL     OW 8199   2.441   4.859   5.409 -0.1411  0.0930 -0.2470
 2107SOL    HW2 8200   2.504   4.856   5.481 -0.2533 -0.8362 -0.1731
 2107SOL    HW3 8201   2.360   4.825   5.447  0.1162 -1.5942 -1.1073
 2107SOL    MW4 8202   2.438   4.854   5.423 -0.1220 -0.2522 -0.3507
 2108SOL     OW 8203   4.711   2.934   4.056  0.1351  0.7589  0.0025
 2108SOL    HW2 8204   4.671   2.941   3.969  0.6858  0.1464 -0.3190
 2108SOL    HW3 8205   4.642   2.900   4.112  0.0458  0.2313 -0.4182
 2108SOL    MW4 8206   4.697   2.931   4.052  0.1960  0.6085 -0.0954
 2109SOL     OW 8207   0.568   0.780   3.472  0.4661 -0.0350  0.4374
 2109SOL    HW2 8208   0.512   0.725   3.527 -0.1623  1.2539  1.1175
 2109SOL    HW3 8209   0.595   0.722   3.401 -0.4684 -1.1229  0.9338
 2109SOL    MW4 8210   0.564   0.765   3.470  0.2599 -0.0085  0.5926
 2110SOL     OW 8211   1.591   3.806   0.864  0.3744  0.4584  0.0432
 2110SOL    HW2 8212   1.614   3.785   0.955  2.6998  1.0879 -0.3143
 2110SOL    HW3 8213   1.644   3.745   0.812 -1.5751 -0.4755 -0.9237
 2110SOL    MW4 8214   1.601   3.796   0.869  0.4240  0.4182 -0.1315
 2111SOL     OW 8215   5.366   0.023   1.177 -0.4136 -0.6342  0.2582
 2111SOL    HW2 8216   5.357  -0.068   1.208  1.4883 -0.1456  2.6394
 2111SOL    HW3 8217   5.419   0.065   1.245 -2.2460  2.6094 -0.1494
 2111SOL    MW4 8218   5.372   0.016   1.190 -0.4044 -0.1418  0.5186
 2112SOL     OW 8219   6.081   5.266   1.947 -0.1889  0.7624  0.0339
 2112SOL    HW2 8220   6.026   5.306   2.013  0.2053  1.3940 -0.0080
 2112SOL    HW3 8221   6.026   5.199   1.906 -0.0231 -0.5520  1.8662
 2112SOL    MW4 8222   6.067   5.263   1.950 -0.1150  0.6723  0.2701
 2113SOL     OW 8223   5.808   0.160   5.374  0.1121  0.2722  0.6276
 2113SOL    HW2 8224   5.897   0.159   5.410  0.1213  1.4083  0.6798
 2113SOL    HW3 8225   5.812   0.101   5.298  0.3681 -1.3046  1.8104
 2113SOL    MW4 8226   5.821   0.152   5.369  0.1471  0.2140  0.7906
 2114SOL     OW 8227   1.416   1.824   3.257  0.0199 -0.3483  0.2768
 2114SOL    HW2 8228   1.406   1.919   3.249  0.1794 -0.2253  1.4415
 2114SOL    HW3 8229   1.511   1.809   3.251  0.0936 -0.3101  1.3054
 2114SOL    MW4 8230   1.428   1.834   3.255  0.0507 -0.3270  0.5662
 2115SOL     OW 8231   0.182   1.294   2.844 -0.4687  0.1878  0.4659
 2115SOL    HW2 8232   0.112   1.347   2.806 -1.5347 -2.1942 -1.1504
 2115SOL    HW3 8233   0.226   1.254   2.769  0.7138 -0.6840  1.5768
 2115SOL    MW4 8234   0.178   1.296   2.829 -0.4533 -0.2415  0.3992
 2116SOL     OW 8235   5.005   2.280   4.377  0.1609 -0.8105 -0.1591
 2116SOL    HW2 8236   5.053   2.340   4.320 -0.9701 -1.0732 -1.4359
 2116SOL    HW3 8237   5.051   2.196   4.368 -0.5825 -1.1010 -1.4995
 2116SOL    MW4 8238   5.017   2.277   4.368 -0.0864 -0.8835 -0.5044
 2117SOL     OW 8239   4.812   3.022   5.170 -0.1950  0.0249 -0.1386
 2117SOL    HW2 8240   4.802   3.116   5.156  0.3281 -0.2305 -2.6172
 2117SOL    HW3 8241   4.905   3.005   5.155 -0.0536 -0.7676  1.3921
 2117SOL    MW4 8242   4.823   3.032   5.166 -0.1073 -0.1134 -0.2636
 2118SOL     OW 8243   4.608   1.776   2.008  0.8360 -0.2537 -1.0259
 2118SOL    HW2 8244   4.615   1.776   2.103  1.1960 -1.8817 -1.0270
 2118SOL    HW3 8245   4.574   1.863   1.986 -1.1613 -0.5226  0.7203
 2118SOL    MW4 8246   4.605   1.787   2.017  0.6200 -0.5040 -0.7957
 2119SOL     OW 8247   3.805   3.555   4.588 -0.1748 -0.0321 -0.1904
 2119SOL    HW2 8248   3.867   3.617   4.627 -1.3615  0.5907  0.7557
 2119SOL    HW3 8249   3.764   3.604   4.517 -0.9206  0.1820  0.3844
 2119SOL    MW4 8250   3.808   3.570   4.583 -0.4298  0.0783  0.0103
 2120SOL     OW 8251   0.379   0.279   5.655 -0.2452  0.5925 -0.7622
 2120SOL    HW2 8252   0.445   0.279   5.586 -1.3483 -0.3581 -1.8687
 2120SOL    HW3 8253   0.297   0.262   5.609 -0.9131 -0.8701  0.8457
 2120SOL    MW4 8254   0.377   0.276   5.640 -0.4789  0.2741 -0.6961
 2121SOL     OW 8255   4.580   4.860   6.152 -0.5587 -0.0574  0.1565
 2121SOL    HW2 8256   4.604   4.926   6.086 -0.7995  1.4847  1.5492
 2121SOL    HW3 8257   4.662   4.836   6.193 -0.6647  0.7633  0.8774
 2121SOL    MW4 8258   4.594   4.866   6.148 -0.6045  0.2544  0.4354
 2122SOL     OW 8259   1.055   1.000   0.558 -0.0534  0.4407  0.1509
 2122SOL    HW2 8260   1.118   1.005   0.630 -1.8099 -0.9576  1.9198
 2122SOL    HW3 8261   1.057   0.909   0.530  0.0451  0.8044 -1.0909
 2122SOL    MW4 8262   1.063   0.989   0.564 -0.2721  0.3042  0.2205
 2123SOL     OW 8263   1.446   6.259   3.316 -0.2334 -0.1261  0.1192
 2123SOL    HW2 8264   1.511   6.263   3.246 -0.6226  0.1030 -0.2341
 2123SOL    HW3 8265   1.497   6.258   3.396  0.2300 -0.6871 -0.1764
 2123SOL    MW4 8266   1.461   6.259   3.317 -0.2236 -0.1699  0.0336
 2124SOL     OW 8267   1.600   3.808   6.099 -0.4541  0.0133 -0.5803
 2124SOL    HW2 8268   1.657   3.876   6.135 -0.4338 -0.8373  1.0750
 2124SOL    HW3 8269   1.541   3.855   6.040  0.7285  1.1828 -0.8877
 2124SOL    MW4 8270   1.600   3.823   6.096 -0.2954  0.0554 -0.4025
 2125SOL     OW 8271   5.042   0.910   3.656 -0.0224 -0.4129  0.0415
 2125SOL    HW2 8272   5.135   0.900   3.677  0.3552 -0.5570 -1.5575
 2125SOL    HW3 8273   5.030   0.856   3.578 -1.4668 -0.4174  0.2530
 2125SOL    MW4 8274   5.053   0.902   3.648 -0.1632 -0.4325 -0.1416
 2126SOL     OW 8275   1.998   6.417   2.666  0.0888  0.3315  0.0993
 2126SOL    HW2 8276   2.024   6.449   2.752  0.0472  1.5352 -0.3127
 2126SOL    HW3 8277   1.985   6.497   2.614 -2.7097 -0.2318 -0.2205
 2126SOL    MW4 8278   1.999   6.432   2.670 -0.2859  0.4160  0.0027
 2127SOL     OW 8279   2.308   5.583   4.091  0.7109 -0.2434  1.0012
 2127SOL    HW2 8280   2.402   5.588   4.076  0.4305 -1.8239 -2.1270
 2127SOL    HW3 8281   2.270   5.642   4.027 -0.4855 -0.5451  1.4122
 2127SOL    MW4 8282   2.315   5.591   4.081  0.5161 -0.4918  0.6427
 2128SOL     OW 8283   0.520   0.304   4.349  0.0433 -0.4254  0.1315
 2128SOL    HW2 8284   0.546   0.318   4.258  1.0095 -1.1525  0.2769
 2128SOL    HW3 8285   0.546   0.385   4.394 -0.9007  0.1408 -0.3199
 2128SOL    MW4 8286   0.527   0.317   4.343  0.0462 -0.4466  0.0911
 2129SOL     OW 8287   0.378   3.131   5.201 -0.1159 -0.1572  0.1731
 2129SOL    HW2 8288   0.422   3.071   5.261 -0.3912  1.1453  1.7557
 2129SOL    HW3 8289   0.369   3.213   5.251 -1.0026  0.7645 -1.4039
 2129SOL    MW4 8290   0.382   3.134   5.216 -0.2692  0.1363  0.1738
 2130SOL     OW 8291   2.799   3.283   1.299  0.1004 -0.0338  0.0438
 2130SOL    HW2 8292   2.794   3.375   1.325 -1.4093 -0.2930  0.8099
 2130SOL    HW3 8293   2.810   3.235   1.381 -1.3041 -0.6504 -0.0998
 2130SOL    MW4 8294   2.799   3.288   1.313 -0.2841 -0.1493  0.1259
 2131SOL     OW 8295   3.580   1.319   0.668 -0.2173  0.3434  0.0238
 2131SOL    HW2 8296   3.657   1.297   0.720  1.5241  1.4652 -1.9211
 2131SOL    HW3 8297   3.524   1.241   0.674  1.0241 -0.4964  1.5140
 2131SOL    MW4 8298   3.582   1.305   0.676  0.1762  0.3806 -0.0362
 2132SOL     OW 8299   4.977   2.905   3.357  0.1883  0.4015  0.2766
 2132SOL    HW2 8300   4.888   2.884   3.330 -0.2465  0.6012  1.4941
 2132SOL    HW3 8301   5.024   2.822   3.354  0.0458  0.3543 -0.6705
 2132SOL    MW4 8302   4.972   2.892   3.353  0.1121  0.4216  0.3123
 2133SOL     OW 8303   6.180   5.927   1.189 -0.1958 -0.0186  0.6811
 2133SOL    HW2 8304   6.222   6.003   1.229 -0.6491  1.4263 -1.3933
 2133SOL    HW3 8305   6.154   5.958   1.102 -2.2566 -1.9473  0.5244
 2133SOL    MW4 8306   6.182   5.941   1.183 -0.5275 -0.0824  0.3867
 2134SOL     OW 8307   6.017   3.932   0.273  0.2721  0.0472  0.1232
 2134SOL    HW2 8308   6.100   3.932   0.224  0.8503 -1.9197  0.9733
 2134SOL    HW3 8309   6.001   3.839   0.291 -1.3201  0.5175  1.3250
 2134SOL    MW4 8310   6.026   3.919   0.269  0.1383 -0.1503  0.3939
 2135SOL     OW 8311   2.560   4.707   3.453  0.2054 -0.2999  0.5089
 2135SOL    HW2 8312   2.536   4.776   3.515 -0.8951  0.3104 -0.5475
 2135SOL    HW3 8313   2.642   4.738   3.414  0.5492 -0.3671  1.1572
 2135SOL    MW4 8314   2.567   4.720   3.456  0.1056 -0.2282  0.4550
 2136SOL     OW 8315   0.480   1.032   2.075  0.1478 -0.1872  0.3491
 2136SOL    HW2 8316   0.466   1.127   2.078  0.4091 -0.1475  0.3408
 2136SOL    HW3 8317   0.418   0.997   2.139  0.0080 -0.0161  0.3088
 2136SOL    MW4 8318   0.470   1.040   2.084  0.1638 -0.1594  0.3427
 2137SOL     OW 8319   6.178   1.745   2.125 -0.4930  0.0926 -0.3911
 2137SOL    HW2 8320   6.156   1.662   2.168 -0.1244 -0.3201 -0.9734
 2137SOL    HW3 8321   6.270   1.735   2.101 -0.3211  0.8560 -0.0711
 2137SOL    MW4 8322   6.187   1.733   2.128 -0.4217  0.1389 -0.4257
 2138SOL     OW 8323   3.111   1.373   0.725 -0.1311 -0.1303 -0.1326
 2138SOL    HW2 8324   3.110   1.376   0.821 -1.2786 -0.3337 -0.1315
 2138SOL    HW3 8325   3.134   1.462   0.699  0.8569 -0.2338  0.3307
 2138SOL    MW4 8326   3.114   1.385   0.734 -0.1522 -0.1708 -0.0713
 2139SOL     OW 8327   6.034   4.338   0.954  0.2643  0.7712 -0.2654
 2139SOL    HW2 8328   5.991   4.273   1.010  1.5757 -0.7284 -0.8996
 2139SOL    HW3 8329   5.963   4.395   0.925 -0.8337  0.0557  0.9023
 2139SOL    MW4 8330   6.019   4.337   0.957  0.2925  0.4790 -0.1950
 2140SOL     OW 8331   2.357   3.367   5.941 -0.3960 -0.5124  0.2256
 2140SOL    HW2 8332   2.332   3.449   5.898  1.1522 -0.6170 -0.9871
 2140SOL    HW3 8333   2.302   3.301   5.899 -0.3884 -0.3262 -0.0808
 2140SOL    MW4 8334   2.346   3.369   5.930 -0.1907 -0.5016  0.0252
 2141SOL     OW 8335   5.177   5.752   5.741  0.2693  0.1748  0.2931
 2141SOL    HW2 8336   5.158   5.737   5.834 -1.7523 -1.3872 -0.3159
 2141SOL    HW3 8337   5.150   5.843   5.726 -0.0216  0.2239  1.0726
 2141SOL    MW4 8338   5.171   5.762   5.752 -0.0358 -0.0248  0.3156
 2142SOL     OW 8339   1.480   5.628   3.125  0.2259  0.1892 -0.1677
 2142SOL    HW2 8340   1.459   5.534   3.123  0.8323  0.0593 -1.9728
 2142SOL    HW3 8341   1.504   5.644   3.216 -0.7263 -1.2075  0.3767
 2142SOL    MW4 8342   1.480   5.617   3.137  0.1803 -0.0122 -0.3340
 2143SOL     OW 8343   2.927   2.846   3.642 -0.7258 -0.1703  0.4395
 2143SOL    HW2 8344   2.917   2.751   3.640  1.7283 -0.5169  1.2465
 2143SOL    HW3 8345   2.930   2.872   3.550  0.4824 -1.1498  0.1802
 2143SOL    MW4 8346   2.926   2.837   3.630 -0.2426 -0.3453  0.5117
 2144SOL     OW 8347   0.724   4.583   3.864 -0.2060 -0.2884 -0.5080
 2144SOL    HW2 8348   0.697   4.554   3.776 -1.1873 -2.2059  0.3687
 2144SOL    HW3 8349   0.819   4.592   3.858 -0.2625 -0.2766 -1.7862
 2144SOL    MW4 8350   0.733   4.580   3.851 -0.3429 -0.5398 -0.5610
 2145SOL     OW 8351   5.086   0.400   4.284 -0.1614  0.0448 -0.5357
 2145SOL    HW2 8352   5.071   0.495   4.279  0.7172  0.1872 -0.7648
 2145SOL    HW3 8353   5.174   0.388   4.246  1.7992 -0.3127  3.5445
 2145SOL    MW4 8354   5.096   0.411   4.278  0.2132  0.0164 -0.0275
 2146SOL     OW 8355   3.684   3.563   2.108 -0.3620  0.1643  0.2210
 2146SOL    HW2 8356   3.763   3.617   2.111  0.8263 -1.4941  0.2118
 2146SOL    HW3 8357   3.636   3.594   2.031  0.4990  0.9206 -0.0233
 2146SOL    MW4 8358   3.688   3.574   2.098 -0.0916  0.0453  0.1876
 2147SOL     OW 8359   5.748   3.468   4.529 -0.1444 -0.3230 -0.9858
 2147SOL    HW2 8360   5.715   3.398   4.472 -1.9723  1.1063 -1.8066
 2147SOL    HW3 8361   5.812   3.514   4.475 -0.3061 -0.2566 -1.1234
 2147SOL    MW4 8362   5.752   3.465   4.514 -0.4069 -0.1256 -1.1123
 2148SOL     OW 8363   2.907   5.813   1.510 -0.5688 -0.0096 -0.4945
 2148SOL    HW2 8364   2.961   5.887   1.482 -0.1035 -0.1196  0.0862
 2148SOL    HW3 8365   2.919   5.809   1.605 -1.9668  0.2433 -0.2923
 2148SOL    MW4 8366   2.916   5.822   1.519 -0.6918  0.0092 -0.3912
 2149SOL     OW 8367   6.319   5.119   3.220  0.2190  0.1801  0.1984
 2149SOL    HW2 8368   6.285   5.041   3.264  0.8729 -0.3097 -0.1384
 2149SOL    HW3 8369   6.267   5.191   3.255 -1.1590 -0.5328 -0.3005
 2149SOL    MW4 8370   6.308   5.118   3.231  0.1235  0.0214  0.0881
 2150SOL     OW 8371   0.494   5.168   3.212  0.2353 -0.4946 -0.9153
 2150SOL    HW2 8372   0.421   5.134   3.160  0.9355 -0.5147 -1.9208
 2150SOL    HW3 8373   0.485   5.125   3.297  0.4852 -2.4333 -1.8037
 2150SOL    MW4 8374   0.483   5.157   3.216  0.3607 -0.7531 -1.1652
 2151SOL     OW 8375   5.298   0.443   1.881  0.2612  0.3129  0.1766
 2151SOL    HW2 8376   5.349   0.492   1.946  1.5724 -1.0236  0.2141
 2151SOL    HW3 8377   5.210   0.482   1.885  0.8556  1.6369  1.2440
 2151SOL    MW4 8378   5.293   0.455   1.890  0.5126  0.3113  0.3224
 2152SOL     OW 8379   5.831   0.153   2.578 -0.1469 -0.0115  0.2170
 2152SOL    HW2 8380   5.737   0.142   2.592 -0.0196 -0.1614  0.9829
 2152SOL    HW3 8381   5.847   0.245   2.598 -0.5895  0.7985 -2.6632
 2152SOL    MW4 8382   5.820   0.163   2.583 -0.1885  0.0756 -0.0619
 2153SOL     OW 8383   0.614   2.022   1.296  0.0931 -0.2171 -0.2401
 2153SOL    HW2 8384   0.520   2.003   1.301 -0.4852  2.1848 -0.8109
 2153SOL    HW3 8385   0.650   1.948   1.247 -1.4557 -1.2858  0.1376
 2153SOL    MW4 8386   0.606   2.009   1.290 -0.1875 -0.0412 -0.2655
 2154SOL     OW 8387   5.395   3.397   4.145 -0.0816 -0.2321 -0.5045
 2154SOL    HW2 8388   5.455   3.412   4.073 -0.3197 -0.5303 -0.7678
 2154SOL    HW3 8389   5.332   3.332   4.112  0.8479 -1.7490  0.5285
 2154SOL    MW4 8390   5.394   3.390   4.131  0.0096 -0.4716 -0.4030
 2155SOL     OW 8391   4.718   3.285   5.163  0.0604  0.4348  0.1997
 2155SOL    HW2 8392   4.635   3.281   5.209  0.9180  3.1745  2.1804
 2155SOL    HW3 8393   4.749   3.375   5.174  3.4547 -0.5335 -0.1378
 2155SOL    MW4 8394   4.711   3.296   5.170  0.6214  0.6685  0.4165
 2156SOL     OW 8395   5.136   2.945   0.232  0.2513 -0.1007  0.2348
 2156SOL    HW2 8396   5.200   2.880   0.263 -0.1922 -0.9805 -0.6517
 2156SOL    HW3 8397   5.131   2.930   0.138  0.6184  1.6706 -0.0981
 2156SOL    MW4 8398   5.144   2.934   0.224  0.2412  0.0170  0.0739
 2157SOL     OW 8399   5.935   6.101   4.125 -0.1017 -0.2089 -0.1993
 2157SOL    HW2 8400   5.893   6.127   4.207 -0.3539 -1.2527  0.0123
 2157SOL    HW3 8401   6.026   6.085   4.148 -0.0471  0.0354 -0.2407
 2157SOL    MW4 8402   5.942   6.103   4.139 -0.1278 -0.3144 -0.1769
 2158SOL     OW 8403   0.105   2.024   4.951  0.5617  0.0407  0.3557
 2158SOL    HW2 8404   0.106   1.928   4.950 -1.3321 -0.0286 -0.5414
 2158SOL    HW3 8405   0.084   2.047   5.042 -1.5008 -0.5335  0.0799
 2158SOL    MW4 8406   0.102   2.014   4.963  0.0397 -0.0442  0.2009
 2159SOL     OW 8407   2.026   3.734   5.678  0.1608 -0.2842  0.3828
 2159SOL    HW2 8408   2.010   3.659   5.736  0.2672 -1.0263 -0.5208
 2159SOL    HW3 8409   1.980   3.807   5.720 -2.4469 -1.4961 -0.1677
 2159SOL    MW4 8410   2.017   3.734   5.691 -0.1693 -0.5420  0.1910
 2160SOL     OW 8411   2.105   0.330   0.049  0.4084 -0.2209  0.2152
 2160SOL    HW2 8412   2.082   0.366   0.134  0.4322  0.4392 -0.0560
 2160SOL    HW3 8413   2.022   0.301   0.011  0.3970 -0.5080  0.4566
 2160SOL    MW4 8414   2.091   0.331   0.055  0.4100 -0.1717  0.2113
 2161SOL     OW 8415   3.382   2.244   1.349  0.7724  0.3917  0.2136
 2161SOL    HW2 8416   3.299   2.292   1.352 -0.3363 -1.4936  1.7594
 2161SOL    HW3 8417   3.403   2.239   1.255 -0.6940  1.1356 -0.1845
 2161SOL    MW4 8418   3.374   2.250   1.337  0.4327  0.2411  0.3650
 2162SOL     OW 8419   3.819   4.058   1.402 -0.0460 -0.2763 -0.5677
 2162SOL    HW2 8420   3.876   4.000   1.453  1.7538  1.0577 -0.9999
 2162SOL    HW3 8421   3.868   4.077   1.322 -0.9604  1.1196 -0.8355
 2162SOL    MW4 8422   3.833   4.053   1.398  0.0708  0.0839 -0.6600
 2163SOL     OW 8423   3.483   4.261   2.112  0.1577 -0.1451 -0.3961
 2163SOL    HW2 8424   3.395   4.248   2.076 -0.7158 -2.9280  2.3713
 2163SOL    HW3 8425   3.492   4.356   2.119 -1.9198  0.2723 -2.2839
 2163SOL    MW4 8426   3.473   4.272   2.108 -0.2316 -0.4572 -0.2800
 2164SOL     OW 8427   3.356   0.491   1.212 -0.3489  0.4343 -0.4846
 2164SOL    HW2 8428   3.302   0.414   1.197  0.7935 -0.3455 -0.8006
 2164SOL    HW3 8429   3.407   0.470   1.291  0.0639  0.8003 -0.6475
 2164SOL    MW4 8430   3.356   0.478   1.220 -0.1437  0.3797 -0.5478
 2165SOL     OW 8431   4.951   1.085   3.096  0.1494 -0.5641  0.8719
 2165SOL    HW2 8432   4.921   0.995   3.106 -0.3047 -0.3375  1.5596
 2165SOL    HW3 8433   4.926   1.129   3.177  1.8241 -0.2205  1.2356
 2165SOL    MW4 8434   4.944   1.079   3.108  0.3105 -0.4889  1.0106
 2166SOL     OW 8435   2.205   4.166   0.440 -0.1222 -0.2612 -0.0095
 2166SOL    HW2 8436   2.228   4.100   0.375 -1.3906  0.0450 -0.7908
 2166SOL    HW3 8437   2.117   4.194   0.416 -0.3130  0.4126  1.3935
 2166SOL    MW4 8438   2.197   4.161   0.429 -0.3147 -0.1319  0.0725
 2167SOL     OW 8439   5.432   4.202   0.989 -0.4585  0.2172  0.5922
 2167SOL    HW2 8440   5.514   4.205   0.940 -1.3162  0.2840 -0.8956
 2167SOL    HW3 8441   5.422   4.110   1.015 -1.4530 -0.5020 -2.0358
 2167SOL    MW4 8442   5.441   4.190   0.986 -0.7029  0.1311  0.0492
 2168SOL     OW 8443   0.379   2.107   2.758 -0.1344  0.6873  0.0368
 2168SOL    HW2 8444   0.332   2.053   2.822 -0.0482  0.1691 -0.3266
 2168SOL    HW3 8445   0.402   2.187   2.806  0.1123  0.2221  0.7172
 2168SOL    MW4 8446   0.376   2.110   2.773 -0.0905  0.5576  0.0786
 2169SOL     OW 8447   3.289   6.252   5.572 -0.4711  0.3689 -0.3224
 2169SOL    HW2 8448   3.314   6.177   5.626  0.3227  0.5741 -0.4021
 2169SOL    HW3 8449   3.335   6.326   5.610 -1.7991  0.9633  0.1895
 2169SOL    MW4 8450   3.298   6.252   5.584 -0.5416  0.4744 -0.2654
 2170SOL     OW 8451   0.386   0.504   3.395  0.3989 -0.5593 -0.2101
 2170SOL    HW2 8452   0.392   0.475   3.304 -2.7280 -3.1962  0.2406
 2170SOL    HW3 8453   0.459   0.461   3.439  1.6971  0.4188 -1.3113
 2170SOL    MW4 8454   0.396   0.495   3.388  0.1577 -0.7782 -0.2959
 2171SOL     OW 8455   1.105   3.384   4.954 -0.0516 -0.7052 -0.2829
 2171SOL    HW2 8456   1.029   3.385   4.896 -1.2760  0.2581  1.2658
 2171SOL    HW3 8457   1.091   3.457   5.014  2.0350 -0.5985  0.1589
 2171SOL    MW4 8458   1.093   3.394   4.954  0.0622 -0.5640 -0.0202
 2172SOL     OW 8459   6.201   5.952   4.515  0.0048  0.2063 -0.1337
 2172SOL    HW2 8460   6.251   5.870   4.516 -0.4305 -0.2166 -3.1848
 2172SOL    HW3 8461   6.226   5.994   4.434 -0.2732  2.8757  1.0735
 2172SOL    MW4 8462   6.211   5.946   4.505 -0.0893  0.5027 -0.3769
 2173SOL     OW 8463   3.820   1.227   5.346  0.0650  0.3057 -0.0243
 2173SOL    HW2 8464   3.854   1.287   5.412  1.2080  1.2665 -1.4110
 2173SOL    HW3 8465   3.824   1.141   5.387  1.1677  0.8215  1.0165
 2173SOL    MW4 8466   3.825   1.224   5.360  0.3613  0.5005 -0.0700
 2174SOL     OW 8467   4.633   4.626   5.953  0.5865  0.0228 -0.5170
 2174SOL    HW2 8468   4.654   4.620   5.860 -1.5937  1.1814 -1.1465
 2174SOL    HW3 8469   4.645   4.718   5.975  1.9248 -0.3867  0.6132
 2174SOL    MW4 8470   4.638   4.637   5.944  0.4754  0.1216 -0.4509
 2175SOL     OW 8471   0.291   3.577   0.971 -0.2281 -0.1178 -0.5881
 2175SOL    HW2 8472   0.321   3.489   0.994 -1.6125 -0.8191 -1.2950
 2175SOL    HW3 8473   0.248   3.566   0.886 -2.0482  0.8523  0.1389
 2175SOL    MW4 8474   0.289   3.564   0.962 -0.6509 -0.0823 -0.5854
 2176SOL     OW 8475   5.070   1.706   4.030  0.1457 -0.1848 -0.1477
 2176SOL    HW2 8476   4.987   1.659   4.035 -0.8148  1.4667  0.4207
 2176SOL    HW3 8477   5.060   1.763   3.953  0.8386 -0.1281 -0.1966
 2176SOL    MW4 8478   5.057   1.707   4.021  0.1104  0.0406 -0.0791
 2177SOL     OW 8479   1.552   1.127   4.512  0.4251  0.0611  0.4555
 2177SOL    HW2 8480   1.513   1.108   4.597 -1.2605 -0.3480 -0.3437
 2177SOL    HW3 8481   1.571   1.041   4.475 -0.6410  0.1321 -0.3196
 2177SOL    MW4 8482   1.549   1.113   4.518  0.0620  0.0165  0.2477
 2178SOL     OW 8483   3.086   6.105   3.663 -0.0162 -0.0669  0.5081
 2178SOL    HW2 8484   3.005   6.149   3.638  1.0878  1.1855 -1.0394
 2178SOL    HW3 8485   3.143   6.176   3.693  0.8922 -0.7876  0.5201
 2178SOL    MW4 8486   3.083   6.120   3.664  0.2493  0.0033  0.3055
 2179SOL     OW 8487   1.585   2.201   2.964 -0.1250 -0.8574 -0.1471
 2179SOL    HW2 8488   1.644   2.138   3.006  1.7959  0.1263 -1.2286
 2179SOL    HW3 8489   1.548   2.251   3.037  2.5623  0.3367  0.5167
 2179SOL    MW4 8490   1.588   2.199   2.979  0.4830 -0.5700 -0.2022
 2180SOL     OW 8491   4.752   4.127   1.798 -0.0807 -0.4292  0.5163
 2180SOL    HW2 8492   4.758   4.056   1.861 -1.8529  0.1180  1.3630
 2180SOL    HW3 8493   4.664   4.119   1.760 -0.0523  0.8727  0.1232
 2180SOL    MW4 8494   4.741   4.117   1.801 -0.3108 -0.1853  0.5762
 2181SOL     OW 8495   1.591   1.866   2.892  0.3344  0.3287 -0.1441
 2181SOL    HW2 8496   1.646   1.835   2.964 -0.0805  0.9195  0.4387
 2181SOL    HW3 8497   1.648   1.924   2.841  0.4708  0.3328  0.0136
 2181SOL    MW4 8498   1.606   1.870   2.894  0.2976  0.4072 -0.0464
 2182SOL     OW 8499   1.750   3.795   2.578 -0.2015 -0.0277 -0.5288
 2182SOL    HW2 8500   1.676   3.851   2.601  0.6047  0.8310  0.0761
 2182SOL    HW3 8501   1.798   3.845   2.512 -0.5349 -0.8956 -1.4473
 2182SOL    MW4 8502   1.747   3.809   2.572 -0.1391 -0.0289 -0.5702
 2183SOL     OW 8503   0.865   4.673   3.144 -0.8411 -0.3872  0.5339
 2183SOL    HW2 8504   0.887   4.592   3.190 -1.7402 -0.9145  0.0566
 2183SOL    HW3 8505   0.868   4.740   3.212  3.7306 -0.0279  0.3451
 2183SOL    MW4 8506   0.869   4.671   3.159 -0.3566 -0.4093  0.4460
 2184SOL     OW 8507   4.315   3.346   4.163  0.0799 -0.1036 -0.3485
 2184SOL    HW2 8508   4.384   3.403   4.128 -1.1452  1.4559 -0.3421
 2184SOL    HW3 8509   4.344   3.326   4.252  0.9479 -0.2047 -0.6433
 2184SOL    MW4 8510   4.328   3.351   4.170  0.0327  0.0888 -0.3865
 2185SOL     OW 8511   5.018   2.119   1.634  0.3259 -0.4960 -0.3940
 2185SOL    HW2 8512   4.945   2.159   1.587 -1.1990  0.5393  2.6032
 2185SOL    HW3 8513   4.991   2.028   1.646 -0.6679 -0.0614  0.9126
 2185SOL    MW4 8514   5.004   2.112   1.629 -0.0064 -0.3021  0.1738
 2186SOL     OW 8515   5.751   2.564   4.296  0.0181  0.0550  0.1130
 2186SOL    HW2 8516   5.794   2.553   4.212 -0.9305  0.2136 -0.4081
 2186SOL    HW3 8517   5.736   2.475   4.328 -2.6879 -0.2022 -1.5203
 2186SOL    MW4 8518   5.754   2.551   4.289 -0.4640  0.0420 -0.1713
 2187SOL     OW 8519   6.345   3.895   5.197  0.3505  0.7015  0.1903
 2187SOL    HW2 8520   6.314   3.805   5.208  1.1235  0.2822 -0.8915
 2187SOL    HW3 8521   6.331   3.913   5.104  2.0573  0.9681 -0.0492
 2187SOL    MW4 8522   6.339   3.885   5.186  0.6776  0.6814  0.0160
 2188SOL     OW 8523   0.233   5.071   1.497  0.0638  0.1556  0.0179
 2188SOL    HW2 8524   0.245   5.164   1.479  0.7808  0.5196  2.0481
 2188SOL    HW3 8525   0.320   5.040   1.522 -0.5404 -0.5568  1.3339
 2188SOL    MW4 8526   0.246   5.079   1.498  0.0787  0.1097  0.4594
 2189SOL     OW 8527   6.423   4.486   5.570  0.5927 -0.5647 -0.0811
 2189SOL    HW2 8528   6.511   4.500   5.603  0.1056  1.0157  0.6269
 2189SOL    HW3 8529   6.435   4.438   5.488  1.9978 -1.7248  0.7494
 2189SOL    MW4 8530   6.436   4.481   5.563  0.7138 -0.5093  0.1219
 2190SOL     OW 8531   4.041   2.833   3.221  0.3660 -0.2755  0.0884
 2190SOL    HW2 8532   3.976   2.765   3.236  1.0666 -0.9075  0.3652
 2190SOL    HW3 8533   4.068   2.820   3.129 -0.2593  0.3125 -0.1810
 2190SOL    MW4 8534   4.036   2.822   3.211  0.3759 -0.2813  0.0894
 2191SOL     OW 8535   5.070   6.405   6.257 -0.1244  0.3150  0.3779
 2191SOL    HW2 8536   5.064   6.413   6.352  4.0308  1.1597  0.7547
 2191SOL    HW3 8537   5.032   6.486   6.224 -2.9466 -0.6002  1.1135
 2191SOL    MW4 8538   5.065   6.417   6.265  0.0515  0.3057  0.5247
 2192SOL     OW 8539   1.659   0.203   4.165  0.1817 -0.1438 -0.0790
 2192SOL    HW2 8540   1.603   0.153   4.106 -1.0086  2.6856 -1.5191
 2192SOL    HW3 8541   1.634   0.294   4.151  2.8195  0.9928  1.7634
 2192SOL    MW4 8542   1.648   0.209   4.156  0.3727  0.3795 -0.0259
 2193SOL     OW 8543   4.064   3.608   0.686  0.0174  0.5074  0.0550
 2193SOL    HW2 8544   4.024   3.535   0.733  0.9722 -0.4734 -0.5980
 2193SOL    HW3 8545   4.113   3.567   0.615  0.9212  1.7525 -0.0877
 2193SOL    MW4 8546   4.065   3.593   0.683  0.2626  0.5423 -0.0500
 2194SOL     OW 8547   2.883   2.834   5.479 -0.5071  0.8231  0.0900
 2194SOL    HW2 8548   2.911   2.853   5.568 -0.0525 -1.8288  0.5954
 2194SOL    HW3 8549   2.961   2.798   5.436 -0.6800  2.1587 -1.4708
 2194SOL    MW4 8550   2.897   2.832   5.485 -0.4699  0.6494 -0.0492
 2195SOL     OW 8551   0.653   5.936   1.795  0.1645  0.5325 -0.9664
 2195SOL    HW2 8552   0.585   6.003   1.801 -1.4794 -1.0199 -1.4313
 2195SOL    HW3 8553   0.723   5.967   1.852 -2.4099  0.4954  2.5364
 2195SOL    MW4 8554   0.654   5.949   1.803 -0.3920  0.3228 -0.5656
 2196SOL     OW 8555   3.477   0.800   5.385  0.3627 -0.1805  0.0846
 2196SOL    HW2 8556   3.564   0.760   5.393  1.3576  1.3460 -2.1158
 2196SOL    HW3 8557   3.446   0.809   5.475  0.6987 -4.3240  0.8011
 2196SOL    MW4 8558   3.484   0.796   5.398  0.5383 -0.5258 -0.1112
 2197SOL     OW 8559   3.020   3.164   1.925  0.6645  0.6434 -0.0940
 2197SOL    HW2 8560   2.946   3.222   1.907 -0.0863 -0.5159 -0.8695
 2197SOL    HW3 8561   3.017   3.099   1.854  0.5075 -1.2794  1.5983
 2197SOL    MW4 8562   3.010   3.163   1.913  0.5447  0.2367  0.0269
 2198SOL     OW 8563   5.138   5.710   4.819 -0.6079  0.4499  0.0570
 2198SOL    HW2 8564   5.110   5.637   4.873 -0.9303 -0.0394 -0.7591
 2198SOL    HW3 8565   5.090   5.785   4.853 -1.2554  0.0361  0.0751
 2198SOL    MW4 8566   5.128   5.710   4.831 -0.7358  0.3308 -0.0483
 2199SOL     OW 8567   6.391   0.010   4.115  0.4221 -0.0820  0.1663
 2199SOL    HW2 8568   6.486   0.001   4.120  0.5167  0.2824 -0.8309
 2199SOL    HW3 8569   6.375   0.053   4.031 -0.6183 -0.0330  0.3757
 2199SOL    MW4 8570   6.401   0.014   4.104  0.2973 -0.0274  0.0623
 2200SOL     OW 8571   0.272   3.488   0.684  0.0382 -0.3150 -0.0667
 2200SOL    HW2 8572   0.351   3.434   0.687 -0.4899 -1.1450 -0.7735
 2200SOL    HW3 8573   0.200   3.426   0.675 -0.5610  0.5108 -1.3351
 2200SOL    MW4 8574   0.273   3.473   0.683 -0.1105 -0.3156 -0.3273
 2201SOL     OW 8575   4.054   5.041   1.028 -0.3158  0.6331 -0.4651
 2201SOL    HW2 8576   4.009   5.123   1.050 -2.3690 -0.1535 -1.4730
 2201SOL    HW3 8577   4.073   5.048   0.935  1.9550  1.0088 -0.0463
 2201SOL    MW4 8578   4.051   5.053   1.019 -0.2870  0.5789 -0.5428
 2202SOL     OW 8579   6.345   2.618   0.447  0.0406 -0.0020 -0.1461
 2202SOL    HW2 8580   6.321   2.656   0.532  0.6357  0.1267 -0.0339
 2202SOL    HW3 8581   6.392   2.538   0.468 -0.6587 -0.4813 -0.3770
 2202SOL    MW4 8582   6.348   2.613   0.461  0.0269 -0.0482 -0.1617
 2203SOL     OW 8583   2.987   3.713   4.400  0.0289 -0.2140  0.2726
 2203SOL    HW2 8584   3.025   3.678   4.480 -1.7981  0.1433  1.3656
 2203SOL    HW3 8585   2.942   3.638   4.360  1.4928 -0.5598 -0.8448
 2203SOL    MW4 8586   2.986   3.698   4.405 -0.0190 -0.2125  0.2694
 2204SOL     OW 8587   6.338   3.142   4.893 -0.1356 -0.4036  0.1437
 2204SOL    HW2 8588   6.395   3.215   4.868 -1.0320  0.1758 -0.2584
 2204SOL    HW3 8589   6.265   3.183   4.939 -1.1702 -0.9202 -0.9844
 2204SOL    MW4 8590   6.336   3.157   4.896 -0.3904 -0.3953 -0.0582
 2205SOL     OW 8591   5.242   4.152   0.778  0.1776  0.1048 -0.1389
 2205SOL    HW2 8592   5.163   4.163   0.726  0.0461  0.6116  0.1608
 2205SOL    HW3 8593   5.241   4.225   0.839  1.0071  0.2689 -0.2986
 2205SOL    MW4 8594   5.232   4.163   0.779  0.2697  0.1933 -0.1205
 2206SOL     OW 8595   2.371   6.104   4.289 -0.0927 -0.2555 -0.3043
 2206SOL    HW2 8596   2.456   6.118   4.329  0.0275 -1.4268 -0.1215
 2206SOL    HW3 8597   2.343   6.018   4.321  0.8137 -2.1345 -4.0513
 2206SOL    MW4 8598   2.378   6.095   4.299  0.0428 -0.6580 -0.7746
 2207SOL     OW 8599   1.248   2.285   2.604  0.5275  0.2818 -0.0540
 2207SOL    HW2 8600   1.341   2.268   2.618  0.4627 -0.6949 -0.7087
 2207SOL    HW3 8601   1.211   2.200   2.583 -0.5612  0.6271  0.3852
 2207SOL    MW4 8602   1.255   2.272   2.603  0.3753  0.1985 -0.0824
 2208SOL     OW 8603   1.721   4.095   3.087  0.4956 -0.3864 -0.6179
 2208SOL    HW2 8604   1.781   4.169   3.093 -0.5744  0.4686 -0.1227
 2208SOL    HW3 8605   1.773   4.024   3.049  2.6125 -0.5524  2.2682
 2208SOL    MW4 8606   1.736   4.095   3.083  0.6337 -0.2955 -0.1718
 2209SOL     OW 8607   2.455   0.592   2.955 -0.2097 -0.1990 -0.5868
 2209SOL    HW2 8608   2.360   0.591   2.964 -0.1051 -2.5204  1.1170
 2209SOL    HW3 8609   2.472   0.548   2.872 -0.6215  0.9885 -1.3146
 2209SOL    MW4 8610   2.445   0.586   2.946 -0.2503 -0.3486 -0.4580
 2210SOL     OW 8611   3.307   1.482   5.526  0.4864 -0.3383  0.5886
 2210SOL    HW2 8612   3.239   1.547   5.511  2.0766  1.3744  0.5001
 2210SOL    HW3 8613   3.266   1.416   5.582 -0.7673  1.4393  1.8542
 2210SOL    MW4 8614   3.293   1.482   5.531  0.5308  0.1222  0.7439
 2211SOL     OW 8615   1.903   1.459   2.415 -0.0623 -0.0767  0.2022
 2211SOL    HW2 8616   1.908   1.377   2.365 -1.0780  0.0708 -0.1629
 2211SOL    HW3 8617   1.979   1.455   2.473  0.0367 -1.1755  0.0381
 2211SOL    MW4 8618   1.914   1.447   2.416 -0.1833 -0.2022  0.1324
 2212SOL     OW 8619   3.874   2.045   2.074 -0.1029  0.0690  0.0094
 2212SOL    HW2 8620   3.959   2.068   2.112  0.2712 -1.6263  0.2728
 2212SOL    HW3 8621   3.860   2.110   2.006  2.4895 -0.8910 -1.5940
 2212SOL    MW4 8622   3.883   2.057   2.070  0.2885 -0.2813 -0.1674
 2213SOL     OW 8623   2.295   3.657   1.644 -0.2116  0.6666 -0.2868
 2213SOL    HW2 8624   2.249   3.726   1.596 -1.3530  0.1204 -0.0118
 2213SOL    HW3 8625   2.370   3.701   1.684  0.1378  1.3642 -1.6362
 2213SOL    MW4 8626   2.299   3.672   1.643 -0.3161  0.6865 -0.4285
 2214SOL     OW 8627   1.153   5.696   2.158 -0.1756  0.5480  0.2590
 2214SOL    HW2 8628   1.132   5.636   2.087 -0.1069  0.3575  0.3972
 2214SOL    HW3 8629   1.243   5.674   2.183 -0.1146  0.7765  0.2434
 2214SOL    MW4 8630   1.162   5.685   2.152 -0.1585  0.5530  0.2752
 2215SOL     OW 8631   5.182   5.570   2.754  0.2044 -0.0932  0.4954
 2215SOL    HW2 8632   5.253   5.590   2.815 -1.0236  0.7902  1.6951
 2215SOL    HW3 8633   5.171   5.475   2.760  0.7001 -0.1250  0.9535
 2215SOL    MW4 8634   5.190   5.560   2.763  0.1078  0.0191  0.7141
 2216SOL     OW 8635   2.809   5.263   1.797  0.4454  0.3594  0.0714
 2216SOL    HW2 8636   2.774   5.297   1.879  0.7129  2.1705 -0.5272
 2216SOL    HW3 8637   2.746   5.292   1.731  1.0495  0.2746 -0.5478
 2216SOL    MW4 8638   2.796   5.271   1.799  0.5604  0.5871 -0.0893
 2217SOL     OW 8639   0.704   0.393   2.920  0.3456 -0.0037 -0.0115
 2217SOL    HW2 8640   0.746   0.470   2.959 -1.6999  1.5888 -0.7610
 2217SOL    HW3 8641   0.751   0.318   2.958  1.6278  1.5655  1.6753
 2217SOL    MW4 8642   0.716   0.393   2.930  0.2449  0.4135  0.1121
 2218SOL     OW 8643   6.158   1.988   2.760  0.7718  0.0876  0.1876
 2218SOL    HW2 8644   6.069   1.957   2.746  1.2523 -1.9769  1.4014
 2218SOL    HW3 8645   6.189   2.011   2.672 -0.8619  0.6791 -0.2805
 2218SOL    MW4 8646   6.150   1.987   2.746  0.6196 -0.1067  0.2860
 2219SOL     OW 8647   0.526   2.160   1.056 -0.3242  0.0760  0.1218
 2219SOL    HW2 8648   0.527   2.130   1.147 -1.1039  0.2517  0.1871
 2219SOL    HW3 8649   0.534   2.255   1.062  1.6382 -0.0226 -0.0725
 2219SOL    MW4 8650   0.527   2.168   1.069 -0.1681  0.0862  0.1048
 2220SOL     OW 8651   1.035   0.732   4.183 -0.4715  0.2698 -0.2904
 2220SOL    HW2 8652   0.971   0.798   4.213 -0.1884 -0.2306  1.5190
 2220SOL    HW3 8653   0.985   0.677   4.122 -1.4953  0.5135  0.2916
 2220SOL    MW4 8654   1.020   0.734   4.179 -0.5692  0.2359  0.0251
 2221SOL     OW 8655   6.130   2.230   4.789  0.5975 -0.2093  0.0369
 2221SOL    HW2 8656   6.210   2.233   4.840 -0.3973  2.3458  1.6223
 2221SOL    HW3 8657   6.080   2.157   4.826  1.0290 -0.0759  0.8995
 2221SOL    MW4 8658   6.134   2.220   4.800  0.5232  0.1454  0.3599
 2222SOL     OW 8659   2.705   1.312   1.611 -0.6996 -0.1960  0.3484
 2222SOL    HW2 8660   2.689   1.320   1.705  0.0411 -0.9267  0.5561
 2222SOL    HW3 8661   2.792   1.271   1.605 -0.4358  0.4612 -0.6601
 2222SOL    MW4 8662   2.715   1.308   1.623 -0.5671 -0.2057  0.2428
 2223SOL     OW 8663   0.256   0.517   4.158 -0.5331  0.8302 -0.0604
 2223SOL    HW2 8664   0.269   0.568   4.238 -1.4808  2.7051 -1.0439
 2223SOL    HW3 8665   0.313   0.558   4.093 -0.4441 -0.1071 -0.5950
 2223SOL    MW4 8666   0.265   0.529   4.160 -0.6464  0.9539 -0.2607
 2224SOL     OW 8667   6.201   2.233   1.625 -0.0755  0.1451 -0.8338
 2224SOL    HW2 8668   6.228   2.256   1.536 -0.2184 -0.5569 -1.0612
 2224SOL    HW3 8669   6.201   2.317   1.672  0.8041  0.4126 -1.2745
 2224SOL    MW4 8670   6.205   2.247   1.620  0.0217  0.0878 -0.9219
 2225SOL     OW 8671   4.215   4.412   5.367  0.2608  0.4241 -0.3804
 2225SOL    HW2 8672   4.242   4.439   5.455 -1.2200  0.1167  0.2069
 2225SOL    HW3 8673   4.168   4.488   5.332 -0.5205  0.0083 -0.2650
 2225SOL    MW4 8674   4.212   4.426   5.374 -0.0377  0.3287 -0.2877
 2226SOL     OW 8675   5.534   1.025   0.297 -0.1233 -0.5460  0.0559
 2226SOL    HW2 8676   5.567   1.033   0.386 -0.4661  0.8541  0.0851
 2226SOL    HW3 8677   5.469   1.094   0.289 -0.2579 -0.7884 -1.2126
 2226SOL    MW4 8678   5.530   1.035   0.308 -0.1863 -0.3933 -0.1076
 2227SOL     OW 8679   1.111   0.383   5.766  0.2378  0.4203  0.1889
 2227SOL    HW2 8680   1.055   0.375   5.843 -0.3635  2.2621 -0.0216
 2227SOL    HW3 8681   1.061   0.437   5.705  1.3598  0.3124 -0.8695
 2227SOL    MW4 8682   1.097   0.389   5.768  0.3065  0.6491  0.0215
 2228SOL     OW 8683   1.379   3.285   3.317  0.1943 -0.3187  0.2148
 2228SOL    HW2 8684   1.288   3.295   3.289  0.4419 -0.1829 -0.5564
 2228SOL    HW3 8685   1.401   3.195   3.295 -0.5294 -1.1960  2.7463
 2228SOL    MW4 8686   1.370   3.274   3.311  0.1315 -0.4165  0.4470
 2229SOL     OW 8687   3.413   2.386   2.552 -0.4781  0.0711  0.2927
 2229SOL    HW2 8688   3.353   2.315   2.528  1.0035 -0.9972 -0.4229
 2229SOL    HW3 8689   3.490   2.341   2.587  0.5273  1.3181 -0.2306
 2229SOL    MW4 8690   3.415   2.370   2.553 -0.1499  0.0947  0.1293
 2230SOL     OW 8691   0.698   2.574   4.136  0.4221  0.1174 -1.0937
 2230SOL    HW2 8692   0.745   2.617   4.207  2.0924 -0.9558 -1.4776
 2230SOL    HW3 8693   0.606   2.591   4.153  0.8827  1.3208  0.3606
 2230SOL    MW4 8694   0.692   2.582   4.147  0.7032  0.1346 -0.9525
 2231SOL     OW 8695   0.355   6.122   2.694  0.0714 -0.6023  0.0230
 2231SOL    HW2 8696   0.358   6.176   2.773  0.2738  0.8593 -0.9423
 2231SOL    HW3 8697   0.445   6.123   2.661 -0.2347 -0.2126 -0.8387
 2231SOL    MW4 8698   0.367   6.129   2.700  0.0577 -0.3580 -0.2180
 2232SOL     OW 8699   2.235   2.193   3.714  0.1070  0.1315  0.6262
 2232SOL    HW2 8700   2.326   2.207   3.688 -0.4508  2.6040 -0.2056
 2232SOL    HW3 8701   2.241   2.166   3.806  1.7496 -2.2177 -0.0458
 2232SOL    MW4 8702   2.248   2.191   3.723  0.2502  0.1478  0.4278
 2233SOL     OW 8703   1.099   1.601   4.929 -0.0873  0.6278 -0.0736
 2233SOL    HW2 8704   1.116   1.516   4.890 -1.2728  0.3813 -0.0954
 2233SOL    HW3 8705   1.007   1.598   4.955 -0.8607  2.6988 -2.1840
 2233SOL    MW4 8706   1.089   1.590   4.927 -0.3458  0.8685 -0.3549
 2234SOL     OW 8707   5.631   3.215   6.301  0.3622 -0.2849 -0.1081
 2234SOL    HW2 8708   5.581   3.170   6.232 -0.1761 -0.1849  0.2072
 2234SOL    HW3 8709   5.651   3.147   6.365  0.0067 -0.1922  0.1093
 2234SOL    MW4 8710   5.627   3.200   6.300  0.2443 -0.2595 -0.0378
 2235SOL     OW 8711   2.853   3.999   1.425 -0.0830  0.0195  0.1168
 2235SOL    HW2 8712   2.885   3.958   1.505  0.7190 -0.4532 -0.4423
 2235SOL    HW3 8713   2.867   3.934   1.357  2.4337  1.6417 -1.0273
 2235SOL    MW4 8714   2.859   3.985   1.427  0.3549  0.1712 -0.1079
 2236SOL     OW 8715   4.939   4.526   1.929 -0.0510 -0.1071 -0.4882
 2236SOL    HW2 8716   4.965   4.547   1.839 -2.3715 -0.3548 -1.2775
 2236SOL    HW3 8717   4.937   4.611   1.973 -0.7979  0.2692 -1.2259
 2236SOL    MW4 8718   4.942   4.540   1.923 -0.4557 -0.0901 -0.6897
 2237SOL     OW 8719   3.640   2.137   3.316  0.2774  0.7308 -0.2510
 2237SOL    HW2 8720   3.544   2.137   3.321  0.0615 -0.2638 -2.9010
 2237SOL    HW3 8721   3.665   2.221   3.354 -1.6300  1.0471  0.4666
 2237SOL    MW4 8722   3.630   2.148   3.322 -0.0027  0.6413 -0.5060
 2238SOL     OW 8723   2.766   4.092   2.719 -0.1169  0.9604 -0.4652
 2238SOL    HW2 8724   2.784   4.179   2.754 -0.0180  1.6834 -2.2085
 2238SOL    HW3 8725   2.782   4.100   2.625 -0.3831 -0.8731 -0.7091
 2238SOL    MW4 8726   2.771   4.105   2.711 -0.1390  0.8139 -0.7274
 2239SOL     OW 8727   0.803   4.640   4.454  0.5567  0.2460  0.0100
 2239SOL    HW2 8728   0.870   4.575   4.432  0.6371 -0.1048  1.2204
 2239SOL    HW3 8729   0.734   4.590   4.499  0.7547  1.0179  1.2230
 2239SOL    MW4 8730   0.803   4.625   4.457  0.5934  0.3016  0.3297
 2240SOL     OW 8731   3.804   2.732   2.938  0.2051 -0.0994  0.3777
 2240SOL    HW2 8732   3.840   2.676   3.007 -0.5450 -0.8953  0.1549
 2240SOL    HW3 8733   3.709   2.716   2.942  0.3055 -2.5604 -2.7743
 2240SOL    MW4 8734   3.796   2.722   2.947  0.1193 -0.5291 -0.0675
 2241SOL     OW 8735   4.786   4.027   3.879  0.1130  0.2595  0.2377
 2241SOL    HW2 8736   4.818   3.956   3.823 -1.2681  0.4380 -0.8454
 2241SOL    HW3 8737   4.756   3.984   3.959  0.0498 -0.2752 -0.0691
 2241SOL    MW4 8738   4.786   4.012   3.882 -0.0776  0.2125  0.0543
 2242SOL     OW 8739   5.050   0.562   0.356 -0.1545  0.3499  0.1644
 2242SOL    HW2 8740   5.140   0.532   0.343  0.3983  2.2142 -0.6188
 2242SOL    HW3 8741   5.047   0.592   0.447 -0.5486 -1.4043  0.7706
 2242SOL    MW4 8742   5.061   0.562   0.366 -0.1336  0.3644  0.1411
 2243SOL     OW 8743   4.415   2.857   2.838  0.4080  0.0297 -0.3861
 2243SOL    HW2 8744   4.333   2.868   2.887  0.4616 -0.0939 -0.2672
 2243SOL    HW3 8745   4.483   2.864   2.905  0.5014  0.2689 -0.5055
 2243SOL    MW4 8746   4.413   2.859   2.853  0.4274  0.0449 -0.3862
 2244SOL     OW 8747   2.912   5.078   2.379  0.3138 -0.2032 -0.2847
 2244SOL    HW2 8748   2.845   5.084   2.448  0.7375  0.4976  0.0781
 2244SOL    HW3 8749   2.877   5.131   2.307 -0.5632 -1.6941 -0.9972
 2244SOL    MW4 8750   2.898   5.086   2.379  0.2540 -0.3075 -0.3308
 2245SOL     OW 8751   1.682   4.483   4.558 -0.2666  0.1817 -0.3210
 2245SOL    HW2 8752   1.636   4.399   4.555  1.4797 -0.8585  0.4649
 2245SOL    HW3 8753   1.748   4.476   4.489  0.9439  0.2358  0.8090
 2245SOL    MW4 8754   1.684   4.471   4.548  0.1235  0.0516 -0.0682
 2246SOL     OW 8755   2.485   2.294   5.997 -0.2224 -0.0103 -0.0269
 2246SOL    HW2 8756   2.405   2.275   6.045 -0.5699  1.7247  0.1353
 2246SOL    HW3 8757   2.491   2.224   5.932 -1.8566 -0.1780 -0.0379
 2246SOL    MW4 8758   2.475   2.283   5.995 -0.4838  0.1965 -0.0069
 2247SOL     OW 8759   5.836   2.395   2.972 -0.0964 -0.0268  0.1609
 2247SOL    HW2 8760   5.873   2.453   2.905  1.3964 -0.5322  0.5253
 2247SOL    HW3 8761   5.774   2.451   3.019  1.0446  1.1912  0.2789
 2247SOL    MW4 8762   5.833   2.410   2.969  0.2511  0.0672  0.2245
 2248SOL     OW 8763   0.151   2.521   3.601  0.0784  0.4589  0.3807
 2248SOL    HW2 8764   0.233   2.557   3.568 -0.2456  0.2743 -0.6376
 2248SOL    HW3 8765   0.118   2.465   3.531 -1.7420  1.8023  0.0855
 2248SOL    MW4 8766   0.158   2.518   3.588 -0.2046  0.6118  0.2074
 2249SOL     OW 8767   0.900   2.899   4.272 -0.3889  0.1163  0.2974
 2249SOL    HW2 8768   0.920   2.862   4.186 -0.5966 -5.0481  2.1021
 2249SOL    HW3 8769   0.984   2.934   4.303  0.1059  0.4231 -1.2947
 2249SOL    MW4 8770   0.914   2.899   4.265 -0.3510 -0.5246  0.3254
 2250SOL     OW 8771   2.689   3.387   5.282 -0.3023  0.2224  0.3955
 2250SOL    HW2 8772   2.608   3.436   5.279 -2.0103 -2.2330  2.3131
 2250SOL    HW3 8773   2.691   3.338   5.200 -1.6843 -0.9891  1.0581
 2250SOL    MW4 8774   2.679   3.387   5.271 -0.7100 -0.2614  0.7359
 2251SOL     OW 8775   3.533   2.660   5.238  1.0668  0.0324 -0.4026
 2251SOL    HW2 8776   3.560   2.705   5.318  1.2755 -1.8287  0.6213
 2251SOL    HW3 8777   3.612   2.657   5.183  1.4822 -0.5305  0.2220
 2251SOL    MW4 8778   3.547   2.666   5.241  1.1491 -0.2874 -0.1851
 2252SOL     OW 8779   3.092   4.373   1.760 -0.4059 -0.1928 -0.0380
 2252SOL    HW2 8780   3.128   4.381   1.672 -1.4107 -1.3733 -0.5982
 2252SOL    HW3 8781   3.003   4.339   1.746 -0.6491 -0.2165  1.4203
 2252SOL    MW4 8782   3.085   4.370   1.747 -0.5706 -0.3517  0.0805
 2253SOL     OW 8783   4.614   5.576   0.650  0.0504 -0.2165  0.0391
 2253SOL    HW2 8784   4.562   5.534   0.582  0.6716 -1.0051  0.0394
 2253SOL    HW3 8785   4.646   5.657   0.609 -1.6713  0.6208  0.2522
 2253SOL    MW4 8786   4.612   5.581   0.636 -0.0948 -0.2101  0.0672
 2254SOL     OW 8787   3.445   4.410   6.355 -0.0823 -0.0004 -0.1467
 2254SOL    HW2 8788   3.461   4.474   6.424 -0.0337  0.7659 -0.8569
 2254SOL    HW3 8789   3.532   4.385   6.324 -0.1306  1.4846 -1.5711
 2254SOL    MW4 8790   3.458   4.415   6.360 -0.0823  0.2966 -0.4283
 2255SOL     OW 8791   4.988   1.099   4.216 -0.1423  0.2340  0.2050
 2255SOL    HW2 8792   4.952   1.035   4.155 -0.0817 -1.1539  1.5759
 2255SOL    HW3 8793   5.082   1.099   4.196 -0.3336  1.0193 -0.7848
 2255SOL    MW4 8794   4.996   1.090   4.205 -0.1596  0.1545  0.2553
 2256SOL     OW 8795   0.008   4.662   3.018  0.2215  0.3601  0.3997
 2256SOL    HW2 8796   0.046   4.577   3.042 -0.3807 -0.3574 -1.0646
 2256SOL    HW3 8797  -0.084   4.654   3.045 -0.0013  0.2663 -0.3602
 2256SOL    MW4 8798   0.001   4.649   3.025  0.1126  0.2531  0.1062
 2257SOL     OW 8799   5.100   5.526   0.753  0.6386 -0.3158 -0.3641
 2257SOL    HW2 8800   5.022   5.477   0.727  0.3643 -0.5832  0.8876
 2257SOL    HW3 8801   5.118   5.584   0.678 -0.7267 -0.2828 -0.7014
 2257SOL    MW4 8802   5.092   5.527   0.739  0.4223 -0.3468 -0.2435
 2258SOL     OW 8803   1.628   1.436   5.665  0.2863  0.7574 -0.3596
 2258SOL    HW2 8804   1.604   1.371   5.599 -0.0243  3.3018 -2.9668
 2258SOL    HW3 8805   1.549   1.448   5.717 -0.4958  0.9371 -1.5595
 2258SOL    MW4 8806   1.615   1.429   5.663  0.1421  1.1168 -0.8619
 2259SOL     OW 8807   2.229   0.630   4.105 -0.4215 -0.1910 -0.1388
 2259SOL    HW2 8808   2.279   0.680   4.170  1.9202 -0.4145 -1.6599
 2259SOL    HW3 8809   2.144   0.616   4.147  1.1765 -0.9987  3.2205
 2259SOL    MW4 8810   2.225   0.635   4.119  0.0983 -0.3270  0.1037
 2260SOL     OW 8811   5.832   2.313   2.574 -0.8637  0.2477  0.1127
 2260SOL    HW2 8812   5.783   2.282   2.498  0.0272 -0.6983 -0.0988
 2260SOL    HW3 8813   5.805   2.256   2.646  0.0475 -0.4114 -0.0501
 2260SOL    MW4 8814   5.822   2.301   2.574 -0.6259  0.0359  0.0633
 2261SOL     OW 8815   2.814   4.672   0.014 -0.6091  0.4340  0.1772
 2261SOL    HW2 8816   2.763   4.673   0.095 -0.2182 -0.1997  0.4401
 2261SOL    HW3 8817   2.897   4.713   0.037  0.5222 -1.9998  0.8273
 2261SOL    MW4 8818   2.818   4.677   0.028 -0.4083  0.0293  0.2977
 2262SOL     OW 8819   4.812   4.645   3.763  0.0232 -1.0130  0.4241
 2262SOL    HW2 8820   4.732   4.653   3.709  1.2054 -0.6613 -1.3668
 2262SOL    HW3 8821   4.782   4.663   3.852 -1.7017  0.2928 -0.3466
 2262SOL    MW4 8822   4.797   4.648   3.767 -0.0484 -0.7943  0.0861
 2263SOL     OW 8823   0.818   3.250   5.065  0.4131 -0.2960  0.4773
 2263SOL    HW2 8824   0.733   3.250   5.020  1.4205  2.7374 -1.7859
 2263SOL    HW3 8825   0.842   3.158   5.071 -2.0816 -1.1246 -0.6888
 2263SOL    MW4 8826   0.810   3.238   5.060  0.2169 -0.0051  0.0248
 2264SOL     OW 8827   2.828   1.290   0.969 -0.1618 -0.7673  0.3448
 2264SOL    HW2 8828   2.771   1.214   0.978 -1.3436 -0.0546 -0.7182
 2264SOL    HW3 8829   2.788   1.357   1.023 -1.0077  0.0739 -1.2477
 2264SOL    MW4 8830   2.816   1.289   0.977 -0.4293 -0.5623 -0.0056
 2265SOL     OW 8831   0.992   0.972   3.541 -0.0214  0.5689 -0.4510
 2265SOL    HW2 8832   1.074   0.928   3.561  1.4110  2.9426 -0.6268
 2265SOL    HW3 8833   0.928   0.931   3.599  1.4293 -0.8523  0.2386
 2265SOL    MW4 8834   0.994   0.961   3.552  0.3590  0.6946 -0.3832
 2266SOL     OW 8835   5.144   1.582   1.981  0.4982  0.4054  0.2302
 2266SOL    HW2 8836   5.104   1.538   1.906 -0.0755 -0.2481  0.8929
 2266SOL    HW3 8837   5.203   1.517   2.018  0.1566  0.4221  0.8195
 2266SOL    MW4 8838   5.146   1.568   1.976  0.3774  0.3214  0.3954
 2267SOL     OW 8839   5.321   1.845   4.661 -0.2113  0.2780 -0.6710
 2267SOL    HW2 8840   5.285   1.803   4.583  1.3295  0.0883 -1.3163
 2267SOL    HW3 8841   5.409   1.808   4.670  0.7346  2.4265 -0.5440
 2267SOL    MW4 8842   5.327   1.835   4.652  0.1168  0.5364 -0.7394
 2268SOL     OW 8843   3.232   0.683   4.307 -0.2872 -0.2151  0.2104
 2268SOL    HW2 8844   3.154   0.631   4.327 -0.1768 -1.1191 -1.5018
 2268SOL    HW3 8845   3.205   0.774   4.318 -1.7036 -0.5013 -0.6987
 2268SOL    MW4 8846   3.218   0.688   4.311 -0.4595 -0.3721 -0.1355
 2269SOL     OW 8847   1.827   2.527   3.142 -0.0420  0.0270  0.1777
 2269SOL    HW2 8848   1.745   2.572   3.162  1.0960  1.2355  2.4975
 2269SOL    HW3 8849   1.847   2.476   3.221  1.8041  0.3365 -0.0335
 2269SOL    MW4 8850   1.819   2.526   3.155  0.3517  0.2273  0.4559
 2270SOL     OW 8851   5.903   6.001   4.495  0.6118 -0.2967  0.1911
 2270SOL    HW2 8852   5.995   6.000   4.519  0.5883 -1.2668  0.2900
 2270SOL    HW3 8853   5.878   5.908   4.492 -0.5013 -0.0347  0.7129
 2270SOL    MW4 8854   5.912   5.989   4.498  0.4618 -0.3901  0.2730
 2271SOL     OW 8855   0.806   5.152   3.847  0.0078 -0.4774 -0.4848
 2271SOL    HW2 8856   0.789   5.058   3.855 -0.9370 -0.3445 -0.8072
 2271SOL    HW3 8857   0.738   5.194   3.900 -0.4280  0.0587 -1.4358
 2271SOL    MW4 8858   0.795   5.145   3.855 -0.1744 -0.3892 -0.6528
 2272SOL     OW 8859   6.342   0.505   6.001 -0.3765  0.5524  0.2772
 2272SOL    HW2 8860   6.398   0.557   6.059  1.2140 -1.9137  1.0648
 2272SOL    HW3 8861   6.297   0.444   6.059 -0.6735 -0.2955 -0.8215
 2272SOL    MW4 8862   6.344   0.504   6.016 -0.2059  0.1151  0.2361
 2273SOL     OW 8863   5.429   1.194   1.469 -0.2132  0.5607 -0.1358
 2273SOL    HW2 8864   5.420   1.166   1.560 -0.2883 -0.6958 -0.5112
 2273SOL    HW3 8865   5.341   1.224   1.444 -0.4979 -0.2892 -0.1674
 2273SOL    MW4 8866   5.416   1.195   1.477 -0.2607  0.2828 -0.1895
 2274SOL     OW 8867   5.981   5.956   1.371  0.0330 -0.0320 -0.0982
 2274SOL    HW2 8868   5.981   6.048   1.397 -0.3123  0.2288 -0.9710
 2274SOL    HW3 8869   6.046   5.950   1.302  0.5842 -0.6072  0.4602
 2274SOL    MW4 8870   5.989   5.967   1.365  0.0602 -0.0735 -0.1397
 2275SOL     OW 8871   2.273   0.981   5.316  0.3166  0.2614 -0.1306
 2275SOL    HW2 8872   2.189   0.999   5.272  0.0653 -0.1554  0.1778
 2275SOL    HW3 8873   2.295   0.892   5.290 -0.4249 -0.4443  1.5121
 2275SOL    MW4 8874   2.265   0.972   5.307  0.1856  0.1133  0.1268
 2276SOL     OW 8875   1.639   3.813   0.477 -0.0909 -0.0037  0.0979
 2276SOL    HW2 8876   1.702   3.853   0.417  0.3251 -1.5667 -0.5490
 2276SOL    HW3 8877   1.597   3.888   0.520 -1.3195  1.2799 -3.0330
 2276SOL    MW4 8878   1.642   3.828   0.475 -0.1981 -0.0405 -0.4005
 2277SOL     OW 8879   5.098   2.396   5.251  0.1796 -0.1421 -0.4689
 2277SOL    HW2 8880   5.167   2.389   5.184 -0.0885  0.9543 -0.8931
 2277SOL    HW3 8881   5.146   2.410   5.333  0.4745  0.7260 -0.7792
 2277SOL    MW4 8882   5.114   2.397   5.253  0.1831  0.1171 -0.5658
 2278SOL     OW 8883   6.189   6.177   5.337 -0.4341 -0.3939  0.1483
 2278SOL    HW2 8884   6.235   6.097   5.361 -0.5688 -0.8520 -1.0570
 2278SOL    HW3 8885   6.189   6.230   5.417  0.9793 -0.9518  0.5427
 2278SOL    MW4 8886   6.195   6.174   5.351 -0.2654 -0.5279  0.0413
 2279SOL     OW 8887   1.933   3.426   1.584 -0.1384 -0.1456 -0.2519
 2279SOL    HW2 8888   1.975   3.467   1.659 -0.1764 -0.0602 -0.2770
 2279SOL    HW3 8889   1.882   3.496   1.544 -0.4411 -0.2913 -0.1218
 2279SOL    MW4 8890   1.932   3.441   1.588 -0.1834 -0.1535 -0.2380
 2280SOL     OW 8891   1.507   4.297   1.640 -0.4787 -0.2744  0.4242
 2280SOL    HW2 8892   1.553   4.248   1.571 -1.5637  0.2614 -0.7365
 2280SOL    HW3 8893   1.575   4.320   1.702  0.7204 -0.0447 -0.9109
 2280SOL    MW4 8894   1.522   4.293   1.639 -0.4636 -0.1734  0.0949
 2281SOL     OW 8895   1.839   0.660   6.338  0.5301  0.2192 -0.6389
 2281SOL    HW2 8896   1.823   0.567   6.354 -0.7459  0.1702 -1.9657
 2281SOL    HW3 8897   1.910   0.683   6.397  0.9209 -1.6222 -0.3375
 2281SOL    MW4 8898   1.846   0.651   6.348  0.4133 -0.0302 -0.7742
 2282SOL     OW 8899   3.547   4.731   3.109 -0.1560 -0.5568  0.1428
 2282SOL    HW2 8900   3.491   4.675   3.162 -2.1630  0.3835 -0.8922
 2282SOL    HW3 8901   3.621   4.675   3.085 -1.4288 -2.3368  0.2264
 2282SOL    MW4 8902   3.550   4.716   3.113 -0.5888 -0.6676  0.0173
 2283SOL     OW 8903   2.826   3.270   4.077 -0.2029  0.4284  0.1314
 2283SOL    HW2 8904   2.876   3.208   4.129  0.5060  0.6013 -0.3310
 2283SOL    HW3 8905   2.847   3.356   4.113 -0.1043  0.5077 -0.1090
 2283SOL    MW4 8906   2.835   3.273   4.088 -0.0964  0.4617  0.0387
 2284SOL     OW 8907   3.042   4.705   5.254 -0.3444  0.5297  0.0231
 2284SOL    HW2 8908   3.048   4.739   5.165 -1.7400  2.6900  0.6663
 2284SOL    HW3 8909   3.120   4.652   5.265 -1.7521 -2.7340 -3.6010
 2284SOL    MW4 8910   3.053   4.703   5.244 -0.7143  0.3841 -0.3702
 2285SOL     OW 8911   3.598   1.582   6.185 -0.4580  0.5701 -0.3367
 2285SOL    HW2 8912   3.620   1.489   6.192 -1.4257  0.2558 -1.2691
 2285SOL    HW3 8913   3.658   1.625   6.246 -0.3044 -0.7060  0.4587
 2285SOL    MW4 8914   3.609   1.576   6.194 -0.5654  0.3603 -0.3548
 2286SOL     OW 8915   1.893   2.430   6.406 -0.2812  0.9223 -0.1558
 2286SOL    HW2 8916   1.821   2.472   6.359 -1.8973 -2.1512 -0.7132
 2286SOL    HW3 8917   1.854   2.402   6.488  0.5648  0.0860 -0.0250
 2286SOL    MW4 8918   1.878   2.432   6.411 -0.3828  0.4064 -0.2121
 2287SOL     OW 8919   3.996   0.358   1.646  0.1682  0.2648  0.5308
 2287SOL    HW2 8920   3.901   0.364   1.644  0.1690  0.2411 -1.7387
 2287SOL    HW3 8921   4.020   0.320   1.562  2.1311 -0.9483  1.5568
 2287SOL    MW4 8922   3.987   0.354   1.635  0.4273  0.1016  0.3667
 2288SOL     OW 8923   3.703   3.501   2.418  0.1201 -0.1157  0.3519
 2288SOL    HW2 8924   3.629   3.519   2.476  0.5116  1.5928  0.3734
 2288SOL    HW3 8925   3.679   3.542   2.335  0.2871 -1.1144 -0.2131
 2288SOL    MW4 8926   3.690   3.509   2.415  0.1938 -0.0220  0.2802
 2289SOL     OW 8927   1.166   2.950   4.361  0.0044 -0.2780  0.2219
 2289SOL    HW2 8928   1.198   3.009   4.292  0.3980 -0.4057  0.2911
 2289SOL    HW3 8929   1.229   2.960   4.432 -0.2828 -0.3061  0.4820
 2289SOL    MW4 8930   1.179   2.959   4.361  0.0185 -0.2986  0.2653
 2290SOL     OW 8931   0.076   4.695   5.780 -0.2064 -0.7557  0.0144
 2290SOL    HW2 8932   0.046   4.785   5.782  1.7944 -0.0422  1.0283
 2290SOL    HW3 8933   0.162   4.699   5.736 -0.4369 -2.2938 -0.6571
 2290SOL    MW4 8934   0.084   4.707   5.775  0.0271 -0.8645  0.0596
 2291SOL     OW 8935   2.106   3.671   4.535 -0.1738 -0.3675  0.0417
 2291SOL    HW2 8936   2.122   3.680   4.629 -0.3609 -0.6210  0.0988
 2291SOL    HW3 8937   2.015   3.640   4.530 -0.4327  0.4030 -0.2471
 2291SOL    MW4 8938   2.096   3.668   4.547 -0.2327 -0.2993  0.0111
 2292SOL     OW 8939   3.319   0.522   4.040 -0.8548  0.8452  0.0983
 2292SOL    HW2 8940   3.392   0.470   4.072 -0.9421 -0.5506 -1.8031
 2292SOL    HW3 8941   3.306   0.589   4.108  0.0660 -0.8188  2.0283
 2292SOL    MW4 8942   3.327   0.524   4.053 -0.7448  0.4415  0.1021
 2293SOL     OW 8943   5.591   0.030   5.748  0.0666 -0.1768  0.0632
 2293SOL    HW2 8944   5.665   0.079   5.782 -0.6392  0.4209  0.7780
 2293SOL    HW3 8945   5.519   0.051   5.808 -0.6122 -0.9478 -0.4623
 2293SOL    MW4 8946   5.591   0.039   5.761 -0.1161 -0.1996  0.0881
 2294SOL     OW 8947   2.807   5.996   3.404  0.9532  0.0998 -0.1922
 2294SOL    HW2 8948   2.790   6.050   3.327  1.2880  1.1200  0.4379
 2294SOL    HW3 8949   2.721   5.970   3.436  0.8151 -0.4186 -0.9596
 2294SOL    MW4 8950   2.794   5.999   3.398  0.9792  0.1660 -0.2103
 2295SOL     OW 8951   1.665   5.279   3.190 -0.0211 -0.1915  0.3379
 2295SOL    HW2 8952   1.661   5.314   3.101 -0.2998 -1.3188 -0.1057
 2295SOL    HW3 8953   1.576   5.285   3.223  0.0420  0.0377  0.4679
 2295SOL    MW4 8954   1.653   5.285   3.183 -0.0495 -0.3100  0.2965
 2296SOL     OW 8955   6.147   1.105   4.259 -0.5829 -0.0262 -0.2963
 2296SOL    HW2 8956   6.201   1.103   4.180 -0.1598 -1.4315 -0.0076
 2296SOL    HW3 8957   6.057   1.114   4.227 -0.4261 -0.6935 -0.9532
 2296SOL    MW4 8958   6.142   1.106   4.244 -0.5064 -0.2996 -0.3449
 2297SOL     OW 8959   2.690   0.926   1.485 -0.6372 -0.4683  0.2458
 2297SOL    HW2 8960   2.738   0.985   1.426 -1.4876 -0.0909 -0.0879
 2297SOL    HW3 8961   2.755   0.863   1.515 -0.4471 -1.5269 -2.1829
 2297SOL    MW4 8962   2.705   0.926   1.481 -0.7243 -0.5582 -0.1187
 2298SOL     OW 8963   2.274   2.664   6.244  0.7439  0.0631  0.1568
 2298SOL    HW2 8964   2.341   2.654   6.176  2.4038  1.7137  1.4260
 2298SOL    HW3 8965   2.315   2.630   6.323 -1.1922 -1.9238  0.3776
 2298SOL    MW4 8966   2.288   2.658   6.245  0.7075  0.0187  0.3534
 2299SOL     OW 8967   2.920   4.184   2.174 -0.5703  0.6778 -0.1544
 2299SOL    HW2 8968   3.014   4.201   2.166 -0.7393  1.3456 -0.8047
 2299SOL    HW3 8969   2.881   4.270   2.188 -1.1718  0.5087 -0.7626
 2299SOL    MW4 8970   2.927   4.198   2.175 -0.6719  0.7436 -0.3204
 2300SOL     OW 8971   1.634   0.652   5.744 -0.2699 -0.0571 -0.3158
 2300SOL    HW2 8972   1.617   0.737   5.704 -0.1209 -0.0091 -0.2754
 2300SOL    HW3 8973   1.559   0.598   5.717 -0.7791  0.3115  0.3296
 2300SOL    MW4 8974   1.622   0.656   5.735 -0.3174 -0.0021 -0.2253
 2301SOL     OW 8975   5.546   4.991   5.793  0.2796  0.4302  0.1728
 2301SOL    HW2 8976   5.517   4.992   5.884  1.2355  1.6766  0.4806
 2301SOL    HW3 8977   5.499   5.063   5.752  0.2050  0.1668 -0.2059
 2301SOL    MW4 8978   5.536   5.000   5.800  0.3959  0.5599  0.1634
 2302SOL     OW 8979   5.582   3.681   3.991 -0.3334 -0.0417 -0.2208
 2302SOL    HW2 8980   5.619   3.629   4.062 -0.0929 -0.9494 -0.9919
 2302SOL    HW3 8981   5.564   3.618   3.922  0.0092  0.9122 -1.2067
 2302SOL    MW4 8982   5.584   3.666   3.991 -0.2565 -0.0356 -0.4526
 2303SOL     OW 8983   3.421   0.808   5.671  0.0048  0.0611 -0.5239
 2303SOL    HW2 8984   3.499   0.756   5.689  0.3330  1.0504  1.0697
 2303SOL    HW3 8985   3.349   0.745   5.675  0.6412 -0.7828 -1.5951
 2303SOL    MW4 8986   3.422   0.793   5.674  0.1320  0.0803 -0.4550
 2304SOL     OW 8987   5.765   0.236   6.228 -0.1982  0.5655  0.3344
 2304SOL    HW2 8988   5.698   0.258   6.163 -0.4721  1.6153  0.9536
 2304SOL    HW3 8989   5.803   0.154   6.196 -1.3896  0.2472 -0.3267
 2304SOL    MW4 8990   5.761   0.228   6.215 -0.3915  0.6620  0.3289
 2305SOL     OW 8991   5.783   3.179   2.911 -0.0212 -0.1744 -0.3430
 2305SOL    HW2 8992   5.707   3.232   2.886  0.0478  0.7898  1.3215
 2305SOL    HW3 8993   5.832   3.167   2.829 -0.4666  1.6710 -0.9384
 2305SOL    MW4 8994   5.780   3.184   2.897 -0.0709  0.1963 -0.2019
 2306SOL     OW 8995   4.924   4.747   4.543  0.0279  0.0720  0.4062
 2306SOL    HW2 8996   4.927   4.833   4.586 -0.7593 -1.1851  3.1908
 2306SOL    HW3 8997   4.873   4.693   4.602 -0.3480 -2.1031 -1.7676
 2306SOL    MW4 8998   4.918   4.751   4.557 -0.1256 -0.3808  0.4868
 2307SOL     OW 8999   2.587   2.118   1.407 -0.5718  0.0493 -0.5355
 2307SOL    HW2 9000   2.653   2.171   1.364 -1.4715  1.7137  0.0446
 2307SOL    HW3 9001   2.598   2.135   1.501 -0.7215 -1.0045 -0.3044
 2307SOL    MW4 9002   2.597   2.127   1.414 -0.7102  0.1299 -0.4285
 2308SOL     OW 9003   3.057   2.111   5.707  0.0562 -0.4601  0.1403
 2308SOL    HW2 9004   2.964   2.106   5.687 -0.8950  1.5053  3.2320
 2308SOL    HW3 9005   3.079   2.025   5.743 -1.0602 -0.4441  0.9313
 2308SOL    MW4 9006   3.048   2.099   5.709 -0.2166 -0.1987  0.6526
 2309SOL     OW 9007   6.008   0.662   0.309  0.5940  0.1131 -0.2087
 2309SOL    HW2 9008   5.926   0.710   0.324  0.5495 -0.2289  0.7572
 2309SOL    HW3 9009   6.029   0.625   0.395 -0.2386 -2.9746 -1.2379
 2309SOL    MW4 9010   6.000   0.664   0.323  0.4783 -0.3394 -0.2170
 2310SOL     OW 9011   3.121   4.822   5.580 -0.0389  0.4234 -0.2336
 2310SOL    HW2 9012   3.189   4.845   5.516 -2.0148  3.1696 -1.5937
 2310SOL    HW3 9013   3.141   4.875   5.657 -1.3879  2.5239 -1.2323
 2310SOL    MW4 9014   3.133   4.832   5.581 -0.4776  1.0629 -0.5448
 2311SOL     OW 9015   3.484   0.547   5.099 -0.3436 -0.4423 -0.4291
 2311SOL    HW2 9016   3.507   0.456   5.082  0.0718 -0.5563  0.6759
 2311SOL    HW3 9017   3.567   0.594   5.094 -0.0607 -0.5836  1.8037
 2311SOL    MW4 9018   3.498   0.541   5.096 -0.2514 -0.4760  0.0113
 2312SOL     OW 9019   2.005   5.574   4.956  0.4951 -0.0964  0.0390
 2312SOL    HW2 9020   2.053   5.534   5.028  0.5170  0.0668  0.1153
 2312SOL    HW3 9021   1.978   5.500   4.901  1.6214 -0.1349 -0.4981
 2312SOL    MW4 9022   2.007   5.559   4.958  0.6466 -0.0799 -0.0218
 2313SOL     OW 9023   1.882   3.920   2.372 -0.4984  0.1933 -0.3153
 2313SOL    HW2 9024   1.798   3.915   2.326 -0.1649  2.1898 -1.2566
 2313SOL    HW3 9025   1.946   3.886   2.309 -0.3816  0.4140 -0.3197
 2313SOL    MW4 9026   1.879   3.915   2.357 -0.4390  0.4859 -0.4401
 2314SOL     OW 9027   6.235   1.064   2.546 -0.3943 -0.0086  0.4402
 2314SOL    HW2 9028   6.210   1.057   2.638  0.1144  2.3369  0.8437
 2314SOL    HW3 9029   6.287   0.986   2.529  0.0894 -0.1573  2.3456
 2314SOL    MW4 9030   6.238   1.053   2.556 -0.2634  0.2813  0.7448
 2315SOL     OW 9031   3.155   4.382   0.372 -0.2477  0.2569 -0.4019
 2315SOL    HW2 9032   3.144   4.431   0.290  0.7005 -1.8439 -1.8607
 2315SOL    HW3 9033   3.247   4.357   0.373 -0.6217 -1.1796  0.4424
 2315SOL    MW4 9034   3.165   4.385   0.361 -0.1719 -0.2098 -0.4830
 2316SOL     OW 9035   2.776   2.952   3.875 -0.0744  0.4973  0.1243
 2316SOL    HW2 9036   2.820   3.033   3.849  2.2899 -0.8812 -0.5297
 2316SOL    HW3 9037   2.799   2.889   3.806 -1.0016 -0.9942  1.1202
 2316SOL    MW4 9038   2.785   2.954   3.862  0.1152  0.1187  0.1694
 2317SOL     OW 9039   5.931   0.263   3.642  0.0871  0.3853 -0.4321
 2317SOL    HW2 9040   6.023   0.250   3.666 -0.2952 -0.4633  0.6577
 2317SOL    HW3 9041   5.906   0.182   3.597 -0.4837  0.0398  0.4750
 2317SOL    MW4 9042   5.940   0.250   3.639 -0.0386  0.2277 -0.1686
 2318SOL     OW 9043   3.168   3.913   3.287 -0.1932 -0.0623  0.0146
 2318SOL    HW2 9044   3.255   3.927   3.325 -0.3176  0.6237  0.0624
 2318SOL    HW3 9045   3.171   3.824   3.252  0.7044  0.1406 -0.4528
 2318SOL    MW4 9046   3.180   3.903   3.287 -0.0912  0.0550 -0.0407
 2319SOL     OW 9047   0.063   2.376   5.137  0.4376 -0.3723  0.7298
 2319SOL    HW2 9048   0.143   2.367   5.085 -0.6970  0.9163 -1.3686
 2319SOL    HW3 9049   0.015   2.295   5.121 -0.8761  0.8264 -2.1568
 2319SOL    MW4 9050   0.067   2.364   5.128  0.1146 -0.0441  0.0721
 2320SOL     OW 9051   1.164   2.776   1.134 -0.3467 -0.2786  0.2662
 2320SOL    HW2 9052   1.112   2.853   1.159 -1.4520  0.1519 -2.9206
 2320SOL    HW3 9053   1.254   2.798   1.161 -0.7724  1.7804  0.1712
 2320SOL    MW4 9054   1.169   2.789   1.141 -0.5487  0.0499 -0.1668
 2321SOL     OW 9055   4.483   1.911   6.119  0.1246 -0.1417 -0.1031
 2321SOL    HW2 9056   4.490   1.904   6.214 -2.8660  0.0895  0.2136
 2321SOL    HW3 9057   4.455   2.001   6.103  1.3369  0.0612 -1.3043
 2321SOL    MW4 9058   4.480   1.922   6.130 -0.1100 -0.0844 -0.2198
 2322SOL     OW 9059   2.581   3.632   4.716  0.4959 -0.4290  0.7728
 2322SOL    HW2 9060   2.644   3.694   4.679  0.1695 -0.7578 -0.3542
 2322SOL    HW3 9061   2.515   3.687   4.759  1.1953 -0.0651  1.4030
 2322SOL    MW4 9062   2.581   3.647   4.717  0.5451 -0.4244  0.7073
 2323SOL     OW 9063   1.710   0.907   3.875  0.1015 -0.0048 -0.2799
 2323SOL    HW2 9064   1.777   0.975   3.874  0.1055  0.0308  0.9571
 2323SOL    HW3 9065   1.632   0.951   3.908  0.3510 -0.7721  1.4727
 2323SOL    MW4 9066   1.709   0.922   3.880  0.1349 -0.1014  0.1145
 2324SOL     OW 9067   2.373   6.126   3.994  0.0472 -0.0272  0.4763
 2324SOL    HW2 9068   2.371   6.107   4.088 -1.7006 -0.7306  0.3283
 2324SOL    HW3 9069   2.282   6.147   3.972  0.5318  0.6742 -0.9616
 2324SOL    MW4 9070   2.361   6.127   4.004 -0.1194 -0.0274  0.2671
 2325SOL     OW 9071   5.618   4.884   0.982  0.6548  0.2010  0.1995
 2325SOL    HW2 9072   5.688   4.947   0.967  0.5575  0.4478  0.7453
 2325SOL    HW3 9073   5.643   4.839   1.062  0.5840 -0.2638 -0.0397
 2325SOL    MW4 9074   5.630   4.887   0.991  0.6327  0.1722  0.2400
 2326SOL     OW 9075   4.882   1.472   5.638  0.0105 -0.3149  0.0881
 2326SOL    HW2 9076   4.803   1.510   5.676  0.5103  1.4527 -0.5401
 2326SOL    HW3 9077   4.909   1.405   5.700 -0.2145  1.2338  1.9328
 2326SOL    MW4 9078   4.875   1.468   5.651  0.0468  0.1226  0.2486
 2327SOL     OW 9079   3.634   1.032   5.673  0.4514  0.2795  0.2769
 2327SOL    HW2 9080   3.581   1.112   5.678  0.5266  0.3212  0.3959
 2327SOL    HW3 9081   3.574   0.963   5.703  0.6338  0.4060  0.9438
 2327SOL    MW4 9082   3.619   1.033   5.677  0.4854  0.3017  0.3806
 2328SOL     OW 9083   1.528   4.208   2.162 -0.0247  0.1216  0.0374
 2328SOL    HW2 9084   1.533   4.208   2.257 -0.5876  1.2120  0.0850
 2328SOL    HW3 9085   1.619   4.212   2.132  0.2723 -2.0724  0.4701
 2328SOL    MW4 9086   1.541   4.209   2.170 -0.0598 -0.0240  0.1008
 2329SOL     OW 9087   3.416   4.297   5.463  0.6017  0.5379 -0.0650
 2329SOL    HW2 9088   3.502   4.313   5.424  1.0638 -3.1963 -0.9496
 2329SOL    HW3 9089   3.354   4.335   5.400  1.5192  1.3160 -0.5273
 2329SOL    MW4 9090   3.419   4.304   5.449  0.7837  0.1479 -0.2427
 2330SOL     OW 9091   4.203   0.589   3.187 -0.3839  0.0059  0.3354
 2330SOL    HW2 9092   4.288   0.630   3.203 -0.6202  0.9736 -0.7356
 2330SOL    HW3 9093   4.224   0.503   3.152  0.1574  0.1094  0.3992
 2330SOL    MW4 9094   4.217   0.583   3.184 -0.3436  0.1473  0.2025
 2331SOL     OW 9095   3.286   2.154   2.480  0.1871  0.4843 -0.0696
 2331SOL    HW2 9096   3.356   2.096   2.450  1.2716  1.2639  0.8624
 2331SOL    HW3 9097   3.205   2.106   2.461  1.0508 -1.5647  1.1133
 2331SOL    MW4 9098   3.284   2.140   2.473  0.4442  0.3168  0.2094
 2332SOL     OW 9099   6.310   2.211   3.263 -0.4858  0.0909  0.4080
 2332SOL    HW2 9100   6.267   2.195   3.179  1.4813  1.2147 -0.8803
 2332SOL    HW3 9101   6.324   2.305   3.265  2.3313 -0.2532  0.4950
 2332SOL    MW4 9102   6.306   2.221   3.252  0.1454  0.1938  0.2495
 2333SOL     OW 9103   2.782   2.229   5.999  0.3968 -0.4038 -0.3877
 2333SOL    HW2 9104   2.833   2.178   5.936  1.5739  1.7050 -1.2617
 2333SOL    HW3 9105   2.701   2.250   5.953  0.8109  0.2631 -0.8204
 2333SOL    MW4 9106   2.778   2.225   5.985  0.6068 -0.0376 -0.5601
 2334SOL     OW 9107   3.302   3.945   5.716  0.4328 -0.6981  0.1531
 2334SOL    HW2 9108   3.227   3.901   5.674 -0.2079  0.6220 -0.1567
 2334SOL    HW3 9109   3.262   4.014   5.768  1.4334 -0.1385  0.1879
 2334SOL    MW4 9110   3.287   3.948   5.717  0.4803 -0.4501  0.1169
 2335SOL     OW 9111   6.256   0.748   1.778 -0.3058  0.1683 -0.7555
 2335SOL    HW2 9112   6.245   0.667   1.827 -0.9307  1.0540  0.6307
 2335SOL    HW3 9113   6.329   0.793   1.821 -0.5305  0.7290 -0.9460
 2335SOL    MW4 9114   6.264   0.744   1.790 -0.4179  0.3592 -0.5978
 2336SOL     OW 9115   5.909   3.451   6.029 -0.1777 -0.1035  0.1012
 2336SOL    HW2 9116   5.889   3.365   6.064  0.8922  0.2647  1.7506
 2336SOL    HW3 9117   5.933   3.503   6.106  0.9957  1.1416 -1.0457
 2336SOL    MW4 9118   5.909   3.447   6.044  0.1183  0.1094  0.1675
 2337SOL     OW 9119   2.434   2.791   1.402  0.3151  0.4419 -0.4517
 2337SOL    HW2 9120   2.358   2.838   1.437  0.2631  0.5146 -0.6629
 2337SOL    HW3 9121   2.468   2.743   1.477  0.4758  0.9582 -0.1884
 2337SOL    MW4 9122   2.428   2.791   1.417  0.3294  0.5196 -0.4449
 2338SOL     OW 9123   3.090   4.272   4.126 -0.0769  0.1036 -0.0012
 2338SOL    HW2 9124   3.034   4.295   4.051 -0.5097 -1.3929 -0.1695
 2338SOL    HW3 9125   3.095   4.177   4.124  1.6901  0.1376  0.6088
 2338SOL    MW4 9126   3.083   4.263   4.115  0.0992 -0.0893  0.0571
 2339SOL     OW 9127   5.565   0.185   2.541  0.5053  0.1478  0.3806
 2339SOL    HW2 9128   5.568   0.259   2.480  1.6386 -0.4217 -0.2685
 2339SOL    HW3 9129   5.484   0.199   2.591 -0.8987  0.1745 -1.7972
 2339SOL    MW4 9130   5.555   0.197   2.540  0.4696  0.0762  0.0076
 2340SOL     OW 9131   2.009   2.782   0.658  0.4112  0.1737  0.3219
 2340SOL    HW2 9132   1.987   2.863   0.704 -1.1842  0.5753 -1.0527
 2340SOL    HW3 9133   1.958   2.714   0.702  0.6398  0.1615  0.5688
 2340SOL    MW4 9134   2.000   2.784   0.670  0.2309  0.2251  0.1731
 2341SOL     OW 9135   5.738   4.438   1.760 -0.6161 -0.5289  0.1740
 2341SOL    HW2 9136   5.663   4.408   1.709 -0.0627  0.9302 -1.5809
 2341SOL    HW3 9137   5.811   4.384   1.729 -0.3439  0.1289 -0.3335
 2341SOL    MW4 9138   5.738   4.427   1.749 -0.5072 -0.2496 -0.1245
 2342SOL     OW 9139   3.655   5.754   0.764 -0.0669  0.1516 -0.2173
 2342SOL    HW2 9140   3.738   5.802   0.762 -0.1413  0.2711 -0.6589
 2342SOL    HW3 9141   3.591   5.819   0.795 -0.2905  0.5553 -1.4452
 2342SOL    MW4 9142   3.657   5.769   0.767 -0.1062  0.2206 -0.4376
 2343SOL     OW 9143   3.059   0.706   3.252  0.0881  0.2496  0.2165
 2343SOL    HW2 9144   2.988   0.711   3.189 -0.3253 -0.3063  0.6194
 2343SOL    HW3 9145   3.111   0.630   3.224  1.2198  1.3382 -0.7584
 2343SOL    MW4 9146   3.057   0.696   3.240  0.1829  0.3199  0.1410
 2344SOL     OW 9147   1.506   2.980   3.549 -0.5173 -0.1627  0.2423
 2344SOL    HW2 9148   1.566   2.963   3.621  0.6070  1.2637 -0.3108
 2344SOL    HW3 9149   1.469   2.894   3.528 -0.4038 -0.6960  2.0809
 2344SOL    MW4 9150   1.509   2.966   3.556 -0.3540 -0.0448  0.4119
 2345SOL     OW 9151   4.170   5.154   1.481  0.4281  0.1632 -0.4202
 2345SOL    HW2 9152   4.162   5.239   1.438  0.9312  1.5909  2.1196
 2345SOL    HW3 9153   4.099   5.101   1.444  0.5543  1.3901 -2.5946
 2345SOL    MW4 9154   4.160   5.158   1.471  0.5111  0.5135 -0.3720
 2346SOL     OW 9155   4.987   2.534   6.382 -0.0013 -0.2154 -1.0331
 2346SOL    HW2 9156   4.922   2.545   6.313  1.1149 -0.2578 -2.1275
 2346SOL    HW3 9157   5.020   2.445   6.371 -1.0532 -0.8666  0.7068
 2346SOL    MW4 9158   4.983   2.524   6.372  0.0072 -0.3070 -0.9480
 2347SOL     OW 9159   4.533   5.853   2.654  0.0897 -0.2045  0.5495
 2347SOL    HW2 9160   4.491   5.767   2.650 -0.4223  0.0717 -0.5063
 2347SOL    HW3 9161   4.627   5.833   2.660  0.1408 -0.8822 -1.6151
 2347SOL    MW4 9162   4.540   5.839   2.654  0.0289 -0.2575  0.1246
 2348SOL     OW 9163   1.162   1.163   2.684  0.2459 -0.2232 -0.1669
 2348SOL    HW2 9164   1.234   1.218   2.652  2.2365 -1.2790  2.0755
 2348SOL    HW3 9165   1.163   1.176   2.779 -1.1619 -1.8715  0.1260
 2348SOL    MW4 9166   1.172   1.172   2.692  0.3228 -0.5800  0.1676
 2349SOL     OW 9167   5.656   5.274   2.854 -0.0110 -0.4481  0.7771
 2349SOL    HW2 9168   5.740   5.228   2.848  0.2021  0.1232 -1.2493
 2349SOL    HW3 9169   5.591   5.204   2.864  0.6519 -0.8943  2.3700
 2349SOL    MW4 9170   5.659   5.258   2.855  0.1046 -0.4316  0.7199
 2350SOL     OW 9171   2.351   5.690   0.098 -0.2099 -0.1734 -0.4708
 2350SOL    HW2 9172   2.305   5.724   0.021  0.0656  3.1628  0.6837
 2350SOL    HW3 9173   2.285   5.642   0.147 -0.3923 -2.3658 -2.6846
 2350SOL    MW4 9174   2.336   5.688   0.094 -0.1976 -0.0225 -0.6106
 2351SOL     OW 9175   4.155   0.418   5.207  0.0777  0.1403  0.0278
 2351SOL    HW2 9176   4.085   0.357   5.183  1.6468 -1.4436 -0.7424
 2351SOL    HW3 9177   4.119   0.467   5.281 -1.1954 -1.8890  0.8557
 2351SOL    MW4 9178   4.141   0.416   5.214  0.1168 -0.3364  0.0354
 2352SOL     OW 9179   4.119   0.058   3.766 -0.1683 -0.3246  0.1280
 2352SOL    HW2 9180   4.025   0.061   3.751  0.0268 -1.0968 -1.5017
 2352SOL    HW3 9181   4.149   0.147   3.748 -0.6805  0.1773  1.6100
 2352SOL    MW4 9182   4.111   0.070   3.762 -0.2102 -0.3603  0.1085
 2353SOL     OW 9183   1.026   1.076   6.352  0.2226 -0.0124  0.6805
 2353SOL    HW2 9184   0.941   1.084   6.395 -0.5636 -1.2117 -0.5546
 2353SOL    HW3 9185   1.004   1.063   6.259  1.8169  1.4730  0.0429
 2353SOL    MW4 9186   1.012   1.075   6.345  0.3292  0.0253  0.4334
 2354SOL     OW 9187   1.762   6.397   6.244 -0.3163 -0.8831 -0.3902
 2354SOL    HW2 9188   1.753   6.341   6.320  0.4280 -2.0276 -1.1188
 2354SOL    HW3 9189   1.690   6.461   6.252  0.3039 -0.3889  1.7226
 2354SOL    MW4 9190   1.751   6.398   6.255 -0.1363 -0.9689 -0.2075
 2355SOL     OW 9191   1.804   1.382   6.409  0.5827  0.3045  0.0107
 2355SOL    HW2 9192   1.801   1.377   6.505  0.6600 -0.1143 -0.0068
 2355SOL    HW3 9193   1.745   1.313   6.379  0.0504  0.8612 -0.2438
 2355SOL    MW4 9194   1.796   1.372   6.418  0.5227  0.3227 -0.0252
 2356SOL     OW 9195   2.890   1.541   1.494  0.0794  0.2424 -0.1389
 2356SOL    HW2 9196   2.892   1.536   1.590 -1.9324 -0.5435 -0.0980
 2356SOL    HW3 9197   2.978   1.514   1.467 -0.1484 -2.3451  1.3981
 2356SOL    MW4 9198   2.902   1.537   1.503 -0.2161 -0.2027  0.0693
 2357SOL     OW 9199   1.974   6.361   3.684  0.3428  0.0669  0.1970
 2357SOL    HW2 9200   1.942   6.436   3.734 -0.9398 -0.4772  0.2428
 2357SOL    HW3 9201   1.912   6.291   3.704  0.8438 -0.6687 -0.7505
 2357SOL    MW4 9202   1.962   6.362   3.693  0.2397 -0.1019  0.0780
 2358SOL     OW 9203   4.290   2.710   4.229 -0.0473 -0.1357  0.0802
 2358SOL    HW2 9204   4.227   2.777   4.201 -0.9674 -0.6639  0.8342
 2358SOL    HW3 9205   4.371   2.759   4.245 -0.0537  0.4748 -1.5021
 2358SOL    MW4 9206   4.292   2.726   4.227 -0.1696 -0.1249 -0.0291
 2359SOL     OW 9207   2.898   5.383   6.246 -0.6152 -0.3347 -0.1377
 2359SOL    HW2 9208   2.852   5.421   6.320 -1.1492 -0.4690 -0.3961
 2359SOL    HW3 9209   2.829   5.354   6.186 -0.2172 -1.1072 -0.2469
 2359SOL    MW4 9210   2.883   5.384   6.248 -0.6331 -0.4543 -0.1862
 2360SOL     OW 9211   5.255   2.164   1.834  0.4274 -0.1189  0.6075
 2360SOL    HW2 9212   5.324   2.205   1.781  0.0311  0.2800  0.3946
 2360SOL    HW3 9213   5.181   2.157   1.775  0.0214  0.2159  1.0703
 2360SOL    MW4 9214   5.255   2.169   1.819  0.3215 -0.0221  0.6405
 2361SOL     OW 9215   1.108   4.853   2.597 -0.3759  0.0953  0.6905
 2361SOL    HW2 9216   1.101   4.932   2.651 -4.1930  1.0340 -0.7938
 2361SOL    HW3 9217   1.133   4.784   2.658  0.1315  1.9278  2.6638
 2361SOL    MW4 9218   1.110   4.854   2.612 -0.8125  0.4609  0.7550
 2362SOL     OW 9219   5.882   6.417   6.093 -0.1251  0.0598 -0.0974
 2362SOL    HW2 9220   5.838   6.332   6.085  1.3924 -0.6584 -1.5328
 2362SOL    HW3 9221   5.961   6.399   6.144 -0.0189  0.6972 -0.0283
 2362SOL    MW4 9222   5.886   6.403   6.098  0.0891  0.0491 -0.2777
 2363SOL     OW 9223   0.260   4.018   0.796 -0.2489 -0.6174  0.2847
 2363SOL    HW2 9224   0.184   4.064   0.832 -1.2957 -1.3703 -0.9202
 2363SOL    HW3 9225   0.290   4.074   0.724 -0.7249 -1.1624 -0.3440
 2363SOL    MW4 9226   0.254   4.031   0.791 -0.4498 -0.7886  0.0428
 2364SOL     OW 9227   5.662   0.261   3.724  0.4632 -0.4581  0.2527
 2364SOL    HW2 9228   5.654   0.287   3.816  0.3365  0.5596 -0.0309
 2364SOL    HW3 9229   5.756   0.258   3.707  0.4752  0.1287  0.2094
 2364SOL    MW4 9230   5.673   0.264   3.734  0.4480 -0.2464  0.2096
 2365SOL     OW 9231   1.148   5.684   0.322  0.2688 -0.8397 -0.6453
 2365SOL    HW2 9232   1.168   5.694   0.415 -0.4028 -0.6707 -0.5103
 2365SOL    HW3 9233   1.090   5.757   0.302  2.3980  0.6330 -1.8291
 2365SOL    MW4 9234   1.143   5.695   0.331  0.4611 -0.6231 -0.7837
 2366SOL     OW 9235   0.812   3.296   0.129  0.1208 -0.0150  0.0943
 2366SOL    HW2 9236   0.897   3.277   0.088  0.4847 -0.3490  0.9780
 2366SOL    HW3 9237   0.774   3.364   0.073  0.3427 -0.8435 -1.1131
 2366SOL    MW4 9238   0.818   3.303   0.116  0.1981 -0.1684  0.0516
 2367SOL     OW 9239   0.145   5.285   3.552  0.0726  0.0276 -0.5480
 2367SOL    HW2 9240   0.050   5.287   3.557  0.0853  0.0827 -0.3100
 2367SOL    HW3 9241   0.166   5.200   3.514 -0.0651 -0.0601 -0.4293
 2367SOL    MW4 9242   0.136   5.274   3.548  0.0561  0.0233 -0.5009
 2368SOL     OW 9243   3.966   0.228   1.970  0.1684 -0.3143 -0.3069
 2368SOL    HW2 9244   3.958   0.322   1.983 -1.2103 -0.6338  1.5495
 2368SOL    HW3 9245   3.892   0.206   1.913 -0.6556 -0.5184  0.8185
 2368SOL    MW4 9246   3.955   0.237   1.964 -0.1222 -0.3834  0.0865
 2369SOL     OW 9247   5.090   3.220   5.142  0.0385  0.7535 -0.4999
 2369SOL    HW2 9248   5.150   3.177   5.203 -0.0844  1.4902  0.1491
 2369SOL    HW3 9249   5.038   3.280   5.196 -0.0118  1.4930 -1.3327
 2369SOL    MW4 9250   5.091   3.222   5.157  0.0156  0.9483 -0.5241
 2370SOL     OW 9251   2.956   1.702   4.180  0.3463  0.2392 -0.2352
 2370SOL    HW2 9252   3.014   1.629   4.160  2.2557  1.5436  0.2451
 2370SOL    HW3 9253   2.946   1.700   4.275  1.4147  1.2758 -0.0771
 2370SOL    MW4 9254   2.962   1.692   4.190  0.7392  0.5481 -0.1510
 2371SOL     OW 9255   5.346   3.586   3.409 -0.6145  0.2939 -0.2191
 2371SOL    HW2 9256   5.290   3.510   3.428  0.2989 -0.3752 -0.1529
 2371SOL    HW3 9257   5.381   3.612   3.494 -1.4188  1.2142 -0.1421
 2371SOL    MW4 9258   5.343   3.580   3.423 -0.6001  0.3271 -0.2002
 2372SOL     OW 9259   4.137   2.397   5.700 -0.2298 -0.2673 -0.6184
 2372SOL    HW2 9260   4.081   2.323   5.677  0.3567 -0.6183 -0.9507
 2372SOL    HW3 9261   4.214   2.356   5.741 -0.5211  0.2489  0.4540
 2372SOL    MW4 9262   4.140   2.382   5.702 -0.1908 -0.2455 -0.5208
 2373SOL     OW 9263   2.350   3.784   4.837 -0.4681  0.4607  0.6147
 2373SOL    HW2 9264   2.255   3.783   4.825 -0.2955  2.0788 -1.3273
 2373SOL    HW3 9265   2.364   3.844   4.911 -0.9203  0.7961  0.4305
 2373SOL    MW4 9266   2.339   3.792   4.845 -0.5050  0.7184  0.3342
 2374SOL     OW 9267   5.014   2.767   0.797 -0.1865  0.4219 -0.4632
 2374SOL    HW2 9268   4.939   2.805   0.843  0.7418 -0.1460  1.6527
 2374SOL    HW3 9269   5.079   2.837   0.795 -0.6239  0.8207 -2.0357
 2374SOL    MW4 9270   5.013   2.781   0.803 -0.1217  0.3996 -0.3915
 2375SOL     OW 9271   4.153   4.120   5.773 -0.6448 -0.6519 -0.0073
 2375SOL    HW2 9272   4.132   4.137   5.864  1.5467  0.8430  0.3067
 2375SOL    HW3 9273   4.138   4.026   5.761 -1.4352 -0.7762  1.7416
 2375SOL    MW4 9274   4.148   4.110   5.783 -0.4600 -0.4710  0.2649
 2376SOL     OW 9275   5.002   0.206   6.109  0.2225  0.6081 -0.4331
 2376SOL    HW2 9276   4.922   0.154   6.095  0.2755 -0.1261  1.5634
 2376SOL    HW3 9277   4.970   0.293   6.130  0.0646  0.9513 -1.9819
 2376SOL    MW4 9278   4.987   0.210   6.110  0.2086  0.5565 -0.3740
 2377SOL     OW 9279   4.042   4.285   2.798  0.1939 -0.0474  0.2229
 2377SOL    HW2 9280   4.020   4.369   2.756  1.9107  0.6722  0.6331
 2377SOL    HW3 9281   3.961   4.256   2.838 -0.7040  0.8888 -0.8225
 2377SOL    MW4 9282   4.029   4.293   2.798  0.3019  0.1711  0.1390
 2378SOL     OW 9283   4.811   3.257   3.784 -0.2018  0.1936  0.1472
 2378SOL    HW2 9284   4.847   3.212   3.861  0.3504  0.0329 -0.2069
 2378SOL    HW3 9285   4.741   3.312   3.820 -0.5615 -0.5802  0.6441
 2378SOL    MW4 9286   4.806   3.259   3.799 -0.1764  0.0703  0.1661
 2379SOL     OW 9287   1.705   5.355   2.907  0.4006  0.0984 -0.1198
 2379SOL    HW2 9288   1.724   5.419   2.838  0.4772  0.1396 -0.0607
 2379SOL    HW3 9289   1.777   5.292   2.903  0.5503  0.2538  0.1027
 2379SOL    MW4 9290   1.717   5.355   2.898  0.4305  0.1244 -0.0826
 2380SOL     OW 9291   1.987   3.265   4.756 -0.2046  0.0942 -0.7528
 2380SOL    HW2 9292   1.982   3.282   4.662  1.3904  3.8104 -0.2994
 2380SOL    HW3 9293   1.896   3.270   4.786 -0.6945 -0.8674 -2.0120
 2380SOL    MW4 9294   1.974   3.268   4.748 -0.0588  0.4576 -0.8591
 2381SOL     OW 9295   4.919   4.326   5.655 -0.0312 -0.0349 -0.1500
 2381SOL    HW2 9296   4.884   4.336   5.743 -0.1695 -0.6349 -0.1358
 2381SOL    HW3 9297   4.958   4.239   5.653 -0.8422 -0.4015 -0.9486
 2381SOL    MW4 9298   4.919   4.316   5.666 -0.1564 -0.1624 -0.2535
 2382SOL     OW 9299   0.414   4.629   4.394  0.4845  0.1193  0.0559
 2382SOL    HW2 9300   0.416   4.566   4.466 -0.7862 -0.1215 -0.0938
 2382SOL    HW3 9301   0.372   4.707   4.432  0.6215  0.3116 -0.1840
 2382SOL    MW4 9302   0.409   4.631   4.409  0.3349  0.1129  0.0045
 2383SOL     OW 9303   0.829   4.315   3.988 -0.5408  0.1524  0.2263
 2383SOL    HW2 9304   0.834   4.410   3.972  0.1866  0.6774  3.0197
 2383SOL    HW3 9305   0.883   4.301   4.067 -1.5339 -2.4131  0.5417
 2383SOL    MW4 9306   0.837   4.326   3.997 -0.5758 -0.1168  0.6365
 2384SOL     OW 9307   3.660   5.572   6.023 -0.2435  0.1492  0.4612
 2384SOL    HW2 9308   3.689   5.641   6.083  1.2440  0.6433 -0.7331
 2384SOL    HW3 9309   3.570   5.553   6.049 -0.6363  2.3934  0.9908
 2384SOL    MW4 9310   3.652   5.579   6.034 -0.0991  0.5105  0.3735
 2385SOL     OW 9311   3.292   2.425   3.406 -0.1934  0.6038  0.4968
 2385SOL    HW2 9312   3.206   2.407   3.445 -1.0688 -0.4160 -1.7214
 2385SOL    HW3 9313   3.291   2.518   3.387 -0.3723  0.7980  1.3899
 2385SOL    MW4 9314   3.280   2.435   3.409 -0.3325  0.4949  0.3219
 2386SOL     OW 9315   3.662   3.061   2.744  0.2632  0.2176  0.1355
 2386SOL    HW2 9316   3.724   3.019   2.684 -0.7848 -0.0194 -0.8166
 2386SOL    HW3 9317   3.642   3.145   2.703 -2.2154 -0.8801 -1.1247
 2386SOL    MW4 9318   3.667   3.066   2.730 -0.2021  0.0415 -0.1564
 2387SOL     OW 9319   0.889   3.515   3.723  0.8183 -0.1557 -0.2158
 2387SOL    HW2 9320   0.949   3.458   3.676 -2.7059 -4.4009 -0.2267
 2387SOL    HW3 9321   0.802   3.479   3.705 -1.3920  2.4892  3.6049
 2387SOL    MW4 9322   0.885   3.503   3.715  0.0617 -0.3669  0.2869
 2388SOL     OW 9323   5.674   2.314   2.291  0.0003 -0.1601 -0.4982
 2388SOL    HW2 9324   5.737   2.285   2.226 -1.6038 -1.5019 -1.5108
 2388SOL    HW3 9325   5.604   2.357   2.241 -1.2024 -1.0988  0.3166
 2388SOL    MW4 9326   5.673   2.316   2.276 -0.3700 -0.4609 -0.5243
 2389SOL     OW 9327   5.254   0.410   5.839  0.1557  0.0445  0.4887
 2389SOL    HW2 9328   5.225   0.393   5.749 -0.3558  0.3301  0.5949
 2389SOL    HW3 9329   5.216   0.495   5.861  0.9149  0.3346  0.7121
 2389SOL    MW4 9330   5.245   0.419   5.830  0.1883  0.1204  0.5322
 2390SOL     OW 9331   2.043   6.177   4.083  0.4490  0.0160  0.3433
 2390SOL    HW2 9332   1.970   6.132   4.126  0.7533  0.5039  1.3835
 2390SOL    HW3 9333   2.001   6.247   4.033 -0.0144 -1.2793 -1.1719
 2390SOL    MW4 9334   2.028   6.181   4.082  0.4280 -0.0905  0.2806
 2391SOL     OW 9335   5.500   1.833   3.497 -0.6391 -0.1937 -0.1620
 2391SOL    HW2 9336   5.490   1.739   3.481  1.2601 -0.6840  1.2787
 2391SOL    HW3 9337   5.423   1.857   3.549 -0.8658 -1.0558 -0.0867
 2391SOL    MW4 9338   5.489   1.824   3.502 -0.4185 -0.3721  0.0380
 2392SOL     OW 9339   1.404   3.289   2.302  0.2747 -0.1715  0.4550
 2392SOL    HW2 9340   1.433   3.379   2.315  1.5476 -0.6802  1.3964
 2392SOL    HW3 9341   1.480   3.236   2.328 -0.0261 -1.4975 -1.2450
 2392SOL    MW4 9342   1.418   3.294   2.307  0.4030 -0.4135  0.3549
 2393SOL     OW 9343   5.190   2.096   2.925 -0.2465  0.3677 -0.8214
 2393SOL    HW2 9344   5.160   2.082   2.836  1.2678  0.5081 -1.3795
 2393SOL    HW3 9345   5.110   2.114   2.975 -1.3203 -1.5782 -1.7493
 2393SOL    MW4 9346   5.175   2.097   2.920 -0.1884  0.1295 -1.0175
 2394SOL     OW 9347   1.505   0.060   2.199  0.0155 -0.6455 -0.3451
 2394SOL    HW2 9348   1.480  -0.019   2.248  1.4793 -1.3239 -0.6461
 2394SOL    HW3 9349   1.544   0.027   2.119 -0.8593  0.4450 -1.2488
 2394SOL    MW4 9350   1.507   0.045   2.195  0.0932 -0.5912 -0.5041
 2395SOL     OW 9351   2.027   0.845   5.766 -0.4777  0.2058  0.3728
 2395SOL    HW2 9352   2.119   0.838   5.738 -0.1504  2.1836  0.8022
 2395SOL    HW3 9353   1.993   0.755   5.759  1.8943 -0.8937  1.6269
 2395SOL    MW4 9354   2.035   0.832   5.762 -0.1216  0.3217  0.5949
 2396SOL     OW 9355   6.070   4.714   5.240  0.6647  0.0360  0.5406
 2396SOL    HW2 9356   6.163   4.735   5.248  0.1323  3.1322 -0.2019
 2396SOL    HW3 9357   6.029   4.763   5.311 -0.6480  1.0652 -0.8666
 2396SOL    MW4 9358   6.077   4.723   5.250  0.4213  0.5803  0.2570
 2397SOL     OW 9359   6.217   3.492   5.718 -0.7009 -0.3190  0.0311
 2397SOL    HW2 9360   6.221   3.462   5.809 -0.7730 -1.0994 -0.2200
 2397SOL    HW3 9361   6.243   3.584   5.723 -1.0170 -0.2635  0.8829
 2397SOL    MW4 9362   6.221   3.500   5.731 -0.7521 -0.4147  0.1104
 2398SOL     OW 9363   5.017   1.259   0.877  0.8568  0.5649 -0.2712
 2398SOL    HW2 9364   5.112   1.266   0.887  1.0840 -1.5327 -0.5602
 2398SOL    HW3 9365   4.988   1.217   0.958  0.5211 -0.9444 -1.1287
 2398SOL    MW4 9366   5.026   1.254   0.889  0.8425  0.0890 -0.4225
 2399SOL     OW 9367   4.485   4.371   5.285  0.7098 -0.9445 -0.2465
 2399SOL    HW2 9368   4.532   4.357   5.367 -1.0401 -1.5431  0.6783
 2399SOL    HW3 9369   4.395   4.391   5.310  0.4104  0.1555 -1.9822
 2399SOL    MW4 9370   4.480   4.371   5.299  0.4394 -0.8783 -0.3535
 2400SOL     OW 9371   4.903   5.194   0.947  0.2611 -0.2073 -0.4847
 2400SOL    HW2 9372   4.990   5.197   0.985  0.0350 -1.5213  0.1926
 2400SOL    HW3 9373   4.888   5.282   0.913  1.8139  0.0469 -0.5544
 2400SOL    MW4 9374   4.912   5.206   0.947  0.4362 -0.3471 -0.4045
 2401SOL     OW 9375   4.433   3.941   3.775 -0.3222 -0.1177  0.1224
 2401SOL    HW2 9376   4.455   3.926   3.683  2.5383 -1.1551  0.8453
 2401SOL    HW3 9377   4.474   4.026   3.795 -0.0428 -0.3734  0.6553
 2401SOL    MW4 9378   4.442   3.950   3.766  0.0921 -0.2883  0.2881
 2402SOL     OW 9379   2.978   5.667   0.184 -0.2240 -0.2288  0.6026
 2402SOL    HW2 9380   2.932   5.594   0.141 -0.0180  0.5586 -1.0415
 2402SOL    HW3 9381   2.908   5.723   0.217 -0.3858 -1.3125  2.2031
 2402SOL    MW4 9382   2.963   5.665   0.182 -0.2181 -0.2679  0.5968
 2403SOL     OW 9383   5.859   1.202   5.096 -0.0745  0.1887 -0.7341
 2403SOL    HW2 9384   5.950   1.180   5.078  0.0745  0.3434 -0.1885
 2403SOL    HW3 9385   5.838   1.154   5.177 -0.1214  1.0587 -0.2131
 2403SOL    MW4 9386   5.868   1.193   5.104 -0.0610  0.3239 -0.5934
 2404SOL     OW 9387   2.085   4.797   0.794  0.1314  0.6799 -0.2904
 2404SOL    HW2 9388   2.004   4.762   0.757  0.1699 -0.2319  0.4690
 2404SOL    HW3 9389   2.149   4.727   0.783  0.7195  1.2360 -0.4951
 2404SOL    MW4 9390   2.083   4.783   0.788  0.2141  0.6330 -0.2172
 2405SOL     OW 9391   6.367   3.504   4.850 -0.0533 -0.3893  0.0516
 2405SOL    HW2 9392   6.423   3.575   4.821  2.3332 -1.8608  0.7658
 2405SOL    HW3 9393   6.306   3.490   4.777  1.4847  0.3131 -1.4248
 2405SOL    MW4 9394   6.366   3.511   4.836  0.4645 -0.4908 -0.0490
 2406SOL     OW 9395   2.135   2.117   0.507 -0.7072 -0.5338 -0.2111
 2406SOL    HW2 9396   2.190   2.099   0.583  1.6219 -0.0243 -1.6543
 2406SOL    HW3 9397   2.087   2.036   0.492  1.1375 -1.7320 -0.0049
 2406SOL    MW4 9398   2.136   2.104   0.515 -0.1566 -0.6247 -0.3743
 2407SOL     OW 9399   3.480   3.464   3.525 -0.5575 -0.1476 -0.4671
 2407SOL    HW2 9400   3.489   3.411   3.604 -2.0549 -2.0402 -1.4723
 2407SOL    HW3 9401   3.433   3.542   3.554 -2.2829 -1.4200  0.3398
 2407SOL    MW4 9402   3.475   3.467   3.539 -0.9827 -0.5652 -0.4933
 2408SOL     OW 9403   2.507   1.016   4.248  0.2254 -0.1825  0.2109
 2408SOL    HW2 9404   2.574   0.988   4.185  1.1225  2.7799 -0.2970
 2408SOL    HW3 9405   2.434   1.046   4.193  0.4210  1.0540  0.6138
 2408SOL    MW4 9406   2.506   1.016   4.232  0.3696  0.3715  0.1970
 2409SOL     OW 9407   1.965   3.463   1.195 -0.2929 -0.2510  0.5410
 2409SOL    HW2 9408   2.035   3.412   1.155  0.4530  1.9917 -1.2416
 2409SOL    HW3 9409   1.897   3.467   1.128 -0.9903 -0.2041  1.2403
 2409SOL    MW4 9410   1.965   3.457   1.181 -0.2865  0.0511  0.3981
 2410SOL     OW 9411   3.829   2.755   4.914 -0.0924 -0.1373 -0.1698
 2410SOL    HW2 9412   3.799   2.771   4.824 -0.9756  3.3501  0.5719
 2410SOL    HW3 9413   3.888   2.828   4.932 -0.3125 -0.4766  2.2350
 2410SOL    MW4 9414   3.833   2.767   4.904 -0.2380  0.2781  0.2453
 2411SOL     OW 9415   4.591   0.541   4.507  0.3503  1.3968  0.6513
 2411SOL    HW2 9416   4.575   0.460   4.458 -1.3360  1.2809  1.2905
 2411SOL    HW3 9417   4.654   0.589   4.455 -1.4133  1.3314 -1.7180
 2411SOL    MW4 9418   4.597   0.536   4.494 -0.1049  1.3729  0.4230
 2412SOL     OW 9419   5.842   1.793   1.368  0.1263 -0.2745  0.4799
 2412SOL    HW2 9420   5.781   1.721   1.356  1.6427 -1.5201 -0.1228
 2412SOL    HW3 9421   5.924   1.762   1.328  0.4010  2.3972 -1.2961
 2412SOL    MW4 9422   5.845   1.779   1.361  0.3626 -0.0863  0.1661
 2413SOL     OW 9423   3.276   4.461   2.593 -0.1965  0.5504  0.2538
 2413SOL    HW2 9424   3.205   4.524   2.606 -0.6894  0.4559 -1.6842
 2413SOL    HW3 9425   3.321   4.492   2.514  0.0929 -1.0142 -0.2226
 2413SOL    MW4 9426   3.273   4.474   2.584 -0.2234  0.3315 -0.0647
 2414SOL     OW 9427   4.578   2.344   2.479  0.2918 -0.0024  0.0739
 2414SOL    HW2 9428   4.515   2.305   2.540 -0.8550 -0.3708 -1.2806
 2414SOL    HW3 9429   4.553   2.437   2.476 -0.9517 -0.3372 -1.2689
 2414SOL    MW4 9430   4.566   2.351   2.487 -0.0236 -0.0952 -0.2820
 2415SOL     OW 9431   5.026   4.140   3.927 -0.3820 -0.2587  0.1597
 2415SOL    HW2 9432   4.940   4.103   3.905 -0.9929  1.5926 -0.8376
 2415SOL    HW3 9433   5.011   4.185   4.010 -0.4094  0.1050 -0.0386
 2415SOL    MW4 9434   5.012   4.141   3.935 -0.4662  0.0336  0.0019
 2416SOL     OW 9435   2.132   4.104   5.615  0.6503  0.1807  0.0482
 2416SOL    HW2 9436   2.109   4.064   5.699  0.5677  1.0263  0.4430
 2416SOL    HW3 9437   2.052   4.094   5.562  1.1799 -1.6895 -0.4866
 2416SOL    MW4 9438   2.118   4.097   5.619  0.7093  0.0455  0.0297
 2417SOL     OW 9439   0.255   2.758   0.246  0.0191 -0.4652  0.6581
 2417SOL    HW2 9440   0.326   2.726   0.303  0.9882 -0.1573 -0.3400
 2417SOL    HW3 9441   0.279   2.849   0.228 -0.2641 -0.5708 -0.2658
 2417SOL    MW4 9442   0.268   2.766   0.251  0.1096 -0.4385  0.4045
 2418SOL     OW 9443   4.378   0.532   4.093  0.0871 -0.2192 -0.9231
 2418SOL    HW2 9444   4.372   0.585   4.013 -0.1597  0.7786 -0.2617
 2418SOL    HW3 9445   4.311   0.465   4.082 -0.3165  0.2339 -1.3240
 2418SOL    MW4 9446   4.368   0.530   4.081  0.0013 -0.0278 -0.8887
 2419SOL     OW 9447   0.083   2.894   0.971  0.2897 -0.3033  0.4059
 2419SOL    HW2 9448   0.085   2.924   0.880 -2.4476  0.6465  0.5983
 2419SOL    HW3 9449   0.098   2.800   0.965 -1.5971 -0.5533 -1.2452
 2419SOL    MW4 9450   0.085   2.885   0.958 -0.3204 -0.2110  0.2134
 2420SOL     OW 9451   2.930   5.721   3.370 -0.7162  0.0710 -0.9307
 2420SOL    HW2 9452   2.919   5.816   3.375  3.6189  0.7254  0.0640
 2420SOL    HW3 9453   2.919   5.692   3.461 -1.5903 -0.3198 -1.1604
 2420SOL    MW4 9454   2.927   5.730   3.383 -0.2596  0.1058 -0.8297
 2421SOL     OW 9455   4.711   0.446   1.535  0.6107 -0.0234 -0.7088
 2421SOL    HW2 9456   4.687   0.359   1.503 -0.4359 -0.2679  0.6923
 2421SOL    HW3 9457   4.775   0.430   1.604 -0.9504  0.1675  0.8404
 2421SOL    MW4 9458   4.717   0.433   1.540  0.2666 -0.0305 -0.3195
 2422SOL     OW 9459   5.044   3.131   3.526  0.2948 -0.7599 -0.0254
 2422SOL    HW2 9460   5.038   3.064   3.595  1.0480 -1.8944 -1.0179
 2422SOL    HW3 9461   5.066   3.082   3.447  0.7666  0.6727 -0.8141
 2422SOL    MW4 9462   5.046   3.115   3.525  0.4565 -0.7206 -0.2604
 2423SOL     OW 9463   5.293   0.064   2.929 -0.3382 -0.1652 -0.1248
 2423SOL    HW2 9464   5.335   0.002   2.989  0.5949  0.4172 -0.1571
 2423SOL    HW3 9465   5.254   0.008   2.861 -1.3840 -0.8340  0.9659
 2423SOL    MW4 9466   5.293   0.048   2.928 -0.3531 -0.1766  0.0148
 2424SOL     OW 9467   1.332   6.316   5.755  0.3200 -0.5681 -0.9495
 2424SOL    HW2 9468   1.253   6.281   5.713  0.1512  0.8591 -1.8956
 2424SOL    HW3 9469   1.305   6.401   5.789  0.6193 -1.4199  1.6573
 2424SOL    MW4 9470   1.318   6.323   5.754  0.3372 -0.4922 -0.7304
 2425SOL     OW 9471   4.288   4.564   0.537 -0.0277 -0.2578  0.6419
 2425SOL    HW2 9472   4.257   4.648   0.503 -0.4087 -0.3823  0.6797
 2425SOL    HW3 9473   4.321   4.585   0.624 -0.6131 -0.2349  0.8654
 2425SOL    MW4 9474   4.288   4.578   0.544 -0.1552 -0.2712  0.6764
 2426SOL     OW 9475   2.318   5.453   1.723 -0.1590  0.2945 -0.1393
 2426SOL    HW2 9476   2.410   5.428   1.712 -0.1139  0.5184 -0.2835
 2426SOL    HW3 9477   2.287   5.470   1.634 -0.3112  0.3226 -0.0814
 2426SOL    MW4 9478   2.326   5.452   1.710 -0.1731  0.3277 -0.1507
 2427SOL     OW 9479   1.531   2.316   3.219 -0.5062 -1.0185 -0.3534
 2427SOL    HW2 9480   1.480   2.389   3.255 -2.0265 -1.1779 -2.0567
 2427SOL    HW3 9481   1.568   2.272   3.296  0.0928  1.2482  0.7425
 2427SOL    MW4 9482   1.529   2.320   3.234 -0.6277 -0.7405 -0.4335
 2428SOL     OW 9483   1.504   4.003   0.114 -0.0942 -0.2693 -0.4135
 2428SOL    HW2 9484   1.538   4.063   0.180 -0.2620 -0.2247 -0.3672
 2428SOL    HW3 9485   1.459   4.060   0.050 -0.5701 -0.3746 -0.1778
 2428SOL    MW4 9486   1.503   4.019   0.114 -0.1792 -0.2773 -0.3763
 2429SOL     OW 9487   4.596   2.302   5.945 -0.2674 -0.1015  0.3358
 2429SOL    HW2 9488   4.654   2.242   5.992  0.6155  0.6801  0.2830
 2429SOL    HW3 9489   4.655   2.353   5.890 -1.1763 -0.2965 -0.8578
 2429SOL    MW4 9490   4.612   2.301   5.944 -0.2708 -0.0241  0.1714
 2430SOL     OW 9491   4.396   5.847   1.244  0.6419 -0.0686 -0.6312
 2430SOL    HW2 9492   4.448   5.785   1.192  0.7890  0.0966 -0.6816
 2430SOL    HW3 9493   4.372   5.799   1.323  0.9543 -0.1120 -0.5644
 2430SOL    MW4 9494   4.400   5.832   1.248  0.7025 -0.0525 -0.6290
 2431SOL     OW 9495   5.197   0.975   0.605  0.2670 -0.1953  0.3715
 2431SOL    HW2 9496   5.200   1.070   0.613 -2.0582 -0.1763  1.7847
 2431SOL    HW3 9497   5.158   0.959   0.519 -1.6763  0.2337  1.1283
 2431SOL    MW4 9498   5.192   0.985   0.594 -0.2962 -0.1362  0.6578
 2432SOL     OW 9499   3.473   1.253   5.802 -0.2166 -0.0651  0.1887
 2432SOL    HW2 9500   3.401   1.194   5.781  0.6847 -1.6323  1.3196
 2432SOL    HW3 9501   3.432   1.323   5.854 -0.8200 -1.3985  1.5887
 2432SOL    MW4 9502   3.458   1.255   5.806 -0.1773 -0.4478  0.5226
 2433SOL     OW 9503   4.117   5.478   1.882 -0.5638  0.4768 -0.4353
 2433SOL    HW2 9504   4.181   5.449   1.946 -1.1153  1.4418  0.5799
 2433SOL    HW3 9505   4.032   5.471   1.927 -1.1850 -0.6722 -1.7133
 2433SOL    MW4 9506   4.114   5.473   1.896 -0.7185  0.4525 -0.4700
 2434SOL     OW 9507   2.451   4.821   3.885 -0.0188  0.0373 -0.0303
 2434SOL    HW2 9508   2.440   4.908   3.924  0.8842 -1.0885  3.0519
 2434SOL    HW3 9509   2.362   4.788   3.873 -0.3477  0.7496  0.3935
 2434SOL    MW4 9510   2.438   4.828   3.888  0.0569 -0.0172  0.4322
 2435SOL     OW 9511   5.354   2.311   4.579 -0.0072  0.5571  0.1379
 2435SOL    HW2 9512   5.439   2.310   4.623 -0.7519  0.1745  1.6448
 2435SOL    HW3 9513   5.354   2.392   4.528  2.1839 -0.5723 -1.8616
 2435SOL    MW4 9514   5.366   2.322   4.578  0.1836  0.3576  0.0729
 2436SOL     OW 9515   1.418   2.384   4.958  0.2317 -0.4398 -0.2260
 2436SOL    HW2 9516   1.426   2.428   4.874 -0.9410 -1.2040 -0.7726
 2436SOL    HW3 9517   1.327   2.398   4.984  1.1642  1.9481  2.1964
 2436SOL    MW4 9518   1.407   2.392   4.950  0.2000 -0.2256  0.0215
 2437SOL     OW 9519   0.053   3.108   3.846 -0.0095 -0.2837  0.5436
 2437SOL    HW2 9520  -0.032   3.147   3.824 -0.1333 -1.2903 -0.9069
 2437SOL    HW3 9521   0.037   3.013   3.844  1.3195 -0.5189 -0.5673
 2437SOL    MW4 9522   0.039   3.100   3.843  0.1495 -0.4475  0.2057
 2438SOL     OW 9523   5.028   5.850   2.484  0.5006  0.3159  0.3360
 2438SOL    HW2 9524   5.028   5.757   2.464  2.1750  0.3412  0.0751
 2438SOL    HW3 9525   5.003   5.893   2.402  0.5079  0.1342  0.2397
 2438SOL    MW4 9526   5.025   5.843   2.471  0.7224  0.2953  0.2889
 2439SOL     OW 9527   1.153   2.333   3.451  0.4239  0.1166  0.0243
 2439SOL    HW2 9528   1.221   2.285   3.498  0.0946 -0.1899  0.1987
 2439SOL    HW3 9529   1.200   2.402   3.404  0.6813  0.9341  1.4242
 2439SOL    MW4 9530   1.168   2.336   3.451  0.4144  0.1840  0.2320
 2440SOL     OW 9531   0.347   1.316   0.671 -0.2420  0.5607  0.3833
 2440SOL    HW2 9532   0.412   1.368   0.624 -2.0925  0.2193 -2.8893
 2440SOL    HW3 9533   0.293   1.381   0.717 -0.0229  1.1731 -0.2155
 2440SOL    MW4 9534   0.348   1.331   0.671 -0.4572  0.5965 -0.1275
 2441SOL     OW 9535   3.902   1.367   5.557  0.1706  0.0123 -0.2089
 2441SOL    HW2 9536   3.925   1.451   5.516 -1.4043  0.4900 -0.1556
 2441SOL    HW3 9537   3.818   1.383   5.598  0.0833 -1.4770  0.2190
 2441SOL    MW4 9538   3.894   1.380   5.557 -0.0487 -0.1212 -0.1454
 2442SOL     OW 9539   2.826   3.898   3.997 -0.8080  0.7106 -0.7176
 2442SOL    HW2 9540   2.803   3.989   3.976 -0.5363  0.8369 -0.4880
 2442SOL    HW3 9541   2.901   3.879   3.940 -1.9504  0.0370 -2.0352
 2442SOL    MW4 9542   2.833   3.908   3.987 -0.9229  0.6384 -0.8611
 2443SOL     OW 9543   0.055   3.956   1.478 -0.0310  0.2387 -0.1550
 2443SOL    HW2 9544   0.024   3.925   1.394  1.7462 -1.4027 -0.2764
 2443SOL    HW3 9545   0.150   3.964   1.468 -0.0044  2.2244  1.0311
 2443SOL    MW4 9546   0.063   3.953   1.466  0.2070  0.2841 -0.0145
 2444SOL     OW 9547   2.524   3.555   3.320 -0.1821 -0.0782  0.8388
 2444SOL    HW2 9548   2.547   3.519   3.405 -1.3589  1.0219  1.6536
 2444SOL    HW3 9549   2.603   3.601   3.291  0.2169 -0.4424  1.3385
 2444SOL    MW4 9550   2.537   3.556   3.327 -0.2847  0.0189  1.0122
 2445SOL     OW 9551   1.957   2.966   1.209 -0.6348 -0.3538  0.8135
 2445SOL    HW2 9552   2.052   2.973   1.199 -0.7342  0.3488  0.2997
 2445SOL    HW3 9553   1.932   3.043   1.261 -1.0797  0.2275 -0.2246
 2445SOL    MW4 9554   1.966   2.977   1.214 -0.7066 -0.1844  0.6088
 2446SOL     OW 9555   4.295   0.654   6.208  0.2616  0.2439  0.4109
 2446SOL    HW2 9556   4.340   0.569   6.209 -0.4646 -0.2685 -1.9552
 2446SOL    HW3 9557   4.329   0.697   6.130 -1.2317  1.0447  0.1724
 2446SOL    MW4 9558   4.306   0.648   6.198 -0.0313  0.2820  0.0673
 2447SOL     OW 9559   1.650   2.662   5.784  0.0186 -0.1178  0.6492
 2447SOL    HW2 9560   1.567   2.662   5.737  0.2082 -0.7851  0.2979
 2447SOL    HW3 9561   1.641   2.732   5.849 -0.9187 -0.3618  0.7982
 2447SOL    MW4 9562   1.638   2.671   5.786 -0.0800 -0.2380  0.6225
 2448SOL     OW 9563   2.927   4.343   2.792 -0.0595 -0.3446  0.5843
 2448SOL    HW2 9564   2.857   4.407   2.798 -0.4300 -0.5921 -0.7791
 2448SOL    HW3 9565   2.941   4.314   2.882 -0.4551  1.0265  1.1059
 2448SOL    MW4 9566   2.920   4.347   2.805 -0.1606 -0.1964  0.4733
 2449SOL     OW 9567   1.381   5.728   4.575 -0.2980  0.4682  0.4022
 2449SOL    HW2 9568   1.418   5.692   4.655 -1.5646 -0.3221  0.6574
 2449SOL    HW3 9569   1.302   5.775   4.604 -0.9885 -0.1620 -0.4126
 2449SOL    MW4 9570   1.376   5.730   4.589 -0.5562  0.2808  0.3284
 2450SOL     OW 9571   2.942   2.640   1.603 -0.3493 -0.0025  0.1333
 2450SOL    HW2 9572   2.883   2.712   1.582  1.9824  1.8567 -0.4555
 2450SOL    HW3 9573   2.994   2.627   1.524  0.4546 -1.1765  0.8220
 2450SOL    MW4 9574   2.941   2.648   1.590  0.0644  0.0879  0.1465
 2451SOL     OW 9575   0.008   5.056   4.834 -0.1160  0.3697 -0.2543
 2451SOL    HW2 9576  -0.046   5.122   4.791 -1.4468 -0.8252 -0.5045
 2451SOL    HW3 9577  -0.003   4.977   4.780  2.6278  0.2878 -0.8427
 2451SOL    MW4 9578   0.000   5.054   4.821  0.0704  0.2013 -0.3650
 2452SOL     OW 9579   5.042   3.991   0.273 -0.0657  0.4331  0.1030
 2452SOL    HW2 9580   5.105   4.039   0.327  0.4415  0.8689 -0.8479
 2452SOL    HW3 9581   5.087   3.911   0.249 -0.8112 -0.4199  1.4622
 2452SOL    MW4 9582   5.056   3.987   0.277 -0.0972  0.3781  0.1569
 2453SOL     OW 9583   3.374   1.801   1.979 -0.4698  0.1720 -0.2589
 2453SOL    HW2 9584   3.384   1.776   1.887  1.1559 -1.0887  0.2085
 2453SOL    HW3 9585   3.292   1.760   2.007 -0.2221 -0.7013 -0.7715
 2453SOL    MW4 9586   3.365   1.792   1.971 -0.2226 -0.1095 -0.2649
 2454SOL     OW 9587   1.663   4.897   1.129 -0.1410 -0.0134 -0.3119
 2454SOL    HW2 9588   1.643   4.955   1.055  1.5048 -0.0786 -0.8525
 2454SOL    HW3 9589   1.748   4.928   1.161 -0.6250 -0.2814  1.2815
 2454SOL    MW4 9590   1.672   4.909   1.123  0.0123 -0.0573 -0.1730
 2455SOL     OW 9591   3.222   5.261   5.029  0.6604  0.3368  0.0597
 2455SOL    HW2 9592   3.292   5.309   5.074  1.2757 -0.6057  0.1433
 2455SOL    HW3 9593   3.146   5.270   5.086  2.0172 -2.9007  2.7028
 2455SOL    MW4 9594   3.221   5.269   5.042  0.9206 -0.2147  0.4194
 2456SOL     OW 9595   0.755   2.530   5.959 -0.5961  0.0459  0.4610
 2456SOL    HW2 9596   0.720   2.560   5.875 -0.3744  0.1832  0.4195
 2456SOL    HW3 9597   0.795   2.446   5.940  0.9655  0.8397  0.0784
 2456SOL    MW4 9598   0.755   2.523   5.946 -0.3608  0.1687  0.4051
 2457SOL     OW 9599   6.032   5.590   1.487  0.1011  0.0535 -0.4198
 2457SOL    HW2 9600   6.023   5.518   1.549 -0.5522  1.2982  1.0026
 2457SOL    HW3 9601   6.107   5.641   1.518  0.4697  0.0814 -1.3158
 2457SOL    MW4 9602   6.041   5.588   1.499  0.0635  0.2214 -0.3503
 2458SOL     OW 9603   4.112   0.836   6.322  0.6486  0.0268 -0.0823
 2458SOL    HW2 9604   4.018   0.820   6.333  0.7281 -0.5338 -0.2027
 2458SOL    HW3 9605   4.142   0.763   6.268  1.3849 -0.4551  0.9591
 2458SOL    MW4 9606   4.103   0.824   6.316  0.7562 -0.1107  0.0392
 2459SOL     OW 9607   2.804   4.392   6.353 -0.0459  0.3082  0.2564
 2459SOL    HW2 9608   2.831   4.469   6.402 -0.5534 -0.5205  1.9046
 2459SOL    HW3 9609   2.869   4.384   6.283 -0.4836  2.7004 -0.5064
 2459SOL    MW4 9610   2.817   4.401   6.350 -0.1706  0.5145  0.3732
 2460SOL     OW 9611   6.259   6.058   3.892  0.3410 -0.2358 -0.3102
 2460SOL    HW2 9612   6.257   6.069   3.987 -0.9605 -0.2631 -0.3253
 2460SOL    HW3 9613   6.347   6.025   3.874  0.0216 -1.9904  1.0891
 2460SOL    MW4 9614   6.271   6.055   3.902  0.1272 -0.4709 -0.1276
 2461SOL     OW 9615   0.185   2.290   1.867  0.0231  0.0522  0.9021
 2461SOL    HW2 9616   0.233   2.225   1.919  2.1480  1.0948  0.3528
 2461SOL    HW3 9617   0.125   2.330   1.929  0.3093 -0.8691  1.7998
 2461SOL    MW4 9618   0.184   2.287   1.882  0.3412  0.0682  0.9481
 2462SOL     OW 9619   6.407   4.869   0.751  0.2996 -0.2594  0.3864
 2462SOL    HW2 9620   6.361   4.951   0.732 -0.4769  0.2866  3.8258
 2462SOL    HW3 9621   6.500   4.893   0.750  0.4740 -0.5525 -3.1456
 2462SOL    MW4 9622   6.413   4.883   0.749  0.2201 -0.2260  0.3742
 2463SOL     OW 9623   1.456   2.830   1.788  0.0709 -0.2516  0.4528
 2463SOL    HW2 9624   1.366   2.817   1.755 -0.3950 -1.2855  2.0387
 2463SOL    HW3 9625   1.504   2.861   1.712 -1.5486 -0.0274 -0.5427
 2463SOL    MW4 9626   1.450   2.833   1.774 -0.2042 -0.3584  0.5307
 2464SOL     OW 9627   4.843   2.936   0.233  0.0283 -0.2234  0.2063
 2464SOL    HW2 9628   4.937   2.927   0.247  0.1149 -0.1359 -0.3161
 2464SOL    HW3 9629   4.833   2.943   0.139 -0.4157  0.8603  0.3243
 2464SOL    MW4 9630   4.854   2.936   0.223 -0.0188 -0.0689  0.1529
 2465SOL     OW 9631   1.223   1.694   0.789  0.0378  0.4408 -0.5060
 2465SOL    HW2 9632   1.203   1.788   0.785 -0.3038  0.3441 -1.1924
 2465SOL    HW3 9633   1.138   1.651   0.781  0.3187  0.0578 -1.6617
 2465SOL    MW4 9634   1.209   1.701   0.787  0.0298  0.3775 -0.7490
 2466SOL     OW 9635   3.369   4.963   0.660 -0.0103  0.5472 -0.2752
 2466SOL    HW2 9636   3.333   5.031   0.718 -0.8967  1.3711 -1.7184
 2466SOL    HW3 9637   3.428   4.913   0.716 -0.1097  1.8760  1.1058
 2466SOL    MW4 9638   3.372   4.966   0.675 -0.1404  0.8312 -0.2834
 2467SOL     OW 9639   0.671   3.309   1.843  0.4421  0.4698 -0.2118
 2467SOL    HW2 9640   0.737   3.260   1.892  0.0436 -0.8970 -1.0025
 2467SOL    HW3 9641   0.678   3.277   1.753  0.4854  2.2236 -0.8813
 2467SOL    MW4 9642   0.680   3.298   1.838  0.3952  0.5209 -0.4044
 2468SOL     OW 9643   4.364   4.857   3.785  0.6747 -0.3361 -0.2519
 2468SOL    HW2 9644   4.434   4.804   3.747  0.4182 -0.1658 -0.9794
 2468SOL    HW3 9645   4.352   4.929   3.722  0.7534  0.3697  0.5255
 2468SOL    MW4 9646   4.372   4.859   3.771  0.6513 -0.2205 -0.2453
 2469SOL     OW 9647   1.370   2.156   3.522  0.1942 -0.2613  0.1882
 2469SOL    HW2 9648   1.352   2.082   3.580  2.6131 -1.0044  0.1064
 2469SOL    HW3 9649   1.377   2.118   3.435  0.7544  0.1550  0.0417
 2469SOL    MW4 9650   1.369   2.141   3.518  0.5873 -0.3044  0.1581
 2470SOL     OW 9651   1.337   1.946   6.200  0.1878 -0.2854  0.1369
 2470SOL    HW2 9652   1.419   1.982   6.167  0.5709  0.4288  1.7819
 2470SOL    HW3 9653   1.355   1.853   6.212 -0.5178 -0.9910 -3.2362
 2470SOL    MW4 9654   1.350   1.939   6.197  0.1452 -0.2842 -0.0911
 2471SOL     OW 9655   4.658   4.411   0.515 -0.1746  0.4762 -0.2717
 2471SOL    HW2 9656   4.620   4.396   0.602  1.3878  0.3591  0.4186
 2471SOL    HW3 9657   4.665   4.507   0.509  1.2701  0.4496  0.4694
 2471SOL    MW4 9658   4.654   4.422   0.526  0.2222  0.4573 -0.0828
 2472SOL     OW 9659   4.694   5.743   2.366  0.2352 -0.0260  0.0378
 2472SOL    HW2 9660   4.749   5.742   2.444 -0.9954  2.3136  1.0218
 2472SOL    HW3 9661   4.617   5.793   2.391 -1.0693 -0.7893 -2.1473
 2472SOL    MW4 9662   4.691   5.750   2.380 -0.0993  0.1820 -0.1206
 2473SOL     OW 9663   4.870   5.484   1.065  0.5678 -0.3716  0.2908
 2473SOL    HW2 9664   4.887   5.477   1.159  1.4756 -0.5555  0.1154
 2473SOL    HW3 9665   4.791   5.431   1.052  0.2480 -0.0879  0.9953
 2473SOL    MW4 9666   4.862   5.476   1.076  0.6454 -0.3584  0.3606
 2474SOL     OW 9667   2.468   0.517   4.009  0.1680 -0.2080  0.6103
 2474SOL    HW2 9668   2.545   0.508   4.065 -0.2857 -0.6208  1.1775
 2474SOL    HW3 9669   2.409   0.575   4.057  1.2195  2.3917 -1.0318
 2474SOL    MW4 9670   2.470   0.523   4.023  0.2469  0.0806  0.4685
 2475SOL     OW 9671   3.572   3.980   1.318 -0.4948 -0.1091 -0.1506
 2475SOL    HW2 9672   3.663   3.985   1.346 -0.5095 -0.8245  0.0693
 2475SOL    HW3 9673   3.544   4.071   1.309  0.5860  0.1318 -1.3955
 2475SOL    MW4 9674   3.580   3.992   1.320 -0.3541 -0.1717 -0.2859
 2476SOL     OW 9675   6.405   2.893   5.428 -0.1646 -1.0836  0.1369
 2476SOL    HW2 9676   6.363   2.886   5.342 -0.0811 -1.3115  0.1144
 2476SOL    HW3 9677   6.457   2.813   5.436  3.5762  0.9256 -1.5737
 2476SOL    MW4 9678   6.406   2.882   5.418  0.3399 -0.8486 -0.0918
 2477SOL     OW 9679   4.275   4.686   4.519 -0.4699  0.7559  0.0240
 2477SOL    HW2 9680   4.338   4.755   4.540 -0.8137  1.3239 -0.7716
 2477SOL    HW3 9681   4.288   4.620   4.587  0.9031  0.9110 -0.0566
 2477SOL    MW4 9682   4.285   4.686   4.531 -0.3341  0.8513 -0.0916
 2478SOL     OW 9683   4.777   4.043   0.398 -0.1002 -0.2921 -0.1985
 2478SOL    HW2 9684   4.843   4.014   0.336 -0.9256 -2.0209 -0.3320
 2478SOL    HW3 9685   4.702   4.068   0.344  0.1188  0.8354 -0.0071
 2478SOL    MW4 9686   4.776   4.043   0.383 -0.1802 -0.3714 -0.1908
 2479SOL     OW 9687   4.113   3.115   3.094 -1.0947 -0.0470 -0.0762
 2479SOL    HW2 9688   4.074   3.044   3.145  0.0240 -2.0831 -1.8698
 2479SOL    HW3 9689   4.052   3.130   3.022 -0.6822 -0.1716 -0.4584
 2479SOL    MW4 9690   4.100   3.107   3.091 -0.8927 -0.3321 -0.3633
 2480SOL     OW 9691   5.100   1.608   0.902  0.1549  0.3675 -1.0536
 2480SOL    HW2 9692   5.011   1.641   0.911 -0.2982 -0.7285 -1.2806
 2480SOL    HW3 9693   5.088   1.519   0.867  1.3170  0.0207 -0.5912
 2480SOL    MW4 9694   5.087   1.601   0.898  0.2485  0.1772 -1.0225
 2481SOL     OW 9695   0.492   5.101   3.490 -0.7304 -0.4428 -0.0198
 2481SOL    HW2 9696   0.512   5.194   3.495  0.3875 -0.6553 -0.3516
 2481SOL    HW3 9697   0.423   5.088   3.555 -0.8966  0.6095  0.0297
 2481SOL    MW4 9698   0.485   5.112   3.499 -0.6048 -0.3320 -0.0571
 2482SOL     OW 9699   1.637   4.217   1.406 -0.4514 -0.0049  0.1690
 2482SOL    HW2 9700   1.691   4.274   1.351  0.2664  0.8672  1.7077
 2482SOL    HW3 9701   1.680   4.131   1.399  2.0282  0.9094  2.3025
 2482SOL    MW4 9702   1.650   4.213   1.398 -0.0295  0.2308  0.6535
 2483SOL     OW 9703   3.536   1.094   3.093 -0.1787 -0.0876  0.1185
 2483SOL    HW2 9704   3.501   1.011   3.059  0.4548 -0.9076  1.4222
 2483SOL    HW3 9705   3.478   1.161   3.055 -2.4071 -1.2938  1.1789
 2483SOL    MW4 9706   3.524   1.092   3.083 -0.3891 -0.3550  0.4304
 2484SOL     OW 9707   1.139   5.045   0.017 -0.4269 -0.4092  0.2695
 2484SOL    HW2 9708   1.101   5.130   0.034 -1.3145 -1.0677  1.7334
 2484SOL    HW3 9709   1.168   5.050  -0.074 -0.1568  1.5438  0.4204
 2484SOL    MW4 9710   1.138   5.057   0.007 -0.5084 -0.2384  0.4826
 2485SOL     OW 9711   1.062   1.872   6.392 -0.2111 -0.4389  0.0796
 2485SOL    HW2 9712   0.989   1.933   6.382 -0.0247 -0.3869 -1.1347
 2485SOL    HW3 9713   1.126   1.920   6.445 -1.3106 -0.7474  1.7621
 2485SOL    MW4 9714   1.061   1.887   6.398 -0.3316 -0.4727  0.1414
 2486SOL     OW 9715   5.915   0.982   4.841  0.5414  0.1705 -0.1235
 2486SOL    HW2 9716   5.932   0.900   4.793  0.1298  0.4658 -0.8023
 2486SOL    HW3 9717   5.910   1.049   4.772 -3.0730  0.1707 -0.0697
 2486SOL    MW4 9718   5.917   0.980   4.825  0.0102  0.2095 -0.2060
 2487SOL     OW 9719   5.808   0.791   1.051  0.5286 -0.3296 -0.4550
 2487SOL    HW2 9720   5.801   0.827   0.962  1.2386  0.6289 -0.1417
 2487SOL    HW3 9721   5.720   0.797   1.086  0.0423 -1.5680 -1.4025
 2487SOL    MW4 9722   5.796   0.797   1.044  0.5581 -0.3665 -0.5387
 2488SOL     OW 9723   6.356   2.041   2.208  0.0423 -0.2485 -0.0832
 2488SOL    HW2 9724   6.400   2.123   2.231 -0.7753  0.2192 -0.1599
 2488SOL    HW3 9725   6.376   2.029   2.115 -0.4786  0.2808 -0.2715
 2488SOL    MW4 9726   6.364   2.051   2.199 -0.1343 -0.1170 -0.1182
 2489SOL     OW 9727   6.245   0.289   1.479 -0.4368  0.2146  0.0670
 2489SOL    HW2 9728   6.317   0.331   1.432 -1.0863 -0.4915 -1.6478
 2489SOL    HW3 9729   6.203   0.233   1.413 -1.4919 -0.7150  1.4744
 2489SOL    MW4 9730   6.249   0.287   1.464 -0.6617 -0.0012  0.0265
 2490SOL     OW 9731   4.299   5.815   4.215 -0.0394 -0.0619 -0.0288
 2490SOL    HW2 9732   4.377   5.857   4.249 -0.2551  1.1033 -0.8872
 2490SOL    HW3 9733   4.240   5.888   4.193 -1.4929 -0.9122  0.8640
 2490SOL    MW4 9734   4.301   5.830   4.216 -0.2597 -0.0203 -0.0242
 2491SOL     OW 9735   1.176   0.997   4.723  0.5226  0.0156 -0.5143
 2491SOL    HW2 9736   1.150   1.063   4.659  0.4511 -0.2718 -0.7910
 2491SOL    HW3 9737   1.120   0.921   4.703  2.0102 -0.8624 -1.5748
 2491SOL    MW4 9738   1.165   0.995   4.712  0.7094 -0.1381 -0.6907
 2492SOL     OW 9739   6.006   0.975   2.296  0.2638 -0.1675 -0.1546
 2492SOL    HW2 9740   6.055   1.050   2.331 -1.6726  1.2634 -0.3186
 2492SOL    HW3 9741   6.036   0.900   2.349  2.7467  0.5460 -0.4341
 2492SOL    MW4 9742   6.016   0.975   2.308  0.3359  0.1154 -0.2131
 2493SOL     OW 9743   2.173   5.178   1.557  0.3102  0.0806 -0.0151
 2493SOL    HW2 9744   2.128   5.129   1.487  1.1588 -0.0451 -0.4911
 2493SOL    HW3 9745   2.180   5.267   1.523  0.4138  0.1017  0.0636
 2493SOL    MW4 9746   2.168   5.183   1.543  0.4358  0.0668 -0.0675
 2494SOL     OW 9747   4.468   2.460   1.603 -0.0895  0.7531  0.1983
 2494SOL    HW2 9748   4.503   2.508   1.678  0.3082  0.8950 -0.0769
 2494SOL    HW3 9749   4.537   2.399   1.578 -1.2526 -1.3137  1.6870
 2494SOL    MW4 9750   4.482   2.458   1.610 -0.1905  0.4991  0.3584
 2495SOL     OW 9751   0.611   6.176   2.571 -0.2459 -0.2903  0.1871
 2495SOL    HW2 9752   0.671   6.104   2.556 -0.5994 -0.1973 -1.9698
 2495SOL    HW3 9753   0.666   6.249   2.599  0.3733 -0.7816  0.2464
 2495SOL    MW4 9754   0.626   6.176   2.573 -0.2108 -0.3429 -0.0896
 2496SOL     OW 9755   5.242   4.940   0.013  0.1401  0.3771 -0.0589
 2496SOL    HW2 9756   5.284   4.888   0.082  0.5678  0.4236 -0.2799
 2496SOL    HW3 9757   5.303   4.935  -0.061 -0.1917  0.5434 -0.3444
 2496SOL    MW4 9758   5.256   4.933   0.012  0.1527  0.4052 -0.1257
 2497SOL     OW 9759   6.199   5.884   1.567  0.4217 -0.3097 -0.0896
 2497SOL    HW2 9760   6.148   5.934   1.503 -0.3914  0.0357  0.7955
 2497SOL    HW3 9761   6.269   5.843   1.516 -1.1168 -1.3362 -1.4611
 2497SOL    MW4 9762   6.201   5.885   1.552  0.1114 -0.3996 -0.1538
 2498SOL     OW 9763   3.571   2.005   2.057 -0.2934  0.5088 -0.3653
 2498SOL    HW2 9764   3.664   2.015   2.041 -0.0763  0.1999  0.6394
 2498SOL    HW3 9765   3.536   1.971   1.975  0.8905 -1.7496 -0.0132
 2498SOL    MW4 9766   3.578   2.002   2.044 -0.1085  0.1701 -0.1863
 2499SOL     OW 9767   5.803   3.251   2.032  0.0027  0.1774 -0.1298
 2499SOL    HW2 9768   5.739   3.321   2.038  0.0252  0.4304 -2.2418
 2499SOL    HW3 9769   5.754   3.171   2.051 -1.4088  0.1787 -3.1643
 2499SOL    MW4 9770   5.788   3.250   2.035 -0.1806  0.2110 -0.8088
 2500SOL     OW 9771   2.817   3.298   0.710 -0.0902 -0.3068  0.4219
 2500SOL    HW2 9772   2.876   3.346   0.769  0.3514 -2.0141  1.4451
 2500SOL    HW3 9773   2.731   3.310   0.750  0.1927 -1.3722  1.4225
 2500SOL    MW4 9774   2.814   3.306   0.723  0.0054 -0.6726  0.6889
 2501SOL     OW 9775   6.093   2.681   0.284  0.6695  0.1720  0.2414
 2501SOL    HW2 9776   6.172   2.638   0.317  0.6227 -0.6465 -0.7023
 2501SOL    HW3 9777   6.124   2.736   0.212  0.5405  0.7766  0.6357
 2501SOL    MW4 9778   6.107   2.683   0.279  0.6463  0.1438  0.1689
 2502SOL     OW 9779   1.444   1.028   5.375 -0.3476  0.0185  0.3676
 2502SOL    HW2 9780   1.473   1.041   5.285  0.1948  0.9810  0.6717
 2502SOL    HW3 9781   1.349   1.040   5.372 -0.2803  0.4903 -0.0066
 2502SOL    MW4 9782   1.435   1.031   5.363 -0.2672  0.2077  0.3583
 2503SOL     OW 9783   4.475   3.644   1.115 -0.1092  0.2177 -0.2025
 2503SOL    HW2 9784   4.498   3.654   1.208  0.2210  2.0536 -0.4397
 2503SOL    HW3 9785   4.409   3.712   1.100 -0.3823 -0.2724 -1.2458
 2503SOL    MW4 9786   4.470   3.655   1.126 -0.1017  0.3952 -0.3715
 2504SOL     OW 9787   3.408   5.527   4.245  0.0234  0.1765 -0.2377
 2504SOL    HW2 9788   3.327   5.569   4.273  0.0036  1.9412 -2.6821
 2504SOL    HW3 9789   3.477   5.589   4.270  0.4371 -0.3647 -0.0149
 2504SOL    MW4 9790   3.407   5.541   4.252  0.0753  0.3379 -0.5309
 2505SOL     OW 9791   4.731   1.523   0.229 -0.4134 -0.4865 -0.4690
 2505SOL    HW2 9792   4.753   1.584   0.299  0.2583  1.1468 -2.0148
 2505SOL    HW3 9793   4.651   1.480   0.258 -0.9776  1.2162  0.6560
 2505SOL    MW4 9794   4.724   1.525   0.242 -0.3992 -0.0463 -0.5245
 2506SOL     OW 9795   2.637   0.572   1.043 -0.2638 -0.1781  0.4699
 2506SOL    HW2 9796   2.672   0.649   1.087  0.2248  0.5157 -1.0513
 2506SOL    HW3 9797   2.554   0.601   1.006 -0.2922 -0.5170  0.2657
 2506SOL    MW4 9798   2.631   0.586   1.044 -0.2031 -0.1312  0.2423
 2507SOL     OW 9799   1.964   2.818   1.926  0.2551 -0.6342  0.0278
 2507SOL    HW2 9800   2.042   2.859   1.964 -0.1758  0.2852 -0.0651
 2507SOL    HW3 9801   1.995   2.732   1.896  1.8803  0.6525 -2.2935
 2507SOL    MW4 9802   1.979   2.812   1.927  0.4126 -0.3431 -0.2908
 2508SOL     OW 9803   0.786   1.158   0.038 -0.0426 -0.0433  0.0094
 2508SOL    HW2 9804   0.808   1.122   0.124  0.1424  0.3703  0.1365
 2508SOL    HW3 9805   0.811   1.250   0.044 -0.8099  0.1774 -0.2095
 2508SOL    MW4 9806   0.792   1.165   0.050 -0.1194  0.0404 -0.0027
 2509SOL     OW 9807   6.372   5.397   1.456  0.1575  0.0985  0.6243
 2509SOL    HW2 9808   6.351   5.307   1.433 -0.6930  0.4147  0.1544
 2509SOL    HW3 9809   6.312   5.419   1.527  1.1080 -0.0592  1.4988
 2509SOL    MW4 9810   6.362   5.388   1.462  0.1707  0.1194  0.6777
 2510SOL     OW 9811   4.508   2.561   1.871  0.1815  0.2840  0.2886
 2510SOL    HW2 9812   4.556   2.493   1.917 -0.2461 -1.2535 -1.3904
 2510SOL    HW3 9813   4.419   2.527   1.865  0.2465  0.3545 -1.6892
 2510SOL    MW4 9814   4.503   2.547   1.876  0.1336  0.0904 -0.1939
 2511SOL     OW 9815   5.081   1.118   2.556  0.0709 -0.1721 -0.4239
 2511SOL    HW2 9816   5.068   1.031   2.518  0.9000 -0.5256  0.0816
 2511SOL    HW3 9817   5.038   1.114   2.641  1.0678 -0.4649  0.0813
 2511SOL    MW4 9818   5.073   1.106   2.562  0.3118 -0.2573 -0.2906
 2512SOL     OW 9819   5.892   3.863   4.187  0.2139 -0.2468  0.2972
 2512SOL    HW2 9820   5.838   3.870   4.266  0.7761 -1.8183  0.8470
 2512SOL    HW3 9821   5.954   3.935   4.194  0.9258 -0.9746  1.8351
 2512SOL    MW4 9822   5.893   3.874   4.198  0.3820 -0.5501  0.5726
 2513SOL     OW 9823   3.269   3.013   4.863  0.0892  0.1489  0.3776
 2513SOL    HW2 9824   3.238   2.939   4.915  1.7027 -0.5972  0.3262
 2513SOL    HW3 9825   3.296   3.079   4.927  1.9533 -0.7190  0.5334
 2513SOL    MW4 9826   3.268   3.012   4.878  0.5480 -0.0640  0.3914
 2514SOL     OW 9827   0.350   4.047   1.362 -0.6118  0.6854  0.4305
 2514SOL    HW2 9828   0.327   3.994   1.286 -0.4374  1.7521 -0.3906
 2514SOL    HW3 9829   0.422   4.102   1.332  0.0735  0.4903  1.6527
 2514SOL    MW4 9830   0.356   4.047   1.348 -0.4984  0.8004  0.4834
 2515SOL     OW 9831   2.927   0.869   0.954  0.3220 -0.1086  0.4672
 2515SOL    HW2 9832   2.968   0.784   0.941  0.4673  0.0542 -0.1791
 2515SOL    HW3 9833   2.834   0.853   0.940  0.2755 -0.2728  0.9290
 2515SOL    MW4 9834   2.920   0.856   0.951  0.3351 -0.1088  0.4429
 2516SOL     OW 9835   0.892   5.152   1.089  0.3931 -0.7493  0.3629
 2516SOL    HW2 9836   0.888   5.090   1.016 -1.1761  1.6455 -1.7480
 2516SOL    HW3 9837   0.978   5.193   1.081  0.7730 -1.4549  0.7423
 2516SOL    MW4 9838   0.903   5.149   1.078  0.2362 -0.5264  0.1344
 2517SOL     OW 9839   3.296   0.721   5.998 -0.4139  0.4194  0.2002
 2517SOL    HW2 9840   3.272   0.814   5.989  2.6626  1.1772 -1.5155
 2517SOL    HW3 9841   3.383   0.723   6.037  0.4757 -1.6548 -1.5340
 2517SOL    MW4 9842   3.304   0.734   6.002  0.1094  0.2457 -0.2550
 2518SOL     OW 9843   2.688   1.224   6.294 -0.1901  0.3395 -0.4381
 2518SOL    HW2 9844   2.671   1.302   6.240 -0.9045  0.6182  0.1631
 2518SOL    HW3 9845   2.681   1.151   6.233  1.0495  0.7703 -1.1329
 2518SOL    MW4 9846   2.685   1.225   6.279 -0.1208  0.4331 -0.4504
 2519SOL     OW 9847   5.556   2.159   0.809  0.7559 -0.4827 -0.0749
 2519SOL    HW2 9848   5.491   2.224   0.837  1.8055  0.8853 -0.6828
 2519SOL    HW3 9849   5.504   2.082   0.785 -0.4666 -0.2098  1.5268
 2519SOL    MW4 9850   5.540   2.157   0.809  0.7331 -0.2662  0.0562
 2520SOL     OW 9851   1.670   3.264   0.765 -0.8744 -0.2486  0.3148
 2520SOL    HW2 9852   1.748   3.290   0.716  0.6725 -1.0402  2.1985
 2520SOL    HW3 9853   1.692   3.180   0.804 -2.2222  0.0169  1.8104
 2520SOL    MW4 9854   1.683   3.257   0.764 -0.8481 -0.3180  0.7606
 2521SOL     OW 9855   2.318   3.236   4.054 -0.1954  0.1780  0.7221
 2521SOL    HW2 9856   2.274   3.306   4.007  0.2432  0.0934  0.1760
 2521SOL    HW3 9857   2.396   3.277   4.092  0.3917 -0.1269 -0.1096
 2521SOL    MW4 9858   2.323   3.250   4.053 -0.0601  0.1266  0.5403
 2522SOL     OW 9859   5.223   4.200   0.033  0.2203  0.3988 -0.0935
 2522SOL    HW2 9860   5.234   4.106   0.050  0.1190  0.5977  1.1217
 2522SOL    HW3 9861   5.130   4.216   0.049  0.4006  0.8626  0.4749
 2522SOL    MW4 9862   5.212   4.189   0.037  0.2307  0.4863  0.1418
 2523SOL     OW 9863   3.860   3.265   2.433  0.0055  0.2659 -0.0488
 2523SOL    HW2 9864   3.813   3.344   2.406  0.1668  0.2234 -0.4675
 2523SOL    HW3 9865   3.793   3.196   2.435 -0.4038  0.6751  1.6174
 2523SOL    MW4 9866   3.845   3.266   2.430 -0.0273  0.3143  0.1158
 2524SOL     OW 9867   4.001   3.598   5.943  0.3500  0.3805  0.4138
 2524SOL    HW2 9868   3.998   3.612   6.038  1.2938  1.0190  0.3637
 2524SOL    HW3 9869   3.909   3.595   5.917  0.0784  0.4344  1.3198
 2524SOL    MW4 9870   3.988   3.600   5.952  0.4387  0.4718  0.5267
 2525SOL     OW 9871   0.837   6.237   2.920 -0.0170  0.1818 -0.2397
 2525SOL    HW2 9872   0.814   6.146   2.907 -0.3495  0.3204 -0.6454
 2525SOL    HW3 9873   0.765   6.274   2.972  0.4500  0.0551  0.5237
 2525SOL    MW4 9874   0.825   6.230   2.925  0.0007  0.1834 -0.1925
 2526SOL     OW 9875   0.420   0.230   5.223 -0.4823  0.4691 -0.1094
 2526SOL    HW2 9876   0.458   0.306   5.179 -0.0759  1.4786  1.8565
 2526SOL    HW3 9877   0.326   0.246   5.222 -0.3511  1.4306  0.9677
 2526SOL    MW4 9878   0.413   0.242   5.217 -0.4114  0.7292  0.2921
 2527SOL     OW 9879   3.675   0.856   2.144  0.3455 -0.4296  0.1143
 2527SOL    HW2 9880   3.672   0.928   2.207 -0.9651 -0.3853  0.0287
 2527SOL    HW3 9881   3.768   0.842   2.129  0.6486  1.5090 -0.1468
 2527SOL    MW4 9882   3.686   0.864   2.150  0.2125 -0.1680  0.0686
 2528SOL     OW 9883   0.079   5.706   5.602 -0.3030  0.7468  0.3609
 2528SOL    HW2 9884   0.032   5.635   5.559 -0.7527  0.9538  0.5112
 2528SOL    HW3 9885   0.171   5.688   5.583 -0.3881 -0.0416  0.6511
 2528SOL    MW4 9886   0.085   5.694   5.594 -0.3736  0.6701  0.4190
 2529SOL     OW 9887   1.599   0.487   5.324 -0.0870 -0.0745  0.2622
 2529SOL    HW2 9888   1.594   0.581   5.344  1.4262 -0.3527  2.3588
 2529SOL    HW3 9889   1.510   0.455   5.333 -0.6710  1.1810 -0.7431
 2529SOL    MW4 9890   1.587   0.495   5.328  0.0356  0.0544  0.4061
 2530SOL     OW 9891   1.876   1.305   4.435  0.4758  0.1251  0.2517
 2530SOL    HW2 9892   1.803   1.267   4.484  0.8293 -1.1854 -0.1795
 2530SOL    HW3 9893   1.943   1.323   4.500 -0.5632  2.3217  0.8129
 2530SOL    MW4 9894   1.875   1.302   4.450  0.3854  0.2420  0.2688
 2531SOL     OW 9895   4.423   3.640   4.413  0.3520  0.1902 -0.1040
 2531SOL    HW2 9896   4.435   3.636   4.318  2.0940  0.6366  0.0561
 2531SOL    HW3 9897   4.498   3.592   4.448 -0.2898  0.0074  1.0466
 2531SOL    MW4 9898   4.435   3.633   4.405  0.4972  0.2250  0.0690
 2532SOL     OW 9899   0.459   5.868   0.850  0.1241 -0.1890  0.5797
 2532SOL    HW2 9900   0.365   5.866   0.833 -0.4924 -1.8230  3.4447
 2532SOL    HW3 9901   0.481   5.961   0.857 -0.9456  0.2651 -1.3926
 2532SOL    MW4 9902   0.449   5.880   0.848 -0.0984 -0.3447  0.6975
 2533SOL     OW 9903   1.456   3.985   5.669  0.1907  0.0355 -0.3754
 2533SOL    HW2 9904   1.480   3.910   5.615 -1.2133 -0.1210 -0.8096
 2533SOL    HW3 9905   1.362   3.996   5.656 -0.0747  0.4240  1.4963
 2533SOL    MW4 9906   1.447   3.977   5.660 -0.0295  0.0661 -0.1858
 2534SOL     OW 9907   5.329   5.218   0.772 -0.6325 -0.2729 -0.7046
 2534SOL    HW2 9908   5.234   5.234   0.773 -0.7866 -1.1769 -0.2041
 2534SOL    HW3 9909   5.338   5.127   0.745  0.0902 -0.2728 -0.4769
 2534SOL    MW4 9910   5.318   5.208   0.768 -0.5575 -0.3922 -0.6085
 2535SOL     OW 9911   1.725   1.307   4.204  0.4066  0.4823  0.4669
 2535SOL    HW2 9912   1.804   1.321   4.152  0.8262 -1.3804  0.5356
 2535SOL    HW3 9913   1.753   1.320   4.294  0.8355 -0.8121  0.5441
 2535SOL    MW4 9914   1.739   1.311   4.209  0.5185  0.0657  0.4861
 2536SOL     OW 9915   1.754   0.894   2.915 -0.1261 -0.6902 -0.4559
 2536SOL    HW2 9916   1.717   0.854   2.836 -1.0712 -0.3188 -0.2073
 2536SOL    HW3 9917   1.705   0.854   2.987 -0.6681  0.4761 -0.1692
 2536SOL    MW4 9918   1.743   0.883   2.914 -0.3223 -0.4873 -0.3853
 2537SOL     OW 9919   1.800   0.815   6.122  0.1332 -0.4135 -0.1478
 2537SOL    HW2 9920   1.835   0.754   6.186  0.0038 -0.5560 -0.2102
 2537SOL    HW3 9921   1.769   0.890   6.173 -0.4468 -0.7535  0.0081
 2537SOL    MW4 9922   1.800   0.817   6.137  0.0396 -0.4771 -0.1355
 2538SOL     OW 9923   6.364   0.704   5.342  0.1669 -0.3163  0.3341
 2538SOL    HW2 9924   6.302   0.777   5.342 -0.8942 -1.1999 -0.0367
 2538SOL    HW3 9925   6.389   0.694   5.250 -0.9238 -1.4073  0.1214
 2538SOL    MW4 9926   6.359   0.713   5.330 -0.1170 -0.5768  0.2571
 2539SOL     OW 9927   6.038   0.433   2.234  0.4338  0.5443 -0.6249
 2539SOL    HW2 9928   6.017   0.369   2.166  1.0744  0.7760 -1.0431
 2539SOL    HW3 9929   6.029   0.518   2.191  1.3096  0.6775 -0.5559
 2539SOL    MW4 9930   6.034   0.435   2.219  0.6339  0.5924 -0.6709
 2540SOL     OW 9931   5.754   2.901   3.552  0.2122  0.3058  0.4968
 2540SOL    HW2 9932   5.827   2.869   3.498 -2.2065 -1.6737 -1.9144
 2540SOL    HW3 9933   5.768   2.995   3.557  1.7418  0.3083 -1.8644
 2540SOL    MW4 9934   5.765   2.909   3.545  0.0949  0.0450 -0.1329
 2541SOL     OW 9935   0.637   3.547   1.700 -0.5399 -0.7727 -0.6048
 2541SOL    HW2 9936   0.656   3.464   1.743  0.1299 -0.3773 -0.1022
 2541SOL    HW3 9937   0.671   3.536   1.611  0.0299 -0.8561 -0.3800
 2541SOL    MW4 9938   0.644   3.535   1.694 -0.3763 -0.7315 -0.5089
 2542SOL     OW 9939   1.226   5.722   0.591 -0.0126  0.2839  0.4315
 2542SOL    HW2 9940   1.221   5.817   0.583 -2.7341  0.1962  0.3364
 2542SOL    HW3 9941   1.274   5.707   0.673  1.0365  1.6795  0.1163
 2542SOL    MW4 9942   1.232   5.733   0.601 -0.2333  0.4565  0.3774
 2543SOL     OW 9943   1.182   0.909   0.083  0.1749 -0.1241 -0.8973
 2543SOL    HW2 9944   1.130   0.831   0.068  1.0887 -0.6843 -1.2196
 2543SOL    HW3 9945   1.136   0.978   0.036  0.5379 -0.9312 -2.5153
 2543SOL    MW4 9946   1.169   0.908   0.075  0.3434 -0.3045 -1.1533
 2544SOL     OW 9947   2.185   2.407   6.383 -0.3706  0.0991  0.2428
 2544SOL    HW2 9948   2.105   2.458   6.375 -1.0204 -0.8925  0.2706
 2544SOL    HW3 9949   2.182   2.372   6.472 -0.4263 -0.7819 -0.0995
 2544SOL    MW4 9950   2.174   2.409   6.394 -0.4637 -0.1480  0.2013
 2545SOL     OW 9951   5.435   0.206   0.455 -0.0704 -0.2736  0.3737
 2545SOL    HW2 9952   5.355   0.177   0.411  1.1152 -1.8314 -0.8819
 2545SOL    HW3 9953   5.431   0.167   0.542 -0.6013 -0.4775  0.2608
 2545SOL    MW4 9954   5.424   0.197   0.461  0.0160 -0.5060  0.1932
 2546SOL     OW 9955   4.528   3.911   4.747  0.6420 -0.1487 -0.0627
 2546SOL    HW2 9956   4.439   3.915   4.780  0.9215 -1.0778  0.8710
 2546SOL    HW3 9957   4.579   3.965   4.807  0.8255 -0.2620 -0.1139
 2546SOL    MW4 9958   4.523   3.918   4.759  0.7031 -0.2862  0.0537
 2547SOL     OW 9959   0.441   4.909   3.895  0.2461 -0.1721 -0.3150
 2547SOL    HW2 9960   0.463   4.847   3.826  0.7928 -0.7974  0.4087
 2547SOL    HW3 9961   0.518   4.911   3.951 -0.2230  0.2649  0.3302
 2547SOL    MW4 9962   0.454   4.901   3.893  0.2563 -0.1970 -0.1344
 2548SOL     OW 9963   3.440   0.402   4.432 -0.1338  0.5169 -0.3927
 2548SOL    HW2 9964   3.486   0.412   4.348  1.4794 -0.2974  0.3452
 2548SOL    HW3 9965   3.423   0.491   4.461  0.2494  0.8284 -1.0885
 2548SOL    MW4 9966   3.444   0.415   4.425  0.1296  0.4505 -0.3872
 2549SOL     OW 9967   0.032   0.320   0.267 -0.4317 -0.4137 -0.1452
 2549SOL    HW2 9968   0.024   0.350   0.357  0.1887 -1.9596  0.4683
 2549SOL    HW3 9969  -0.025   0.378   0.217 -0.4937  0.7148  1.1757
 2549SOL    MW4 9970   0.023   0.331   0.272 -0.3580 -0.4688  0.1100
 2550SOL     OW 9971   6.185   6.093   0.102 -0.0074 -0.1978  0.2119
 2550SOL    HW2 9972   6.221   6.167   0.150  1.9454 -0.9266 -0.0289
 2550SOL    HW3 9973   6.124   6.052   0.163 -0.8920  1.3973  0.4448
 2550SOL    MW4 9974   6.182   6.097   0.116  0.1335 -0.0835  0.2109
 2551SOL     OW 9975   2.088   1.355   1.591 -0.2590 -0.2128 -0.5966
 2551SOL    HW2 9976   2.007   1.398   1.619 -0.0556 -0.1400 -0.1067
 2551SOL    HW3 9977   2.094   1.375   1.498 -0.8875 -0.3551 -0.6704
 2551SOL    MW4 9978   2.078   1.364   1.583 -0.3151 -0.2220 -0.5417
 2552SOL     OW 9979   4.352   1.045   3.343  0.5280 -0.0763 -0.4039
 2552SOL    HW2 9980   4.358   1.027   3.437  1.3768 -0.4326 -0.5151
 2552SOL    HW3 9981   4.258   1.055   3.326  0.3672 -0.0429  0.4726
 2552SOL    MW4 9982   4.341   1.044   3.353  0.6188 -0.1189 -0.3029
 2553SOL     OW 9983   4.012   2.991   1.874 -0.4289  0.4635 -0.4768
 2553SOL    HW2 9984   3.919   2.986   1.899 -0.5307 -1.4561 -1.1013
 2553SOL    HW3 9985   4.010   2.990   1.778  0.2310  0.7981 -0.4941
 2553SOL    MW4 9986   3.999   2.990   1.864 -0.3552  0.2544 -0.5615
 2554SOL     OW 9987   4.199   3.428   5.242  0.4698 -1.0582 -0.5786
 2554SOL    HW2 9988   4.287   3.449   5.211  0.3244 -1.5219 -1.3395
 2554SOL    HW3 9989   4.166   3.364   5.179 -0.8877  0.0646 -1.0794
 2554SOL    MW4 9990   4.206   3.423   5.229  0.2715 -0.9712 -0.7451
 2555SOL     OW 9991   3.705   3.584   6.031 -0.2307  0.8520 -0.3107
 2555SOL    HW2 9992   3.684   3.598   5.938  0.6011 -1.6961 -0.9474
 2555SOL    HW3 9993   3.625   3.550   6.069 -0.2181  0.7592 -0.3679
 2555SOL    MW4 9994   3.692   3.582   6.024 -0.1193  0.5036 -0.4022
 2556SOL     OW 9995   4.034   2.395   4.277 -0.2672 -0.1998  0.0319
 2556SOL    HW2 9996   4.007   2.429   4.192 -0.1741 -2.2581 -0.8794
 2556SOL    HW3 9997   3.954   2.358   4.314  0.1609 -1.4344 -0.2406
 2556SOL    MW4 9998   4.020   2.395   4.271 -0.1984 -0.6343 -0.1243
 2557SOL     OW 9999   2.769   0.466   6.042 -0.9282  0.1440 -0.4841
 2557SOL    HW210000   2.742   0.488   6.131  0.4826  1.5991 -0.3568
 2557SOL    HW310001   2.831   0.394   6.052  0.5008  1.3723 -0.0668
 2557SOL    MW410002   2.774   0.459   6.055 -0.5535  0.4981 -0.4122
 2558SOL     OW10003   3.040   3.242   5.852 -0.2000 -0.5181 -0.4684
 2558SOL    HW210004   3.077   3.218   5.937  0.8631  0.2339 -0.6947
 2558SOL    HW310005   2.953   3.202   5.851 -1.0425  1.0590  1.7718
 2558SOL    MW410006   3.033   3.233   5.863 -0.1709 -0.2108 -0.2027
 2559SOL     OW10007   2.559   2.643   0.466 -0.2919 -0.3248 -0.3647
 2559SOL    HW210008   2.552   2.576   0.534  0.8548  0.1507  0.2411
 2559SOL    HW310009   2.473   2.642   0.423 -0.7278 -1.2704  0.4859
 2559SOL    MW410010   2.547   2.634   0.470 -0.1981 -0.3868 -0.1725
 2560SOL     OW10011   3.400   5.695   2.929 -0.2365  0.5837 -0.4140
 2560SOL    HW210012   3.306   5.679   2.927 -0.4890  1.9504 -1.8563
 2560SOL    HW310013   3.437   5.627   2.873 -0.3082 -0.2238  0.5090
 2560SOL    MW410014   3.392   5.684   2.921 -0.2793  0.6575 -0.4825
 2561SOL     OW10015   5.245   4.286   4.121 -0.8203 -0.2415  0.5499
 2561SOL    HW210016   5.324   4.250   4.080  0.3657  0.1224  2.4289
 2561SOL    HW310017   5.216   4.217   4.181 -1.3950 -0.0018  0.5540
 2561SOL    MW410018   5.251   4.272   4.124 -0.7396 -0.1619  0.7983
 2562SOL     OW10019   0.978   4.978   1.783 -0.0134  0.7803 -0.1855
 2562SOL    HW210020   1.059   5.013   1.820  0.1100 -0.3449  0.6720
 2562SOL    HW310021   0.930   4.945   1.859  0.2057 -1.5213 -0.9688
 2562SOL    MW410022   0.982   4.978   1.798  0.0318  0.3282 -0.1757
 2563SOL     OW10023   3.047   3.232   5.204 -0.5047  0.5968 -0.3622
 2563SOL    HW210024   2.981   3.163   5.204 -0.3059  0.3853 -1.4648
 2563SOL    HW310025   3.023   3.288   5.278  0.4667 -1.7197  1.9053
 2563SOL    MW410026   3.035   3.230   5.214 -0.3503  0.2633 -0.2085
 2564SOL     OW10027   0.594   3.566   0.049 -0.0586  0.2637  0.0711
 2564SOL    HW210028   0.594   3.616   0.130 -1.0805  0.7498 -0.2076
 2564SOL    HW310029   0.686   3.565   0.021  0.3424 -0.1475  1.3561
 2564SOL    MW410030   0.606   3.573   0.056 -0.1405  0.2736  0.2039
 2565SOL     OW10031   0.544   3.505   4.603  0.6358 -0.6133 -0.5817
 2565SOL    HW210032   0.552   3.471   4.693 -0.4749 -0.1499 -0.2997
 2565SOL    HW310033   0.558   3.599   4.612 -0.9906 -0.3479 -0.6544
 2565SOL    MW410034   0.547   3.513   4.616  0.2746 -0.5171 -0.5540
 2566SOL     OW10035   5.777   1.812   5.450  0.5167  0.2748  0.3043
 2566SOL    HW210036   5.871   1.813   5.433  0.5208 -0.7330  0.2402
 2566SOL    HW310037   5.736   1.824   5.364  0.5771 -0.7065  0.1349
 2566SOL    MW410038   5.784   1.814   5.437  0.5252  0.0124  0.2735
 2567SOL     OW10039   2.417   0.756   4.295  0.3186  0.2127  0.2315
 2567SOL    HW210040   2.442   0.846   4.275 -1.7214  0.6779 -0.4735
 2567SOL    HW310041   2.421   0.751   4.390 -0.8733  1.5180  0.3894
 2567SOL    MW410042   2.421   0.767   4.305 -0.1078  0.4463  0.1593
 2568SOL     OW10043   2.514   2.033   3.330 -0.0183 -0.7111 -0.0647
 2568SOL    HW210044   2.520   1.946   3.371  3.1872 -0.0364  1.1816
 2568SOL    HW310045   2.506   2.093   3.403 -0.9997  0.1598 -0.8628
 2568SOL    MW410046   2.514   2.029   3.345  0.2752 -0.5072 -0.0056
 2569SOL     OW10047   4.794   0.712   1.986 -0.2519 -0.4569  0.0660
 2569SOL    HW210048   4.705   0.678   1.994 -0.3945 -0.0487  0.2456
 2569SOL    HW310049   4.850   0.635   1.994 -0.5170 -0.5252  1.6851
 2569SOL    MW410050   4.790   0.698   1.988 -0.3057 -0.4121  0.3033
 2570SOL     OW10051   2.401   1.378   0.905  0.0502 -0.3924 -0.4436
 2570SOL    HW210052   2.414   1.333   0.821 -1.5686  0.9996 -1.5153
 2570SOL    HW310053   2.318   1.342   0.937 -0.0996  0.1755 -0.1907
 2570SOL    MW410054   2.391   1.367   0.898 -0.1832 -0.1338 -0.5517
 2571SOL     OW10055   5.722   5.503   1.063  0.1179  0.1167 -0.1805
 2571SOL    HW210056   5.749   5.546   1.144 -1.3224  2.0656 -0.6740
 2571SOL    HW310057   5.701   5.413   1.090  1.6588  0.0951  1.1722
 2571SOL    MW410058   5.723   5.497   1.077  0.1312  0.3710 -0.0671
 2572SOL     OW10059   0.568   5.475   4.728 -0.6232  0.3633  0.3198
 2572SOL    HW210060   0.587   5.484   4.822  2.0715  2.3970 -0.2955
 2572SOL    HW310061   0.623   5.402   4.699 -2.1074 -0.8362  0.4235
 2572SOL    MW410062   0.578   5.467   4.737 -0.4635  0.4734  0.2523
 2573SOL     OW10063   4.683   4.529   1.155 -0.1910 -0.1174 -0.2194
 2573SOL    HW210064   4.689   4.458   1.091 -0.5911  1.4503 -2.0824
 2573SOL    HW310065   4.769   4.532   1.196 -0.0730 -1.4665 -0.3084
 2573SOL    MW410066   4.695   4.520   1.152 -0.2282 -0.0885 -0.4769
 2574SOL     OW10067   1.301   2.332   2.057 -0.5052  0.5691 -0.1157
 2574SOL    HW210068   1.289   2.423   2.085 -1.4377  1.0539 -1.9066
 2574SOL    HW310069   1.219   2.310   2.013  0.3681 -0.5265 -1.2607
 2574SOL    MW410070   1.289   2.341   2.055 -0.5130  0.4885 -0.5031
 2575SOL     OW10071   5.300   5.959   4.362 -0.1299  0.4659 -0.0132
 2575SOL    HW210072   5.291   5.913   4.445  1.5826  0.6014  0.2998
 2575SOL    HW310073   5.339   5.895   4.302 -0.4795  0.6410 -0.4366
 2575SOL    MW410074   5.304   5.945   4.365  0.0499  0.5069 -0.0277
 2576SOL     OW10075   0.392   4.608   3.533 -0.3603 -0.8494 -0.3264
 2576SOL    HW210076   0.410   4.588   3.441  0.4381 -2.6902  0.1973
 2576SOL    HW310077   0.427   4.696   3.546 -1.7079  0.0231 -2.0975
 2576SOL    MW410078   0.399   4.617   3.523 -0.4328 -0.9772 -0.4910
 2577SOL     OW10079   5.243   4.204   2.577  0.2393 -0.3067 -0.5235
 2577SOL    HW210080   5.179   4.259   2.532 -0.3789 -0.7891 -0.2406
 2577SOL    HW310081   5.254   4.245   2.663 -0.3155 -0.6850 -0.2662
 2577SOL    MW410082   5.236   4.216   2.582  0.0846 -0.4203 -0.4522
 2578SOL     OW10083   4.724   2.544   4.989  0.4079 -0.2267  0.1192
 2578SOL    HW210084   4.730   2.611   4.922  1.9702  0.7968  1.2152
 2578SOL    HW310085   4.663   2.580   5.054  1.1413  0.0966  0.6413
 2578SOL    MW410086   4.717   2.557   4.989  0.7108 -0.0490  0.3327
 2579SOL     OW10087   5.659   4.883   4.901  0.1466 -0.0219 -0.3428
 2579SOL    HW210088   5.704   4.950   4.952  0.3362 -0.4553  0.0611
 2579SOL    HW310089   5.571   4.880   4.938  0.0795  0.1328 -0.4861
 2579SOL    MW410090   5.653   4.892   4.913  0.1627 -0.0586 -0.3084
 2580SOL     OW10091   0.675   0.594   4.100  0.4683  0.0215 -0.2831
 2580SOL    HW210092   0.743   0.612   4.035  0.8876 -1.4902 -0.2936
 2580SOL    HW310093   0.593   0.615   4.056  0.8326  0.3101 -0.8316
 2580SOL    MW410094   0.673   0.599   4.086  0.5717 -0.1399 -0.3568
 2581SOL     OW10095   1.690   1.898   5.586 -0.2798 -0.7331  0.0147
 2581SOL    HW210096   1.785   1.892   5.583 -0.1664  0.6887 -2.4725
 2581SOL    HW310097   1.660   1.812   5.555  0.2293 -0.9664  0.1713
 2581SOL    MW410098   1.699   1.886   5.581 -0.1977 -0.5763 -0.2928
 2582SOL     OW10099   1.811   2.170   4.695  0.1311  0.0161  0.0117
 2582SOL    HW210100   1.757   2.220   4.633 -2.2295 -0.7665  1.3364
 2582SOL    HW310101   1.793   2.079   4.675  0.4191 -0.2560  0.9467
 2582SOL    MW410102   1.802   2.165   4.684 -0.1423 -0.1230  0.3098
 2583SOL     OW10103   5.711   5.251   3.435 -0.4760 -0.1385  0.1936
 2583SOL    HW210104   5.676   5.340   3.443 -1.1411 -0.3176 -0.5597
 2583SOL    HW310105   5.659   5.200   3.498 -1.3077 -0.3177 -0.6106
 2583SOL    MW410106   5.699   5.256   3.445 -0.6735 -0.1858 -0.0119
 2584SOL     OW10107   3.564   2.947   4.582  0.4964 -0.3508 -0.4423
 2584SOL    HW210108   3.646   2.897   4.591  0.6084  0.1641  2.3674
 2584SOL    HW310109   3.578   3.024   4.636 -0.3851  1.8941 -3.1849
 2584SOL    MW410110   3.577   2.950   4.590  0.3949  0.0133 -0.4334
 2585SOL     OW10111   2.500   2.864   0.953 -0.3156 -0.4445 -0.0226
 2585SOL    HW210112   2.421   2.889   1.001 -1.0480  0.3355 -1.5515
 2585SOL    HW310113   2.560   2.937   0.966 -0.6864 -0.0170 -0.6190
 2585SOL    MW410114   2.497   2.877   0.961 -0.4611 -0.2852 -0.3030
 2586SOL     OW10115   3.219   2.811   4.454  0.4903 -0.0751 -0.4394
 2586SOL    HW210116   3.188   2.804   4.363  0.8952 -0.3662 -0.5571
 2586SOL    HW310117   3.140   2.830   4.505  0.0264 -1.3608 -0.6648
 2586SOL    MW410118   3.204   2.813   4.448  0.4825 -0.2831 -0.4847
 2587SOL     OW10119   0.696   3.448   5.464  0.6240  0.3156  0.3084
 2587SOL    HW210120   0.767   3.510   5.447  1.1898 -0.0807  1.1716
 2587SOL    HW310121   0.681   3.453   5.558  0.8564 -1.0299  0.4425
 2587SOL    MW410122   0.704   3.457   5.474  0.7293  0.0858  0.4400
 2588SOL     OW10123   0.522   1.782   5.567  0.0216 -0.5463 -0.0903
 2588SOL    HW210124   0.565   1.847   5.622 -1.3732 -0.3079  0.7564
 2588SOL    HW310125   0.558   1.698   5.597  2.1651 -0.2077 -1.4941
 2588SOL    MW410126   0.532   1.779   5.578  0.1204 -0.4702 -0.1638
 2589SOL     OW10127   3.021   0.544   4.401  0.2454  0.0227  0.3371
 2589SOL    HW210128   3.083   0.479   4.434  2.2244  0.7969 -1.6039
 2589SOL    HW310129   3.007   0.520   4.309 -0.0291  1.5384 -0.0546
 2589SOL    MW410130   3.027   0.532   4.393  0.4703  0.3248  0.0293
 2590SOL     OW10131   1.372   2.100   3.220 -0.5594  0.1575 -0.3139
 2590SOL    HW210132   1.282   2.122   3.196 -0.7674  0.4001  0.6187
 2590SOL    HW310133   1.420   2.182   3.210 -0.8107  0.4598  0.7869
 2590SOL    MW410134   1.366   2.114   3.216 -0.6200  0.2294 -0.0457
 2591SOL     OW10135   1.313   1.559   3.260  0.1927  0.0854  0.8531
 2591SOL    HW210136   1.348   1.646   3.278  0.0619  0.0650  1.2158
 2591SOL    HW310137   1.379   1.499   3.295  1.5870 -0.0251 -1.7347
 2591SOL    MW410138   1.326   1.562   3.267  0.3594  0.0681  0.5595
 2592SOL     OW10139   2.435   6.396   2.152  0.0775  0.0455 -0.4666
 2592SOL    HW210140   2.377   6.335   2.106 -0.5822  1.6958 -1.9071
 2592SOL    HW310141   2.497   6.424   2.084 -1.9370  3.8458 -0.9889
 2592SOL    MW410142   2.436   6.391   2.137 -0.2753  0.7646 -0.7256
 2593SOL     OW10143   2.663   2.673   6.246 -0.1951 -0.1709 -0.0100
 2593SOL    HW210144   2.664   2.643   6.337 -1.2857  0.7685  0.3428
 2593SOL    HW310145   2.694   2.763   6.250  0.9538 -0.5151 -0.7551
 2593SOL    MW410146   2.667   2.681   6.258 -0.1874 -0.0924 -0.0618
 2594SOL     OW10147   2.860   4.107   4.260  0.3554 -0.2148  0.0654
 2594SOL    HW210148   2.891   4.191   4.292  0.1936  0.2622 -0.9957
 2594SOL    HW310149   2.766   4.119   4.248  0.2390 -0.7227  0.4294
 2594SOL    MW410150   2.852   4.119   4.263  0.3187 -0.2189 -0.0266
 2595SOL     OW10151   2.405   5.045   0.726  0.1920  0.0230  0.2105
 2595SOL    HW210152   2.362   5.053   0.641  1.7429 -1.5670 -0.7785
 2595SOL    HW310153   2.334   5.056   0.789 -0.8770  1.9563 -1.2350
 2595SOL    MW410154   2.390   5.047   0.723  0.2556  0.0683 -0.1107
 2596SOL     OW10155   3.894   2.605   3.163  0.1740 -0.1374 -0.4937
 2596SOL    HW210156   3.810   2.580   3.203  0.4738 -0.2821  0.0576
 2596SOL    HW310157   3.958   2.546   3.202  0.4738 -0.3114 -1.2309
 2596SOL    MW410158   3.891   2.594   3.173  0.2531 -0.1794 -0.5183
 2597SOL     OW10159   0.197   5.378   3.066  0.0782 -0.0053 -0.0512
 2597SOL    HW210160   0.221   5.355   3.156 -1.0504 -0.7382  0.0858
 2597SOL    HW310161   0.210   5.297   3.016 -2.3315 -0.5598  0.0989
 2597SOL    MW410162   0.202   5.364   3.071 -0.3886 -0.1752 -0.0133
 2598SOL     OW10163   1.681   2.319   0.327 -0.0924  0.2672  0.3228
 2598SOL    HW210164   1.750   2.384   0.316  0.8739 -0.7055  0.3445
 2598SOL    HW310165   1.653   2.299   0.237  1.7902 -1.4787  0.0412
 2598SOL    MW410166   1.687   2.325   0.314  0.2835 -0.0915  0.2885
 2599SOL     OW10167   0.713   3.029   0.369  0.1774 -0.3000  0.8330
 2599SOL    HW210168   0.709   3.002   0.278 -1.6303 -2.8262  1.5616
 2599SOL    HW310169   0.656   3.106   0.375  0.5494  0.0709 -0.1694
 2599SOL    MW410170   0.705   3.036   0.358 -0.0120 -0.5844  0.7969
 2600SOL     OW10171   2.832   6.055   4.907  0.3717 -0.9710 -0.7045
 2600SOL    HW210172   2.894   5.991   4.942  1.0965 -0.1415 -0.4031
 2600SOL    HW310173   2.832   6.039   4.812 -0.0835 -1.9359 -0.5501
 2600SOL    MW410174   2.840   6.045   4.899  0.4072 -0.9889 -0.6444
 2601SOL     OW10175   2.562   0.411   2.303  0.3049  0.0034 -0.2807
 2601SOL    HW210176   2.557   0.358   2.383 -0.1946 -0.7088 -0.7782
 2601SOL    HW310177   2.471   0.416   2.272  0.7863 -2.0566 -2.3013
 2601SOL    MW410178   2.549   0.405   2.310  0.3025 -0.3624 -0.6129
 2602SOL     OW10179   1.942   4.549   3.243  0.0528 -0.1383 -0.0887
 2602SOL    HW210180   1.916   4.600   3.320  0.2953  0.9308 -0.7002
 2602SOL    HW310181   1.983   4.471   3.279 -0.1186  0.1990  0.8725
 2602SOL    MW410182   1.944   4.546   3.258  0.0622  0.0472 -0.0426
 2603SOL     OW10183   4.015   1.192   2.116  0.0018  0.0296 -0.3397
 2603SOL    HW210184   4.081   1.262   2.108 -1.3699  1.6111  1.1497
 2603SOL    HW310185   4.056   1.127   2.173  1.0943 -0.1183 -1.2649
 2603SOL    MW410186   4.029   1.193   2.122 -0.0351  0.2188 -0.2653
 2604SOL     OW10187   3.044   1.057   3.754 -0.4323 -0.4830  1.0106
 2604SOL    HW210188   2.983   1.062   3.827 -1.4340  0.4417  0.1538
 2604SOL    HW310189   3.086   0.971   3.762 -0.8471 -0.5671  2.3926
 2604SOL    MW410190   3.042   1.046   3.764 -0.6192 -0.3721  1.0799
 2605SOL     OW10191   0.472   3.145   5.585  0.0925  0.7328 -0.3651
 2605SOL    HW210192   0.439   3.056   5.572 -0.1837  0.6992  0.4879
 2605SOL    HW310193   0.421   3.199   5.524 -0.3526  0.4332 -0.2617
 2605SOL    MW410194   0.461   3.141   5.575 -0.0027  0.6888 -0.2389
 2606SOL     OW10195   1.168   6.343   2.111  0.0633  0.1626  0.0138
 2606SOL    HW210196   1.095   6.309   2.059 -0.2726 -3.1856  2.3267
 2606SOL    HW310197   1.163   6.438   2.101 -1.7793 -0.1503 -3.4835
 2606SOL    MW410198   1.158   6.351   2.103 -0.2241 -0.3204 -0.1425
 2607SOL     OW10199   0.138   0.136   2.748 -0.1043 -0.2560 -0.1163
 2607SOL    HW210200   0.185   0.072   2.694  1.4607 -0.9124  1.8990
 2607SOL    HW310201   0.089   0.190   2.685  0.3099 -2.0035 -2.0242
 2607SOL    MW410202   0.138   0.135   2.732  0.1568 -0.5732 -0.1021
 2608SOL     OW10203   0.797   5.967   0.024 -0.8536  0.0591  0.2510
 2608SOL    HW210204   0.869   5.907   0.003 -0.3730  0.9143 -0.6417
 2608SOL    HW310205   0.720   5.912   0.029  0.1349 -1.2478  3.3341
 2608SOL    MW410206   0.797   5.952   0.022 -0.6598 -0.0005  0.5400
 2609SOL     OW10207   4.851   1.088   3.727 -0.1595 -0.3802  0.2436
 2609SOL    HW210208   4.914   1.016   3.718  1.2298  0.9347 -1.1825
 2609SOL    HW310209   4.777   1.062   3.671  0.4425 -0.6049 -0.4654
 2609SOL    MW410210   4.850   1.075   3.718  0.1032 -0.2363 -0.0381
 2610SOL     OW10211   2.471   6.418   5.376  0.2372  0.4931 -0.4330
 2610SOL    HW210212   2.564   6.412   5.352  0.0018  0.8372 -1.4635
 2610SOL    HW310213   2.429   6.455   5.299 -0.8215 -0.0212 -0.1165
 2610SOL    MW410214   2.478   6.422   5.363  0.0664  0.4707 -0.5272
 2611SOL     OW10215   1.961   1.962   5.612  0.2960 -0.0350 -0.6391
 2611SOL    HW210216   1.945   2.006   5.696 -0.8900 -1.6489  0.0519
 2611SOL    HW310217   1.994   2.030   5.554 -1.3564  1.7047  0.3864
 2611SOL    MW410218   1.964   1.977   5.616 -0.0785 -0.0184 -0.4126
 2612SOL     OW10219   5.555   0.861   4.615 -0.1464  0.4345 -0.3741
 2612SOL    HW210220   5.526   0.850   4.705  0.6492 -1.4552 -0.3153
 2612SOL    HW310221   5.474   0.876   4.566 -0.8751 -1.0258  0.3116
 2612SOL    MW410222   5.541   0.862   4.620 -0.1376 -0.0075 -0.2759
 2613SOL     OW10223   2.680   3.915   0.453 -0.3347  0.5039 -0.2636
 2613SOL    HW210224   2.682   4.005   0.419 -0.0139  0.8812  0.7355
 2613SOL    HW310225   2.751   3.870   0.407  0.7254  1.2671  0.5802
 2613SOL    MW410226   2.690   3.921   0.442 -0.1525  0.6544 -0.0204
 2614SOL     OW10227   2.398   1.111   5.706  0.0913  0.3478  0.1511
 2614SOL    HW210228   2.374   1.019   5.690  1.9279  0.0265 -1.0161
 2614SOL    HW310229   2.317   1.151   5.738 -1.0835 -1.3839 -0.4905
 2614SOL    MW410230   2.384   1.104   5.708  0.1786  0.0769 -0.0876
 2615SOL     OW10231   1.928   6.225   0.360  0.3103 -0.0833 -0.0957
 2615SOL    HW210232   1.956   6.306   0.316  1.2399 -0.3295  0.0112
 2615SOL    HW310233   1.941   6.157   0.294 -1.8179  0.0147 -0.6682
 2615SOL    MW410234   1.934   6.227   0.345  0.1522 -0.1028 -0.1571
 2616SOL     OW10235   2.002   1.450   3.446 -0.0293 -0.3529  0.6582
 2616SOL    HW210236   2.079   1.507   3.454 -0.8678  0.8283  0.7049
 2616SOL    HW310237   2.034   1.363   3.466  0.9877  0.3353  2.2316
 2616SOL    MW410238   2.017   1.446   3.449 -0.0057 -0.1062  0.8719
 2617SOL     OW10239   4.041   4.454   1.894 -0.0097  0.3684 -0.0641
 2617SOL    HW210240   4.127   4.438   1.933 -1.2375 -2.5437  1.8086
 2617SOL    HW310241   4.041   4.402   1.813 -0.2985 -0.4593  0.4524
 2617SOL    MW410242   4.052   4.445   1.888 -0.2098 -0.1250  0.2511
 2618SOL     OW10243   4.947   0.163   1.370 -0.4033 -0.1453 -0.1425
 2618SOL    HW210244   4.957   0.237   1.430  1.3524 -2.3227  2.5339
 2618SOL    HW310245   5.027   0.164   1.317 -0.6196  0.1581 -0.4645
 2618SOL    MW410246   4.959   0.173   1.371 -0.2002 -0.3925  0.1681
 2619SOL     OW10247   0.596   3.944   0.991 -0.3264  1.0839  0.0627
 2619SOL    HW210248   0.662   3.885   1.028  0.8704  2.5204  0.2940
 2619SOL    HW310249   0.513   3.907   1.020  0.2609 -1.3357 -1.0594
 2619SOL    MW410250   0.594   3.931   1.000 -0.0910  0.9542 -0.0548
 2620SOL     OW10251   1.529   4.935   6.116 -0.6698 -0.9687 -0.2513
 2620SOL    HW210252   1.509   5.025   6.143  1.1911 -0.7572  0.5806
 2620SOL    HW310253   1.493   4.881   6.186  0.1363 -0.7182  0.3644
 2620SOL    MW410254   1.521   4.940   6.129 -0.3179 -0.9077 -0.0603
 2621SOL     OW10255   4.971   2.461   1.226  0.0116 -0.5427  0.1443
 2621SOL    HW210256   4.910   2.433   1.158 -0.2958 -1.2591  0.7084
 2621SOL    HW310257   5.046   2.402   1.216  0.1934 -0.3069  0.0965
 2621SOL    MW410258   4.973   2.450   1.215 -0.0050 -0.6061  0.2125
 2622SOL     OW10259   1.181   2.893   0.496 -0.0841  0.1898 -0.2766
 2622SOL    HW210260   1.106   2.951   0.485 -0.7838 -0.9394 -1.9500
 2622SOL    HW310261   1.173   2.830   0.425  2.5621  0.1124 -0.6229
 2622SOL    MW410262   1.170   2.892   0.485  0.1727  0.0306 -0.5431
 2623SOL     OW10263   0.724   5.274   1.279  0.7841  0.1514  0.6764
 2623SOL    HW210264   0.769   5.227   1.208  1.2053 -0.9303  1.6296
 2623SOL    HW310265   0.788   5.278   1.349  0.4130  1.3285  0.9670
 2623SOL    MW410266   0.738   5.268   1.279  0.7907  0.1640  0.8405
 2624SOL     OW10267   0.171   5.774   3.636 -0.3395 -0.2843  0.4255
 2624SOL    HW210268   0.104   5.763   3.704  0.2491 -0.4784  0.9883
 2624SOL    HW310269   0.251   5.795   3.685 -0.2194  1.0413 -0.2960
 2624SOL    MW410270   0.172   5.775   3.652 -0.2460 -0.1350  0.4046
 2625SOL     OW10271   4.153   0.901   5.259 -0.6715  0.4918 -0.0105
 2625SOL    HW210272   4.083   0.841   5.287 -1.8245  0.9814 -1.7040
 2625SOL    HW310273   4.211   0.907   5.335 -1.2608 -1.6680  0.6849
 2625SOL    MW410274   4.151   0.894   5.273 -0.9014  0.2714 -0.1422
 2626SOL     OW10275   5.521   2.898   3.779  0.0450 -0.6205 -0.2259
 2626SOL    HW210276   5.612   2.926   3.776 -0.0981  0.2727  2.0213
 2626SOL    HW310277   5.478   2.946   3.708  1.4735 -1.8895 -2.0428
 2626SOL    MW410278   5.527   2.908   3.769  0.2146 -0.6701 -0.1692
 2627SOL     OW10279   3.014   0.322   3.290  0.8256 -1.2284  0.0453
 2627SOL    HW210280   2.955   0.397   3.303  0.2535 -1.8032  0.8684
 2627SOL    HW310281   3.077   0.330   3.362  0.4293 -1.8396  0.4670
 2627SOL    MW410282   3.015   0.333   3.301  0.6978 -1.3849  0.2095
 2628SOL     OW10283   4.043   5.202   5.582  0.5432  0.0675  0.5496
 2628SOL    HW210284   4.053   5.132   5.518 -0.9572 -0.3688  0.7591
 2628SOL    HW310285   4.014   5.157   5.662 -0.4035  0.9010  0.6964
 2628SOL    MW410286   4.040   5.187   5.584  0.2204  0.1199  0.5966
 2629SOL     OW10287   6.181   0.913   3.447  0.2115  0.5525  0.0396
 2629SOL    HW210288   6.096   0.876   3.422 -0.1184  1.5602 -0.4089
 2629SOL    HW310289   6.245   0.866   3.394  0.0506 -0.8364  1.0247
 2629SOL    MW410290   6.178   0.902   3.437  0.1468  0.5022  0.1104
 2630SOL     OW10291   3.256   4.028   5.226 -0.3807 -0.0019  0.5699
 2630SOL    HW210292   3.293   3.940   5.224 -0.9347 -0.2404 -1.0508
 2630SOL    HW310293   3.329   4.085   5.200 -0.7638 -0.3564 -1.5086
 2630SOL    MW410294   3.270   4.024   5.222 -0.5043 -0.0802  0.0818
 2631SOL     OW10295   0.424   2.795   2.323  0.0676  0.0015  0.3139
 2631SOL    HW210296   0.332   2.770   2.322  0.6805 -2.4644 -0.0926
 2631SOL    HW310297   0.440   2.827   2.412 -1.1138  0.3050  0.4296
 2631SOL    MW410298   0.414   2.796   2.334 -0.0074 -0.2838  0.2755
 2632SOL     OW10299   5.811   2.948   1.741 -0.3839  0.1762 -0.2621
 2632SOL    HW210300   5.747   3.008   1.779 -0.1355  0.6573 -0.5787
 2632SOL    HW310301   5.864   3.004   1.683  0.1540 -0.2607 -0.2028
 2632SOL    MW410302   5.810   2.963   1.738 -0.2801  0.1821 -0.2960
 2633SOL     OW10303   3.965   4.010   3.288 -0.8401  0.2217  0.3494
 2633SOL    HW210304   4.010   3.959   3.355 -1.3006  0.5331  0.9005
 2633SOL    HW310305   4.000   3.977   3.205 -1.2780 -1.1572  0.6835
 2633SOL    MW410306   3.975   3.999   3.286 -0.9587  0.0809  0.4662
 2634SOL     OW10307   3.066   0.491   6.331 -0.3272  0.1409  0.3411
 2634SOL    HW210308   3.085   0.575   6.290 -0.8161  0.2876  0.4023
 2634SOL    HW310309   2.970   0.490   6.340 -0.3984 -0.7218 -0.3301
 2634SOL    MW410310   3.056   0.502   6.327 -0.4011  0.0464  0.2607
 2635SOL     OW10311   4.070   0.521   5.455 -0.3359 -0.3553  0.1748
 2635SOL    HW210312   4.143   0.580   5.475 -0.9430  0.9387 -1.2072
 2635SOL    HW310313   4.090   0.441   5.503  1.5402  0.2801  0.5436
 2635SOL    MW410314   4.083   0.518   5.464 -0.1684 -0.1007  0.0411
 2636SOL     OW10315   4.894   5.531   4.284  0.0368 -0.2053  0.4988
 2636SOL    HW210316   4.888   5.492   4.196  0.3318  2.7632 -0.9655
 2636SOL    HW310317   4.987   5.550   4.295 -0.1681  0.6403  0.8570
 2636SOL    MW410318   4.906   5.528   4.274  0.0487  0.2979  0.3529
 2637SOL     OW10319   3.660   1.307   6.121  0.0065  0.1333 -0.2287
 2637SOL    HW210320   3.676   1.320   6.027  1.9214  0.3967  0.0830
 2637SOL    HW310321   3.746   1.322   6.161 -0.4319 -1.5250  1.4145
 2637SOL    MW410322   3.674   1.311   6.114  0.2013 -0.0507  0.0292
 2638SOL     OW10323   3.810   0.870   1.088 -0.1146 -0.6913  0.2721
 2638SOL    HW210324   3.738   0.815   1.058 -1.5216  0.5638  1.1796
 2638SOL    HW310325   3.861   0.887   1.009 -1.1607 -1.1279 -0.5281
 2638SOL    MW410326   3.807   0.865   1.074 -0.4382 -0.5833  0.2862
 2639SOL     OW10327   3.941   3.909   0.374  0.2041 -0.1144  0.2234
 2639SOL    HW210328   3.889   3.976   0.329  0.0745  0.1420  0.7371
 2639SOL    HW310329   4.007   3.958   0.422  0.4625 -0.3951  0.1564
 2639SOL    MW410330   3.943   3.924   0.375  0.2211 -0.1176  0.2823
 2640SOL     OW10331   3.735   3.096   0.100  0.5904  0.1869 -0.7827
 2640SOL    HW210332   3.642   3.106   0.119  0.8103  3.2282 -0.8828
 2640SOL    HW310333   3.768   3.042   0.172 -0.5210  2.6242  1.7184
 2640SOL    MW410334   3.727   3.090   0.112  0.4728  0.9097 -0.4659
 2641SOL     OW10335   5.685   3.154   0.357 -0.2581  0.2516 -0.0108
 2641SOL    HW210336   5.637   3.228   0.394 -1.4899  0.4704 -1.8919
 2641SOL    HW310337   5.686   3.089   0.427  1.7764  2.3186  2.0972
 2641SOL    MW410338   5.679   3.155   0.371 -0.1522  0.5532  0.0191
 2642SOL     OW10339   5.920   2.931   5.311  0.4504 -0.1673 -0.9755
 2642SOL    HW210340   5.988   2.879   5.354  0.0555 -0.7223 -1.0138
 2642SOL    HW310341   5.905   2.885   5.228 -1.1435 -1.0134 -0.2532
 2642SOL    MW410342   5.927   2.918   5.306  0.1880 -0.3521 -0.8853
 2643SOL     OW10343   0.126   4.163   4.285  0.0717  0.1236 -0.0657
 2643SOL    HW210344   0.149   4.227   4.218 -0.4129 -0.1464 -0.5010
 2643SOL    HW310345   0.110   4.082   4.237  1.0109 -0.4218  0.5137
 2643SOL    MW410346   0.127   4.161   4.270  0.1317  0.0160 -0.0467
 2644SOL     OW10347   5.080   1.398   3.719 -0.0565  0.0005  0.1963
 2644SOL    HW210348   5.034   1.370   3.639 -0.2215  1.0571 -0.0903
 2644SOL    HW310349   5.019   1.377   3.790  0.4705 -1.8090  0.1605
 2644SOL    MW410350   5.066   1.391   3.717 -0.0087 -0.0988  0.1538
 2645SOL     OW10351   6.346   1.528   4.943 -0.0958  0.0341  0.3871
 2645SOL    HW210352   6.257   1.526   4.979  0.9659  0.0179  3.1953
 2645SOL    HW310353   6.402   1.497   5.014  2.3689  1.7169 -0.6843
 2645SOL    MW410354   6.341   1.523   4.957  0.3695  0.2540  0.6162
 2646SOL     OW10355   5.589   5.317   4.578  0.6734 -0.2609 -0.4414
 2646SOL    HW210356   5.503   5.335   4.617  1.9382 -0.1559  2.5781
 2646SOL    HW310357   5.601   5.222   4.588  1.0723 -0.2165 -0.4755
 2646SOL    MW410358   5.579   5.307   4.584  0.8929 -0.2412 -0.0475
 2647SOL     OW10359   4.181   2.166   0.351  0.2086  0.1947 -0.4542
 2647SOL    HW210360   4.104   2.223   0.354  1.6800  2.2945 -1.0899
 2647SOL    HW310361   4.202   2.159   0.258  0.6558 -0.5686 -0.3036
 2647SOL    MW410362   4.173   2.172   0.339  0.4617  0.3710 -0.5182
 2648SOL     OW10363   4.905   0.895   4.036  0.0678  0.1231 -0.1620
 2648SOL    HW210364   4.841   0.966   4.032 -0.1476 -0.1236 -1.5238
 2648SOL    HW310365   4.852   0.816   4.046  0.2779  0.0820  0.7346
 2648SOL    MW410366   4.890   0.894   4.037  0.0671  0.0851 -0.2234
 2649SOL     OW10367   0.084   1.575   3.612  0.1428 -0.3627 -0.2110
 2649SOL    HW210368   0.056   1.646   3.554 -2.7440 -0.5620  0.7795
 2649SOL    HW310369   0.137   1.619   3.679  0.5228  0.4188 -1.0012
 2649SOL    MW410370   0.087   1.590   3.613 -0.1879 -0.2859 -0.1846
 2650SOL     OW10371   3.203   2.342   0.038  0.0697  0.3912  0.0785
 2650SOL    HW210372   3.198   2.247   0.036 -1.0602  0.4476 -0.3368
 2650SOL    HW310373   3.297   2.361   0.044  0.2915 -0.7417  0.3925
 2650SOL    MW410374   3.215   2.332   0.038 -0.0501  0.2492  0.0651
 2651SOL     OW10375   4.476   5.870   3.859  0.3895  0.2453  0.9447
 2651SOL    HW210376   4.505   5.943   3.914 -1.9693  1.6353  0.4812
 2651SOL    HW310377   4.497   5.897   3.770  3.1364 -1.4968  0.9233
 2651SOL    MW410378   4.482   5.883   3.855  0.4407  0.1989  0.8807
 2652SOL     OW10379   0.234   6.082   5.738 -0.1215 -0.1058  0.1553
 2652SOL    HW210380   0.273   6.123   5.816  0.8180 -1.7880  0.6110
 2652SOL    HW310381   0.172   6.018   5.774 -1.8244  1.0872 -0.5467
 2652SOL    MW410382   0.231   6.079   5.753 -0.2222 -0.1704  0.1228
 2653SOL     OW10383   5.294   5.113   2.589 -0.3662 -0.6230  0.7122
 2653SOL    HW210384   5.360   5.179   2.570 -1.8633  0.8757  0.5263
 2653SOL    HW310385   5.222   5.161   2.629 -1.8974 -1.9880 -0.2941
 2653SOL    MW410386   5.293   5.128   2.592 -0.7657 -0.6053  0.5549
 2654SOL     OW10387   5.368   2.820   1.752  0.0744  0.0057  0.2416
 2654SOL    HW210388   5.367   2.788   1.842  0.5802 -0.6427  0.0245
 2654SOL    HW310389   5.387   2.742   1.699  0.0935  0.4383 -0.4034
 2654SOL    MW410390   5.370   2.806   1.757  0.1436 -0.0228  0.1279
 2655SOL     OW10391   1.633   6.207   4.143 -0.4238  0.3070 -0.2884
 2655SOL    HW210392   1.630   6.214   4.238 -2.2473  2.7563 -0.4205
 2655SOL    HW310393   1.552   6.162   4.119 -0.6869  0.9931 -0.7265
 2655SOL    MW410394   1.622   6.202   4.152 -0.6991  0.7207 -0.3636
 2656SOL     OW10395   6.108   5.996   0.923  0.0648 -0.4066  0.3365
 2656SOL    HW210396   6.041   6.059   0.948  0.7972 -0.2228  1.9473
 2656SOL    HW310397   6.069   5.910   0.940 -0.7031 -0.4066 -1.2671
 2656SOL    MW410398   6.094   5.993   0.929  0.0602 -0.3823  0.3375
 2657SOL     OW10399   0.805   5.047   0.547 -0.3373  0.8232 -0.0573
 2657SOL    HW210400   0.767   4.966   0.515 -0.9165  1.4485 -1.0140
 2657SOL    HW310401   0.881   5.062   0.490 -0.2385  0.9577  0.1080
 2657SOL    MW410402   0.810   5.039   0.535 -0.4007  0.9235 -0.1617
 2658SOL     OW10403   2.857   6.294   6.036 -0.1146 -0.0655 -0.3652
 2658SOL    HW210404   2.825   6.262   5.951  0.4937  0.6020 -0.8504
 2658SOL    HW310405   2.837   6.387   6.036 -2.1977 -0.4274  1.1901
 2658SOL    MW410406   2.850   6.302   6.025 -0.3092 -0.0252 -0.2240
 2659SOL     OW10407   4.921   4.783   0.262 -0.1450  0.6170 -0.0217
 2659SOL    HW210408   4.874   4.756   0.341 -0.5722  0.1701 -0.4229
 2659SOL    HW310409   4.855   4.828   0.209 -0.0501  0.2439 -0.4619
 2659SOL    MW410410   4.906   4.786   0.265 -0.1889  0.5088 -0.1327
 2660SOL     OW10411   1.422   1.192   1.062  0.1320 -0.5982 -0.3633
 2660SOL    HW210412   1.392   1.112   1.104  0.1384 -0.8435 -0.8264
 2660SOL    HW310413   1.357   1.209   0.993  0.1307 -0.2068 -0.2728
 2660SOL    MW410414   1.409   1.184   1.058  0.1327 -0.5789 -0.4124
 2661SOL     OW10415   4.587   6.173   0.927 -0.2413  0.2089  0.1079
 2661SOL    HW210416   4.605   6.248   0.870  3.9346  0.0031  0.8238
 2661SOL    HW310417   4.612   6.097   0.874 -0.5933 -0.3533  0.7395
 2661SOL    MW410418   4.593   6.173   0.913  0.2632  0.1076  0.2856
 2662SOL     OW10419   2.833   5.672   2.076 -0.4759  0.2363 -0.5665
 2662SOL    HW210420   2.779   5.751   2.073 -0.3108  0.5738  2.2876
 2662SOL    HW310421   2.770   5.601   2.088 -0.4461  0.4950  1.4829
 2662SOL    MW410422   2.818   5.673   2.077 -0.4502  0.3150  0.0804
 2663SOL     OW10423   0.721   4.222   0.060 -0.2382 -0.1953  0.0280
 2663SOL    HW210424   0.795   4.224   0.120  1.9560 -1.3076 -2.4114
 2663SOL    HW310425   0.656   4.166   0.103  1.7819 -2.0841  0.8238
 2663SOL    MW410426   0.722   4.215   0.073  0.3178 -0.5912 -0.1889
 2664SOL     OW10427   3.920   0.497   2.063 -0.2105  0.1847  0.1149
 2664SOL    HW210428   3.956   0.480   2.150 -1.4588 -1.8311  0.2922
 2664SOL    HW310429   3.926   0.592   2.053  3.9391  0.1673  0.5931
 2664SOL    MW410430   3.925   0.508   2.073  0.1723 -0.0836  0.2013
 2665SOL     OW10431   5.928   3.611   4.384 -0.4085 -0.0636 -0.2747
 2665SOL    HW210432   5.918   3.547   4.313  0.5622 -0.5350 -0.0196
 2665SOL    HW310433   5.894   3.692   4.349 -2.1911 -0.8337 -0.4230
 2665SOL    MW410434   5.922   3.613   4.370 -0.5157 -0.2274 -0.2606
 2666SOL     OW10435   1.669   3.972   3.705  0.2815  0.3273  0.4904
 2666SOL    HW210436   1.591   4.020   3.731 -0.1903 -0.4863  0.5850
 2666SOL    HW310437   1.637   3.902   3.648  0.9753  0.2067  0.2381
 2666SOL    MW410438   1.655   3.969   3.701  0.3108  0.2040  0.4696
 2667SOL     OW10439   3.110   4.496   6.305  0.5528 -0.1287 -0.6156
 2667SOL    HW210440   3.196   4.537   6.297  0.6340 -0.5633 -2.1880
 2667SOL    HW310441   3.128   4.407   6.335  0.5543  0.0870  0.0627
 2667SOL    MW410442   3.124   4.490   6.308  0.5637 -0.1576 -0.7335
 2668SOL     OW10443   4.039   1.422   5.149  0.3265 -0.4736  0.3003
 2668SOL    HW210444   4.041   1.473   5.230  0.2598  0.6795 -0.4021
 2668SOL    HW310445   3.991   1.342   5.172  0.6709 -0.3521  1.4918
 2668SOL    MW410446   4.033   1.418   5.163  0.3631 -0.3055  0.3648
 2669SOL     OW10447   1.279   1.974   4.701  0.5421  0.3384  0.2823
 2669SOL    HW210448   1.335   2.042   4.740  1.8933  0.0855 -1.1271
 2669SOL    HW310449   1.324   1.892   4.721  0.1747  0.0564 -0.0405
 2669SOL    MW410450   1.292   1.973   4.709  0.6719  0.2678  0.0538
 2670SOL     OW10451   4.515   3.566   0.806 -0.7623 -0.9486 -0.3155
 2670SOL    HW210452   4.511   3.605   0.893  1.4533 -1.8645  0.2920
 2670SOL    HW310453   4.489   3.636   0.746  0.3131  0.5760  0.9118
 2670SOL    MW410454   4.511   3.580   0.810 -0.3281 -0.8683 -0.0734
 2671SOL     OW10455   2.573   0.849   3.269 -0.5942  0.3532  0.9188
 2671SOL    HW210456   2.594   0.935   3.232  0.9297 -0.2943  0.1658
 2671SOL    HW310457   2.620   0.847   3.352 -0.5875  0.2431  0.9121
 2671SOL    MW410458   2.582   0.860   3.275 -0.3922  0.2532  0.8186
 2672SOL     OW10459   3.528   3.177   3.657 -0.3185  0.7721 -0.8947
 2672SOL    HW210460   3.449   3.172   3.604 -0.6887 -2.9331 -0.2588
 2672SOL    HW310461   3.590   3.118   3.614  0.4382  0.0667  1.0528
 2672SOL    MW410462   3.526   3.169   3.645 -0.2675  0.1902 -0.5539
 2673SOL     OW10463   1.595   2.443   4.157  0.4615 -0.4716  0.0016
 2673SOL    HW210464   1.547   2.406   4.083  0.5364 -0.9756  0.2001
 2673SOL    HW310465   1.654   2.373   4.184  0.8537 -0.0804  0.1634
 2673SOL    MW410466   1.596   2.428   4.151  0.5232 -0.4865  0.0491
 2674SOL     OW10467   5.197   1.278   1.294  0.4928  0.3495  0.3523
 2674SOL    HW210468   5.163   1.199   1.252 -2.6235  0.3676  2.5478
 2674SOL    HW310469   5.257   1.315   1.230  0.8520 -2.9110 -1.4092
 2674SOL    MW410470   5.201   1.273   1.280  0.1290 -0.0783  0.4095
 2675SOL     OW10471   4.219   1.029   0.929  0.6023  1.0602 -0.3294
 2675SOL    HW210472   4.231   1.043   1.023  0.4288 -2.4628  0.3460
 2675SOL    HW310473   4.127   1.006   0.919  1.1665 -1.2880 -0.8430
 2675SOL    MW410474   4.208   1.028   0.940  0.6538  0.2856 -0.3080
 2676SOL     OW10475   0.198   2.650   5.642  0.1150 -0.1178  0.3110
 2676SOL    HW210476   0.154   2.718   5.694 -0.1762  1.7877 -2.2290
 2676SOL    HW310477   0.127   2.593   5.612 -0.3659  1.3061 -1.4404
 2676SOL    MW410478   0.183   2.652   5.645  0.0131  0.3215 -0.2552
 2677SOL     OW10479   2.697   4.520   1.454  0.5418  0.0041  0.2070
 2677SOL    HW210480   2.714   4.459   1.526 -1.3910 -2.0376 -0.9323
 2677SOL    HW310481   2.707   4.468   1.375  1.1904  1.8258 -0.9668
 2677SOL    MW410482   2.700   4.505   1.453  0.3723 -0.0249 -0.0982
 2678SOL     OW10483   4.569   3.822   0.109  0.1525  0.3753 -0.1100
 2678SOL    HW210484   4.662   3.809   0.124 -0.1560 -0.1764  1.6395
 2678SOL    HW310485   4.557   3.917   0.107  0.7976  0.4454 -0.7964
 2678SOL    MW410486   4.579   3.833   0.111  0.1969  0.3117  0.0303
 2679SOL     OW10487   3.702   5.438   5.789 -0.2417 -0.1267  0.1531
 2679SOL    HW210488   3.724   5.486   5.869  1.1572  1.6912 -1.2323
 2679SOL    HW310489   3.657   5.502   5.733 -1.4629 -1.4329 -0.4596
 2679SOL    MW410490   3.699   5.453   5.792 -0.2183 -0.0592 -0.1105
 2680SOL     OW10491   3.096   2.889   2.800 -0.3043 -0.2731  0.3720
 2680SOL    HW210492   3.055   2.844   2.874  0.4768 -1.6715 -0.0181
 2680SOL    HW310493   3.107   2.822   2.733 -0.3637  0.8132 -0.7687
 2680SOL    MW410494   3.092   2.875   2.801 -0.2091 -0.3143  0.1700
 2681SOL     OW10495   6.054   5.594   1.210 -0.0400  0.0871 -0.2896
 2681SOL    HW210496   6.134   5.543   1.193 -2.0394 -3.4705  0.0588
 2681SOL    HW310497   6.046   5.592   1.306 -0.3205  0.8155 -0.2995
 2681SOL    MW410498   6.064   5.587   1.221 -0.3408 -0.2862 -0.2450
 2682SOL     OW10499   0.941   4.814   0.732 -0.2523 -0.6990  0.4406
 2682SOL    HW210500   0.938   4.791   0.824  0.4652 -1.5581  0.2667
 2682SOL    HW310501   0.850   4.815   0.704 -0.3986 -1.7846  0.8441
 2682SOL    MW410502   0.929   4.811   0.740 -0.1770 -0.9555  0.4709
 2683SOL     OW10503   5.241   5.459   3.313 -0.5448 -0.2055  0.3290
 2683SOL    HW210504   5.324   5.504   3.329 -0.3620 -0.2019 -0.5591
 2683SOL    HW310505   5.176   5.529   3.304 -0.3434 -0.1254 -0.5960
 2683SOL    MW410506   5.243   5.474   3.314 -0.4941 -0.1945  0.0898
 2684SOL     OW10507   2.561   2.212   4.542  0.3697 -0.5495  0.2655
 2684SOL    HW210508   2.651   2.205   4.573 -0.1846  0.4236  2.2176
 2684SOL    HW310509   2.514   2.144   4.590 -0.3421  0.4274  0.9909
 2684SOL    MW410510   2.567   2.202   4.552  0.2026 -0.2923  0.6188
 2685SOL     OW10511   2.718   0.529   3.573 -0.3200  0.3555  0.1653
 2685SOL    HW210512   2.653   0.560   3.636  0.2697  2.4799 -0.1828
 2685SOL    HW310513   2.801   0.533   3.621 -0.0213  0.8251 -0.3841
 2685SOL    MW410514   2.721   0.533   3.588 -0.2028  0.6977  0.0469
 2686SOL     OW10515   5.187   5.404   4.899  0.0280  0.5498  0.5133
 2686SOL    HW210516   5.200   5.378   4.990  1.6608 -0.7295 -0.0291
 2686SOL    HW310517   5.118   5.347   4.867 -0.2067  0.6645  0.8136
 2686SOL    MW410518   5.180   5.393   4.906  0.2125  0.3961  0.4814
 2687SOL     OW10519   3.525   5.371   4.831 -0.2954 -0.1294 -0.1555
 2687SOL    HW210520   3.611   5.360   4.789 -0.3183 -1.8073  0.1892
 2687SOL    HW310521   3.462   5.342   4.765 -0.5129 -0.1722  0.0704
 2687SOL    MW410522   3.528   5.366   4.817 -0.3271 -0.3564 -0.0802
 2688SOL     OW10523   0.577   1.483   0.957 -0.4531  0.0809 -0.0347
 2688SOL    HW210524   0.600   1.530   0.878  0.8931  0.6166  0.6542
 2688SOL    HW310525   0.511   1.537   0.999  0.1052  0.6852  0.0753
 2688SOL    MW410526   0.571   1.496   0.952 -0.2018  0.2313  0.0707
 2689SOL     OW10527   1.967   3.314   3.723 -0.4441  0.4757 -0.1734
 2689SOL    HW210528   1.894   3.301   3.784  0.0465  1.1472  0.5848
 2689SOL    HW310529   2.012   3.230   3.720  0.4023  0.8141  1.5939
 2689SOL    MW410530   1.964   3.301   3.731 -0.2677  0.6089  0.1598
 2690SOL     OW10531   6.165   2.733   4.062  0.5401 -0.0497  0.0080
 2690SOL    HW210532   6.191   2.661   4.119 -2.2854 -1.0698  0.1695
 2690SOL    HW310533   6.098   2.781   4.112  0.9991  1.5681 -0.8511
 2690SOL    MW410534   6.159   2.730   4.076  0.2279  0.0292 -0.0841
 2691SOL     OW10535   1.566   4.206   4.171 -0.8024 -1.0078 -0.2578
 2691SOL    HW210536   1.567   4.128   4.226 -1.4002 -0.4464  0.5860
 2691SOL    HW310537   1.585   4.175   4.083 -1.5689 -2.1737 -0.0253
 2691SOL    MW410538   1.569   4.192   4.167 -0.9824 -1.0876 -0.1158
 2692SOL     OW10539   3.893   0.367   3.499 -0.1286 -0.1553  0.4426
 2692SOL    HW210540   3.907   0.377   3.594  0.1532 -2.7986  0.7597
 2692SOL    HW310541   3.946   0.291   3.475 -0.0830  0.5370 -1.8983
 2692SOL    MW410542   3.902   0.358   3.509 -0.0854 -0.4127  0.1756
 2693SOL     OW10543   2.664   5.781   5.499  0.0849  0.4850  0.5935
 2693SOL    HW210544   2.578   5.794   5.458  0.3062  0.8028  0.2181
 2693SOL    HW310545   2.654   5.702   5.551 -0.2675  0.1777  0.0713
 2693SOL    MW410546   2.651   5.772   5.500  0.0676  0.4864  0.4751
 2694SOL     OW10547   3.290   2.704   3.317  0.1703  0.7268 -0.2905
 2694SOL    HW210548   3.217   2.764   3.336 -0.7016 -0.7573  1.2999
 2694SOL    HW310549   3.340   2.749   3.250 -0.0059  3.6106  1.3335
 2694SOL    MW410550   3.287   2.718   3.311  0.0320  0.9114  0.1336
 2695SOL     OW10551   5.360   0.991   2.674  0.2033 -0.0362 -0.7743
 2695SOL    HW210552   5.336   0.997   2.582  1.1897 -0.0458 -1.0359
 2695SOL    HW310553   5.355   1.081   2.707  2.2291  0.3747 -1.4583
 2695SOL    MW410554   5.356   1.004   2.666  0.6007  0.0167 -0.8991
 2696SOL     OW10555   4.579   3.319   5.632  0.2637 -0.0501 -0.5409
 2696SOL    HW210556   4.509   3.363   5.680 -1.9206 -2.0297 -1.6708
 2696SOL    HW310557   4.595   3.238   5.681  3.2614  1.1974  0.7773
 2696SOL    MW410558   4.572   3.314   5.644  0.3710 -0.1467 -0.5161
 2697SOL     OW10559   6.279   0.276   2.335 -0.0313 -0.1931  0.1244
 2697SOL    HW210560   6.255   0.187   2.362 -0.5107 -0.0099  0.3178
 2697SOL    HW310561   6.201   0.328   2.354  0.4024  0.3538  0.4387
 2697SOL    MW410562   6.266   0.271   2.341 -0.0373 -0.0968  0.1914
 2698SOL     OW10563   0.116   6.209   3.046  0.0275  0.0416 -0.1447
 2698SOL    HW210564   0.102   6.300   3.071 -0.0839  0.1210 -0.4861
 2698SOL    HW310565   0.034   6.183   3.003  0.3371  0.0243 -0.7453
 2698SOL    MW410566   0.103   6.217   3.043  0.0537  0.0498 -0.2690
 2699SOL     OW10567   4.015   0.573   4.004 -0.2116  0.2456  0.2354
 2699SOL    HW210568   4.069   0.512   4.055 -1.0676 -0.7251  0.0144
 2699SOL    HW310569   4.074   0.645   3.983  1.4208 -1.3908 -1.1636
 2699SOL    MW410570   4.030   0.574   4.008 -0.1092 -0.0984  0.0216
 2700SOL     OW10571   1.764   3.551   0.339  0.0584 -0.4531  0.1507
 2700SOL    HW210572   1.685   3.528   0.387  0.1642 -0.9037  0.1133
 2700SOL    HW310573   1.754   3.644   0.319 -1.0104 -0.7659 -0.8952
 2700SOL    MW410574   1.753   3.560   0.343 -0.0686 -0.5539  0.0077
 2701SOL     OW10575   4.918   3.454   5.768  0.5436 -0.1596  0.3929
 2701SOL    HW210576   4.888   3.486   5.683  1.1728  0.6850  0.4777
 2701SOL    HW310577   4.914   3.359   5.761  1.2935 -0.1132 -0.8416
 2701SOL    MW410578   4.913   3.446   5.756  0.7255 -0.0420  0.2412
 2702SOL     OW10579   2.376   2.081   3.960 -0.6803  0.3076 -0.0812
 2702SOL    HW210580   2.432   2.006   3.938  0.2408  1.6022 -2.5698
 2702SOL    HW310581   2.290   2.043   3.978 -0.0168 -1.4056 -0.3576
 2702SOL    MW410582   2.372   2.066   3.960 -0.4712  0.2524 -0.4460
 2703SOL     OW10583   4.374   0.784   0.025 -0.0892  0.3958 -0.1962
 2703SOL    HW210584   4.461   0.753   0.002  0.0257 -1.0580  1.9290
 2703SOL    HW310585   4.316   0.750  -0.043  0.8328  0.4405 -1.0119
 2703SOL    MW410586   4.378   0.776   0.013  0.0476  0.2099 -0.0234
 2704SOL     OW10587   0.242   2.506   6.389 -0.4927  0.7335  0.0087
 2704SOL    HW210588   0.243   2.414   6.362 -0.3876  0.7392 -0.0093
 2704SOL    HW310589   0.323   2.517   6.439 -0.8650  0.6315  0.6418
 2704SOL    MW410590   0.253   2.495   6.392 -0.5280  0.7208  0.0898
 2705SOL     OW10591   0.515   1.792   3.661  0.1069 -0.1485 -0.3235
 2705SOL    HW210592   0.448   1.804   3.594 -0.4182  0.8844  0.3642
 2705SOL    HW310593   0.509   1.870   3.715 -2.9813 -2.9688  4.0461
 2705SOL    MW410594   0.505   1.804   3.659 -0.3698 -0.3843  0.3438
 2706SOL     OW10595   5.294   5.396   0.246 -0.3472  0.2655 -0.3978
 2706SOL    HW210596   5.353   5.347   0.304  1.4429 -0.2654 -2.5170
 2706SOL    HW310597   5.292   5.484   0.283 -0.6276 -0.4282  1.3760
 2706SOL    MW410598   5.302   5.401   0.259 -0.1480  0.1039 -0.4433
 2707SOL     OW10599   4.048   2.499   4.787  0.3094 -1.1141 -0.5221
 2707SOL    HW210600   4.103   2.481   4.863  0.4792  0.7812 -0.1382
 2707SOL    HW310601   3.962   2.518   4.824 -0.2266 -2.4812 -1.0063
 2707SOL    MW410602   4.044   2.499   4.802  0.2611 -1.0444 -0.5353
 2708SOL     OW10603   5.406   2.004   5.219  0.5334  0.1566  0.4540
 2708SOL    HW210604   5.410   2.000   5.123 -0.2778 -0.0787  0.4227
 2708SOL    HW310605   5.405   1.913   5.247 -1.2328  0.1990  0.5826
 2708SOL    MW410606   5.407   1.992   5.210  0.1933  0.1311  0.4669
 2709SOL     OW10607   3.596   4.590   5.228 -0.4576 -0.5228 -0.3083
 2709SOL    HW210608   3.665   4.621   5.286 -0.2911 -0.0429 -0.7595
 2709SOL    HW310609   3.626   4.613   5.140  0.5472 -3.4955 -0.8944
 2709SOL    MW410610   3.609   4.597   5.224 -0.3030 -0.8517 -0.4452
 2710SOL     OW10611   0.387   0.444   0.726 -0.3216  0.0129  0.0922
 2710SOL    HW210612   0.334   0.479   0.655  0.0546  1.9393  0.7131
 2710SOL    HW310613   0.456   0.395   0.682  0.1363  1.5112 -0.9278
 2710SOL    MW410614   0.389   0.442   0.711 -0.2115  0.4647  0.0395
 2711SOL     OW10615   2.542   2.509   1.470 -0.3172 -0.1983  0.3236
 2711SOL    HW210616   2.472   2.447   1.454  0.3964 -1.0568  0.4584
 2711SOL    HW310617   2.521   2.547   1.556 -1.2601  0.4580 -0.1830
 2711SOL    MW410618   2.530   2.506   1.479 -0.3474 -0.2250  0.2746
 2712SOL     OW10619   4.546   1.290   4.183  0.2899  0.3766  0.6731
 2712SOL    HW210620   4.612   1.330   4.240 -1.4610  0.2568  2.9265
 2712SOL    HW310621   4.524   1.207   4.226 -2.8296  1.3726  1.2816
 2712SOL    MW410622   4.552   1.284   4.196 -0.3527  0.4922  1.0507
 2713SOL     OW10623   6.269   5.505   3.406  0.4042 -0.5402 -0.5126
 2713SOL    HW210624   6.353   5.551   3.395 -0.0000  0.5477  0.7323
 2713SOL    HW310625   6.255   5.502   3.500 -1.2471 -0.1821 -0.7208
 2713SOL    MW410626   6.278   5.511   3.417  0.1330 -0.3494 -0.3758
 2714SOL     OW10627   6.314   4.975   5.991  0.1705  0.1809  0.2308
 2714SOL    HW210628   6.258   4.898   6.005  0.6321 -0.0393  0.9202
 2714SOL    HW310629   6.386   4.963   6.053  1.8379 -0.3477 -1.6980
 2714SOL    MW410630   6.316   4.963   6.001  0.4514  0.0821  0.0673
 2715SOL     OW10631   5.668   3.940   3.902 -0.2234 -0.0166  0.2709
 2715SOL    HW210632   5.678   4.002   3.975 -0.0150  1.0818 -0.6715
 2715SOL    HW310633   5.634   3.860   3.944 -0.8047  0.8184  1.4688
 2715SOL    MW410634   5.665   3.937   3.917 -0.2726  0.2385  0.3046
 2716SOL     OW10635   5.050   2.576   2.622  0.2321 -1.2782 -0.3108
 2716SOL    HW210636   4.960   2.599   2.647  0.7443 -1.2998  1.6944
 2716SOL    HW310637   5.104   2.641   2.666  1.1805 -0.5468 -2.4432
 2716SOL    MW410638   5.045   2.588   2.631  0.4248 -1.1845 -0.3276
 2717SOL     OW10639   3.485   1.700   2.913 -0.0326  0.0165  0.0051
 2717SOL    HW210640   3.451   1.714   3.001  0.0040 -0.0919  0.0367
 2717SOL    HW310641   3.421   1.644   2.870 -0.5849  0.9294 -0.3852
 2717SOL    MW410642   3.472   1.695   2.919 -0.1006  0.1226 -0.0423
 2718SOL     OW10643   6.184   1.027   6.156  0.4562  0.2119 -0.1869
 2718SOL    HW210644   6.209   0.978   6.235 -1.3186 -0.5567 -0.0548
 2718SOL    HW310645   6.090   1.038   6.164  0.5839  2.2995 -1.0307
 2718SOL    MW410646   6.175   1.022   6.168  0.2389  0.3860 -0.2808
 2719SOL     OW10647   4.282   3.667   5.943  0.2876 -0.1147 -0.3978
 2719SOL    HW210648   4.303   3.756   5.972 -0.2047  0.0439 -0.5153
 2719SOL    HW310649   4.187   3.662   5.949  0.4197 -1.3107  1.5868
 2719SOL    MW410650   4.272   3.678   5.948  0.2401 -0.2515 -0.1515
 2720SOL     OW10651   2.339   2.275   0.665  0.0777 -0.0425  0.0582
 2720SOL    HW210652   2.272   2.295   0.730 -1.5991  0.9512 -1.8527
 2720SOL    HW310653   2.369   2.187   0.688  1.0984  1.0014  3.3317
 2720SOL    MW410654   2.334   2.266   0.676 -0.0088  0.2264  0.2380
 2721SOL     OW10655   1.725   5.537   0.352  0.3558  0.0006  0.5915
 2721SOL    HW210656   1.643   5.518   0.397 -0.4307 -0.3424 -0.9398
 2721SOL    HW310657   1.727   5.475   0.279  1.7860  0.2776  0.3696
 2721SOL    MW410658   1.715   5.526   0.348  0.4408 -0.0081  0.3602
 2722SOL     OW10659   0.500   0.152   6.320 -0.2481  0.4819  0.3973
 2722SOL    HW210660   0.438   0.101   6.372 -0.4393  1.7217  1.4268
 2722SOL    HW310661   0.446   0.197   6.255 -0.2791  0.6226  0.5202
 2722SOL    MW410662   0.485   0.152   6.318 -0.2774  0.6640  0.5494
 2723SOL     OW10663   0.519   2.528   2.094  0.1928 -0.4774 -0.0154
 2723SOL    HW210664   0.520   2.464   2.023 -1.5730  0.1581 -0.6514
 2723SOL    HW310665   0.597   2.507   2.146  0.7356 -1.8606 -1.3200
 2723SOL    MW410666   0.530   2.517   2.092  0.0314 -0.5760 -0.2714
 2724SOL     OW10667   2.841   1.856   3.975  0.2831 -0.1938  0.0087
 2724SOL    HW210668   2.883   1.803   4.043 -4.2055 -0.5767  2.9706
 2724SOL    HW310669   2.871   1.945   3.993  1.0246 -0.6045  0.9426
 2724SOL    MW410670   2.850   1.860   3.987 -0.2113 -0.2985  0.5227
 2725SOL     OW10671   6.406   2.196   0.511  0.0544 -0.0202  0.4902
 2725SOL    HW210672   6.377   2.249   0.585 -1.8737 -0.4734  0.1081
 2725SOL    HW310673   6.358   2.114   0.519  1.2219 -0.7993 -0.2388
 2725SOL    MW410674   6.396   2.192   0.522 -0.0459 -0.1828  0.3436
 2726SOL     OW10675   1.584   1.198   2.144 -0.2454  0.3132  0.2512
 2726SOL    HW210676   1.563   1.117   2.096  0.0404  0.7320 -0.6100
 2726SOL    HW310677   1.671   1.182   2.181 -0.1106  0.2910 -0.0712
 2726SOL    MW410678   1.593   1.185   2.142 -0.1899  0.3655  0.0951
 2727SOL     OW10679   4.371   2.440   3.590  0.0571  0.1283  0.0439
 2727SOL    HW210680   4.276   2.430   3.590  0.0982 -0.4738  1.6065
 2727SOL    HW310681   4.387   2.516   3.534 -1.3084  0.0469 -0.4902
 2727SOL    MW410682   4.360   2.449   3.583 -0.1177  0.0381  0.1796
 2728SOL     OW10683   1.069   0.992   6.073  0.7674 -0.2291  0.4305
 2728SOL    HW210684   1.082   0.898   6.085  2.1535 -0.2720 -1.0508
 2728SOL    HW310685   1.151   1.031   6.102  0.6679  0.4155 -0.1349
 2728SOL    MW410686   1.082   0.984   6.078  0.9372 -0.1497  0.1605
 2729SOL     OW10687   6.130   2.801   0.010  0.4742 -0.3349 -0.1009
 2729SOL    HW210688   6.063   2.843  -0.043 -0.7611 -0.6406  1.1682
 2729SOL    HW310689   6.207   2.858   0.002  0.1122 -0.0389 -1.6517
 2729SOL    MW410690   6.131   2.814   0.002  0.2635 -0.3362 -0.1381
 2730SOL     OW10691   6.001   5.171   4.828  0.5782 -0.0351  0.2124
 2730SOL    HW210692   5.915   5.148   4.862  0.6257  0.4416  0.6603
 2730SOL    HW310693   6.009   5.119   4.748 -0.4380  0.4772 -0.2496
 2730SOL    MW410694   5.991   5.161   4.822  0.4504  0.0954  0.2105
 2731SOL     OW10695   2.788   6.227   0.232 -0.1037  0.3410 -0.3812
 2731SOL    HW210696   2.808   6.166   0.161  1.6283 -0.2522  0.5534
 2731SOL    HW310697   2.871   6.271   0.251 -0.9538  1.8785  0.0247
 2731SOL    MW410698   2.801   6.225   0.225  0.0126  0.4656 -0.2043
 2732SOL     OW10699   3.820   5.742   6.203 -0.7349 -0.1911  0.0853
 2732SOL    HW210700   3.794   5.834   6.207 -1.2139 -0.1797 -2.1949
 2732SOL    HW310701   3.909   5.744   6.168 -0.6084 -0.6072  0.3729
 2732SOL    MW410702   3.828   5.755   6.199 -0.7814 -0.2445 -0.1776
 2733SOL     OW10703   5.500   5.355   1.999  0.2979 -0.4134 -0.0621
 2733SOL    HW210704   5.416   5.338   1.955  1.1673 -0.6303 -1.7315
 2733SOL    HW310705   5.478   5.361   2.092 -1.4895 -0.9624 -0.4119
 2733SOL    MW410706   5.486   5.354   2.005  0.1768 -0.5145 -0.3285
 2734SOL     OW10707   2.371   3.841   3.862  0.0396 -0.2387  0.0344
 2734SOL    HW210708   2.359   3.897   3.939 -1.0715 -1.4195  0.7510
 2734SOL    HW310709   2.451   3.875   3.821 -1.2432  2.7133 -0.3178
 2734SOL    MW410710   2.380   3.853   3.867 -0.2762 -0.0050  0.0825
 2735SOL     OW10711   3.884   5.880   2.176 -0.1866 -0.2024 -0.0559
 2735SOL    HW210712   3.817   5.902   2.110 -2.8516 -2.3910  1.6847
 2735SOL    HW310713   3.859   5.792   2.206  1.7759  0.1191  2.8343
 2735SOL    MW410714   3.872   5.871   2.171 -0.2793 -0.4487  0.5551
 2736SOL     OW10715   5.054   6.292   4.917 -0.3765  0.0344 -0.2949
 2736SOL    HW210716   5.026   6.240   4.992 -2.7475 -0.0464 -1.1251
 2736SOL    HW310717   5.044   6.383   4.946 -1.9853  0.0138 -0.6620
 2736SOL    MW410718   5.049   6.297   4.931 -0.9016  0.0211 -0.4529
 2737SOL     OW10719   0.185   5.887   5.967 -0.3357 -0.0840 -0.2755
 2737SOL    HW210720   0.207   5.840   6.047 -1.0573 -0.9804 -0.5748
 2737SOL    HW310721   0.123   5.829   5.922  0.3571  0.2121 -1.6724
 2737SOL    MW410722   0.180   5.873   5.971 -0.3395 -0.1632 -0.4993
 2738SOL     OW10723   2.333   2.127   2.752  0.3205  0.0432 -0.5614
 2738SOL    HW210724   2.405   2.184   2.723  0.0154  2.0778  2.1603
 2738SOL    HW310725   2.254   2.178   2.735 -0.1244 -0.3816  0.1598
 2738SOL    MW410726   2.332   2.142   2.746  0.2215  0.2556 -0.1071
 2739SOL     OW10727   5.019   1.164   2.826  0.0979  0.1289 -0.0248
 2739SOL    HW210728   4.988   1.122   2.906 -1.4065  1.4445  0.1281
 2739SOL    HW310729   4.960   1.238   2.813 -0.2504 -0.5255 -2.8264
 2739SOL    MW410730   5.007   1.168   2.835 -0.1465  0.2161 -0.3743
 2740SOL     OW10731   2.938   5.866   3.667  0.1959  0.3770 -0.5376
 2740SOL    HW210732   2.849   5.837   3.687  1.1113 -1.6988  0.8810
 2740SOL    HW310733   2.928   5.957   3.638 -2.3486  0.2436 -0.2784
 2740SOL    MW410734   2.925   5.874   3.666 -0.0191  0.0855 -0.3162
 2741SOL     OW10735   6.064   0.442   3.273  0.0660 -0.1183  0.4828
 2741SOL    HW210736   6.025   0.455   3.359  0.5268  0.5972  0.5929
 2741SOL    HW310737   6.088   0.349   3.271  0.1219 -0.1236  1.1587
 2741SOL    MW410738   6.062   0.432   3.284  0.1341 -0.0246  0.5865
 2742SOL     OW10739   2.484   4.966   2.133 -0.3043 -0.0642  0.0885
 2742SOL    HW210740   2.515   5.012   2.055 -0.0224  0.1223  0.3092
 2742SOL    HW310741   2.511   4.875   2.119  0.9235  0.2071  0.5654
 2742SOL    MW410742   2.492   4.960   2.121 -0.1051 -0.0038  0.1806
 2743SOL     OW10743   4.594   2.497   6.133  0.1740  0.1704 -0.1557
 2743SOL    HW210744   4.580   2.427   6.069 -1.6512  0.9328 -0.6525
 2743SOL    HW310745   4.527   2.483   6.199  0.2761  1.0081  0.1392
 2743SOL    MW410746   4.583   2.486   6.133 -0.0533  0.3815 -0.1823
 2744SOL     OW10747   0.341   3.148   0.691 -0.3241  0.2450 -0.3021
 2744SOL    HW210748   0.367   3.165   0.601  1.1156 -2.6866 -0.5884
 2744SOL    HW310749   0.288   3.068   0.686  0.9762 -0.8067  1.5414
 2744SOL    MW410750   0.337   3.139   0.679  0.0374 -0.2806 -0.0966
 2745SOL     OW10751   1.155   3.315   0.418 -0.4106  0.4220 -0.5414
 2745SOL    HW210752   1.166   3.304   0.512  0.8174  1.6680 -0.5085
 2745SOL    HW310753   1.068   3.280   0.400 -0.9321  0.7553  1.1623
 2745SOL    MW410754   1.145   3.309   0.428 -0.3174  0.6303 -0.3122
 2746SOL     OW10755   5.516   3.071   4.319 -0.1646 -0.1824  0.4699
 2746SOL    HW210756   5.531   2.977   4.330 -1.6817 -0.6438 -1.0010
 2746SOL    HW310757   5.461   3.078   4.241  0.2097  1.9675  0.3277
 2746SOL    MW410758   5.511   3.060   4.310 -0.3154  0.0404  0.2571
 2747SOL     OW10759   5.762   4.986   5.332  0.1973 -0.5577  0.7374
 2747SOL    HW210760   5.804   4.964   5.249 -1.1088  0.7595 -0.3350
 2747SOL    HW310761   5.682   4.934   5.333 -1.0489  1.2097 -0.0817
 2747SOL    MW410762   5.757   4.977   5.321 -0.1395 -0.1508  0.4878
 2748SOL     OW10763   4.557   0.030   1.652 -0.5627 -0.1707 -0.3725
 2748SOL    HW210764   4.476  -0.016   1.675 -0.6364  0.2590  0.2509
 2748SOL    HW310765   4.624  -0.038   1.651 -0.1979 -0.0508  2.8573
 2748SOL    MW410766   4.555   0.015   1.655 -0.5243 -0.0982  0.1359
 2749SOL     OW10767   2.815   4.332   1.644 -0.0232  0.4311 -0.3395
 2749SOL    HW210768   2.809   4.354   1.737 -3.5418  2.1002 -0.7887
 2749SOL    HW310769   2.806   4.237   1.640 -1.2407  0.4686  0.9917
 2749SOL    MW410770   2.813   4.323   1.655 -0.6481  0.6563 -0.2232
 2750SOL     OW10771   5.908   2.814   2.982  0.0606 -0.0706  0.0560
 2750SOL    HW210772   5.965   2.747   3.018 -0.3096 -0.2793  0.2638
 2750SOL    HW310773   5.959   2.854   2.912 -0.5396 -2.1677 -1.7003
 2750SOL    MW410774   5.922   2.810   2.977 -0.0674 -0.3748 -0.1483
 2751SOL     OW10775   3.271   5.564   2.490  0.0684 -0.5600  0.3115
 2751SOL    HW210776   3.308   5.638   2.442 -0.4388  0.0189  0.7929
 2751SOL    HW310777   3.184   5.593   2.516  0.5671 -0.6025  2.1392
 2751SOL    MW410778   3.264   5.577   2.487  0.0673 -0.4892  0.6161
 2752SOL     OW10779   6.131   2.563   4.919 -0.4257 -0.1645  0.0601
 2752SOL    HW210780   6.210   2.532   4.875 -0.1342  1.1284 -0.3680
 2752SOL    HW310781   6.062   2.553   4.854 -0.2256  0.6012 -0.2752
 2752SOL    MW410782   6.133   2.557   4.905 -0.3608  0.1071 -0.0406
 2753SOL     OW10783   2.430   4.495   1.432  0.2389  0.4486 -0.5276
 2753SOL    HW210784   2.522   4.515   1.448 -0.3494  1.5420  2.0887
 2753SOL    HW310785   2.408   4.544   1.353  1.6498  0.9374 -0.6456
 2753SOL    MW410786   2.439   4.504   1.424  0.3474  0.6574 -0.1980
 2754SOL     OW10787   0.303   3.485   2.345 -0.1963 -0.1301  0.0014
 2754SOL    HW210788   0.332   3.501   2.255 -0.2183  2.4820  0.3863
 2754SOL    HW310789   0.383   3.483   2.396 -0.2915  0.6049  0.1938
 2754SOL    MW410790   0.317   3.487   2.340 -0.2118  0.3115  0.0775
 2755SOL     OW10791   2.294   5.813   4.285 -0.4664 -0.4427  0.2591
 2755SOL    HW210792   2.292   5.741   4.221  0.8600  1.0632 -1.6207
 2755SOL    HW310793   2.335   5.775   4.362  0.5268 -1.6432 -0.8107
 2755SOL    MW410794   2.299   5.798   4.286 -0.1603 -0.4024 -0.1300
 2756SOL     OW10795   1.549   5.229   6.156  0.0400  0.3657 -0.0656
 2756SOL    HW210796   1.466   5.265   6.126 -0.0263  0.2901  0.0233
 2756SOL    HW310797   1.544   5.236   6.252 -0.7075 -1.4173  0.0781
 2756SOL    MW410798   1.537   5.235   6.165 -0.0673  0.1205 -0.0349
 2757SOL     OW10799   2.515   5.787   5.131  0.2284 -0.1254  0.3936
 2757SOL    HW210800   2.423   5.766   5.115 -0.2972  2.2692 -0.1487
 2757SOL    HW310801   2.561   5.755   5.053 -0.2121 -0.7820  0.3930
 2757SOL    MW410802   2.509   5.780   5.118  0.1010  0.1039  0.3220
 2758SOL     OW10803   0.256   2.092   0.593  0.6243  0.2776 -0.1439
 2758SOL    HW210804   0.165   2.118   0.607  0.7403 -0.6606  3.3077
 2758SOL    HW310805   0.251   1.999   0.572  0.7425 -0.3120  2.1031
 2758SOL    MW410806   0.243   2.083   0.592  0.6552  0.0760  0.6079
 2759SOL     OW10807   4.399   0.821   5.996 -0.4782 -0.1431  0.8249
 2759SOL    HW210808   4.485   0.824   6.037 -0.8116  0.5064  1.5038
 2759SOL    HW310809   4.345   0.877   6.051 -1.2529 -0.2813  0.2135
 2759SOL    MW410810   4.403   0.829   6.008 -0.6244 -0.0756  0.8338
 2760SOL     OW10811   2.785   6.116   3.792  0.6653 -0.2596  0.3788
 2760SOL    HW210812   2.701   6.119   3.746  0.9926  0.3620 -0.1909
 2760SOL    HW310813   2.774   6.047   3.858 -0.7253  0.7048  1.1977
 2760SOL    MW410814   2.773   6.107   3.795  0.5250 -0.0503  0.4117
 2761SOL     OW10815   5.525   3.341   0.156 -0.3220 -0.2341  0.1273
 2761SOL    HW210816   5.608   3.334   0.110  0.4521 -0.0520  1.4736
 2761SOL    HW310817   5.498   3.250   0.171 -0.3641 -0.2929 -0.2892
 2761SOL    MW410818   5.532   3.328   0.152 -0.2255 -0.2178  0.2500
 2762SOL     OW10819   5.816   4.308   1.416 -0.1244 -0.1744 -0.0606
 2762SOL    HW210820   5.721   4.306   1.421 -0.2420  1.3861 -0.8041
 2762SOL    HW310821   5.846   4.297   1.506 -1.0843  1.0277  0.4294
 2762SOL    MW410822   5.807   4.307   1.429 -0.2666  0.1901 -0.0940
 2763SOL     OW10823   4.196   1.684   2.626  0.1311  0.0592  0.6251
 2763SOL    HW210824   4.252   1.705   2.552 -1.0498  1.8693  0.1807
 2763SOL    HW310825   4.155   1.601   2.603  0.2870  0.2717 -0.4495
 2763SOL    MW410826   4.198   1.676   2.613 -0.0042  0.3261  0.4247
 2764SOL     OW10827   6.288   1.244   0.368 -0.3154  0.6513 -0.1128
 2764SOL    HW210828   6.215   1.302   0.390  0.4235  1.5950 -0.0614
 2764SOL    HW310829   6.257   1.194   0.293 -1.6001 -0.1313  0.8938
 2764SOL    MW410830   6.274   1.245   0.361 -0.3874  0.6726  0.0268
 2765SOL     OW10831   1.341   0.621   4.978  0.1097 -0.2520 -0.0640
 2765SOL    HW210832   1.430   0.586   4.986 -0.6336 -1.9068  1.4796
 2765SOL    HW310833   1.295   0.559   4.922 -0.0155  0.7773 -1.1345
 2765SOL    MW410834   1.347   0.608   4.972 -0.0049 -0.3346 -0.0016
 2766SOL     OW10835   2.514   5.429   4.908 -0.7202  0.2749 -0.2773
 2766SOL    HW210836   2.465   5.405   4.987  1.3080  1.1788  1.3555
 2766SOL    HW310837   2.581   5.360   4.900 -0.9194  0.1808 -1.2450
 2766SOL    MW410838   2.517   5.417   4.917 -0.4789  0.3817 -0.1895
 2767SOL     OW10839   3.945   0.944   0.835  0.5215 -0.4249 -0.4683
 2767SOL    HW210840   3.918   0.987   0.754  0.2857 -0.0816 -0.2075
 2767SOL    HW310841   3.962   0.853   0.809 -0.4277 -0.5392 -0.7308
 2767SOL    MW410842   3.944   0.938   0.821  0.3652 -0.3947 -0.4686
 2768SOL     OW10843   5.745   5.960   1.003 -0.0432 -0.3373  0.2475
 2768SOL    HW210844   5.758   6.020   1.076  2.3134  0.8688 -1.0627
 2768SOL    HW310845   5.649   5.955   0.994 -0.4790  3.9998 -0.0931
 2768SOL    MW410846   5.734   5.968   1.011  0.2103  0.3941  0.0297
 2769SOL     OW10847   4.871   1.360   4.267  0.8132  0.8415  0.3631
 2769SOL    HW210848   4.819   1.411   4.204  1.5655  3.1317  1.4810
 2769SOL    HW310849   4.897   1.282   4.219 -0.7495  1.2972 -1.3352
 2769SOL    MW410850   4.868   1.357   4.252  0.7063  1.2038  0.2865
 2770SOL     OW10851   3.317   0.108   5.017  0.2773 -0.8005 -0.2412
 2770SOL    HW210852   3.259   0.153   4.955  1.7965  0.5643 -0.7606
 2770SOL    HW310853   3.353   0.035   4.967  0.2735 -0.6478 -0.4712
 2770SOL    MW410854   3.314   0.104   5.002  0.4772 -0.6003 -0.3400
 2771SOL     OW10855   2.217   6.104   5.960 -0.4032 -0.1442 -0.2680
 2771SOL    HW210856   2.236   6.157   6.036 -1.7140 -0.3469  0.2350
 2771SOL    HW310857   2.302   6.082   5.923  0.1927  1.2154  0.2564
 2771SOL    MW410858   2.230   6.108   5.965 -0.4975  0.0084 -0.1324
 2772SOL     OW10859   3.101   5.059   3.951 -0.0469  0.1021 -0.3542
 2772SOL    HW210860   3.041   5.017   4.013 -0.7946 -1.7843 -2.2442
 2772SOL    HW310861   3.183   5.067   4.000 -0.6912 -1.0103  1.0001
 2772SOL    MW410862   3.104   5.054   3.966 -0.2306 -0.2936 -0.4248
 2773SOL     OW10863   2.393   4.863   2.419 -0.1559  0.4850 -0.1628
 2773SOL    HW210864   2.396   4.958   2.407  0.9266  0.2196 -2.6011
 2773SOL    HW310865   2.319   4.835   2.365 -1.1690 -0.0170  1.4064
 2773SOL    MW410866   2.384   4.872   2.410 -0.1468  0.3837 -0.2774
 2774SOL     OW10867   1.928   2.696   5.337  0.1013 -0.3983 -0.1461
 2774SOL    HW210868   1.880   2.665   5.414  0.1043  1.0211  0.4554
 2774SOL    HW310869   1.944   2.788   5.354  0.5597 -0.1716 -1.6361
 2774SOL    MW410870   1.924   2.704   5.349  0.1622 -0.1811 -0.2633
 2775SOL     OW10871   3.809   4.453   4.862 -0.4193  0.2582  0.5169
 2775SOL    HW210872   3.852   4.369   4.882  0.5031  0.8159  0.9386
 2775SOL    HW310873   3.756   4.434   4.784  1.4598 -0.2016 -0.7281
 2775SOL    MW410874   3.808   4.439   4.854 -0.0496  0.2711  0.4083
 2776SOL     OW10875   0.826   4.916   4.533  0.2136 -0.5522 -0.1567
 2776SOL    HW210876   0.908   4.956   4.505  0.6357 -1.5568 -0.3800
 2776SOL    HW310877   0.825   4.830   4.492 -1.8086  0.0895 -1.6363
 2776SOL    MW410878   0.837   4.910   4.524  0.0025 -0.6001 -0.3814
 2777SOL     OW10879   6.119   1.217   5.088 -0.0539  0.2826 -0.0014
 2777SOL    HW210880   6.190   1.242   5.147  0.8253  2.5707 -1.8570
 2777SOL    HW310881   6.163   1.188   5.009 -1.1731  0.7209 -0.8077
 2777SOL    MW410882   6.134   1.216   5.086 -0.0855  0.6423 -0.3526
 2778SOL     OW10883   2.683   0.992   5.597  0.1379 -0.3508 -0.6805
 2778SOL    HW210884   2.600   1.032   5.623  1.1175  1.4175 -0.0247
 2778SOL    HW310885   2.709   0.939   5.672  0.6036  0.8305  0.0268
 2778SOL    MW410886   2.676   0.991   5.610  0.3286  0.0383 -0.5007
 2779SOL     OW10887   4.455   2.668   3.467 -0.0418  0.7056 -0.2807
 2779SOL    HW210888   4.539   2.700   3.500  0.3046  0.8965 -1.3286
 2779SOL    HW310889   4.409   2.747   3.440 -0.3404  0.5554 -0.2084
 2779SOL    MW410890   4.460   2.683   3.468 -0.0355  0.7110 -0.4094
 2780SOL     OW10891   1.819   3.667   1.507  0.1815  0.0746  0.3188
 2780SOL    HW210892   1.837   3.740   1.565 -1.1784  1.6667 -1.1555
 2780SOL    HW310893   1.728   3.679   1.480 -0.4639 -2.8410  0.9035
 2780SOL    MW410894   1.809   3.678   1.511 -0.0831 -0.1001  0.2014
 2781SOL     OW10895   5.703   4.192   6.114 -0.1752  0.1258 -0.9703
 2781SOL    HW210896   5.779   4.248   6.135 -0.5087  0.9187 -1.7891
 2781SOL    HW310897   5.628   4.242   6.145 -0.2991 -1.6733  1.9596
 2781SOL    MW410898   5.703   4.206   6.121 -0.2355 -0.0070 -0.6918
 2782SOL     OW10899   1.209   0.741   1.518  1.1495 -0.1155 -0.3835
 2782SOL    HW210900   1.162   0.820   1.545  1.4214 -0.2960  0.6945
 2782SOL    HW310901   1.177   0.673   1.578  1.3120 -0.7080 -0.9501
 2782SOL    MW410902   1.198   0.742   1.530  1.2068 -0.2175 -0.3160
 2783SOL     OW10903   4.846   1.706   2.518 -0.2304 -0.3923 -0.1756
 2783SOL    HW210904   4.852   1.732   2.610 -0.1289  1.1887 -0.5982
 2783SOL    HW310905   4.919   1.752   2.475 -0.2092 -1.1896 -1.0426
 2783SOL    MW410906   4.857   1.715   2.524 -0.2142 -0.2889 -0.3458
 2784SOL     OW10907   1.351   3.575   0.941 -0.6329  0.5257  0.0147
 2784SOL    HW210908   1.344   3.652   0.884  0.8517  0.8940  0.2702
 2784SOL    HW310909   1.428   3.593   0.996 -0.2577 -1.1235  0.0861
 2784SOL    MW410910   1.360   3.588   0.940 -0.3875  0.3567  0.0578
 2785SOL     OW10911   1.860   2.001   3.593 -0.3254 -0.1961 -0.0337
 2785SOL    HW210912   1.848   2.035   3.682  0.5603 -0.4932  0.2063
 2785SOL    HW310913   1.846   1.906   3.601 -2.2386 -0.0114 -0.5992
 2785SOL    MW410914   1.857   1.993   3.606 -0.4610 -0.2109 -0.0767
 2786SOL     OW10915   5.925   2.399   0.016 -0.1408  0.3087  0.1879
 2786SOL    HW210916   5.879   2.396   0.100 -1.1779 -1.4590 -0.3914
 2786SOL    HW310917   5.860   2.372  -0.048  1.4980 -1.6468 -0.7589
 2786SOL    MW410918   5.910   2.395   0.019 -0.0614 -0.1825 -0.0135
 2787SOL     OW10919   5.560   1.407   4.777  0.2604  0.0596  0.0713
 2787SOL    HW210920   5.653   1.400   4.799  0.5042  1.7459 -0.3077
 2787SOL    HW310921   5.539   1.324   4.735  2.2877  0.6402 -2.3064
 2787SOL    MW410922   5.570   1.395   4.775  0.5601  0.3587 -0.2924
 2788SOL     OW10923   4.237   5.183   4.574  0.1885 -0.7995 -0.0911
 2788SOL    HW210924   4.152   5.226   4.570  0.4283 -0.3005  0.0989
 2788SOL    HW310925   4.300   5.254   4.581  0.6229 -1.1649 -0.2126
 2788SOL    MW410926   4.234   5.198   4.575  0.2775 -0.7818 -0.0820
 2789SOL     OW10927   6.016   5.144   4.551 -0.4580 -0.0268 -0.3618
 2789SOL    HW210928   5.968   5.204   4.494  2.0667  0.8650 -1.7064
 2789SOL    HW310929   6.010   5.059   4.508 -0.2177  0.2384 -0.9295
 2789SOL    MW410930   6.009   5.141   4.538 -0.0932  0.1259 -0.6141
 2790SOL     OW10931   6.368   6.033   6.295  0.3819  0.6880 -0.2575
 2790SOL    HW210932   6.324   6.113   6.325 -0.9006  0.2627 -0.9456
 2790SOL    HW310933   6.428   6.063   6.227 -0.2661  1.0420 -0.6787
 2790SOL    MW410934   6.370   6.048   6.290  0.1272  0.6786 -0.4038
 2791SOL     OW10935   2.901   1.948   4.797 -0.2730  0.0238 -0.2012
 2791SOL    HW210936   2.862   1.923   4.880 -0.3412 -0.6414 -0.4272
 2791SOL    HW310937   2.887   1.872   4.740  0.3560  0.2162 -0.6195
 2791SOL    MW410938   2.894   1.935   4.800 -0.1990 -0.0386 -0.2862
 2792SOL     OW10939   3.162   1.390   4.371  0.1374 -0.4254 -0.0872
 2792SOL    HW210940   3.110   1.399   4.291 -0.4522 -0.5736  0.2714
 2792SOL    HW310941   3.225   1.321   4.350  0.9155  0.4934 -0.8892
 2792SOL    MW410942   3.163   1.382   4.357  0.1623 -0.3237 -0.1457
 2793SOL     OW10943   5.781   2.239   5.712 -0.0725  0.2999  0.3424
 2793SOL    HW210944   5.813   2.281   5.792 -1.9797  1.7628  0.4048
 2793SOL    HW310945   5.733   2.307   5.666 -3.6651 -1.7310  0.6289
 2793SOL    MW410946   5.779   2.253   5.717 -0.7981  0.2249  0.3884
 2794SOL     OW10947   5.699   6.212   6.167 -0.2401  0.5022  0.4357
 2794SOL    HW210948   5.617   6.175   6.132 -0.4719  2.1231 -0.8382
 2794SOL    HW310949   5.755   6.135   6.180 -0.9390 -0.4108 -1.4771
 2794SOL    MW410950   5.695   6.197   6.164 -0.3629  0.5956  0.0152
 2795SOL     OW10951   6.213   5.084   5.532 -0.0789  0.3203 -0.2511
 2795SOL    HW210952   6.264   5.121   5.461 -1.2328  1.6026 -0.4715
 2795SOL    HW310953   6.278   5.054   5.596  0.9894 -1.2218 -1.9642
 2795SOL    MW410954   6.228   5.085   5.531 -0.0902  0.2860 -0.5062
 2796SOL     OW10955   6.214   6.092   0.684 -1.0994 -0.1871  0.1781
 2796SOL    HW210956   6.177   6.070   0.769  0.9951  0.0559  1.2005
 2796SOL    HW310957   6.288   6.032   0.673 -1.4069 -0.3142 -1.5612
 2796SOL    MW410958   6.219   6.081   0.694 -0.8636 -0.1718  0.0835
 2797SOL     OW10959   5.500   1.556   6.174  0.5688 -0.2622 -0.0578
 2797SOL    HW210960   5.507   1.610   6.096 -0.7799 -1.7125 -1.2487
 2797SOL    HW310961   5.428   1.594   6.223  0.3187 -0.3444 -0.3593
 2797SOL    MW410962   5.492   1.568   6.170  0.3579 -0.4644 -0.2547
 2798SOL     OW10963   0.031   5.944   5.241 -0.2217 -0.1041  0.4503
 2798SOL    HW210964   0.114   5.899   5.259 -0.9000 -0.7195  2.2651
 2798SOL    HW310965  -0.028   5.912   5.309 -1.3960  1.8150  0.3754
 2798SOL    MW410966   0.034   5.934   5.252 -0.4661  0.0679  0.6799
 2799SOL     OW10967   3.981   0.185   2.841  0.3322  0.6182 -0.1000
 2799SOL    HW210968   4.002   0.279   2.844  1.6928  0.3054  0.7549
 2799SOL    HW310969   3.946   0.166   2.928 -0.0656  0.3442 -0.3147
 2799SOL    MW410970   3.979   0.195   2.853  0.4592  0.5408 -0.0155
 2800SOL     OW10971   4.695   5.730   6.219  0.1483 -0.2295  0.5043
 2800SOL    HW210972   4.635   5.686   6.158  0.0105 -0.4013  0.7573
 2800SOL    HW310973   4.648   5.728   6.303 -1.6045  3.7722 -0.1446
 2800SOL    MW410974   4.681   5.724   6.222 -0.1011  0.2758  0.4521
 2801SOL     OW10975   2.964   3.827   5.902  0.4634 -0.3538 -0.4382
 2801SOL    HW210976   2.990   3.871   5.821 -1.3248  2.5861  0.4183
 2801SOL    HW310977   2.869   3.820   5.896  0.5499 -3.0411  0.1074
 2801SOL    MW410978   2.955   3.832   5.890  0.2389 -0.3205 -0.2532
 2802SOL     OW10979   5.089   0.526   4.976  0.2094  0.0652 -0.2498
 2802SOL    HW210980   5.092   0.431   4.964  0.2070 -0.0444  0.5626
 2802SOL    HW310981   5.000   0.551   4.952  0.4345 -0.0180 -1.2255
 2802SOL    MW410982   5.078   0.517   4.971  0.2388  0.0398 -0.2713
 2803SOL     OW10983   5.820   4.342   5.209  0.0211 -0.6382  0.7283
 2803SOL    HW210984   5.819   4.298   5.124  0.8869 -0.3801  0.5717
 2803SOL    HW310985   5.758   4.414   5.200  2.1031  1.1229 -0.6692
 2803SOL    MW410986   5.812   4.346   5.197  0.4100 -0.3718  0.5232
 2804SOL     OW10987   1.433   2.898   4.253  0.1447 -0.6308 -0.5340
 2804SOL    HW210988   1.386   2.831   4.203  1.5033 -1.3159 -0.9505
 2804SOL    HW310989   1.432   2.975   4.197 -0.0628 -0.7882 -0.7466
 2804SOL    MW410990   1.427   2.900   4.239  0.2966 -0.7420 -0.6170
 2805SOL     OW10991   2.241   5.686   0.526 -0.1449 -0.0113 -0.3057
 2805SOL    HW210992   2.165   5.635   0.498 -0.0044 -0.9334  0.9237
 2805SOL    HW310993   2.220   5.714   0.614  0.7134  0.1845 -0.1534
 2805SOL    MW410994   2.229   5.683   0.534 -0.0131 -0.1071 -0.1234
 2806SOL     OW10995   6.264   4.382   3.692 -0.3891  0.0585  0.2709
 2806SOL    HW210996   6.200   4.412   3.629  0.3533 -0.8211 -0.9422
 2806SOL    HW310997   6.213   4.351   3.767 -1.5061 -2.1762 -1.3271
 2806SOL    MW410998   6.249   4.382   3.694 -0.4386 -0.3524 -0.1000
 2807SOL     OW10999   4.149   2.094   3.504 -0.3330  0.0778 -0.8443
 2807SOL    HW211000   4.225   2.089   3.563 -0.8804  1.0870 -0.0085
 2807SOL    HW311001   4.074   2.084   3.562 -0.8660 -0.0385 -1.5444
 2807SOL    MW411002   4.149   2.092   3.520 -0.4756  0.1956 -0.8264
 2808SOL     OW11003   0.379   1.816   3.373  0.1717 -0.0180  0.6098
 2808SOL    HW211004   0.437   1.758   3.323 -0.8545 -0.1500 -0.4580
 2808SOL    HW311005   0.410   1.904   3.353  1.1315 -0.1383  1.4839
 2808SOL    MW411006   0.391   1.820   3.364  0.1629 -0.0513  0.5842
 2809SOL     OW11007   3.674   2.699   2.653 -0.2116  0.0379 -0.1158
 2809SOL    HW211008   3.730   2.770   2.622 -0.4444 -0.3446 -1.4984
 2809SOL    HW311009   3.612   2.684   2.582 -0.0283 -1.6975  0.0348
 2809SOL    MW411010   3.673   2.706   2.640 -0.2181 -0.2415 -0.2784
 2810SOL     OW11011   1.868   1.223   2.799  0.0585  0.1722 -0.6604
 2810SOL    HW211012   1.941   1.162   2.786 -0.8337 -1.2047  0.3748
 2810SOL    HW311013   1.814   1.180   2.866 -0.0200  2.6843  0.9892
 2810SOL    MW411014   1.870   1.209   2.806 -0.0696  0.3220 -0.3061
 2811SOL     OW11015   2.062   6.172   0.686  0.5125 -0.2706 -0.1228
 2811SOL    HW211016   2.158   6.177   0.684  0.4689  0.8319 -0.8993
 2811SOL    HW311017   2.041   6.107   0.619  0.6874  0.6311 -1.0806
 2811SOL    MW411018   2.072   6.164   0.677  0.5298 -0.0062 -0.3517
 2812SOL     OW11019   3.186   5.848   0.871  0.3871 -0.0808  0.6255
 2812SOL    HW211020   3.280   5.856   0.857  0.3312  1.7017  1.0208
 2812SOL    HW311021   3.150   5.826   0.785  1.0206  0.6559  0.1611
 2812SOL    MW411022   3.194   5.846   0.858  0.4633  0.2516  0.6164
 2813SOL     OW11023   5.300   2.472   3.920 -0.5957 -0.1913  0.7183
 2813SOL    HW211024   5.372   2.483   3.982 -0.5220 -0.6822  0.7221
 2813SOL    HW311025   5.221   2.485   3.972 -0.5283 -0.3914  0.8703
 2813SOL    MW411026   5.299   2.475   3.935 -0.5771 -0.2825  0.7388
 2814SOL     OW11027   6.119   1.636   5.970 -0.0655 -0.1386  0.1460
 2814SOL    HW211028   6.188   1.638   6.036  0.0259  1.2662  0.0427
 2814SOL    HW311029   6.108   1.727   5.944  0.2763 -0.6902 -2.1890
 2814SOL    MW411030   6.126   1.648   5.975 -0.0083 -0.0261 -0.1757
 2815SOL     OW11031   5.650   5.327   0.041  0.1092  0.5752 -0.0146
 2815SOL    HW211032   5.565   5.353   0.007 -0.7220 -1.6270  0.2308
 2815SOL    HW311033   5.680   5.402   0.092 -1.7628  1.3146  0.0524
 2815SOL    MW411034   5.643   5.340   0.043 -0.2474  0.3822  0.0266
 2816SOL     OW11035   2.683   6.014   1.467  0.5704 -0.4211 -0.1261
 2816SOL    HW211036   2.704   6.053   1.553 -1.0914 -2.8361  1.5005
 2816SOL    HW311037   2.738   5.936   1.463  1.8023  0.4540 -2.0879
 2816SOL    MW411038   2.693   6.009   1.478  0.5137 -0.6243 -0.1704
 2817SOL     OW11039   6.052   1.146   4.641  0.5183 -0.1525 -0.1372
 2817SOL    HW211040   6.041   1.241   4.645  1.4895 -0.0723  1.0029
 2817SOL    HW311041   6.134   1.132   4.594  1.3784 -0.3334  1.3516
 2817SOL    MW411042   6.061   1.156   4.636  0.7599 -0.1658  0.2097
 2818SOL     OW11043   4.223   6.234   5.777 -0.1303  0.7056 -0.0863
 2818SOL    HW211044   4.266   6.150   5.797 -0.7467  0.7138  1.3836
 2818SOL    HW311045   4.236   6.245   5.682 -1.1317 -1.6702 -0.5704
 2818SOL    MW411046   4.231   6.224   5.767 -0.3438  0.3932  0.0438
 2819SOL     OW11047   1.177   0.092   6.054 -0.4018  0.1139 -0.0784
 2819SOL    HW211048   1.263   0.086   6.013 -0.6391 -0.9381 -0.4568
 2819SOL    HW311049   1.189   0.154   6.126  0.4337  0.6893 -0.7036
 2819SOL    MW411050   1.190   0.099   6.058 -0.3229  0.0510 -0.2108
 2820SOL     OW11051   5.380   1.329   5.264  0.3873  0.3671 -0.0146
 2820SOL    HW211052   5.380   1.363   5.175 -0.2795 -0.4687 -0.3550
 2820SOL    HW311053   5.302   1.273   5.268  1.5199 -1.2592  0.4311
 2820SOL    MW411054   5.370   1.326   5.253  0.4487  0.0423 -0.0007
 2821SOL     OW11055   2.404   0.116   0.548  0.3993 -0.3791  0.3954
 2821SOL    HW211056   2.337   0.115   0.617 -0.2011 -0.8005 -0.1822
 2821SOL    HW311057   2.424   0.023   0.535  0.7337 -0.2796  0.2159
 2821SOL    MW411058   2.398   0.103   0.555  0.3642 -0.4216  0.2955
 2822SOL     OW11059   2.810   6.107   1.720  0.7339  0.4122  0.0803
 2822SOL    HW211060   2.834   6.196   1.745 -1.8861  1.2794 -0.1899
 2822SOL    HW311061   2.741   6.083   1.782 -0.7695 -0.1761 -1.7299
 2822SOL    MW411062   2.804   6.116   1.731  0.1898  0.4490 -0.1942
 2823SOL     OW11063   5.032   3.831   5.200 -0.1854  0.2846 -0.2382
 2823SOL    HW211064   5.028   3.796   5.289 -1.6590  0.7234 -0.1063
 2823SOL    HW311065   5.124   3.856   5.188  0.2954 -0.9283  0.6890
 2823SOL    MW411066   5.044   3.830   5.210 -0.3164  0.1825 -0.0985
 2824SOL     OW11067   2.889   5.965   6.077  0.4122 -0.0787 -0.1122
 2824SOL    HW211068   2.910   5.923   5.993 -0.9798 -0.2009 -0.4180
 2824SOL    HW311069   2.895   5.895   6.141 -0.0463 -0.3272 -0.3397
 2824SOL    MW411070   2.893   5.950   6.074  0.1680 -0.1276 -0.1825
 2825SOL     OW11071   1.971   3.488   5.896  0.3694  0.0864 -0.2654
 2825SOL    HW211072   1.927   3.405   5.875  1.2366 -0.6255  0.6386
 2825SOL    HW311073   1.901   3.547   5.923 -0.1684 -0.6403 -0.0525
 2825SOL    MW411074   1.956   3.485   5.897  0.4129 -0.1034 -0.1181
 2826SOL     OW11075   5.222   4.791   1.283 -0.1706 -0.0576 -0.0735
 2826SOL    HW211076   5.131   4.815   1.299 -0.4489 -1.9327  1.5128
 2826SOL    HW311077   5.272   4.845   1.344 -0.4601 -0.8505  0.8755
 2826SOL    MW411078   5.217   4.802   1.293 -0.2455 -0.4096  0.2610
 2827SOL     OW11079   5.430   3.090   6.164 -1.0722 -0.8315  0.0331
 2827SOL    HW211080   5.374   3.147   6.111 -0.5113  0.4240  0.7262
 2827SOL    HW311081   5.391   3.095   6.252  0.1521  0.1630  0.5530
 2827SOL    MW411082   5.417   3.098   6.169 -0.8366 -0.5346  0.1931
 2828SOL     OW11083   4.786   4.125   2.829 -0.3098 -0.4912  0.3287
 2828SOL    HW211084   4.843   4.054   2.799  1.6461  0.4546  1.5558
 2828SOL    HW311085   4.757   4.169   2.749 -0.6652 -1.9796 -0.3897
 2828SOL    MW411086   4.790   4.121   2.815 -0.0986 -0.5628  0.3958
 2829SOL     OW11087   4.794   1.014   4.395 -0.3207  0.2718  0.5071
 2829SOL    HW211088   4.813   1.052   4.480 -0.0419 -0.5567  0.8180
 2829SOL    HW311089   4.871   1.035   4.341 -0.1828  0.1830  0.6689
 2829SOL    MW411090   4.807   1.022   4.399 -0.2657  0.1507  0.5694
 2830SOL     OW11091   5.524   2.796   0.135  0.4994 -0.2603 -0.2601
 2830SOL    HW211092   5.556   2.756   0.054  0.9151  0.3700 -0.4116
 2830SOL    HW311093   5.583   2.763   0.203  1.6096  1.0128 -0.5578
 2830SOL    MW411094   5.536   2.787   0.133  0.7007 -0.0092 -0.3194
 2831SOL     OW11095   2.412   4.383   4.706  0.1569 -0.1008 -0.0272
 2831SOL    HW211096   2.349   4.376   4.634 -1.2483 -0.3536  1.2038
 2831SOL    HW311097   2.481   4.320   4.684 -0.3468 -0.3142 -1.0411
 2831SOL    MW411098   2.413   4.374   4.693 -0.0950 -0.1623  0.0014
 2832SOL     OW11099   3.852   5.559   4.896 -0.3890  0.0005 -0.1069
 2832SOL    HW211100   3.838   5.471   4.931 -2.2550 -0.9187 -2.8049
 2832SOL    HW311101   3.764   5.598   4.894  0.2158  1.4292 -0.1879
 2832SOL    MW411102   3.839   5.552   4.900 -0.5554  0.0677 -0.4736
 2833SOL     OW11103   0.887   6.364   3.437 -0.5230 -0.1573 -0.0787
 2833SOL    HW211104   0.840   6.422   3.497  1.5517  1.4056  0.1614
 2833SOL    HW311105   0.970   6.409   3.420  0.3077 -2.0920 -1.5909
 2833SOL    MW411106   0.892   6.377   3.442 -0.1397 -0.2064 -0.2465
 2834SOL     OW11107   3.836   4.682   3.048 -0.3157 -0.1961  0.0329
 2834SOL    HW211108   3.849   4.746   3.118 -2.0865  0.9018 -0.5775
 2834SOL    HW311109   3.912   4.693   2.990 -1.0256  2.0750 -0.5524
 2834SOL    MW411110   3.848   4.692   3.049 -0.6430  0.2484 -0.1248
 2835SOL     OW11111   2.635   3.171   4.659  0.1889 -0.0185  1.0102
 2835SOL    HW211112   2.614   3.180   4.566  1.1057 -1.4146  0.6502
 2835SOL    HW311113   2.557   3.131   4.698  0.2607 -0.5559  0.6108
 2835SOL    MW411114   2.622   3.167   4.652  0.3193 -0.2736  0.9100
 2836SOL     OW11115   0.569   2.821   1.219 -0.1768 -0.1171  0.4641
 2836SOL    HW211116   0.498   2.843   1.158 -1.3481 -0.0844  1.7791
 2836SOL    HW311117   0.610   2.905   1.239  1.2683 -0.2973 -1.4407
 2836SOL    MW411118   0.565   2.835   1.213 -0.1407 -0.1366  0.3863
 2837SOL     OW11119   5.076   2.134   0.248  0.2812 -0.5817  0.6330
 2837SOL    HW211120   5.137   2.142   0.321  1.3742 -1.9596 -0.0863
 2837SOL    HW311121   5.041   2.222   0.236  1.2440 -0.0154  1.8117
 2837SOL    MW411122   5.079   2.147   0.256  0.5524 -0.6887  0.6936
 2838SOL     OW11123   1.211   0.621   2.823 -0.1809 -0.0454  0.2435
 2838SOL    HW211124   1.161   0.616   2.905  0.6086  0.4875  0.7742
 2838SOL    HW311125   1.203   0.713   2.797 -0.5789 -0.2501 -0.3906
 2838SOL    MW411126   1.203   0.633   2.831 -0.1292 -0.0021  0.2299
 2839SOL     OW11127   3.161   0.342   4.540 -0.0751  0.2232 -0.8942
 2839SOL    HW211128   3.149   0.287   4.462 -1.3715  0.2713 -0.7648
 2839SOL    HW311129   3.081   0.326   4.592  0.1463  1.2246 -0.2268
 2839SOL    MW411130   3.149   0.333   4.537 -0.2169  0.3617 -0.7891
 2840SOL     OW11131   6.122   0.233   0.389 -0.1131 -0.2575 -0.6550
 2840SOL    HW211132   6.160   0.286   0.320  0.0728 -1.3026 -1.3856
 2840SOL    HW311133   6.192   0.172   0.414 -0.0791  0.2909  0.6746
 2840SOL    MW411134   6.136   0.232   0.383 -0.0841 -0.3230 -0.5759
 2841SOL     OW11135   3.063   0.629   0.971  0.5088 -0.1136 -0.1944
 2841SOL    HW211136   3.009   0.569   1.022  0.3358  0.1160 -0.1048
 2841SOL    HW311137   3.126   0.665   1.035  0.8021 -0.4190 -0.3086
 2841SOL    MW411138   3.065   0.626   0.987  0.5247 -0.1236 -0.1977
 2842SOL     OW11139   3.151   5.317   3.859 -0.8804  0.0858 -0.0614
 2842SOL    HW211140   3.214   5.303   3.789 -0.6409  0.2243  0.1266
 2842SOL    HW311141   3.134   5.229   3.894 -1.4041 -0.0548 -0.6351
 2842SOL    MW411142   3.157   5.303   3.854 -0.9179  0.0855 -0.1123
 2843SOL     OW11143   1.066   3.884   5.917 -0.0925 -0.6937  0.1729
 2843SOL    HW211144   1.029   3.921   5.997 -0.9524 -0.3090 -0.3848
 2843SOL    HW311145   1.161   3.882   5.933 -0.1728  0.2043  0.8457
 2843SOL    MW411146   1.074   3.888   5.930 -0.2166 -0.5245  0.1881
 2844SOL     OW11147   4.983   6.411   1.993 -0.4320  0.1539  0.0035
 2844SOL    HW211148   4.955   6.332   1.946  0.9618 -0.8676  0.8042
 2844SOL    HW311149   4.996   6.382   2.083  2.4602  0.6540 -0.1599
 2844SOL    MW411150   4.981   6.397   1.999  0.1335  0.0851  0.0876
 2845SOL     OW11151   5.421   4.595   5.749 -0.2236 -0.6696 -0.1750
 2845SOL    HW211152   5.375   4.667   5.705  1.8743  0.3022 -0.9246
 2845SOL    HW311153   5.366   4.519   5.734 -1.4287  0.3633 -1.2715
 2845SOL    MW411154   5.408   4.595   5.741 -0.1058 -0.4051 -0.4186
 2846SOL     OW11155   4.109   2.415   5.408 -0.0172  0.6536  0.1136
 2846SOL    HW211156   4.146   2.408   5.496  0.0284  0.3979  0.0746
 2846SOL    HW311157   4.082   2.326   5.387  0.3037  0.6476 -0.2760
 2846SOL    MW411158   4.110   2.403   5.417  0.0312  0.6191  0.0570
 2847SOL     OW11159   0.765   5.134   4.937  0.4409  0.0828  0.0970
 2847SOL    HW211160   0.763   5.043   4.908  0.5424 -0.0920  0.6320
 2847SOL    HW311161   0.807   5.181   4.865  0.5975 -0.3289 -0.0827
 2847SOL    MW411162   0.771   5.128   4.924  0.4750  0.0054  0.1439
 2848SOL     OW11163   4.020   0.016   0.486 -0.1568 -0.4415 -0.6592
 2848SOL    HW211164   3.948  -0.036   0.450 -1.3111  1.6643 -1.5852
 2848SOL    HW311165   4.080   0.028   0.413 -0.9005  1.1195 -1.0748
 2848SOL    MW411166   4.018   0.011   0.472 -0.4072  0.0423 -0.8362
 2849SOL     OW11167   2.808   5.755   2.767  0.0742  0.0526  0.2624
 2849SOL    HW211168   2.799   5.660   2.778 -1.2621  0.0330 -0.7162
 2849SOL    HW311169   2.791   5.770   2.674 -1.3759  1.4214  0.7145
 2849SOL    MW411170   2.805   5.744   2.756 -0.2934  0.2306  0.1929
 2850SOL     OW11171   3.089   3.599   2.185 -0.5013 -0.5033 -0.1061
 2850SOL    HW211172   3.109   3.539   2.114 -1.0659 -0.2350 -0.5057
 2850SOL    HW311173   3.103   3.549   2.265 -0.4242 -0.9887 -0.4252
 2850SOL    MW411174   3.093   3.585   2.186 -0.5656 -0.5319 -0.2010
 2851SOL     OW11175   4.595   2.629   2.193  0.4796  0.0798  0.2178
 2851SOL    HW211176   4.625   2.681   2.268  2.7037 -0.7109 -0.0552
 2851SOL    HW311177   4.587   2.693   2.122 -0.5499  0.6440  0.8133
 2851SOL    MW411178   4.598   2.645   2.193  0.6372  0.0499  0.2603
 2852SOL     OW11179   2.013   0.375   1.710  0.3137 -0.4748  0.0190
 2852SOL    HW211180   1.990   0.285   1.731  0.1404 -0.2729  0.7071
 2852SOL    HW311181   2.070   0.368   1.633 -0.7916 -1.0751 -0.7622
 2852SOL    MW411182   2.018   0.363   1.703  0.1450 -0.5274  0.0067
 2853SOL     OW11183   5.642   4.473   4.434  0.0279 -0.4470  0.1834
 2853SOL    HW211184   5.686   4.434   4.359  1.7094 -3.9345  2.7354
 2853SOL    HW311185   5.571   4.413   4.455 -0.3972  0.4304  1.4152
 2853SOL    MW411186   5.638   4.460   4.427  0.1937 -0.7914  0.6826
 2854SOL     OW11187   2.402   3.585   3.762  0.2904  0.4892  0.6983
 2854SOL    HW211188   2.390   3.674   3.797  0.8101  1.0473 -0.4826
 2854SOL    HW311189   2.426   3.533   3.839  1.1298  1.6151  1.2429
 2854SOL    MW411190   2.403   3.590   3.777  0.4697  0.7114  0.6143
 2855SOL     OW11191   4.791   4.227   2.570  0.1517 -0.5978 -0.6510
 2855SOL    HW211192   4.725   4.295   2.578 -0.7786 -1.5490 -0.0403
 2855SOL    HW311193   4.872   4.269   2.601 -0.5774 -0.0346  0.5637
 2855SOL    MW411194   4.793   4.242   2.575 -0.0672 -0.6490 -0.4101
 2856SOL     OW11195   0.738   5.979   2.859  0.0810  0.6463  0.0295
 2856SOL    HW211196   0.673   5.996   2.927 -1.2119 -0.0352 -0.9846
 2856SOL    HW311197   0.687   5.959   2.781  1.5200  0.3298 -0.8821
 2856SOL    MW411198   0.723   5.979   2.858  0.1003  0.5146 -0.2246
 2857SOL     OW11199   0.332   4.536   0.662 -0.2069 -0.6774 -0.2183
 2857SOL    HW211200   0.242   4.568   0.667  0.0798  0.3796 -1.3611
 2857SOL    HW311201   0.361   4.557   0.574  2.0502  1.4627  0.9014
 2857SOL    MW411202   0.324   4.543   0.651  0.1287 -0.2556 -0.2213
 2858SOL     OW11203   2.972   5.291   5.148 -0.2097 -0.1520  0.4798
 2858SOL    HW211204   2.923   5.364   5.111 -0.6959 -0.3724  0.6834
 2858SOL    HW311205   2.925   5.213   5.119  0.4967 -0.4048 -0.0139
 2858SOL    MW411206   2.960   5.290   5.139 -0.1806 -0.2144  0.4416
 2859SOL     OW11207   4.049   5.102   3.868 -0.0956  0.5246  0.0176
 2859SOL    HW211208   4.116   5.145   3.815 -0.1943 -0.3746 -0.8631
 2859SOL    HW311209   3.969   5.151   3.849 -0.2900 -0.2423 -1.2918
 2859SOL    MW411210   4.047   5.114   3.858 -0.1343  0.3048 -0.2713
 2860SOL     OW11211   1.766   0.606   1.791  0.5611 -0.0844  0.0868
 2860SOL    HW211212   1.694   0.618   1.728  1.5856 -1.2551 -1.3716
 2860SOL    HW311213   1.754   0.517   1.825  1.8191 -0.6498 -0.8815
 2860SOL    MW411214   1.755   0.596   1.787  0.8622 -0.3134 -0.2334
 2861SOL     OW11215   1.025   4.771   0.142  0.5828 -0.5067  0.3617
 2861SOL    HW211216   1.027   4.703   0.075 -0.8859  0.8449 -1.1292
 2861SOL    HW311217   1.015   4.853   0.094 -2.5190  0.3871  2.1933
 2861SOL    MW411218   1.024   4.773   0.127 -0.0202 -0.2104  0.4067
 2862SOL     OW11219   6.255   3.700   3.482  0.0145 -0.0411 -0.0203
 2862SOL    HW211220   6.180   3.672   3.429  0.8283 -1.2678 -0.5833
 2862SOL    HW311221   6.233   3.675   3.571  0.1014 -1.2378 -0.3108
 2862SOL    MW411222   6.243   3.693   3.487  0.1333 -0.3609 -0.1329
 2863SOL     OW11223   1.276   3.554   1.978  0.0582  0.0948 -0.3758
 2863SOL    HW211224   1.207   3.587   1.920 -0.1124  0.8881  0.2628
 2863SOL    HW311225   1.230   3.494   2.037  0.0590  0.0280 -0.4423
 2863SOL    MW411226   1.261   3.550   1.978  0.0358  0.1906 -0.3003
 2864SOL     OW11227   4.098   2.993   0.421  0.0359  0.1157 -0.2959
 2864SOL    HW211228   4.190   2.974   0.437  0.0473  1.1450  1.1050
 2864SOL    HW311229   4.082   3.075   0.469 -2.0748 -1.0932  1.2579
 2864SOL    MW411230   4.108   3.001   0.430 -0.2411  0.0920  0.0940
 2865SOL     OW11231   3.488   3.273   1.002 -0.1538 -0.6386  0.3271
 2865SOL    HW211232   3.402   3.242   1.029 -0.8592 -0.0952 -1.1924
 2865SOL    HW311233   3.524   3.201   0.950 -0.1901 -0.4168 -0.0099
 2865SOL    MW411234   3.482   3.259   0.999 -0.2517 -0.5377  0.0822
 2866SOL     OW11235   4.344   0.554   2.434 -0.4789  0.2083  0.7298
 2866SOL    HW211236   4.297   0.567   2.516 -0.7915 -0.5072  0.6683
 2866SOL    HW311237   4.384   0.468   2.443 -0.2414  0.2678  0.2631
 2866SOL    MW411238   4.343   0.544   2.446 -0.4888  0.1218  0.6601
 2867SOL     OW11239   4.227   1.277   1.829  0.0621 -0.0888  0.3483
 2867SOL    HW211240   4.151   1.307   1.880 -0.5570 -1.5260  0.3052
 2867SOL    HW311241   4.232   1.183   1.846  0.3882 -0.4459 -1.5228
 2867SOL    MW411242   4.218   1.269   1.838  0.0235 -0.3255  0.0957
 2868SOL     OW11243   3.359   4.488   4.430  0.1577 -0.0192  0.1433
 2868SOL    HW211244   3.375   4.504   4.523 -1.7377  1.1242  0.3302
 2868SOL    HW311245   3.328   4.397   4.427 -0.3192  0.1131  0.7217
 2868SOL    MW411246   3.357   4.478   4.442 -0.1553  0.1491  0.2443
 2869SOL     OW11247   1.997   2.788   5.699  0.3445 -0.2967 -0.0292
 2869SOL    HW211248   2.052   2.835   5.761  1.9385 -1.0189 -0.8498
 2869SOL    HW311249   2.058   2.743   5.641 -1.1158 -1.4478 -0.7495
 2869SOL    MW411250   2.012   2.789   5.700  0.3621 -0.5439 -0.2325
 2870SOL     OW11251   3.295   3.955   6.127  0.4389  0.0499 -0.0366
 2870SOL    HW211252   3.261   3.867   6.143  1.1431 -0.9072 -3.0569
 2870SOL    HW311253   3.287   4.000   6.211  0.8203 -3.1450  1.8819
 2870SOL    MW411254   3.290   3.949   6.140  0.5821 -0.4979 -0.1819
 2871SOL     OW11255   4.573   2.595   3.759  0.5046 -0.2470 -0.5135
 2871SOL    HW211256   4.498   2.546   3.725  1.1226 -0.7493 -1.1792
 2871SOL    HW311257   4.534   2.667   3.809 -0.4486 -1.8744  1.2050
 2871SOL    MW411258   4.558   2.598   3.761  0.4604 -0.5279 -0.3746
 2872SOL     OW11259   2.153   5.867   1.220 -0.0558  0.2275  0.1640
 2872SOL    HW211260   2.093   5.934   1.252 -0.8633 -0.5526  0.3492
 2872SOL    HW311261   2.095   5.800   1.182  0.7690  0.0753 -0.8774
 2872SOL    MW411262   2.137   5.867   1.219 -0.0535  0.1045  0.0510
 2873SOL     OW11263   4.727   2.139   5.097  0.5450 -0.2024  0.4715
 2873SOL    HW211264   4.745   2.195   5.022 -0.1066  0.5085  0.8247
 2873SOL    HW311265   4.797   2.158   5.159 -0.8916  2.0288  1.5557
 2873SOL    MW411266   4.739   2.149   5.095  0.2695  0.1858  0.6611
 2874SOL     OW11267   2.938   6.418   3.675 -0.2649  0.1345 -0.4946
 2874SOL    HW211268   3.028   6.400   3.704 -0.9484 -0.8134  1.1623
 2874SOL    HW311269   2.932   6.375   3.590  0.5916 -0.5310 -0.2356
 2874SOL    MW411270   2.949   6.410   3.667 -0.2421 -0.0784 -0.2419
 2875SOL     OW11271   5.253   1.464   5.517  0.1395  0.4464 -0.0322
 2875SOL    HW211272   5.303   1.449   5.437 -0.6549 -0.9039 -0.2992
 2875SOL    HW311273   5.187   1.529   5.492  0.7620  1.0644 -0.0911
 2875SOL    MW411274   5.251   1.471   5.503  0.1168  0.3498 -0.0752
 2876SOL     OW11275   0.590   5.980   3.798  0.3716 -0.1990 -0.4369
 2876SOL    HW211276   0.623   6.070   3.799 -2.6801  1.1901 -3.8974
 2876SOL    HW311277   0.625   5.943   3.717 -0.4189 -1.2587 -0.3152
 2876SOL    MW411278   0.599   5.987   3.787 -0.1353 -0.1555 -0.8774
 2877SOL     OW11279   2.990   2.171   1.581  0.2327 -0.0887 -0.2113
 2877SOL    HW211280   2.984   2.078   1.604 -0.7214 -0.0694 -0.3380
 2877SOL    HW311281   3.011   2.214   1.663  0.2644 -0.3756 -0.0660
 2877SOL    MW411282   2.992   2.164   1.595  0.1110 -0.1240 -0.2088
 2878SOL     OW11283   4.531   0.262   5.994  0.2546  0.2802  0.4729
 2878SOL    HW211284   4.606   0.220   6.035  1.2885  1.1440 -0.4788
 2878SOL    HW311285   4.531   0.228   5.904 -0.2171  0.6597  0.3251
 2878SOL    MW411286   4.541   0.252   5.987  0.3288  0.4443  0.3279
 2879SOL     OW11287   0.409   5.246   0.212 -0.6091  0.5321 -0.2742
 2879SOL    HW211288   0.398   5.280   0.123 -1.7993 -1.8589 -1.1434
 2879SOL    HW311289   0.320   5.236   0.245 -0.1701  1.3886  1.2193
 2879SOL    MW411290   0.396   5.249   0.204 -0.7082  0.3296 -0.1919
 2880SOL     OW11291   2.958   4.309   4.417 -0.2155  0.1933 -0.0860
 2880SOL    HW211292   2.997   4.345   4.497 -0.2237 -0.6417  0.3119
 2880SOL    HW311293   2.889   4.371   4.394  0.9489  1.3933 -0.4780
 2880SOL    MW411294   2.954   4.322   4.425 -0.0630  0.2415 -0.0852
 2881SOL     OW11295   0.431   3.751   2.913 -0.0644  0.0457 -0.4438
 2881SOL    HW211296   0.493   3.807   2.866 -0.5232 -0.4493 -1.6912
 2881SOL    HW311297   0.486   3.684   2.954  0.2446 -0.5195 -1.7221
 2881SOL    MW411298   0.446   3.749   2.912 -0.0841 -0.0942 -0.7771
 2882SOL     OW11299   5.394   1.554   1.698 -0.6832 -0.0573 -0.4039
 2882SOL    HW211300   5.340   1.630   1.721 -0.7301 -0.2317  0.0568
 2882SOL    HW311301   5.484   1.585   1.709 -0.7049 -0.5800  1.4811
 2882SOL    MW411302   5.398   1.568   1.702 -0.6922 -0.1493 -0.0944
 2883SOL     OW11303   5.772   5.343   1.929  0.2352  0.0005 -0.6780
 2883SOL    HW211304   5.784   5.422   1.875 -1.8340  0.4251 -0.5886
 2883SOL    HW311305   5.690   5.359   1.976  0.0426 -1.9981 -0.2770
 2883SOL    MW411306   5.763   5.356   1.928 -0.0632 -0.2072 -0.6133
 2884SOL     OW11307   5.877   1.204   5.553  0.2317 -0.0781 -0.2848
 2884SOL    HW211308   5.836   1.290   5.562 -2.0042 -1.0850 -0.4363
 2884SOL    HW311309   5.855   1.176   5.465  1.1082 -0.7584 -0.3021
 2884SOL    MW411310   5.869   1.212   5.543  0.0524 -0.3007 -0.3071
 2885SOL     OW11311   0.951   0.544   1.057  0.1910 -0.1488 -0.5925
 2885SOL    HW211312   0.979   0.583   1.139 -1.2754  0.0806 -0.1710
 2885SOL    HW311313   0.865   0.506   1.077  0.6999 -1.8808 -1.4901
 2885SOL    MW411314   0.943   0.544   1.071  0.0647 -0.3470 -0.6553
 2886SOL     OW11315   2.273   0.716   5.178  0.6417 -0.5850  0.2453
 2886SOL    HW211316   2.207   0.658   5.215  0.1970 -0.6839 -0.6783
 2886SOL    HW311317   2.342   0.657   5.147  0.0517 -0.6657 -0.9683
 2886SOL    MW411318   2.273   0.701   5.179  0.5052 -0.6087 -0.0366
 2887SOL     OW11319   5.753   5.708   5.120  0.4859  0.4150 -0.1230
 2887SOL    HW211320   5.687   5.656   5.074  0.4307  0.3215  0.0613
 2887SOL    HW311321   5.836   5.661   5.105  0.0709 -1.3108  2.3302
 2887SOL    MW411322   5.756   5.695   5.112  0.4239  0.1750  0.2250
 2888SOL     OW11323   6.399   0.849   4.150 -0.1167 -0.1427  0.2617
 2888SOL    HW211324   6.317   0.854   4.101  0.9533 -2.1680 -1.9442
 2888SOL    HW311325   6.373   0.824   4.238 -1.9857  1.5608  0.2735
 2888SOL    MW411326   6.385   0.846   4.155 -0.2221 -0.1852 -0.0278
 2889SOL     OW11327   1.683   2.964   5.856  0.0426 -0.3099 -0.1613
 2889SOL    HW211328   1.758   2.973   5.916 -0.1737 -2.2667  0.4765
 2889SOL    HW311329   1.619   3.027   5.889 -0.2087 -1.5645  1.9421
 2889SOL    MW411330   1.685   2.973   5.868 -0.0191 -0.7336  0.2004
 2890SOL     OW11331   2.106   5.406   3.185 -0.0249 -0.2397 -0.1432
 2890SOL    HW211332   2.031   5.453   3.222  0.3701 -0.9258  1.6501
 2890SOL    HW311333   2.179   5.467   3.194  0.0988 -0.4564  0.3949
 2890SOL    MW411334   2.106   5.420   3.191  0.0435 -0.3588  0.1644
 2891SOL     OW11335   0.859   2.733   0.079 -0.5043 -0.2283  0.0962
 2891SOL    HW211336   0.866   2.714   0.172 -0.1892  1.1473  0.3655
 2891SOL    HW311337   0.944   2.769   0.054 -0.8511  0.1822 -0.5336
 2891SOL    MW411338   0.871   2.735   0.088 -0.5085  0.0074  0.0486
 2892SOL     OW11339   2.843   4.065   1.022  0.0684 -0.5595 -0.6652
 2892SOL    HW211340   2.801   4.111   1.095  1.6187 -1.1078  0.6299
 2892SOL    HW311341   2.787   4.083   0.947 -0.6718  1.4301  0.2982
 2892SOL    MW411342   2.830   4.073   1.022  0.1753 -0.3694 -0.3672
 2893SOL     OW11343   4.025   4.260   4.006 -0.6895 -0.0126  0.4930
 2893SOL    HW211344   3.982   4.190   3.957 -2.1029  0.6789  0.7268
 2893SOL    HW311345   4.061   4.215   4.083  1.1791 -1.0241 -0.8666
 2893SOL    MW411346   4.024   4.245   4.010 -0.6295 -0.0549  0.3445
 2894SOL     OW11347   0.680   2.594   3.335  0.1962  0.0858 -0.4286
 2894SOL    HW211348   0.686   2.681   3.375  0.8103  0.5511 -1.4904
 2894SOL    HW311349   0.654   2.537   3.407 -0.1649  1.1315  0.3048
 2894SOL    MW411350   0.677   2.598   3.350  0.2296  0.2852 -0.4719
 2895SOL     OW11351   5.809   0.514   1.051 -0.0426 -0.6393  0.0127
 2895SOL    HW211352   5.718   0.486   1.049 -0.0583 -0.5508 -2.0581
 2895SOL    HW311353   5.805   0.609   1.039  0.3089 -0.5363  0.6448
 2895SOL    MW411354   5.797   0.523   1.049  0.0017 -0.6140 -0.1771
 2896SOL     OW11355   2.091   0.118   2.154  0.2555 -0.4648  0.2011
 2896SOL    HW211356   2.152   0.088   2.222 -0.5122 -2.2967  0.1376
 2896SOL    HW311357   2.029   0.046   2.144 -0.5895  0.4249 -1.3381
 2896SOL    MW411358   2.091   0.105   2.162  0.0427 -0.5891 -0.0104
 2897SOL     OW11359   2.343   6.178   0.660 -0.7507 -0.0218 -0.0898
 2897SOL    HW211360   2.379   6.215   0.579 -1.6810  0.4362 -0.3079
 2897SOL    HW311361   2.382   6.231   0.730 -0.7637  0.2776 -0.3045
 2897SOL    MW411362   2.353   6.190   0.658 -0.8751  0.0781 -0.1469
 2898SOL     OW11363   3.648   6.136   2.925  0.6923  0.6131  0.2734
 2898SOL    HW211364   3.711   6.075   2.887  1.1134  0.0569  1.7942
 2898SOL    HW311365   3.577   6.141   2.861  1.3216 -0.3450 -0.5237
 2898SOL    MW411366   3.647   6.129   2.912  0.8309  0.4133  0.3689
 2899SOL     OW11367   3.688   3.699   3.796  0.0519  0.5205  0.4300
 2899SOL    HW211368   3.757   3.702   3.862  0.6530  0.3608 -0.1829
 2899SOL    HW311369   3.732   3.721   3.714 -0.7703  1.1434  0.1452
 2899SOL    MW411370   3.703   3.702   3.794  0.0227  0.5816  0.3115
 2900SOL     OW11371   3.378   0.117   2.413 -0.3035  0.7748 -0.2963
 2900SOL    HW211372   3.307   0.174   2.385  1.3423  2.7232 -0.6900
 2900SOL    HW311373   3.357   0.094   2.503 -1.3212  1.5037 -0.3388
 2900SOL    MW411374   3.366   0.121   2.421 -0.2206  1.1281 -0.3539
 2901SOL     OW11375   0.374   4.782   3.222 -0.0822 -0.0237  0.2748
 2901SOL    HW211376   0.423   4.700   3.218  2.0967  1.1954  0.3592
 2901SOL    HW311377   0.321   4.774   3.301  0.4583 -1.1755  0.5384
 2901SOL    MW411378   0.374   4.770   3.232  0.2766 -0.0148  0.3207
 2902SOL     OW11379   3.914   5.696   3.409 -0.2739  0.5521  0.7759
 2902SOL    HW211380   3.827   5.678   3.443  0.1716  0.2740  1.7879
 2902SOL    HW311381   3.971   5.635   3.454  0.4044  0.4595 -0.1686
 2902SOL    MW411382   3.910   5.686   3.419 -0.1256  0.5032  0.7848
 2903SOL     OW11383   5.105   3.600   5.929 -0.7367  0.6002  0.0357
 2903SOL    HW211384   5.047   3.530   5.899  0.5135 -0.6967  0.5273
 2903SOL    HW311385   5.152   3.562   6.004  1.3261  1.2922 -0.8336
 2903SOL    MW411386   5.103   3.586   5.935 -0.2996  0.5204 -0.0141
 2904SOL     OW11387   6.211   5.333   2.900  0.1722  0.1731  0.0167
 2904SOL    HW211388   6.300   5.314   2.870  0.1289  0.3442 -0.2163
 2904SOL    HW311389   6.171   5.247   2.913  0.2619  0.0971 -0.2044
 2904SOL    MW411390   6.217   5.319   2.898  0.1783  0.1857 -0.0432
 2905SOL     OW11391   4.989   0.327   3.967 -0.3436 -0.0796  0.1159
 2905SOL    HW211392   5.064   0.270   3.988  1.5442  1.7848 -1.1521
 2905SOL    HW311393   4.947   0.343   4.052  2.3843  1.0307  1.3758
 2905SOL    MW411394   4.994   0.322   3.981  0.2654  0.3129  0.1148
 2906SOL     OW11395   0.577   3.532   3.002  0.5338  0.1612  0.2444
 2906SOL    HW211396   0.512   3.544   3.072  2.0670  0.9481  1.6037
 2906SOL    HW311397   0.662   3.539   3.047  1.5839  1.1254 -1.7750
 2906SOL    MW411398   0.580   3.534   3.017  0.8746  0.3923  0.1573
 2907SOL     OW11399   6.185   3.051   3.947 -0.1664  0.5442 -0.4004
 2907SOL    HW211400   6.230   2.967   3.958  2.0823  1.8370  1.0177
 2907SOL    HW311401   6.170   3.057   3.852 -2.5218 -2.4159 -0.3694
 2907SOL    MW411402   6.189   3.041   3.936 -0.1805  0.3242 -0.2092
 2908SOL     OW11403   5.032   2.661   2.316 -0.5612 -0.2351  0.0643
 2908SOL    HW211404   5.035   2.576   2.273  2.2303 -0.1697 -0.0539
 2908SOL    HW311405   5.035   2.640   2.410 -0.3640 -0.2781  0.0489
 2908SOL    MW411406   5.032   2.647   2.323 -0.1669 -0.2321  0.0467
 2909SOL     OW11407   5.845   2.966   0.950  0.1663  0.1760 -0.3623
 2909SOL    HW211408   5.813   3.048   0.913 -0.3220  0.2081  0.1195
 2909SOL    HW311409   5.766   2.916   0.971  0.4536 -0.3003 -0.3967
 2909SOL    MW411410   5.830   2.970   0.948  0.1398  0.1174 -0.3033
 2910SOL     OW11411   0.589   3.769   3.595 -0.5382 -0.3461 -0.0538
 2910SOL    HW211412   0.639   3.851   3.592  0.3641 -0.9203 -0.9304
 2910SOL    HW311413   0.515   3.785   3.537  1.0764 -1.0480 -2.4355
 2910SOL    MW411414   0.586   3.782   3.587 -0.2061 -0.5144 -0.4837
 2911SOL     OW11415   0.044   0.921   2.393  0.1830  0.1278 -0.5790
 2911SOL    HW211416   0.068   0.838   2.433  0.0126  0.3164 -0.0783
 2911SOL    HW311417  -0.037   0.902   2.346  0.4828 -0.1381 -0.9941
 2911SOL    MW411418   0.036   0.908   2.392  0.2001  0.1176 -0.5677
 2912SOL     OW11419   2.578   5.125   1.923  0.5285  0.2768  0.5520
 2912SOL    HW211420   2.505   5.186   1.928  0.0402 -0.2277 -0.3117
 2912SOL    HW311421   2.558   5.069   1.849  1.6972 -0.0014  0.4264
 2912SOL    MW411422   2.566   5.126   1.914  0.6183  0.1735  0.4215
 2913SOL     OW11423   1.297   5.131   2.912  0.4605  0.3072  0.1289
 2913SOL    HW211424   1.239   5.189   2.961  0.7685  0.2633  0.5542
 2913SOL    HW311425   1.296   5.049   2.962  0.1510 -0.0012 -0.3793
 2913SOL    MW411426   1.289   5.128   2.925  0.4603  0.2607  0.1180
 2914SOL     OW11427   4.344   5.080   5.966  0.4253 -0.0738  0.1939
 2914SOL    HW211428   4.326   4.986   5.958 -0.9606  0.1783  0.1470
 2914SOL    HW311429   4.326   5.100   6.058 -2.3365  0.7083 -0.4298
 2914SOL    MW411430   4.339   5.070   5.978 -0.1220  0.0626  0.1054
 2915SOL     OW11431   3.723   0.134   1.804 -0.2479 -0.2347 -0.1828
 2915SOL    HW211432   3.708   0.204   1.739 -1.1391  0.3516  0.6259
 2915SOL    HW311433   3.760   0.062   1.753 -1.8465 -0.1512 -1.5379
 2915SOL    MW411434   3.726   0.134   1.788 -0.5764 -0.1464 -0.2549
 2916SOL     OW11435   3.683   0.349   5.318  0.4532 -0.2242  0.0933
 2916SOL    HW211436   3.628   0.300   5.258  0.8599 -1.0962  0.4073
 2916SOL    HW311437   3.644   0.436   5.321  0.0521 -0.3594 -0.9203
 2916SOL    MW411438   3.671   0.354   5.311  0.4539 -0.3571  0.0010
 2917SOL     OW11439   0.421   2.638   4.999  0.0319  0.1566  0.0027
 2917SOL    HW211440   0.498   2.661   4.948  1.7654 -3.2308  0.7941
 2917SOL    HW311441   0.442   2.668   5.088 -0.1223  0.3362 -0.0211
 2917SOL    MW411442   0.434   2.645   5.004  0.2403 -0.2666  0.1040
 2918SOL     OW11443   4.859   4.555   5.054 -0.9842 -0.1146  0.1074
 2918SOL    HW211444   4.844   4.588   5.143 -0.2198 -1.8470  0.9408
 2918SOL    HW311445   4.886   4.632   5.004  1.1576  0.5205  2.0536
 2918SOL    MW411446   4.861   4.569   5.059 -0.6008 -0.2594  0.4741
 2919SOL     OW11447   3.456   2.913   5.154 -0.0306  0.3801  0.2844
 2919SOL    HW211448   3.501   2.924   5.070  0.3579 -0.0895  0.4239
 2919SOL    HW311449   3.488   2.829   5.187 -0.2712  0.5077  0.8504
 2919SOL    MW411450   3.466   2.903   5.147 -0.0110  0.3350  0.3775
 2920SOL     OW11451   6.225   1.115   4.851  0.1265  0.4802 -0.1667
 2920SOL    HW211452   6.291   1.174   4.815  1.5130 -1.7935 -1.6145
 2920SOL    HW311453   6.164   1.100   4.779  1.6506 -2.3134 -1.0393
 2920SOL    MW411454   6.226   1.121   4.837  0.5105 -0.1883 -0.4728
 2921SOL     OW11455   1.669   1.425   4.908  0.0880  0.0551  0.5693
 2921SOL    HW211456   1.695   1.419   4.816 -0.8688  0.8041  0.2291
 2921SOL    HW311457   1.750   1.446   4.954  0.4196  0.5570 -0.2181
 2921SOL    MW411458   1.683   1.427   4.902  0.0055  0.2202  0.4206
 2922SOL     OW11459   4.997   1.583   0.167 -0.2580  0.2233 -0.0986
 2922SOL    HW211460   4.904   1.561   0.170 -0.2934  0.1369 -1.2615
 2922SOL    HW311461   4.998   1.679   0.157 -0.2397  0.1743 -0.5860
 2922SOL    MW411462   4.985   1.593   0.166 -0.2602  0.2055 -0.3163
 2923SOL     OW11463   1.738   3.824   0.197  0.3208 -0.3307 -0.0860
 2923SOL    HW211464   1.797   3.865   0.135  1.0256 -0.2394  0.6332
 2923SOL    HW311465   1.659   3.878   0.195 -0.3323 -1.2472 -2.0909
 2923SOL    MW411466   1.735   3.836   0.189  0.3276 -0.4396 -0.2556
 2924SOL     OW11467   0.332   2.162   5.545  0.6175 -0.8754  0.6009
 2924SOL    HW211468   0.403   2.146   5.606 -0.5108 -2.7037  1.5133
 2924SOL    HW311469   0.263   2.203   5.599  0.5702 -0.0982 -0.0316
 2924SOL    MW411470   0.332   2.165   5.560  0.4624 -1.0141  0.6378
 2925SOL     OW11471   3.527   0.889   1.230  0.2264  0.0673 -0.6674
 2925SOL    HW211472   3.597   0.925   1.284 -1.0532  0.6069  0.7229
 2925SOL    HW311473   3.471   0.842   1.293 -0.9688  0.1668 -1.6311
 2925SOL    MW411474   3.529   0.887   1.246 -0.1001  0.1516 -0.6111
 2926SOL     OW11475   3.917   1.387   4.821 -0.1985 -0.4826  0.5628
 2926SOL    HW211476   3.874   1.320   4.874 -0.3443 -0.7479  0.1152
 2926SOL    HW311477   4.006   1.391   4.854 -0.4170 -0.3158  1.1378
 2926SOL    MW411478   3.923   1.379   4.832 -0.2466 -0.4956  0.5796
 2927SOL     OW11479   4.595   4.415   2.422  0.3629 -0.4893 -0.0074
 2927SOL    HW211480   4.512   4.408   2.376  0.0545 -1.1812  0.6313
 2927SOL    HW311481   4.582   4.486   2.485  0.3643 -0.3853 -0.1243
 2927SOL    MW411482   4.582   4.423   2.425  0.3224 -0.5669  0.0614
 2928SOL     OW11483   5.077   0.356   4.557  0.6905 -0.4148 -0.0998
 2928SOL    HW211484   5.151   0.344   4.616 -0.5899 -1.3880  1.3938
 2928SOL    HW311485   5.117   0.366   4.471  2.6332  1.0784  0.8810
 2928SOL    MW411486   5.092   0.356   4.554  0.7779 -0.3462  0.2266
 2929SOL     OW11487   1.344   4.246   5.847 -0.5479  0.2935  0.3811
 2929SOL    HW211488   1.304   4.177   5.793 -0.9113  0.6935  0.1378
 2929SOL    HW311489   1.431   4.212   5.868 -0.1451  0.4236 -1.0069
 2929SOL    MW411490   1.350   4.232   5.843 -0.5427  0.3634  0.1659
 2930SOL     OW11491   0.058   3.056   1.851  0.4784 -0.4312  0.0929
 2930SOL    HW211492  -0.037   3.053   1.853  0.3949  1.1930 -0.4749
 2930SOL    HW311493   0.082   3.126   1.913  1.1304  1.0992 -1.7876
 2930SOL    MW411494   0.049   3.065   1.860  0.5534 -0.0150 -0.2302
 2931SOL     OW11495   5.600   4.160   2.667  0.0499 -0.1808 -0.7042
 2931SOL    HW211496   5.679   4.107   2.664  0.6249  0.6926 -1.7739
 2931SOL    HW311497   5.549   4.123   2.739  0.8343 -1.5861 -0.8278
 2931SOL    MW411498   5.604   4.148   2.676  0.2292 -0.2510 -0.8616
 2932SOL     OW11499   2.242   4.092   6.291 -0.5204 -0.2051  0.7543
 2932SOL    HW211500   2.246   4.003   6.327  0.0023 -0.1134  0.9301
 2932SOL    HW311501   2.237   4.149   6.368  1.3215  0.0340  0.7360
 2932SOL    MW411502   2.242   4.088   6.306 -0.2084 -0.1614  0.7751
 2933SOL     OW11503   2.054   2.757   3.927 -0.1821 -0.4089 -0.0819
 2933SOL    HW211504   1.995   2.700   3.976  0.5862 -1.5706 -0.4651
 2933SOL    HW311505   2.116   2.789   3.993 -0.1815 -0.6038  0.0127
 2933SOL    MW411506   2.054   2.754   3.942 -0.0806 -0.5879 -0.1200
 2934SOL     OW11507   5.447   5.649   5.411 -0.3434  0.1668  0.1414
 2934SOL    HW211508   5.476   5.739   5.423  0.1403  0.0375 -0.0432
 2934SOL    HW311509   5.526   5.600   5.390 -0.5725 -0.3349  0.4061
 2934SOL    MW411510   5.461   5.654   5.410 -0.3098  0.0835  0.1520
 2935SOL     OW11511   2.510   0.453   5.965 -0.2751 -0.6050 -0.6528
 2935SOL    HW211512   2.500   0.536   5.918  0.8784  0.0148  0.1372
 2935SOL    HW311513   2.604   0.445   5.981 -0.4969 -1.4166  0.4118
 2935SOL    MW411514   2.521   0.463   5.961 -0.1521 -0.6303 -0.4081
 2936SOL     OW11515   1.499   2.419   0.903 -0.0910  0.0120 -0.4481
 2936SOL    HW211516   1.478   2.390   0.814  0.6178 -0.7030 -0.3954
 2936SOL    HW311517   1.513   2.513   0.895 -0.8761  0.0992 -0.9253
 2936SOL    MW411518   1.498   2.427   0.890 -0.1010 -0.0708 -0.5041
 2937SOL     OW11519   5.944   4.241   1.642 -0.0101  0.0174  0.2628
 2937SOL    HW211520   5.921   4.163   1.691 -0.3078  0.6823  1.2086
 2937SOL    HW311521   6.038   4.253   1.659  0.2282 -0.5821 -0.5547
 2937SOL    MW411522   5.954   4.232   1.651 -0.0180  0.0260  0.2797
 2938SOL     OW11523   3.012   1.790   3.739 -0.5103  0.0186  0.1194
 2938SOL    HW211524   3.035   1.701   3.763 -0.7478 -0.4735 -1.3326
 2938SOL    HW311525   2.966   1.825   3.815  0.7505 -0.6253  1.2097
 2938SOL    MW411526   3.009   1.783   3.752 -0.3753 -0.1313  0.0717
 2939SOL     OW11527   3.075   6.198   4.975  0.4512 -0.3345  0.5065
 2939SOL    HW211528   3.064   6.103   4.983 -0.0705 -0.1645  2.3262
 2939SOL    HW311529   3.054   6.232   5.062  0.2694  1.4942 -0.2023
 2939SOL    MW411530   3.071   6.190   4.987  0.3584 -0.0708  0.6531
 2940SOL     OW11531   2.603   6.011   2.378  0.0874  0.7733 -0.3542
 2940SOL    HW211532   2.540   6.036   2.445  2.3379  1.8493  1.5376
 2940SOL    HW311533   2.653   6.091   2.361 -0.3124  0.4855 -3.3002
 2940SOL    MW411534   2.602   6.025   2.385  0.3316  0.8773 -0.4933
 2941SOL     OW11535   4.824   6.283   5.405  0.2975 -0.1420 -0.3177
 2941SOL    HW211536   4.737   6.323   5.412 -0.6521 -1.8511 -1.7082
 2941SOL    HW311537   4.810   6.190   5.422  1.4702 -0.7815 -2.4608
 2941SOL    MW411538   4.811   6.276   5.408  0.3269 -0.4519 -0.7840
 2942SOL     OW11539   1.304   5.895   4.344 -0.3436  0.2103  0.1033
 2942SOL    HW211540   1.367   5.849   4.400  2.0415  0.3715 -2.2345
 2942SOL    HW311541   1.246   5.827   4.311  0.7509 -0.5591 -0.3106
 2942SOL    MW411542   1.305   5.880   4.347  0.1155  0.1300 -0.2598
 2943SOL     OW11543   5.731   1.906   5.189 -0.2986  0.2288  0.1236
 2943SOL    HW211544   5.690   1.988   5.216 -0.9809 -0.0949  0.0962
 2943SOL    HW311545   5.819   1.931   5.161  1.0686  0.3812  4.0284
 2943SOL    MW411546   5.737   1.920   5.189 -0.2083  0.2062  0.6352
 2944SOL     OW11547   1.875   3.110   0.073  0.0613  0.5475  0.2673
 2944SOL    HW211548   1.936   3.081   0.141  0.8183 -1.5809 -1.2127
 2944SOL    HW311549   1.793   3.127   0.120  0.6093 -0.6959  1.7541
 2944SOL    MW411550   1.872   3.109   0.088  0.2335  0.1026  0.2682
 2945SOL     OW11551   0.815   2.512   0.999  0.4408  0.3684  0.2739
 2945SOL    HW211552   0.885   2.470   1.050 -0.0769 -0.8521  0.0116
 2945SOL    HW311553   0.840   2.499   0.908 -0.1591 -0.1385  0.1778
 2945SOL    MW411554   0.828   2.505   0.994  0.2934  0.1405  0.2266
 2946SOL     OW11555   3.480   5.413   2.191  0.5729 -0.1574 -0.4078
 2946SOL    HW211556   3.390   5.436   2.171  0.4492 -0.0582  0.2457
 2946SOL    HW311557   3.531   5.456   2.122  0.1789  0.3843 -0.3716
 2946SOL    MW411558   3.475   5.422   2.179  0.5046 -0.0728 -0.3168
 2947SOL     OW11559   2.036   4.004   2.756 -0.1139 -0.0582 -0.0008
 2947SOL    HW211560   2.018   3.925   2.704 -0.5584 -0.9573  1.4456
 2947SOL    HW311561   2.130   4.018   2.745  0.5190 -2.3182  1.6440
 2947SOL    MW411562   2.046   3.995   2.748 -0.0890 -0.4750  0.4070
 2948SOL     OW11563   3.911   3.885   2.636 -0.1238  0.3060  0.0298
 2948SOL    HW211564   3.837   3.867   2.695  1.2554 -0.7085  1.5113
 2948SOL    HW311565   3.922   3.804   2.587  0.5978  0.1170  0.4969
 2948SOL    MW411566   3.902   3.872   2.638  0.1533  0.1472  0.2869
 2949SOL     OW11567   3.068   6.271   2.784 -0.2300 -0.1055 -0.0303
 2949SOL    HW211568   3.119   6.200   2.822 -0.8677 -0.4038  0.2832
 2949SOL    HW311569   3.079   6.344   2.845  0.4769  0.0928 -0.3855
 2949SOL    MW411570   3.076   6.272   2.797 -0.2209 -0.1187 -0.0358
 2950SOL     OW11571   4.098   5.067   0.746  0.6140  0.1366  0.6411
 2950SOL    HW211572   4.081   5.157   0.718 -3.3625 -1.5625 -3.9417
 2950SOL    HW311573   4.184   5.046   0.709  0.7153  1.5254  0.0403
 2950SOL    MW411574   4.107   5.076   0.737  0.1027  0.0957 -0.0428
 2951SOL     OW11575   4.498   5.028   3.987 -0.0512 -0.0812 -0.0877
 2951SOL    HW211576   4.454   4.967   3.927  0.2724 -0.8816  0.4789
 2951SOL    HW311577   4.591   5.013   3.973  0.0285  0.1258  0.2178
 2951SOL    MW411578   4.504   5.018   3.977  0.0020 -0.1595  0.0274
 2952SOL     OW11579   4.541   0.733   5.303  0.2321 -0.3208  1.4266
 2952SOL    HW211580   4.458   0.709   5.346 -0.8242  0.4048 -0.1166
 2952SOL    HW311581   4.552   0.826   5.322  0.9998 -0.5356  2.0776
 2952SOL    MW411582   4.531   0.742   5.311  0.1941 -0.2534  1.3089
 2953SOL     OW11583   4.876   5.002   4.966 -0.1308  0.1089  0.4793
 2953SOL    HW211584   4.954   5.049   4.994 -1.3666  3.4414 -1.1681
 2953SOL    HW311585   4.868   5.022   4.873 -2.0982 -1.5034  0.2335
 2953SOL    MW411586   4.885   5.011   4.957 -0.5534  0.3359  0.2295
 2954SOL     OW11587   1.306   0.971   1.202 -0.0847  0.3487  0.6078
 2954SOL    HW211588   1.304   0.878   1.178 -0.9657  0.4303  0.3348
 2954SOL    HW311589   1.217   0.990   1.230  0.2729  0.9374  1.3603
 2954SOL    MW411590   1.294   0.961   1.202 -0.1538  0.4371  0.6710
 2955SOL     OW11591   6.320   4.026   1.949 -0.4564  0.1957 -0.1475
 2955SOL    HW211592   6.281   4.023   1.862  0.3931  1.0229 -0.5723
 2955SOL    HW311593   6.380   3.952   1.951 -0.4789  0.1735 -0.2645
 2955SOL    MW411594   6.323   4.016   1.938 -0.3473  0.3019 -0.2190
 2956SOL     OW11595   3.644   4.594   1.508  0.0543  0.0647  0.4290
 2956SOL    HW211596   3.637   4.518   1.451  1.2849  0.0686  0.2375
 2956SOL    HW311597   3.737   4.600   1.528 -0.3199  0.1134  2.3862
 2956SOL    MW411598   3.655   4.585   1.503  0.1673  0.0717  0.6620
 2957SOL     OW11599   0.120   5.675   4.077 -0.5659  0.1550 -0.1498
 2957SOL    HW211600   0.092   5.602   4.021 -0.9753  0.2128 -0.0219
 2957SOL    HW311601   0.104   5.643   4.166 -2.2075  0.9710 -0.1160
 2957SOL    MW411602   0.114   5.661   4.082 -0.8365  0.2703 -0.1285
 2958SOL     OW11603   3.218   0.885   1.977 -0.1147 -0.0492 -0.2144
 2958SOL    HW211604   3.153   0.891   1.907 -0.6286 -2.1964 -0.0071
 2958SOL    HW311605   3.272   0.810   1.952 -0.4567 -1.0086  1.7830
 2958SOL    MW411606   3.217   0.876   1.964 -0.2276 -0.4591  0.0765
 2959SOL     OW11607   5.223   5.922   4.635 -0.0978 -0.4660  0.3045
 2959SOL    HW211608   5.178   6.005   4.650  0.5720 -0.0231 -0.0733
 2959SOL    HW311609   5.192   5.864   4.704 -0.6732  0.0588  0.4911
 2959SOL    MW411610   5.213   5.925   4.646 -0.0853 -0.3383  0.2792
 2960SOL     OW11611   5.846   1.257   0.251  0.0883 -0.0352  0.1338
 2960SOL    HW211612   5.869   1.165   0.249  0.3027 -0.0113  1.0840
 2960SOL    HW311613   5.803   1.273   0.167 -1.5544 -1.4235  0.6655
 2960SOL    MW411614   5.843   1.247   0.240 -0.1001 -0.2152  0.3293
 2961SOL     OW11615   3.404   5.866   3.816 -0.1848  0.0948  0.1644
 2961SOL    HW211616   3.435   5.867   3.907 -0.7092  1.2475  0.3498
 2961SOL    HW311617   3.311   5.888   3.822 -0.5739 -1.2498 -0.5519
 2961SOL    MW411618   3.396   5.869   3.829 -0.3053  0.0695  0.0944
 2962SOL     OW11619   1.159   0.109   0.875 -0.2245  0.2121  0.0588
 2962SOL    HW211620   1.220   0.042   0.906 -1.5953 -1.3518 -0.5229
 2962SOL    HW311621   1.155   0.172   0.946  0.9227 -0.4263  0.7235
 2962SOL    MW411622   1.167   0.108   0.888 -0.2540 -0.0785  0.0698
 2963SOL     OW11623   6.018   6.263   3.582  0.6471 -0.8692 -0.0348
 2963SOL    HW211624   6.049   6.303   3.662  0.1379 -1.5381  0.5150
 2963SOL    HW311625   6.023   6.169   3.598 -1.4115 -1.0223  0.0198
 2963SOL    MW411626   6.022   6.256   3.594  0.3083 -0.9777  0.0450
 2964SOL     OW11627   2.218   6.004   1.587  0.3225  0.1814 -0.0898
 2964SOL    HW211628   2.242   5.917   1.554 -0.1984  0.0764 -0.2034
 2964SOL    HW311629   2.171   5.987   1.669  0.1341  0.3503 -0.1621
 2964SOL    MW411630   2.215   5.990   1.593  0.2289  0.1898 -0.1144
 2965SOL     OW11631   6.215   5.009   2.969 -0.1601  0.8288  0.1483
 2965SOL    HW211632   6.292   4.984   2.918 -0.9054 -4.3153  1.0208
 2965SOL    HW311633   6.245   5.009   3.060 -0.8299  0.2925  0.3763
 2965SOL    MW411634   6.229   5.006   2.974 -0.3468  0.0794  0.2935
 2966SOL     OW11635   1.923   4.612   1.294 -0.2744 -1.1906  0.0299
 2966SOL    HW211636   2.003   4.648   1.334 -0.8453 -0.1496  0.2890
 2966SOL    HW311637   1.853   4.645   1.350 -0.8843 -2.2126 -0.1149
 2966SOL    MW411638   1.925   4.621   1.307 -0.4302 -1.1881  0.0450
 2967SOL     OW11639   2.162   5.047   0.855 -0.0966 -0.6127  0.4298
 2967SOL    HW211640   2.141   4.953   0.860  5.1380 -2.0877  1.3947
 2967SOL    HW311641   2.159   5.076   0.947 -0.1134 -0.2925  0.3275
 2967SOL    MW411642   2.159   5.038   0.868  0.5918 -0.7650  0.5436
 2968SOL     OW11643   2.914   2.086   0.810  0.3965  0.0863 -0.7622
 2968SOL    HW211644   2.853   2.015   0.832  1.1766 -0.4918 -0.4366
 2968SOL    HW311645   2.859   2.164   0.808 -0.4686 -0.5121 -1.0685
 2968SOL    MW411646   2.898   2.087   0.813  0.3853 -0.0689 -0.7596
 2969SOL     OW11647   2.691   0.956   0.610  0.0278 -0.5594  0.0342
 2969SOL    HW211648   2.630   1.028   0.629  0.2986 -0.3489  0.1178
 2969SOL    HW311649   2.770   1.000   0.580 -0.1774 -0.8712 -0.9840
 2969SOL    MW411650   2.693   0.972   0.608  0.0365 -0.5728 -0.0891
 2970SOL     OW11651   0.514   0.409   2.013  0.3882 -0.0072 -0.8919
 2970SOL    HW211652   0.420   0.390   2.019  0.1964  0.3055 -2.5142
 2970SOL    HW311653   0.524   0.458   1.931  1.8200  0.9407 -0.1936
 2970SOL    MW411654   0.503   0.413   2.003  0.5518  0.1591 -1.0138
 2971SOL     OW11655   3.750   0.811   4.778  0.3706 -0.4931  0.1474
 2971SOL    HW211656   3.744   0.747   4.849 -1.7782 -0.1492  0.3394
 2971SOL    HW311657   3.695   0.884   4.806 -0.7478 -0.4388 -1.9369
 2971SOL    MW411658   3.742   0.812   4.791 -0.0605 -0.4405 -0.1023
 2972SOL     OW11659   4.088   1.035   4.768 -0.1172 -0.0325 -0.0146
 2972SOL    HW211660   4.174   1.077   4.765 -1.0475  1.8836 -1.9732
 2972SOL    HW311661   4.101   0.950   4.726  0.4827  0.9824 -1.9828
 2972SOL    MW411662   4.101   1.029   4.762 -0.1608  0.3542 -0.5327
 2973SOL     OW11663   6.199   4.471   4.109 -0.0328  0.3886 -0.6944
 2973SOL    HW211664   6.171   4.544   4.053  0.2574  0.4970 -0.6992
 2973SOL    HW311665   6.168   4.393   4.064  0.9448  0.4167 -1.4549
 2973SOL    MW411666   6.191   4.471   4.096  0.1345  0.4066 -0.7954
 2974SOL     OW11667   5.352   3.253   3.004  1.0562  0.1501 -0.2220
 2974SOL    HW211668   5.331   3.336   3.046 -0.1765 -0.6823  0.8606
 2974SOL    HW311669   5.429   3.221   3.051 -0.0360 -0.5508  1.1603
 2974SOL    MW411670   5.360   3.259   3.016  0.7495 -0.0522  0.1032
 2975SOL     OW11671   0.235   6.101   2.029 -0.5983  0.0745 -0.1816
 2975SOL    HW211672   0.236   6.100   2.125 -0.6557  0.2389 -0.1801
 2975SOL    HW311673   0.156   6.149   2.006 -0.4522  0.2573 -0.3097
 2975SOL    MW411674   0.225   6.107   2.038 -0.5866  0.1203 -0.1983
 2976SOL     OW11675   2.948   4.198   4.963 -0.3108 -0.6584 -0.5913
 2976SOL    HW211676   2.910   4.128   4.911  0.0435 -0.2633 -1.3901
 2976SOL    HW311677   2.968   4.157   5.048 -0.1369 -1.5135 -1.0356
 2976SOL    MW411678   2.946   4.183   4.967 -0.2411 -0.7191 -0.7553
 2977SOL     OW11679   3.276   2.069   1.942 -0.2171  0.5955  0.3569
 2977SOL    HW211680   3.347   2.130   1.922  1.1725 -1.1942 -0.5083
 2977SOL    HW311681   3.321   1.991   1.974 -1.8349 -0.4554  0.1677
 2977SOL    MW411682   3.292   2.067   1.944 -0.2472  0.2207  0.2178
 2978SOL     OW11683   0.795   6.163   6.135 -0.1696 -0.3738 -0.4251
 2978SOL    HW211684   0.875   6.216   6.142 -1.9865  2.8930 -2.1191
 2978SOL    HW311685   0.821   6.088   6.081  2.0535 -0.2187  0.3212
 2978SOL    MW411686   0.809   6.160   6.128 -0.1160  0.0777 -0.5501
 2979SOL     OW11687   4.097   5.650   1.455  0.1718  0.4105 -0.0529
 2979SOL    HW211688   4.182   5.691   1.471 -0.2571  1.0605  0.6667
 2979SOL    HW311689   4.050   5.714   1.400 -0.2014  0.5138  0.3806
 2979SOL    MW411690   4.102   5.664   1.450  0.0660  0.5099  0.0993
 2980SOL     OW11691   1.968   5.881   5.023 -0.4575 -0.1836 -0.2520
 2980SOL    HW211692   1.964   5.816   4.953  1.1916  1.4051 -1.9090
 2980SOL    HW311693   1.920   5.956   4.989 -0.6990  0.1895  0.8623
 2980SOL    MW411694   1.961   5.882   5.010 -0.2718  0.0752 -0.3236
 2981SOL     OW11695   4.482   2.032   2.992 -0.0565  0.1792 -0.2925
 2981SOL    HW211696   4.576   2.026   2.975  0.4897 -1.8253  2.7462
 2981SOL    HW311697   4.442   1.987   2.917  1.2822  1.4847 -1.8817
 2981SOL    MW411698   4.489   2.025   2.980  0.1922  0.0870 -0.1012
 2982SOL     OW11699   2.046   5.168   3.093 -0.2253  0.3694  0.4210
 2982SOL    HW211700   2.121   5.118   3.061 -1.1558 -1.1997  0.5616
 2982SOL    HW311701   2.083   5.250   3.125  0.9361  1.6884 -3.6508
 2982SOL    MW411702   2.061   5.172   3.093 -0.1948  0.3364 -0.0977
 2983SOL     OW11703   3.220   3.638   0.340  0.0574  0.3422 -0.4878
 2983SOL    HW211704   3.244   3.597   0.257  0.7756  1.2900 -0.7676
 2983SOL    HW311705   3.296   3.623   0.396 -0.2805  0.0173 -0.1121
 2983SOL    MW411706   3.234   3.631   0.336  0.1076  0.4244 -0.4752
 2984SOL     OW11707   0.499   4.960   6.271 -0.6201 -0.7964  0.3111
 2984SOL    HW211708   0.436   4.888   6.276 -2.1651  0.5810  1.6401
 2984SOL    HW311709   0.457   5.033   6.316  0.3557  1.3713 -2.0270
 2984SOL    MW411710   0.485   4.960   6.277 -0.6952 -0.3286  0.1780
 2985SOL     OW11711   2.170   4.271   5.289  0.2269 -0.3077 -0.1054
 2985SOL    HW211712   2.202   4.343   5.233  1.5020 -1.0496 -0.3688
 2985SOL    HW311713   2.247   4.244   5.339 -0.3883 -1.0959  0.4332
 2985SOL    MW411714   2.184   4.277   5.288  0.3140 -0.5096 -0.0691
 2986SOL     OW11715   2.838   5.301   1.453 -0.0522 -0.1182  0.8207
 2986SOL    HW211716   2.893   5.338   1.384 -0.3693  0.0132  0.6350
 2986SOL    HW311717   2.828   5.209   1.429  2.5469 -0.9357  2.4337
 2986SOL    MW411718   2.844   5.294   1.441  0.2489 -0.2087  1.0090
 2987SOL     OW11719   5.404   5.342   1.649 -0.3237  0.0808  0.0386
 2987SOL    HW211720   5.453   5.259   1.647 -0.2803  0.1156 -0.4237
 2987SOL    HW311721   5.390   5.364   1.557  0.6609  1.1729  0.1197
 2987SOL    MW411722   5.409   5.334   1.637 -0.1881  0.2295 -0.0117
 2988SOL     OW11723   5.236   0.433   5.223 -0.1224  0.3043  0.2864
 2988SOL    HW211724   5.183   0.447   5.144 -0.2618  1.1018  0.5173
 2988SOL    HW311725   5.175   0.399   5.288  0.0293 -0.5275  0.0036
 2988SOL    MW411726   5.221   0.431   5.221 -0.1207  0.2998  0.2796
 2989SOL     OW11727   1.658   2.675   0.983 -0.5683 -0.4798  0.0113
 2989SOL    HW211728   1.578   2.702   0.939 -0.4620 -1.6840 -0.9749
 2989SOL    HW311729   1.630   2.607   1.044 -0.4250 -0.2477  0.3385
 2989SOL    MW411730   1.644   2.670   0.985 -0.5354 -0.6080 -0.0756
 2990SOL     OW11731   6.108   0.655   2.085  0.1282  0.1384 -0.1904
 2990SOL    HW211732   6.155   0.596   2.027 -2.0387 -1.3779 -0.5188
 2990SOL    HW311733   6.050   0.705   2.027 -1.0123 -0.3582  0.4969
 2990SOL    MW411734   6.107   0.654   2.070 -0.3082 -0.1272 -0.1431
 2991SOL     OW11735   1.818   1.110   1.371 -0.7126 -0.0090  0.1380
 2991SOL    HW211736   1.891   1.073   1.421  0.3569  0.5251 -0.9960
 2991SOL    HW311737   1.753   1.039   1.368  0.3676 -1.0175 -0.0855
 2991SOL    MW411738   1.819   1.096   1.377 -0.4290 -0.0716 -0.0411
 2992SOL     OW11739   5.158   2.264   5.942 -0.6895  0.2505 -0.1778
 2992SOL    HW211740   5.247   2.301   5.943 -1.0090  1.0328 -0.4182
 2992SOL    HW311741   5.171   2.172   5.965  0.1235  0.4954  0.4260
 2992SOL    MW411742   5.172   2.257   5.945 -0.6244  0.3860 -0.1299
 2993SOL     OW11743   2.304   2.871   0.354 -0.0135  0.6708 -0.2391
 2993SOL    HW211744   2.344   2.896   0.438  1.5995 -0.9743 -0.4613
 2993SOL    HW311745   2.365   2.904   0.288  1.0832 -1.8644 -0.5933
 2993SOL    MW411746   2.317   2.879   0.357  0.3440  0.1193 -0.3151
 2994SOL     OW11747   0.072   2.465   1.549  0.5872  0.0373 -0.0208
 2994SOL    HW211748   0.028   2.549   1.535  1.4600  0.7995  1.5916
 2994SOL    HW311749   0.144   2.485   1.609  1.7638 -1.5902 -0.8199
 2994SOL    MW411750   0.076   2.479   1.555  0.8576 -0.0769  0.0865
 2995SOL     OW11751   1.864   6.163   6.406 -0.1616 -0.2844  0.4255
 2995SOL    HW211752   1.931   6.231   6.409  0.5419 -0.9751  0.9122
 2995SOL    HW311753   1.813   6.175   6.485 -0.0018 -0.3511  0.5392
 2995SOL    MW411754   1.866   6.173   6.417 -0.0477 -0.3843  0.5047
 2996SOL     OW11755   2.735   0.469   3.302  0.2258  0.5051  0.4469
 2996SOL    HW211756   2.750   0.551   3.256  1.1005  0.0223 -0.1530
 2996SOL    HW311757   2.718   0.495   3.393  0.3662  1.3476  0.2365
 2996SOL    MW411758   2.735   0.483   3.308  0.3597  0.5526  0.3400
 2997SOL     OW11759   3.592   3.353   5.689  0.4749  0.2951 -0.3261
 2997SOL    HW211760   3.553   3.283   5.638  1.6163  0.6118 -1.6839
 2997SOL    HW311761   3.659   3.391   5.632  0.3634  2.0403  0.6321
 2997SOL    MW411762   3.596   3.349   5.675  0.6108  0.5672 -0.3788
 2998SOL     OW11763   0.497   0.889   0.546 -0.4760  0.0067 -0.0739
 2998SOL    HW211764   0.441   0.874   0.622 -1.1825  0.6160 -0.4580
 2998SOL    HW311765   0.570   0.941   0.580  0.9376 -2.4357  0.8394
 2998SOL    MW411766   0.499   0.894   0.560 -0.3827 -0.2352 -0.0040
 2999SOL     OW11767   5.893   3.757   0.649 -0.2269  0.0468 -0.1555
 2999SOL    HW211768   5.936   3.791   0.727 -2.0311  2.4559 -0.0797
 2999SOL    HW311769   5.964   3.728   0.593  1.3021  1.1006  1.1521
 2999SOL    MW411770   5.908   3.758   0.652 -0.2632  0.5037  0.0270
 3000SOL     OW11771   1.036   2.275   0.898 -0.1276  0.5535 -0.0899
 3000SOL    HW211772   1.015   2.239   0.984 -0.7343  0.4585 -0.2701
 3000SOL    HW311773   1.064   2.199   0.847  0.7380  0.6890  0.1674
 3000SOL    MW411774   1.037   2.260   0.902 -0.0935  0.5588 -0.0797
 3001SOL     OW11775   1.649   5.666   2.888  0.2224  0.1671 -0.1835
 3001SOL    HW211776   1.603   5.639   2.967  1.4287  0.7547  0.7497
 3001SOL    HW311777   1.642   5.761   2.887 -2.8219  0.0971 -2.7214
 3001SOL    MW411778   1.642   5.675   2.898 -0.0201  0.2354 -0.3952
 3002SOL     OW11779   4.523   4.333   0.757 -0.1953  0.0365  0.3789
 3002SOL    HW211780   4.581   4.318   0.832 -0.2011  0.7777  0.5418
 3002SOL    HW311781   4.503   4.246   0.724  2.4852 -0.1905 -0.8272
 3002SOL    MW411782   4.528   4.320   0.763  0.1576  0.1044  0.2413
 3003SOL     OW11783   0.748   1.776   3.927  0.4018  0.3849 -0.1098
 3003SOL    HW211784   0.664   1.730   3.919  1.7741 -2.2017 -0.5872
 3003SOL    HW311785   0.753   1.831   3.849 -1.2614  1.3985  0.4433
 3003SOL    MW411786   0.737   1.777   3.916  0.3634  0.1774 -0.0998
 3004SOL     OW11787   5.842   5.045   1.275 -0.4173 -0.1740 -0.2797
 3004SOL    HW211788   5.805   5.103   1.341 -0.7924 -0.4442 -0.2519
 3004SOL    HW311789   5.917   5.093   1.241 -0.5921  0.2338 -0.0967
 3004SOL    MW411790   5.847   5.059   1.279 -0.4899 -0.1559 -0.2519
 3005SOL     OW11791   5.716   2.405   3.673 -0.1952  0.2733  0.0134
 3005SOL    HW211792   5.675   2.476   3.723 -0.5146  1.3456 -1.6839
 3005SOL    HW311793   5.661   2.395   3.596  2.0476  0.9833 -1.7995
 3005SOL    MW411794   5.703   2.413   3.670  0.0586  0.5085 -0.4497
 3006SOL     OW11795   3.868   1.295   0.864 -0.3114  0.2791 -0.4963
 3006SOL    HW211796   3.838   1.384   0.847  1.4078  0.9975  0.0031
 3006SOL    HW311797   3.957   1.293   0.829 -0.4680 -1.3951 -0.8895
 3006SOL    MW411798   3.876   1.306   0.857 -0.1052  0.1530 -0.4823
 3007SOL     OW11799   1.940   5.097   5.686 -0.3022 -0.2554 -0.0603
 3007SOL    HW211800   1.921   5.026   5.747 -0.0031 -1.4626 -1.3264
 3007SOL    HW311801   2.007   5.062   5.627 -1.4953  0.3781 -1.9019
 3007SOL    MW411802   1.947   5.083   5.686 -0.4201 -0.3311 -0.4703
 3008SOL     OW11803   0.584   0.250   5.441 -0.5492  0.0571  0.0953
 3008SOL    HW211804   0.533   0.235   5.361 -1.5617  0.1764  0.6925
 3008SOL    HW311805   0.636   0.170   5.451  2.0841  1.2758 -2.3788
 3008SOL    MW411806   0.584   0.237   5.432 -0.3354  0.2336 -0.1524
 3009SOL     OW11807   3.786   4.321   1.476  0.1923 -0.1871 -0.1975
 3009SOL    HW211808   3.794   4.353   1.387  1.1492 -0.9366 -0.3949
 3009SOL    HW311809   3.773   4.226   1.467  3.1261 -0.7541  0.4762
 3009SOL    MW411810   3.785   4.312   1.463  0.7057 -0.3608 -0.1347
 3010SOL     OW11811   4.858   1.147   1.099 -0.1984 -0.1251  0.2633
 3010SOL    HW211812   4.815   1.232   1.101 -1.6589 -0.7482 -1.2875
 3010SOL    HW311813   4.893   1.135   1.188  0.5301  2.2728  0.3690
 3010SOL    MW411814   4.857   1.156   1.111 -0.2950  0.1091  0.0726
 3011SOL     OW11815   1.174   2.860   5.546  0.5542 -0.3466 -0.4191
 3011SOL    HW211816   1.094   2.813   5.524 -0.7935  1.1877  0.9150
 3011SOL    HW311817   1.177   2.933   5.484 -1.4256  1.9957  1.9569
 3011SOL    MW411818   1.164   2.863   5.535  0.1152  0.1649  0.0704
 3012SOL     OW11819   0.725   4.996   2.207  0.3136  0.0546 -0.0346
 3012SOL    HW211820   0.791   5.049   2.253 -0.5812  1.3624 -0.1943
 3012SOL    HW311821   0.656   4.984   2.272  1.1666 -2.3239  0.5215
 3012SOL    MW411822   0.725   5.002   2.222  0.3081 -0.0866  0.0177
 3013SOL     OW11823   2.736   2.578   4.964 -0.0818  0.0116  0.1104
 3013SOL    HW211824   2.665   2.615   4.912  0.4930  1.4985  0.3413
 3013SOL    HW311825   2.816   2.615   4.927  0.6460 -1.9293 -0.3833
 3013SOL    MW411826   2.737   2.588   4.953  0.0901 -0.0483  0.0757
 3014SOL     OW11827   0.766   1.278   3.062 -0.0552  0.1614 -0.2452
 3014SOL    HW211828   0.750   1.295   3.155  1.9573 -1.6111  0.5111
 3014SOL    HW311829   0.679   1.277   3.022 -0.8614  3.2583  1.1092
 3014SOL    MW411830   0.753   1.280   3.069  0.1039  0.3361  0.0333
 3015SOL     OW11831   4.936   3.559   1.565 -0.2355  0.5126  0.1696
 3015SOL    HW211832   5.011   3.501   1.581  0.0214  0.4729 -1.1055
 3015SOL    HW311833   4.865   3.500   1.541  0.2222  0.7071 -1.8713
 3015SOL    MW411834   4.937   3.544   1.564 -0.1412  0.5331 -0.2679
 3016SOL     OW11835   3.260   2.764   5.016 -0.1258 -0.2349 -0.1445
 3016SOL    HW211836   3.254   2.685   5.069  0.2145 -0.9274 -1.1083
 3016SOL    HW311837   3.324   2.819   5.061  1.0452 -1.3140 -0.4463
 3016SOL    MW411838   3.267   2.761   5.029  0.0736 -0.4686 -0.3115
 3017SOL     OW11839   2.628   6.290   4.021 -0.0143  0.5062 -0.3879
 3017SOL    HW211840   2.660   6.321   3.937  0.4055 -0.8814 -0.7655
 3017SOL    HW311841   2.563   6.224   3.999  1.6395 -1.4649  0.3109
 3017SOL    MW411842   2.624   6.286   4.007  0.2593  0.0631 -0.3455
 3018SOL     OW11843   3.528   6.003   6.354  0.3514  0.1018  0.5361
 3018SOL    HW211844   3.540   5.920   6.399 -0.7251 -0.2838  0.1545
 3018SOL    HW311845   3.547   6.069   6.420  2.1650 -0.4200  0.5824
 3018SOL    MW411846   3.532   6.001   6.369  0.4486 -0.0179  0.4918
 3019SOL     OW11847   2.650   3.566   3.612 -0.0948  0.2652  0.3171
 3019SOL    HW211848   2.575   3.569   3.671  1.2231 -0.7231  2.1321
 3019SOL    HW311849   2.669   3.658   3.593 -2.2716  0.5314 -0.9620
 3019SOL    MW411850   2.643   3.579   3.617 -0.2081  0.1700  0.3878
 3020SOL     OW11851   4.136   4.859   4.031  0.3134  0.0718  0.0044
 3020SOL    HW211852   4.077   4.792   3.998  2.0677 -0.4066 -2.3506
 3020SOL    HW311853   4.137   4.926   3.963  0.0312  1.6475  1.4778
 3020SOL    MW411854   4.128   4.859   4.018  0.5076  0.2166 -0.1119
 3021SOL     OW11855   0.983   0.351   1.389  0.0152  0.1045 -0.0252
 3021SOL    HW211856   1.049   0.284   1.406 -1.2277 -0.7645  1.8317
 3021SOL    HW311857   0.924   0.312   1.325  0.7692  0.5252 -0.9962
 3021SOL    MW411858   0.984   0.337   1.383 -0.0493  0.0454  0.0917
 3022SOL     OW11859   6.279   2.468   0.961 -0.1028  0.5738  0.2803
 3022SOL    HW211860   6.264   2.383   1.004 -0.8337  0.5239 -0.0688
 3022SOL    HW311861   6.369   2.491   0.985  0.0292 -0.1999  0.5534
 3022SOL    MW411862   6.289   2.460   0.970 -0.1818  0.4651  0.2703
 3023SOL     OW11863   5.992   4.857   5.473 -0.1485 -0.2814 -0.3598
 3023SOL    HW211864   5.913   4.906   5.449 -0.7457 -1.0489  0.0116
 3023SOL    HW311865   6.064   4.917   5.452 -0.7593 -0.0002 -1.7859
 3023SOL    MW411866   5.991   4.872   5.467 -0.3079 -0.3456 -0.4989
 3024SOL     OW11867   5.595   1.704   0.116  0.5108  0.4822  0.0843
 3024SOL    HW211868   5.601   1.794   0.086  0.9935 -0.5228 -3.3060
 3024SOL    HW311869   5.655   1.656   0.059 -1.0134 -2.2365  0.5732
 3024SOL    MW411870   5.604   1.709   0.104  0.3734 -0.0091 -0.2985
 3025SOL     OW11871   5.391   6.421   6.257 -0.0396 -0.2882 -0.2609
 3025SOL    HW211872   5.344   6.480   6.199 -0.6617  0.2776  0.7779
 3025SOL    HW311873   5.323   6.365   6.295  0.0626  0.5655  1.2856
 3025SOL    MW411874   5.376   6.421   6.255 -0.1082 -0.1009  0.0802
 3026SOL     OW11875   3.880   5.032   1.355  0.1468  0.1092 -0.3900
 3026SOL    HW211876   3.809   5.096   1.346 -1.9864 -1.9700  0.3789
 3026SOL    HW311877   3.887   4.991   1.269  0.6274  0.4994 -0.5400
 3026SOL    MW411878   3.871   5.035   1.342 -0.0712 -0.1136 -0.3084
 3027SOL     OW11879   0.222   2.985   2.485 -0.3312 -0.0020 -0.0990
 3027SOL    HW211880   0.170   2.954   2.411 -1.8086  0.3362  0.7644
 3027SOL    HW311881   0.281   3.050   2.448 -0.2372 -0.6825 -1.1708
 3027SOL    MW411882   0.223   2.990   2.471 -0.5137 -0.0472 -0.1265
 3028SOL     OW11883   3.048   4.542   0.169  0.5357 -0.5601 -0.0505
 3028SOL    HW211884   3.084   4.540   0.080 -0.8484  1.9529 -0.7737
 3028SOL    HW311885   3.063   4.632   0.199 -0.3682 -0.9431  1.6782
 3028SOL    MW411886   3.055   4.554   0.161  0.2338 -0.2791  0.0822
 3029SOL     OW11887   5.805   0.565   4.537 -0.0717  0.1809 -0.0489
 3029SOL    HW211888   5.789   0.578   4.443  0.2892  1.1025  0.0110
 3029SOL    HW311889   5.854   0.642   4.564 -1.5574  0.6983  1.2497
 3029SOL    MW411890   5.810   0.577   4.528 -0.2201  0.3708  0.1303
 3030SOL     OW11891   2.971   2.035   1.268 -0.2539 -0.5895  0.1990
 3030SOL    HW211892   3.050   2.045   1.322 -0.8469 -0.4547  1.0606
 3030SOL    HW311893   3.000   1.984   1.193  0.7838 -0.0592  0.2234
 3030SOL    MW411894   2.985   2.030   1.265 -0.1952 -0.5017  0.3159
 3031SOL     OW11895   1.840   1.602   2.195 -0.1864  0.8792  0.4900
 3031SOL    HW211896   1.879   1.544   2.260 -1.5781  2.3548  2.7807
 3031SOL    HW311897   1.754   1.625   2.231 -1.5317  0.9454 -2.3985
 3031SOL    MW411898   1.834   1.597   2.208 -0.5475  1.0826  0.4111
 3032SOL     OW11899   1.463   0.891   2.786  0.0320  0.0449  0.5643
 3032SOL    HW211900   1.505   0.807   2.767 -0.0127  0.1028  0.2005
 3032SOL    HW311901   1.459   0.935   2.701  0.4279  0.5869  0.8212
 3032SOL    MW411902   1.468   0.886   2.772  0.0784  0.1240  0.5502
 3033SOL     OW11903   5.717   3.990   6.294 -0.6953  0.1527 -0.2237
 3033SOL    HW211904   5.702   4.055   6.226 -1.4585  0.2094 -0.0030
 3033SOL    HW311905   5.637   3.991   6.347 -0.5047 -0.5926  0.0885
 3033SOL    MW411906   5.705   3.999   6.292 -0.7709  0.0618 -0.1534
 3034SOL     OW11907   1.036   3.812   4.056  0.3587 -0.4941 -0.9873
 3034SOL    HW211908   0.989   3.874   4.002  1.8757  0.1684 -1.6140
 3034SOL    HW311909   1.029   3.847   4.145  1.2123  0.6312 -1.3331
 3034SOL    MW411910   1.029   3.825   4.061  0.6715 -0.2582 -1.1156
 3035SOL     OW11911   6.211   4.306   0.227  0.2626  0.0917 -0.1478
 3035SOL    HW211912   6.256   4.375   0.275 -1.3543  1.9379 -1.1358
 3035SOL    HW311913   6.260   4.298   0.145 -0.1546  0.8540 -0.4812
 3035SOL    MW411914   6.223   4.314   0.222 -0.0058  0.4358 -0.3222
 3036SOL     OW11915   5.626   5.886   5.937 -0.2952 -0.5005  0.3518
 3036SOL    HW211916   5.662   5.969   5.906 -2.5908  0.2257 -0.6390
 3036SOL    HW311917   5.534   5.889   5.911  0.1231 -4.7319 -2.7051
 3036SOL    MW411918   5.619   5.897   5.929 -0.5429 -0.9630 -0.1822
 3037SOL     OW11919   2.586   1.472   5.118  0.5576  0.3135  0.4190
 3037SOL    HW211920   2.605   1.399   5.177 -1.7790 -1.2034 -0.5470
 3037SOL    HW311921   2.620   1.444   5.033  0.3573  0.6888  0.2130
 3037SOL    MW411922   2.593   1.459   5.114  0.2229  0.1629  0.2643
 3038SOL     OW11923   0.785   2.345   2.881  0.2018  0.1168  0.1142
 3038SOL    HW211924   0.822   2.428   2.912  1.7035 -0.0868 -0.9967
 3038SOL    HW311925   0.838   2.277   2.923  2.5894 -0.1653 -2.9693
 3038SOL    MW411926   0.797   2.347   2.891  0.7150  0.0527 -0.4392
 3039SOL     OW11927   5.902   6.273   2.082  0.8109 -0.2798 -0.0873
 3039SOL    HW211928   5.959   6.246   2.154 -1.5112  1.9432  2.8390
 3039SOL    HW311929   5.942   6.352   2.048  2.0007 -1.4227 -1.4979
 3039SOL    MW411930   5.914   6.280   2.087  0.6615 -0.1373  0.1127
 3040SOL     OW11931   2.269   2.824   4.114  0.4143 -0.4639 -0.2782
 3040SOL    HW211932   2.334   2.756   4.132  1.3133  0.4197 -0.1425
 3040SOL    HW311933   2.299   2.900   4.164 -0.5302  0.0634 -0.4994
 3040SOL    MW411934   2.282   2.825   4.123  0.4083 -0.2778 -0.2895
 3041SOL     OW11935   5.712   1.031   0.911 -0.0690  0.8979  0.0417
 3041SOL    HW211936   5.680   1.088   0.980  0.4248 -0.8418  1.7962
 3041SOL    HW311937   5.797   1.068   0.887 -0.2661  1.5397  0.3277
 3041SOL    MW411938   5.719   1.043   0.917 -0.0299  0.7531  0.3109
 3042SOL     OW11939   5.773   4.731   6.382  0.3908  0.2030  0.4656
 3042SOL    HW211940   5.809   4.690   6.461  0.0106  1.2264  1.1936
 3042SOL    HW311941   5.846   4.782   6.347  0.0010  1.4170  1.3440
 3042SOL    MW411942   5.788   4.732   6.388  0.2892  0.4982  0.6775
 3043SOL     OW11943   3.312   2.837   1.352  0.1263  0.1958 -0.0096
 3043SOL    HW211944   3.294   2.854   1.260 -0.9448  0.1262  0.1751
 3043SOL    HW311945   3.239   2.783   1.382  1.0855 -0.8320  0.5826
 3043SOL    MW411946   3.300   2.832   1.344  0.1116  0.0510  0.0929
 3044SOL     OW11947   5.222   5.683   1.390 -0.3531  0.2442 -0.4478
 3044SOL    HW211948   5.289   5.752   1.389 -0.6970  0.5770 -0.9909
 3044SOL    HW311949   5.180   5.689   1.305 -2.7122  1.6791  0.7147
 3044SOL    MW411950   5.225   5.693   1.379 -0.7097  0.4774 -0.3661
 3045SOL     OW11951   4.320   3.430   6.121  0.1125  0.4074  0.4240
 3045SOL    HW211952   4.375   3.461   6.192  0.0514 -0.8072  1.0132
 3045SOL    HW311953   4.301   3.509   6.069  2.7944  0.7952 -0.1067
 3045SOL    MW411954   4.325   3.445   6.123  0.4583  0.2983  0.4317
 3046SOL     OW11955   3.812   0.232   1.245  0.3023 -0.3287  0.0371
 3046SOL    HW211956   3.761   0.187   1.178 -1.9035 -0.1059  1.4779
 3046SOL    HW311957   3.774   0.204   1.328  1.7882  0.7854  1.1594
 3046SOL    MW411958   3.801   0.222   1.247  0.2073 -0.1523  0.3753
 3047SOL     OW11959   4.666   3.981   3.162 -0.1084  0.2325 -0.1020
 3047SOL    HW211960   4.756   3.978   3.195 -0.0542  1.0941 -0.1442
 3047SOL    HW311961   4.652   4.073   3.141 -1.0587  0.1312  0.0559
 3047SOL    MW411962   4.676   3.993   3.164 -0.2266  0.3328 -0.0867
 3048SOL     OW11963   2.033   4.293   3.287  0.3463  0.3018 -0.0291
 3048SOL    HW211964   1.958   4.269   3.342 -0.1158  0.1988 -0.6865
 3048SOL    HW311965   2.011   4.258   3.201  0.5905  1.3245 -0.5239
 3048SOL    MW411966   2.020   4.285   3.283  0.3175  0.4231 -0.1811
 3049SOL     OW11967   3.980   3.075   2.267  0.2194 -0.2036 -0.3366
 3049SOL    HW211968   4.053   3.020   2.294 -0.0589 -0.4543 -0.0963
 3049SOL    HW311969   3.994   3.158   2.314  0.1800 -0.3580 -0.0518
 3049SOL    MW411970   3.991   3.079   2.276  0.1775 -0.2571 -0.2674
 3050SOL     OW11971   0.733   5.669   3.791  0.6198 -0.1850  0.5835
 3050SOL    HW211972   0.653   5.618   3.776  1.0578 -1.5827  2.5265
 3050SOL    HW311973   0.715   5.720   3.870  1.5935 -0.4869  1.0289
 3050SOL    MW411974   0.720   5.669   3.800  0.8061 -0.4093  0.8986
 3051SOL     OW11975   2.834   3.783   2.450  0.4810  0.5215 -0.6453
 3051SOL    HW211976   2.824   3.815   2.361  0.2898 -1.4498 -1.3780
 3051SOL    HW311977   2.744   3.770   2.482  0.5505  0.3253 -0.5222
 3051SOL    MW411978   2.821   3.785   2.443  0.4650  0.2355 -0.7258
 3052SOL     OW11979   1.709   2.152   5.315 -0.1000  0.2738 -0.1549
 3052SOL    HW211980   1.661   2.070   5.301  0.7926 -0.4724  0.9780
 3052SOL    HW311981   1.754   2.140   5.398  0.4828  1.7202 -0.2254
 3052SOL    MW411982   1.709   2.140   5.324  0.0946  0.3662 -0.0147
 3053SOL     OW11983   2.611   4.300   5.650 -0.1890  1.2780  0.5493
 3053SOL    HW211984   2.619   4.206   5.638  0.4775  0.8170  3.7295
 3053SOL    HW311985   2.661   4.338   5.577 -0.4954 -0.7574 -0.8140
 3053SOL    MW411986   2.618   4.293   5.639 -0.1415  0.9486  0.7890
 3054SOL     OW11987   5.880   2.474   0.296 -0.0743  0.2511 -0.3819
 3054SOL    HW211988   5.804   2.528   0.279 -0.4419  0.0550  0.6025
 3054SOL    HW311989   5.954   2.527   0.267 -0.6623 -0.4140 -3.4838
 3054SOL    MW411990   5.880   2.488   0.290 -0.2004  0.1375 -0.6613
 3055SOL     OW11991   2.782   3.934   2.210  0.1460  0.7980 -0.2071
 3055SOL    HW211992   2.824   4.020   2.219 -0.4374  1.0234  0.5182
 3055SOL    HW311993   2.834   3.888   2.144  0.4348  1.7268 -0.6420
 3055SOL    MW411994   2.795   3.939   2.203  0.1071  0.9503 -0.1688
 3056SOL     OW11995   3.018   6.208   1.902 -0.2737  0.2053 -0.6022
 3056SOL    HW211996   3.112   6.191   1.910  0.0720  2.0920 -0.2765
 3056SOL    HW311997   2.979   6.166   1.979  0.5479  0.9218  0.2263
 3056SOL    MW411998   3.025   6.200   1.914 -0.1197  0.5488 -0.4499
 3057SOL     OW11999   6.120   6.392   0.916 -0.1488  0.3080  0.0616
 3057SOL    HW212000   6.106   6.455   0.845  0.1393  0.4206  0.1021
 3057SOL    HW312001   6.210   6.362   0.903 -0.9801 -1.8479 -1.3651
 3057SOL    MW412002   6.130   6.396   0.905 -0.2205  0.0384 -0.1213
 3058SOL     OW12003   6.084   4.835   3.749  0.2283  0.2709 -0.1875
 3058SOL    HW212004   6.171   4.801   3.727  0.1448 -0.3961  0.4853
 3058SOL    HW312005   6.023   4.770   3.715  0.0686 -0.3123  1.1604
 3058SOL    MW412006   6.087   4.822   3.742  0.1962  0.1060  0.0791
 3059SOL     OW12007   1.184   4.655   2.783 -0.6937 -0.4788  0.7124
 3059SOL    HW212008   1.266   4.606   2.775  0.3695  1.3772 -0.6330
 3059SOL    HW312009   1.161   4.649   2.875  0.8663 -1.2098  1.0912
 3059SOL    MW412010   1.192   4.648   2.794 -0.3476 -0.3304  0.5849
 3060SOL     OW12011   3.070   1.827   0.359 -0.1530 -0.2094 -0.3591
 3060SOL    HW212012   3.141   1.765   0.377 -0.6304 -0.5985  0.2158
 3060SOL    HW312013   3.020   1.829   0.440 -1.3271 -0.6306 -1.0553
 3060SOL    MW412014   3.073   1.819   0.372 -0.3709 -0.3163 -0.3751
 3061SOL     OW12015   3.816   1.206   1.763  0.4325 -0.7419 -0.3707
 3061SOL    HW212016   3.810   1.217   1.668  0.2751 -1.9156 -0.5153
 3061SOL    HW312017   3.728   1.179   1.790  0.3905 -0.0987  0.1645
 3061SOL    MW412018   3.804   1.204   1.754  0.4062 -0.8119 -0.3192
 3062SOL     OW12019   3.764   0.992   4.089  0.0444 -0.0749  0.0230
 3062SOL    HW212020   3.743   1.076   4.129 -3.8646 -1.7343  2.1301
 3062SOL    HW312021   3.825   0.950   4.150  1.1562  0.7621 -0.4891
 3062SOL    MW412022   3.769   0.997   4.102 -0.3247 -0.1834  0.2335
 3063SOL     OW12023   0.231   3.703   0.164  0.3447  0.5214  0.1583
 3063SOL    HW212024   0.266   3.674   0.248 -0.6121  1.9187  1.0730
 3063SOL    HW312025   0.192   3.788   0.182 -1.2660  0.1677 -1.3550
 3063SOL    MW412026   0.230   3.710   0.177  0.0060  0.6591  0.0793
 3064SOL     OW12027   2.171   3.824   5.487 -1.0210 -0.3897  0.0690
 3064SOL    HW212028   2.131   3.804   5.572  1.1448  0.6894  1.4168
 3064SOL    HW312029   2.132   3.908   5.461 -0.1467  0.3657  1.0937
 3064SOL    MW412030   2.160   3.832   5.494 -0.6199 -0.1477  0.3820
 3065SOL     OW12031   1.430   5.347   3.879 -0.6863  0.4893 -0.1228
 3065SOL    HW212032   1.385   5.429   3.901 -1.2739  0.0889  0.2025
 3065SOL    HW312033   1.487   5.330   3.954 -0.4627  0.6758 -0.2525
 3065SOL    MW412034   1.431   5.355   3.892 -0.7344  0.4611 -0.0970
 3066SOL     OW12035   4.838   3.604   4.490 -0.3228  0.3165 -0.3612
 3066SOL    HW212036   4.832   3.602   4.586 -0.8507  0.6427 -0.3896
 3066SOL    HW312037   4.862   3.514   4.467 -3.8209 -0.8258 -0.1649
 3066SOL    MW412038   4.841   3.592   4.500 -0.8540  0.2088 -0.3390
 3067SOL     OW12039   2.533   6.348   5.964  0.0387  0.3367 -0.0360
 3067SOL    HW212040   2.551   6.439   5.944 -1.2700  0.7784  0.6736
 3067SOL    HW312041   2.552   6.339   6.058  1.2404 -0.4292 -0.3212
 3067SOL    MW412042   2.538   6.359   5.974  0.0246  0.2939  0.0200
 3068SOL     OW12043   5.795   0.827   4.019  0.0124  0.0940 -0.5421
 3068SOL    HW212044   5.796   0.889   4.091  0.2515  0.1154 -0.5637
 3068SOL    HW312045   5.770   0.878   3.943  3.0608  0.8428 -1.1752
 3068SOL    MW412046   5.792   0.842   4.019  0.4461  0.1956 -0.6285
 3069SOL     OW12047   6.211   2.021   0.691 -0.3000  0.0880  0.1708
 3069SOL    HW212048   6.116   2.007   0.687 -0.5382  1.4963  0.1775
 3069SOL    HW312049   6.220   2.116   0.699  1.1426  0.0435 -0.7056
 3069SOL    MW412050   6.199   2.032   0.692 -0.1411  0.2679  0.0560
 3070SOL     OW12051   1.427   1.129   5.724  0.4946  0.1455 -0.3547
 3070SOL    HW212052   1.353   1.092   5.771  1.4095  0.0721  1.1172
 3070SOL    HW312053   1.392   1.207   5.681 -0.2494  0.6595  1.1063
 3070SOL    MW412054   1.413   1.135   5.724  0.5172  0.2037  0.0323
 3071SOL     OW12055   2.089   0.506   5.360 -0.0480 -0.5096 -0.3011
 3071SOL    HW212056   2.099   0.412   5.376  2.6593 -0.0968  1.1371
 3071SOL    HW312057   2.000   0.526   5.388 -0.7655 -2.6597 -0.8701
 3071SOL    MW412058   2.079   0.497   5.366  0.2145 -0.7388 -0.1864
 3072SOL     OW12059   1.775   2.066   0.714 -0.1282 -0.2121  0.2796
 3072SOL    HW212060   1.741   2.131   0.776 -0.8668 -0.5414  0.2314
 3072SOL    HW312061   1.722   1.988   0.729 -0.4221 -0.2537 -0.8530
 3072SOL    MW412062   1.763   2.064   0.724 -0.2645 -0.2610  0.1238
 3073SOL     OW12063   4.691   3.242   0.505 -0.1190 -0.4302 -0.2967
 3073SOL    HW212064   4.643   3.319   0.476  0.7778  0.2915  0.0957
 3073SOL    HW312065   4.642   3.210   0.580  0.3452  0.6825  0.5029
 3073SOL    MW412066   4.679   3.248   0.511  0.0606 -0.1882 -0.1394
 3074SOL     OW12067   5.451   4.111   5.116  0.0088  0.5952 -0.0941
 3074SOL    HW212068   5.504   4.108   5.195 -0.0130 -1.4746 -0.1024
 3074SOL    HW312069   5.420   4.201   5.111  1.6664  1.2714  1.1354
 3074SOL    MW412070   5.454   4.122   5.126  0.2246  0.4113  0.0670
 3075SOL     OW12071   3.002   2.337   3.521 -1.2220 -0.6510  0.0766
 3075SOL    HW212072   2.938   2.288   3.573 -2.4707 -1.6086 -2.2319
 3075SOL    HW312073   2.961   2.347   3.435  1.2088 -0.1514 -1.1096
 3075SOL    MW412074   2.988   2.332   3.517 -1.0661 -0.7114 -0.3845
 3076SOL     OW12075   5.300   1.214   0.869 -0.1202 -0.2904  0.2855
 3076SOL    HW212076   5.335   1.263   0.795 -0.2867 -1.3520 -0.5185
 3076SOL    HW312077   5.344   1.130   0.865 -0.1284 -0.3569  1.4103
 3076SOL    MW412078   5.310   1.210   0.859 -0.1432 -0.4393  0.3278
 3077SOL     OW12079   5.996   2.420   5.432 -0.5313  0.3541 -0.0097
 3077SOL    HW212080   6.020   2.404   5.524 -0.1406  0.4866 -0.0891
 3077SOL    HW312081   6.009   2.514   5.420  1.0971  0.0744 -0.6799
 3077SOL    MW412082   6.001   2.430   5.443 -0.2649  0.3347 -0.1086
 3078SOL     OW12083   2.318   1.342   2.102 -0.2152 -0.2196 -0.0400
 3078SOL    HW212084   2.332   1.252   2.071  0.5625  0.3033 -1.3145
 3078SOL    HW312085   2.365   1.346   2.185  0.8754 -0.6554 -0.5983
 3078SOL    MW412086   2.326   1.330   2.109  0.0313 -0.2081 -0.2818
 3079SOL     OW12087   5.718   3.437   1.504 -0.4644  0.0064 -0.2374
 3079SOL    HW212088   5.689   3.471   1.589 -1.0415  0.0185 -0.4349
 3079SOL    HW312089   5.660   3.479   1.440 -2.1414 -2.3612 -0.3914
 3079SOL    MW412090   5.706   3.447   1.507 -0.7618 -0.3044 -0.2838
 3080SOL     OW12091   1.991   3.246   2.697 -0.5892 -0.4574  0.1973
 3080SOL    HW212092   1.899   3.224   2.680 -0.4789 -3.2116  2.3152
 3080SOL    HW312093   1.987   3.311   2.767 -0.9100  0.4223 -0.6244
 3080SOL    MW412094   1.978   3.252   2.704 -0.6169 -0.7047  0.3684
 3081SOL     OW12095   1.056   1.694   3.339  0.1972  0.2605  0.4480
 3081SOL    HW212096   1.136   1.656   3.303 -0.0899  0.7998 -0.8076
 3081SOL    HW312097   1.022   1.626   3.397  1.5250 -0.0008  0.9581
 3081SOL    MW412098   1.062   1.680   3.342  0.3345  0.2972  0.3497
 3082SOL     OW12099   5.061   4.907   5.751  0.1764 -0.0883  0.1628
 3082SOL    HW212100   5.064   4.943   5.662  0.5565  0.9716  0.5776
 3082SOL    HW312101   5.015   4.824   5.743 -0.3103  0.2739 -0.9352
 3082SOL    MW412102   5.055   4.901   5.739  0.1623  0.0993  0.0727
 3083SOL     OW12103   0.168   0.391   2.302 -0.3299  0.0958 -0.1280
 3083SOL    HW212104   0.246   0.413   2.353 -0.4321 -0.6730  0.3787
 3083SOL    HW312105   0.184   0.430   2.216 -0.0192  1.1643  0.3886
 3083SOL    MW412106   0.180   0.399   2.298 -0.3024  0.1353  0.0070
 3084SOL     OW12107   5.742   1.643   0.394  0.0590  0.3158 -0.0538
 3084SOL    HW212108   5.836   1.663   0.388  0.5899 -2.1327 -0.9257
 3084SOL    HW312109   5.707   1.671   0.309  0.1172  0.6512  0.0311
 3084SOL    MW412110   5.750   1.649   0.382  0.1367  0.0370 -0.1576
 3085SOL     OW12111   2.701   2.056   3.635  0.3797  0.3679  0.1320
 3085SOL    HW212112   2.742   2.058   3.549  0.1094  1.0109  0.0075
 3085SOL    HW312113   2.765   2.099   3.693  0.1147  0.9066  0.0363
 3085SOL    MW412114   2.715   2.062   3.631  0.3091  0.5238  0.1029
 3086SOL     OW12115   4.085   2.099   2.272  0.4774 -0.1125 -0.3218
 3086SOL    HW212116   4.036   2.078   2.352  0.4131  0.2209 -0.2701
 3086SOL    HW312117   4.064   2.191   2.256  2.0037  0.3798  0.3543
 3086SOL    MW412118   4.075   2.109   2.281  0.6703 -0.0036 -0.2258
 3087SOL     OW12119   5.145   3.168   1.660  0.0244  0.2797 -0.3066
 3087SOL    HW212120   5.192   3.149   1.579  0.1016  0.5512 -0.3257
 3087SOL    HW312121   5.123   3.081   1.696 -1.0417  0.1622 -1.2136
 3087SOL    MW412122   5.148   3.154   1.654 -0.1061  0.3000 -0.4288
 3088SOL     OW12123   3.082   3.134   4.447 -0.4677 -0.1690  0.0991
 3088SOL    HW212124   3.168   3.114   4.485 -0.3653  0.7599  0.3822
 3088SOL    HW312125   3.046   3.202   4.504 -0.1770  1.5359 -1.6419
 3088SOL    MW412126   3.088   3.140   4.460 -0.4159  0.1785 -0.0933
 3089SOL     OW12127   3.319   1.888   0.567  0.3957 -0.2716  0.2473
 3089SOL    HW212128   3.312   1.966   0.622 -1.0335  0.5745 -1.0710
 3089SOL    HW312129   3.383   1.833   0.612 -0.7485  0.3284  2.7906
 3089SOL    MW412130   3.327   1.891   0.580  0.0561 -0.0808  0.4089
 3090SOL     OW12131   1.563   0.261   5.587 -0.1898  0.0593  0.0615
 3090SOL    HW212132   1.642   0.313   5.573 -0.2472  0.0434 -0.3313
 3090SOL    HW312133   1.581   0.177   5.544  0.2856 -0.6226  1.5177
 3090SOL    MW412134   1.576   0.257   5.579 -0.1347 -0.0327  0.2018
 3091SOL     OW12135   4.996   1.946   0.989 -0.0210  0.3807 -0.3473
 3091SOL    HW212136   4.973   1.999   1.066 -0.0910  0.1183 -0.1826
 3091SOL    HW312137   5.088   1.923   1.002  0.2109  1.0501 -0.7765
 3091SOL    MW412138   5.005   1.950   1.001  0.0004  0.4344 -0.3822
 3092SOL     OW12139   6.176   2.384   6.346  0.1444 -0.4246  0.2296
 3092SOL    HW212140   6.085   2.413   6.348 -0.2282 -1.5597  2.2379
 3092SOL    HW312141   6.226   2.457   6.381 -0.1349 -0.2400  0.2475
 3092SOL    MW412142   6.170   2.397   6.351  0.0584 -0.5500  0.4970
 3093SOL     OW12143   5.372   6.238   4.639  0.2135 -0.3754 -0.1548
 3093SOL    HW212144   5.462   6.206   4.628  0.8700  1.4758 -0.5565
 3093SOL    HW312145   5.333   6.229   4.551  0.7271  0.7958 -0.5254
 3093SOL    MW412146   5.379   6.232   4.626  0.3679  0.0234 -0.2567
 3094SOL     OW12147   2.948   0.264   3.631  0.1655 -0.2950  0.3813
 3094SOL    HW212148   2.918   0.302   3.713 -0.9352 -0.5969  0.1290
 3094SOL    HW312149   2.963   0.172   3.651  0.8163 -0.1716  0.4750
 3094SOL    MW412150   2.946   0.257   3.644  0.1061 -0.3185  0.3604
 3095SOL     OW12151   4.780   1.801   5.547  0.2458  0.1939 -0.1855
 3095SOL    HW212152   4.860   1.798   5.495  1.5210  0.0473  1.7025
 3095SOL    HW312153   4.714   1.838   5.488  1.4822 -0.4192 -2.0351
 3095SOL    MW412154   4.782   1.805   5.532  0.5772  0.0937 -0.1805
 3096SOL     OW12155   0.147   5.460   5.023 -0.4648 -0.3097 -0.2495
 3096SOL    HW212156   0.214   5.490   5.084  0.1359 -0.4663 -0.8290
 3096SOL    HW312157   0.065   5.497   5.057 -0.4638 -1.9935  1.7665
 3096SOL    MW412158   0.145   5.469   5.035 -0.3854 -0.5525 -0.0600
 3097SOL     OW12159   3.310   3.889   2.449  0.0069  0.1948  0.4206
 3097SOL    HW212160   3.234   3.860   2.500  0.5498 -1.3868  0.3981
 3097SOL    HW312161   3.383   3.836   2.482  1.0374  1.4036  0.1738
 3097SOL    MW412162   3.310   3.878   2.460  0.2145  0.1456  0.3850
 3098SOL     OW12163   5.796   0.967   4.517  0.4439  0.2680  1.0494
 3098SOL    HW212164   5.785   0.993   4.426  2.3676 -1.8270  0.1422
 3098SOL    HW312165   5.711   0.929   4.541  0.7577 -1.8403 -0.8638
 3098SOL    MW412166   5.783   0.966   4.508  0.7391 -0.2865  0.6773
 3099SOL     OW12167   2.170   2.654   4.451  0.0938  0.1349  0.1592
 3099SOL    HW212168   2.106   2.659   4.522  0.2008  0.4185  0.2362
 3099SOL    HW312169   2.230   2.726   4.468  0.2636  0.0508 -0.0810
 3099SOL    MW412170   2.170   2.664   4.463  0.1303  0.1612  0.1376
 3100SOL     OW12171   4.622   3.181   0.244  0.6968  0.0457 -0.5991
 3100SOL    HW212172   4.651   3.200   0.333  0.4387  2.6492 -0.9685
 3100SOL    HW312173   4.531   3.211   0.242 -0.0137 -1.9943 -1.1972
 3100SOL    MW412174   4.614   3.188   0.255  0.5690  0.1200 -0.7267
 3101SOL     OW12175   1.249   1.336   5.953 -0.3759 -0.6745 -0.0624
 3101SOL    HW212176   1.276   1.244   5.955 -1.0992 -0.8827  0.6598
 3101SOL    HW312177   1.167   1.336   5.903  0.5372 -0.1472 -1.6351
 3101SOL    MW412178   1.242   1.324   5.947 -0.3508 -0.6324 -0.1746
 3102SOL     OW12179   2.591   0.212   3.946 -0.3179  0.2254 -0.1544
 3102SOL    HW212180   2.614   0.160   3.869 -0.5984  0.2576 -0.2623
 3102SOL    HW312181   2.562   0.148   4.010  0.2210  0.1689  0.0420
 3102SOL    MW412182   2.590   0.197   3.944 -0.2838  0.2222 -0.1427
 3103SOL     OW12183   3.721   4.841   4.091  0.2626 -0.7041 -0.0204
 3103SOL    HW212184   3.658   4.858   4.021  0.5919 -1.5166 -0.5401
 3103SOL    HW312185   3.682   4.771   4.143  0.3111 -0.5558  0.2157
 3103SOL    MW412186   3.708   4.834   4.088  0.3124 -0.7918 -0.0578
 3104SOL     OW12187   4.763   4.117   5.405 -0.0896 -0.0774  0.1333
 3104SOL    HW212188   4.823   4.094   5.476 -0.5170  1.4329  1.0242
 3104SOL    HW312189   4.820   4.144   5.333  0.3993  2.8708  1.4821
 3104SOL    MW412190   4.779   4.117   5.405 -0.0815  0.5109  0.4288
 3105SOL     OW12191   5.093   2.197   0.879 -0.7980 -0.0457 -0.7500
 3105SOL    HW212192   5.069   2.126   0.938  0.4240  2.2466  2.8274
 3105SOL    HW312193   5.020   2.259   0.886 -0.5342  0.3692 -1.5116
 3105SOL    MW412194   5.080   2.196   0.888 -0.6020  0.3115 -0.3785
 3106SOL     OW12195   0.778   3.681   6.144 -0.2754 -0.0864 -0.5280
 3106SOL    HW212196   0.749   3.716   6.060  1.3272  0.0479 -1.0565
 3106SOL    HW312197   0.806   3.758   6.194  0.8287 -0.3450 -0.7175
 3106SOL    MW412198   0.778   3.696   6.140  0.0817 -0.1028 -0.6227
 3107SOL     OW12199   4.823   5.634   5.913  0.5825  0.2713  0.0203
 3107SOL    HW212200   4.744   5.593   5.949  0.2657  0.0083 -0.9410
 3107SOL    HW312201   4.872   5.663   5.990 -0.4538  0.4542  0.6305
 3107SOL    MW412202   4.819   5.632   5.928  0.4040  0.2607 -0.0260
 3108SOL     OW12203   2.098   4.335   4.229 -0.2649  0.0496 -0.5004
 3108SOL    HW212204   2.131   4.247   4.210 -0.8023 -0.3463  0.2976
 3108SOL    HW312205   2.090   4.377   4.144  0.5711 -0.4620 -0.8464
 3108SOL    MW412206   2.101   4.329   4.215 -0.2255 -0.0701 -0.4408
 3109SOL     OW12207   2.028   0.307   0.625 -0.4158 -0.1212  0.2019
 3109SOL    HW212208   1.933   0.313   0.619 -0.4263  0.5254  0.8669
 3109SOL    HW312209   2.043   0.236   0.688 -0.4629 -0.1867  0.1386
 3109SOL    MW412210   2.017   0.298   0.633 -0.4234 -0.0445  0.2813
 3110SOL     OW12211   5.425   2.224   5.407 -0.2808 -0.5004 -0.4857
 3110SOL    HW212212   5.413   2.149   5.349 -0.2957 -2.3151  1.7188
 3110SOL    HW312213   5.481   2.191   5.478  2.2629  2.4193 -0.8881
 3110SOL    MW412214   5.431   2.210   5.409  0.0528 -0.3546 -0.2480
 3111SOL     OW12215   5.332   4.307   3.336 -0.1586  0.3688 -0.3499
 3111SOL    HW212216   5.331   4.403   3.341 -0.5092  0.3445  0.1337
 3111SOL    HW312217   5.386   4.280   3.411 -0.2269  0.1840 -0.3675
 3111SOL    MW412218   5.339   4.316   3.347 -0.2139  0.3412 -0.2884
 3112SOL     OW12219   5.015   5.438   3.754  0.3736  0.0104 -0.4641
 3112SOL    HW212220   5.019   5.532   3.774 -1.7521  0.1019 -0.2718
 3112SOL    HW312221   4.944   5.430   3.690  0.5580 -1.4717 -0.5083
 3112SOL    MW412222   5.006   5.450   3.748  0.1174 -0.1731 -0.4446
 3113SOL     OW12223   0.408   4.785   1.907 -0.7730  0.7752 -0.9274
 3113SOL    HW212224   0.420   4.875   1.936  0.5553 -0.2765  2.3173
 3113SOL    HW312225   0.375   4.739   1.984  0.6146 -1.9122 -1.7823
 3113SOL    MW412226   0.405   4.791   1.921 -0.4147  0.2819 -0.6121
 3114SOL     OW12227   6.028   5.168   5.804  0.2249  0.4796  0.5883
 3114SOL    HW212228   6.047   5.075   5.787  1.6492  0.4465  2.0906
 3114SOL    HW312229   5.999   5.170   5.895 -1.1675  1.3593  0.1490
 3114SOL    MW412230   6.027   5.156   5.814  0.2291  0.5913  0.7285
 3115SOL     OW12231   2.503   5.566   0.793  0.4190 -0.0312  0.3219
 3115SOL    HW212232   2.489   5.562   0.698 -1.8504  0.7653  0.5385
 3115SOL    HW312233   2.427   5.616   0.825  0.2809 -1.6526  2.7265
 3115SOL    MW412234   2.491   5.572   0.784  0.1014 -0.1401  0.6677
 3116SOL     OW12235   4.872   3.004   1.225 -0.6380 -0.4601  0.2171
 3116SOL    HW212236   4.958   3.020   1.186  0.9700 -0.3469  3.4538
 3116SOL    HW312237   4.881   2.920   1.271 -2.4566 -0.7276  0.1761
 3116SOL    MW412238   4.884   2.995   1.226 -0.6658 -0.4805  0.6387
 3117SOL     OW12239   3.398   3.570   4.324 -0.3018  0.1305  1.0561
 3117SOL    HW212240   3.358   3.497   4.371 -1.2129 -0.6721 -0.8780
 3117SOL    HW312241   3.325   3.613   4.280  0.6534 -0.1198 -0.8879
 3117SOL    MW412242   3.383   3.566   4.325 -0.2960 -0.0084  0.5444
 3118SOL     OW12243   6.373   0.369   3.135 -0.1948  0.4586  0.3680
 3118SOL    HW212244   6.321   0.288   3.134 -0.5378  0.6699  0.8654
 3118SOL    HW312245   6.318   0.434   3.091  0.9840 -0.0950 -2.1272
 3118SOL    MW412246   6.359   0.367   3.129 -0.0846  0.4134  0.1044
 3119SOL     OW12247   6.107   0.036   5.719  0.0539  0.3584  0.7043
 3119SOL    HW212248   6.082   0.042   5.627  0.9660 -1.2697  0.3148
 3119SOL    HW312249   6.026   0.054   5.768 -1.0227 -1.1387 -0.4494
 3119SOL    MW412250   6.093   0.039   5.714  0.0322 -0.0539  0.5007
 3120SOL     OW12251   4.633   1.133   0.271  0.4867 -0.0094  0.7820
 3120SOL    HW212252   4.549   1.139   0.224  0.1134  0.5872  1.5142
 3120SOL    HW312253   4.609   1.112   0.361  1.2277 -1.5560  0.6614
 3120SOL    MW412254   4.619   1.131   0.276  0.5352 -0.1348  0.8627
 3121SOL     OW12255   3.464   2.257   1.070 -0.4952 -0.0245  0.1446
 3121SOL    HW212256   3.441   2.164   1.060 -0.3041  0.0813 -1.5622
 3121SOL    HW312257   3.399   2.304   1.018  0.9882  0.5831 -1.2204
 3121SOL    MW412258   3.453   2.251   1.062 -0.2743  0.0696 -0.2607
 3122SOL     OW12259   4.097   1.432   1.109  0.1171 -0.2563 -0.0286
 3122SOL    HW212260   4.134   1.387   1.033 -2.3007 -2.0999 -0.2218
 3122SOL    HW312261   4.066   1.516   1.074  2.9693  0.9326 -0.0444
 3122SOL    MW412262   4.098   1.437   1.094  0.1744 -0.3427 -0.0562
 3123SOL     OW12263   2.833   5.018   1.439 -0.1152  0.5559 -0.1909
 3123SOL    HW212264   2.804   5.002   1.529 -1.2108  0.4540 -0.5508
 3123SOL    HW312265   2.925   5.043   1.448 -0.8413  3.1630  1.2376
 3123SOL    MW412266   2.842   5.019   1.452 -0.3556  0.8864 -0.0499
 3124SOL     OW12267   4.412   3.602   5.133 -0.7666  0.3152 -0.0740
 3124SOL    HW212268   4.421   3.634   5.043  0.1756 -2.5450 -1.1073
 3124SOL    HW312269   4.483   3.645   5.181 -0.4686  0.9063 -1.0088
 3124SOL    MW412270   4.423   3.612   5.128 -0.6030  0.0158 -0.3336
 3125SOL     OW12271   4.935   6.192   1.832 -0.1400  0.1849 -0.1653
 3125SOL    HW212272   4.848   6.158   1.850 -1.5246  1.6311 -3.3763
 3125SOL    HW312273   4.979   6.124   1.782 -0.1143  0.1946 -0.1564
 3125SOL    MW412274   4.929   6.179   1.828 -0.3193  0.3770 -0.5877
 3126SOL     OW12275   2.848   0.085   4.251  0.8930 -0.1922  0.2334
 3126SOL    HW212276   2.937   0.080   4.286  0.9080  1.8967  0.5985
 3126SOL    HW312277   2.821  -0.007   4.243  2.5396 -0.8429  1.4477
 3126SOL    MW412278   2.856   0.072   4.255  1.1123 -0.0025  0.4418
 3127SOL     OW12279   5.388   1.128   1.741 -0.5315  0.5016 -0.2159
 3127SOL    HW212280   5.301   1.093   1.726 -0.4190  0.9294 -2.1910
 3127SOL    HW312281   5.381   1.177   1.823 -2.1974  0.6862 -0.4432
 3127SOL    MW412282   5.376   1.130   1.750 -0.7364  0.5824 -0.5065
 3128SOL     OW12283   4.472   0.386   4.787 -0.3996 -0.0472 -0.3226
 3128SOL    HW212284   4.468   0.474   4.749  0.7380 -0.2073 -0.8445
 3128SOL    HW312285   4.418   0.333   4.729 -0.7711  0.2197 -0.2287
 3128SOL    MW412286   4.464   0.391   4.774 -0.2986 -0.0331 -0.3791
 3129SOL     OW12287   5.970   5.318   3.537  0.3601 -0.1873  0.0476
 3129SOL    HW212288   5.877   5.314   3.518  0.2059 -1.3563  0.9668
 3129SOL    HW312289   5.975   5.339   3.630  0.9984 -0.6211  0.1186
 3129SOL    MW412290   5.959   5.320   3.547  0.4240 -0.3987  0.1783
 3130SOL     OW12291   4.751   1.823   6.080 -0.1794  0.2584 -0.3842
 3130SOL    HW212292   4.681   1.888   6.080 -1.3789 -0.9930 -0.3852
 3130SOL    HW312293   4.749   1.785   6.168  2.6674  2.3883  0.7561
 3130SOL    MW412294   4.741   1.827   6.092  0.0380  0.3743 -0.2339
 3131SOL     OW12295   1.977   2.281   5.992  0.0857  0.2437 -0.1978
 3131SOL    HW212296   1.963   2.282   6.087  0.9149  3.5973  0.0287
 3131SOL    HW312297   1.914   2.344   5.958  0.7202  0.0961 -1.7126
 3131SOL    MW412298   1.967   2.290   6.000  0.2788  0.6667 -0.3677
 3132SOL     OW12299   2.153   5.305   2.590 -0.0147  0.8033  0.0496
 3132SOL    HW212300   2.207   5.294   2.512 -0.1728  0.1390  0.0208
 3132SOL    HW312301   2.123   5.216   2.610  1.5512  0.6223  1.9636
 3132SOL    MW412302   2.156   5.291   2.582  0.1711  0.6918  0.2983
 3133SOL     OW12303   1.463   3.824   5.418  0.0569  0.0212 -0.5385
 3133SOL    HW212304   1.379   3.786   5.444  0.1000  0.2864  0.0007
 3133SOL    HW312305   1.489   3.774   5.341 -0.7196  0.1016 -0.8614
 3133SOL    MW412306   1.455   3.812   5.411 -0.0399  0.0668 -0.5099
 3134SOL     OW12307   3.802   1.799   1.829 -0.5937 -0.4107  0.0812
 3134SOL    HW212308   3.864   1.869   1.810 -0.7536  0.1504  1.4840
 3134SOL    HW312309   3.819   1.776   1.921 -2.2087 -0.4799  0.3977
 3134SOL    MW412310   3.812   1.805   1.839 -0.8279 -0.3458  0.3080
 3135SOL     OW12311   0.472   6.128   0.963  0.0505  0.0871 -0.2946
 3135SOL    HW212312   0.539   6.148   1.029  0.0092 -0.6560 -0.0106
 3135SOL    HW312313   0.502   6.172   0.884  0.9368 -0.3156 -0.1999
 3135SOL    MW412314   0.485   6.136   0.962  0.1620 -0.0640 -0.2446
 3136SOL     OW12315   3.160   3.398   1.243  0.0395  0.0190  0.3342
 3136SOL    HW212316   3.127   3.447   1.318  0.0403 -0.5822  0.7235
 3136SOL    HW312317   3.255   3.398   1.254 -0.0160 -0.9095  0.8575
 3136SOL    MW412318   3.168   3.405   1.254  0.0322 -0.1829  0.4546
 3137SOL     OW12319   2.742   5.662   0.873  0.2396 -0.7751  0.3206
 3137SOL    HW212320   2.670   5.613   0.831  0.9729 -1.4235 -0.2031
 3137SOL    HW312321   2.811   5.597   0.885  0.3171 -0.4546  1.9361
 3137SOL    MW412322   2.741   5.647   0.869  0.3466 -0.8184  0.4646
 3138SOL     OW12323   1.717   3.237   2.620 -0.1708  0.2155  0.0323
 3138SOL    HW212324   1.694   3.228   2.712  0.7559  0.1648  0.2748
 3138SOL    HW312325   1.688   3.324   2.595 -1.0201 -0.0163  0.1829
 3138SOL    MW412326   1.710   3.247   2.629 -0.1606  0.1782  0.0841
 3139SOL     OW12327   4.929   2.765   2.070 -0.5970  0.0073 -0.0235
 3139SOL    HW212328   4.876   2.695   2.032 -0.5059 -0.0373 -0.0702
 3139SOL    HW312329   4.949   2.735   2.159  0.3737 -0.5411 -0.4102
 3139SOL    MW412330   4.924   2.752   2.077 -0.4569 -0.0710 -0.0807
 3140SOL     OW12331   1.984   4.278   4.629  0.1369  0.0437 -0.0330
 3140SOL    HW212332   2.065   4.233   4.606  0.1397  0.6200 -1.2060
 3140SOL    HW312333   1.973   4.344   4.561 -0.1306  1.4878  1.3706
 3140SOL    MW412334   1.993   4.280   4.617  0.1020  0.3103 -0.0026
 3141SOL     OW12335   2.535   3.661   1.883 -0.3330 -0.1527  0.2144
 3141SOL    HW212336   2.485   3.740   1.907 -0.1179 -0.2103  0.8728
 3141SOL    HW312337   2.583   3.686   1.805 -1.0483  0.0488 -0.1715
 3141SOL    MW412338   2.535   3.675   1.876 -0.3990 -0.1337  0.2503
 3142SOL     OW12339   2.098   5.848   0.817 -0.2787 -0.4367 -0.2753
 3142SOL    HW212340   2.061   5.922   0.865  0.4536  0.6998 -1.4038
 3142SOL    HW312341   2.092   5.874   0.725  2.3343 -0.6348 -0.5849
 3142SOL    MW412342   2.092   5.861   0.811  0.1627 -0.3129 -0.4650
 3143SOL     OW12343   5.008   3.976   1.684  0.7587  0.0418 -0.4612
 3143SOL    HW212344   4.988   3.889   1.720 -0.5031  0.6011  0.2835
 3143SOL    HW312345   4.925   4.023   1.689  1.4382  1.3190 -0.7910
 3143SOL    MW412346   4.994   3.971   1.690  0.6819  0.2841 -0.4065
 3144SOL     OW12347   5.000   4.901   3.233 -0.3902  0.3335  0.1372
 3144SOL    HW212348   5.092   4.907   3.262 -1.0345 -0.7987  2.7103
 3144SOL    HW312349   5.003   4.842   3.158  0.8265 -1.2588  1.3547
 3144SOL    MW412350   5.013   4.894   3.227 -0.3147 -0.0259  0.6373
 3145SOL     OW12351   4.561   0.156   5.711  0.0694  0.4180  0.1008
 3145SOL    HW212352   4.474   0.116   5.715 -1.0510  2.5534 -0.9871
 3145SOL    HW312353   4.599   0.123   5.629  0.7675 -1.3162  1.0735
 3145SOL    MW412354   4.555   0.147   5.701  0.0137  0.4710  0.0856
 3146SOL     OW12355   1.525   5.723   5.303  0.0335 -0.2452  0.2734
 3146SOL    HW212356   1.454   5.748   5.244 -0.0043 -1.4711 -0.2296
 3146SOL    HW312357   1.604   5.757   5.262  0.3239 -3.0592 -1.8290
 3146SOL    MW412358   1.526   5.730   5.290  0.0668 -0.7782 -0.0704
 3147SOL     OW12359   4.616   0.926   1.020 -0.5125 -0.8599 -0.3827
 3147SOL    HW212360   4.614   1.021   1.030 -0.1125 -0.8490 -0.4013
 3147SOL    HW312361   4.695   0.898   1.066 -1.0160 -1.2602  0.2600
 3147SOL    MW412362   4.626   0.935   1.027 -0.5262 -0.9113 -0.3003
 3148SOL     OW12363   6.198   0.466   5.699 -0.2252  0.3573 -0.3248
 3148SOL    HW212364   6.254   0.536   5.730 -0.2982 -0.8985  3.0001
 3148SOL    HW312365   6.109   0.502   5.705 -0.1153  0.7672 -1.0361
 3148SOL    MW412366   6.193   0.480   5.704 -0.2203  0.2457  0.0200
 3149SOL     OW12367   3.237   4.712   4.324 -0.5078  0.0356 -0.1896
 3149SOL    HW212368   3.288   4.653   4.378 -0.9309  1.0971  1.4291
 3149SOL    HW312369   3.162   4.660   4.295 -0.2045 -0.5848  0.1321
 3149SOL    MW412370   3.233   4.697   4.327 -0.5236  0.0938  0.0664
 3150SOL     OW12371   5.643   4.836   4.388  0.6646 -0.1510 -0.2466
 3150SOL    HW212372   5.558   4.845   4.346  1.1636  3.3860 -0.8426
 3150SOL    HW312373   5.624   4.802   4.475 -1.0455 -1.6603 -1.1455
 3150SOL    MW412374   5.629   4.833   4.394  0.5048  0.1165 -0.4439
 3151SOL     OW12375   5.917   1.644   0.987  0.0882  0.9262  0.4775
 3151SOL    HW212376   5.830   1.652   1.025 -0.1954  0.7800 -0.1186
 3151SOL    HW312377   5.977   1.669   1.057 -0.4118  0.5973  1.0302
 3151SOL    MW412378   5.914   1.648   1.001 -0.0152  0.8635  0.4717
 3152SOL     OW12379   2.799   1.399   2.952 -0.2616  0.3096 -0.9641
 3152SOL    HW212380   2.874   1.406   2.893 -0.5777  2.1601 -1.2051
 3152SOL    HW312381   2.723   1.421   2.897 -0.8300 -0.2890 -0.4275
 3152SOL    MW412382   2.799   1.403   2.937 -0.3783  0.4747 -0.9251
 3153SOL     OW12383   5.578   6.338   2.484  0.0763 -0.2965  0.9730
 3153SOL    HW212384   5.560   6.316   2.576  1.0097 -0.2427  1.1744
 3153SOL    HW312385   5.563   6.432   2.479 -0.0751 -0.3155  1.0397
 3153SOL    MW412386   5.573   6.347   2.496  0.1795 -0.2919  1.0084
 3154SOL     OW12387   4.486   2.125   4.220  0.5286 -0.4547  0.0232
 3154SOL    HW212388   4.561   2.123   4.279  2.0888  0.7803 -1.8161
 3154SOL    HW312389   4.517   2.083   4.140 -0.8053 -0.0410 -0.7383
 3154SOL    MW412390   4.500   2.119   4.218  0.5584 -0.2372 -0.3199
 3155SOL     OW12391   4.727   5.368   1.869 -0.7251 -0.4263 -0.2358
 3155SOL    HW212392   4.642   5.405   1.893 -0.3726 -0.1010  0.5348
 3155SOL    HW312393   4.763   5.334   1.951 -0.1612 -0.6688 -0.5744
 3155SOL    MW412394   4.720   5.368   1.883 -0.6042 -0.4154 -0.1788
 3156SOL     OW12395   2.602   0.655   5.309 -0.6545  0.3436  0.4981
 3156SOL    HW212396   2.531   0.671   5.372 -1.8232  0.1285 -0.7014
 3156SOL    HW312397   2.622   0.562   5.318 -0.3008  0.4686  1.0517
 3156SOL    MW412398   2.595   0.645   5.319 -0.7620  0.3317  0.4129
 3157SOL     OW12399   0.233   3.146   3.614 -0.3268  0.3545  0.1286
 3157SOL    HW212400   0.171   3.126   3.685 -0.6064 -0.7822 -0.4227
 3157SOL    HW312401   0.254   3.061   3.576  1.5347  0.7246  0.2530
 3157SOL    MW412402   0.227   3.132   3.619 -0.1181  0.2533  0.0723
 3158SOL     OW12403   1.152   0.170   5.396  0.3409 -0.0975 -0.6927
 3158SOL    HW212404   1.151   0.133   5.485  1.5235  1.7891  0.1636
 3158SOL    HW312405   1.064   0.155   5.363 -0.2091 -0.6000  0.9014
 3158SOL    MW412406   1.140   0.163   5.403  0.4244  0.0851 -0.3694
 3159SOL     OW12407   4.427   0.420   6.233  0.0992 -0.0103 -0.5611
 3159SOL    HW212408   4.442   0.349   6.171  1.4274 -1.2350  1.0607
 3159SOL    HW312409   4.515   0.450   6.256 -0.3945  0.9795  0.1034
 3159SOL    MW412410   4.441   0.414   6.228  0.2093 -0.0413 -0.2595
 3160SOL     OW12411   1.474   3.416   1.465  0.1960  0.4108  0.6621
 3160SOL    HW212412   1.513   3.341   1.420  0.3758  0.3319  0.9502
 3160SOL    HW312413   1.423   3.378   1.536 -1.5587  0.4101 -0.5234
 3160SOL    MW412414   1.473   3.401   1.468 -0.0118  0.4003  0.5437
 3161SOL     OW12415   1.020   0.572   2.314 -0.6388  0.1287 -0.5806
 3161SOL    HW212416   1.052   0.662   2.326 -0.5960 -0.1156  1.3580
 3161SOL    HW312417   1.039   0.552   2.222  1.4035  1.2983 -0.4567
 3161SOL    MW412418   1.026   0.581   2.304 -0.3637  0.2508 -0.3085
 3162SOL     OW12419   2.789   3.442   3.175  0.6598  0.5501  0.6799
 3162SOL    HW212420   2.803   3.404   3.262  1.8450 -1.6810 -0.4056
 3162SOL    HW312421   2.819   3.374   3.114 -2.1787  1.1082 -1.5510
 3162SOL    MW412422   2.795   3.428   3.179  0.4417  0.3294  0.2424
 3163SOL     OW12423   2.136   1.407   1.874 -0.2949  0.1737 -0.2616
 3163SOL    HW212424   2.161   1.403   1.782 -1.4143  0.5384 -0.5937
 3163SOL    HW312425   2.212   1.371   1.921 -0.7409 -2.6005 -1.4771
 3163SOL    MW412426   2.150   1.402   1.868 -0.5014 -0.1442 -0.4658
 3164SOL     OW12427   3.172   4.808   3.856  0.2939 -0.2386 -0.2831
 3164SOL    HW212428   3.221   4.799   3.938  0.7670  1.2929 -0.3500
 3164SOL    HW312429   3.141   4.899   3.857 -0.5061 -0.4787 -1.3678
 3164SOL    MW412430   3.175   4.819   3.867  0.2507 -0.0682 -0.4350
 3165SOL     OW12431   2.296   1.529   4.084 -0.5214 -0.0292 -0.4218
 3165SOL    HW212432   2.276   1.614   4.123 -0.1562  0.5872 -1.5347
 3165SOL    HW312433   2.373   1.546   4.028 -0.1989 -1.1732 -0.3506
 3165SOL    MW412434   2.304   1.542   4.082 -0.4307 -0.0988 -0.5592
 3166SOL     OW12435   5.974   3.959   6.014 -0.0026  0.2054  0.0874
 3166SOL    HW212436   5.887   3.918   6.009  0.4755 -0.7853 -0.4155
 3166SOL    HW312437   5.963   4.044   5.971 -0.4044 -0.4881 -1.2253
 3166SOL    MW412438   5.961   3.965   6.008  0.0075 -0.0168 -0.1521
 3167SOL     OW12439   3.715   0.471   2.821 -0.2323  0.0988 -0.1113
 3167SOL    HW212440   3.741   0.393   2.772  2.7428 -0.2056  1.6970
 3167SOL    HW312441   3.673   0.437   2.900  0.9162  0.2925  0.6004
 3167SOL    MW412442   3.713   0.457   2.825  0.3118  0.0842  0.2212
 3168SOL     OW12443   1.688   1.569   6.027 -0.5099  0.8057  0.2459
 3168SOL    HW212444   1.755   1.598   5.965 -0.9073 -0.2776 -0.7368
 3168SOL    HW312445   1.726   1.584   6.113  1.5896 -1.0103 -0.2633
 3168SOL    MW412446   1.702   1.574   6.030 -0.2854  0.4232  0.0490
 3169SOL     OW12447   6.040   0.418   1.638  0.8465 -0.2377  0.2152
 3169SOL    HW212448   6.109   0.375   1.588  0.4176  0.5358 -1.1053
 3169SOL    HW312449   6.057   0.512   1.627  2.5167  0.0882  4.0517
 3169SOL    MW412450   6.051   0.425   1.630  1.0103 -0.0927  0.5472
 3170SOL     OW12451   6.276   5.129   3.654 -0.3063 -0.1283  0.6377
 3170SOL    HW212452   6.257   5.152   3.745 -1.2651  0.9801  0.1705
 3170SOL    HW312453   6.191   5.116   3.614  0.1134 -0.7225 -0.0916
 3170SOL    MW412454   6.263   5.130   3.661 -0.3774 -0.0604  0.4799
 3171SOL     OW12455   5.439   5.183   3.205 -0.3688 -0.1657  0.2086
 3171SOL    HW212456   5.487   5.101   3.214 -1.8918 -1.1923 -0.5601
 3171SOL    HW312457   5.407   5.202   3.294  0.8150  0.1460  0.5787
 3171SOL    MW412458   5.441   5.175   3.218 -0.4135 -0.2600  0.1560
 3172SOL     OW12459   4.463   4.372   4.255  0.1850  0.1798  0.4002
 3172SOL    HW212460   4.368   4.387   4.257  0.1966  0.1884  1.1447
 3172SOL    HW312461   4.495   4.431   4.188 -0.4419 -0.4467 -0.4834
 3172SOL    MW412462   4.455   4.382   4.246  0.1038  0.0983  0.3818
 3173SOL     OW12463   4.182   3.270   2.467  0.1066  0.2170 -0.1880
 3173SOL    HW212464   4.266   3.303   2.500  0.0123 -0.4106  0.7127
 3173SOL    HW312465   4.182   3.294   2.374  0.8625  1.0561  0.0136
 3173SOL    MW412466   4.193   3.277   2.459  0.1938  0.2449 -0.0426
 3174SOL     OW12467   0.309   6.415   1.749 -0.0283  0.0400  0.0957
 3174SOL    HW212468   0.276   6.434   1.837  0.2227  1.1207 -0.0290
 3174SOL    HW312469   0.236   6.373   1.705 -0.4427  0.2629  0.5587
 3174SOL    MW412470   0.295   6.412   1.755 -0.0499  0.2120  0.1403
 3175SOL     OW12471   2.568   4.067   1.165 -0.6305 -0.5323  0.2450
 3175SOL    HW212472   2.549   4.008   1.092 -0.0009  0.3783 -0.6921
 3175SOL    HW312473   2.533   4.152   1.137  0.6018  0.0867  0.4981
 3175SOL    MW412474   2.561   4.071   1.152 -0.3849 -0.3305  0.1548
 3176SOL     OW12475   6.226   3.577   4.326 -0.4991  0.6639 -0.0040
 3176SOL    HW212476   6.303   3.553   4.378 -0.7339 -2.3062 -0.8841
 3176SOL    HW312477   6.163   3.609   4.390  0.4067  0.3089  1.0902
 3176SOL    MW412478   6.228   3.578   4.341 -0.4105  0.2252  0.0243
 3177SOL     OW12479   4.019   4.289   3.211  0.2358 -0.1613  0.5117
 3177SOL    HW212480   3.944   4.342   3.237 -0.1506 -1.6677  2.8364
 3177SOL    HW312481   3.996   4.200   3.238  1.6814 -1.1997 -1.4020
 3177SOL    MW412482   4.006   4.284   3.218  0.3755 -0.4970  0.5659
 3178SOL     OW12483   3.611   5.510   5.264  0.4915  0.0424  0.1403
 3178SOL    HW212484   3.662   5.588   5.289 -1.3183  1.0852  0.7925
 3178SOL    HW312485   3.656   5.438   5.308  2.6558  0.5684 -1.0834
 3178SOL    MW412486   3.624   5.511   5.273  0.5382  0.2494  0.0649
 3179SOL     OW12487   3.990   5.900   4.890  0.2953 -0.4607  0.4011
 3179SOL    HW212488   4.079   5.934   4.891  0.0130  0.3251  2.6197
 3179SOL    HW312489   3.986   5.840   4.965 -1.5013  0.8524  1.4204
 3179SOL    MW412490   4.001   5.896   4.900  0.0211 -0.1838  0.8283
 3180SOL     OW12491   4.223   3.921   1.863 -0.0227  0.2421  0.1018
 3180SOL    HW212492   4.300   3.969   1.895  0.5724  0.4284 -1.4994
 3180SOL    HW312493   4.151   3.983   1.871  0.0357  0.1797  1.3060
 3180SOL    MW412494   4.224   3.936   1.868  0.0635  0.2584  0.0494
 3181SOL     OW12495   5.271   1.046   4.562 -0.3930  0.2287  0.3360
 3181SOL    HW212496   5.266   1.048   4.466  0.1763 -1.4612  0.2467
 3181SOL    HW312497   5.213   0.975   4.588 -1.1850  1.2112  1.3240
 3181SOL    MW412498   5.263   1.037   4.553 -0.4224  0.1354  0.4545
 3182SOL     OW12499   5.602   5.272   5.285 -0.5713 -0.1727  0.0750
 3182SOL    HW212500   5.626   5.363   5.302  0.4720  0.1240 -2.5205
 3182SOL    HW312501   5.677   5.221   5.316 -0.6682 -0.0565  0.5033
 3182SOL    MW412502   5.615   5.277   5.291 -0.4464 -0.1182 -0.2110
 3183SOL     OW12503   2.011   4.747   4.107  0.2679  0.0733  0.1415
 3183SOL    HW212504   1.928   4.724   4.064 -0.0645  1.9238 -0.2702
 3183SOL    HW312505   2.016   4.842   4.101  2.7631 -0.0415 -0.4253
 3183SOL    MW412506   2.000   4.756   4.101  0.5532  0.3023  0.0124
 3184SOL     OW12507   1.725   0.296   5.178 -0.0502  0.0628 -0.1280
 3184SOL    HW212508   1.682   0.345   5.248 -1.8502  0.1212 -1.2246
 3184SOL    HW312509   1.707   0.204   5.199  1.0622 -0.0338  0.4914
 3184SOL    MW412510   1.717   0.290   5.190 -0.1409  0.0578 -0.1910
 3185SOL     OW12511   0.018   4.751   5.495  0.0147 -0.6815 -0.1473
 3185SOL    HW212512  -0.024   4.810   5.557  0.1592  0.2426 -0.8850
 3185SOL    HW312513   0.004   4.663   5.530  0.8142 -0.1515  1.6273
 3185SOL    MW412514   0.011   4.747   5.508  0.1392 -0.4896 -0.0105
 3186SOL     OW12515   5.528   3.320   2.333 -0.0397  0.2062 -0.2038
 3186SOL    HW212516   5.603   3.315   2.393  1.3245  0.3123 -1.8187
 3186SOL    HW312517   5.550   3.392   2.273 -1.8174  0.7548 -0.2568
 3186SOL    MW412518   5.541   3.329   2.333 -0.0943  0.2926 -0.4239
 3187SOL     OW12519   3.089   0.917   0.744 -0.4046 -0.0331  0.1806
 3187SOL    HW212520   3.029   0.922   0.818  0.3841  0.9922  0.7838
 3187SOL    HW312521   3.109   0.823   0.736 -1.6242 -0.3158  0.3231
 3187SOL    MW412522   3.084   0.905   0.753 -0.4615  0.0649  0.2790
 3188SOL     OW12523   2.437   6.134   5.416 -0.3427 -0.4571 -1.0480
 3188SOL    HW212524   2.440   6.230   5.413  0.5571 -0.4603 -0.7180
 3188SOL    HW312525   2.439   6.107   5.325  1.0082 -0.1731 -1.1303
 3188SOL    MW412526   2.438   6.143   5.404 -0.0458 -0.4200 -1.0153
 3189SOL     OW12527   4.796   4.770   6.322  0.8963 -0.9217 -0.4302
 3189SOL    HW212528   4.855   4.843   6.305  0.7703 -0.4423  1.1066
 3189SOL    HW312529   4.840   4.694   6.282  2.6906 -0.6332  0.8856
 3189SOL    MW412530   4.810   4.770   6.314  1.1164 -0.8204 -0.0538
 3190SOL     OW12531   6.067   1.312   1.469  0.2615  0.5628  0.5126
 3190SOL    HW212532   5.985   1.305   1.421  1.2527 -1.4281 -1.0709
 3190SOL    HW312533   6.072   1.230   1.519  1.7894  0.0954 -0.3466
 3190SOL    MW412534   6.057   1.300   1.469  0.5939  0.2384  0.1903
 3191SOL     OW12535   3.179   3.632   5.365  0.6741 -0.5229  0.0945
 3191SOL    HW212536   3.231   3.555   5.346  1.0032  0.0773 -1.6520
 3191SOL    HW312537   3.090   3.608   5.339  0.8474 -0.2116 -0.8305
 3191SOL    MW412538   3.174   3.619   5.359  0.7404 -0.4026 -0.2580
 3192SOL     OW12539   0.460   4.141   3.589  0.0842  0.0749 -0.1649
 3192SOL    HW212540   0.483   4.208   3.654  0.2714 -0.7627  0.6559
 3192SOL    HW312541   0.367   4.124   3.603 -0.6407  1.9407 -2.0752
 3192SOL    MW412542   0.451   4.148   3.599  0.0133  0.2105 -0.3086
 3193SOL     OW12543   3.661   1.087   3.678 -1.0568  0.1212 -0.1876
 3193SOL    HW212544   3.707   1.155   3.629 -1.5340  1.7841  1.5486
 3193SOL    HW312545   3.722   1.062   3.748 -1.9375  0.8855  0.9023
 3193SOL    MW412546   3.675   1.092   3.681 -1.2360  0.4414  0.1853
 3194SOL     OW12547   5.885   6.009   6.219  0.4327 -0.6879  0.2331
 3194SOL    HW212548   5.899   5.921   6.255  0.3265 -0.5064  0.7373
 3194SOL    HW312549   5.933   6.067   6.279  0.1436 -0.3660  0.1556
 3194SOL    MW412550   5.893   6.005   6.232  0.3805 -0.6215  0.2894
 3195SOL     OW12551   1.411   4.488   3.658 -0.0016 -0.4032  0.4811
 3195SOL    HW212552   1.469   4.540   3.713  0.5614 -1.5963  1.0627
 3195SOL    HW312553   1.335   4.469   3.714 -1.5593  2.0828 -0.6263
 3195SOL    MW412554   1.409   4.492   3.672 -0.1329 -0.2326  0.4117
 3196SOL     OW12555   6.417   6.180   5.578  0.8081  0.0974 -0.0012
 3196SOL    HW212556   6.430   6.087   5.599 -1.3873 -0.3431 -0.3772
 3196SOL    HW312557   6.498   6.206   5.533  0.9491 -1.9844 -1.0726
 3196SOL    MW412558   6.430   6.171   5.575  0.5371 -0.2354 -0.1922
 3197SOL     OW12559   3.458   2.073   4.178 -0.3502 -0.1824 -0.1896
 3197SOL    HW212560   3.413   2.068   4.262 -2.2721 -0.4702 -1.1823
 3197SOL    HW312561   3.508   1.991   4.172 -0.1515 -0.1305  0.6789
 3197SOL    MW412562   3.459   2.061   4.188 -0.5776 -0.2135 -0.2060
 3198SOL     OW12563   5.636   2.176   0.232  0.3571  0.5564  0.0054
 3198SOL    HW212564   5.631   2.161   0.326  0.4050  1.7645  0.2197
 3198SOL    HW312565   5.721   2.139   0.207 -0.7124 -2.0890 -0.0699
 3198SOL    MW412566   5.647   2.169   0.241  0.2223  0.3668  0.0237
 3199SOL     OW12567   6.276   0.591   4.293  0.5578 -0.0474 -0.1204
 3199SOL    HW212568   6.339   0.566   4.226  0.9905 -2.5879  1.0981
 3199SOL    HW312569   6.330   0.618   4.368  0.1872 -0.4449  0.3005
 3199SOL    MW412570   6.291   0.591   4.294  0.5660 -0.4350  0.0959
 3200SOL     OW12571   5.844   2.208   1.587 -0.5710 -0.0986 -0.1570
 3200SOL    HW212572   5.875   2.274   1.648  0.9671 -0.9340  0.0010
 3200SOL    HW312573   5.905   2.135   1.596  1.1839  0.5805 -4.3431
 3200SOL    MW412574   5.856   2.207   1.596 -0.1365 -0.1192 -0.6884
 3201SOL     OW12575   2.603   3.941   4.899  0.4383  0.3072  0.0854
 3201SOL    HW212576   2.599   3.859   4.949  1.8862  0.5063  0.5921
 3201SOL    HW312577   2.591   4.009   4.965  3.3487  0.6159  0.4637
 3201SOL    MW412578   2.601   3.939   4.914  1.0133  0.3742  0.2021
 3202SOL     OW12579   1.453   3.541   3.460 -0.2886  0.2144 -0.2775
 3202SOL    HW212580   1.453   3.459   3.409 -2.1317  1.3939 -2.3471
 3202SOL    HW312581   1.444   3.512   3.551  0.7430 -1.9237 -0.7807
 3202SOL    MW412582   1.452   3.526   3.465 -0.3957  0.0879 -0.6170
 3203SOL     OW12583   2.196   4.705   1.412 -0.3025  0.4174 -0.6395
 3203SOL    HW212584   2.207   4.616   1.444  0.4981  1.3939  2.0929
 3203SOL    HW312585   2.147   4.750   1.481 -1.6764  1.8897 -2.4269
 3203SOL    MW412586   2.191   4.699   1.425 -0.3781  0.7405 -0.5149
 3204SOL     OW12587   5.349   5.770   4.155  0.2079 -0.3386  0.2670
 3204SOL    HW212588   5.425   5.812   4.117 -0.0412 -0.6933 -0.6533
 3204SOL    HW312589   5.283   5.772   4.086  0.1486 -2.1030  0.2188
 3204SOL    MW412590   5.350   5.776   4.141  0.1672 -0.6182  0.1392
 3205SOL     OW12591   1.120   1.809   3.867  0.5477  0.1537  0.0966
 3205SOL    HW212592   1.214   1.829   3.861  1.0127 -2.0856 -1.1123
 3205SOL    HW312593   1.096   1.834   3.956  2.5926 -0.3555  0.8486
 3205SOL    MW412594   1.130   1.815   3.878  0.8789 -0.2089  0.0363
 3206SOL     OW12595   1.248   0.777   5.663 -0.2049  0.2484  0.4077
 3206SOL    HW212596   1.313   0.707   5.659  1.1849  1.5355 -1.3268
 3206SOL    HW312597   1.299   0.857   5.652 -1.8841  1.4786  1.1163
 3206SOL    MW412598   1.263   0.778   5.661 -0.2431  0.5805  0.2723
 3207SOL     OW12599   5.944   4.175   1.150  0.9050 -0.5798  0.1542
 3207SOL    HW212600   6.024   4.135   1.184  1.0769 -0.4935 -0.1424
 3207SOL    HW312601   5.911   4.229   1.222  0.9323 -0.8788  0.3925
 3207SOL    MW412602   5.950   4.177   1.164  0.9313 -0.6079  0.1465
 3208SOL     OW12603   6.340   0.401   5.112 -0.4988 -0.0492 -0.7551
 3208SOL    HW212604   6.314   0.489   5.138  0.5964 -0.0055  0.2620
 3208SOL    HW312605   6.298   0.344   5.177  1.8208  0.0243  0.9388
 3208SOL    MW412606   6.331   0.405   5.124 -0.0482 -0.0337 -0.3974
 3209SOL     OW12607   2.488   1.211   1.210  0.6590  0.3971 -0.6234
 3209SOL    HW212608   2.438   1.276   1.161  0.4511 -0.0092 -0.9555
 3209SOL    HW312609   2.571   1.254   1.229  0.1276  1.1470  0.0897
 3209SOL    MW412610   2.492   1.226   1.206  0.5615  0.4425 -0.5731
 3210SOL     OW12611   2.170   3.464   3.890  0.2870  0.4622  0.4702
 3210SOL    HW212612   2.106   3.419   3.834  0.6609  0.7335 -0.1817
 3210SOL    HW312613   2.219   3.520   3.831  0.5978  0.8665  1.0987
 3210SOL    MW412614   2.168   3.465   3.875  0.3774  0.5513  0.4671
 3211SOL     OW12615   0.436   1.354   6.142 -0.3366 -0.5084  0.4329
 3211SOL    HW212616   0.422   1.440   6.181  0.2147 -0.2353  0.0443
 3211SOL    HW312617   0.515   1.321   6.184 -0.8333 -1.0491  0.9507
 3211SOL    MW412618   0.445   1.361   6.153 -0.3294 -0.5437  0.4499
 3212SOL     OW12619   4.782   2.811   3.624  0.8038 -0.1809 -0.1202
 3212SOL    HW212620   4.798   2.725   3.663 -0.4122 -0.0977  0.5873
 3212SOL    HW312621   4.800   2.799   3.530 -0.5001 -1.5272 -0.2263
 3212SOL    MW412622   4.787   2.798   3.617  0.4713 -0.3475 -0.0409
 3213SOL     OW12623   1.979   0.980   3.094 -0.0291  0.0450  0.2130
 3213SOL    HW212624   1.906   0.977   3.032  1.0855  1.7298 -1.2929
 3213SOL    HW312625   1.984   0.891   3.129 -1.0837 -0.8440 -1.7174
 3213SOL    MW412626   1.970   0.968   3.090 -0.0212  0.1500 -0.2404
 3214SOL     OW12627   4.655   3.007   3.796  0.4537  0.2502 -0.2661
 3214SOL    HW212628   4.673   3.099   3.780 -1.7879  1.0825  1.4609
 3214SOL    HW312629   4.711   2.960   3.734  1.5145  2.7463 -1.3157
 3214SOL    MW412630   4.665   3.013   3.786  0.2979  0.6894 -0.1767
 3215SOL     OW12631   0.462   2.744   1.902 -0.3934 -0.3136 -0.3459
 3215SOL    HW212632   0.463   2.669   1.962  0.3242  1.4022  1.9498
 3215SOL    HW312633   0.499   2.710   1.821 -0.1641 -2.4660  0.5846
 3215SOL    MW412634   0.467   2.729   1.899 -0.2684 -0.3712  0.0798
 3216SOL     OW12635   1.349   6.017   2.811  0.0689  0.3251 -0.2326
 3216SOL    HW212636   1.362   5.982   2.899  1.7554 -0.2733 -0.6818
 3216SOL    HW312637   1.348   5.940   2.754  0.4134  0.7908 -0.8815
 3216SOL    MW412638   1.351   6.002   2.815  0.3369  0.3076 -0.3775
 3217SOL     OW12639   2.273   2.413   3.440 -0.2926  0.2628 -0.0743
 3217SOL    HW212640   2.307   2.325   3.455 -1.3637 -0.2094 -0.2952
 3217SOL    HW312641   2.183   2.399   3.409  0.2445  1.3560 -2.2735
 3217SOL    MW412642   2.265   2.399   3.438 -0.3630  0.3447 -0.3936
 3218SOL     OW12643   0.310   2.864   2.727  0.2911  0.2980 -0.3708
 3218SOL    HW212644   0.288   2.914   2.649 -2.3838  1.1282  0.7889
 3218SOL    HW312645   0.326   2.775   2.695 -0.9628  0.5654 -1.8476
 3218SOL    MW412646   0.309   2.859   2.713 -0.2272  0.4428 -0.4126
 3219SOL     OW12647   2.698   1.070   2.908 -0.6379 -0.1419  0.4790
 3219SOL    HW212648   2.700   1.135   2.838  0.8218  0.8590  1.3656
 3219SOL    HW312649   2.655   0.994   2.870 -0.9384  0.7787 -1.1169
 3219SOL    MW412650   2.693   1.069   2.894 -0.4850  0.1116  0.3854
 3220SOL     OW12651   1.715   3.198   1.634 -0.1074  0.3204 -0.1753
 3220SOL    HW212652   1.756   3.269   1.584 -0.6848  0.7353 -0.0752
 3220SOL    HW312653   1.623   3.223   1.639 -0.2005 -0.1171  0.4120
 3220SOL    MW412654   1.709   3.211   1.628 -0.1959  0.3174 -0.0846
 3221SOL     OW12655   5.461   0.035   3.563 -0.1254 -0.3486 -0.0510
 3221SOL    HW212656   5.554   0.034   3.586 -0.1049  1.1970  0.0452
 3221SOL    HW312657   5.416   0.055   3.644 -0.5632 -1.1571 -0.0866
 3221SOL    MW412658   5.467   0.037   3.576 -0.1804 -0.2514 -0.0430
 3222SOL     OW12659   0.665   0.553   0.484 -0.1802  0.0293  0.1629
 3222SOL    HW212660   0.725   0.616   0.524 -0.1973  0.9357 -1.1523
 3222SOL    HW312661   0.608   0.607   0.429 -0.0409 -1.1584 -1.2016
 3222SOL    MW412662   0.665   0.568   0.482 -0.1641 -0.0078 -0.1907
 3223SOL     OW12663   4.407   1.315   3.373  0.3761 -0.1736 -0.4170
 3223SOL    HW212664   4.488   1.314   3.426 -0.3327  1.0343  0.7568
 3223SOL    HW312665   4.384   1.223   3.364  1.8265 -0.5407 -0.6923
 3223SOL    MW412666   4.415   1.303   3.379  0.4740 -0.0626 -0.2984
 3224SOL     OW12667   0.219   5.249   1.204 -0.4192  0.5631  0.5121
 3224SOL    HW212668   0.160   5.303   1.151  0.0727 -0.2154 -0.8813
 3224SOL    HW312669   0.303   5.254   1.158 -0.3010 -1.1494  0.5087
 3224SOL    MW412670   0.222   5.257   1.191 -0.3387  0.2345  0.3278
 3225SOL     OW12671   5.430   2.720   4.231 -0.0602  0.1108 -0.3810
 3225SOL    HW212672   5.401   2.736   4.141  0.5427  0.8584 -0.4565
 3225SOL    HW312673   5.494   2.790   4.248 -1.5834  1.2092  1.2843
 3225SOL    MW412674   5.435   2.732   4.221 -0.1816  0.3543 -0.1713
 3226SOL     OW12675   4.866   5.219   2.713 -0.1200  0.5012  0.2983
 3226SOL    HW212676   4.789   5.231   2.768  0.4385  0.3991  1.1129
 3226SOL    HW312677   4.858   5.287   2.646  1.4876  3.7499  3.1080
 3226SOL    MW412678   4.855   5.229   2.711  0.1658  0.9164  0.7765
 3227SOL     OW12679   3.579   2.769   1.383 -0.6677  0.2896 -0.0379
 3227SOL    HW212680   3.586   2.676   1.406 -1.1626  0.2957  0.1462
 3227SOL    HW312681   3.485   2.788   1.390 -0.7012  0.5560 -1.0503
 3227SOL    MW412682   3.567   2.759   1.387 -0.7374  0.3256 -0.1472
 3228SOL     OW12683   3.693   5.938   1.956 -0.3113  0.2043 -0.1070
 3228SOL    HW212684   3.628   5.987   2.007  0.2429 -0.4357  1.2761
 3228SOL    HW312685   3.650   5.854   1.939 -0.5020  0.4251 -0.7140
 3228SOL    MW412686   3.679   5.933   1.961 -0.2633  0.1490 -0.0046
 3229SOL     OW12687   6.356   4.704   0.194 -0.1986 -0.4915  0.3420
 3229SOL    HW212688   6.325   4.670   0.110  1.7169 -1.0270 -0.1908
 3229SOL    HW312689   6.447   4.729   0.178 -0.6293  2.2022  1.4917
 3229SOL    MW412690   6.364   4.703   0.181 -0.0027 -0.2068  0.4234
 3230SOL     OW12691   6.117   2.321   4.155  0.7564 -0.0779  0.0180
 3230SOL    HW212692   6.166   2.374   4.218  1.7889 -1.8818  0.8024
 3230SOL    HW312693   6.060   2.267   4.209  1.3571 -1.3660 -0.6089
 3230SOL    MW412694   6.116   2.321   4.171  0.9719 -0.4858  0.0388
 3231SOL     OW12695   1.251   0.866   5.099  0.0716  0.2232  0.1732
 3231SOL    HW212696   1.256   0.840   5.191  1.7917  1.2032  0.3989
 3231SOL    HW312697   1.272   0.786   5.050 -0.6554 -0.2527  0.6257
 3231SOL    MW412698   1.255   0.852   5.105  0.2026  0.2897  0.2627
 3232SOL     OW12699   0.622   2.181   0.589 -0.0747 -0.1183 -0.1298
 3232SOL    HW212700   0.570   2.160   0.666 -1.4688 -0.0785 -1.0241
 3232SOL    HW312701   0.704   2.217   0.624  0.3626 -2.3658  1.3530
 3232SOL    MW412702   0.626   2.183   0.604 -0.2010 -0.4095 -0.0521
 3233SOL     OW12703   0.124   1.634   4.343  0.6307  0.1210 -0.3304
 3233SOL    HW212704   0.051   1.683   4.305  1.4724  0.9472 -0.9372
 3233SOL    HW312705   0.093   1.609   4.430 -1.3536 -1.8203 -1.5013
 3233SOL    MW412706   0.110   1.637   4.349  0.4800 -0.0261 -0.5650
 3234SOL     OW12707   4.872   6.183   4.494 -0.1994  0.6884 -0.1356
 3234SOL    HW212708   4.937   6.181   4.564 -2.2456  0.8737  1.9245
 3234SOL    HW312709   4.824   6.265   4.509 -1.5064  0.0968 -0.9554
 3234SOL    MW412710   4.874   6.194   4.505 -0.6418  0.6348  0.0281
 3235SOL     OW12711   0.563   2.076   3.318 -0.0599  0.6647 -0.2528
 3235SOL    HW212712   0.547   2.129   3.240  0.8015  0.6736 -0.4317
 3235SOL    HW312713   0.533   2.132   3.390  0.3761  1.2073 -0.4795
 3235SOL    MW412714   0.557   2.091   3.318  0.1113  0.7375 -0.3063
 3236SOL     OW12715   4.624   1.535   3.839 -0.3005 -0.1994  0.0474
 3236SOL    HW212716   4.582   1.450   3.853  0.1431 -0.1103  2.1072
 3236SOL    HW312717   4.553   1.592   3.810 -0.4668 -1.3990 -2.1714
 3236SOL    MW412718   4.609   1.531   3.837 -0.2639 -0.3459  0.0265
 3237SOL     OW12719   0.900   4.185   5.640 -0.1307 -0.7833  0.2829
 3237SOL    HW212720   0.930   4.239   5.713 -1.3041  0.7555 -0.3192
 3237SOL    HW312721   0.918   4.239   5.562 -1.0581 -1.3775 -0.3575
 3237SOL    MW412722   0.907   4.200   5.639 -0.4079 -0.6587  0.1189
 3238SOL     OW12723   5.524   0.048   4.095 -0.1913 -0.2390 -0.7082
 3238SOL    HW212724   5.576   0.005   4.026  0.7349  2.3799 -1.7699
 3238SOL    HW312725   5.578   0.122   4.123 -1.1570 -0.4390  1.9285
 3238SOL    MW412726   5.538   0.052   4.089 -0.1965  0.0802 -0.5004
 3239SOL     OW12727   2.808   4.343   3.474  0.0671 -0.1579  0.3451
 3239SOL    HW212728   2.720   4.347   3.512  0.7202 -0.1004  1.9258
 3239SOL    HW312729   2.853   4.419   3.510  0.8310 -0.2922 -0.3017
 3239SOL    MW412730   2.802   4.353   3.484  0.2540 -0.1680  0.4683
 3240SOL     OW12731   0.389   5.263   4.755 -0.7994 -0.1767  0.3562
 3240SOL    HW212732   0.437   5.343   4.736 -1.3570  0.4536  1.4696
 3240SOL    HW312733   0.377   5.265   4.850 -3.1365 -0.2269  0.1102
 3240SOL    MW412734   0.394   5.274   4.765 -1.1813 -0.1002  0.4706
 3241SOL     OW12735   2.465   1.529   3.656 -0.8858 -0.4831  0.1258
 3241SOL    HW212736   2.545   1.477   3.657 -1.5610 -1.5738 -0.7372
 3241SOL    HW312737   2.491   1.613   3.617  0.1189 -0.2996  1.1352
 3241SOL    MW412738   2.479   1.533   3.651 -0.8423 -0.6028  0.1451
 3242SOL     OW12739   0.862   4.881   6.209 -0.2686 -0.9439  0.0855
 3242SOL    HW212740   0.822   4.862   6.294  1.4432 -0.5373  1.0121
 3242SOL    HW312741   0.878   4.976   6.211  0.0371 -0.9785 -0.5834
 3242SOL    MW412742   0.859   4.891   6.220 -0.0024 -0.8948  0.1195
 3243SOL     OW12743   1.143   6.282   0.018  0.3652 -0.4582  0.2786
 3243SOL    HW212744   1.093   6.274   0.100 -1.4070  1.2161 -0.5713
 3243SOL    HW312745   1.164   6.192  -0.006 -1.0751 -1.1351  1.4106
 3243SOL    MW412746   1.139   6.269   0.026 -0.0586 -0.3266  0.3158
 3244SOL     OW12747   2.827   3.305   3.420 -0.0527 -0.3071  0.8462
 3244SOL    HW212748   2.895   3.239   3.437 -1.2840 -2.0031 -0.4037
 3244SOL    HW312749   2.761   3.287   3.486 -0.7591 -0.9144  0.0023
 3244SOL    MW412750   2.828   3.294   3.431 -0.3083 -0.6110  0.5699
 3245SOL     OW12751   2.159   5.341   5.439  0.4061 -0.0029 -0.1444
 3245SOL    HW212752   2.159   5.246   5.447  0.1464 -0.1315 -1.4476
 3245SOL    HW312753   2.246   5.368   5.468 -0.2947 -0.3711  2.5881
 3245SOL    MW412754   2.170   5.332   5.444  0.2794 -0.0685  0.0442
 3246SOL     OW12755   4.562   2.910   1.194  0.6346  0.5842  0.2137
 3246SOL    HW212756   4.598   2.862   1.268  1.0803 -0.4198 -0.6229
 3246SOL    HW312757   4.535   2.994   1.231 -0.8919 -0.5697  1.8740
 3246SOL    MW412758   4.563   2.915   1.209  0.4920  0.2995  0.3224
 3247SOL     OW12759   4.010   1.705   3.661  0.3596  0.2934  0.4900
 3247SOL    HW212760   3.958   1.637   3.619  1.9229 -1.1147  0.7105
 3247SOL    HW312761   4.069   1.737   3.592  0.7843  0.2038  0.8015
 3247SOL    MW412762   4.011   1.700   3.646  0.6219  0.0958  0.5602
 3248SOL     OW12763   3.918   3.221   6.103  0.1962 -0.0248  0.0105
 3248SOL    HW212764   3.945   3.301   6.149  0.3549  0.9028 -1.6135
 3248SOL    HW312765   3.879   3.253   6.022 -0.6978 -1.5855 -0.1922
 3248SOL    MW412766   3.917   3.236   6.099  0.0992 -0.1083 -0.2305
 3249SOL     OW12767   4.773   0.843   2.577 -0.0979 -0.0009  0.5454
 3249SOL    HW212768   4.783   0.805   2.489  0.4688  0.1873  0.5237
 3249SOL    HW312769   4.681   0.868   2.581 -0.4579 -1.2559  0.5173
 3249SOL    MW412770   4.762   0.841   2.566 -0.0706 -0.1416  0.5388
 3250SOL     OW12771   1.286   4.475   1.587 -0.2486 -0.1190 -0.0591
 3250SOL    HW212772   1.236   4.444   1.662  0.9881 -1.2705  0.3145
 3250SOL    HW312773   1.366   4.423   1.587 -0.7767 -1.1385 -2.9334
 3250SOL    MW412774   1.290   4.464   1.597 -0.1551 -0.4055 -0.3890
 3251SOL     OW12775   3.968   4.293   2.132  0.3859  0.1070  0.0032
 3251SOL    HW212776   4.009   4.346   2.200 -0.9625  0.5551  0.5063
 3251SOL    HW312777   3.996   4.334   2.050  0.0157  1.1325  0.3648
 3251SOL    MW412778   3.977   4.306   2.130  0.1592  0.3014  0.1173
 3252SOL     OW12779   1.465   1.607   0.695  0.6959 -0.2457 -0.4021
 3252SOL    HW212780   1.377   1.640   0.712  0.8942 -0.3046  0.8424
 3252SOL    HW312781   1.474   1.532   0.754  1.5867 -0.2200 -0.4980
 3252SOL    MW412782   1.454   1.602   0.705  0.8396 -0.2501 -0.2505
 3253SOL     OW12783   2.951   4.564   6.089  0.2225 -0.4197 -0.1429
 3253SOL    HW212784   3.010   4.530   6.156  0.0473  0.2471  0.3579
 3253SOL    HW312785   2.985   4.528   6.007 -0.1576 -2.0839  0.3824
 3253SOL    MW412786   2.963   4.555   6.087  0.1492 -0.5513 -0.0076
 3254SOL     OW12787   3.406   5.805   5.037  0.4646  0.2351 -0.0376
 3254SOL    HW212788   3.472   5.737   5.022  0.0417 -0.3174  0.5330
 3254SOL    HW312789   3.361   5.814   4.952  0.0974 -0.6768  0.0430
 3254SOL    MW412790   3.409   5.797   5.024  0.3604  0.0419  0.0483
 3255SOL     OW12791   3.888   0.801   2.864 -0.5812 -0.5043  0.4043
 3255SOL    HW212792   3.967   0.786   2.813 -0.3279  0.2938  0.5478
 3255SOL    HW312793   3.902   0.754   2.946 -0.6482 -1.1124  0.0782
 3255SOL    MW412794   3.900   0.793   2.868 -0.5566 -0.4792  0.3802
 3256SOL     OW12795   3.668   3.903   2.324  0.3677  0.4026  0.5407
 3256SOL    HW212796   3.721   3.875   2.249 -0.2447  2.0952 -0.5864
 3256SOL    HW312797   3.726   3.961   2.374  0.8181 -0.8219  1.5050
 3256SOL    MW412798   3.683   3.907   2.321  0.3463  0.4644  0.5192
 3257SOL     OW12799   2.333   1.377   5.022 -0.0984 -1.0140  0.2383
 3257SOL    HW212800   2.318   1.442   4.954 -0.1986 -0.7966  0.4688
 3257SOL    HW312801   2.410   1.408   5.069  0.6259 -1.7246 -0.4515
 3257SOL    MW412802   2.341   1.389   5.019 -0.0161 -1.0790  0.1777
 3258SOL     OW12803   6.408   6.317   4.472  0.4162  0.6768  0.3389
 3258SOL    HW212804   6.366   6.320   4.558  0.6233 -0.1718  0.4763
 3258SOL    HW312805   6.497   6.349   4.488  0.0352  1.8939  0.1593
 3258SOL    MW412806   6.414   6.322   4.486  0.3932  0.7254  0.3333
 3259SOL     OW12807   3.555   5.753   3.158  0.0223  0.1615  0.5689
 3259SOL    HW212808   3.487   5.740   3.224  0.0036 -0.7571  0.3930
 3259SOL    HW312809   3.518   5.715   3.078  0.9910 -0.9866  0.6349
 3259SOL    MW412810   3.541   5.746   3.156  0.1476 -0.1111  0.5544
 3260SOL     OW12811   5.995   2.962   4.599 -0.3582  0.4285 -0.3389
 3260SOL    HW212812   6.022   3.053   4.600 -0.7415  0.5792 -1.6921
 3260SOL    HW312813   6.033   2.924   4.678 -1.0599  2.0008  0.7896
 3260SOL    MW412814   6.003   2.969   4.609 -0.5014  0.6558 -0.3686
 3261SOL     OW12815   0.106   0.545   2.755  0.2299 -0.2448  0.2690
 3261SOL    HW212816   0.020   0.588   2.759 -0.6109 -1.7541 -0.5051
 3261SOL    HW312817   0.161   0.597   2.812 -1.7163 -0.3364  2.3865
 3261SOL    MW412818   0.102   0.558   2.763 -0.1378 -0.4561  0.4462
 3262SOL     OW12819   3.516   2.139   3.707 -0.4647  0.0819 -0.3750
 3262SOL    HW212820   3.542   2.054   3.742 -0.8228  0.4128  0.7489
 3262SOL    HW312821   3.421   2.133   3.697 -0.4176  0.1462 -0.8709
 3262SOL    MW412822   3.507   2.127   3.710 -0.5057  0.1340 -0.2922
 3263SOL     OW12823   5.167   6.392   3.472 -0.4119 -0.3743  0.3236
 3263SOL    HW212824   5.182   6.440   3.553  0.4582  1.2795 -0.7548
 3263SOL    HW312825   5.112   6.451   3.420 -0.7707 -1.3100 -0.3790
 3263SOL    MW412826   5.162   6.406   3.476 -0.3444 -0.2795  0.0886
 3264SOL     OW12827   1.063   6.119   2.760  0.1326  0.2847 -0.1225
 3264SOL    HW212828   1.022   6.156   2.839 -0.0818  0.9473 -0.5361
 3264SOL    HW312829   1.146   6.084   2.791  0.4223  1.2731  0.2625
 3264SOL    MW412830   1.069   6.119   2.775  0.1426  0.5025 -0.1263
 3265SOL     OW12831   6.127   3.538   5.037  0.4923  0.1736 -0.1924
 3265SOL    HW212832   6.198   3.515   4.976  0.0241  0.0829 -0.7052
 3265SOL    HW312833   6.078   3.607   4.993 -0.9413 -1.1496 -0.7270
 3265SOL    MW412834   6.130   3.544   5.023  0.2414 -0.0130 -0.3306
 3266SOL     OW12835   0.806   1.631   5.980  0.0291 -0.0584  0.1530
 3266SOL    HW212836   0.791   1.602   6.070 -0.3410 -1.0761 -0.2129
 3266SOL    HW312837   0.852   1.557   5.939  1.1110  0.7921 -0.2360
 3266SOL    MW412838   0.810   1.617   5.986  0.1230 -0.0804  0.0534
 3267SOL     OW12839   0.929   1.879   0.654  1.1848 -0.5307 -0.1417
 3267SOL    HW212840   0.915   1.842   0.741  0.8886  0.2317  0.1435
 3267SOL    HW312841   0.985   1.955   0.669 -1.2508  1.3808 -0.1999
 3267SOL    MW412842   0.935   1.884   0.667  0.8244 -0.1779 -0.1118
 3268SOL     OW12843   0.687   0.740   4.320 -0.7857  0.1762 -0.0674
 3268SOL    HW212844   0.777   0.771   4.314  0.4148 -2.4381  2.2499
 3268SOL    HW312845   0.671   0.699   4.234  0.7359 -0.4549 -0.0888
 3268SOL    MW412846   0.697   0.739   4.308 -0.4265 -0.2520  0.2355
 3269SOL     OW12847   3.525   2.041   1.509 -1.2446 -0.4006  0.2794
 3269SOL    HW212848   3.486   2.107   1.451 -0.3916  1.2829  1.5530
 3269SOL    HW312849   3.565   1.977   1.449 -1.2249  0.7619 -0.9978
 3269SOL    MW412850   3.525   2.041   1.493 -1.1295 -0.0251  0.2789
 3270SOL     OW12851   4.669   5.804   0.507  0.2138  0.3758  0.0809
 3270SOL    HW212852   4.672   5.895   0.537 -0.3887 -0.1722  1.9020
 3270SOL    HW312853   4.761   5.778   0.499  0.3841  0.8956  0.3357
 3270SOL    MW412854   4.682   5.812   0.510  0.1568  0.3721  0.3548
 3271SOL     OW12855   3.652   5.482   3.256  0.1354 -0.9220  0.0533
 3271SOL    HW212856   3.621   5.419   3.190 -0.8889 -1.6449  1.1837
 3271SOL    HW312857   3.624   5.567   3.222 -0.3931 -1.2888 -0.4617
 3271SOL    MW412858   3.644   5.485   3.243 -0.0695 -1.0658  0.1345
 3272SOL     OW12859   0.416   0.722   4.712  0.5094 -0.3982 -0.7793
 3272SOL    HW212860   0.460   0.804   4.690 -0.5596  0.9380  1.6129
 3272SOL    HW312861   0.323   0.740   4.694  0.2777 -1.1278 -0.3408
 3272SOL    MW412862   0.409   0.735   4.707  0.3378 -0.3181 -0.4058
 3273SOL     OW12863   0.062   0.933   5.505  0.0950  0.3182  0.5098
 3273SOL    HW212864  -0.030   0.934   5.534  0.5109  1.0492  1.9366
 3273SOL    HW312865   0.066   0.864   5.439 -1.3661 -0.0976  0.8129
 3273SOL    MW412866   0.050   0.924   5.500 -0.0429  0.3598  0.7380
 3274SOL     OW12867   2.942   4.267   1.399  0.1045  0.4363 -0.2862
 3274SOL    HW212868   2.941   4.323   1.477 -0.3162  1.1800 -0.8164
 3274SOL    HW312869   2.898   4.187   1.427 -2.3574  1.6423 -0.4356
 3274SOL    MW412870   2.936   4.264   1.413 -0.2758  0.6936 -0.3759
 3275SOL     OW12871   0.574   3.962   2.744  0.5115  0.2036  0.0229
 3275SOL    HW212872   0.492   4.010   2.729  0.3755  0.1750  0.6643
 3275SOL    HW312873   0.618   4.011   2.814  0.1594 -0.8762  1.0071
 3275SOL    MW412874   0.569   3.975   2.751  0.4471  0.0574  0.2374
 3276SOL     OW12875   1.450   0.981   6.342 -0.8103  0.6260 -0.1933
 3276SOL    HW212876   1.369   0.984   6.393 -0.6334 -0.2943  0.1505
 3276SOL    HW312877   1.478   1.073   6.335 -1.3187  0.8408  0.5880
 3276SOL    MW412878   1.443   0.993   6.348 -0.8540  0.5329 -0.0449
 3277SOL     OW12879   3.160   2.023   3.455  0.2123  0.3994  0.0220
 3277SOL    HW212880   3.158   1.929   3.436 -0.2933  0.5892 -0.9392
 3277SOL    HW312881   3.070   2.052   3.441  0.7343  1.3768 -1.5959
 3277SOL    MW412882   3.148   2.014   3.450  0.2145  0.5534 -0.3183
 3278SOL     OW12883   3.574   5.617   4.958  0.3598 -0.5085  0.1476
 3278SOL    HW212884   3.549   5.544   4.901 -1.5092 -0.5819  0.9891
 3278SOL    HW312885   3.596   5.575   5.041  0.4507 -0.1861  0.2860
 3278SOL    MW412886   3.574   5.601   4.961  0.1252 -0.4757  0.2769
 3279SOL     OW12887   6.191   3.180   4.644  0.0615  0.1571  0.1666
 3279SOL    HW212888   6.188   3.271   4.673  1.4701  0.5802 -0.9100
 3279SOL    HW312889   6.228   3.132   4.718 -1.5384  0.2717  1.0807
 3279SOL    MW412890   6.196   3.185   4.657  0.0362  0.2281  0.1452
 3280SOL     OW12891   2.089   3.565   1.805 -0.3695  0.3730  0.0298
 3280SOL    HW212892   2.163   3.596   1.751  0.1704 -0.6945  0.1312
 3280SOL    HW312893   2.130   3.535   1.886 -0.6988 -1.7031 -0.5185
 3280SOL    MW412894   2.104   3.565   1.808 -0.3417 -0.0417 -0.0292
 3281SOL     OW12895   3.723   3.897   2.863 -0.3762 -0.6575  0.2060
 3281SOL    HW212896   3.753   3.900   2.953  1.6729 -1.2240 -0.4131
 3281SOL    HW312897   3.730   3.987   2.832  1.8065 -0.9281 -0.2260
 3281SOL    MW412898   3.728   3.909   2.871  0.1821 -0.7679  0.0673
 3282SOL     OW12899   0.387   0.505   1.113 -0.2760  0.1717 -0.3479
 3282SOL    HW212900   0.444   0.582   1.118  0.6130 -0.4469 -0.7190
 3282SOL    HW312901   0.333   0.520   1.036  0.2479  0.2000 -0.7152
 3282SOL    MW412902   0.388   0.517   1.104 -0.0896  0.0938 -0.4453
 3283SOL     OW12903   6.261   0.413   4.495  0.0816 -0.5476  0.3046
 3283SOL    HW212904   6.354   0.414   4.518 -0.1788 -1.6219  1.5061
 3283SOL    HW312905   6.255   0.467   4.416  2.0814 -2.3272 -1.1704
 3283SOL    MW412906   6.272   0.420   4.488  0.3111 -0.9241  0.2685
 3284SOL     OW12907   0.495   3.407   0.288 -0.1868 -0.0387  0.0911
 3284SOL    HW212908   0.495   3.417   0.193  0.0739 -2.9453 -0.3264
 3284SOL    HW312909   0.586   3.421   0.314  0.1161 -1.0036 -0.3892
 3284SOL    MW412910   0.507   3.410   0.279 -0.1125 -0.5495 -0.0274
 3285SOL     OW12911   5.997   2.243   2.322  0.5224 -0.0075  0.0938
 3285SOL    HW212912   6.003   2.147   2.325 -1.8015 -0.2262 -0.2111
 3285SOL    HW312913   5.971   2.268   2.410 -0.0302  0.2097 -0.1249
 3285SOL    MW412914   5.994   2.234   2.334  0.1429 -0.0077  0.0247
 3286SOL     OW12915   2.260   0.963   2.942 -0.5221 -0.0698 -0.4840
 3286SOL    HW212916   2.186   0.969   3.003 -0.3404 -0.4122 -0.2224
 3286SOL    HW312917   2.269   0.869   2.925  0.8996 -0.2072  0.7981
 3286SOL    MW412918   2.251   0.951   2.948 -0.3106 -0.1331 -0.2804
 3287SOL     OW12919   2.572   4.102   2.499 -0.2193 -0.2327 -0.5925
 3287SOL    HW212920   2.576   4.099   2.594 -1.8445  1.6161 -0.4111
 3287SOL    HW312921   2.662   4.114   2.471  0.4678 -2.1953  0.5892
 3287SOL    MW412922   2.584   4.103   2.508 -0.3430 -0.2477 -0.4127
 3288SOL     OW12923   0.136   1.742   2.730  0.4393  0.0683 -0.4739
 3288SOL    HW212924   0.217   1.722   2.683  1.5168  0.9984  0.8893
 3288SOL    HW312925   0.163   1.805   2.798 -1.3171 -0.0499  0.3884
 3288SOL    MW412926   0.151   1.748   2.733  0.3497  0.1754 -0.1803
 3289SOL     OW12927   0.602   0.183   1.848 -0.7594 -0.3378 -0.4463
 3289SOL    HW212928   0.542   0.181   1.774 -0.1704 -2.8796 -0.9304
 3289SOL    HW312929   0.562   0.244   1.910 -2.0133  0.7074 -2.1966
 3289SOL    MW412930   0.589   0.191   1.847 -0.8472 -0.5352 -0.7411
 3290SOL     OW12931   0.375   5.770   4.118  0.1830  0.5705 -0.4832
 3290SOL    HW212932   0.415   5.684   4.102 -0.0678  0.5234 -0.8403
 3290SOL    HW312933   0.282   5.752   4.127  0.3779  0.4107  2.1487
 3290SOL    MW412934   0.368   5.756   4.117  0.1756  0.5432 -0.1831
 3291SOL     OW12935   5.073   2.692   6.079 -0.3823 -0.5359 -0.4669
 3291SOL    HW212936   5.048   2.609   6.121  0.0548 -0.8092 -0.7451
 3291SOL    HW312937   4.998   2.750   6.095  0.2126 -0.2618  1.6725
 3291SOL    MW412938   5.060   2.688   6.086 -0.2462 -0.5358 -0.2214
 3292SOL     OW12939   5.698   3.670   5.267  0.3572 -0.6913 -0.6169
 3292SOL    HW212940   5.630   3.683   5.333  1.6250  1.3831  0.3783
 3292SOL    HW312941   5.656   3.616   5.200 -2.5902  1.2847 -0.5512
 3292SOL    MW412942   5.683   3.665   5.267  0.1356 -0.1569 -0.4769
 3293SOL     OW12943   2.487   6.106   5.809 -0.3953  0.0671  0.5119
 3293SOL    HW212944   2.513   6.196   5.831  0.6401 -0.3422  1.0375
 3293SOL    HW312945   2.539   6.084   5.732  1.1359 -0.8683  1.7546
 3293SOL    MW412946   2.497   6.115   5.802 -0.0567 -0.1103  0.7452
 3294SOL     OW12947   3.630   4.330   0.986  0.3369  0.1143  0.2344
 3294SOL    HW212948   3.548   4.290   0.958  0.9186 -2.7208  2.1239
 3294SOL    HW312949   3.694   4.303   0.921  0.0839  1.1846 -0.4936
 3294SOL    MW412950   3.628   4.321   0.974  0.3803 -0.1186  0.3877
 3295SOL     OW12951   3.713   3.454   5.444 -0.1678  0.0983  0.7548
 3295SOL    HW212952   3.806   3.460   5.423 -0.2986  0.2753  0.1967
 3295SOL    HW312953   3.680   3.544   5.436 -0.3516  0.0680  1.1273
 3295SOL    MW412954   3.721   3.467   5.440 -0.2093  0.1177  0.7303
 3296SOL     OW12955   2.743   2.834   1.519  0.2730 -0.1674  0.1250
 3296SOL    HW212956   2.742   2.813   1.425  2.2163  0.2222 -0.0385
 3296SOL    HW312957   2.659   2.802   1.552 -0.1942 -0.8776 -1.6298
 3296SOL    MW412958   2.732   2.827   1.511  0.4678 -0.2097 -0.1281
 3297SOL     OW12959   4.293   6.200   2.781  0.2749  0.1923  0.3018
 3297SOL    HW212960   4.337   6.258   2.718  0.2838  0.0811  0.2060
 3297SOL    HW312961   4.330   6.225   2.865  2.5139 -1.6735 -0.0247
 3297SOL    MW412962   4.304   6.211   2.784  0.5715 -0.0686  0.2461
 3298SOL     OW12963   0.590   4.441   5.159 -0.2444  0.5376 -0.5175
 3298SOL    HW212964   0.585   4.367   5.099 -0.8903 -0.6899  0.9852
 3298SOL    HW312965   0.521   4.500   5.130 -0.6502 -0.1122 -0.9101
 3298SOL    MW412966   0.580   4.439   5.147 -0.3832  0.2899 -0.3711
 3299SOL     OW12967   1.405   3.117   1.878 -0.0447  0.3790 -0.1309
 3299SOL    HW212968   1.438   3.032   1.849  2.0634  1.2340 -0.3637
 3299SOL    HW312969   1.483   3.169   1.896 -1.2649  2.4849 -0.5476
 3299SOL    MW412970   1.419   3.112   1.877  0.0725  0.7696 -0.2166
 3300SOL     OW12971   1.480   5.519   3.673 -0.5269  0.7931  1.0139
 3300SOL    HW212972   1.482   5.447   3.736 -1.3434  0.9061  1.1741
 3300SOL    HW312973   1.475   5.598   3.727 -1.5892  0.8741  0.8167
 3300SOL    MW412974   1.480   5.520   3.688 -0.7748  0.8187  1.0090
 3301SOL     OW12975   0.265   1.430   0.934  0.5784  0.8890  0.1274
 3301SOL    HW212976   0.223   1.396   1.013  1.1911 -0.9602 -0.2864
 3301SOL    HW312977   0.224   1.515   0.919  0.0827  1.0439  2.1264
 3301SOL    MW412978   0.254   1.436   0.942  0.5939  0.6655  0.3365
 3302SOL     OW12979   5.381   0.128   0.711 -0.1260 -0.0243  0.2192
 3302SOL    HW212980   5.407   0.049   0.759 -0.9006 -0.2678  0.2511
 3302SOL    HW312981   5.404   0.200   0.770 -0.9192 -0.3140  0.9072
 3302SOL    MW412982   5.387   0.127   0.725 -0.3328 -0.0946  0.3142
 3303SOL     OW12983   1.996   6.083   0.983  0.6062 -0.3739  0.0414
 3303SOL    HW212984   1.974   6.119   0.897  1.3755  0.1860  0.0612
 3303SOL    HW312985   2.077   6.129   1.008  0.3811 -0.5075  1.0721
 3303SOL    MW412986   2.004   6.094   0.975  0.6780 -0.3177  0.1800
 3304SOL     OW12987   1.733   3.629   0.671  0.0910  0.0180  0.3620
 3304SOL    HW212988   1.674   3.557   0.648 -0.9184  0.8837  0.1965
 3304SOL    HW312989   1.731   3.687   0.595  1.7366 -0.2861  0.0538
 3304SOL    MW412990   1.725   3.627   0.658  0.1750  0.0921  0.2995
 3305SOL     OW12991   3.333   6.321   1.260  0.2193 -0.6630 -0.2344
 3305SOL    HW212992   3.424   6.321   1.233  0.1418  0.6404 -0.5633
 3305SOL    HW312993   3.284   6.339   1.180 -0.1635  0.7608  0.2827
 3305SOL    MW412994   3.338   6.323   1.246  0.1585 -0.3032 -0.2096
 3306SOL     OW12995   2.563   6.350   2.846 -0.0799 -0.1690  0.4822
 3306SOL    HW212996   2.549   6.270   2.897  1.6377 -1.8998 -1.5464
 3306SOL    HW312997   2.476   6.384   2.828 -0.8605 -1.7502  1.1520
 3306SOL    MW412998   2.550   6.344   2.851  0.0437 -0.6060  0.3029
 3307SOL     OW12999   2.648   0.003   3.756  0.2754 -0.0247 -0.1050
 3307SOL    HW213000   2.594  -0.001   3.677  0.3016 -1.5030 -0.0646
 3307SOL    HW313001   2.738  -0.006   3.725  0.3516  0.2975  0.0175
 3307SOL    MW413002   2.653   0.001   3.742  0.2889 -0.1772 -0.0835
 3308SOL     OW13003   6.425   3.237   5.153 -0.1645  0.1205 -0.2083
 3308SOL    HW213004   6.332   3.235   5.133 -0.9015 -3.4879  2.6863
 3308SOL    HW313005   6.458   3.153   5.121  1.6726  0.4773  0.6447
 3308SOL    MW413006   6.417   3.226   5.146 -0.0194 -0.3085  0.2862
 3309SOL     OW13007   2.760   0.877   5.332  0.2916 -0.3555  0.2938
 3309SOL    HW213008   2.715   0.793   5.335  0.1673 -0.3805 -1.3996
 3309SOL    HW313009   2.744   0.916   5.418  0.3385 -2.0348  1.1032
 3309SOL    MW413010   2.752   0.871   5.344  0.2814 -0.5804  0.1771
 3310SOL     OW13011   2.976   1.684   5.954  0.3468 -0.1398 -0.1727
 3310SOL    HW213012   2.904   1.644   5.905  1.1799 -0.0416 -1.5175
 3310SOL    HW313013   3.000   1.618   6.019  0.0335 -0.7768 -0.6951
 3310SOL    MW413014   2.969   1.670   5.956  0.4154 -0.2109 -0.4191
 3311SOL     OW13015   2.384   1.501   3.042  0.4098  0.3456 -0.1769
 3311SOL    HW213016   2.322   1.441   3.000  2.6481 -2.6261  0.3931
 3311SOL    HW313017   2.424   1.449   3.112  3.8153  1.8924 -0.7705
 3311SOL    MW413018   2.381   1.486   3.046  1.1544  0.1576 -0.1800
 3312SOL     OW13019   2.798   1.646   2.764  0.4487  0.4761 -0.0522
 3312SOL    HW213020   2.707   1.617   2.765  0.8240 -0.7563  0.0018
 3312SOL    HW313021   2.806   1.696   2.683 -0.6066  1.7847  0.6076
 3312SOL    MW413022   2.787   1.649   2.753  0.3590  0.4862  0.0420
 3313SOL     OW13023   5.400   0.815   6.380 -0.0907  0.0746  0.2641
 3313SOL    HW213024   5.438   0.739   6.424 -1.3022 -1.1713 -0.7396
 3313SOL    HW313025   5.389   0.786   6.289 -1.2901  1.1874  0.0343
 3313SOL    MW413026   5.404   0.801   6.373 -0.4088  0.0571  0.1013
 3314SOL     OW13027   6.043   0.060   1.763 -0.0368 -0.7979 -0.4211
 3314SOL    HW213028   6.070  -0.019   1.716 -0.9961 -1.2326 -0.2664
 3314SOL    HW313029   6.057   0.040   1.855 -0.2389 -0.7717 -0.3842
 3314SOL    MW413030   6.049   0.047   1.769 -0.1900 -0.8518 -0.3958
 3315SOL     OW13031   1.886   3.963   3.457  0.3325  0.2555 -0.0044
 3315SOL    HW213032   1.900   3.907   3.534  0.0562 -1.9474 -1.4574
 3315SOL    HW313033   1.954   3.937   3.396 -0.1746  1.1273 -0.9626
 3315SOL    MW413034   1.897   3.952   3.459  0.2291  0.0798 -0.3225
 3316SOL     OW13035   3.458   5.298   4.401  0.4524 -0.7193  0.2650
 3316SOL    HW213036   3.532   5.264   4.351  2.3642  1.1654  1.6872
 3316SOL    HW313037   3.439   5.383   4.362 -0.1436 -0.6313  0.7281
 3316SOL    MW413038   3.465   5.304   4.389  0.6260 -0.4590  0.5137
 3317SOL     OW13039   3.462   5.920   0.863  0.3049 -0.3538  0.0944
 3317SOL    HW213040   3.501   5.936   0.949 -1.5488 -0.6949  1.0380
 3317SOL    HW313041   3.444   6.008   0.828 -0.2625 -0.2334  0.6863
 3317SOL    MW413042   3.465   5.934   0.870 -0.0145 -0.3829  0.2970
 3318SOL     OW13043   3.381   2.602   4.018 -0.0418  0.4390  0.2374
 3318SOL    HW213044   3.399   2.692   4.047 -0.2706  0.2449  1.0012
 3318SOL    HW313045   3.436   2.548   4.075 -1.5057 -0.0347  1.2405
 3318SOL    MW413046   3.391   2.607   4.030 -0.2651  0.3509  0.4705
 3319SOL     OW13047   4.664   6.394   1.201 -0.2279  0.1982 -0.3727
 3319SOL    HW213048   4.634   6.437   1.121  0.1885  0.3121 -0.4694
 3319SOL    HW313049   4.744   6.348   1.175 -1.4967 -1.9977 -0.6753
 3319SOL    MW413050   4.671   6.394   1.187 -0.3403 -0.0765 -0.4254
 3320SOL     OW13051   3.572   6.111   4.166 -0.0789 -0.6154  0.6382
 3320SOL    HW213052   3.592   6.173   4.096 -0.2309 -1.2782 -0.0004
 3320SOL    HW313053   3.658   6.077   4.193  0.1663  0.8852  1.9867
 3320SOL    MW413054   3.586   6.115   4.161 -0.0666 -0.5048  0.7319
 3321SOL     OW13055   0.700   6.318   5.197  0.2422  0.0960  0.1278
 3321SOL    HW213056   0.678   6.225   5.200 -0.1605  0.1980  0.4542
 3321SOL    HW313057   0.640   6.355   5.132  1.1642 -0.0638 -0.8414
 3321SOL    MW413058   0.689   6.311   5.189  0.3107  0.0883  0.0430
 3322SOL     OW13059   1.276   0.714   1.087 -0.1376 -0.4173  0.2590
 3322SOL    HW213060   1.219   0.650   1.130 -1.0499 -0.1116 -0.4600
 3322SOL    HW313061   1.233   0.730   1.003  0.3646  0.7542  0.2194
 3322SOL    MW413062   1.263   0.708   1.081 -0.1917 -0.2224  0.1590
 3323SOL     OW13063   1.288   4.985   0.951  0.2532 -0.1916 -0.1508
 3323SOL    HW213064   1.216   4.974   0.889 -0.3048  0.4071  0.3737
 3323SOL    HW313065   1.356   5.031   0.902  0.5567 -1.3082 -0.8365
 3323SOL    MW413066   1.288   4.989   0.937  0.2196 -0.2600 -0.1721
 3324SOL     OW13067   0.024   5.644   5.911  0.1988  0.3758  0.0872
 3324SOL    HW213068   0.101   5.587   5.915 -0.0739  0.0925  2.3409
 3324SOL    HW313069  -0.006   5.652   6.001 -1.2521  2.1124 -0.4690
 3324SOL    MW413070   0.030   5.638   5.923 -0.0286  0.5675  0.3112
 3325SOL     OW13071   1.755   5.895   3.787 -0.2079  0.2214  0.0775
 3325SOL    HW213072   1.676   5.841   3.786 -0.4167  0.5180  0.3334
 3325SOL    HW313073   1.799   5.873   3.869  0.9379 -1.2992 -0.8916
 3325SOL    MW413074   1.750   5.885   3.798 -0.0842  0.0599 -0.0166
 3326SOL     OW13075   0.696   5.156   2.574 -0.3666  0.2245 -0.1832
 3326SOL    HW213076   0.750   5.161   2.652  0.2508  1.8149 -0.6780
 3326SOL    HW313077   0.625   5.097   2.598  0.9684 -1.0204  0.8463
 3326SOL    MW413078   0.693   5.149   2.587 -0.1090  0.2701 -0.1126
 3327SOL     OW13079   3.147   0.548   0.710  0.0628 -0.3855  0.3292
 3327SOL    HW213080   3.070   0.583   0.667  0.0602 -1.8397 -0.9166
 3327SOL    HW313081   3.125   0.549   0.804 -0.8340  0.6332  0.1271
 3327SOL    MW413082   3.134   0.553   0.717 -0.0558 -0.4430  0.1381
 3328SOL     OW13083   5.443   3.161   5.664 -0.2520  0.3536 -0.1564
 3328SOL    HW213084   5.441   3.141   5.757  0.7483  0.4285 -0.1035
 3328SOL    HW313085   5.526   3.207   5.651 -0.2277  0.0595 -1.1383
 3328SOL    MW413086   5.454   3.165   5.674 -0.1168  0.3247 -0.2790
 3329SOL     OW13087   3.030   4.198   3.649 -0.5347 -0.0238 -0.0657
 3329SOL    HW213088   3.123   4.212   3.663 -0.4252 -1.0932  0.3611
 3329SOL    HW313089   3.015   4.224   3.558 -0.3351  2.5278  0.5466
 3329SOL    MW413090   3.040   4.203   3.639 -0.4939  0.1718  0.0714
 3330SOL     OW13091   1.382   1.342   2.610  0.2998  0.2334  0.1984
 3330SOL    HW213092   1.336   1.423   2.587 -0.4159 -0.0664  0.5200
 3330SOL    HW313093   1.422   1.312   2.528 -0.6152  0.1791 -0.2473
 3330SOL    MW413094   1.381   1.348   2.596  0.0846  0.1867  0.1820
 3331SOL     OW13095   6.275   2.830   1.120  0.6799 -0.1680  0.1559
 3331SOL    HW213096   6.314   2.861   1.202  1.3625 -0.4209 -0.0635
 3331SOL    HW313097   6.345   2.840   1.055 -0.0500  0.5912 -0.5246
 3331SOL    MW413098   6.290   2.835   1.122  0.6736 -0.1012  0.0372
 3332SOL     OW13099   1.502   1.634   2.285 -0.1483  0.1653  0.0048
 3332SOL    HW213100   1.531   1.587   2.363  0.3748  2.1409  1.0940
 3332SOL    HW313101   1.498   1.726   2.313  1.5696  1.1859 -2.6711
 3332SOL    MW413102   1.506   1.640   2.299  0.1473  0.5606 -0.2045
 3333SOL     OW13103   4.144   2.855   2.371  0.1548  0.5938 -0.6391
 3333SOL    HW213104   4.131   2.907   2.450  2.8797 -0.0575  0.3737
 3333SOL    HW313105   4.160   2.766   2.404 -1.6106 -0.3485 -2.1512
 3333SOL    MW413106   4.144   2.850   2.386  0.2814  0.3835 -0.7050
 3334SOL     OW13107   3.822   1.776   5.145 -0.5106 -0.3602 -0.3412
 3334SOL    HW213108   3.863   1.819   5.069 -1.2393  0.1343 -0.4647
 3334SOL    HW313109   3.763   1.712   5.107  0.3693 -1.2968 -0.1577
 3334SOL    MW413110   3.820   1.773   5.130 -0.4907 -0.4185 -0.3333
 3335SOL     OW13111   3.133   1.931   4.937 -0.6561 -0.8868  0.0549
 3335SOL    HW213112   3.053   1.942   4.886 -0.9051  0.5624  0.7349
 3335SOL    HW313113   3.104   1.936   5.028  0.2546  0.1148  0.3017
 3335SOL    MW413114   3.118   1.933   4.942 -0.5688 -0.5634  0.1772
 3336SOL     OW13115   5.366   1.735   5.607  0.2925 -0.3308  0.4056
 3336SOL    HW213116   5.382   1.745   5.513  0.9412 -0.0084  0.5434
 3336SOL    HW313117   5.291   1.676   5.612 -0.2551  0.2826 -0.3267
 3336SOL    MW413118   5.358   1.728   5.595  0.3059 -0.2074  0.3272
 3337SOL     OW13119   0.245   2.211   6.033 -0.2792 -0.0520  0.1449
 3337SOL    HW213120   0.291   2.129   6.044  0.3164  0.4111  1.2490
 3337SOL    HW313121   0.161   2.198   6.078 -0.0604  0.0354  0.5856
 3337SOL    MW413122   0.240   2.199   6.041 -0.1717  0.0206  0.3487
 3338SOL     OW13123   0.142   1.413   5.400 -0.1003 -0.0126  0.1712
 3338SOL    HW213124   0.212   1.446   5.456  0.8800  0.4451 -1.2826
 3338SOL    HW313125   0.095   1.350   5.456  0.7464  0.5231  1.5364
 3338SOL    MW413126   0.145   1.409   5.415  0.1407  0.1185  0.1595
 3339SOL     OW13127   5.492   4.942   6.289 -0.8255  0.3128 -0.9502
 3339SOL    HW213128   5.515   4.849   6.299 -0.3230  0.3195 -1.8882
 3339SOL    HW313129   5.572   4.989   6.311 -0.3125  0.4015 -2.8165
 3339SOL    MW413130   5.506   4.936   6.293 -0.6915  0.3254 -1.3202
 3340SOL     OW13131   0.569   6.098   3.056 -0.2849 -0.8196  0.3657
 3340SOL    HW213132   0.503   6.149   3.009 -1.1456 -0.9454  1.4010
 3340SOL    HW313133   0.593   6.153   3.131  1.2420 -0.5167 -0.3122
 3340SOL    MW413134   0.563   6.112   3.060 -0.1970 -0.7962  0.4128
 3341SOL     OW13135   0.212   2.568   3.879 -0.7581  0.2830 -0.3825
 3341SOL    HW213136   0.176   2.526   3.801 -1.2801 -0.3253  0.1661
 3341SOL    HW313137   0.294   2.522   3.895 -0.9420 -0.0011 -0.2394
 3341SOL    MW413138   0.218   2.556   3.871 -0.8513  0.1653 -0.2912
 3342SOL     OW13139   2.188   3.805   6.051 -0.3250  0.2130 -0.4832
 3342SOL    HW213140   2.148   3.736   6.104  1.0606  0.3642  0.8290
 3342SOL    HW313141   2.239   3.758   5.985 -1.3738  0.0191 -1.1787
 3342SOL    MW413142   2.190   3.789   6.049 -0.2805  0.2074 -0.4018
 3343SOL     OW13143   5.511   1.121   4.110 -0.3570 -0.3191  0.2743
 3343SOL    HW213144   5.532   1.048   4.051  0.0615  0.1821 -0.2062
 3343SOL    HW313145   5.476   1.189   4.052 -0.6623 -0.1046  0.7060
 3343SOL    MW413146   5.509   1.120   4.094 -0.3421 -0.2246  0.2679
 3344SOL     OW13147   5.988   3.750   1.809  0.4660  0.3635  0.3860
 3344SOL    HW213148   6.043   3.744   1.887  1.0624  1.8649  0.1093
 3344SOL    HW313149   6.048   3.733   1.736  0.1908  0.3034  0.1693
 3344SOL    MW413150   6.003   3.747   1.809  0.5084  0.5536  0.3209
 3345SOL     OW13151   0.179   4.138   2.242 -0.2480 -0.2571 -0.0651
 3345SOL    HW213152   0.195   4.048   2.212 -0.6495 -0.5056  0.4554
 3345SOL    HW313153   0.088   4.137   2.273 -0.5282  0.5390 -0.8137
 3345SOL    MW413154   0.169   4.126   2.242 -0.3379 -0.1848 -0.0952
 3346SOL     OW13155   0.704   3.831   5.933 -0.0518 -0.8573  0.3763
 3346SOL    HW213156   0.638   3.789   5.879 -0.2000  1.1749 -1.1499
 3346SOL    HW313157   0.655   3.896   5.984  0.4606 -0.9504  0.9996
 3346SOL    MW413158   0.689   3.834   5.933 -0.0037 -0.6015  0.2572
 3347SOL     OW13159   1.119   1.689   5.700  0.5961  0.5212  0.1720
 3347SOL    HW213160   1.186   1.730   5.646 -1.7154  2.7709 -1.2353
 3347SOL    HW313161   1.144   1.710   5.790  1.5614  1.6863 -0.3370
 3347SOL    MW413162   1.131   1.697   5.704  0.4185  0.9717 -0.0808
 3348SOL     OW13163   1.332   1.629   5.495  0.9430  0.5086  0.3325
 3348SOL    HW213164   1.424   1.647   5.477  0.3456  2.5738 -0.9584
 3348SOL    HW313165   1.302   1.579   5.419  1.3782 -1.8683  1.6178
 3348SOL    MW413166   1.340   1.625   5.483  0.9216  0.4674  0.3317
 3349SOL     OW13167   3.732   0.977   1.415  0.4466  0.3693  0.3368
 3349SOL    HW213168   3.826   0.979   1.437  0.1064  0.2567  1.9815
 3349SOL    HW313169   3.690   1.021   1.489 -0.9736 -1.5526  0.7270
 3349SOL    MW413170   3.739   0.983   1.428  0.2144  0.1009  0.6053
 3350SOL     OW13171   5.586   5.823   4.682  0.2891  0.6888  0.3247
 3350SOL    HW213172   5.676   5.822   4.715 -0.0553 -2.2514  1.5405
 3350SOL    HW313173   5.536   5.865   4.752  0.4517  0.3759  0.6358
 3350SOL    MW413174   5.591   5.828   4.696  0.2651  0.2596  0.5261
 3351SOL     OW13175   2.843   0.458   0.899 -0.1406  0.6699  0.0831
 3351SOL    HW213176   2.769   0.505   0.938  0.0632  0.5808  0.5779
 3351SOL    HW313177   2.814   0.438   0.810 -0.3496  1.4584 -0.0352
 3351SOL    MW413178   2.829   0.461   0.892 -0.1413  0.7622  0.1328
 3352SOL     OW13179   6.176   1.175   5.556 -0.1061  0.1740 -0.0431
 3352SOL    HW213180   6.086   1.205   5.569  0.6845  2.6403  0.1243
 3352SOL    HW313181   6.219   1.189   5.640  0.5533 -0.6643 -0.2246
 3352SOL    MW413182   6.170   1.181   5.569  0.0852  0.3888 -0.0450
 3353SOL     OW13183   0.903   5.188   3.027 -0.0729  0.4137 -0.1823
 3353SOL    HW213184   0.871   5.163   3.114  1.5930  0.2164  0.4127
 3353SOL    HW313185   0.972   5.252   3.044  1.4984 -0.9011 -1.2015
 3353SOL    MW413186   0.908   5.193   3.040  0.3542  0.2142 -0.2383
 3354SOL     OW13187   0.169   1.125   2.581 -0.1412 -0.1592 -0.2727
 3354SOL    HW213188   0.116   1.203   2.566  0.6696  0.5136  0.2946
 3354SOL    HW313189   0.131   1.059   2.522 -1.4977  0.3378  0.0096
 3354SOL    MW413190   0.157   1.126   2.571 -0.2132 -0.0048 -0.1606
 3355SOL     OW13191   6.077   0.604   4.814  0.1189  0.1286  0.3157
 3355SOL    HW213192   6.074   0.655   4.733  0.0604  0.7228  0.6910
 3355SOL    HW313193   6.077   0.513   4.784  1.3917  0.3457 -0.3930
 3355SOL    MW413194   6.076   0.599   4.799  0.2791  0.2356  0.2717
 3356SOL     OW13195   5.447   1.629   2.345  0.3411 -0.1350 -0.3285
 3356SOL    HW213196   5.437   1.570   2.420 -0.5066  1.3545  0.7853
 3356SOL    HW313197   5.358   1.655   2.323  0.6522  0.1506 -1.2854
 3356SOL    MW413198   5.434   1.624   2.352  0.2703  0.0992 -0.3078
 3357SOL     OW13199   4.509   2.362   1.062 -0.6380  0.1912  0.0139
 3357SOL    HW213200   4.492   2.279   1.106 -1.4722  0.9234  1.1334
 3357SOL    HW313201   4.562   2.412   1.125  1.6968 -0.2342 -1.4781
 3357SOL    MW413202   4.514   2.358   1.076 -0.4400  0.2317 -0.0352
 3358SOL     OW13203   1.058   5.400   0.350 -0.3415  0.1992 -0.4633
 3358SOL    HW213204   1.094   5.488   0.337  1.0247 -0.2456  0.1796
 3358SOL    HW313205   0.966   5.416   0.371 -0.2695  1.4353 -0.9637
 3358SOL    MW413206   1.050   5.414   0.351 -0.1518  0.3036 -0.4445
 3359SOL     OW13207   3.073   4.901   2.989 -0.0152  0.4746  0.6047
 3359SOL    HW213208   3.060   4.975   2.931 -0.0585  0.5420  0.7006
 3359SOL    HW313209   3.125   4.936   3.061  0.0071  0.3996  0.6251
 3359SOL    MW413210   3.078   4.915   2.991 -0.0180  0.4736  0.6200
 3360SOL     OW13211   2.759   4.323   4.763  0.5540  0.1060 -0.5029
 3360SOL    HW213212   2.772   4.229   4.750 -0.4025 -0.1921  0.5069
 3360SOL    HW313213   2.765   4.334   4.858  0.5279  1.0405 -0.6068
 3360SOL    MW413214   2.761   4.312   4.774  0.4244  0.1900 -0.3834
 3361SOL     OW13215   1.955   3.525   2.221 -0.4744 -0.0881 -0.0285
 3361SOL    HW213216   1.882   3.491   2.169 -0.0657 -1.2093  0.1037
 3361SOL    HW313217   1.957   3.471   2.299  0.2680  0.1688  0.1451
 3361SOL    MW413218   1.946   3.514   2.224 -0.3225 -0.2021  0.0119
 3362SOL     OW13219   2.675   2.426   3.876  0.0223 -0.4400 -0.4170
 3362SOL    HW213220   2.741   2.421   3.945 -1.5843  1.6730  1.3898
 3362SOL    HW313221   2.641   2.337   3.869  0.4053 -0.7574  1.3553
 3362SOL    MW413222   2.679   2.413   3.884 -0.1391 -0.2031  0.0553
 3363SOL     OW13223   1.121   5.845   2.592  0.4272 -0.4541 -0.1388
 3363SOL    HW213224   1.114   5.915   2.526  0.5501 -0.3198 -0.0128
 3363SOL    HW313225   1.139   5.766   2.541 -2.5346 -0.9594 -0.5324
 3363SOL    MW413226   1.123   5.844   2.576  0.0527 -0.5030 -0.1741
 3364SOL     OW13227   4.708   5.056   0.781 -0.1727 -0.1340 -0.9671
 3364SOL    HW213228   4.693   5.109   0.702 -1.1203  0.8285 -0.1729
 3364SOL    HW313229   4.782   5.099   0.825 -0.2903 -0.0736 -0.8282
 3364SOL    MW413230   4.716   5.069   0.776 -0.3132  0.0009 -0.8440
 3365SOL     OW13231   0.049   1.032   1.080 -0.1597 -0.1713 -0.1506
 3365SOL    HW213232  -0.016   1.069   1.021 -0.5386  3.4232  2.1876
 3365SOL    HW313233   0.133   1.048   1.036 -0.5867 -1.8508 -1.7001
 3365SOL    MW413234   0.051   1.039   1.067 -0.2660  0.0814 -0.0466
 3366SOL     OW13235   3.455   3.037   6.138  0.0075  0.2763 -0.2771
 3366SOL    HW213236   3.500   3.057   6.056 -0.8402 -0.3895 -0.9321
 3366SOL    HW313237   3.513   2.975   6.183  0.9513  1.4168  0.1125
 3366SOL    MW413238   3.468   3.031   6.133  0.0202  0.3389 -0.3121
 3367SOL     OW13239   3.562   3.252   1.573  0.1450  0.2990  0.6500
 3367SOL    HW213240   3.654   3.254   1.600  0.2765 -0.2561  0.2735
 3367SOL    HW313241   3.523   3.183   1.627 -0.2372  1.0590  1.3590
 3367SOL    MW413242   3.569   3.243   1.584  0.1119  0.3260  0.6939
 3368SOL     OW13243   4.406   2.217   1.364 -0.6408 -0.2930  0.4951
 3368SOL    HW213244   4.329   2.212   1.421 -1.7879  1.1826 -0.8433
 3368SOL    HW313245   4.386   2.157   1.292 -1.0888  0.9251 -0.4273
 3368SOL    MW413246   4.393   2.208   1.362 -0.8513  0.0624  0.1968
 3369SOL     OW13247   2.263   0.074   3.972 -0.5279  0.1028 -0.1508
 3369SOL    HW213248   2.280   0.159   3.933  1.3852 -0.1547  0.0062
 3369SOL    HW313249   2.248   0.016   3.897 -2.4831  0.6613 -0.2344
 3369SOL    MW413250   2.264   0.077   3.957 -0.5335  0.1425 -0.1411
 3370SOL     OW13251   4.949   3.730   1.784 -0.1313 -0.4341 -0.2883
 3370SOL    HW213252   4.937   3.679   1.704  0.4828 -1.0963  0.0316
 3370SOL    HW313253   5.002   3.674   1.841  1.8120  1.0766 -0.4701
 3370SOL    MW413254   4.955   3.716   1.781  0.2061 -0.3222 -0.2701
 3371SOL     OW13255   2.883   0.713   0.660  0.4008  0.0613  0.1972
 3371SOL    HW213256   2.833   0.793   0.646  0.7579  0.0810 -1.0420
 3371SOL    HW313257   2.818   0.642   0.654  0.3702  0.1457 -0.5050
 3371SOL    MW413258   2.868   0.714   0.658  0.4439  0.0750 -0.0590
 3372SOL     OW13259   5.167   2.125   3.576 -0.2275 -0.4859  0.3662
 3372SOL    HW213260   5.205   2.202   3.618  2.2678 -0.7220 -1.2597
 3372SOL    HW313261   5.224   2.053   3.601 -2.6807 -1.9905  2.1108
 3372SOL    MW413262   5.179   2.125   3.585 -0.2220 -0.7156  0.3819
 3373SOL     OW13263   3.551   0.287   5.061 -0.0507  1.0343  0.1973
 3373SOL    HW213264   3.627   0.246   5.018 -1.6891 -1.2369 -0.7013
 3373SOL    HW313265   3.479   0.226   5.046 -1.2684  1.1523  4.3576
 3373SOL    MW413266   3.552   0.273   5.053 -0.4275  0.7502  0.6276
 3374SOL     OW13267   3.798   2.501   1.511  0.0842 -0.7654 -0.0746
 3374SOL    HW213268   3.820   2.413   1.542 -0.4644 -0.6825  0.5755
 3374SOL    HW313269   3.703   2.497   1.497  0.2074 -0.5773 -1.0471
 3374SOL    MW413270   3.788   2.489   1.513  0.0281 -0.7297 -0.1171
 3375SOL     OW13271   0.971   2.730   1.892 -0.3401  0.0600 -0.4791
 3375SOL    HW213272   0.995   2.745   1.983 -0.9671 -0.4835 -0.2156
 3375SOL    HW313273   0.884   2.770   1.882 -0.7389 -0.8034 -0.5473
 3375SOL    MW413274   0.962   2.737   1.902 -0.4754 -0.1256 -0.4534
 3376SOL     OW13275   5.883   1.369   6.288  0.4206  0.4986  0.1745
 3376SOL    HW213276   5.871   1.389   6.195 -0.2153  0.8870  0.3319
 3376SOL    HW313277   5.802   1.323   6.312  1.0861 -0.6765  0.2535
 3376SOL    MW413278   5.870   1.365   6.279  0.4245  0.3948  0.2057
 3377SOL     OW13279   5.755   4.814   5.893 -0.3207 -0.3951  0.1576
 3377SOL    HW213280   5.675   4.866   5.896 -1.9844 -2.8005  0.6606
 3377SOL    HW313281   5.739   4.750   5.823  1.8768  0.0403 -0.8371
 3377SOL    MW413282   5.742   4.812   5.884 -0.2503 -0.6550  0.0927
 3378SOL     OW13283   1.594   2.705   0.368 -0.5889 -0.1143 -0.5209
 3378SOL    HW213284   1.686   2.730   0.379 -1.1995  1.6517  1.2115
 3378SOL    HW313285   1.560   2.765   0.302 -0.3850 -1.1783 -1.6240
 3378SOL    MW413286   1.601   2.716   0.361 -0.6425 -0.0217 -0.4379
 3379SOL     OW13287   2.703   2.664   0.807 -0.4858 -0.2603 -0.1443
 3379SOL    HW213288   2.700   2.732   0.739  1.2578 -2.4204 -2.5854
 3379SOL    HW313289   2.659   2.589   0.767  0.1636 -1.4758  1.3464
 3379SOL    MW413290   2.697   2.663   0.793 -0.1700 -0.7057 -0.2697
 3380SOL     OW13291   3.019   1.079   1.098  0.0860  0.3024 -0.7572
 3380SOL    HW213292   2.986   1.008   1.043  1.9828 -0.4868 -0.9580
 3380SOL    HW313293   2.988   1.159   1.056 -4.9317 -0.2036  1.1930
 3380SOL    MW413294   3.010   1.080   1.085 -0.3258  0.1315 -0.5264
 3381SOL     OW13295   2.769   1.246   4.398  0.4642  0.5394  0.0079
 3381SOL    HW213296   2.682   1.267   4.433 -0.1934  1.0095 -1.7785
 3381SOL    HW313297   2.830   1.277   4.465 -0.7306  0.4422  1.1769
 3381SOL    MW413298   2.766   1.253   4.411  0.2198  0.5886 -0.0736
 3382SOL     OW13299   4.681   4.846   4.388  0.2002 -0.4993  0.3359
 3382SOL    HW213300   4.774   4.826   4.383  0.0091 -2.1112  2.3735
 3382SOL    HW313301   4.645   4.783   4.450 -2.0320  0.8846  0.5781
 3382SOL    MW413302   4.688   4.835   4.395 -0.1195 -0.5294  0.6367
 3383SOL     OW13303   2.483   1.552   2.005  0.1598  0.1971  0.4072
 3383SOL    HW213304   2.409   1.492   2.017  2.4263 -3.0595 -0.4346
 3383SOL    HW313305   2.474   1.583   1.915  0.2091 -0.9078 -0.0025
 3383SOL    MW413306   2.472   1.548   1.995  0.4653 -0.3784  0.2421
 3384SOL     OW13307   1.944   2.481   1.966  0.0510  0.6174 -0.4466
 3384SOL    HW213308   1.853   2.495   1.989 -0.8133 -2.3995 -1.5485
 3384SOL    HW313309   1.971   2.405   2.018  1.7129  1.0197 -0.6695
 3384SOL    MW413310   1.936   2.473   1.976  0.1563  0.2724 -0.6214
 3385SOL     OW13311   3.910   4.678   3.939 -0.4471 -0.0671  0.5438
 3385SOL    HW213312   3.915   4.613   4.010  0.9340 -0.3296  0.2426
 3385SOL    HW313313   3.864   4.752   3.978 -0.7446 -0.6588  1.3503
 3385SOL    MW413314   3.905   4.679   3.954 -0.3041 -0.1798  0.6104
 3386SOL     OW13315   5.314   0.438   3.292  0.1610 -0.2871 -0.2405
 3386SOL    HW213316   5.324   0.348   3.262  0.6965 -0.3134  0.0161
 3386SOL    HW313317   5.394   0.482   3.264  0.1521 -0.0292  0.1294
 3386SOL    MW413318   5.325   0.432   3.284  0.2305 -0.2566 -0.1578
 3387SOL     OW13319   3.058   5.619   3.900  0.1742  0.2695 -0.0019
 3387SOL    HW213320   3.139   5.582   3.866 -0.7753  0.3123 -2.5223
 3387SOL    HW313321   2.999   5.544   3.908 -0.1530  0.5055 -0.1532
 3387SOL    MW413322   3.061   5.604   3.897  0.0058  0.3063 -0.3544
 3388SOL     OW13323   3.241   1.911   1.707 -0.2836 -0.2067  0.1633
 3388SOL    HW213324   3.261   1.962   1.786 -1.6541 -0.2255  0.5584
 3388SOL    HW313325   3.312   1.847   1.701  0.5499  0.6590  0.6271
 3388SOL    MW413326   3.253   1.909   1.717 -0.3544 -0.0949  0.2766
 3389SOL     OW13327   2.654   5.016   3.206  0.8432  0.3225  0.4100
 3389SOL    HW213328   2.581   4.956   3.192  2.0903 -0.9288 -1.1194
 3389SOL    HW313329   2.643   5.046   3.296 -1.1268 -0.3964  0.4549
 3389SOL    MW413330   2.643   5.012   3.216  0.7478  0.0626  0.2141
 3390SOL     OW13331   4.920   5.945   0.607 -0.1122 -0.7298 -0.4069
 3390SOL    HW213332   4.980   5.900   0.668 -0.7171  0.8427  1.4595
 3390SOL    HW313333   4.954   6.034   0.601 -0.5181 -0.6468 -1.8212
 3390SOL    MW413334   4.933   5.951   0.615 -0.2456 -0.5114 -0.3473
 3391SOL     OW13335   3.421   1.687   1.718  0.3982  0.1262  0.0422
 3391SOL    HW213336   3.498   1.689   1.662 -0.8443 -0.7627 -1.7782
 3391SOL    HW313337   3.410   1.594   1.741 -0.0258  0.2643  0.4213
 3391SOL    MW413338   3.430   1.675   1.714  0.1783  0.0271 -0.1480
 3392SOL     OW13339   1.362   4.442   5.657 -0.2069 -0.0342 -1.1378
 3392SOL    HW213340   1.369   4.524   5.706  2.4117  0.2671 -1.8391
 3392SOL    HW313341   1.375   4.373   5.722  1.7798  0.3189 -1.0778
 3392SOL    MW413342   1.365   4.444   5.672  0.4007  0.0521 -1.2224
 3393SOL     OW13343   1.689   5.952   3.178 -0.9120  0.0917  0.3079
 3393SOL    HW213344   1.622   5.954   3.109  0.7217  0.7154 -1.3603
 3393SOL    HW313345   1.746   5.879   3.154  0.4680  1.1590  0.1590
 3393SOL    MW413346   1.688   5.943   3.165 -0.5144  0.3148  0.0682
 3394SOL     OW13347   5.281   2.046   4.881  0.4001 -0.1845 -0.4595
 3394SOL    HW213348   5.284   1.984   4.809  2.8666 -1.9328  0.9605
 3394SOL    HW313349   5.373   2.069   4.896 -0.2178  1.6571  0.8633
 3394SOL    MW413350   5.294   2.041   4.874  0.6440 -0.1722 -0.0976
 3395SOL     OW13351   4.784   6.181   2.598  0.2600  0.3242 -0.3712
 3395SOL    HW213352   4.872   6.196   2.563 -0.3174  0.0489 -2.0367
 3395SOL    HW313353   4.771   6.251   2.661  0.8224  1.7250 -1.7602
 3395SOL    MW413354   4.794   6.192   2.602  0.2580  0.4727 -0.7742
 3396SOL     OW13355   1.660   6.245   3.115  0.2819 -0.4065  0.9107
 3396SOL    HW213356   1.686   6.284   3.031 -0.0996 -1.3786  0.3245
 3396SOL    HW313357   1.653   6.152   3.097 -2.4012 -0.3663  1.3427
 3396SOL    MW413358   1.662   6.238   3.102 -0.1224 -0.5295  0.8904
 3397SOL     OW13359   6.307   4.590   6.213  0.5295  0.1236  0.2759
 3397SOL    HW213360   6.276   4.577   6.124 -0.2936  1.2112  0.3844
 3397SOL    HW313361   6.368   4.517   6.229 -0.0258 -0.5964 -0.8382
 3397SOL    MW413362   6.311   4.579   6.204  0.3477  0.1721  0.1432
 3398SOL     OW13363   4.818   1.825   4.195 -0.3535  0.1199 -0.2646
 3398SOL    HW213364   4.804   1.915   4.224  2.0531  0.6027 -0.3984
 3398SOL    HW313365   4.838   1.833   4.102 -0.5277 -0.6143 -0.3717
 3398SOL    MW413366   4.819   1.838   4.187 -0.0589  0.0867 -0.2964
 3399SOL     OW13367   4.358   4.652   2.164  0.1667 -0.5138  0.3452
 3399SOL    HW213368   4.329   4.657   2.073 -2.3211 -0.2406  1.0998
 3399SOL    HW313369   4.432   4.712   2.168  0.5122 -0.7348 -1.5379
 3399SOL    MW413370   4.364   4.660   2.152 -0.1159 -0.5069  0.1963
 3400SOL     OW13371   1.790   0.962   3.465 -0.1174  0.0016 -0.4114
 3400SOL    HW213372   1.760   1.008   3.387 -0.2093  0.9727  0.1910
 3400SOL    HW313373   1.710   0.941   3.513  0.0544  1.1834  0.4074
 3400SOL    MW413374   1.776   0.965   3.461 -0.1069  0.2857 -0.2239
 3401SOL     OW13375   5.852   4.174   0.171 -0.1171  0.3473  0.8578
 3401SOL    HW213376   5.858   4.248   0.111 -1.0674  0.4956  0.9161
 3401SOL    HW313377   5.917   4.111   0.140 -0.3652  0.5603 -0.1173
 3401SOL    MW413378   5.861   4.175   0.159 -0.2752  0.3950  0.7368
 3402SOL     OW13379   2.521   4.358   6.308 -0.8064 -0.4615 -0.7534
 3402SOL    HW213380   2.616   4.365   6.318 -0.8318 -1.4041  0.4101
 3402SOL    HW313381   2.509   4.306   6.229 -0.3633 -0.0245 -1.1111
 3402SOL    MW413382   2.532   4.352   6.299 -0.7513 -0.5282 -0.6471
 3403SOL     OW13383   3.304   2.733   1.666  0.5951 -0.1075  0.5122
 3403SOL    HW213384   3.287   2.790   1.591  0.9422 -1.3547 -0.5573
 3403SOL    HW313385   3.248   2.768   1.736  0.7632  1.4786 -0.1105
 3403SOL    MW413386   3.294   2.745   1.666  0.6631 -0.0628  0.2889
 3404SOL     OW13387   5.261   4.806   4.803  0.1903 -0.0574  0.1764
 3404SOL    HW213388   5.297   4.801   4.892 -0.6969 -0.8559  0.5054
 3404SOL    HW313389   5.245   4.899   4.789  2.2510  0.3249  0.0451
 3404SOL    MW413390   5.264   4.818   4.813  0.3451 -0.1123  0.2025
 3405SOL     OW13391   5.466   1.397   3.988 -0.2451 -0.7656  0.1981
 3405SOL    HW213392   5.449   1.444   3.906  1.8737  0.1182  0.1884
 3405SOL    HW313393   5.477   1.466   4.053  2.3269 -1.1679  0.3057
 3405SOL    MW413394   5.465   1.412   3.986  0.3738 -0.7021  0.2110
 3406SOL     OW13395   1.209   4.420   2.539  0.3363  0.1339 -0.0365
 3406SOL    HW213396   1.132   4.475   2.552 -1.0385 -1.8017  0.5310
 3406SOL    HW313397   1.220   4.374   2.622  0.3707 -1.6585 -0.9843
 3406SOL    MW413398   1.200   4.421   2.551  0.1594 -0.3580 -0.0866
 3407SOL     OW13399   0.961   5.951   4.241 -0.4010  0.0948  0.0094
 3407SOL    HW213400   0.913   5.870   4.262  1.1407 -1.1604 -1.0331
 3407SOL    HW313401   0.997   5.935   4.154  0.4865  1.6772  0.0572
 3407SOL    MW413402   0.959   5.938   4.232 -0.0805  0.1379 -0.1218
 3408SOL     OW13403   5.213   3.917   5.529  0.3799  0.0013  0.2088
 3408SOL    HW213404   5.290   3.903   5.584  2.1644 -0.6265 -2.2712
 3408SOL    HW313405   5.248   3.924   5.440 -2.4299 -0.0796 -1.0099
 3408SOL    MW413406   5.228   3.916   5.524  0.2446 -0.0922 -0.2792
 3409SOL     OW13407   1.400   3.241   3.597  0.4918  0.0734 -0.2940
 3409SOL    HW213408   1.354   3.268   3.518 -1.6950  0.7552  1.1289
 3409SOL    HW313409   1.451   3.165   3.570 -0.6098 -0.0433 -2.2268
 3409SOL    MW413410   1.401   3.235   3.583  0.0579  0.1479 -0.3612
 3410SOL     OW13411   4.009   2.846   5.492 -0.5093 -0.2185  0.3462
 3410SOL    HW213412   4.082   2.884   5.541  0.0729  0.7334 -1.1944
 3410SOL    HW313413   3.949   2.919   5.479 -0.3993 -0.3185 -0.8039
 3410SOL    MW413414   4.011   2.861   5.497 -0.4180 -0.1061 -0.0088
 3411SOL     OW13415   3.288   0.141   4.101 -0.2662  0.0197 -0.6782
 3411SOL    HW213416   3.298   0.049   4.076 -0.5332 -1.0413  2.6220
 3411SOL    HW313417   3.376   0.168   4.126 -0.4579  0.1561 -0.1445
 3411SOL    MW413418   3.301   0.132   4.101 -0.3267 -0.1023 -0.1724
 3412SOL     OW13419   4.433   5.159   1.355  0.6844  0.2111  0.4773
 3412SOL    HW213420   4.357   5.163   1.414  2.0715 -0.6468  2.4299
 3412SOL    HW313421   4.396   5.165   1.268 -1.5907  0.2891  1.3831
 3412SOL    MW413422   4.418   5.161   1.352  0.5673  0.1082  0.8545
 3413SOL     OW13423   3.924   1.375   6.221 -0.4293  0.3864  0.3347
 3413SOL    HW213424   3.982   1.305   6.251 -0.0737  0.4013 -0.2966
 3413SOL    HW313425   3.981   1.432   6.168 -0.6468  1.2947  1.0462
 3413SOL    MW413426   3.939   1.373   6.218 -0.4111  0.5082  0.3452
 3414SOL     OW13427   3.552   2.617   2.413  0.2865 -0.0073  0.5775
 3414SOL    HW213428   3.520   2.527   2.421 -0.0070 -0.2984 -2.5890
 3414SOL    HW313429   3.485   2.662   2.361  1.7835  1.2339 -0.3777
 3414SOL    MW413430   3.539   2.611   2.407  0.4453  0.1180  0.0337
 3415SOL     OW13431   2.540   4.592   3.074 -0.1079 -0.3442 -0.2825
 3415SOL    HW213432   2.624   4.557   3.104  0.5526 -1.1726 -2.7992
 3415SOL    HW313433   2.475   4.528   3.103  0.4467 -0.9280 -0.3020
 3415SOL    MW413434   2.542   4.579   3.082  0.0524 -0.5306 -0.6171
 3416SOL     OW13435   2.077   3.693   3.298  0.0014  0.5556 -0.5590
 3416SOL    HW213436   2.164   3.678   3.335 -0.7215  0.3677  1.1770
 3416SOL    HW313437   2.077   3.785   3.272  0.4661  0.7623  0.1584
 3416SOL    MW413438   2.089   3.703   3.299 -0.0327  0.5581 -0.2353
 3417SOL     OW13439   0.938   6.337   0.222  0.3590 -0.2166  0.0885
 3417SOL    HW213440   0.943   6.432   0.236  2.8856 -0.2210 -0.3006
 3417SOL    HW313441   0.949   6.300   0.309  0.1918 -0.1465  0.1391
 3417SOL    MW413442   0.940   6.345   0.235  0.6703 -0.2079  0.0438
 3418SOL     OW13443   5.257   3.579   5.075 -0.0120  0.1037 -0.1375
 3418SOL    HW213444   5.318   3.643   5.039 -1.8023  1.2930 -1.1964
 3418SOL    HW313445   5.291   3.494   5.045  0.1538  0.8604 -2.2561
 3418SOL    MW413446   5.269   3.576   5.066 -0.2263  0.3605 -0.5567
 3419SOL     OW13447   2.351   0.845   2.186  0.1243 -0.1132  0.4252
 3419SOL    HW213448   2.293   0.876   2.256  1.0580 -0.9869  1.6265
 3419SOL    HW313449   2.381   0.925   2.143 -2.0332  0.3636 -0.3247
 3419SOL    MW413450   2.348   0.860   2.190 -0.0372 -0.1656  0.4848
 3420SOL     OW13451   4.525   3.963   2.365 -0.5299  0.7977 -0.5365
 3420SOL    HW213452   4.439   3.935   2.332  0.2541  0.1698 -2.1464
 3420SOL    HW313453   4.521   3.947   2.459 -1.7859 -0.2639 -0.7405
 3420SOL    MW413454   4.513   3.957   2.373 -0.5922  0.5748 -0.7758
 3421SOL     OW13455   0.935   1.970   5.371 -0.0747  0.0135 -0.3635
 3421SOL    HW213456   1.026   1.941   5.380  0.2381  0.7005 -1.1841
 3421SOL    HW313457   0.883   1.890   5.379  0.6630 -0.5332 -0.9592
 3421SOL    MW413458   0.940   1.956   5.374  0.0639  0.0320 -0.5504
 3422SOL     OW13459   6.107   4.498   1.199  0.4616 -0.1582  0.6579
 3422SOL    HW213460   6.182   4.554   1.178  0.3137 -0.0959  0.2890
 3422SOL    HW313461   6.101   4.437   1.125  0.0830 -0.0948  0.6320
 3422SOL    MW413462   6.116   4.498   1.187  0.3921 -0.1416  0.6058
 3423SOL     OW13463   1.897   2.379   4.018  0.2975  0.0093 -0.3602
 3423SOL    HW213464   1.967   2.390   4.083 -0.3813  1.1040  0.2186
 3423SOL    HW313465   1.841   2.455   4.031 -1.0090 -0.8551 -0.8117
 3423SOL    MW413466   1.899   2.391   4.029  0.0355  0.0397 -0.3434
 3424SOL     OW13467   5.414   5.438   6.393 -0.2816  0.4545  0.0390
 3424SOL    HW213468   5.410   5.534   6.388 -1.4319  0.3637 -1.6253
 3424SOL    HW313469   5.373   5.417   6.477 -0.1614  1.4001  0.3511
 3424SOL    MW413470   5.408   5.448   6.404 -0.4175  0.5673 -0.1394
 3425SOL     OW13471   4.183   0.995   6.110  0.0969  0.0692  0.1611
 3425SOL    HW213472   4.136   0.955   6.037 -1.7762  3.2925 -0.6071
 3425SOL    HW313473   4.146   0.954   6.188 -0.7316 -0.6415 -0.5866
 3425SOL    MW413474   4.172   0.984   6.110 -0.2596  0.4007 -0.0389
 3426SOL     OW13475   1.800   1.201   6.110  0.1774 -0.5414  0.6011
 3426SOL    HW213476   1.895   1.204   6.101  0.2198 -2.7447 -0.2228
 3426SOL    HW313477   1.767   1.204   6.020 -0.5496  0.2896  0.8844
 3426SOL    MW413478   1.808   1.202   6.097  0.0871 -0.7225  0.5298
 3427SOL     OW13479   1.394   5.584   6.336  0.0842 -0.2823 -0.0883
 3427SOL    HW213480   1.414   5.565   6.245  1.8768 -0.1903  0.2516
 3427SOL    HW313481   1.379   5.679   6.339  1.3206 -0.0770 -0.0841
 3427SOL    MW413482   1.394   5.594   6.325  0.4838 -0.2430 -0.0429
 3428SOL     OW13483   4.406   2.254   4.513  0.8471 -0.5300 -0.3213
 3428SOL    HW213484   4.365   2.310   4.447 -1.4524  1.9287  2.8659
 3428SOL    HW313485   4.466   2.311   4.561  0.2197 -1.3412  1.5553
 3428SOL    MW413486   4.408   2.269   4.511  0.4609 -0.3127  0.3468
 3429SOL     OW13487   4.547   0.138   6.332  0.1185 -0.3904  0.2194
 3429SOL    HW213488   4.573   0.072   6.396  0.5244 -0.4762 -0.0283
 3429SOL    HW313489   4.529   0.216   6.383 -0.7480 -0.7961  0.5580
 3429SOL    MW413490   4.548   0.139   6.347  0.0578 -0.4553  0.2314
 3430SOL     OW13491   5.282   4.435   2.205 -0.2307 -0.1302 -0.2039
 3430SOL    HW213492   5.357   4.479   2.166 -0.1013 -0.4409 -0.3139
 3430SOL    HW313493   5.291   4.451   2.299 -1.6893  2.4127 -0.4110
 3430SOL    MW413494   5.293   4.443   2.212 -0.4061  0.1643 -0.2457
 3431SOL     OW13495   2.696   0.115   0.842  0.2196 -0.1527 -0.1140
 3431SOL    HW213496   2.648   0.194   0.819 -2.0114 -1.7624 -1.3007
 3431SOL    HW313497   2.748   0.140   0.919 -2.6777  1.6997  1.4211
 3431SOL    MW413498   2.697   0.128   0.849 -0.4570 -0.1206 -0.0680
 3432SOL     OW13499   2.147   2.176   0.929 -0.9592 -0.2728 -0.7345
 3432SOL    HW213500   2.181   2.137   1.010 -0.6104  0.5527 -0.4695
 3432SOL    HW313501   2.087   2.244   0.959  0.0068  0.7855 -1.1370
 3432SOL    MW413502   2.143   2.180   0.944 -0.7857 -0.0243 -0.7527
 3433SOL     OW13503   5.425   2.156   2.073 -0.7272 -0.2837 -0.3748
 3433SOL    HW213504   5.356   2.119   2.018 -0.6001  0.7674 -1.2804
 3433SOL    HW313505   5.417   2.251   2.061  0.0319 -0.0878  0.5493
 3433SOL    MW413506   5.415   2.164   2.064 -0.6103 -0.1192 -0.3723
 3434SOL     OW13507   5.216   3.929   4.553  0.3942  0.6608 -0.1592
 3434SOL    HW213508   5.144   3.973   4.598 -0.5963  0.6241 -1.6396
 3434SOL    HW313509   5.174   3.873   4.489  1.7262 -0.4256 -0.1350
 3434SOL    MW413510   5.201   3.927   4.551  0.4393  0.5126 -0.3513
 3435SOL     OW13511   4.259   5.492   0.799  0.1019 -0.6700  0.3397
 3435SOL    HW213512   4.217   5.578   0.802 -1.9652 -1.5368 -1.3533
 3435SOL    HW313513   4.309   5.487   0.880  0.9169  2.4024  0.1581
 3435SOL    MW413514   4.260   5.503   0.810 -0.0633 -0.3790  0.0924
 3436SOL     OW13515   1.972   1.632   4.124 -0.3064 -0.7216 -0.0281
 3436SOL    HW213516   1.994   1.675   4.207  0.3267 -3.1891  1.1597
 3436SOL    HW313517   1.893   1.677   4.094  0.2200  1.1229  1.2019
 3436SOL    MW413518   1.964   1.644   4.131 -0.1534 -0.8038  0.2909
 3437SOL     OW13519   2.846   4.687   5.772  0.3589  0.2894 -0.1373
 3437SOL    HW213520   2.843   4.782   5.781 -1.0582  0.3754 -1.1201
 3437SOL    HW313521   2.795   4.654   5.846 -1.9199  0.5015 -1.4868
 3437SOL    MW413522   2.839   4.695   5.783 -0.1287  0.3288 -0.4450
 3438SOL     OW13523   0.764   2.789   0.785 -0.4334  0.5564 -0.1386
 3438SOL    HW213524   0.775   2.794   0.880 -0.3626 -1.0396 -0.0429
 3438SOL    HW313525   0.849   2.759   0.753 -1.4583 -2.4431 -0.3252
 3438SOL    MW413526   0.777   2.786   0.793 -0.5593 -0.0499 -0.1506
 3439SOL     OW13527   5.014   3.722   5.447  0.4751  0.0399  0.1627
 3439SOL    HW213528   4.943   3.697   5.506  0.1906  0.4545 -0.0013
 3439SOL    HW313529   5.056   3.797   5.490  1.7749 -1.1234  1.0064
 3439SOL    MW413530   5.010   3.728   5.460  0.6091 -0.0589  0.2524
 3440SOL     OW13531   1.874   3.086   0.490 -0.2338  0.7397  0.1440
 3440SOL    HW213532   1.934   3.132   0.431  0.2573 -1.9570 -1.6269
 3440SOL    HW313533   1.794   3.074   0.438 -0.4986 -0.0070  0.7100
 3440SOL    MW413534   1.871   3.091   0.475 -0.2040  0.2854 -0.0149
 3441SOL     OW13535   3.093   4.395   4.680 -0.0423  0.8370  0.5035
 3441SOL    HW213536   3.068   4.396   4.772 -1.0353  0.0994  0.2671
 3441SOL    HW313537   3.164   4.331   4.675 -1.3954 -0.7421  0.4691
 3441SOL    MW413538   3.099   4.387   4.691 -0.3519  0.5314  0.4678
 3442SOL     OW13539   1.708   4.616   0.370 -0.1743 -0.3724  0.1751
 3442SOL    HW213540   1.624   4.576   0.390 -0.2368 -0.1515  0.3597
 3442SOL    HW313541   1.772   4.559   0.414 -0.2809 -0.1377  0.6500
 3442SOL    MW413542   1.706   4.603   0.379 -0.1966 -0.3123  0.2621
 3443SOL     OW13543   3.517   2.505   5.631 -0.2761  0.1528  0.2342
 3443SOL    HW213544   3.581   2.554   5.682 -0.6700  1.2088 -0.2640
 3443SOL    HW313545   3.557   2.496   5.544 -1.3081  1.9360 -0.4629
 3443SOL    MW413546   3.531   2.510   5.626 -0.4642  0.5274  0.0765
 3444SOL     OW13547   0.163   5.028   0.138 -0.3408 -0.0939  0.1554
 3444SOL    HW213548   0.087   5.078   0.108  1.4988  2.3559 -0.7008
 3444SOL    HW313549   0.144   5.010   0.231 -2.4566 -0.6465 -0.3259
 3444SOL    MW413550   0.150   5.032   0.147 -0.3773  0.1564 -0.0211
 3445SOL     OW13551   6.019   4.029   4.652 -0.0440 -0.1054 -0.2453
 3445SOL    HW213552   5.965   3.956   4.682  1.0328 -0.2778  1.3825
 3445SOL    HW313553   6.046   4.074   4.732  0.3826  1.3060 -1.1545
 3445SOL    MW413554   6.016   4.025   4.666  0.1544  0.0581 -0.1505
 3446SOL     OW13555   3.460   5.882   4.080 -0.6985 -0.0358 -0.1074
 3446SOL    HW213556   3.497   5.967   4.101 -1.0053  0.7215 -2.3185
 3446SOL    HW313557   3.368   5.887   4.109 -0.0827 -0.6256  2.1317
 3446SOL    MW413558   3.452   5.894   4.086 -0.6577 -0.0137 -0.1037
 3447SOL     OW13559   2.132   5.408   5.167 -0.2024  0.4836  0.1269
 3447SOL    HW213560   2.143   5.371   5.255  0.4485 -0.3181 -0.2840
 3447SOL    HW313561   2.221   5.422   5.135 -0.3634 -1.2297 -1.2254
 3447SOL    MW413562   2.145   5.405   5.175 -0.1378  0.1517 -0.1057
 3448SOL     OW13563   1.049   2.428   6.152  0.4787 -0.1565  0.0203
 3448SOL    HW213564   1.052   2.497   6.086 -0.1142 -0.2726 -0.1255
 3448SOL    HW313565   0.977   2.452   6.210 -0.8112 -1.4911 -0.9585
 3448SOL    MW413566   1.040   2.440   6.151  0.2303 -0.3479 -0.1281
 3449SOL     OW13567   6.282   1.395   4.148  0.1078  0.5392  0.6374
 3449SOL    HW213568   6.375   1.402   4.126  0.2103 -1.8998 -0.0234
 3449SOL    HW313569   6.281   1.370   4.240  0.1660 -0.3539  0.4028
 3449SOL    MW413570   6.294   1.393   4.157  0.1290  0.0995  0.5192
 3450SOL     OW13571   1.308   0.318   2.805  0.3509 -0.2880 -0.2349
 3450SOL    HW213572   1.286   0.398   2.853  0.0311 -0.9725  0.7782
 3450SOL    HW313573   1.402   0.307   2.819  0.0991 -0.9795  1.0272
 3450SOL    MW413574   1.318   0.327   2.813  0.2755 -0.4695  0.0653
 3451SOL     OW13575   0.142   3.323   4.865 -0.3119 -0.1823  0.2096
 3451SOL    HW213576   0.073   3.387   4.849 -0.3882 -0.6439 -1.4921
 3451SOL    HW313577   0.123   3.288   4.952 -0.2808  2.0492  1.1861
 3451SOL    MW413578   0.130   3.327   4.875 -0.3179  0.0512  0.1139
 3452SOL     OW13579   1.038   5.951   3.419 -0.1995 -0.7671 -0.0154
 3452SOL    HW213580   1.122   5.997   3.428  0.0645 -0.9307 -1.3379
 3452SOL    HW313581   1.060   5.859   3.427 -0.2070 -0.8233 -0.5957
 3452SOL    MW413582   1.052   5.945   3.421 -0.1657 -0.7961 -0.2664
 3453SOL     OW13583   4.668   2.482   1.287  0.3548  0.3941  0.1593
 3453SOL    HW213584   4.709   2.402   1.320  1.9784  0.5845 -1.2950
 3453SOL    HW313585   4.739   2.546   1.283 -0.2243  0.9851 -1.6752
 3453SOL    MW413586   4.683   2.480   1.291  0.4926  0.4972 -0.2746
 3454SOL     OW13587   6.246   1.815   5.045  0.2145  0.0425  0.1632
 3454SOL    HW213588   6.260   1.841   4.954 -0.8218 -0.2484 -0.0873
 3454SOL    HW313589   6.334   1.799   5.079  0.8312  2.6008 -0.0301
 3454SOL    MW413590   6.260   1.816   5.038  0.1592  0.3417  0.1046
 3455SOL     OW13591   0.323   4.856   4.526 -0.2620  0.0300 -0.2204
 3455SOL    HW213592   0.282   4.904   4.454 -1.7555  1.4437  1.4592
 3455SOL    HW313593   0.385   4.917   4.564  0.0427 -0.4608  0.0882
 3455SOL    MW413594   0.326   4.870   4.522 -0.4189  0.1518  0.0419
 3456SOL     OW13595   0.478   1.662   3.936  0.0541 -0.3105 -0.0424
 3456SOL    HW213596   0.423   1.687   4.010  1.5943 -0.6790  1.2976
 3456SOL    HW313597   0.418   1.653   3.862 -1.3566  1.3708  0.8396
 3456SOL    MW413598   0.463   1.664   3.936  0.0712 -0.1373  0.2508
 3457SOL     OW13599   3.648   2.167   5.887  0.0072  0.4791  0.1142
 3457SOL    HW213600   3.694   2.246   5.916 -0.8943  0.7851  0.7566
 3457SOL    HW313601   3.594   2.196   5.814  0.0813  0.3327  0.0003
 3457SOL    MW413602   3.647   2.182   5.881 -0.1020  0.5002  0.1839
 3458SOL     OW13603   0.620   2.601   4.802  0.0764 -0.6506  0.0059
 3458SOL    HW213604   0.583   2.580   4.717  0.3080  0.5931 -0.4201
 3458SOL    HW313605   0.649   2.517   4.837 -1.0557 -1.3336 -0.6319
 3458SOL    MW413606   0.619   2.588   4.796 -0.0424 -0.5766 -0.1345
 3459SOL     OW13607   3.533   3.518   6.393  0.2859  0.3021 -0.5009
 3459SOL    HW213608   3.514   3.528   6.300  0.3420 -0.3126 -0.5801
 3459SOL    HW313609   3.620   3.479   6.397 -0.6627 -1.9908 -0.2781
 3459SOL    MW413610   3.542   3.514   6.381  0.1681 -0.0815 -0.4820
 3460SOL     OW13611   6.280   4.836   4.264 -0.0068  0.1836 -0.2888
 3460SOL    HW213612   6.263   4.856   4.172 -1.7270 -3.8099 -1.0441
 3460SOL    HW313613   6.368   4.798   4.265  0.2481  0.7637 -0.1459
 3460SOL    MW413614   6.289   4.834   4.252 -0.2001 -0.2667 -0.3696
 3461SOL     OW13615   5.742   2.986   0.578 -0.1921 -0.4128 -0.1473
 3461SOL    HW213616   5.658   2.939   0.578 -0.1625 -0.5522  1.9566
 3461SOL    HW313617   5.804   2.922   0.543 -0.5551 -1.1634  0.5372
 3461SOL    MW413618   5.739   2.971   0.574 -0.2361 -0.5302  0.2206
 3462SOL     OW13619   2.440   3.514   4.930  0.2880  0.4213  0.9181
 3462SOL    HW213620   2.489   3.521   4.848 -0.1570 -0.6449  0.5402
 3462SOL    HW313621   2.355   3.479   4.903 -0.5849  1.9624  1.5964
 3462SOL    MW413622   2.435   3.510   4.916  0.1141  0.4840  0.9577
 3463SOL     OW13623   1.842   6.250   4.721 -0.0832  0.0111 -0.0894
 3463SOL    HW213624   1.854   6.239   4.816  0.2557 -0.1009 -0.1440
 3463SOL    HW313625   1.930   6.237   4.684  0.0625  1.4713 -0.2990
 3463SOL    MW413626   1.855   6.247   4.729 -0.0193  0.1890 -0.1243
 3464SOL     OW13627   2.113   0.569   0.532 -0.6470 -0.0293 -0.0712
 3464SOL    HW213628   2.202   0.546   0.506 -1.2742  0.0208 -2.5123
 3464SOL    HW313629   2.076   0.487   0.566  0.1422 -0.1632  0.4978
 3464SOL    MW413630   2.120   0.555   0.533 -0.6256 -0.0404 -0.3182
 3465SOL     OW13631   3.849   4.590   2.575 -0.0161 -0.1042  0.1047
 3465SOL    HW213632   3.829   4.514   2.629 -3.6938  1.4323  1.2079
 3465SOL    HW313633   3.808   4.571   2.490  0.3625  0.0577 -0.1201
 3465SOL    MW413634   3.841   4.577   2.571 -0.4514  0.1198  0.2206
 3466SOL     OW13635   3.653   1.448   1.888  0.1768  0.4311 -0.1474
 3466SOL    HW213636   3.674   1.369   1.936 -0.7796  0.1384 -0.1812
 3466SOL    HW313637   3.663   1.519   1.952  2.7941  0.5260 -0.5839
 3466SOL    MW413638   3.657   1.447   1.903  0.3960  0.4050 -0.2095
 3467SOL     OW13639   1.712   3.350   5.274  0.6571  0.0728  0.0665
 3467SOL    HW213640   1.665   3.428   5.305 -0.8085 -0.0237 -1.7295
 3467SOL    HW313641   1.801   3.381   5.255  0.4765  0.9824  0.6776
 3467SOL    MW413642   1.718   3.364   5.275  0.4399  0.1800 -0.0898
 3468SOL     OW13643   0.044   4.394   5.989  0.0069 -0.3631 -0.0379
 3468SOL    HW213644  -0.032   4.439   5.952 -0.4496 -1.0318  0.0710
 3468SOL    HW313645   0.063   4.323   5.927  0.0300 -0.7072  0.3579
 3468SOL    MW413646   0.037   4.391   5.976 -0.0503 -0.4967  0.0287
 3469SOL     OW13647   0.708   1.922   1.996 -0.0456  0.3843  0.2142
 3469SOL    HW213648   0.755   1.994   1.954  1.2094 -0.2583  0.4840
 3469SOL    HW313649   0.776   1.870   2.039 -1.1286  0.0849  1.6351
 3469SOL    MW413650   0.723   1.925   1.996 -0.0229  0.2600  0.4373
 3470SOL     OW13651   4.869   4.146   1.385  0.1404  0.4237 -0.4044
 3470SOL    HW213652   4.816   4.083   1.434 -1.3235  1.0143 -1.1607
 3470SOL    HW313653   4.898   4.209   1.451  1.8704 -1.1402  0.4141
 3470SOL    MW413654   4.865   4.146   1.400  0.1755  0.2953 -0.3962
 3471SOL     OW13655   1.244   1.602   2.205  0.0001 -0.3535  0.2615
 3471SOL    HW213656   1.337   1.578   2.210  0.4642  1.3430  0.2563
 3471SOL    HW313657   1.219   1.622   2.295  0.1377  0.8811  0.0459
 3471SOL    MW413658   1.253   1.601   2.217  0.0795  0.0333  0.2324
 3472SOL     OW13659   1.090   0.143   2.849  0.2828 -0.3694 -0.2484
 3472SOL    HW213660   1.141   0.224   2.855  0.5037 -0.4870 -0.4937
 3472SOL    HW313661   1.057   0.141   2.759  0.2337 -0.5207 -0.2284
 3472SOL    MW413662   1.093   0.153   2.838  0.3055 -0.4049 -0.2781
 3473SOL     OW13663   4.281   2.121   0.914 -0.0618  0.2344 -0.6984
 3473SOL    HW213664   4.306   2.168   0.834 -0.1863  1.2166 -0.1704
 3473SOL    HW313665   4.233   2.185   0.966  1.0256 -0.0213  0.7003
 3473SOL    MW413666   4.278   2.135   0.910  0.0652  0.3302 -0.4442
 3474SOL     OW13667   1.005   3.770   1.229 -0.4386  0.0533 -0.1666
 3474SOL    HW213668   1.096   3.751   1.253 -0.6086  0.4162  0.8096
 3474SOL    HW313669   0.992   3.722   1.148 -0.1965 -2.2658  1.0596
 3474SOL    MW413670   1.016   3.761   1.222 -0.4291 -0.2048  0.1240
 3475SOL     OW13671   1.316   0.218   3.639  0.4602  0.3889  0.0181
 3475SOL    HW213672   1.370   0.156   3.689  0.9821  3.0932  3.1231
 3475SOL    HW313673   1.226   0.198   3.665  0.2635 -1.1101 -1.5988
 3475SOL    MW413674   1.312   0.207   3.649  0.5031  0.5479  0.2145
 3476SOL     OW13675   4.164   6.037   5.321 -0.1838  0.2699 -0.1545
 3476SOL    HW213676   4.173   5.965   5.259  0.6014  2.8632 -3.2839
 3476SOL    HW313677   4.070   6.058   5.320 -0.4673 -0.7513  0.9909
 3476SOL    MW413678   4.152   6.030   5.313 -0.1176  0.4773 -0.4163
 3477SOL     OW13679   0.485   1.333   2.098  0.0439 -0.0611 -0.4574
 3477SOL    HW213680   0.495   1.387   2.176  0.7229 -1.2737  0.3366
 3477SOL    HW313681   0.504   1.391   2.025  0.4532  0.8396  0.3515
 3477SOL    MW413682   0.489   1.348   2.099  0.1875 -0.1022 -0.2459
 3478SOL     OW13683   0.997   4.565   6.363 -0.2487 -0.5412  0.3195
 3478SOL    HW213684   0.904   4.562   6.387 -0.3816 -2.2830 -0.2833
 3478SOL    HW313685   0.997   4.600   6.274 -0.3934 -1.0257  0.1223
 3478SOL    MW413686   0.985   4.569   6.354 -0.2853 -0.8349  0.2140
 3479SOL     OW13687   5.358   0.621   1.219  0.1160 -0.0907  0.4127
 3479SOL    HW213688   5.387   0.666   1.299  1.4982 -0.1675 -0.0060
 3479SOL    HW313689   5.383   0.680   1.149 -2.5703  0.7355  0.0709
 3479SOL    MW413690   5.365   0.635   1.221 -0.0561  0.0082  0.3124
 3480SOL     OW13691   1.635   1.813   0.794 -0.2469 -0.2130 -0.2139
 3480SOL    HW213692   1.628   1.778   0.883  1.7653  0.1294  0.1229
 3480SOL    HW313693   1.589   1.749   0.740 -2.2174 -0.0285  1.1230
 3480SOL    MW413694   1.628   1.800   0.799 -0.2414 -0.1435  0.0069
 3481SOL     OW13695   5.180   5.212   2.207 -0.2415  0.0456  0.3389
 3481SOL    HW213696   5.267   5.193   2.243 -0.4877 -3.3388 -0.5084
 3481SOL    HW313697   5.119   5.172   2.270 -0.8886 -1.6472 -1.2501
 3481SOL    MW413698   5.183   5.204   2.220 -0.3594 -0.6243  0.0175
 3482SOL     OW13699   5.957   3.404   1.391 -0.7552  0.1089 -0.6520
 3482SOL    HW213700   5.874   3.440   1.422 -0.0844  0.6366  0.5966
 3482SOL    HW313701   6.004   3.481   1.358 -0.1719  0.0560  0.0398
 3482SOL    MW413702   5.952   3.419   1.391 -0.5897  0.1716 -0.3960
 3483SOL     OW13703   2.099   4.852   1.620  0.1241  0.1555 -0.2838
 3483SOL    HW213704   2.008   4.879   1.625  0.1035  0.3699 -1.4725
 3483SOL    HW313705   2.117   4.811   1.705 -0.9405  0.4957  0.1230
 3483SOL    MW413706   2.090   4.850   1.632 -0.0191  0.2287 -0.3870
 3484SOL     OW13707   4.564   3.139   4.642  0.3118  0.3533  0.1516
 3484SOL    HW213708   4.624   3.089   4.587 -0.6965  1.1474 -1.7752
 3484SOL    HW313709   4.485   3.086   4.646  0.0113  0.7799 -0.0389
 3484SOL    MW413710   4.561   3.126   4.635  0.1391  0.5143 -0.1278
 3485SOL     OW13711   1.785   4.969   6.216 -0.1749  0.1186 -0.0810
 3485SOL    HW213712   1.703   4.967   6.166 -0.7811  0.2791  0.8735
 3485SOL    HW313713   1.757   4.982   6.307  0.9077  0.0173  0.2797
 3485SOL    MW413714   1.770   4.970   6.222 -0.1121  0.1264  0.0925
 3486SOL     OW13715   6.283   3.409   3.892  0.4396 -0.1386  0.1642
 3486SOL    HW213716   6.201   3.364   3.911  1.0345 -0.5755  1.8688
 3486SOL    HW313717   6.303   3.385   3.801 -2.2061  1.4703 -0.9617
 3486SOL    MW413718   6.275   3.400   3.882  0.1690  0.0161  0.2405
 3487SOL     OW13719   1.727   3.581   4.173  0.3783  0.6743  0.5473
 3487SOL    HW213720   1.822   3.587   4.166  0.3303  0.2723 -0.9168
 3487SOL    HW313721   1.702   3.652   4.232  1.4772  1.6242 -0.0915
 3487SOL    MW413722   1.736   3.591   4.180  0.5170  0.7466  0.2698
 3488SOL     OW13723   6.081   5.732   4.712  0.0198 -0.0778 -0.4848
 3488SOL    HW213724   6.127   5.811   4.682 -0.9232  0.7784  0.2411
 3488SOL    HW313725   6.131   5.703   4.788 -0.4580  0.6897  0.1360
 3488SOL    MW413726   6.094   5.739   4.718 -0.1676  0.1365 -0.3071
 3489SOL     OW13727   2.336   0.423   0.919 -0.3921  0.3577 -0.5776
 3489SOL    HW213728   2.354   0.514   0.896  0.4150 -0.0125 -1.4475
 3489SOL    HW313729   2.240   0.417   0.921 -0.4630  1.4150  0.3107
 3489SOL    MW413730   2.325   0.434   0.917 -0.2950  0.4483 -0.5752
 3490SOL     OW13731   1.722   3.267   4.848 -0.5174 -0.0885 -0.2831
 3490SOL    HW213732   1.645   3.245   4.796 -1.0354 -0.7718  0.7484
 3490SOL    HW313733   1.696   3.250   4.938  0.9435 -0.6743  0.0628
 3490SOL    MW413734   1.708   3.262   4.853 -0.3930 -0.2560 -0.1014
 3491SOL     OW13735   0.685   5.975   0.577  1.1342  0.7844  0.7966
 3491SOL    HW213736   0.652   6.052   0.622  1.3229  2.1853 -1.3183
 3491SOL    HW313737   0.607   5.929   0.547  1.0321  0.4968  1.4904
 3491SOL    MW413738   0.670   5.979   0.579  1.1457  0.9313  0.6091
 3492SOL     OW13739   3.727   5.312   1.368 -0.1968 -0.1940 -0.2515
 3492SOL    HW213740   3.690   5.293   1.454  1.1397 -1.2738  0.1305
 3492SOL    HW313741   3.680   5.389   1.337 -0.4558  0.4380  1.6195
 3492SOL    MW413742   3.716   5.320   1.375 -0.0546 -0.2531  0.0457
 3493SOL     OW13743   2.240   1.161   4.815  0.4672 -0.1773 -0.3548
 3493SOL    HW213744   2.326   1.167   4.773  0.6917  1.9665  0.3245
 3493SOL    HW313745   2.257   1.170   4.908 -0.4840  0.1710 -0.2001
 3493SOL    MW413746   2.253   1.163   4.822  0.3713  0.1515 -0.2448
 3494SOL     OW13747   2.254   3.233   0.143 -0.6501  0.8381  0.0899
 3494SOL    HW213748   2.199   3.230   0.065  0.0418  3.4308 -0.6070
 3494SOL    HW313749   2.339   3.202   0.113 -1.0619 -0.8507  0.5677
 3494SOL    MW413750   2.258   3.229   0.129 -0.6132  0.9574  0.0610
 3495SOL     OW13751   4.572   4.194   1.217 -0.0007 -0.0524  0.1172
 3495SOL    HW213752   4.614   4.108   1.222  2.3523  1.0090 -0.2441
 3495SOL    HW313753   4.603   4.241   1.294 -0.2561  0.8930 -0.3403
 3495SOL    MW413754   4.582   4.188   1.228  0.2760  0.2124  0.0092
 3496SOL     OW13755   6.353   0.529   4.856 -0.0557 -0.0760 -0.0524
 3496SOL    HW213756   6.358   0.442   4.896 -2.0067 -0.5692 -0.7597
 3496SOL    HW313757   6.259   0.545   4.845  0.2821  1.8387 -0.5818
 3496SOL    MW413758   6.341   0.520   4.860 -0.2686  0.1115 -0.2155
 3497SOL     OW13759   1.501   5.183   5.614  0.4663  0.4026  0.4707
 3497SOL    HW213760   1.581   5.130   5.611  0.0131 -0.2401 -1.8371
 3497SOL    HW313761   1.444   5.137   5.676  1.9207  1.0348  2.3887
 3497SOL    MW413762   1.504   5.170   5.622  0.5984  0.4013  0.4193
 3498SOL     OW13763   4.821   0.936   0.278 -0.3500  0.1157 -0.9499
 3498SOL    HW213764   4.771   0.861   0.312  0.5203  0.0253  0.1916
 3498SOL    HW313765   4.757   1.006   0.271 -1.0995 -0.6245 -1.6718
 3498SOL    MW413766   4.806   0.935   0.282 -0.3340  0.0061 -0.8946
 3499SOL     OW13767   2.815   3.813   0.188 -0.1247 -0.1179  0.0275
 3499SOL    HW213768   2.814   3.726   0.227 -2.8570  0.2719  1.0391
 3499SOL    HW313769   2.724   3.829   0.164  0.2814  2.5148 -0.0112
 3499SOL    MW413770   2.803   3.803   0.190 -0.4316  0.2809  0.1559
 3500SOL     OW13771   5.251   3.200   0.730  0.1141 -0.4215 -0.3924
 3500SOL    HW213772   5.328   3.216   0.784 -1.8003  1.2675  2.0300
 3500SOL    HW313773   5.224   3.111   0.750  0.4893 -0.4387  0.0194
 3500SOL    MW413774   5.257   3.190   0.739 -0.0890 -0.2009 -0.0185
 3501SOL     OW13775   2.854   1.253   0.663  0.2125  0.0730 -0.2384
 3501SOL    HW213776   2.869   1.275   0.755  0.8925  0.1541 -0.3610
 3501SOL    HW313777   2.940   1.263   0.622  0.3375 -1.8184 -0.5108
 3501SOL    MW413778   2.868   1.257   0.670  0.3187 -0.1658 -0.2905
 3502SOL     OW13779   4.890   0.101   5.789 -0.0974 -0.2162 -0.5135
 3502SOL    HW213780   4.797   0.078   5.783  0.1061 -0.8403 -1.3912
 3502SOL    HW313781   4.930   0.027   5.834 -0.0223  0.0688 -0.1033
 3502SOL    MW413782   4.883   0.088   5.794 -0.0607 -0.2610 -0.5752
 3503SOL     OW13783   0.624   0.495   5.927 -0.6140 -0.5735 -0.3532
 3503SOL    HW213784   0.630   0.505   5.832  0.1330 -0.2621 -0.2757
 3503SOL    HW313785   0.576   0.573   5.955 -2.2160 -1.4223 -0.6220
 3503SOL    MW413786   0.618   0.507   5.918 -0.7268 -0.6444 -0.3784
 3504SOL     OW13787   2.958   6.027   2.117 -0.1762  0.1073 -0.7828
 3504SOL    HW213788   2.993   6.017   2.206  1.3771  0.5822 -1.2992
 3504SOL    HW313789   2.867   5.998   2.123  0.5139 -2.0230  0.4627
 3504SOL    MW413790   2.951   6.022   2.129  0.1198 -0.1111 -0.6866
 3505SOL     OW13791   3.649   4.328   5.762  0.3194 -0.2868 -0.0142
 3505SOL    HW213792   3.653   4.418   5.796  0.5250  0.4294 -1.7945
 3505SOL    HW313793   3.695   4.276   5.827 -2.0056  0.4275  2.3567
 3505SOL    MW413794   3.656   4.333   5.775  0.0397 -0.0980  0.0637
 3506SOL     OW13795   5.766   3.211   0.868 -0.4533  0.4849 -1.2063
 3506SOL    HW213796   5.788   3.262   0.945  0.0864  0.1754 -1.1507
 3506SOL    HW313797   5.671   3.207   0.868 -0.4355 -1.5181  0.7822
 3506SOL    MW413798   5.756   3.217   0.878 -0.3797  0.1798 -0.9366
 3507SOL     OW13799   5.470   2.204   1.652  0.0115 -0.0370 -0.1625
 3507SOL    HW213800   5.514   2.283   1.684 -1.8518  0.1796  2.1795
 3507SOL    HW313801   5.505   2.133   1.707 -0.4972 -0.3260 -0.2031
 3507SOL    MW413802   5.481   2.205   1.663 -0.3014 -0.0466  0.1412
 3508SOL     OW13803   5.378   3.082   4.058  0.1048  0.7068 -0.1747
 3508SOL    HW213804   5.292   3.119   4.077  0.0409 -0.1446  1.3904
 3508SOL    HW313805   5.360   3.004   4.006 -0.1080  0.3942  0.3553
 3508SOL    MW413806   5.364   3.077   4.054  0.0683  0.5532  0.1018
 3509SOL     OW13807   5.433   0.300   2.928  0.2119  0.1191  0.2336
 3509SOL    HW213808   5.381   0.220   2.921 -0.1869  0.4992 -1.6232
 3509SOL    HW313809   5.369   0.368   2.951  0.4903  0.0034  1.4311
 3509SOL    MW413810   5.417   0.299   2.930  0.1960  0.1540  0.1466
 3510SOL     OW13811   1.414   0.788   4.707  0.6247  0.8480 -0.0101
 3510SOL    HW213812   1.476   0.722   4.676 -0.3932 -0.2397  0.2218
 3510SOL    HW313813   1.366   0.745   4.778 -1.2603  1.2142 -1.0025
 3510SOL    MW413814   1.416   0.774   4.713  0.2417  0.7528 -0.1104
 3511SOL     OW13815   0.672   5.284   2.119 -0.2372 -0.1913 -0.6399
 3511SOL    HW213816   0.654   5.194   2.147 -4.0493  0.1106 -1.5063
 3511SOL    HW313817   0.701   5.329   2.198  0.7362 -1.9237  0.0366
 3511SOL    MW413818   0.673   5.278   2.133 -0.6117 -0.3800 -0.6649
 3512SOL     OW13819   0.515   1.850   4.533  0.1844  0.3048 -0.8705
 3512SOL    HW213820   0.541   1.911   4.602  0.1517 -0.1144 -0.4804
 3512SOL    HW313821   0.423   1.832   4.551  0.1092  0.3871 -1.1732
 3512SOL    MW413822   0.507   1.856   4.545  0.1702  0.2603 -0.8590
 3513SOL     OW13823   3.152   2.771   0.116 -0.1768 -0.1080 -0.3557
 3513SOL    HW213824   3.211   2.709   0.159  0.6827 -0.5740 -2.1192
 3513SOL    HW313825   3.105   2.719   0.052  0.2261  0.9519 -1.5578
 3513SOL    MW413826   3.153   2.756   0.114 -0.0102 -0.0296 -0.7470
 3514SOL     OW13827   3.870   4.026   1.022 -0.7657 -0.0851 -0.6207
 3514SOL    HW213828   3.899   4.107   1.065  0.3357 -0.7433 -0.0789
 3514SOL    HW313829   3.777   4.040   1.006 -0.8601  0.8218  0.5295
 3514SOL    MW413830   3.862   4.039   1.026 -0.6328 -0.0523 -0.3975
 3515SOL     OW13831   3.578   2.790   0.167 -0.2307 -0.0589 -0.0749
 3515SOL    HW213832   3.572   2.826   0.078  0.7065  0.4529  0.0481
 3515SOL    HW313833   3.661   2.742   0.167  0.6122  1.3356  0.9855
 3515SOL    MW413834   3.588   2.788   0.155  0.0042  0.1926  0.0812
 3516SOL     OW13835   1.387   4.152   3.017  0.3579 -0.0874 -0.7598
 3516SOL    HW213836   1.429   4.216   3.075 -0.3158 -0.0404 -0.3124
 3516SOL    HW313837   1.452   4.134   2.949  1.5103 -0.7745  0.4725
 3516SOL    MW413838   1.401   4.158   3.016  0.4210 -0.1718 -0.5382
 3517SOL     OW13839   2.445   0.655   5.525 -0.5844 -0.5463  0.0914
 3517SOL    HW213840   2.499   0.662   5.603  1.0780 -0.4628 -1.0267
 3517SOL    HW313841   2.385   0.583   5.543  1.1535 -1.9002  0.6633
 3517SOL    MW413842   2.444   0.647   5.537 -0.1358 -0.7139  0.0194
 3518SOL     OW13843   1.113   3.139   3.026  0.5786 -0.1160  0.0030
 3518SOL    HW213844   1.096   3.097   2.942 -0.4710  0.6012 -0.1765
 3518SOL    HW313845   1.135   3.068   3.086  1.5399 -0.6119 -0.9166
 3518SOL    MW413846   1.113   3.124   3.023  0.5669 -0.0868 -0.1420
 3519SOL     OW13847   4.313   5.595   6.285  0.1470 -0.1549 -0.0299
 3519SOL    HW213848   4.243   5.660   6.297  1.4455  1.2054  0.4754
 3519SOL    HW313849   4.393   5.642   6.309  1.1520 -1.9214  0.1987
 3519SOL    MW413850   4.314   5.610   6.290  0.4509 -0.2085  0.0670
 3520SOL     OW13851   0.492   5.323   6.233  0.4440 -0.5376 -0.3800
 3520SOL    HW213852   0.490   5.298   6.141 -0.9225  0.6887 -0.7273
 3520SOL    HW313853   0.420   5.274   6.273 -0.3603  0.5474 -0.4510
 3520SOL    MW413854   0.482   5.314   6.226  0.1576 -0.2327 -0.4352
 3521SOL     OW13855   6.125   4.310   3.278 -0.2993  0.2509 -0.4329
 3521SOL    HW213856   6.068   4.346   3.345 -0.9777 -3.6146  1.3375
 3521SOL    HW313857   6.199   4.272   3.326  1.2101  0.6826 -2.2540
 3521SOL    MW413858   6.127   4.310   3.293 -0.1896 -0.2022 -0.4396
 3522SOL     OW13859   2.219   6.039   5.025  0.1335  0.2125 -0.2764
 3522SOL    HW213860   2.224   6.099   4.950  1.3178 -0.9323 -1.1400
 3522SOL    HW313861   2.149   5.979   5.003 -1.1590  1.3019  0.6600
 3522SOL    MW413862   2.210   6.039   5.012  0.1192  0.2052 -0.2668
 3523SOL     OW13863   1.084   3.158   1.812  0.0821  0.2098 -0.3742
 3523SOL    HW213864   1.083   3.220   1.739 -0.3350  2.5525  1.5045
 3523SOL    HW313865   1.164   3.178   1.860 -0.3486 -0.2902  0.5863
 3523SOL    MW413866   1.094   3.169   1.809 -0.0298  0.4529  0.0004
 3524SOL     OW13867   3.460   2.430   2.104  0.1867  0.4205  0.1788
 3524SOL    HW213868   3.451   2.380   2.022 -0.6515  0.7140  0.0858
 3524SOL    HW313869   3.396   2.390   2.163  0.6796  0.3148  0.6462
 3524SOL    MW413870   3.450   2.418   2.101  0.1411  0.4453  0.2282
 3525SOL     OW13871   4.319   0.713   2.024 -0.1917  0.4549  0.8267
 3525SOL    HW213872   4.317   0.802   1.988 -1.9784 -0.5957 -2.0210
 3525SOL    HW313873   4.409   0.684   2.010  0.1721  1.4785  0.9153
 3525SOL    MW413874   4.330   0.721   2.017 -0.3795  0.4514  0.4627
 3526SOL     OW13875   4.556   0.148   4.129 -0.0533  0.6634  0.2260
 3526SOL    HW213876   4.623   0.162   4.062  1.1322  0.8465  1.4065
 3526SOL    HW313877   4.581   0.066   4.171 -2.1000 -0.6933 -1.0148
 3526SOL    MW413878   4.568   0.139   4.126 -0.1670  0.5086  0.2181
 3527SOL     OW13879   3.059   0.884   5.305 -0.2061 -0.2430  0.5786
 3527SOL    HW213880   3.094   0.795   5.312  0.4405 -0.1708 -1.1869
 3527SOL    HW313881   2.964   0.873   5.317 -0.1268 -1.1512  0.4785
 3527SOL    MW413882   3.051   0.871   5.308 -0.1103 -0.3533  0.3325
 3528SOL     OW13883   6.047   3.139   1.968  0.2328  0.2399 -0.4819
 3528SOL    HW213884   5.959   3.176   1.964 -0.4156 -1.3377 -2.8416
 3528SOL    HW313885   6.048   3.086   2.048 -0.9244  0.2812 -0.4358
 3528SOL    MW413886   6.036   3.137   1.978 -0.0054  0.0372 -0.7871
 3529SOL     OW13887   4.220   4.651   1.129  0.1569  0.0587 -0.2392
 3529SOL    HW213888   4.235   4.560   1.104  1.1678  0.2055 -0.2054
 3529SOL    HW313889   4.152   4.682   1.069 -0.0476 -0.6535 -0.3782
 3529SOL    MW413890   4.213   4.643   1.118  0.2633 -0.0159 -0.2531
 3530SOL     OW13891   4.224   5.697   5.342 -0.3295 -0.2285 -0.0899
 3530SOL    HW213892   4.244   5.607   5.317 -2.4133 -1.0904  1.0426
 3530SOL    HW313893   4.227   5.746   5.260  1.5006 -1.1583 -0.6222
 3530SOL    MW413894   4.227   5.691   5.328 -0.3630 -0.4649 -0.0107
 3531SOL     OW13895   1.094   2.263   1.797 -0.5155 -0.1043  0.1370
 3531SOL    HW213896   1.166   2.200   1.791  0.0691  0.4187  1.3358
 3531SOL    HW313897   1.018   2.212   1.823  0.3976 -0.0792  3.1662
 3531SOL    MW413898   1.094   2.248   1.799 -0.3179 -0.0320  0.6948
 3532SOL     OW13899   6.267   3.910   4.924 -0.3875 -0.4118 -0.0298
 3532SOL    HW213900   6.316   3.861   4.859  0.6253  0.4320  0.0794
 3532SOL    HW313901   6.265   4.000   4.890 -2.3295 -0.5135 -0.3039
 3532SOL    MW413902   6.273   3.915   4.911 -0.5101 -0.3139 -0.0516
 3533SOL     OW13903   5.058   5.785   0.860 -0.4631 -0.4755 -0.6064
 3533SOL    HW213904   4.974   5.775   0.905 -0.0821 -0.4799  0.1098
 3533SOL    HW313905   5.080   5.697   0.829 -0.9987 -0.3728 -1.3128
 3533SOL    MW413906   5.050   5.772   0.862 -0.4835 -0.4625 -0.6051
 3534SOL     OW13907   1.435   3.230   5.689 -0.5446  0.1960 -0.1050
 3534SOL    HW213908   1.354   3.222   5.639 -0.3663 -0.9267 -0.2302
 3534SOL    HW313909   1.500   3.180   5.639 -0.2420 -0.5270  0.9705
 3534SOL    MW413910   1.433   3.223   5.676 -0.4812 -0.0475  0.0204
 3535SOL     OW13911   5.661   3.133   4.754  0.1214 -0.2801 -0.1497
 3535SOL    HW213912   5.749   3.167   4.737  0.9597 -1.7239  1.0646
 3535SOL    HW313913   5.604   3.186   4.698  1.8507  0.0705 -1.6833
 3535SOL    MW413914   5.665   3.145   4.744  0.4602 -0.4243 -0.1918
 3536SOL     OW13915   3.269   4.168   4.750  0.5253  0.6339  0.5983
 3536SOL    HW213916   3.363   4.165   4.735  0.6721 -1.1525  1.5026
 3536SOL    HW313917   3.254   4.100   4.817 -1.3679  1.0238  0.6207
 3536SOL    MW413918   3.279   4.159   4.757  0.2949  0.4496  0.7205
 3537SOL     OW13919   3.612   1.319   4.567  0.6252  0.4030 -0.1388
 3537SOL    HW213920   3.649   1.372   4.497  0.6658  3.0208  1.7221
 3537SOL    HW313921   3.687   1.270   4.602  0.4191 -1.8386 -2.4799
 3537SOL    MW413922   3.627   1.319   4.562  0.6033  0.4526 -0.2022
 3538SOL     OW13923   2.045   1.057   6.422  0.1342 -0.3055 -0.1031
 3538SOL    HW213924   2.141   1.056   6.424  0.2179  2.1157 -0.5404
 3538SOL    HW313925   2.021   0.964   6.416  2.4674 -0.9190 -1.2227
 3538SOL    MW413926   2.055   1.044   6.421  0.4531 -0.0670 -0.3085
 3539SOL     OW13927   2.285   4.896   2.683  0.2128  0.3882  0.5847
 3539SOL    HW213928   2.307   4.806   2.704  2.1063  0.4343 -0.9384
 3539SOL    HW313929   2.326   4.912   2.598 -0.1228  2.6701  0.7715
 3539SOL    MW413930   2.293   4.886   2.674  0.4184  0.6954  0.4084
 3540SOL     OW13931   4.352   3.373   0.687 -0.0942 -0.2647 -0.2494
 3540SOL    HW213932   4.412   3.436   0.727 -0.1806 -0.0949 -0.3880
 3540SOL    HW313933   4.314   3.420   0.613 -0.2003 -0.4615 -0.3188
 3540SOL    MW413934   4.355   3.388   0.683 -0.1196 -0.2682 -0.2768
 3541SOL     OW13935   3.707   2.060   4.316  0.0874  0.0191  0.1377
 3541SOL    HW213936   3.678   2.108   4.238 -1.3433 -0.0567  0.5972
 3541SOL    HW313937   3.792   2.024   4.291  0.1757  0.9294 -0.9957
 3541SOL    MW413938   3.714   2.062   4.302 -0.0898  0.1292  0.0488
 3542SOL     OW13939   5.661   5.253   1.114  0.3055  0.0496 -0.1682
 3542SOL    HW213940   5.585   5.199   1.093 -0.8213  1.2593  0.6604
 3542SOL    HW313941   5.696   5.215   1.194  0.2938 -0.2356 -0.2974
 3542SOL    MW413942   5.655   5.241   1.122  0.1553  0.1716 -0.0759
 3543SOL     OW13943   5.151   4.343   1.367 -0.3998 -0.5205 -0.4628
 3543SOL    HW213944   5.212   4.314   1.299 -0.8142  2.6609 -2.4060
 3543SOL    HW313945   5.156   4.275   1.434  2.0561 -2.5119 -2.4393
 3543SOL    MW413946   5.160   4.330   1.367 -0.1305 -0.3635 -0.9800
 3544SOL     OW13947   1.774   3.465   0.996  0.6956  0.6720  0.1056
 3544SOL    HW213948   1.832   3.430   0.929 -0.9633 -0.7109 -0.7045
 3544SOL    HW313949   1.705   3.399   1.004 -0.2629  1.8007  1.6791
 3544SOL    MW413950   1.772   3.452   0.988  0.3502  0.6385  0.2063
 3545SOL     OW13951   2.758   3.677   6.166 -0.1439  0.3236  0.7207
 3545SOL    HW213952   2.675   3.718   6.139 -0.3501  0.0990  1.0062
 3545SOL    HW313953   2.774   3.712   6.254 -0.3235 -0.2097  0.9661
 3545SOL    MW413954   2.749   3.687   6.174 -0.1948  0.2236  0.7907
 3546SOL     OW13955   0.761   3.386   0.385 -0.0078  0.0088  0.3149
 3546SOL    HW213956   0.795   3.339   0.308 -2.0265  1.0063 -1.2720
 3546SOL    HW313957   0.799   3.473   0.378  0.4918 -0.1507  0.9649
 3546SOL    MW413958   0.771   3.391   0.374 -0.2082  0.1194  0.1913
 3547SOL     OW13959   1.298   5.306   6.033  0.0235 -0.5686 -0.0787
 3547SOL    HW213960   1.342   5.365   5.972  0.6913 -1.7733 -0.7900
 3547SOL    HW313961   1.223   5.357   6.066  0.6032  0.6749 -0.6294
 3547SOL    MW413962   1.294   5.320   6.030  0.1881 -0.5635 -0.2452
 3548SOL     OW13963   3.205   1.633   5.225  0.0932  0.2219 -1.3044
 3548SOL    HW213964   3.298   1.608   5.220 -0.2769 -1.0471 -2.5654
 3548SOL    HW313965   3.172   1.622   5.136 -1.1191  1.3633 -1.0306
 3548SOL    MW413966   3.213   1.628   5.213 -0.1156  0.2050 -1.4346
 3549SOL     OW13967   3.174   6.036   2.901 -0.2301  0.2551 -0.0169
 3549SOL    HW213968   3.266   6.038   2.875 -0.7039  0.4942 -1.8106
 3549SOL    HW313969   3.171   5.974   2.974  0.7994 -2.6767 -2.2944
 3549SOL    MW413970   3.186   6.028   2.907 -0.1568 -0.1002 -0.5540
 3550SOL     OW13971   2.182   3.593   2.765  0.0187  0.0633  0.2939
 3550SOL    HW213972   2.097   3.559   2.794  0.6839 -0.8764  1.1731
 3550SOL    HW313973   2.215   3.641   2.841  0.4495  0.0982  0.0855
 3550SOL    MW413974   2.175   3.595   2.779  0.1633 -0.0561  0.3824
 3551SOL     OW13975   3.213   5.454   2.130 -0.0458 -0.5558 -0.0523
 3551SOL    HW213976   3.154   5.418   2.064 -1.5324  2.6856 -0.6995
 3551SOL    HW313977   3.180   5.420   2.213  0.9105 -3.4640 -0.7545
 3551SOL    MW413978   3.200   5.445   2.132 -0.1158 -0.5118 -0.2304
 3552SOL     OW13979   5.837   3.871   4.781 -0.6848 -0.5192  0.0447
 3552SOL    HW213980   5.890   3.859   4.859  0.5218  0.8591 -0.5053
 3552SOL    HW313981   5.749   3.891   4.813 -0.2227 -0.0628  1.0455
 3552SOL    MW413982   5.832   3.872   4.795 -0.4646 -0.2771  0.1042
 3553SOL     OW13983   3.329   2.454   1.616 -0.8924  0.4673 -0.0836
 3553SOL    HW213984   3.307   2.547   1.615 -0.0806  0.7708  2.4076
 3553SOL    HW313985   3.251   2.412   1.652 -0.7524  0.3632  0.0995
 3553SOL    MW413986   3.316   2.461   1.621 -0.7668  0.4936  0.2692
 3554SOL     OW13987   2.647   6.046   5.572 -0.2211 -0.2682  0.3511
 3554SOL    HW213988   2.582   6.082   5.512  0.5699 -0.6747 -0.7879
 3554SOL    HW313989   2.684   5.971   5.525  2.5758  1.1825 -0.0388
 3554SOL    MW413990   2.643   6.041   5.558  0.2523 -0.1304  0.1494
 3555SOL     OW13991   5.589   0.961   1.833  0.2907 -0.2120  0.4210
 3555SOL    HW213992   5.572   0.869   1.851 -0.5000 -0.3682 -0.9194
 3555SOL    HW313993   5.502   0.998   1.816  0.5817  0.8345  1.1666
 3555SOL    MW413994   5.575   0.954   1.833  0.2248 -0.0946  0.3425
 3556SOL     OW13995   5.279   4.355   5.717 -0.3212  0.3362 -0.0554
 3556SOL    HW213996   5.297   4.282   5.657  0.2481  0.4814 -0.0644
 3556SOL    HW313997   5.304   4.321   5.803  0.1361  0.5890 -0.0880
 3556SOL    MW413998   5.285   4.341   5.721 -0.1857  0.3887 -0.0609
 3557SOL     OW13999   2.278   4.100   3.071 -0.0155  0.0511 -0.3556
 3557SOL    HW214000   2.296   4.061   2.986  1.2034 -1.4041  0.5227
 3557SOL    HW314001   2.320   4.186   3.068  0.7446 -0.3370 -0.9195
 3557SOL    MW414002   2.286   4.106   3.060  0.2456 -0.1921 -0.3141
 3558SOL     OW14003   5.131   4.326   1.980 -0.1039 -0.0509 -0.4678
 3558SOL    HW214004   5.166   4.340   2.068  0.1327 -3.2894  0.0879
 3558SOL    HW314005   5.063   4.393   1.971  0.4346  0.9252  1.8309
 3558SOL    MW414006   5.127   4.337   1.991 -0.0016 -0.3494 -0.0912
 3559SOL     OW14007   1.353   4.887   0.103  0.0022 -0.8749  0.2062
 3559SOL    HW214008   1.423   4.949   0.120  0.2912 -0.6438 -1.5958
 3559SOL    HW314009   1.275   4.941   0.089 -0.0915 -1.0132  0.1875
 3559SOL    MW414010   1.352   4.902   0.103  0.0280 -0.8626 -0.0340
 3560SOL     OW14011   2.387   2.010   5.335 -0.0144 -0.0949 -0.0630
 3560SOL    HW214012   2.459   2.062   5.300 -0.6093 -0.8963 -2.6782
 3560SOL    HW314013   2.430   1.931   5.370  0.4171 -0.6728 -1.8088
 3560SOL    MW414014   2.402   2.006   5.335 -0.0360 -0.2769 -0.6384
 3561SOL     OW14015   3.116   5.964   5.662 -0.3250 -0.2687  0.0818
 3561SOL    HW214016   3.053   5.934   5.596  0.8503 -0.5745 -0.9422
 3561SOL    HW314017   3.096   6.057   5.674 -2.1775 -0.7620  1.1964
 3561SOL    MW414018   3.105   5.972   5.654 -0.4144 -0.3741  0.0938
 3562SOL     OW14019   2.843   1.308   5.432 -0.0357 -0.1303 -0.1938
 3562SOL    HW214020   2.864   1.267   5.515 -0.8968 -2.5528 -1.0835
 3562SOL    HW314021   2.796   1.387   5.455  0.1718 -0.4908  1.6088
 3562SOL    MW414022   2.840   1.313   5.446 -0.1219 -0.4975 -0.0734
 3563SOL     OW14023   5.119   0.805   5.713 -0.9688 -0.1738  0.7702
 3563SOL    HW214024   5.090   0.894   5.735 -2.1565 -0.3728  0.0873
 3563SOL    HW314025   5.214   0.813   5.702 -1.2965  1.5501 -1.6509
 3563SOL    MW414026   5.128   0.818   5.714 -1.1687  0.0274  0.3607
 3564SOL     OW14027   6.306   4.994   0.308  0.3049  0.4855  0.6694
 3564SOL    HW214028   6.383   4.967   0.359  1.2560 -0.0961 -0.9981
 3564SOL    HW314029   6.290   4.920   0.249 -0.4815  1.3228 -0.1889
 3564SOL    MW414030   6.314   4.980   0.307  0.3266  0.5192  0.3362
 3565SOL     OW14031   3.283   3.316   5.589  0.2450 -0.1271 -0.3089
 3565SOL    HW214032   3.294   3.361   5.673 -0.3174  0.1094 -0.3559
 3565SOL    HW314033   3.310   3.226   5.606 -0.7476 -0.3112  0.3804
 3565SOL    MW414034   3.288   3.310   5.602  0.0398 -0.1202 -0.2242
 3566SOL     OW14035   1.893   1.616   5.380  0.5945 -0.1072  0.0276
 3566SOL    HW214036   1.957   1.677   5.342  2.5410 -1.1574  1.4274
 3566SOL    HW314037   1.888   1.544   5.317 -0.4856  0.7229 -0.8613
 3566SOL    MW414038   1.901   1.614   5.367  0.7088 -0.1362  0.0950
 3567SOL     OW14039   4.882   0.989   4.673 -1.0574  0.1077 -0.1447
 3567SOL    HW214040   4.813   0.926   4.695 -1.3248  0.7875  1.0447
 3567SOL    HW314041   4.875   1.056   4.740  0.4380  0.4649 -0.3175
 3567SOL    MW414042   4.872   0.989   4.685 -0.8954  0.2446 -0.0106
 3568SOL     OW14043   4.791   5.833   4.081  0.1972 -0.1117  0.1000
 3568SOL    HW214044   4.740   5.760   4.117  0.7842 -1.5342 -1.7524
 3568SOL    HW314045   4.862   5.846   4.145  0.4235 -1.5915  0.2010
 3568SOL    MW414046   4.794   5.825   4.094  0.3045 -0.4946 -0.1310
 3569SOL     OW14047   2.072   1.376   0.600 -0.5080 -0.0979 -0.2309
 3569SOL    HW214048   1.999   1.377   0.538 -0.4430 -0.1141 -0.3087
 3569SOL    HW314049   2.043   1.431   0.673 -0.4632  0.1731 -0.4148
 3569SOL    MW414050   2.058   1.383   0.601 -0.4935 -0.0643 -0.2654
 3570SOL     OW14051   3.370   5.791   1.394  0.5910  0.1302  0.0899
 3570SOL    HW214052   3.326   5.766   1.313 -1.4120  2.4382  0.3431
 3570SOL    HW314053   3.303   5.783   1.462  1.4544  0.7702  1.0531
 3570SOL    MW414054   3.355   5.787   1.392  0.4407  0.5192  0.2504
 3571SOL     OW14055   4.867   5.116   2.309  0.6634  0.1024  0.0506
 3571SOL    HW214056   4.932   5.048   2.323  2.5310  1.7927  0.1158
 3571SOL    HW314057   4.885   5.181   2.378 -1.1308  0.6051  0.0891
 3571SOL    MW414058   4.878   5.116   2.320  0.6730  0.3917  0.0643
 3572SOL     OW14059   3.813   5.159   1.805 -0.5556 -0.0105  0.4832
 3572SOL    HW214060   3.799   5.129   1.895  1.2432  0.8609  1.1046
 3572SOL    HW314061   3.905   5.185   1.803 -0.9657  1.4665 -1.1811
 3572SOL    MW414062   3.823   5.159   1.817 -0.3724  0.2993  0.3456
 3573SOL     OW14063   3.553   1.137   1.584 -0.4701 -0.3697 -0.4012
 3573SOL    HW214064   3.535   1.215   1.531 -0.5631 -0.3126 -0.2861
 3573SOL    HW314065   3.549   1.168   1.675  1.4759 -0.0586 -0.3645
 3573SOL    MW414066   3.550   1.151   1.589 -0.2256 -0.3211 -0.3812
 3574SOL     OW14067   0.817   5.313   4.700 -0.3490 -0.2362 -0.2439
 3574SOL    HW214068   0.880   5.374   4.737 -0.0275 -0.6477 -0.1064
 3574SOL    HW314069   0.857   5.284   4.618 -0.2321 -0.7060 -0.0219
 3574SOL    MW414070   0.830   5.317   4.694 -0.2912 -0.3525 -0.1965
 3575SOL     OW14071   2.110   5.971   3.892 -0.3381  0.4626 -0.3785
 3575SOL    HW214072   2.074   6.042   3.946  2.8625  0.9719  1.3553
 3575SOL    HW314073   2.125   6.012   3.806  0.1400  1.5130  0.1797
 3575SOL    MW414074   2.108   5.986   3.888  0.1473  0.6684 -0.0761
 3576SOL     OW14075   1.487   4.480   2.539 -0.3289 -0.6410 -0.2059
 3576SOL    HW214076   1.506   4.517   2.626 -1.2894  0.2327 -0.3460
 3576SOL    HW314077   1.393   4.467   2.539 -0.4637  0.1466 -1.3970
 3576SOL    MW414078   1.477   4.483   2.551 -0.4734 -0.4218 -0.3815
 3577SOL     OW14079   4.500   5.550   1.854  0.2967 -0.2390 -0.1717
 3577SOL    HW214080   4.456   5.531   1.937  0.8517  0.0110  0.1908
 3577SOL    HW314081   4.434   5.533   1.787 -0.9836  1.8838  0.4275
 3577SOL    MW414082   4.485   5.545   1.856  0.2010  0.0741 -0.0448
 3578SOL     OW14083   1.845   2.866   4.595  0.0872  0.2618 -0.0329
 3578SOL    HW214084   1.874   2.940   4.543 -0.7107 -0.2183 -1.1838
 3578SOL    HW314085   1.764   2.895   4.637  0.2161  0.3156  0.1836
 3578SOL    MW414086   1.838   2.880   4.594 -0.0011  0.2055 -0.1561
 3579SOL     OW14087   0.310   0.459   4.901 -0.0416  0.3041  0.1486
 3579SOL    HW214088   0.240   0.405   4.938  0.5318 -0.0007  0.8289
 3579SOL    HW314089   0.293   0.460   4.807 -0.5952 -0.2843  0.2355
 3579SOL    MW414090   0.299   0.452   4.893 -0.0390  0.1863  0.2498
 3580SOL     OW14091   1.577   4.217   2.461  0.4512 -0.3301 -0.2318
 3580SOL    HW214092   1.656   4.194   2.510 -0.8351 -0.2886  2.0356
 3580SOL    HW314093   1.557   4.306   2.491 -1.5321 -1.0819  0.8460
 3580SOL    MW414094   1.585   4.226   2.471  0.0198 -0.4238  0.2096
 3581SOL     OW14095   6.087   3.188   2.465 -0.4821  0.9046 -0.2003
 3581SOL    HW214096   6.109   3.098   2.441 -0.4729  1.0354 -0.6809
 3581SOL    HW314097   6.050   3.226   2.386  0.1669  1.5408 -0.2106
 3581SOL    MW414098   6.085   3.181   2.451 -0.3952  1.0058 -0.2651
 3582SOL     OW14099   6.246   0.890   3.724  0.4529  0.0550 -0.3643
 3582SOL    HW214100   6.252   0.869   3.631  0.5776  1.0105 -0.5861
 3582SOL    HW314101   6.190   0.968   3.728  1.1612  0.5480  0.2740
 3582SOL    MW414102   6.239   0.898   3.713  0.5628  0.2461 -0.3094
 3583SOL     OW14103   3.960   5.304   1.075 -0.4976 -0.0119  0.0117
 3583SOL    HW214104   3.865   5.313   1.071 -0.5284  0.4345  1.2898
 3583SOL    HW314105   3.994   5.382   1.032 -0.7364  0.7047  1.0703
 3583SOL    MW414106   3.952   5.315   1.069 -0.5332  0.1416  0.3200
 3584SOL     OW14107   6.037   1.314   1.850 -0.0940  0.1270  0.4300
 3584SOL    HW214108   6.091   1.237   1.869 -0.4192 -0.3984 -0.6790
 3584SOL    HW314109   5.956   1.300   1.898 -1.4943 -1.8873 -2.2342
 3584SOL    MW414110   6.034   1.302   1.859 -0.3217 -0.2081 -0.0678
 3585SOL     OW14111   3.768   2.254   4.091 -0.0969  0.2681 -0.0514
 3585SOL    HW214112   3.702   2.265   4.023  0.0440 -3.7265 -1.1404
 3585SOL    HW314113   3.850   2.238   4.043  0.5639  0.0286  1.1104
 3585SOL    MW414114   3.770   2.253   4.076  0.0089 -0.2905 -0.0418
 3586SOL     OW14115   6.353   2.494   4.780 -0.1891 -0.2084  0.2018
 3586SOL    HW214116   6.424   2.536   4.828 -1.1378  0.6609  0.8878
 3586SOL    HW314117   6.373   2.401   4.782  0.7157 -0.0059  0.7227
 3586SOL    MW414118   6.365   2.488   4.786 -0.1949 -0.0670  0.3611
 3587SOL     OW14119   0.302   4.180   2.694  0.2889 -0.1941  0.2425
 3587SOL    HW214120   0.322   4.249   2.630 -1.2203  0.8466  0.8419
 3587SOL    HW314121   0.295   4.226   2.777  0.7799 -1.3287  0.9289
 3587SOL    MW414122   0.304   4.195   2.696  0.1546 -0.2065  0.4122
 3588SOL     OW14123   0.873   1.710   1.828 -0.0426  0.2117 -0.1915
 3588SOL    HW214124   0.952   1.699   1.882 -0.4333  1.6915  0.7197
 3588SOL    HW314125   0.864   1.626   1.784  1.8178 -0.1440 -0.0119
 3588SOL    MW414126   0.882   1.697   1.830  0.1513  0.3600 -0.0476
 3589SOL     OW14127   5.715   4.193   0.405 -0.5133 -0.3347  0.1610
 3589SOL    HW214128   5.746   4.116   0.452 -0.3085 -0.2901  0.0993
 3589SOL    HW314129   5.756   4.187   0.319  0.1995  0.3021  0.4479
 3589SOL    MW414130   5.724   4.182   0.400 -0.3923 -0.2448  0.1907
 3590SOL     OW14131   4.136   1.883   5.866 -0.2399  0.2740  0.1828
 3590SOL    HW214132   4.224   1.870   5.899 -0.0250  0.9594 -0.0955
 3590SOL    HW314133   4.107   1.796   5.837 -0.8226 -0.5935  3.0304
 3590SOL    MW414134   4.144   1.870   5.867 -0.2884  0.2499  0.5218
 3591SOL     OW14135   1.871   3.970   4.837 -0.6241  0.2506 -0.0200
 3591SOL    HW214136   1.881   4.058   4.873  2.9329 -0.0059 -0.0450
 3591SOL    HW314137   1.821   3.923   4.904  2.4713  0.8071  2.9185
 3591SOL    MW414138   1.865   3.976   4.851  0.2536  0.2902  0.3644
 3592SOL     OW14139   0.452   1.740   1.039 -0.2583  0.2207 -0.2026
 3592SOL    HW214140   0.480   1.775   0.955 -0.6764  1.9870  0.3318
 3592SOL    HW314141   0.367   1.783   1.055  0.6796  1.4707  1.9563
 3592SOL    MW414142   0.444   1.751   1.030 -0.1897  0.6187  0.1527
 3593SOL     OW14143   3.758   4.398   2.774  0.1984 -0.2612  0.3602
 3593SOL    HW214144   3.669   4.432   2.770 -0.1539 -1.1655  0.4225
 3593SOL    HW314145   3.789   4.423   2.861 -0.1134 -0.2298  0.4632
 3593SOL    MW414146   3.750   4.406   2.785  0.1108 -0.3763  0.3820
 3594SOL     OW14147   0.732   6.090   0.319  0.0511  0.1174 -0.2349
 3594SOL    HW214148   0.766   6.050   0.239  0.5931  0.3278 -0.1145
 3594SOL    HW314149   0.737   6.021   0.385  0.9031  0.3412 -0.0492
 3594SOL    MW414150   0.737   6.076   0.317  0.2350  0.1747 -0.1945
 3595SOL     OW14151   1.105   5.664   3.394 -0.5502 -0.2896  0.0281
 3595SOL    HW214152   1.105   5.642   3.301 -1.5123  1.8738 -0.5525
 3595SOL    HW314153   1.023   5.629   3.428 -0.2829 -0.9219  0.0192
 3595SOL    MW414154   1.094   5.657   3.386 -0.6419 -0.0876 -0.0497
 3596SOL     OW14155   0.135   3.734   4.858  0.5851  0.5913 -0.1204
 3596SOL    HW214156   0.201   3.772   4.915  0.3551  0.9570 -0.0955
 3596SOL    HW314157   0.176   3.734   4.771  1.0028 -0.1318  0.0648
 3596SOL    MW414158   0.149   3.739   4.854  0.6099  0.5442 -0.0927
 3597SOL     OW14159   3.577   6.071   0.497 -0.5140 -0.2568 -0.0704
 3597SOL    HW214160   3.592   5.978   0.480 -0.2931 -0.5304  1.4596
 3597SOL    HW314161   3.652   6.115   0.455 -0.1375 -0.8498 -0.0331
 3597SOL    MW414162   3.589   6.065   0.489 -0.4351 -0.3711  0.1364
 3598SOL     OW14163   0.605   5.678   2.148 -0.4936  0.0624 -0.4653
 3598SOL    HW214164   0.514   5.649   2.156 -0.9311  0.8822 -2.0878
 3598SOL    HW314165   0.626   5.668   2.056  1.1404 -0.2384 -0.0968
 3598SOL    MW414166   0.596   5.673   2.137 -0.3357  0.1309 -0.6307
 3599SOL     OW14167   5.344   5.635   0.372 -0.3306 -0.2612  0.0338
 3599SOL    HW214168   5.414   5.605   0.431  0.2674  1.4970  0.2763
 3599SOL    HW314169   5.378   5.716   0.334 -1.1980 -0.7186 -1.8520
 3599SOL    MW414170   5.358   5.641   0.375 -0.3661 -0.0896 -0.1830
 3600SOL     OW14171   0.336   4.390   2.478  0.0099  0.0441 -0.4825
 3600SOL    HW214172   0.247   4.383   2.443 -0.4106 -1.2743  0.7332
 3600SOL    HW314173   0.392   4.362   2.406 -0.3214  2.8258 -1.9685
 3600SOL    MW414174   0.331   4.385   2.464 -0.0893  0.2372 -0.5182
 3601SOL     OW14175   3.636   3.298   4.340 -0.1554 -0.4482  0.3338
 3601SOL    HW214176   3.602   3.342   4.262 -2.5323 -1.4624  0.7052
 3601SOL    HW314177   3.567   3.307   4.405  1.3107 -0.5814  1.9961
 3601SOL    MW414178   3.623   3.305   4.338 -0.2755 -0.5996  0.6021
 3602SOL     OW14179   0.541   5.780   4.376 -0.7559 -0.0173  0.4708
 3602SOL    HW214180   0.537   5.789   4.281  0.7449  1.9937  0.5176
 3602SOL    HW314181   0.573   5.865   4.406  2.0455 -1.6197  2.4903
 3602SOL    MW414182   0.545   5.793   4.367 -0.1883  0.0366  0.7434
 3603SOL     OW14183   0.805   6.113   4.096 -0.5874  0.3607  0.3081
 3603SOL    HW214184   0.830   6.111   4.004  0.4127  1.2192  0.5426
 3603SOL    HW314185   0.851   6.038   4.135 -1.4060 -0.3053  0.0400
 3603SOL    MW414186   0.814   6.103   4.089 -0.5634  0.3861  0.3037
 3604SOL     OW14187   1.052   1.846   2.930 -0.2151  0.0812 -0.5555
 3604SOL    HW214188   1.016   1.863   3.016  1.3236  3.0412 -0.3608
 3604SOL    HW314189   1.146   1.834   2.945 -0.3068 -2.5266 -1.5496
 3604SOL    MW414190   1.060   1.847   2.943 -0.0242  0.1277 -0.6610
 3605SOL     OW14191   4.842   4.422   2.295 -0.2330 -0.3668 -0.5100
 3605SOL    HW214192   4.813   4.401   2.206 -1.3024  0.1525 -0.2888
 3605SOL    HW314193   4.762   4.428   2.346  0.4305 -3.5275  1.1952
 3605SOL    MW414194   4.828   4.420   2.290 -0.2866 -0.7153 -0.2558
 3606SOL     OW14195   2.916   3.988   6.148  0.3875  0.0667  0.2206
 3606SOL    HW214196   2.950   3.941   6.073 -0.5505 -0.6113  0.1971
 3606SOL    HW314197   2.948   3.939   6.224  1.3073  0.7321  0.2838
 3606SOL    MW414198   2.925   3.975   6.148  0.3851  0.0650  0.2258
 3607SOL     OW14199   0.943   2.481   5.695 -0.2765  1.3037 -0.1174
 3607SOL    HW214200   1.032   2.489   5.661 -0.0093  1.5391  0.6278
 3607SOL    HW314201   0.954   2.446   5.783 -1.0026 -0.1785 -0.5695
 3607SOL    MW414202   0.956   2.477   5.702 -0.3371  1.1392 -0.0788
 3608SOL     OW14203   1.434   0.068   5.994 -0.0987  0.7012 -0.5577
 3608SOL    HW214204   1.499   0.011   5.952 -0.7345 -1.9765  1.8165
 3608SOL    HW314205   1.481   0.107   6.068 -0.3735  1.2894 -0.6854
 3608SOL    MW414206   1.449   0.066   5.998 -0.2188  0.4255 -0.2613
 3609SOL     OW14207   2.123   1.256   2.257  0.6054 -0.1886 -0.0234
 3609SOL    HW214208   2.193   1.284   2.198  0.5950 -2.6261 -1.3384
 3609SOL    HW314209   2.050   1.236   2.199 -0.1845 -0.4808  1.0541
 3609SOL    MW414210   2.123   1.257   2.242  0.4998 -0.5488 -0.0547
 3610SOL     OW14211   0.525   1.878   0.273  0.3030  0.1645 -0.2923
 3610SOL    HW214212   0.583   1.822   0.221 -0.8797 -1.9148  0.5223
 3610SOL    HW314213   0.584   1.931   0.326  1.4813 -1.1804 -0.2088
 3610SOL    MW414214   0.540   1.878   0.273  0.3024 -0.2873 -0.1738
 3611SOL     OW14215   4.114   4.386   4.585  0.8493  0.3161 -0.0784
 3611SOL    HW214216   4.109   4.469   4.631 -0.4542 -0.0732  0.5289
 3611SOL    HW314217   4.023   4.358   4.575  1.2182 -0.6407 -1.0042
 3611SOL    MW414218   4.101   4.393   4.590  0.7260  0.1385 -0.1204
 3612SOL     OW14219   3.153   4.701   4.754 -0.7766  0.2250  0.2622
 3612SOL    HW214220   3.128   4.614   4.723 -1.1444  0.3839  0.1146
 3612SOL    HW314221   3.248   4.694   4.769 -0.8821 -0.3485  0.7266
 3612SOL    MW414222   3.162   4.688   4.752 -0.8390  0.1703  0.3040
 3613SOL     OW14223   0.042   5.261   2.808 -0.0148 -0.1916 -0.4981
 3613SOL    HW214224   0.061   5.168   2.823 -1.7684 -0.6039 -0.6443
 3613SOL    HW314225   0.059   5.274   2.715 -1.2049 -0.7554 -0.8091
 3613SOL    MW414226   0.047   5.250   2.798 -0.4032 -0.3204 -0.5584
 3614SOL     OW14227   5.851   0.418   1.415 -0.0681 -0.2246 -0.3313
 3614SOL    HW214228   5.856   0.335   1.367  1.9318 -0.1081 -0.4097
 3614SOL    HW314229   5.918   0.410   1.483  0.0578  1.2655 -0.2564
 3614SOL    MW414230   5.860   0.406   1.417  0.2124 -0.0127 -0.3317
 3615SOL     OW14231   5.566   5.274   5.017 -0.6696  0.1429  0.1860
 3615SOL    HW214232   5.586   5.257   5.109  1.6954 -0.3505 -0.3554
 3615SOL    HW314233   5.582   5.368   5.006  1.4782 -0.2409 -0.2322
 3615SOL    MW414234   5.570   5.284   5.028 -0.0742  0.0272  0.0594
 3616SOL     OW14235   2.357   4.483   4.043 -0.0451 -0.8122 -0.2263
 3616SOL    HW214236   2.440   4.499   3.999  0.1196  0.4259  0.4579
 3616SOL    HW314237   2.290   4.514   3.982 -0.1231 -2.8732 -1.2610
 3616SOL    MW414238   2.359   4.489   4.029 -0.0336 -0.9208 -0.2725
 3617SOL     OW14239   5.904   1.733   2.307  0.5332  0.0463  0.6708
 3617SOL    HW214240   5.823   1.782   2.322 -0.3413 -1.1736  0.0786
 3617SOL    HW314241   5.877   1.657   2.256  2.1923  0.0407 -0.2696
 3617SOL    MW414242   5.890   1.730   2.302  0.6367 -0.1154  0.4686
 3618SOL     OW14243   1.913   0.139   0.334  0.8240  0.4088  0.8131
 3618SOL    HW214244   1.946   0.078   0.268 -0.4748 -0.7675  1.2003
 3618SOL    HW314245   1.990   0.161   0.387  1.5760  0.1732 -0.1519
 3618SOL    MW414246   1.928   0.134   0.332  0.7519  0.2225  0.7369
 3619SOL     OW14247   0.274   2.096   3.205  0.2520  0.0569  0.3498
 3619SOL    HW214248   0.346   2.109   3.144 -0.9336  3.7417 -0.5258
 3619SOL    HW314249   0.273   2.175   3.259 -1.4567 -1.1283  2.2325
 3619SOL    MW414250   0.283   2.108   3.204 -0.1299  0.3867  0.4826
 3620SOL     OW14251   0.618   5.538   2.822  0.2361  0.3824  0.5769
 3620SOL    HW214252   0.630   5.475   2.893  0.1964 -1.0824 -0.6473
 3620SOL    HW314253   0.551   5.598   2.854 -0.1343 -0.5340  1.5771
 3620SOL    MW414254   0.611   5.537   2.835  0.1820  0.0683  0.5473
 3621SOL     OW14255   3.970   3.998   0.771  0.5818 -0.6142  0.8470
 3621SOL    HW214256   3.926   4.010   0.856 -0.4784  0.7736  0.1380
 3621SOL    HW314257   3.915   3.935   0.725  0.1926 -0.0669  0.5537
 3621SOL    MW414258   3.957   3.991   0.776  0.3906 -0.3589  0.7148
 3622SOL     OW14259   3.677   5.954   5.398 -0.5728 -0.1433 -0.0273
 3622SOL    HW214260   3.683   6.013   5.473 -1.3265  0.2302 -0.2520
 3622SOL    HW314261   3.597   5.980   5.353  0.3557  0.3048 -1.5185
 3622SOL    MW414262   3.668   5.966   5.402 -0.5497 -0.0349 -0.2537
 3623SOL     OW14263   4.274   0.987   1.932 -0.0135  0.4083 -0.1856
 3623SOL    HW214264   4.356   1.006   1.886 -0.2521  0.1434 -0.7381
 3623SOL    HW314265   4.295   0.999   2.024  1.3734 -2.0822 -0.0801
 3623SOL    MW414266   4.288   0.991   1.938  0.1380  0.0448 -0.2446
 3624SOL     OW14267   0.954   1.086   5.569  0.3715  0.0516  0.5957
 3624SOL    HW214268   0.914   1.173   5.570  0.7298  0.2290  2.3620
 3624SOL    HW314269   0.926   1.048   5.485  0.4108  1.9302 -0.3229
 3624SOL    MW414270   0.945   1.093   5.558  0.4240  0.3229  0.7076
 3625SOL     OW14271   0.553   1.477   2.327  0.1698 -0.2471  0.7022
 3625SOL    HW214272   0.490   1.479   2.398  1.5204 -1.0296  1.9917
 3625SOL    HW314273   0.633   1.442   2.367  1.3435  0.4393 -0.9105
 3625SOL    MW414274   0.555   1.473   2.341  0.5029 -0.2598  0.6595
 3626SOL     OW14275   2.536   4.402   5.912  0.2664  0.1581 -0.1778
 3626SOL    HW214276   2.531   4.399   5.816  2.2149 -0.1356 -0.2964
 3626SOL    HW314277   2.468   4.342   5.941  0.8617 -1.1716 -1.4324
 3626SOL    MW414278   2.526   4.394   5.903  0.6021 -0.0561 -0.3590
 3627SOL     OW14279   3.037   6.324   0.309 -0.1093  0.2357 -0.6243
 3627SOL    HW214280   3.083   6.315   0.225  0.3060 -1.4368 -0.2379
 3627SOL    HW314281   3.044   6.417   0.330  2.9226  0.0979 -0.6754
 3627SOL    MW414282   3.044   6.335   0.300  0.3455 -0.0032 -0.5801
 3628SOL     OW14283   4.637   5.225   0.534 -0.1304  0.5338 -0.1415
 3628SOL    HW214284   4.551   5.210   0.497 -0.8883  0.5847  1.5036
 3628SOL    HW314285   4.698   5.207   0.462 -1.5508  2.8361 -2.0716
 3628SOL    MW414286   4.634   5.221   0.520 -0.4178  0.8443 -0.1791
 3629SOL     OW14287   2.154   5.316   4.616  0.1349  1.2194  0.1721
 3629SOL    HW214288   2.119   5.304   4.528  1.0743  1.5837 -0.2658
 3629SOL    HW314289   2.190   5.230   4.639 -0.4751  1.0147  0.3709
 3629SOL    MW414290   2.154   5.303   4.608  0.1783  1.2405  0.1405
 3630SOL     OW14291   4.578   1.593   1.450 -0.3883 -0.0739  0.1460
 3630SOL    HW214292   4.645   1.588   1.518 -0.1201 -1.0889 -0.1847
 3630SOL    HW314293   4.502   1.550   1.488 -0.6731  0.5382  0.2901
 3630SOL    MW414294   4.577   1.587   1.464 -0.3905 -0.1270  0.1214
 3631SOL     OW14295   5.768   4.440   0.915  0.4026 -0.1418  0.1943
 3631SOL    HW214296   5.755   4.345   0.908  0.6089 -0.3062  1.6158
 3631SOL    HW314297   5.711   4.477   0.848 -0.8262 -1.2105  0.5951
 3631SOL    MW414298   5.759   4.432   0.905  0.2677 -0.3045  0.4347
 3632SOL     OW14299   0.670   3.584   3.427 -0.0277 -0.0820  0.1261
 3632SOL    HW214300   0.686   3.509   3.484  2.9427 -0.0818 -0.5046
 3632SOL    HW314301   0.654   3.657   3.487  2.8969 -0.1044  1.1177
 3632SOL    MW414302   0.670   3.584   3.442  0.7501 -0.0849  0.1737
 3633SOL     OW14303   6.332   4.146   4.774  0.1228 -0.1467  0.2161
 3633SOL    HW214304   6.256   4.195   4.742  0.9431  1.7568  1.0232
 3633SOL    HW314305   6.404   4.172   4.717  0.3746 -1.2605  0.0013
 3633SOL    MW414306   6.331   4.155   4.763  0.2643 -0.0425  0.2943
 3634SOL     OW14307   1.966   0.152   4.869 -0.1233 -0.2253  0.3247
 3634SOL    HW214308   2.010   0.156   4.785 -0.9503  0.4825 -0.0872
 3634SOL    HW314309   1.971   0.241   4.904  0.7160 -0.6287  1.3025
 3634SOL    MW414310   1.973   0.164   4.863 -0.1217 -0.1851  0.3994
 3635SOL     OW14311   5.338   3.497   0.591  0.0187  0.3352 -0.0175
 3635SOL    HW214312   5.263   3.447   0.624 -0.2322  0.1923 -0.7771
 3635SOL    HW314313   5.404   3.432   0.571 -0.2396  0.3119 -0.8307
 3635SOL    MW414314   5.337   3.482   0.593 -0.0485  0.3133 -0.2250
 3636SOL     OW14315   3.406   4.327   3.433  0.0809  0.0761 -0.2391
 3636SOL    HW214316   3.416   4.415   3.396  0.2985  1.1480  2.1198
 3636SOL    HW314317   3.319   4.299   3.406  0.5617  0.3939 -2.2163
 3636SOL    MW414318   3.396   4.335   3.425  0.1731  0.2594 -0.1887
 3637SOL     OW14319   3.210   3.911   1.612 -0.1591 -0.1242  0.3204
 3637SOL    HW214320   3.277   3.979   1.608  1.2853 -1.4850  0.4077
 3637SOL    HW314321   3.248   3.837   1.565 -1.9358 -0.6988 -0.2866
 3637SOL    MW414322   3.224   3.911   1.606 -0.2030 -0.3796  0.2518
 3638SOL     OW14323   5.956   0.490   6.168  0.1327  0.5053  0.3119
 3638SOL    HW214324   5.898   0.566   6.174 -1.4495 -0.4147 -1.9932
 3638SOL    HW314325   5.896   0.415   6.164  1.4572 -0.5144 -1.9579
 3638SOL    MW414326   5.940   0.490   6.168  0.0987  0.2494 -0.2917
 3639SOL     OW14327   1.994   4.639   3.700  0.1251 -0.3307  0.0429
 3639SOL    HW214328   1.960   4.695   3.630  2.2484 -1.2628 -1.8857
 3639SOL    HW314329   1.972   4.550   3.673 -1.4015 -0.6213  2.0171
 3639SOL    MW414330   1.987   4.634   3.687  0.2038 -0.4920  0.0489
 3640SOL     OW14331   5.569   4.703   2.445 -0.3244  0.1185  0.2997
 3640SOL    HW214332   5.596   4.743   2.528 -0.5955  1.0881 -0.0687
 3640SOL    HW314333   5.512   4.768   2.405  0.5656  0.0826 -1.0861
 3640SOL    MW414334   5.565   4.717   2.451 -0.2428  0.2417  0.0682
 3641SOL     OW14335   5.612   0.991   2.466  0.2116  0.4712 -0.2639
 3641SOL    HW214336   5.669   0.935   2.517  1.7116  1.4728 -0.7611
 3641SOL    HW314337   5.535   0.937   2.447  0.6180 -0.6420  1.1099
 3641SOL    MW414338   5.609   0.977   2.470  0.4631  0.4565 -0.1483
 3642SOL     OW14339   0.551   4.581   4.071  0.3089  0.1632 -0.0573
 3642SOL    HW214340   0.606   4.583   3.992  1.5073 -0.2470  0.7339
 3642SOL    HW314341   0.599   4.634   4.134 -0.4021  0.0940  0.5530
 3642SOL    MW414342   0.565   4.588   4.069  0.3732  0.1000  0.1276
 3643SOL     OW14343   2.218   4.674   3.864  0.0248  0.2502  0.6598
 3643SOL    HW214344   2.154   4.650   3.797 -0.2333 -0.1421  1.0411
 3643SOL    HW314345   2.165   4.696   3.941  0.1035  4.0047 -0.1912
 3643SOL    MW414346   2.202   4.674   3.866  0.0012  0.6938  0.5978
 3644SOL     OW14347   1.687   0.501   3.239 -0.3249  0.4717  0.6062
 3644SOL    HW214348   1.680   0.408   3.220  0.4865  0.7799 -1.4507
 3644SOL    HW314349   1.644   0.512   3.324 -0.6296 -1.7195  0.7751
 3644SOL    MW414350   1.680   0.490   3.248 -0.2581  0.2233  0.3571
 3645SOL     OW14351   3.265   3.716   1.842 -0.4671  0.4283  0.0067
 3645SOL    HW214352   3.231   3.638   1.886  2.1031  0.3003  1.9969
 3645SOL    HW314353   3.204   3.731   1.770 -3.0581 -1.3303  1.6270
 3645SOL    MW414354   3.252   3.708   1.839 -0.4698  0.1794  0.4830
 3646SOL     OW14355   5.447   3.492   1.739 -0.9534  0.1469 -0.1940
 3646SOL    HW214356   5.370   3.445   1.772 -1.3757  1.3897  0.6293
 3646SOL    HW314357   5.413   3.573   1.702  0.0028  1.0392  0.7992
 3646SOL    MW414358   5.433   3.496   1.739 -0.8829  0.4286  0.0457
 3647SOL     OW14359   2.325   2.195   1.414 -0.1509  0.3293 -0.3703
 3647SOL    HW214360   2.415   2.168   1.398  0.5579  2.1243  0.2987
 3647SOL    HW314361   2.275   2.156   1.343  1.1948 -0.4645 -0.9152
 3647SOL    MW414362   2.330   2.186   1.403  0.1202  0.4614 -0.3539
 3648SOL     OW14363   4.843   2.430   5.880 -0.2337 -0.4208  0.1281
 3648SOL    HW214364   4.854   2.519   5.846  0.2325 -0.1062  1.0342
 3648SOL    HW314365   4.879   2.373   5.812 -3.7941 -0.2622 -2.1274
 3648SOL    MW414366   4.849   2.434   5.867 -0.6419 -0.3583 -0.0500
 3649SOL     OW14367   1.618   6.137   0.855  0.2752  0.2340 -0.4387
 3649SOL    HW214368   1.535   6.090   0.846 -0.6010  0.7077  3.3444
 3649SOL    HW314369   1.592   6.230   0.856  0.9814  0.4331 -0.2567
 3649SOL    MW414370   1.603   6.143   0.854  0.2528  0.3227  0.0844
 3650SOL     OW14371   1.068   3.189   3.789  0.2403  0.1370 -0.6720
 3650SOL    HW214372   1.005   3.150   3.849  0.7554 -0.1972 -0.3420
 3650SOL    HW314373   1.125   3.242   3.845  1.9675 -1.7423 -0.5428
 3650SOL    MW414374   1.067   3.191   3.804  0.5362 -0.1551 -0.6114
 3651SOL     OW14375   0.547   0.105   4.714  0.0308 -0.1023 -0.2818
 3651SOL    HW214376   0.636   0.095   4.681  0.6428 -0.5075  1.4414
 3651SOL    HW314377   0.509   0.017   4.710  0.3526 -0.2983  0.7339
 3651SOL    MW414378   0.554   0.092   4.709  0.1540 -0.1816  0.0795
 3652SOL     OW14379   0.414   2.421   2.905  0.0998  0.1791  0.7272
 3652SOL    HW214380   0.326   2.439   2.873 -0.3009 -0.4377  1.4440
 3652SOL    HW314381   0.445   2.504   2.940  0.4794  0.8282 -1.0380
 3652SOL    MW414382   0.407   2.434   2.905  0.0970  0.1834  0.5888
 3653SOL     OW14383   3.006   4.840   6.158 -0.7636 -0.3229 -0.1496
 3653SOL    HW214384   2.942   4.889   6.106 -1.3140 -0.6415  0.2241
 3653SOL    HW314385   3.005   4.752   6.121  1.1903  0.2345 -1.6970
 3653SOL    MW414386   2.997   4.835   6.146 -0.5785 -0.2914 -0.3045
 3654SOL     OW14387   3.757   3.107   1.886  0.2162 -0.3208  0.5726
 3654SOL    HW214388   3.664   3.126   1.898  0.2227  1.4598 -1.5909
 3654SOL    HW314389   3.781   3.152   1.805  2.9740 -0.7567  1.0363
 3654SOL    MW414390   3.748   3.115   1.877  0.5809 -0.1433  0.3483
 3655SOL     OW14391   1.030   5.557   1.254 -0.5702  0.2238  0.4821
 3655SOL    HW214392   0.954   5.613   1.237 -0.3357  0.5741  0.5929
 3655SOL    HW314393   0.992   5.474   1.283 -0.8992  0.6399  1.2821
 3655SOL    MW414394   1.015   5.553   1.256 -0.5827  0.3249  0.6023
 3656SOL     OW14395   5.133   0.183   1.165  0.0432 -0.0714  0.6151
 3656SOL    HW214396   5.221   0.146   1.156  0.2117  0.5060 -0.2442
 3656SOL    HW314397   5.130   0.255   1.102 -1.3437 -0.6202  0.0097
 3656SOL    MW414398   5.144   0.188   1.156 -0.1175 -0.0676  0.4219
 3657SOL     OW14399   3.364   3.771   5.221 -0.2261  0.3451 -0.1187
 3657SOL    HW214400   3.336   3.757   5.131  0.0939 -0.9685 -0.0240
 3657SOL    HW314401   3.297   3.729   5.274 -0.0941  0.5837  0.2390
 3657SOL    MW414402   3.352   3.764   5.216 -0.1664  0.2033 -0.0591
 3658SOL     OW14403   1.338   4.487   1.933  0.1911  0.2304  0.4197
 3658SOL    HW214404   1.267   4.544   1.904 -0.5375 -1.1222 -0.5863
 3658SOL    HW314405   1.316   4.465   2.024  0.1069  0.9569  0.5800
 3658SOL    MW414406   1.326   4.491   1.942  0.0839  0.1478  0.3081
 3659SOL     OW14407   2.594   5.729   1.479  0.2050 -0.0609  0.1508
 3659SOL    HW214408   2.593   5.825   1.476 -1.1231 -0.0314  0.8054
 3659SOL    HW314409   2.642   5.704   1.401  0.5354  1.1437 -0.0629
 3659SOL    MW414410   2.600   5.739   1.469  0.0734  0.1019  0.2090
 3660SOL     OW14411   5.668   6.223   0.030  0.2671  0.2367  0.5601
 3660SOL    HW214412   5.677   6.244  -0.063 -0.9608  3.1439  0.9717
 3660SOL    HW314413   5.754   6.243   0.068  0.4821  0.0066  0.1952
 3660SOL    MW414414   5.681   6.228   0.023  0.1334  0.5899  0.5663
 3661SOL     OW14415   4.452   2.816   4.634 -0.2170 -0.3702 -0.2857
 3661SOL    HW214416   4.532   2.773   4.663 -0.1288  0.2776  0.4584
 3661SOL    HW314417   4.390   2.744   4.621  0.4718 -0.8789 -0.8779
 3661SOL    MW414418   4.454   2.801   4.636 -0.1145 -0.3519 -0.2656
 3662SOL     OW14419   4.169   2.607   0.232  0.0161 -0.0961  0.0292
 3662SOL    HW214420   4.234   2.601   0.302 -1.5101 -0.1096  1.4993
 3662SOL    HW314421   4.172   2.521   0.189  0.8119 -0.1608  0.1906
 3662SOL    MW414422   4.178   2.595   0.235 -0.0802 -0.1064  0.2445
 3663SOL     OW14423   5.322   6.260   2.057 -0.4130  0.2929 -0.0570
 3663SOL    HW214424   5.417   6.273   2.064 -0.5397  0.6080  1.7388
 3663SOL    HW314425   5.298   6.300   1.974  0.8498  1.3776  0.0637
 3663SOL    MW414426   5.331   6.267   2.047 -0.2631  0.4776  0.1959
 3664SOL     OW14427   2.054   6.089   2.947  0.2634  0.0723 -0.4344
 3664SOL    HW214428   2.045   5.994   2.952 -0.7463  0.0575 -1.8352
 3664SOL    HW314429   2.061   6.118   3.038  0.1709 -1.3076  0.0271
 3664SOL    MW414430   2.054   6.080   2.960  0.1180 -0.1117 -0.5583
 3665SOL     OW14431   2.379   3.295   3.447 -0.7776  0.1918 -0.0002
 3665SOL    HW214432   2.416   3.283   3.359 -0.0598 -0.1791  0.3421
 3665SOL    HW314433   2.455   3.295   3.505 -1.3536 -1.4686  0.8256
 3665SOL    MW414434   2.394   3.293   3.443 -0.7589 -0.0762  0.1539
 3666SOL     OW14435   3.489   0.932   4.127 -0.3221 -0.1823 -0.0926
 3666SOL    HW214436   3.458   0.983   4.053 -1.0995  0.9081  0.9437
 3666SOL    HW314437   3.583   0.951   4.132 -0.5363  0.9073  0.0702
 3666SOL    MW414438   3.498   0.941   4.118 -0.4529  0.1053  0.0656
 3667SOL     OW14439   5.027   2.878   5.086  0.1805 -0.0659 -0.6412
 3667SOL    HW214440   5.110   2.878   5.133 -1.1624  0.1596  1.8901
 3667SOL    HW314441   4.985   2.795   5.111  0.0994 -0.7797 -2.8779
 3667SOL    MW414442   5.032   2.867   5.095 -0.0074 -0.1303 -0.6023
 3668SOL     OW14443   5.724   2.046   6.197  0.4345 -0.0135 -0.8624
 3668SOL    HW214444   5.743   2.045   6.291  0.5149 -0.0079 -0.8790
 3668SOL    HW314445   5.802   2.010   6.156  0.4931  0.2080 -0.9444
 3668SOL    MW414446   5.737   2.041   6.204  0.4529  0.0165 -0.8754
 3669SOL     OW14447   1.734   2.238   4.294  0.5529  0.2025  0.0650
 3669SOL    HW214448   1.767   2.295   4.364  2.1136  0.1345 -0.5610
 3669SOL    HW314449   1.661   2.191   4.334  1.6468 -0.1333  1.8226
 3669SOL    MW414450   1.729   2.239   4.309  0.9032  0.1492  0.2143
 3670SOL     OW14451   3.414   3.382   1.291 -0.2641 -0.1208 -0.6545
 3670SOL    HW214452   3.492   3.427   1.261 -1.5490  2.2336 -0.6653
 3670SOL    HW314453   3.436   3.289   1.285  2.9164  0.4519  0.4265
 3670SOL    MW414454   3.427   3.376   1.287 -0.0140  0.2654 -0.5133
 3671SOL     OW14455   4.087   1.239   4.193 -0.4233  0.5936  0.6536
 3671SOL    HW214456   4.091   1.224   4.099  0.9254 -0.4755  0.8555
 3671SOL    HW314457   4.090   1.334   4.202  0.6929  0.6795 -0.3512
 3671SOL    MW414458   4.088   1.249   4.182 -0.0981  0.4639  0.5477
 3672SOL     OW14459   4.264   4.658   4.179 -0.9144 -0.1860 -0.0240
 3672SOL    HW214460   4.232   4.731   4.126  0.9051  0.5167 -0.2133
 3672SOL    HW314461   4.344   4.690   4.220 -1.5245 -1.1610  2.1287
 3672SOL    MW414462   4.270   4.672   4.178 -0.7549 -0.2219  0.2351
 3673SOL     OW14463   2.945   2.421   2.808 -0.0886  0.1516  0.9567
 3673SOL    HW214464   3.026   2.397   2.853  0.5231  1.3769  0.5567
 3673SOL    HW314465   2.893   2.340   2.807  1.8993 -1.1910 -0.4846
 3673SOL    MW414466   2.949   2.407   2.814  0.2544  0.1361  0.7138
 3674SOL     OW14467   0.140   5.637   1.606 -0.2958  0.5799  0.0325
 3674SOL    HW214468   0.235   5.625   1.609 -0.2083  0.8707 -1.0434
 3674SOL    HW314469   0.106   5.572   1.667  0.6511  1.3624  1.4571
 3674SOL    MW414470   0.148   5.627   1.615 -0.1593  0.7215  0.0785
 3675SOL     OW14471   2.729   5.795   2.500 -0.7229 -0.4790  0.0183
 3675SOL    HW214472   2.693   5.873   2.457 -0.8751 -1.5701 -1.9921
 3675SOL    HW314473   2.687   5.722   2.454  0.7568 -1.7599  0.6251
 3675SOL    MW414474   2.719   5.795   2.488 -0.5477 -0.7920 -0.1669
 3676SOL     OW14475   4.279   0.428   0.240 -0.5372 -0.0233  0.5310
 3676SOL    HW214476   4.330   0.508   0.254 -0.0536 -0.1657 -0.3767
 3676SOL    HW314477   4.273   0.388   0.327  0.0293  0.5094  0.8227
 3676SOL    MW414478   4.285   0.434   0.254 -0.3986  0.0282  0.4498
 3677SOL     OW14479   3.656   5.540   3.723  1.0090  0.0588  0.4323
 3677SOL    HW214480   3.703   5.612   3.764 -0.2206  0.7280  0.7294
 3677SOL    HW314481   3.598   5.507   3.791 -0.0535  0.2730 -0.3309
 3677SOL    MW414482   3.655   5.545   3.737  0.7066  0.1754  0.3708
 3678SOL     OW14483   1.088   0.143   1.708  0.1157 -0.6347 -0.1477
 3678SOL    HW214484   0.993   0.130   1.717  0.0421 -0.4508 -0.6285
 3678SOL    HW314485   1.121   0.062   1.670 -0.2008  0.1299 -2.2092
 3678SOL    MW414486   1.080   0.131   1.704  0.0642 -0.5096 -0.4831
 3679SOL     OW14487   5.386   1.746   5.314  0.2443  0.2041 -0.2641
 3679SOL    HW214488   5.438   1.669   5.336  0.3820  0.0489 -1.1027
 3679SOL    HW314489   5.301   1.711   5.288  0.4649  0.2975 -1.1228
 3679SOL    MW414490   5.382   1.731   5.314  0.2916  0.1960 -0.4881
 3680SOL     OW14491   5.123   1.124   1.590  0.1169  0.1277 -0.3820
 3680SOL    HW214492   5.120   1.214   1.620 -1.9917  0.1377 -0.4939
 3680SOL    HW314493   5.037   1.109   1.550 -0.3107 -2.4702  1.2882
 3680SOL    MW414494   5.111   1.134   1.589 -0.2177 -0.2138 -0.1764
 3681SOL     OW14495   0.410   5.250   2.808  0.3423 -0.4672  0.2811
 3681SOL    HW214496   0.374   5.338   2.821  2.4989  0.3800  1.0207
 3681SOL    HW314497   0.493   5.251   2.857  1.7452 -2.0301 -1.8957
 3681SOL    MW414498   0.417   5.262   2.816  0.8120 -0.5616  0.0915
 3682SOL     OW14499   2.094   0.943   3.996 -0.0191  0.0290  0.4767
 3682SOL    HW214500   2.026   0.901   4.049 -0.2520 -0.2501 -0.0341
 3682SOL    HW314501   2.110   0.882   3.925 -0.7388  1.0283 -0.5805
 3682SOL    MW414502   2.087   0.930   3.994 -0.1448  0.1241  0.2698
 3683SOL     OW14503   5.992   1.061   3.188 -0.0687 -0.0826 -0.6299
 3683SOL    HW214504   5.975   1.143   3.142  1.2515 -0.4973 -1.9427
 3683SOL    HW314505   5.907   1.019   3.194 -1.4334  2.6268  2.7954
 3683SOL    MW414506   5.979   1.067   3.183 -0.0746  0.2202 -0.3512
 3684SOL     OW14507   4.639   5.611   4.232 -1.1080 -0.2419  0.1777
 3684SOL    HW214508   4.620   5.548   4.163 -2.3220  0.3304 -0.0565
 3684SOL    HW314509   4.724   5.585   4.266 -1.9423 -2.5481  0.6955
 3684SOL    MW414510   4.647   5.600   4.227 -1.3783 -0.4707  0.2151
 3685SOL     OW14511   5.689   5.470   1.545  0.3621  0.1903 -0.2514
 3685SOL    HW214512   5.593   5.471   1.545  0.3138 -1.4247 -0.2297
 3685SOL    HW314513   5.713   5.486   1.636  0.0896  0.1569 -0.1713
 3685SOL    MW414514   5.680   5.472   1.557  0.3198 -0.0272 -0.2380
 3686SOL     OW14515   0.729   1.361   4.695 -0.4169 -0.2226 -0.0533
 3686SOL    HW214516   0.676   1.435   4.667  0.1931 -0.0293 -0.7269
 3686SOL    HW314517   0.722   1.362   4.791 -0.8104  0.4062 -0.0802
 3686SOL    MW414518   0.721   1.371   4.704 -0.3883 -0.1141 -0.1457
 3687SOL     OW14519   0.180   2.946   4.631 -0.5335  0.0478  0.4645
 3687SOL    HW214520   0.128   2.905   4.561  1.3934  0.0895 -1.0694
 3687SOL    HW314521   0.252   2.885   4.645  0.3591  1.1657  0.7734
 3687SOL    MW414522   0.182   2.932   4.623 -0.1615  0.2008  0.3029
 3688SOL     OW14523   1.891   2.600   1.375  0.2210  0.7583  0.4168
 3688SOL    HW214524   1.971   2.594   1.322  0.1270 -2.4832  0.4326
 3688SOL    HW314525   1.837   2.664   1.330  0.8919 -0.5413 -2.4432
 3688SOL    MW414526   1.895   2.607   1.362  0.2971  0.1591  0.0416
 3689SOL     OW14527   0.128   1.751   4.879  0.2517  0.2542 -0.0072
 3689SOL    HW214528   0.191   1.718   4.943  1.4440  1.6151 -0.4467
 3689SOL    HW314529   0.051   1.695   4.891  0.1287  0.9061  3.1388
 3689SOL    MW414530   0.126   1.739   4.889  0.3927  0.5198  0.3499
 3690SOL     OW14531   4.163   5.740   2.268 -0.2979 -0.5004 -0.4011
 3690SOL    HW214532   4.138   5.758   2.178  1.3339 -0.3917 -0.8525
 3690SOL    HW314533   4.081   5.748   2.318 -1.3043 -1.0314 -1.9184
 3690SOL    MW414534   4.149   5.743   2.263 -0.2154 -0.5561 -0.6609
 3691SOL     OW14535   5.877   4.065   3.431  0.6558 -0.0206  0.8563
 3691SOL    HW214536   5.968   4.037   3.426  0.5705 -0.1525 -0.2340
 3691SOL    HW314537   5.841   4.016   3.505  0.9147 -1.6773 -0.0666
 3691SOL    MW414538   5.884   4.055   3.440  0.6787 -0.2566  0.5907
 3692SOL     OW14539   4.769   1.750   0.448  0.0690  0.5591  0.3732
 3692SOL    HW214540   4.808   1.823   0.400 -1.0197  0.7254 -0.2863
 3692SOL    HW314541   4.675   1.766   0.445 -0.1256 -0.3055  1.1611
 3692SOL    MW414542   4.762   1.761   0.442 -0.1003  0.4669  0.3901
 3693SOL     OW14543   3.501   4.612   0.118  0.5993 -0.2076 -0.4644
 3693SOL    HW214544   3.434   4.673   0.086  1.2344  0.8901  0.2326
 3693SOL    HW314545   3.463   4.574   0.197  0.2371 -0.6531 -0.8503
 3693SOL    MW414546   3.487   4.615   0.124  0.6353 -0.1216 -0.4233
 3694SOL     OW14547   0.262   0.535   5.384  0.1555 -0.3250 -0.0447
 3694SOL    HW214548   0.238   0.582   5.464  0.0861 -2.1361  1.0825
 3694SOL    HW314549   0.270   0.602   5.317  0.2826  1.2790  1.5075
 3694SOL    MW414550   0.260   0.550   5.386  0.1632 -0.3523  0.3088
 3695SOL     OW14551   4.449   2.224   1.990  0.6895  0.5444  0.0790
 3695SOL    HW214552   4.388   2.292   1.961  0.8428 -0.2164 -2.1449
 3695SOL    HW314553   4.494   2.264   2.065 -2.0065  1.3721  1.4232
 3695SOL    MW414554   4.447   2.238   1.996  0.3541  0.5532 -0.0371
 3696SOL     OW14555   5.698   1.960   3.255  0.0241 -0.0819  0.5796
 3696SOL    HW214556   5.788   1.947   3.225 -0.1117 -0.2573  0.2408
 3696SOL    HW314557   5.675   2.048   3.226 -0.5418 -0.7084 -0.9838
 3696SOL    MW414558   5.707   1.970   3.248 -0.0685 -0.1877  0.3286
 3697SOL     OW14559   1.595   0.766   5.359  0.2714  0.1568  0.9152
 3697SOL    HW214560   1.681   0.803   5.376 -0.7987  2.0160  2.5581
 3697SOL    HW314561   1.540   0.841   5.337 -0.7773 -1.0894 -1.0724
 3697SOL    MW414562   1.599   0.780   5.358 -0.0082  0.2377  0.8697
 3698SOL     OW14563   0.488   2.873   2.950  0.0836 -0.1741  0.4498
 3698SOL    HW214564   0.427   2.885   2.876 -1.7491  1.2119  2.0744
 3698SOL    HW314565   0.462   2.790   2.988 -1.2270  0.6457  1.4389
 3698SOL    MW414566   0.476   2.864   2.945 -0.3311  0.1169  0.7947
 3699SOL     OW14567   4.472   1.037   3.015  0.0926  0.8180 -0.0986
 3699SOL    HW214568   4.511   0.954   2.987  0.0725 -1.2986  4.9753
 3699SOL    HW314569   4.378   1.022   3.013  0.1017 -0.2646  2.6803
 3699SOL    MW414570   4.465   1.024   3.011  0.0912  0.3959  0.9375
 3700SOL     OW14571   5.364   5.649   2.975  0.0675 -0.0591 -0.1883
 3700SOL    HW214572   5.398   5.617   3.059  1.1044 -0.7994 -0.8633
 3700SOL    HW314573   5.442   5.679   2.928 -0.6230  1.3484 -0.4839
 3700SOL    MW414574   5.379   5.649   2.980  0.1132  0.0289 -0.3163
 3701SOL     OW14575   2.262   4.543   0.775  0.1074 -0.1379 -0.3099
 3701SOL    HW214576   2.342   4.498   0.801 -0.2070 -0.8140 -0.4947
 3701SOL    HW314577   2.192   4.479   0.792 -0.5375  0.8436  0.9674
 3701SOL    MW414578   2.263   4.528   0.781 -0.0192 -0.0976 -0.1657
 3702SOL     OW14579   1.794   6.103   4.979 -0.3354 -0.0316  0.0827
 3702SOL    HW214580   1.850   6.145   5.044 -0.8388 -0.2380  0.6704
 3702SOL    HW314581   1.705   6.116   5.012 -0.4748 -3.6430  1.7092
 3702SOL    MW414582   1.790   6.110   4.992 -0.4202 -0.5353  0.3748
 3703SOL     OW14583   1.483   3.410   4.447 -0.4082  0.0815  0.2677
 3703SOL    HW214584   1.417   3.448   4.389  1.3958  1.8053 -0.7823
 3703SOL    HW314585   1.528   3.347   4.392  0.8527  1.2184 -0.0516
 3703SOL    MW414586   1.480   3.407   4.432 -0.0038  0.4589  0.0871
 3704SOL     OW14587   5.797   0.217   1.765  0.5157  0.1819  0.7792
 3704SOL    HW214588   5.816   0.289   1.704  1.1216 -0.3932  0.2833
 3704SOL    HW314589   5.876   0.164   1.765  0.4935  0.1291  2.0271
 3704SOL    MW414590   5.810   0.220   1.757  0.5927  0.0990  0.8784
 3705SOL     OW14591   6.138   4.400   4.949  0.2034 -0.5718  0.4524
 3705SOL    HW214592   6.093   4.482   4.971 -0.8465  0.0844 -3.4512
 3705SOL    HW314593   6.223   4.407   4.993  0.6092  3.1790 -0.5825
 3705SOL    MW414594   6.143   4.412   4.958  0.1184  0.0096 -0.1992
 3706SOL     OW14595   1.092   1.409   5.723  0.4736 -0.4418  0.1753
 3706SOL    HW214596   0.999   1.397   5.739  0.5812  0.6725  1.9113
 3706SOL    HW314597   1.100   1.501   5.698  1.1976 -0.2855  0.9311
 3706SOL    MW414598   1.081   1.420   5.722  0.5833 -0.2742  0.5040
 3707SOL     OW14599   2.697   5.055   2.575 -0.3363 -0.7943 -0.1253
 3707SOL    HW214600   2.690   4.969   2.617 -0.3907  0.3708  2.4454
 3707SOL    HW314601   2.697   5.117   2.648  0.9542  1.3413 -1.8271
 3707SOL    MW414602   2.696   5.052   2.590 -0.1732 -0.3588 -0.0106
 3708SOL     OW14603   3.979   3.368   4.918  0.0905  0.1108  0.5346
 3708SOL    HW214604   3.895   3.337   4.952  0.2304 -0.6179  0.2460
 3708SOL    HW314605   3.958   3.447   4.869 -0.2520  0.6086  1.4655
 3708SOL    MW414606   3.965   3.374   4.916  0.0638  0.0803  0.6194
 3709SOL     OW14607   1.712   1.951   1.661 -0.7718  0.3961  0.0753
 3709SOL    HW214608   1.680   1.880   1.606  2.9646 -0.8170 -0.8016
 3709SOL    HW314609   1.732   1.909   1.745  0.7991  0.4674 -0.2267
 3709SOL    MW414610   1.710   1.936   1.665 -0.0716  0.2455 -0.0803
 3710SOL     OW14611   0.948   1.606   3.789  0.2229  0.2828 -0.7090
 3710SOL    HW214612   0.871   1.622   3.845 -0.9589  0.1591 -2.2214
 3710SOL    HW314613   1.013   1.669   3.819 -0.4178  0.3117  0.6974
 3710SOL    MW414614   0.946   1.616   3.800 -0.0175  0.2703 -0.7230
 3711SOL     OW14615   4.339   1.290   2.672  0.1531 -0.5259 -0.2413
 3711SOL    HW214616   4.375   1.203   2.690 -0.2811 -1.0291 -1.6928
 3711SOL    HW314617   4.413   1.340   2.638  0.3959 -0.3159  0.5666
 3711SOL    MW414618   4.353   1.285   2.670  0.1279 -0.5646 -0.3262
 3712SOL     OW14619   0.462   2.543   0.140  0.4880  0.2353  0.0415
 3712SOL    HW214620   0.477   2.449   0.156  0.2687  0.0137 -0.9486
 3712SOL    HW314621   0.484   2.585   0.222 -0.8251 -0.8399  0.9934
 3712SOL    MW414622   0.467   2.536   0.153  0.2858  0.0642  0.0364
 3713SOL     OW14623   4.086   4.220   6.014 -0.0610 -0.4405 -0.3284
 3713SOL    HW214624   4.092   4.315   6.007 -2.7646 -0.1984 -0.4742
 3713SOL    HW314625   4.034   4.205   6.093  0.9987 -1.8670  0.1376
 3713SOL    MW414626   4.080   4.231   6.023 -0.2779 -0.5968 -0.2861
 3714SOL     OW14627   1.258   2.346   1.377 -0.0923  0.1261 -0.2761
 3714SOL    HW214628   1.270   2.432   1.418  0.7586 -0.0191 -0.2226
 3714SOL    HW314629   1.329   2.339   1.314 -2.0488  0.8648 -2.7337
 3714SOL    MW414630   1.269   2.357   1.374 -0.2381  0.2044 -0.5933
 3715SOL     OW14631   2.964   1.021   2.927  0.1881  0.2606  0.2322
 3715SOL    HW214632   2.874   1.049   2.909 -0.1185 -0.0774  1.2089
 3715SOL    HW314633   3.007   1.023   2.841 -0.9230 -0.2003 -0.3492
 3715SOL    MW414634   2.958   1.025   2.913  0.0010  0.1552  0.2843
 3716SOL     OW14635   4.221   4.463   6.288  0.5287  0.4156  0.3605
 3716SOL    HW214636   4.274   4.383   6.283  1.3641  0.9947 -0.1933
 3716SOL    HW314637   4.219   4.484   6.382  0.6272 -0.0385  0.4667
 3716SOL    MW414638   4.227   4.455   6.300  0.6520  0.4321  0.3014
 3717SOL     OW14639   0.026   3.335   0.606 -0.2366 -0.0803  0.1495
 3717SOL    HW214640  -0.030   3.258   0.622  1.5040 -1.3073  0.6649
 3717SOL    HW314641   0.062   3.321   0.519  2.3712 -1.4809  1.3115
 3717SOL    MW414642   0.023   3.323   0.597  0.3371 -0.4270  0.3709
 3718SOL     OW14643   6.338   1.305   0.729 -0.1027 -0.5952  0.4115
 3718SOL    HW214644   6.359   1.394   0.703 -0.8224 -0.3495  0.6351
 3718SOL    HW314645   6.389   1.250   0.670 -1.3891 -0.0552 -1.2851
 3718SOL    MW414646   6.347   1.309   0.718 -0.3674 -0.4915  0.2171
 3719SOL     OW14647   3.726   1.696   4.372 -0.2147  0.5097  0.4383
 3719SOL    HW214648   3.672   1.700   4.450 -0.1541 -1.6772  0.6550
 3719SOL    HW314649   3.717   1.606   4.341  3.5321 -0.0906  0.6785
 3719SOL    MW414650   3.718   1.685   4.378  0.2877  0.1419  0.4986
 3720SOL     OW14651   1.957   3.780   3.654  0.4564 -0.0812  0.3474
 3720SOL    HW214652   1.924   3.763   3.742  0.3563  0.4418  0.4143
 3720SOL    HW314653   1.947   3.697   3.608 -2.3823  0.4169 -0.0988
 3720SOL    MW414654   1.952   3.767   3.659  0.0686  0.0535  0.2973
 3721SOL     OW14655   5.008   5.425   0.305  0.4105  0.3154 -0.0713
 3721SOL    HW214656   4.949   5.352   0.288  0.7050  0.2256 -0.7380
 3721SOL    HW314657   5.094   5.393   0.277  0.5998  0.7978 -0.0520
 3721SOL    MW414658   5.012   5.411   0.299  0.4744  0.3672 -0.1567
 3722SOL     OW14659   6.334   0.160   3.876  0.5338 -0.4289  0.0123
 3722SOL    HW214660   6.262   0.216   3.906  1.4811  0.0185  1.5706
 3722SOL    HW314661   6.403   0.221   3.850  1.1620 -0.8402  0.6619
 3722SOL    MW414662   6.334   0.176   3.877  0.7417 -0.4241  0.3036
 3723SOL     OW14663   0.263   0.749   2.925 -0.0761 -0.1500  0.7176
 3723SOL    HW214664   0.259   0.753   3.021  1.2252  0.4129  0.7665
 3723SOL    HW314665   0.208   0.822   2.895  2.5270  2.1306  1.1412
 3723SOL    MW414666   0.255   0.759   2.934  0.4390  0.2252  0.7799
 3724SOL     OW14667   2.512   0.309   0.734 -0.1012 -0.0175 -0.1384
 3724SOL    HW214668   2.444   0.343   0.792  0.1914 -1.8592  1.3535
 3724SOL    HW314669   2.465   0.255   0.671 -0.3747  1.6617 -1.4342
 3724SOL    MW414670   2.497   0.307   0.734 -0.0987 -0.0390 -0.1126
 3725SOL     OW14671   3.236   0.564   0.142 -0.2202  0.1177 -0.2204
 3725SOL    HW214672   3.192   0.559   0.057  0.1995  2.4642 -0.6626
 3725SOL    HW314673   3.245   0.473   0.170 -3.0470 -0.6002 -1.2623
 3725SOL    MW414674   3.231   0.551   0.134 -0.5378  0.3326 -0.4162
 3726SOL     OW14675   3.740   3.600   0.811 -0.0245  0.2429  0.3176
 3726SOL    HW214676   3.742   3.687   0.771  1.1521 -0.7531 -2.0071
 3726SOL    HW314677   3.817   3.598   0.868  0.3891  0.4939 -0.2155
 3726SOL    MW414678   3.750   3.612   0.813  0.1853  0.1446 -0.0595
 3727SOL     OW14679   2.242   0.474   5.601 -0.3313  0.0429  0.3618
 3727SOL    HW214680   2.164   0.495   5.549 -0.8807 -0.8779  0.7755
 3727SOL    HW314681   2.207   0.447   5.686  0.5999  2.6632  1.6748
 3727SOL    MW414682   2.227   0.473   5.605 -0.2809  0.2671  0.5896
 3728SOL     OW14683   3.705   0.791   2.494 -0.3087 -0.3082  0.1845
 3728SOL    HW214684   3.618   0.804   2.458 -1.2671 -0.6295  2.2327
 3728SOL    HW314685   3.690   0.768   2.586  1.9737  2.0451  1.3013
 3728SOL    MW414686   3.692   0.790   2.501 -0.1340 -0.0401  0.6021
 3729SOL     OW14687   6.362   2.714   5.796  0.2176 -0.7507 -0.2613
 3729SOL    HW214688   6.420   2.788   5.815 -0.2093 -0.4432 -0.1600
 3729SOL    HW314689   6.280   2.735   5.840 -0.3091 -0.7056 -1.2507
 3729SOL    MW414690   6.359   2.727   5.804  0.0918 -0.7042 -0.3785
 3730SOL     OW14691   6.136   4.769   6.002  0.2547  0.2592  0.1312
 3730SOL    HW214692   6.182   4.686   5.987 -0.6684 -0.2192 -0.1150
 3730SOL    HW314693   6.095   4.789   5.918  0.0064  0.6786  0.3498
 3730SOL    MW414694   6.137   4.761   5.989  0.1001  0.2514  0.1276
 3731SOL     OW14695   1.624   6.008   1.118  0.7561  0.1695 -0.1639
 3731SOL    HW214696   1.588   6.037   1.033 -1.1655  0.1547  0.5827
 3731SOL    HW314697   1.659   5.921   1.100  1.0214  0.4483 -1.0945
 3731SOL    MW414698   1.624   6.000   1.104  0.5376  0.2043 -0.1882
 3732SOL     OW14699   0.942   5.805   3.109 -0.1432  0.3055 -0.3734
 3732SOL    HW214700   0.867   5.755   3.139  0.7142  0.5508  2.5013
 3732SOL    HW314701   0.934   5.806   3.013 -1.7295 -2.7925 -0.3878
 3732SOL    MW414702   0.931   5.799   3.100 -0.2393 -0.0709  0.0040
 3733SOL     OW14703   4.169   3.953   4.021  0.5615  0.9263 -0.7271
 3733SOL    HW214704   4.156   3.933   3.928 -0.7413 -3.5874  0.2042
 3733SOL    HW314705   4.259   3.927   4.039  0.4802  0.7661 -0.5428
 3733SOL    MW414706   4.179   3.947   4.011  0.3789  0.3096 -0.5799
 3734SOL     OW14707   1.390   3.375   4.903 -0.0613  0.0624  0.1670
 3734SOL    HW214708   1.393   3.435   4.829  0.8735  0.4291  0.4853
 3734SOL    HW314709   1.296   3.365   4.922 -0.5184 -1.9925 -2.5948
 3734SOL    MW414710   1.378   3.382   4.896  0.0017 -0.1604 -0.1554
 3735SOL     OW14711   4.013   1.649   5.781 -0.3728 -0.1518 -0.1535
 3735SOL    HW214712   3.934   1.646   5.834 -0.2991  1.1104  0.0548
 3735SOL    HW314713   3.983   1.625   5.693 -0.9060 -0.0711  0.0016
 3735SOL    MW414714   3.999   1.645   5.776 -0.4334  0.0254 -0.1055
 3736SOL     OW14715   2.162   5.306   5.788 -0.1967 -0.0823  0.5558
 3736SOL    HW214716   2.227   5.257   5.738 -1.8074 -0.6749 -1.0591
 3736SOL    HW314717   2.079   5.264   5.767 -0.9713 -0.5710  4.0404
 3736SOL    MW414718   2.160   5.294   5.779 -0.5114 -0.2249  0.8025
 3737SOL     OW14719   5.606   2.829   1.511  0.2572  0.4543  0.0075
 3737SOL    HW214720   5.578   2.738   1.520 -0.0652  0.6985  1.8519
 3737SOL    HW314721   5.642   2.834   1.422  0.1163 -1.4163 -0.2013
 3737SOL    MW414722   5.607   2.817   1.500  0.1961  0.2397  0.2233
 3738SOL     OW14723   2.591   5.088   3.476 -0.8593 -0.2340  0.5060
 3738SOL    HW214724   2.550   5.027   3.537  1.6638 -3.4886 -0.7489
 3738SOL    HW314725   2.668   5.121   3.523 -0.0250 -1.1777 -0.1607
 3738SOL    MW414726   2.596   5.085   3.490 -0.4163 -0.7879  0.2524
 3739SOL     OW14727   2.545   2.429   3.130 -0.1526  0.1365  0.4904
 3739SOL    HW214728   2.598   2.377   3.069 -0.7455  0.8166 -0.6430
 3739SOL    HW314729   2.584   2.412   3.216  2.3104  1.0750 -0.3428
 3739SOL    MW414730   2.558   2.420   3.133  0.0941  0.3501  0.2309
 3740SOL     OW14731   2.831   0.968   4.306  0.0301  1.0904 -0.6373
 3740SOL    HW214732   2.764   0.932   4.248 -0.4869 -0.2616  0.7001
 3740SOL    HW314733   2.792   1.049   4.341 -0.5961  0.7228 -0.4691
 3740SOL    MW414734   2.817   0.974   4.303 -0.1207  0.8635 -0.4387
 3741SOL     OW14735   6.108   1.719   2.519  0.7029 -0.0805  0.7736
 3741SOL    HW214736   6.165   1.796   2.524  0.8796 -0.1285 -0.2191
 3741SOL    HW314737   6.044   1.742   2.451 -2.1134  1.0198  3.5519
 3741SOL    MW414738   6.107   1.732   2.510  0.3546  0.0584  1.0092
 3742SOL     OW14739   0.670   2.931   0.117  0.2537 -0.0524  0.0343
 3742SOL    HW214740   0.741   2.869   0.101  1.5665  1.3829  0.0912
 3742SOL    HW314741   0.668   2.986   0.039 -0.3204  0.3772  0.3415
 3742SOL    MW414742   0.679   2.930   0.105  0.3511  0.1936  0.0824
 3743SOL     OW14743   2.252   5.689   5.151 -0.1514  0.7843  0.2426
 3743SOL    HW214744   2.250   5.715   5.059 -0.0434 -1.0861 -0.3410
 3743SOL    HW314745   2.160   5.689   5.177 -0.2127  1.0090  0.0356
 3743SOL    MW414746   2.240   5.692   5.142 -0.1452  0.5672  0.1383
 3744SOL     OW14747   5.452   5.981   2.310  0.1310  0.3849 -0.0003
 3744SOL    HW214748   5.512   6.029   2.254 -0.2260  0.5668 -0.2261
 3744SOL    HW314749   5.367   6.024   2.298 -0.0646  0.0744  0.2474
 3744SOL    MW414750   5.449   5.993   2.301  0.0581  0.3679  0.0026
 3745SOL     OW14751   2.054   3.548   4.129  0.0528 -0.5304  0.4712
 3745SOL    HW214752   2.137   3.566   4.172  0.2025  0.1362 -0.0799
 3745SOL    HW314753   2.076   3.537   4.037 -0.5603  0.5599  0.1635
 3745SOL    MW414754   2.068   3.549   4.122 -0.0084 -0.2986  0.3579
 3746SOL     OW14755   2.970   6.007   2.418 -0.0622  0.3726  0.3568
 3746SOL    HW214756   2.935   6.082   2.467 -1.7176 -1.1344  1.6236
 3746SOL    HW314757   2.999   5.946   2.486 -0.6616 -0.9823 -0.5510
 3746SOL    MW414758   2.969   6.009   2.433 -0.3597 -0.0049  0.4042
 3747SOL     OW14759   3.674   4.843   2.870 -0.3010 -1.2311  0.9379
 3747SOL    HW214760   3.648   4.912   2.930  2.4798  0.4423  0.4234
 3747SOL    HW314761   3.727   4.783   2.923 -1.2128 -2.0018  0.9948
 3747SOL    MW414762   3.678   4.844   2.885 -0.0544 -1.1120  0.8775
 3748SOL     OW14763   6.222   5.748   4.049 -0.0415 -0.3978 -0.1869
 3748SOL    HW214764   6.130   5.735   4.073 -0.0259  0.6950  0.4994
 3748SOL    HW314765   6.254   5.660   4.028 -0.4853 -1.2334  2.3307
 3748SOL    MW414766   6.214   5.734   4.049 -0.0980 -0.3639  0.2358
 3749SOL     OW14767   1.074   0.123   5.060  0.5655  0.2833 -0.1000
 3749SOL    HW214768   1.023   0.075   5.125  0.2296  0.5960 -0.1266
 3749SOL    HW314769   1.023   0.115   4.979  1.4713 -0.9457 -0.5837
 3749SOL    MW414770   1.060   0.116   5.058  0.6407  0.1624 -0.1673
 3750SOL     OW14771   2.220   5.066   3.550 -0.3883 -0.3090  0.2283
 3750SOL    HW214772   2.207   5.152   3.510  0.0959 -0.1617  0.3788
 3750SOL    HW314773   2.142   5.053   3.604 -0.7921 -0.2785 -0.3435
 3750SOL    MW414774   2.208   5.076   3.552 -0.3777 -0.2855  0.1727
 3751SOL     OW14775   2.344   2.587   0.325  0.1556 -0.1226 -0.1190
 3751SOL    HW214776   2.318   2.679   0.325  2.8549  0.7531 -0.1700
 3751SOL    HW314777   2.279   2.543   0.379 -0.6313  2.0223  0.7902
 3751SOL    MW414778   2.332   2.593   0.332  0.4079  0.2759 -0.0057
 3752SOL     OW14779   0.021   3.700   1.604 -0.0433  0.1929  0.1349
 3752SOL    HW214780  -0.074   3.688   1.594  0.1260 -0.1995 -1.0312
 3752SOL    HW314781   0.038   3.788   1.569  0.3676 -0.6984 -1.9841
 3752SOL    MW414782   0.011   3.710   1.598  0.0333  0.0235 -0.2985
 3753SOL     OW14783   3.959   2.210   4.718  0.0484  0.1764 -0.6182
 3753SOL    HW214784   4.033   2.168   4.675  2.1038  2.1297  0.7943
 3753SOL    HW314785   3.987   2.301   4.731 -1.9468  0.5880  1.4566
 3753SOL    MW414786   3.973   2.217   4.714  0.0564  0.4884 -0.1581
 3754SOL     OW14787   4.746   1.418   1.023 -0.2098 -0.2375  0.1204
 3754SOL    HW214788   4.667   1.471   1.032 -0.1187 -0.1640  0.5194
 3754SOL    HW314789   4.782   1.442   0.938 -0.0361  0.5211  0.3999
 3754SOL    MW414790   4.740   1.428   1.013 -0.1749 -0.1277  0.2099
 3755SOL     OW14791   2.103   2.200   5.159 -0.5038  0.2205  0.2595
 3755SOL    HW214792   2.020   2.246   5.153 -2.7963 -3.3598  1.5026
 3755SOL    HW314793   2.107   2.168   5.249  1.8946 -0.3546  0.0323
 3755SOL    MW414794   2.093   2.202   5.170 -0.4898 -0.3278  0.3935
 3756SOL     OW14795   2.094   3.624   6.278 -0.2951  0.2586  0.9232
 3756SOL    HW214796   2.016   3.680   6.276 -0.3508  0.1607 -0.2357
 3756SOL    HW314797   2.122   3.626   6.370 -1.6504  0.3079  1.3672
 3756SOL    MW414798   2.087   3.632   6.290 -0.4813  0.2522  0.8288
 3757SOL     OW14799   2.523   5.652   1.212 -0.1308 -0.4932  0.4400
 3757SOL    HW214800   2.572   5.727   1.178 -0.9678 -0.3515 -0.5180
 3757SOL    HW314801   2.584   5.579   1.208  0.7246  0.1437  1.4804
 3757SOL    MW414802   2.537   5.652   1.207 -0.1284 -0.3905  0.4509
 3758SOL     OW14803   4.938   1.278   3.489  0.3273 -0.2063  0.0248
 3758SOL    HW214804   4.847   1.282   3.518  0.8876 -0.6192  1.9452
 3758SOL    HW314805   4.973   1.199   3.530  1.4242 -0.3561 -1.1383
 3758SOL    MW414806   4.930   1.268   3.498  0.5460 -0.2805  0.1247
 3759SOL     OW14807   2.036   0.633   3.510 -0.0639 -0.4567 -0.0645
 3759SOL    HW214808   2.123   0.647   3.547 -0.5583  2.0471  0.3157
 3759SOL    HW314809   1.977   0.633   3.585 -0.7642  1.7810 -0.5563
 3759SOL    MW414810   2.039   0.634   3.525 -0.2215  0.1689 -0.0792
 3760SOL     OW14811   5.372   3.136   0.419 -0.5457  0.1504 -0.0652
 3760SOL    HW214812   5.425   3.214   0.431 -0.3576  0.3071 -1.6960
 3760SOL    HW314813   5.297   3.148   0.478  1.4940 -0.4039  2.8159
 3760SOL    MW414814   5.369   3.148   0.428 -0.2518  0.0980  0.0997
 3761SOL     OW14815   1.620   4.167   5.837  0.5715 -0.2808 -0.1137
 3761SOL    HW214816   1.606   4.145   5.745 -1.5670  0.1940  0.0470
 3761SOL    HW314817   1.669   4.249   5.835  0.6139 -0.3197 -0.8320
 3761SOL    MW414818   1.625   4.175   5.825  0.2949 -0.2233 -0.1873
 3762SOL     OW14819   2.360   5.523   4.658 -0.7762  0.1473 -0.0209
 3762SOL    HW214820   2.404   5.473   4.727  0.1014  1.1852  0.1948
 3762SOL    HW314821   2.302   5.460   4.616 -0.9413 -0.6358  1.3260
 3762SOL    MW414822   2.358   5.508   4.661 -0.6822  0.1810  0.1853
 3763SOL     OW14823   1.101   2.080   0.717  0.3597  0.3796  0.1393
 3763SOL    HW214824   1.074   2.140   0.647 -0.3452  0.6248  0.6062
 3763SOL    HW314825   1.191   2.105   0.737 -0.4272  2.4329  1.4728
 3763SOL    MW414826   1.109   2.091   0.710  0.1629  0.6828  0.3768
 3764SOL     OW14827   4.873   2.224   2.356 -0.1443  0.3184  0.2341
 3764SOL    HW214828   4.926   2.247   2.432  0.3942 -0.4856  0.1032
 3764SOL    HW314829   4.798   2.284   2.361 -0.1494  0.2393  1.4302
 3764SOL    MW414830   4.870   2.235   2.367 -0.0739  0.2019  0.3746
 3765SOL     OW14831   3.905   3.347   3.008 -0.0060  0.3073 -0.3439
 3765SOL    HW214832   3.832   3.374   2.952 -0.5727 -0.9028 -0.2099
 3765SOL    HW314833   3.865   3.291   3.075  0.5315  2.2398  1.7195
 3765SOL    MW414834   3.890   3.343   3.010 -0.0099  0.4026 -0.0540
 3766SOL     OW14835   5.772   5.522   4.709 -0.4593 -0.3357  0.7930
 3766SOL    HW214836   5.793   5.582   4.637 -3.4410  0.5901  0.5565
 3766SOL    HW314837   5.719   5.454   4.668  0.2058 -1.3955  1.6565
 3766SOL    MW414838   5.768   5.521   4.694 -0.7649 -0.3533  0.8757
 3767SOL     OW14839   2.572   5.331   0.964 -0.0637  0.1108  0.2894
 3767SOL    HW214840   2.514   5.304   1.035  1.7457 -0.0814  1.7391
 3767SOL    HW314841   2.532   5.412   0.931 -2.0713 -0.8856  0.0803
 3767SOL    MW414842   2.559   5.338   0.969 -0.0898 -0.0461  0.4530
 3768SOL     OW14843   3.272   6.283   3.085 -0.2570 -0.1106 -0.3675
 3768SOL    HW214844   3.180   6.262   3.099  0.1242 -1.4033  0.3179
 3768SOL    HW314845   3.319   6.202   3.106  0.8947 -0.1449 -2.7487
 3768SOL    MW414846   3.266   6.270   3.089 -0.0547 -0.2857 -0.5912
 3769SOL     OW14847   1.956   2.076   1.668  0.0965  0.3873  0.3695
 3769SOL    HW214848   1.874   2.028   1.671 -0.5674  1.3136 -1.3649
 3769SOL    HW314849   1.942   2.152   1.725 -0.2508  0.5369  0.0877
 3769SOL    MW414850   1.943   2.080   1.676 -0.0370  0.5293  0.1035
 3770SOL     OW14851   5.593   5.930   5.137  0.2040  0.1742  0.8879
 3770SOL    HW214852   5.662   5.997   5.141 -1.1191  1.8463 -1.6018
 3770SOL    HW314853   5.641   5.847   5.135  1.9554  1.0368  2.7760
 3770SOL    MW414854   5.609   5.928   5.137  0.2605  0.5086  0.8085
 3771SOL     OW14855   0.597   1.693   3.257  0.1994 -0.2126  0.5305
 3771SOL    HW214856   0.577   1.612   3.211  1.7912 -0.4842  0.2632
 3771SOL    HW314857   0.638   1.665   3.339  3.7030  0.2012 -0.8737
 3771SOL    MW414858   0.600   1.679   3.262  0.8717 -0.1938  0.3100
 3772SOL     OW14859   0.440   5.225   1.039 -0.7908 -0.1205  0.2878
 3772SOL    HW214860   0.497   5.149   1.045  0.4175  0.6240 -1.1023
 3772SOL    HW314861   0.371   5.199   0.978 -1.6110 -0.7991  1.4676
 3772SOL    MW414862   0.438   5.211   1.032 -0.7396 -0.1118  0.2601
 3773SOL     OW14863   5.844   0.895   3.619 -0.9763 -0.7348  0.5532
 3773SOL    HW214864   5.900   0.865   3.548  1.7331 -0.3448  2.3926
 3773SOL    HW314865   5.841   0.990   3.608  0.9033 -0.4703  1.8473
 3773SOL    MW414866   5.851   0.904   3.608 -0.3708 -0.6485  0.9666
 3774SOL     OW14867   0.786   0.307   1.594  0.4532 -0.4084 -0.0365
 3774SOL    HW214868   0.797   0.337   1.684 -0.2882 -0.6145  0.1328
 3774SOL    HW314869   0.872   0.319   1.554  0.7978 -0.3358  0.7039
 3774SOL    MW414870   0.799   0.312   1.601  0.4009 -0.4261  0.0835
 3775SOL     OW14871   4.798   4.307   4.067  0.1671 -0.9252  0.3291
 3775SOL    HW214872   4.717   4.359   4.059  0.3404 -0.6727  0.1893
 3775SOL    HW314873   4.775   4.236   4.126 -0.3606 -1.2485 -0.2522
 3775SOL    MW414874   4.784   4.304   4.073  0.1203 -0.9345  0.2340
 3776SOL     OW14875   3.951   1.851   4.462 -0.0679  0.3943  0.0387
 3776SOL    HW214876   3.967   1.927   4.406  1.0501  0.1689  0.0279
 3776SOL    HW314877   3.884   1.801   4.416 -1.7346  1.9712  0.6408
 3776SOL    MW414878   3.944   1.854   4.448 -0.1403  0.5726  0.1167
 3777SOL     OW14879   0.793   2.404   4.574 -0.4660 -0.2068 -0.3232
 3777SOL    HW214880   0.848   2.480   4.589  0.8049 -1.5635  3.0375
 3777SOL    HW314881   0.708   2.440   4.550  0.3303  2.2096  0.2151
 3777SOL    MW414882   0.789   2.419   4.573 -0.1933 -0.0670  0.1912
 3778SOL     OW14883   5.243   4.147   0.376 -0.9223 -0.1596 -0.7899
 3778SOL    HW214884   5.333   4.119   0.357 -0.1979  0.9370  0.8056
 3778SOL    HW314885   5.225   4.216   0.312 -0.1009  0.5714 -0.2493
 3778SOL    MW414886   5.253   4.152   0.365 -0.7183  0.0815 -0.5081
 3779SOL     OW14887   3.187   5.024   0.981 -0.9614  0.1358 -0.2532
 3779SOL    HW214888   3.206   5.090   1.047 -2.0121 -1.6252  1.9580
 3779SOL    HW314889   3.095   5.039   0.958 -1.4679 -0.9815  0.8924
 3779SOL    MW414890   3.177   5.034   0.987 -1.1668 -0.2439  0.1897
 3780SOL     OW14891   4.630   4.145   5.965 -0.0080  0.3985 -0.1341
 3780SOL    HW214892   4.659   4.133   6.055 -0.3930  1.3708  0.1256
 3780SOL    HW314893   4.542   4.184   5.972  0.1684  0.9715 -0.9162
 3780SOL    MW414894   4.622   4.149   5.978 -0.0355  0.6024 -0.2030
 3781SOL     OW14895   1.331   4.403   2.196 -0.2193 -0.5325  0.2669
 3781SOL    HW214896   1.339   4.483   2.249 -0.9490 -0.5928  0.4848
 3781SOL    HW314897   1.421   4.378   2.175  0.0083  0.7189 -0.3619
 3781SOL    MW414898   1.344   4.411   2.200 -0.2856 -0.3753  0.2127
 3782SOL     OW14899   0.285   1.097   0.494  0.5510  0.1482  0.2632
 3782SOL    HW214900   0.315   1.163   0.557  0.6196 -0.0561  0.4449
 3782SOL    HW314901   0.302   1.014   0.537 -0.0220  0.0229  0.2493
 3782SOL    MW414902   0.291   1.095   0.508  0.4845  0.1047  0.2853
 3783SOL     OW14903   5.123   3.064   1.071 -0.3142 -0.4961  0.3508
 3783SOL    HW214904   5.201   3.111   1.098  0.3158 -1.2900 -0.0621
 3783SOL    HW314905   5.106   3.094   0.982  0.9998 -2.1596 -0.5068
 3783SOL    MW414906   5.131   3.074   1.063 -0.0577 -0.8203  0.1832
 3784SOL     OW14907   3.248   4.257   1.189 -0.5126 -0.2886  0.1553
 3784SOL    HW214908   3.183   4.263   1.259 -1.8860 -0.0501 -1.0944
 3784SOL    HW314909   3.236   4.337   1.138 -0.0017 -0.7667 -0.7323
 3784SOL    MW414910   3.238   4.268   1.192 -0.6264 -0.3202 -0.1267
 3785SOL     OW14911   1.263   1.585   4.095 -0.1624 -0.0595 -0.1282
 3785SOL    HW214912   1.303   1.660   4.050 -0.3177  0.3388  0.3980
 3785SOL    HW314913   1.321   1.512   4.074  1.2708  0.6496  1.2100
 3785SOL    MW414914   1.276   1.586   4.086  0.0062  0.0866  0.1178
 3786SOL     OW14915   3.757   4.141   2.073  0.0398  0.1706 -0.2038
 3786SOL    HW214916   3.814   4.203   2.116 -1.2137  1.5962 -0.5089
 3786SOL    HW314917   3.669   4.175   2.087 -0.7324 -1.7398 -0.0787
 3786SOL    MW414918   3.753   4.153   2.080 -0.2275  0.1066 -0.2275
 3787SOL     OW14919   3.132   5.250   6.010  0.2586 -0.1398  0.1144
 3787SOL    HW214920   3.156   5.173   6.062 -0.9841 -0.1312  0.7503
 3787SOL    HW314921   3.148   5.324   6.068 -1.1685 -0.1326  0.5408
 3787SOL    MW414922   3.137   5.250   6.025 -0.0936 -0.1377  0.2546
 3788SOL     OW14923   4.793   4.803   0.758  0.2336 -0.2518 -1.1873
 3788SOL    HW214924   4.748   4.765   0.833  1.8070 -0.7507 -0.4375
 3788SOL    HW314925   4.776   4.897   0.764  1.0686 -0.1676  0.3417
 3788SOL    MW414926   4.785   4.810   0.768  0.5514 -0.3065 -0.8866
 3789SOL     OW14927   0.615   0.680   3.191  0.1550  0.9659 -0.8082
 3789SOL    HW214928   0.616   0.772   3.164  0.9769  0.7921 -1.4524
 3789SOL    HW314929   0.556   0.638   3.129  1.1379  0.7706 -1.6412
 3789SOL    MW414930   0.608   0.687   3.179  0.3932  0.9172 -1.0031
 3790SOL     OW14931   5.580   3.955   4.883  0.7468 -0.2565  0.4993
 3790SOL    HW214932   5.535   3.994   4.959  0.3714 -0.9790  0.6627
 3790SOL    HW314933   5.550   3.864   4.883 -0.0301 -0.0305 -1.0946
 3790SOL    MW414934   5.570   3.948   4.893  0.5948 -0.3220  0.3106
 3791SOL     OW14935   2.065   1.005   2.728 -0.1306  0.4723 -0.9290
 3791SOL    HW214936   2.085   1.049   2.645  0.2693 -0.5082 -1.3809
 3791SOL    HW314937   2.145   1.015   2.780 -0.5357  1.4604 -0.4800
 3791SOL    MW414938   2.079   1.012   2.724 -0.1313  0.4733 -0.9294
 3792SOL     OW14939   6.115   0.632   0.938 -0.2237  0.4217 -0.3561
 3792SOL    HW214940   6.080   0.550   0.904 -2.4775  1.7267 -1.4276
 3792SOL    HW314941   6.118   0.619   1.033 -3.0528 -0.0727 -0.2561
 3792SOL    MW414942   6.111   0.619   0.946 -0.8943  0.5287 -0.4843
 3793SOL     OW14943   0.293   5.679   0.394 -0.1208  0.4871  0.6385
 3793SOL    HW214944   0.281   5.691   0.300 -0.0784  1.7054  0.7666
 3793SOL    HW314945   0.337   5.595   0.403 -1.4710 -0.3690 -0.3348
 3793SOL    MW414946   0.297   5.670   0.383 -0.2933  0.5348  0.5270
 3794SOL     OW14947   4.506   5.288   3.109  0.2826  0.3722 -0.2905
 3794SOL    HW214948   4.571   5.257   3.044  0.4750  1.4185 -0.6108
 3794SOL    HW314949   4.459   5.358   3.064 -0.3748  0.3235  0.3111
 3794SOL    MW414950   4.508   5.293   3.094  0.2212  0.5038 -0.2534
 3795SOL     OW14951   1.357   1.937   5.586 -0.7091 -0.2860 -0.4373
 3795SOL    HW214952   1.391   2.025   5.603 -1.9197  0.1898 -0.3953
 3795SOL    HW314953   1.387   1.885   5.660 -0.6841  0.2907 -0.0367
 3795SOL    MW414954   1.365   1.942   5.598 -0.8656 -0.1472 -0.3789
 3796SOL     OW14955   5.428   6.083   2.982 -0.2434 -0.1358 -0.5212
 3796SOL    HW214956   5.347   6.048   3.019 -1.2138  0.4148 -2.0143
 3796SOL    HW314957   5.435   6.171   3.018 -2.0534  1.0164 -2.7426
 3796SOL    MW414958   5.418   6.090   2.992 -0.6102  0.0889 -1.0113
 3797SOL     OW14959   5.234   4.587   3.056  0.4186 -0.3376  0.6666
 3797SOL    HW214960   5.285   4.550   2.984 -0.1096  0.0695  0.0737
 3797SOL    HW314961   5.200   4.670   3.021 -2.0319 -1.3644  0.4152
 3797SOL    MW414962   5.236   4.593   3.042  0.0256 -0.4194  0.5552
 3798SOL     OW14963   4.983   3.983   3.509 -0.2033  0.2306 -0.4190
 3798SOL    HW214964   4.967   4.059   3.453 -1.2211  1.5422  1.5273
 3798SOL    HW314965   5.034   3.923   3.455 -1.1646  1.3888 -2.7190
 3798SOL    MW414966   4.988   3.985   3.495 -0.4644  0.5564 -0.4657
 3799SOL     OW14967   1.076   5.416   2.709  0.6191 -0.8044  0.1236
 3799SOL    HW214968   1.030   5.438   2.790  0.5431 -0.9938  0.1324
 3799SOL    HW314969   1.062   5.322   2.698 -0.8301 -0.4839 -1.0131
 3799SOL    MW414970   1.068   5.407   2.718  0.4179 -0.7871 -0.0252
 3800SOL     OW14971   0.327   1.216   5.698  0.0689  0.1880  0.4636
 3800SOL    HW214972   0.347   1.188   5.787 -1.0027  1.2253  1.0760
 3800SOL    HW314973   0.231   1.216   5.695  0.0850  0.9762 -0.4119
 3800SOL    MW414974   0.317   1.213   5.710 -0.0703  0.4288  0.4289
 3801SOL     OW14975   0.028   0.981   4.930  0.0224  0.4784 -0.3111
 3801SOL    HW214976   0.027   1.003   5.023  0.3354  1.5013 -0.5325
 3801SOL    HW314977  -0.048   1.027   4.894 -0.9661 -1.1140 -0.3215
 3801SOL    MW414978   0.018   0.990   4.938 -0.0667  0.4033 -0.3417
 3802SOL     OW14979   3.851   6.214   1.910 -0.6370  0.6473  0.2401
 3802SOL    HW214980   3.909   6.279   1.949  0.9733 -0.1987 -0.6219
 3802SOL    HW314981   3.861   6.226   1.816  1.3725 -2.1118 -0.0336
 3802SOL    MW414982   3.860   6.224   1.903 -0.1594  0.1716  0.0902
 3803SOL     OW14983   3.796   3.582   1.706 -0.0330  0.2498  0.0604
 3803SOL    HW214984   3.826   3.655   1.760 -0.7314  1.4991 -1.1769
 3803SOL    HW314985   3.778   3.621   1.620 -2.0547 -1.0189 -0.1785
 3803SOL    MW414986   3.797   3.597   1.702 -0.3919  0.2472 -0.1344
 3804SOL     OW14987   2.274   1.065   0.804 -0.3022 -0.4042 -0.0445
 3804SOL    HW214988   2.234   1.051   0.718 -0.6411 -1.9873  0.3439
 3804SOL    HW314989   2.367   1.074   0.786 -0.3041 -1.2704 -0.5380
 3804SOL    MW414990   2.281   1.064   0.791 -0.3472 -0.7274 -0.0584
 3805SOL     OW14991   6.297   6.094   2.979  0.0311  0.1337 -0.4420
 3805SOL    HW214992   6.238   6.019   2.980  0.2772 -0.2053  3.5881
 3805SOL    HW314993   6.241   6.168   2.955 -1.5353 -0.5325  0.9991
 3805SOL    MW414994   6.282   6.094   2.976 -0.1431  0.0011  0.2799
 3806SOL     OW14995   6.273   0.228   5.851  0.1125 -0.0225 -0.4190
 3806SOL    HW214996   6.221   0.167   5.798  1.2648 -0.4862 -1.0654
 3806SOL    HW314997   6.257   0.314   5.811  2.6835 -0.6228 -3.0868
 3806SOL    MW414998   6.264   0.232   5.838  0.6037 -0.1629 -0.8563
 3807SOL     OW14999   1.578   3.639   1.097  0.3377  0.8389 -0.0178
 3807SOL    HW215000   1.635   3.562   1.093  0.2401  0.7563  0.1321
 3807SOL    HW315001   1.583   3.667   1.189  0.1513  0.8394 -0.0072
 3807SOL    MW415002   1.586   3.632   1.109  0.3003  0.8281  0.0034
 3808SOL     OW15003   3.636   6.003   6.020  0.2900  0.0906  0.3601
 3808SOL    HW215004   3.632   6.074   6.084 -0.6198 -0.5626  1.0669
 3808SOL    HW315005   3.547   5.994   5.988  0.8315  0.8059 -1.5112
 3808SOL    MW415006   3.624   6.011   6.024  0.2414  0.0988  0.2065
 3809SOL     OW15007   4.056   0.795   5.588 -0.3020 -0.0495  0.4993
 3809SOL    HW215008   3.984   0.846   5.552  0.7936  2.0904  1.1779
 3809SOL    HW315009   4.072   0.834   5.675  1.1545 -0.9709  0.6818
 3809SOL    MW415010   4.049   0.807   5.595  0.0348  0.1113  0.6129
 3810SOL     OW15011   4.557   1.006   5.338 -0.0520  0.4565 -0.0487
 3810SOL    HW215012   4.467   1.015   5.368  0.0881 -0.0823  0.5414
 3810SOL    HW315013   4.611   1.019   5.416  0.2883 -1.6348  0.1379
 3810SOL    MW415014   4.553   1.009   5.352  0.0114  0.1095  0.0538
 3811SOL     OW15015   0.066   2.099   0.892 -0.4538  0.2562 -0.0192
 3811SOL    HW215016   0.054   2.004   0.896  0.0808  0.1521 -0.6688
 3811SOL    HW315017  -0.019   2.135   0.919 -0.9805 -0.4139 -0.7214
 3811SOL    MW415018   0.053   2.092   0.896 -0.4528  0.1540 -0.1975
 3812SOL     OW15019   3.303   4.777   0.010  0.8911 -0.0499 -1.1529
 3812SOL    HW215020   3.283   4.825   0.090 -0.8749 -2.4390 -0.0546
 3812SOL    HW315021   3.278   4.837  -0.060  0.3250  1.2567  0.1177
 3812SOL    MW415022   3.297   4.791   0.011  0.5834 -0.1928 -0.8404
 3813SOL     OW15023   0.695   2.807   2.188  0.1944 -0.1826 -0.6149
 3813SOL    HW215024   0.623   2.745   2.179 -0.0247  0.0657 -0.5861
 3813SOL    HW315025   0.727   2.794   2.277  0.0670 -0.1663 -0.5665
 3813SOL    MW415026   0.689   2.797   2.199  0.1487 -0.1477 -0.6047
 3814SOL     OW15027   4.792   4.978   2.620 -0.8768 -0.0478 -0.0331
 3814SOL    HW215028   4.700   5.002   2.605 -0.5282  1.9592  0.6476
 3814SOL    HW315029   4.833   5.060   2.649  1.3534 -0.6455 -1.2588
 3814SOL    MW415030   4.785   4.992   2.622 -0.5366  0.1382 -0.1050
 3815SOL     OW15031   5.272   2.870   5.244  0.5403  0.9181  0.2110
 3815SOL    HW215032   5.340   2.843   5.182  0.7221  0.9550  0.3944
 3815SOL    HW315033   5.295   2.826   5.326 -0.3284 -0.0283 -0.0391
 3815SOL    MW415034   5.284   2.861   5.246  0.4497  0.7981  0.2022
 3816SOL     OW15035   6.222   1.864   0.170  0.4418 -0.1584 -0.3921
 3816SOL    HW215036   6.195   1.953   0.147  1.9240  0.3678 -0.2321
 3816SOL    HW315037   6.257   1.872   0.259  0.5644 -0.9033 -0.3666
 3816SOL    MW415038   6.223   1.877   0.179  0.6535 -0.1872 -0.3676
 3817SOL     OW15039   4.865   0.400   5.850 -0.0156 -0.2675 -0.4680
 3817SOL    HW215040   4.889   0.441   5.767  0.2699 -1.4416 -0.9972
 3817SOL    HW315041   4.879   0.306   5.835 -0.9164 -0.5951  0.5903
 3817SOL    MW415042   4.870   0.393   5.837 -0.0968 -0.4656 -0.3982
 3818SOL     OW15043   4.526   0.349   0.107 -0.3309  0.3425 -0.3735
 3818SOL    HW215044   4.444   0.344   0.156  0.2195 -3.6381  0.4811
 3818SOL    HW315045   4.594   0.348   0.175  0.3924 -1.2557 -1.0678
 3818SOL    MW415046   4.524   0.348   0.123 -0.1629 -0.3935 -0.3523
 3819SOL     OW15047   5.190   3.184   4.880 -0.2070  0.1584  0.6492
 3819SOL    HW215048   5.143   3.199   4.962 -1.9412 -1.4469  0.0254
 3819SOL    HW315049   5.150   3.244   4.817 -0.0037  0.2467  0.6038
 3819SOL    MW415050   5.178   3.194   4.882 -0.4090 -0.0418  0.5609
 3820SOL     OW15051   0.576   1.396   1.749 -0.3521 -0.3813 -0.3407
 3820SOL    HW215052   0.551   1.470   1.693 -0.2909  0.8329  1.1859
 3820SOL    HW315053   0.539   1.319   1.705  1.0567  0.2830 -2.9198
 3820SOL    MW415054   0.568   1.395   1.736 -0.1581 -0.1334 -0.4796
 3821SOL     OW15055   5.495   1.161   4.683  0.3552 -0.3117  0.1424
 3821SOL    HW215056   5.429   1.105   4.644  0.1461 -0.0151  0.0681
 3821SOL    HW315057   5.534   1.108   4.753 -1.6977  0.3532  1.8796
 3821SOL    MW415058   5.492   1.147   4.687  0.0567 -0.1848  0.3618
 3822SOL     OW15059   5.135   0.157   3.670 -0.4431  0.3508 -0.2706
 3822SOL    HW215060   5.137   0.236   3.616 -1.2438  1.8987  1.8190
 3822SOL    HW315061   5.202   0.171   3.737 -0.3460 -0.9103 -0.0761
 3822SOL    MW415062   5.144   0.170   3.672 -0.5359  0.3886  0.0308
 3823SOL     OW15063   4.162   3.547   0.221  0.0317 -0.7056  0.3673
 3823SOL    HW215064   4.179   3.468   0.170 -0.9876 -0.8526  0.2381
 3823SOL    HW315065   4.073   3.573   0.197 -0.1312 -0.2612  1.3903
 3823SOL    MW415066   4.152   3.540   0.211 -0.1243 -0.6664  0.4853
 3824SOL     OW15067   3.355   5.437   5.642  0.5719  0.3897  0.1886
 3824SOL    HW215068   3.299   5.472   5.573 -0.5247 -0.2735  0.7005
 3824SOL    HW315069   3.366   5.510   5.703 -0.0011  0.4473  0.2305
 3824SOL    MW415070   3.349   5.451   5.641  0.3516  0.3098  0.2617
 3825SOL     OW15071   2.234   2.445   5.882 -0.0697 -0.3501  0.1479
 3825SOL    HW215072   2.218   2.351   5.872 -3.1101 -0.0624  1.0702
 3825SOL    HW315073   2.148   2.485   5.868  1.0379  2.2684  0.2819
 3825SOL    MW415074   2.220   2.438   5.879 -0.3247  0.0333  0.2873
 3826SOL     OW15075   3.670   1.858   1.326 -0.3401 -0.1929  0.0983
 3826SOL    HW215076   3.761   1.882   1.308 -0.2517 -0.1374  0.6055
 3826SOL    HW315077   3.676   1.788   1.391 -0.6672 -0.0835  0.2463
 3826SOL    MW415078   3.682   1.852   1.332 -0.3716 -0.1711  0.1847
 3827SOL     OW15079   3.941   4.957   6.156  0.3043 -0.8307 -0.4321
 3827SOL    HW215080   3.882   4.894   6.198 -0.7075 -0.3265 -1.0608
 3827SOL    HW315081   3.931   5.037   6.208  0.6588 -0.8219 -0.3739
 3827SOL    MW415082   3.932   4.959   6.169  0.2176 -0.7630 -0.5074
 3828SOL     OW15083   3.563   5.994   4.902  0.0885  0.8721 -0.6661
 3828SOL    HW215084   3.565   6.034   4.990 -0.0146  1.8982 -1.1162
 3828SOL    HW315085   3.529   5.906   4.917 -1.0731  1.4331  0.1894
 3828SOL    MW415086   3.559   5.988   4.916 -0.0784  1.0815 -0.6126
 3829SOL     OW15087   3.674   3.411   2.839  0.4742  0.1292  0.0428
 3829SOL    HW215088   3.598   3.354   2.845  0.7280 -0.1413  0.8142
 3829SOL    HW315089   3.640   3.492   2.801 -0.4409  0.4160  1.3680
 3829SOL    MW415090   3.660   3.414   2.835  0.3869  0.1314  0.3194
 3830SOL     OW15091   2.780   4.063   3.437  0.1820  0.2321  0.0056
 3830SOL    HW215092   2.808   4.140   3.486  0.8859 -0.2464  0.3631
 3830SOL    HW315093   2.742   4.099   3.356 -1.9374  1.1037  1.2845
 3830SOL    MW415094   2.778   4.078   3.433 -0.0048  0.2840  0.2215
 3831SOL     OW15095   3.409   0.656   0.773  0.2041  0.1259  0.5481
 3831SOL    HW215096   3.315   0.637   0.774  0.1916  0.1965  1.2315
 3831SOL    HW315097   3.415   0.751   0.770  0.2665  0.0953 -1.1010
 3831SOL    MW415098   3.397   0.666   0.773  0.2107  0.1311  0.4207
 3832SOL     OW15099   3.622   0.707   0.966 -0.2507  0.0165  0.3618
 3832SOL    HW215100   3.536   0.743   0.984 -0.2846 -0.3834  1.0073
 3832SOL    HW315101   3.640   0.647   1.038  0.1746 -0.6091 -0.2414
 3832SOL    MW415102   3.613   0.704   0.978 -0.1991 -0.1188  0.3674
 3833SOL     OW15103   4.464   3.671   4.845 -0.1358  0.5115  0.3819
 3833SOL    HW215104   4.382   3.651   4.799  0.4926  0.6358 -0.8401
 3833SOL    HW315105   4.478   3.764   4.827 -0.7341  1.0103  2.2714
 3833SOL    MW415106   4.455   3.681   4.837 -0.1319  0.5937  0.4700
 3834SOL     OW15107   6.053   3.000   5.010 -0.2634 -0.4074 -0.1261
 3834SOL    HW215108   5.958   2.990   5.017 -0.2915 -1.1240 -1.3880
 3834SOL    HW315109   6.078   2.952   4.932  1.5787 -2.8996  1.8116
 3834SOL    MW415110   6.044   2.993   5.001 -0.0241 -0.8308 -0.0369
 3835SOL     OW15111   0.670   4.114   2.543  0.8287  0.0285 -0.0447
 3835SOL    HW215112   0.607   4.112   2.471 -0.2401  2.3169  0.6950
 3835SOL    HW315113   0.644   4.042   2.600 -0.1976 -0.0020 -0.5260
 3835SOL    MW415114   0.658   4.104   2.541  0.5523  0.3264 -0.0106
 3836SOL     OW15115   2.444   0.267   0.307 -0.1901  0.3246 -0.1988
 3836SOL    HW215116   2.418   0.357   0.325  0.0015  0.8054 -2.1163
 3836SOL    HW315117   2.419   0.218   0.385 -0.1896  2.0556  0.9229
 3836SOL    MW415118   2.437   0.272   0.320 -0.1647  0.6164 -0.3038
 3837SOL     OW15119   0.883   0.541   6.061  0.2532  0.1538  0.3365
 3837SOL    HW215120   0.908   0.454   6.091  0.2528 -0.1384 -0.4696
 3837SOL    HW315121   0.809   0.526   6.003  0.1004  0.7187  0.3791
 3837SOL    MW415122   0.877   0.528   6.057  0.2330  0.1898  0.2358
 3838SOL     OW15123   5.786   0.825   5.888  0.7854 -0.3784 -0.6223
 3838SOL    HW215124   5.874   0.860   5.903  1.1004 -1.5504  0.4873
 3838SOL    HW315125   5.784   0.803   5.795  1.1068  1.0856 -0.9982
 3838SOL    MW415126   5.797   0.827   5.877  0.8694 -0.3399 -0.5255
 3839SOL     OW15127   5.359   4.949   0.701  0.2195 -0.0022  0.6512
 3839SOL    HW215128   5.382   4.861   0.731 -1.1033 -0.5422  0.1491
 3839SOL    HW315129   5.366   4.944   0.605 -0.3095  0.3060  0.5954
 3839SOL    MW415130   5.363   4.937   0.692 -0.0249 -0.0328  0.5776
 3840SOL     OW15131   4.758   3.554   5.223  0.0116 -0.1496  0.1133
 3840SOL    HW215132   4.782   3.529   5.312 -1.5495 -1.7182  0.1457
 3840SOL    HW315133   4.738   3.647   5.228  0.8688  0.0001  1.1683
 3840SOL    MW415134   4.759   3.563   5.235 -0.0813 -0.3368  0.2568
 3841SOL     OW15135   2.938   5.805   5.848 -0.4930 -0.6471  0.3697
 3841SOL    HW215136   2.974   5.842   5.767 -0.8195  0.0683  0.5462
 3841SOL    HW315137   2.851   5.775   5.824 -0.5521 -0.5239  0.4264
 3841SOL    MW415138   2.932   5.806   5.834 -0.5439 -0.5365  0.4004
 3842SOL     OW15139   2.699   4.783   2.696  0.1448 -0.3292  0.1014
 3842SOL    HW215140   2.727   4.796   2.786 -0.1408 -0.3865  0.1990
 3842SOL    HW315141   2.616   4.736   2.703  0.1648 -0.4138 -0.1928
 3842SOL    MW415142   2.692   4.779   2.708  0.1098 -0.3479  0.0755
 3843SOL     OW15143   3.378   0.764   2.553 -0.0107  0.0678 -0.2732
 3843SOL    HW215144   3.415   0.697   2.611  1.4137  0.1191 -1.0630
 3843SOL    HW315145   3.297   0.725   2.520 -0.3496 -0.3441  0.9934
 3843SOL    MW415146   3.372   0.750   2.556  0.1325  0.0203 -0.2103
 3844SOL     OW15147   0.964   4.281   5.935 -0.0866  0.2844  0.0419
 3844SOL    HW215148   0.912   4.222   5.989 -0.0324 -0.2815 -0.4988
 3844SOL    HW315149   1.045   4.295   5.984 -0.4547  0.6058  0.5648
 3844SOL    MW415150   0.968   4.275   5.948 -0.1280  0.2522  0.0396
 3845SOL     OW15151   5.653   3.950   5.956 -0.1083 -0.3443  0.5929
 3845SOL    HW215152   5.603   3.994   5.888  1.3569 -1.2761 -1.1733
 3845SOL    HW315153   5.677   4.020   6.016 -0.4736  0.7221 -0.4610
 3845SOL    MW415154   5.650   3.965   5.955  0.0368 -0.3266  0.2208
 3846SOL     OW15155   5.181   3.536   0.230  0.0432  1.0580 -0.0554
 3846SOL    HW215156   5.256   3.548   0.288 -0.0993 -0.1300  0.3966
 3846SOL    HW315157   5.111   3.507   0.288  0.0403 -0.6686 -0.8691
 3846SOL    MW415158   5.182   3.534   0.245  0.0240  0.6734 -0.1031
 3847SOL     OW15159   2.941   4.685   1.730 -0.1953 -0.0357  0.0804
 3847SOL    HW215160   2.958   4.679   1.636 -1.9258 -2.2870 -0.1877
 3847SOL    HW315161   2.994   4.758   1.760  0.9134  0.3262 -2.5275
 3847SOL    MW415162   2.950   4.694   1.722 -0.2774 -0.2850 -0.2991
 3848SOL     OW15163   4.431   2.146   5.191  0.1146 -0.3927 -0.0165
 3848SOL    HW215164   4.522   2.135   5.163 -0.1593 -0.2393 -0.9953
 3848SOL    HW315165   4.384   2.074   5.148 -0.6081  0.8285 -1.3617
 3848SOL    MW415166   4.437   2.135   5.182 -0.0169 -0.2114 -0.3231
 3849SOL     OW15167   1.212   0.291   6.256 -0.5102  0.7828 -0.0332
 3849SOL    HW215168   1.263   0.365   6.223  0.4342  0.1211 -0.0778
 3849SOL    HW315169   1.256   0.266   6.337 -0.8073  0.2472 -0.0327
 3849SOL    MW415170   1.224   0.298   6.263 -0.4248  0.6248 -0.0390
 3850SOL     OW15171   5.755   3.017   2.212  0.4513 -0.1818 -0.2746
 3850SOL    HW215172   5.681   3.006   2.271 -0.2866 -0.7332 -1.2600
 3850SOL    HW315173   5.746   2.944   2.149  0.2567  1.2846 -2.0253
 3850SOL    MW415174   5.744   3.006   2.211  0.3283 -0.0611 -0.6356
 3851SOL     OW15175   4.756   0.394   0.269 -0.9799  0.2975 -0.0195
 3851SOL    HW215176   4.796   0.370   0.185 -0.4385  0.6954  0.1224
 3851SOL    HW315177   4.765   0.315   0.322  1.8780  1.0979  0.8488
 3851SOL    MW415178   4.762   0.380   0.265 -0.5314  0.4556  0.1138
 3852SOL     OW15179   0.347   0.315   3.687  0.1731  0.1945 -0.1398
 3852SOL    HW215180   0.361   0.252   3.616  0.7087  1.1112 -0.8771
 3852SOL    HW315181   0.386   0.273   3.763  4.0647  1.1138 -1.3725
 3852SOL    MW415182   0.354   0.301   3.687  0.7572  0.4367 -0.3997
 3853SOL     OW15183   4.633   1.775   0.739 -0.0394  0.3122 -0.0235
 3853SOL    HW215184   4.606   1.712   0.672  0.4700 -0.7163  0.7125
 3853SOL    HW315185   4.683   1.841   0.691  1.6905 -1.2415 -0.4742
 3853SOL    MW415186   4.636   1.775   0.723  0.2560 -0.0285  0.0142
 3854SOL     OW15187   1.010   6.267   1.558 -0.0909 -0.1710 -0.1121
 3854SOL    HW215188   1.095   6.284   1.519 -0.2904 -2.0467 -1.5097
 3854SOL    HW315189   1.026   6.201   1.625 -0.3781 -0.2567 -0.1229
 3854SOL    MW415190   1.023   6.261   1.562 -0.1551 -0.4298 -0.2979
 3855SOL     OW15191   0.284   2.235   0.358  0.7721 -0.1667  0.5183
 3855SOL    HW215192   0.207   2.284   0.330  1.5320  0.3291 -0.8080
 3855SOL    HW315193   0.254   2.183   0.432 -0.7879  0.1366  0.1310
 3855SOL    MW415194   0.270   2.235   0.364  0.6666 -0.0613  0.2922
 3856SOL     OW15195   6.365   4.708   3.709 -0.1452  0.0029 -0.2056
 3856SOL    HW215196   6.382   4.642   3.641 -0.3656 -0.3142  0.0471
 3856SOL    HW315197   6.385   4.663   3.791 -2.0889 -0.3556  0.1012
 3856SOL    MW415198   6.370   4.693   3.711 -0.4308 -0.0863 -0.1317
 3857SOL     OW15199   2.000   1.812   2.086 -0.1613  0.0902  0.5222
 3857SOL    HW215200   1.945   1.758   2.143 -0.7624  1.7039  1.5427
 3857SOL    HW315201   2.026   1.754   2.015 -3.4157 -0.6680 -0.1679
 3857SOL    MW415202   1.996   1.797   2.084 -0.6700  0.2031  0.5658
 3858SOL     OW15203   5.039   5.217   1.366  0.3216 -0.0052  0.6779
 3858SOL    HW215204   4.947   5.198   1.383 -0.2628  1.1015 -0.9923
 3858SOL    HW315205   5.078   5.227   1.453 -1.6869  1.9426  1.4411
 3858SOL    MW415206   5.032   5.216   1.380 -0.0205  0.3978  0.5582
 3859SOL     OW15207   2.067   3.793   4.794 -0.0248  0.5201  0.0318
 3859SOL    HW215208   2.018   3.872   4.815  1.1475  1.0114  1.0566
 3859SOL    HW315209   2.071   3.744   4.877  1.1595  0.4869 -0.0188
 3859SOL    MW415210   2.061   3.797   4.808  0.2861  0.5806  0.1603
 3860SOL     OW15211   0.249   3.172   4.052 -0.0412  0.3400  0.5851
 3860SOL    HW215212   0.205   3.125   3.982  0.2755  1.5021 -0.4321
 3860SOL    HW315213   0.182   3.232   4.086  0.4077  1.3259 -0.2214
 3860SOL    MW415214   0.234   3.174   4.048  0.0598  0.6234  0.3445
 3861SOL     OW15215   0.280   6.191   3.385 -0.3676  0.4599  0.0506
 3861SOL    HW215216   0.222   6.236   3.447  0.8578  1.2558  0.6396
 3861SOL    HW315217   0.233   6.110   3.363 -0.7186  0.0192  2.2259
 3861SOL    MW415218   0.266   6.186   3.390 -0.2522  0.5067  0.4153
 3862SOL     OW15219   3.433   5.130   5.318 -0.5096 -0.0842  0.1907
 3862SOL    HW215220   3.376   5.053   5.310  0.3139 -0.7800  0.9083
 3862SOL    HW315221   3.447   5.140   5.412 -2.5374  2.4123  0.3270
 3862SOL    MW415222   3.427   5.121   5.329 -0.6685  0.1534  0.3033
 3863SOL     OW15223   2.701   0.497   1.787  0.1437 -0.3767 -0.2404
 3863SOL    HW215224   2.607   0.496   1.770  0.6254 -2.5398 -3.7516
 3863SOL    HW315225   2.722   0.407   1.810  1.4843 -0.1851 -0.6357
 3863SOL    MW415226   2.691   0.485   1.788  0.3841 -0.6368 -0.7559
 3864SOL     OW15227   1.712   5.059   0.781  0.3811 -0.2968 -0.1119
 3864SOL    HW215228   1.789   5.066   0.725 -1.5610  5.0261 -2.8351
 3864SOL    HW315229   1.655   4.996   0.736  1.4899 -1.2310 -0.2547
 3864SOL    MW415230   1.715   5.051   0.767  0.2712  0.2822 -0.4900
 3865SOL     OW15231   4.498   2.123   0.070 -0.1218 -0.0312 -0.1332
 3865SOL    HW215232   4.544   2.206   0.056 -0.7737  0.2201 -0.8140
 3865SOL    HW315233   4.410   2.137   0.035 -0.3260 -0.9294 -0.0206
 3865SOL    MW415234   4.492   2.136   0.064 -0.2348 -0.1165 -0.2082
 3866SOL     OW15235   0.318   3.936   3.769 -0.0355  0.1884 -0.4503
 3866SOL    HW215236   0.397   3.892   3.799  0.8453  1.9100 -0.0910
 3866SOL    HW315237   0.302   4.005   3.833 -1.3758  0.3824 -0.9489
 3866SOL    MW415238   0.326   3.940   3.781 -0.0961  0.4411 -0.4686
 3867SOL     OW15239   0.837   3.508   2.045  0.0058  0.2923  0.8502
 3867SOL    HW215240   0.916   3.464   2.075  0.3784  0.6203  0.3431
 3867SOL    HW315241   0.766   3.449   2.071  0.4749 -0.4344  0.5068
 3867SOL    MW415242   0.838   3.494   2.052  0.1168  0.2397  0.7380
 3868SOL     OW15243   4.698   3.776   2.933  0.1684  0.2270  0.7794
 3868SOL    HW215244   4.648   3.712   2.984 -0.8337  0.1624 -0.2612
 3868SOL    HW315245   4.685   3.859   2.979 -1.6916  0.3920  0.0252
 3868SOL    MW415246   4.690   3.779   2.946 -0.2092  0.2403  0.5426
 3869SOL     OW15247   0.940   3.360   1.017  0.6128 -0.0364  0.1410
 3869SOL    HW215248   0.980   3.445   0.998  0.6344 -0.6028 -2.7765
 3869SOL    HW315249   1.011   3.297   1.009  0.4273 -0.4437  1.4691
 3869SOL    MW415250   0.954   3.363   1.014  0.5912 -0.1648 -0.0687
 3870SOL     OW15251   3.981   4.185   5.576 -0.4090 -0.0173 -0.1982
 3870SOL    HW215252   3.899   4.140   5.597  0.2375 -0.1400  2.3038
 3870SOL    HW315253   4.040   4.165   5.648  0.8567  2.4973 -0.4036
 3870SOL    MW415254   3.978   4.177   5.588 -0.1567  0.2983  0.1048
 3871SOL     OW15255   0.552   2.357   1.895 -0.6316  0.1734 -0.0316
 3871SOL    HW215256   0.568   2.314   1.811  0.7291 -0.0152  0.3024
 3871SOL    HW315257   0.535   2.285   1.956 -0.4675  0.2347  0.0885
 3871SOL    MW415258   0.552   2.342   1.892 -0.4304  0.1566  0.0283
 3872SOL     OW15259   0.657   0.944   3.106  0.2068  0.1977 -0.4104
 3872SOL    HW215260   0.692   0.965   3.192  0.8306  1.1005 -0.8633
 3872SOL    HW315261   0.734   0.942   3.048  0.0454 -2.3259 -0.6268
 3872SOL    MW415262   0.672   0.947   3.109  0.2678 -0.0162 -0.4987
 3873SOL     OW15263   1.998   0.364   2.066  0.6779  0.0406  0.0687
 3873SOL    HW215264   2.030   0.281   2.099 -0.1226 -0.6725 -0.8937
 3873SOL    HW315265   2.074   0.403   2.021  0.6205 -0.9615 -0.9390
 3873SOL    MW415266   2.012   0.358   2.064  0.5647 -0.1857 -0.1912
 3874SOL     OW15267   0.176   2.457   4.238 -0.2855  0.4635  0.6034
 3874SOL    HW215268   0.260   2.498   4.221 -0.2441  1.2638  2.4762
 3874SOL    HW315269   0.183   2.424   4.327 -1.1886 -1.5007  0.0066
 3874SOL    MW415270   0.188   2.458   4.247 -0.3992  0.3100  0.7718
 3875SOL     OW15271   3.430   6.080   2.360  0.1455 -0.4577  0.0356
 3875SOL    HW215272   3.345   6.113   2.388 -0.3524 -2.2917  0.7926
 3875SOL    HW315273   3.493   6.142   2.397 -0.7886  0.1213  0.6885
 3875SOL    MW415274   3.427   6.093   2.369 -0.0434 -0.6233  0.2216
 3876SOL     OW15275   0.291   3.521   4.423  0.2288 -0.4127 -0.3680
 3876SOL    HW215276   0.335   3.569   4.353 -1.3856  0.0932 -1.0888
 3876SOL    HW315277   0.349   3.448   4.442  1.3291  0.1765 -1.3157
 3876SOL    MW415278   0.305   3.518   4.417  0.1609 -0.2682 -0.5881
 3877SOL     OW15279   3.627   4.650   4.269  0.2683  0.1071 -0.7331
 3877SOL    HW215280   3.632   4.568   4.220 -0.1788 -2.1178  2.5679
 3877SOL    HW315281   3.540   4.648   4.309 -0.9931  3.8097 -2.9056
 3877SOL    MW415282   3.616   4.639   4.268  0.0429  0.3021 -0.5842
 3878SOL     OW15283   5.525   5.591   0.583  0.7733 -0.0684 -0.0706
 3878SOL    HW215284   5.520   5.656   0.653  0.5962  0.2112 -0.3424
 3878SOL    HW315285   5.610   5.607   0.542  1.8708 -1.6433  1.4439
 3878SOL    MW415286   5.536   5.602   0.587  0.8948 -0.2393  0.0933
 3879SOL     OW15287   4.401   2.367   0.741  0.0852 -0.4554 -0.9923
 3879SOL    HW215288   4.410   2.461   0.726  0.2378 -0.4091 -0.6172
 3879SOL    HW315289   4.413   2.328   0.654 -2.2869 -0.0013 -1.6090
 3879SOL    MW415290   4.404   2.374   0.727 -0.2076 -0.3894 -1.0242
 3880SOL     OW15291   0.170   0.370   2.972  0.2387 -0.2055  0.4333
 3880SOL    HW215292   0.146   0.429   2.900  1.4107 -1.4595 -1.0656
 3880SOL    HW315293   0.088   0.356   3.020 -0.2026  2.1295  0.5154
 3880SOL    MW415294   0.156   0.376   2.969  0.3351 -0.0629  0.2464
 3881SOL     OW15295   3.055   2.139   5.365 -0.1222  0.1077 -0.4758
 3881SOL    HW215296   3.086   2.048   5.366  0.9846  0.4485 -1.4194
 3881SOL    HW315297   3.110   2.184   5.430 -1.5726 -0.1377  0.9896
 3881SOL    MW415298   3.067   2.133   5.374 -0.1675  0.1203 -0.4069
 3882SOL     OW15299   4.153   3.621   3.936  0.4396  0.0450  0.1618
 3882SOL    HW215300   4.149   3.609   3.841 -0.3262  1.1921  0.0264
 3882SOL    HW315301   4.196   3.542   3.969  0.2333 -0.6063 -1.0872
 3882SOL    MW415302   4.158   3.609   3.928  0.3113  0.1104 -0.0209
 3883SOL     OW15303   2.158   0.746   1.957  0.1666  0.0454  0.0906
 3883SOL    HW215304   2.194   0.782   2.038  0.9414 -1.7306  0.5574
 3883SOL    HW315305   2.223   0.768   1.890  0.6473 -0.4868  0.3768
 3883SOL    MW415306   2.171   0.754   1.959  0.3322 -0.2591  0.1899
 3884SOL     OW15307   2.193   0.480   1.916 -0.2865 -0.0737 -0.2928
 3884SOL    HW215308   2.192   0.576   1.908 -1.4719  0.0050  0.5447
 3884SOL    HW315309   2.141   0.450   1.842  0.7848 -0.1348 -1.0430
 3884SOL    MW415310   2.186   0.489   1.905 -0.3015 -0.0714 -0.2813
 3885SOL     OW15311   4.965   4.667   2.376  0.4817  0.3523  0.7706
 3885SOL    HW215312   5.028   4.629   2.438  0.2537 -0.2172  0.6587
 3885SOL    HW315313   4.926   4.592   2.332 -0.9473  0.6456  1.4744
 3885SOL    MW415314   4.969   4.652   2.379  0.2631  0.3158  0.8487
 3886SOL     OW15315   4.710   5.460   3.216 -0.1283 -0.3614  0.8617
 3886SOL    HW215316   4.711   5.532   3.153  2.4305 -2.2747 -1.5353
 3886SOL    HW315317   4.642   5.401   3.183 -1.1191  0.1729  1.9017
 3886SOL    MW415318   4.701   5.461   3.203  0.0785 -0.5433  0.6827
 3887SOL     OW15319   0.273   5.998   1.644 -0.1431 -0.2164  0.3120
 3887SOL    HW215320   0.280   6.072   1.583  0.7909  0.1328  0.8247
 3887SOL    HW315321   0.333   6.020   1.715 -0.8031 -0.8804  1.0983
 3887SOL    MW415322   0.281   6.011   1.645 -0.1069 -0.2579  0.4834
 3888SOL     OW15323   6.232   3.920   0.093 -0.4336  0.0631 -0.3933
 3888SOL    HW215324   6.185   3.979   0.034 -2.5698 -1.0546  0.0895
 3888SOL    HW315325   6.206   3.832   0.065 -0.0224 -0.5449  1.0394
 3888SOL    MW415326   6.223   3.916   0.081 -0.6612 -0.1646 -0.1406
 3889SOL     OW15327   1.829   6.183   3.829 -0.1995 -0.1084  1.3203
 3889SOL    HW215328   1.784   6.102   3.804  0.2805  0.2901 -1.0024
 3889SOL    HW315329   1.758   6.240   3.860 -1.3051  0.1890 -1.4204
 3889SOL    MW415330   1.813   6.180   3.830 -0.2821 -0.0166  0.6523
 3890SOL     OW15331   2.442   3.583   4.079  0.3040  0.1653 -0.1505
 3890SOL    HW215332   2.399   3.581   4.165 -0.0535  0.1296 -0.3312
 3890SOL    HW315333   2.517   3.641   4.092 -0.1998  0.8058 -0.0201
 3890SOL    MW415334   2.446   3.591   4.092  0.1903  0.2451 -0.1571
 3891SOL     OW15335   5.860   2.116   3.979  0.5441 -0.0454 -0.2951
 3891SOL    HW215336   5.880   2.069   4.059  0.2781  0.7182  0.2323
 3891SOL    HW315337   5.812   2.053   3.925  0.1732 -0.3714  0.4071
 3891SOL    MW415338   5.856   2.102   3.982  0.4601  0.0123 -0.1329
 3892SOL     OW15339   3.052   4.132   0.855 -0.2096 -0.2032 -0.4462
 3892SOL    HW215340   2.991   4.102   0.922  2.8498 -0.6648  2.3795
 3892SOL    HW315341   3.034   4.225   0.846 -1.5875 -0.4062 -0.0398
 3892SOL    MW415342   3.041   4.140   0.862  0.0123 -0.2909 -0.0197
 3893SOL     OW15343   6.270   5.595   0.090 -0.3468  0.6844  0.0039
 3893SOL    HW215344   6.261   5.540   0.012 -0.7482  2.0545 -0.9425
 3893SOL    HW315345   6.331   5.547   0.145 -0.8163 -0.8024 -0.7006
 3893SOL    MW415346   6.277   5.581   0.087 -0.4617  0.6690 -0.2139
 3894SOL     OW15347   4.360   1.319   5.524  0.7340  0.1617  0.6232
 3894SOL    HW215348   4.285   1.265   5.546  1.2407  0.0746  2.2094
 3894SOL    HW315349   4.432   1.256   5.511  0.4116  0.1643 -1.7568
 3894SOL    MW415350   4.359   1.303   5.525  0.7583  0.1506  0.5185
 3895SOL     OW15351   5.687   5.519   5.334 -0.3059  0.0089 -0.1494
 3895SOL    HW215352   5.754   5.507   5.402  0.2986  1.4934 -0.4393
 3895SOL    HW315353   5.734   5.562   5.262 -2.1113  4.0466  0.8091
 3895SOL    MW415354   5.702   5.523   5.333 -0.4644  0.7375 -0.0612
 3896SOL     OW15355   4.393   3.883   6.091 -0.2059  0.1592  0.1803
 3896SOL    HW215356   4.478   3.848   6.066  0.2948  1.1399  0.4375
 3896SOL    HW315357   4.384   3.860   6.184 -1.1338 -1.6696 -0.3199
 3896SOL    MW415358   4.403   3.875   6.100 -0.2623  0.0473  0.1482
 3897SOL     OW15359   6.055   4.737   4.054 -0.2757  0.2930  0.4490
 3897SOL    HW215360   6.006   4.700   3.981 -1.2794  0.2521  1.1345
 3897SOL    HW315361   6.010   4.706   4.132 -2.2366  4.1835  1.1271
 3897SOL    MW415362   6.043   4.728   4.055 -0.6669  0.8009  0.6289
 3898SOL     OW15363   1.347   3.524   4.218 -0.0331  0.5566  0.1619
 3898SOL    HW215364   1.368   3.616   4.202  1.7189  0.2918  0.6828
 3898SOL    HW315365   1.328   3.488   4.131 -0.3348  1.3126 -0.0927
 3898SOL    MW415366   1.348   3.531   4.204  0.1583  0.6214  0.1970
 3899SOL     OW15367   2.660   5.675   4.919 -0.2013  0.1682  0.1376
 3899SOL    HW215368   2.612   5.598   4.889  1.5035 -0.4514 -1.1470
 3899SOL    HW315369   2.692   5.717   4.839  0.6899  1.0174  0.8984
 3899SOL    MW415370   2.658   5.671   4.905  0.1412  0.1985  0.0685
 3900SOL     OW15371   5.272   0.007   5.553 -0.3572 -0.6935  0.0153
 3900SOL    HW215372   5.283   0.031   5.645  0.5154 -0.0706 -0.2377
 3900SOL    HW315373   5.177   0.002   5.541 -0.5356  0.7642  0.5784
 3900SOL    MW415374   5.260   0.010   5.564 -0.2656 -0.4190  0.0562
 3901SOL     OW15375   0.652   3.383   3.604 -0.3363  0.0731  0.3541
 3901SOL    HW215376   0.639   3.293   3.575 -0.0140 -0.2653  1.2407
 3901SOL    HW315377   0.564   3.421   3.606 -0.4239 -0.0547 -0.5123
 3901SOL    MW415378   0.639   3.377   3.600 -0.3053  0.0116  0.3568
 3902SOL     OW15379   2.726   2.471   1.078 -0.5337 -0.4961 -0.7778
 3902SOL    HW215380   2.722   2.388   1.031 -0.2553 -1.2235  0.4544
 3902SOL    HW315381   2.724   2.447   1.171 -0.5332  0.8752 -0.4004
 3902SOL    MW415382   2.725   2.457   1.084 -0.4969 -0.4111 -0.5654
 3903SOL     OW15383   4.426   2.666   1.070  0.0206 -0.1245  0.0662
 3903SOL    HW215384   4.466   2.749   1.098 -0.6093  0.2177 -0.0178
 3903SOL    HW315385   4.405   2.680   0.977  0.3254 -0.5459 -0.0677
 3903SOL    MW415386   4.428   2.679   1.061 -0.0223 -0.1350  0.0375
 3904SOL     OW15387   0.561   5.542   5.371  0.2223 -0.0721  0.5533
 3904SOL    HW215388   0.513   5.521   5.291 -1.0184  1.6480  0.7849
 3904SOL    HW315389   0.613   5.464   5.389  0.7393 -0.4136 -2.0471
 3904SOL    MW415390   0.561   5.529   5.363  0.1268  0.1098  0.2408
 3905SOL     OW15391   2.546   3.215   5.471 -0.3559 -0.0695 -0.2298
 3905SOL    HW215392   2.595   3.267   5.407 -0.9475 -0.5346 -1.0827
 3905SOL    HW315393   2.579   3.126   5.459  0.2417 -0.0075  0.8236
 3905SOL    MW415394   2.557   3.210   5.461 -0.3551 -0.1227 -0.2033
 3906SOL     OW15395   5.694   5.511   3.568  0.3039  0.3393 -0.1209
 3906SOL    HW215396   5.650   5.521   3.652  0.1105  1.0773 -0.2991
 3906SOL    HW315397   5.761   5.580   3.568  0.9906 -0.3087 -0.1503
 3906SOL    MW415398   5.697   5.521   3.579  0.3690  0.3512 -0.1483
 3907SOL     OW15399   1.245   4.727   3.870  0.0543 -0.4942  0.0189
 3907SOL    HW215400   1.256   4.657   3.934  0.7622 -0.0476  0.3995
 3907SOL    HW315401   1.321   4.719   3.812  0.4460  0.2967  0.4022
 3907SOL    MW415402   1.256   4.717   3.871  0.1994 -0.3309  0.1197
 3908SOL     OW15403   3.067   0.650   3.930  0.2950 -0.1264  0.1082
 3908SOL    HW215404   3.116   0.582   3.975 -0.4024  0.9333  2.6171
 3908SOL    HW315405   2.981   0.648   3.970  0.0106  1.6658 -0.3405
 3908SOL    MW415406   3.062   0.641   3.941  0.1654  0.2499  0.3800
 3909SOL     OW15407   0.485   2.665   1.620  0.1174  0.0452 -0.4552
 3909SOL    HW215408   0.404   2.630   1.659  1.0654 -0.0578  1.5692
 3909SOL    HW315409   0.458   2.746   1.577 -0.9834  0.4136  0.8376
 3909SOL    MW415410   0.470   2.671   1.620  0.0972  0.0802 -0.0175
 3910SOL     OW15411   3.877   2.590   5.494  0.0802 -0.2838  0.0800
 3910SOL    HW215412   3.955   2.542   5.466  1.5949  0.9756  1.8057
 3910SOL    HW315413   3.900   2.682   5.482 -0.8181  0.1428  1.3352
 3910SOL    MW415414   3.891   2.596   5.489  0.1615 -0.0613  0.4733
 3911SOL     OW15415   1.431   4.022   0.542  0.2610  0.3830  0.4943
 3911SOL    HW215416   1.352   4.026   0.597 -0.3359 -1.3767 -0.1481
 3911SOL    HW315417   1.443   4.112   0.511 -1.6720  0.6670  0.4095
 3911SOL    MW415418   1.422   4.035   0.545 -0.0728  0.1883  0.3983
 3912SOL     OW15419   4.948   1.469   2.397  0.5592  0.2692  0.1121
 3912SOL    HW215420   4.874   1.409   2.399  0.3202  0.5628  0.0938
 3912SOL    HW315421   4.924   1.539   2.457 -1.4156  3.0038 -3.4728
 3912SOL    MW415422   4.935   1.471   2.405  0.2671  0.6687 -0.3633
 3913SOL     OW15423   4.095   2.476   0.538  0.4183  0.6984 -0.1782
 3913SOL    HW215424   4.022   2.517   0.584  0.3610  0.2354  0.1575
 3913SOL    HW315425   4.104   2.390   0.580  0.4267  0.2999 -0.9787
 3913SOL    MW415426   4.087   2.470   0.550  0.4119  0.5848 -0.2395
 3914SOL     OW15427   2.810   5.475   0.066  0.3113 -0.1188  0.4460
 3914SOL    HW215428   2.786   5.431   0.148 -1.2486  0.0103  0.0938
 3914SOL    HW315429   2.737   5.535   0.050  1.2446  0.8182 -0.3544
 3914SOL    MW415430   2.797   5.477   0.075  0.2286  0.0219  0.2940
 3915SOL     OW15431   3.891   3.689   1.021  0.2741  0.2625 -0.3947
 3915SOL    HW215432   3.828   3.756   1.049  0.4773  0.0227  0.7048
 3915SOL    HW315433   3.959   3.738   0.974  0.8115  0.9740  1.0505
 3915SOL    MW415434   3.892   3.704   1.019  0.3718  0.3247 -0.0590
 3916SOL     OW15435   4.938   5.484   1.328 -0.1834 -0.3175  0.1775
 3916SOL    HW215436   4.972   5.400   1.360 -1.1231 -1.0835 -0.7502
 3916SOL    HW315437   4.978   5.549   1.385 -1.7214 -1.5770  2.9342
 3916SOL    MW415438   4.948   5.481   1.340 -0.5103 -0.5848  0.4188
 3917SOL     OW15439   5.470   2.485   1.199  0.2098 -0.1376  0.2974
 3917SOL    HW215440   5.506   2.509   1.113  0.6668  1.5396  0.9196
 3917SOL    HW315441   5.547   2.462   1.251  0.7325  4.1941  1.8682
 3917SOL    MW415442   5.485   2.485   1.194  0.3390  0.6552  0.5868
 3918SOL     OW15443   4.043   4.725   0.876  0.7884  0.2059  0.3733
 3918SOL    HW215444   4.034   4.698   0.784  0.3486 -0.7454  0.6793
 3918SOL    HW315445   3.984   4.800   0.885  0.1855 -0.2204  0.0749
 3918SOL    MW415446   4.034   4.731   0.865  0.6508  0.0242  0.3743
 3919SOL     OW15447   0.173   0.069   3.122  0.0069 -0.0904  0.0622
 3919SOL    HW215448   0.166   0.150   3.172  0.6044  0.2328 -0.3723
 3919SOL    HW315449   0.231   0.090   3.049  0.1621 -0.9075 -0.0609
 3919SOL    MW415450   0.179   0.082   3.119  0.1062 -0.1556 -0.0114
 3920SOL     OW15451   5.686   4.162   4.085 -0.2381  0.9248  0.2852
 3920SOL    HW215452   5.707   4.255   4.088  0.7635  0.8117 -1.8156
 3920SOL    HW315453   5.670   4.138   4.177  2.1555  2.5621  1.2210
 3920SOL    MW415454   5.687   4.171   4.098  0.2099  1.1259  0.1315
 3921SOL     OW15455   0.071   1.516   4.601  0.4818 -0.0509  0.3068
 3921SOL    HW215456   0.151   1.564   4.625  0.4054 -1.2538  3.4640
 3921SOL    HW315457   0.002   1.583   4.604  0.7677  0.2299  2.0717
 3921SOL    MW415458   0.072   1.531   4.605  0.5094 -0.1725  0.9562
 3922SOL     OW15459   4.017   0.668   4.403  0.0780 -0.4348  0.0070
 3922SOL    HW215460   4.013   0.715   4.486 -0.6792 -0.2056 -0.1458
 3922SOL    HW315461   4.017   0.737   4.337  2.0701 -0.5721 -0.1753
 3922SOL    MW415462   4.016   0.683   4.405  0.2410 -0.4227 -0.0372
 3923SOL     OW15463   1.738   5.372   0.142  0.2712 -0.2846 -0.3218
 3923SOL    HW215464   1.808   5.317   0.108  1.0407  0.0348  0.7167
 3923SOL    HW315465   1.725   5.440   0.075  1.0069 -0.2986 -0.4796
 3923SOL    MW415466   1.745   5.374   0.129  0.4698 -0.2443 -0.2056
 3924SOL     OW15467   5.174   0.367   2.198 -0.0251 -0.0438  0.4413
 3924SOL    HW215468   5.241   0.431   2.224 -0.8260  0.2299  1.9444
 3924SOL    HW315469   5.213   0.282   2.219 -0.1720  0.1203  1.4181
 3924SOL    MW415470   5.188   0.364   2.204 -0.1501  0.0140  0.7684
 3925SOL     OW15471   6.215   2.938   2.398  0.0331  0.1672  0.5807
 3925SOL    HW215472   6.294   2.941   2.344 -0.4202 -0.5132 -0.1429
 3925SOL    HW315473   6.229   2.863   2.457 -0.3739 -0.4322 -0.0610
 3925SOL    MW415474   6.227   2.928   2.399 -0.0804 -0.0016  0.4006
 3926SOL     OW15475   4.333   2.178   6.114  0.4177  0.0972  0.0976
 3926SOL    HW215476   4.295   2.187   6.202  0.4191  0.9214  0.0213
 3926SOL    HW315477   4.259   2.159   6.057  0.6347 -2.2612  0.5282
 3926SOL    MW415478   4.318   2.177   6.118  0.4465 -0.1052  0.1444
 3927SOL     OW15479   5.027   2.105   4.110  0.0211 -0.3113 -0.2969
 3927SOL    HW215480   5.108   2.149   4.087  1.5809 -3.0536 -0.4855
 3927SOL    HW315481   5.041   2.075   4.200 -0.9674 -0.4548 -0.1802
 3927SOL    MW415482   5.040   2.107   4.119  0.0965 -0.6921 -0.3064
 3928SOL     OW15483   5.119   3.776   0.088  0.7645  0.2993 -0.1067
 3928SOL    HW215484   5.159   3.765   0.001  1.8269 -0.9378  0.5050
 3928SOL    HW315485   5.144   3.697   0.136 -1.3820  0.0684  0.7532
 3928SOL    MW415486   5.128   3.764   0.083  0.6215  0.1056  0.0875
 3929SOL     OW15487   3.493   0.443   3.249  0.3101 -0.5656 -0.1622
 3929SOL    HW215488   3.429   0.507   3.218  0.4268  0.9279  2.4432
 3929SOL    HW315489   3.533   0.408   3.169  1.3112  3.6544 -1.7468
 3929SOL    MW415490   3.490   0.447   3.235  0.4576  0.1882 -0.0275
 3930SOL     OW15491   0.158   4.532   4.527 -0.3738 -0.3125 -0.6685
 3930SOL    HW215492   0.208   4.563   4.451  0.6354  0.5697  0.3320
 3930SOL    HW315493   0.224   4.509   4.592 -1.1242  3.0948  1.5899
 3930SOL    MW415494   0.173   4.533   4.525 -0.3396  0.2534 -0.2385
 3931SOL     OW15495   3.761   2.548   1.136  0.1222 -0.0534 -0.2805
 3931SOL    HW215496   3.671   2.580   1.132 -0.3771 -0.9188  2.0138
 3931SOL    HW315497   3.808   2.599   1.070 -1.7091  1.5267 -0.4651
 3931SOL    MW415498   3.756   2.559   1.127 -0.1853  0.0409 -0.0021
 3932SOL     OW15499   0.469   2.572   1.291  0.3198  0.0221 -0.1238
 3932SOL    HW215500   0.529   2.526   1.233  0.4355  0.8401 -0.6722
 3932SOL    HW315501   0.496   2.664   1.286 -1.3300  0.5040 -0.8301
 3932SOL    MW415502   0.481   2.578   1.283  0.1174  0.1936 -0.2893
 3933SOL     OW15503   0.080   1.930   1.947  0.3153 -0.2930  0.2216
 3933SOL    HW215504   0.156   1.975   1.983  0.8689 -1.6098  0.7514
 3933SOL    HW315505   0.060   1.977   1.866  0.6534  1.0888  0.9191
 3933SOL    MW415506   0.087   1.942   1.941  0.4329 -0.2844  0.3835
 3934SOL     OW15507   5.886   3.774   2.202 -0.1178  0.1145 -0.3136
 3934SOL    HW215508   5.833   3.819   2.137  0.6474 -0.8452 -1.6537
 3934SOL    HW315509   5.950   3.725   2.151  0.4254 -0.7822  1.1595
 3934SOL    MW415510   5.887   3.773   2.187  0.0548 -0.1304 -0.2961
 3935SOL     OW15511   2.491   0.596   3.723 -0.4154  0.0859  0.0735
 3935SOL    HW215512   2.486   0.580   3.818 -3.8605 -0.1588 -0.0590
 3935SOL    HW315513   2.479   0.510   3.684  0.2342  0.3076 -0.6363
 3935SOL    MW415514   2.489   0.582   3.731 -0.7842  0.0828 -0.0376
 3936SOL     OW15515   2.764   3.596   2.730  0.6117  0.1012 -0.2556
 3936SOL    HW215516   2.801   3.510   2.710 -0.2583  0.2069 -2.5345
 3936SOL    HW315517   2.704   3.580   2.803  0.7273 -1.1584 -0.4136
 3936SOL    MW415518   2.761   3.582   2.737  0.5122 -0.0510 -0.5771
 3937SOL     OW15519   1.246   0.492   0.113 -0.3876 -0.1601 -0.2162
 3937SOL    HW215520   1.281   0.537   0.190 -1.1143  0.9537 -0.5078
 3937SOL    HW315521   1.316   0.497   0.048  0.4323 -1.5722  0.5189
 3937SOL    MW415522   1.260   0.498   0.114 -0.3753 -0.1994 -0.1577
 3938SOL     OW15523   5.556   6.022   4.490 -0.1248  0.0363  0.4358
 3938SOL    HW215524   5.464   5.998   4.485  0.0813 -0.7981  0.5724
 3938SOL    HW315525   5.591   5.969   4.561  0.6650 -0.3487 -0.2168
 3938SOL    MW415526   5.549   6.012   4.499  0.0066 -0.1246  0.3677
 3939SOL     OW15527   1.605   4.207   2.847 -0.0028 -0.0415  0.0338
 3939SOL    HW215528   1.656   4.169   2.775 -1.6012 -2.4335  0.0494
 3939SOL    HW315529   1.658   4.190   2.925  1.1848  1.5081 -0.3844
 3939SOL    MW415530   1.619   4.199   2.847 -0.0570 -0.1527 -0.0193
 3940SOL     OW15531   2.556   2.676   2.897  0.1868  0.3197  0.0745
 3940SOL    HW215532   2.483   2.645   2.844  0.1738  1.3908 -0.5597
 3940SOL    HW315533   2.515   2.711   2.977  0.1242 -0.3022  0.3209
 3940SOL    MW415534   2.541   2.677   2.901  0.1769  0.3790  0.0233
 3941SOL     OW15535   5.057   1.918   1.351 -0.6683  0.2008  0.5423
 3941SOL    HW215536   5.132   1.873   1.311 -1.6204 -1.3030  0.3365
 3941SOL    HW315537   4.981   1.866   1.323 -1.8854  2.1340  0.0690
 3941SOL    MW415538   5.057   1.905   1.342 -0.9545  0.2574  0.4527
 3942SOL     OW15539   6.410   2.222   4.746 -0.3789  0.1510  0.0427
 3942SOL    HW215540   6.429   2.168   4.669  2.2631  0.5220  0.3496
 3942SOL    HW315541   6.440   2.170   4.820  0.3952  1.2163  0.5038
 3942SOL    MW415542   6.417   2.208   4.746  0.0718  0.3405  0.1441
 3943SOL     OW15543   2.615   3.457   2.261  0.1881 -0.4310  0.1966
 3943SOL    HW215544   2.671   3.466   2.337 -0.1307  2.0223  0.1995
 3943SOL    HW315545   2.669   3.484   2.187 -0.0396 -1.1455 -0.2537
 3943SOL    MW415546   2.629   3.462   2.261  0.1160 -0.2016  0.1376
 3944SOL     OW15547   2.491   1.072   3.094  0.0833 -0.0210 -0.1107
 3944SOL    HW215548   2.549   1.084   3.019  0.3582 -0.6335 -0.0001
 3944SOL    HW315549   2.417   1.022   3.060  1.6423 -3.0751  0.6428
 3944SOL    MW415550   2.488   1.067   3.080  0.3253 -0.5047  0.0033
 3945SOL     OW15551   2.134   2.014   4.959  0.7710 -0.6047  0.6524
 3945SOL    HW215552   2.129   2.066   5.038  1.0148  0.7054 -0.1699
 3945SOL    HW315553   2.101   2.071   4.890 -0.7098 -2.1633 -0.0085
 3945SOL    MW415554   2.129   2.028   4.960  0.6078 -0.6375  0.4567
 3946SOL     OW15555   6.147   3.442   2.771 -0.1864 -0.4145 -0.2511
 3946SOL    HW215556   6.196   3.457   2.852  0.2042  2.2193 -0.8592
 3946SOL    HW315557   6.215   3.434   2.703 -0.5019  0.6142 -0.7198
 3946SOL    MW415558   6.163   3.443   2.772 -0.1765  0.0687 -0.3932
 3947SOL     OW15559   3.251   0.670   2.842 -0.0624 -0.1586 -0.1055
 3947SOL    HW215560   3.268   0.597   2.784 -1.6916  0.2505 -1.1709
 3947SOL    HW315561   3.180   0.718   2.800  0.2245  1.4223  1.1134
 3947SOL    MW415562   3.244   0.667   2.829 -0.2395  0.1039 -0.0853
 3948SOL     OW15563   5.818   0.886   2.652  0.3933  0.1887 -0.8590
 3948SOL    HW215564   5.765   0.842   2.719 -0.9088  2.0075 -0.6071
 3948SOL    HW315565   5.906   0.887   2.688 -0.1323  0.4195  0.4875
 3948SOL    MW415566   5.822   0.880   2.666  0.1521  0.4591 -0.6481
 3949SOL     OW15567   2.711   1.504   1.054  0.3426  0.2494 -0.4465
 3949SOL    HW215568   2.720   1.541   1.142 -0.1408  0.5785 -0.5298
 3949SOL    HW315569   2.636   1.550   1.017  0.2642 -0.2152 -0.8663
 3949SOL    MW415570   2.702   1.515   1.061  0.2685  0.2315 -0.5129
 3950SOL     OW15571   1.357   4.664   5.808 -0.1158 -0.3180  0.1108
 3950SOL    HW215572   1.418   4.737   5.806  1.3914 -1.5264 -0.0127
 3950SOL    HW315573   1.271   4.704   5.796  0.6934  1.3794 -0.3236
 3950SOL    MW415574   1.353   4.679   5.806  0.1898 -0.2535  0.0372
 3951SOL     OW15575   4.304   3.624   1.491 -0.2871 -0.7760 -0.0251
 3951SOL    HW215576   4.329   3.590   1.577 -0.9268  0.0843  0.5168
 3951SOL    HW315577   4.290   3.718   1.505 -2.2924 -0.9355 -0.6179
 3951SOL    MW415578   4.305   3.632   1.504 -0.6361 -0.6835 -0.0318
 3952SOL     OW15579   5.507   5.853   6.195  0.1779  0.4186  0.4751
 3952SOL    HW215580   5.564   5.840   6.119  1.1261  0.0934  1.2081
 3952SOL    HW315581   5.546   5.927   6.242 -0.5804  0.8196  0.4775
 3952SOL    MW415582   5.520   5.861   6.191  0.2030  0.4286  0.5721
 3953SOL     OW15583   3.958   1.608   5.341  0.0408  0.1275  0.1068
 3953SOL    HW215584   4.034   1.665   5.348 -1.3271  2.0205  0.2553
 3953SOL    HW315585   3.902   1.650   5.275 -1.3439 -0.6276  0.7556
 3953SOL    MW415586   3.961   1.621   5.333 -0.3224  0.2776  0.2120
 3954SOL     OW15587   0.668   0.833   0.077  0.2289 -0.2265 -0.7314
 3954SOL    HW215588   0.683   0.753   0.027  0.0853 -0.5382 -0.2808
 3954SOL    HW315589   0.617   0.805   0.153 -2.5594  0.7470 -2.1018
 3954SOL    MW415590   0.663   0.819   0.081 -0.1579 -0.1392 -0.8528
 3955SOL     OW15591   1.443   2.292   0.643 -0.3471  0.3651 -0.0862
 3955SOL    HW215592   1.500   2.229   0.598 -0.8860 -0.7294  0.7019
 3955SOL    HW315593   1.450   2.372   0.591  2.1049  0.3652  0.1040
 3955SOL    MW415594   1.452   2.294   0.630 -0.0947  0.2207  0.0429
 3956SOL     OW15595   0.706   4.545   0.323 -0.4214  0.0035 -0.5436
 3956SOL    HW215596   0.708   4.631   0.365 -0.1216 -0.4688  0.4394
 3956SOL    HW315597   0.692   4.564   0.230  0.7976  1.1808 -0.5277
 3956SOL    MW415598   0.705   4.559   0.316 -0.2210  0.0965 -0.4118
 3957SOL     OW15599   1.159   4.138   0.347  0.1073 -0.6035  0.1411
 3957SOL    HW215600   1.168   4.049   0.314 -1.9443 -0.7376 -0.1864
 3957SOL    HW315601   1.113   4.185   0.277  3.2190  1.4272 -0.7842
 3957SOL    MW415602   1.154   4.133   0.333  0.2472 -0.3533 -0.0242
 3958SOL     OW15603   0.357   5.659   5.516 -0.4829  0.3738 -0.0061
 3958SOL    HW215604   0.392   5.747   5.527 -0.4604  0.6186 -1.7073
 3958SOL    HW315605   0.421   5.615   5.459 -0.4910 -0.7422  0.8246
 3958SOL    MW415606   0.370   5.665   5.510 -0.4810  0.2588 -0.1209
 3959SOL     OW15607   2.104   3.190   5.382 -0.5581  0.4464  0.0064
 3959SOL    HW215608   2.142   3.187   5.294  0.5353  0.0229  0.4787
 3959SOL    HW315609   2.178   3.209   5.439 -1.2511  0.6470  0.8493
 3959SOL    MW415610   2.119   3.192   5.378 -0.5053  0.4170  0.1799
 3960SOL     OW15611   3.766   3.309   3.680  0.0449  0.2700 -0.2555
 3960SOL    HW215612   3.680   3.272   3.663  0.0691  0.8329 -1.7855
 3960SOL    HW315613   3.767   3.327   3.774 -1.4292  0.0870 -0.1856
 3960SOL    MW415614   3.755   3.306   3.690 -0.1464  0.3202 -0.4482
 3961SOL     OW15615   1.008   6.384   4.106 -0.0158 -0.6351  0.1849
 3961SOL    HW215616   0.972   6.310   4.156 -0.3907  0.7311  2.0448
 3961SOL    HW315617   1.061   6.431   4.170  2.1414 -0.5538 -1.5690
 3961SOL    MW415618   1.010   6.380   4.121  0.2193 -0.4441  0.1989
 3962SOL     OW15619   4.374   4.541   5.942  0.3482 -0.4295  0.4287
 3962SOL    HW215620   4.323   4.572   6.017  0.2531 -0.4760  0.3829
 3962SOL    HW315621   4.464   4.568   5.962  0.2700 -0.1365  0.3982
 3962SOL    MW415622   4.379   4.549   5.955  0.3254 -0.3970  0.4186
 3963SOL     OW15623   3.117   3.496   4.049 -0.3223 -0.1762  0.1090
 3963SOL    HW215624   3.142   3.574   4.097 -0.0266 -0.3656  0.2672
 3963SOL    HW315625   3.175   3.428   4.082 -0.1211 -0.3125 -0.5055
 3963SOL    MW415626   3.128   3.497   4.059 -0.2568 -0.2191  0.0488
 3964SOL     OW15627   1.464   0.178   0.306  0.1076 -0.5731 -0.7787
 3964SOL    HW215628   1.391   0.237   0.322  0.9976  0.5700 -0.8332
 3964SOL    HW315629   1.444   0.099   0.357 -0.2459  0.4593  0.7211
 3964SOL    MW415630   1.452   0.175   0.314  0.1784 -0.2861 -0.5880
 3965SOL     OW15631   1.700   4.391   1.827  0.6731  0.6836 -0.0976
 3965SOL    HW215632   1.663   4.447   1.895 -0.8414  1.6098 -1.6192
 3965SOL    HW315633   1.763   4.448   1.781  0.0340  0.7934 -0.8660
 3965SOL    MW415634   1.704   4.406   1.830  0.3890  0.8203 -0.3997
 3966SOL     OW15635   2.718   1.318   1.309 -0.3082 -0.2442  0.0135
 3966SOL    HW215636   2.764   1.235   1.315  0.5193  0.1206 -1.0097
 3966SOL    HW315637   2.732   1.360   1.394 -0.9674 -1.2485  0.6360
 3966SOL    MW415638   2.726   1.313   1.321 -0.2860 -0.3286 -0.0394
 3967SOL     OW15639   0.178   2.113   4.519 -0.2657  0.7752  0.3595
 3967SOL    HW215640   0.240   2.110   4.592  0.8077  0.0211 -0.5410
 3967SOL    HW315641   0.198   2.034   4.468 -2.3330  0.2340  0.3118
 3967SOL    MW415642   0.189   2.102   4.522 -0.3968  0.6043  0.2344
 3968SOL     OW15643   3.304   1.339   4.945 -0.1699 -0.4154  0.0061
 3968SOL    HW215644   3.234   1.279   4.972 -0.6445 -0.4000 -1.1048
 3968SOL    HW315645   3.383   1.286   4.947 -0.3261 -0.6353  0.5801
 3968SOL    MW415646   3.305   1.324   4.949 -0.2532 -0.4424 -0.0647
 3969SOL     OW15647   1.581   3.088   0.254 -0.1211  0.1921  0.2451
 3969SOL    HW215648   1.533   3.014   0.216  1.4982 -0.7177 -0.1066
 3969SOL    HW315649   1.518   3.127   0.315 -0.4129 -2.7385  2.0191
 3969SOL    MW415650   1.566   3.083   0.257  0.0540 -0.3146  0.4327
 3970SOL     OW15651   3.234   3.363   3.291  0.6001  0.0452  0.3381
 3970SOL    HW215652   3.329   3.372   3.294  0.5711  0.8928 -0.7336
 3970SOL    HW315653   3.216   3.328   3.204 -0.0941  0.2406  0.3954
 3970SOL    MW415654   3.244   3.360   3.280  0.5047  0.1828  0.2043
 3971SOL     OW15655   5.025   4.598   1.645  0.1368  0.2416  0.0386
 3971SOL    HW215656   4.996   4.508   1.632  1.4048 -0.3387  1.1223
 3971SOL    HW315657   5.120   4.593   1.654  0.2463  1.7008  0.0036
 3971SOL    MW415658   5.033   4.586   1.645  0.3186  0.3576  0.1770
 3972SOL     OW15659   5.306   2.513   6.037  0.3703  0.6591  0.4951
 3972SOL    HW215660   5.372   2.529   5.971  0.7976 -0.8483  0.5120
 3972SOL    HW315661   5.238   2.578   6.021  1.4063  1.6014 -0.1318
 3972SOL    MW415662   5.306   2.523   6.026  0.5634  0.5846  0.4146
 3973SOL     OW15663   6.073   4.549   2.494 -0.1772 -0.4043 -0.2006
 3973SOL    HW215664   6.086   4.626   2.439  0.1083 -1.7713 -2.1824
 3973SOL    HW315665   5.997   4.570   2.548 -1.4720  0.4822 -2.2489
 3973SOL    MW415666   6.064   4.562   2.493 -0.3104 -0.4677 -0.7323
 3974SOL     OW15667   4.475   2.964   3.150 -0.3970  0.3495  0.1946
 3974SOL    HW215668   4.479   3.056   3.122 -1.3558  0.9273  1.8475
 3974SOL    HW315669   4.541   2.920   3.096  0.2235  2.0377 -0.4985
 3974SOL    MW415670   4.484   2.971   3.139 -0.4417  0.6484  0.3212
 3975SOL     OW15671   5.138   6.001   2.987  0.2379  0.4540  0.0499
 3975SOL    HW215672   5.138   5.980   2.893 -0.9770  1.4133 -0.1873
 3975SOL    HW315673   5.065   6.062   2.998  2.5339  3.2874  0.9545
 3975SOL    MW415674   5.129   6.007   2.976  0.3805  0.9544  0.1380
 3976SOL     OW15675   1.516   3.153   5.964 -0.4873  0.7143 -0.1247
 3976SOL    HW215676   1.481   3.185   5.881  0.9117  0.1161 -0.9894
 3976SOL    HW315677   1.446   3.100   6.001 -0.6379 -0.2190 -1.6499
 3976SOL    MW415678   1.502   3.150   5.958 -0.3226  0.5122 -0.4400
 3977SOL     OW15679   0.040   1.305   3.556  0.4600  0.2228  0.3273
 3977SOL    HW215680   0.030   1.393   3.521  1.5677 -0.0439 -0.7244
 3977SOL    HW315681   0.076   1.254   3.483 -0.6378 -1.2384  0.7421
 3977SOL    MW415682   0.043   1.310   3.542  0.4613 -0.0052  0.2432
 3978SOL     OW15683   0.722   2.005   2.923 -0.0579  0.7608  0.2665
 3978SOL    HW215684   0.809   2.010   2.962  0.0987 -1.5068  0.3110
 3978SOL    HW315685   0.739   1.999   2.829 -0.1812  0.5415  0.2586
 3978SOL    MW415686   0.736   2.005   2.915 -0.0535  0.4327  0.2714
 3979SOL     OW15687   3.613   2.616   3.289 -0.0391  0.0318  0.1667
 3979SOL    HW215688   3.582   2.583   3.372  2.0750 -3.8315 -0.3449
 3979SOL    HW315689   3.593   2.547   3.226  1.9378  1.0255 -1.7056
 3979SOL    MW415690   3.606   2.603   3.291  0.5007 -0.3468 -0.1478
 3980SOL     OW15691   2.735   4.454   0.987 -0.3671 -0.1977  0.0366
 3980SOL    HW215692   2.819   4.443   0.944 -1.6034  0.2282 -2.6832
 3980SOL    HW315693   2.748   4.417   1.075  2.0838 -1.8678 -0.9233
 3980SOL    MW415694   2.748   4.447   0.993 -0.2069 -0.3619 -0.4489
 3981SOL     OW15695   5.862   2.713   1.858  0.0307 -0.0985 -0.3188
 3981SOL    HW215696   5.837   2.797   1.821  0.3220  0.1748  0.0950
 3981SOL    HW315697   5.952   2.725   1.889  0.3606 -0.7957 -0.9595
 3981SOL    MW415698   5.870   2.726   1.857  0.1127 -0.1544 -0.3487
 3982SOL     OW15699   3.411   5.787   6.186 -0.1974  0.6271  0.1958
 3982SOL    HW215700   3.357   5.784   6.265  0.1418  1.2556  0.4636
 3982SOL    HW315701   3.468   5.863   6.199  1.2971 -0.4547  0.2754
 3982SOL    MW415702   3.411   5.797   6.198  0.0445  0.5673  0.2416
 3983SOL     OW15703   1.000   1.551   4.089 -0.0884  0.3061  0.3389
 3983SOL    HW215704   1.095   1.549   4.102  0.1620 -0.3219 -1.3538
 3983SOL    HW315705   0.985   1.628   4.034 -0.1092 -1.3728 -2.1588
 3983SOL    MW415706   1.011   1.561   4.084 -0.0581  0.0017 -0.2139
 3984SOL     OW15707   5.904   5.291   0.474  0.0850 -0.6255 -0.5112
 3984SOL    HW215708   5.888   5.302   0.568  1.0456 -1.0222 -0.2953
 3984SOL    HW315709   5.953   5.210   0.467  1.5570  0.2793 -1.1780
 3984SOL    MW415710   5.908   5.282   0.486  0.4059 -0.5585 -0.5707
 3985SOL     OW15711   3.488   3.125   5.570  0.0602 -0.3267  0.3889
 3985SOL    HW215712   3.474   3.148   5.478  0.8595  0.9625  0.5598
 3985SOL    HW315713   3.489   3.030   5.571 -1.1834 -0.3889 -0.7411
 3985SOL    MW415714   3.486   3.116   5.558  0.0016 -0.1649  0.2624
 3986SOL     OW15715   5.960   5.766   5.555 -0.0509  0.5755  0.3200
 3986SOL    HW215716   6.012   5.751   5.634  0.1447  0.3896  0.1574
 3986SOL    HW315717   5.978   5.690   5.500  0.8476  1.3243 -0.4596
 3986SOL    MW415718   5.970   5.754   5.558  0.0935  0.6497  0.1957
 3987SOL     OW15719   1.431   1.978   5.058  0.5561 -0.0177 -0.8830
 3987SOL    HW215720   1.505   2.025   5.020  1.7423 -0.3136  0.9150
 3987SOL    HW315721   1.460   1.955   5.146 -1.6928 -0.1343 -0.0947
 3987SOL    MW415722   1.444   1.981   5.065  0.4159 -0.0721 -0.5418
 3988SOL     OW15723   1.602   2.919   4.705 -0.2910  0.5831  0.8574
 3988SOL    HW215724   1.526   2.901   4.650 -0.0258  3.0956 -0.4698
 3988SOL    HW315725   1.564   2.938   4.791 -1.0949  0.8240  0.4661
 3988SOL    MW415726   1.587   2.919   4.709 -0.3621  0.9464  0.6307
 3989SOL     OW15727   4.152   5.229   4.091  0.1957  0.1406  0.4291
 3989SOL    HW215728   4.098   5.194   4.020  0.1645  0.8238  0.1026
 3989SOL    HW315729   4.150   5.162   4.158  1.9427 -1.4758 -1.0306
 3989SOL    MW415730   4.145   5.216   4.090  0.4221  0.0175  0.1934
 3990SOL     OW15731   2.495   4.693   4.698 -0.1234 -0.2921  0.2592
 3990SOL    HW215732   2.440   4.617   4.684  0.6994 -0.6309 -1.3236
 3990SOL    HW315733   2.438   4.769   4.683 -0.3257 -0.6271 -0.6741
 3990SOL    MW415734   2.481   4.693   4.694 -0.0415 -0.3810 -0.0727
 3991SOL     OW15735   0.186   1.152   0.220 -0.0241  0.2512 -0.3562
 3991SOL    HW215736   0.146   1.066   0.211 -1.9794  1.1220 -0.5393
 3991SOL    HW315737   0.219   1.155   0.310 -0.3081 -0.5182 -0.2213
 3991SOL    MW415738   0.185   1.141   0.230 -0.3195  0.2646 -0.3625
 3992SOL     OW15739   5.758   2.172   2.811 -0.0892  0.7524  0.0506
 3992SOL    HW215740   5.669   2.197   2.787 -0.7296  0.0983  1.6009
 3992SOL    HW315741   5.785   2.239   2.874 -0.2515 -0.1086  1.0706
 3992SOL    MW415742   5.750   2.184   2.816 -0.1951  0.5525  0.3897
 3993SOL     OW15743   4.146   3.720   4.949  0.0651  0.1248  0.1076
 3993SOL    HW215744   4.180   3.800   4.908  1.7946  0.1162  1.3825
 3993SOL    HW315745   4.156   3.736   5.043 -0.6630 -1.1359  0.4109
 3993SOL    MW415746   4.152   3.733   4.956  0.1972 -0.0427  0.3158
 3994SOL     OW15747   2.326   2.869   4.541 -0.6269 -0.2778  0.2982
 3994SOL    HW215748   2.336   2.912   4.626 -0.9455 -0.6349  0.5206
 3994SOL    HW315749   2.413   2.834   4.522 -0.2163  0.9221 -0.1465
 3994SOL    MW415750   2.339   2.870   4.550 -0.6148 -0.1666  0.2689
 3995SOL     OW15751   4.095   4.967   2.673 -0.1646 -0.4292  0.0152
 3995SOL    HW215752   4.103   5.027   2.599  1.0513 -1.0310 -0.3659
 3995SOL    HW315753   4.004   4.976   2.701 -0.1647  1.1447 -0.3955
 3995SOL    MW415754   4.084   4.976   2.667 -0.0042 -0.3009 -0.0893
 3996SOL     OW15755   4.641   5.915   4.766  0.3104  0.1002 -0.5247
 3996SOL    HW215756   4.595   5.982   4.817 -0.6975  0.4636 -1.8641
 3996SOL    HW315757   4.588   5.836   4.776  1.7552 -0.6916  1.4490
 3996SOL    MW415758   4.628   5.914   4.774  0.3680  0.0437 -0.4410
 3997SOL     OW15759   1.856   4.571   1.708 -0.3079 -0.1440 -0.3913
 3997SOL    HW215760   1.945   4.591   1.677 -0.3237  1.0660  0.2806
 3997SOL    HW315761   1.801   4.588   1.631 -0.0689  0.2159 -0.4927
 3997SOL    MW415762   1.861   4.576   1.693 -0.2784  0.0631 -0.3160
 3998SOL     OW15763   4.095   4.410   2.346  0.4738  0.1409  0.4040
 3998SOL    HW215764   4.067   4.388   2.435 -0.1452  1.0431  0.4479
 3998SOL    HW315765   4.123   4.501   2.351 -0.7060  0.5883 -0.5611
 3998SOL    MW415766   4.095   4.419   2.358  0.2364  0.3190  0.2824
 3999SOL     OW15767   1.795   5.018   1.900  0.4235  0.3533  0.6140
 3999SOL    HW215768   1.790   4.923   1.914  1.5853  0.5245  2.4710
 3999SOL    HW315769   1.705   5.048   1.911  0.4221 -0.2533  2.6802
 3999SOL    MW415770   1.782   5.009   1.903  0.5766  0.2959  1.1316
 4000SOL     OW15771   5.516   2.023   4.272  0.5343 -0.0356 -0.2383
 4000SOL    HW215772   5.459   2.028   4.349 -0.2101  1.9433 -0.8522
 4000SOL    HW315773   5.571   1.947   4.288 -1.8330 -1.6760  0.6880
 4000SOL    MW415774   5.516   2.014   4.284  0.1237  0.0090 -0.1971
 4001SOL     OW15775   2.421   3.060   5.768  0.1153 -0.0896  0.8885
 4001SOL    HW215776   2.330   3.049   5.795  0.5234 -1.5991  1.7325
 4001SOL    HW315777   2.446   2.976   5.729  1.1256  0.3238  0.5937
 4001SOL    MW415778   2.412   3.048   5.766  0.3025 -0.2342  0.9610
 4002SOL     OW15779   3.075   0.311   6.094  0.4876 -0.0407 -0.0402
 4002SOL    HW215780   3.083   0.365   6.172  1.9627 -1.0579  0.5689
 4002SOL    HW315781   3.033   0.230   6.125 -0.1658  0.0799 -0.5899
 4002SOL    MW415782   3.070   0.307   6.108  0.5960 -0.1590 -0.0323
 4003SOL     OW15783   1.322   4.491   0.987 -0.4817  0.7462 -0.5923
 4003SOL    HW215784   1.347   4.581   1.007  0.0410  0.9379 -1.9477
 4003SOL    HW315785   1.402   4.452   0.953 -0.4921 -0.4919  0.7370
 4003SOL    MW415786   1.336   4.498   0.985 -0.4141  0.6082 -0.5957
 4004SOL     OW15787   3.633   3.861   5.119  0.2933  0.2280 -0.2912
 4004SOL    HW215788   3.541   3.869   5.146 -0.2871 -0.1795 -1.9457
 4004SOL    HW315789   3.650   3.941   5.069  1.3791  1.0515  1.3203
 4004SOL    MW415790   3.623   3.873   5.116  0.3600  0.2829 -0.2969
 4005SOL     OW15791   1.494   5.896   5.911  0.1591  0.8261 -0.0863
 4005SOL    HW215792   1.472   5.987   5.930 -1.6667  0.0208  1.9794
 4005SOL    HW315793   1.583   5.885   5.945  0.3534  1.7803 -0.2570
 4005SOL    MW415794   1.503   5.906   5.918 -0.0561  0.8457  0.1637
 4006SOL     OW15795   0.657   3.017   4.500 -0.5591 -0.5994 -0.1385
 4006SOL    HW215796   0.696   3.089   4.450 -0.5102 -1.3666 -1.2268
 4006SOL    HW315797   0.611   3.061   4.572  0.5594  0.4354 -0.0270
 4006SOL    MW415798   0.656   3.032   4.503 -0.4051 -0.5640 -0.2674
 4007SOL     OW15799   6.087   1.706   1.220 -0.0503 -0.5999 -0.3577
 4007SOL    HW215800   6.163   1.748   1.179 -0.9218  1.8894  0.4441
 4007SOL    HW315801   6.123   1.626   1.259  2.2410  0.6359  0.2553
 4007SOL    MW415802   6.102   1.701   1.220  0.1370 -0.1084 -0.1711
 4008SOL     OW15803   3.126   3.623   4.627  0.1454  0.1857 -0.2731
 4008SOL    HW215804   3.209   3.668   4.616 -0.8887  1.8699 -1.6625
 4008SOL    HW315805   3.081   3.672   4.695  0.6640 -1.3739  1.2604
 4008SOL    MW415806   3.131   3.635   4.634  0.0774  0.2021 -0.2541
 4009SOL     OW15807   5.667   2.301   4.367  0.7504  0.5179  0.1943
 4009SOL    HW215808   5.639   2.301   4.458  1.3670 -0.8580  0.4093
 4009SOL    HW315809   5.589   2.274   4.318  0.5403  0.8438  0.3413
 4009SOL    MW415810   5.653   2.298   4.372  0.8040  0.3794  0.2420
 4010SOL     OW15811   2.464   0.042   4.152  0.6378 -0.3495 -0.3478
 4010SOL    HW215812   2.503  -0.037   4.113 -1.0174 -0.7300 -1.3382
 4010SOL    HW315813   2.379   0.051   4.108 -0.0487  0.8935  1.1377
 4010SOL    MW415814   2.458   0.032   4.141  0.3288 -0.2357 -0.2825
 4011SOL     OW15815   0.684   2.061   4.684  0.3391  0.0692 -0.1435
 4011SOL    HW215816   0.661   2.136   4.740  1.3365  1.2997 -1.2989
 4011SOL    HW315817   0.778   2.070   4.670  0.3803 -1.1177 -0.7217
 4011SOL    MW415818   0.693   2.072   4.689  0.4761  0.0750 -0.3722
 4012SOL     OW15819   0.915   0.185   0.259 -0.0025 -0.0809  0.6920
 4012SOL    HW215820   0.868   0.220   0.184  1.0455  1.8430  0.8846
 4012SOL    HW315821   1.006   0.212   0.245  0.6546 -1.7557  1.4712
 4012SOL    MW415822   0.921   0.193   0.247  0.2225 -0.0480  0.8202
 4013SOL     OW15823   3.394   1.478   2.057  0.0756 -0.2632 -0.3387
 4013SOL    HW215824   3.399   1.409   1.990 -0.4485  0.1726 -0.8332
 4013SOL    HW315825   3.479   1.520   2.055  0.1143 -0.3547 -0.6248
 4013SOL    MW415826   3.406   1.474   2.048  0.0115 -0.2178 -0.4417
 4014SOL     OW15827   0.973   3.083   0.450 -0.1505 -0.5655 -0.7576
 4014SOL    HW215828   0.892   3.070   0.400 -0.7017 -2.9031  0.6003
 4014SOL    HW315829   0.944   3.119   0.534  0.6193  1.8902 -1.4810
 4014SOL    MW415830   0.959   3.086   0.455 -0.1217 -0.5499 -0.6739
 4015SOL     OW15831   1.238   3.720   0.527 -0.4000 -0.0085  0.2594
 4015SOL    HW215832   1.179   3.794   0.511 -2.6849 -1.3919  1.6904
 4015SOL    HW315833   1.291   3.747   0.603 -2.2339 -0.3010  1.7095
 4015SOL    MW415834   1.237   3.733   0.535 -0.9434 -0.2296  0.6395
 4016SOL     OW15835   0.100   1.659   0.875  0.1706 -0.0485  0.3775
 4016SOL    HW215836   0.059   1.618   0.798  1.3191  1.1621 -0.9453
 4016SOL    HW315837   0.035   1.724   0.904 -0.3452 -0.6341  0.5507
 4016SOL    MW415838   0.086   1.662   0.868  0.2541  0.0340  0.2258
 4017SOL     OW15839   3.171   3.018   5.451  0.1170 -0.1161  0.1253
 4017SOL    HW215840   3.237   3.067   5.403 -0.2866 -0.2671 -0.5937
 4017SOL    HW315841   3.098   3.080   5.461  1.0351  0.6978  2.5613
 4017SOL    MW415842   3.170   3.033   5.446  0.1849 -0.0287  0.3518
 4018SOL     OW15843   5.264   2.600   0.998  0.4301 -0.0176 -0.5540
 4018SOL    HW215844   5.176   2.601   0.962  0.2113 -0.8246 -0.0675
 4018SOL    HW315845   5.253   2.568   1.088  1.0261  1.4211  0.0679
 4018SOL    MW415846   5.251   2.596   1.006  0.4799  0.0658 -0.4078
 4019SOL     OW15847   4.062   3.214   4.108 -0.1645  0.9991  0.6788
 4019SOL    HW215848   4.129   3.267   4.064  1.1178  0.6501  2.0985
 4019SOL    HW315849   3.991   3.206   4.045  2.1449 -0.7149 -1.9018
 4019SOL    MW415850   4.062   3.220   4.094  0.3094  0.7269  0.5256
 4020SOL     OW15851   0.822   5.107   0.120 -0.0173 -0.1246  0.4073
 4020SOL    HW215852   0.898   5.121   0.176 -1.1791  2.3168  1.5462
 4020SOL    HW315853   0.825   5.179   0.056  0.4400 -1.9840 -1.7978
 4020SOL    MW415854   0.832   5.119   0.119 -0.1103 -0.0478  0.2666
 4021SOL     OW15855   0.850   0.427   0.708 -0.1124 -0.2064 -0.2496
 4021SOL    HW215856   0.823   0.375   0.784  1.0519  0.2403  0.4911
 4021SOL    HW315857   0.785   0.497   0.703 -0.2269 -0.2692  0.3016
 4021SOL    MW415858   0.838   0.429   0.718  0.0261 -0.1558 -0.0792
 4022SOL     OW15859   0.114   1.771   6.032  0.2798 -0.1003 -0.1239
 4022SOL    HW215860   0.181   1.831   6.066  0.3269  0.3715 -1.0463
 4022SOL    HW315861   0.164   1.695   6.002  0.1335 -1.2641  2.2767
 4022SOL    MW415862   0.130   1.769   6.033  0.2667 -0.1916  0.0711
 4023SOL     OW15863   3.979   3.090   2.829  0.6471  0.7512 -0.0540
 4023SOL    HW215864   3.966   3.183   2.810 -1.2287  0.4267 -0.6034
 4023SOL    HW315865   3.901   3.064   2.879  1.1740 -0.5001  0.1592
 4023SOL    MW415866   3.967   3.099   2.833  0.4692  0.5433 -0.0983
 4024SOL     OW15867   5.288   2.407   2.236  0.5345 -0.1646 -0.1302
 4024SOL    HW215868   5.335   2.456   2.303 -0.5633  2.7469 -1.2978
 4024SOL    HW315869   5.344   2.413   2.158  0.7481 -1.5219 -0.1019
 4024SOL    MW415870   5.301   2.414   2.234  0.4178  0.0405 -0.2805
 4025SOL     OW15871   1.261   0.377   4.290 -0.2364 -0.0082  0.1659
 4025SOL    HW215872   1.347   0.338   4.305  0.0569  0.1208 -1.0838
 4025SOL    HW315873   1.270   0.422   4.206 -1.5387 -0.0325  0.0035
 4025SOL    MW415874   1.274   0.377   4.281 -0.3695  0.0056 -0.0204
 4026SOL     OW15875   4.440   1.969   2.402 -0.3067 -0.1075  0.7461
 4026SOL    HW215876   4.534   1.973   2.385  0.0916  1.1859  2.8119
 4026SOL    HW315877   4.400   2.007   2.324  0.8764 -0.6094 -0.1358
 4026SOL    MW415878   4.447   1.975   2.390 -0.0980 -0.0031  0.9023
 4027SOL     OW15879   5.067   6.211   0.894  0.0233 -0.1451  0.4275
 4027SOL    HW215880   5.126   6.148   0.934 -1.9363 -1.1500  1.9055
 4027SOL    HW315881   5.034   6.263   0.967 -0.5466  0.7197 -0.4082
 4027SOL    MW415882   5.070   6.210   0.909 -0.3105 -0.1636  0.5122
 4028SOL     OW15883   4.409   4.585   0.803 -0.8263  0.2653  0.5170
 4028SOL    HW215884   4.459   4.507   0.778  2.9582  1.8911  2.2378
 4028SOL    HW315885   4.329   4.550   0.844  0.3404 -2.6720  0.5352
 4028SOL    MW415886   4.405   4.570   0.805 -0.1731  0.0923  0.7465
 4029SOL     OW15887   2.125   1.178   5.757  0.0618  0.0021  0.0172
 4029SOL    HW215888   2.075   1.118   5.702 -1.3033  0.8239  0.3108
 4029SOL    HW315889   2.068   1.254   5.768 -0.3733 -0.7067  3.8003
 4029SOL    MW415890   2.111   1.180   5.751 -0.1757  0.0170  0.5551
 4030SOL     OW15891   3.528   4.885   0.893 -0.0196 -0.1587  0.1215
 4030SOL    HW215892   3.521   4.872   0.987  0.2748  1.3095  0.3795
 4030SOL    HW315893   3.561   4.802   0.859  2.6422  0.1320  1.7011
 4030SOL    MW415894   3.532   4.872   0.901  0.3705  0.0734  0.3639
 4031SOL     OW15895   4.559   4.589   0.166 -0.5211  1.0377 -0.6068
 4031SOL    HW215896   4.622   4.518   0.182 -2.4138 -0.2128  1.8361
 4031SOL    HW315897   4.543   4.584   0.072 -1.9740 -3.1667 -0.3691
 4031SOL    MW415898   4.565   4.579   0.155 -0.9625  0.3180 -0.2531
 4032SOL     OW15899   2.617   1.407   0.660 -0.6710  0.3741  0.4475
 4032SOL    HW215900   2.627   1.499   0.636 -1.5899  0.2877 -0.3357
 4032SOL    HW315901   2.704   1.370   0.648 -0.1392  1.2614  1.3789
 4032SOL    MW415902   2.630   1.414   0.655 -0.7221  0.4798  0.4670
 4033SOL     OW15903   0.026   3.423   2.316  0.4142  0.0718  0.3515
 4033SOL    HW215904   0.110   3.462   2.343  0.4357 -0.8640  1.7411
 4033SOL    HW315905   0.047   3.331   2.300 -0.1586  0.0489 -0.2851
 4033SOL    MW415906   0.040   3.416   2.318  0.3414 -0.0547  0.4509
 4034SOL     OW15907   3.023   6.212   4.014  0.0563 -0.0829  0.0860
 4034SOL    HW215908   3.117   6.221   4.000 -0.0986 -0.1277 -1.0735
 4034SOL    HW315909   2.984   6.223   3.927 -0.8873 -1.6259  0.2706
 4034SOL    MW415910   3.030   6.215   4.000 -0.0886 -0.2924 -0.0427
 4035SOL     OW15911   2.144   3.208   1.973  0.2083  0.8649  0.1854
 4035SOL    HW215912   2.172   3.222   1.883 -1.2270 -0.1654 -0.4628
 4035SOL    HW315913   2.222   3.175   2.017  0.1712 -1.9018 -1.5479
 4035SOL    MW415914   2.158   3.205   1.967  0.0140  0.3639 -0.1288
 4036SOL     OW15915   4.738   0.917   0.748  0.2785  0.0113 -0.0206
 4036SOL    HW215916   4.823   0.956   0.768  0.7996 -1.3229  0.4710
 4036SOL    HW315917   4.686   0.931   0.828 -0.0973  1.1261 -0.4439
 4036SOL    MW415918   4.742   0.924   0.761  0.2977 -0.0177 -0.0116
 4037SOL     OW15919   2.850   3.458   0.953 -0.2088  0.1542 -0.1231
 4037SOL    HW215920   2.910   3.388   0.980  0.0822  0.3986 -0.1255
 4037SOL    HW315921   2.906   3.534   0.942 -0.5873  0.4882  0.2614
 4037SOL    MW415922   2.865   3.459   0.955 -0.2204  0.2305 -0.0727
 4038SOL     OW15923   5.944   3.594   4.037  0.1733 -0.6939  0.5745
 4038SOL    HW215924   6.037   3.611   4.048  0.1957  1.8445 -2.3761
 4038SOL    HW315925   5.901   3.676   4.061 -1.2372 -1.4890  0.8910
 4038SOL    MW415926   5.950   3.607   4.042 -0.0098 -0.4639  0.2270
 4039SOL     OW15927   0.629   0.521   4.481 -0.0463  0.3018  0.4615
 4039SOL    HW215928   0.627   0.542   4.574  0.7506 -0.4687  0.6680
 4039SOL    HW315929   0.665   0.600   4.440  0.7205  0.2285  0.9565
 4039SOL    MW415930   0.634   0.534   4.488  0.1600  0.1905  0.5541
 4040SOL     OW15931   6.205   3.005   1.798 -0.5507  0.3147  0.0822
 4040SOL    HW215932   6.146   2.989   1.724  0.4359 -1.2448 -0.4253
 4040SOL    HW315933   6.152   3.053   1.861 -1.1596  2.5782 -2.0028
 4040SOL    MW415934   6.191   3.009   1.796 -0.5009  0.4076 -0.2599
 4041SOL     OW15935   4.465   1.151   0.771  0.4549 -0.2661 -0.3571
 4041SOL    HW215936   4.500   1.175   0.857 -1.3663  1.5206 -0.0344
 4041SOL    HW315937   4.422   1.066   0.786  0.2765 -0.0427  0.4723
 4041SOL    MW415938   4.464   1.143   0.785  0.1911 -0.0009 -0.2051
 4042SOL     OW15939   1.640   3.742   3.520 -0.2042  1.0393 -0.2396
 4042SOL    HW215940   1.569   3.680   3.504 -0.0543  1.3441 -2.3533
 4042SOL    HW315941   1.716   3.687   3.540 -0.7502  0.6844  0.9939
 4042SOL    MW415942   1.641   3.726   3.521 -0.2565  1.0327 -0.3557
 4043SOL     OW15943   1.132   6.029   2.393  0.3518 -0.8213 -0.5971
 4043SOL    HW215944   1.125   6.122   2.413  0.4840 -0.8650 -0.3416
 4043SOL    HW315945   1.124   6.024   2.297  1.7567 -0.4101 -0.7494
 4043SOL    MW415946   1.130   6.041   2.383  0.5546 -0.7728 -0.5835
 4044SOL     OW15947   3.582   6.326   4.960  0.3409 -0.4605 -0.4777
 4044SOL    HW215948   3.517   6.299   4.895 -0.3478 -1.2806  0.5357
 4044SOL    HW315949   3.573   6.264   5.031  2.2643 -0.6182 -0.3134
 4044SOL    MW415950   3.572   6.315   4.961  0.5038 -0.5895 -0.3223
 4045SOL     OW15951   4.317   4.602   1.626  0.2750 -0.0336  0.3165
 4045SOL    HW215952   4.259   4.645   1.563  0.6303 -1.4068 -1.0027
 4045SOL    HW315953   4.312   4.658   1.704 -2.4190  0.1799  0.1034
 4045SOL    MW415954   4.308   4.615   1.628 -0.0335 -0.1866  0.1144
 4046SOL     OW15955   5.035   5.715   3.037 -0.1651 -0.2414  0.0801
 4046SOL    HW215956   5.008   5.805   3.022 -3.7474 -1.1149  0.5239
 4046SOL    HW315957   5.119   5.708   2.991 -0.7680  2.7179 -1.7538
 4046SOL    MW415958   5.043   5.726   3.029 -0.7173  0.0338 -0.1033
 4047SOL     OW15959   1.750   5.505   1.452  0.1697  0.7571  0.3006
 4047SOL    HW215960   1.792   5.451   1.518 -0.9805  0.8416  1.1377
 4047SOL    HW315961   1.661   5.519   1.485 -0.8497 -0.2303 -1.8467
 4047SOL    MW415962   1.744   5.500   1.465 -0.1166  0.6380  0.1277
 4048SOL     OW15963   1.814   5.890   1.444  0.3958 -0.0412  0.2610
 4048SOL    HW215964   1.861   5.958   1.395  2.3452  0.4735  2.6431
 4048SOL    HW315965   1.862   5.809   1.424 -1.0413 -0.5397 -1.4300
 4048SOL    MW415966   1.827   5.888   1.435  0.4634 -0.0391  0.3522
 4049SOL     OW15967   0.466   1.312   3.451 -0.5350  0.0866 -0.6445
 4049SOL    HW215968   0.416   1.333   3.530 -0.6455 -0.4803 -0.5591
 4049SOL    HW315969   0.400   1.309   3.381 -0.5714 -0.2952 -0.5970
 4049SOL    MW415970   0.451   1.314   3.452 -0.5544 -0.0386 -0.6270
 4050SOL     OW15971   4.804   3.484   3.479  0.1376  0.0348  0.0192
 4050SOL    HW215972   4.763   3.510   3.397  0.8951  0.8526 -0.1072
 4050SOL    HW315973   4.779   3.393   3.490  0.8400 -0.3882 -1.6157
 4050SOL    MW415974   4.795   3.476   3.470  0.3302  0.0869 -0.2132
 4051SOL     OW15975   4.745   1.738   6.338 -0.1530  0.4690 -0.4724
 4051SOL    HW215976   4.735   1.643   6.345 -3.3806  0.8145  1.0995
 4051SOL    HW315977   4.834   1.754   6.369  0.4672 -1.9885 -0.7119
 4051SOL    MW415978   4.756   1.727   6.343 -0.4970  0.1903 -0.2966
 4052SOL     OW15979   2.605   4.156   1.863 -0.1474 -0.3834  0.3970
 4052SOL    HW215980   2.555   4.118   1.935 -3.0673  1.1940 -0.6215
 4052SOL    HW315981   2.583   4.250   1.867  1.9240  0.2019 -0.8264
 4052SOL    MW415982   2.596   4.164   1.873 -0.2593 -0.0981  0.1012
 4053SOL     OW15983   5.942   3.228   0.099 -0.4088 -0.1464  0.4613
 4053SOL    HW215984   5.929   3.216   0.193 -1.3136  0.5423  0.4359
 4053SOL    HW315985   6.035   3.209   0.085 -0.7364 -2.5744  1.1139
 4053SOL    MW415986   5.952   3.224   0.110 -0.5714 -0.3759  0.5441
 4054SOL     OW15987   3.786   2.200   0.477 -0.5317 -0.2121 -0.0544
 4054SOL    HW215988   3.704   2.248   0.468  0.9563  2.0297 -3.6733
 4054SOL    HW315989   3.794   2.151   0.396  2.3959  0.9892 -0.6108
 4054SOL    MW415990   3.776   2.200   0.465  0.0509  0.2422 -0.6053
 4055SOL     OW15991   4.143   0.441   0.651  0.2305 -0.4921 -0.8484
 4055SOL    HW215992   4.161   0.525   0.610 -0.2920  0.5656  0.9441
 4055SOL    HW315993   4.170   0.452   0.742  1.2602 -2.6795 -0.8140
 4055SOL    MW415994   4.149   0.453   0.658  0.2974 -0.6412 -0.6074
 4056SOL     OW15995   5.810   3.466   0.064 -0.1558  0.0113  0.1520
 4056SOL    HW215996   5.838   3.519   0.138 -0.8116 -0.5202  0.7998
 4056SOL    HW315997   5.865   3.388   0.068  0.7934  0.6094 -0.7859
 4056SOL    MW415998   5.821   3.463   0.075 -0.1171  0.0201  0.1137
 4057SOL     OW15999   0.202   4.858   3.435 -0.4397  0.4898 -0.4588
 4057SOL    HW216000   0.196   4.939   3.384  0.4452  2.0916  1.8063
 4057SOL    HW316001   0.159   4.878   3.518 -0.1100 -1.3296  0.1981
 4057SOL    MW416002   0.196   4.871   3.439 -0.2794  0.4611 -0.0733
 4058SOL     OW16003   5.139   1.843   3.089 -0.1129 -0.4388 -0.2351
 4058SOL    HW216004   5.160   1.913   3.027 -2.3367 -2.1658 -3.2504
 4058SOL    HW316005   5.206   1.850   3.157  2.0849  2.1277 -2.4169
 4058SOL    MW416006   5.150   1.853   3.090 -0.1164 -0.3280 -0.9208
 4059SOL     OW16007   2.759   2.342   2.380  0.5800 -0.6978 -0.0640
 4059SOL    HW216008   2.690   2.334   2.314  1.4374  1.2012 -1.2722
 4059SOL    HW316009   2.713   2.368   2.460 -0.3782 -2.2098 -0.0959
 4059SOL    MW416010   2.744   2.344   2.382  0.5667 -0.6467 -0.2276
 4060SOL     OW16011   6.151   1.317   3.820 -0.0527  0.0980  0.1805
 4060SOL    HW216012   6.186   1.402   3.793 -1.5080 -0.0616 -2.5000
 4060SOL    HW316013   6.166   1.260   3.745 -3.0905 -0.7803  0.1252
 4060SOL    MW416014   6.158   1.321   3.807 -0.6455 -0.0389 -0.1805
 4061SOL     OW16015   0.271   0.862   4.467  0.1226  0.3077  0.0166
 4061SOL    HW216016   0.253   0.914   4.545 -1.0673 -0.4719  0.3009
 4061SOL    HW316017   0.344   0.906   4.425  0.1480  1.3106  1.0511
 4061SOL    MW416018   0.278   0.875   4.472 -0.0310  0.3371  0.1906
 4062SOL     OW16019   0.070   6.357   1.609  0.0676  0.0676  0.1588
 4062SOL    HW216020   0.116   6.342   1.527 -1.3356  0.4927 -0.7421
 4062SOL    HW316021   0.068   6.453   1.618 -1.2926  0.0872 -0.2236
 4062SOL    MW416022   0.076   6.368   1.599 -0.2970  0.1263 -0.0105
 4063SOL     OW16023   1.736   6.118   2.035  0.2256 -0.4370  0.2850
 4063SOL    HW216024   1.778   6.038   2.068  1.0373  0.1068  0.5999
 4063SOL    HW316025   1.779   6.189   2.082 -1.6008  0.1239  1.1945
 4063SOL    MW416026   1.747   6.117   2.046  0.0917 -0.2912  0.4466
 4064SOL     OW16027   5.999   5.453   4.894  0.2069  0.5779 -0.2422
 4064SOL    HW216028   5.982   5.360   4.882 -0.4975  0.3512  1.9718
 4064SOL    HW316029   5.923   5.497   4.855 -1.6402 -0.0562  2.3367
 4064SOL    MW416030   5.987   5.447   4.887 -0.1298  0.4644  0.3901
 4065SOL     OW16031   0.640   4.171   5.354 -0.5467  0.4249 -0.2914
 4065SOL    HW216032   0.619   4.156   5.446  0.0835  0.4208 -0.1407
 4065SOL    HW316033   0.618   4.263   5.338 -1.3628  0.2261 -0.3428
 4065SOL    MW416034   0.634   4.181   5.364 -0.5712  0.3981 -0.2783
 4066SOL     OW16035   3.985   5.053   0.040  0.8280 -0.0646  0.3430
 4066SOL    HW216036   3.893   5.028   0.031  0.7051  0.6379 -0.4928
 4066SOL    HW316037   3.990   5.139  -0.002  2.3584 -1.1911 -1.9894
 4066SOL    MW416038   3.973   5.061   0.033  1.0137 -0.1206 -0.0750
 4067SOL     OW16039   1.870   3.087   4.434 -0.4029 -0.2693  1.2161
 4067SOL    HW216040   1.932   3.051   4.370  0.2010  0.1183  1.5782
 4067SOL    HW316041   1.800   3.124   4.381  0.5916  0.9847  0.7168
 4067SOL    MW416042   1.869   3.087   4.419 -0.1920 -0.0527  1.1980
 4068SOL     OW16043   2.006   5.679   5.268 -0.4983 -0.9457  0.3603
 4068SOL    HW216044   1.968   5.615   5.328 -2.6781 -0.5277 -0.4726
 4068SOL    HW316045   1.982   5.764   5.305  0.3871 -0.6471  0.2576
 4068SOL    MW416046   1.998   5.682   5.281 -0.6691 -0.8512  0.2369
 4069SOL     OW16047   3.047   2.210   6.184  0.4056 -0.3026 -0.3942
 4069SOL    HW216048   3.037   2.225   6.090 -2.0121 -2.4632 -0.5909
 4069SOL    HW316049   2.986   2.270   6.225 -2.1915 -2.5902 -0.6162
 4069SOL    MW416050   3.038   2.220   6.177 -0.2560 -0.8895 -0.4495
 4070SOL     OW16051   1.772   3.305   3.231 -0.1264 -0.2353  0.3663
 4070SOL    HW216052   1.721   3.284   3.309 -0.2346  0.4503  0.4901
 4070SOL    HW316053   1.862   3.310   3.262 -0.2474  0.6983  0.5913
 4070SOL    MW416054   1.777   3.303   3.245 -0.1566 -0.0217  0.4123
 4071SOL     OW16055   4.741   5.937   4.503  0.1239 -0.2838 -0.2672
 4071SOL    HW216056   4.690   5.945   4.583  2.3510 -0.6738  1.2889
 4071SOL    HW316057   4.769   6.027   4.484 -1.3498 -0.0093 -1.3424
 4071SOL    MW416058   4.738   5.950   4.511  0.2233 -0.2990 -0.2037
 4072SOL     OW16059   5.624   2.438   5.605  0.4426  0.0960  0.2551
 4072SOL    HW216060   5.641   2.532   5.605  0.9421  0.0158 -0.3093
 4072SOL    HW316061   5.599   2.418   5.515  2.4964 -0.6476 -0.2273
 4072SOL    MW416062   5.623   2.447   5.593  0.7795 -0.0127  0.1170
 4073SOL     OW16063   2.592   5.403   1.668 -0.6539  0.4877 -0.7309
 4073SOL    HW216064   2.645   5.482   1.681  1.2515 -0.8855  0.3781
 4073SOL    HW316065   2.585   5.394   1.573  2.3152  0.0610 -1.0024
 4073SOL    MW416066   2.598   5.412   1.657 -0.0108  0.2502 -0.6204
 4074SOL     OW16067   6.033   4.919   4.369 -0.9435 -0.7499  0.3214
 4074SOL    HW216068   5.977   4.966   4.307 -1.7941 -0.8868  0.9742
 4074SOL    HW316069   6.112   4.899   4.319  0.1406  2.6939  0.4114
 4074SOL    MW416070   6.036   4.922   4.354 -0.9127 -0.3136  0.4194
 4075SOL     OW16071   2.095   6.139   2.008 -0.3628 -0.4049 -0.9668
 4075SOL    HW216072   2.190   6.152   2.014 -0.1492 -1.6827 -1.2671
 4075SOL    HW316073   2.065   6.142   2.098 -0.3914  2.2661 -1.0093
 4075SOL    MW416074   2.104   6.141   2.020 -0.3384 -0.2211 -1.0120
 4076SOL     OW16075   6.151   5.647   4.376  0.1095  0.0804  0.2744
 4076SOL    HW216076   6.131   5.587   4.447  0.1842  0.4595  0.6215
 4076SOL    HW316077   6.232   5.614   4.337 -0.3091 -0.5337 -0.0963
 4076SOL    MW416078   6.159   5.635   4.380  0.0641  0.0494  0.2713
 4077SOL     OW16079   4.638   0.424   2.611 -0.1336 -0.2775 -0.3011
 4077SOL    HW216080   4.641   0.499   2.551 -2.4007  1.1601  1.2230
 4077SOL    HW316081   4.547   0.395   2.607  0.4103 -2.1480  0.1587
 4077SOL    MW416082   4.626   0.430   2.602 -0.3610 -0.3346 -0.0393
 4078SOL     OW16083   0.818   1.390   2.375 -0.2150  0.1534  0.7548
 4078SOL    HW216084   0.868   1.394   2.456  0.3914 -0.2412  0.4072
 4078SOL    HW316085   0.815   1.297   2.353  1.3142  0.4059 -0.6913
 4078SOL    MW416086   0.824   1.378   2.383  0.0667  0.1346  0.5181
 4079SOL     OW16087   2.533   1.653   3.285 -0.4075  0.2061  0.6168
 4079SOL    HW216088   2.557   1.564   3.311  2.3571 -0.1165 -2.3092
 4079SOL    HW316089   2.533   1.650   3.189  0.0391  3.3932  0.4250
 4079SOL    MW416090   2.537   1.641   3.276  0.0162  0.5840  0.2054
 4080SOL     OW16091   0.488   3.702   5.815  0.0628  0.2466 -0.1942
 4080SOL    HW216092   0.452   3.661   5.893 -1.2478  1.1377 -0.2913
 4080SOL    HW316093   0.427   3.773   5.795  1.8221  1.7671 -0.4759
 4080SOL    MW416094   0.475   3.706   5.822  0.1220  0.5647 -0.2442
 4081SOL     OW16095   5.298   2.525   4.353  0.4872 -0.4307  0.6297
 4081SOL    HW216096   5.318   2.438   4.319 -0.8111 -0.2734 -0.6121
 4081SOL    HW316097   5.350   2.584   4.300 -0.6260 -0.2766 -0.3280
 4081SOL    MW416098   5.308   2.521   4.342  0.1690 -0.3896  0.3395
 4082SOL     OW16099   0.605   3.463   5.724  0.0321  0.2717 -0.4644
 4082SOL    HW216100   0.546   3.389   5.716  1.9965 -1.3496 -0.7577
 4082SOL    HW316101   0.547   3.539   5.730 -2.0402 -1.1274 -1.4322
 4082SOL    MW416102   0.589   3.463   5.724  0.0179 -0.1268 -0.6308
 4083SOL     OW16103   3.579   4.491   1.223 -0.3124  0.6613 -0.6936
 4083SOL    HW216104   3.593   4.442   1.141  1.7325  0.6984 -0.4290
 4083SOL    HW316105   3.646   4.559   1.221  1.3090 -0.7096  2.0062
 4083SOL    MW416106   3.590   4.493   1.212  0.1714  0.4854 -0.3025
 4084SOL     OW16107   2.689   0.634   5.048  0.2454 -0.6348 -0.4766
 4084SOL    HW216108   2.671   0.658   5.139  0.5160  2.4805 -1.1347
 4084SOL    HW316109   2.605   0.603   5.015  0.1962 -2.0579  0.8413
 4084SOL    MW416110   2.676   0.633   5.056  0.2746 -0.4115 -0.3896
 4085SOL     OW16111   4.837   0.522   2.792  0.5548  0.1830  0.4817
 4085SOL    HW216112   4.758   0.486   2.752  0.1029  1.8253 -0.1633
 4085SOL    HW316113   4.889   0.445   2.814 -0.8147 -0.8992  0.0903
 4085SOL    MW416114   4.834   0.507   2.789  0.3145  0.2569  0.3450
 4086SOL     OW16115   3.815   1.071   2.773  0.2644  0.8018  0.2243
 4086SOL    HW216116   3.832   0.978   2.787  0.5894  0.7390 -0.5300
 4086SOL    HW316117   3.720   1.079   2.782  0.0427  0.1164 -1.1724
 4086SOL    MW416118   3.805   1.060   2.776  0.2780  0.7031 -0.0595
 4087SOL     OW16119   1.643   1.717   4.056 -0.4245 -0.0488  0.0919
 4087SOL    HW216120   1.659   1.627   4.028  0.9519 -0.3669  1.7294
 4087SOL    HW316121   1.626   1.711   4.150  1.3080  1.5213  0.5676
 4087SOL    MW416122   1.643   1.705   4.065 -0.0144  0.1164  0.3707
 4088SOL     OW16123   0.065   5.313   2.532 -0.0859 -0.5514  0.1494
 4088SOL    HW216124  -0.018   5.303   2.485  0.4151 -0.5654 -0.7548
 4088SOL    HW316125   0.117   5.371   2.476  0.5394 -0.6077  0.6644
 4088SOL    MW416126   0.061   5.319   2.518  0.0627 -0.5607  0.0981
 4089SOL     OW16127   2.324   0.823   2.640 -0.7017 -0.1611 -0.8020
 4089SOL    HW216128   2.314   0.728   2.636  0.2508 -0.2725 -0.8241
 4089SOL    HW316129   2.302   0.846   2.730  1.5876 -0.7543 -0.0227
 4089SOL    MW416130   2.320   0.813   2.652 -0.2740 -0.2541 -0.7021
 4090SOL     OW16131   2.145   4.310   2.784 -0.2370  0.7908 -0.4367
 4090SOL    HW216132   2.236   4.283   2.770  0.1183  2.5013 -1.7619
 4090SOL    HW316133   2.151   4.396   2.825 -1.3104  0.2381  0.9881
 4090SOL    MW416134   2.158   4.318   2.788 -0.3317  0.9436 -0.4235
 4091SOL     OW16135   2.267   6.365   3.381  0.1835  0.0103 -0.4243
 4091SOL    HW216136   2.172   6.373   3.388  0.2835  2.2104 -0.9300
 4091SOL    HW316137   2.285   6.368   3.287  0.8046  0.5524 -0.2987
 4091SOL    MW416138   2.257   6.366   3.369  0.2786  0.3721 -0.4744
 4092SOL     OW16139   1.555   4.053   4.684 -0.2581 -0.1739 -0.4526
 4092SOL    HW216140   1.646   4.038   4.661  0.1803 -0.5567  1.3575
 4092SOL    HW316141   1.521   4.108   4.613  1.7811  1.2147 -0.4317
 4092SOL    MW416142   1.562   4.059   4.672  0.0688 -0.0412 -0.2110
 4093SOL     OW16143   0.301   2.725   0.591  0.4686  0.4047  0.0593
 4093SOL    HW216144   0.366   2.716   0.522  0.4835  0.4056  0.0733
 4093SOL    HW316145   0.351   2.741   0.670  0.4462  0.5009  0.0538
 4093SOL    MW416146   0.316   2.726   0.592  0.4676  0.4175  0.0604
 4094SOL     OW16147   0.761   0.074   4.531 -0.3036  0.3933 -0.5740
 4094SOL    HW216148   0.818  -0.000   4.509  0.5048  1.0128 -0.6390
 4094SOL    HW316149   0.688   0.067   4.471  0.0347 -0.0546 -0.9391
 4094SOL    MW416150   0.759   0.063   4.520 -0.1523  0.4159 -0.6308
 4095SOL     OW16151   1.185   2.959   3.708 -0.6998 -0.2429 -0.8782
 4095SOL    HW216152   1.149   3.044   3.732 -0.2994 -0.5307  0.9112
 4095SOL    HW316153   1.259   2.947   3.767 -0.4866 -1.6473 -1.3964
 4095SOL    MW416154   1.190   2.969   3.719 -0.6188 -0.4662 -0.7105
 4096SOL     OW16155   2.782   0.783   5.764  0.4217 -0.0904 -0.3052
 4096SOL    HW216156   2.841   0.746   5.830 -0.4556  1.3781  1.4174
 4096SOL    HW316157   2.810   0.744   5.681  1.5940 -2.0293  0.9139
 4096SOL    MW416158   2.793   0.773   5.762  0.4607 -0.1524  0.0829
 4097SOL     OW16159   3.786   0.519   3.304 -0.1596 -0.1251  0.3396
 4097SOL    HW216160   3.828   0.454   3.360  1.1595 -0.3963 -0.9029
 4097SOL    HW316161   3.697   0.487   3.293  0.4565 -1.7401 -0.2230
 4097SOL    MW416162   3.780   0.506   3.310  0.0957 -0.3740  0.1015
 4098SOL     OW16163   3.054   1.763   2.794  0.1029  0.0392 -0.0033
 4098SOL    HW216164   3.088   1.763   2.883 -2.4065  0.5599  1.0476
 4098SOL    HW316165   2.964   1.730   2.803 -1.0169  2.2582 -1.9673
 4098SOL    MW416166   3.046   1.759   2.807 -0.3759  0.4006 -0.1238
 4099SOL     OW16167   4.200   6.286   3.057 -0.9146  0.7407  0.1142
 4099SOL    HW216168   4.271   6.289   3.122 -0.9137 -2.3138  0.4310
 4099SOL    HW316169   4.134   6.230   3.098 -2.9426  2.3984 -0.7486
 4099SOL    MW416170   4.201   6.279   3.071 -1.1820  0.5564  0.0422
 4100SOL     OW16171   1.669   4.532   2.318 -0.3229 -0.3940 -0.1942
 4100SOL    HW216172   1.588   4.516   2.367 -0.1699 -2.0830 -0.4253
 4100SOL    HW316173   1.698   4.618   2.347 -0.8453 -0.8512  1.8278
 4100SOL    MW416174   1.662   4.541   2.328 -0.3716 -0.6771  0.0421
 4101SOL     OW16175   2.192   2.433   3.982  0.1006 -0.3403 -0.0742
 4101SOL    HW216176   2.276   2.429   3.936  0.4544 -0.4034  0.5741
 4101SOL    HW316177   2.127   2.427   3.912  0.6131 -2.4442 -0.4178
 4101SOL    MW416178   2.194   2.432   3.967  0.2149 -0.6262 -0.0340
 4102SOL     OW16179   5.275   4.035   1.232  0.2988 -0.5142  0.4998
 4102SOL    HW216180   5.203   4.045   1.171  1.2719  0.4430 -0.5480
 4102SOL    HW316181   5.241   3.978   1.301 -1.0666 -1.0131 -0.5447
 4102SOL    MW416182   5.261   4.029   1.233  0.2470 -0.4537  0.2238
 4103SOL     OW16183   0.422   1.334   1.263  0.0343 -0.2890 -0.4422
 4103SOL    HW216184   0.335   1.335   1.224 -0.2438  0.2997  0.1602
 4103SOL    HW316185   0.446   1.426   1.271  0.9968 -0.4557 -1.1893
 4103SOL    MW416186   0.413   1.346   1.259  0.1246 -0.2333 -0.4613
 4104SOL     OW16187   6.141   1.292   6.414  0.2668 -0.2125 -0.5168
 4104SOL    HW216188   6.207   1.280   6.345 -0.7592 -2.1239 -1.2382
 4104SOL    HW316189   6.061   1.314   6.366 -0.4235 -1.4220  0.0369
 4104SOL    MW416190   6.139   1.293   6.398  0.0403 -0.6243 -0.5390
 4105SOL     OW16191   0.385   4.520   0.399  0.1514  0.1039  0.6624
 4105SOL    HW216192   0.449   4.450   0.386  1.5550  1.1612  1.5785
 4105SOL    HW316193   0.424   4.596   0.355  0.1870  1.0987  2.3103
 4105SOL    MW416194   0.399   4.521   0.391  0.3413  0.3746  1.0007
 4106SOL     OW16195   3.080   3.843   3.876 -0.6539  0.0683 -0.2691
 4106SOL    HW216196   3.084   3.899   3.798 -4.4161 -1.2238 -1.5752
 4106SOL    HW316197   3.116   3.759   3.848  2.2273  0.7859  0.8583
 4106SOL    MW416198   3.085   3.840   3.862 -0.7702 -0.0075 -0.2927
 4107SOL     OW16199   3.022   5.564   1.406 -0.0660 -0.1877  0.0805
 4107SOL    HW216200   3.013   5.638   1.465  4.2179 -0.4141  1.3294
 4107SOL    HW316201   3.054   5.601   1.324 -1.0625 -0.3827 -0.4109
 4107SOL    MW416202   3.025   5.578   1.403  0.3678 -0.2433  0.1805
 4108SOL     OW16203   1.919   5.867   5.510 -0.0852  0.5159  0.0529
 4108SOL    HW216204   1.861   5.797   5.542 -0.2720  0.5912 -0.1166
 4108SOL    HW316205   1.955   5.906   5.589  0.4681 -0.1445  0.1361
 4108SOL    MW416206   1.916   5.863   5.525 -0.0369  0.4387  0.0415
 4109SOL     OW16207   3.649   6.347   0.801  0.8475 -0.2892 -0.3512
 4109SOL    HW216208   3.715   6.284   0.771  0.0900 -1.0284 -0.5154
 4109SOL    HW316209   3.679   6.373   0.888  0.1601 -2.4448  0.6150
 4109SOL    MW416210   3.661   6.342   0.809  0.6568 -0.6712 -0.2454
 4110SOL     OW16211   6.330   3.920   0.915 -0.5813  0.0120  0.0011
 4110SOL    HW216212   6.296   3.907   0.826 -0.6956 -2.0852  0.3105
 4110SOL    HW316213   6.343   4.015   0.922 -2.9862  0.5301 -1.3763
 4110SOL    MW416214   6.327   3.931   0.904 -0.9137 -0.1963 -0.1398
 4111SOL     OW16215   1.766   1.821   5.140 -0.0036 -0.2626  0.3003
 4111SOL    HW216216   1.815   1.786   5.213 -0.3783  0.1045  0.7341
 4111SOL    HW316217   1.688   1.766   5.134 -0.7290  0.6223  1.1548
 4111SOL    MW416218   1.762   1.809   5.148 -0.1487 -0.0974  0.4703
 4112SOL     OW16219   2.945   1.507   2.503 -0.8555 -0.0900 -0.0475
 4112SOL    HW216220   2.940   1.592   2.459 -1.9127 -0.3824 -0.5344
 4112SOL    HW316221   2.998   1.452   2.445  1.5580  0.7561  1.2197
 4112SOL    MW416222   2.951   1.511   2.490 -0.6765 -0.0169  0.0554
 4113SOL     OW16223   4.273   5.581   4.360 -0.3019 -0.3511 -0.5203
 4113SOL    HW216224   4.280   5.670   4.325  0.8851 -0.7502 -1.3564
 4113SOL    HW316225   4.338   5.531   4.311 -0.1011 -1.4203  0.7733
 4113SOL    MW416226   4.283   5.586   4.349 -0.1188 -0.5448 -0.4600
 4114SOL     OW16227   2.889   1.186   5.694 -0.7912  0.3708 -0.3000
 4114SOL    HW216228   2.862   1.211   5.782  0.4203 -0.9479  0.4832
 4114SOL    HW316229   2.828   1.115   5.670 -0.6521  0.2235 -0.2191
 4114SOL    MW416230   2.877   1.180   5.702 -0.6130  0.1774 -0.1860
 4115SOL     OW16231   0.850   5.956   5.954  0.0661  0.3693  0.5006
 4115SOL    HW216232   0.788   5.904   5.903 -0.2203  1.8176 -0.6930
 4115SOL    HW316233   0.921   5.976   5.892  1.4069 -0.6738  1.6458
 4115SOL    MW416234   0.851   5.952   5.939  0.2052  0.4227  0.4943
 4116SOL     OW16235   3.786   2.918   4.152 -0.3375  0.3089 -0.5254
 4116SOL    HW216236   3.842   2.937   4.226 -1.7103  0.8310  0.4282
 4116SOL    HW316237   3.730   2.995   4.143 -1.1122 -0.3042 -1.2195
 4116SOL    MW416238   3.786   2.930   4.161 -0.6208  0.2969 -0.4911
 4117SOL     OW16239   4.195   3.623   2.417  0.6001  0.5066  0.3287
 4117SOL    HW216240   4.177   3.540   2.374 -1.7354  0.7189  0.7495
 4117SOL    HW316241   4.109   3.653   2.447  1.2313  3.4320 -0.4766
 4117SOL    MW416242   4.181   3.616   2.415  0.3752  0.9206  0.2780
 4118SOL     OW16243   3.855   3.080   5.458  0.0430  0.1291 -0.8060
 4118SOL    HW216244   3.910   3.158   5.445  0.9245 -0.3625 -0.1228
 4118SOL    HW316245   3.818   3.063   5.372  1.0171  0.4451 -1.3100
 4118SOL    MW416246   3.858   3.088   5.445  0.2879  0.1060 -0.7823
 4119SOL     OW16247   3.207   3.048   4.038  0.4164 -0.0186 -0.0695
 4119SOL    HW216248   3.227   3.119   4.100 -0.4944  0.6942 -0.5528
 4119SOL    HW316249   3.163   3.092   3.966  0.3819 -1.0106 -0.6671
 4119SOL    MW416250   3.204   3.063   4.037  0.2917 -0.0554 -0.2121
 4120SOL     OW16251   4.107   5.297   4.906  0.2449  0.2510  0.2440
 4120SOL    HW216252   4.134   5.206   4.897 -1.6560 -0.5846  2.1684
 4120SOL    HW316253   4.175   5.337   4.961  1.1260  0.0534 -0.6714
 4120SOL    MW416254   4.120   5.290   4.912  0.1103  0.1147  0.3772
 4121SOL     OW16255   2.502   3.945   2.263 -0.3880 -0.4153 -0.0930
 4121SOL    HW216256   2.515   3.987   2.348 -0.3582 -2.0751  0.7680
 4121SOL    HW316257   2.591   3.925   2.233 -0.4187 -0.2149 -0.3196
 4121SOL    MW416258   2.516   3.948   2.270 -0.3881 -0.6078 -0.0093
 4122SOL     OW16259   2.318   3.870   1.864 -0.3084 -0.0687  0.0534
 4122SOL    HW216260   2.321   3.926   1.786 -1.0178 -1.7334 -1.2488
 4122SOL    HW316261   2.224   3.861   1.884 -0.1974 -0.5705  0.3787
 4122SOL    MW416262   2.306   3.876   1.856 -0.3873 -0.3545 -0.0755
 4123SOL     OW16263   1.046   0.189   3.758 -0.2669  0.4837 -0.3129
 4123SOL    HW216264   0.979   0.248   3.791 -1.6433 -0.6371 -0.9892
 4123SOL    HW316265   1.014   0.101   3.780  0.4802 -0.1251 -1.5183
 4123SOL    MW416266   1.033   0.185   3.765 -0.3499  0.2555 -0.5612
 4124SOL     OW16267   5.563   4.506   4.764 -0.5368 -0.0682 -0.2881
 4124SOL    HW216268   5.586   4.413   4.765  0.1276  0.0955 -0.1545
 4124SOL    HW316269   5.600   4.540   4.845 -2.0664  0.0120  0.4127
 4124SOL    MW416270   5.571   4.498   4.775 -0.6510 -0.0360 -0.1780
 4125SOL     OW16271   2.825   5.654   0.541 -0.4877 -0.3918 -0.3375
 4125SOL    HW216272   2.807   5.560   0.542 -1.4619 -0.2324  1.0521
 4125SOL    HW316273   2.750   5.693   0.586  0.8702  0.8553  0.9498
 4125SOL    MW416274   2.812   5.647   0.547 -0.4370 -0.2063  0.0157
 4126SOL     OW16275   5.909   5.713   3.525 -0.3024 -0.0977 -0.0568
 4126SOL    HW216276   5.927   5.802   3.497  1.7679 -0.1490  0.8808
 4126SOL    HW316277   5.921   5.660   3.446 -0.2582  0.3322 -0.3376
 4126SOL    MW416278   5.913   5.718   3.511 -0.0234 -0.0478  0.0299
 4127SOL     OW16279   5.194   0.930   3.992  0.3428  0.4311 -0.2081
 4127SOL    HW216280   5.261   0.892   4.048 -0.5469 -2.6769 -1.0514
 4127SOL    HW316281   5.112   0.912   4.037 -0.1893  0.5821 -1.0925
 4127SOL    MW416282   5.192   0.923   4.005  0.1552  0.0410 -0.4361
 4128SOL     OW16283   3.650   4.617   5.839 -0.8535  0.0092 -0.2631
 4128SOL    HW216284   3.570   4.668   5.833 -1.0973 -0.0994  1.4374
 4128SOL    HW316285   3.720   4.682   5.835 -1.0212  0.1303 -1.4737
 4128SOL    MW416286   3.649   4.632   5.838 -0.9078  0.0109 -0.1985
 4129SOL     OW16287   4.988   5.823   4.490 -0.3099  0.1734  0.6154
 4129SOL    HW216288   4.909   5.876   4.503 -1.7791 -1.6466 -0.3728
 4129SOL    HW316289   5.045   5.848   4.563 -1.5936  1.8799  1.1110
 4129SOL    MW416290   4.985   5.833   4.501 -0.6731  0.1584  0.5504
 4130SOL     OW16291   5.335   2.773   3.954  0.0350 -0.1356  0.0070
 4130SOL    HW216292   5.288   2.699   3.914  0.4655 -0.6154  0.3699
 4130SOL    HW316293   5.389   2.809   3.884 -0.9289  0.4809 -0.4432
 4130SOL    MW416294   5.336   2.768   3.940 -0.0354 -0.1176 -0.0045
 4131SOL     OW16295   0.676   3.931   5.234 -0.9336 -0.1433 -0.0371
 4131SOL    HW216296   0.683   3.938   5.139 -2.4147  0.8247 -0.1183
 4131SOL    HW316297   0.656   4.020   5.263 -0.4129 -0.4120  1.1930
 4131SOL    MW416298   0.674   3.944   5.225 -1.0603 -0.0511  0.1145
 4132SOL     OW16299   3.224   0.580   1.603 -0.4355  0.1821 -0.0330
 4132SOL    HW216300   3.152   0.523   1.577 -0.2635 -0.6756  1.2708
 4132SOL    HW316301   3.214   0.590   1.698  0.5546  0.8976  0.0193
 4132SOL    MW416302   3.213   0.574   1.612 -0.2821  0.1633  0.1459
 4133SOL     OW16303   4.032   0.153   0.056 -0.0991  0.1230 -0.0232
 4133SOL    HW216304   4.100   0.214   0.028 -0.2360 -0.7129 -2.3596
 4133SOL    HW316305   3.961   0.210   0.087  1.4412  1.0067  2.2041
 4133SOL    MW416306   4.031   0.169   0.057  0.0861  0.1293 -0.0376
 4134SOL     OW16307   1.936   3.710   0.929 -0.1989  0.3494 -0.1692
 4134SOL    HW216308   1.873   3.638   0.938 -0.5300  0.5349 -0.9589
 4134SOL    HW316309   2.021   3.669   0.940 -0.4540  0.2982  2.3127
 4134SOL    MW416310   1.939   3.695   0.932 -0.2762  0.3671  0.0541
 4135SOL     OW16311   0.069   3.596   2.030 -0.3321 -0.1321 -0.2180
 4135SOL    HW216312   0.137   3.528   2.030 -0.9535 -0.8132  1.5256
 4135SOL    HW316313   0.075   3.636   2.116 -1.6037  0.3396 -0.3302
 4135SOL    MW416314   0.079   3.592   2.041 -0.5819 -0.1597 -0.0028
 4136SOL     OW16315   3.545   0.709   3.957 -0.4790 -0.1131 -0.1438
 4136SOL    HW216316   3.532   0.776   4.025  1.1617  0.5845 -0.4510
 4136SOL    HW316317   3.459   0.669   3.945 -1.3587  1.4800  0.5487
 4136SOL    MW416318   3.532   0.713   3.964 -0.3786  0.1892 -0.0930
 4137SOL     OW16319   1.820   4.339   1.220 -0.0761 -0.3198 -0.2917
 4137SOL    HW216320   1.830   4.434   1.222 -0.1889 -0.3070 -0.3563
 4137SOL    HW316321   1.909   4.305   1.233 -0.1754 -0.2064  0.7454
 4137SOL    MW416322   1.833   4.347   1.222 -0.1041 -0.3032 -0.1634
 4138SOL     OW16323   2.039   4.821   6.285 -0.4412 -1.1468  0.3646
 4138SOL    HW216324   2.088   4.869   6.217  1.9414 -1.6221  1.6375
 4138SOL    HW316325   1.988   4.888   6.329 -1.3036 -0.6807 -1.2466
 4138SOL    MW416326   2.039   4.836   6.282 -0.2406 -1.1480  0.3200
 4139SOL     OW16327   4.215   3.068   4.812 -0.4387 -0.3181  0.6640
 4139SOL    HW216328   4.180   3.096   4.897  0.2014 -0.8021  1.0943
 4139SOL    HW316329   4.178   3.130   4.750 -1.7534 -0.5726  1.1539
 4139SOL    MW416330   4.205   3.080   4.815 -0.5277 -0.4155  0.7854
 4140SOL     OW16331   1.688   5.873   2.594 -0.7510  0.4317 -0.2519
 4140SOL    HW216332   1.601   5.836   2.613 -0.3938 -0.4303 -0.2239
 4140SOL    HW316333   1.744   5.796   2.584 -0.0689  0.9767 -0.6613
 4140SOL    MW416334   1.684   5.858   2.595 -0.6138  0.3898 -0.3023
 4141SOL     OW16335   3.544   6.165   5.186 -0.2916 -0.4142  0.1987
 4141SOL    HW216336   3.469   6.162   5.246  0.5869 -0.9526  1.3153
 4141SOL    HW316337   3.612   6.209   5.236  0.2467 -0.2391 -0.6809
 4141SOL    MW416338   3.543   6.170   5.201 -0.1047 -0.4621  0.2299
 4142SOL     OW16339   1.189   5.790   1.737 -0.1533  0.0489 -0.2922
 4142SOL    HW216340   1.241   5.726   1.784 -0.6581  0.1001  0.3508
 4142SOL    HW316341   1.141   5.738   1.672 -1.0448 -0.3327  0.6456
 4142SOL    MW416342   1.189   5.775   1.735 -0.3376  0.0053 -0.0836
 4143SOL     OW16343   2.982   4.073   5.208 -0.0663 -0.4150 -0.5113
 4143SOL    HW216344   3.072   4.063   5.238 -0.2303  0.4043  0.3117
 4143SOL    HW316345   2.955   3.985   5.183  0.0559 -1.2131  1.8926
 4143SOL    MW416346   2.990   4.060   5.209 -0.0719 -0.4122 -0.0855
 4144SOL     OW16347   0.213   3.526   1.482  0.4463 -0.1470  0.2808
 4144SOL    HW216348   0.289   3.539   1.539  0.4149  0.8716  0.1151
 4144SOL    HW316349   0.142   3.573   1.526 -0.1967 -1.4214  0.6322
 4144SOL    MW416350   0.214   3.534   1.495  0.3573 -0.1808  0.3053
 4145SOL     OW16351   5.407   4.203   5.965  0.2058 -0.0830 -0.2034
 4145SOL    HW216352   5.370   4.126   5.922 -1.5754  1.5707 -1.8021
 4145SOL    HW316353   5.342   4.227   6.031  1.6228 -0.9489  1.6158
 4145SOL    MW416354   5.393   4.196   5.968  0.1577  0.0209 -0.1743
 4146SOL     OW16355   3.988   0.465   2.881  0.0160 -0.1468  0.3396
 4146SOL    HW216356   3.977   0.525   2.955  0.0002  0.8723 -0.4575
 4146SOL    HW316357   3.903   0.465   2.838  0.2236 -0.1658 -0.0779
 4146SOL    MW416358   3.975   0.473   2.885  0.0413 -0.0149  0.1794
 4147SOL     OW16359   2.833   3.577   4.941 -0.2541 -0.4825  0.2081
 4147SOL    HW216360   2.786   3.500   4.908 -0.0041  0.3399 -2.2700
 4147SOL    HW316361   2.764   3.639   4.965 -0.5134  0.0623 -1.7808
 4147SOL    MW416362   2.818   3.575   4.940 -0.2553 -0.3021 -0.3813
 4148SOL     OW16363   4.354   5.314   3.933 -0.3715  0.3769 -0.2807
 4148SOL    HW216364   4.280   5.298   3.991  0.0531 -0.8029 -0.0208
 4148SOL    HW316365   4.415   5.242   3.953  1.1362  1.6761 -0.0092
 4148SOL    MW416366   4.352   5.302   3.943 -0.1165  0.3926 -0.2106
 4149SOL     OW16367   3.440   1.147   4.432 -0.2156  0.0932 -0.2745
 4149SOL    HW216368   3.507   1.205   4.469 -0.8031 -0.0254  1.0681
 4149SOL    HW316369   3.484   1.063   4.421  0.4537  0.5957 -1.5711
 4149SOL    MW416370   3.455   1.144   4.436 -0.2048  0.1439 -0.2684
 4150SOL     OW16371   0.406   1.357   4.064 -0.0760 -0.1856  0.1541
 4150SOL    HW216372   0.454   1.309   4.132 -0.0385 -1.2310 -0.5796
 4150SOL    HW316373   0.471   1.370   3.995 -0.3683  0.0001 -0.0855
 4150SOL    MW416374   0.421   1.352   4.064 -0.1096 -0.2990  0.0257
 4151SOL     OW16375   2.168   6.339   5.501 -0.2126  0.1719  0.3824
 4151SOL    HW216376   2.173   6.251   5.465 -0.3433  0.4336 -0.2990
 4151SOL    HW316377   2.112   6.331   5.578  0.8147 -0.5647  1.0757
 4151SOL    MW416378   2.161   6.326   5.506 -0.0943  0.1093  0.3840
 4152SOL     OW16379   5.130   5.691   1.123 -0.3986  0.7411 -0.0744
 4152SOL    HW216380   5.144   5.600   1.096 -1.8947  0.5436 -0.2855
 4152SOL    HW316381   5.084   5.731   1.049 -0.7320  1.3598  0.4583
 4152SOL    MW416382   5.126   5.684   1.110 -0.6400  0.7967 -0.0320
 4153SOL     OW16383   0.915   6.061   0.784  0.1155  0.9967 -0.2759
 4153SOL    HW216384   0.874   5.982   0.820 -1.7393  2.0093 -0.0483
 4153SOL    HW316385   0.978   6.087   0.852  0.8229 -0.3038 -0.3967
 4153SOL    MW416386   0.918   6.054   0.798 -0.0359  0.9587 -0.2618
 4154SOL     OW16387   5.900   4.579   3.912 -0.1904 -0.1517  0.2485
 4154SOL    HW216388   5.850   4.514   3.960  1.5601 -0.6627  1.4693
 4154SOL    HW316389   5.915   4.540   3.826  0.7711 -1.3874  0.9392
 4154SOL    MW416390   5.896   4.566   3.907  0.1674 -0.3822  0.5007
 4155SOL     OW16391   3.168   0.430   4.964  0.1366  0.0942  0.1941
 4155SOL    HW216392   3.242   0.426   4.904 -0.4040 -1.2538 -0.4287
 4155SOL    HW316393   3.162   0.522   4.989  1.5466  0.3556 -0.3199
 4155SOL    MW416394   3.177   0.441   4.959  0.2513 -0.0492  0.0441
 4156SOL     OW16395   0.572   5.341   1.714  0.2614 -0.5344  0.3718
 4156SOL    HW216396   0.536   5.324   1.801 -0.7462 -0.7699 -0.0755
 4156SOL    HW316397   0.545   5.265   1.662 -1.5509  0.8585 -0.8464
 4156SOL    MW416398   0.564   5.329   1.718 -0.1106 -0.3817  0.1520
 4157SOL     OW16399   5.158   1.249   4.954  0.5531  0.2617 -0.3699
 4157SOL    HW216400   5.105   1.296   5.019  0.0849  0.9898 -1.2632
 4157SOL    HW316401   5.237   1.302   4.946 -0.8245  2.1508 -2.8909
 4157SOL    MW416402   5.162   1.262   4.962  0.3096  0.6070 -0.8204
 4158SOL     OW16403   0.343   0.400   2.561  0.0597 -0.1250 -0.6153
 4158SOL    HW216404   0.374   0.314   2.533  1.0836  0.4374 -1.2680
 4158SOL    HW316405   0.261   0.382   2.606  0.1902 -1.4293 -0.8521
 4158SOL    MW416406   0.337   0.386   2.563  0.2120 -0.2229 -0.7326
 4159SOL     OW16407   4.740   4.908   3.029 -0.3552 -0.4688 -0.1986
 4159SOL    HW216408   4.798   4.833   3.036 -0.4051 -0.4331  0.8303
 4159SOL    HW316409   4.677   4.897   3.101 -0.4564  0.4633 -0.1242
 4159SOL    MW416410   4.739   4.897   3.039 -0.3751 -0.3411 -0.0531
 4160SOL     OW16411   3.651   4.401   4.647  0.2221 -0.4670  0.6307
 4160SOL    HW216412   3.687   4.440   4.567  0.6989 -1.2143  0.4750
 4160SOL    HW316413   3.563   4.439   4.654 -0.6111 -1.8464 -1.3409
 4160SOL    MW416414   3.644   4.411   4.637  0.1751 -0.7476  0.3500
 4161SOL     OW16415   0.465   3.599   3.247 -0.5535 -0.3977  0.0186
 4161SOL    HW216416   0.403   3.528   3.260  0.3317 -1.1250  0.3577
 4161SOL    HW316417   0.526   3.592   3.320  1.9535 -1.8792 -2.0460
 4161SOL    MW416418   0.465   3.589   3.258 -0.1060 -0.6892 -0.2090
 4162SOL     OW16419   3.034   3.768   4.851 -0.0634 -0.7266 -0.3703
 4162SOL    HW216420   2.991   3.842   4.809  0.8782  0.9647  1.4790
 4162SOL    HW316421   2.967   3.730   4.908 -0.0441 -0.1396  0.0499
 4162SOL    MW416422   3.020   3.773   4.853  0.0634 -0.4260 -0.0709
 4163SOL     OW16423   6.204   4.784   0.954 -0.0655  0.2339 -0.4979
 4163SOL    HW216424   6.255   4.719   1.002 -0.3285  0.6242  0.3148
 4163SOL    HW316425   6.265   4.818   0.889  0.5944  0.4127  0.2092
 4163SOL    MW416426   6.219   4.780   0.952 -0.0131  0.3090 -0.2974
 4164SOL     OW16427   3.441   0.043   5.695 -0.0381 -0.0810 -0.4764
 4164SOL    HW216428   3.496   0.046   5.617 -1.8334  0.1920 -1.7848
 4164SOL    HW316429   3.503   0.050   5.768  1.9994 -3.2118 -1.7071
 4164SOL    MW416430   3.457   0.044   5.694 -0.0061 -0.4581 -0.8114
 4165SOL     OW16431   1.020   3.581   0.630  1.1139  0.4247 -0.0834
 4165SOL    HW216432   0.972   3.662   0.649 -0.2141 -0.6802  1.6212
 4165SOL    HW316433   1.090   3.608   0.570 -0.3553  2.4884 -0.9966
 4165SOL    MW416434   1.023   3.595   0.625  0.7449  0.5512  0.0210
 4166SOL     OW16435   1.677   5.989   2.348 -0.1843 -0.5231 -0.2154
 4166SOL    HW216436   1.723   5.939   2.281  1.5302  0.9145 -0.1756
 4166SOL    HW316437   1.695   5.942   2.430 -0.4019 -1.0143 -0.4423
 4166SOL    MW416438   1.685   5.976   2.350  0.0132 -0.3982 -0.2401
 4167SOL     OW16439   3.311   0.717   4.961 -0.1418 -0.3292 -0.3674
 4167SOL    HW216440   3.259   0.662   4.903 -0.2239 -1.1148  0.4314
 4167SOL    HW316441   3.377   0.659   4.998 -0.9562 -0.2060  1.3862
 4167SOL    MW416442   3.313   0.702   4.958 -0.2601 -0.4166 -0.0306
 4168SOL     OW16443   1.682   1.517   0.436  0.2588 -0.6017 -0.0460
 4168SOL    HW216444   1.647   1.448   0.492 -1.6520  1.5237  1.5627
 4168SOL    HW316445   1.736   1.571   0.494 -0.8458  1.0094 -0.4146
 4168SOL    MW416446   1.684   1.515   0.451 -0.1391 -0.1087  0.1176
 4169SOL     OW16447   1.299   4.079   2.684  0.2501 -0.1060  0.2168
 4169SOL    HW216448   1.253   3.996   2.694 -0.5889  0.2084 -0.8917
 4169SOL    HW316449   1.387   4.054   2.657  0.0097 -0.6371 -0.0855
 4169SOL    MW416450   1.305   4.065   2.682  0.1077 -0.1346  0.0306
 4170SOL     OW16451   2.103   1.086   0.576 -0.2081 -0.5632  0.0453
 4170SOL    HW216452   2.076   1.178   0.584  1.7495 -0.0217  1.2117
 4170SOL    HW316453   2.031   1.036   0.614 -0.8269  0.5915  0.4251
 4170SOL    MW416454   2.090   1.092   0.582 -0.0314 -0.3394  0.2493
 4171SOL     OW16455   2.242   0.065   2.391  0.0864 -0.7618  0.0320
 4171SOL    HW216456   2.264  -0.020   2.430  0.1448 -0.2974  1.0364
 4171SOL    HW316457   2.320   0.090   2.343  0.4787 -0.7716  0.6506
 4171SOL    MW416458   2.255   0.057   2.390  0.1459 -0.7019  0.2461
 4172SOL     OW16459   2.135   1.525   0.261  0.3585  0.0771 -0.0143
 4172SOL    HW216460   2.190   1.465   0.210 -0.2352 -1.0984  0.6946
 4172SOL    HW316461   2.106   1.590   0.197  2.1105  0.4290 -0.5226
 4172SOL    MW416462   2.139   1.526   0.246  0.5113 -0.0316  0.0122
 4173SOL     OW16463   0.268   0.315   2.029  0.0078  0.1343  0.2574
 4173SOL    HW216464   0.179   0.320   1.995  0.3663  0.4532 -0.6561
 4173SOL    HW316465   0.287   0.221   2.032  0.3732  0.1059 -1.5654
 4173SOL    MW416466   0.259   0.303   2.025  0.1033  0.1727 -0.1036
 4174SOL     OW16467   0.461   6.249   4.710 -0.5681  0.0261 -0.0837
 4174SOL    HW216468   0.529   6.211   4.654 -1.6640 -0.3325 -1.2223
 4174SOL    HW316469   0.411   6.174   4.741 -1.8593  0.4029 -1.1731
 4174SOL    MW416470   0.463   6.234   4.707 -0.8831  0.0285 -0.3776
 4175SOL     OW16471   4.399   2.295   0.480 -0.1191 -0.1050 -0.4557
 4175SOL    HW216472   4.374   2.387   0.485 -1.1642 -0.3847 -0.4987
 4175SOL    HW316473   4.333   2.254   0.425 -0.7143 -1.2279  1.0155
 4175SOL    MW416474   4.387   2.301   0.473 -0.3355 -0.2901 -0.2673
 4176SOL     OW16475   3.942   3.541   1.951 -0.3641  0.0483 -0.2646
 4176SOL    HW216476   3.913   3.454   1.980 -0.4029  1.1225  3.4142
 4176SOL    HW316477   4.019   3.560   2.005  1.2600  1.3131 -2.8387
 4176SOL    MW416478   3.949   3.532   1.962 -0.1550  0.3569 -0.1188
 4177SOL     OW16479   2.980   0.027   1.256  0.5099 -0.9074  0.0504
 4177SOL    HW216480   3.028  -0.015   1.185  1.0257 -2.4202  1.2476
 4177SOL    HW316481   2.926  -0.043   1.294  0.2871 -0.1482  1.1904
 4177SOL    MW416482   2.979   0.012   1.252  0.5485 -1.0068  0.3587
 4178SOL     OW16483   2.462   6.345   0.152  0.3480  0.4189  0.7715
 4178SOL    HW216484   2.449   6.436   0.124 -0.6565  0.2035  0.4858
 4178SOL    HW316485   2.556   6.336   0.161  0.5448  1.1541 -0.3694
 4178SOL    MW416486   2.472   6.356   0.149  0.2415  0.4875  0.5833
 4179SOL     OW16487   5.625   5.101   1.669 -0.1565  0.3127 -0.0272
 4179SOL    HW216488   5.607   5.010   1.693  1.1333 -0.3293 -1.3584
 4179SOL    HW316489   5.693   5.128   1.731  1.1740 -0.4422 -1.0983
 4179SOL    MW416490   5.632   5.092   1.681  0.1892  0.1284 -0.3441
 4180SOL     OW16491   5.624   0.337   0.060  0.1866  0.1692 -0.1145
 4180SOL    HW216492   5.673   0.307  -0.016 -0.0668 -0.0546 -0.1903
 4180SOL    HW316493   5.553   0.273   0.070  0.5999 -0.1885  0.6995
 4180SOL    MW416494   5.621   0.324   0.052  0.2077  0.0925 -0.0171
 4181SOL     OW16495   4.690   2.304   1.857 -0.3671  0.7041 -0.6592
 4181SOL    HW216496   4.603   2.266   1.857  0.9469 -2.6559 -0.0440
 4181SOL    HW316497   4.704   2.333   1.767 -1.8881  0.7998 -0.8819
 4181SOL    MW416498   4.681   2.303   1.845 -0.3944  0.2734 -0.6074
 4182SOL     OW16499   1.897   1.602   1.631 -0.1769 -0.3890  0.0578
 4182SOL    HW216500   1.807   1.632   1.627 -0.2754 -0.7493 -0.5941
 4182SOL    HW316501   1.924   1.617   1.721 -0.7127  0.2213  0.1164
 4182SOL    MW416502   1.889   1.608   1.642 -0.2606 -0.3561 -0.0205
 4183SOL     OW16503   5.740   6.354   3.620  0.0687 -0.2313  0.7602
 4183SOL    HW216504   5.830   6.323   3.630  0.9837  1.8340 -0.2661
 4183SOL    HW316505   5.696   6.286   3.570  1.5953 -0.4944 -0.3013
 4183SOL    MW416506   5.746   6.341   3.614  0.3908  0.0065  0.4848
 4184SOL     OW16507   3.897   0.597   2.396 -0.3156  0.1802 -0.3778
 4184SOL    HW216508   3.847   0.678   2.407 -0.1804  0.6647 -2.7347
 4184SOL    HW316509   3.835   0.527   2.415 -0.5115  0.8014  1.4118
 4184SOL    MW416510   3.883   0.598   2.400 -0.3236  0.3260 -0.4527
 4185SOL     OW16511   3.129   2.041   0.073 -0.7347  0.0628  0.1919
 4185SOL    HW216512   3.135   2.058   0.167 -1.4107 -0.9817  0.4266
 4185SOL    HW316513   3.037   2.053   0.052 -0.4874  0.9236 -0.4796
 4185SOL    MW416514   3.118   2.045   0.082 -0.7913  0.0386  0.1342
 4186SOL     OW16515   3.331   0.129   0.108 -0.0734 -0.1693  0.6851
 4186SOL    HW216516   3.260   0.144   0.045  0.8190  0.1195 -0.2856
 4186SOL    HW316517   3.311   0.043   0.147  0.1871 -1.1147 -1.1653
 4186SOL    MW416518   3.319   0.119   0.105  0.0787 -0.2559  0.3129
 4187SOL     OW16519   4.029   4.105   0.044  0.5770  0.7548 -0.2472
 4187SOL    HW216520   4.092   4.173   0.070 -0.3095  1.1722  0.9439
 4187SOL    HW316521   3.996   4.134  -0.041  1.9989  0.5085 -0.9099
 4187SOL    MW416522   4.033   4.118   0.037  0.6476  0.7774 -0.1775
 4188SOL     OW16523   4.719   1.252   2.401 -0.3448 -0.1294 -0.1014
 4188SOL    HW216524   4.670   1.172   2.378 -0.4170  0.6996 -3.3817
 4188SOL    HW316525   4.654   1.308   2.444 -1.0700 -0.7772 -0.3210
 4188SOL    MW416526   4.704   1.248   2.404 -0.4500 -0.1055 -0.5631
 4189SOL     OW16527   1.609   3.165   2.897 -0.4138  0.5273  0.0150
 4189SOL    HW216528   1.632   3.144   2.988 -0.6782 -1.4746 -0.3306
 4189SOL    HW316529   1.519   3.195   2.902 -0.7882 -0.5704  0.3401
 4189SOL    MW416530   1.600   3.166   2.910 -0.4981  0.1184  0.0123
 4190SOL     OW16531   3.956   2.602   2.067  0.7813  0.4166 -0.2170
 4190SOL    HW216532   4.017   2.670   2.037  1.2410 -0.4956 -1.4398
 4190SOL    HW316533   3.912   2.573   1.987  0.1579 -0.3156  0.3804
 4190SOL    MW416534   3.958   2.607   2.052  0.7597  0.1997 -0.2995
 4191SOL     OW16535   5.997   5.385   4.161  0.0503 -0.1190  0.1255
 4191SOL    HW216536   5.953   5.310   4.121  1.6170  0.2639 -2.6388
 4191SOL    HW316537   5.956   5.461   4.120  1.0013  0.3552  0.0177
 4191SOL    MW416538   5.986   5.385   4.150  0.3824 -0.0059 -0.2534
 4192SOL     OW16539   5.172   5.342   5.446 -0.6425  0.1319  0.4013
 4192SOL    HW216540   5.202   5.412   5.504 -2.3175  2.0367 -0.8853
 4192SOL    HW316541   5.249   5.286   5.434  0.8774  1.9289  1.2013
 4192SOL    MW416542   5.186   5.343   5.452 -0.6630  0.6203  0.3371
 4193SOL     OW16543   0.212   2.653   1.224  0.4308  0.1321  0.5724
 4193SOL    HW216544   0.216   2.743   1.254  1.9803  0.4948 -0.5519
 4193SOL    HW316545   0.303   2.622   1.229  0.3426 -0.5808 -1.2306
 4193SOL    MW416546   0.225   2.661   1.229  0.6236  0.0859  0.1862
 4194SOL     OW16547   0.736   6.205   3.257  0.4953 -0.4275 -0.5100
 4194SOL    HW216548   0.805   6.254   3.303 -0.4374  0.3857  0.0569
 4194SOL    HW316549   0.749   6.114   3.285  2.1784 -0.5242 -1.4825
 4194SOL    MW416550   0.747   6.199   3.267  0.5943 -0.3330 -0.5635
 4195SOL     OW16551   4.500   0.104   0.980  0.1263 -0.1322 -0.2455
 4195SOL    HW216552   4.418   0.078   1.021  1.0485 -0.1764  1.6846
 4195SOL    HW316553   4.506   0.199   0.996  0.2867 -0.0638 -0.6918
 4195SOL    MW416554   4.490   0.113   0.988  0.2691 -0.1290 -0.0497
 4196SOL     OW16555   0.188   5.136   4.579  0.0867  0.3520 -0.3876
 4196SOL    HW216556   0.235   5.180   4.650  1.5599  1.4182 -1.9197
 4196SOL    HW316557   0.121   5.084   4.622  2.2792 -0.7695  1.9464
 4196SOL    MW416558   0.185   5.135   4.594  0.5704  0.3447 -0.2818
 4197SOL     OW16559   5.542   3.676   6.049  0.0962  0.0098 -0.0541
 4197SOL    HW216560   5.564   3.615   6.120 -0.3454 -0.6015 -0.4358
 4197SOL    HW316561   5.493   3.746   6.093 -3.0876 -1.9500 -0.1447
 4197SOL    MW416562   5.538   3.677   6.064 -0.3822 -0.3294 -0.1164
 4198SOL     OW16563   0.042   6.160   0.991 -0.0197  0.0696 -0.8394
 4198SOL    HW216564   0.100   6.084   0.990  0.6535  0.5553 -0.2413
 4198SOL    HW316565  -0.007   6.151   1.073 -1.7059 -0.9814 -1.9125
 4198SOL    MW416566   0.043   6.149   1.002 -0.1533 -0.0050 -0.9020
 4199SOL     OW16567   2.019   2.546   6.154 -0.0629 -0.4002  0.2062
 4199SOL    HW216568   2.100   2.586   6.188 -0.0934 -0.4924  0.3861
 4199SOL    HW316569   2.043   2.516   6.067  0.1730 -0.6630  0.3586
 4199SOL    MW416570   2.033   2.548   6.147 -0.0358 -0.4470  0.2500
 4200SOL     OW16571   4.097   1.916   0.992 -0.1925 -0.3791 -0.5807
 4200SOL    HW216572   4.153   1.980   0.948 -1.1765 -0.5272 -2.1365
 4200SOL    HW316573   4.014   1.963   1.005 -0.2282 -0.6592  0.2720
 4200SOL    MW416574   4.093   1.931   0.988 -0.3270 -0.4356 -0.6735
 4201SOL     OW16575   4.313   1.705   4.726  0.4928  0.5097  0.0638
 4201SOL    HW216576   4.283   1.778   4.779  0.4629  0.3251  0.3045
 4201SOL    HW316577   4.407   1.697   4.747  0.2977 -0.1032  0.7402
 4201SOL    MW416578   4.322   1.713   4.736  0.4631  0.4045  0.1848
 4202SOL     OW16579   5.939   3.153   4.192  0.7114 -0.5462  0.2449
 4202SOL    HW216580   5.947   3.059   4.206 -0.9290 -0.5014  1.8474
 4202SOL    HW316581   6.020   3.190   4.227  1.5419 -1.3674 -0.7578
 4202SOL    MW416582   5.951   3.146   4.198  0.6045 -0.6486  0.3241
 4203SOL     OW16583   2.067   5.935   0.538 -0.0223 -0.3351 -0.0698
 4203SOL    HW216584   2.139   5.891   0.492  1.0444  0.6114  0.6316
 4203SOL    HW316585   1.996   5.871   0.538  0.6458 -1.1192 -1.2166
 4203SOL    MW416586   2.067   5.921   0.532  0.2066 -0.3137 -0.1286
 4204SOL     OW16587   1.921   3.952   0.027 -1.0720  0.3176  0.1406
 4204SOL    HW216588   1.913   3.948  -0.068 -1.2431  0.2001  0.1601
 4204SOL    HW316589   1.906   4.043   0.049 -0.7382  0.4036  0.0279
 4204SOL    MW416590   1.918   3.963   0.018 -1.0505  0.3134  0.1283
 4205SOL     OW16591   2.352   0.164   0.058  0.2612  0.3904 -0.4383
 4205SOL    HW216592   2.266   0.204   0.047 -1.6599 -2.8092  1.2474
 4205SOL    HW316593   2.381   0.191   0.145 -0.0241 -0.1458 -0.1736
 4205SOL    MW416594   2.345   0.172   0.068 -0.0299 -0.1025 -0.1810
 4206SOL     OW16595   0.789   3.603   5.050 -0.0135  0.3457  0.1378
 4206SOL    HW216596   0.795   3.679   4.991 -1.0773  0.9566  0.7991
 4206SOL    HW316597   0.792   3.528   4.991  1.5339  0.8459 -0.5067
 4206SOL    MW416598   0.790   3.603   5.034  0.0503  0.4923  0.1400
 4207SOL     OW16599   5.044   0.892   0.838  0.7635 -0.5731 -0.0644
 4207SOL    HW216600   5.092   0.917   0.759  1.0506  0.6627  0.4725
 4207SOL    HW316601   5.075   0.953   0.905 -1.1450 -0.0811  0.4309
 4207SOL    MW416602   5.054   0.904   0.836  0.5496 -0.3451  0.0718
 4208SOL     OW16603   2.388   5.754   2.987 -0.5733 -0.3452 -0.5020
 4208SOL    HW216604   2.373   5.685   2.922 -1.8972 -0.6814  0.1240
 4208SOL    HW316605   2.374   5.711   3.071  2.1138 -0.1712  0.1289
 4208SOL    MW416606   2.384   5.739   2.989 -0.3935 -0.3666 -0.3362
 4209SOL     OW16607   1.144   5.676   4.291 -0.1859  0.6792 -0.1799
 4209SOL    HW216608   1.132   5.656   4.199 -0.4898  1.1960 -0.2614
 4209SOL    HW316609   1.059   5.657   4.331  0.1162 -0.1138  0.1090
 4209SOL    MW416610   1.131   5.671   4.284 -0.1862  0.6427 -0.1525
 4210SOL     OW16611   3.787   4.302   0.741  0.3628  0.3756  0.3904
 4210SOL    HW216612   3.757   4.372   0.683 -0.4537 -0.9880 -0.8764
 4210SOL    HW316613   3.861   4.262   0.695 -0.2115 -0.6386  0.3306
 4210SOL    MW416614   3.793   4.306   0.727  0.1793  0.0619  0.2154
 4211SOL     OW16615   0.660   5.199   5.886  0.1253  0.1247  0.4588
 4211SOL    HW216616   0.649   5.115   5.842 -0.5825  0.6360 -0.3622
 4211SOL    HW316617   0.608   5.191   5.966 -0.6972  0.0926 -0.0665
 4211SOL    MW416618   0.652   5.187   5.891 -0.0766  0.1879  0.2812
 4212SOL     OW16619   4.002   4.637   0.625  0.4214 -0.1754  0.1970
 4212SOL    HW216620   4.080   4.582   0.613  0.9006  0.6867 -0.7848
 4212SOL    HW316621   3.994   4.686   0.543 -1.0600 -0.1042  0.3496
 4212SOL    MW416622   4.011   4.636   0.613  0.2892 -0.0523  0.0876
 4213SOL     OW16623   3.091   3.651   1.148  0.3868 -0.5033 -0.3578
 4213SOL    HW216624   3.117   3.563   1.177  1.6248  0.1656  0.6128
 4213SOL    HW316625   3.163   3.707   1.173 -0.7676  0.9632 -0.1916
 4213SOL    MW416626   3.104   3.647   1.155  0.3978 -0.2215 -0.2078
 4214SOL     OW16627   4.206   4.410   4.313 -0.8357  0.3168  0.0143
 4214SOL    HW216628   4.212   4.496   4.271 -2.3545  0.1405 -0.6590
 4214SOL    HW316629   4.185   4.430   4.404  1.5749  0.6839  0.5444
 4214SOL    MW416630   4.204   4.424   4.319 -0.7180  0.3420 -0.0046
 4215SOL     OW16631   4.600   5.404   1.403 -0.1855  0.2286  0.0941
 4215SOL    HW216632   4.685   5.370   1.431  0.1149  0.4000 -0.5913
 4215SOL    HW316633   4.540   5.330   1.412  0.3722 -0.3744 -0.9502
 4215SOL    MW416634   4.603   5.390   1.408 -0.0723  0.1717 -0.1341
 4216SOL     OW16635   3.359   4.634   5.370 -0.1129  0.5821 -0.6001
 4216SOL    HW216636   3.440   4.636   5.321  0.2926  3.2128  0.0131
 4216SOL    HW316637   3.386   4.627   5.462 -0.6794 -0.2906 -0.4856
 4216SOL    MW416638   3.373   4.634   5.376 -0.1342  0.8141 -0.5041
 4217SOL     OW16639   0.791   1.981   0.128  0.0174 -0.2256 -0.4663
 4217SOL    HW216640   0.721   1.922   0.101  1.8744 -2.6618 -0.2570
 4217SOL    HW316641   0.773   2.000   0.220 -1.2783  0.6402 -0.8612
 4217SOL    MW416642   0.779   1.976   0.136  0.0915 -0.4328 -0.4908
 4218SOL     OW16643   4.377   1.072   3.630  0.2160 -0.4334 -0.4176
 4218SOL    HW216644   4.373   1.150   3.687 -1.8586  0.1075 -1.2004
 4218SOL    HW316645   4.389   0.999   3.690  1.4394  0.4033  0.4051
 4218SOL    MW416646   4.378   1.073   3.645  0.1037 -0.2517 -0.4124
 4219SOL     OW16647   3.181   0.502   5.891 -0.0632 -0.2611 -0.0076
 4219SOL    HW216648   3.175   0.431   5.954 -2.2966 -0.2324 -0.0941
 4219SOL    HW316649   3.232   0.569   5.935 -0.5776 -0.7129  1.3242
 4219SOL    MW416650   3.187   0.502   5.905 -0.4258 -0.3169  0.1567
 4220SOL     OW16651   1.180   2.411   5.558 -0.3182  0.2892 -0.3560
 4220SOL    HW216652   1.180   2.467   5.481 -0.8265  0.1247 -0.4816
 4220SOL    HW316653   1.194   2.323   5.524 -0.6724  0.2006 -0.2772
 4220SOL    MW416654   1.182   2.407   5.543 -0.4320  0.2558 -0.3621
 4221SOL     OW16655   5.728   2.808   3.996  0.2176 -0.0842  0.0736
 4221SOL    HW216656   5.722   2.893   3.953 -1.5433 -0.7149 -1.0331
 4221SOL    HW316657   5.800   2.764   3.952 -0.1970  0.0706 -0.7731
 4221SOL    MW416658   5.737   2.814   3.985 -0.0695 -0.1470 -0.1841
 4222SOL     OW16659   5.511   4.677   1.499  0.1113 -0.1867 -0.3076
 4222SOL    HW216660   5.520   4.735   1.424  0.9532  0.1941  0.0772
 4222SOL    HW316661   5.597   4.637   1.509 -0.4225 -1.4461 -0.5068
 4222SOL    MW416662   5.523   4.679   1.490  0.1519 -0.3026 -0.2831
 4223SOL     OW16663   5.546   1.512   5.385 -0.4008 -0.1531  0.1092
 4223SOL    HW216664   5.500   1.430   5.369  1.4577 -0.8858 -1.8173
 4223SOL    HW316665   5.605   1.522   5.311  0.3622  2.2860  0.9514
 4223SOL    MW416666   5.548   1.503   5.373 -0.0549  0.0721 -0.0339
 4224SOL     OW16667   2.720   2.760   0.226 -0.3641  0.4999 -0.7168
 4224SOL    HW216668   2.678   2.729   0.306 -2.0083 -0.9527 -2.0607
 4224SOL    HW316669   2.811   2.731   0.234 -0.8409 -0.9041  0.0086
 4224SOL    MW416670   2.726   2.752   0.238 -0.6439  0.1230 -0.7984
 4225SOL     OW16671   0.567   3.036   4.788 -0.1069 -0.1850  0.5439
 4225SOL    HW216672   0.487   2.989   4.766  0.1597  0.3083 -1.7806
 4225SOL    HW316673   0.636   2.970   4.786 -0.2575 -0.3787  1.2956
 4225SOL    MW416674   0.566   3.021   4.785 -0.0916 -0.1455  0.3364
 4226SOL     OW16675   4.025   6.420   1.431 -0.3027  0.4207  0.2025
 4226SOL    HW216676   4.006   6.413   1.338  0.0886  1.0308  0.0716
 4226SOL    HW316677   4.062   6.334   1.454 -1.6880 -0.2226  0.1240
 4226SOL    MW416678   4.028   6.408   1.422 -0.4338  0.4164  0.1749
 4227SOL     OW16679   5.310   3.268   3.725  0.6840 -0.3331  0.3298
 4227SOL    HW216680   5.288   3.181   3.692 -0.2942 -0.2020  0.6231
 4227SOL    HW316681   5.263   3.275   3.808  0.1298  0.7659 -0.0618
 4227SOL    MW416682   5.301   3.257   3.732  0.4818 -0.1708  0.3169
 4228SOL     OW16683   5.941   2.484   4.698 -0.3932 -0.0768  0.0018
 4228SOL    HW216684   5.852   2.474   4.732 -0.9902 -0.6951 -1.6518
 4228SOL    HW316685   5.970   2.395   4.680 -0.4065  0.2368 -1.7730
 4228SOL    MW416686   5.933   2.471   4.700 -0.4738 -0.1170 -0.4506
 4229SOL     OW16687   5.395   4.995   4.471 -0.0636  0.5881  0.3516
 4229SOL    HW216688   5.460   4.984   4.541 -1.4266  1.5772  1.8398
 4229SOL    HW316689   5.344   4.915   4.473 -2.9494  2.2386  3.6729
 4229SOL    MW416690   5.397   4.983   4.481 -0.6242  0.9363  0.9862
 4230SOL     OW16691   1.911   0.221   3.729 -0.2415  0.2737 -0.3081
 4230SOL    HW216692   1.878   0.283   3.664  0.7306  1.6112  0.4126
 4230SOL    HW316693   1.959   0.276   3.792  0.2359 -1.1646  0.6348
 4230SOL    MW416694   1.913   0.237   3.729 -0.0502  0.2604 -0.0886
 4231SOL     OW16695   4.429   3.335   3.479  0.5764  0.7500  0.4169
 4231SOL    HW216696   4.370   3.409   3.469 -0.1105  0.0629 -0.8682
 4231SOL    HW316697   4.384   3.262   3.436  0.2569 -0.9797  3.3515
 4231SOL    MW416698   4.416   3.335   3.472  0.4436  0.4311  0.6345
 4232SOL     OW16699   2.826   6.099   4.619 -0.4652  0.0041 -0.2720
 4232SOL    HW216700   2.860   6.188   4.611  1.6151 -0.8357 -1.5318
 4232SOL    HW316701   2.788   6.080   4.533  2.3103 -1.4621 -1.3214
 4232SOL    MW416702   2.825   6.108   4.607  0.1755 -0.3001 -0.5767
 4233SOL     OW16703   1.312   4.620   6.068  0.6041 -0.0418  0.4311
 4233SOL    HW216704   1.218   4.631   6.081  0.3603  0.1011 -1.2506
 4233SOL    HW316705   1.326   4.644   5.977  2.4993  1.2817  1.0229
 4233SOL    MW416706   1.301   4.625   6.058  0.8220  0.1517  0.2873
 4234SOL     OW16707   4.248   3.856   1.129  0.1065  0.0354 -0.4004
 4234SOL    HW216708   4.213   3.852   1.040  0.5999 -0.0686 -0.5899
 4234SOL    HW316709   4.180   3.816   1.183 -0.2956  0.3098 -0.6952
 4234SOL    MW416710   4.234   3.850   1.124  0.1185  0.0579 -0.4643
 4235SOL     OW16711   2.897   4.611   3.532  0.2100 -0.2695 -0.7298
 4235SOL    HW216712   2.989   4.635   3.524 -0.0999  1.0856 -0.4490
 4235SOL    HW316713   2.851   4.672   3.474 -0.8154  1.2523  1.5221
 4235SOL    MW416714   2.903   4.622   3.523  0.0338  0.1101 -0.3956
 4236SOL     OW16715   0.922   6.035   4.506 -0.6938 -0.0002  0.2089
 4236SOL    HW216716   0.943   6.018   4.414 -1.0847  0.6166  0.0023
 4236SOL    HW316717   0.940   6.128   4.519  2.2272 -0.6458  1.5622
 4236SOL    MW416718   0.927   6.045   4.496 -0.3600 -0.0040  0.3602
 4237SOL     OW16719   5.446   3.723   4.889  0.3116  0.2863  0.4996
 4237SOL    HW216720   5.442   3.700   4.796 -0.9891 -0.5141  0.7195
 4237SOL    HW316721   5.492   3.650   4.930 -0.6422 -0.2284  0.6979
 4237SOL    MW416722   5.452   3.710   4.882  0.0141  0.1128  0.5548
 4238SOL     OW16723   4.273   4.420   1.382 -0.3016 -0.6531 -0.1084
 4238SOL    HW216724   4.219   4.478   1.435 -1.3676 -0.7017 -1.0818
 4238SOL    HW316725   4.354   4.469   1.367  0.1143 -0.7346  1.7004
 4238SOL    MW416726   4.276   4.434   1.387 -0.3874 -0.6703  0.0018
 4239SOL     OW16727   5.064   6.151   3.563 -0.3832 -0.3682  0.4662
 4239SOL    HW216728   5.083   6.242   3.544 -1.4286  0.2721  2.2661
 4239SOL    HW316729   4.970   6.149   3.583 -0.1708 -1.6107  1.5314
 4239SOL    MW416730   5.054   6.162   3.563 -0.4931 -0.4477  0.8442
 4240SOL     OW16731   2.748   0.225   5.671 -0.1925  0.2358  0.1837
 4240SOL    HW216732   2.676   0.274   5.632 -0.4468 -0.0524  0.2902
 4240SOL    HW316733   2.815   0.292   5.690 -0.1989  0.4199 -0.4385
 4240SOL    MW416734   2.748   0.241   5.669 -0.2269  0.2221  0.1156
 4241SOL     OW16735   4.740   4.556   4.665  0.4660 -0.1747 -0.0582
 4241SOL    HW216736   4.797   4.515   4.600  0.3249  0.5926 -0.6753
 4241SOL    HW316737   4.661   4.580   4.617  1.5636  3.2287 -0.4031
 4241SOL    MW416738   4.737   4.553   4.650  0.5922  0.3756 -0.1851
 4242SOL     OW16739   5.054   1.720   3.717 -0.1521 -0.3227 -0.0501
 4242SOL    HW216740   4.960   1.727   3.704 -0.1671  1.0781  0.6799
 4242SOL    HW316741   5.071   1.625   3.714 -1.2748 -0.5096 -2.0395
 4242SOL    MW416742   5.044   1.708   3.715 -0.3022 -0.1625 -0.2162
 4243SOL     OW16743   0.199   6.404   3.602  0.2601 -0.0654  0.1771
 4243SOL    HW216744   0.184   6.380   3.693 -1.5647 -3.2452 -0.7655
 4243SOL    HW316745   0.294   6.412   3.593  0.4706  0.1809  2.2897
 4243SOL    MW416746   0.209   6.402   3.613  0.0471 -0.4524  0.3314
 4244SOL     OW16747   6.054   5.849   2.210 -0.7892  0.3926 -0.6075
 4244SOL    HW216748   5.975   5.897   2.235  0.3511  2.1399 -0.2188
 4244SOL    HW316749   6.126   5.898   2.250  0.3798 -2.5865  1.2711
 4244SOL    MW416750   6.053   5.862   2.219 -0.4845  0.2301 -0.3084
 4245SOL     OW16751   1.360   6.214   2.274 -0.1668  0.3981 -0.0782
 4245SOL    HW216752   1.392   6.146   2.214 -0.5896  0.6388 -0.5884
 4245SOL    HW316753   1.281   6.248   2.232 -0.6831  0.3160  0.8109
 4245SOL    MW416754   1.354   6.210   2.260 -0.2907  0.4190 -0.0282
 4246SOL     OW16755   2.557   2.477   4.358 -0.0545  0.1180 -0.0209
 4246SOL    HW216756   2.542   2.407   4.422 -0.7781 -0.1868 -0.5157
 4246SOL    HW316757   2.646   2.462   4.326 -0.7127 -1.4940 -1.2272
 4246SOL    MW416758   2.567   2.466   4.362 -0.2368 -0.1349 -0.2453
 4247SOL     OW16759   4.703   2.965   4.463 -0.0543 -0.5601 -0.3825
 4247SOL    HW216760   4.706   2.968   4.367  0.3299 -0.6440 -0.3783
 4247SOL    HW316761   4.739   2.879   4.485 -0.1150 -0.5289 -0.1630
 4247SOL    MW416762   4.708   2.954   4.453 -0.0116 -0.5671 -0.3530
 4248SOL     OW16763   5.967   3.579   6.268 -0.2315 -0.1115  0.1332
 4248SOL    HW216764   5.897   3.640   6.245 -0.9054 -1.1934 -0.7887
 4248SOL    HW316765   5.927   3.519   6.331  0.1898 -0.0939  0.4221
 4248SOL    MW416766   5.952   3.579   6.274 -0.2649 -0.2519  0.0497
 4249SOL     OW16767   2.529   3.986   5.360 -0.1629 -0.0419  0.2404
 4249SOL    HW216768   2.563   4.030   5.283  0.1633 -1.0102 -0.1857
 4249SOL    HW316769   2.476   4.052   5.404 -1.4557  0.1414 -1.4990
 4249SOL    MW416770   2.526   4.000   5.356 -0.2904 -0.1454 -0.0453
 4250SOL     OW16771   3.900   3.637   4.854  0.3053  0.4545  0.0134
 4250SOL    HW216772   3.837   3.620   4.924 -0.1995 -0.9773 -0.7361
 4250SOL    HW316773   3.977   3.671   4.898  0.9056 -2.6264  1.6365
 4250SOL    MW416774   3.902   3.639   4.869  0.3179 -0.1409  0.1286
 4251SOL     OW16775   2.059   1.186   6.042  1.1538  0.5769  0.1583
 4251SOL    HW216776   2.069   1.192   5.947  0.6811  1.0215  0.1377
 4251SOL    HW316777   2.047   1.092   6.059 -1.1176  0.6997 -0.4661
 4251SOL    MW416778   2.059   1.174   6.032  0.7918  0.6518  0.0732
 4252SOL     OW16779   5.674   2.752   2.059  0.6253  0.0313 -0.1735
 4252SOL    HW216780   5.689   2.702   2.139 -1.4223 -0.5488 -0.0855
 4252SOL    HW316781   5.750   2.735   2.004  1.8272  0.0260  1.4288
 4252SOL    MW416782   5.686   2.743   2.062  0.5137 -0.0459  0.0495
 4253SOL     OW16783   2.272   5.042   2.933 -0.3591  0.4421  0.4798
 4253SOL    HW216784   2.328   4.987   2.988  1.0195  2.0797  0.7993
 4253SOL    HW316785   2.266   4.995   2.850  1.1376 -0.0098  0.5886
 4253SOL    MW416786   2.279   5.029   2.930  0.0203  0.5985  0.5363
 4254SOL     OW16787   3.016   3.675   2.853  0.1227 -0.1595 -0.2347
 4254SOL    HW216788   2.998   3.756   2.900 -1.1872  1.0771 -2.6659
 4254SOL    HW316789   2.930   3.644   2.825  0.6930 -1.9011 -0.1398
 4254SOL    MW416790   3.003   3.682   2.856  0.0251 -0.2261 -0.5429
 4255SOL     OW16791   4.488   3.382   4.775  0.0862  0.3857  0.1319
 4255SOL    HW216792   4.408   3.428   4.750  1.0650  1.9457 -0.2725
 4255SOL    HW316793   4.489   3.304   4.719 -0.1314  1.4040 -1.3661
 4255SOL    MW416794   4.478   3.378   4.764  0.1866  0.7259 -0.1191
 4256SOL     OW16795   0.250   1.917   2.909  0.3727 -0.8542  0.1844
 4256SOL    HW216796   0.189   1.922   2.983  1.1990  1.8877  0.7766
 4256SOL    HW316797   0.323   1.864   2.942  0.4309 -0.2135  1.1115
 4256SOL    MW416798   0.252   1.910   2.923  0.4894 -0.4079  0.3849
 4257SOL     OW16799   2.211   0.964   2.398 -0.0677 -0.7039 -0.4764
 4257SOL    HW216800   2.117   0.974   2.384 -0.2910  2.6614  2.3067
 4257SOL    HW316801   2.218   0.913   2.478  0.4634 -0.5525 -0.4230
 4257SOL    MW416802   2.200   0.959   2.407 -0.0271 -0.2399 -0.1022
 4258SOL     OW16803   3.500   0.140   2.906 -0.5426 -0.4471 -0.7079
 4258SOL    HW216804   3.556   0.162   2.831  0.6717  0.0221  0.3135
 4258SOL    HW316805   3.412   0.137   2.869  0.0315 -0.2717 -2.1705
 4258SOL    MW416806   3.496   0.143   2.891 -0.3067 -0.3620 -0.7661
 4259SOL     OW16807   3.102   3.559   6.368 -0.0663  0.0296 -0.4736
 4259SOL    HW216808   3.037   3.517   6.424  0.7298 -1.1526 -0.3841
 4259SOL    HW316809   3.177   3.574   6.425  0.3848 -0.2720 -0.9740
 4259SOL    MW416810   3.103   3.555   6.383  0.0982 -0.1662 -0.5278
 4260SOL     OW16811   5.756   4.617   3.230  0.2812  0.6213 -0.2212
 4260SOL    HW216812   5.733   4.663   3.310  1.0082 -2.3486  1.8959
 4260SOL    HW316813   5.674   4.609   3.182 -0.6106  0.7624  1.2152
 4260SOL    MW416814   5.742   4.622   3.234  0.2595  0.2481  0.2476
 4261SOL     OW16815   2.665   0.389   4.171  0.0559 -0.6363 -0.3817
 4261SOL    HW216816   2.632   0.306   4.137  3.8264 -1.7772 -1.7277
 4261SOL    HW316817   2.691   0.369   4.261 -0.7277 -0.3673 -0.0873
 4261SOL    MW416818   2.664   0.375   4.179  0.4500 -0.7513 -0.5204
 4262SOL     OW16819   1.141   1.040   1.626 -1.4781  0.4861 -0.7821
 4262SOL    HW216820   1.186   1.116   1.590  0.8969 -0.6662 -0.4141
 4262SOL    HW316821   1.098   1.072   1.706 -0.7024  1.4932 -0.7614
 4262SOL    MW416822   1.141   1.054   1.632 -1.0624  0.4670 -0.7308
 4263SOL     OW16823   2.097   1.344   4.653 -0.0152  0.3257 -0.3400
 4263SOL    HW216824   2.058   1.420   4.697  1.1855  0.8844 -0.2112
 4263SOL    HW316825   2.141   1.296   4.723  0.4707  0.3054 -0.6565
 4263SOL    MW416826   2.097   1.348   4.668  0.2073  0.3967 -0.3648
 4264SOL     OW16827   2.755   5.511   1.241 -1.4302 -0.4012  0.3339
 4264SOL    HW216828   2.826   5.522   1.304 -1.0146 -1.8270  0.1583
 4264SOL    HW316829   2.799   5.478   1.162 -2.1089  0.1454 -0.2932
 4264SOL    MW416830   2.770   5.508   1.239 -1.4649 -0.5172  0.2280
 4265SOL     OW16831   2.590   3.886   3.527 -0.0723 -0.5370  0.1136
 4265SOL    HW216832   2.585   3.905   3.620  0.6870  0.0709  0.0408
 4265SOL    HW316833   2.652   3.950   3.492 -0.2623 -0.8202 -0.7924
 4265SOL    MW416834   2.598   3.897   3.534  0.0028 -0.4942 -0.0156
 4266SOL     OW16835   0.134   2.917   5.807  0.0082  0.4003 -0.6250
 4266SOL    HW216836   0.164   2.904   5.897 -0.8429 -0.4964 -0.4568
 4266SOL    HW316837   0.079   2.995   5.811  1.9161  1.8205 -0.8598
 4266SOL    MW416838   0.131   2.925   5.820  0.1476  0.4694 -0.6338
 4267SOL     OW16839   1.020   6.324   6.177  0.0613 -0.2549  0.1093
 4267SOL    HW216840   1.052   6.321   6.267  0.2976  0.3381  0.0558
 4267SOL    HW316841   1.068   6.397   6.137  0.9646 -1.3459 -0.8830
 4267SOL    MW416842   1.031   6.333   6.183  0.2116 -0.3206 -0.0287
 4268SOL     OW16843   0.789   0.766   2.821 -0.3087 -0.4815 -0.8742
 4268SOL    HW216844   0.700   0.738   2.839 -0.3400 -1.5678 -2.5160
 4268SOL    HW316845   0.780   0.850   2.776 -0.3095  1.0742  1.7923
 4268SOL    MW416846   0.776   0.774   2.817 -0.3129 -0.4196 -0.7390
 4269SOL     OW16847   5.290   3.727   3.920 -0.2019 -0.2303  0.2263
 4269SOL    HW216848   5.384   3.733   3.936 -0.1953 -0.4404  0.2707
 4269SOL    HW316849   5.281   3.735   3.825 -0.2203  0.7665  0.3012
 4269SOL    MW416850   5.301   3.729   3.909 -0.2034 -0.1265  0.2420
 4270SOL     OW16851   4.464   4.377   1.746 -0.0267 -0.1714 -0.1519
 4270SOL    HW216852   4.390   4.431   1.720 -0.1193 -0.1063  0.2481
 4270SOL    HW316853   4.529   4.440   1.778 -0.6069 -0.3634  1.5022
 4270SOL    MW416854   4.463   4.393   1.747 -0.1155 -0.1881  0.1191
 4271SOL     OW16855   6.331   1.835   3.331  0.4468  0.0316  0.1096
 4271SOL    HW216856   6.320   1.741   3.316  1.4387 -0.4452  2.0057
 4271SOL    HW316857   6.386   1.864   3.258 -0.7723 -0.5906 -1.1158
 4271SOL    MW416858   6.337   1.826   3.319  0.4168 -0.1134  0.1981
 4272SOL     OW16859   0.896   2.318   3.961  1.1128 -0.3018 -1.0060
 4272SOL    HW216860   0.808   2.337   3.993  1.2420 -0.6923 -0.3994
 4272SOL    HW316861   0.883   2.253   3.893  1.0290 -1.4117  0.0415
 4272SOL    MW416862   0.883   2.312   3.956  1.1188 -0.4998 -0.7878
 4273SOL     OW16863   5.946   6.287   4.591  0.0401  0.3808  0.2860
 4273SOL    HW216864   6.005   6.250   4.526 -1.3337 -2.2633  0.4255
 4273SOL    HW316865   5.880   6.334   4.540 -1.4496 -2.2855 -0.4005
 4273SOL    MW416866   5.945   6.288   4.576 -0.3377 -0.3198  0.2138
 4274SOL     OW16867   2.933   5.845   5.486 -0.3691  0.4094 -0.1072
 4274SOL    HW216868   2.966   5.810   5.403 -0.1159  0.3032  0.0359
 4274SOL    HW316869   2.846   5.808   5.495 -0.1847 -0.0178 -0.0582
 4274SOL    MW416870   2.926   5.836   5.476 -0.3113  0.3390 -0.0818
 4275SOL     OW16871   4.603   1.135   2.068  0.2761  0.1610 -0.4195
 4275SOL    HW216872   4.691   1.156   2.100  0.2253 -0.1781 -0.0492
 4275SOL    HW316873   4.576   1.213   2.020  0.1500  0.8972  0.7955
 4275SOL    MW416874   4.611   1.148   2.066  0.2528  0.2134 -0.2103
 4276SOL     OW16875   5.784   4.996   3.704  0.3782  0.3076  0.7133
 4276SOL    HW216876   5.752   4.932   3.767  0.2999 -0.9818 -0.5861
 4276SOL    HW316877   5.705   5.038   3.670  0.1582 -1.1696 -0.7244
 4276SOL    MW416878   5.769   4.993   3.708  0.3389 -0.0574  0.3522
 4277SOL     OW16879   3.771   1.060   4.408  0.7127 -0.0847 -0.0602
 4277SOL    HW216880   3.821   1.110   4.472  1.2382  0.1864 -0.6610
 4277SOL    HW316881   3.718   1.000   4.460  1.3986 -0.1291  0.6175
 4277SOL    MW416882   3.771   1.059   4.423  0.8726 -0.0548 -0.0500
 4278SOL     OW16883   1.429   3.686   0.329  0.3357  0.3655  0.5882
 4278SOL    HW216884   1.345   3.690   0.374 -0.5452  0.2097 -0.9526
 4278SOL    HW316885   1.476   3.765   0.356 -1.9773  2.6369 -1.6043
 4278SOL    MW416886   1.424   3.697   0.338 -0.0857  0.6447  0.0956
 4279SOL     OW16887   3.006   1.136   1.999  0.6340  0.4131 -0.1699
 4279SOL    HW216888   3.097   1.111   1.983  0.0041 -2.3740 -0.0287
 4279SOL    HW316889   2.955   1.071   1.950 -1.2614  0.2801  1.8235
 4279SOL    MW416890   3.011   1.124   1.990  0.3008  0.0279  0.1118
 4280SOL     OW16891   4.247   3.338   3.054 -1.1812  0.0783  0.5704
 4280SOL    HW216892   4.230   3.359   2.962  0.2184  2.3845  0.7564
 4280SOL    HW316893   4.187   3.266   3.074 -3.7805  1.5816 -1.2522
 4280SOL    MW416894   4.237   3.331   3.045 -1.3395  0.5809  0.3545
 4281SOL     OW16895   3.057   2.329   4.625  0.1967 -0.4373  0.0749
 4281SOL    HW216896   3.057   2.323   4.721 -0.0895  1.4689  0.2298
 4281SOL    HW316897   3.113   2.404   4.606 -1.0806  0.2402 -1.1601
 4281SOL    MW416898   3.065   2.338   4.636 -0.0096 -0.0964 -0.0676
 4282SOL     OW16899   3.650   2.957   4.970  0.0160  0.6896 -0.1510
 4282SOL    HW216900   3.667   3.020   4.899 -0.2220  0.1494 -0.6922
 4282SOL    HW316901   3.706   2.883   4.949 -1.2447 -0.1463 -0.6684
 4282SOL    MW416902   3.660   2.956   4.958 -0.1817  0.5081 -0.2907
 4283SOL     OW16903   1.134   0.113   5.661 -0.8932  0.0100  0.2951
 4283SOL    HW216904   1.051   0.076   5.692 -0.5860  0.4911  1.7833
 4283SOL    HW316905   1.136   0.201   5.698 -0.7757  0.9022 -1.6965
 4283SOL    MW416906   1.123   0.120   5.670 -0.8371  0.1912  0.2286
 4284SOL     OW16907   5.509   0.910   3.483 -0.2955 -0.2735  0.2581
 4284SOL    HW216908   5.482   0.892   3.573 -1.1107  0.0072  0.0805
 4284SOL    HW316909   5.548   0.828   3.453 -4.7896 -2.3383 -0.8458
 4284SOL    MW416910   5.510   0.896   3.491 -0.9960 -0.5089  0.0890
 4285SOL     OW16911   3.216   4.426   5.301  0.3198 -0.4412  0.3453
 4285SOL    HW216912   3.262   4.507   5.322  0.3036 -0.6566  1.2433
 4285SOL    HW316913   3.229   4.415   5.206 -0.0682  0.8339  0.1316
 4285SOL    MW416914   3.224   4.435   5.291  0.2665 -0.3013  0.4356
 4286SOL     OW16915   3.811   1.932   5.802 -0.5169  0.2695  0.6096
 4286SOL    HW216916   3.833   1.896   5.888 -0.2095  0.4772  0.6211
 4286SOL    HW316917   3.744   1.998   5.820 -0.4956  0.2704  0.6847
 4286SOL    MW416918   3.806   1.936   5.816 -0.4736  0.2970  0.6210
 4287SOL     OW16919   2.565   1.524   4.355  0.2379  0.1149 -0.0376
 4287SOL    HW216920   2.487   1.474   4.332  0.3529 -0.0697 -0.0271
 4287SOL    HW316921   2.613   1.534   4.273 -0.5893  1.6310 -0.3788
 4287SOL    MW416922   2.561   1.519   4.341  0.1439  0.2906 -0.0813
 4288SOL     OW16923   4.305   0.986   4.097 -0.4552  0.3710  0.1866
 4288SOL    HW216924   4.393   0.988   4.060  0.4424  0.0830  2.1722
 4288SOL    HW316925   4.318   0.980   4.191 -2.6188  1.4887  0.6354
 4288SOL    MW416926   4.318   0.985   4.104 -0.6222  0.4805  0.5078
 4289SOL     OW16927   5.623   5.974   0.477 -0.4521 -0.8239 -1.0952
 4289SOL    HW216928   5.607   6.068   0.484 -0.2269 -0.5588 -3.3408
 4289SOL    HW316929   5.694   5.967   0.413  1.7721 -2.4128  1.3465
 4289SOL    MW416930   5.631   5.986   0.470 -0.1289 -0.9986 -1.0693
 4290SOL     OW16931   3.641   6.256   4.593  0.2127  0.2954 -0.9390
 4290SOL    HW216932   3.572   6.236   4.530  0.0964  0.3224 -0.8211
 4290SOL    HW316933   3.682   6.336   4.560 -0.8118  1.1571 -0.2060
 4290SOL    MW416934   3.637   6.264   4.580  0.0622  0.4127 -0.8268
 4291SOL     OW16935   2.693   6.179   5.111  0.1665 -0.6239  0.3222
 4291SOL    HW216936   2.611   6.131   5.103 -0.6864  0.8127  0.2525
 4291SOL    HW316937   2.745   6.150   5.035 -0.1246 -1.7748  0.5462
 4291SOL    MW416938   2.689   6.169   5.100  0.0156 -0.5862  0.3426
 4292SOL     OW16939   0.271   2.197   3.789  0.1225  0.4360 -0.3658
 4292SOL    HW216940   0.197   2.139   3.775  0.6564 -0.8770  1.7755
 4292SOL    HW316941   0.337   2.143   3.833  2.2750  1.6240 -1.9344
 4292SOL    MW416942   0.270   2.182   3.793  0.4770  0.4195 -0.2903
 4293SOL     OW16943   0.612   1.335   2.741  0.5663 -0.3187 -0.1601
 4293SOL    HW216944   0.584   1.306   2.654  0.4969 -1.2009  0.1488
 4293SOL    HW316945   0.689   1.282   2.760 -0.6196 -1.6360  1.1878
 4293SOL    MW416946   0.619   1.325   2.732  0.4006 -0.6089  0.0585
 4294SOL     OW16947   6.133   6.212   6.039 -0.0286  0.0948 -0.8913
 4294SOL    HW216948   6.068   6.157   5.997  1.0397 -1.0128 -1.1247
 4294SOL    HW316949   6.098   6.228   6.127  0.4098 -2.4011 -0.1921
 4294SOL    MW416950   6.120   6.207   6.045  0.1702 -0.3806 -0.8298
 4295SOL     OW16951   4.451   3.337   5.034  0.3212 -0.0624 -0.3532
 4295SOL    HW216952   4.460   3.423   5.075  0.7213 -0.3431  0.1687
 4295SOL    HW316953   4.464   3.353   4.940  1.2660  0.3205 -0.1648
 4295SOL    MW416954   4.454   3.350   5.027  0.4986 -0.0489 -0.2595
 4296SOL     OW16955   3.576   5.333   3.037 -0.2872 -0.1156  0.1100
 4296SOL    HW216956   3.616   5.246   3.044  0.3157  0.1390 -0.1987
 4296SOL    HW316957   3.482   5.315   3.034 -0.1464 -0.7991 -0.5453
 4296SOL    MW416958   3.569   5.319   3.038 -0.1891 -0.1722 -0.0172
 4297SOL     OW16959   0.106   1.296   1.675 -0.4534  0.0302  0.0886
 4297SOL    HW216960   0.200   1.291   1.659 -0.8288  0.3670 -2.5672
 4297SOL    HW316961   0.098   1.282   1.770  2.3143  0.9229  0.5614
 4297SOL    MW416962   0.118   1.293   1.686 -0.1377  0.1924 -0.1994
 4298SOL     OW16963   2.687   6.143   0.809 -0.5955  0.3196 -0.2265
 4298SOL    HW216964   2.701   6.059   0.767 -0.4853  0.0101  0.4239
 4298SOL    HW316965   2.767   6.193   0.790 -0.7366  0.3528 -0.7636
 4298SOL    MW416966   2.700   6.139   0.801 -0.5996  0.2832 -0.2115
 4299SOL     OW16967   2.693   1.129   2.009  0.1839  0.1843  0.7014
 4299SOL    HW216968   2.715   1.218   1.981 -1.5638  0.3228 -0.3302
 4299SOL    HW316969   2.712   1.074   1.934 -0.0268 -0.1223  0.8688
 4299SOL    MW416970   2.698   1.133   1.996 -0.0745  0.1622  0.5874
 4300SOL     OW16971   2.493   3.789   6.091  0.2535 -0.0477  0.1303
 4300SOL    HW216972   2.524   3.872   6.129 -0.7570 -0.5242  2.1134
 4300SOL    HW316973   2.527   3.790   6.002 -0.8087  3.1282 -0.3659
 4300SOL    MW416974   2.502   3.800   6.084 -0.0200  0.3085  0.3265
 4301SOL     OW16975   2.562   1.510   2.829  0.0156 -0.6228 -0.0312
 4301SOL    HW216976   2.516   1.440   2.783 -1.2241 -0.0787  0.3535
 4301SOL    HW316977   2.509   1.528   2.906  0.4346  0.5881  0.0033
 4301SOL    MW416978   2.549   1.503   2.833 -0.0927 -0.3913  0.0241
 4302SOL     OW16979   4.673   0.007   5.007 -0.1414 -0.1604  0.4622
 4302SOL    HW216980   4.752   0.027   5.058  0.1998  1.1709 -0.5385
 4302SOL    HW316981   4.608   0.069   5.039 -0.6169 -0.8668  0.8734
 4302SOL    MW416982   4.675   0.018   5.018 -0.1592 -0.0779  0.3844
 4303SOL     OW16983   3.474   4.466   2.806  0.4616 -0.5893 -0.5472
 4303SOL    HW216984   3.444   4.406   2.875  0.5545 -1.7269 -1.4570
 4303SOL    HW316985   3.413   4.451   2.734  0.5220  0.3929 -0.8106
 4303SOL    MW416986   3.462   4.456   2.806  0.4818 -0.6098 -0.7020
 4304SOL     OW16987   3.171   5.991   3.398  0.2141 -0.2978  0.2665
 4304SOL    HW216988   3.253   6.040   3.405  0.7845 -1.2773  0.7751
 4304SOL    HW316989   3.144   5.976   3.488 -0.5449  0.0372  0.0985
 4304SOL    MW416990   3.178   5.995   3.411  0.1892 -0.3828  0.3115
 4305SOL     OW16991   5.376   1.358   1.096  0.3339  0.8913 -0.0898
 4305SOL    HW216992   5.356   1.293   1.028 -1.2236 -0.3225  1.4095
 4305SOL    HW316993   5.471   1.352   1.108  0.2657 -0.9953 -0.1575
 4305SOL    MW416994   5.386   1.348   1.089  0.1194  0.4822  0.0990
 4306SOL     OW16995   0.920   5.306   5.940  0.0504 -0.1575  0.1264
 4306SOL    HW216996   0.831   5.286   5.911 -0.6288  2.9499 -0.2489
 4306SOL    HW316997   0.970   5.317   5.860  1.0435 -2.5094  0.3296
 4306SOL    MW416998   0.915   5.305   5.926  0.0918 -0.0578  0.1037
 4307SOL     OW16999   0.979   5.521   4.491  0.2105  0.3533  0.2358
 4307SOL    HW217000   1.046   5.529   4.559  0.0637  0.0227  0.4244
 4307SOL    HW317001   0.904   5.571   4.526 -0.2366 -0.6765  0.8066
 4307SOL    MW417002   0.978   5.529   4.505  0.1322  0.1738  0.3360
 4308SOL     OW17003   2.789   2.268   1.299 -0.1086  0.8213  0.5082
 4308SOL    HW217004   2.800   2.318   1.379  2.0036  0.6058  0.4116
 4308SOL    HW317005   2.853   2.197   1.305 -0.7846  0.0435 -0.8024
 4308SOL    MW417006   2.799   2.265   1.310  0.0809  0.6903  0.3225
 4309SOL     OW17007   2.417   0.611   0.127 -0.1969  0.0730 -0.3081
 4309SOL    HW217008   2.438   0.700   0.157 -0.5764 -0.2567  0.9979
 4309SOL    HW317009   2.332   0.619   0.086  0.6361  0.6666 -2.0159
 4309SOL    MW417010   2.409   0.624   0.126 -0.1371  0.1078 -0.3611
 4310SOL     OW17011   1.601   1.665   4.320  0.3997  0.4627  0.9769
 4310SOL    HW217012   1.640   1.743   4.361  1.3026  0.7600 -0.3731
 4310SOL    HW317013   1.508   1.672   4.340  0.6182  1.3106  1.7945
 4310SOL    MW417014   1.594   1.677   4.328  0.5476  0.6138  0.9066
 4311SOL     OW17015   3.748   5.715   4.013  0.1708 -0.4770 -0.4224
 4311SOL    HW217016   3.688   5.769   4.065 -0.0309 -0.6780 -0.4453
 4311SOL    HW317017   3.731   5.740   3.922  0.3236 -0.3294 -0.4109
 4311SOL    MW417018   3.738   5.725   4.008  0.1644 -0.4840 -0.4239
 4312SOL     OW17019   4.945   2.772   4.131 -0.2723  0.0479 -0.3450
 4312SOL    HW217020   5.003   2.844   4.104 -1.5267  0.4638 -2.1554
 4312SOL    HW317021   4.861   2.793   4.090 -0.1585 -3.5241 -2.8804
 4312SOL    MW417022   4.941   2.785   4.122 -0.4228 -0.3685 -0.9184
 4313SOL     OW17023   6.063   4.418   5.260  0.0113 -0.1922  0.5789
 4313SOL    HW217024   5.974   4.394   5.237  0.5699 -2.1066  0.2112
 4313SOL    HW317025   6.064   4.514   5.257 -1.4524 -0.1653 -1.6232
 4313SOL    MW417026   6.052   4.428   5.256 -0.1081 -0.4412  0.2399
 4314SOL     OW17027   5.343   5.265   0.500 -0.1591  1.0620  0.1758
 4314SOL    HW217028   5.438   5.268   0.496 -0.2032  2.9834 -0.3251
 4314SOL    HW317029   5.323   5.272   0.593  0.1804  1.0372  0.2521
 4314SOL    MW417030   5.353   5.267   0.512 -0.1202  1.3122  0.1198
 4315SOL     OW17031   4.090   3.293   1.531 -0.0205 -0.2802 -0.1256
 4315SOL    HW217032   4.163   3.234   1.547 -0.4582 -0.9530 -0.5337
 4315SOL    HW317033   4.122   3.354   1.464  0.3630 -0.1784  0.1486
 4315SOL    MW417034   4.104   3.293   1.524 -0.0277 -0.3555 -0.1432
 4316SOL     OW17035   2.328   5.557   2.514  0.5140 -0.4006 -0.0115
 4316SOL    HW217036   2.397   5.495   2.491  1.1811  0.7224 -1.2303
 4316SOL    HW317037   2.251   5.503   2.529  1.0780 -1.5342 -1.0028
 4316SOL    MW417038   2.327   5.542   2.513  0.6764 -0.4020 -0.3031
 4317SOL     OW17039   0.155   2.727   2.993 -0.1097  0.1656  0.5783
 4317SOL    HW217040   0.159   2.679   3.076  0.1054  1.3699  1.2815
 4317SOL    HW317041   0.168   2.818   3.017  0.0071  0.5325 -0.7985
 4317SOL    MW417042   0.157   2.732   3.008 -0.0659  0.3729  0.4894
 4318SOL     OW17043   1.606   0.542   5.011 -0.9477 -0.1253 -0.1639
 4318SOL    HW217044   1.658   0.614   4.974 -1.0085 -0.9337 -1.9453
 4318SOL    HW317045   1.605   0.559   5.105  0.4279  1.2892 -0.3589
 4318SOL    MW417046   1.613   0.554   5.018 -0.7742 -0.0454 -0.4246
 4319SOL     OW17047   2.709   5.642   1.729 -0.2184  0.0761 -0.3545
 4319SOL    HW217048   2.710   5.674   1.639 -0.9311  3.4884  0.7260
 4319SOL    HW317049   2.784   5.685   1.771  0.4200 -1.8648  0.6142
 4319SOL    MW417050   2.719   5.652   1.723 -0.2282  0.2702 -0.0842
 4320SOL     OW17051   3.379   0.649   4.570  0.3685 -0.6337 -0.1259
 4320SOL    HW217052   3.432   0.727   4.580 -0.1414 -0.2542 -0.3520
 4320SOL    HW317053   3.313   0.672   4.505  0.3472 -1.3223 -0.3592
 4320SOL    MW417054   3.377   0.662   4.563  0.2984 -0.6745 -0.1865
 4321SOL     OW17055   1.942   0.298   3.386  0.3084 -0.6014 -0.2145
 4321SOL    HW217056   1.873   0.300   3.320 -0.8230 -0.5629  0.9513
 4321SOL    HW317057   1.959   0.205   3.400 -0.3599 -0.6423  0.3620
 4321SOL    MW417058   1.935   0.286   3.379  0.0709 -0.6017  0.0154
 4322SOL     OW17059   2.940   1.504   1.791  0.2093 -1.0337  0.0340
 4322SOL    HW217060   3.022   1.456   1.780 -0.1590 -1.4108 -1.2580
 4322SOL    HW317061   2.964   1.596   1.783  0.6153 -1.1037  0.4332
 4322SOL    MW417062   2.954   1.509   1.789  0.2142 -1.0927 -0.0838
 4323SOL     OW17063   5.030   6.301   5.876 -0.4713 -0.2864  0.0126
 4323SOL    HW217064   5.021   6.227   5.816 -1.7898 -0.9585  0.9909
 4323SOL    HW317065   5.032   6.260   5.963 -0.4889  0.7877  0.5305
 4323SOL    MW417066   5.029   6.286   5.880 -0.6476 -0.2334  0.2100
 4324SOL     OW17067   5.013   0.033   5.522 -0.2117  0.4306  0.0960
 4324SOL    HW217068   4.961  -0.042   5.493  1.3900 -0.7524  0.1248
 4324SOL    HW317069   4.968   0.066   5.600 -1.7115  0.4066 -0.7177
 4324SOL    MW417070   5.000   0.027   5.528 -0.1982  0.2713 -0.0075
 4325SOL     OW17071   1.907   5.730   3.629  0.1637  0.0833  0.2801
 4325SOL    HW217072   1.838   5.687   3.579 -0.3080  2.4183 -1.1900
 4325SOL    HW317073   1.861   5.793   3.685  1.0725  2.3973 -1.4522
 4325SOL    MW417074   1.892   5.732   3.630  0.2214  0.6967 -0.1424
 4326SOL     OW17075   1.576   2.366   2.365 -0.4993  0.5037 -0.4227
 4326SOL    HW217076   1.584   2.457   2.336 -0.3807  0.4539 -0.5488
 4326SOL    HW317077   1.608   2.367   2.455 -0.3046  0.5517 -0.4900
 4326SOL    MW417078   1.582   2.378   2.373 -0.4580  0.5035 -0.4482
 4327SOL     OW17079   2.458   5.747   4.512  0.1655  0.5355  0.6392
 4327SOL    HW217080   2.459   5.825   4.567 -0.9636  0.2238  1.1299
 4327SOL    HW317081   2.426   5.677   4.570 -2.5633  0.5089 -0.7408
 4327SOL    MW417082   2.454   5.748   4.527 -0.3435  0.4909  0.5218
 4328SOL     OW17083   0.550   0.100   2.718  0.3431  0.2279 -0.0079
 4328SOL    HW217084   0.635   0.056   2.722  0.8146  1.0130 -1.0456
 4328SOL    HW317085   0.570   0.190   2.694 -0.9045 -0.0339 -2.2485
 4328SOL    MW417086   0.563   0.106   2.716  0.2407  0.2969 -0.4404
 4329SOL     OW17087   1.012   2.560   1.607 -0.1244  0.3108  0.3531
 4329SOL    HW217088   0.920   2.566   1.582 -0.0108  0.9949  0.0982
 4329SOL    HW317089   1.053   2.639   1.571  0.7897 -0.5229 -0.5261
 4329SOL    MW417090   1.005   2.571   1.599  0.0112  0.2910  0.2035
 4330SOL     OW17091   5.188   2.969   4.429  0.1118 -0.3469 -0.1716
 4330SOL    HW217092   5.163   2.878   4.416  0.2130 -0.3275 -0.5038
 4330SOL    HW317093   5.120   3.005   4.486  0.2319 -0.7076  0.2002
 4330SOL    MW417094   5.175   2.962   4.435  0.1410 -0.3919 -0.1663
 4331SOL     OW17095   5.974   4.426   0.092 -0.3873  0.1062 -0.4868
 4331SOL    HW217096   6.038   4.492   0.066  0.3657 -0.5604 -0.3754
 4331SOL    HW317097   6.019   4.373   0.158 -1.6892  0.7526  1.0007
 4331SOL    MW417098   5.988   4.428   0.097 -0.4597  0.1035 -0.2759
 4332SOL     OW17099   3.794   3.406   6.415 -0.5961  0.2266  0.1248
 4332SOL    HW217100   3.773   3.331   6.471 -1.8874  0.0351 -0.5829
 4332SOL    HW317101   3.876   3.382   6.372  0.1244  0.1387  1.4870
 4332SOL    MW417102   3.802   3.393   6.417 -0.6714  0.1898  0.2112
 4333SOL     OW17103   1.557   2.327   6.165  0.3396  0.2458 -0.1040
 4333SOL    HW217104   1.563   2.406   6.218  0.2052 -0.1447  0.5044
 4333SOL    HW317105   1.464   2.320   6.143  0.1754 -0.2703  0.6853
 4333SOL    MW417106   1.545   2.337   6.169  0.3002  0.1262  0.0804
 4334SOL     OW17107   6.179   2.138   4.504  0.8375 -0.3622 -0.1314
 4334SOL    HW217108   6.238   2.201   4.462 -1.2186  0.4290 -2.0403
 4334SOL    HW317109   6.156   2.178   4.588  1.1826  0.4432 -0.4106
 4334SOL    MW417110   6.184   2.152   4.510  0.6117 -0.1516 -0.4201
 4335SOL     OW17111   6.184   1.372   1.050 -0.2205 -0.3047  0.4765
 4335SOL    HW217112   6.218   1.392   1.138  0.8427  0.7854 -0.1494
 4335SOL    HW317113   6.221   1.287   1.029 -1.5814 -1.2349  1.5944
 4335SOL    MW417114   6.193   1.363   1.059 -0.2598 -0.2836  0.5414
 4336SOL     OW17115   0.222   0.272   0.071  0.0306  0.1768 -0.1040
 4336SOL    HW217116   0.201   0.193   0.021  1.3566 -0.2222 -0.0610
 4336SOL    HW317117   0.151   0.279   0.135 -0.9485 -0.0771 -1.1234
 4336SOL    MW417118   0.210   0.263   0.073  0.0764  0.0906 -0.2329
 4337SOL     OW17119   3.611   0.135   5.494 -0.7885  0.1159  0.0924
 4337SOL    HW217120   3.655   0.057   5.459  0.1505 -0.2231  1.8832
 4337SOL    HW317121   3.625   0.203   5.429 -0.1740 -0.7848 -0.7368
 4337SOL    MW417122   3.618   0.133   5.481 -0.5835 -0.0476  0.2192
 4338SOL     OW17123   2.118   2.323   0.219 -0.0899 -0.0617 -0.2316
 4338SOL    HW217124   2.175   2.315   0.296 -2.0853 -0.7663  1.2494
 4338SOL    HW317125   2.069   2.404   0.234 -1.1861 -0.6983 -0.2406
 4338SOL    MW417126   2.119   2.333   0.231 -0.4978 -0.2386 -0.0374
 4339SOL     OW17127   5.209   5.520   4.119  0.0253  0.2857  0.2929
 4339SOL    HW217128   5.292   5.553   4.084  0.4107  0.1834  1.0754
 4339SOL    HW317129   5.195   5.570   4.199 -0.0456 -0.5301  0.8062
 4339SOL    MW417130   5.219   5.531   4.125  0.0668  0.1646  0.4638
 4340SOL     OW17131   4.252   0.228   5.958 -0.4308  0.5379  0.0131
 4340SOL    HW217132   4.180   0.291   5.968 -0.0006  0.9726  0.3792
 4340SOL    HW317133   4.331   0.281   5.964 -0.0702  0.0056 -0.0257
 4340SOL    MW417134   4.253   0.243   5.960 -0.3265  0.5251  0.0563
 4341SOL     OW17135   5.480   5.847   1.603 -0.5339 -0.3585 -0.2728
 4341SOL    HW217136   5.432   5.773   1.641 -0.5018 -0.1218  0.2272
 4341SOL    HW317137   5.515   5.812   1.520  1.1923 -1.5429  0.8830
 4341SOL    MW417138   5.479   5.832   1.597 -0.3019 -0.4835 -0.0544
 4342SOL     OW17139   2.417   0.882   3.945  0.2841 -0.3035 -0.9619
 4342SOL    HW217140   2.388   0.934   3.871 -0.2264 -0.4167 -0.8461
 4342SOL    HW317141   2.366   0.801   3.939  1.4492 -1.0408 -1.4550
 4342SOL    MW417142   2.407   0.878   3.935  0.3705 -0.4157 -1.0117
 4343SOL     OW17143   5.589   0.626   0.063  0.3840 -0.4343  0.2145
 4343SOL    HW217144   5.557   0.537   0.048 -1.6994  0.4128 -0.8236
 4343SOL    HW317145   5.681   0.623   0.036  0.4374 -2.3202  0.4777
 4343SOL    MW417146   5.597   0.614   0.057  0.1162 -0.5714  0.1122
 4344SOL     OW17147   0.742   4.589   0.035 -0.0668 -0.3167  0.4599
 4344SOL    HW217148   0.713   4.680   0.035 -0.3043 -0.3892  0.0693
 4344SOL    HW317149   0.667   4.540   0.003  0.2200 -0.5983  0.2095
 4344SOL    MW417150   0.728   4.595   0.031 -0.0603 -0.3634  0.3753
 4345SOL     OW17151   1.959   3.377   2.452 -0.5578  0.5483  0.0559
 4345SOL    HW217152   1.976   3.329   2.533  0.7137  0.1429 -0.4185
 4345SOL    HW317153   1.896   3.322   2.405 -0.2577  0.0842  0.1831
 4345SOL    MW417154   1.953   3.363   2.456 -0.3505  0.4336  0.0101
 4346SOL     OW17155   4.571   0.411   0.649 -0.0771  0.1166 -0.3342
 4346SOL    HW217156   4.517   0.380   0.576 -1.3462  1.1531  0.1281
 4346SOL    HW317157   4.594   0.501   0.626  0.7222 -0.0184 -0.1034
 4346SOL    MW417158   4.567   0.419   0.637 -0.1391  0.2355 -0.2428
 4347SOL     OW17159   5.707   3.272   4.317  0.0759 -0.2570 -0.3304
 4347SOL    HW217160   5.784   3.220   4.292  0.3545  0.2856 -0.6081
 4347SOL    HW317161   5.639   3.206   4.332  0.9353 -0.8334  1.2151
 4347SOL    MW417162   5.708   3.256   4.315  0.2260 -0.2615 -0.1632
 4348SOL     OW17163   3.521   0.533   6.274  0.0358 -0.4434  0.3148
 4348SOL    HW217164   3.473   0.599   6.325  1.4667  1.5570 -0.7568
 4348SOL    HW317165   3.470   0.453   6.283 -1.3057  0.5592  2.4718
 4348SOL    MW417166   3.508   0.531   6.282  0.0476 -0.0472  0.4580
 4349SOL     OW17167   0.365   2.525   5.422  0.0808 -0.0568  0.1710
 4349SOL    HW217168   0.313   2.475   5.485  1.3827 -0.7318  0.7577
 4349SOL    HW317169   0.398   2.599   5.473 -0.8905  0.7990 -0.3972
 4349SOL    MW417170   0.363   2.528   5.437  0.1244 -0.0330  0.1734
 4350SOL     OW17171   1.481   2.987   4.970  0.0203  0.2534  0.0001
 4350SOL    HW217172   1.425   2.962   5.044 -3.0759  1.9748 -1.5335
 4350SOL    HW317173   1.526   3.065   5.001  0.6734 -0.4337  0.8486
 4350SOL    MW417174   1.479   2.994   4.984 -0.3021  0.3899 -0.0903
 4351SOL     OW17175   4.406   2.928   3.632 -0.1603 -1.1120  0.3899
 4351SOL    HW217176   4.451   2.966   3.556 -0.8271 -0.5070  0.2804
 4351SOL    HW317177   4.465   2.944   3.705 -0.0916 -0.5188  0.2133
 4351SOL    MW417178   4.420   2.935   3.631 -0.2392 -0.9539  0.3521
 4352SOL     OW17179   4.047   4.910   2.344 -0.3026  0.2454 -0.0799
 4352SOL    HW217180   3.960   4.882   2.372  0.5233 -0.2156  2.2553
 4352SOL    HW317181   4.047   4.896   2.249 -1.9815 -2.0316  0.1539
 4352SOL    MW417182   4.036   4.904   2.335 -0.4151 -0.1159  0.2591
 4353SOL     OW17183   4.756   0.340   5.312 -0.6375 -0.5802 -0.0720
 4353SOL    HW217184   4.849   0.348   5.330 -0.8989  0.9760  0.7246
 4353SOL    HW317185   4.719   0.425   5.335 -2.0533 -0.7031 -1.6927
 4353SOL    MW417186   4.763   0.352   5.317 -0.8588 -0.3911 -0.1807
 4354SOL     OW17187   0.118   2.607   0.963  0.2227  0.2142 -0.1466
 4354SOL    HW217188   0.157   2.606   1.050 -2.9818  0.0646  1.4054
 4354SOL    HW317189   0.141   2.521   0.926  1.2650  0.1141  0.6846
 4354SOL    MW417190   0.126   2.596   0.970 -0.0626  0.1813  0.1678
 4355SOL     OW17191   0.175   4.251   1.826 -0.4620 -0.0349 -0.3460
 4355SOL    HW217192   0.208   4.161   1.820  1.6077  0.5430  1.1187
 4355SOL    HW317193   0.147   4.260   1.917  2.2384  1.6204  0.4429
 4355SOL    MW417194   0.176   4.241   1.837  0.1673  0.2598 -0.0486
 4356SOL     OW17195   0.534   2.230   5.732 -0.6582  0.2908 -0.4507
 4356SOL    HW217196   0.623   2.255   5.708 -0.9336  0.4638 -1.3060
 4356SOL    HW317197   0.491   2.312   5.754 -0.3962  0.1349  0.7564
 4356SOL    MW417198   0.540   2.244   5.732 -0.6599  0.2931 -0.4043
 4357SOL     OW17199   1.296   4.104   2.034  0.0557 -0.1405  1.2545
 4357SOL    HW217200   1.282   4.017   2.070 -0.7347  0.7601  3.2619
 4357SOL    HW317201   1.366   4.142   2.087  0.0623  0.6150  0.7234
 4357SOL    MW417202   1.303   4.098   2.045 -0.0477  0.0780  1.4493
 4358SOL     OW17203   0.203   5.320   0.651  0.4194  0.2695 -0.2325
 4358SOL    HW217204   0.220   5.408   0.684 -0.5862  1.2698 -2.2020
 4358SOL    HW317205   0.107   5.312   0.654  0.3167  0.2103 -2.2831
 4358SOL    MW417206   0.192   5.331   0.656  0.2732  0.3937 -0.7629
 4359SOL     OW17207   5.442   0.069   4.695 -0.3221  0.0434 -0.3596
 4359SOL    HW217208   5.411  -0.016   4.665  2.1334 -0.5647 -1.3773
 4359SOL    HW317209   5.496   0.050   4.771 -0.8327  0.8646  0.2311
 4359SOL    MW417210   5.445   0.055   4.701 -0.0655  0.0715 -0.4160
 4360SOL     OW17211   4.741   6.134   3.627  0.3328  0.2199 -0.4147
 4360SOL    HW217212   4.696   6.159   3.708 -1.5410  1.0587 -1.6549
 4360SOL    HW317213   4.691   6.059   3.594  0.8981  0.0735 -0.9550
 4360SOL    MW417214   4.729   6.128   3.633  0.1602  0.3113 -0.6496
 4361SOL     OW17215   2.534   4.433   1.896  0.4380  0.1287 -0.4693
 4361SOL    HW217216   2.473   4.453   1.967  0.1515 -0.6326 -0.4927
 4361SOL    HW317217   2.512   4.495   1.826  0.4910  0.6478 -0.0386
 4361SOL    MW417218   2.523   4.444   1.896  0.4072  0.0968 -0.4155
 4362SOL     OW17219   2.431   2.742   6.019  0.9234  0.5377 -0.5017
 4362SOL    HW217220   2.484   2.666   5.996 -0.2741 -0.4438 -0.1303
 4362SOL    HW317221   2.486   2.793   6.078  1.8150  0.0699 -0.9128
 4362SOL    MW417222   2.445   2.738   6.023  0.8831  0.3465 -0.5070
 4363SOL     OW17223   1.902   1.373   0.373 -0.7517 -0.0983 -0.2300
 4363SOL    HW217224   1.974   1.430   0.344  0.7532 -1.2434  1.0515
 4363SOL    HW317225   1.830   1.432   0.392  1.5256  1.8774  3.5581
 4363SOL    MW417226   1.902   1.388   0.372 -0.2527  0.0113  0.4389
 4364SOL     OW17227   2.697   6.066   0.448  0.0216  0.2886  0.4579
 4364SOL    HW217228   2.737   6.106   0.370  1.1805  2.4361  2.0558
 4364SOL    HW317229   2.758   6.085   0.519 -0.8730 -1.8314  1.8872
 4364SOL    MW417230   2.710   6.074   0.447  0.0564  0.2923  0.8573
 4365SOL     OW17231   0.517   3.386   1.317 -0.1535  0.3864 -0.1820
 4365SOL    HW217232   0.462   3.370   1.240 -0.0299 -0.0607 -0.1821
 4365SOL    HW317233   0.526   3.481   1.320 -0.4539  0.4300 -0.5138
 4365SOL    MW417234   0.511   3.396   1.307 -0.1768  0.3332 -0.2258
 4366SOL     OW17235   1.638   5.155   5.876 -0.0401  0.5563  0.3810
 4366SOL    HW217236   1.588   5.204   5.810 -0.6637  1.1675  1.2843
 4366SOL    HW317237   1.599   5.180   5.959 -0.6323 -1.8141  0.8729
 4366SOL    MW417238   1.626   5.165   5.878 -0.2005  0.3242  0.5651
 4367SOL     OW17239   2.047   0.950   3.564  0.2283 -0.0655 -0.0016
 4367SOL    HW217240   2.053   0.862   3.601 -0.0909  0.4192  1.2619
 4367SOL    HW317241   1.967   0.948   3.511  1.2451 -1.0707 -1.5783
 4367SOL    MW417242   2.037   0.938   3.562  0.3203 -0.1342 -0.0429
 4368SOL     OW17243   6.301   2.541   2.376 -0.5724 -0.2835 -0.1493
 4368SOL    HW217244   6.283   2.568   2.466 -1.0621  0.5543 -0.4865
 4368SOL    HW317245   6.346   2.616   2.337 -0.5980 -0.5389 -0.6772
 4368SOL    MW417246   6.305   2.555   2.383 -0.6404 -0.2067 -0.2634
 4369SOL     OW17247   5.303   6.227   4.353 -0.3232 -0.5213 -0.3817
 4369SOL    HW217248   5.284   6.133   4.357 -1.5080 -0.2956 -0.1000
 4369SOL    HW317249   5.227   6.265   4.309  0.8361  0.1507 -1.9092
 4369SOL    MW417250   5.290   6.220   4.348 -0.3266 -0.4028 -0.5461
 4370SOL     OW17251   2.924   1.756   5.115 -0.1382 -0.6991  0.1005
 4370SOL    HW217252   2.974   1.797   5.185  1.5574 -0.5012 -1.1582
 4370SOL    HW317253   2.850   1.815   5.100 -0.3544 -0.5959  1.4824
 4370SOL    MW417254   2.920   1.769   5.122  0.0570 -0.6594  0.1167
 4371SOL     OW17255   5.861   0.102   5.845 -0.7057 -0.2140  0.0006
 4371SOL    HW217256   5.828   0.190   5.862  0.2866 -0.1080  1.6010
 4371SOL    HW317257   5.865   0.061   5.932 -0.6110 -1.6385 -0.6547
 4371SOL    MW417258   5.858   0.108   5.859 -0.5623 -0.3879  0.1253
 4372SOL     OW17259   1.003   5.995   1.355 -0.1537  0.1468 -0.0015
 4372SOL    HW217260   0.957   5.939   1.293  1.9042 -2.1941  0.4347
 4372SOL    HW317261   1.096   5.983   1.335  0.4456  2.5836  0.8763
 4372SOL    MW417262   1.009   5.986   1.344  0.1969  0.1594  0.1719
 4373SOL     OW17263   3.668   5.133   0.825 -0.0458  0.0651 -0.3979
 4373SOL    HW217264   3.685   5.175   0.909  1.4112  0.3771 -0.8281
 4373SOL    HW317265   3.623   5.052   0.849 -1.1838  0.9281  0.5558
 4373SOL    MW417266   3.664   5.128   0.840 -0.0037  0.2201 -0.3288
 4374SOL     OW17267   4.729   2.295   4.863  0.0031  0.1842 -0.1292
 4374SOL    HW217268   4.810   2.291   4.811  0.6033  0.7843  0.7357
 4374SOL    HW317269   4.728   2.384   4.898 -0.7359 -0.0127  0.3611
 4374SOL    MW417270   4.740   2.306   4.861 -0.0153  0.2374  0.0496
 4375SOL     OW17271   1.939   5.814   4.719  0.3147  0.9968  0.1747
 4375SOL    HW217272   1.936   5.783   4.629 -0.3530 -1.0958  0.8528
 4375SOL    HW317273   2.027   5.853   4.729  0.6388  0.6381 -1.1650
 4375SOL    MW417274   1.951   5.815   4.709  0.2694  0.6734  0.0874
 4376SOL     OW17275   3.451   4.849   5.102 -0.2992 -0.0713 -0.3969
 4376SOL    HW217276   3.419   4.905   5.031 -0.2780 -0.2056 -0.5131
 4376SOL    HW317277   3.546   4.845   5.089 -0.1135  1.0668  0.4782
 4376SOL    MW417278   3.459   4.856   5.091 -0.2719  0.0611 -0.2968
 4377SOL     OW17279   4.988   3.714   2.356  0.1908  0.2074  0.1920
 4377SOL    HW217280   5.056   3.650   2.337  0.4842  0.4629  0.3857
 4377SOL    HW317281   4.998   3.781   2.288 -0.1793  0.0029 -0.0697
 4377SOL    MW417282   4.998   3.715   2.344  0.1807  0.2141  0.1831
 4378SOL     OW17283   5.995   2.275   5.948  0.6636  0.0792  0.0920
 4378SOL    HW217284   5.969   2.359   5.986 -1.2406  0.0250 -1.0016
 4378SOL    HW317285   6.052   2.299   5.875 -0.5779  0.4809 -0.7598
 4378SOL    MW417286   5.999   2.289   5.944  0.2486  0.1251 -0.1647
 4379SOL     OW17287   4.240   5.927   6.235  0.0588  0.5051  0.1646
 4379SOL    HW217288   4.186   6.006   6.244  0.2428  0.4428  2.3816
 4379SOL    HW317289   4.192   5.872   6.173 -0.6190  1.9166 -0.6008
 4379SOL    MW417290   4.226   5.930   6.228 -0.0063  0.6831  0.3561
 4380SOL     OW17291   0.698   1.569   2.905 -0.4384  0.0769 -0.4236
 4380SOL    HW217292   0.786   1.585   2.939 -0.5405  0.7685 -0.4696
 4380SOL    HW317293   0.711   1.509   2.832 -0.0513 -0.1651 -0.1553
 4380SOL    MW417294   0.711   1.563   2.900 -0.4008  0.1362 -0.3942
 4381SOL     OW17295   0.392   0.620   3.672 -0.8545  0.1496  0.3746
 4381SOL    HW217296   0.437   0.537   3.659  0.3286  1.0407 -1.8392
 4381SOL    HW317297   0.307   0.608   3.629 -0.7665  0.0227  0.2347
 4381SOL    MW417298   0.386   0.608   3.665 -0.6868  0.2505  0.0641
 4382SOL     OW17299   4.202   0.575   2.709  0.5420  0.0516 -0.0910
 4382SOL    HW217300   4.252   0.649   2.744  0.0931  0.3492 -0.0693
 4382SOL    HW317301   4.154   0.541   2.785  0.9445 -0.4215 -0.0491
 4382SOL    MW417302   4.202   0.580   2.724  0.5359  0.0285 -0.0826
 4383SOL     OW17303   1.218   1.185   0.367  0.2923  0.7156 -0.1274
 4383SOL    HW217304   1.243   1.093   0.375  2.1215  0.8840 -2.6535
 4383SOL    HW317305   1.122   1.185   0.371  0.2010 -1.4697 -1.2958
 4383SOL    MW417306   1.208   1.173   0.369  0.5216  0.4495 -0.6148
 4384SOL     OW17307   3.978   6.068   0.323  0.0875 -0.2165 -0.1598
 4384SOL    HW217308   4.065   6.102   0.301 -0.4239  1.7504  0.6752
 4384SOL    HW317309   3.931   6.143   0.360 -2.6864 -0.6267 -2.4566
 4384SOL    MW417310   3.983   6.082   0.325 -0.3460 -0.0111 -0.3526
 4385SOL     OW17311   5.692   1.575   5.138 -0.0969  0.3557  0.1512
 4385SOL    HW217312   5.769   1.545   5.186 -0.2882  0.4166  0.5075
 4385SOL    HW317313   5.695   1.529   5.055  0.2494  0.2525  0.2202
 4385SOL    MW417314   5.703   1.565   5.134 -0.0764  0.3501  0.2073
 4386SOL     OW17315   0.470   0.988   1.266 -0.0610 -1.0907  0.1689
 4386SOL    HW217316   0.555   1.019   1.296  0.1012 -0.9720 -0.3896
 4386SOL    HW317317   0.491   0.916   1.206 -0.2080  0.4082 -1.7876
 4386SOL    MW417318   0.484   0.982   1.262 -0.0590 -0.8773 -0.1629
 4387SOL     OW17319   4.473   1.974   4.558 -0.6723  0.0936 -0.1071
 4387SOL    HW217320   4.479   1.951   4.651 -1.6565 -0.5990 -0.1977
 4387SOL    HW317321   4.455   2.068   4.558 -0.4826  0.1366  0.3958
 4387SOL    MW417322   4.471   1.983   4.570 -0.7771  0.0079 -0.0527
 4388SOL     OW17323   5.744   5.293   2.244 -0.1942  0.3586  0.1440
 4388SOL    HW217324   5.822   5.254   2.204  0.4172  1.2766  0.4128
 4388SOL    HW317325   5.767   5.385   2.258 -2.0356  1.1556 -1.6008
 4388SOL    MW417326   5.757   5.300   2.240 -0.3565  0.5849 -0.0507
 4389SOL     OW17327   1.009   2.231   1.530  0.0169 -0.4423  0.3653
 4389SOL    HW217328   1.054   2.311   1.504 -1.8784  1.2136  1.8555
 4389SOL    HW317329   1.019   2.227   1.625 -3.2213  0.2900  0.8515
 4389SOL    MW417330   1.016   2.241   1.539 -0.6604 -0.1272  0.6260
 4390SOL     OW17331   1.742   3.752   1.782  0.3263 -0.4523 -0.3728
 4390SOL    HW217332   1.685   3.675   1.784 -2.9487  1.7787  1.2152
 4390SOL    HW317333   1.814   3.730   1.841 -1.5141 -1.6891  1.5568
 4390SOL    MW417334   1.744   3.739   1.790 -0.3486 -0.3211  0.0913
 4391SOL     OW17335   3.191   1.091   5.446  0.5087  0.6026 -0.0200
 4391SOL    HW217336   3.154   1.016   5.399  0.0445  0.4996  0.4915
 4391SOL    HW317337   3.184   1.163   5.384 -1.3925  0.7873  0.3389
 4391SOL    MW417338   3.185   1.090   5.432  0.1966  0.6134  0.0948
 4392SOL     OW17339   3.236   1.808   2.308  0.1559  0.1028 -0.8805
 4392SOL    HW217340   3.204   1.745   2.245 -3.3662  1.0371 -0.2259
 4392SOL    HW317341   3.220   1.768   2.393  2.2300  0.0183 -0.4816
 4392SOL    MW417342   3.230   1.795   2.311 -0.0352  0.2149 -0.7415
 4393SOL     OW17343   5.519   3.014   2.358 -0.4169 -0.1330 -0.0120
 4393SOL    HW217344   5.483   3.018   2.270  1.5250  1.2536 -0.8275
 4393SOL    HW317345   5.523   3.105   2.386 -0.5806 -0.5233  1.3457
 4393SOL    MW417346   5.515   3.026   2.350 -0.1823 -0.0015  0.0595
 4394SOL     OW17347   5.593   2.915   5.342  0.3991 -0.2548 -0.3529
 4394SOL    HW217348   5.561   2.946   5.427 -0.7036 -0.0268 -0.8255
 4394SOL    HW317349   5.684   2.891   5.357  0.3530  0.2348  0.7805
 4394SOL    MW417350   5.600   2.916   5.355  0.2475 -0.1601 -0.2657
 4395SOL     OW17351   1.136   0.872   2.700  0.6801 -0.2741 -0.3756
 4395SOL    HW217352   1.174   0.954   2.730 -1.0359  0.2469  0.5277
 4395SOL    HW317353   1.055   0.897   2.656 -0.0243 -1.4673  0.1695
 4395SOL    MW417354   1.130   0.886   2.698  0.3608 -0.3628 -0.1845
 4396SOL     OW17355   1.596   1.872   2.438 -0.0007  0.1431  0.3441
 4396SOL    HW217356   1.631   1.945   2.388 -2.0091  0.8738 -0.0869
 4396SOL    HW317357   1.672   1.816   2.454  1.1860  1.1775 -1.2669
 4396SOL    MW417358   1.611   1.874   2.433 -0.1091  0.3760  0.0747
 4397SOL     OW17359   0.050   1.807   2.305  0.1930  0.3865  0.0045
 4397SOL    HW217360   0.017   1.890   2.270  0.6538  1.1003  1.1775
 4397SOL    HW317361   0.145   1.815   2.299  0.2472  0.0624  0.3844
 4397SOL    MW417362   0.058   1.819   2.300  0.2609  0.4379  0.2094
 4398SOL     OW17363   3.023   5.472   1.869  0.2026 -0.2863 -0.1700
 4398SOL    HW217364   2.978   5.515   1.942  1.9314  0.4775  0.5141
 4398SOL    HW317365   2.954   5.427   1.821 -0.7607 -2.9223  3.3035
 4398SOL    MW417366   3.008   5.472   1.872  0.3036 -0.5333  0.3786
 4399SOL     OW17367   5.767   3.047   3.863  0.3880 -0.0703 -0.2010
 4399SOL    HW217368   5.775   3.106   3.937 -0.2648  0.1095 -0.2683
 4399SOL    HW317369   5.780   3.102   3.786 -2.2716  0.4371 -0.3644
 4399SOL    MW417370   5.770   3.062   3.862 -0.0490  0.0203 -0.2314
 4400SOL     OW17371   5.454   6.184   1.278 -0.0329  0.2711 -0.2651
 4400SOL    HW217372   5.478   6.188   1.370 -0.9009 -0.7444  0.0185
 4400SOL    HW317373   5.538   6.172   1.232  0.4051  0.8072  0.3675
 4400SOL    MW417374   5.468   6.183   1.284 -0.0896  0.2079 -0.1442
 4401SOL     OW17375   2.376   4.569   1.121  0.0708  0.2479  0.4861
 4401SOL    HW217376   2.399   4.476   1.113 -0.8794  0.0965 -1.0623
 4401SOL    HW317377   2.450   4.615   1.082 -0.5088 -0.0331 -1.0373
 4401SOL    MW417378   2.389   4.563   1.115 -0.1310  0.1909  0.0808
 4402SOL     OW17379   1.506   0.258   4.387 -0.7889 -0.3330  0.1692
 4402SOL    HW217380   1.554   0.228   4.310  0.3725 -0.2849  0.8439
 4402SOL    HW317381   1.478   0.178   4.431 -0.4807 -0.3825  0.2787
 4402SOL    MW417382   1.509   0.243   4.383 -0.5950 -0.3332  0.2727
 4403SOL     OW17383   4.095   1.060   3.646  0.2512 -0.5423 -0.0384
 4403SOL    HW217384   4.070   1.032   3.735 -1.6890 -0.2093 -0.4405
 4403SOL    HW317385   4.188   1.081   3.653 -0.0195  0.1812  2.1005
 4403SOL    MW417386   4.104   1.059   3.659 -0.0405 -0.4029  0.1907
 4404SOL     OW17387   5.385   4.503   2.500  0.5783 -0.0640  0.3287
 4404SOL    HW217388   5.296   4.538   2.509  0.3047  0.2948 -2.6413
 4404SOL    HW317389   5.439   4.580   2.484  0.8945 -0.4935 -0.7849
 4404SOL    MW417390   5.380   4.518   2.499  0.5839 -0.0733 -0.2101
 4405SOL     OW17391   2.548   0.190   5.878  0.2217  0.1810  0.0485
 4405SOL    HW217392   2.623   0.206   5.821 -0.3047  1.2035 -0.3822
 4405SOL    HW317393   2.516   0.278   5.901  0.6017 -0.1723  2.1832
 4405SOL    MW417394   2.554   0.204   5.874  0.2024  0.2693  0.2733
 4406SOL     OW17395   5.272   4.020   3.997 -1.0706  0.0400  0.8110
 4406SOL    HW217396   5.253   3.927   3.984 -0.8230  0.2019 -1.0065
 4406SOL    HW317397   5.190   4.064   3.975 -0.6035  0.3393 -0.4597
 4406SOL    MW417398   5.258   4.014   3.992 -0.9763  0.1009  0.4035
 4407SOL     OW17399   1.095   5.316   4.146  0.1799 -0.1047  0.4550
 4407SOL    HW217400   1.142   5.334   4.228 -0.4278  0.0276  0.7787
 4407SOL    HW317401   1.114   5.392   4.091  1.4260 -0.6602  0.0782
 4407SOL    MW417402   1.104   5.328   4.150  0.2642 -0.1605  0.4480
 4408SOL     OW17403   3.023   5.923   4.597 -0.1999  0.2125  0.0887
 4408SOL    HW217404   3.002   5.872   4.675 -1.1714  0.7636  0.2115
 4408SOL    HW317405   2.963   5.998   4.602  1.4064  1.5456  0.1003
 4408SOL    MW417406   3.012   5.926   4.608 -0.1162  0.4611  0.1064
 4409SOL     OW17407   3.612   1.396   5.588  0.0111  0.5075  0.1518
 4409SOL    HW217408   3.546   1.371   5.653  1.4985 -0.2072  1.4831
 4409SOL    HW317409   3.579   1.361   5.505 -1.5929  0.7917  0.6297
 4409SOL    MW417410   3.599   1.388   5.586 -0.0043  0.4507  0.3905
 4410SOL     OW17411   0.966   2.432   2.075  0.1571 -0.2107 -0.0909
 4410SOL    HW217412   0.997   2.382   2.150 -0.3223  1.5073  1.3297
 4410SOL    HW317413   0.876   2.457   2.098  1.1570  3.4216  0.5593
 4410SOL    MW417414   0.958   2.429   2.088  0.2258  0.4952  0.1823
 4411SOL     OW17415   0.876   5.601   6.056  0.2109  0.1929  0.0507
 4411SOL    HW217416   0.824   5.522   6.040  0.3337 -0.2205  1.5064
 4411SOL    HW317417   0.822   5.652   6.116  0.5983  0.7302 -0.0566
 4411SOL    MW417418   0.862   5.597   6.062  0.2782  0.2092  0.2286
 4412SOL     OW17419   5.421   3.647   0.354  0.1197 -0.1658 -0.0717
 4412SOL    HW217420   5.405   3.618   0.443 -2.8270  0.2807 -0.3542
 4412SOL    HW317421   5.478   3.724   0.364  1.4820 -1.2920  1.2191
 4412SOL    MW417422   5.426   3.654   0.367 -0.0893 -0.2555  0.0613
 4413SOL     OW17423   3.470   1.332   3.694 -0.6692  0.7359  0.5017
 4413SOL    HW217424   3.505   1.245   3.673 -0.9390  0.9967 -1.1643
 4413SOL    HW317425   3.474   1.337   3.790  0.6580 -0.5611  0.5534
 4413SOL    MW417426   3.475   1.321   3.704 -0.5297  0.5992  0.2887
 4414SOL     OW17427   1.636   3.553   3.906 -0.4557  0.1129  0.2842
 4414SOL    HW217428   1.669   3.464   3.899  0.3443  0.4875 -1.5476
 4414SOL    HW317429   1.649   3.577   3.997 -1.5630 -1.9339  1.0390
 4414SOL    MW417430   1.642   3.545   3.917 -0.4962 -0.1077  0.1421
 4415SOL     OW17431   3.880   0.132   3.116  0.4019 -0.3044  0.4808
 4415SOL    HW217432   3.824   0.055   3.121  0.1247 -0.2312 -0.9788
 4415SOL    HW317433   3.937   0.126   3.193 -1.4247 -0.4966  1.8970
 4415SOL    MW417434   3.880   0.121   3.127  0.1243 -0.3201  0.4751
 4416SOL     OW17435   4.894   0.040   4.140  0.0517  0.1907  0.6167
 4416SOL    HW217436   4.944   0.051   4.059  1.1610  0.5477  1.3256
 4416SOL    HW317437   4.934  -0.037   4.182 -0.8970 -0.3460  0.5612
 4416SOL    MW417438   4.906   0.031   4.135  0.0729  0.1670  0.7029
 4417SOL     OW17439   1.815   4.741   1.945  0.4857  0.3043  0.3160
 4417SOL    HW217440   1.874   4.697   1.884 -0.4582 -0.1457 -0.2907
 4417SOL    HW317441   1.739   4.682   1.952 -1.0584  2.0361 -0.9277
 4417SOL    MW417442   1.813   4.727   1.938  0.1575  0.4734  0.0719
 4418SOL     OW17443   6.244   1.476   1.329  0.5824 -0.1467 -0.2290
 4418SOL    HW217444   6.194   1.415   1.384 -1.0992  0.7910 -0.6494
 4418SOL    HW317445   6.318   1.503   1.384  0.6529 -1.5629  0.4238
 4418SOL    MW417446   6.247   1.471   1.344  0.3698 -0.2098 -0.1984
 4419SOL     OW17447   5.502   4.111   0.255  0.3359  0.5219  0.3051
 4419SOL    HW217448   5.564   4.125   0.326  2.2618 -1.3987 -0.8762
 4419SOL    HW317449   5.506   4.191   0.204  0.8322  0.9447  0.9823
 4419SOL    MW417450   5.511   4.123   0.258  0.6555  0.3243  0.2386
 4420SOL     OW17451   2.045   2.923   4.257 -0.3978 -0.4198  0.3556
 4420SOL    HW217452   2.091   2.841   4.239  1.7191  0.8373 -0.2265
 4420SOL    HW317453   2.114   2.987   4.275 -1.9747  1.3014  0.6373
 4420SOL    MW417454   2.060   2.921   4.257 -0.3266 -0.0268  0.3160
 4421SOL     OW17455   4.357   5.160   0.129 -0.2821 -0.6989 -0.1223
 4421SOL    HW217456   4.397   5.096   0.071  0.8259 -1.6136  1.5894
 4421SOL    HW317457   4.282   5.115   0.166 -0.5135 -0.3937 -0.2148
 4421SOL    MW417458   4.352   5.146   0.126 -0.1665 -0.7793  0.0913
 4422SOL     OW17459   1.614   5.722   1.780 -0.0112  0.2881  0.3162
 4422SOL    HW217460   1.701   5.683   1.783  0.0045  0.3229  0.3059
 4422SOL    HW317461   1.592   5.740   1.872 -0.0197  0.2522  0.3213
 4422SOL    MW417462   1.623   5.719   1.793 -0.0102  0.2879  0.3155
 4423SOL     OW17463   5.482   3.694   0.050  0.0817  0.4634  0.7570
 4423SOL    HW217464   5.493   3.609   0.007  2.6384  0.8605  0.4451
 4423SOL    HW317465   5.442   3.674   0.135  0.5016 -1.0436  0.6162
 4423SOL    MW417466   5.479   3.680   0.056  0.4744  0.3169  0.6973
 4424SOL     OW17467   0.874   3.548   6.401  0.4066 -0.3257 -0.6973
 4424SOL    HW217468   0.936   3.510   6.340  0.3146 -0.9968 -0.3779
 4424SOL    HW317469   0.927   3.608   6.454  0.8873 -1.2178 -0.1380
 4424SOL    MW417470   0.889   3.551   6.400  0.4579 -0.5319 -0.5813
 4425SOL     OW17471   0.469   1.533   5.297  0.7358 -0.9058 -0.0041
 4425SOL    HW217472   0.400   1.498   5.353  1.4994  0.4220  1.8946
 4425SOL    HW317473   0.537   1.466   5.299  1.0324 -0.5962  1.2789
 4425SOL    MW417474   0.469   1.520   5.305  0.8757 -0.6898  0.4157
 4426SOL     OW17475   0.124   5.934   3.927 -0.3263 -0.0654 -1.0542
 4426SOL    HW217476   0.210   5.901   3.900 -0.4674 -0.1584 -1.4044
 4426SOL    HW317477   0.083   5.860   3.971 -0.1405  0.0493 -0.6862
 4426SOL    MW417478   0.130   5.920   3.929 -0.3204 -0.0625 -1.0518
 4427SOL     OW17479   5.791   2.236   5.369  0.1810 -0.0672  0.4463
 4427SOL    HW217480   5.761   2.181   5.442  1.0137  0.2288  1.0269
 4427SOL    HW317481   5.862   2.289   5.407  3.1163 -2.3611 -1.3583
 4427SOL    MW417482   5.797   2.235   5.384  0.6782 -0.3308  0.2848
 4428SOL     OW17483   6.209   4.314   1.670 -0.5661 -0.0591 -0.0176
 4428SOL    HW217484   6.201   4.341   1.578  0.9959 -0.3214 -0.2685
 4428SOL    HW317485   6.257   4.385   1.712 -1.4569  0.1584  0.6715
 4428SOL    MW417486   6.214   4.327   1.663 -0.4776 -0.0650  0.0402
 4429SOL     OW17487   1.796   6.182   3.395 -0.2325  0.1428  0.3754
 4429SOL    HW217488   1.733   6.220   3.456 -0.3415 -0.1352  0.4407
 4429SOL    HW317489   1.742   6.144   3.326 -0.2262 -1.4197  1.1863
 4429SOL    MW417490   1.780   6.182   3.393 -0.2461 -0.1000  0.4910
 4430SOL     OW17491   6.029   3.196   2.732  0.1504  0.2393  0.2079
 4430SOL    HW217492   6.066   3.281   2.756 -0.9546  0.5143  1.0080
 4430SOL    HW317493   6.052   3.184   2.640 -0.8444  2.0307 -0.3087
 4430SOL    MW417494   6.037   3.206   2.723 -0.1266  0.5120  0.2453
 4431SOL     OW17495   0.347   6.160   1.436 -0.1503  0.0186 -0.2010
 4431SOL    HW217496   0.277   6.218   1.406  0.8156  0.4881 -1.6217
 4431SOL    HW317497   0.346   6.087   1.374 -1.3929 -1.5877  1.5920
 4431SOL    MW417498   0.338   6.158   1.424 -0.1868 -0.1314 -0.1518
 4432SOL     OW17499   0.789   2.108   0.985  0.1775  0.2178  0.1871
 4432SOL    HW217500   0.694   2.122   0.990  0.0735 -0.5128  0.2400
 4432SOL    HW317501   0.824   2.160   1.057 -0.0560  1.5609 -0.6193
 4432SOL    MW417502   0.781   2.117   0.995  0.1329  0.2986  0.0877
 4433SOL     OW17503   3.388   5.204   1.829  0.4765  0.5211  0.4532
 4433SOL    HW217504   3.360   5.136   1.890 -0.3031 -0.0710 -0.5221
 4433SOL    HW317505   3.461   5.166   1.781  0.9801  0.9207  0.8995
 4433SOL    MW417506   3.394   5.190   1.830  0.4401  0.4957  0.3834
 4434SOL     OW17507   2.378   5.314   0.563 -0.3265  0.0482 -0.4035
 4434SOL    HW217508   2.458   5.278   0.600  0.0866  0.9426 -0.3835
 4434SOL    HW317509   2.316   5.316   0.635  0.1002  0.6920 -0.0481
 4434SOL    MW417510   2.381   5.310   0.577 -0.2157  0.2511 -0.3539
 4435SOL     OW17511   3.568   5.104   5.570 -0.1364 -0.2758  0.2665
 4435SOL    HW217512   3.628   5.033   5.593  0.4500  0.2685  0.4419
 4435SOL    HW317513   3.536   5.136   5.654  0.5562  0.4759  0.2550
 4435SOL    MW417514   3.571   5.099   5.584  0.0324 -0.1048  0.2881
 4436SOL     OW17515   5.878   3.670   0.273 -0.6936  0.0411 -0.6606
 4436SOL    HW217516   5.807   3.732   0.256  0.4984  2.0714  1.1821
 4436SOL    HW317517   5.869   3.647   0.365  0.2555 -0.7263 -0.7415
 4436SOL    MW417518   5.867   3.675   0.283 -0.4111  0.2077 -0.4281
 4437SOL     OW17519   4.567   1.010   2.344 -0.5840  0.7697  0.0465
 4437SOL    HW217520   4.493   1.011   2.283  0.4794 -1.4192 -1.4180
 4437SOL    HW317521   4.616   0.931   2.321  1.5850  1.5204  1.7326
 4437SOL    MW417522   4.563   1.000   2.333 -0.1575  0.5800  0.0757
 4438SOL     OW17523   4.162   2.611   6.238  0.3052 -0.0412 -0.2157
 4438SOL    HW217524   4.134   2.672   6.306 -1.1586 -1.3438  0.3985
 4438SOL    HW317525   4.138   2.655   6.156 -0.8468  0.1925  0.2192
 4438SOL    MW417526   4.155   2.625   6.236 -0.0399 -0.1823 -0.0773
 4439SOL     OW17527   2.385   1.626   6.216  0.1779 -0.3323 -0.0317
 4439SOL    HW217528   2.351   1.553   6.268 -0.6471 -0.4672 -0.7406
 4439SOL    HW317529   2.424   1.685   6.281  2.5846 -2.2412  0.3913
 4439SOL    MW417530   2.385   1.624   6.232  0.3865 -0.6019 -0.0694
 4440SOL     OW17531   5.661   1.964   4.837  0.1226 -0.5626  0.1799
 4440SOL    HW217532   5.632   1.892   4.782 -0.6276 -0.6817  0.7150
 4440SOL    HW317533   5.757   1.958   4.837  0.2420  0.2046 -2.1252
 4440SOL    MW417534   5.670   1.954   4.830  0.0394 -0.4771 -0.0536
 4441SOL     OW17535   5.388   2.811   2.938  0.0486  0.4978 -0.1797
 4441SOL    HW217536   5.410   2.900   2.967 -1.7825  1.3993 -1.3153
 4441SOL    HW317537   5.299   2.797   2.970 -0.6643  0.1318 -2.1875
 4441SOL    MW417538   5.379   2.821   2.946 -0.2871  0.5684 -0.5945
 4442SOL     OW17539   1.774   4.131   3.940 -0.4148 -0.3836 -0.4828
 4442SOL    HW217540   1.838   4.061   3.952 -1.5955 -1.9005 -2.4167
 4442SOL    HW317541   1.726   4.106   3.861 -2.1784  1.6365 -0.1356
 4442SOL    MW417542   1.776   4.118   3.931 -0.8033 -0.3172 -0.6922
 4443SOL     OW17543   3.460   2.851   5.704 -0.1384 -0.5071  0.1241
 4443SOL    HW217544   3.456   2.900   5.786 -0.0545  2.0274 -1.2962
 4443SOL    HW317545   3.378   2.802   5.702  0.9179 -2.6515  2.8228
 4443SOL    MW417546   3.449   2.851   5.715  0.0120 -0.4556  0.2927
 4444SOL     OW17547   2.967   2.808   3.062 -0.0221  0.2104 -0.0719
 4444SOL    HW217548   2.874   2.827   3.079  0.1035  0.6335  0.1685
 4444SOL    HW317549   3.014   2.865   3.123  0.4167  0.7182 -0.8707
 4444SOL    MW417550   2.961   2.818   3.073  0.0524  0.3332 -0.1456
 4445SOL     OW17551   0.641   5.880   4.121  0.4237 -0.4215  0.5261
 4445SOL    HW217552   0.678   5.941   4.056  1.0542  1.3172  2.4074
 4445SOL    HW317553   0.548   5.875   4.098  0.4844  0.7585 -0.0711
 4445SOL    MW417554   0.633   5.888   4.109  0.5149 -0.0364  0.6956
 4446SOL     OW17555   4.826   4.114   2.299  0.3513 -0.3592 -0.6081
 4446SOL    HW217556   4.844   4.189   2.355 -0.2726 -1.5416  1.2507
 4446SOL    HW317557   4.732   4.120   2.281 -0.3832 -2.2644  2.0758
 4446SOL    MW417558   4.816   4.124   2.304  0.1720 -0.7666 -0.0087
 4447SOL     OW17559   0.026   2.131   6.423  0.1047  0.6161  0.2202
 4447SOL    HW217560  -0.058   2.162   6.456  0.8666  3.1432 -0.0112
 4447SOL    HW317561   0.007   2.045   6.386 -2.5764  1.4802 -0.6242
 4447SOL    MW417562   0.012   2.124   6.422 -0.1485  1.0635  0.0783
 4448SOL     OW17563   4.788   5.195   5.494 -0.4269  0.1451 -0.0076
 4448SOL    HW217564   4.771   5.236   5.409 -1.9080 -1.4025 -0.5214
 4448SOL    HW317565   4.724   5.123   5.499  0.8852 -0.9826  1.5974
 4448SOL    MW417566   4.777   5.191   5.484 -0.4492 -0.2079  0.1364
 4449SOL     OW17567   3.862   4.253   3.500 -0.0242  0.2359 -0.3268
 4449SOL    HW217568   3.830   4.166   3.527  1.3606 -0.2980 -0.3180
 4449SOL    HW317569   3.951   4.236   3.468  1.3848  2.0293  2.2804
 4449SOL    MW417570   3.870   4.239   3.500  0.3444  0.4021  0.0183
 4450SOL     OW17571   4.982   4.216   3.330 -0.4649  0.0451  0.0040
 4450SOL    HW217572   5.012   4.295   3.285  1.5920  0.0986  1.3364
 4450SOL    HW317573   4.978   4.149   3.262 -0.9993  0.9833 -0.9019
 4450SOL    MW417574   4.986   4.218   3.315 -0.2640  0.1759  0.0603
 4451SOL     OW17575   4.661   1.944   1.030  0.6719 -0.2858  0.4592
 4451SOL    HW217576   4.736   1.890   1.055  0.5573 -1.0857 -0.8745
 4451SOL    HW317577   4.628   1.905   0.949  0.8523  2.0367 -0.8250
 4451SOL    MW417578   4.666   1.932   1.023  0.6806 -0.0849  0.1138
 4452SOL     OW17579   2.255   0.178   6.143  0.3326  0.6535  0.0558
 4452SOL    HW217580   2.344   0.190   6.177  0.6023  0.2369 -0.4984
 4452SOL    HW317581   2.266   0.129   6.062 -0.3187  1.5212 -0.5793
 4452SOL    MW417582   2.268   0.173   6.137  0.2823  0.7130 -0.1011
 4453SOL     OW17583   1.972   2.948   2.356  0.2236 -0.1700 -0.2002
 4453SOL    HW217584   1.925   2.900   2.288  2.3504 -1.5579 -0.7837
 4453SOL    HW317585   1.934   2.917   2.438 -0.5331 -0.4979 -0.6597
 4453SOL    MW417586   1.960   2.937   2.358  0.4043 -0.3964 -0.3378
 4454SOL     OW17587   1.885   0.743   3.308 -0.4574 -0.0393  0.4510
 4454SOL    HW217588   1.861   0.826   3.350 -0.7420 -0.5068  1.2421
 4454SOL    HW317589   1.951   0.705   3.367  1.4092  0.6705 -1.0605
 4454SOL    MW417590   1.891   0.749   3.322 -0.2487 -0.0073  0.3560
 4455SOL     OW17591   1.514   0.302   5.853 -0.2470  0.1103 -0.6063
 4455SOL    HW217592   1.472   0.226   5.892 -2.7261  1.6975  0.0402
 4455SOL    HW317593   1.531   0.277   5.762 -0.1448 -1.4863 -0.1662
 4455SOL    MW417594   1.511   0.289   5.846 -0.5606  0.1090 -0.4629
 4456SOL     OW17595   4.574   3.164   2.812 -0.3342 -0.0685  0.0678
 4456SOL    HW217596   4.509   3.137   2.747 -0.3439  1.5217 -0.6271
 4456SOL    HW317597   4.658   3.146   2.770 -0.3272  1.8318 -0.8465
 4456SOL    MW417598   4.576   3.158   2.798 -0.3346  0.3920 -0.1445
 4457SOL     OW17599   4.465   4.756   5.542  0.2038  0.1656 -0.0045
 4457SOL    HW217600   4.506   4.837   5.572 -0.9966  0.8865 -0.2619
 4457SOL    HW317601   4.492   4.748   5.451  0.4752  0.1715  0.0733
 4457SOL    MW417602   4.474   4.766   5.534  0.0812  0.2615 -0.0282
 4458SOL     OW17603   4.561   3.000   6.298  0.2315 -0.2859  0.9507
 4458SOL    HW217604   4.648   3.000   6.338  0.9393 -1.0137 -0.5111
 4458SOL    HW317605   4.553   3.087   6.258  1.5298 -1.1454 -1.3685
 4458SOL    MW417606   4.571   3.011   6.298  0.4962 -0.4953  0.4519
 4459SOL     OW17607   3.420   2.123   0.317  0.2795  0.0739  0.1829
 4459SOL    HW217608   3.489   2.079   0.367  0.1752  0.1234  0.3714
 4459SOL    HW317609   3.466   2.169   0.247  0.7022  2.0926  1.6926
 4459SOL    MW417610   3.435   2.123   0.315  0.3215  0.3467  0.4070
 4460SOL     OW17611   0.861   0.577   0.273 -0.5737 -0.2149  0.9384
 4460SOL    HW217612   0.792   0.556   0.336 -0.6159  0.3457  1.0849
 4460SOL    HW317613   0.848   0.515   0.201 -2.0752  0.7140  0.3499
 4460SOL    MW417614   0.850   0.566   0.272 -0.7774 -0.0184  0.8801
 4461SOL     OW17615   5.176   6.215   1.603 -0.0421 -0.3419  0.7528
 4461SOL    HW217616   5.154   6.146   1.666  1.8811 -0.8120  0.9667
 4461SOL    HW317617   5.267   6.199   1.581 -0.3919  0.3927 -1.4516
 4461SOL    MW417618   5.185   6.204   1.609  0.1654 -0.3070  0.4902
 4462SOL     OW17619   1.397   5.913   3.058 -0.3326 -0.0405 -0.3712
 4462SOL    HW217620   1.415   5.852   3.129  1.7576 -0.0758 -0.8705
 4462SOL    HW317621   1.316   5.957   3.084 -0.4359 -1.1245  1.2767
 4462SOL    MW417622   1.389   5.911   3.071 -0.0705 -0.1882 -0.2197
 4463SOL     OW17623   5.394   6.216   4.002 -0.0888  0.3379  0.1742
 4463SOL    HW217624   5.408   6.310   4.013  0.3320  0.4798 -1.3306
 4463SOL    HW317625   5.404   6.201   3.908 -1.8193 -0.9329  0.1256
 4463SOL    MW417626   5.397   6.226   3.991 -0.2616  0.1889 -0.0308
 4464SOL     OW17627   4.718   3.396   6.187 -0.3498 -0.3102 -0.2516
 4464SOL    HW217628   4.637   3.404   6.238  0.4235 -0.2286  0.9918
 4464SOL    HW317629   4.703   3.452   6.110 -1.6243 -0.6236 -0.2633
 4464SOL    MW417630   4.705   3.405   6.183 -0.4159 -0.3408 -0.0891
 4465SOL     OW17631   3.818   5.222   3.774 -0.3187 -0.1333 -0.1707
 4465SOL    HW217632   3.818   5.278   3.696  1.6698  1.4434  0.8721
 4465SOL    HW317633   3.808   5.283   3.847  0.3538 -1.3124  0.9348
 4465SOL    MW417634   3.817   5.238   3.773  0.0324 -0.0809  0.1127
 4466SOL     OW17635   0.607   3.252   3.022  0.5045 -0.0443 -0.2304
 4466SOL    HW217636   0.597   3.342   2.991 -2.7315 -0.8994 -2.1182
 4466SOL    HW317637   0.556   3.248   3.102  2.9124  0.3634  1.4249
 4466SOL    MW417638   0.599   3.263   3.028  0.3953 -0.1034 -0.2611
 4467SOL     OW17639   6.266   2.334   0.335 -0.1520  0.2680 -0.0566
 4467SOL    HW217640   6.327   2.396   0.293  0.7612 -0.9187 -0.5528
 4467SOL    HW317641   6.323   2.272   0.380 -1.0427 -0.3519  0.2330
 4467SOL    MW417642   6.282   2.334   0.335 -0.1491  0.0296 -0.0838
 4468SOL     OW17643   4.698   1.348   1.354  0.0729 -0.1323 -0.1021
 4468SOL    HW217644   4.653   1.428   1.326  0.8987 -0.4989 -2.7064
 4468SOL    HW317645   4.633   1.278   1.343 -0.1784 -0.0616  0.7807
 4468SOL    MW417646   4.683   1.349   1.349  0.1487 -0.1713 -0.3292
 4469SOL     OW17647   3.647   6.293   6.212  1.2185  0.3263 -0.5549
 4469SOL    HW217648   3.628   6.368   6.155 -1.1491 -0.1093 -0.4204
 4469SOL    HW317649   3.685   6.332   6.291  0.4905  1.3376 -0.6844
 4469SOL    MW417650   3.650   6.308   6.215  0.8101  0.4023 -0.5542
 4470SOL     OW17651   0.213   1.441   3.206  0.2493 -0.0179  0.4611
 4470SOL    HW217652   0.198   1.368   3.146 -0.6640  0.6397 -0.1527
 4470SOL    HW317653   0.291   1.485   3.172  0.0968 -0.0121  0.1133
 4470SOL    MW417654   0.221   1.437   3.194  0.1087  0.0696  0.3342
 4471SOL     OW17655   1.161   4.064   5.710 -0.0765  0.0626  0.1267
 4471SOL    HW217656   1.079   4.097   5.674  0.1598  1.6892  0.9750
 4471SOL    HW317657   1.134   4.007   5.782 -0.4796 -1.3686 -1.1011
 4471SOL    MW417658   1.147   4.061   5.715 -0.0985  0.0884  0.0766
 4472SOL     OW17659   2.837   1.830   2.074 -0.3816  0.7730 -0.4842
 4472SOL    HW217660   2.795   1.757   2.030  1.4524 -0.6654  0.0363
 4472SOL    HW317661   2.769   1.866   2.131 -0.9020 -1.5977  0.4870
 4472SOL    MW417662   2.822   1.825   2.076 -0.2083  0.2705 -0.2874
 4473SOL     OW17663   5.909   5.145   2.821  0.1016 -0.3096  0.2412
 4473SOL    HW217664   5.952   5.152   2.906  0.9051  1.1997 -0.2564
 4473SOL    HW317665   5.935   5.224   2.773 -1.5274 -0.3739 -0.8760
 4473SOL    MW417666   5.918   5.156   2.826 -0.0073 -0.1190  0.0281
 4474SOL     OW17667   1.156   3.193   1.031  0.2432 -0.4474 -0.0782
 4474SOL    HW217668   1.171   3.258   1.100 -0.3524 -1.3076  0.8780
 4474SOL    HW317669   1.119   3.117   1.076  2.0589 -1.9484 -0.9696
 4474SOL    MW417670   1.153   3.192   1.046  0.4042 -0.7589 -0.0696
 4475SOL     OW17671   4.800   0.892   5.060  0.4892 -0.5440  0.4669
 4475SOL    HW217672   4.725   0.943   5.090 -0.1860 -2.1092  1.5939
 4475SOL    HW317673   4.780   0.871   4.968  1.0914  1.6769 -0.2247
 4475SOL    MW417674   4.787   0.896   5.052  0.4796 -0.4575  0.5243
 4476SOL     OW17675   3.106   1.924   4.184 -0.0095  1.4180  0.5595
 4476SOL    HW217676   3.169   1.880   4.127 -1.1946 -0.4294  0.6000
 4476SOL    HW317677   3.040   1.858   4.203 -2.1092  3.3192  0.3515
 4476SOL    MW417678   3.105   1.910   4.179 -0.4429  1.4251  0.5374
 4477SOL     OW17679   1.042   0.540   5.264 -0.2262  0.4222  0.3807
 4477SOL    HW217680   0.967   0.481   5.254 -1.3806  1.8467  0.1804
 4477SOL    HW317681   1.118   0.485   5.250 -1.2790 -0.8679 -0.5715
 4477SOL    MW417682   1.042   0.525   5.261 -0.5174  0.4399  0.2286
 4478SOL     OW17683   3.735   0.200   2.720 -0.2526 -0.1249  0.2273
 4478SOL    HW217684   3.817   0.166   2.755 -0.6308  0.5986  1.9624
 4478SOL    HW317685   3.697   0.127   2.672  1.6203 -0.3062 -1.0750
 4478SOL    MW417686   3.741   0.186   2.719 -0.0554 -0.0534  0.2844
 4479SOL     OW17687   5.686   4.189   0.849 -0.4552 -0.1952 -0.0843
 4479SOL    HW217688   5.747   4.214   0.780 -0.0728  1.0732  0.6887
 4479SOL    HW317689   5.726   4.112   0.889  1.1778  1.1405  1.0106
 4479SOL    MW417690   5.699   4.182   0.845 -0.1893  0.1484  0.1621
 4480SOL     OW17691   4.004   3.893   6.046 -0.2940 -0.3933  0.0320
 4480SOL    HW217692   4.021   3.858   5.958 -3.2702 -1.2397 -0.3117
 4480SOL    HW317693   4.037   3.825   6.105 -0.6725 -1.0562 -0.5030
 4480SOL    MW417694   4.011   3.879   6.042 -0.7366 -0.5924 -0.0840
 4481SOL     OW17695   1.432   1.864   3.679 -0.5831 -0.3005  0.1464
 4481SOL    HW217696   1.472   1.784   3.644  0.6323  0.5202 -0.3933
 4481SOL    HW317697   1.413   1.843   3.771 -0.2370 -1.1800  0.0277
 4481SOL    MW417698   1.434   1.850   3.686 -0.3771 -0.3082  0.0595
 4482SOL     OW17699   3.961   2.354   0.857 -0.0778 -0.4875 -0.1079
 4482SOL    HW217700   3.977   2.315   0.771 -0.6662  1.8718 -1.3838
 4482SOL    HW317701   4.048   2.373   0.891  0.2163  2.0039 -1.9583
 4482SOL    MW417702   3.974   2.351   0.850 -0.1166  0.1525 -0.5204
 4483SOL     OW17703   2.430   4.830   1.457  0.0929 -0.3938  0.0264
 4483SOL    HW217704   2.348   4.785   1.438 -0.3018 -0.7417  2.2327
 4483SOL    HW317705   2.495   4.790   1.399 -1.0390 -0.9754 -0.8644
 4483SOL    MW417706   2.428   4.819   1.447 -0.1085 -0.5164  0.1999
 4484SOL     OW17707   3.079   2.868   2.347 -0.2709  0.1411 -0.4787
 4484SOL    HW217708   3.173   2.880   2.360  0.0027  0.1352 -2.2183
 4484SOL    HW317709   3.057   2.925   2.273 -1.9398  1.2320  0.7848
 4484SOL    MW417710   3.089   2.877   2.339 -0.4550  0.2842 -0.5415
 4485SOL     OW17711   5.328   2.576   0.156  0.1389 -0.1405 -0.2329
 4485SOL    HW217712   5.337   2.482   0.169 -0.6874 -0.1033  0.7202
 4485SOL    HW317713   5.417   2.607   0.139  0.3734 -1.1309 -0.8876
 4485SOL    MW417714   5.341   2.568   0.155  0.0609 -0.2663 -0.1936
 4486SOL     OW17715   2.179   2.010   4.515 -0.8010 -0.2425  0.1829
 4486SOL    HW217716   2.260   1.998   4.565 -2.1514 -0.7496  2.4113
 4486SOL    HW317717   2.206   2.058   4.437  1.5183  0.2621  1.1989
 4486SOL    MW417718   2.194   2.014   4.511 -0.6732 -0.2428  0.6109
 4487SOL     OW17719   4.147   3.469   1.326 -0.3724  0.4671  0.3011
 4487SOL    HW217720   4.195   3.422   1.257  1.1567  0.3475  1.3869
 4487SOL    HW317721   4.214   3.518   1.372 -0.8210 -1.5524  3.4019
 4487SOL    MW417722   4.162   3.469   1.323 -0.2298  0.1849  0.8535
 4488SOL     OW17723   0.688   4.934   4.019 -0.0088 -0.3373 -0.4594
 4488SOL    HW217724   0.764   4.880   4.043  0.8610  1.0009 -0.0676
 4488SOL    HW317725   0.643   4.949   4.102 -0.4672 -0.7545 -0.6252
 4488SOL    MW417726   0.692   4.929   4.033  0.0455 -0.2158 -0.4296
 4489SOL     OW17727   0.951   2.574   0.643 -1.1064  0.1180  0.6789
 4489SOL    HW217728   0.947   2.624   0.561 -1.8360  1.0463  1.2568
 4489SOL    HW317729   1.038   2.590   0.677 -0.5896 -0.7362 -0.1797
 4489SOL    MW417730   0.962   2.582   0.636 -1.1345  0.1278  0.6418
 4490SOL     OW17731   4.444   2.731   6.059  0.3750 -0.5459  0.0906
 4490SOL    HW217732   4.500   2.663   6.097  0.0409  0.1479  1.9327
 4490SOL    HW317733   4.389   2.684   5.997  1.8790 -1.5110 -0.5679
 4490SOL    MW417734   4.444   2.716   6.056  0.5294 -0.5817  0.2468
 4491SOL     OW17735   5.916   3.793   5.662 -0.6263  0.3034  0.1049
 4491SOL    HW217736   5.940   3.882   5.635  0.2812  0.1417  0.3492
 4491SOL    HW317737   5.907   3.745   5.580  1.8212 -0.1094  0.0027
 4491SOL    MW417738   5.918   3.799   5.648 -0.1836  0.2276  0.1237
 4492SOL     OW17739   4.535   5.815   4.399 -0.4163  0.0084 -0.4720
 4492SOL    HW217740   4.562   5.729   4.365 -2.1333 -0.5762 -0.4690
 4492SOL    HW317741   4.615   5.854   4.433  0.0089 -2.8692  2.2936
 4492SOL    MW417742   4.549   5.808   4.399 -0.5868 -0.4484 -0.1067
 4493SOL     OW17743   2.816   3.151   1.553 -0.0606 -0.2338  0.4094
 4493SOL    HW217744   2.843   3.201   1.630 -2.3648 -0.1749  1.2490
 4493SOL    HW317745   2.822   3.060   1.580  0.6857 -0.2902  0.0836
 4493SOL    MW417746   2.820   3.146   1.567 -0.2661 -0.2335  0.4772
 4494SOL     OW17747   5.867   4.672   4.269  0.2786 -0.0928 -0.1965
 4494SOL    HW217748   5.789   4.726   4.281 -0.2812 -1.1058  0.9827
 4494SOL    HW317749   5.898   4.655   4.358  1.0384 -0.8527 -0.5936
 4494SOL    MW417750   5.861   4.677   4.282  0.3050 -0.3267 -0.0933
 4495SOL     OW17751   1.920   0.699   1.379  0.3263  0.6379  0.1698
 4495SOL    HW217752   1.902   0.726   1.289  0.1101 -0.3289 -0.0926
 4495SOL    HW317753   1.894   0.607   1.382  0.9309  0.4795  1.0494
 4495SOL    MW417754   1.914   0.690   1.368  0.3776  0.4894  0.2512
 4496SOL     OW17755   3.320   0.169   0.930 -0.1212  0.7696  0.5203
 4496SOL    HW217756   3.370   0.138   0.855  0.8753  0.2808  1.3521
 4496SOL    HW317757   3.384   0.216   0.984 -0.5964  0.3285  1.5066
 4496SOL    MW417758   3.335   0.171   0.927 -0.0524  0.6469  0.7602
 4497SOL     OW17759   1.096   1.452   1.143 -0.5684 -0.7912 -0.1806
 4497SOL    HW217760   1.107   1.383   1.209 -0.5178 -1.0356 -0.4447
 4497SOL    HW317761   1.120   1.533   1.189 -0.4190 -0.9748  0.0657
 4497SOL    MW417762   1.100   1.454   1.158 -0.5420 -0.8476 -0.1830
 4498SOL     OW17763   0.212   5.027   4.328 -0.0706 -0.2841 -0.4191
 4498SOL    HW217764   0.181   5.090   4.263 -1.9245 -0.3149  0.3853
 4498SOL    HW317765   0.202   5.071   4.412 -1.1929 -1.5417  0.1399
 4498SOL    MW417766   0.207   5.041   4.330 -0.4633 -0.4541 -0.2392
 4499SOL     OW17767   1.267   2.868   2.046  0.7102  0.1593  0.0981
 4499SOL    HW217768   1.345   2.921   2.064  0.3393  0.6987  0.1557
 4499SOL    HW317769   1.200   2.906   2.103 -0.0189  0.7520 -1.1227
 4499SOL    MW417770   1.268   2.880   2.056  0.5651  0.3087 -0.0553
 4500SOL     OW17771   0.181   2.776   1.890 -0.0670  0.0257  0.8767
 4500SOL    HW217772   0.275   2.766   1.905 -0.3657 -0.0109  2.9828
 4500SOL    HW317773   0.168   2.871   1.882  0.0699  0.0660  1.1402
 4500SOL    MW417774   0.191   2.787   1.891 -0.0883  0.0262  1.1893
 4501SOL     OW17775   4.466   1.566   5.438 -0.6208  0.4832 -0.6115
 4501SOL    HW217776   4.417   1.488   5.464 -0.5518  1.0585  1.4196
 4501SOL    HW317777   4.398   1.631   5.419 -0.6830  0.8034  0.6401
 4501SOL    MW417778   4.451   1.564   5.439 -0.6199  0.6014 -0.1784
 4502SOL     OW17779   2.220   5.303   3.426  0.7191 -0.1937  0.4375
 4502SOL    HW217780   2.163   5.335   3.356 -0.5021 -0.2843  1.3639
 4502SOL    HW317781   2.265   5.381   3.458  0.7108 -0.0319  0.0524
 4502SOL    MW417782   2.218   5.318   3.421  0.5569 -0.1843  0.5089
 4503SOL     OW17783   4.766   5.160   1.375 -0.3917 -0.0487  0.3088
 4503SOL    HW217784   4.731   5.158   1.286  0.1615 -1.0241  0.1105
 4503SOL    HW317785   4.706   5.105   1.426 -1.0166  0.9262  0.6806
 4503SOL    MW417786   4.753   5.153   1.370 -0.4011 -0.0488  0.3317
 4504SOL     OW17787   1.230   3.400   3.959  0.1560  0.7635  0.0978
 4504SOL    HW217788   1.267   3.445   3.882  1.8135  0.9206  0.9469
 4504SOL    HW317789   1.148   3.446   3.976 -0.8476  0.0113 -2.2190
 4504SOL    MW417790   1.224   3.412   3.951  0.2423  0.6850 -0.0959
 4505SOL     OW17791   0.773   0.112   4.049 -0.8391 -0.0319  0.5014
 4505SOL    HW217792   0.704   0.050   4.073 -1.5259  1.0996  1.5822
 4505SOL    HW317793   0.851   0.058   4.038 -1.3460 -1.0588  1.7058
 4505SOL    MW417794   0.774   0.097   4.050 -0.9966 -0.0181  0.8029
 4506SOL     OW17795   1.867   3.777   6.216 -0.2781 -0.0311 -0.2622
 4506SOL    HW217796   1.842   3.697   6.262  1.8804 -0.7438 -0.2017
 4506SOL    HW317797   1.865   3.754   6.123 -0.3187  0.0450 -0.2806
 4506SOL    MW417798   1.864   3.764   6.210  0.0014 -0.1151 -0.2567
 4507SOL     OW17799   3.526   1.700   3.403  0.0478  0.1708  0.0926
 4507SOL    HW217800   3.569   1.775   3.445  1.0503 -1.0786  1.3599
 4507SOL    HW317801   3.596   1.652   3.360 -0.4244 -0.6405  0.2081
 4507SOL    MW417802   3.541   1.704   3.403  0.1178 -0.1011  0.2751
 4508SOL     OW17803   1.683   0.024   0.175  0.4378  0.4043 -0.0166
 4508SOL    HW217804   1.608   0.081   0.192  0.8159  0.8486  0.2143
 4508SOL    HW317805   1.749   0.083   0.137 -0.4376 -0.5680 -3.3528
 4508SOL    MW417806   1.682   0.040   0.173  0.3722  0.3346 -0.4263
 4509SOL     OW17807   5.639   3.299   5.328 -0.1636  0.1289 -0.2994
 4509SOL    HW217808   5.720   3.263   5.292 -0.5993 -1.2124  0.0103
 4509SOL    HW317809   5.574   3.231   5.313 -0.9087  0.5816  0.7574
 4509SOL    MW417810   5.641   3.285   5.322 -0.3194  0.0117 -0.1191
 4510SOL     OW17811   1.095   2.133   4.104  0.1090 -0.2957 -0.2188
 4510SOL    HW217812   1.031   2.203   4.094  0.7932  0.3248 -0.2774
 4510SOL    HW317813   1.042   2.053   4.109 -0.6560  0.1881 -0.4664
 4510SOL    MW417814   1.079   2.132   4.103  0.0984 -0.1500 -0.2592
 4511SOL     OW17815   3.271   1.038   3.575 -0.6675  0.2047  0.1803
 4511SOL    HW217816   3.182   1.011   3.554 -0.5064  0.6946 -1.2803
 4511SOL    HW317817   3.308   0.966   3.625 -1.5224 -0.4958 -0.1806
 4511SOL    MW417818   3.265   1.025   3.579 -0.7590  0.1769 -0.0600
 4512SOL     OW17819   5.477   2.878   5.644  0.4630 -0.0452  0.1079
 4512SOL    HW217820   5.468   2.858   5.737  0.1232  0.3166  0.1566
 4512SOL    HW317821   5.455   2.971   5.638 -0.4661 -0.2971 -0.4701
 4512SOL    MW417822   5.473   2.887   5.656  0.2956 -0.0307  0.0381
 4513SOL     OW17823   6.091   1.605   5.006 -0.2636  0.0954 -0.0478
 4513SOL    HW217824   6.136   1.685   5.035  0.4750 -0.5266  0.5505
 4513SOL    HW317825   6.053   1.568   5.085 -0.4395 -0.2488 -0.2906
 4513SOL    MW417826   6.092   1.611   5.020 -0.1893 -0.0321 -0.0009
 4514SOL     OW17827   0.943   1.693   0.157  0.3144 -0.3401  0.2930
 4514SOL    HW217828   0.964   1.761   0.093 -0.0300 -1.1661 -0.7183
 4514SOL    HW317829   0.953   1.736   0.242  1.7591  0.5077 -0.2730
 4514SOL    MW417830   0.947   1.708   0.160  0.4596 -0.3372  0.0849
 4515SOL     OW17831   0.422   5.430   5.111 -0.0373 -0.2830 -0.2762
 4515SOL    HW217832   0.511   5.447   5.081 -0.1821  1.5230  0.2319
 4515SOL    HW317833   0.402   5.342   5.078  1.2461  0.0278 -1.9766
 4515SOL    MW417834   0.431   5.421   5.103  0.1129 -0.0037 -0.4335
 4516SOL     OW17835   2.016   6.227   3.187 -0.0850 -0.1418 -0.5318
 4516SOL    HW217836   2.046   6.318   3.192  1.7772 -0.7649  0.5646
 4516SOL    HW317837   1.928   6.229   3.223 -0.8121  1.4919 -2.2378
 4516SOL    MW417838   2.009   6.239   3.193  0.0648 -0.0085 -0.6123
 4517SOL     OW17839   3.569   1.039   0.635  0.0203 -0.1471  0.3171
 4517SOL    HW217840   3.567   1.053   0.540 -1.1188 -0.1503  0.3234
 4517SOL    HW317841   3.631   0.968   0.648 -0.6375 -0.8988 -0.5376
 4517SOL    MW417842   3.577   1.032   0.624 -0.2168 -0.2467  0.2051
 4518SOL     OW17843   6.149   5.033   0.725  0.2058  0.0085  0.0662
 4518SOL    HW217844   6.077   4.980   0.691  0.6480  1.2284 -3.1131
 4518SOL    HW317845   6.133   5.038   0.819 -3.7745  0.0433 -0.4322
 4518SOL    MW417846   6.137   5.027   0.733 -0.2610  0.1740 -0.4190
 4519SOL     OW17847   4.845   0.854   2.247 -0.3870 -0.5485 -0.0550
 4519SOL    HW217848   4.820   0.815   2.164 -0.6176 -0.5229  0.0012
 4519SOL    HW317849   4.930   0.814   2.268 -0.2929 -0.4975 -0.3378
 4519SOL    MW417850   4.853   0.844   2.239 -0.4050 -0.5384 -0.0849
 4520SOL     OW17851   6.373   4.455   5.111 -0.5130  0.2143 -0.4449
 4520SOL    HW217852   6.367   4.547   5.137  1.5407 -0.0996  1.4748
 4520SOL    HW317853   6.452   4.452   5.056 -0.2961 -0.4639 -0.0991
 4520SOL    MW417854   6.383   4.467   5.107 -0.2135  0.0834 -0.1460
 4521SOL     OW17855   3.571   1.950   0.462  0.2708 -0.0507 -0.0229
 4521SOL    HW217856   3.476   1.940   0.467  0.3399 -1.0700 -0.6472
 4521SOL    HW317857   3.603   1.867   0.426  1.4386  0.1241  0.5687
 4521SOL    MW417858   3.563   1.938   0.458  0.4340 -0.1621 -0.0272
 4522SOL     OW17859   5.023   6.254   5.198 -0.1711 -0.5210  0.1445
 4522SOL    HW217860   4.961   6.255   5.271  0.0527 -0.4802  0.3366
 4522SOL    HW317861   5.109   6.248   5.240  0.0372  0.7919 -0.0654
 4522SOL    MW417862   5.026   6.253   5.213 -0.1141 -0.3424  0.1421
 4523SOL     OW17863   4.750   5.326   5.989  0.0226  0.1430 -0.4872
 4523SOL    HW217864   4.824   5.307   6.046  1.0139  1.3992 -1.2998
 4523SOL    HW317865   4.785   5.320   5.900 -1.1463 -0.3807 -0.9489
 4523SOL    MW417866   4.764   5.322   5.985 -0.0008  0.2397 -0.6553
 4524SOL     OW17867   0.309   3.556   6.344 -0.1602  0.6052 -0.2196
 4524SOL    HW217868   0.284   3.604   6.423 -0.3790  1.0422 -0.5461
 4524SOL    HW317869   0.335   3.625   6.282 -1.5770  0.3909 -1.0891
 4524SOL    MW417870   0.309   3.572   6.347 -0.3760  0.6346 -0.3774
 4525SOL     OW17871   4.677   5.680   3.553  0.3640  0.2829 -0.1477
 4525SOL    HW217872   4.659   5.670   3.646 -0.0449 -2.1819 -0.4268
 4525SOL    HW317873   4.771   5.692   3.548  0.3376  0.8945  0.5862
 4525SOL    MW417874   4.687   5.680   3.564  0.3066  0.0384 -0.0877
 4526SOL     OW17875   0.799   4.819   3.612  0.4131 -0.1269 -0.1832
 4526SOL    HW217876   0.826   4.732   3.583 -0.5019 -1.0557  1.6226
 4526SOL    HW317877   0.868   4.847   3.672  2.7702  2.1716 -3.5693
 4526SOL    MW417878   0.811   4.811   3.616  0.6033  0.0538 -0.3917
 4527SOL     OW17879   0.607   6.081   4.559  0.5753 -0.2171  0.2281
 4527SOL    HW217880   0.701   6.060   4.556  0.8556  1.0279 -0.7993
 4527SOL    HW317881   0.584   6.099   4.468 -0.5587 -0.0644  0.5305
 4527SOL    MW417882   0.617   6.081   4.547  0.4627 -0.0327  0.1324
 4528SOL     OW17883   0.573   6.024   6.222 -0.0001 -0.1623 -0.1477
 4528SOL    HW217884   0.536   5.986   6.142 -0.2485  1.1840 -0.7104
 4528SOL    HW317885   0.641   6.083   6.191  0.4876 -0.2642  0.7013
 4528SOL    MW417886   0.577   6.027   6.207  0.0315  0.0019 -0.1099
 4529SOL     OW17887   0.516   4.986   2.372  0.2469  0.2761 -0.1019
 4529SOL    HW217888   0.496   4.895   2.351  2.4697 -0.5167  0.9206
 4529SOL    HW317889   0.448   5.036   2.327  0.3428 -1.7128 -2.7522
 4529SOL    MW417890   0.505   4.981   2.363  0.5528 -0.0909 -0.3167
 4530SOL     OW17891   5.085   4.890   0.719  0.0690  0.1751  0.2499
 4530SOL    HW217892   5.073   4.894   0.814  1.5880 -0.8815  0.5309
 4530SOL    HW317893   5.178   4.905   0.706 -0.1172  0.3200 -1.0850
 4530SOL    MW417894   5.096   4.892   0.730  0.2448  0.0548  0.1109
 4531SOL     OW17895   3.180   3.433   2.807  0.0010  0.4611  0.2300
 4531SOL    HW217896   3.119   3.400   2.742 -1.7561 -1.6147  2.7024
 4531SOL    HW317897   3.141   3.514   2.838  0.6328  1.2364 -0.9193
 4531SOL    MW417898   3.167   3.439   2.803 -0.1474  0.2895  0.4046
 4532SOL     OW17899   4.473   0.988   4.612  0.1870  0.2753 -0.5174
 4532SOL    HW217900   4.487   1.074   4.653 -0.3813  0.0834  0.1136
 4532SOL    HW317901   4.511   0.926   4.674 -0.4880 -0.0066 -0.3753
 4532SOL    MW417902   4.480   0.991   4.626  0.0229  0.2128 -0.4154
 4533SOL     OW17903   4.516   2.853   2.021 -0.2698 -0.0397  0.4118
 4533SOL    HW217904   4.467   2.902   2.087 -0.3653  0.5811 -0.0998
 4533SOL    HW317905   4.488   2.892   1.938  1.4592  0.6943  0.1209
 4533SOL    MW417906   4.506   2.865   2.019 -0.0543  0.1391  0.3059
 4534SOL     OW17907   6.278   0.056   0.550 -0.2134 -0.3241 -0.8716
 4534SOL    HW217908   6.323   0.018   0.625  0.1632 -0.5878 -1.2273
 4534SOL    HW317909   6.279  -0.013   0.483 -0.7437 -0.1726 -1.0400
 4534SOL    MW417910   6.284   0.042   0.551 -0.2337 -0.3389 -0.9408
 4535SOL     OW17911   1.156   3.300   4.440 -0.0572  0.5468  0.1208
 4535SOL    HW217912   1.222   3.267   4.502  0.2931 -1.7711 -1.3264
 4535SOL    HW317913   1.077   3.249   4.460 -0.6442  1.4707  0.1802
 4535SOL    MW417914   1.154   3.289   4.451 -0.0884  0.3629 -0.0623
 4536SOL     OW17915   0.942   4.012   2.564 -0.0320 -0.3201  0.0782
 4536SOL    HW217916   0.850   4.035   2.549 -0.4258 -2.3714 -0.9623
 4536SOL    HW317917   0.991   4.086   2.530 -1.2815  1.1449  1.2959
 4536SOL    MW417918   0.936   4.024   2.558 -0.2488 -0.3974  0.1016
 4537SOL     OW17919   1.523   2.569   5.366 -0.4970  0.9047 -0.6305
 4537SOL    HW217920   1.493   2.640   5.423 -0.4397  1.3622 -1.1481
 4537SOL    HW317921   1.495   2.596   5.278  1.3881  1.3706 -1.1446
 4537SOL    MW417922   1.516   2.582   5.362 -0.2407  1.0265 -0.7667
 4538SOL     OW17923   4.963   6.013   3.335 -0.3290  0.7674  0.0322
 4538SOL    HW217924   5.012   6.080   3.383  0.8321  1.0420 -1.4619
 4538SOL    HW317925   5.019   5.992   3.260 -1.7887 -0.1035 -0.8541
 4538SOL    MW417926   4.977   6.019   3.332 -0.3684  0.6888 -0.2819
 4539SOL     OW17927   4.785   1.873   5.016 -0.0549 -0.4987  0.1919
 4539SOL    HW217928   4.869   1.858   4.973 -0.7765 -0.8251 -1.1423
 4539SOL    HW317929   4.775   1.968   5.016  0.4960 -0.4282  0.7566
 4539SOL    MW417930   4.795   1.883   5.011 -0.0774 -0.5324  0.0904
 4540SOL     OW17931   5.430   5.929   2.582  0.2347  0.2051  0.2545
 4540SOL    HW217932   5.440   5.942   2.488  0.3471 -1.6397 -0.0223
 4540SOL    HW317933   5.453   6.013   2.621  0.3603  0.9366 -1.3473
 4540SOL    MW417934   5.434   5.942   2.575  0.2661  0.0582  0.0066
 4541SOL     OW17935   4.568   2.041   3.956  0.0107  0.3927  0.1654
 4541SOL    HW217936   4.517   1.961   3.972  1.7777 -0.6805  0.7884
 4541SOL    HW317937   4.659   2.012   3.960  0.6938  2.1590 -1.2627
 4541SOL    MW417938   4.573   2.026   3.958  0.3340  0.4842  0.0592
 4542SOL     OW17939   5.994   2.681   5.747 -0.3669  0.0275  0.2688
 4542SOL    HW217940   5.916   2.706   5.697  0.0122 -0.0558 -0.3764
 4542SOL    HW317941   6.045   2.762   5.753 -1.2017  0.4739  2.0284
 4542SOL    MW417942   5.990   2.695   5.741 -0.4270  0.0754  0.4158
 4543SOL     OW17943   0.166   3.237   0.373 -0.0554  0.0546  0.3824
 4543SOL    HW217944   0.246   3.193   0.402  1.3483  2.0131 -0.2904
 4543SOL    HW317945   0.113   3.168   0.333  0.8039 -1.4821  1.7684
 4543SOL    MW417946   0.170   3.222   0.372  0.2432  0.1102  0.4765
 4544SOL     OW17947   0.237   3.218   4.616 -0.0793  0.2710 -0.3635
 4544SOL    HW217948   0.209   3.127   4.608  0.6790 -0.1193  1.1235
 4544SOL    HW317949   0.206   3.245   4.702  0.2335  1.2440 -0.5391
 4544SOL    MW417950   0.229   3.210   4.626  0.0620  0.3479 -0.1905
 4545SOL     OW17951   4.411   1.646   3.709  0.3814 -0.3724  0.2030
 4545SOL    HW217952   4.382   1.729   3.747 -0.8972 -1.7493  2.4557
 4545SOL    HW317953   4.330   1.599   3.689  1.0855 -1.0458 -1.2343
 4545SOL    MW417954   4.396   1.651   3.711  0.3056 -0.6429  0.3106
 4546SOL     OW17955   2.525   5.136   2.338  0.2090  0.0637  0.6137
 4546SOL    HW217956   2.610   5.106   2.369 -0.2030 -1.8229  0.0286
 4546SOL    HW317957   2.503   5.077   2.266 -1.7175  0.3079  0.9515
 4546SOL    MW417958   2.533   5.125   2.333 -0.0995 -0.1530  0.5811
 4547SOL     OW17959   0.933   0.010   2.381  0.0651 -0.3127  0.3775
 4547SOL    HW217960   1.000  -0.049   2.415 -1.3315 -1.4132  1.3586
 4547SOL    HW317961   0.881  -0.046   2.323 -1.4541 -0.1799  1.5430
 4547SOL    MW417962   0.935  -0.005   2.378 -0.3196 -0.4404  0.6607
 4548SOL     OW17963   1.456   2.347   3.940 -0.4244  0.0665 -0.6427
 4548SOL    HW217964   1.369   2.385   3.926 -1.2492 -1.4257  0.1188
 4548SOL    HW317965   1.492   2.336   3.852 -0.3749  2.0014 -0.9127
 4548SOL    MW417966   1.449   2.351   3.926 -0.5267  0.1249 -0.5778
 4549SOL     OW17967   2.063   5.490   2.248  0.0723  0.3725 -0.1885
 4549SOL    HW217968   2.062   5.576   2.207 -1.5017 -0.3415 -1.7880
 4549SOL    HW317969   1.989   5.491   2.309  0.9687  0.6216  0.9407
 4549SOL    MW417970   2.053   5.502   2.251 -0.0171  0.3111 -0.2505
 4550SOL     OW17971   5.301   3.097   2.729 -0.1555  0.0624 -0.9489
 4550SOL    HW217972   5.288   3.180   2.776  1.7300  0.5762 -1.2355
 4550SOL    HW317973   5.253   3.108   2.647  1.9005  1.8439 -1.9989
 4550SOL    MW417974   5.293   3.110   2.725  0.3645  0.3652 -1.1253
 4551SOL     OW17975   3.404   1.404   3.977 -0.5332 -0.5279  0.2775
 4551SOL    HW217976   3.371   1.316   3.959 -0.9263 -0.4475  0.5873
 4551SOL    HW317977   3.382   1.420   4.069 -0.4928 -0.0984  0.2158
 4551SOL    MW417978   3.397   1.394   3.987 -0.5797 -0.4606  0.3102
 4552SOL     OW17979   5.804   5.088   0.939  0.8806  0.4810  0.3478
 4552SOL    HW217980   5.887   5.056   0.974  1.0217  0.2398 -0.1962
 4552SOL    HW317981   5.764   5.137   1.012  0.6410 -0.9453  1.2266
 4552SOL    MW417982   5.809   5.090   0.954  0.8676  0.2610  0.3920
 4553SOL     OW17983   5.880   1.844   5.870 -0.0184  0.1538  0.0659
 4553SOL    HW217984   5.915   1.870   5.955  0.1198 -0.6675  0.2703
 4553SOL    HW317985   5.823   1.916   5.844  1.4080  1.2992 -0.0381
 4553SOL    MW417986   5.877   1.857   5.878  0.1881  0.1966  0.0791
 4554SOL     OW17987   4.231   0.323   3.799 -0.1307 -0.5324 -0.1849
 4554SOL    HW217988   4.316   0.288   3.773 -0.1232 -0.6513 -0.0028
 4554SOL    HW317989   4.221   0.403   3.747  0.2663 -0.3054  0.0808
 4554SOL    MW417990   4.241   0.329   3.789 -0.0773 -0.5182 -0.1258
 4555SOL     OW17991   4.371   6.413   4.757 -0.1343 -0.2535 -0.0267
 4555SOL    HW217992   4.391   6.488   4.701  0.0796 -1.2532 -1.3506
 4555SOL    HW317993   4.408   6.338   4.710 -2.0444 -1.4408  0.2657
 4555SOL    MW417994   4.379   6.413   4.744 -0.3581 -0.5420 -0.1628
 4556SOL     OW17995   1.817   4.240   3.462 -0.1317  0.1182  0.0969
 4556SOL    HW217996   1.817   4.144   3.461 -1.8463  0.0866 -0.8360
 4556SOL    HW317997   1.725   4.264   3.474  0.2260  1.6451 -0.0026
 4556SOL    MW417998   1.805   4.230   3.463 -0.3107  0.3155 -0.0393
 4557SOL     OW17999   3.751   5.377   3.514  0.2206  0.5249  0.3285
 4557SOL    HW218000   3.721   5.406   3.427  1.7641 -1.7428 -1.0504
 4557SOL    HW318001   3.698   5.428   3.575 -1.6878  1.4483 -1.9273
 4557SOL    MW418002   3.740   5.388   3.510  0.1725  0.3475 -0.1511
 4558SOL     OW18003   0.220   4.814   3.009 -0.0527 -0.5724  0.0867
 4558SOL    HW218004   0.134   4.778   3.031  0.0066  0.3745  2.1050
 4558SOL    HW318005   0.267   4.816   3.092  0.9515  1.4145 -0.4712
 4558SOL    MW418006   0.215   4.810   3.023  0.0876 -0.1854  0.2794
 4559SOL     OW18007   4.932   5.448   1.679  0.3457  0.5174 -0.0492
 4559SOL    HW218008   4.868   5.403   1.735 -0.1595 -1.2332 -1.8844
 4559SOL    HW318009   5.013   5.398   1.691  0.5246  0.8080 -0.0626
 4559SOL    MW418010   4.934   5.435   1.688  0.3026  0.3248 -0.2931
 4560SOL     OW18011   1.561   2.952   1.546  0.0773 -0.3248  0.0514
 4560SOL    HW218012   1.560   2.862   1.512  4.3979 -0.0770 -1.4655
 4560SOL    HW318013   1.645   2.959   1.590 -0.8941  2.5505  1.6622
 4560SOL    MW418014   1.572   2.941   1.547  0.5192  0.0872  0.0638
 4561SOL     OW18015   5.194   1.030   0.096 -0.1141 -0.3411  0.6272
 4561SOL    HW218016   5.114   1.042   0.045  0.7049 -0.0061 -0.6370
 4561SOL    HW318017   5.242   0.961   0.049  1.6090  1.3964 -0.3573
 4561SOL    MW418018   5.190   1.022   0.083  0.2213 -0.0677  0.3305
 4562SOL     OW18019   0.289   3.929   5.023 -0.0358 -0.0650 -0.2809
 4562SOL    HW218020   0.266   4.006   5.076  0.2880 -0.0625 -0.1432
 4562SOL    HW318021   0.342   3.875   5.082 -0.3411 -0.4400 -0.3478
 4562SOL    MW418022   0.293   3.932   5.038 -0.0333 -0.1142 -0.2716
 4563SOL     OW18023   3.361   2.152   6.157  0.6533 -0.1701  0.7004
 4563SOL    HW218024   3.364   2.091   6.230 -2.0331 -1.6402 -0.2913
 4563SOL    HW318025   3.279   2.201   6.170  0.6606  0.2827 -0.7496
 4563SOL    MW418026   3.350   2.151   6.168  0.2999 -0.3043  0.3782
 4564SOL     OW18027   1.395   5.311   3.250 -0.3153 -0.0923  0.2411
 4564SOL    HW218028   1.321   5.325   3.190 -0.7111  2.8818  1.2468
 4564SOL    HW318029   1.355   5.300   3.336  0.3548 -1.1534  0.4330
 4564SOL    MW418030   1.380   5.311   3.253 -0.2791  0.1601  0.3991
 4565SOL     OW18031   0.239   4.939   1.219  0.1639 -0.0462  0.2143
 4565SOL    HW218032   0.202   4.941   1.307 -0.5017 -1.0146 -0.0266
 4565SOL    HW318033   0.192   5.007   1.172  0.2299  0.1953  0.4923
 4565SOL    MW418034   0.228   4.948   1.225  0.0848 -0.1421  0.2192
 4566SOL     OW18035   2.431   0.484   1.746 -0.3065  0.3628 -0.1422
 4566SOL    HW218036   2.380   0.554   1.705 -2.2097 -1.4756 -1.0625
 4566SOL    HW318037   2.369   0.440   1.804  0.5769 -1.1437 -0.3004
 4566SOL    MW418038   2.416   0.488   1.748 -0.4410 -0.0785 -0.2845
 4567SOL     OW18039   5.294   3.250   5.965 -0.0332  0.0333 -0.2489
 4567SOL    HW218040   5.311   3.343   5.950 -0.0522  0.5538  2.4391
 4567SOL    HW318041   5.206   3.236   5.931 -1.1952  1.7738  1.7834
 4567SOL    MW418042   5.285   3.260   5.959 -0.1890  0.3316  0.3738
 4568SOL     OW18043   0.675   0.603   1.865  0.7511 -0.0877  0.5441
 4568SOL    HW218044   0.683   0.673   1.930 -1.3934 -1.0645  1.9700
 4568SOL    HW318045   0.636   0.645   1.788 -1.0068  0.2214  1.5730
 4568SOL    MW418046   0.671   0.617   1.863  0.2362 -0.1758  0.8680
 4569SOL     OW18047   0.162   0.915   3.508  0.2838 -0.1586  1.1153
 4569SOL    HW218048   0.124   0.995   3.472  1.3867 -0.1661 -0.1659
 4569SOL    HW318049   0.249   0.911   3.469  0.4780 -1.6576  1.6458
 4569SOL    MW418050   0.168   0.925   3.498  0.4549 -0.3574  1.0163
 4570SOL     OW18051   0.849   3.853   5.429 -0.5713  0.3087 -0.0614
 4570SOL    HW218052   0.775   3.887   5.379 -2.3990 -1.4274  1.2825
 4570SOL    HW318053   0.821   3.859   5.521  0.5889 -1.1267  0.4345
 4570SOL    MW418054   0.836   3.858   5.435 -0.6594 -0.1097  0.1813
 4571SOL     OW18055   1.962   5.350   4.803  0.1697  0.3142 -0.1420
 4571SOL    HW218056   1.886   5.298   4.780 -0.2855  1.1690 -0.6147
 4571SOL    HW318057   2.022   5.339   4.729  0.3628 -0.0722  0.0679
 4571SOL    MW418058   1.960   5.342   4.790  0.1351  0.3760 -0.1766
 4572SOL     OW18059   1.233   2.459   1.008 -0.4787  0.6475  0.6492
 4572SOL    HW218060   1.173   2.397   0.968 -0.8025  1.7769 -0.7022
 4572SOL    HW318061   1.317   2.414   1.009 -0.7813  0.0582  0.0131
 4572SOL    MW418062   1.236   2.445   1.003 -0.5614  0.7187  0.3870
 4573SOL     OW18063   3.978   6.119   1.391  0.1142  0.6275  0.4751
 4573SOL    HW218064   4.056   6.128   1.446  0.4037  1.4814 -0.0607
 4573SOL    HW318065   4.011   6.120   1.301 -0.5302  1.2216  0.2360
 4573SOL    MW418066   3.993   6.120   1.386  0.0674  0.8186  0.3729
 4574SOL     OW18067   4.450   4.443   3.789  0.0490 -0.3209  0.1076
 4574SOL    HW218068   4.355   4.446   3.782  0.0125 -0.9769  0.3024
 4574SOL    HW318069   4.474   4.354   3.762  0.5154 -0.5334  1.1789
 4574SOL    MW418070   4.441   4.431   3.784  0.1058 -0.4355  0.2747
 4575SOL     OW18071   0.097   0.695   0.748 -0.2528 -0.0530  0.1001
 4575SOL    HW218072   0.014   0.742   0.757  0.0432  0.3377  0.9039
 4575SOL    HW318073   0.100   0.637   0.824  0.3477  0.1694  0.2561
 4575SOL    MW418074   0.086   0.694   0.759 -0.1345  0.0279  0.2268
 4576SOL     OW18075   4.831   0.398   3.701  0.0251  0.0138 -0.4785
 4576SOL    HW218076   4.825   0.494   3.703 -0.1283  0.0029 -0.3369
 4576SOL    HW318077   4.897   0.377   3.767  0.7904  0.0716 -1.2061
 4576SOL    MW418078   4.839   0.408   3.710  0.1059  0.0200 -0.5558
 4577SOL     OW18079   5.355   5.417   4.670  0.0677  0.2327  0.5672
 4577SOL    HW218080   5.286   5.383   4.613  0.9342 -2.0883  0.8027
 4577SOL    HW318081   5.315   5.418   4.757 -0.4353  1.3362  0.3456
 4577SOL    MW418082   5.340   5.413   4.674  0.1157  0.0721  0.5690
 4578SOL     OW18083   5.710   3.646   5.806 -0.6955  0.4467 -0.5569
 4578SOL    HW218084   5.669   3.694   5.878  0.2695  0.7907 -0.2186
 4578SOL    HW318085   5.786   3.699   5.783  1.1065 -1.4826  0.6142
 4578SOL    MW418086   5.715   3.660   5.813 -0.3304  0.2376 -0.3577
 4579SOL     OW18087   3.549   3.035   4.313 -0.0680  0.4083  0.0691
 4579SOL    HW218088   3.561   2.998   4.401  1.3802 -1.9823 -1.0521
 4579SOL    HW318089   3.593   3.120   4.317  2.2360 -0.7424  1.0174
 4579SOL    MW418090   3.556   3.041   4.326  0.4271 -0.0589  0.0463
 4580SOL     OW18091   6.402   2.307   4.432  0.3784  0.4073 -0.3415
 4580SOL    HW218092   6.446   2.380   4.476  0.9940  0.7283 -1.4534
 4580SOL    HW318093   6.468   2.238   4.429 -0.5518 -0.6524  1.7179
 4580SOL    MW418094   6.416   2.308   4.437  0.3369  0.3098 -0.2165
 4581SOL     OW18095   0.438   0.425   3.033  0.0150 -0.2321 -0.0585
 4581SOL    HW218096   0.349   0.403   3.006  0.1959  0.9671 -1.7892
 4581SOL    HW318097   0.493   0.359   2.990  0.0850 -0.0239 -0.2883
 4581SOL    MW418098   0.434   0.413   3.024  0.0481 -0.0464 -0.3172
 4582SOL     OW18099   0.820   4.954   1.550 -0.6440 -0.0334  0.1676
 4582SOL    HW218100   0.866   4.965   1.633  0.4190  1.9707 -0.6363
 4582SOL    HW318101   0.875   4.998   1.486 -1.1784 -1.9708 -1.7368
 4582SOL    MW418102   0.833   4.961   1.553 -0.5743 -0.0246 -0.1897
 4583SOL     OW18103   5.497   4.650   3.130 -0.0068  0.3474 -0.2538
 4583SOL    HW218104   5.416   4.623   3.088 -0.3267  0.6651  0.1519
 4583SOL    HW318105   5.490   4.618   3.220 -0.0281  1.0394 -0.0007
 4583SOL    MW418106   5.485   4.642   3.137 -0.0518  0.4806 -0.1669
 4584SOL     OW18107   3.997   1.984   1.772  0.6616  0.0910  0.1037
 4584SOL    HW218108   4.061   1.956   1.838  0.9736 -0.4996 -0.4382
 4584SOL    HW318109   4.046   1.983   1.689  0.4381  1.3996 -0.0663
 4584SOL    MW418110   4.012   1.980   1.770  0.6733  0.1857  0.0097
 4585SOL     OW18111   6.023   5.689   2.479 -0.4897  0.0550  0.5421
 4585SOL    HW218112   6.083   5.630   2.525 -1.4157  0.2445  2.0696
 4585SOL    HW318113   6.075   5.725   2.408  0.7009 -1.0579  0.7963
 4585SOL    MW418114   6.038   5.686   2.476 -0.4548 -0.0668  0.7771
 4586SOL     OW18115   0.614   3.411   2.195  0.3497 -0.3090  0.7807
 4586SOL    HW218116   0.574   3.326   2.176 -0.2099  0.1384 -0.1289
 4586SOL    HW318117   0.617   3.415   2.290  0.8006 -1.5305  0.8368
 4586SOL    MW418118   0.609   3.400   2.205  0.3354 -0.4111  0.6681
 4587SOL     OW18119   1.829   0.451   2.955  0.4965 -0.9177  0.2309
 4587SOL    HW218120   1.868   0.436   2.869  1.0170  1.0704  0.0838
 4587SOL    HW318121   1.831   0.365   2.996  1.7116 -1.6069 -1.1386
 4587SOL    MW418122   1.835   0.437   2.949  0.7255 -0.7463  0.0308
 4588SOL     OW18123   5.567   0.295   5.206  0.6060  0.2448 -0.2265
 4588SOL    HW218124   5.499   0.321   5.144 -0.2313 -0.0043  0.5654
 4588SOL    HW318125   5.647   0.294   5.154 -0.2429 -1.0851 -1.6014
 4588SOL    MW418126   5.568   0.298   5.191  0.3835  0.0365 -0.3034
 4589SOL     OW18127   6.398   4.059   5.476  0.4874 -0.4451 -0.4050
 4589SOL    HW218128   6.462   4.118   5.517 -0.6973  2.7654 -2.7302
 4589SOL    HW318129   6.327   4.054   5.540  0.3539  1.2456 -0.3672
 4589SOL    MW418130   6.397   4.066   5.490  0.3135  0.2016 -0.7068
 4590SOL     OW18131   2.007   0.618   3.092 -0.1070 -0.0440 -0.6033
 4590SOL    HW218132   1.956   0.663   3.160 -0.0249 -2.2648  1.0532
 4590SOL    HW318133   1.940   0.576   3.037 -0.1795 -1.1376  0.2654
 4590SOL    MW418134   1.991   0.618   3.093 -0.1057 -0.4813 -0.2701
 4591SOL     OW18135   0.199   4.658   1.701 -0.1637  0.8326 -0.2964
 4591SOL    HW218136   0.224   4.566   1.696 -0.1464  0.8785 -1.1156
 4591SOL    HW318137   0.274   4.705   1.664 -0.7048  1.0857 -1.0984
 4591SOL    MW418138   0.212   4.652   1.696 -0.2328  0.8720 -0.5103
 4592SOL     OW18139   5.572   1.953   1.715 -0.0023 -0.1556 -0.2286
 4592SOL    HW218140   5.580   1.933   1.622  0.1694 -2.3514  0.2112
 4592SOL    HW318141   5.551   1.869   1.756 -1.6846  1.0531  1.5488
 4592SOL    MW418142   5.571   1.939   1.708 -0.2016 -0.2858  0.0639
 4593SOL     OW18143   0.283   5.090   3.035 -0.3572  0.3323 -0.4711
 4593SOL    HW218144   0.318   5.127   2.954  0.1955 -0.8716 -0.8102
 4593SOL    HW318145   0.271   4.997   3.016  1.0115 -0.2496  1.1944
 4593SOL    MW418146   0.286   5.082   3.022 -0.1037  0.0967 -0.2961
 4594SOL     OW18147   1.327   4.592   0.206  0.2764 -0.0271 -0.0214
 4594SOL    HW218148   1.317   4.663   0.143 -1.1269  1.1480  1.4636
 4594SOL    HW318149   1.380   4.527   0.160 -3.2897 -0.7290 -3.7284
 4594SOL    MW418150   1.332   4.592   0.192 -0.3793  0.0353 -0.3146
 4595SOL     OW18151   4.546   6.114   2.404 -0.6832  0.3926 -0.0243
 4595SOL    HW218152   4.592   6.120   2.488  1.5689 -1.1810 -1.0559
 4595SOL    HW318153   4.507   6.026   2.404  0.7851 -0.2971 -1.2712
 4595SOL    MW418154   4.547   6.103   2.415 -0.1923  0.0940 -0.3249
 4596SOL     OW18155   0.921   5.144   6.185  0.2081 -0.2683  0.3563
 4596SOL    HW218156   0.872   5.198   6.246  2.5644 -0.7520  2.8447
 4596SOL    HW318157   0.914   5.191   6.101 -2.7017  0.6866  1.0084
 4596SOL    MW418158   0.914   5.157   6.182  0.1350 -0.2061  0.7707
 4597SOL     OW18159   2.711   5.756   4.646  0.0727  0.2059  0.6139
 4597SOL    HW218160   2.781   5.744   4.582 -0.8111 -0.9235 -0.1716
 4597SOL    HW318161   2.630   5.740   4.598 -0.6840  0.4291  1.7553
 4597SOL    MW418162   2.709   5.752   4.631 -0.1437  0.0863  0.6609
 4598SOL     OW18163   2.743   3.550   2.023 -0.4115 -0.1508  0.6174
 4598SOL    HW218164   2.667   3.592   1.984  0.6214  0.2139 -1.1328
 4598SOL    HW318165   2.817   3.606   1.998  0.4052 -0.2340  2.6585
 4598SOL    MW418166   2.743   3.563   2.015 -0.1675 -0.1137  0.6558
 4599SOL     OW18167   2.740   1.975   5.055  0.4189  0.2669 -0.5726
 4599SOL    HW218168   2.671   1.909   5.058  0.9635 -0.3548 -1.1997
 4599SOL    HW318169   2.697   2.057   5.079 -0.4350 -0.1835 -0.5405
 4599SOL    MW418170   2.725   1.977   5.059  0.3781  0.1254 -0.6511
 4600SOL     OW18171   2.634   3.576   2.974  0.0089  0.7330  0.4616
 4600SOL    HW218172   2.674   3.510   3.030  1.2688  0.3701 -0.7855
 4600SOL    HW318173   2.551   3.537   2.946  1.0944 -0.7202 -0.8952
 4600SOL    MW418174   2.628   3.562   2.977  0.3183  0.4934  0.1181
 4601SOL     OW18175   3.785   2.633   5.158 -0.0819  0.0385  0.0698
 4601SOL    HW218176   3.876   2.629   5.189 -0.5033 -0.5641  1.2757
 4601SOL    HW318177   3.790   2.685   5.078  1.3429 -0.0664  0.0564
 4601SOL    MW418178   3.798   2.639   5.152  0.0505 -0.0548  0.2271
 4602SOL     OW18179   6.402   1.877   6.321 -0.0288  0.0631 -0.1099
 4602SOL    HW218180   6.432   1.829   6.244 -0.1325 -0.8487  0.4038
 4602SOL    HW318181   6.445   1.833   6.394  0.5057  1.2602  0.3217
 4602SOL    MW418182   6.412   1.865   6.320  0.0281  0.1007  0.0149
 4603SOL     OW18183   4.965   3.115   0.844  0.0702 -0.1473 -0.0836
 4603SOL    HW218184   4.906   3.186   0.870 -0.3725 -0.7951  0.7476
 4603SOL    HW318185   4.965   3.117   0.748 -0.5984  0.4364 -0.0774
 4603SOL    MW418186   4.957   3.124   0.835 -0.0764 -0.1557  0.0269
 4604SOL     OW18187   1.472   3.121   3.843 -0.0719 -0.5017 -0.4235
 4604SOL    HW218188   1.452   3.169   3.762 -1.8791 -0.0663  0.2428
 4604SOL    HW318189   1.468   3.029   3.818 -1.1149 -0.3825 -0.7298
 4604SOL    MW418190   1.469   3.115   3.829 -0.4479 -0.4285 -0.3760
 4605SOL     OW18191   4.237   4.235   0.148 -0.5796 -0.0878  0.0177
 4605SOL    HW218192   4.217   4.326   0.172 -0.6732  0.2127 -1.1382
 4605SOL    HW318193   4.285   4.200   0.223  0.4077  1.2456  0.0408
 4605SOL    MW418194   4.241   4.242   0.161 -0.4617  0.1278 -0.1318
 4606SOL     OW18195   5.640   1.020   4.904  0.1440 -0.2996 -0.1382
 4606SOL    HW218196   5.614   0.943   4.953  0.4474 -0.2580  0.0916
 4606SOL    HW318197   5.735   1.013   4.897  0.0670 -0.5461 -1.1122
 4606SOL    MW418198   5.649   1.009   4.909  0.1739 -0.3266 -0.2364
 4607SOL     OW18199   0.346   3.878   2.095  0.7192 -0.0958  0.1639
 4607SOL    HW218200   0.312   3.880   2.006  0.5066 -0.5772  0.2304
 4607SOL    HW318201   0.431   3.833   2.087 -0.3377 -2.3091  0.5180
 4607SOL    MW418202   0.353   3.872   2.082  0.5517 -0.4514  0.2194
 4608SOL     OW18203   1.112   3.469   5.464  0.6785 -0.2482 -0.2254
 4608SOL    HW218204   1.034   3.502   5.420 -1.2268 -0.7350  2.4759
 4608SOL    HW318205   1.175   3.453   5.394 -0.7143  2.5200 -2.2896
 4608SOL    MW418206   1.110   3.471   5.449  0.2433  0.0528 -0.1414
 4609SOL     OW18207   0.619   3.117   1.301 -0.6384  0.3076  0.5700
 4609SOL    HW218208   0.710   3.144   1.289 -0.6117  0.8492  1.8507
 4609SOL    HW318209   0.572   3.198   1.319 -1.4235  0.0603 -0.2785
 4609SOL    MW418210   0.624   3.131   1.302 -0.7384  0.3464  0.6270
 4610SOL     OW18211   4.561   0.576   1.966 -0.0724  0.3738 -0.0840
 4610SOL    HW218212   4.541   0.512   1.897  1.2756  0.1338 -0.2781
 4610SOL    HW318213   4.582   0.522   2.042  0.1901  0.5990  0.0039
 4610SOL    MW418214   4.561   0.560   1.967  0.1401  0.3719 -0.0980
 4611SOL     OW18215   5.926   2.161   3.120  0.1415  0.1997 -0.3365
 4611SOL    HW218216   5.914   2.243   3.072  3.7850  0.1820 -1.6013
 4611SOL    HW318217   5.912   2.184   3.211 -3.1304  1.1367 -0.9428
 4611SOL    MW418218   5.923   2.175   3.125  0.1905  0.3210 -0.5834
 4612SOL     OW18219   5.337   4.972   0.429 -0.3676  0.6554  0.6709
 4612SOL    HW218220   5.425   5.007   0.422 -0.5547  1.2914  1.3599
 4612SOL    HW318221   5.280   5.049   0.426 -0.9651  0.1898 -0.6937
 4612SOL    MW418222   5.341   4.987   0.428 -0.4711  0.6779  0.5818
 4613SOL     OW18223   1.566   4.965   1.448 -0.4294 -0.3688 -0.2403
 4613SOL    HW218224   1.612   4.884   1.427  0.8714  0.1218  0.5886
 4613SOL    HW318225   1.576   5.019   1.370 -0.3264 -0.5806 -0.3760
 4613SOL    MW418226   1.573   4.961   1.435 -0.2442 -0.3320 -0.1488
 4614SOL     OW18227   2.594   4.962   0.341 -0.2148  0.2267 -0.3981
 4614SOL    HW218228   2.648   4.964   0.420  1.3112 -0.7634 -1.3504
 4614SOL    HW318229   2.505   4.952   0.373  0.4066 -0.6445  1.1900
 4614SOL    MW418230   2.589   4.961   0.356  0.0685 -0.0189 -0.3142
 4615SOL     OW18231   0.050   5.527   4.717  0.1681 -0.3822  0.0067
 4615SOL    HW218232   0.003   5.453   4.677 -1.4224  1.0036 -0.8019
 4615SOL    HW318233  -0.005   5.551   4.792  0.0592  0.6840 -0.4055
 4615SOL    MW418234   0.036   5.520   4.722 -0.0561 -0.0587 -0.1544
 4616SOL     OW18235   1.411   5.673   2.244 -1.1319  0.8337  0.0116
 4616SOL    HW218236   1.440   5.615   2.314  0.7839  2.0829  0.3097
 4616SOL    HW318237   1.421   5.761   2.280 -2.8304  1.4277 -0.8527
 4616SOL    MW418238   1.416   5.677   2.258 -1.1032  1.0769 -0.0631
 4617SOL     OW18239   3.557   6.087   1.612  0.7869 -0.2291  0.0706
 4617SOL    HW218240   3.496   6.062   1.543 -0.6880 -0.4409  1.4020
 4617SOL    HW318241   3.620   6.015   1.617  1.2061  0.0125 -1.3485
 4617SOL    MW418242   3.557   6.074   1.604  0.6476 -0.2252  0.0591
 4618SOL     OW18243   0.512   6.085   4.298 -0.2563 -0.4502  0.0769
 4618SOL    HW218244   0.419   6.081   4.278 -0.2971  1.1463 -0.2200
 4618SOL    HW318245   0.555   6.068   4.214 -0.3432  1.1621 -0.3218
 4618SOL    MW418246   0.506   6.082   4.284 -0.2732 -0.0268 -0.0149
 4619SOL     OW18247   3.304   4.264   3.982 -0.9643 -0.2042  0.0383
 4619SOL    HW218248   3.342   4.352   3.992 -0.4608 -0.5399  1.4638
 4619SOL    HW318249   3.227   4.265   4.038 -0.0624 -1.1252  1.3676
 4619SOL    MW418250   3.299   4.276   3.991 -0.7789 -0.3700  0.4017
 4620SOL     OW18251   3.391   1.969   5.484 -0.0295  0.1406  0.3835
 4620SOL    HW218252   3.460   1.904   5.497 -1.6234 -1.6331  0.3357
 4620SOL    HW318253   3.419   2.044   5.538  1.9359 -0.4775  0.3174
 4620SOL    MW418254   3.404   1.970   5.493  0.0195 -0.1750  0.3685
 4621SOL     OW18255   5.489   3.923   4.567 -0.2454  0.1656 -0.3084
 4621SOL    HW218256   5.487   3.960   4.656  0.3570 -0.9332  0.1831
 4621SOL    HW318257   5.397   3.913   4.544 -0.4123  0.9611 -0.0274
 4621SOL    MW418258   5.476   3.927   4.576 -0.1879  0.1256 -0.2065
 4622SOL     OW18259   2.323   0.032   2.766  0.2750 -0.6244 -0.1026
 4622SOL    HW218260   2.260   0.033   2.838  0.1934 -1.2274 -0.1667
 4622SOL    HW318261   2.308   0.115   2.720  0.2746 -0.2692  0.5239
 4622SOL    MW418262   2.313   0.043   2.770  0.2641 -0.6571 -0.0284
 4623SOL     OW18263   1.202   5.324   1.848  0.2728  0.5331  0.5059
 4623SOL    HW218264   1.149   5.403   1.858  0.6530  0.6269  1.9085
 4623SOL    HW318265   1.219   5.295   1.937 -1.2053 -2.0768  0.0206
 4623SOL    MW418266   1.197   5.331   1.861  0.1279  0.2011  0.6269
 4624SOL     OW18267   3.043   1.451   4.126  0.6873 -0.1854 -0.6032
 4624SOL    HW218268   2.964   1.400   4.107 -0.0063  0.5897  0.1232
 4624SOL    HW318269   3.105   1.424   4.058 -0.3595 -0.4494 -1.4939
 4624SOL    MW418270   3.041   1.441   4.115  0.4576 -0.1179 -0.6249
 4625SOL     OW18271   6.366   5.742   3.010  0.0276  0.0755 -0.2188
 4625SOL    HW218272   6.393   5.671   2.952  1.9875  1.5369 -1.2217
 4625SOL    HW318273   6.447   5.790   3.028 -1.0704  1.5177  1.1748
 4625SOL    MW418274   6.380   5.739   3.005  0.1413  0.4586 -0.1672
 4626SOL     OW18275   0.085   3.215   2.703 -0.0473  0.2583  0.4247
 4626SOL    HW218276   0.028   3.268   2.646  1.5457  0.8047 -0.7312
 4626SOL    HW318277   0.049   3.127   2.697 -0.5367  0.5048 -0.6249
 4626SOL    MW418278   0.073   3.211   2.695  0.0983  0.3629  0.1338
 4627SOL     OW18279   2.631   5.712   0.067 -0.1036 -0.1084  0.0922
 4627SOL    HW218280   2.537   5.697   0.067 -0.0675 -0.3488 -0.2418
 4627SOL    HW318281   2.648   5.762   0.148 -0.6813  1.0190 -0.4623
 4627SOL    MW418282   2.621   5.717   0.078 -0.1751  0.0087 -0.0250
 4628SOL     OW18283   1.031   0.678   0.025 -0.2764  0.3774 -0.5404
 4628SOL    HW218284   0.943   0.669   0.062 -0.5494 -2.1762 -1.5773
 4628SOL    HW318285   1.079   0.604   0.062  1.2786  1.3776 -0.4811
 4628SOL    MW418286   1.026   0.667   0.035 -0.1072  0.1725 -0.6694
 4629SOL     OW18287   6.006   4.831   2.946  0.4208  0.3145 -0.4702
 4629SOL    HW218288   6.085   4.886   2.942  0.1985  0.8235  1.1571
 4629SOL    HW318289   5.945   4.881   3.001  0.3875 -1.7201  1.4934
 4629SOL    MW418290   6.009   4.845   2.953  0.3870  0.1132  0.0036
 4630SOL     OW18291   2.339   1.328   0.478 -0.3594 -0.0373  0.2285
 4630SOL    HW218292   2.254   1.348   0.516 -0.2357  2.9342 -0.8080
 4630SOL    HW318293   2.324   1.325   0.384  0.4845 -0.6866  0.0998
 4630SOL    MW418294   2.326   1.330   0.471 -0.2317  0.2691  0.0747
 4631SOL     OW18295   0.433   0.118   0.802  0.0385  0.2155 -0.1869
 4631SOL    HW218296   0.522   0.150   0.798  0.3117 -0.4527  0.2675
 4631SOL    HW318297   0.401   0.146   0.888  0.0718 -0.1772 -0.0411
 4631SOL    MW418298   0.440   0.126   0.813  0.0789  0.0756 -0.1077
 4632SOL     OW18299   2.761   1.909   5.924  0.1937 -0.7548  0.3416
 4632SOL    HW218300   2.773   1.951   5.839  1.4860 -1.3609  0.2009
 4632SOL    HW318301   2.848   1.876   5.947  0.1512  0.3950  2.4460
 4632SOL    MW418302   2.774   1.910   5.916  0.3586 -0.6831  0.6007
 4633SOL     OW18303   3.917   4.694   1.516 -0.5217 -0.2997 -0.1035
 4633SOL    HW218304   4.001   4.707   1.474 -0.5271 -0.9196 -0.3187
 4633SOL    HW318305   3.896   4.778   1.556 -0.2393  0.1222 -0.8363
 4633SOL    MW418306   3.925   4.707   1.516 -0.4852 -0.3258 -0.2286
 4634SOL     OW18307   1.984   1.545   0.788  0.1515 -0.0288 -0.3522
 4634SOL    HW218308   2.047   1.605   0.829 -0.6837  0.0898  0.7953
 4634SOL    HW318309   1.931   1.601   0.732 -0.4833  0.3103  0.5483
 4634SOL    MW418310   1.986   1.561   0.786 -0.0425  0.0316 -0.0820
 4635SOL     OW18311   0.866   4.647   2.198 -0.0889 -0.0960 -0.7553
 4635SOL    HW218312   0.821   4.675   2.118  0.5713 -1.2632 -1.5766
 4635SOL    HW318313   0.935   4.711   2.211 -0.4458  0.3198 -0.8915
 4635SOL    MW418314   0.869   4.659   2.189 -0.0489 -0.1951 -0.8816
 4636SOL     OW18315   0.706   4.766   5.552  0.6398  0.3763 -0.3824
 4636SOL    HW218316   0.685   4.842   5.607  1.2925  1.4578 -1.5679
 4636SOL    HW318317   0.699   4.691   5.611  1.1237  1.4708  1.1375
 4636SOL    MW418318   0.702   4.766   5.567  0.7898  0.6634 -0.3383
 4637SOL     OW18319   4.916   4.777   2.756 -0.7337  0.0662  0.3741
 4637SOL    HW218320   4.843   4.728   2.795 -0.9337  0.5536  0.6391
 4637SOL    HW318321   4.873   4.850   2.711 -0.5521 -0.8658 -1.3735
 4637SOL    MW418322   4.900   4.780   2.755 -0.7361  0.0076  0.1785
 4638SOL     OW18323   3.548   1.165   2.756  0.1726  0.1215  0.2502
 4638SOL    HW218324   3.529   1.221   2.831 -0.8941  0.0717  0.0272
 4638SOL    HW318325   3.550   1.224   2.681 -2.6643 -0.3024 -0.2450
 4638SOL    MW418326   3.546   1.180   2.756 -0.3425  0.0590  0.1554
 4639SOL     OW18327   4.261   5.527   2.434  0.0356  0.2153  0.0184
 4639SOL    HW218328   4.259   5.591   2.363  2.2986  0.0492 -0.2682
 4639SOL    HW318329   4.309   5.453   2.398 -2.6351 -1.8062  0.2917
 4639SOL    MW418330   4.267   5.526   2.420 -0.0182 -0.0733  0.0166
 4640SOL     OW18331   0.022   2.886   4.860  0.4943 -0.0874  0.3185
 4640SOL    HW218332  -0.008   2.967   4.902  0.8715  0.5437 -0.5698
 4640SOL    HW318333   0.075   2.917   4.786 -1.2366 -1.1055 -1.4568
 4640SOL    MW418334   0.025   2.901   4.856  0.3157 -0.1384 -0.0329
 4641SOL     OW18335   1.568   3.653   1.388  0.0536  0.3671 -0.2903
 4641SOL    HW218336   1.544   3.565   1.415  0.9516  0.1348 -0.2273
 4641SOL    HW318337   1.486   3.703   1.394 -0.6449 -0.6313 -1.0816
 4641SOL    MW418338   1.554   3.648   1.392  0.0799  0.2047 -0.3864
 4642SOL     OW18339   1.303   1.330   5.569 -0.0072  0.2414  0.2928
 4642SOL    HW218340   1.310   1.421   5.540  1.0821  0.8597  2.2796
 4642SOL    HW318341   1.217   1.324   5.611  0.6976  0.9615  1.9205
 4642SOL    MW418342   1.293   1.341   5.571  0.2295  0.4179  0.7697
 4643SOL     OW18343   1.491   0.604   2.888 -0.0755 -0.5317 -0.2902
 4643SOL    HW218344   1.512   0.664   2.960 -1.1216 -2.2740  1.5796
 4643SOL    HW318345   1.400   0.624   2.866 -0.6033 -1.6897  0.7007
 4643SOL    MW418346   1.482   0.614   2.895 -0.2831 -0.9143  0.0872
 4644SOL     OW18347   3.146   1.630   2.073 -0.0588 -0.0602 -0.4811
 4644SOL    HW218348   3.072   1.582   2.110  0.2207  0.4447  0.7662
 4644SOL    HW318349   3.221   1.573   2.085  0.0790  0.2157 -0.0198
 4644SOL    MW418350   3.146   1.616   2.079 -0.0037  0.0428 -0.2557
 4645SOL     OW18351   4.445   4.921   4.905  0.2152  0.3939 -1.0180
 4645SOL    HW218352   4.462   4.838   4.950 -0.5627  1.3106  1.0799
 4645SOL    HW318353   4.350   4.932   4.908  0.4040  2.3025  0.6727
 4645SOL    MW418354   4.435   4.912   4.911  0.1375  0.7666 -0.5181
 4646SOL     OW18355   1.117   5.108   2.716  0.4868  0.1158  0.2481
 4646SOL    HW218356   1.029   5.083   2.741 -0.9973  2.1814 -2.4035
 4646SOL    HW318357   1.164   5.118   2.799 -1.9094 -0.4712  1.7622
 4646SOL    MW418358   1.112   5.106   2.730 -0.0252  0.3109  0.0981
 4647SOL     OW18359   2.123   2.505   1.240  0.2590  0.0707  0.2796
 4647SOL    HW218360   2.186   2.570   1.209 -0.0010 -0.0592 -0.5473
 4647SOL    HW318361   2.158   2.476   1.324  2.5244 -1.6363 -1.1384
 4647SOL    MW418362   2.136   2.510   1.247  0.5236 -0.1717 -0.0166
 4648SOL     OW18363   0.540   3.514   5.215  0.0361  0.1379  0.2538
 4648SOL    HW218364   0.553   3.476   5.302 -1.7044  0.9815  0.9338
 4648SOL    HW318365   0.623   3.558   5.196  1.3580 -2.1681  0.3327
 4648SOL    MW418366   0.553   3.515   5.224 -0.0191 -0.0550  0.3539
 4649SOL     OW18367   3.826   1.875   4.693 -0.3240 -0.1609  0.1791
 4649SOL    HW218368   3.862   1.861   4.605  0.4116 -0.8381  0.5779
 4649SOL    HW318369   3.811   1.787   4.727 -1.7199  0.0954  0.3072
 4649SOL    MW418370   3.829   1.862   4.686 -0.4111 -0.2164  0.2486
 4650SOL     OW18371   5.966   2.250   5.022  0.1294  0.2782  0.4919
 4650SOL    HW218372   6.008   2.247   5.108  1.7817 -1.5927 -0.3190
 4650SOL    HW318373   6.035   2.281   4.963 -1.0774  1.8681 -0.1698
 4650SOL    MW418374   5.981   2.254   5.025  0.1882  0.2411  0.2976
 4651SOL     OW18375   0.983   3.227   5.836  0.3515  0.7979  0.2018
 4651SOL    HW218376   1.042   3.213   5.762 -0.1696 -0.5962  0.0237
 4651SOL    HW318377   0.930   3.302   5.810  1.5078  1.5916  0.0447
 4651SOL    MW418378   0.984   3.235   5.823  0.4353  0.7187  0.1576
 4652SOL     OW18379   5.131   2.839   3.016 -0.1834  0.3162  0.0278
 4652SOL    HW218380   5.069   2.817   2.946 -1.0056 -0.4719  0.9847
 4652SOL    HW318381   5.108   2.928   3.041 -0.3184  0.3598 -0.2454
 4652SOL    MW418382   5.120   2.848   3.010 -0.3097  0.2179  0.1180
 4653SOL     OW18383   0.972   1.433   2.609 -0.0802  0.3059  0.8399
 4653SOL    HW218384   0.947   1.519   2.644  1.1505  1.5328 -1.1237
 4653SOL    HW318385   1.060   1.446   2.574 -1.1084 -0.8277 -2.4885
 4653SOL    MW418386   0.980   1.446   2.609 -0.0535  0.3182  0.1417
 4654SOL     OW18387   0.156   4.902   0.396  0.9841 -0.3426  0.3671
 4654SOL    HW218388   0.202   4.972   0.441  1.3398 -1.0747  1.1655
 4654SOL    HW318389   0.224   4.840   0.371  0.6319 -0.5836 -0.0276
 4654SOL    MW418390   0.171   4.903   0.398  0.9846 -0.4710  0.4204
 4655SOL     OW18391   5.026   1.067   5.783  0.1830  0.3448 -0.3438
 4655SOL    HW218392   5.069   1.115   5.712  0.6289  1.2130  0.4896
 4655SOL    HW318393   5.063   1.105   5.863 -1.6136  0.6423  0.3924
 4655SOL    MW418394   5.037   1.079   5.784  0.0048  0.4986 -0.1367
 4656SOL     OW18395   2.997   3.283   2.661  0.1703 -0.0093 -0.3796
 4656SOL    HW218396   2.934   3.213   2.644 -0.3515  0.4141 -0.2212
 4656SOL    HW318397   3.071   3.263   2.604 -0.2874 -0.2875 -0.8897
 4656SOL    MW418398   2.999   3.271   2.651  0.0410  0.0099 -0.4260
 4657SOL     OW18399   4.503   2.779   5.453 -0.4144  0.1848 -0.6771
 4657SOL    HW218400   4.558   2.733   5.516  0.1002  1.7750  0.0804
 4657SOL    HW318401   4.502   2.721   5.376  0.7673 -0.7497 -0.0251
 4657SOL    MW418402   4.510   2.765   5.451 -0.1906  0.2713 -0.4911
 4658SOL     OW18403   1.899   3.263   5.763 -0.6590  0.4459  0.0387
 4658SOL    HW218404   1.822   3.212   5.788 -2.0800  1.8397 -1.2600
 4658SOL    HW318405   1.887   3.280   5.670 -0.5916  3.5954  0.4991
 4658SOL    MW418406   1.887   3.259   5.754 -0.8376  1.0453 -0.0719
 4659SOL     OW18407   5.273   0.216   6.039 -1.0201 -0.4147 -0.4329
 4659SOL    HW218408   5.284   0.275   5.965 -0.4056  1.7644  1.3045
 4659SOL    HW318409   5.179   0.221   6.059 -1.0197 -0.2509 -0.4677
 4659SOL    MW418410   5.262   0.224   6.032 -0.9390 -0.1056 -0.2082
 4660SOL     OW18411   2.051   3.073   0.899 -0.0055  0.1414  0.5481
 4660SOL    HW218412   2.071   3.016   0.974 -0.0047 -2.5517 -1.3340
 4660SOL    HW318413   1.968   3.039   0.865  0.9567 -0.0517 -1.7872
 4660SOL    MW418414   2.043   3.061   0.905  0.1215 -0.2394 -0.0083
 4661SOL     OW18415   1.111   1.656   1.955  0.1340 -0.0543  0.6453
 4661SOL    HW218416   1.150   1.651   2.043 -0.0500  0.9288  0.7936
 4661SOL    HW318417   1.184   1.640   1.896  0.1404 -1.3761  0.9734
 4661SOL    MW418418   1.126   1.653   1.959  0.1106 -0.0990  0.7082
 4662SOL     OW18419   4.348   4.429   2.684  0.2827  0.1023 -0.2831
 4662SOL    HW218420   4.257   4.458   2.684  0.1330 -0.3351  0.2937
 4662SOL    HW318421   4.399   4.510   2.690 -0.1050  0.2973  0.5860
 4662SOL    MW418422   4.343   4.444   2.685  0.2118  0.0703 -0.0924
 4663SOL     OW18423   5.261   1.918   1.058  0.2016  0.9708 -0.1727
 4663SOL    HW218424   5.340   1.968   1.078  0.6634  0.6005 -1.0070
 4663SOL    HW318425   5.288   1.827   1.063 -0.7667  0.7492  1.8589
 4663SOL    MW418426   5.275   1.913   1.061  0.1348  0.8927 -0.0147
 4664SOL     OW18427   1.705   0.832   2.419  0.5011 -0.3807 -0.3492
 4664SOL    HW218428   1.651   0.756   2.398  0.7928 -0.6927  0.0166
 4664SOL    HW318429   1.644   0.895   2.457  0.6183 -1.3046  1.4728
 4664SOL    MW418430   1.690   0.830   2.421  0.5551 -0.5438 -0.0605
 4665SOL     OW18431   4.303   0.748   1.695  0.1935 -0.3675  0.2492
 4665SOL    HW218432   4.250   0.691   1.639  2.6129 -1.6522 -0.8766
 4665SOL    HW318433   4.307   0.702   1.778  0.3444 -0.7559  0.0300
 4665SOL    MW418434   4.296   0.735   1.698  0.5326 -0.5883  0.0718
 4666SOL     OW18435   4.494   1.870   6.401  0.2876  0.4721  0.4812
 4666SOL    HW218436   4.578   1.828   6.418  0.5565  1.1253  0.7962
 4666SOL    HW318437   4.505   1.960   6.432 -0.1075  0.9339 -0.6515
 4666SOL    MW418438   4.506   1.876   6.407  0.2709  0.6192  0.3733
 4667SOL     OW18439   2.900   2.106   1.925  0.0984  0.2330  0.4577
 4667SOL    HW218440   2.933   2.087   2.012 -0.9268 -1.0796  0.5949
 4667SOL    HW318441   2.850   2.028   1.901 -0.6247  1.0529 -0.8133
 4667SOL    MW418442   2.898   2.093   1.933 -0.1323  0.1680  0.3081
 4668SOL     OW18443   5.698   5.214   1.418  0.0782 -0.0638 -0.9487
 4668SOL    HW218444   5.712   5.305   1.444 -0.3735  0.0931 -1.2436
 4668SOL    HW318445   5.655   5.174   1.493  0.2938 -0.0335 -0.8110
 4668SOL    MW418446   5.694   5.221   1.431  0.0470 -0.0391 -0.9694
 4669SOL     OW18447   5.846   5.310   0.775  0.1707 -0.1435  0.2677
 4669SOL    HW218448   5.755   5.340   0.775 -0.0010 -0.5268 -1.6190
 4669SOL    HW318449   5.848   5.239   0.838 -1.0462 -0.6573 -0.2367
 4669SOL    MW418450   5.834   5.305   0.783 -0.0125 -0.2619 -0.0478
 4670SOL     OW18451   5.583   1.726   4.707  0.3862 -0.0543 -0.0035
 4670SOL    HW218452   5.667   1.689   4.680  0.8260 -1.3480  2.7752
 4670SOL    HW318453   5.548   1.663   4.771 -1.3188  1.8530  1.0974
 4670SOL    MW418454   5.589   1.713   4.712  0.2193  0.0267  0.5083
 4671SOL     OW18455   0.482   4.366   2.230 -0.0803 -0.0854 -0.1357
 4671SOL    HW218456   0.559   4.406   2.271  2.0761 -0.1683 -3.6830
 4671SOL    HW318457   0.510   4.278   2.207 -1.5666 -0.4256 -0.7793
 4671SOL    MW418458   0.496   4.359   2.232  0.0081 -0.1412 -0.6886
 4672SOL     OW18459   5.999   3.329   3.911  0.0657  0.4168 -0.0722
 4672SOL    HW218460   6.032   3.252   3.957 -2.3712 -1.6243 -1.4895
 4672SOL    HW318461   5.963   3.385   3.979  1.7638  0.3088  0.9693
 4672SOL    MW418462   5.999   3.326   3.926 -0.0318  0.1332 -0.1218
 4673SOL     OW18463   4.723   4.920   0.131 -0.3221  0.4932 -0.5795
 4673SOL    HW218464   4.724   4.860   0.056  0.2519 -0.1689 -0.0421
 4673SOL    HW318465   4.660   4.881   0.192  1.0153 -0.2774  0.3393
 4673SOL    MW418466   4.715   4.907   0.129 -0.0699  0.3042 -0.3873
 4674SOL     OW18467   1.484   5.407   1.989 -0.0272  0.2791 -0.3686
 4674SOL    HW218468   1.499   5.331   1.933  0.4815 -0.7071  1.0638
 4674SOL    HW318469   1.425   5.376   2.057 -0.6282  1.4598 -0.3211
 4674SOL    MW418470   1.479   5.393   1.990 -0.0394  0.3047 -0.1734
 4675SOL     OW18471   2.025   3.806   1.895 -0.3515 -0.1792 -0.2179
 4675SOL    HW218472   2.058   3.727   1.853  3.2533  1.4817 -0.9286
 4675SOL    HW318473   2.017   3.783   1.988 -2.5594 -2.1740 -0.8071
 4675SOL    MW418474   2.028   3.793   1.902 -0.1672 -0.2233 -0.3894
 4676SOL     OW18475   1.934   4.393   3.954  0.3329 -0.3080 -0.2381
 4676SOL    HW218476   1.900   4.307   3.979 -0.9831  0.1091 -0.5583
 4676SOL    HW318477   1.955   4.385   3.861  1.2343 -0.5934 -0.0190
 4676SOL    MW418478   1.932   4.381   3.945  0.2782 -0.2907 -0.2514
 4677SOL     OW18479   6.055   1.840   3.941  0.3145  0.7422 -0.0026
 4677SOL    HW218480   6.006   1.878   3.868  0.0281 -0.8401 -0.6764
 4677SOL    HW318481   6.142   1.823   3.904  0.2706  0.2411  0.1295
 4677SOL    MW418482   6.060   1.843   3.926  0.2709  0.4673 -0.0741
 4678SOL     OW18483   3.193   1.108   3.056  0.1907 -0.0237  0.1587
 4678SOL    HW218484   3.106   1.079   3.030  0.2495 -0.7967  0.7663
 4678SOL    HW318485   3.222   1.041   3.119  1.0730  0.4135  0.2276
 4678SOL    MW418486   3.185   1.095   3.061  0.3148 -0.0680  0.2480
 4679SOL     OW18487   1.063   5.344   2.327  0.2830  0.5165 -0.1602
 4679SOL    HW218488   1.116   5.414   2.366 -0.1180  1.3630 -1.0937
 4679SOL    HW318489   0.974   5.362   2.357  0.4140 -0.5917  0.9658
 4679SOL    MW418490   1.059   5.356   2.336  0.2474  0.4820 -0.1348
 4680SOL     OW18491   3.454   1.104   2.306  0.3946 -0.0069  0.4798
 4680SOL    HW218492   3.422   1.066   2.388  1.9453  1.3331  1.7996
 4680SOL    HW318493   3.549   1.107   2.317  0.4525  3.4190  0.1855
 4680SOL    MW418494   3.462   1.099   2.319  0.6069  0.6219  0.6151
 4681SOL     OW18495   3.993   0.770   1.292 -0.5927 -0.1033  0.6663
 4681SOL    HW218496   3.933   0.787   1.220  1.6049  1.9319 -0.8759
 4681SOL    HW318497   3.994   0.852   1.341 -0.1045 -0.5737  1.4508
 4681SOL    MW418498   3.985   0.783   1.289 -0.2384  0.1031  0.5664
 4682SOL     OW18499   2.579   3.909   2.777  0.6385 -0.2303 -0.3246
 4682SOL    HW218500   2.569   3.868   2.863 -2.3787 -0.1574 -0.5428
 4682SOL    HW318501   2.659   3.961   2.784  0.2931  0.0629  2.5540
 4682SOL    MW418502   2.588   3.910   2.789  0.1949 -0.1820  0.0264
 4683SOL     OW18503   4.616   3.819   5.261  0.1268  0.3292  0.6510
 4683SOL    HW218504   4.583   3.895   5.310  3.2828  0.6476  2.5838
 4683SOL    HW318505   4.673   3.857   5.193 -0.0635 -0.2551  0.1584
 4683SOL    MW418506   4.619   3.834   5.258  0.5181  0.2941  0.8410
 4684SOL     OW18507   4.905   3.179   4.077  0.0534  0.0630  0.5330
 4684SOL    HW218508   4.861   3.095   4.085 -0.1143  0.0305 -0.6308
 4684SOL    HW318509   4.847   3.241   4.121 -0.5511 -0.1794  0.0786
 4684SOL    MW418510   4.892   3.176   4.084 -0.0484  0.0267  0.3195
 4685SOL     OW18511   3.080   0.673   4.795  0.0803  0.7471  0.6472
 4685SOL    HW218512   3.024   0.640   4.726  2.0301  0.1968 -0.7715
 4685SOL    HW318513   3.125   0.748   4.755  0.6133  0.9664  1.6178
 4685SOL    MW418514   3.079   0.679   4.781  0.4078  0.7034  0.5881
 4686SOL     OW18515   2.434   3.902   1.427  0.3180 -0.1489 -0.7760
 4686SOL    HW218516   2.480   3.831   1.384  2.0808 -1.1525  2.4272
 4686SOL    HW318517   2.474   3.982   1.391  3.9839 -0.9588  0.9778
 4686SOL    MW418518   2.446   3.903   1.417  1.0342 -0.3882 -0.1220
 4687SOL     OW18519   4.112   1.120   3.930 -0.5192 -0.1460  0.5405
 4687SOL    HW218520   4.188   1.075   3.965  0.6431  1.9812  0.9492
 4687SOL    HW318521   4.040   1.057   3.938  1.0882 -2.0778  0.4870
 4687SOL    MW418522   4.112   1.106   3.936 -0.1538 -0.1203  0.5873
 4688SOL     OW18523   1.759   5.079   0.250 -0.1776  0.7176 -0.0264
 4688SOL    HW218524   1.727   5.040   0.169 -0.6971 -0.9332  0.9175
 4688SOL    HW318525   1.754   5.008   0.314  2.4476  1.2651  0.9184
 4688SOL    MW418526   1.754   5.064   0.248  0.1002  0.5720  0.2228
 4689SOL     OW18527   5.982   0.783   4.600 -0.1359 -0.2367 -0.1025
 4689SOL    HW218528   5.920   0.846   4.564  0.0836  0.0981  0.1025
 4689SOL    HW318529   6.067   0.812   4.568  0.0052 -0.2264  0.2755
 4689SOL    MW418530   5.985   0.795   4.591 -0.0883 -0.1912 -0.0256
 4690SOL     OW18531   3.772   4.785   6.263  0.2253 -0.3384 -0.2704
 4690SOL    HW218532   3.767   4.711   6.202  1.1277 -2.1173  1.6761
 4690SOL    HW318533   3.781   4.744   6.350  1.8703  2.0482  0.8025
 4690SOL    MW418534   3.773   4.770   6.267  0.5614 -0.2583  0.1280
 4691SOL     OW18535   1.989   5.657   1.399  0.3418  0.2253 -0.0412
 4691SOL    HW218536   1.995   5.632   1.307  1.4678  0.3841 -0.0267
 4691SOL    HW318537   1.909   5.616   1.430  0.6587 -0.9790 -0.7453
 4691SOL    MW418538   1.979   5.649   1.391  0.5322  0.0874 -0.1322
 4692SOL     OW18539   1.458   0.257   3.402  0.1254  0.5880  0.6048
 4692SOL    HW218540   1.415   0.252   3.487  1.5041 -1.6830  1.2781
 4692SOL    HW318541   1.387   0.255   3.339 -0.8792  0.2229  1.7029
 4692SOL    MW418542   1.443   0.256   3.405  0.1747  0.2402  0.8385
 4693SOL     OW18543   5.252   0.157   2.522  0.0109  0.0321  0.3696
 4693SOL    HW218544   5.252   0.128   2.431  0.1313 -0.5098  0.5354
 4693SOL    HW318545   5.258   0.075   2.573  1.3081  0.3817  0.8296
 4693SOL    MW418546   5.253   0.142   2.517  0.1979  0.0067  0.4522
 4694SOL     OW18547   4.935   1.515   1.817  0.4182 -0.0052  0.2600
 4694SOL    HW218548   4.864   1.540   1.758  0.0075 -0.8020  0.4018
 4694SOL    HW318549   4.890   1.480   1.894  0.9535  0.6017  0.8634
 4694SOL    MW418550   4.919   1.514   1.820  0.4347 -0.0303  0.3583
 4695SOL     OW18551   3.135   3.616   3.145  0.2888 -0.1054  0.5822
 4695SOL    HW218552   3.110   3.526   3.122  0.4383 -0.4396  1.6652
 4695SOL    HW318553   3.213   3.634   3.091  1.6596 -1.4871  1.9971
 4695SOL    MW418554   3.142   3.606   3.134  0.4894 -0.3318  0.9117
 4696SOL     OW18555   1.854   3.823   1.178 -0.0905 -0.4156 -0.1739
 4696SOL    HW218556   1.869   3.809   1.084  0.7899  1.1084 -0.2914
 4696SOL    HW318557   1.928   3.779   1.220 -1.1364 -2.1601 -0.0922
 4696SOL    MW418558   1.866   3.815   1.171 -0.1123 -0.4447 -0.1786
 4697SOL     OW18559   2.486   2.212   3.534  1.0265 -0.1340 -0.5215
 4697SOL    HW218560   2.555   2.258   3.485  2.7112 -3.6082 -1.6846
 4697SOL    HW318561   2.533   2.149   3.588 -1.1057  0.2487  1.9899
 4697SOL    MW418562   2.501   2.210   3.535  0.9675 -0.5419 -0.3436
 4698SOL     OW18563   4.687   6.340   5.899 -0.0477  0.4275  0.2459
 4698SOL    HW218564   4.613   6.279   5.907  0.3144 -0.1278 -0.5378
 4698SOL    HW318565   4.756   6.301   5.952 -0.3089  0.9526  0.9865
 4698SOL    MW418566   4.686   6.327   5.907 -0.0344  0.4236  0.2402
 4699SOL     OW18567   1.518   5.142   1.880 -0.0913  0.2291  0.0237
 4699SOL    HW218568   1.448   5.079   1.863 -0.8594  1.1112 -0.1745
 4699SOL    HW318569   1.562   5.153   1.796 -0.5483  0.6416 -0.1678
 4699SOL    MW418570   1.515   5.135   1.867 -0.2529  0.3999 -0.0277
 4700SOL     OW18571   0.987   2.830   2.615 -0.6036 -0.2327 -0.0241
 4700SOL    HW218572   1.027   2.756   2.661  0.5709  0.9164  0.8798
 4700SOL    HW318573   0.971   2.895   2.684  1.2870  1.5804 -1.1931
 4700SOL    MW418574   0.990   2.829   2.630 -0.1992  0.1581 -0.0590
 4701SOL     OW18575   4.655   0.711   6.401 -0.8251  0.2208 -0.5285
 4701SOL    HW218576   4.742   0.736   6.432 -0.1351 -0.2659 -1.9477
 4701SOL    HW318577   4.650   0.748   6.313 -1.4307 -1.0512 -1.0542
 4701SOL    MW418578   4.666   0.719   6.393 -0.8140 -0.0112 -0.7851
 4702SOL     OW18579   1.464   2.189   5.673 -0.4754  0.6112  0.9802
 4702SOL    HW218580   1.550   2.173   5.713 -1.4568 -0.4525  2.8282
 4702SOL    HW318581   1.484   2.217   5.584  1.7662 -2.0789  0.4756
 4702SOL    MW418582   1.478   2.191   5.667 -0.3091  0.1159  1.1574
 4703SOL     OW18583   1.019   6.075   1.768  0.3562 -0.4120  0.1619
 4703SOL    HW218584   0.977   5.989   1.756  0.4592 -0.8190  2.3453
 4703SOL    HW318585   1.109   6.054   1.792  0.3780  0.2891  0.7386
 4703SOL    MW418586   1.025   6.061   1.770  0.3727 -0.3732  0.5261
 4704SOL     OW18587   2.905   4.947   3.501  0.3327  0.3099  0.6785
 4704SOL    HW218588   2.966   4.896   3.553  1.5886  1.2865  0.2194
 4704SOL    HW318589   2.870   5.013   3.562  0.4990  0.3742  0.7053
 4704SOL    MW418590   2.909   4.949   3.516  0.5203  0.4472  0.6215
 4705SOL     OW18591   0.997   3.711   5.690 -0.3803  0.1340 -0.5325
 4705SOL    HW218592   1.030   3.767   5.761 -0.4925  1.7494 -1.6973
 4705SOL    HW318593   1.064   3.717   5.622 -0.9527 -0.2138 -1.1373
 4705SOL    MW418594   1.010   3.719   5.690 -0.4707  0.3012 -0.7659
 4706SOL     OW18595   3.267   4.863   1.457  0.5202  0.1646 -0.4223
 4706SOL    HW218596   3.251   4.859   1.362  1.4234 -2.2345 -0.5495
 4706SOL    HW318597   3.251   4.954   1.480  0.9170  0.9726 -3.0057
 4706SOL    MW418598   3.263   4.874   1.447  0.6917 -0.0453 -0.7799
 4707SOL     OW18599   5.233   0.456   5.549  0.3730 -0.5329 -0.2752
 4707SOL    HW218600   5.258   0.545   5.524  0.1792 -0.7258 -1.1979
 4707SOL    HW318601   5.304   0.402   5.514 -0.0267 -0.8321 -0.6340
 4707SOL    MW418602   5.246   0.461   5.541  0.2947 -0.5979 -0.4443
 4708SOL     OW18603   4.173   1.025   0.523 -0.2210 -0.1827 -0.5176
 4708SOL    HW218604   4.078   1.033   0.530 -0.1607  0.1851 -0.0757
 4708SOL    HW318605   4.202   1.001   0.611  0.1379  0.1575 -0.5398
 4708SOL    MW418606   4.165   1.023   0.536 -0.1656 -0.0893 -0.4622
 4709SOL     OW18607   4.722   4.300   5.141 -0.0647  0.1544  0.6967
 4709SOL    HW218608   4.754   4.373   5.089  0.6688 -1.1698 -0.8150
 4709SOL    HW318609   4.651   4.337   5.195 -0.0024  1.8488 -0.3287
 4709SOL    MW418610   4.717   4.314   5.141  0.0403  0.2032  0.3620
 4710SOL     OW18611   5.726   2.399   5.990  0.4099  0.1980  0.3489
 4710SOL    HW218612   5.741   2.396   6.084 -1.6434 -0.1267  0.7082
 4710SOL    HW318613   5.715   2.492   5.970  0.8905  0.2703  0.4067
 4710SOL    MW418614   5.726   2.411   6.000  0.2024  0.1647  0.4039
 4711SOL     OW18615   6.417   1.478   2.728 -0.5042 -0.3523  0.0266
 4711SOL    HW218616   6.467   1.552   2.763  2.3670 -1.9177 -0.4677
 4711SOL    HW318617   6.407   1.497   2.635  0.4461 -0.6320 -0.1489
 4711SOL    MW418618   6.422   1.490   2.721  0.0000 -0.5958 -0.0618
 4712SOL     OW18619   4.929   0.372   2.367  0.6954 -0.3879  0.1901
 4712SOL    HW218620   4.955   0.445   2.423  0.7933  0.6492 -1.1427
 4712SOL    HW318621   5.000   0.364   2.303  1.1026 -2.2312  0.8171
 4712SOL    MW418622   4.942   0.381   2.366  0.7620 -0.4942  0.0970
 4713SOL     OW18623   2.800   2.332   0.216  0.5781  0.3354 -0.0087
 4713SOL    HW218624   2.780   2.397   0.149  2.2506  0.3231 -0.5748
 4713SOL    HW318625   2.894   2.342   0.232  0.9749 -2.1906 -0.4000
 4713SOL    MW418626   2.810   2.342   0.209  0.8511  0.0005 -0.1350
 4714SOL     OW18627   2.964   4.256   3.049 -0.1878 -0.4497 -0.0990
 4714SOL    HW218628   2.944   4.166   3.026 -1.0106 -0.0595 -0.9393
 4714SOL    HW318629   3.059   4.264   3.036  0.0126 -1.3824  0.6938
 4714SOL    MW418630   2.974   4.245   3.044 -0.2699 -0.5213 -0.1053
 4715SOL     OW18631   4.659   0.741   4.207 -0.6197 -0.0828 -0.1060
 4715SOL    HW218632   4.679   0.651   4.180  0.2579  0.1036 -0.0831
 4715SOL    HW318633   4.692   0.747   4.296 -0.6441  0.2825 -0.1196
 4715SOL    MW418634   4.666   0.730   4.215 -0.5071 -0.0100 -0.1048
 4716SOL     OW18635   5.131   2.962   3.970 -0.1845  0.6420  0.7332
 4716SOL    HW218636   5.085   2.972   3.887 -0.2490  1.7739  0.8876
 4716SOL    HW318637   5.193   2.891   3.955 -1.0196  0.0423  0.0882
 4716SOL    MW418638   5.133   2.954   3.957 -0.3032  0.7122  0.6685
 4717SOL     OW18639   2.265   5.049   4.670  0.6280  0.1117 -0.2375
 4717SOL    HW218640   2.352   5.049   4.712  0.9151 -2.0075 -0.7455
 4717SOL    HW318641   2.261   4.966   4.623 -1.4244  0.4947 -0.8156
 4717SOL    MW418642   2.276   5.038   4.670  0.3951 -0.1174 -0.3808
 4718SOL     OW18643   2.903   4.731   0.908  0.2166 -0.1944 -0.3551
 4718SOL    HW218644   2.923   4.691   0.993 -2.1499 -0.3986  0.1715
 4718SOL    HW318645   2.824   4.686   0.878  1.2306 -0.4499 -2.9264
 4718SOL    MW418646   2.895   4.720   0.915  0.0381 -0.2550 -0.6249
 4719SOL     OW18647   0.580   6.343   4.112  0.0909 -0.4224 -0.1262
 4719SOL    HW218648   0.548   6.384   4.192 -0.4385 -1.0903  0.0117
 4719SOL    HW318649   0.623   6.263   4.141 -0.3417 -0.8050 -0.5217
 4719SOL    MW418650   0.582   6.338   4.126 -0.0360 -0.5610 -0.1602
 4720SOL     OW18651   0.539   2.131   6.407 -0.1732  0.5126  0.5961
 4720SOL    HW218652   0.596   2.175   6.344 -0.4969  1.5040  0.9866
 4720SOL    HW318653   0.452   2.166   6.391 -0.3588  0.3509  1.2098
 4720SOL    MW418654   0.535   2.141   6.396 -0.2404  0.6220  0.7286
 4721SOL     OW18655   6.047   4.143   4.941 -0.2420 -0.2073 -0.0260
 4721SOL    HW218656   5.953   4.155   4.950 -0.0611  0.0597  1.8269
 4721SOL    HW318657   6.083   4.232   4.938  0.0741 -0.2791  1.0992
 4721SOL    MW418658   6.039   4.156   4.942 -0.1764 -0.1816  0.3669
 4722SOL     OW18659   2.091   2.602   3.017  0.7368  0.2994 -0.2883
 4722SOL    HW218660   2.155   2.532   3.027  0.5034  0.1197 -0.0359
 4722SOL    HW318661   2.007   2.562   3.041  0.8605  1.1515  1.8132
 4722SOL    MW418662   2.088   2.588   3.022  0.7224  0.3881  0.0223
 4723SOL     OW18663   5.124   5.994   1.746  0.6744 -0.3534  0.1415
 4723SOL    HW218664   5.152   5.914   1.791  1.3318 -0.5371 -0.5587
 4723SOL    HW318665   5.089   5.963   1.662  1.8257  0.1383 -0.5503
 4723SOL    MW418666   5.123   5.979   1.741  0.9130 -0.3128 -0.0422
 4724SOL     OW18667   5.654   3.263   4.036  0.3097 -0.4688 -0.1121
 4724SOL    HW218668   5.693   3.256   4.122 -1.1478  0.6330  0.6953
 4724SOL    HW318669   5.573   3.213   4.042  0.2388 -0.4627 -0.8687
 4724SOL    MW418670   5.648   3.256   4.048  0.1080 -0.3226 -0.1054
 4725SOL     OW18671   4.571   5.923   3.569  0.2589  0.1239 -0.5894
 4725SOL    HW218672   4.618   5.841   3.556 -0.3799 -0.4799  0.7184
 4725SOL    HW318673   4.494   5.915   3.512  1.1855  0.6994 -1.9825
 4725SOL    MW418674   4.567   5.911   3.559  0.2968  0.1202 -0.6006
 4726SOL     OW18675   1.591   2.681   3.194 -0.2854 -0.2106 -0.7349
 4726SOL    HW218676   1.564   2.729   3.116 -0.3605  0.3956 -0.3388
 4726SOL    HW318677   1.651   2.740   3.240 -0.9621 -0.1743  0.1454
 4726SOL    MW418678   1.595   2.695   3.190 -0.3846 -0.1258 -0.5665
 4727SOL     OW18679   3.422   3.383   2.529 -0.0942 -0.1230 -0.0293
 4727SOL    HW218680   3.416   3.333   2.610  1.1573  0.5535  0.5126
 4727SOL    HW318681   3.463   3.323   2.467 -0.3000 -0.3727  0.0741
 4727SOL    MW418682   3.427   3.368   2.531  0.0438 -0.0667  0.0559
 4728SOL     OW18683   2.768   2.328   1.810  0.2909 -0.1492 -0.4658
 4728SOL    HW218684   2.799   2.333   1.720 -1.4465 -0.4407 -1.1022
 4728SOL    HW318685   2.825   2.262   1.850 -0.5541 -1.9495 -2.0804
 4728SOL    MW418686   2.780   2.320   1.804 -0.0498 -0.4252 -0.7628
 4729SOL     OW18687   1.534   1.266   3.799  0.0282 -0.2216 -0.2312
 4729SOL    HW218688   1.604   1.228   3.747  1.4776  0.0581  1.4136
 4729SOL    HW318689   1.520   1.203   3.870  1.5381  1.5650  1.7861
 4729SOL    MW418690   1.541   1.253   3.802  0.4187  0.0510  0.2520
 4730SOL     OW18691   5.610   5.919   3.473 -0.0692  0.0912 -0.3506
 4730SOL    HW218692   5.641   5.863   3.402  0.6400  0.5544 -0.4239
 4730SOL    HW318693   5.526   5.881   3.499 -0.8105  0.4472 -2.0576
 4730SOL    MW418694   5.603   5.907   3.467 -0.0734  0.1993 -0.5855
 4731SOL     OW18695   3.209   2.948   0.467 -0.1021 -0.5900 -0.0105
 4731SOL    HW218696   3.295   2.969   0.432 -0.2839 -0.1491 -0.1974
 4731SOL    HW318697   3.148   3.000   0.415 -0.3907 -0.0417  0.8467
 4731SOL    MW418698   3.212   2.958   0.456 -0.1642 -0.4595  0.0779
 4732SOL     OW18699   5.575   1.278   0.705  0.2247 -0.5144 -0.0579
 4732SOL    HW218700   5.578   1.183   0.716  0.7218 -0.5404 -0.4146
 4732SOL    HW318701   5.601   1.293   0.615 -0.3975 -0.0674 -0.1691
 4732SOL    MW418702   5.579   1.267   0.695  0.2082 -0.4589 -0.1196
 4733SOL     OW18703   0.347   1.474   2.520  0.2679  0.2866  0.2747
 4733SOL    HW218704   0.268   1.424   2.501 -0.8374  1.3257  1.8674
 4733SOL    HW318705   0.352   1.476   2.615  0.2712  3.1003  0.3116
 4733SOL    MW418706   0.337   1.468   2.530  0.1225  0.7949  0.4897
 4734SOL     OW18707   2.135   3.327   1.003  0.3476  0.3791  0.3214
 4734SOL    HW218708   2.105   3.251   0.952  1.1858  0.5131 -0.4038
 4734SOL    HW318709   2.197   3.289   1.066  0.6869  0.4301  0.0277
 4734SOL    MW418710   2.140   3.312   1.005  0.5030  0.4035  0.1870
 4735SOL     OW18711   2.916   2.092   4.073  0.6147  0.2392 -0.3542
 4735SOL    HW218712   2.992   2.053   4.117  0.7631  2.0887  1.1758
 4735SOL    HW318713   2.842   2.070   4.129 -0.0809 -1.7222 -1.9444
 4735SOL    MW418714   2.917   2.084   4.086  0.5425  0.2244 -0.3621
 4736SOL     OW18715   4.095   1.184   6.281  0.0838 -0.3735  0.2168
 4736SOL    HW218716   4.157   1.230   6.337 -0.0422  1.6633 -1.2069
 4736SOL    HW318717   4.147   1.156   6.205 -0.2869 -0.6846  0.0702
 4736SOL    MW418718   4.110   1.186   6.278  0.0183 -0.1458  0.0096
 4737SOL     OW18719   0.032   5.356   4.473  0.2404 -0.0507  0.2600
 4737SOL    HW218720  -0.035   5.289   4.480 -0.0039 -0.2634 -2.7684
 4737SOL    HW318721   0.114   5.309   4.487  0.0463 -1.0304 -1.4965
 4737SOL    MW418722   0.034   5.341   4.475  0.1826 -0.2081 -0.3713
 4738SOL     OW18723   3.967   5.215   4.474 -0.1701 -0.3625  0.5918
 4738SOL    HW218724   4.030   5.178   4.412 -1.9397  0.0869 -1.5981
 4738SOL    HW318725   3.963   5.308   4.451 -1.8759 -0.4535  0.4177
 4738SOL    MW418726   3.975   5.223   4.462 -0.6286 -0.3152  0.2799
 4739SOL     OW18727   2.990   1.611   1.196  0.2261  0.2039 -0.3252
 4739SOL    HW218728   2.920   1.594   1.260  0.1764  0.4049 -0.3258
 4739SOL    HW318729   2.949   1.668   1.130 -0.4790 -1.9929 -1.8997
 4739SOL    MW418730   2.975   1.617   1.196  0.1265 -0.0594 -0.5330
 4740SOL     OW18731   0.841   1.335   4.009 -0.4342 -0.2974 -0.1695
 4740SOL    HW218732   0.767   1.365   3.957 -0.7570  0.2690  0.5903
 4740SOL    HW318733   0.902   1.409   4.008  0.0703 -0.7078 -0.6761
 4740SOL    MW418734   0.839   1.349   4.002 -0.4103 -0.2768 -0.1361
 4741SOL     OW18735   0.060   3.084   6.204  0.3485  0.0407 -0.0189
 4741SOL    HW218736   0.080   3.176   6.222  2.7101 -0.3030 -0.5381
 4741SOL    HW318737  -0.002   3.087   6.132  1.2690  1.2693 -0.8139
 4741SOL    MW418738   0.055   3.097   6.197  0.7815  0.1574 -0.1923
 4742SOL     OW18739   0.281   2.228   6.351 -0.2542  0.4023  0.4199
 4742SOL    HW218740   0.275   2.235   6.255 -0.6256  0.8578  0.4703
 4742SOL    HW318741   0.201   2.182   6.377 -1.6838  2.8860  0.7474
 4742SOL    MW418742   0.270   2.223   6.341 -0.4918  0.7901  0.4698
 4743SOL     OW18743   4.896   4.453   4.443  0.9028  0.1074 -0.2528
 4743SOL    HW218744   4.986   4.429   4.468  0.7361  0.7567  1.0224
 4743SOL    HW318745   4.906   4.495   4.357  1.8018  0.0372 -0.1939
 4743SOL    MW418746   4.909   4.455   4.435  0.9994  0.1838 -0.0768
 4744SOL     OW18747   4.107   3.200   4.588  0.0654  0.2104 -0.5092
 4744SOL    HW218748   4.022   3.232   4.617  0.5555 -0.2277  1.5323
 4744SOL    HW318749   4.146   3.274   4.541 -0.5340  1.1724  0.4657
 4744SOL    MW418750   4.101   3.214   4.585  0.0510  0.2795 -0.1112
 4745SOL     OW18751   0.626   6.061   5.686 -0.3710  0.1579  0.6352
 4745SOL    HW218752   0.639   5.980   5.734  0.8237  0.5523  1.0166
 4745SOL    HW318753   0.611   6.127   5.754 -0.3025  0.4365  0.3816
 4745SOL    MW418754   0.626   6.059   5.701 -0.2043  0.2467  0.6521
 4746SOL     OW18755   4.497   0.576   3.669 -0.5368  0.1484  0.2061
 4746SOL    HW218756   4.530   0.617   3.748 -0.7019 -0.7344  0.7448
 4746SOL    HW318757   4.539   0.624   3.597 -2.3050  2.6553  0.7045
 4746SOL    MW418758   4.507   0.588   3.670 -0.7919  0.3627  0.3429
 4747SOL     OW18759   4.811   5.227   0.296  0.0636 -0.7716  0.1531
 4747SOL    HW218760   4.820   5.137   0.266 -1.2091 -1.1438  0.8171
 4747SOL    HW318761   4.725   5.254   0.265 -1.4795 -1.2931  3.5609
 4747SOL    MW418762   4.801   5.219   0.288 -0.3079 -0.8895  0.6903
 4748SOL     OW18763   3.871   3.843   1.807 -0.3908 -0.0989 -0.0735
 4748SOL    HW218764   3.909   3.930   1.820 -2.3348  0.8441 -0.3364
 4748SOL    HW318765   3.776   3.858   1.806 -0.8356 -2.3956  1.0710
 4748SOL    MW418766   3.863   3.857   1.809 -0.7059 -0.2775  0.0428
 4749SOL     OW18767   0.850   2.169   4.938 -0.1223  0.3877 -0.6049
 4749SOL    HW218768   0.791   2.111   4.986  0.3832 -0.7814 -1.3598
 4749SOL    HW318769   0.935   2.125   4.941  0.7558  2.0294  0.4669
 4749SOL    MW418770   0.853   2.156   4.945  0.0602  0.4500 -0.5631
 4750SOL     OW18771   6.079   4.703   0.424  0.7585  0.2322 -0.1063
 4750SOL    HW218772   6.008   4.692   0.361  0.6319 -2.1857  0.3915
 4750SOL    HW318773   6.158   4.680   0.376  0.9399  0.6214  0.0004
 4750SOL    MW418774   6.080   4.699   0.410  0.7658 -0.0354 -0.0265
 4751SOL     OW18775   1.683   2.553   2.032 -0.1959  0.1017 -0.1037
 4751SOL    HW218776   1.669   2.593   1.947 -0.9449  1.1571  0.4958
 4751SOL    HW318777   1.632   2.471   2.028  0.2560 -0.1519 -0.8599
 4751SOL    MW418778   1.674   2.547   2.020 -0.2351  0.2075 -0.1244
 4752SOL     OW18779   4.870   1.428   4.949 -0.0124  0.3804 -0.2523
 4752SOL    HW218780   4.908   1.418   5.036  1.6385 -0.7576 -1.0469
 4752SOL    HW318781   4.792   1.481   4.963  0.7543  1.0858  1.7727
 4752SOL    MW418782   4.865   1.434   4.962  0.3065  0.3233 -0.0900
 4753SOL     OW18783   5.466   5.542   1.136 -0.1461 -0.1000  0.2763
 4753SOL    HW218784   5.554   5.509   1.117 -0.7032 -0.9868 -0.8358
 4753SOL    HW318785   5.470   5.635   1.113  1.1609  0.4664  2.5195
 4753SOL    MW418786   5.478   5.550   1.131 -0.0471 -0.1423  0.4255
 4754SOL     OW18787   3.251   4.240   4.410  0.1143 -0.4437 -0.1131
 4754SOL    HW218788   3.184   4.278   4.354 -0.6941  1.3648  1.9266
 4754SOL    HW318789   3.217   4.154   4.434 -0.9134 -0.0348 -0.0677
 4754SOL    MW418790   3.238   4.233   4.406 -0.1280 -0.1511  0.1620
 4755SOL     OW18791   1.413   5.488   2.486 -0.2319  0.3245  0.0269
 4755SOL    HW218792   1.488   5.491   2.546 -0.3043  0.9076  0.0940
 4755SOL    HW318793   1.398   5.395   2.471  0.7756  0.2120 -0.3255
 4755SOL    MW418794   1.421   5.476   2.492 -0.1085  0.3866 -0.0108
 4756SOL     OW18795   1.936   1.653   3.084  0.3748  0.3700  0.1593
 4756SOL    HW218796   1.971   1.600   3.012  1.4118  0.5567  0.5041
 4756SOL    HW318797   2.013   1.672   3.138 -0.5004 -0.4841  1.7855
 4756SOL    MW418798   1.951   1.648   3.081  0.3962  0.2820  0.4194
 4757SOL     OW18799   2.895   6.399   4.880  0.2088 -0.0830 -0.0382
 4757SOL    HW218800   2.800   6.388   4.886  0.1749 -1.6147 -2.1131
 4757SOL    HW318801   2.931   6.312   4.899  1.2294  0.5450  1.0228
 4757SOL    MW418802   2.887   6.386   4.883  0.3390 -0.2022 -0.1719
 4758SOL     OW18803   6.195   5.947   3.609  0.1370  0.1205 -0.1737
 4758SOL    HW218804   6.256   6.019   3.626 -0.2681 -0.1487  3.2001
 4758SOL    HW318805   6.228   5.874   3.661 -1.0212 -1.2528 -1.2651
 4758SOL    MW418806   6.207   5.947   3.618 -0.0692 -0.0962  0.1274
 4759SOL     OW18807   1.101   0.606   3.075  0.1489 -0.4172 -0.2386
 4759SOL    HW218808   1.008   0.588   3.059 -0.1137  0.2170  0.5119
 4759SOL    HW318809   1.120   0.563   3.159  0.0298  1.0202  0.5595
 4759SOL    MW418810   1.091   0.598   3.084  0.0986 -0.1439 -0.0343
 4760SOL     OW18811   1.318   2.088   1.804 -0.0125 -0.1423 -0.1775
 4760SOL    HW218812   1.396   2.138   1.778  0.1701  0.3406  1.2359
 4760SOL    HW318813   1.350   2.024   1.867 -0.4011 -1.4958 -1.2992
 4760SOL    MW418814   1.332   2.086   1.809 -0.0396 -0.2571 -0.1390
 4761SOL     OW18815   4.766   4.849   1.192  0.0252 -0.3838  0.1753
 4761SOL    HW218816   4.696   4.908   1.166  0.3245 -0.5941 -1.1600
 4761SOL    HW318817   4.808   4.824   1.110 -0.7495 -3.2827  0.5539
 4761SOL    MW418818   4.762   4.854   1.178 -0.0375 -0.7940  0.0491
 4762SOL     OW18819   0.255   1.272   4.880 -0.2296 -0.5438 -0.1938
 4762SOL    HW218820   0.163   1.286   4.856  0.0214 -3.0061 -3.2410
 4762SOL    HW318821   0.251   1.238   4.969 -2.1817  0.0453 -0.0046
 4762SOL    MW418822   0.242   1.269   4.888 -0.4540 -0.7910 -0.5709
 4763SOL     OW18823   2.937   1.764   2.335 -0.4841 -0.0376 -0.4679
 4763SOL    HW218824   2.897   1.771   2.248 -2.8078  0.2588  0.5402
 4763SOL    HW318825   2.866   1.786   2.396  0.0142 -3.5718  1.6898
 4763SOL    MW418826   2.922   1.768   2.332 -0.7250 -0.4648 -0.0502
 4764SOL     OW18827   0.861   0.587   3.640  0.8707 -0.6155 -0.1731
 4764SOL    HW218828   0.823   0.669   3.674  1.1935 -0.3636 -0.4169
 4764SOL    HW318829   0.905   0.613   3.560  2.0797 -0.7938  0.4161
 4764SOL    MW418830   0.862   0.601   3.634  1.0728 -0.6058 -0.1276
 4765SOL     OW18831   5.979   2.785   0.769 -0.2227  0.3490 -0.0930
 4765SOL    HW218832   5.915   2.714   0.779 -0.9579  0.6206 -2.3719
 4765SOL    HW318833   5.942   2.857   0.820  0.9127 -1.0271  2.9112
 4765SOL    MW418834   5.966   2.785   0.777 -0.1699  0.2033  0.0027
 4766SOL     OW18835   3.742   0.269   5.719 -0.8164 -0.0552 -0.7894
 4766SOL    HW218836   3.822   0.229   5.751 -1.3115 -0.1235  0.4189
 4766SOL    HW318837   3.718   0.218   5.642 -0.4908 -0.9676 -0.2971
 4766SOL    MW418838   3.749   0.257   5.713 -0.8388 -0.1846 -0.5650
 4767SOL     OW18839   3.349   2.969   1.984 -0.4962 -0.1254  0.1469
 4767SOL    HW218840   3.318   3.052   2.020 -0.8337  0.2217 -0.8811
 4767SOL    HW318841   3.387   2.993   1.899  0.1286 -0.9178  0.1963
 4767SOL    MW418842   3.350   2.983   1.977 -0.4583 -0.1842  0.0178
 4768SOL     OW18843   5.802   5.992   2.236  0.2259 -1.3094 -0.3926
 4768SOL    HW218844   5.762   6.002   2.150  2.4480  0.2828 -1.3656
 4768SOL    HW318845   5.790   6.078   2.278  3.4700 -0.2541 -1.2595
 4768SOL    MW418846   5.795   6.005   2.230  0.9471 -0.9601 -0.6354
 4769SOL     OW18847   5.477   1.976   6.095  0.4432  0.3895 -0.0596
 4769SOL    HW218848   5.467   2.030   6.016  2.0597 -2.9684 -2.8538
 4769SOL    HW318849   5.566   1.995   6.126  1.4423 -1.2589 -1.7056
 4769SOL    MW418850   5.487   1.986   6.088  0.7883 -0.2710 -0.6454
 4770SOL     OW18851   1.470   2.167   4.792  0.6165  0.5246 -0.2981
 4770SOL    HW218852   1.552   2.132   4.826  1.8167  3.0511 -0.2979
 4770SOL    HW318853   1.455   2.246   4.844 -1.1854  0.7769 -1.1226
 4770SOL    MW418854   1.479   2.173   4.803  0.5371  0.8912 -0.4068
 4771SOL     OW18855   1.960   6.058   1.285 -0.0521 -0.6981  0.6486
 4771SOL    HW218856   2.032   6.121   1.286  1.3284 -2.2099  2.3069
 4771SOL    HW318857   1.922   6.067   1.197  2.0244  0.2718 -0.2243
 4771SOL    MW418858   1.964   6.068   1.273  0.4040 -0.7696  0.7522
 4772SOL     OW18859   0.064   3.374   4.128 -0.2188  0.6893 -0.0523
 4772SOL    HW218860  -0.003   3.341   4.067  0.9969 -4.7107  1.0842
 4772SOL    HW318861   0.036   3.343   4.214  2.0537  1.2290  0.9570
 4772SOL    MW418862   0.051   3.366   4.131  0.2414  0.0480  0.2308
 4773SOL     OW18863   0.692   4.412   3.119  0.7551  0.2464  0.0310
 4773SOL    HW218864   0.768   4.381   3.071  1.0844 -0.1174  0.7660
 4773SOL    HW318865   0.649   4.474   3.061  1.3053  0.0309 -0.6032
 4773SOL    MW418866   0.696   4.416   3.105  0.8711  0.1700  0.0443
 4774SOL     OW18867   3.933   0.623   6.023  0.0183 -0.0516  0.1103
 4774SOL    HW218868   3.841   0.599   6.034 -0.4285  2.1292  1.8198
 4774SOL    HW318869   3.977   0.581   6.096 -0.0065  0.6348  0.5272
 4774SOL    MW418870   3.926   0.614   6.034 -0.0439  0.3267  0.3909
 4775SOL     OW18871   0.253   3.986   1.796 -0.7333 -0.0245 -0.1045
 4775SOL    HW218872   0.292   3.945   1.719 -0.3172 -0.6496  0.4247
 4775SOL    HW318873   0.187   3.924   1.826 -1.6789  0.7219 -0.5938
 4775SOL    MW418874   0.250   3.973   1.790 -0.8032 -0.0085 -0.0992
 4776SOL     OW18875   1.929   3.441   2.877 -0.4723 -0.1398 -0.0297
 4776SOL    HW218876   1.877   3.522   2.870 -1.7819 -0.9147  0.3813
 4776SOL    HW318877   1.958   3.440   2.969 -0.6760 -0.2624  0.0338
 4776SOL    MW418878   1.926   3.452   2.888 -0.6719 -0.2582  0.0329
 4777SOL     OW18879   1.872   4.207   0.358  0.1329  0.2561 -0.8113
 4777SOL    HW218880   1.899   4.115   0.359  0.3961  0.3122  1.0106
 4777SOL    HW318881   1.889   4.235   0.268  2.7659 -0.7178 -0.7286
 4777SOL    MW418882   1.878   4.198   0.346  0.5150  0.1350 -0.5600
 4778SOL     OW18883   4.208   3.665   5.541  0.4012 -0.3088 -0.7297
 4778SOL    HW218884   4.301   3.655   5.560  0.7371  0.5067 -1.8552
 4778SOL    HW318885   4.171   3.577   5.550  1.0885 -0.4815  0.6421
 4778SOL    MW418886   4.215   3.652   5.545  0.5362 -0.2240 -0.6972
 4779SOL     OW18887   2.167   4.504   0.480  0.1988 -0.3585 -0.1917
 4779SOL    HW218888   2.213   4.520   0.563 -0.7024  1.9365 -0.0838
 4779SOL    HW318889   2.082   4.469   0.506 -0.3516  1.0211 -0.0855
 4779SOL    MW418890   2.162   4.501   0.495  0.0073  0.1263 -0.1634
 4780SOL     OW18891   3.244   2.278   5.553  0.2209  0.0460  0.1182
 4780SOL    HW218892   3.223   2.221   5.627  1.1132 -1.6811 -0.9222
 4780SOL    HW318893   3.181   2.350   5.561 -2.4450 -2.1376  0.2339
 4780SOL    MW418894   3.233   2.280   5.564 -0.0131 -0.4700 -0.0038
 4781SOL     OW18895   3.771   0.472   4.789 -0.0820 -0.2111  0.8957
 4781SOL    HW218896   3.744   0.480   4.697 -1.1233  0.0367  1.2105
 4781SOL    HW318897   3.742   0.384   4.814 -0.1846 -0.1176  1.1061
 4781SOL    MW418898   3.763   0.461   4.780 -0.2329 -0.1660  0.9650
 4782SOL     OW18899   3.783   4.608   3.510 -0.1687 -0.4049 -0.2259
 4782SOL    HW218900   3.714   4.545   3.533 -0.6109 -0.2520 -1.0990
 4782SOL    HW318901   3.741   4.694   3.522  0.1050 -0.2946 -0.0463
 4782SOL    MW418902   3.768   4.611   3.515 -0.1909 -0.3702 -0.3174
 4783SOL     OW18903   4.573   6.223   3.286  0.0803 -0.5095 -0.1150
 4783SOL    HW218904   4.663   6.241   3.259  0.4695 -1.0620  0.7810
 4783SOL    HW318905   4.563   6.272   3.368 -0.0680 -1.3424  0.3725
 4783SOL    MW418906   4.583   6.232   3.293  0.1120 -0.6923  0.0675
 4784SOL     OW18907   5.867   3.841   1.352  0.0599 -0.2033 -0.1630
 4784SOL    HW218908   5.938   3.905   1.359  0.4148 -0.6935  0.7654
 4784SOL    HW318909   5.805   3.866   1.420  0.3645 -1.0378  0.4351
 4784SOL    MW418910   5.869   3.852   1.362  0.1469 -0.3781  0.0384
 4785SOL     OW18911   3.062   0.218   5.371 -0.2612 -0.1721  0.1159
 4785SOL    HW218912   3.025   0.163   5.301  0.2325 -0.2684 -0.0721
 4785SOL    HW318913   3.100   0.155   5.433  1.5091 -0.0293 -0.7678
 4785SOL    MW418914   3.062   0.202   5.370  0.0375 -0.1660 -0.0255
 4786SOL     OW18915   3.032   3.312   5.481 -0.2702 -0.0163  0.4641
 4786SOL    HW218916   3.001   3.397   5.513 -0.7585 -0.4727  1.2444
 4786SOL    HW318917   3.123   3.307   5.511 -0.1558  0.3354  0.1860
 4786SOL    MW418918   3.040   3.322   5.489 -0.3195 -0.0301  0.5304
 4787SOL     OW18919   2.111   5.137   1.107 -0.1895 -0.1849 -0.2409
 4787SOL    HW218920   2.193   5.180   1.131  0.3770 -1.0761 -0.5485
 4787SOL    HW318921   2.051   5.209   1.090  1.1699  0.5507 -2.2626
 4787SOL    MW418922   2.114   5.152   1.108  0.0646 -0.2054 -0.5482
 4788SOL     OW18923   2.098   5.086   4.959  0.9217  0.0477  0.0890
 4788SOL    HW218924   2.074   5.178   4.948  1.7879  0.3581  0.7108
 4788SOL    HW318925   2.039   5.054   5.027  1.1595  0.3675  0.4526
 4788SOL    MW418926   2.087   5.094   4.966  1.0674  0.1309  0.2190
 4789SOL     OW18927   1.930   0.164   5.823 -0.3266 -0.1972 -0.2361
 4789SOL    HW218928   1.908   0.167   5.916 -2.6893 -0.3293 -0.7314
 4789SOL    HW318929   1.992   0.091   5.816  2.1119  1.5404  1.5646
 4789SOL    MW418930   1.935   0.155   5.835 -0.3166  0.0146 -0.0639
 4790SOL     OW18931   3.991   2.241   3.871 -0.1595  0.4379 -0.0588
 4790SOL    HW218932   4.063   2.187   3.903 -0.4626 -0.2455 -0.4920
 4790SOL    HW318933   4.006   2.327   3.909  0.2283 -0.0020  0.8124
 4790SOL    MW418934   4.002   2.245   3.880 -0.1483  0.2897 -0.0010
 4791SOL     OW18935   4.558   1.204   1.014 -0.3398  0.4014 -0.4540
 4791SOL    HW218936   4.499   1.205   1.088 -0.3502 -0.1345 -0.4533
 4791SOL    HW318937   4.618   1.277   1.030 -0.9430  0.9018 -0.4188
 4791SOL    MW418938   4.558   1.214   1.026 -0.4207  0.3967 -0.4493
 4792SOL     OW18939   4.394   1.750   5.894 -0.4810 -0.1141 -0.5333
 4792SOL    HW218940   4.388   1.654   5.894 -0.3135 -0.1270  0.0204
 4792SOL    HW318941   4.445   1.771   5.972 -1.2789  0.4827 -0.1628
 4792SOL    MW418942   4.400   1.740   5.904 -0.5641 -0.0371 -0.4114
 4793SOL     OW18943   1.587   4.769   0.759  0.9880 -0.0671  0.6508
 4793SOL    HW218944   1.610   4.726   0.842  0.2235 -0.2149  0.7884
 4793SOL    HW318945   1.493   4.755   0.749  0.9789  0.3919  0.0069
 4793SOL    MW418946   1.578   4.762   0.769  0.8859 -0.0261  0.5840
 4794SOL     OW18947   2.185   0.522   3.285 -0.5878  0.0783  0.1010
 4794SOL    HW218948   2.124   0.545   3.215 -2.1444 -0.0800  1.3469
 4794SOL    HW318949   2.135   0.537   3.366  1.1520  0.2588  1.1816
 4794SOL    MW418950   2.170   0.527   3.286 -0.5636  0.0812  0.4080
 4795SOL     OW18951   3.771   3.329   0.289  0.5016  0.5349 -0.2165
 4795SOL    HW218952   3.758   3.239   0.258 -1.5062  0.9204 -0.6355
 4795SOL    HW318953   3.718   3.334   0.369  1.2996  1.1183  0.2868
 4795SOL    MW418954   3.762   3.317   0.296  0.3420  0.6627 -0.2054
 4796SOL     OW18955   5.513   4.629   5.462 -0.1447  0.1055 -0.5610
 4796SOL    HW218956   5.559   4.605   5.382 -1.0778 -1.8598 -0.5719
 4796SOL    HW318957   5.424   4.649   5.434  0.2402  2.4113 -0.3479
 4796SOL    MW418958   5.507   4.629   5.448 -0.2170  0.1504 -0.5343
 4797SOL     OW18959   3.621   1.872   3.787 -0.2977  0.0444 -0.2795
 4797SOL    HW218960   3.601   1.780   3.804 -0.9714 -0.5334 -3.5640
 4797SOL    HW318961   3.704   1.887   3.833 -0.4167 -2.0421  0.7241
 4797SOL    MW418962   3.629   1.862   3.795 -0.4023 -0.3071 -0.5805
 4798SOL     OW18963   6.059   3.647   1.337 -0.6247  0.2263 -0.2411
 4798SOL    HW218964   6.097   3.684   1.257  0.0959  1.1059  0.4933
 4798SOL    HW318965   5.980   3.700   1.353 -0.4221  0.4635 -0.0239
 4798SOL    MW418966   6.053   3.659   1.328 -0.5029  0.3736 -0.1156
 4799SOL     OW18967   1.077   5.045   4.025  0.0621  0.1553 -0.1361
 4799SOL    HW218968   1.144   5.005   4.081 -0.7762 -1.2452 -0.0859
 4799SOL    HW318969   1.055   5.127   4.068 -0.1080 -0.5982  1.2591
 4799SOL    MW418970   1.083   5.050   4.038 -0.0709 -0.1289  0.0546
 4800SOL     OW18971   1.095   4.585   4.179 -0.7221 -0.0048  0.0320
 4800SOL    HW218972   1.162   4.618   4.240 -1.0628  0.1439  0.3330
 4800SOL    HW318973   1.048   4.519   4.230  1.1032 -2.3636 -1.1182
 4800SOL    MW418974   1.098   4.580   4.194 -0.5262 -0.2964 -0.0800
 4801SOL     OW18975   0.036   2.918   2.265  0.0796 -0.3283 -0.0442
 4801SOL    HW218976   0.066   2.989   2.208 -2.5915 -0.2763 -1.5399
 4801SOL    HW318977   0.040   2.840   2.210  0.2897 -0.8398  0.6873
 4801SOL    MW418978   0.041   2.917   2.250 -0.2451 -0.3889 -0.1450
 4802SOL     OW18979   2.322   0.320   3.851 -0.1242  0.0706 -0.2381
 4802SOL    HW218980   2.379   0.371   3.909 -0.9796 -0.1784  0.8560
 4802SOL    HW318981   2.374   0.306   3.772  2.0536 -1.6004  1.3438
 4802SOL    MW418982   2.337   0.325   3.848  0.0503 -0.1827  0.1150
 4803SOL     OW18983   2.815   2.663   2.783 -0.2287 -0.7407  0.4354
 4803SOL    HW218984   2.874   2.594   2.814  0.1762  0.1875  1.8423
 4803SOL    HW318985   2.740   2.658   2.843 -1.0267 -1.1110 -0.5751
 4803SOL    MW418986   2.812   2.653   2.795 -0.2806 -0.6671  0.4877
 4804SOL     OW18987   0.621   3.457   4.865  0.5740  0.0541  0.2224
 4804SOL    HW218988   0.577   3.387   4.913 -1.3499  0.0693 -1.4201
 4804SOL    HW318989   0.578   3.537   4.895 -0.5459  0.0767 -1.3496
 4804SOL    MW418990   0.610   3.458   4.875  0.1724  0.0591 -0.2017
 4805SOL     OW18991   2.497   2.348   2.738 -0.1504 -0.1338 -0.2500
 4805SOL    HW218992   2.563   2.396   2.687 -3.1762  3.2540 -1.3793
 4805SOL    HW318993   2.540   2.332   2.822  2.4924  0.8659 -1.2817
 4805SOL    MW418994   2.512   2.352   2.742 -0.2010  0.4451 -0.5351
 4806SOL     OW18995   2.514   1.320   3.217 -0.1284  0.1342  0.1384
 4806SOL    HW218996   2.509   1.238   3.168  0.1269 -0.1280  0.5454
 4806SOL    HW318997   2.469   1.301   3.300  3.1506 -0.7983  1.8760
 4806SOL    MW418998   2.507   1.307   3.222  0.3379 -0.0235  0.4213
 4807SOL     OW18999   5.823   0.982   1.967 -0.2422  0.2849  0.3228
 4807SOL    HW219000   5.809   0.938   2.051  0.9047 -3.5033 -1.2381
 4807SOL    HW319001   5.742   0.966   1.918  0.7710 -1.8411 -0.8398
 4807SOL    MW419002   5.811   0.974   1.972  0.0428 -0.4954 -0.0365
 4808SOL     OW19003   6.267   0.598   2.728 -0.2240  0.0210  0.1747
 4808SOL    HW219004   6.242   0.689   2.711  3.2144  0.5945 -3.0932
 4808SOL    HW319005   6.217   0.547   2.664  0.3229  0.0540 -0.2831
 4808SOL    MW419006   6.257   0.603   2.717  0.3018  0.1010 -0.3168
 4809SOL     OW19007   0.200   1.671   1.775 -0.8353 -0.1791  0.3207
 4809SOL    HW219008   0.226   1.641   1.862 -0.0901 -1.0847 -0.1985
 4809SOL    HW319009   0.105   1.658   1.773 -0.8523 -0.2124  0.9705
 4809SOL    MW419010   0.191   1.666   1.786 -0.7392 -0.3029  0.3379
 4810SOL     OW19011   4.548   0.781   2.970 -0.1205 -0.3394  0.3693
 4810SOL    HW219012   4.476   0.779   2.907  0.8656  0.7976 -0.8804
 4810SOL    HW319013   4.515   0.736   3.047 -1.4630 -1.6303 -0.8900
 4810SOL    MW419014   4.534   0.774   2.972 -0.1676 -0.3597  0.0382
 4811SOL     OW19015   4.315   1.958   0.459  0.2400  0.1481  0.0569
 4811SOL    HW219016   4.273   2.027   0.407  1.2084 -0.2277 -1.3143
 4811SOL    HW319017   4.275   1.964   0.545 -3.0428 -0.5871 -1.2674
 4811SOL    MW419018   4.304   1.968   0.463 -0.0654  0.0015 -0.2987
 4812SOL     OW19019   0.979   4.458   3.289  0.0498  0.0481  0.6584
 4812SOL    HW219020   1.065   4.416   3.286  0.4809  0.7590  2.0707
 4812SOL    HW319021   0.968   4.483   3.381  0.4686  4.2689 -0.2595
 4812SOL    MW419022   0.989   4.456   3.301  0.1619  0.6988  0.7237
 4813SOL     OW19023   2.173   3.582   0.908 -0.0893  0.3203 -0.3376
 4813SOL    HW219024   2.153   3.494   0.942 -0.1758  0.5627  0.2459
 4813SOL    HW319025   2.220   3.566   0.826 -2.4739 -0.3039 -1.6844
 4813SOL    MW419026   2.176   3.568   0.901 -0.4153  0.2699 -0.4383
 4814SOL     OW19027   0.369   1.445   5.563  0.6104  0.0340 -0.3561
 4814SOL    HW219028   0.460   1.469   5.579  0.0243  1.4441  1.1517
 4814SOL    HW319029   0.358   1.360   5.605  1.9611 -1.7311 -3.2353
 4814SOL    MW419030   0.379   1.437   5.570  0.7113 -0.0128 -0.5370
 4815SOL     OW19031   5.101   2.026   6.118  0.2027  0.4591 -0.2532
 4815SOL    HW219032   5.042   2.027   6.193  1.1870  1.8777  0.5453
 4815SOL    HW319033   5.188   2.037   6.155  0.9523 -0.9580 -1.4651
 4815SOL    MW419034   5.105   2.027   6.132  0.4315  0.4593 -0.3078
 4816SOL     OW19035   4.165   2.911   5.797 -0.1166  0.3703  0.0756
 4816SOL    HW219036   4.141   3.003   5.799 -0.0979  0.3961  2.8330
 4816SOL    HW319037   4.224   2.903   5.722 -0.1866  2.5728 -0.2621
 4816SOL    MW419038   4.170   2.922   5.787 -0.1234  0.6643  0.3948
 4817SOL     OW19039   2.568   5.087   0.079 -0.0427 -0.2042  0.1103
 4817SOL    HW219040   2.636   5.045   0.026  0.0470 -0.3849  0.3644
 4817SOL    HW319041   2.601   5.083   0.169  0.8871  2.2075 -0.0561
 4817SOL    MW419042   2.581   5.081   0.084  0.0918  0.0901  0.1219
 4818SOL     OW19043   1.519   3.727   6.357 -0.2925 -0.7816  0.2628
 4818SOL    HW219044   1.559   3.809   6.387  1.9282 -2.1861  1.5135
 4818SOL    HW319045   1.537   3.724   6.263  0.3749 -0.2128  0.3649
 4818SOL    MW419046   1.527   3.737   6.348  0.0886 -0.8918  0.4413
 4819SOL     OW19047   6.053   5.510   0.735 -0.1733  0.2177 -0.4078
 4819SOL    HW219048   6.083   5.466   0.655  0.2474  1.8150 -1.1684
 4819SOL    HW319049   5.982   5.455   0.767  0.2658 -0.9501 -1.3653
 4819SOL    MW419050   6.047   5.497   0.728 -0.0599  0.2744 -0.6345
 4820SOL     OW19051   5.286   2.910   3.282 -0.0213  0.2207  0.2882
 4820SOL    HW219052   5.213   2.966   3.253  0.4011  0.4990 -0.2638
 4820SOL    HW319053   5.359   2.935   3.225  0.7001  0.4220  1.2739
 4820SOL    MW419054   5.286   2.921   3.270  0.1296  0.2840  0.3454
 4821SOL     OW19055   0.270   2.898   3.778  0.1513 -0.0839  0.2133
 4821SOL    HW219056   0.358   2.891   3.817  0.8865 -0.6120 -1.4724
 4821SOL    HW319057   0.213   2.856   3.842  1.1695 -0.1218  1.1445
 4821SOL    MW419058   0.274   2.892   3.792  0.3827 -0.1586  0.1138
 4822SOL     OW19059   4.138   5.020   3.379  0.3963  0.0874 -0.1682
 4822SOL    HW219060   4.075   4.952   3.403 -0.4746  1.5226  1.9719
 4822SOL    HW319061   4.086   5.101   3.379  1.4335  0.8436 -2.4054
 4822SOL    MW419062   4.122   5.022   3.382  0.4182  0.3765 -0.1810
 4823SOL     OW19063   4.420   4.264   3.480  0.1411 -0.1305 -0.2656
 4823SOL    HW219064   4.406   4.224   3.394  1.9740  0.3187 -0.8056
 4823SOL    HW319065   4.501   4.225   3.512 -0.5319 -0.3242  1.3163
 4823SOL    MW419066   4.429   4.254   3.473  0.2941 -0.0968 -0.1281
 4824SOL     OW19067   3.014   3.551   5.930  0.1924  0.3046  0.4791
 4824SOL    HW219068   2.946   3.504   5.979  0.9950 -1.1121  0.2829
 4824SOL    HW319069   2.982   3.641   5.925 -2.4727 -0.5952 -0.9483
 4824SOL    MW419070   3.001   3.557   5.936 -0.0534 -0.0010  0.2649
 4825SOL     OW19071   6.235   3.894   0.626 -0.5370  0.6404  0.3328
 4825SOL    HW219072   6.185   3.831   0.574  1.1427 -0.7681  0.2973
 4825SOL    HW319073   6.206   3.980   0.595 -2.3448 -0.1042 -0.1704
 4825SOL    MW419074   6.225   3.897   0.615 -0.5539  0.3563  0.2617
 4826SOL     OW19075   2.185   1.820   6.000  0.2346  0.0296 -0.0823
 4826SOL    HW219076   2.221   1.791   5.917 -2.5449 -0.9365 -1.0736
 4826SOL    HW319077   2.209   1.752   6.063  0.9046 -0.1036 -0.4800
 4826SOL    MW419078   2.193   1.807   5.997 -0.0437 -0.1154 -0.2656
 4827SOL     OW19079   6.328   5.525   1.198  0.2683  0.2422 -0.0265
 4827SOL    HW219080   6.333   5.484   1.284 -2.8173 -0.2345  0.0599
 4827SOL    HW319081   6.370   5.463   1.139  0.6340 -0.3747  0.8613
 4827SOL    MW419082   6.334   5.512   1.202 -0.0906  0.0979  0.1020
 4828SOL     OW19083   1.907   3.305   4.115  0.5796 -0.0982  0.1040
 4828SOL    HW219084   1.966   3.236   4.086  1.4963  0.5535  0.3788
 4828SOL    HW319085   1.964   3.375   4.146 -0.3379  0.4079  0.7245
 4828SOL    MW419086   1.922   3.305   4.115  0.5795  0.0546  0.2221
 4829SOL     OW19087   5.735   3.520   0.611  0.1183 -0.2944 -0.5226
 4829SOL    HW219088   5.788   3.590   0.650 -1.7876  1.2439 -0.5260
 4829SOL    HW319089   5.778   3.439   0.639  1.8763  0.8489  0.2696
 4829SOL    MW419090   5.748   3.519   0.620  0.0988  0.0594 -0.4185
 4830SOL     OW19091   0.119   1.872   3.495 -0.7993 -0.3903  0.1652
 4830SOL    HW219092   0.197   1.861   3.440 -0.2799  1.4056  0.4884
 4830SOL    HW319093   0.048   1.836   3.443  0.2328 -2.3454 -0.0308
 4830SOL    MW419094   0.120   1.866   3.481 -0.5946 -0.4113  0.1820
 4831SOL     OW19095   4.093   4.142   5.341  0.9035 -0.0166 -0.2147
 4831SOL    HW219096   4.046   4.144   5.425  0.8847  1.4620 -0.2222
 4831SOL    HW319097   4.137   4.227   5.338  2.0454 -0.6278 -1.0742
 4831SOL    MW419098   4.092   4.154   5.352  1.0517  0.0978 -0.3291
 4832SOL     OW19099   2.777   4.834   5.263  0.0743 -0.6229  0.9632
 4832SOL    HW219100   2.853   4.784   5.234 -0.0443 -1.0535  1.3730
 4832SOL    HW319101   2.809   4.889   5.334  0.3151  0.2695  0.1900
 4832SOL    MW419102   2.791   4.835   5.268  0.0904 -0.5620  0.9152
 4833SOL     OW19103   4.624   2.058   1.427 -0.5972 -0.3730  0.0712
 4833SOL    HW219104   4.551   2.119   1.411 -0.2676 -0.1064 -0.4506
 4833SOL    HW319105   4.601   1.980   1.377 -1.1275 -0.7790  0.9156
 4833SOL    MW419106   4.611   2.056   1.418 -0.6237 -0.3914  0.1137
 4834SOL     OW19107   0.475   1.789   0.752  0.1229  0.3108 -0.0436
 4834SOL    HW219108   0.440   1.780   0.664  0.0667  1.3787 -0.1410
 4834SOL    HW319109   0.485   1.883   0.765  1.1762  0.1222  0.6873
 4834SOL    MW419110   0.472   1.800   0.742  0.2544  0.4268  0.0400
 4835SOL     OW19111   4.928   4.229   1.104 -0.0521 -0.3543 -0.1222
 4835SOL    HW219112   4.996   4.296   1.092  0.1335 -0.8303 -2.2055
 4835SOL    HW319113   4.921   4.219   1.199  0.9222  1.5858  0.2213
 4835SOL    MW419114   4.936   4.237   1.115  0.1010 -0.1611 -0.3518
 4836SOL     OW19115   4.128   2.784   0.031  0.1921  0.5438 -0.3165
 4836SOL    HW219116   4.212   2.830   0.030  1.2450 -1.2580  0.2336
 4836SOL    HW319117   4.136   2.722   0.104 -1.0989 -0.5686 -1.0727
 4836SOL    MW419118   4.140   2.782   0.041  0.1607  0.1593 -0.3437
 4837SOL     OW19119   5.008   2.501   3.669 -0.8980 -0.3159  0.2336
 4837SOL    HW219120   4.936   2.458   3.715 -0.3961 -0.5687  0.7948
 4837SOL    HW319121   4.971   2.522   3.583 -2.3673  1.6339  1.2553
 4837SOL    MW419122   4.993   2.498   3.664 -1.0256 -0.0920  0.4424
 4838SOL     OW19123   6.127   5.465   4.607  0.6881  0.1502  0.0858
 4838SOL    HW219124   6.093   5.538   4.659  1.5756  0.9582 -0.4458
 4838SOL    HW319125   6.049   5.425   4.568  0.2142  0.9545  0.1908
 4838SOL    MW419126   6.112   5.469   4.609  0.7427  0.3629  0.0295
 4839SOL     OW19127   2.952   6.252   0.756  0.0598  0.7646 -0.2603
 4839SOL    HW219128   2.970   6.217   0.669  1.7557 -0.1278  0.4231
 4839SOL    HW319129   2.983   6.342   0.753  1.3824  0.3247 -0.1930
 4839SOL    MW419130   2.958   6.259   0.744  0.4580  0.5888 -0.1613
 4840SOL     OW19131   4.393   6.317   1.293 -0.1890  0.2604  0.5741
 4840SOL    HW219132   4.394   6.234   1.341  1.1094 -0.6516 -0.9090
 4840SOL    HW319133   4.481   6.323   1.254 -0.0096  2.6992  1.1923
 4840SOL    MW419134   4.405   6.307   1.294  0.0060  0.4619  0.4600
 4841SOL     OW19135   0.439   2.438   0.809  0.8660  0.2676 -0.2213
 4841SOL    HW219136   0.464   2.415   0.719 -1.4836 -1.7744 -0.4431
 4841SOL    HW319137   0.438   2.534   0.809  1.5612  0.3248 -2.1674
 4841SOL    MW419138   0.442   2.448   0.797  0.6478  0.0057 -0.5073
 4842SOL     OW19139   5.654   4.437   2.323  0.0473  0.1941  0.1457
 4842SOL    HW219140   5.599   4.361   2.343  1.1591 -0.4979  0.6659
 4842SOL    HW319141   5.602   4.512   2.352 -1.2617 -0.3048 -0.7862
 4842SOL    MW419142   5.640   4.437   2.330  0.0213  0.0369  0.0914
 4843SOL     OW19143   3.390   1.493   0.791 -0.2982 -0.2841  0.1381
 4843SOL    HW219144   3.469   1.444   0.767  1.4312  1.8113  1.1672
 4843SOL    HW319145   3.349   1.515   0.707 -0.4676 -2.3631 -0.3786
 4843SOL    MW419146   3.395   1.490   0.777 -0.0924 -0.2819  0.2057
 4844SOL     OW19147   3.592   5.654   5.596  0.1741 -0.1565  0.0031
 4844SOL    HW219148   3.533   5.612   5.533 -0.4930 -0.4675  0.8032
 4844SOL    HW319149   3.532   5.693   5.660  0.8165  0.9522 -0.0531
 4844SOL    MW419150   3.576   5.654   5.596  0.1709 -0.0512  0.1012
 4845SOL     OW19151   5.021   4.471   3.219  0.3344 -0.3464  0.0977
 4845SOL    HW219152   4.962   4.545   3.206 -0.4206 -0.9646 -0.1235
 4845SOL    HW319153   5.099   4.492   3.167 -1.2064 -1.1724 -2.7783
 4845SOL    MW419154   5.024   4.484   3.211  0.0315 -0.5370 -0.3110
 4846SOL     OW19155   3.319   3.101   4.600  0.5661  0.3943  0.2523
 4846SOL    HW219156   3.360   3.018   4.576 -4.0117 -1.7366 -1.4814
 4846SOL    HW319157   3.315   3.099   4.695  2.6557 -0.1129  0.3783
 4846SOL    MW419158   3.324   3.089   4.609  0.2378  0.0463  0.0402
 4847SOL     OW19159   4.340   0.509   5.032 -0.4097  0.6962  0.4717
 4847SOL    HW219160   4.275   0.486   5.098 -0.7246 -0.8814 -0.3248
 4847SOL    HW319161   4.344   0.432   4.975  1.4426  1.1585 -0.0775
 4847SOL    MW419162   4.332   0.496   5.033 -0.2069  0.5490  0.2942
 4848SOL     OW19163   0.235   5.109   3.975  0.5721 -0.3438 -0.7565
 4848SOL    HW219164   0.213   5.108   3.882 -1.5766 -1.9591 -0.3114
 4848SOL    HW319165   0.294   5.034   3.987 -0.0945 -0.8546 -0.6358
 4848SOL    MW419166   0.240   5.099   3.964  0.2007 -0.6243 -0.6819
 4849SOL     OW19167   2.506   5.500   6.020  0.4251  0.3854 -0.3180
 4849SOL    HW219168   2.452   5.480   6.096 -0.5406  1.4294 -0.7092
 4849SOL    HW319169   2.453   5.473   5.945  0.5102  1.2376 -0.6987
 4849SOL    MW419170   2.492   5.494   6.020  0.3089  0.6356 -0.4199
 4850SOL     OW19171   4.292   5.651   5.685 -0.1158 -0.2936  0.0404
 4850SOL    HW219172   4.230   5.664   5.613 -0.2881 -0.8039  0.0872
 4850SOL    HW319173   4.355   5.588   5.651 -0.5571 -1.0226  0.5438
 4850SOL    MW419174   4.292   5.644   5.671 -0.1968 -0.4571  0.1130
 4851SOL     OW19175   1.148   5.637   3.107  0.6634 -0.4309 -0.2195
 4851SOL    HW219176   1.208   5.649   3.033  0.5384  2.3604  0.0147
 4851SOL    HW319177   1.072   5.691   3.084  0.3369 -0.0452  1.6311
 4851SOL    MW419178   1.146   5.646   3.094  0.6038 -0.0117  0.0556
 4852SOL     OW19179   4.860   3.272   0.155  0.4714 -0.5222 -0.5319
 4852SOL    HW219180   4.922   3.235   0.218  2.3102  0.5033 -1.6419
 4852SOL    HW319181   4.776   3.234   0.179  0.7311  1.0405  3.5614
 4852SOL    MW419182   4.857   3.262   0.166  0.7483 -0.1807 -0.1383
 4853SOL     OW19183   4.689   1.311   1.648  0.1314 -0.2403 -0.0467
 4853SOL    HW219184   4.638   1.366   1.707 -0.3226 -0.8949  0.1876
 4853SOL    HW319185   4.673   1.347   1.561  0.4335  0.4458  0.1779
 4853SOL    MW419186   4.681   1.323   1.644  0.1113 -0.2361  0.0138
 4854SOL     OW19187   4.710   4.570   2.774 -0.3732 -0.1516 -0.2756
 4854SOL    HW219188   4.664   4.615   2.702 -0.4936 -0.6402 -0.5087
 4854SOL    HW319189   4.651   4.578   2.849  0.4763  1.8044  0.2348
 4854SOL    MW419190   4.696   4.577   2.774 -0.2770  0.0420 -0.2390
 4855SOL     OW19191   4.389   5.641   5.010  0.6600  0.4610  0.2020
 4855SOL    HW219192   4.465   5.669   5.061  1.1430  0.1168 -0.3246
 4855SOL    HW319193   4.413   5.658   4.919 -0.4420  1.6643  0.1040
 4855SOL    MW419194   4.402   5.647   5.005  0.5783  0.5743  0.1196
 4856SOL     OW19195   4.954   3.051   4.552  0.0001 -0.5217  0.2143
 4856SOL    HW219196   4.964   3.009   4.637 -1.6195 -0.2721  0.5692
 4856SOL    HW319197   4.867   3.023   4.522  0.2261  0.0250 -0.9868
 4856SOL    MW419198   4.944   3.042   4.559 -0.1837 -0.4166  0.1027
 4857SOL     OW19199   3.266   5.365   3.040  0.5022 -0.3259 -0.0390
 4857SOL    HW219200   3.218   5.437   3.083  0.0818 -0.4342 -0.3259
 4857SOL    HW319201   3.256   5.381   2.947  1.4502 -0.0730 -0.1132
 4857SOL    MW419202   3.258   5.377   3.034  0.5718 -0.3068 -0.0866
 4858SOL     OW19203   0.855   3.124   1.985  0.0293 -0.3471 -0.1117
 4858SOL    HW219204   0.902   3.153   2.064  0.1553  3.8842 -1.4503
 4858SOL    HW319205   0.923   3.118   1.918 -0.5002 -0.5449 -0.6395
 4858SOL    MW419206   0.870   3.127   1.986 -0.0239  0.1850 -0.3580
 4859SOL     OW19207   4.578   3.685   5.563 -0.4197  0.0082  0.3712
 4859SOL    HW219208   4.638   3.628   5.515  0.1633  0.0836  0.9969
 4859SOL    HW319209   4.595   3.772   5.529  0.5107  0.1679  1.2056
 4859SOL    MW419210   4.588   3.689   5.553 -0.2200  0.0392  0.5639
 4860SOL     OW19211   2.441   4.327   0.430 -0.1169 -0.5416  0.5143
 4860SOL    HW219212   2.351   4.294   0.431 -0.3009 -0.1771 -1.1271
 4860SOL    HW319213   2.457   4.350   0.339  0.7344  1.9521  1.2222
 4860SOL    MW419214   2.431   4.325   0.418 -0.0289 -0.1645  0.3911
 4861SOL     OW19215   0.834   2.375   0.371  0.5284 -0.0095 -0.0234
 4861SOL    HW219216   0.747   2.337   0.362  0.4568  0.1732 -0.1058
 4861SOL    HW319217   0.872   2.372   0.283  0.5932 -0.0578  0.0056
 4861SOL    MW419218   0.828   2.369   0.358  0.5275  0.0082 -0.0305
 4862SOL     OW19219   3.278   4.161   6.330 -0.6652  0.3353 -0.4399
 4862SOL    HW219220   3.319   4.248   6.330  0.1371 -0.0293 -0.4955
 4862SOL    HW319221   3.199   4.172   6.382 -0.6351  1.1298 -0.5383
 4862SOL    MW419222   3.273   4.174   6.336 -0.5554  0.3920 -0.4602
 4863SOL     OW19223   0.565   3.724   0.289  0.2933  0.0965  0.3079
 4863SOL    HW219224   0.550   3.810   0.249  0.0292 -0.3701 -0.6092
 4863SOL    HW319225   0.554   3.740   0.383 -1.1971  0.7803  0.0556
 4863SOL    MW419226   0.561   3.738   0.296  0.0618  0.1252  0.1536
 4864SOL     OW19227   0.264   2.378   3.368 -0.0031  0.2534 -0.4964
 4864SOL    HW219228   0.212   2.305   3.402 -0.1936 -0.5969 -2.4385
 4864SOL    HW319229   0.355   2.353   3.386 -0.1360  0.4698  0.5345
 4864SOL    MW419230   0.269   2.365   3.375 -0.0458  0.1698 -0.6166
 4865SOL     OW19231   6.326   0.853   6.351 -0.5085 -0.1165 -0.2254
 4865SOL    HW219232   6.363   0.765   6.356  1.7835  0.8078  0.6558
 4865SOL    HW319233   6.384   0.900   6.291 -0.6825  1.2265  0.6174
 4865SOL    MW419234   6.338   0.848   6.344 -0.2291  0.1826  0.0020
 4866SOL     OW19235   0.170   5.055   2.454  0.5703  0.1068 -0.5337
 4866SOL    HW219236   0.138   4.971   2.488  2.1036  0.3712  1.7982
 4866SOL    HW319237   0.112   5.121   2.494  0.7614  0.2833 -0.5463
 4866SOL    MW419238   0.158   5.053   2.464  0.7978  0.1650 -0.2277
 4867SOL     OW19239   5.488   3.496   2.566  0.3552 -0.9537  0.2290
 4867SOL    HW219240   5.487   3.416   2.514  0.7614 -1.3728  0.8634
 4867SOL    HW319241   5.470   3.566   2.502  3.9331 -1.0917 -1.1411
 4867SOL    MW419242   5.485   3.495   2.551  0.8808 -1.0272  0.1319
 4868SOL     OW19243   1.314   5.748   5.093 -0.2891  0.2127 -0.5324
 4868SOL    HW219244   1.328   5.720   5.003 -1.6678 -2.3349 -0.0270
 4868SOL    HW319245   1.246   5.815   5.086 -0.3522  0.0771 -1.3621
 4868SOL    MW419246   1.307   5.753   5.080 -0.4793 -0.1413 -0.5752
 4869SOL     OW19247   2.993   0.950   0.464 -0.0459 -0.0135 -0.4160
 4869SOL    HW219248   3.006   0.916   0.553  0.2412  1.6165  0.1897
 4869SOL    HW319249   2.991   0.871   0.409  0.5800 -1.0131  0.9240
 4869SOL    MW419250   2.995   0.935   0.468  0.0745  0.0697 -0.1593
 4870SOL     OW19251   3.906   1.898   3.335 -0.2970  0.0212  0.3200
 4870SOL    HW219252   3.843   1.892   3.407  0.6743 -0.6721  1.1308
 4870SOL    HW319253   3.985   1.857   3.369 -0.1036 -1.1987 -1.4636
 4870SOL    MW419254   3.908   1.892   3.349 -0.1433 -0.2312  0.1917
 4871SOL     OW19255   0.906   5.266   4.435 -0.1088  0.7462 -0.8004
 4871SOL    HW219256   0.968   5.193   4.433 -0.7560  0.0689  1.1879
 4871SOL    HW319257   0.959   5.343   4.457  0.0575  0.0878  1.3757
 4871SOL    MW419258   0.921   5.267   4.438 -0.1722  0.5700 -0.2510
 4872SOL     OW19259   3.868   1.259   1.472 -0.3418 -0.1803  0.1640
 4872SOL    HW219260   3.856   1.263   1.377  0.7981  0.1345  0.0305
 4872SOL    HW319261   3.943   1.314   1.490  0.8710 -1.9876  0.9912
 4872SOL    MW419262   3.876   1.266   1.462 -0.0314 -0.3772  0.2555
 4873SOL     OW19263   2.774   4.466   0.246 -0.1632  0.3606  0.4057
 4873SOL    HW219264   2.737   4.555   0.243 -0.1324  0.4249  1.5580
 4873SOL    HW319265   2.863   4.476   0.213 -0.2622  0.7019  0.2352
 4873SOL    MW419266   2.781   4.479   0.241 -0.1722  0.4142  0.5352
 4874SOL     OW19267   5.008   5.975   4.260  0.1124  0.0623 -0.2630
 4874SOL    HW219268   5.038   5.933   4.341  1.1918 -0.2301 -0.7923
 4874SOL    HW319269   5.087   5.985   4.207 -0.3799  1.3451 -0.8046
 4874SOL    MW419270   5.022   5.970   4.264  0.1899  0.1930 -0.4043
 4875SOL     OW19271   6.384   2.427   5.718  0.3284  0.3095 -0.5000
 4875SOL    HW219272   6.401   2.478   5.798  0.4452  0.2246 -0.4695
 4875SOL    HW319273   6.455   2.362   5.717 -0.0490 -0.1084 -0.3261
 4875SOL    MW419274   6.396   2.425   5.728  0.2940  0.2432 -0.4730
 4876SOL     OW19275   2.158   2.015   3.524  0.5609 -0.5204 -0.3742
 4876SOL    HW219276   2.176   2.061   3.606  0.5855  1.5392 -1.4775
 4876SOL    HW319277   2.063   2.010   3.520  0.4693  1.4383 -1.2660
 4876SOL    MW419278   2.148   2.020   3.534  0.5521  0.0098 -0.6374
 4877SOL     OW19279   3.896   5.431   5.589  0.1113  0.3524  0.4017
 4877SOL    HW219280   3.967   5.367   5.588  0.1586  0.3472 -2.0466
 4877SOL    HW319281   3.856   5.422   5.676  0.2835 -2.7697  0.2449
 4877SOL    MW419282   3.900   5.422   5.601  0.1403 -0.0602  0.0580
 4878SOL     OW19283   3.040   5.297   0.667 -0.0113  0.0768 -0.8088
 4878SOL    HW219284   3.010   5.215   0.706 -3.4571  0.3149 -2.5262
 4878SOL    HW319285   3.112   5.272   0.610 -2.0938 -2.2211 -2.6851
 4878SOL    MW419286   3.045   5.283   0.664 -0.7407 -0.1950 -1.2830
 4879SOL     OW19287   2.516   6.311   6.245 -0.1394 -0.1057 -0.0820
 4879SOL    HW219288   2.423   6.335   6.254  0.6449  3.5566 -0.2083
 4879SOL    HW319289   2.521   6.224   6.285 -3.7143 -0.8125 -0.7474
 4879SOL    MW419290   2.504   6.302   6.252 -0.5076  0.2842 -0.1865
 4880SOL     OW19291   5.995   4.440   5.791 -0.0467 -0.6209 -0.1049
 4880SOL    HW219292   5.912   4.464   5.749  0.1751  1.6926  0.6288
 4880SOL    HW319293   6.058   4.434   5.719 -0.0312  1.6268 -0.3368
 4880SOL    MW419294   5.992   4.442   5.776 -0.0154 -0.0191 -0.0387
 4881SOL     OW19295   5.024   3.323   6.131  0.2045  0.0447  0.7053
 4881SOL    HW219296   4.941   3.351   6.169  0.7066  0.1869  1.7331
 4881SOL    HW319297   5.090   3.377   6.175  0.9150 -0.6304  0.4952
 4881SOL    MW419298   5.022   3.334   6.141  0.3645 -0.0256  0.8132
 4882SOL     OW19299   6.104   1.249   2.367 -0.5272 -0.1807  0.2570
 4882SOL    HW219300   6.034   1.300   2.407  0.4511  0.5240  1.1467
 4882SOL    HW319301   6.139   1.196   2.439  0.5087  0.2467  0.0858
 4882SOL    MW419302   6.100   1.248   2.382 -0.2615 -0.0313  0.3518
 4883SOL     OW19303   2.297   4.838   5.830  0.2097  0.1610 -0.0838
 4883SOL    HW219304   2.245   4.764   5.862 -1.7388  2.0365  1.4335
 4883SOL    HW319305   2.381   4.829   5.875 -0.5845 -0.2583  1.3839
 4883SOL    MW419306   2.301   4.827   5.840 -0.1522  0.3531  0.3100
 4884SOL     OW19307   4.821   1.817   3.569  0.4528  0.8320  0.2207
 4884SOL    HW219308   4.861   1.837   3.485  0.0398  1.3459  0.1374
 4884SOL    HW319309   4.852   1.886   3.627  1.1575  0.1844  0.6362
 4884SOL    MW419310   4.830   1.829   3.566  0.4912  0.8144  0.2645
 4885SOL     OW19311   0.149   2.049   2.585 -0.0018  0.2457  0.1487
 4885SOL    HW219312   0.070   2.101   2.596  1.4188  2.4351  0.5901
 4885SOL    HW319313   0.210   2.083   2.651  1.6391 -0.7033 -0.7944
 4885SOL    MW419314   0.147   2.060   2.595  0.4022  0.4093  0.0825
 4886SOL     OW19315   4.339   0.196   5.154 -0.1330 -0.5361 -0.4605
 4886SOL    HW219316   4.425   0.234   5.136 -0.6118  0.5036 -0.5944
 4886SOL    HW319317   4.284   0.270   5.179 -0.5328 -1.4073  1.4615
 4886SOL    MW419318   4.343   0.211   5.155 -0.2489 -0.5139 -0.2246
 4887SOL     OW19319   5.770   2.878   1.280 -0.0522 -0.2438  0.3413
 4887SOL    HW219320   5.809   2.965   1.293 -1.6113  0.5122  0.1692
 4887SOL    HW319321   5.843   2.824   1.248  0.3450  1.7558 -2.5589
 4887SOL    MW419322   5.785   2.882   1.277 -0.2055  0.1198 -0.0641
 4888SOL     OW19323   1.661   5.933   4.804  0.0320  0.7386  0.2256
 4888SOL    HW219324   1.720   5.872   4.759 -1.1009  0.3041 -0.7372
 4888SOL    HW319325   1.719   5.995   4.848  1.2028 -0.0641 -0.1381
 4888SOL    MW419326   1.676   5.933   4.804  0.0370  0.5754  0.0506
 4889SOL     OW19327   1.324   5.953   5.445 -0.2291  0.0022  0.0314
 4889SOL    HW219328   1.375   5.949   5.526 -0.8629  1.0223  0.4985
 4889SOL    HW319329   1.256   5.885   5.456 -1.1963  1.0805  1.0034
 4889SOL    MW419330   1.321   5.943   5.457 -0.4404  0.2791  0.2213
 4890SOL     OW19331   1.761   2.722   6.067 -0.0579  0.1376  0.0245
 4890SOL    HW219332   1.792   2.813   6.069 -0.1630  0.1660  0.8074
 4890SOL    HW319333   1.839   2.670   6.086  0.1944 -0.0003 -1.3316
 4890SOL    MW419334   1.776   2.727   6.070 -0.0385  0.1231 -0.0511
 4891SOL     OW19335   4.045   2.992   4.391  0.3691  0.1939 -0.2606
 4891SOL    HW219336   4.035   2.933   4.465  2.1734 -0.5555 -0.5656
 4891SOL    HW319337   4.064   3.077   4.430  1.0549 -0.1430  0.1652
 4891SOL    MW419338   4.046   2.995   4.406  0.6977  0.0506 -0.2446
 4892SOL     OW19339   6.169   4.627   3.343 -0.3889 -0.2618  0.4513
 4892SOL    HW219340   6.154   4.616   3.249 -0.8276 -0.6897  0.5739
 4892SOL    HW319341   6.265   4.632   3.351 -0.3220 -0.8037  0.0466
 4892SOL    MW419342   6.180   4.626   3.331 -0.4380 -0.3898  0.4141
 4893SOL     OW19343   3.402   1.930   1.220 -0.2753 -0.3489  0.1025
 4893SOL    HW219344   3.335   1.872   1.257 -1.1633  1.6233  1.7401
 4893SOL    HW319345   3.485   1.884   1.236 -0.9035 -0.9816  1.7600
 4893SOL    MW419346   3.404   1.916   1.227 -0.4753 -0.1722  0.5372
 4894SOL     OW19347   1.130   0.193   2.002  0.3507 -0.1985  0.0390
 4894SOL    HW219348   1.143   0.203   1.908  0.3208 -1.0328 -0.0623
 4894SOL    HW319349   1.041   0.161   2.011  0.0603  0.6712  0.4174
 4894SOL    MW419350   1.120   0.190   1.991  0.3084 -0.1938  0.0756
 4895SOL     OW19351   3.465   4.713   3.522  0.2612  0.1648 -0.3064
 4895SOL    HW219352   3.423   4.799   3.525  1.6901  0.9627 -1.7071
 4895SOL    HW319353   3.409   4.658   3.576 -1.9267  1.4430 -1.0935
 4895SOL    MW419354   3.452   4.717   3.529  0.1611  0.4387 -0.5950
 4896SOL     OW19355   2.491   2.704   3.178  0.1050 -0.1420  0.0615
 4896SOL    HW219356   2.524   2.615   3.171  0.1610 -0.1444  0.3639
 4896SOL    HW319357   2.473   2.716   3.271 -0.3488 -0.0005 -0.0423
 4896SOL    MW419358   2.493   2.694   3.189  0.0525 -0.1236  0.0877
 4897SOL     OW19359   5.289   2.077   5.711 -0.3745 -0.5203  0.1132
 4897SOL    HW219360   5.375   2.067   5.671 -0.8725 -0.7026 -0.9252
 4897SOL    HW319361   5.238   2.127   5.648 -0.3875  1.5880  1.6750
 4897SOL    MW419362   5.294   2.082   5.698 -0.4420 -0.2662  0.1823
 4898SOL     OW19363   4.803   5.783   2.641 -0.2512 -0.0862 -0.3537
 4898SOL    HW219364   4.845   5.714   2.693 -0.7044 -0.7333 -0.8215
 4898SOL    HW319365   4.874   5.823   2.591  0.1013  0.1741  0.3511
 4898SOL    MW419366   4.818   5.779   2.641 -0.2645 -0.1372 -0.3224
 4899SOL     OW19367   0.797   2.531   6.315  0.5386  0.1114 -0.0774
 4899SOL    HW219368   0.707   2.523   6.283  0.6712 -0.5705 -0.2908
 4899SOL    HW319369   0.796   2.611   6.368 -0.0311  0.4649 -0.6016
 4899SOL    MW419370   0.785   2.541   6.318  0.4809  0.0681 -0.1747
 4900SOL     OW19371   0.176   4.231   5.649  0.1991 -0.0575 -0.3687
 4900SOL    HW219372   0.214   4.316   5.629  0.5138 -0.2162 -0.4492
 4900SOL    HW319373   0.237   4.168   5.611  0.4822 -0.3460  0.5402
 4900SOL    MW419374   0.189   4.234   5.641  0.2780 -0.1165 -0.2594
 4901SOL     OW19375   3.250   2.119   0.733  0.5230  0.5238 -0.1801
 4901SOL    HW219376   3.336   2.160   0.741  0.5517  0.3073  0.7041
 4901SOL    HW319377   3.224   2.100   0.823 -0.2241  0.1147 -0.4746
 4901SOL    MW419378   3.258   2.122   0.746  0.4282  0.4413 -0.1023
 4902SOL     OW19379   1.982   3.558   5.024 -0.3515  0.0424 -0.6307
 4902SOL    HW219380   2.048   3.501   4.985  1.1144  0.6218  0.8520
 4902SOL    HW319381   1.949   3.508   5.100  1.8392  1.5038  1.4274
 4902SOL    MW419382   1.986   3.544   5.029  0.1310  0.3116 -0.1635
 4903SOL     OW19383   6.275   1.864   4.773 -0.0970  0.3781 -0.3219
 4903SOL    HW219384   6.265   1.797   4.705 -0.8746 -0.0086  0.1604
 4903SOL    HW319385   6.255   1.946   4.728  0.1524  0.2143 -0.7406
 4903SOL    MW419386   6.271   1.866   4.758 -0.1667  0.3055 -0.3135
 4904SOL     OW19387   4.661   5.655   3.832 -0.7604  0.0602 -0.4574
 4904SOL    HW219388   4.622   5.725   3.883 -0.9739 -0.7766  0.5745
 4904SOL    HW319389   4.645   5.576   3.884 -0.3877 -0.7301 -1.5032
 4904SOL    MW419390   4.654   5.654   3.845 -0.7394 -0.1545 -0.4592
 4905SOL     OW19391   5.237   6.119   2.283  0.0412 -0.7561  0.5449
 4905SOL    HW219392   5.238   6.179   2.209 -1.2604 -0.3641  0.8212
 4905SOL    HW319393   5.170   6.055   2.262 -1.9280  0.5981  2.2819
 4905SOL    MW419394   5.229   6.118   2.271 -0.3904 -0.5257  0.8105
 4906SOL     OW19395   3.399   5.589   3.513 -0.0961 -0.2373  0.3305
 4906SOL    HW219396   3.486   5.627   3.518  0.0736 -0.6805  0.8298
 4906SOL    HW319397   3.353   5.643   3.449  0.7104 -0.3260 -0.3491
 4906SOL    MW419398   3.404   5.601   3.505  0.0327 -0.3075  0.3067
 4907SOL     OW19399   0.908   2.166   2.512  0.3856 -0.1532 -0.0660
 4907SOL    HW219400   0.989   2.130   2.549 -0.1671 -1.1752  0.1639
 4907SOL    HW319401   0.881   2.233   2.575  0.8152 -0.1156  0.0810
 4907SOL    MW419402   0.915   2.170   2.525  0.3694 -0.2831 -0.0163
 4908SOL     OW19403   0.740   6.119   1.505 -0.6211 -0.5886 -0.3167
 4908SOL    HW219404   0.694   6.189   1.551 -1.3977 -0.2632 -1.5527
 4908SOL    HW319405   0.829   6.153   1.493  0.1999 -1.4140  2.5050
 4908SOL    MW419406   0.746   6.132   1.510 -0.6153 -0.6545 -0.1075
 4909SOL     OW19407   2.611   1.046   2.501  0.5490  0.6253 -0.0860
 4909SOL    HW219408   2.668   1.020   2.429  0.7300  0.2275  0.1995
 4909SOL    HW319409   2.607   0.969   2.558  2.7562  1.8251  1.8578
 4909SOL    MW419410   2.618   1.032   2.499  0.8641  0.7311  0.2081
 4910SOL     OW19411   4.932   4.233   0.792  0.1406 -0.4504 -0.4097
 4910SOL    HW219412   4.942   4.248   0.698  1.8524 -1.6759 -0.4570
 4910SOL    HW319413   4.904   4.318   0.826  3.2866  1.1865 -1.4944
 4910SOL    MW419414   4.929   4.246   0.784  0.7815 -0.3961 -0.5591
 4911SOL     OW19415   2.972   3.803   6.352 -0.2283  0.0971 -0.0813
 4911SOL    HW219416   3.001   3.715   6.378  0.8474  0.0870 -1.2387
 4911SOL    HW319417   2.916   3.832   6.425 -0.0126 -1.2447  0.6537
 4911SOL    MW419418   2.968   3.795   6.365 -0.0579 -0.0812 -0.1371
 4912SOL     OW19419   2.200   1.705   3.136 -0.4113 -0.1096  0.3626
 4912SOL    HW219420   2.234   1.635   3.079 -1.5013 -0.2091 -0.1875
 4912SOL    HW319421   2.219   1.786   3.088 -1.3058 -0.1917 -0.1462
 4912SOL    MW419422   2.207   1.706   3.122 -0.6731 -0.1335  0.2229
 4913SOL     OW19423   5.298   0.309   4.703  0.2467  0.3451  0.6268
 4913SOL    HW219424   5.361   0.238   4.692  0.8027  0.7660  1.0020
 4913SOL    HW319425   5.349   0.381   4.741 -0.1300  1.2212 -0.4613
 4913SOL    MW419426   5.313   0.309   4.707  0.2703  0.5162  0.5327
 4914SOL     OW19427   1.948   4.930   1.175 -0.3814  0.4436  0.2630
 4914SOL    HW219428   1.989   4.844   1.166 -0.2434  0.5853 -0.5596
 4914SOL    HW319429   2.013   4.991   1.139 -0.5162  0.8822  0.7545
 4914SOL    MW419430   1.962   4.926   1.169 -0.3810  0.5201  0.2193
 4915SOL     OW19431   6.032   2.959   6.023 -0.4382 -0.9136 -0.4037
 4915SOL    HW219432   6.106   3.019   6.033 -2.3269  1.9138 -1.8722
 4915SOL    HW319433   6.072   2.874   6.005  2.4033 -0.1709  1.7197
 4915SOL    MW419434   6.047   2.956   6.022 -0.3125 -0.4425 -0.3173
 4916SOL     OW19435   1.002   4.655   1.349  0.4539  0.0338  0.3817
 4916SOL    HW219436   0.921   4.649   1.400 -0.2448 -0.8676 -0.7722
 4916SOL    HW319437   1.042   4.568   1.358  1.3254  0.4890  0.9746
 4916SOL    MW419438   0.996   4.643   1.357  0.4767 -0.0251  0.3077
 4917SOL     OW19439   3.299   6.225   1.935 -0.3981  0.5836 -0.4918
 4917SOL    HW219440   3.346   6.269   1.864  0.6889  1.1312  0.5353
 4917SOL    HW319441   3.293   6.290   2.005 -2.0072  0.2593 -0.2811
 4917SOL    MW419442   3.305   6.239   1.935 -0.4670  0.6131 -0.3285
 4918SOL     OW19443   4.174   5.024   4.931 -0.1959  0.1622  0.3005
 4918SOL    HW219444   4.125   4.966   4.873  1.7939 -1.1490 -0.1675
 4918SOL    HW319445   4.132   5.014   5.016 -4.1457  3.2424 -0.9488
 4918SOL    MW419446   4.162   5.015   4.934 -0.4545  0.3956  0.0739
 4919SOL     OW19447   0.267   3.573   2.724  0.4793 -0.0115 -0.4093
 4919SOL    HW219448   0.295   3.499   2.669 -0.8747 -0.5067 -0.4860
 4919SOL    HW319449   0.176   3.589   2.697  0.5150  1.2007  0.1401
 4919SOL    MW419450   0.258   3.565   2.713  0.3054  0.0831 -0.3469
 4920SOL     OW19451   3.145   5.870   3.866 -0.1070  0.2117 -0.0415
 4920SOL    HW219452   3.080   5.916   3.813 -0.9207  0.4359  1.0985
 4920SOL    HW319453   3.112   5.780   3.872  0.4019 -0.0137 -0.5704
 4920SOL    MW419454   3.132   5.864   3.860 -0.1473  0.2115  0.0391
 4921SOL     OW19455   4.460   4.918   0.729  0.3042 -0.0738 -0.3919
 4921SOL    HW219456   4.436   4.888   0.816  1.2356 -0.1611 -0.1581
 4921SOL    HW319457   4.551   4.946   0.737 -0.0581  1.3708 -0.9705
 4921SOL    MW419458   4.469   4.917   0.741  0.3793  0.1053 -0.4374
 4922SOL     OW19459   0.565   5.823   2.678  0.4985  0.1658  0.1836
 4922SOL    HW219460   0.497   5.787   2.621 -0.6546  2.5940 -0.0630
 4922SOL    HW319461   0.640   5.765   2.663 -0.1648 -0.1353 -2.7749
 4922SOL    MW419462   0.566   5.810   2.668  0.2588  0.4464 -0.2392
 4923SOL     OW19463   4.701   5.896   5.817  0.4201  0.4938 -0.4132
 4923SOL    HW219464   4.630   5.938   5.865 -0.9460  0.1364 -2.0097
 4923SOL    HW319465   4.719   5.815   5.865 -1.4671 -0.2616 -0.8881
 4923SOL    MW419466   4.694   5.891   5.829 -0.0091  0.3469 -0.6865
 4924SOL     OW19467   2.297   1.979   0.060 -0.2640 -0.2862  0.3827
 4924SOL    HW219468   2.205   1.993   0.038 -0.2110 -0.0833  0.2933
 4924SOL    HW319469   2.345   2.007  -0.018 -0.1312 -0.5143  0.3790
 4924SOL    MW419470   2.291   1.984   0.047 -0.2395 -0.2895  0.3704
 4925SOL     OW19471   1.211   3.615   6.075  0.4979 -0.4189  0.0320
 4925SOL    HW219472   1.120   3.584   6.076  0.7942 -1.4838 -1.7047
 4925SOL    HW319473   1.263   3.535   6.084  1.2616 -0.2268 -2.1410
 4925SOL    MW419474   1.206   3.600   6.076  0.6378 -0.5340 -0.4839
 4926SOL     OW19475   1.083   2.428   4.201 -0.3858  0.2892  0.4193
 4926SOL    HW219476   0.999   2.397   4.235 -1.0075  1.8825  0.4288
 4926SOL    HW319477   1.102   2.506   4.253  0.0935  1.1004 -0.9458
 4926SOL    MW419478   1.074   2.434   4.213 -0.4046  0.6065  0.2405
 4927SOL     OW19479   5.840   0.438   2.649 -1.2461 -0.1936  1.0005
 4927SOL    HW219480   5.845   0.513   2.589 -0.6550 -0.1119  1.1472
 4927SOL    HW319481   5.816   0.476   2.733 -2.8555 -0.3944  0.6694
 4927SOL    MW419482   5.838   0.453   2.652 -1.3804 -0.2093  0.9761
 4928SOL     OW19483   5.844   0.671   2.489  0.1487  0.3284  0.1054
 4928SOL    HW219484   5.819   0.750   2.537  0.9181  0.1434  0.8281
 4928SOL    HW319485   5.769   0.653   2.432 -0.0689  1.5245 -0.0103
 4928SOL    MW419486   5.830   0.679   2.488  0.2215  0.4618  0.1855
 4929SOL     OW19487   6.136   5.873   2.907  0.0515 -0.3848  0.2403
 4929SOL    HW219488   6.204   5.812   2.934 -0.8358 -1.5369 -0.0578
 4929SOL    HW319489   6.063   5.818   2.880 -0.6151  0.7986 -0.4912
 4929SOL    MW419490   6.135   5.858   2.907 -0.1536 -0.3807  0.1045
 4930SOL     OW19491   2.674   0.178   4.566  0.4271 -0.0338  0.4073
 4930SOL    HW219492   2.596   0.194   4.619  0.1637  0.0613 -0.0008
 4930SOL    HW319493   2.646   0.113   4.501  0.1008  1.4027 -0.9725
 4930SOL    MW419494   2.660   0.171   4.564  0.3493  0.1683  0.1714
 4931SOL     OW19495   1.469   1.848   0.133  0.1501 -0.1654  0.0824
 4931SOL    HW219496   1.406   1.785   0.097 -0.4818 -0.2657  1.3190
 4931SOL    HW319497   1.496   1.809   0.216  0.2185  0.9129  0.5777
 4931SOL    MW419498   1.465   1.834   0.139  0.0758 -0.0364  0.3109
 4932SOL     OW19499   0.938   2.309   5.921  0.4107  0.0009  0.2534
 4932SOL    HW219500   0.953   2.216   5.901  0.8508  0.1594 -0.1817
 4932SOL    HW319501   0.950   2.315   6.016  3.1393  0.0790 -0.0126
 4932SOL    MW419502   0.942   2.297   5.931  0.8288  0.0321  0.1609
 4933SOL     OW19503   3.188   1.771   6.233  0.6590 -0.4510  0.1664
 4933SOL    HW219504   3.255   1.838   6.236  1.6989 -1.4695  3.0766
 4933SOL    HW319505   3.236   1.688   6.226 -0.4162 -1.0894  0.0208
 4933SOL    MW419506   3.203   1.769   6.232  0.6544 -0.6696  0.5312
 4934SOL     OW19507   4.156   0.932   0.169  0.0628 -0.1884  0.2128
 4934SOL    HW219508   4.150   0.911   0.075  2.6834  0.1102 -0.0879
 4934SOL    HW319509   4.240   0.896   0.196 -0.1864  0.6455  2.2283
 4934SOL    MW419510   4.166   0.924   0.160  0.3757 -0.0390  0.4391
 4935SOL     OW19511   1.161   5.231   1.079  0.0989 -0.1424  0.0406
 4935SOL    HW219512   1.215   5.263   1.151  2.1266  0.3666 -1.6198
 4935SOL    HW319513   1.183   5.138   1.072  1.0753  0.1517 -0.8851
 4935SOL    MW419514   1.171   5.223   1.088  0.4953 -0.0364 -0.3006
 4936SOL     OW19515   4.895   4.360   1.607 -0.1408 -0.3674  0.4625
 4936SOL    HW219516   4.817   4.365   1.552  0.4219 -3.3450 -0.8182
 4936SOL    HW319517   4.879   4.285   1.664  1.9989 -1.4503 -0.2786
 4936SOL    MW419518   4.883   4.351   1.607  0.2158 -0.9032  0.1958
 4937SOL     OW19519   5.608   2.562   3.107  0.0758  0.8565 -0.1300
 4937SOL    HW219520   5.527   2.590   3.151 -0.1735 -0.2467  0.1231
 4937SOL    HW319521   5.621   2.628   3.039 -0.9150  1.1700 -0.0373
 4937SOL    MW419522   5.599   2.575   3.104 -0.0878  0.7523 -0.0843
 4938SOL     OW19523   4.330   3.970   4.352  0.0300  0.3251  0.6576
 4938SOL    HW219524   4.319   3.882   4.315  1.0871  0.4626 -0.0163
 4938SOL    HW319525   4.417   3.969   4.392 -0.2085  0.8752  1.2064
 4938SOL    MW419526   4.340   3.958   4.352  0.1380  0.4158  0.6411
 4939SOL     OW19527   5.270   6.335   2.671 -0.0830  0.3509  0.0232
 4939SOL    HW219528   5.201   6.277   2.640 -1.1725  0.6223  1.7984
 4939SOL    HW319529   5.346   6.278   2.684  0.3792  0.2065 -2.7942
 4939SOL    MW419530   5.271   6.320   2.669 -0.1657  0.3677 -0.1143
 4940SOL     OW19531   2.472   3.128   6.399 -0.1627 -0.4960  0.1310
 4940SOL    HW219532   2.395   3.140   6.343  0.4071  0.6066 -0.4335
 4940SOL    HW319533   2.462   3.039   6.434 -1.5638 -0.4629 -0.1285
 4940SOL    MW419534   2.460   3.117   6.396 -0.2724 -0.3462  0.0223
 4941SOL     OW19535   5.028   1.610   2.949  0.5045  0.2196  0.6895
 4941SOL    HW219536   4.983   1.550   3.008 -1.5682  0.6600 -0.3770
 4941SOL    HW319537   5.047   1.687   3.002 -1.1119  0.5134  0.8815
 4941SOL    MW419538   5.025   1.612   2.964  0.0178  0.3165  0.5741
 4942SOL     OW19539   1.395   1.821   3.967 -0.8816 -0.2508 -0.0351
 4942SOL    HW219540   1.393   1.916   3.977 -1.1642 -0.2540 -0.0713
 4942SOL    HW319541   1.485   1.797   3.990 -0.5336  0.1326 -0.9511
 4942SOL    MW419542   1.407   1.830   3.971 -0.8730 -0.2006 -0.1607
 4943SOL     OW19543   1.751   2.532   5.515 -0.1161 -0.4411  0.2412
 4943SOL    HW219544   1.762   2.573   5.601  1.7158  0.2249 -0.2768
 4943SOL    HW319545   1.664   2.560   5.486 -0.8695 -0.8991  1.9719
 4943SOL    MW419546   1.741   2.541   5.522  0.0262 -0.4136  0.4012
 4944SOL     OW19547   1.399   1.940   0.564  0.5938  0.5425  0.2096
 4944SOL    HW219548   1.423   1.860   0.517  0.9138 -0.2056  1.5810
 4944SOL    HW319549   1.478   1.994   0.561  2.2680 -1.3575  3.5624
 4944SOL    MW419550   1.413   1.937   0.557  0.8569  0.1931  0.8329
 4945SOL     OW19551   3.235   5.191   4.291  0.0712  0.4888 -0.5620
 4945SOL    HW219552   3.316   5.222   4.332  0.6405 -0.5764 -0.8439
 4945SOL    HW319553   3.210   5.114   4.343 -0.3671  0.3901 -0.9124
 4945SOL    MW419554   3.242   5.185   4.303  0.0885  0.3352 -0.6454
 4946SOL     OW19555   3.612   3.940   0.452 -0.0728 -0.2415 -0.3774
 4946SOL    HW219556   3.651   3.904   0.372  0.6171  1.1809 -0.7117
 4946SOL    HW319557   3.633   4.034   0.448 -2.6479  0.4057 -0.0380
 4946SOL    MW419558   3.620   3.948   0.441 -0.3215  0.0316 -0.3767
 4947SOL     OW19559   0.099   6.220   4.974  0.2500  0.1980  0.0706
 4947SOL    HW219560   0.015   6.216   5.020 -0.6785  0.4348 -1.5319
 4947SOL    HW319561   0.096   6.148   4.911  0.7203  0.9750 -0.8627
 4947SOL    MW419562   0.088   6.210   4.972  0.1895  0.3317 -0.2639
 4948SOL     OW19563   1.062   4.294   6.287  0.2409 -0.0913 -0.1098
 4948SOL    HW219564   1.127   4.307   6.217 -0.7721 -0.3876 -1.1379
 4948SOL    HW319565   1.053   4.380   6.327 -0.0636  0.3813 -1.1630
 4948SOL    MW419566   1.070   4.307   6.283  0.0671 -0.0680 -0.3844
 4949SOL     OW19567   3.488   3.844   4.782  0.2655 -0.6285 -0.2477
 4949SOL    HW219568   3.459   3.848   4.691 -1.0673  0.2399  0.1811
 4949SOL    HW319569   3.426   3.784   4.824  0.0886 -0.0407  0.3495
 4949SOL    MW419570   3.476   3.836   4.776  0.0663 -0.4364 -0.1124
 4950SOL     OW19571   1.389   6.351   2.544 -0.1696  0.1657  0.0859
 4950SOL    HW219572   1.405   6.293   2.470 -0.6587 -0.4348  0.4340
 4950SOL    HW319573   1.426   6.305   2.619  0.9418  1.0867  0.1268
 4950SOL    MW419574   1.396   6.337   2.544 -0.0875  0.2080  0.1372
 4951SOL     OW19575   2.542   3.151   1.454 -0.6435 -0.0043  0.0497
 4951SOL    HW219576   2.528   3.086   1.523  0.8666 -1.7911 -1.2098
 4951SOL    HW319577   2.628   3.188   1.473 -0.4579 -0.1158 -0.5431
 4951SOL    MW419578   2.551   3.147   1.465 -0.4198 -0.2548 -0.1947
 4952SOL     OW19579   2.601   4.727   2.035 -0.2512  0.1683  0.2800
 4952SOL    HW219580   2.540   4.666   2.076  0.1648  0.7812  1.8944
 4952SOL    HW319581   2.667   4.744   2.103  1.3521  0.0547 -1.1653
 4952SOL    MW419582   2.602   4.721   2.049  0.0152  0.2342  0.3023
 4953SOL     OW19583   3.112   0.921   4.363 -0.3359  0.1326 -0.8034
 4953SOL    HW219584   3.024   0.949   4.339 -0.4204  0.6206  0.0459
 4953SOL    HW319585   3.114   0.928   4.459  0.7064  0.3671 -0.8338
 4953SOL    MW419586   3.101   0.925   4.373 -0.2095  0.2279 -0.6953
 4954SOL     OW19587   0.696   2.987   1.594 -0.0614  0.3679  0.0681
 4954SOL    HW219588   0.712   2.947   1.679  1.3376 -0.7550 -0.6981
 4954SOL    HW319589   0.606   2.962   1.572  0.2215 -0.9468  0.3583
 4954SOL    MW419590   0.686   2.979   1.602  0.1605  0.0463  0.0053
 4955SOL     OW19591   4.385   5.287   2.357 -0.3058  0.0880 -0.2042
 4955SOL    HW219592   4.448   5.237   2.408 -1.6694  0.2861  1.7794
 4955SOL    HW319593   4.345   5.223   2.298  2.7941  0.2420 -2.7619
 4955SOL    MW419594   4.388   5.272   2.356 -0.0767  0.1344 -0.2799
 4956SOL     OW19595   0.322   3.609   6.031  0.2393  0.1362  0.1076
 4956SOL    HW219596   0.288   3.524   6.006 -1.5975  0.6952  0.5875
 4956SOL    HW319597   0.248   3.669   6.021  1.4095  1.6356  0.0453
 4956SOL    MW419598   0.308   3.606   6.026  0.1514  0.4078  0.1627
 4957SOL     OW19599   4.593   4.252   3.089 -0.1371  0.2758  0.3961
 4957SOL    HW219600   4.501   4.264   3.064 -0.7758 -1.0170  1.9724
 4957SOL    HW319601   4.605   4.310   3.164  0.7362  1.4222 -0.6001
 4957SOL    MW419602   4.582   4.261   3.096 -0.1062  0.2565  0.4726
 4958SOL     OW19603   6.288   0.877   2.197 -0.4320 -0.3891  0.2281
 4958SOL    HW219604   6.363   0.834   2.156  0.4058 -0.1597  1.4465
 4958SOL    HW319605   6.216   0.813   2.189 -0.7136  0.1722 -2.7042
 4958SOL    MW419606   6.288   0.863   2.191 -0.3587 -0.2848  0.0020
 4959SOL     OW19607   2.767   2.073   2.474 -0.9165 -0.3361 -0.0782
 4959SOL    HW219608   2.862   2.061   2.465 -0.9660 -1.5634  0.6498
 4959SOL    HW319609   2.750   2.160   2.439  0.6309  0.3491  0.7338
 4959SOL    MW419610   2.777   2.083   2.468 -0.7188 -0.4076  0.1250
 4960SOL     OW19611   0.941   1.934   5.084 -0.1508  0.5823 -0.3062
 4960SOL    HW219612   1.019   1.980   5.053  0.6161 -0.4360  0.0554
 4960SOL    HW319613   0.939   1.952   5.178  0.6606 -0.7814  0.0102
 4960SOL    MW419614   0.951   1.942   5.093  0.0575  0.2680 -0.2168
 4961SOL     OW19615   6.162   6.193   5.660  0.0513  0.6015  0.4415
 4961SOL    HW219616   6.141   6.283   5.684 -0.6422  1.4076 -2.6854
 4961SOL    HW319617   6.248   6.198   5.619 -0.0610 -0.1029  0.0986
 4961SOL    MW419618   6.170   6.205   5.658 -0.0550  0.6149 -0.0163
 4962SOL     OW19619   2.656   5.702   5.848  0.2670 -0.2679 -0.1780
 4962SOL    HW219620   2.631   5.782   5.894  1.9364  0.0934  0.1742
 4962SOL    HW319621   2.658   5.634   5.915  0.1792 -0.3043 -0.2121
 4962SOL    MW419622   2.653   5.704   5.863  0.4757 -0.2250 -0.1360
 4963SOL     OW19623   4.810   3.413   2.004 -0.4052  0.2327 -0.2093
 4963SOL    HW219624   4.809   3.437   2.096  0.7150 -2.0123  0.4538
 4963SOL    HW319625   4.741   3.347   1.996 -0.3222  0.2243 -0.9122
 4963SOL    MW419626   4.801   3.407   2.015 -0.2464 -0.0646 -0.2145
 4964SOL     OW19627   3.161   6.384   1.048 -0.5025  0.5039  0.4285
 4964SOL    HW219628   3.172   6.304   0.996 -0.2444 -0.7238  2.2715
 4964SOL    HW319629   3.197   6.453   0.993  3.5034 -1.2788  0.4734
 4964SOL    MW419630   3.167   6.382   1.033  0.0601  0.1067  0.6776
 4965SOL     OW19631   0.888   0.743   3.400  0.2581 -0.2631 -0.0862
 4965SOL    HW219632   0.889   0.836   3.424  2.6052 -0.3926  0.5866
 4965SOL    HW319633   0.937   0.739   3.318  0.9334 -0.9615  0.3320
 4965SOL    MW419634   0.895   0.755   3.393  0.6568 -0.3723  0.0578
 4966SOL     OW19635   3.879   1.535   1.759 -0.4354  0.3283 -0.4206
 4966SOL    HW219636   3.878   1.628   1.782  2.3731  0.0680  1.1415
 4966SOL    HW319637   3.792   1.504   1.783 -1.5881  2.5833 -1.3307
 4966SOL    MW419638   3.868   1.543   1.765 -0.2169  0.5915 -0.3346
 4967SOL     OW19639   4.932   2.064   6.335  0.3373  0.3415  0.2940
 4967SOL    HW219640   4.993   2.130   6.366  2.6554 -0.4226 -2.2472
 4967SOL    HW319641   4.937   1.994   6.400 -0.6167  1.7076  1.9437
 4967SOL    MW419642   4.941   2.063   6.348  0.5173  0.4209  0.1764
 4968SOL     OW19643   0.816   1.942   3.720  0.5942 -0.6052  0.2609
 4968SOL    HW219644   0.906   1.909   3.714  0.4929 -1.1467  1.3963
 4968SOL    HW319645   0.777   1.921   3.635  1.8119  0.5194 -0.6100
 4968SOL    MW419646   0.823   1.935   3.708  0.7415 -0.5283  0.2958
 4969SOL     OW19647   3.782   5.610   2.221 -0.1873  0.0901  0.2142
 4969SOL    HW219648   3.848   5.571   2.279 -0.0446  0.6601  0.4472
 4969SOL    HW319649   3.699   5.593   2.264 -0.2199 -0.8483 -0.2037
 4969SOL    MW419650   3.780   5.603   2.234 -0.1728  0.0415  0.1898
 4970SOL     OW19651   4.906   0.821   0.034  0.0271  0.1030 -0.8379
 4970SOL    HW219652   4.981   0.762   0.047  0.1905  0.3149 -0.8171
 4970SOL    HW319653   4.891   0.860   0.120 -0.9383 -0.9104 -0.5144
 4970SOL    MW419654   4.914   0.818   0.047 -0.0787 -0.0028 -0.7924
 4971SOL     OW19655   3.033   2.646   6.145 -0.4731 -0.2452 -0.3669
 4971SOL    HW219656   3.092   2.613   6.078 -0.3523  0.6881 -0.7351
 4971SOL    HW319657   3.023   2.739   6.125 -0.5497  0.0195  0.8299
 4971SOL    MW419658   3.039   2.654   6.133 -0.4672 -0.0872 -0.2575
 4972SOL     OW19659   0.327   1.843   2.223 -0.2214  0.6941 -0.1078
 4972SOL    HW219660   0.413   1.816   2.254 -0.5963  0.2230  0.5597
 4972SOL    HW319661   0.312   1.928   2.264 -0.1733  0.6597 -0.0185
 4972SOL    MW419662   0.336   1.850   2.233 -0.2645  0.6274 -0.0080
 4973SOL     OW19663   4.319   0.030   6.180  0.1566  0.5445 -0.1936
 4973SOL    HW219664   4.389   0.062   6.236  0.2618  1.8284 -1.0168
 4973SOL    HW319665   4.341   0.063   6.093 -1.5247  1.0510 -0.4585
 4973SOL    MW419666   4.331   0.038   6.176 -0.0514  0.7807 -0.3372
 4974SOL     OW19667   1.760   6.322   1.481 -0.1154 -0.2850  0.4694
 4974SOL    HW219668   1.842   6.274   1.491  0.2757  0.1912 -0.3866
 4974SOL    HW319669   1.731   6.304   1.392 -1.0568 -0.6013  0.8200
 4974SOL    MW419670   1.767   6.313   1.471 -0.1880 -0.2639  0.4027
 4975SOL     OW19671   5.531   2.225   3.757 -0.3272 -0.4389  0.2200
 4975SOL    HW219672   5.544   2.201   3.849 -0.3146 -0.4745  0.2087
 4975SOL    HW319673   5.612   2.271   3.734 -1.1862  1.5470  0.8697
 4975SOL    MW419674   5.544   2.228   3.766 -0.4388 -0.1816  0.3042
 4976SOL     OW19675   6.126   4.630   6.427  0.0050  0.6654  0.0853
 4976SOL    HW219676   6.182   4.608   6.352 -0.7027  0.4416 -0.3845
 4976SOL    HW319677   6.120   4.725   6.425 -0.9570  0.6103 -0.8665
 4976SOL    MW419678   6.133   4.639   6.417 -0.2153  0.6286 -0.1023
 4977SOL     OW19679   4.681   5.740   1.957 -0.7235 -0.2902  0.5653
 4977SOL    HW219680   4.617   5.807   1.979 -1.9242 -1.5261  0.9976
 4977SOL    HW319681   4.628   5.668   1.922  0.6062 -0.6677 -0.7563
 4977SOL    MW419682   4.665   5.739   1.955 -0.7065 -0.5031  0.4479
 4978SOL     OW19683   0.762   3.605   4.130  0.1267 -0.3235  0.4527
 4978SOL    HW219684   0.843   3.581   4.085  0.9002  0.9281  1.1276
 4978SOL    HW319685   0.693   3.561   4.080  1.2943 -2.4574  0.5950
 4978SOL    MW419686   0.763   3.596   4.118  0.3828 -0.4399  0.5605
 4979SOL     OW19687   2.247   0.275   2.625  0.5177 -0.5888 -0.1244
 4979SOL    HW219688   2.185   0.232   2.566 -0.2689  1.0116 -0.5085
 4979SOL    HW319689   2.230   0.368   2.614  1.7629 -0.1820  1.1309
 4979SOL    MW419690   2.237   0.282   2.616  0.5782 -0.3240 -0.0094
 4980SOL     OW19691   0.173   6.349   1.344  0.3088  0.2447 -0.3946
 4980SOL    HW219692   0.229   6.331   1.269  1.3137 -0.0820  0.4192
 4980SOL    HW319693   0.088   6.370   1.305  1.5269  3.0936 -1.7605
 4980SOL    MW419694   0.169   6.349   1.329  0.6021  0.5775 -0.4674
 4981SOL     OW19695   0.805   5.840   0.889 -0.0365  0.1076 -0.0153
 4981SOL    HW219696   0.864   5.770   0.863 -0.3828 -0.4921  0.7966
 4981SOL    HW319697   0.718   5.801   0.889 -0.1714  0.3714  0.9851
 4981SOL    MW419698   0.801   5.826   0.886 -0.1000  0.0633  0.2238
 4982SOL     OW19699   0.066   6.186   2.286  0.5683  0.0222  0.1525
 4982SOL    HW219700   0.078   6.280   2.277  1.3893 -0.0751  0.1261
 4982SOL    HW319701   0.129   6.160   2.353 -0.7383 -0.2877  1.3261
 4982SOL    MW419702   0.076   6.195   2.294  0.5043 -0.0315  0.3039
 4983SOL     OW19703   3.221   5.716   1.605 -0.0259  0.2307  0.3410
 4983SOL    HW219704   3.277   5.758   1.671  0.1606 -0.3930  0.5878
 4983SOL    HW319705   3.238   5.622   1.615 -1.3643 -0.0103  0.6570
 4983SOL    MW419706   3.231   5.709   1.615 -0.1779  0.1166  0.4152
 4984SOL     OW19707   3.037   4.826   0.193 -0.0271 -0.2823 -0.3177
 4984SOL    HW219708   3.018   4.820   0.286  0.9427 -0.5142 -0.1296
 4984SOL    HW319709   3.021   4.918   0.171  2.7052  0.5492  0.7793
 4984SOL    MW419710   3.032   4.837   0.202  0.4614 -0.2032 -0.1482
 4985SOL     OW19711   1.915   1.369   5.785 -0.3051  0.2756  0.2307
 4985SOL    HW219712   1.903   1.372   5.691  1.4599  1.7289 -0.0020
 4985SOL    HW319713   1.861   1.441   5.819 -0.8206 -0.1522  0.3414
 4985SOL    MW419714   1.906   1.378   5.777 -0.1402  0.4109  0.2146
 4986SOL     OW19715   3.386   6.255   2.794 -0.0180  0.1193  0.2015
 4986SOL    HW219716   3.328   6.314   2.745  0.5966  0.1381 -0.5236
 4986SOL    HW319717   3.362   6.268   2.886  0.4105  1.8331  0.1001
 4986SOL    MW419718   3.375   6.264   2.799  0.1196  0.3479  0.0924
 4987SOL     OW19719   2.366   3.573   2.569 -0.3828 -0.2183  0.2191
 4987SOL    HW219720   2.433   3.642   2.577  0.8911 -0.9839 -2.6192
 4987SOL    HW319721   2.303   3.594   2.637  2.7084  0.5520  3.1644
 4987SOL    MW419722   2.367   3.585   2.579  0.1931 -0.2177  0.2332
 4988SOL     OW19723   5.346   2.709   4.641  0.4933 -0.4378 -0.1732
 4988SOL    HW219724   5.338   2.803   4.629  0.2872 -0.6258 -1.6676
 4988SOL    HW319725   5.414   2.682   4.579 -0.1775 -1.4061 -0.5182
 4988SOL    MW419726   5.354   2.718   4.631  0.3776 -0.5904 -0.4159
 4989SOL     OW19727   0.351   5.591   2.125 -0.5877 -0.2612  0.3811
 4989SOL    HW219728   0.306   5.656   2.071  0.4360  0.8627  0.8464
 4989SOL    HW319729   0.307   5.595   2.210 -0.4722 -0.1194  0.4340
 4989SOL    MW419730   0.339   5.600   2.129 -0.4374 -0.0942  0.4494
 4990SOL     OW19731   6.258   2.039   1.299 -0.1111  0.6862 -0.0965
 4990SOL    HW219732   6.178   2.033   1.352 -0.2083  3.5091  0.2207
 4990SOL    HW319733   6.306   2.113   1.337  2.4123 -0.5677 -0.6514
 4990SOL    MW419734   6.254   2.048   1.311  0.2090  0.8932 -0.1279
 4991SOL     OW19735   3.002   4.558   4.178 -0.5714 -0.6413 -0.6307
 4991SOL    HW219736   3.029   4.467   4.173 -0.4444 -0.8281  2.1218
 4991SOL    HW319737   2.918   4.556   4.223  0.1478  0.6597  0.8620
 4991SOL    MW419738   2.994   4.546   4.183 -0.4598 -0.4943 -0.0706
 4992SOL     OW19739   6.416   2.260   6.118  0.2986  0.0376  0.2718
 4992SOL    HW219740   6.457   2.346   6.111  0.3238  0.0383  0.4242
 4992SOL    HW319741   6.355   2.268   6.191  1.0186 -0.3645  0.9258
 4992SOL    MW419742   6.413   2.272   6.126  0.3969 -0.0154  0.3782
 4993SOL     OW19743   0.900   1.766   2.144 -0.2145  0.3431 -0.2020
 4993SOL    HW219744   0.978   1.807   2.106  1.6900 -0.5529  2.4299
 4993SOL    HW319745   0.905   1.675   2.115  0.1249  0.1276  0.5159
 4993SOL    MW419746   0.911   1.759   2.135  0.0816  0.1965  0.2400
 4994SOL     OW19747   4.087   4.537   2.681 -0.2831 -0.4748  0.3482
 4994SOL    HW219748   4.014   4.578   2.634 -1.7964 -1.8397  1.4181
 4994SOL    HW319749   4.088   4.581   2.766 -0.0768 -0.7296  0.4781
 4994SOL    MW419750   4.078   4.548   2.686 -0.4555 -0.6885  0.5065
 4995SOL     OW19751   0.827   4.034   2.173 -0.3650  0.0319  0.3082
 4995SOL    HW219752   0.851   3.985   2.094 -1.0457  1.8172 -1.0688
 4995SOL    HW319753   0.892   4.105   2.177 -0.1557 -0.2093  1.5496
 4995SOL    MW419754   0.839   4.037   2.163 -0.4272  0.2356  0.2903
 4996SOL     OW19755   1.945   4.376   2.222  0.0671 -0.0564  0.2568
 4996SOL    HW219756   1.861   4.408   2.253  0.4474  0.7956  0.4221
 4996SOL    HW319757   1.930   4.283   2.204 -1.3558  0.4017 -1.2555
 4996SOL    MW419758   1.932   4.368   2.223 -0.0704  0.1164  0.0791
 4997SOL     OW19759   0.205   2.917   1.298  0.2348 -0.1109  0.5455
 4997SOL    HW219760   0.124   2.949   1.337  0.1895  1.4371 -0.7078
 4997SOL    HW319761   0.273   2.940   1.360 -0.1561 -0.5087  1.1349
 4997SOL    MW419762   0.203   2.924   1.311  0.1773  0.0408  0.4579
 4998SOL     OW19763   5.354   3.739   2.108 -0.0172 -0.1356 -0.1362
 4998SOL    HW219764   5.419   3.695   2.054 -0.0687 -0.6739  0.2311
 4998SOL    HW319765   5.398   3.753   2.192  0.2214  1.1116 -0.4406
 4998SOL    MW419766   5.369   3.735   2.112  0.0075 -0.0421 -0.1279
 4999SOL     OW19767   4.262   2.409   1.937  0.0123  0.0455  0.2211
 4999SOL    HW219768   4.236   2.441   2.024  0.4892 -0.1431  0.4361
 4999SOL    HW319769   4.181   2.376   1.899 -0.1324 -0.2147  0.7476
 4999SOL    MW419770   4.248   2.409   1.944  0.0561 -0.0137  0.3189
 5000SOL     OW19771   2.395   4.267   4.957 -0.7218 -0.8062  0.0007
 5000SOL    HW219772   2.366   4.345   5.005  1.0189  0.2720 -0.6095
 5000SOL    HW319773   2.432   4.301   4.876 -2.2036 -2.4861 -1.4496
 5000SOL    MW419774   2.396   4.282   4.953 -0.6876 -0.8856 -0.2711
 5001SOL     OW19775   1.425   3.882   1.558 -0.2261  0.1365  0.4580
 5001SOL    HW219776   1.430   3.942   1.633 -1.3328 -0.6475  1.1999
 5001SOL    HW319777   1.336   3.893   1.525 -0.1134 -0.3748 -0.0290
 5001SOL    MW419778   1.414   3.892   1.564 -0.3573 -0.0344  0.4916
 5002SOL     OW19779   1.255   2.548   1.808 -0.4941  0.4994  0.4831
 5002SOL    HW219780   1.324   2.582   1.865  1.0094 -1.4083 -0.0837
 5002SOL    HW319781   1.288   2.558   1.719 -0.9179 -0.4540  0.1953
 5002SOL    MW419782   1.268   2.554   1.804 -0.3516  0.1219  0.3704
 5003SOL     OW19783   2.212   5.703   4.829  0.0227 -0.1858  0.6212
 5003SOL    HW219784   2.251   5.634   4.775  0.3450  0.2617  0.2726
 5003SOL    HW319785   2.130   5.665   4.862 -0.5840 -0.2117 -0.8249
 5003SOL    MW419786   2.206   5.689   4.826 -0.0148 -0.1302  0.3844
 5004SOL     OW19787   3.581   6.190   0.119  0.0969  0.1679 -0.1530
 5004SOL    HW219788   3.630   6.261   0.078 -0.7267  0.2534 -1.0418
 5004SOL    HW319789   3.509   6.233   0.165 -0.1528 -0.0430 -0.3333
 5004SOL    MW419790   3.578   6.205   0.119 -0.0447  0.1514 -0.2940
 5005SOL     OW19791   5.093   0.763   2.004  0.0726 -0.4998  0.1813
 5005SOL    HW219792   5.055   0.688   2.050 -0.2449 -1.2598 -1.2727
 5005SOL    HW319793   5.062   0.755   1.914 -1.5060  2.4108  0.3541
 5005SOL    MW419794   5.084   0.752   1.998 -0.1776 -0.2161  0.0122
 5006SOL     OW19795   0.207   0.037   6.345  0.2775 -0.0681 -0.1249
 5006SOL    HW219796   0.177   0.073   6.261 -4.7274 -0.6393  1.1179
 5006SOL    HW319797   0.234  -0.053   6.324  0.5158  0.2585 -1.3185
 5006SOL    MW419798   0.207   0.030   6.331 -0.3514 -0.1004 -0.1184
 5007SOL     OW19799   4.334   3.381   1.125  0.4325  0.1894 -0.1625
 5007SOL    HW219800   4.397   3.452   1.128  1.1904 -0.3968  4.0105
 5007SOL    HW319801   4.377   3.308   1.170 -2.0459 -1.2790  0.0398
 5007SOL    MW419802   4.348   3.380   1.131  0.2055 -0.0817  0.4148
 5008SOL     OW19803   3.534   4.855   1.610 -0.5491  0.3956 -0.0259
 5008SOL    HW219804   3.562   4.771   1.573 -1.1079  0.7214 -1.2260
 5008SOL    HW319805   3.445   4.867   1.578 -0.5516  1.3516  0.3159
 5008SOL    MW419806   3.526   4.846   1.601 -0.6232  0.5647 -0.1392
 5009SOL     OW19807   5.917   0.240   4.314  0.1359 -0.3569  0.4428
 5009SOL    HW219808   5.968   0.312   4.276 -0.3142  1.1470  2.5211
 5009SOL    HW319809   5.963   0.161   4.286  0.7430  0.6935 -1.7874
 5009SOL    MW419810   5.930   0.239   4.305  0.1566 -0.0199  0.4227
 5010SOL     OW19811   3.374   2.160   3.347  0.0487 -0.3408 -0.2511
 5010SOL    HW219812   3.303   2.103   3.375  1.6226 -1.2276  2.2270
 5010SOL    HW319813   3.348   2.247   3.376  0.0842 -0.6986  0.8787
 5010SOL    MW419814   3.361   2.164   3.354  0.2611 -0.5050  0.2249
 5011SOL     OW19815   0.802   1.064   0.990  0.2491  0.0537  0.0551
 5011SOL    HW219816   0.777   0.971   0.993  1.2310 -0.2805 -1.1845
 5011SOL    HW319817   0.726   1.110   1.025 -0.6243 -1.1561 -0.1605
 5011SOL    MW419818   0.789   1.058   0.995  0.2634 -0.1500 -0.1369
 5012SOL     OW19819   1.370   2.512   5.977 -0.4203  0.0280  0.5415
 5012SOL    HW219820   1.371   2.499   5.882 -0.8589  2.1252  0.1952
 5012SOL    HW319821   1.344   2.427   6.012 -0.0289 -0.8649 -1.1862
 5012SOL    MW419822   1.366   2.499   5.969 -0.4265  0.1869  0.2679
 5013SOL     OW19823   0.772   3.867   0.132 -0.5918 -0.2905 -0.2846
 5013SOL    HW219824   0.813   3.891   0.049 -1.3114  0.7464 -0.3672
 5013SOL    HW319825   0.803   3.934   0.194 -0.9387 -0.4056  0.0155
 5013SOL    MW419826   0.782   3.879   0.129 -0.7325 -0.1689 -0.2559
 5014SOL     OW19827   4.160   4.817   6.427  0.3663  0.2774  0.4287
 5014SOL    HW219828   4.146   4.743   6.486  0.0566 -0.0744 -0.0817
 5014SOL    HW319829   4.087   4.876   6.445  0.8743  0.6928  1.1775
 5014SOL    MW419830   4.148   4.815   6.437  0.3925  0.2858  0.4601
 5015SOL     OW19831   6.179   2.468   2.950 -0.6184  0.1664  0.2061
 5015SOL    HW219832   6.206   2.378   2.965 -1.0627  0.2878  1.9562
 5015SOL    HW319833   6.261   2.515   2.933 -0.3686 -0.5035 -0.4863
 5015SOL    MW419834   6.194   2.463   2.950 -0.6440  0.0940  0.3457
 5016SOL     OW19835   6.397   2.554   6.416  0.4706 -0.3393 -0.4481
 5016SOL    HW219836   6.398   2.637   6.465 -1.5006  0.8767 -2.3159
 5016SOL    HW319837   6.489   2.532   6.406  1.0193  0.9123  1.2063
 5016SOL    MW419838   6.409   2.562   6.421  0.2829 -0.0137 -0.4762
 5017SOL     OW19839   1.914   0.609   5.723 -0.0215 -0.2707  0.0803
 5017SOL    HW219840   1.839   0.594   5.780  0.5108 -1.2538  0.5543
 5017SOL    HW319841   1.970   0.532   5.737  1.1514  0.5214 -0.1202
 5017SOL    MW419842   1.911   0.597   5.733  0.2035 -0.2959  0.1164
 5018SOL     OW19843   2.054   6.407   0.150 -0.2172  0.2013 -0.5038
 5018SOL    HW219844   2.113   6.334   0.129 -0.8366  0.2358 -2.5684
 5018SOL    HW319845   2.072   6.472   0.082 -0.2176  1.6877  0.8589
 5018SOL    MW419846   2.064   6.406   0.138 -0.2990  0.4020 -0.5964
 5019SOL     OW19847   1.491   4.502   2.823 -0.0067 -0.4698 -0.5284
 5019SOL    HW219848   1.567   4.446   2.840  0.1773 -0.3369 -0.9064
 5019SOL    HW319849   1.493   4.567   2.894  0.2770 -0.4212 -0.5807
 5019SOL    MW419850   1.502   4.504   2.835  0.0550 -0.4459 -0.5852
 5020SOL     OW19851   1.575   2.322   1.938  0.0298 -0.2943  0.2841
 5020SOL    HW219852   1.550   2.306   1.847 -0.4971 -2.3351  0.7382
 5020SOL    HW319853   1.497   2.299   1.989  0.8558 -0.8459  1.3444
 5020SOL    MW419854   1.561   2.317   1.933  0.0693 -0.6363  0.4839
 5021SOL     OW19855   0.311   1.392   3.658 -0.6205 -0.6895 -0.3946
 5021SOL    HW219856   0.262   1.453   3.603 -1.3450 -1.7186 -0.9430
 5021SOL    HW319857   0.247   1.357   3.719  0.1446  0.3028  1.0157
 5021SOL    MW419858   0.296   1.395   3.659 -0.6152 -0.6944 -0.2809
 5022SOL     OW19859   3.910   1.771   2.080 -0.9579 -0.4693 -0.0548
 5022SOL    HW219860   4.004   1.769   2.100 -0.5278 -1.3161 -2.0085
 5022SOL    HW319861   3.885   1.863   2.094  0.2889 -0.1149 -0.0633
 5022SOL    MW419862   3.919   1.783   2.085 -0.7366 -0.5343 -0.3137
 5023SOL     OW19863   1.743   1.643   6.296 -0.6373 -0.1193  0.4043
 5023SOL    HW219864   1.669   1.690   6.333 -1.5847 -0.1496 -1.3067
 5023SOL    HW319865   1.747   1.562   6.346 -3.5035 -1.3366 -1.0343
 5023SOL    MW419866   1.734   1.638   6.307 -1.1404 -0.2839 -0.0112
 5024SOL     OW19867   5.607   5.537   4.949 -0.2506  0.1982 -0.1563
 5024SOL    HW219868   5.637   5.524   4.859 -1.5001  0.3612 -0.6273
 5024SOL    HW319869   5.529   5.593   4.940  0.4877  1.5114  1.1592
 5024SOL    MW419870   5.601   5.543   4.936 -0.3181  0.3930 -0.0449
 5025SOL     OW19871   2.561   5.239   5.626  0.7758  0.3556  0.0720
 5025SOL    HW219872   2.635   5.195   5.667  1.1039  0.4104 -0.4465
 5025SOL    HW319873   2.598   5.319   5.589  0.4329  0.4529 -0.0620
 5025SOL    MW419874   2.576   5.244   5.626  0.7739  0.3757 -0.0141
 5026SOL     OW19875   5.212   0.161   4.055 -0.2143 -0.0527  0.3547
 5026SOL    HW219876   5.241   0.144   4.144  0.2683 -0.0296  0.2053
 5026SOL    HW319877   5.152   0.090   4.035  0.2384 -0.4652  0.4452
 5026SOL    MW419878   5.208   0.150   4.064 -0.0909 -0.1040  0.3469
 5027SOL     OW19879   0.112   0.683   4.736 -0.1595  0.9502  0.3448
 5027SOL    HW219880   0.057   0.614   4.771  0.0586  0.4317 -0.3119
 5027SOL    HW319881   0.096   0.758   4.793 -0.2637  0.3110  1.1735
 5027SOL    MW419882   0.103   0.684   4.748 -0.1445  0.7974  0.3675
 5028SOL     OW19883   5.030   5.048   5.501 -0.1818  0.2910 -0.9586
 5028SOL    HW219884   4.957   5.102   5.472 -1.2127 -0.9473 -0.7310
 5028SOL    HW319885   5.097   5.111   5.527 -1.4794  1.4724 -0.3633
 5028SOL    MW419886   5.030   5.063   5.501 -0.4890  0.2835 -0.8501
 5029SOL     OW19887   5.415   1.275   0.325  0.0973 -0.0185 -0.3940
 5029SOL    HW219888   5.396   1.264   0.232  1.4996 -2.4571 -0.4941
 5029SOL    HW319889   5.509   1.297   0.328  0.1142 -0.1787  0.4354
 5029SOL    MW419890   5.425   1.276   0.313  0.2846 -0.3614 -0.2978
 5030SOL     OW19891   5.918   0.571   5.038 -0.2541 -0.1435 -0.4233
 5030SOL    HW219892   5.973   0.577   4.961  0.8111 -1.1795  0.2345
 5030SOL    HW319893   5.876   0.485   5.032 -2.2877  0.8300 -1.1934
 5030SOL    MW419894   5.919   0.561   5.027 -0.3819 -0.1517 -0.4381
 5031SOL     OW19895   4.463   0.662   4.714 -0.0005 -0.5037 -0.1920
 5031SOL    HW219896   4.378   0.682   4.675  0.9717  1.5178 -1.4261
 5031SOL    HW319897   4.517   0.633   4.640  1.1187  0.8633  0.0402
 5031SOL    MW419898   4.459   0.661   4.699  0.2754 -0.0566 -0.3242
 5032SOL     OW19899   4.251   3.320   0.109  0.1725 -0.1114 -0.3319
 5032SOL    HW219900   4.269   3.268   0.187 -0.7667  0.2718  0.1490
 5032SOL    HW319901   4.223   3.256   0.043 -1.0571 -0.2315  0.2803
 5032SOL    MW419902   4.250   3.304   0.110 -0.1137 -0.0767 -0.1877
 5033SOL     OW19903   2.795   6.388   1.748  0.2706  0.2812  0.3938
 5033SOL    HW219904   2.853   6.453   1.788 -1.3604  1.6065  0.7494
 5033SOL    HW319905   2.769   6.427   1.665  1.1258 -1.0393 -0.5398
 5033SOL    MW419906   2.799   6.402   1.742  0.1682  0.2818  0.3175
 5034SOL     OW19907   5.596   1.929   1.108  0.4771  0.5658 -0.3045
 5034SOL    HW219908   5.656   1.968   1.044 -0.1601  2.1239 -0.0022
 5034SOL    HW319909   5.540   2.002   1.135  0.3932 -0.1596  1.6423
 5034SOL    MW419910   5.597   1.944   1.103  0.3819  0.6756 -0.0078
 5035SOL     OW19911   1.817   0.464   1.491 -0.4874 -0.2275  0.3956
 5035SOL    HW219912   1.871   0.419   1.555  0.2320  1.0137  0.6943
 5035SOL    HW319913   1.828   0.415   1.410  1.8811  0.5131  0.1957
 5035SOL    MW419914   1.825   0.452   1.489 -0.0800  0.0340  0.4086
 5036SOL     OW19915   2.318   3.880   5.129  0.5678  0.0287 -0.0693
 5036SOL    HW219916   2.271   3.809   5.171  1.0965  0.2086  0.8604
 5036SOL    HW319917   2.401   3.887   5.177  0.9402  0.6404 -0.7574
 5036SOL    MW419918   2.323   3.872   5.141  0.6867  0.1332 -0.0374
 5037SOL     OW19919   5.785   3.003   2.591  0.2632  0.5771  0.2148
 5037SOL    HW219920   5.809   2.918   2.554 -1.7849 -0.6195  1.4355
 5037SOL    HW319921   5.707   2.985   2.642  0.2864  3.0655  1.2442
 5037SOL    MW419922   5.778   2.989   2.593 -0.0040  0.7475  0.5117
 5038SOL     OW19923   0.946   1.245   2.038  0.3673 -0.1188 -0.0986
 5038SOL    HW219924   1.041   1.243   2.035  0.4164  0.6683  0.5743
 5038SOL    HW319925   0.925   1.329   2.079 -0.5927 -0.5881  0.4056
 5038SOL    MW419926   0.956   1.256   2.043  0.2471 -0.0769  0.0567
 5039SOL     OW19927   5.116   0.835   4.744 -0.1800  0.3147 -0.3964
 5039SOL    HW219928   5.054   0.907   4.752  1.6467  1.9494 -0.2458
 5039SOL    HW319929   5.062   0.759   4.720 -1.8141  2.6130 -5.4099
 5039SOL    MW419930   5.100   0.834   4.742 -0.1546  0.8336 -1.0380
 5040SOL     OW19931   1.899   2.410   4.450 -0.3574  0.2950 -0.2543
 5040SOL    HW219932   1.972   2.405   4.388  0.7597 -1.2903  1.1240
 5040SOL    HW319933   1.935   2.456   4.526 -1.2713  0.8546 -0.1376
 5040SOL    MW419934   1.913   2.416   4.452 -0.3306  0.1597 -0.0571
 5041SOL     OW19935   4.308   5.069   3.135 -0.1212  0.4441 -0.2890
 5041SOL    HW219936   4.344   5.156   3.121 -0.9185  0.9401  0.6454
 5041SOL    HW319937   4.237   5.082   3.197  0.5880 -1.0628  0.9027
 5041SOL    MW419938   4.303   5.082   3.141 -0.1328  0.3107 -0.0085
 5042SOL     OW19939   5.765   3.881   4.440  0.2422  0.4710 -0.0813
 5042SOL    HW219940   5.788   3.947   4.505 -0.1569 -1.2721  1.9412
 5042SOL    HW319941   5.679   3.849   4.467  0.6345 -1.2084 -0.6945
 5042SOL    MW419942   5.757   3.885   4.452  0.2413  0.0195  0.1046
 5043SOL     OW19943   1.766   4.612   3.985 -0.1269 -0.6858 -0.5444
 5043SOL    HW219944   1.837   4.548   3.982  0.7621  0.1772  1.1298
 5043SOL    HW319945   1.712   4.586   4.059  2.9231  3.0137  3.4962
 5043SOL    MW419946   1.768   4.600   3.994  0.3928 -0.0838  0.2096
 5044SOL     OW19947   4.388   4.320   5.765 -0.5987  0.1563 -0.5013
 5044SOL    HW219948   4.314   4.260   5.776  1.0987 -1.8797  0.8250
 5044SOL    HW319949   4.390   4.371   5.846  0.8494 -1.5969  0.6529
 5044SOL    MW419950   4.379   4.318   5.777 -0.1837 -0.3437 -0.1740
 5045SOL     OW19951   6.186   2.399   3.515 -0.2917 -0.1856 -0.1641
 5045SOL    HW219952   6.104   2.370   3.474 -0.2186 -0.5063 -0.0794
 5045SOL    HW319953   6.159   2.434   3.600 -0.2504 -0.9786  0.1778
 5045SOL    MW419954   6.171   2.400   3.520 -0.2766 -0.3326 -0.1078
 5046SOL     OW19955   2.962   2.791   0.617  0.6459  0.1140  0.3392
 5046SOL    HW219956   2.882   2.843   0.613  0.2474 -0.5075 -0.2479
 5046SOL    HW319957   2.969   2.752   0.529  0.6639 -1.1814  0.8831
 5046SOL    MW419958   2.952   2.792   0.605  0.5957 -0.1389  0.3335
 5047SOL     OW19959   3.639   5.329   0.605  1.1899  0.1916 -0.0758
 5047SOL    HW219960   3.701   5.270   0.648 -0.1879 -1.3572 -0.1286
 5047SOL    HW319961   3.649   5.311   0.512 -0.0739 -0.9100 -0.0372
 5047SOL    MW419962   3.648   5.319   0.598  0.8414 -0.1581 -0.0777
 5048SOL     OW19963   6.193   5.488   2.607 -0.4135  0.5231 -0.1669
 5048SOL    HW219964   6.247   5.505   2.683 -0.5233 -0.1486  0.0676
 5048SOL    HW319965   6.131   5.421   2.635 -0.5016  0.3149 -0.8216
 5048SOL    MW419966   6.192   5.481   2.620 -0.4396  0.4070 -0.2224
 5049SOL     OW19967   1.639   1.488   2.509  0.0251 -0.4036  0.3269
 5049SOL    HW219968   1.729   1.507   2.482 -0.1770  1.4768  0.8067
 5049SOL    HW319969   1.634   1.519   2.599 -1.1104 -0.4594  0.2971
 5049SOL    MW419970   1.650   1.495   2.517 -0.1514 -0.1629  0.3863
 5050SOL     OW19971   2.613   0.855   0.327 -0.4231  0.3505  0.1239
 5050SOL    HW219972   2.671   0.806   0.385 -1.3188 -0.7942  0.0726
 5050SOL    HW319973   2.602   0.940   0.371  2.2625  1.0998 -0.4883
 5050SOL    MW419974   2.619   0.860   0.341 -0.1869  0.2983  0.0364
 5051SOL     OW19975   1.737   5.841   5.185  0.4742 -0.2862  0.1274
 5051SOL    HW219976   1.697   5.924   5.211  0.8736 -0.7603  2.4157
 5051SOL    HW319977   1.821   5.866   5.145  0.1597  0.4526 -0.0782
 5051SOL    MW419978   1.743   5.855   5.183  0.4854 -0.2513  0.4022
 5052SOL     OW19979   1.069   4.516   5.643  0.3044 -0.0623  0.2179
 5052SOL    HW219980   1.045   4.448   5.581 -1.0886 -0.5394  1.2375
 5052SOL    HW319981   1.164   4.508   5.651  0.4514 -0.2980 -1.4511
 5052SOL    MW419982   1.079   4.506   5.636  0.1400 -0.1564  0.1322
 5053SOL     OW19983   4.155   0.267   5.558 -0.2516  0.3545  0.1755
 5053SOL    HW219984   4.182   0.205   5.626 -0.8657  0.5195  0.5848
 5053SOL    HW319985   4.142   0.213   5.480 -0.5050  0.0008  0.4566
 5053SOL    MW419986   4.157   0.251   5.557 -0.3661  0.3296  0.2666
 5054SOL     OW19987   4.177   4.403   3.809  0.4685  0.4707 -0.3802
 5054SOL    HW219988   4.110   4.445   3.755  0.2668 -1.1824 -1.4789
 5054SOL    HW319989   4.127   4.348   3.870  0.7676  1.0871  0.4500
 5054SOL    MW419990   4.161   4.401   3.810  0.4814  0.3339 -0.4156
 5055SOL     OW19991   3.855   6.185   0.717 -0.8118  0.0101 -0.1532
 5055SOL    HW219992   3.862   6.091   0.736 -0.5505 -0.0072 -0.3185
 5055SOL    HW319993   3.923   6.225   0.771 -1.3715  0.1842  0.4283
 5055SOL    MW419994   3.865   6.178   0.726 -0.8512  0.0308 -0.0983
 5056SOL     OW19995   5.220   2.702   6.342 -0.2206  0.4722  0.0433
 5056SOL    HW219996   5.152   2.635   6.332  0.1462  0.3133 -1.7857
 5056SOL    HW319997   5.267   2.678   6.422  0.5308 -2.0877 -1.0695
 5056SOL    MW419998   5.217   2.690   6.351 -0.0731  0.1135 -0.3448
 5057SOL     OW19999   3.141   5.503   3.252 -0.0355 -0.8230 -0.1752
 5057SOL    HW220000   3.071   5.566   3.271 -0.2589 -1.1850  0.2004
 5057SOL    HW320001   3.152   5.454   3.333 -0.3620 -1.7564 -0.6723
 5057SOL    MW420002   3.133   5.505   3.265 -0.1081 -0.9939 -0.1913
 5058SOL     OW20003   3.958   0.671   5.260  0.1037  0.5706  0.0247
 5058SOL    HW220004   3.992   0.629   5.339 -0.5716  0.0161  0.0264
 5058SOL    HW320005   3.959   0.602   5.194  0.3645  0.9499 -0.3757
 5058SOL    MW420006   3.963   0.656   5.262  0.0490  0.5475 -0.0279
 5059SOL     OW20007   1.800   0.391   1.211  0.1059 -0.1428  0.0075
 5059SOL    HW220008   1.743   0.314   1.216 -0.3098 -0.1128 -2.6012
 5059SOL    HW320009   1.889   0.355   1.217 -0.0805 -0.8776 -1.2055
 5059SOL    MW420010   1.804   0.376   1.212  0.0264 -0.2358 -0.4967
 5060SOL     OW20011   5.033   4.993   1.657  0.0150  0.1072 -0.1659
 5060SOL    HW220012   5.016   4.979   1.563  2.7449 -0.1786 -0.6848
 5060SOL    HW320013   5.040   4.904   1.693  0.0465  0.2194  0.1029
 5060SOL    MW420014   5.031   4.979   1.649  0.3794  0.0843 -0.1989
 5061SOL     OW20015   6.123   4.983   2.084  0.4311 -0.3938  0.4313
 5061SOL    HW220016   6.197   5.038   2.109 -0.8597  2.3857 -1.3337
 5061SOL    HW320017   6.136   4.967   1.990 -0.4052 -1.2026  0.4342
 5061SOL    MW420018   6.134   4.988   2.075  0.1505 -0.1338  0.1988
 5062SOL     OW20019   0.652   3.252   5.958 -0.5605 -0.3392 -0.0333
 5062SOL    HW220020   0.726   3.227   6.013 -1.6006 -0.4178  1.3896
 5062SOL    HW320021   0.638   3.345   5.978 -1.1874 -0.4673  0.1340
 5062SOL    MW420022   0.660   3.261   5.968 -0.7804 -0.3664  0.1765
 5063SOL     OW20023   2.792   5.202   1.079  0.4243  0.4378  0.4874
 5063SOL    HW220024   2.725   5.252   1.032  1.8032  1.4656 -0.4597
 5063SOL    HW320025   2.757   5.113   1.082 -1.1559  1.0122  0.3839
 5063SOL    MW420026   2.779   5.197   1.073  0.3977  0.6492  0.3488
 5064SOL     OW20027   6.155   2.849   4.812  0.5583  0.4230  0.6377
 5064SOL    HW220028   6.124   2.765   4.845 -0.1576 -0.4208 -1.9183
 5064SOL    HW320029   6.250   2.846   4.823  0.7294 -1.4992 -0.9103
 5064SOL    MW420030   6.164   2.838   4.818  0.4864  0.0581  0.0962
 5065SOL     OW20031   0.586   0.320   4.080  0.0568  0.1784 -0.1050
 5065SOL    HW220032   0.621   0.409   4.071 -0.2793  0.1935 -1.3800
 5065SOL    HW320033   0.660   0.263   4.058  0.0209  0.1590 -0.1754
 5065SOL    MW420034   0.600   0.324   4.076  0.0078  0.1778 -0.2825
 5066SOL     OW20035   0.082   5.663   3.397  0.4605 -0.7702 -0.0058
 5066SOL    HW220036   0.099   5.690   3.487  1.3475 -1.3466  0.0081
 5066SOL    HW320037   0.088   5.743   3.346  1.4454 -0.6741  0.2503
 5066SOL    MW420038   0.085   5.677   3.402  0.7075 -0.8336  0.0298
 5067SOL     OW20039   2.819   5.133   3.680 -0.9832 -0.3094  0.0066
 5067SOL    HW220040   2.815   5.228   3.687  0.2789 -0.1461 -1.0937
 5067SOL    HW320041   2.777   5.101   3.760 -0.9317  1.1741  0.6490
 5067SOL    MW420042   2.813   5.141   3.692 -0.8099 -0.0921 -0.0538
 5068SOL     OW20043   0.889   2.666   0.336 -0.2379 -0.4704 -0.2359
 5068SOL    HW220044   0.887   2.574   0.361  0.3368  0.1088  2.2122
 5068SOL    HW320045   0.809   2.703   0.374 -0.7631 -0.0281 -1.6835
 5068SOL    MW420046   0.878   2.659   0.344 -0.2314 -0.3356 -0.1039
 5069SOL     OW20047   2.056   6.114   5.355 -0.0666 -0.2873 -0.1438
 5069SOL    HW220048   2.032   6.129   5.264 -2.3244  1.5725  0.6567
 5069SOL    HW320049   1.975   6.126   5.404  1.2052 -0.5448  2.1920
 5069SOL    MW420050   2.042   6.118   5.349 -0.1967 -0.0759  0.2700
 5070SOL     OW20051   0.560   3.672   1.277 -0.1289 -0.4667 -0.0725
 5070SOL    HW220052   0.468   3.700   1.272  0.1001  0.1929 -0.7066
 5070SOL    HW320053   0.587   3.695   1.366 -0.0912  0.9053 -0.4175
 5070SOL    MW420054   0.551   3.678   1.288 -0.0937 -0.1987 -0.2016
 5071SOL     OW20055   2.699   0.234   3.501 -0.3666  0.0662  0.1674
 5071SOL    HW220056   2.688   0.302   3.435 -2.3531  0.0491  0.4087
 5071SOL    HW320057   2.784   0.252   3.540 -0.9553  2.6494  0.4514
 5071SOL    MW420058   2.709   0.245   3.497 -0.7063  0.4048  0.2367
 5072SOL     OW20059   3.467   2.377   0.129  0.2909 -0.2503 -0.1199
 5072SOL    HW220060   3.475   2.468   0.159 -1.4963  0.3606 -1.3439
 5072SOL    HW320061   3.517   2.375   0.047  0.2791 -0.3587 -0.1243
 5072SOL    MW420062   3.475   2.389   0.122  0.0535 -0.1840 -0.2820
 5073SOL     OW20063   5.297   0.756   1.662  0.0351 -0.1188  0.0732
 5073SOL    HW220064   5.210   0.732   1.693  0.0814  0.5071  0.7115
 5073SOL    HW320065   5.281   0.810   1.584 -0.1299 -0.3684 -0.0658
 5073SOL    MW420066   5.284   0.760   1.656  0.0194 -0.0692  0.1391
 5074SOL     OW20067   1.199   1.129   5.427 -0.2277 -0.3157  0.1885
 5074SOL    HW220068   1.124   1.100   5.478  0.2515 -0.6749  0.7129
 5074SOL    HW320069   1.247   1.187   5.486 -1.1358  1.5442 -0.8301
 5074SOL    MW420070   1.196   1.133   5.442 -0.2843 -0.1177  0.1233
 5075SOL     OW20071   4.580   2.346   2.192 -0.2271  0.5755 -0.2710
 5075SOL    HW220072   4.589   2.442   2.196  1.0745  0.4430  0.9958
 5075SOL    HW320073   4.567   2.320   2.283  0.6892 -0.5407 -0.4414
 5075SOL    MW420074   4.580   2.355   2.204  0.0655  0.4107 -0.1264
 5076SOL     OW20075   1.519   2.149   2.572  0.0737 -0.0117  0.3022
 5076SOL    HW220076   1.604   2.126   2.610  1.2683  0.6385 -1.8110
 5076SOL    HW320077   1.483   2.066   2.540  0.0078 -0.2604  1.0190
 5076SOL    MW420078   1.525   2.135   2.573  0.2226  0.0412  0.1180
 5077SOL     OW20079   1.316   5.230   2.513  0.1906  0.1429 -0.0748
 5077SOL    HW220080   1.250   5.211   2.580  1.6188 -0.7660  1.1382
 5077SOL    HW320081   1.293   5.173   2.440  1.3109 -2.4854  1.4855
 5077SOL    MW420082   1.304   5.220   2.512  0.5268 -0.3238  0.2911
 5078SOL     OW20083   1.147   1.393   3.804  0.1461  0.2329  0.0787
 5078SOL    HW220084   1.095   1.474   3.801  1.6027  1.2006 -0.0311
 5078SOL    HW320085   1.147   1.368   3.897  0.3885  0.8364  0.2449
 5078SOL    MW420086   1.140   1.400   3.816  0.3703  0.4402  0.0862
 5079SOL     OW20087   4.647   5.487   2.240  0.4386 -0.2549 -0.2154
 5079SOL    HW220088   4.650   5.580   2.260  0.5813  0.0016 -1.3433
 5079SOL    HW320089   4.563   5.474   2.196  1.3214 -0.2137 -2.0115
 5079SOL    MW420090   4.637   5.497   2.237  0.5739 -0.2156 -0.6012
 5080SOL     OW20091   2.708   5.303   6.058  0.1636  0.2971 -0.8688
 5080SOL    HW220092   2.717   5.271   5.968  0.2498  0.5534 -0.9524
 5080SOL    HW320093   2.628   5.354   6.057 -1.4218 -2.0093 -0.1156
 5080SOL    MW420094   2.699   5.305   6.046 -0.0342  0.0266 -0.7804
 5081SOL     OW20095   5.921   2.289   3.377  0.2067 -0.1796  0.2389
 5081SOL    HW220096   5.842   2.261   3.423 -1.0205  1.9622 -0.4295
 5081SOL    HW320097   5.900   2.377   3.344  2.0278 -0.5036 -2.0176
 5081SOL    MW420098   5.908   2.297   3.379  0.2851  0.0602 -0.1470
 5082SOL     OW20099   3.434   0.711   3.629 -0.6362  0.0635 -0.8104
 5082SOL    HW220100   3.459   0.622   3.603  0.9839 -0.0566  0.9381
 5082SOL    HW320101   3.473   0.768   3.562 -0.0558 -0.4361 -0.8992
 5082SOL    MW420102   3.442   0.707   3.617 -0.3459 -0.0182 -0.5914
 5083SOL     OW20103   3.207   3.374   3.623  0.4823  0.5142 -0.2450
 5083SOL    HW220104   3.147   3.434   3.578  2.2845  2.4404 -0.2538
 5083SOL    HW320105   3.281   3.365   3.563  0.8448 -0.6899  0.3533
 5083SOL    MW420106   3.208   3.381   3.609  0.7679  0.6095 -0.1672
 5084SOL     OW20107   1.594   1.408   1.762 -0.2872 -0.2286 -0.4792
 5084SOL    HW220108   1.608   1.427   1.855 -0.4008 -0.5998 -0.3846
 5084SOL    HW320109   1.673   1.361   1.735  0.7704  1.8198 -1.1422
 5084SOL    MW420110   1.606   1.404   1.771 -0.1626 -0.0074 -0.5542
 5085SOL     OW20111   1.949   0.816   1.082  0.1233 -0.1557  0.7502
 5085SOL    HW220112   1.903   0.895   1.053 -1.5610 -0.4355  2.4736
 5085SOL    HW320113   1.906   0.744   1.037 -0.3154 -0.3045  1.3814
 5085SOL    MW420114   1.937   0.817   1.073 -0.1568 -0.2123  1.0609
 5086SOL     OW20115   6.029   4.541   3.584 -0.2676  0.2964 -0.1608
 5086SOL    HW220116   5.966   4.484   3.539  1.3365 -0.8061 -1.1298
 5086SOL    HW320117   6.056   4.603   3.516 -1.3944  1.7398  0.6678
 5086SOL    MW420118   6.024   4.541   3.569 -0.2046  0.3414 -0.1793
 5087SOL     OW20119   3.601   1.660   2.078  0.1294  0.2178  0.4146
 5087SOL    HW220120   3.532   1.719   2.050  0.4864  0.8501  0.8328
 5087SOL    HW320121   3.612   1.679   2.171  1.1067  0.3923  0.2763
 5087SOL    MW420122   3.594   1.670   2.087  0.3055  0.3242  0.4516
 5088SOL     OW20123   1.982   0.753   2.712  0.1230 -0.2558  0.5502
 5088SOL    HW220124   2.018   0.841   2.704  1.0543 -0.7182 -0.7946
 5088SOL    HW320125   1.887   0.765   2.715  0.0301  0.7131 -2.5753
 5088SOL    MW420126   1.974   0.766   2.711  0.2336 -0.1890 -0.0396
 5089SOL     OW20127   1.382   3.811   4.159  0.3401  0.3299 -0.0229
 5089SOL    HW220128   1.347   3.867   4.090  0.2870  1.7277  1.0759
 5089SOL    HW320129   1.468   3.849   4.179 -1.0897  2.3197  3.1296
 5089SOL    MW420130   1.389   3.823   4.153  0.1444  0.7768  0.5380
 5090SOL     OW20131   1.316   3.659   5.799  0.9143 -0.4060 -0.1611
 5090SOL    HW220132   1.383   3.592   5.807  0.7752 -0.3868  1.2915
 5090SOL    HW320133   1.255   3.641   5.870  0.5654  0.9123 -0.1047
 5090SOL    MW420134   1.317   3.648   5.809  0.8499 -0.2295  0.0380
 5091SOL     OW20135   5.972   3.622   3.026  0.6190 -0.6334 -0.3016
 5091SOL    HW220136   5.971   3.671   2.943 -0.8762  1.1264  0.6686
 5091SOL    HW320137   6.026   3.676   3.084 -0.8379 -0.2045  0.7132
 5091SOL    MW420138   5.979   3.636   3.022  0.2295 -0.3446 -0.0397
 5092SOL     OW20139   4.414   0.418   1.720  0.6075  0.4000  0.8415
 5092SOL    HW220140   4.397   0.400   1.627 -0.7448 -0.3521  1.2110
 5092SOL    HW320141   4.328   0.436   1.757  1.1592  0.8519  1.9330
 5092SOL    MW420142   4.400   0.418   1.712  0.5019  0.3604  1.0343
 5093SOL     OW20143   5.245   5.089   4.682  0.3480  0.3527 -0.4122
 5093SOL    HW220144   5.196   5.171   4.669  0.5659  0.5490  0.0050
 5093SOL    HW320145   5.275   5.066   4.594  0.2429  0.6949 -0.5423
 5093SOL    MW420146   5.242   5.097   4.669  0.3629  0.4237 -0.3743
 5094SOL     OW20147   5.601   2.255   0.555  0.0380  0.0626 -0.0532
 5094SOL    HW220148   5.575   2.238   0.645 -1.7175  0.3643 -0.4734
 5094SOL    HW320149   5.599   2.350   0.547 -1.6869 -0.0111 -0.8946
 5094SOL    MW420150   5.597   2.265   0.566 -0.4212  0.0927 -0.2196
 5095SOL     OW20151   4.318   3.735   2.892 -0.5853  0.1415  1.1188
 5095SOL    HW220152   4.352   3.697   2.811  0.2237 -2.2481  2.4740
 5095SOL    HW320153   4.225   3.711   2.892 -0.8649  1.1329  0.4242
 5095SOL    MW420154   4.310   3.727   2.881 -0.5154 -0.0430  1.2060
 5096SOL     OW20155   0.312   1.643   2.033  0.4003  0.4663  0.0561
 5096SOL    HW220156   0.329   1.717   2.090  0.9572  1.0465 -0.8366
 5096SOL    HW320157   0.267   1.579   2.089  1.5681  0.7072  1.3240
 5096SOL    MW420158   0.308   1.644   2.048  0.6279  0.5746  0.1056
 5097SOL     OW20159   4.952   4.238   3.024  0.2613 -0.1243  0.4918
 5097SOL    HW220160   4.880   4.213   2.966  0.1639  0.4990  0.3328
 5097SOL    HW320161   4.912   4.298   3.087  0.2888 -1.0755  1.4443
 5097SOL    MW420162   4.937   4.242   3.025  0.2521 -0.1675  0.5965
 5098SOL     OW20163   1.446   0.155   1.717 -0.2600  0.5500 -0.8974
 5098SOL    HW220164   1.472   0.132   1.806 -0.7121 -1.2454 -1.1944
 5098SOL    HW320165   1.384   0.228   1.728  0.1205  0.7215  0.2054
 5098SOL    MW420166   1.441   0.162   1.730 -0.2694  0.3357 -0.7911
 5099SOL     OW20167   2.704   2.518   3.593 -0.3601  0.2942 -0.5511
 5099SOL    HW220168   2.709   2.524   3.689  0.6118 -0.6945 -0.5263
 5099SOL    HW320169   2.687   2.608   3.565  1.3847  0.9823  0.4426
 5099SOL    MW420170   2.702   2.531   3.602 -0.0016  0.2546 -0.4167
 5100SOL     OW20171   4.266   1.520   0.494  0.1021 -0.2023 -0.0163
 5100SOL    HW220172   4.318   1.445   0.523 -1.1536 -0.7852  0.8616
 5100SOL    HW320173   4.330   1.588   0.475  1.1321 -0.2693  2.7345
 5100SOL    MW420174   4.281   1.519   0.495  0.0723 -0.2880  0.4625
 5101SOL     OW20175   2.850   1.291   5.954  0.1207 -0.2888  0.2536
 5101SOL    HW220176   2.810   1.376   5.935 -0.6141 -0.5245  0.7202
 5101SOL    HW320177   2.899   1.304   6.035 -0.2563 -0.3963  0.4973
 5101SOL    MW420178   2.851   1.304   5.962 -0.0260 -0.3341  0.3473
 5102SOL     OW20179   2.539   1.661   0.488 -1.0713  0.6084  0.1407
 5102SOL    HW220180   2.484   1.583   0.492 -0.8390  0.4522  0.3938
 5102SOL    HW320181   2.485   1.726   0.444 -1.6730  0.6330  0.8883
 5102SOL    MW420182   2.525   1.659   0.483 -1.1201  0.5910  0.2728
 5103SOL     OW20183   1.215   1.705   1.248  0.3712  0.6567  0.5610
 5103SOL    HW220184   1.278   1.685   1.178 -1.7084  1.0011 -1.5504
 5103SOL    HW320185   1.176   1.789   1.222 -1.0472  0.3878  1.6852
 5103SOL    MW420186   1.218   1.713   1.235 -0.0903  0.6667  0.4308
 5104SOL     OW20187   5.198   5.758   1.921  0.5804  0.3524  0.6244
 5104SOL    HW220188   5.125   5.703   1.949  0.6664  0.2495  0.6426
 5104SOL    HW320189   5.259   5.756   1.994  1.1145 -0.4550  0.1628
 5104SOL    MW420190   5.196   5.751   1.934  0.6622  0.2323  0.5659
 5105SOL     OW20191   3.195   1.999   1.424  0.2334  0.5116  0.0542
 5105SOL    HW220192   3.238   2.080   1.395 -0.1710  0.6946 -0.0357
 5105SOL    HW320193   3.226   1.987   1.513 -0.2156  1.1225  0.3009
 5105SOL    MW420194   3.205   2.008   1.432  0.1208  0.6163  0.0749
 5106SOL     OW20195   0.962   3.244   4.108 -0.4741  0.4382 -0.2529
 5106SOL    HW220196   0.979   3.338   4.110  0.6333  0.2548 -0.7084
 5106SOL    HW320197   1.042   3.204   4.142 -0.7614 -0.3619 -0.4904
 5106SOL    MW420198   0.975   3.251   4.113 -0.3659  0.3085 -0.3443
 5107SOL     OW20199   3.270   5.453   1.710  0.0061  0.1511 -0.2763
 5107SOL    HW220200   3.296   5.368   1.745 -1.1380 -0.6680 -1.3237
 5107SOL    HW320201   3.214   5.491   1.777  0.3198 -0.0248  0.0893
 5107SOL    MW420202   3.266   5.447   1.723 -0.1034  0.0198 -0.3662
 5108SOL     OW20203   3.404   1.517   4.253  0.0234 -0.2064  0.1265
 5108SOL    HW220204   3.324   1.513   4.306 -0.5573  0.5877 -0.6515
 5108SOL    HW320205   3.390   1.593   4.196 -0.4171 -2.3141 -2.7966
 5108SOL    MW420206   3.392   1.526   4.253 -0.1113 -0.3797 -0.3618
 5109SOL     OW20207   2.137   3.087   2.541 -0.0824 -0.4478 -0.0237
 5109SOL    HW220208   2.073   3.059   2.476  0.8272 -1.5828 -0.4609
 5109SOL    HW320209   2.089   3.151   2.595 -0.6941  0.9854 -2.1115
 5109SOL    MW420210   2.122   3.092   2.540 -0.0431 -0.4085 -0.3568
 5110SOL     OW20211   5.729   5.788   2.420 -0.2335 -0.1284 -0.1152
 5110SOL    HW220212   5.731   5.840   2.340 -0.4170  1.3151  0.7856
 5110SOL    HW320213   5.817   5.799   2.457 -1.4893  3.3050  2.3338
 5110SOL    MW420214   5.741   5.796   2.414 -0.4234  0.5150  0.3268
 5111SOL     OW20215   4.269   6.189   2.353  0.2096  0.0781  0.3551
 5111SOL    HW220216   4.354   6.176   2.394  0.4658 -0.1156 -0.2241
 5111SOL    HW320217   4.268   6.127   2.280  0.5305  1.6799 -1.0793
 5111SOL    MW420218   4.280   6.179   2.349  0.2857  0.2639  0.0894
 5112SOL     OW20219   6.419   2.845   3.877  0.3072 -0.2289  0.3975
 5112SOL    HW220220   6.408   2.783   3.949 -0.9827 -0.2441  0.2057
 5112SOL    HW320221   6.399   2.795   3.798 -0.5858  0.3740  0.2252
 5112SOL    MW420222   6.415   2.830   3.876  0.0192 -0.1514  0.3495
 5113SOL     OW20223   1.642   3.501   2.515 -0.0492  0.2458  0.1235
 5113SOL    HW220224   1.710   3.567   2.501 -0.0725 -0.0358 -1.6271
 5113SOL    HW320225   1.593   3.531   2.591  1.1654  1.1886  0.5589
 5113SOL    MW420226   1.645   3.513   2.523  0.1080  0.3330 -0.0500
 5114SOL     OW20227   0.880   6.276   1.173 -0.1397 -0.1393 -0.1005
 5114SOL    HW220228   0.907   6.342   1.109 -1.0908 -1.9321 -2.4462
 5114SOL    HW320229   0.859   6.327   1.251 -1.1682  2.3933 -1.9046
 5114SOL    MW420230   0.881   6.292   1.175 -0.4009 -0.0417 -0.6480
 5115SOL     OW20231   3.036   1.383   2.785  0.6192 -0.1296 -0.9580
 5115SOL    HW220232   3.052   1.290   2.768  0.9965  0.0505 -1.6501
 5115SOL    HW320233   3.016   1.420   2.699 -1.6556  0.0394 -0.4158
 5115SOL    MW420234   3.036   1.376   2.771  0.3688 -0.0836 -0.9778
 5116SOL     OW20235   1.782   2.387   2.908  0.3093 -0.0776 -0.1502
 5116SOL    HW220236   1.709   2.326   2.915 -1.0780  1.2883 -1.8859
 5116SOL    HW320237   1.793   2.420   2.997  0.3483 -1.9581  0.5890
 5116SOL    MW420238   1.774   2.383   2.921  0.1314 -0.1455 -0.2817
 5117SOL     OW20239   2.239   5.926   5.535 -0.0582  0.3759 -0.6106
 5117SOL    HW220240   2.157   5.953   5.493  0.1949  0.0959 -1.3024
 5117SOL    HW320241   2.294   6.005   5.532 -0.4324  0.6802  0.2120
 5117SOL    MW420242   2.235   5.940   5.529 -0.0742  0.3791 -0.5933
 5118SOL     OW20243   4.264   3.869   2.273  0.4697  0.9834  0.3064
 5118SOL    HW220244   4.203   3.906   2.209 -1.5930  0.6881  1.9803
 5118SOL    HW320245   4.217   3.794   2.309  1.1491  1.6783  2.7942
 5118SOL    MW420246   4.250   3.864   2.269  0.2872  1.0361  0.8555
 5119SOL     OW20247   1.478   2.463   4.410  0.0398  0.2403 -0.2858
 5119SOL    HW220248   1.481   2.558   4.423 -0.5667 -0.0134  2.0399
 5119SOL    HW320249   1.519   2.450   4.324  0.7576  2.5214 -0.3633
 5119SOL    MW420250   1.484   2.474   4.400  0.0545  0.5078  0.0108
 5120SOL     OW20251   3.719   1.504   3.314  0.1443 -0.4090 -0.9426
 5120SOL    HW220252   3.745   1.507   3.222 -0.6412  3.9875 -1.2394
 5120SOL    HW320253   3.800   1.490   3.362  0.7834 -1.2494 -2.2323
 5120SOL    MW420254   3.733   1.503   3.309  0.1250  0.0602 -1.1519
 5121SOL     OW20255   0.130   3.182   2.209 -0.3824  0.0870 -0.7125
 5121SOL    HW220256   0.129   3.235   2.130  0.3113 -0.2725 -0.9715
 5121SOL    HW320257   0.220   3.187   2.241 -0.4978 -0.3011 -0.3075
 5121SOL    MW420258   0.142   3.189   2.203 -0.3061 -0.0116 -0.6932
 5122SOL     OW20259   3.346   4.640   4.949  0.1414  0.3154 -0.3938
 5122SOL    HW220260   3.262   4.674   4.981  0.2719 -0.7878  1.2305
 5122SOL    HW320261   3.411   4.703   4.981 -0.0032  1.1408 -1.6082
 5122SOL    MW420262   3.343   4.653   4.957  0.1396  0.2787 -0.3397
 5123SOL     OW20263   4.805   4.960   1.874 -0.3263  0.4970 -0.0445
 5123SOL    HW220264   4.833   5.018   1.803  2.1595  1.2894  1.4375
 5123SOL    HW320265   4.775   4.880   1.830  0.3765  1.2507 -1.9952
 5123SOL    MW420266   4.805   4.957   1.859  0.0944  0.7010 -0.1063
 5124SOL     OW20267   4.839   1.425   0.755 -0.0071  0.8690  0.3849
 5124SOL    HW220268   4.891   1.469   0.688  1.1128  1.5328  1.6533
 5124SOL    HW320269   4.897   1.360   0.793 -0.6541  0.4355  0.6617
 5124SOL    MW420270   4.853   1.422   0.751  0.0553  0.8993  0.5887
 5125SOL     OW20271   5.059   1.995   4.360  0.3392  0.0981 -0.1681
 5125SOL    HW220272   5.017   1.930   4.416  0.8924  0.4759  0.7120
 5125SOL    HW320273   5.149   2.000   4.394  0.9323 -0.2484 -1.6059
 5125SOL    MW420274   5.066   1.987   4.372  0.4904  0.1022 -0.2417
 5126SOL     OW20275   2.427   1.827   0.295  0.7634 -0.8106 -1.0024
 5126SOL    HW220276   2.367   1.853   0.225  1.3920 -0.2122 -1.3330
 5126SOL    HW320277   2.496   1.894   0.293 -0.4541  0.7228  1.8286
 5126SOL    MW420278   2.428   1.839   0.286  0.6857 -0.5293 -0.6725
 5127SOL     OW20279   5.169   3.901   4.891 -0.1742 -0.0232  0.0567
 5127SOL    HW220280   5.089   3.873   4.847 -0.1735 -0.9392  0.6097
 5127SOL    HW320281   5.239   3.854   4.846 -0.1433 -0.7184  0.8090
 5127SOL    MW420282   5.168   3.891   4.879 -0.1700 -0.2358  0.2289
 5128SOL     OW20283   1.857   3.628   5.436  0.5176 -0.5909  0.0096
 5128SOL    HW220284   1.862   3.703   5.376  2.4511 -1.6971 -1.3391
 5128SOL    HW320285   1.916   3.652   5.508  0.5086 -0.4921 -0.0151
 5128SOL    MW420286   1.866   3.641   5.438  0.7716 -0.7238 -0.1716
 5129SOL     OW20287   0.096   5.988   4.797 -0.1402  0.6371 -0.5537
 5129SOL    HW220288   0.111   5.905   4.842 -1.8971 -0.1218 -1.2531
 5129SOL    HW320289   0.001   6.001   4.802  0.0747  2.5277 -0.6128
 5129SOL    MW420290   0.085   5.979   4.803 -0.3436  0.7864 -0.6538
 5130SOL     OW20291   5.908   2.912   6.286  0.7809  0.0917  0.2293
 5130SOL    HW220292   5.838   2.950   6.339 -0.9238 -0.2915 -1.6083
 5130SOL    HW320293   5.933   2.982   6.225  0.4361 -0.4582 -0.5571
 5130SOL    MW420294   5.902   2.926   6.285  0.5105 -0.0314 -0.1169
 5131SOL     OW20295   5.024   2.888   4.767 -0.3434 -0.4820 -0.7837
 5131SOL    HW220296   5.065   2.911   4.851 -0.1809 -0.7637 -0.7805
 5131SOL    HW320297   4.962   2.818   4.790  2.3302 -3.2863 -1.3606
 5131SOL    MW420298   5.022   2.882   4.781  0.0308 -0.8892 -0.8594
 5132SOL     OW20299   2.334   5.523   5.787 -0.2662  0.5901 -0.3336
 5132SOL    HW220300   2.280   5.601   5.777 -0.6227  0.0719 -3.5717
 5132SOL    HW320301   2.274   5.450   5.771  0.2253 -0.3617  1.8670
 5132SOL    MW420302   2.319   5.524   5.784 -0.2484  0.3962 -0.4705
 5133SOL     OW20303   4.189   6.396   0.243 -0.1175 -0.3744  0.2654
 5133SOL    HW220304   4.280   6.415   0.221  0.0740 -2.0155 -0.5179
 5133SOL    HW320305   4.138   6.431   0.170  0.0356 -0.8532 -0.0746
 5133SOL    MW420306   4.194   6.403   0.231 -0.0721 -0.6541  0.1172
 5134SOL     OW20307   2.571   3.718   5.347 -0.5136  0.3634 -0.3343
 5134SOL    HW220308   2.570   3.811   5.367  1.9058  0.1047  1.3412
 5134SOL    HW320309   2.507   3.680   5.407 -0.1398  0.7337  0.3056
 5134SOL    MW420310   2.562   3.725   5.357 -0.1450  0.3781 -0.0288
 5135SOL     OW20311   2.463   4.975   1.161  0.4239  0.3164  0.2810
 5135SOL    HW220312   2.481   4.950   1.252  1.2217  0.8723  0.2931
 5135SOL    HW320313   2.541   4.947   1.113 -0.0474 -0.0787 -0.2574
 5135SOL    MW420314   2.476   4.968   1.167  0.4670  0.3376  0.2116
 5136SOL     OW20315   4.765   3.821   1.484  0.6412 -0.2510 -0.2290
 5136SOL    HW220316   4.839   3.791   1.431  0.3996 -2.1192  0.4052
 5136SOL    HW320317   4.688   3.788   1.438  0.3942 -1.2505  0.8457
 5136SOL    MW420318   4.765   3.813   1.471  0.5767 -0.6294 -0.0035
 5137SOL     OW20319   1.036   5.339   5.053  0.7859 -0.1702 -0.1480
 5137SOL    HW220320   1.112   5.388   5.083  0.6707 -0.4032  0.5430
 5137SOL    HW320321   1.072   5.262   5.009  0.9615  0.3900 -1.0097
 5137SOL    MW420322   1.051   5.336   5.051  0.7939 -0.1270 -0.1705
 5138SOL     OW20323   4.802   5.994   5.104  0.0268  0.1844  0.2774
 5138SOL    HW220324   4.770   6.060   5.043  0.0613 -0.5888 -0.5848
 5138SOL    HW320325   4.729   5.933   5.115  1.4026 -2.1813 -2.5108
 5138SOL    MW420326   4.788   5.995   5.098  0.2129 -0.2297 -0.2042
 5139SOL     OW20327   1.276   0.549   4.070 -0.3774  0.3498  0.7229
 5139SOL    HW220328   1.199   0.600   4.095 -0.3202  0.2442  1.1246
 5139SOL    HW320329   1.338   0.614   4.037 -0.7288  0.4058  0.1626
 5139SOL    MW420330   1.274   0.564   4.069 -0.4162  0.3432  0.7020
 5140SOL     OW20331   4.939   1.474   6.107  0.8329 -0.1053 -0.4626
 5140SOL    HW220332   5.022   1.449   6.147  0.3353  1.4492  1.7269
 5140SOL    HW320333   4.947   1.568   6.093 -0.7944  0.1927  0.4312
 5140SOL    MW420334   4.951   1.483   6.111  0.5526  0.1391 -0.0558
 5141SOL     OW20335   1.691   2.833   1.219  0.2822 -0.5380 -0.4351
 5141SOL    HW220336   1.769   2.887   1.205  1.6619 -2.2801  0.1658
 5141SOL    HW320337   1.684   2.781   1.140 -0.0492 -0.6497 -0.3321
 5141SOL    MW420338   1.701   2.834   1.207  0.4205 -0.7826 -0.3423
 5142SOL     OW20339   2.553   6.033   6.281 -0.7124  0.0277  0.1891
 5142SOL    HW220340   2.471   5.990   6.307 -0.5600  0.0076  0.6570
 5142SOL    HW320341   2.565   6.010   6.189  0.5092 -2.7933  0.9358
 5142SOL    MW420342   2.544   6.024   6.273 -0.5312 -0.3471  0.3493
 5143SOL     OW20343   0.606   0.018   1.012  0.3998 -0.4185  0.1408
 5143SOL    HW220344   0.616   0.014   1.107 -0.7948  1.7864  0.4275
 5143SOL    HW320345   0.513   0.002   0.997  0.7037 -1.4843 -0.7494
 5143SOL    MW420346   0.595   0.015   1.023  0.2823 -0.2682  0.0612
 5144SOL     OW20347   5.149   2.718   3.748  0.0435  0.7372  0.2924
 5144SOL    HW220348   5.098   2.638   3.740  1.5784 -0.3573  0.9674
 5144SOL    HW320349   5.222   2.706   3.687  0.9320  1.0762  1.2581
 5144SOL    MW420350   5.152   2.706   3.739  0.3632  0.6375  0.5088
 5145SOL     OW20351   1.930   5.212   6.413 -0.1416  0.2142 -0.3363
 5145SOL    HW220352   1.925   5.214   6.318  0.1598  0.5249 -0.3471
 5145SOL    HW320353   2.012   5.167   6.432 -0.6449 -0.6925 -0.2078
 5145SOL    MW420354   1.940   5.206   6.403 -0.1683  0.1355 -0.3208
 5146SOL     OW20355   3.497   3.193   0.222 -0.1114 -0.5652 -0.0804
 5146SOL    HW220356   3.498   3.275   0.272  1.7088 -0.5471 -0.1128
 5146SOL    HW320357   3.477   3.126   0.287  0.5409 -0.3430  0.3580
 5146SOL    MW420358   3.494   3.195   0.237  0.2148 -0.5335 -0.0269
 5147SOL     OW20359   0.734   0.073   5.979  0.4721  0.0867 -0.4990
 5147SOL    HW220360   0.656   0.119   5.948 -1.2229 -2.6759 -0.6849
 5147SOL    HW320361   0.730   0.082   6.074 -0.6516 -0.7831 -0.4371
 5147SOL    MW420362   0.723   0.080   5.988  0.1002 -0.3925 -0.5154
 5148SOL     OW20363   5.251   3.469   2.733 -0.2689  0.1848  0.0068
 5148SOL    HW220364   5.183   3.513   2.682 -0.9859 -3.2383 -2.4014
 5148SOL    HW320365   5.331   3.484   2.684 -0.2548  0.0347 -0.0171
 5148SOL    MW420366   5.252   3.477   2.720 -0.3616 -0.2867 -0.3141
 5149SOL     OW20367   3.473   4.732   2.733  0.6433  0.1142 -0.1915
 5149SOL    HW220368   3.500   4.641   2.746  1.3800  0.1425 -1.3490
 5149SOL    HW320369   3.532   4.783   2.789  1.1748 -0.0344 -0.6043
 5149SOL    MW420370   3.484   4.727   2.742  0.8106  0.0983 -0.3987
 5150SOL     OW20371   4.956   4.700   1.027 -0.1260 -0.1742  0.3781
 5150SOL    HW220372   5.015   4.775   1.018 -1.0825  0.4976 -0.5445
 5150SOL    HW320373   4.994   4.648   1.099  1.4228  0.3569 -0.0148
 5150SOL    MW420374   4.969   4.703   1.035 -0.0478 -0.0155  0.2045
 5151SOL     OW20375   3.435   4.579   4.681 -0.0149  0.2351 -0.3766
 5151SOL    HW220376   3.441   4.569   4.776  0.1102  0.1866 -0.3892
 5151SOL    HW320377   3.460   4.670   4.665  0.0663  0.2133 -0.3733
 5151SOL    MW420378   3.439   4.590   4.691  0.0123  0.2258 -0.3779
 5152SOL     OW20379   2.819   0.133   0.320  0.1643  0.2597 -0.5961
 5152SOL    HW220380   2.779   0.089   0.396 -1.6030  1.1066 -0.9989
 5152SOL    HW320381   2.786   0.085   0.244  1.8475 -0.5186 -0.8885
 5152SOL    MW420382   2.809   0.121   0.320  0.1532  0.2688 -0.6878
 5153SOL     OW20383   2.606   2.037   0.279  0.3232 -0.3196  0.0577
 5153SOL    HW220384   2.537   2.100   0.300  0.6628 -0.0669  0.4107
 5153SOL    HW320385   2.672   2.088   0.232  0.3775 -0.5134 -0.0792
 5153SOL    MW420386   2.606   2.052   0.275  0.3752 -0.3118  0.0862
 5154SOL     OW20387   4.339   4.110   1.110  0.2490  0.6088  0.4569
 5154SOL    HW220388   4.312   4.026   1.146  0.5151 -0.7150 -2.1509
 5154SOL    HW320389   4.418   4.133   1.159  1.6173 -1.9483 -0.3349
 5154SOL    MW420390   4.346   4.102   1.121  0.4647  0.0968  0.0084
 5155SOL     OW20391   1.487   0.205   0.725  0.4107  0.1439  1.1578
 5155SOL    HW220392   1.415   0.229   0.667  1.0739  0.6444  0.5220
 5155SOL    HW320393   1.460   0.236   0.811  0.6000  1.8776  0.6254
 5155SOL    MW420394   1.474   0.212   0.729  0.5232  0.4387  1.0037
 5156SOL     OW20395   5.506   6.407   4.367 -0.4290 -0.3105 -0.3339
 5156SOL    HW220396   5.448   6.332   4.360  0.2043 -0.9136  0.7135
 5156SOL    HW320397   5.528   6.429   4.276  0.5386 -2.3314 -0.6482
 5156SOL    MW420398   5.501   6.400   4.354 -0.2178 -0.6567 -0.2372
 5157SOL     OW20399   5.694   2.839   4.269 -0.3325  0.0059 -0.5718
 5157SOL    HW220400   5.695   2.746   4.288 -2.1025  0.0557 -0.0192
 5157SOL    HW320401   5.706   2.845   4.174  0.8263 -0.6928 -0.4855
 5157SOL    MW420402   5.696   2.828   4.259 -0.4132 -0.0797 -0.4875
 5158SOL     OW20403   2.415   2.517   0.054  0.3475  0.0180  0.3460
 5158SOL    HW220404   2.393   2.543   0.143  1.0955  0.1303  0.5044
 5158SOL    HW320405   2.341   2.464   0.025  0.1001 -0.0127  1.0293
 5158SOL    MW420406   2.402   2.514   0.062  0.4135  0.0288  0.4571
 5159SOL     OW20407   3.698   3.052   1.194 -0.4322  0.5589  0.5348
 5159SOL    HW220408   3.760   3.073   1.264  0.5693 -0.5691  0.0298
 5159SOL    HW320409   3.612   3.069   1.232  0.1667  1.8749  1.3531
 5159SOL    MW420410   3.695   3.057   1.208 -0.2211  0.5837  0.5761
 5160SOL     OW20411   3.008   0.742   0.261  0.3606  0.0823 -0.3234
 5160SOL    HW220412   2.985   0.771   0.172 -1.1145 -2.3247 -0.8066
 5160SOL    HW320413   3.073   0.672   0.246 -0.9568 -1.3328  0.3618
 5160SOL    MW420414   3.014   0.736   0.247 -0.0079 -0.4220 -0.2967
 5161SOL     OW20415   3.351   5.577   4.607  0.3696 -0.2542 -0.5468
 5161SOL    HW220416   3.344   5.487   4.640  1.3394 -0.1070  0.0986
 5161SOL    HW320417   3.445   5.594   4.605  0.1835  0.8487 -0.4077
 5161SOL    MW420418   3.363   5.567   4.611  0.4730 -0.0893 -0.4433
 5162SOL     OW20419   4.961   5.259   4.736 -0.4465  0.2916 -0.0612
 5162SOL    HW220420   4.899   5.294   4.800  0.9760  0.4369  1.3096
 5162SOL    HW320421   4.950   5.314   4.659 -0.4522  1.7747  0.9484
 5162SOL    MW420422   4.951   5.271   4.735 -0.2596  0.5065  0.2528
 5163SOL     OW20423   1.046   1.943   1.737 -0.2262 -0.4741 -0.4671
 5163SOL    HW220424   1.131   1.925   1.696  0.9445  1.0707  1.1390
 5163SOL    HW320425   1.003   1.857   1.739  0.4159 -0.9599 -3.0962
 5163SOL    MW420426   1.052   1.929   1.732  0.0129 -0.3344 -0.6021
 5164SOL     OW20427   1.715   0.193   3.254  0.1666  0.1793  0.3608
 5164SOL    HW220428   1.719   0.140   3.333 -0.1674 -1.9440 -0.9529
 5164SOL    HW320429   1.632   0.168   3.213  1.1035 -0.0779 -1.4883
 5164SOL    MW420430   1.705   0.183   3.259  0.2461 -0.1348 -0.0565
 5165SOL     OW20431   5.958   1.560   5.505 -0.4120  0.2599  0.1261
 5165SOL    HW220432   5.868   1.548   5.536 -1.3482  1.5564 -1.9283
 5165SOL    HW320433   5.993   1.631   5.560 -1.5271  1.4873 -0.7091
 5165SOL    MW420434   5.951   1.568   5.517 -0.6827  0.5929 -0.2552
 5166SOL     OW20435   1.975   3.327   6.357 -0.0928 -0.4547  0.0329
 5166SOL    HW220436   1.929   3.406   6.328  1.9879  0.3646 -1.2589
 5166SOL    HW320437   1.910   3.279   6.409 -1.8492  1.4062 -0.3200
 5166SOL    MW420438   1.960   3.331   6.360 -0.0500 -0.1011 -0.1841
 5167SOL     OW20439   2.431   2.579   3.873  0.1601  0.1453  0.1775
 5167SOL    HW220440   2.502   2.519   3.849 -0.5984 -0.4431 -0.6731
 5167SOL    HW320441   2.440   2.591   3.967  1.8972  0.7533 -0.0479
 5167SOL    MW420442   2.441   2.573   3.882  0.2892  0.1479  0.0356
 5168SOL     OW20443   4.136   3.531   4.477  0.1309  0.4245  0.5595
 5168SOL    HW220444   4.229   3.528   4.454  0.1856  1.3960  0.6142
 5168SOL    HW320445   4.097   3.459   4.427  1.4133 -2.2060  3.0666
 5168SOL    MW420446   4.143   3.521   4.467  0.3073  0.2056  0.8975
 5169SOL     OW20447   4.091   5.525   3.592  0.3385  0.1041 -0.0930
 5169SOL    HW220448   4.113   5.504   3.501 -0.4789  0.9866 -0.5111
 5169SOL    HW320449   4.124   5.451   3.643  1.1761 -0.2028 -1.0613
 5169SOL    MW420450   4.098   5.512   3.587  0.3412  0.1800 -0.2759
 5170SOL     OW20451   3.059   6.336   5.440  0.3331  0.4291 -0.6865
 5170SOL    HW220452   3.136   6.325   5.496  1.1293  2.3350 -1.3265
 5170SOL    HW320453   2.986   6.340   5.501  0.9499  0.3804  0.0750
 5170SOL    MW420454   3.060   6.335   5.456  0.5195  0.6741 -0.6704
 5171SOL     OW20455   2.192   1.995   1.553  0.0010 -0.4232  0.7088
 5171SOL    HW220456   2.243   2.067   1.517 -0.7425 -1.1215 -1.8881
 5171SOL    HW320457   2.110   2.035   1.582 -0.0709 -0.0867  0.0562
 5171SOL    MW420458   2.188   2.010   1.552 -0.1066 -0.4709  0.2800
 5172SOL     OW20459   3.080   3.012   6.402  0.3624 -0.3868  0.4482
 5172SOL    HW220460   3.121   2.928   6.425  0.4784 -0.8164 -1.1987
 5172SOL    HW320461   3.143   3.078   6.430  0.6649 -0.8877  0.9734
 5172SOL    MW420462   3.093   3.010   6.409  0.4176 -0.5096  0.3002
 5173SOL     OW20463   4.883   0.206   1.879 -0.2439 -0.0489  0.6460
 5173SOL    HW220464   4.793   0.189   1.906  0.0621 -2.0791  0.5585
 5173SOL    HW320465   4.931   0.127   1.904  1.6381  1.1833  1.1331
 5173SOL    MW420466   4.877   0.194   1.886  0.0448 -0.1542  0.6987
 5174SOL     OW20467   4.200   3.046   1.281  0.8004 -0.6393  0.3589
 5174SOL    HW220468   4.195   2.952   1.262 -1.4883 -0.3278 -0.9181
 5174SOL    HW320469   4.109   3.074   1.289  1.4455  1.4158  1.1310
 5174SOL    MW420470   4.187   3.037   1.280  0.5835 -0.3271  0.2923
 5175SOL     OW20471   5.673   0.412   4.846 -0.8047  0.0025  0.3564
 5175SOL    HW220472   5.719   0.353   4.786 -3.0742  0.0633 -1.5790
 5175SOL    HW320473   5.686   0.499   4.809 -1.3958  0.1581  0.5070
 5175SOL    MW420474   5.681   0.416   4.833 -1.1821  0.0310  0.1209
 5176SOL     OW20475   0.961   4.598   3.559  0.1434 -0.4526 -0.6879
 5176SOL    HW220476   1.052   4.622   3.542 -0.0350  1.7577  1.0328
 5176SOL    HW320477   0.962   4.563   3.649 -0.6521 -0.7167 -0.7755
 5176SOL    MW420478   0.973   4.597   3.569  0.0149 -0.1958 -0.4724
 5177SOL     OW20479   6.321   3.030   6.411 -0.8032 -0.0863  0.0878
 5177SOL    HW220480   6.383   3.030   6.339 -0.0383 -1.9425  0.7030
 5177SOL    HW320481   6.368   3.072   6.483 -0.7239 -0.3497  0.1887
 5177SOL    MW420482   6.335   3.036   6.411 -0.6918 -0.3660  0.1823
 5178SOL     OW20483   6.245   3.893   5.904  0.3525 -0.1139  0.2296
 5178SOL    HW220484   6.245   3.959   5.834  1.2983  0.0846  0.4033
 5178SOL    HW320485   6.153   3.882   5.926  0.0911  0.3132 -0.5892
 5178SOL    MW420486   6.233   3.901   5.898  0.4428 -0.0314  0.1445
 5179SOL     OW20487   1.932   4.430   6.168  0.3389 -0.0653 -0.3611
 5179SOL    HW220488   1.878   4.440   6.246  2.0001  0.9679  0.7173
 5179SOL    HW320489   1.869   4.420   6.096 -1.2476 -3.1999  1.2716
 5179SOL    MW420490   1.916   4.430   6.169  0.3488 -0.3426 -0.0034
 5180SOL     OW20491   0.159   2.659   4.866 -0.4794  0.3046 -0.3048
 5180SOL    HW220492   0.218   2.664   4.941 -2.5136 -2.5355  1.7289
 5180SOL    HW320493   0.095   2.728   4.881 -1.5207 -0.9398  1.3234
 5180SOL    MW420494   0.158   2.669   4.878 -0.8852 -0.2343  0.1783
 5181SOL     OW20495   5.230   5.970   0.995 -0.8111 -0.0874  0.9253
 5181SOL    HW220496   5.188   5.932   1.073 -0.1009 -2.8285  0.0767
 5181SOL    HW320497   5.195   5.919   0.922  0.9309  0.2824 -0.2210
 5181SOL    MW420498   5.220   5.959   0.996 -0.4875 -0.4003  0.6621
 5182SOL     OW20499   4.611   3.946   5.763  0.3960  1.0466  0.0813
 5182SOL    HW220500   4.558   3.974   5.688 -0.6188  0.6773  0.6443
 5182SOL    HW320501   4.598   4.015   5.828 -0.8569  0.0990  0.8877
 5182SOL    MW420502   4.602   3.959   5.761  0.0968  0.8728  0.2620
 5183SOL     OW20503   5.739   1.772   3.641 -0.0572  0.2934  0.2528
 5183SOL    HW220504   5.666   1.803   3.587  0.4116  0.0643 -0.5351
 5183SOL    HW320505   5.806   1.839   3.630 -0.4884  1.0052  1.7626
 5183SOL    MW420506   5.738   1.785   3.632 -0.0522  0.3571  0.3480
 5184SOL     OW20507   4.682   5.064   2.104  0.3056  0.4442 -0.4283
 5184SOL    HW220508   4.743   5.041   2.034 -0.3590  2.5575 -1.8153
 5184SOL    HW320509   4.737   5.080   2.180  0.9559 -3.0407 -0.0094
 5184SOL    MW420510   4.697   5.063   2.105  0.3037  0.2632 -0.5560
 5185SOL     OW20511   3.748   0.610   6.403 -0.3065  0.3624 -0.2474
 5185SOL    HW220512   3.666   0.597   6.355 -1.4599 -0.9184  1.9150
 5185SOL    HW320513   3.777   0.698   6.378 -1.8695  0.5058 -1.7131
 5185SOL    MW420514   3.741   0.620   6.394 -0.6649  0.2123 -0.1555
 5186SOL     OW20515   4.978   2.122   1.205  0.6035  0.1526 -0.1413
 5186SOL    HW220516   5.050   2.186   1.205  0.4533  0.3304 -0.8516
 5186SOL    HW320517   5.011   2.050   1.258  0.6613  0.9423  0.9259
 5186SOL    MW420518   4.992   2.121   1.212  0.5913  0.2803 -0.0942
 5187SOL     OW20519   3.273   0.434   2.688  0.5151 -0.2601  0.2273
 5187SOL    HW220520   3.338   0.439   2.618  0.8853  2.2167  0.6540
 5187SOL    HW320521   3.190   0.418   2.642  0.8999  0.2720 -0.6892
 5187SOL    MW420522   3.270   0.432   2.673  0.6147  0.1369  0.1626
 5188SOL     OW20523   5.759   1.630   6.344  0.6361 -0.2083 -0.3132
 5188SOL    HW220524   5.711   1.638   6.261  1.9224 -1.6860 -1.2502
 5188SOL    HW320525   5.798   1.543   6.341 -0.3243 -0.8355  2.4471
 5188SOL    MW420526   5.758   1.620   6.332  0.6791 -0.4860 -0.0727
 5189SOL     OW20527   5.359   4.359   5.137  0.8680 -0.0514 -0.2260
 5189SOL    HW220528   5.274   4.358   5.180  1.3119 -1.1976  0.6763
 5189SOL    HW320529   5.343   4.403   5.053 -0.3557  0.7797  0.4109
 5189SOL    MW420530   5.346   4.365   5.131  0.7651 -0.0930 -0.0229
 5190SOL     OW20531   2.993   5.436   5.565  0.0555 -0.5961 -0.4891
 5190SOL    HW220532   3.012   5.467   5.654 -0.2241  1.2644 -1.0285
 5190SOL    HW320533   3.023   5.507   5.508 -1.1583 -1.0910 -1.8032
 5190SOL    MW420534   3.000   5.449   5.569 -0.1415 -0.4159 -0.7337
 5191SOL     OW20535   6.408   1.506   3.327  0.4048 -0.3183  0.1851
 5191SOL    HW220536   6.485   1.474   3.281 -0.2385  1.4171 -2.3106
 5191SOL    HW320537   6.334   1.466   3.281 -0.2724  1.7030 -0.5807
 5191SOL    MW420538   6.408   1.497   3.315  0.2306  0.1774 -0.2452
 5192SOL     OW20539   2.752   1.561   5.846 -0.1521  0.3724 -0.2329
 5192SOL    HW220540   2.670   1.596   5.879 -0.7187  2.1925 -3.1554
 5192SOL    HW320541   2.741   1.559   5.751  2.1666 -2.1302 -0.5967
 5192SOL    MW420542   2.740   1.565   5.837  0.0791  0.2823 -0.6665
 5193SOL     OW20543   4.770   5.029   3.936  0.0201  0.5808 -0.0564
 5193SOL    HW220544   4.758   5.095   3.867 -1.1618  0.7747  0.3108
 5193SOL    HW320545   4.798   5.079   4.012  1.3715  0.3603 -0.3802
 5193SOL    MW420546   4.772   5.045   3.937  0.0424  0.5773 -0.0507
 5194SOL     OW20547   4.713   0.456   6.276  0.1661 -0.0251  0.7495
 5194SOL    HW220548   4.796   0.459   6.230 -0.9106 -0.9213 -1.3904
 5194SOL    HW320549   4.710   0.537   6.327  2.0744  0.2826  0.4420
 5194SOL    MW420550   4.723   0.467   6.277  0.2758 -0.1027  0.4266
 5195SOL     OW20551   2.272   2.990   4.977  0.3142 -0.1214 -0.9719
 5195SOL    HW220552   2.291   2.915   5.034  0.0828  0.2637 -0.3797
 5195SOL    HW320553   2.191   2.965   4.932 -2.1379  1.3640  2.2036
 5195SOL    MW420554   2.264   2.977   4.979 -0.0398  0.1254 -0.4748
 5196SOL     OW20555   0.267   4.151   0.145 -0.3335  0.3606  0.1808
 5196SOL    HW220556   0.228   4.212   0.208 -0.2921 -0.9226  1.5015
 5196SOL    HW320557   0.219   4.069   0.158  0.3137 -0.1923 -0.8078
 5196SOL    MW420558   0.255   4.148   0.155 -0.2427  0.1183  0.2246
 5197SOL     OW20559   1.540   3.486   0.529  0.0293 -0.4739  0.0243
 5197SOL    HW220560   1.482   3.486   0.605 -0.1591 -0.2600 -0.1143
 5197SOL    HW320561   1.504   3.556   0.473  0.8297  0.1311  0.2483
 5197SOL    MW420562   1.527   3.495   0.531  0.1101 -0.3658  0.0356
 5198SOL     OW20563   0.900   5.506   2.902 -0.2650  0.1973  0.4644
 5198SOL    HW220564   0.815   5.515   2.858 -0.0168  0.9924  0.1239
 5198SOL    HW320565   0.883   5.532   2.992 -0.8009 -1.5362  0.9040
 5198SOL    MW420566   0.886   5.511   2.908 -0.3029  0.0735  0.4775
 5199SOL     OW20567   6.358   6.321   0.776  0.0411  0.0941 -0.2697
 5199SOL    HW220568   6.421   6.292   0.843  0.7989  0.5512 -0.7734
 5199SOL    HW320569   6.328   6.239   0.735 -1.4993 -0.3184  1.5234
 5199SOL    MW420570   6.362   6.306   0.780 -0.0621  0.1000 -0.0996
 5200SOL     OW20571   0.582   0.431   1.439  0.2405  0.0382  0.2176
 5200SOL    HW220572   0.618   0.513   1.405 -0.1299  0.2571  0.3446
 5200SOL    HW320573   0.645   0.402   1.505 -0.8879  1.5979  2.0793
 5200SOL    MW420574   0.595   0.438   1.443  0.0428  0.2729  0.4800
 5201SOL     OW20575   5.232   3.367   1.841  0.0569  0.2585 -0.0428
 5201SOL    HW220576   5.148   3.406   1.864  0.8488  1.4486  0.9295
 5201SOL    HW320577   5.209   3.284   1.800 -1.5781  0.3820  0.5503
 5201SOL    MW420578   5.218   3.361   1.838 -0.0543  0.4318  0.1637
 5202SOL     OW20579   6.191   0.915   4.467 -0.4868  0.5930 -0.1178
 5202SOL    HW220580   6.283   0.895   4.483 -1.2971 -3.7047  0.4280
 5202SOL    HW320581   6.190   0.965   4.386  2.3118  1.4248  0.2615
 5202SOL    MW420582   6.203   0.919   4.459 -0.2244  0.1357  0.0042
 5203SOL     OW20583   2.628   5.221   0.703  0.1367 -0.4432 -0.8291
 5203SOL    HW220584   2.565   5.148   0.708  0.2911 -0.5133  0.4609
 5203SOL    HW320585   2.619   5.265   0.787  3.5737 -1.9574  0.5104
 5203SOL    MW420586   2.618   5.217   0.714  0.6105 -0.6522 -0.4822
 5204SOL     OW20587   4.868   4.496   0.839  0.1521 -0.4954 -0.3024
 5204SOL    HW220588   4.908   4.566   0.891  0.3966  1.8018 -3.2780
 5204SOL    HW320589   4.774   4.511   0.847  0.2105  0.5382 -1.2717
 5204SOL    MW420590   4.861   4.508   0.847  0.1921 -0.0560 -0.8228
 5205SOL     OW20591   6.188   5.798   1.824 -0.2517 -0.1473  0.4247
 5205SOL    HW220592   6.189   5.832   1.734 -0.6263  0.1460  0.5250
 5205SOL    HW320593   6.097   5.772   1.839 -0.2613  0.0933  0.8186
 5205SOL    MW420594   6.176   5.799   1.814 -0.3024 -0.0768  0.4899
 5206SOL     OW20595   1.215   0.229   0.617 -0.1215  0.0354  0.5310
 5206SOL    HW220596   1.188   0.195   0.703  0.9471 -0.2762  0.7531
 5206SOL    HW320597   1.152   0.191   0.556 -0.7245  0.0300  1.1418
 5206SOL    MW420598   1.203   0.220   0.620 -0.0601 -0.0064  0.6409
 5207SOL     OW20599   0.946   2.581   4.932 -0.2718  0.4635  0.2646
 5207SOL    HW220600   0.863   2.536   4.949 -0.5984 -0.0281 -2.1940
 5207SOL    HW320601   1.013   2.515   4.947 -0.5595 -0.0284 -0.5195
 5207SOL    MW420602   0.944   2.567   4.936 -0.3528  0.3338 -0.1632
 5208SOL     OW20603   2.421   4.277   2.748  0.1053  0.4966  0.1132
 5208SOL    HW220604   2.473   4.346   2.706 -1.1722  1.5609  0.1807
 5208SOL    HW320605   2.472   4.252   2.825  0.5713  1.4336  0.1219
 5208SOL    MW420606   2.435   4.283   2.753 -0.0018  0.7607  0.1233
 5209SOL     OW20607   2.045   0.991   1.714  0.1312 -0.2082  0.0333
 5209SOL    HW220608   2.011   0.904   1.695 -1.0760  0.5498 -1.4626
 5209SOL    HW320609   2.062   1.030   1.629  1.5012  0.7345  0.6871
 5209SOL    MW420610   2.043   0.985   1.701  0.1527  0.0162 -0.0778
 5210SOL     OW20611   1.062   0.462   2.070  0.0419 -0.2725  0.1675
 5210SOL    HW220612   0.996   0.480   2.004  0.3192  0.5894  0.1246
 5210SOL    HW320613   1.095   0.375   2.047  1.1139  0.5629 -1.6484
 5210SOL    MW420614   1.058   0.453   2.059  0.2200 -0.0486 -0.0778
 5211SOL     OW20615   1.265   2.078   5.886 -0.2887  0.6172 -0.3156
 5211SOL    HW220616   1.299   2.090   5.797 -1.5771  0.3574 -0.8588
 5211SOL    HW320617   1.170   2.072   5.876 -0.4165 -0.1104  1.0132
 5211SOL    MW420618   1.257   2.079   5.873 -0.4756  0.4869 -0.2120
 5212SOL     OW20619   0.824   5.383   0.865 -0.1093  0.3687 -0.2154
 5212SOL    HW220620   0.730   5.387   0.847  0.0471  0.0675 -1.1455
 5212SOL    HW320621   0.833   5.418   0.954 -1.2961 -1.2339  0.5827
 5212SOL    MW420622   0.813   5.388   0.874 -0.2452  0.1175 -0.2328
 5213SOL     OW20623   5.071   3.762   3.107  0.2264 -0.2684  0.6957
 5213SOL    HW220624   5.044   3.685   3.157 -0.6532 -1.4425 -1.4582
 5213SOL    HW320625   5.155   3.738   3.067  0.3820  0.2251  0.7096
 5213SOL    MW420626   5.079   3.749   3.108  0.1309 -0.3582  0.4133
 5214SOL     OW20627   0.640   4.029   3.779 -0.5566  0.2183 -0.5448
 5214SOL    HW220628   0.606   4.086   3.847  1.4321 -0.2675  0.9368
 5214SOL    HW320629   0.587   4.049   3.702 -2.2040  1.5047  0.8570
 5214SOL    MW420630   0.628   4.039   3.778 -0.5116  0.3239 -0.1644
 5215SOL     OW20631   0.374   4.589   5.119  0.4195  0.1767  0.1984
 5215SOL    HW220632   0.371   4.683   5.137 -1.0994 -0.1566  1.8960
 5215SOL    HW320633   0.296   4.572   5.067  0.9354 -0.1068 -0.5077
 5215SOL    MW420634   0.364   4.599   5.115  0.2872  0.0953  0.3292
 5216SOL     OW20635   6.347   1.577   2.463 -0.2408  0.1883 -0.5327
 5216SOL    HW220636   6.400   1.643   2.418 -1.2404 -0.0493 -2.1528
 5216SOL    HW320637   6.261   1.617   2.473 -0.0596  0.2079  1.1852
 5216SOL    MW420638   6.343   1.591   2.458 -0.3488  0.1595 -0.5198
 5217SOL     OW20639   2.398   0.911   5.922 -0.1790  0.1541 -0.3202
 5217SOL    HW220640   2.426   0.995   5.886 -1.6249  1.4905  1.5031
 5217SOL    HW320641   2.334   0.934   5.989 -0.2268 -2.3917  0.5959
 5217SOL    MW420642   2.393   0.925   5.926 -0.3761 -0.0055  0.0412
 5218SOL     OW20643   3.371   5.913   1.765 -0.4176 -0.4470  0.4863
 5218SOL    HW220644   3.448   5.970   1.770 -0.6158  0.3161 -2.8021
 5218SOL    HW320645   3.316   5.940   1.838  0.4540  2.1394  0.2829
 5218SOL    MW420646   3.374   5.924   1.776 -0.3288 -0.0051  0.0256
 5219SOL     OW20647   5.257   1.100   3.585  0.1148 -0.3726  0.7932
 5219SOL    HW220648   5.319   1.164   3.620  1.1043 -0.3934 -0.8009
 5219SOL    HW320649   5.296   1.073   3.501 -1.2821 -1.5648  0.4921
 5219SOL    MW420650   5.271   1.105   3.578  0.0610 -0.5327  0.5431
 5220SOL     OW20651   1.070   6.207   5.702  0.2454 -0.6915 -0.0267
 5220SOL    HW220652   1.052   6.206   5.608  0.4177  0.4315 -0.0878
 5220SOL    HW320653   1.006   6.269   5.738  1.2446  0.1491  0.3455
 5220SOL    MW420654   1.059   6.215   5.694  0.4000 -0.4324  0.0144
 5221SOL     OW20655   1.105   3.683   3.232 -0.0995  0.1448 -0.2342
 5221SOL    HW220656   1.021   3.640   3.213 -0.1487  0.9085 -1.9396
 5221SOL    HW320657   1.116   3.673   3.326 -1.8817 -0.3817 -0.0427
 5221SOL    MW420658   1.095   3.676   3.242 -0.3411  0.1761 -0.4340
 5222SOL     OW20659   2.328   2.581   2.771  0.2494  0.0170 -0.4541
 5222SOL    HW220660   2.384   2.504   2.763 -0.6901 -0.5733 -1.6274
 5222SOL    HW320661   2.258   2.553   2.831 -0.2292 -0.1307 -1.0788
 5222SOL    MW420662   2.326   2.567   2.778  0.0623 -0.0803 -0.6913
 5223SOL     OW20663   5.503   5.925   5.423 -0.1884  0.4443  0.1332
 5223SOL    HW220664   5.523   5.936   5.331  0.6096  0.6561  0.3315
 5223SOL    HW320665   5.575   5.966   5.470 -0.7904  0.7085  0.8569
 5223SOL    MW420666   5.515   5.932   5.417 -0.1626  0.5071  0.2549
 5224SOL     OW20667   5.293   0.471   6.256 -0.6477  0.6099 -0.1517
 5224SOL    HW220668   5.229   0.400   6.259 -0.6425  0.6341  1.0917
 5224SOL    HW320669   5.304   0.498   6.348  0.8388  0.8837 -0.3774
 5224SOL    MW420670   5.286   0.465   6.269 -0.4509  0.6492 -0.0174
 5225SOL     OW20671   0.826   2.340   4.293  0.4564 -0.1735 -0.2206
 5225SOL    HW220672   0.792   2.422   4.259  1.0423  0.9198  1.6972
 5225SOL    HW320673   0.827   2.351   4.388  1.6822 -1.9316  0.0342
 5225SOL    MW420674   0.822   2.352   4.301  0.6954 -0.2612  0.0661
 5226SOL     OW20675   5.065   6.179   2.552 -0.1847 -0.0919 -0.6638
 5226SOL    HW220676   5.064   6.177   2.456  0.0578 -0.4287 -0.6628
 5226SOL    HW320677   5.102   6.094   2.577 -0.1937  0.0173 -0.2726
 5226SOL    MW420678   5.070   6.167   2.542 -0.1539 -0.1219 -0.6120
 5227SOL     OW20679   1.515   0.684   4.323  0.4717  0.3068  0.4509
 5227SOL    HW220680   1.439   0.725   4.365  0.4809 -0.1320  0.9157
 5227SOL    HW320681   1.480   0.603   4.286  0.3451  0.9516 -0.8965
 5227SOL    MW420682   1.500   0.679   4.323  0.4562  0.3340  0.3344
 5228SOL     OW20683   2.445   0.760   0.635 -0.0866  0.3126 -0.0406
 5228SOL    HW220684   2.535   0.790   0.639 -0.1053  0.5435 -1.0713
 5228SOL    HW320685   2.399   0.826   0.584 -0.2047 -1.2172 -2.0505
 5228SOL    MW420686   2.450   0.773   0.629 -0.1047  0.1412 -0.4418
 5229SOL     OW20687   4.586   1.282   2.909  0.1549 -0.9245 -0.2522
 5229SOL    HW220688   4.643   1.320   2.976 -2.3984  0.8159  1.1234
 5229SOL    HW320689   4.559   1.198   2.946  1.9697 -1.9224 -1.0651
 5229SOL    MW420690   4.590   1.276   2.923  0.0574 -0.8266 -0.1779
 5230SOL     OW20691   1.681   0.098   3.519  0.0068  0.7577 -0.0378
 5230SOL    HW220692   1.681   0.122   3.612  1.0973 -0.1022  0.2085
 5230SOL    HW320693   1.606   0.144   3.482 -0.7113  0.7565  1.3625
 5230SOL    MW420694   1.671   0.108   3.527  0.0560  0.6441  0.1795
 5231SOL     OW20695   1.892   6.331   2.156 -0.3896 -0.3797  0.3054
 5231SOL    HW220696   1.840   6.389   2.212  1.3747  0.7425  0.8511
 5231SOL    HW320697   1.929   6.266   2.217 -0.2882 -0.5190  0.0953
 5231SOL    MW420698   1.890   6.330   2.172 -0.1434 -0.2500  0.3496
 5232SOL     OW20699   0.388   2.793   4.705  0.5284 -0.2916 -0.1649
 5232SOL    HW220700   0.454   2.772   4.639  0.6835 -0.3791  0.0189
 5232SOL    HW320701   0.377   2.712   4.755  0.4326 -0.2150 -0.0622
 5232SOL    MW420702   0.395   2.779   4.703  0.5362 -0.2930 -0.1271
 5233SOL     OW20703   1.600   0.754   3.110 -0.1670  0.1359  0.1909
 5233SOL    HW220704   1.527   0.772   3.170 -1.2931 -1.6981 -0.5338
 5233SOL    HW320705   1.664   0.707   3.164 -1.2261 -1.6153 -0.0174
 5233SOL    MW420706   1.599   0.750   3.125 -0.4553 -0.3371  0.0678
 5234SOL     OW20707   1.023   4.887   3.793  0.7465 -0.0081  0.1153
 5234SOL    HW220708   1.106   4.841   3.796  0.5030 -0.4123  1.6960
 5234SOL    HW320709   1.030   4.954   3.862 -0.2196 -0.0302  0.2563
 5234SOL    MW420710   1.035   4.890   3.802  0.5869 -0.0643  0.3425
 5235SOL     OW20711   1.573   5.749   3.372 -0.1731  0.2422  0.2105
 5235SOL    HW220712   1.500   5.770   3.430  0.2211 -2.1774  1.6968
 5235SOL    HW320713   1.588   5.830   3.323 -3.6376  0.9046  0.0252
 5235SOL    MW420714   1.565   5.763   3.373 -0.5782  0.0103  0.3822
 5236SOL     OW20715   0.698   0.726   1.413  0.1853  0.2575  0.5160
 5236SOL    HW220716   0.782   0.765   1.440  0.2465  1.3032 -1.0533
 5236SOL    HW320717   0.646   0.723   1.493  1.3775  0.5185  1.3215
 5236SOL    MW420718   0.702   0.731   1.427  0.3507  0.4299  0.4152
 5237SOL     OW20719   1.225   1.245   4.070  0.3688  0.5703  0.3648
 5237SOL    HW220720   1.308   1.275   4.107  1.1485 -0.9599 -0.0402
 5237SOL    HW320721   1.226   1.150   4.083 -2.4801  0.6849  2.6917
 5237SOL    MW420722   1.236   1.236   4.077  0.0958  0.3835  0.6184
 5238SOL     OW20723   2.321   2.884   5.332  0.0609  0.8754  0.0146
 5238SOL    HW220724   2.346   2.822   5.263  0.0367 -1.4202  1.9284
 5238SOL    HW320725   2.404   2.924   5.359  0.0581  1.8588 -1.3663
 5238SOL    MW420726   2.336   2.881   5.327  0.0574  0.7022  0.0849
 5239SOL     OW20727   2.714   4.922   1.078 -0.0045  0.1808  0.1722
 5239SOL    HW220728   2.683   4.851   1.023  0.9363  0.3839 -0.6419
 5239SOL    HW320729   2.730   4.882   1.163  0.1388 -0.4908 -0.1678
 5239SOL    MW420730   2.712   4.908   1.082  0.1385  0.1190  0.0199
 5240SOL     OW20731   3.807   2.941   5.827 -0.4264  0.7522 -0.1687
 5240SOL    HW220732   3.862   2.998   5.773  0.5736  0.1612  0.2208
 5240SOL    HW320733   3.853   2.934   5.910 -0.1541 -1.2234 -0.4491
 5240SOL    MW420734   3.820   2.948   5.831 -0.2585  0.4136 -0.1543
 5241SOL     OW20735   5.157   4.675   3.839 -0.4042 -0.0823 -0.1838
 5241SOL    HW220736   5.102   4.753   3.842  0.8164  0.9042 -1.7543
 5241SOL    HW320737   5.101   4.605   3.871 -1.5011  1.4411  1.3970
 5241SOL    MW420738   5.142   4.676   3.843 -0.3879  0.2489 -0.1824
 5242SOL     OW20739   3.873   0.224   0.865  0.8673 -0.0206 -0.5234
 5242SOL    HW220740   3.848   0.213   0.773 -0.7829 -1.6667  0.0661
 5242SOL    HW320741   3.815   0.165   0.913  2.1435  0.3030  1.5302
 5242SOL    MW420742   3.862   0.215   0.859  0.8180 -0.1951 -0.1747
 5243SOL     OW20743   3.683   0.137   1.465 -0.3435 -0.5675  0.1970
 5243SOL    HW220744   3.706   0.045   1.448 -0.8612 -0.4971 -0.9334
 5243SOL    HW320745   3.589   0.135   1.483 -0.5016 -0.1744 -0.5498
 5243SOL    MW420746   3.674   0.124   1.465 -0.4326 -0.5063 -0.0507
 5244SOL     OW20747   2.636   5.858   1.070  0.0295 -0.1215  0.3960
 5244SOL    HW220748   2.697   5.838   0.999  0.2530  0.5240  0.3957
 5244SOL    HW320749   2.556   5.886   1.026  0.1462  0.2154  0.3954
 5244SOL    MW420750   2.633   5.859   1.055  0.0744  0.0081  0.3959
 5245SOL     OW20751   5.276   3.643   2.964  0.0921  0.2615 -0.1520
 5245SOL    HW220752   5.273   3.597   2.880 -3.8139 -0.7128  0.3552
 5245SOL    HW320753   5.335   3.591   3.018 -0.4848 -1.4098 -1.0832
 5245SOL    MW420754   5.283   3.630   2.960 -0.4993 -0.0875 -0.2079
 5246SOL     OW20755   1.145   5.349   3.120  0.0137 -0.3420  0.6000
 5246SOL    HW220756   1.138   5.444   3.117 -1.9016 -0.4423  0.0430
 5246SOL    HW320757   1.133   5.327   3.213 -0.6735 -0.0676  0.5871
 5246SOL    MW420758   1.142   5.359   3.132 -0.3297 -0.3190  0.5248
 5247SOL     OW20759   2.416   5.374   5.174 -0.1639 -0.2554 -0.0164
 5247SOL    HW220760   2.468   5.441   5.218 -0.3171  0.3707 -0.7542
 5247SOL    HW320761   2.398   5.309   5.241  0.4687  0.1690  0.5739
 5247SOL    MW420762   2.420   5.374   5.189 -0.1006 -0.1168 -0.0358
 5248SOL     OW20763   2.062   3.969   3.236 -0.3716  0.1326 -0.3555
 5248SOL    HW220764   2.016   3.976   3.152 -0.5397  0.6257 -0.2299
 5248SOL    HW320765   2.139   4.024   3.226 -1.1680  1.4282  0.3078
 5248SOL    MW420766   2.066   3.977   3.224 -0.4988  0.3686 -0.2514
 5249SOL     OW20767   2.551   3.339   0.779  0.0199 -0.3023 -0.1490
 5249SOL    HW220768   2.565   3.418   0.832 -0.7980  0.6189 -1.2497
 5249SOL    HW320769   2.472   3.299   0.816  0.3335 -0.5116  0.2989
 5249SOL    MW420770   2.542   3.344   0.791 -0.0466 -0.2084 -0.2351
 5250SOL     OW20771   3.649   4.124   2.694 -0.0292 -0.2611  0.0516
 5250SOL    HW220772   3.666   4.210   2.733 -0.5670  0.2787 -0.8670
 5250SOL    HW320773   3.556   4.125   2.672  0.2885 -0.4529 -1.4290
 5250SOL    MW420774   3.639   4.135   2.696 -0.0582 -0.2152 -0.2650
 5251SOL     OW20775   0.589   5.362   3.492  0.4360 -0.2545  0.2748
 5251SOL    HW220776   0.571   5.430   3.427  0.0079  0.4523  1.1154
 5251SOL    HW320777   0.537   5.387   3.568 -1.4905 -2.6858 -0.0912
 5251SOL    MW420778   0.579   5.374   3.493  0.1253 -0.4821  0.3375
 5252SOL     OW20779   1.809   3.187   2.327 -0.2138  0.0787  0.2103
 5252SOL    HW220780   1.870   3.116   2.346  1.2130  1.4700  1.0928
 5252SOL    HW320781   1.723   3.146   2.332  0.5330 -1.4873  1.2081
 5252SOL    MW420782   1.806   3.172   2.330  0.0730  0.0556  0.4584
 5253SOL     OW20783   5.567   4.340   3.154 -0.1857 -0.1413 -0.0262
 5253SOL    HW220784   5.497   4.306   3.210 -0.9959  2.8619  0.9814
 5253SOL    HW320785   5.643   4.287   3.177 -1.3437 -1.3572  1.2527
 5253SOL    MW420786   5.567   4.328   3.165 -0.4454  0.0945  0.2755
 5254SOL     OW20787   6.414   5.591   0.435 -0.1026 -0.2371 -0.2790
 5254SOL    HW220788   6.364   5.671   0.420 -0.1313 -0.2670 -0.3429
 5254SOL    HW320789   6.505   5.620   0.445  0.0006 -0.2678 -1.0613
 5254SOL    MW420790   6.419   5.605   0.434 -0.0928 -0.2451 -0.3907
 5255SOL     OW20791   4.327   0.686   5.498  0.4352  0.4937 -0.4083
 5255SOL    HW220792   4.256   0.735   5.539 -0.2506  0.3345 -1.3812
 5255SOL    HW320793   4.378   0.651   5.572 -0.4494  0.6656  0.2965
 5255SOL    MW420794   4.325   0.688   5.514  0.2280  0.4954 -0.4436
 5256SOL     OW20795   1.264   1.809   5.970 -0.1775  0.5334 -0.0648
 5256SOL    HW220796   1.264   1.904   5.954  1.4801  0.5598 -0.0670
 5256SOL    HW320797   1.258   1.801   6.065  0.5004  0.6722 -0.0072
 5256SOL    MW420798   1.263   1.821   5.981  0.1306  0.5552 -0.0575
 5257SOL     OW20799   5.804   5.654   0.824  0.3284  0.3774  0.3156
 5257SOL    HW220800   5.874   5.693   0.877  1.1823 -0.7771  0.0987
 5257SOL    HW320801   5.764   5.588   0.881 -0.0295  0.4612  0.1641
 5257SOL    MW420802   5.808   5.650   0.839  0.3939  0.2361  0.2670
 5258SOL     OW20803   3.293   5.003   4.656 -0.6452  0.0387  0.0210
 5258SOL    HW220804   3.235   4.985   4.582  1.2575  0.4515 -1.6459
 5258SOL    HW320805   3.317   5.095   4.646  1.9519 -0.6252 -0.6458
 5258SOL    MW420806   3.288   5.013   4.645 -0.0515  0.0055 -0.2869
 5259SOL     OW20807   4.835   3.903   2.514 -0.4090 -0.5247 -0.1477
 5259SOL    HW220808   4.883   3.840   2.460  1.9696  0.5466  0.5566
 5259SOL    HW320809   4.836   3.984   2.462 -1.2943 -0.4158 -0.0115
 5259SOL    MW420810   4.842   3.906   2.500 -0.2120 -0.3690 -0.0368
 5260SOL     OW20811   1.467   5.458   5.860  0.4538 -0.2884 -0.3596
 5260SOL    HW220812   1.418   5.527   5.816  0.7895 -0.0517 -0.3640
 5260SOL    HW320813   1.517   5.504   5.928  1.0022 -0.4679 -0.6350
 5260SOL    MW420814   1.467   5.473   5.863  0.5704 -0.2808 -0.3965
 5261SOL     OW20815   1.167   5.729   5.483  0.1824 -0.0361  0.1389
 5261SOL    HW220816   1.092   5.778   5.515  0.1937 -0.0342  0.1625
 5261SOL    HW320817   1.129   5.655   5.435  0.1222  1.0782 -1.6509
 5261SOL    MW420818   1.152   5.726   5.481  0.1759  0.1111 -0.0941
 5262SOL     OW20819   1.104   2.832   6.427  0.1044 -0.3618 -0.6624
 5262SOL    HW220820   1.165   2.779   6.375  1.7993  0.4914  0.3611
 5262SOL    HW320821   1.118   2.921   6.395  0.1100 -0.0279  0.2566
 5262SOL    MW420822   1.114   2.837   6.416  0.3287 -0.2052 -0.4061
 5263SOL     OW20823   0.010   2.311   2.294 -0.4208 -0.1162 -0.3647
 5263SOL    HW220824  -0.030   2.394   2.320 -0.7823 -0.3629 -0.1193
 5263SOL    HW320825   0.100   2.334   2.269  0.3760 -0.0039  2.2479
 5263SOL    MW420826   0.017   2.325   2.294 -0.3633 -0.1340  0.0124
 5264SOL     OW20827   4.125   5.269   5.954  0.3962  0.7385  0.1092
 5264SOL    HW220828   4.124   5.355   5.912 -0.0359  0.3496 -0.6956
 5264SOL    HW320829   4.216   5.242   5.951  0.2249  0.2229 -1.6447
 5264SOL    MW420830   4.137   5.277   5.948  0.3166  0.6192 -0.2284
 5265SOL     OW20831   5.303   6.230   5.306  0.0590  0.0007  0.1920
 5265SOL    HW220832   5.283   6.136   5.311  1.9683 -0.5012 -0.6319
 5265SOL    HW320833   5.398   6.234   5.304  0.0281  1.9979  0.4338
 5265SOL    MW420834   5.313   6.218   5.307  0.3068  0.1980  0.1152
 5266SOL     OW20835   2.597   3.723   5.053 -0.4429  0.4965 -0.2574
 5266SOL    HW220836   2.525   3.669   5.020 -1.0919  1.6739 -0.8361
 5266SOL    HW320837   2.589   3.719   5.148 -0.5046 -0.3720 -0.2913
 5266SOL    MW420838   2.587   3.715   5.061 -0.5367  0.5373 -0.3382
 5267SOL     OW20839   3.554   1.174   0.365  0.4660  0.0808  0.0774
 5267SOL    HW220840   3.620   1.242   0.350 -0.9456  1.0890 -2.0375
 5267SOL    HW320841   3.492   1.214   0.426  0.7375 -0.0985  0.4709
 5267SOL    MW420842   3.555   1.188   0.371  0.3156  0.1902 -0.1497
 5268SOL     OW20843   6.000   4.380   2.058  0.5851 -0.4757 -0.3674
 5268SOL    HW220844   5.959   4.341   2.135 -0.9878  0.5144 -0.6588
 5268SOL    HW320845   5.962   4.332   1.984  0.0416  0.3322 -0.6310
 5268SOL    MW420846   5.989   4.369   2.058  0.3059 -0.2385 -0.4407
 5269SOL     OW20847   5.773   3.747   6.179  0.3601  0.4120 -0.2518
 5269SOL    HW220848   5.717   3.733   6.103  1.5484  1.4309 -1.3683
 5269SOL    HW320849   5.738   3.827   6.220  0.4342  0.5339 -0.4228
 5269SOL    MW420850   5.761   3.756   6.175  0.5267  0.5625 -0.4216
 5270SOL     OW20851   5.848   5.961   0.660  0.1919  0.1714  0.7381
 5270SOL    HW220852   5.775   5.969   0.599  0.7603  4.1088  0.3071
 5270SOL    HW320853   5.819   6.006   0.739  1.5809  0.4872  1.1067
 5270SOL    MW420854   5.835   5.968   0.662  0.4502  0.7325  0.7298
 5271SOL     OW20855   0.963   6.295   4.552  0.0380 -0.2984 -0.5421
 5271SOL    HW220856   0.937   6.292   4.644 -0.8106  1.8792 -0.6409
 5271SOL    HW320857   1.048   6.339   4.552 -0.0810 -0.0624 -0.8143
 5271SOL    MW420858   0.971   6.301   4.564 -0.0897  0.0200 -0.5911
 5272SOL     OW20859   6.093   2.874   3.699 -0.5798  0.0475  0.1165
 5272SOL    HW220860   6.162   2.806   3.697 -1.1644 -0.5468 -0.4109
 5272SOL    HW320861   6.039   2.851   3.774 -0.5694  0.1500  0.1555
 5272SOL    MW420862   6.095   2.862   3.709 -0.6556 -0.0174  0.0521
 5273SOL     OW20863   1.957   2.373   3.357 -0.2385 -0.0450  0.0290
 5273SOL    HW220864   1.912   2.391   3.439 -0.2413  1.0565 -0.1996
 5273SOL    HW320865   1.952   2.278   3.346 -2.3523  0.0295  0.0839
 5273SOL    MW420866   1.950   2.362   3.366 -0.5177  0.1102  0.0061
 5274SOL     OW20867   4.801   1.481   3.058  0.3227 -0.3071  0.0166
 5274SOL    HW220868   4.782   1.574   3.047 -3.6678 -1.0193 -0.4713
 5274SOL    HW320869   4.837   1.474   3.146  3.0992  1.8799 -0.8026
 5274SOL    MW420870   4.803   1.492   3.068  0.1625 -0.1125 -0.1559
 5275SOL     OW20871   3.129   6.400   6.180 -0.3057 -0.2885  0.0445
 5275SOL    HW220872   3.220   6.373   6.189 -0.2136 -0.7786 -2.0121
 5275SOL    HW320873   3.091   6.338   6.119 -1.5964  0.8516 -0.3597
 5275SOL    MW420874   3.136   6.389   6.173 -0.4639 -0.2027 -0.2802
 5276SOL     OW20875   5.530   0.573   2.446  0.2807 -0.0524 -0.6842
 5276SOL    HW220876   5.519   0.575   2.541 -1.6056 -0.9492 -0.8426
 5276SOL    HW320877   5.592   0.501   2.431 -1.4664 -1.7160 -0.2386
 5276SOL    MW420878   5.537   0.563   2.456 -0.1987 -0.3902 -0.6463
 5277SOL     OW20879   0.591   1.006   3.880  0.3115  0.0575 -0.3017
 5277SOL    HW220880   0.598   1.076   3.815 -0.0053  1.4755  1.1414
 5277SOL    HW320881   0.497   0.989   3.886  0.3446 -0.1049 -0.2579
 5277SOL    MW420882   0.579   1.013   3.872  0.2740  0.2232 -0.1056
 5278SOL     OW20883   2.313   5.042   0.450  0.3554  1.0050  0.4451
 5278SOL    HW220884   2.312   5.137   0.438 -1.1322  1.1949  1.6674
 5278SOL    HW320885   2.233   5.012   0.408 -0.8397  0.7434  2.7358
 5278SOL    MW420886   2.302   5.051   0.443  0.0015  0.9955  0.9086
 5279SOL     OW20887   4.285   4.301   2.914 -0.2084  0.8441  0.5877
 5279SOL    HW220888   4.200   4.278   2.876  0.0778  1.1663 -0.2697
 5279SOL    HW320889   4.337   4.330   2.840  0.9971 -0.3102  0.9530
 5279SOL    MW420890   4.280   4.302   2.900 -0.0116  0.7343  0.5228
 5280SOL     OW20891   1.457   4.301   0.503  0.1014  0.0913  0.3208
 5280SOL    HW220892   1.532   4.305   0.562  0.7408  0.5411 -0.4949
 5280SOL    HW320893   1.419   4.388   0.507 -0.6982 -0.2741  1.1081
 5280SOL    MW420894   1.462   4.313   0.511  0.0803  0.1024  0.3171
 5281SOL     OW20895   2.700   3.720   4.174  0.0028 -0.4369 -0.3341
 5281SOL    HW220896   2.661   3.769   4.247  0.4595 -1.6678  0.7864
 5281SOL    HW320897   2.753   3.784   4.128  0.3063  0.2277  0.8839
 5281SOL    MW420898   2.702   3.735   4.178  0.1031 -0.5116 -0.0255
 5282SOL     OW20899   1.186   0.732   0.518 -0.6571 -0.1530 -0.2251
 5282SOL    HW220900   1.103   0.702   0.482 -0.8494  1.4512 -1.2766
 5282SOL    HW320901   1.211   0.666   0.582 -2.3121 -1.0982 -0.5035
 5282SOL    MW420902   1.179   0.720   0.521 -0.9009 -0.0661 -0.4005
 5283SOL     OW20903   4.739   4.959   5.724  0.8549  0.0349 -0.1678
 5283SOL    HW220904   4.696   4.987   5.804  2.5323 -0.9959  1.1642
 5283SOL    HW320905   4.833   4.962   5.744  1.4986  1.9295 -2.8542
 5283SOL    MW420906   4.746   4.963   5.737  1.1611  0.1489 -0.3465
 5284SOL     OW20907   4.428   1.327   3.807 -0.1809 -0.0250  0.4677
 5284SOL    HW220908   4.415   1.323   3.902 -1.7367 -0.4437  0.2790
 5284SOL    HW320909   4.357   1.383   3.776  0.2065 -0.0417 -0.4696
 5284SOL    MW420910   4.417   1.334   3.815 -0.3351 -0.0825  0.3192
 5285SOL     OW20911   5.238   1.150   3.040 -0.1447 -0.2046  0.0630
 5285SOL    HW220912   5.157   1.099   3.044 -0.7860  0.7777 -0.0388
 5285SOL    HW320913   5.244   1.178   2.949  0.2762 -0.2293  0.0831
 5285SOL    MW420914   5.228   1.147   3.029 -0.1738 -0.0782  0.0522
 5286SOL     OW20915   1.047   3.768   4.435  0.2859  0.4373 -0.2081
 5286SOL    HW220916   1.048   3.687   4.385  0.7877  1.5045 -2.0547
 5286SOL    HW320917   0.958   3.801   4.426  0.7820  1.4654 -1.9585
 5286SOL    MW420918   1.035   3.762   4.427  0.4176  0.7137 -0.6827
 5287SOL     OW20919   3.206   5.737   6.422 -0.0897  0.5707 -0.0006
 5287SOL    HW220920   3.163   5.703   6.343  0.1295  1.0917 -0.3490
 5287SOL    HW320921   3.140   5.728   6.490  0.2862 -1.4557  0.1531
 5287SOL    MW420922   3.191   5.732   6.420 -0.0112  0.3721 -0.0263
 5288SOL     OW20923   5.667   1.997   2.572 -0.4623  0.0715 -0.6606
 5288SOL    HW220924   5.742   1.950   2.610 -0.4038 -0.0974 -0.9859
 5288SOL    HW320925   5.642   1.944   2.497 -1.7155 -0.5827  0.1872
 5288SOL    MW420926   5.674   1.984   2.567 -0.6200 -0.0371 -0.5917
 5289SOL     OW20927   1.944   2.095   4.221  0.4055  0.0103  0.2581
 5289SOL    HW220928   1.947   2.102   4.126  0.6636 -1.2995  0.1540
 5289SOL    HW320929   1.869   2.149   4.246  0.6134  0.7448 -0.6334
 5289SOL    MW420930   1.934   2.103   4.212  0.4670 -0.0656  0.1267
 5290SOL     OW20931   3.112   1.827   0.804 -0.4009  0.0712  0.1482
 5290SOL    HW220932   3.058   1.759   0.764  1.4227 -1.3224 -0.0632
 5290SOL    HW320933   3.090   1.906   0.755 -0.6164 -0.9272 -1.4421
 5290SOL    MW420934   3.102   1.829   0.792 -0.1888 -0.2444 -0.0895
 5291SOL     OW20935   0.557   4.687   1.414  0.8548 -0.0498 -0.7047
 5291SOL    HW220936   0.652   4.676   1.423  0.6630 -0.5149  1.0690
 5291SOL    HW320937   0.532   4.743   1.487 -0.3711 -0.7557 -0.5515
 5291SOL    MW420938   0.566   4.693   1.425  0.6677 -0.2043 -0.4505
 5292SOL     OW20939   5.378   4.856   2.301 -0.1987 -0.1044 -0.6162
 5292SOL    HW220940   5.399   4.949   2.308  0.4567 -0.3609  1.9981
 5292SOL    HW320941   5.387   4.836   2.208  2.1948  1.8903 -0.9154
 5292SOL    MW420942   5.382   4.865   2.290  0.2035  0.1249 -0.3108
 5293SOL     OW20943   0.462   1.988   1.752 -0.1168  0.3554  0.1288
 5293SOL    HW220944   0.501   2.068   1.716  1.6915 -0.8793 -0.8028
 5293SOL    HW320945   0.388   1.969   1.694  1.7394 -0.6706 -2.0615
 5293SOL    MW420946   0.457   1.996   1.740  0.3667  0.0571 -0.2831
 5294SOL     OW20947   2.499   2.277   2.255 -0.3496  0.4032 -0.6211
 5294SOL    HW220948   2.498   2.259   2.161  1.3624  2.4013 -1.0886
 5294SOL    HW320949   2.454   2.361   2.264  1.7595  1.5473 -0.0528
 5294SOL    MW420950   2.493   2.286   2.244  0.1545  0.8178 -0.6078
 5295SOL     OW20951   0.801   5.391   0.455  0.9399  0.5371 -0.3955
 5295SOL    HW220952   0.720   5.341   0.450  0.7058  1.0266 -2.1937
 5295SOL    HW320953   0.774   5.479   0.479  0.6956  1.1155 -2.5962
 5295SOL    MW420954   0.787   5.396   0.457  0.8768  0.6780 -0.9231
 5296SOL     OW20955   1.503   5.150   0.374  0.2967 -0.5833 -0.0066
 5296SOL    HW220956   1.584   5.132   0.327  1.2796  1.2828  0.8821
 5296SOL    HW320957   1.454   5.209   0.317  1.5898  1.8659  1.2670
 5296SOL    MW420958   1.507   5.155   0.360  0.5970 -0.0140  0.2787
 5297SOL     OW20959   4.942   3.265   5.526 -0.7982  0.8442  0.7627
 5297SOL    HW220960   5.029   3.263   5.566 -1.5971  2.4421  2.7796
 5297SOL    HW320961   4.907   3.177   5.538  0.1828  0.4413  0.7322
 5297SOL    MW420962   4.949   3.253   5.533 -0.7742  1.0019  1.0248
 5298SOL     OW20963   5.702   2.484   4.860 -0.0236 -0.7826 -0.2321
 5298SOL    HW220964   5.619   2.533   4.858  0.4619  0.0739  0.0939
 5298SOL    HW320965   5.706   2.447   4.948  0.0502 -0.6278 -0.1704
 5298SOL    MW420966   5.691   2.486   4.871  0.0502 -0.6492 -0.1810
 5299SOL     OW20967   1.731   5.241   2.380  0.2633 -0.5562  0.6782
 5299SOL    HW220968   1.673   5.232   2.304 -1.1766  1.9297  1.3699
 5299SOL    HW320969   1.680   5.206   2.453  0.2332  0.1974  1.0309
 5299SOL    MW420970   1.717   5.235   2.379  0.0694 -0.1288  0.8160
 5300SOL     OW20971   1.156   5.580   2.495 -0.6084  0.0096 -0.3638
 5300SOL    HW220972   1.249   5.561   2.507 -0.5261  0.8573  0.5031
 5300SOL    HW320973   1.112   5.529   2.562 -0.7779 -0.4086 -0.7882
 5300SOL    MW420974   1.162   5.571   2.505 -0.6199  0.0663 -0.3054
 5301SOL     OW20975   6.115   0.276   3.978  0.0095  0.0482  0.1915
 5301SOL    HW220976   6.055   0.201   3.972 -0.8913  0.8161 -0.9175
 5301SOL    HW320977   6.163   0.262   4.059 -1.1777 -0.9776  0.7546
 5301SOL    MW420978   6.113   0.264   3.988 -0.2660  0.0142  0.1195
 5302SOL     OW20979   1.695   2.514   0.625 -0.1773 -0.3493 -0.0254
 5302SOL    HW220980   1.737   2.577   0.684 -0.9477 -0.3684  0.5601
 5302SOL    HW320981   1.750   2.436   0.630  0.2314 -0.0610  0.0158
 5302SOL    MW420982   1.708   2.512   0.633 -0.2251 -0.3138  0.0573
 5303SOL     OW20983   6.147   0.884   5.908  0.0330 -0.1931 -0.0871
 5303SOL    HW220984   6.172   0.923   5.992 -0.0413 -0.3839  0.0246
 5303SOL    HW320985   6.147   0.790   5.925 -1.0036 -0.1924 -0.0121
 5303SOL    MW420986   6.150   0.877   5.921 -0.1136 -0.2182 -0.0625
 5304SOL     OW20987   5.624   6.285   2.092  0.6166  0.3654 -0.0028
 5304SOL    HW220988   5.718   6.269   2.099  0.2522 -1.0552  3.3929
 5304SOL    HW320989   5.611   6.372   2.131  0.4351  0.2224  0.2587
 5304SOL    MW420990   5.634   6.295   2.098  0.5446  0.1591  0.4798
 5305SOL     OW20991   5.685   2.417   1.424  0.5870 -0.1035  0.2464
 5305SOL    HW220992   5.735   2.411   1.343  0.8561 -0.5836  0.4436
 5305SOL    HW320993   5.695   2.331   1.465 -1.3244 -0.6258 -0.2539
 5305SOL    MW420994   5.693   2.405   1.419  0.3703 -0.2358  0.2064
 5306SOL     OW20995   2.675   2.803   1.234 -0.2986 -0.1212 -0.0048
 5306SOL    HW220996   2.587   2.792   1.270  0.8075 -2.1463  2.4369
 5306SOL    HW320997   2.667   2.780   1.141 -2.4542  0.6394 -0.0541
 5306SOL    MW420998   2.662   2.798   1.226 -0.4371 -0.2881  0.3108
 5307SOL     OW20999   1.116   3.041   3.435  0.6138  0.2101  0.1527
 5307SOL    HW221000   1.159   2.994   3.363  1.2846  0.6239  0.2773
 5307SOL    HW321001   1.148   2.997   3.514 -0.5540 -0.6102  0.2045
 5307SOL    MW421002   1.126   3.029   3.436  0.5482  0.1565  0.1760
 5308SOL     OW21003   2.647   2.987   1.940  0.1058 -0.2154  0.2236
 5308SOL    HW221004   2.626   3.062   1.996  0.1535  0.1261 -0.2121
 5308SOL    HW321005   2.590   2.997   1.864  0.5331 -0.2918 -0.1133
 5308SOL    MW421006   2.637   2.998   1.937  0.1685 -0.1804  0.1217
 5309SOL     OW21007   1.931   2.842   4.995  0.3421  0.2780 -0.1227
 5309SOL    HW221008   1.961   2.877   4.911  1.8305 -0.9030 -0.1207
 5309SOL    HW321009   1.949   2.748   4.990 -2.9670 -0.4800  0.1119
 5309SOL    MW421010   1.937   2.835   4.983  0.1019  0.0222 -0.0915
 5310SOL     OW21011   4.606   3.041   5.723  0.3155 -0.3480 -0.1839
 5310SOL    HW221012   4.665   3.026   5.650  1.7927 -1.0984  1.1069
 5310SOL    HW321013   4.619   2.966   5.781  1.7685  1.7998  2.4937
 5310SOL    MW421014   4.615   3.029   5.721  0.7021 -0.1637  0.3397
 5311SOL     OW21015   3.886   4.870   3.279 -0.1838 -0.0164  0.0332
 5311SOL    HW221016   3.805   4.890   3.326 -1.0210  0.4977 -1.5782
 5311SOL    HW321017   3.902   4.947   3.225  0.8035 -0.5611 -0.4658
 5311SOL    MW421018   3.877   4.883   3.278 -0.1640 -0.0204 -0.2452
 5312SOL     OW21019   0.166   0.261   3.295  0.0614  0.0022 -0.1508
 5312SOL    HW221020   0.221   0.326   3.339  0.1102 -0.2256  0.1264
 5312SOL    HW321021   0.104   0.313   3.243 -0.6096  0.3123  0.9137
 5312SOL    MW421022   0.165   0.276   3.294 -0.0207  0.0131  0.0262
 5313SOL     OW21023   0.013   4.209   0.949 -0.2132 -0.4960  0.5139
 5313SOL    HW221024   0.018   4.180   1.040  0.3795  0.5158  0.8198
 5313SOL    HW321025  -0.021   4.298   0.954  0.1283 -0.3131 -0.2256
 5313SOL    MW421026   0.010   4.217   0.962 -0.0900 -0.3384  0.4567
 5314SOL     OW21027   0.118   0.831   1.581  0.2314  0.6801 -0.4759
 5314SOL    HW221028   0.082   0.762   1.526 -0.0999  0.6073 -0.1677
 5314SOL    HW321029   0.213   0.821   1.572  0.2641 -1.3291  1.4030
 5314SOL    MW421030   0.126   0.821   1.572  0.1920  0.4054 -0.1873
 5315SOL     OW21031   5.843   2.724   4.835  0.7308 -0.1112 -0.0251
 5315SOL    HW221032   5.794   2.642   4.829 -0.4652  0.5664  0.2445
 5315SOL    HW321033   5.831   2.765   4.749  2.3902 -0.7681 -0.6208
 5315SOL    MW421034   5.835   2.718   4.823  0.7919 -0.1085 -0.0681
 5316SOL     OW21035   4.710   5.247   3.780 -0.4337 -0.4294 -0.3937
 5316SOL    HW221036   4.765   5.286   3.712 -0.8142  0.1337 -0.3903
 5316SOL    HW321037   4.627   5.295   3.773 -0.5449 -0.5119  0.3238
 5316SOL    MW421038   4.706   5.258   3.770 -0.4986 -0.3660 -0.2986
 5317SOL     OW21039   0.622   5.661   1.882 -0.1555  0.8558 -0.1221
 5317SOL    HW221040   0.622   5.753   1.855 -2.3000  0.4870 -1.6143
 5317SOL    HW321041   0.542   5.625   1.844  0.6152 -1.6380  0.4587
 5317SOL    MW421042   0.612   5.668   1.873 -0.3368  0.4781 -0.2423
 5318SOL     OW21043   4.222   1.461   3.661 -0.5308  0.2389 -0.7456
 5318SOL    HW221044   4.232   1.459   3.566  0.5130 -0.2355 -0.6320
 5318SOL    HW321045   4.132   1.431   3.675 -0.4898 -0.3204 -1.5587
 5318SOL    MW421046   4.211   1.457   3.650 -0.3877  0.1025 -0.8379
 5319SOL     OW21047   1.005   0.762   5.824 -0.2464 -0.5064  0.0045
 5319SOL    HW221048   1.084   0.765   5.769  0.0064 -1.6199  0.2878
 5319SOL    HW321049   1.026   0.698   5.891 -0.9397  0.1094  0.8211
 5319SOL    MW421050   1.018   0.754   5.825 -0.3045 -0.5721  0.1496
 5320SOL     OW21051   0.055   1.971   3.751  0.2938 -0.1438  0.0634
 5320SOL    HW221052  -0.025   2.022   3.753  0.0075 -0.5447 -0.6628
 5320SOL    HW321053   0.063   1.942   3.660  0.7561 -0.8945  0.3298
 5320SOL    MW421054   0.045   1.974   3.739  0.3170 -0.2958  0.0027
 5321SOL     OW21055   3.278   3.204   0.698 -0.6086 -0.2342  0.5568
 5321SOL    HW221056   3.371   3.229   0.696 -0.4504 -0.7477  1.0825
 5321SOL    HW321057   3.249   3.210   0.607 -0.2172  0.5155  0.4767
 5321SOL    MW421058   3.287   3.208   0.686 -0.5361 -0.2031  0.6156
 5322SOL     OW21059   6.266   1.334   5.321  0.0489  0.6711  0.0425
 5322SOL    HW221060   6.245   1.271   5.390  0.9110 -0.1819 -0.4495
 5322SOL    HW321061   6.261   1.419   5.364  1.3751  0.1123  1.3716
 5322SOL    MW421062   6.262   1.337   5.336  0.3376  0.4848  0.1530
 5323SOL     OW21063   3.826   5.858   3.153 -0.2239 -0.0731 -0.2226
 5323SOL    HW221064   3.861   5.828   3.237  0.6886 -2.1541 -1.2641
 5323SOL    HW321065   3.734   5.830   3.154  0.6198 -3.3373 -1.2038
 5323SOL    MW421066   3.819   5.850   3.164  0.0078 -0.7783 -0.4895
 5324SOL     OW21067   3.047   4.244   0.052 -0.4383 -0.0864 -0.5499
 5324SOL    HW221068   2.966   4.254   0.004 -0.5093 -1.1018 -0.6682
 5324SOL    HW321069   3.020   4.221   0.141 -0.2915  0.6196 -0.3169
 5324SOL    MW421070   3.033   4.242   0.058 -0.4283 -0.1272 -0.5348
 5325SOL     OW21071   1.719   2.668   4.795  0.1449  0.1332 -0.1036
 5325SOL    HW221072   1.668   2.741   4.758 -1.0330 -0.7023 -0.1548
 5325SOL    HW321073   1.705   2.674   4.889 -1.0231 -0.7789 -0.1960
 5325SOL    MW421074   1.710   2.679   4.802 -0.1646 -0.0974 -0.1225
 5326SOL     OW21075   0.866   2.618   3.903  0.1588 -0.1658 -0.1886
 5326SOL    HW221076   0.913   2.536   3.891  1.0027  0.3625 -0.5737
 5326SOL    HW321077   0.784   2.593   3.946  1.8413 -0.8533  2.9634
 5326SOL    MW421078   0.862   2.604   3.907  0.4921 -0.1868  0.1764
 5327SOL     OW21079   6.259   1.580   3.761 -0.0492  0.0026  0.1378
 5327SOL    HW221080   6.349   1.565   3.734  0.3204  1.8544  0.2045
 5327SOL    HW321081   6.264   1.599   3.855 -0.6820 -1.1598  0.4229
 5327SOL    MW421082   6.271   1.581   3.770 -0.0839  0.0935  0.1842
 5328SOL     OW21083   2.705   0.505   4.759  0.0152  0.2048  0.2739
 5328SOL    HW221084   2.743   0.563   4.693 -1.0680  1.4380  0.7093
 5328SOL    HW321085   2.771   0.499   4.828 -0.5550  2.4406  1.0913
 5328SOL    MW421086   2.719   0.512   4.759 -0.2029  0.6625  0.4392
 5329SOL     OW21087   5.650   1.273   1.105 -0.2305  0.0249  0.5044
 5329SOL    HW221088   5.729   1.295   1.057 -0.4231 -1.6975 -0.6912
 5329SOL    HW321089   5.681   1.228   1.183 -0.0087  0.2713  0.5581
 5329SOL    MW421090   5.664   1.270   1.109 -0.2266 -0.1698  0.3538
 5330SOL     OW21091   3.782   1.863   1.021 -0.3458 -0.2830  0.0728
 5330SOL    HW221092   3.771   1.889   0.930 -1.3689 -2.1391 -0.3757
 5330SOL    HW321093   3.698   1.826   1.046 -0.2434  0.6417  1.9596
 5330SOL    MW421094   3.770   1.862   1.013 -0.4673 -0.4059  0.2626
 5331SOL     OW21095   6.297   2.114   4.167  0.9510 -0.5137 -0.0102
 5331SOL    HW221096   6.234   2.186   4.163  1.2183 -0.2898 -0.3045
 5331SOL    HW321097   6.380   2.155   4.142  2.1861  0.2558  4.4077
 5331SOL    MW421098   6.300   2.129   4.163  1.1492 -0.3826  0.5339
 5332SOL     OW21099   6.333   3.231   0.932 -0.1408  0.3228  0.0641
 5332SOL    HW221100   6.342   3.325   0.917  3.1477  0.3424  1.4545
 5332SOL    HW321101   6.381   3.214   1.013 -1.5339 -2.4494  0.4469
 5332SOL    MW421102   6.340   3.241   0.940  0.1093 -0.0404  0.2980
 5333SOL     OW21103   4.311   3.024   3.944  0.9628  0.1632  0.2889
 5333SOL    HW221104   4.249   2.990   4.009  0.4625  1.7177  0.6734
 5333SOL    HW321105   4.376   3.072   3.995  0.2217  1.9307 -0.3367
 5333SOL    MW421106   4.311   3.026   3.959  0.7990  0.6015  0.2571
 5334SOL     OW21107   1.656   1.036   4.214 -0.0878 -0.4549  0.2634
 5334SOL    HW221108   1.668   0.989   4.297  1.0730 -0.2507  0.2285
 5334SOL    HW321109   1.680   1.127   4.235  0.3199 -0.4263 -0.3166
 5334SOL    MW421110   1.661   1.042   4.228  0.1191 -0.4242  0.1823
 5335SOL     OW21111   4.058   3.396   6.276 -0.3928 -0.8530 -0.0168
 5335SOL    HW221112   4.085   3.306   6.293  2.3193 -0.0323  0.5285
 5335SOL    HW321113   4.137   3.440   6.245 -1.5460  1.4335  0.0368
 5335SOL    MW421114   4.072   3.390   6.274 -0.1871 -0.4430  0.0622
 5336SOL     OW21115   0.613   1.373   4.957 -0.5819  0.2315 -0.9437
 5336SOL    HW221116   0.678   1.371   5.028 -2.4123  1.4603  0.8750
 5336SOL    HW321117   0.564   1.292   4.967 -0.8213  0.3911 -0.8176
 5336SOL    MW421118   0.615   1.362   4.968 -0.8550  0.4147 -0.6871
 5337SOL     OW21119   5.345   0.410   4.203  0.0491  0.4697 -0.0750
 5337SOL    HW221120   5.389   0.473   4.260 -1.2181  0.4201  0.9857
 5337SOL    HW321121   5.362   0.443   4.114  0.0345  1.8821  0.4267
 5337SOL    MW421122   5.353   0.423   4.199 -0.1200  0.6495  0.1311
 5338SOL     OW21123   3.812   5.762   4.619  0.1204  0.7984  0.1435
 5338SOL    HW221124   3.840   5.797   4.704  3.9023 -3.5683  1.1123
 5338SOL    HW321125   3.880   5.789   4.558  0.1732 -0.2418 -0.2778
 5338SOL    MW421126   3.825   5.770   4.622  0.6263  0.0850  0.2157
 5339SOL     OW21127   2.437   3.454   0.227 -0.3013 -0.1359 -0.5502
 5339SOL    HW221128   2.383   3.376   0.222  2.6165 -2.2488 -1.4737
 5339SOL    HW321129   2.454   3.466   0.321 -0.0163 -1.1829 -0.4605
 5339SOL    MW421130   2.432   3.446   0.239  0.1212 -0.5528 -0.6602
 5340SOL     OW21131   5.456   6.092   0.896 -0.2271  0.1723  0.1129
 5340SOL    HW221132   5.440   6.185   0.886  2.0048  0.5741 -0.4065
 5340SOL    HW321133   5.419   6.069   0.981  0.9940  2.0241  1.2233
 5340SOL    MW421134   5.449   6.101   0.906  0.2285  0.4696  0.1909
 5341SOL     OW21135   4.029   4.369   0.394 -0.1864  0.4116  0.2244
 5341SOL    HW221136   4.099   4.419   0.434  0.0870 -0.6800  1.1760
 5341SOL    HW321137   4.064   4.280   0.387 -1.6012 -0.2572  1.1392
 5341SOL    MW421138   4.042   4.364   0.398 -0.3370  0.1793  0.4706
 5342SOL     OW21139   2.714   4.096   0.776  0.2905  0.1460 -0.2217
 5342SOL    HW221140   2.765   4.161   0.727 -0.4540  1.3502  0.5546
 5342SOL    HW321141   2.739   4.012   0.737  0.4292  0.9725 -2.0419
 5342SOL    MW421142   2.724   4.093   0.764  0.2106  0.4139 -0.3594
 5343SOL     OW21143   2.806   1.158   3.471 -0.0736  0.1540  0.1558
 5343SOL    HW221144   2.830   1.191   3.384 -1.5751  1.3654  0.1569
 5343SOL    HW321145   2.873   1.192   3.529  0.9233 -0.6279 -0.4970
 5343SOL    MW421146   2.818   1.167   3.467 -0.1402  0.2107  0.0698
 5344SOL     OW21147   1.270   6.017   1.870  0.8164 -0.4978  0.0237
 5344SOL    HW221148   1.250   5.938   1.822 -0.5059 -0.5171  0.5822
 5344SOL    HW321149   1.308   6.076   1.805  0.0714 -0.9149 -0.8002
 5344SOL    MW421150   1.273   6.015   1.855  0.5436 -0.5554 -0.0113
 5345SOL     OW21151   1.056   4.842   4.741 -0.0718 -0.4622  0.2574
 5345SOL    HW221152   1.059   4.766   4.799  0.5165 -1.6801 -1.2750
 5345SOL    HW321153   0.972   4.834   4.695  0.5837 -0.9990 -0.8966
 5345SOL    MW421154   1.045   4.831   4.742  0.0923 -0.6937 -0.0970
 5346SOL     OW21155   0.645   3.810   1.794  0.6997  1.0309 -0.0258
 5346SOL    HW221156   0.725   3.860   1.812  1.6253 -0.5933  0.4973
 5346SOL    HW321157   0.676   3.726   1.760 -0.8237  0.6923 -0.6350
 5346SOL    MW421158   0.660   3.806   1.792  0.6208  0.7719 -0.0372
 5347SOL     OW21159   0.122   3.928   4.591  0.2153 -0.1684 -0.4978
 5347SOL    HW221160   0.171   3.988   4.648  0.1885  1.0876 -1.7483
 5347SOL    HW321161   0.036   3.921   4.631 -0.1152  1.4740 -0.8708
 5347SOL    MW421162   0.117   3.935   4.604  0.1681  0.2140 -0.7120
 5348SOL     OW21163   1.423   1.935   2.023  0.0028  0.0926 -0.2414
 5348SOL    HW221164   1.406   1.931   2.117 -0.4837  0.2373 -0.3197
 5348SOL    HW321165   1.461   1.851   2.002 -0.4404 -0.1706 -0.0175
 5348SOL    MW421166   1.425   1.924   2.033 -0.1199  0.0770 -0.2222
 5349SOL     OW21167   5.604   3.214   1.307  0.0298  0.7542  0.5375
 5349SOL    HW221168   5.671   3.225   1.240  0.7685 -1.5105  0.8281
 5349SOL    HW321169   5.640   3.257   1.385 -0.1339  1.9896 -0.0435
 5349SOL    MW421170   5.618   3.221   1.309  0.1057  0.6184  0.4992
 5350SOL     OW21171   0.188   5.935   3.062  0.2047  0.1076 -0.1986
 5350SOL    HW221172   0.178   5.938   3.157 -1.0737 -0.0078 -0.3150
 5350SOL    HW321173   0.158   6.021   3.032  1.7750  0.6199 -0.4339
 5350SOL    MW421174   0.183   5.947   3.071  0.2432  0.1599 -0.2450
 5351SOL     OW21175   6.287   2.926   3.000 -0.0309  0.2182  0.4584
 5351SOL    HW221176   6.355   2.920   2.933 -1.7462 -0.4362 -1.3294
 5351SOL    HW321177   6.297   2.847   3.052 -0.6450 -0.9229 -1.0828
 5351SOL    MW421178   6.297   2.915   2.998 -0.3383 -0.0187  0.0192
 5352SOL     OW21179   6.341   4.019   6.121 -0.0139  0.0880  0.5156
 5352SOL    HW221180   6.403   4.072   6.070  0.2415  1.0320  1.7748
 5352SOL    HW321181   6.299   3.963   6.055  0.8428  0.7311 -0.6267
 5352SOL    MW421182   6.343   4.019   6.105  0.1328  0.2974  0.5310
 5353SOL     OW21183   1.357   0.575   0.348  0.2517  0.3194  0.5101
 5353SOL    HW221184   1.298   0.614   0.412 -0.1518  1.5698 -0.5707
 5353SOL    HW321185   1.437   0.627   0.354 -0.3511  1.4963 -1.0642
 5353SOL    MW421186   1.359   0.587   0.357  0.1190  0.6397  0.1598
 5354SOL     OW21187   1.452   4.379   3.184  0.3406  0.1065 -0.4190
 5354SOL    HW221188   1.389   4.451   3.179 -0.8685 -0.9664 -1.3566
 5354SOL    HW321189   1.530   4.411   3.139 -0.5562  0.4750 -1.7700
 5354SOL    MW421190   1.454   4.393   3.178  0.0628  0.0135 -0.7209
 5355SOL     OW21191   4.590   3.656   2.355 -0.1730  0.7035  0.2248
 5355SOL    HW221192   4.642   3.620   2.427  1.4474  1.4893 -0.5026
 5355SOL    HW321193   4.599   3.751   2.364  2.1561  0.8674 -2.3656
 5355SOL    MW421194   4.598   3.664   2.366  0.3481  0.8288 -0.2129
 5356SOL     OW21195   3.253   5.223   1.136  0.5118  0.4277  0.2604
 5356SOL    HW221196   3.316   5.203   1.205  1.7849  2.7844 -0.1265
 5356SOL    HW321197   3.174   5.251   1.183  0.9194  0.7432  0.7655
 5356SOL    MW421198   3.251   5.224   1.151  0.7335  0.7803  0.2760
 5357SOL     OW21199   0.867   0.195   3.042  0.3904  0.0548  0.0422
 5357SOL    HW221200   0.936   0.168   2.982  1.1383 -1.5125  1.5328
 5357SOL    HW321201   0.810   0.118   3.050 -0.7569  0.8643 -0.0737
 5357SOL    MW421202   0.868   0.181   3.035  0.3377 -0.0452  0.2236
 5358SOL     OW21203   2.028   3.333   3.337  0.2453  0.6197 -0.2151
 5358SOL    HW221204   2.054   3.317   3.427 -0.4171  1.7253  0.1962
 5358SOL    HW321205   2.069   3.263   3.287 -0.1993 -0.6172  1.0775
 5358SOL    MW421206   2.037   3.322   3.342  0.0992  0.6024  0.0097
 5359SOL     OW21207   5.947   2.275   1.006  0.2251 -0.1581 -0.6561
 5359SOL    HW221208   5.923   2.342   0.942 -0.5474  1.5849  1.3378
 5359SOL    HW321209   5.883   2.205   0.992 -0.3899  0.5146 -1.3148
 5359SOL    MW421210   5.935   2.274   0.995  0.0421  0.1607 -0.4799
 5360SOL     OW21211   3.106   4.863   1.862 -0.1160  0.1589 -0.4622
 5360SOL    HW221212   3.054   4.840   1.939 -1.9094 -1.0232 -1.9074
 5360SOL    HW321213   3.088   4.956   1.848  0.2141  0.3819  0.4982
 5360SOL    MW421214   3.096   4.872   1.870 -0.3090  0.0324 -0.5262
 5361SOL     OW21215   0.088   1.136   3.339  0.0516  0.0359  0.0347
 5361SOL    HW221216   0.143   1.141   3.261 -0.6212  0.3985 -0.4260
 5361SOL    HW321217  -0.001   1.151   3.307 -0.2139  0.3866  0.8981
 5361SOL    MW421218   0.083   1.139   3.324 -0.0722  0.1300  0.0878
 5362SOL     OW21219   1.164   1.971   1.162 -0.4548  1.1845  0.9893
 5362SOL    HW221220   1.188   1.978   1.254  1.2225 -0.3557  0.7278
 5362SOL    HW321221   1.242   1.998   1.115 -1.3477  2.1168 -0.0259
 5362SOL    MW421222   1.177   1.975   1.168 -0.3513  1.1043  0.8208
 5363SOL     OW21223   4.063   2.865   4.680 -0.0626 -0.1631 -0.3605
 5363SOL    HW221224   4.118   2.941   4.702  1.3464 -0.7666 -1.6602
 5363SOL    HW321225   4.125   2.796   4.659 -1.3370 -0.9545 -1.6256
 5363SOL    MW421226   4.078   2.866   4.680 -0.0448 -0.3472 -0.6989
 5364SOL     OW21227   2.833   3.120   5.586  0.0512  0.3793  0.9148
 5364SOL    HW221228   2.767   3.180   5.622 -0.8037 -0.3991  0.6958
 5364SOL    HW321229   2.889   3.176   5.532 -0.4751  1.0560  1.0464
 5364SOL    MW421230   2.832   3.136   5.583 -0.1310  0.3659  0.9033
 5365SOL     OW21231   5.554   3.308   2.809  0.0300  0.2462  0.1217
 5365SOL    HW221232   5.559   3.396   2.844  0.5970 -0.3138  1.5389
 5365SOL    HW321233   5.467   3.276   2.836  0.5446 -0.2562  1.2697
 5365SOL    MW421234   5.543   3.315   2.817  0.1727  0.1060  0.4601
 5366SOL     OW21235   2.418   5.323   2.050 -0.3224 -0.5081  0.3969
 5366SOL    HW221236   2.403   5.334   2.144 -0.4549  0.5666  0.2715
 5366SOL    HW321237   2.331   5.310   2.014 -0.3943  0.1658  0.3090
 5366SOL    MW421238   2.405   5.323   2.058 -0.3494 -0.2774  0.3688
 5367SOL     OW21239   5.518   0.931   5.937  0.3134 -0.1655  0.1189
 5367SOL    HW221240   5.597   0.883   5.913 -0.1998 -0.1646 -1.7194
 5367SOL    HW321241   5.477   0.954   5.853 -0.7948  1.2521  0.9991
 5367SOL    MW421242   5.523   0.928   5.923  0.0995  0.0216 -0.0075
 5368SOL     OW21243   0.163   0.119   0.418  0.3862  0.0890  0.2395
 5368SOL    HW221244   0.106   0.182   0.374  0.5121 -0.4831 -0.7853
 5368SOL    HW321245   0.219   0.084   0.348 -0.4051 -1.9388  0.5439
 5368SOL    MW421246   0.163   0.123   0.403  0.2984 -0.2540  0.1444
 5369SOL     OW21247   0.310   0.231   1.034  0.6756 -0.4730  0.1089
 5369SOL    HW221248   0.293   0.219   1.127  0.4431 -2.2318 -0.1103
 5369SOL    HW321249   0.324   0.325   1.023  0.4857 -0.2106  1.8677
 5369SOL    MW421250   0.309   0.242   1.045  0.6199 -0.6704  0.3120
 5370SOL     OW21251   1.989   0.537   0.260 -0.3587  0.3285  0.6959
 5370SOL    HW221252   1.971   0.624   0.224 -1.8337  0.0593  0.7202
 5370SOL    HW321253   2.036   0.554   0.341 -0.2852  1.0855  0.5025
 5370SOL    MW421254   1.993   0.551   0.266 -0.5436  0.3929  0.6736
 5371SOL     OW21255   4.124   0.581   1.545  0.0789 -0.6801  0.1698
 5371SOL    HW221256   4.094   0.554   1.459 -0.6605 -0.1735  0.2580
 5371SOL    HW321257   4.076   0.524   1.606 -0.4521 -0.1140  0.2950
 5371SOL    MW421258   4.113   0.570   1.542 -0.0887 -0.5386  0.1980
 5372SOL     OW21259   3.493   3.470   3.837  0.1349  0.1684 -0.2214
 5372SOL    HW221260   3.415   3.522   3.857  1.1190  0.9061  1.9826
 5372SOL    HW321261   3.566   3.530   3.854  1.2274 -1.0109 -0.6415
 5372SOL    MW421262   3.493   3.485   3.842  0.4089  0.1101  0.0139
 5373SOL     OW21263   0.806   6.005   2.493 -0.5221  0.8674 -0.8791
 5373SOL    HW221264   0.859   6.084   2.501 -1.6253  1.5538  0.0746
 5373SOL    HW321265   0.858   5.937   2.536 -0.2990  1.4774 -0.1560
 5373SOL    MW421266   0.820   6.007   2.500 -0.6382  1.0385 -0.6579
 5374SOL     OW21267   2.800   2.857   3.385 -0.2013  0.3877  0.1432
 5374SOL    HW221268   2.712   2.832   3.412 -0.3141  1.0456  0.4067
 5374SOL    HW321269   2.790   2.889   3.295 -0.2299  0.4400  0.1648
 5374SOL    MW421270   2.787   2.858   3.377 -0.2200  0.4814  0.1808
 5375SOL     OW21271   2.943   0.419   4.158  0.1215  0.0560 -0.0941
 5375SOL    HW221272   2.952   0.327   4.182 -1.3138 -0.3105 -0.8544
 5375SOL    HW321273   2.849   0.436   4.163  0.4536  1.7446  0.9220
 5375SOL    MW421274   2.932   0.409   4.162 -0.0241  0.2304 -0.0604
 5376SOL     OW21275   3.842   6.051   2.396 -0.5094  0.2621 -0.4307
 5376SOL    HW221276   3.849   5.980   2.332  0.3671 -0.4912  0.4685
 5376SOL    HW321277   3.779   6.018   2.461  0.0890  0.1859  0.1225
 5376SOL    MW421278   3.835   6.037   2.396 -0.3148  0.1527 -0.2391
 5377SOL     OW21279   6.203   0.065   6.067  0.0071  0.4853  0.4260
 5377SOL    HW221280   6.165  -0.013   6.025  0.4631  0.3532  0.2545
 5377SOL    HW321281   6.262   0.101   6.002  0.9100  0.1429  1.0394
 5377SOL    MW421282   6.206   0.059   6.053  0.1864  0.4227  0.4843
 5378SOL     OW21283   2.693   5.389   3.267  0.4224 -0.4575 -0.4651
 5378SOL    HW221284   2.675   5.480   3.289  1.3880 -0.4629  0.4128
 5378SOL    HW321285   2.607   5.350   3.253  0.0468  0.9534 -2.4602
 5378SOL    MW421286   2.679   5.396   3.268  0.5002 -0.2721 -0.6125
 5379SOL     OW21287   2.589   4.689   0.982  0.5724 -0.3067  0.0843
 5379SOL    HW221288   2.642   4.609   0.974 -1.1542 -1.5091  0.1369
 5379SOL    HW321289   2.575   4.718   0.892  2.4356  0.8472  0.1100
 5379SOL    MW421290   2.594   4.682   0.969  0.5904 -0.3131  0.0946
 5380SOL     OW21291   4.520   1.456   2.452 -0.0416  0.0632  0.0943
 5380SOL    HW221292   4.550   1.494   2.369  1.2423 -0.5380  0.2593
 5380SOL    HW321293   4.578   1.493   2.518 -1.0474  0.5236  0.7349
 5380SOL    MW421294   4.532   1.466   2.450 -0.0049  0.0446  0.2006
 5381SOL     OW21295   0.954   1.247   3.634 -0.3049 -0.4424  0.1347
 5381SOL    HW221296   1.013   1.267   3.707 -0.3463 -1.5148  0.4822
 5381SOL    HW321297   0.984   1.161   3.603  0.4083  0.4663 -1.8263
 5381SOL    MW421298   0.966   1.238   3.640 -0.2163 -0.4640 -0.0782
 5382SOL     OW21299   0.115   1.707   0.104  0.0271 -0.0788  0.5822
 5382SOL    HW221300   0.125   1.797   0.136 -0.9955  0.4272 -0.4891
 5382SOL    HW321301   0.181   1.658   0.153  0.8563  1.3111  0.9199
 5382SOL    MW421302   0.125   1.713   0.115  0.0016  0.1713  0.4854
 5383SOL     OW21303   0.366   3.336   1.094 -0.6585 -0.1048 -0.4600
 5383SOL    HW221304   0.435   3.274   1.067 -0.4400 -0.6765  1.2799
 5383SOL    HW321305   0.287   3.282   1.101 -0.4685 -0.2345  1.0594
 5383SOL    MW421306   0.365   3.320   1.091 -0.6046 -0.1973 -0.0300
 5384SOL     OW21307   6.122   0.760   2.443  0.5540  0.1495  0.2818
 5384SOL    HW221308   6.189   0.694   2.426  2.2459  1.5981  0.9636
 5384SOL    HW321309   6.050   0.711   2.483  0.9169 -1.5548 -1.0264
 5384SOL    MW421310   6.121   0.745   2.446  0.8251  0.1158  0.1992
 5385SOL     OW21311   2.945   1.272   6.390 -0.2363  0.4043 -0.2814
 5385SOL    HW221312   2.933   1.332   6.464  0.4840  0.6477 -0.3600
 5385SOL    HW321313   2.857   1.239   6.372 -0.5241  0.8713  0.2420
 5385SOL    MW421314   2.931   1.276   6.397 -0.1792  0.4981 -0.2227
 5386SOL     OW21315   5.767   4.636   6.116 -0.5002 -0.8248  0.2460
 5386SOL    HW221316   5.764   4.669   6.206  0.5050 -1.0262  0.3612
 5386SOL    HW321317   5.793   4.712   6.063 -1.2149 -0.6734  0.0916
 5386SOL    MW421318   5.770   4.651   6.121 -0.4619 -0.8314  0.2408
 5387SOL     OW21319   4.662   3.470   2.855 -0.0551  0.3037 -0.5420
 5387SOL    HW221320   4.607   3.394   2.838 -2.5010  1.8094  0.1518
 5387SOL    HW321321   4.612   3.523   2.917  1.1516  2.8926 -1.6181
 5387SOL    MW421322   4.648   3.467   2.861 -0.2186  0.8439 -0.5925
 5388SOL     OW21323   5.765   0.517   2.907 -0.6898  0.2340  0.1270
 5388SOL    HW221324   5.715   0.550   2.982  1.3026  2.6173  0.5218
 5388SOL    HW321325   5.840   0.472   2.946 -1.3919 -1.5218 -0.4685
 5388SOL    MW421326   5.768   0.516   2.922 -0.5196  0.3168  0.1005
 5389SOL     OW21327   2.094   1.523   5.993  0.2649 -0.5615  0.2695
 5389SOL    HW221328   2.053   1.493   6.075 -0.0735 -0.3414  0.1835
 5389SOL    HW321329   2.047   1.476   5.925 -0.2900  0.1736  0.1307
 5389SOL    MW421330   2.082   1.513   5.995  0.1470 -0.4355  0.2399
 5390SOL     OW21331   3.350   1.121   2.049 -0.6445  0.2064  0.8570
 5390SOL    HW221332   3.408   1.104   2.123 -0.5391 -1.0380  0.5062
 5390SOL    HW321333   3.315   1.035   2.026  1.5085  0.0140 -2.3264
 5390SOL    MW421334   3.353   1.107   2.056 -0.3465  0.0168  0.3907
 5391SOL     OW21335   3.447   6.196   4.394 -0.4921  0.0308 -0.5640
 5391SOL    HW221336   3.417   6.129   4.455 -0.9404 -1.3099 -2.1865
 5391SOL    HW321337   3.503   6.150   4.332 -1.0542  1.0659 -1.9144
 5391SOL    MW421338   3.451   6.181   4.393 -0.6254 -0.0095 -0.9563
 5392SOL     OW21339   3.715   0.616   1.526 -0.3669 -0.4056  0.6017
 5392SOL    HW221340   3.625   0.646   1.517 -0.5070 -0.4661  1.6391
 5392SOL    HW321341   3.707   0.525   1.554  0.0053 -2.4780 -4.7512
 5392SOL    MW421342   3.702   0.608   1.529 -0.3363 -0.6870  0.0323
 5393SOL     OW21343   5.850   1.541   3.102  0.1904  0.2191  0.2279
 5393SOL    HW221344   5.930   1.582   3.072  0.2004 -0.1406 -0.2509
 5393SOL    HW321345   5.851   1.454   3.062 -0.8104  0.4849 -0.4076
 5393SOL    MW421346   5.861   1.535   3.093  0.0597  0.2067  0.0809
 5394SOL     OW21347   5.860   1.745   4.963  0.3402  0.4152 -0.0109
 5394SOL    HW221348   5.936   1.686   4.967 -0.8529 -1.3693 -1.7809
 5394SOL    HW321349   5.801   1.714   5.031 -0.1234 -0.2212 -0.6910
 5394SOL    MW421350   5.862   1.733   4.973  0.1216  0.0958 -0.3341
 5395SOL     OW21351   2.745   1.877   1.359  0.3751  0.4598 -0.0661
 5395SOL    HW221352   2.810   1.930   1.313 -1.8675  2.1878 -1.5350
 5395SOL    HW321353   2.672   1.938   1.374 -0.9591 -1.3873  1.3707
 5395SOL    MW421354   2.744   1.892   1.355 -0.0968  0.4441 -0.0703
 5396SOL     OW21355   1.155   0.273   1.105 -0.0973 -0.7529  0.4268
 5396SOL    HW221356   1.173   0.237   1.191  0.2466  0.0746  0.7064
 5396SOL    HW321357   1.087   0.339   1.119 -1.7098 -2.1972 -0.2788
 5396SOL    MW421358   1.149   0.277   1.118 -0.2647 -0.8343  0.3706
 5397SOL     OW21359   5.074   5.344   5.194 -0.1549  0.4006 -0.0101
 5397SOL    HW221360   5.116   5.350   5.279  0.4521 -0.2136 -0.2492
 5397SOL    HW321361   4.984   5.319   5.213  0.1581 -0.4354  0.4296
 5397SOL    MW421362   5.068   5.341   5.207 -0.0335  0.2093  0.0164
 5398SOL     OW21363   3.231   4.824   1.185 -0.0185  0.4799  0.0110
 5398SOL    HW221364   3.326   4.831   1.180 -0.0715  1.6679  0.2950
 5398SOL    HW321365   3.199   4.880   1.114 -0.5031 -1.6479 -1.5244
 5398SOL    MW421366   3.239   4.832   1.175 -0.0894  0.3559 -0.1541
 5399SOL     OW21367   0.752   0.916   5.918  0.1886  0.1090 -0.7187
 5399SOL    HW221368   0.838   0.875   5.903  1.1104  1.4398  0.6103
 5399SOL    HW321369   0.745   0.925   6.013  1.0668  4.7667 -0.8222
 5399SOL    MW421370   0.763   0.912   5.928  0.4261  0.8991 -0.5570
 5400SOL     OW21371   5.147   5.176   0.120  0.1696 -0.0332 -0.8548
 5400SOL    HW221372   5.211   5.236   0.159  0.1842 -0.3441 -0.4034
 5400SOL    HW321373   5.199   5.120   0.062  0.1764  0.2964 -1.1696
 5400SOL    MW421374   5.162   5.177   0.118  0.1724 -0.0307 -0.8368
 5401SOL     OW21375   5.206   4.779   4.430 -0.1544 -0.2544  0.0344
 5401SOL    HW221376   5.118   4.759   4.463 -0.6078  0.0509 -0.9508
 5401SOL    HW321377   5.264   4.723   4.481 -1.1452 -2.3875 -1.0513
 5401SOL    MW421378   5.202   4.769   4.441 -0.3449 -0.4956 -0.2388
 5402SOL     OW21379   5.591   4.507   5.221 -0.3044  0.2613 -0.1633
 5402SOL    HW221380   5.508   4.463   5.204  0.6473 -2.1551  0.9551
 5402SOL    HW321381   5.616   4.544   5.137 -2.0737  0.3090 -0.7157
 5402SOL    MW421382   5.583   4.506   5.208 -0.4122 -0.0512 -0.0886
 5403SOL     OW21383   0.088   0.981   3.771  0.0395 -0.0787 -0.8231
 5403SOL    HW221384   0.125   0.951   3.688  0.3873 -2.8174  0.2377
 5403SOL    HW321385  -0.004   0.956   3.767 -0.2953  1.0649 -0.8886
 5403SOL    MW421386   0.081   0.974   3.759  0.0412 -0.2892 -0.6918
 5404SOL     OW21387   2.018   5.003   3.713 -0.2799  0.3233  0.6789
 5404SOL    HW221388   1.941   4.955   3.744 -1.0488  0.9607 -0.1817
 5404SOL    HW321389   2.028   5.075   3.776  0.8330 -0.8621  1.9303
 5404SOL    MW421390   2.009   5.006   3.726 -0.2345  0.2510  0.7304
 5405SOL     OW21391   0.571   2.436   1.076  0.3069 -0.2724  0.1460
 5405SOL    HW221392   0.521   2.440   0.994  0.5438  2.1427  0.0517
 5405SOL    HW321393   0.661   2.455   1.051  0.6738 -1.0442  0.8023
 5405SOL    MW421394   0.576   2.439   1.062  0.3866 -0.0556  0.2202
 5406SOL     OW21395   1.179   0.205   3.291 -0.1133 -0.7190  0.1730
 5406SOL    HW221396   1.199   0.192   3.198 -0.0389 -2.1630  0.3820
 5406SOL    HW321397   1.167   0.300   3.299  0.2517 -0.5297 -1.2323
 5406SOL    MW421398   1.180   0.216   3.280 -0.0553 -0.8846  0.0151
 5407SOL     OW21399   3.136   2.402   4.896 -0.4155 -0.5209  0.1617
 5407SOL    HW221400   3.082   2.481   4.894  0.1487 -0.1519 -1.0728
 5407SOL    HW321401   3.101   2.351   4.970 -0.0969  1.3406  1.6662
 5407SOL    MW421402   3.124   2.405   4.906 -0.2990 -0.2266  0.1973
 5408SOL     OW21403   2.939   4.329   3.897  0.3456 -0.3726  0.1525
 5408SOL    HW221404   2.921   4.415   3.860  0.6814 -0.7039 -0.8347
 5408SOL    HW321405   2.960   4.274   3.821 -0.7003 -1.5442  0.6747
 5408SOL    MW421406   2.939   4.333   3.882  0.2519 -0.5709  0.0911
 5409SOL     OW21407   6.203   3.406   5.989  0.5195 -0.2057 -0.1359
 5409SOL    HW221408   6.121   3.428   6.033  0.5194  1.6718 -0.9950
 5409SOL    HW321409   6.271   3.443   6.045  0.7201 -0.7024 -0.0467
 5409SOL    MW421410   6.201   3.413   6.002  0.5459 -0.0235 -0.2375
 5410SOL     OW21411   0.898   0.112   4.848 -0.2423 -0.7451 -0.3994
 5410SOL    HW221412   0.931   0.156   4.770  1.5279 -1.8885 -0.3635
 5410SOL    HW321413   0.853   0.180   4.898  0.3770  0.4667 -1.4525
 5410SOL    MW421414   0.896   0.127   4.845  0.0729 -0.7361 -0.5336
 5411SOL     OW21415   1.805   2.793   3.347  0.2236 -0.7499 -0.1639
 5411SOL    HW221416   1.895   2.762   3.342  1.1572  1.8131 -0.7260
 5411SOL    HW321417   1.771   2.758   3.430  1.7251 -1.7193  0.0697
 5411SOL    MW421418   1.812   2.784   3.357  0.5449 -0.5396 -0.2073
 5412SOL     OW21419   3.396   0.897   0.986  0.4158 -0.5326  0.1084
 5412SOL    HW221420   3.467   0.917   1.048  0.8527  0.7636 -0.7519
 5412SOL    HW321421   3.376   0.982   0.945 -2.3364 -0.6513  1.0002
 5412SOL    MW421422   3.403   0.911   0.989  0.1103 -0.3773  0.1126
 5413SOL     OW21423   2.219   4.762   5.574  0.0370 -0.5264  0.2367
 5413SOL    HW221424   2.240   4.672   5.548  0.1179 -0.6583  0.7346
 5413SOL    HW321425   2.256   4.770   5.663  0.0366 -0.0001  0.1923
 5413SOL    MW421426   2.227   4.751   5.583  0.0476 -0.4743  0.2965
 5414SOL     OW21427   3.347   5.584   0.364 -0.3148  0.2770 -0.1897
 5414SOL    HW221428   3.331   5.510   0.423 -0.0670 -0.0288 -0.5034
 5414SOL    HW321429   3.269   5.638   0.372 -0.8868 -0.4632 -0.6256
 5414SOL    MW421430   3.335   5.581   0.373 -0.3576  0.1390 -0.2886
 5415SOL     OW21431   3.025   2.038   2.400  0.2868 -0.3891  0.0231
 5415SOL    HW221432   3.017   1.947   2.372 -2.0050 -0.0106 -0.7745
 5415SOL    HW321433   3.050   2.085   2.320  0.5780 -0.1801  0.2332
 5415SOL    MW421434   3.027   2.032   2.386  0.0229 -0.3116 -0.0544
 5416SOL     OW21435   3.469   3.989   5.500  0.3705 -0.7238 -0.2105
 5416SOL    HW221436   3.421   4.051   5.445  0.6115 -0.4490 -0.1163
 5416SOL    HW321437   3.420   3.987   5.582  1.0529  0.3112  0.2493
 5416SOL    MW421438   3.456   3.997   5.504  0.4923 -0.5510 -0.1374
 5417SOL     OW21439   2.700   0.813   1.177  0.1667  0.0279 -0.0748
 5417SOL    HW221440   2.639   0.810   1.251  1.3205  0.1309  0.9051
 5417SOL    HW321441   2.787   0.812   1.217  0.8224 -0.0540 -1.4409
 5417SOL    MW421442   2.704   0.813   1.192  0.4055  0.0307 -0.1258
 5418SOL     OW21443   2.211   4.896   3.315  0.9114 -0.1515  0.0909
 5418SOL    HW221444   2.216   4.962   3.384 -0.6372  0.4382 -0.3404
 5418SOL    HW321445   2.119   4.891   3.292  1.1844 -1.4955 -0.8464
 5418SOL    MW421446   2.200   4.904   3.321  0.7431 -0.2510 -0.0897
 5419SOL     OW21447   2.317   0.064   5.171  0.3497 -0.0668  0.6107
 5419SOL    HW221448   2.269   0.010   5.108  0.7361 -1.1404  1.2115
 5419SOL    HW321449   2.257   0.136   5.191  0.3287  0.4640 -1.1804
 5419SOL    MW421450   2.302   0.067   5.166  0.3979 -0.1385  0.4537
 5420SOL     OW21451   5.647   5.610   4.327  0.3804  0.3562  0.0358
 5420SOL    HW221452   5.571   5.604   4.385 -1.2788 -1.5123 -2.0898
 5420SOL    HW321453   5.641   5.697   4.288 -0.7403  0.2260 -0.1268
 5420SOL    MW421454   5.636   5.620   4.329  0.0137  0.0925 -0.2661
 5421SOL     OW21455   4.222   5.085   4.320 -0.1091  0.4415 -0.5907
 5421SOL    HW221456   4.288   5.017   4.304  0.4501  0.9264 -0.3532
 5421SOL    HW321457   4.233   5.109   4.411 -2.0503 -0.9697  0.1059
 5421SOL    MW421458   4.232   5.079   4.330 -0.2915  0.3192 -0.4675
 5422SOL     OW21459   2.983   4.888   2.179  1.0893  0.8266  0.5031
 5422SOL    HW221460   3.033   4.845   2.249  0.8544  3.2615  2.2734
 5422SOL    HW321461   2.893   4.890   2.211  0.3538 -0.7227 -1.2914
 5422SOL    MW421462   2.978   4.883   2.192  0.9613  0.9434  0.4999
 5423SOL     OW21463   4.064   5.824   3.017 -0.2223  0.1733  0.3361
 5423SOL    HW221464   4.042   5.782   2.935 -1.9837  0.9704  0.3505
 5423SOL    HW321465   3.980   5.835   3.062  0.4520  1.5219  1.3568
 5423SOL    MW421466   4.050   5.820   3.012 -0.3657  0.4564  0.4727
 5424SOL     OW21467   2.837   3.124   0.035  0.4704  0.2193 -0.5151
 5424SOL    HW221468   2.922   3.104  -0.002 -0.7703 -2.3728 -2.2821
 5424SOL    HW321469   2.774   3.104  -0.035 -1.5895  3.5232  0.1425
 5424SOL    MW421470   2.840   3.119   0.021  0.0349  0.3132 -0.6614
 5425SOL     OW21471   3.801   4.626   5.391  0.1395  0.5049  0.0215
 5425SOL    HW221472   3.810   4.567   5.466  0.6421  0.6157  0.0562
 5425SOL    HW321473   3.858   4.587   5.324 -1.5487 -0.5175 -0.9087
 5425SOL    MW421474   3.810   4.613   5.392 -0.0169  0.3846 -0.0967
 5426SOL     OW21475   5.903   4.185   5.861  0.3848 -0.3606  0.3345
 5426SOL    HW221476   5.920   4.148   5.775 -0.4273 -2.0741  0.8676
 5426SOL    HW321477   5.945   4.271   5.859  3.6121 -1.8222 -0.5060
 5426SOL    MW421478   5.911   4.192   5.849  0.7035 -0.7795  0.2939
 5427SOL     OW21479   1.790   3.822   3.894 -0.2696  0.2552 -0.1099
 5427SOL    HW221480   1.743   3.870   3.826 -2.5284 -0.5163  0.7965
 5427SOL    HW321481   1.746   3.737   3.899  1.5530 -0.7237  0.5306
 5427SOL    MW421482   1.778   3.817   3.886 -0.3272  0.0242  0.0942
 5428SOL     OW21483   4.649   0.784   6.103 -0.3392  0.0745 -0.1839
 5428SOL    HW221484   4.652   0.690   6.085 -0.6350 -0.1628  0.9111
 5428SOL    HW321485   4.728   0.819   6.062  0.7653 -0.9568  0.9800
 5428SOL    MW421486   4.659   0.776   6.095 -0.2325 -0.0928  0.1141
 5429SOL     OW21487   4.063   5.646   3.880 -0.1317  0.0274 -0.0139
 5429SOL    HW221488   4.073   5.612   3.791  1.2438 -0.2230  0.2246
 5429SOL    HW321489   4.151   5.644   3.917 -0.7444 -0.2184  1.4898
 5429SOL    MW421490   4.076   5.641   3.873 -0.0310 -0.0381  0.2159
 5430SOL     OW21491   4.535   0.958   3.925 -0.1615 -0.2731  0.1124
 5430SOL    HW221492   4.568   0.868   3.927  0.1207 -0.1651  2.0106
 5430SOL    HW321493   4.601   1.009   3.971 -1.1442  0.6123  0.5827
 5430SOL    MW421494   4.548   0.953   3.931 -0.2539 -0.1421  0.4249
 5431SOL     OW21495   0.182   2.839   6.087  0.3467 -0.1733 -0.1164
 5431SOL    HW221496   0.181   2.927   6.126 -0.5122  1.1236 -2.7842
 5431SOL    HW321497   0.204   2.781   6.159  0.4196  2.1717  1.8879
 5431SOL    MW421498   0.185   2.843   6.101  0.2430  0.3072 -0.2039
 5432SOL     OW21499   5.284   1.278   2.788 -0.4112  0.8469 -0.3206
 5432SOL    HW221500   5.312   1.357   2.834 -0.0828 -0.4064  1.7146
 5432SOL    HW321501   5.193   1.265   2.813  0.1873 -0.6601  1.2791
 5432SOL    MW421502   5.276   1.287   2.797 -0.2889  0.4827  0.1590
 5433SOL     OW21503   4.947   2.397   6.140 -0.2950  0.0843  0.3282
 5433SOL    HW221504   5.019   2.355   6.092  0.9185  2.3760 -0.0202
 5433SOL    HW321505   4.884   2.422   6.073 -0.2361  0.2465  0.3325
 5433SOL    MW421506   4.948   2.395   6.125 -0.1272  0.4080  0.2828
 5434SOL     OW21507   4.068   3.855   5.706 -0.5334  0.2457  0.3844
 5434SOL    HW221508   3.984   3.841   5.661  0.3643  0.8694 -1.6213
 5434SOL    HW321509   4.127   3.792   5.666  0.6023  1.6443 -0.2243
 5434SOL    MW421510   4.064   3.845   5.694 -0.2652  0.5125  0.0395
 5435SOL     OW21511   4.685   1.440   2.186  0.2064 -0.2601 -0.1259
 5435SOL    HW221512   4.764   1.436   2.132 -0.0241 -1.2480 -0.4070
 5435SOL    HW321513   4.686   1.359   2.238 -0.2107  0.0934  0.4575
 5435SOL    MW421514   4.695   1.429   2.186  0.1209 -0.3438 -0.0860
 5436SOL     OW21515   0.389   0.338   6.168 -0.0643  0.9314 -0.0100
 5436SOL    HW221516   0.298   0.362   6.184 -1.3888 -2.1777 -1.9448
 5436SOL    HW321517   0.388   0.296   6.082  3.3015  1.0925 -0.2674
 5436SOL    MW421518   0.377   0.336   6.159  0.2050  0.5424 -0.2992
 5437SOL     OW21519   3.373   2.701   0.517 -0.1599 -0.0822 -0.1443
 5437SOL    HW221520   3.351   2.631   0.579 -0.8076 -0.3322 -0.6497
 5437SOL    HW321521   3.302   2.764   0.525  0.6610  0.7539  0.6447
 5437SOL    MW421522   3.361   2.700   0.526 -0.1371 -0.0049 -0.1069
 5438SOL     OW21523   6.415   3.869   1.229  0.1014  0.4116  0.2012
 5438SOL    HW221524   6.470   3.815   1.173  0.1748  0.6975 -0.0055
 5438SOL    HW321525   6.355   3.912   1.168 -1.2508 -0.9129  0.5265
 5438SOL    MW421526   6.414   3.867   1.213 -0.0673  0.2746  0.2169
 5439SOL     OW21527   1.312   6.329   1.006  0.3865 -1.3381 -0.2649
 5439SOL    HW221528   1.341   6.334   1.097 -1.0714  1.0032  0.1469
 5439SOL    HW321529   1.230   6.280   1.009  0.1596 -0.9625 -0.2499
 5439SOL    MW421530   1.305   6.324   1.018  0.1642 -0.9796 -0.2086
 5440SOL     OW21531   4.309   2.865   0.787 -0.1070  0.1613 -0.0426
 5440SOL    HW221532   4.262   2.923   0.847  0.2965  0.0565  0.3777
 5440SOL    HW321533   4.293   2.903   0.701  0.2491  0.9647  0.2361
 5440SOL    MW421534   4.300   2.877   0.784 -0.0068  0.2535  0.0496
 5441SOL     OW21535   0.640   6.259   3.781 -0.3649  0.3492 -0.1400
 5441SOL    HW221536   0.617   6.262   3.688  0.3615 -1.0173 -0.3819
 5441SOL    HW321537   0.730   6.289   3.784 -0.1529 -0.2903  0.0258
 5441SOL    MW421538   0.649   6.263   3.769 -0.2411  0.0845 -0.1500
 5442SOL     OW21539   3.861   0.283   4.389  0.2094  0.7863  0.1947
 5442SOL    HW221540   3.804   0.328   4.452 -0.8034 -0.3158  0.1110
 5442SOL    HW321541   3.950   0.298   4.421 -0.2581  0.6970  1.5938
 5442SOL    MW421542   3.865   0.291   4.401  0.0141  0.6291  0.3683
 5443SOL     OW21543   5.359   4.495   3.753  0.5185 -0.1018  0.2770
 5443SOL    HW221544   5.310   4.413   3.762 -0.9424  0.2668 -2.8076
 5443SOL    HW321545   5.291   4.562   3.747  1.6510  1.1597  1.1867
 5443SOL    MW421546   5.343   4.493   3.753  0.4752  0.1133 -0.0100
 5444SOL     OW21547   4.542   3.658   1.378 -0.1053  0.4384 -0.4421
 5444SOL    HW221548   4.590   3.584   1.416  0.1323  0.9361  0.2417
 5444SOL    HW321549   4.455   3.653   1.418  0.6489  1.9488  1.5282
 5444SOL    MW421550   4.537   3.648   1.388  0.0255  0.7034 -0.0919
 5445SOL     OW21551   4.631   4.775   1.439  0.5098 -0.2547 -0.7559
 5445SOL    HW221552   4.678   4.797   1.359  0.9906  0.8690 -0.1924
 5445SOL    HW321553   4.700   4.760   1.504  0.1131 -0.4971 -0.3804
 5445SOL    MW421554   4.647   4.776   1.437  0.5209 -0.1384 -0.6320
 5446SOL     OW21555   1.094   0.475   3.335 -0.1190 -0.4619  0.4369
 5446SOL    HW221556   0.998   0.475   3.340 -0.1686  0.5921 -0.2645
 5446SOL    HW321557   1.121   0.525   3.412 -0.1827  0.0866  0.1110
 5446SOL    MW421558   1.085   0.482   3.346 -0.1339 -0.2505  0.3014
 5447SOL     OW21559   0.575   5.209   0.534 -0.3117  0.4857 -0.2982
 5447SOL    HW221560   0.561   5.241   0.623  0.6261  1.4292 -0.4662
 5447SOL    HW321561   0.656   5.160   0.539 -1.4179 -1.4104 -0.1836
 5447SOL    MW421562   0.583   5.207   0.546 -0.3339  0.3600 -0.3053
 5448SOL     OW21563   2.951   4.819   4.588  0.4791 -0.1806 -0.0324
 5448SOL    HW221564   3.021   4.777   4.639 -0.1817 -3.5733 -1.6272
 5448SOL    HW321565   2.883   4.752   4.581 -2.7317  2.7398  0.8321
 5448SOL    MW421566   2.952   4.804   4.594 -0.0317 -0.2429 -0.1288
 5449SOL     OW21567   3.487   1.770   0.768  0.4649 -0.3298 -0.1141
 5449SOL    HW221568   3.484   1.677   0.748  1.3550 -0.2526 -0.6431
 5449SOL    HW321569   3.562   1.803   0.719 -1.2024  1.1250 -1.8931
 5449SOL    MW421570   3.496   1.762   0.759  0.3623 -0.1277 -0.4186
 5450SOL     OW21571   3.991   3.337   5.451  0.4682  0.1675 -0.1363
 5450SOL    HW221572   4.018   3.370   5.537  1.6478 -1.5746  0.2170
 5450SOL    HW321573   4.072   3.317   5.405 -0.1531 -0.6717 -0.9380
 5450SOL    MW421574   4.005   3.338   5.456  0.5419 -0.1731 -0.1955
 5451SOL     OW21575   2.386   0.528   0.392 -0.0578  0.1537  0.1526
 5451SOL    HW221576   2.390   0.574   0.308 -0.0102 -0.4465 -0.1777
 5451SOL    HW321577   2.413   0.594   0.457  1.6623  0.1276 -0.4964
 5451SOL    MW421578   2.390   0.543   0.390  0.1754  0.0711  0.0234
 5452SOL     OW21579   4.458   3.270   5.361  0.2961  0.8025 -0.0957
 5452SOL    HW221580   4.510   3.274   5.441 -1.3354  0.4155  1.0304
 5452SOL    HW321581   4.479   3.184   5.322 -1.1485 -0.3662  1.5618
 5452SOL    MW421582   4.467   3.259   5.366 -0.1097  0.5973  0.2716
 5453SOL     OW21583   3.295   1.039   1.568 -0.0349 -0.0776  0.3108
 5453SOL    HW221584   3.261   1.081   1.489  0.1802 -0.8025 -0.1764
 5453SOL    HW321585   3.383   1.076   1.579  0.6334 -1.2439 -0.8043
 5453SOL    MW421586   3.302   1.050   1.559  0.0816 -0.3271  0.0994
 5454SOL     OW21587   2.313   3.266   5.591 -0.2965  0.5755  0.2275
 5454SOL    HW221588   2.312   3.210   5.668  0.9873  1.0686  0.6343
 5454SOL    HW321589   2.394   3.243   5.545 -0.1552  1.5064 -0.0230
 5454SOL    MW421590   2.324   3.256   5.595 -0.1085  0.7634  0.2481
 5455SOL     OW21591   5.204   5.982   1.269 -1.3902  0.0582 -0.1328
 5455SOL    HW221592   5.131   5.984   1.331  1.4162 -1.6423  3.6646
 5455SOL    HW321593   5.264   6.049   1.302 -0.3524  0.0629 -1.9264
 5455SOL    MW421594   5.203   5.991   1.281 -0.8830 -0.1656  0.1315
 5456SOL     OW21595   1.513   5.536   0.530 -0.0039 -0.0512  0.7274
 5456SOL    HW221596   1.452   5.587   0.476  0.3235  1.8287  2.0293
 5456SOL    HW321597   1.457   5.480   0.583 -0.4561 -0.0052  0.3118
 5456SOL    MW421598   1.497   5.536   0.530 -0.0203  0.2029  0.8443
 5457SOL     OW21599   5.366   3.213   1.137  0.0733 -0.2848 -0.0407
 5457SOL    HW221600   5.445   3.192   1.186 -0.3014  0.0505  0.7282
 5457SOL    HW321601   5.360   3.309   1.140 -0.1465 -0.2836 -0.4377
 5457SOL    MW421602   5.375   3.223   1.144 -0.0052 -0.2404  0.0084
 5458SOL     OW21603   0.028   4.243   4.532 -0.3030  0.1757 -0.2695
 5458SOL    HW221604   0.039   4.213   4.442 -2.6391  1.1259 -0.9597
 5458SOL    HW321605   0.068   4.330   4.533  1.3166 -0.5322  0.1558
 5458SOL    MW421606   0.035   4.250   4.520 -0.3975  0.2076 -0.3044
 5459SOL     OW21607   0.999   2.839   4.040  0.2986 -0.3671  0.5566
 5459SOL    HW221608   0.972   2.756   4.002 -0.9747 -0.9354  2.5222
 5459SOL    HW321609   0.952   2.905   3.990 -2.3059 -1.1612  1.7601
 5459SOL    MW421610   0.989   2.837   4.029 -0.2130 -0.5468  0.9747
 5460SOL     OW21611   3.063   3.216   6.137 -0.2233 -0.1057 -0.0086
 5460SOL    HW221612   3.042   3.124   6.153 -0.9889  0.1290  0.3887
 5460SOL    HW321613   2.981   3.263   6.153  0.7250  0.9254  2.1784
 5460SOL    MW421614   3.050   3.210   6.141 -0.1992  0.0613  0.3323
 5461SOL     OW21615   5.615   5.005   0.488  0.2736 -0.3226 -0.7326
 5461SOL    HW221616   5.616   5.098   0.510 -2.5592 -0.3686 -0.0614
 5461SOL    HW321617   5.654   4.962   0.564 -0.2788  0.1865 -0.1534
 5461SOL    MW421618   5.621   5.012   0.501 -0.1730 -0.2615 -0.5676
 5462SOL     OW21619   4.962   1.847   0.088  0.2679  0.2341  0.0122
 5462SOL    HW221620   4.926   1.903   0.156 -0.2986 -1.6964  1.4016
 5462SOL    HW321621   5.054   1.873   0.081  0.5486  0.0189  2.0994
 5462SOL    MW421622   4.969   1.858   0.096  0.2302 -0.0490  0.4709
 5463SOL     OW21623   0.038   6.042   3.641  0.8095  0.3547 -0.6755
 5463SOL    HW221624   0.087   5.961   3.657 -1.8844 -0.9882  1.7506
 5463SOL    HW321625   0.078   6.107   3.699 -0.2494 -0.7638  1.4120
 5463SOL    MW421626   0.050   6.040   3.651  0.3144  0.0299 -0.0800
 5464SOL     OW21627   3.024   5.766   4.839 -0.1256  0.1926 -0.6170
 5464SOL    HW221628   3.051   5.802   4.923 -1.5099 -0.1264 -0.0196
 5464SOL    HW321629   3.035   5.671   4.849  1.3201  0.2433 -1.4028
 5464SOL    MW421630   3.029   5.758   4.851 -0.1175  0.1572 -0.6418
 5465SOL     OW21631   4.400   4.970   6.360  0.1955 -0.5098 -0.5073
 5465SOL    HW221632   4.445   4.921   6.292  0.3071 -2.1337  0.6657
 5465SOL    HW321633   4.331   4.910   6.390  2.4115 -1.5253  3.3035
 5465SOL    MW421634   4.397   4.955   6.355  0.5026 -0.8580  0.1503
 5466SOL     OW21635   1.796   4.942   2.898  0.2145 -0.4293 -0.0401
 5466SOL    HW221636   1.857   5.013   2.879  0.1409 -0.1955  0.5928
 5466SOL    HW321637   1.753   4.968   2.980  1.2062 -1.8838  0.9742
 5466SOL    MW421638   1.798   4.955   2.906  0.3357 -0.5904  0.1772
 5467SOL     OW21639   3.402   0.101   0.672  0.1714  0.3761 -0.1314
 5467SOL    HW221640   3.361   0.179   0.633  0.5489  1.0695  0.8144
 5467SOL    HW321641   3.329   0.042   0.690 -0.3956  1.4030  1.0919
 5467SOL    MW421642   3.387   0.104   0.669  0.1464  0.6031  0.1548
 5468SOL     OW21643   5.613   3.678   3.128  0.7325  0.3955 -0.6507
 5468SOL    HW221644   5.624   3.647   3.039 -0.5956  1.1043 -1.0895
 5468SOL    HW321645   5.598   3.772   3.120  0.3197  0.4288  0.2939
 5468SOL    MW421646   5.612   3.686   3.115  0.5028  0.4934 -0.5840
 5469SOL     OW21647   3.767   6.219   3.739 -0.5894  0.2284  0.1500
 5469SOL    HW221648   3.823   6.145   3.763  0.8657  0.3480 -2.4942
 5469SOL    HW321649   3.684   6.179   3.713  0.3579 -0.6443 -1.7995
 5469SOL    MW421650   3.763   6.204   3.739 -0.2724  0.1290 -0.4560
 5470SOL     OW21651   1.439   1.684   6.176  0.2358 -0.8757  0.5838
 5470SOL    HW221652   1.389   1.603   6.170 -0.2097 -0.5652 -0.1207
 5470SOL    HW321653   1.501   1.679   6.103 -0.9977  0.1885 -0.5996
 5470SOL    MW421654   1.441   1.673   6.165  0.0143 -0.6943  0.3347
 5471SOL     OW21655   5.439   0.381   0.823 -0.8548 -0.2293  0.3898
 5471SOL    HW221656   5.521   0.367   0.777 -0.4463  1.1059  0.6855
 5471SOL    HW321657   5.390   0.442   0.768 -1.2556 -0.2657  0.6931
 5471SOL    MW421658   5.443   0.387   0.810 -0.8538 -0.0579  0.4688
 5472SOL     OW21659   3.158   1.170   0.156  0.5278  0.5423 -0.1116
 5472SOL    HW221660   3.212   1.091   0.150  3.4875  2.2850  1.1668
 5472SOL    HW321661   3.183   1.222   0.080  0.8719  1.4545  0.5928
 5472SOL    MW421662   3.168   1.166   0.145  0.9637  0.8926  0.1500
 5473SOL     OW21663   0.303   0.625   2.166 -0.1984 -0.0841  0.0868
 5473SOL    HW221664   0.292   0.655   2.076  0.6245 -2.5524 -0.9268
 5473SOL    HW321665   0.395   0.602   2.173  0.1939  1.8059  2.2107
 5473SOL    MW421666   0.314   0.626   2.155 -0.0381 -0.1604  0.2333
 5474SOL     OW21667   5.600   1.942   2.089  0.0583 -0.3030 -0.4741
 5474SOL    HW221668   5.535   2.009   2.109  1.3826  0.4066  1.9815
 5474SOL    HW321669   5.562   1.891   2.018 -2.9535  0.3186  0.5543
 5474SOL    MW421670   5.587   1.944   2.082 -0.1644 -0.1274 -0.0144
 5475SOL     OW21671   2.231   5.305   0.267  0.6158  0.3111 -0.3472
 5475SOL    HW221672   2.216   5.235   0.204  1.9871 -0.5856  0.2939
 5475SOL    HW321673   2.326   5.311   0.275  0.6210  3.1426 -1.3545
 5475SOL    MW421674   2.242   5.297   0.260  0.7974  0.5664 -0.3955
 5476SOL     OW21675   4.810   6.148   5.695  0.5725 -0.0459  0.2813
 5476SOL    HW221676   4.756   6.227   5.691 -0.1656 -0.5783 -0.4757
 5476SOL    HW321677   4.766   6.092   5.759  0.8577 -0.0237  0.4991
 5476SOL    MW421678   4.797   6.151   5.703  0.5128 -0.1132  0.2101
 5477SOL     OW21679   1.577   2.676   1.499  0.1254 -0.0605 -0.3191
 5477SOL    HW221680   1.602   2.630   1.579  0.2169 -1.3612 -1.0655
 5477SOL    HW321681   1.605   2.618   1.428 -0.0022  1.0355 -1.3031
 5477SOL    MW421682   1.584   2.662   1.500  0.1206 -0.0875 -0.5474
 5478SOL     OW21683   5.224   6.393   1.832 -0.4662  0.5844  0.1563
 5478SOL    HW221684   5.208   6.342   1.753  1.1214 -1.0890  0.8467
 5478SOL    HW321685   5.142   6.386   1.882 -2.4020  3.6274 -2.2225
 5478SOL    MW421686   5.211   6.385   1.828 -0.5122  0.7651 -0.0665
 5479SOL     OW21687   0.862   5.306   1.726  0.1808  0.2524  0.1113
 5479SOL    HW221688   0.885   5.397   1.706 -0.4798  0.5561  0.7084
 5479SOL    HW321689   0.767   5.308   1.742  0.3955 -0.2885  1.5483
 5479SOL    MW421690   0.852   5.318   1.725  0.1220  0.2211  0.3797
 5480SOL     OW21691   3.260   4.222   1.935  0.5299 -0.0018  0.0517
 5480SOL    HW221692   3.236   4.130   1.923  0.8210  0.0108 -0.6756
 5480SOL    HW321693   3.206   4.269   1.871  1.5561  0.1594 -0.7103
 5480SOL    MW421694   3.250   4.216   1.925  0.7037  0.0211 -0.1448
 5481SOL     OW21695   1.508   3.678   4.997  0.6894 -0.0376 -0.0559
 5481SOL    HW221696   1.580   3.627   4.958  0.7847 -1.7305  2.1889
 5481SOL    HW321697   1.432   3.657   4.942  1.5716  0.7627 -1.6794
 5481SOL    MW421698   1.508   3.669   4.984  0.8184 -0.1554  0.0261
 5482SOL     OW21699   0.811   1.051   4.072 -0.0319 -1.1677 -0.1987
 5482SOL    HW221700   0.739   1.020   4.017  0.2672  0.3309 -1.4858
 5482SOL    HW321701   0.806   1.146   4.066  0.6291 -0.9897  1.5979
 5482SOL    MW421702   0.801   1.059   4.064  0.0948 -0.9465 -0.1315
 5483SOL     OW21703   5.136   5.088   5.026  0.8517  0.6144  1.0369
 5483SOL    HW221704   5.223   5.075   4.988  0.9182  0.6984  1.1581
 5483SOL    HW321705   5.149   5.155   5.093  0.5302  1.2668  0.4597
 5483SOL    MW421706   5.149   5.095   5.030  0.8180  0.7116  0.9767
 5484SOL     OW21707   4.182   4.682   2.394  0.2848  0.0096  0.1386
 5484SOL    HW221708   4.228   4.681   2.310 -0.2955  0.6239 -0.2049
 5484SOL    HW321709   4.131   4.764   2.392  0.5117  0.1974  1.2247
 5484SOL    MW421710   4.181   4.693   2.383  0.2382  0.1154  0.2366
 5485SOL     OW21711   1.428   6.383   3.749 -0.4059 -0.0957  0.3926
 5485SOL    HW221712   1.355   6.325   3.768  1.8150 -3.0384  0.7209
 5485SOL    HW321713   1.463   6.407   3.835 -0.7235  0.9805  0.2354
 5485SOL    MW421714   1.423   6.378   3.763 -0.1548 -0.3420  0.4152
 5486SOL     OW21715   0.366   0.611   4.414 -0.1450 -0.5110 -0.4572
 5486SOL    HW221716   0.335   0.701   4.428 -2.3410 -1.2209 -0.3515
 5486SOL    HW321717   0.455   0.611   4.450  0.1732  1.7709 -1.0494
 5486SOL    MW421718   0.374   0.623   4.421 -0.3927 -0.3036 -0.5214
 5487SOL     OW21719   1.319   1.332   1.816  0.2002  0.2854 -0.2452
 5487SOL    HW221720   1.294   1.423   1.806  1.3216  0.4768 -1.5081
 5487SOL    HW321721   1.413   1.330   1.801  0.4595 -0.8718  1.2424
 5487SOL    MW421722   1.328   1.344   1.813  0.3824  0.1580 -0.2156
 5488SOL     OW21723   4.287   0.054   0.622 -0.2781 -0.1010  0.1041
 5488SOL    HW221724   4.236   0.092   0.694 -0.8340  0.6063 -0.6428
 5488SOL    HW321725   4.225  -0.003   0.576 -0.1803  0.1491 -0.3428
 5488SOL    MW421726   4.272   0.052   0.626 -0.3386  0.0253 -0.0534
 5489SOL     OW21727   4.317   1.361   4.550  0.6850  0.4485 -0.3115
 5489SOL    HW221728   4.267   1.396   4.623  0.3873 -0.6969  0.0611
 5489SOL    HW321729   4.259   1.297   4.509  1.3430  0.0894 -0.7086
 5489SOL    MW421730   4.303   1.357   4.555  0.7326  0.2500 -0.3147
 5490SOL     OW21731   1.186   5.186   4.637  0.2807 -0.4677 -0.2103
 5490SOL    HW221732   1.150   5.161   4.722  0.3300  1.3574  0.3910
 5490SOL    HW321733   1.280   5.199   4.654 -0.1143  2.6946  0.2525
 5490SOL    MW421734   1.194   5.185   4.650  0.2351  0.1903 -0.0699
 5491SOL     OW21735   1.332   3.024   2.852  0.4160  0.0245 -0.5188
 5491SOL    HW221736   1.340   3.040   2.758 -0.6249 -2.0183 -1.0231
 5491SOL    HW321737   1.319   3.110   2.890  1.8034  1.0165 -2.1129
 5491SOL    MW421738   1.332   3.037   2.844  0.4617 -0.1141 -0.7956
 5492SOL     OW21739   1.135   3.364   3.245 -0.0651  0.1884 -0.3161
 5492SOL    HW221740   1.100   3.293   3.191  0.2908 -0.2344  0.0015
 5492SOL    HW321741   1.128   3.442   3.189 -3.4605  0.5822  0.4473
 5492SOL    MW421742   1.129   3.365   3.230 -0.4661  0.1846 -0.1735
 5493SOL     OW21743   5.578   3.365   3.552 -0.4920 -0.4794  0.1828
 5493SOL    HW221744   5.529   3.358   3.634 -0.4622 -0.1354  0.2308
 5493SOL    HW321745   5.607   3.457   3.549  1.2332 -0.9677  0.7807
 5493SOL    MW421746   5.575   3.376   3.562 -0.2604 -0.4984  0.2680
 5494SOL     OW21747   0.367   3.938   4.156 -0.4360  0.0606 -0.1007
 5494SOL    HW221748   0.301   3.905   4.216 -0.6486 -0.2934 -0.5255
 5494SOL    HW321749   0.443   3.957   4.211 -0.2916 -1.1852  0.1492
 5494SOL    MW421750   0.368   3.936   4.171 -0.4450 -0.1505 -0.1238
 5495SOL     OW21751   2.332   3.727   2.203  0.2476  0.0528  0.7830
 5495SOL    HW221752   2.393   3.791   2.241  0.0520  0.5050  0.3544
 5495SOL    HW321753   2.346   3.647   2.254  2.4657 -0.3962 -0.3750
 5495SOL    MW421754   2.342   3.725   2.214  0.5144  0.0532  0.5737
 5496SOL     OW21755   5.647   4.838   3.900 -0.3498 -0.7878  0.4434
 5496SOL    HW221756   5.579   4.860   3.836 -0.1746  0.1399  0.5586
 5496SOL    HW321757   5.646   4.742   3.904  0.1662 -0.9215 -1.5194
 5496SOL    MW421758   5.638   4.828   3.892 -0.2586 -0.6830  0.1996
 5497SOL     OW21759   3.202   5.509   0.802 -0.3220 -0.2536  0.1335
 5497SOL    HW221760   3.143   5.444   0.764 -0.6018  1.2134 -2.2161
 5497SOL    HW321761   3.195   5.584   0.742  3.5162  0.1919  0.0018
 5497SOL    MW421762   3.194   5.511   0.789  0.1475 -0.0013 -0.1938
 5498SOL     OW21763   4.119   0.368   4.500  0.0529 -0.1162 -0.5822
 5498SOL    HW221764   4.141   0.451   4.457 -0.6719  0.0429 -0.6610
 5498SOL    HW321765   4.095   0.392   4.589  1.5139 -0.4432 -0.0821
 5498SOL    MW421766   4.118   0.382   4.506  0.1500 -0.1384 -0.5267
 5499SOL     OW21767   5.929   0.513   3.500 -0.3983 -0.4800 -0.2115
 5499SOL    HW221768   5.851   0.487   3.451  0.4870 -1.5862 -1.0987
 5499SOL    HW321769   5.927   0.458   3.578 -1.2704  0.5646  0.5417
 5499SOL    MW421770   5.918   0.502   3.504 -0.3966 -0.4881 -0.2292
 5500SOL     OW21771   6.044   4.003   3.737 -0.4922 -0.0562 -0.5802
 5500SOL    HW221772   6.092   3.920   3.746 -1.1056 -0.4579 -0.8618
 5500SOL    HW321773   5.959   3.976   3.700  0.0120  0.9117 -2.5343
 5500SOL    MW421774   6.039   3.988   3.733 -0.5066  0.0185 -0.8752
 5501SOL     OW21775   3.650   2.264   2.621  0.4790 -0.0259 -0.1501
 5501SOL    HW221776   3.663   2.203   2.548  1.9841 -1.3571  1.1581
 5501SOL    HW321777   3.710   2.336   2.602 -0.6140  0.6626 -1.2085
 5501SOL    MW421778   3.660   2.265   2.609  0.5334 -0.1107 -0.1172
 5502SOL     OW21779   6.341   2.668   1.819 -0.2055  0.1191  0.1308
 5502SOL    HW221780   6.414   2.730   1.821  1.2470 -1.5075 -0.2917
 5502SOL    HW321781   6.271   2.711   1.869  0.0539  2.8780 -1.6575
 5502SOL    MW421782   6.341   2.682   1.826  0.0204  0.2685 -0.1609
 5503SOL     OW21783   0.574   2.926   2.544 -0.0137  0.3403 -0.3576
 5503SOL    HW221784   0.628   2.965   2.476  2.1422 -0.4556  0.8212
 5503SOL    HW321785   0.579   2.988   2.617 -0.1005 -0.0833  0.0127
 5503SOL    MW421786   0.582   2.939   2.544  0.2593  0.1794 -0.1532
 5504SOL     OW21787   1.900   0.130   1.764  0.1902 -0.3294  0.1506
 5504SOL    HW221788   1.857   0.108   1.681  2.1602  0.2638 -1.1013
 5504SOL    HW321789   1.957   0.055   1.781  0.7118  0.0979  0.3056
 5504SOL    MW421790   1.902   0.117   1.755  0.5189 -0.1948  0.0059
 5505SOL     OW21791   4.086   1.872   6.368  0.2490 -0.1172  0.1343
 5505SOL    HW221792   4.139   1.832   6.299  1.9987 -0.4727  1.6202
 5505SOL    HW321793   4.019   1.922   6.321  1.5173 -0.1592 -1.8163
 5505SOL    MW421794   4.084   1.873   6.353  0.6472 -0.1696  0.0730
 5506SOL     OW21795   0.847   2.208   3.700 -0.1367 -0.1742  0.3981
 5506SOL    HW221796   0.883   2.216   3.612  0.1427  0.5018  0.5655
 5506SOL    HW321797   0.834   2.114   3.713  2.6319 -0.5896  0.7416
 5506SOL    MW421798   0.850   2.197   3.690  0.2654 -0.1398  0.4655
 5507SOL     OW21799   1.566   1.232   6.291 -0.3354  0.1316  0.1808
 5507SOL    HW221800   1.557   1.324   6.318 -0.3353  0.7551 -1.8002
 5507SOL    HW321801   1.610   1.236   6.206 -1.7770 -1.6052 -0.7118
 5507SOL    MW421802   1.571   1.245   6.283 -0.5256 -0.0153 -0.1983
 5508SOL     OW21803   1.466   1.514   5.869 -0.1817 -0.3304  0.1093
 5508SOL    HW221804   1.399   1.451   5.896 -0.1249 -0.2416  0.4580
 5508SOL    HW321805   1.526   1.519   5.943 -0.0740 -0.0194  0.0029
 5508SOL    MW421806   1.465   1.507   5.882 -0.1600 -0.2777  0.1413
 5509SOL     OW21807   2.237   3.979   0.669 -0.1279 -0.2655 -0.0466
 5509SOL    HW221808   2.311   3.983   0.730 -0.2971  1.8724  0.1067
 5509SOL    HW321809   2.231   4.068   0.634 -1.6179 -0.8192 -1.2965
 5509SOL    MW421810   2.246   3.991   0.672 -0.3468 -0.0565 -0.1913
 5510SOL     OW21811   4.975   6.344   2.261  0.0270  0.3316 -0.2769
 5510SOL    HW221812   4.942   6.411   2.321 -0.6515  1.1869 -1.5644
 5510SOL    HW321813   4.900   6.286   2.246  0.9088 -1.4752  1.7352
 5510SOL    MW421814   4.961   6.345   2.267  0.0538  0.2061 -0.1813
 5511SOL     OW21815   1.700   0.736   2.687 -0.0585 -0.3104  0.1170
 5511SOL    HW221816   1.690   0.750   2.593 -1.2464 -0.5496  0.1885
 5511SOL    HW321817   1.701   0.641   2.698  0.8475 -0.2863  0.2789
 5511SOL    MW421818   1.699   0.725   2.676 -0.0957 -0.3388  0.1478
 5512SOL     OW21819   1.581   5.267   4.105  0.0275 -0.7023  0.0899
 5512SOL    HW221820   1.654   5.314   4.146  0.7084 -1.8842  0.2509
 5512SOL    HW321821   1.522   5.246   4.178  0.0431 -0.6735  0.1109
 5512SOL    MW421822   1.582   5.271   4.120  0.1194 -0.8544  0.1139
 5513SOL     OW21823   2.649   1.092   3.696  0.1089 -0.0508 -0.3756
 5513SOL    HW221824   2.710   1.094   3.770 -0.3042 -0.7615 -0.0045
 5513SOL    HW321825   2.704   1.078   3.619  0.3685 -1.3307  0.0231
 5513SOL    MW421826   2.664   1.090   3.696  0.0887 -0.3135 -0.2740
 5514SOL     OW21827   1.295   4.489   4.015 -0.2839 -0.1404 -0.0090
 5514SOL    HW221828   1.223   4.495   4.078 -1.2137  1.9401 -1.1526
 5514SOL    HW321829   1.374   4.494   4.068 -1.0027 -0.4244  1.1261
 5514SOL    MW421830   1.296   4.490   4.030 -0.5014  0.0967 -0.0101
 5515SOL     OW21831   4.048   6.047   1.126  0.4984 -0.1511 -0.2173
 5515SOL    HW221832   4.047   6.119   1.063 -0.2479  0.0589  0.0221
 5515SOL    HW321833   4.111   5.984   1.090  0.6166  0.2897 -0.7981
 5515SOL    MW421834   4.057   6.048   1.113  0.4155 -0.0652 -0.2623
 5516SOL     OW21835   1.826   3.693   2.833  0.4147  0.0713 -0.0073
 5516SOL    HW221836   1.815   3.735   2.748 -1.2437 -1.2890 -0.5342
 5516SOL    HW321837   1.737   3.686   2.868  0.7087 -1.9940  0.4941
 5516SOL    MW421838   1.813   3.697   2.826  0.2347 -0.3807 -0.0106
 5517SOL     OW21839   6.033   0.478   4.148 -0.7148 -0.4812  0.6216
 5517SOL    HW221840   6.030   0.424   4.069  2.4456  0.5769 -0.3893
 5517SOL    HW321841   6.124   0.509   4.153 -1.5521  2.0754  2.9361
 5517SOL    MW421842   6.045   0.475   4.138 -0.4083 -0.0043  0.7936
 5518SOL     OW21843   6.345   4.664   2.737 -0.7095  0.1811 -0.2529
 5518SOL    HW221844   6.372   4.668   2.829  0.6071 -0.3971 -0.5903
 5518SOL    HW321845   6.285   4.590   2.733 -1.1779  0.5288  0.2338
 5518SOL    MW421846   6.341   4.655   2.749 -0.5976  0.1507 -0.2332
 5519SOL     OW21847   5.583   5.072   2.038  0.4077 -0.3386  0.5708
 5519SOL    HW221848   5.565   5.158   1.999 -0.4801 -1.2095 -1.0670
 5519SOL    HW321849   5.672   5.079   2.074 -0.1547  1.6581  1.7078
 5519SOL    MW421850   5.592   5.084   2.038  0.2164 -0.1900  0.5047
 5520SOL     OW21851   1.441   5.377   2.904 -0.4392 -0.0851 -0.0062
 5520SOL    HW221852   1.536   5.370   2.918 -0.6297  1.2988  2.4030
 5520SOL    HW321853   1.406   5.293   2.935 -0.2153  0.4848  1.9253
 5520SOL    MW421854   1.449   5.365   2.910 -0.4348  0.1727  0.5665
 5521SOL     OW21855   2.982   2.807   5.157  0.2058 -0.2683  0.3854
 5521SOL    HW221856   3.068   2.812   5.115 -0.8709  2.0400 -1.8644
 5521SOL    HW321857   2.979   2.720   5.197  2.1243 -2.0318 -2.8619
 5521SOL    MW421858   2.993   2.796   5.157  0.3169 -0.1964 -0.3399
 5522SOL     OW21859   3.119   4.817   5.003  0.2108  0.3024  0.3570
 5522SOL    HW221860   3.192   4.878   4.997  3.3494 -3.1522 -0.7064
 5522SOL    HW321861   3.118   4.772   4.919 -1.3484 -1.6490  1.3295
 5522SOL    MW421862   3.128   4.819   4.991  0.4192 -0.4108  0.3450
 5523SOL     OW21863   3.726   4.586   2.311  0.4386  0.0598  0.3933
 5523SOL    HW221864   3.736   4.492   2.298  1.8037 -0.1100  2.2807
 5523SOL    HW321865   3.633   4.598   2.331  0.1360 -0.7754 -0.4155
 5523SOL    MW421866   3.715   4.575   2.312  0.5788 -0.0728  0.5356
 5524SOL     OW21867   4.385   4.028   0.389  0.4270 -0.0265 -0.3305
 5524SOL    HW221868   4.448   4.079   0.340 -0.8454 -0.1310 -2.1835
 5524SOL    HW321869   4.378   3.945   0.341  0.2049 -0.7337  0.8682
 5524SOL    MW421870   4.392   4.023   0.376  0.2298 -0.1336 -0.4168
 5525SOL     OW21871   4.616   5.045   5.965 -0.2598 -0.0489  0.4498
 5525SOL    HW221872   4.521   5.055   5.965 -0.2923 -0.2474 -0.8542
 5525SOL    HW321873   4.649   5.134   5.977 -0.6080  0.2431 -0.6801
 5525SOL    MW421874   4.608   5.058   5.967 -0.3101 -0.0366  0.1287
 5526SOL     OW21875   2.128   4.494   2.425 -0.4843  0.1356  0.4399
 5526SOL    HW221876   2.093   4.447   2.349  1.0806 -0.8763  0.3037
 5526SOL    HW321877   2.187   4.432   2.467 -0.8150  0.9076  2.1371
 5526SOL    MW421878   2.131   4.480   2.420 -0.3215  0.1040  0.6459
 5527SOL     OW21879   2.874   3.845   5.109  0.2455  0.1278  0.7033
 5527SOL    HW221880   2.903   3.768   5.156 -0.4804 -0.2078  0.6168
 5527SOL    HW321881   2.790   3.819   5.070 -0.3462  1.1636  1.2364
 5527SOL    MW421882   2.866   3.832   5.110  0.0716  0.2202  0.7622
 5528SOL     OW21883   4.849   4.343   3.742  0.2089  0.3272 -0.2237
 5528SOL    HW221884   4.803   4.308   3.818  0.2124 -0.6282 -0.6434
 5528SOL    HW321885   4.822   4.435   3.738 -1.7800 -0.2190 -0.5081
 5528SOL    MW421886   4.839   4.350   3.751 -0.0530  0.1291 -0.3166
 5529SOL     OW21887   1.233   0.981   0.788 -0.1175  0.1985  0.7347
 5529SOL    HW221888   1.192   0.898   0.812  0.8900 -0.5369  0.0176
 5529SOL    HW321889   1.322   0.956   0.760 -0.9757  0.9972 -3.2899
 5529SOL    MW421890   1.240   0.967   0.788 -0.0978  0.2069  0.1091
 5530SOL     OW21891   4.606   3.405   1.766  0.0090 -0.2606  0.2790
 5530SOL    HW221892   4.660   3.326   1.760  0.1349 -0.1069 -1.1947
 5530SOL    HW321893   4.667   3.473   1.797  0.1001 -0.5738  0.7859
 5530SOL    MW421894   4.621   3.404   1.769  0.0376 -0.2816  0.1514
 5531SOL     OW21895   1.468   4.897   5.849 -0.0014 -0.7077 -0.1641
 5531SOL    HW221896   1.396   4.959   5.856  1.4929  1.3289 -1.3347
 5531SOL    HW321897   1.518   4.908   5.930 -0.3510 -1.2481  0.1294
 5531SOL    MW421898   1.465   4.907   5.860  0.1496 -0.5103 -0.2798
 5532SOL     OW21899   2.926   0.287   4.663  0.1759 -0.2580  0.0979
 5532SOL    HW221900   2.874   0.208   4.650 -0.3877  0.0559  0.4238
 5532SOL    HW321901   2.864   0.352   4.695  0.7120  0.2055  0.2124
 5532SOL    MW421902   2.911   0.285   4.666  0.1722 -0.1554  0.1560
 5533SOL     OW21903   1.008   2.793   2.163  0.1093  0.5137 -0.6007
 5533SOL    HW221904   1.027   2.727   2.229  1.1568  0.0111 -1.3829
 5533SOL    HW321905   0.913   2.805   2.168 -0.0950 -1.0264 -0.4255
 5533SOL    MW421906   0.998   2.786   2.173  0.2206  0.2442 -0.6808
 5534SOL     OW21907   3.447   2.513   0.720  0.4078 -0.3153 -0.3680
 5534SOL    HW221908   3.535   2.483   0.744  0.7681  0.9986  0.0683
 5534SOL    HW321909   3.445   2.605   0.748 -1.2847 -0.4680  0.0920
 5534SOL    MW421910   3.459   2.521   0.727  0.2320 -0.1621 -0.2498
 5535SOL     OW21911   2.836   3.230   2.338 -0.1850  0.1484 -0.0723
 5535SOL    HW221912   2.835   3.321   2.370  0.9813 -0.2029  1.0352
 5535SOL    HW321913   2.928   3.213   2.318 -0.6190 -0.2550 -1.9679
 5535SOL    MW421914   2.848   3.240   2.339 -0.0884  0.0489 -0.1763
 5536SOL     OW21915   4.200   2.580   2.420 -0.2138  0.1827  0.3594
 5536SOL    HW221916   4.136   2.511   2.438  0.3860  0.2441  3.3594
 5536SOL    HW321917   4.225   2.567   2.329 -1.2074 -2.6617  0.3952
 5536SOL    MW421918   4.195   2.569   2.410 -0.2658 -0.1845  0.7599
 5537SOL     OW21919   3.860   1.339   1.210 -0.0446  0.2634 -0.0953
 5537SOL    HW221920   3.810   1.280   1.154 -0.6752 -0.9855  1.6666
 5537SOL    HW321921   3.944   1.350   1.166 -0.9213  0.2933 -1.8284
 5537SOL    MW421922   3.865   1.333   1.197 -0.2435  0.1026 -0.0915
 5538SOL     OW21923   3.999   5.253   3.370  0.3678  0.3262 -0.6407
 5538SOL    HW221924   3.932   5.308   3.412  0.7162  0.5267 -0.3479
 5538SOL    HW321925   4.074   5.312   3.359  0.8071 -0.1456 -0.1650
 5538SOL    MW421926   4.000   5.268   3.374  0.4718  0.2904 -0.5393
 5539SOL     OW21927   2.223   0.562   6.346  0.1379  0.0584  0.5313
 5539SOL    HW221928   2.191   0.488   6.398  2.2984 -1.1907  0.2037
 5539SOL    HW321929   2.302   0.529   6.303 -0.1227  1.8505 -1.5114
 5539SOL    MW421930   2.229   0.548   6.347  0.3886  0.1301  0.2185
 5540SOL     OW21931   3.862   5.988   4.211  0.0532  0.6375 -0.2967
 5540SOL    HW221932   3.884   5.902   4.247 -0.7292  0.5610 -0.0036
 5540SOL    HW321933   3.894   6.051   4.276  1.2374  0.6070 -0.8228
 5540SOL    MW421934   3.869   5.985   4.224  0.1063  0.6234 -0.3274
 5541SOL     OW21935   5.891   6.264   0.178 -0.3127  0.6601 -0.0673
 5541SOL    HW221936   5.905   6.190   0.236  0.7731 -0.4222 -1.6284
 5541SOL    HW321937   5.888   6.340   0.236 -1.2443 -0.5518  1.5593
 5541SOL    MW421938   5.892   6.265   0.193 -0.2924  0.3574 -0.0587
 5542SOL     OW21939   4.003   2.222   0.101  0.0155 -0.4709 -0.8325
 5542SOL    HW221940   3.965   2.241   0.015 -0.1740 -1.0609 -0.8878
 5542SOL    HW321941   4.005   2.306   0.146  2.2160  0.3201 -2.2377
 5542SOL    MW421942   3.998   2.235   0.096  0.2808 -0.4444 -1.0252
 5543SOL     OW21943   3.545   1.115   0.087  0.4601 -0.4124 -0.2881
 5543SOL    HW221944   3.553   1.120   0.182 -0.3916 -2.0371 -0.0933
 5543SOL    HW321945   3.635   1.112   0.055  0.7725 -1.9046  0.6285
 5543SOL    MW421946   3.558   1.115   0.096  0.3890 -0.8236 -0.1415
 5544SOL     OW21947   4.292   4.558   5.618 -0.1837 -0.8441 -0.1863
 5544SOL    HW221948   4.342   4.500   5.676  0.5124 -1.1733 -1.0891
 5544SOL    HW321949   4.352   4.630   5.598 -1.1057  0.3201  1.0720
 5544SOL    MW421950   4.307   4.560   5.623 -0.2135 -0.7339 -0.1394
 5545SOL     OW21951   3.937   0.780   2.073  0.4675 -0.1183  0.1240
 5545SOL    HW221952   3.965   0.840   2.004  1.2918  0.1319  0.6587
 5545SOL    HW321953   4.009   0.781   2.136 -0.9874  1.0576  1.8971
 5545SOL    MW421954   3.950   0.788   2.072  0.3843  0.0699  0.4285
 5546SOL     OW21955   0.114   2.400   5.433  0.6468 -0.1019 -0.0117
 5546SOL    HW221956   0.061   2.325   5.459 -0.3030  0.7016  0.4210
 5546SOL    HW321957   0.137   2.383   5.341 -0.6139 -0.3398 -0.3078
 5546SOL    MW421958   0.110   2.388   5.424  0.3551 -0.0273  0.0063
 5547SOL     OW21959   5.887   1.855   4.492 -0.3482 -0.2292  0.2031
 5547SOL    HW221960   5.966   1.861   4.438  0.1857  0.4140  1.0290
 5547SOL    HW321961   5.894   1.769   4.535 -0.3160 -0.3542 -0.0516
 5547SOL    MW421962   5.898   1.844   4.491 -0.2735 -0.1608  0.2785
 5548SOL     OW21963   5.262   1.840   2.258 -0.0068 -0.2620  0.1874
 5548SOL    HW221964   5.245   1.865   2.167 -0.8261 -0.4304  0.2853
 5548SOL    HW321965   5.312   1.913   2.295 -0.0207 -0.0134 -0.2807
 5548SOL    MW421966   5.267   1.853   2.251 -0.1167 -0.2514  0.1385
 5549SOL     OW21967   2.309   6.373   3.115  0.4530  0.5100  0.2511
 5549SOL    HW221968   2.355   6.457   3.106 -0.2826  1.0017  0.8902
 5549SOL    HW321969   2.375   6.307   3.095  1.1521  1.2338  0.1123
 5549SOL    MW421970   2.324   6.376   3.111  0.4482  0.6704  0.3171
 5550SOL     OW21971   5.422   1.469   4.434 -0.2591  0.0442  0.2481
 5550SOL    HW221972   5.411   1.507   4.521 -2.2134 -0.0161  0.0754
 5550SOL    HW321973   5.336   1.433   4.413  0.2821 -0.2924 -1.5505
 5550SOL    MW421974   5.409   1.469   4.442 -0.4455 -0.0081 -0.0120
 5551SOL     OW21975   2.692   0.677   4.292  0.1165 -0.4376 -0.4027
 5551SOL    HW221976   2.699   0.613   4.362  0.3338 -1.5587 -1.4042
 5551SOL    HW321977   2.598   0.695   4.284  0.1300  0.0424  0.4517
 5551SOL    MW421978   2.681   0.671   4.300  0.1469 -0.5222 -0.4221
 5552SOL     OW21979   1.940   1.129   0.252  0.1249 -0.0794 -0.5668
 5552SOL    HW221980   1.962   1.210   0.298  0.9037 -0.6340  0.0680
 5552SOL    HW321981   1.997   1.128   0.176  0.0474  0.0176 -0.6257
 5552SOL    MW421982   1.951   1.140   0.248  0.2174 -0.1398 -0.4908
 5553SOL     OW21983   5.619   5.122   4.127 -0.4148 -0.4414 -0.2206
 5553SOL    HW221984   5.582   5.035   4.141  0.0803 -0.4839  0.9587
 5553SOL    HW321985   5.580   5.176   4.196  0.1991 -0.0199 -0.1932
 5553SOL    MW421986   5.609   5.118   4.138 -0.2685 -0.3914 -0.0614
 5554SOL     OW21987   3.722   0.652   5.396 -0.5375  0.2561 -0.5085
 5554SOL    HW221988   3.758   0.598   5.466 -0.5885  1.1642  0.2474
 5554SOL    HW321989   3.796   0.668   5.338 -0.3762 -0.1194 -0.4090
 5554SOL    MW421990   3.736   0.647   5.398 -0.5230  0.3264 -0.3956
 5555SOL     OW21991   5.625   2.826   1.048  0.4063  0.3490  0.6461
 5555SOL    HW221992   5.530   2.837   1.041  0.5438  0.7006 -1.3746
 5555SOL    HW321993   5.645   2.847   1.139 -1.2659  1.8223  0.7227
 5555SOL    MW421994   5.615   2.830   1.059  0.2038  0.5898  0.3896
 5556SOL     OW21995   2.789   1.785   3.322 -0.0266 -0.0664  0.0640
 5556SOL    HW221996   2.858   1.729   3.358 -1.9530 -2.3975  0.4242
 5556SOL    HW321997   2.709   1.731   3.329 -1.7854  2.2705 -0.8326
 5556SOL    MW421998   2.787   1.770   3.328 -0.5128 -0.0657 -0.0068
 5557SOL     OW21999   1.021   2.571   5.338 -0.0054  0.4260 -0.0153
 5557SOL    HW222000   0.969   2.626   5.396 -0.3751 -0.3514  0.4041
 5557SOL    HW322001   1.024   2.620   5.255 -0.9245  0.7497  0.1304
 5557SOL    MW422002   1.015   2.585   5.335 -0.1754  0.3661  0.0592
 5558SOL     OW22003   4.585   5.330   0.172  0.2912 -0.2419 -0.1113
 5558SOL    HW222004   4.548   5.399   0.227 -1.1229 -0.9791 -0.0965
 5558SOL    HW322005   4.510   5.277   0.146  1.1876 -1.0410 -1.1677
 5558SOL    MW422006   4.570   5.332   0.176  0.2229 -0.4446 -0.2487
 5559SOL     OW22007   4.680   5.283   4.359  0.3610  0.1132 -0.5089
 5559SOL    HW222008   4.752   5.242   4.310 -1.4981 -2.3380 -1.4066
 5559SOL    HW322009   4.660   5.221   4.428 -1.1797  0.5269 -0.5569
 5559SOL    MW422010   4.687   5.270   4.362 -0.0876 -0.1556 -0.6337
 5560SOL     OW22011   4.366   0.238   2.037  0.2809 -0.2960 -0.1333
 5560SOL    HW222012   4.303   0.294   1.991 -0.7671 -1.4824 -0.1998
 5560SOL    HW322013   4.313   0.167   2.073  1.1339  0.3173  2.5375
 5560SOL    MW422014   4.351   0.236   2.036  0.2552 -0.3716  0.2103
 5561SOL     OW22015   3.718   2.510   4.626 -0.1418 -0.1944  0.3328
 5561SOL    HW222016   3.758   2.433   4.585  1.9047  1.0215 -0.0541
 5561SOL    HW322017   3.661   2.546   4.558  0.8278  0.0309 -0.3864
 5561SOL    MW422018   3.715   2.504   4.612  0.2562 -0.0043  0.1869
 5562SOL     OW22019   3.429   1.039   5.253  0.0514 -0.0846  0.5783
 5562SOL    HW222020   3.351   1.019   5.202  1.5539 -1.9776 -1.1421
 5562SOL    HW322021   3.451   0.958   5.298  1.9765 -0.1535 -0.3762
 5562SOL    MW422022   3.422   1.026   5.252  0.5037 -0.3435  0.2254
 5563SOL     OW22023   5.914   4.060   5.603  0.4475 -0.7303  0.1038
 5563SOL    HW222024   5.820   4.079   5.596  0.2162 -1.7979  0.1903
 5563SOL    HW322025   5.947   4.068   5.514  0.3759  0.1113  0.1416
 5563SOL    MW422026   5.906   4.064   5.591  0.4076 -0.7601  0.1202
 5564SOL     OW22027   1.966   0.020   3.412 -0.1918  0.1568 -0.2399
 5564SOL    HW222028   1.914  -0.052   3.375  1.8835 -1.9869  0.7375
 5564SOL    HW322029   1.945   0.017   3.506 -0.2640  1.0228 -0.2224
 5564SOL    MW422030   1.956   0.010   3.420  0.0725 -0.0117 -0.1086
 5565SOL     OW22031   1.341   2.214   2.315 -0.0457 -0.3953  0.2987
 5565SOL    HW222032   1.341   2.256   2.229  1.1013 -2.6005 -0.8643
 5565SOL    HW322033   1.420   2.246   2.358  0.1121 -0.3489 -0.0266
 5565SOL    MW422034   1.351   2.224   2.309  0.1265 -0.6801  0.1023
 5566SOL     OW22035   1.073   2.057   6.133  0.3039  0.3551  0.2013
 5566SOL    HW222036   1.041   2.084   6.219  0.4972  0.5586  0.2117
 5566SOL    HW322037   1.165   2.036   6.148  0.6995  1.6857 -0.2200
 5566SOL    MW422038   1.081   2.058   6.146  0.3816  0.5575  0.1471
 5567SOL     OW22039   6.181   5.680   3.199  0.3437 -0.3301  0.6347
 5567SOL    HW222040   6.209   5.646   3.284  1.2757 -0.4121  0.3114
 5567SOL    HW322041   6.262   5.711   3.158 -0.2565  0.8430  0.2759
 5567SOL    MW422042   6.196   5.680   3.204  0.3875 -0.1861  0.5447
 5568SOL     OW22043   4.827   2.925   0.954  0.0233  0.1307 -0.1786
 5568SOL    HW222044   4.876   2.991   0.905 -1.6331 -0.0277 -2.1846
 5568SOL    HW322045   4.818   2.963   1.042  2.6382  0.6615 -0.0644
 5568SOL    MW422046   4.832   2.939   0.959  0.1497  0.1798 -0.4282
 5569SOL     OW22047   5.538   0.114   1.397 -0.3237  0.6114 -0.4593
 5569SOL    HW222048   5.617   0.138   1.349 -0.3844  1.1926 -0.2782
 5569SOL    HW322049   5.568   0.089   1.484 -0.2731  0.1562 -0.6068
 5569SOL    MW422050   5.552   0.114   1.402 -0.3251  0.6280 -0.4549
 5570SOL     OW22051   6.339   1.799   1.155 -0.0108 -0.0160 -0.2859
 5570SOL    HW222052   6.346   1.859   1.080 -0.3367 -0.5037 -0.7128
 5570SOL    HW322053   6.330   1.857   1.231 -0.9609  0.4770 -0.7532
 5570SOL    MW422054   6.339   1.815   1.155 -0.1791 -0.0153 -0.4039
 5571SOL     OW22055   6.233   2.102   3.725  0.1512  0.5543 -0.3112
 5571SOL    HW222056   6.158   2.122   3.781 -0.9779 -1.7854 -0.8952
 5571SOL    HW322057   6.212   2.145   3.642 -1.3153 -1.2929 -0.9471
 5571SOL    MW422058   6.220   2.110   3.722 -0.1912  0.0019 -0.4721
 5572SOL     OW22059   4.329   1.779   0.817  0.4418 -0.0189  0.1305
 5572SOL    HW222060   4.418   1.787   0.785  1.8993 -1.8082  3.2611
 5572SOL    HW322061   4.336   1.790   0.912 -2.5855 -0.7895  0.5684
 5572SOL    MW422062   4.341   1.781   0.825  0.2347 -0.3566  0.6013
 5573SOL     OW22063   5.769   1.082   1.635  0.0915 -0.0280  0.1095
 5573SOL    HW222064   5.693   1.026   1.653  0.5544 -0.7645 -0.1725
 5573SOL    HW322065   5.740   1.170   1.660 -1.1279 -0.1616 -0.6881
 5573SOL    MW422066   5.755   1.086   1.640 -0.0083 -0.1428 -0.0329
 5574SOL     OW22067   3.988   3.767   4.393  0.6741  0.0200  0.1081
 5574SOL    HW222068   4.045   3.695   4.420  0.5668 -0.1956 -0.2299
 5574SOL    HW322069   3.899   3.735   4.408  0.6323  0.1919  0.2305
 5574SOL    MW422070   3.984   3.753   4.398  0.6544  0.0142  0.0797
 5575SOL     OW22071   4.985   3.919   2.177  0.7027 -0.3460  1.2270
 5575SOL    HW222072   4.949   4.003   2.206 -2.5433 -0.6178 -1.3901
 5575SOL    HW322073   5.052   3.942   2.113 -0.1707  0.3138  0.5242
 5575SOL    MW422074   4.989   3.933   2.172  0.1592 -0.2948  0.7890
 5576SOL     OW22075   0.279   1.098   5.431  0.1947  0.0247 -0.2098
 5576SOL    HW222076   0.323   1.123   5.512 -0.4552 -0.8062  0.4229
 5576SOL    HW322077   0.202   1.049   5.460  0.2725 -0.8102 -1.3386
 5576SOL    MW422078   0.274   1.095   5.445  0.1192 -0.1951 -0.2752
 5577SOL     OW22079   6.295   4.451   0.851 -0.4134  0.1970 -0.2540
 5577SOL    HW222080   6.282   4.395   0.775  0.2768 -0.1988 -0.0876
 5577SOL    HW322081   6.211   4.450   0.897  0.1590 -2.4633  0.9300
 5577SOL    MW422082   6.282   4.444   0.847 -0.2468 -0.2062 -0.0759
 5578SOL     OW22083   3.587   5.116   1.603  0.0246  0.0838  0.4323
 5578SOL    HW222084   3.675   5.127   1.638  0.9379 -1.0672 -1.3758
 5578SOL    HW322085   3.569   5.022   1.614 -1.0921  0.3405  0.9782
 5578SOL    MW422086   3.596   5.105   1.609 -0.0022 -0.0342  0.2657
 5579SOL     OW22087   1.271   4.316   5.129 -0.0717  0.1549 -0.3564
 5579SOL    HW222088   1.301   4.399   5.165 -1.4703  0.6526 -0.2710
 5579SOL    HW322089   1.270   4.256   5.203 -0.3640  0.4440 -0.1241
 5579SOL    MW422090   1.275   4.319   5.143 -0.2948  0.2587 -0.3145
 5580SOL     OW22091   5.993   5.176   3.082  0.6824 -0.1173 -0.2743
 5580SOL    HW222092   6.058   5.204   3.147  0.0802 -1.6656  1.0522
 5580SOL    HW322093   5.944   5.256   3.061  1.1585  0.4939  0.8714
 5580SOL    MW422094   5.995   5.190   3.088  0.6658 -0.2410  0.0518
 5581SOL     OW22095   5.776   5.647   1.306 -0.2649  0.0200 -0.7215
 5581SOL    HW222096   5.863   5.684   1.321 -0.7377  1.2512 -0.8798
 5581SOL    HW322097   5.750   5.612   1.391 -0.3308  1.2643 -0.2018
 5581SOL    MW422098   5.784   5.647   1.319 -0.3359  0.3466 -0.6738
 5582SOL     OW22099   3.714   5.130   6.386  0.3715  0.7252  0.4418
 5582SOL    HW222100   3.627   5.091   6.387  0.9602 -0.6467  1.3025
 5582SOL    HW322101   3.727   5.160   6.296 -0.3125 -0.6517 -0.1319
 5582SOL    MW422102   3.705   5.129   6.374  0.3589  0.3625  0.4797
 5583SOL     OW22103   1.818   5.866   2.136  0.3364  0.7005 -0.7474
 5583SOL    HW222104   1.904   5.830   2.114  0.0466  0.9780 -2.4510
 5583SOL    HW322105   1.756   5.798   2.111  0.0332  0.5757  0.3098
 5583SOL    MW422106   1.821   5.853   2.130  0.2581  0.7206 -0.8327
 5584SOL     OW22107   5.461   5.973   4.894 -0.3045 -0.2260 -0.2088
 5584SOL    HW222108   5.405   6.048   4.913  0.9723  0.7284 -0.0865
 5584SOL    HW322109   5.521   5.968   4.969 -0.0558 -1.0712 -0.4515
 5584SOL    MW422110   5.461   5.982   4.906 -0.1033 -0.2116 -0.2247
 5585SOL     OW22111   2.458   5.749   1.833  0.2053  0.6360  0.0223
 5585SOL    HW222112   2.532   5.695   1.804 -0.9209 -0.8408 -0.2020
 5585SOL    HW322113   2.381   5.705   1.798 -0.7331  3.0106 -1.1339
 5585SOL    MW422114   2.458   5.736   1.824 -0.0671  0.7545 -0.1599
 5586SOL     OW22115   1.251   3.953   3.948  0.2590  0.3290 -0.1362
 5586SOL    HW222116   1.177   3.900   3.978  0.3707  0.0843 -0.2840
 5586SOL    HW322117   1.284   3.906   3.871  1.8229 -0.6776  1.0939
 5586SOL    MW422118   1.246   3.939   3.942  0.4800  0.1639  0.0066
 5587SOL     OW22119   5.364   2.639   3.223 -0.2569 -0.0842 -0.0036
 5587SOL    HW222120   5.317   2.722   3.232  0.5080  0.4675 -0.9804
 5587SOL    HW322121   5.338   2.589   3.301 -1.8919  0.4739 -0.1412
 5587SOL    MW422122   5.354   2.643   3.234 -0.3717  0.0622 -0.1506
 5588SOL     OW22123   3.071   0.184   0.421  0.2623 -0.1761 -0.0336
 5588SOL    HW222124   2.994   0.186   0.365 -0.5102  0.4599  1.0208
 5588SOL    HW322125   3.044   0.134   0.498  0.7871  0.3462  0.4973
 5588SOL    MW422126   3.058   0.178   0.423  0.2296 -0.0233  0.1756
 5589SOL     OW22127   4.849   4.998   4.678  0.5006  0.3418 -0.4862
 5589SOL    HW222128   4.897   5.081   4.681  0.5504  0.2950  0.2242
 5589SOL    HW322129   4.760   5.023   4.651  0.1299  0.8269  1.1057
 5589SOL    MW422130   4.843   5.013   4.675  0.4582  0.3996 -0.1825
 5590SOL     OW22131   1.539   6.191   6.239  0.5876 -0.0457  0.4916
 5590SOL    HW222132   1.516   6.150   6.155  1.1446  1.2160 -0.2963
 5590SOL    HW322133   1.571   6.278   6.216  1.1556  0.1745  1.9867
 5590SOL    MW422134   1.540   6.197   6.225  0.7361  0.1498  0.5849
 5591SOL     OW22135   3.767   0.240   3.891  0.1455 -0.3014  0.3493
 5591SOL    HW222136   3.673   0.227   3.903  0.2696 -1.7484  0.0157
 5591SOL    HW322137   3.804   0.230   3.979  0.1230 -1.3665  0.2561
 5591SOL    MW422138   3.760   0.237   3.904  0.1589 -0.6329  0.2930
 5592SOL     OW22139   2.346   3.436   6.202  0.1289  0.2666  0.2149
 5592SOL    HW222140   2.345   3.408   6.110 -0.0223  2.2543 -0.4422
 5592SOL    HW322141   2.272   3.495   6.210 -0.2078 -0.3223  1.8029
 5592SOL    MW422142   2.336   3.440   6.191  0.0645  0.4512  0.3378
 5593SOL     OW22143   2.572   0.718   2.294  0.3516  0.7802  0.4282
 5593SOL    HW222144   2.491   0.752   2.257  0.8240  0.9212 -0.5154
 5593SOL    HW322145   2.559   0.623   2.300 -0.5820  0.9801  2.0942
 5593SOL    MW422146   2.560   0.710   2.290  0.2908  0.8252  0.5235
 5594SOL     OW22147   2.612   2.951   2.854  0.2602 -0.6724 -0.2790
 5594SOL    HW222148   2.553   2.982   2.785 -0.9042  0.5101  1.1881
 5594SOL    HW322149   2.611   2.856   2.845  1.5514 -0.5164 -2.9849
 5594SOL    MW422150   2.604   2.942   2.844  0.2769 -0.4958 -0.4425
 5595SOL     OW22151   3.899   6.344   2.595  0.0142 -0.3245 -0.2128
 5595SOL    HW222152   3.805   6.343   2.616  0.0169  1.0205 -0.0696
 5595SOL    HW322153   3.940   6.299   2.669 -0.6246 -2.4405 -1.0638
 5595SOL    MW422154   3.892   6.338   2.608 -0.0698 -0.4262 -0.3061
 5596SOL     OW22155   2.673   0.896   4.057 -0.1054 -0.1112  0.0147
 5596SOL    HW222156   2.600   0.882   3.997 -1.1644 -1.2400  1.4971
 5596SOL    HW322157   2.717   0.812   4.062  0.4737  0.1951  0.1923
 5596SOL    MW422158   2.669   0.883   4.050 -0.1687 -0.2197  0.2337
 5597SOL     OW22159   3.176   5.991   0.114  0.3652  0.6302 -0.3454
 5597SOL    HW222160   3.252   6.001   0.172  1.1410 -2.0278 -0.7432
 5597SOL    HW322161   3.206   5.931   0.046 -1.1775  2.0103 -2.3538
 5597SOL    MW422162   3.190   5.984   0.113  0.2640  0.4616 -0.6628
 5598SOL     OW22163   1.554   4.440   6.186 -0.1637 -0.3689  0.3351
 5598SOL    HW222164   1.509   4.358   6.206  0.6427 -0.6740  0.9435
 5598SOL    HW322165   1.498   4.508   6.224 -0.4618 -0.6964  0.4845
 5598SOL    MW422166   1.541   4.438   6.194 -0.0966 -0.4524  0.4351
 5599SOL     OW22167   5.114   4.593   2.602  0.2392  0.4372 -0.0168
 5599SOL    HW222168   5.064   4.521   2.641  1.4275  0.6889  2.1327
 5599SOL    HW322169   5.078   4.672   2.643  1.7182  0.6881  0.8860
 5599SOL    MW422170   5.102   4.594   2.613  0.5911  0.5035  0.3859
 5600SOL     OW22171   3.961   2.806   3.947 -0.0325 -0.1186  0.0694
 5600SOL    HW222172   3.883   2.805   4.003  1.1800  2.0977  1.9795
 5600SOL    HW322173   3.952   2.886   3.896 -0.7990 -1.7844 -2.6278
 5600SOL    MW422174   3.949   2.816   3.947  0.0263 -0.0460 -0.0344
 5601SOL     OW22175   2.426   2.031   6.209 -0.3421 -0.2661 -1.0532
 5601SOL    HW222176   2.354   2.093   6.198  0.1231  0.1046 -2.2178
 5601SOL    HW322177   2.501   2.086   6.233 -0.5383 -0.7058  0.6907
 5601SOL    MW422178   2.427   2.047   6.211 -0.3066 -0.2752 -0.9768
 5602SOL     OW22179   4.081   1.397   2.594 -0.0542 -0.4658  0.1962
 5602SOL    HW222180   4.054   1.414   2.684  0.5135  1.0099  0.1136
 5602SOL    HW322181   4.160   1.344   2.602 -0.3309 -0.8287  0.5493
 5602SOL    MW422182   4.088   1.393   2.607 -0.0158 -0.3190  0.2319
 5603SOL     OW22183   2.852   3.043   5.241 -0.1734  0.2022  0.5777
 5603SOL    HW222184   2.819   3.011   5.325 -0.5606 -1.5289 -0.1633
 5603SOL    HW322185   2.900   2.968   5.205  1.1274  1.3611 -0.1601
 5603SOL    MW422186   2.854   3.029   5.247 -0.0528  0.1267  0.3826
 5604SOL     OW22187   1.283   4.962   1.489  0.4392 -0.2427  0.1209
 5604SOL    HW222188   1.377   4.979   1.482  0.1092  1.1272 -2.1368
 5604SOL    HW322189   1.273   4.868   1.470  1.2080  0.0876 -2.2393
 5604SOL    MW422190   1.294   4.952   1.486  0.4971 -0.0184 -0.4883
 5605SOL     OW22191   0.901   3.245   5.334  0.4127 -0.2734  0.2994
 5605SOL    HW222192   0.850   3.278   5.259 -0.1589  0.6805  1.0733
 5605SOL    HW322193   0.891   3.313   5.401  0.8838 -1.1223  1.2590
 5605SOL    MW422194   0.893   3.259   5.333  0.3994 -0.2596  0.5281
 5606SOL     OW22195   0.070   1.954   5.653 -0.0788  0.8907 -0.2476
 5606SOL    HW222196   0.025   1.920   5.731 -0.2311  1.9175  0.1225
 5606SOL    HW322197   0.151   1.902   5.648 -0.4925  0.1999  0.0627
 5606SOL    MW422198   0.075   1.942   5.663 -0.1535  0.9350 -0.1579
 5607SOL     OW22199   0.726   5.644   0.522  0.1455 -0.2341 -0.2898
 5607SOL    HW222200   0.715   5.649   0.427 -1.5516 -1.7420 -0.2282
 5607SOL    HW322201   0.799   5.702   0.541 -0.6999  1.6195 -2.2890
 5607SOL    MW422202   0.734   5.652   0.512 -0.1899 -0.1885 -0.5455
 5608SOL     OW22203   2.646   6.376   2.575  0.2135  0.5464  0.9006
 5608SOL    HW222204   2.605   6.385   2.661 -1.6693  0.5994  0.0500
 5608SOL    HW322205   2.721   6.319   2.590  0.2470  1.0133  2.6740
 5608SOL    MW422206   2.650   6.370   2.588 -0.0305  0.6150  1.0223
 5609SOL     OW22207   1.284   0.536   6.118 -0.0550  0.3581  0.2046
 5609SOL    HW222208   1.224   0.610   6.115  2.1331  2.1784 -0.9987
 5609SOL    HW322209   1.333   0.540   6.036  1.1074 -1.6130  0.7211
 5609SOL    MW422210   1.283   0.546   6.107  0.3870  0.3382  0.1140
 5610SOL     OW22211   6.007   5.253   1.238 -0.4095 -0.4906  0.1929
 5610SOL    HW222212   5.975   5.333   1.196  2.1950  0.6670  0.2155
 5610SOL    HW322213   6.085   5.230   1.187 -0.5170 -2.4568  0.8434
 5610SOL    MW422214   6.013   5.260   1.225 -0.0801 -0.5973  0.2817
 5611SOL     OW22215   1.650   4.627   0.997  0.6206  0.4667 -1.0546
 5611SOL    HW222216   1.741   4.656   1.000  0.8829 -0.3939 -0.0921
 5611SOL    HW322217   1.608   4.673   1.069  0.9268 -1.0615  0.1672
 5611SOL    MW422218   1.657   4.637   1.007  0.6956  0.1515 -0.7664
 5612SOL     OW22219   3.769   3.039   2.990  0.1130  0.1016  0.1258
 5612SOL    HW222220   3.724   3.053   2.907  3.5491 -0.3018 -2.0373
 5612SOL    HW322221   3.762   2.944   3.005 -1.4072  0.3123  0.9505
 5612SOL    MW422222   3.762   3.028   2.981  0.3658  0.0762 -0.0508
 5613SOL     OW22223   4.333   0.328   3.057  0.7262  0.0117 -0.1344
 5613SOL    HW222224   4.402   0.359   2.998  0.3267 -0.0124 -0.6279
 5613SOL    HW322225   4.298   0.250   3.014 -0.1146  0.4522 -0.2940
 5613SOL    MW422226   4.337   0.322   3.043  0.5625  0.0667 -0.2206
 5614SOL     OW22227   3.612   2.284   5.125  0.6517 -0.0436 -0.1316
 5614SOL    HW222228   3.537   2.298   5.067  1.4351  1.3288 -0.8818
 5614SOL    HW322229   3.585   2.321   5.209  0.1376 -0.4657 -0.1043
 5614SOL    MW422230   3.599   2.291   5.128  0.6872  0.0817 -0.2270
 5615SOL     OW22231   2.991   5.331   1.208 -0.5280 -0.2832 -0.1021
 5615SOL    HW222232   2.914   5.287   1.171  0.6086 -1.0022 -1.7766
 5615SOL    HW322233   3.009   5.403   1.148  1.4757 -1.5810 -1.1986
 5615SOL    MW422234   2.983   5.334   1.195 -0.1137 -0.5493 -0.4677
 5616SOL     OW22235   4.998   5.987   1.455 -0.0054  0.1921  0.4587
 5616SOL    HW222236   4.967   6.075   1.434  2.2469  1.0162  0.2678
 5616SOL    HW322237   4.931   5.928   1.420 -2.5334  1.8130  2.2445
 5616SOL    MW422238   4.985   5.991   1.448 -0.0417  0.5147  0.6692
 5617SOL     OW22239   3.299   3.101   3.507 -0.1274 -0.3269 -0.0001
 5617SOL    HW222240   3.264   3.023   3.549 -1.6866  0.3650  0.0699
 5617SOL    HW322241   3.321   3.073   3.418 -0.8585 -0.8032 -0.0342
 5617SOL    MW422242   3.297   3.087   3.501 -0.4296 -0.2984  0.0046
 5618SOL     OW22243   5.017   3.442   0.464  0.0003  0.1877  0.4888
 5618SOL    HW222244   5.019   3.347   0.451 -2.2466  0.2047 -0.4060
 5618SOL    HW322245   5.051   3.454   0.553 -0.4679 -1.5475  0.9524
 5618SOL    MW422246   5.022   3.431   0.474 -0.3579 -0.0390  0.4319
 5619SOL     OW22247   1.268   5.422   3.509 -0.1276  0.3084 -0.1660
 5619SOL    HW222248   1.239   5.505   3.470 -0.7765  0.2629  0.2099
 5619SOL    HW322249   1.338   5.447   3.568 -0.9823  0.7328  0.7013
 5619SOL    MW422250   1.273   5.437   3.512 -0.3260  0.3584 -0.0020
 5620SOL     OW22251   0.646   4.800   2.745  0.6838  0.5545 -0.6995
 5620SOL    HW222252   0.570   4.853   2.720  1.3054  2.0302  0.4529
 5620SOL    HW322253   0.698   4.794   2.665 -0.0184  0.5737 -1.1721
 5620SOL    MW422254   0.643   4.806   2.731  0.6732  0.7518 -0.6098
 5621SOL     OW22255   3.314   3.490   0.136 -1.0796 -0.1182  0.0287
 5621SOL    HW222256   3.399   3.496   0.093 -0.6992  1.7419  0.9407
 5621SOL    HW322257   3.278   3.406   0.106  1.6581 -1.6842  0.7368
 5621SOL    MW422258   3.320   3.480   0.126 -0.6682 -0.0794  0.2425
 5622SOL     OW22259   3.898   2.068   6.248  0.3873  0.2507 -0.5580
 5622SOL    HW222260   3.815   2.058   6.201  0.3869 -0.4481 -0.4224
 5622SOL    HW322261   3.963   2.083   6.180 -0.0537  2.3125 -0.5811
 5622SOL    MW422262   3.896   2.069   6.233  0.3291  0.4306 -0.5432
 5623SOL     OW22263   1.134   4.711   3.045  0.0510  0.2590  0.4427
 5623SOL    HW222264   1.183   4.653   3.104 -1.0847  0.9622  2.1651
 5623SOL    HW322265   1.046   4.714   3.083 -1.3922 -0.9057 -2.4935
 5623SOL    MW422266   1.129   4.704   3.058 -0.2892  0.1981  0.2826
 5624SOL     OW22267   4.145   2.915   4.127  0.4304 -0.0575 -0.5000
 5624SOL    HW222268   4.107   2.994   4.164 -0.1465 -0.4713 -0.1895
 5624SOL    HW322269   4.075   2.877   4.073  1.7586  1.4559 -3.5572
 5624SOL    MW422270   4.131   2.920   4.125  0.5295  0.0876 -0.8624
 5625SOL     OW22271   4.355   0.880   0.722 -0.5405  0.4836  0.1664
 5625SOL    HW222272   4.416   0.817   0.683 -0.2332 -0.8749  2.6173
 5625SOL    HW322273   4.343   0.849   0.812 -4.2520  1.1579  0.0424
 5625SOL    MW422274   4.362   0.868   0.729 -0.9896  0.3933  0.4734
 5626SOL     OW22275   3.215   6.387   4.589  0.1283  0.4266  0.1645
 5626SOL    HW222276   3.186   6.458   4.647  2.1354  2.5066 -1.2191
 5626SOL    HW322277   3.298   6.418   4.554 -0.3180 -1.3797 -2.7466
 5626SOL    MW422278   3.222   6.401   4.592  0.3342  0.4627 -0.4021
 5627SOL     OW22279   3.036   4.456   4.941  0.4435  0.5183 -0.4154
 5627SOL    HW222280   2.985   4.376   4.949  1.2231 -0.0987 -1.2712
 5627SOL    HW322281   2.974   4.527   4.959 -0.4390 -0.2439 -0.3884
 5627SOL    MW422282   3.021   4.455   4.944  0.4299  0.3364 -0.5248
 5628SOL     OW22283   0.367   1.975   6.022  0.3560 -0.2942  0.3685
 5628SOL    HW222284   0.456   1.999   5.999 -0.7815  1.6981 -2.6025
 5628SOL    HW322285   0.325   1.955   5.939 -2.8001  2.1838  1.1234
 5628SOL    MW422286   0.373   1.976   6.008 -0.2105  0.2956  0.0761
 5629SOL     OW22287   2.195   4.349   5.721 -0.2583  0.1023  0.0575
 5629SOL    HW222288   2.170   4.262   5.690 -0.6283  0.4886 -0.7570
 5629SOL    HW322289   2.171   4.350   5.813 -0.9040 -0.4192 -0.1036
 5629SOL    MW422290   2.189   4.338   5.729 -0.3923  0.0844 -0.0712
 5630SOL     OW22291   2.232   1.767   4.232  0.4988 -0.2361 -0.2466
 5630SOL    HW222292   2.300   1.834   4.235  0.4856 -0.1938 -0.7767
 5630SOL    HW322293   2.168   1.801   4.168 -0.3063 -0.0024  0.6540
 5630SOL    MW422294   2.232   1.780   4.224  0.3908 -0.1997 -0.1977
 5631SOL     OW22295   5.187   3.983   2.884  0.0603  0.0504 -0.0302
 5631SOL    HW222296   5.095   3.990   2.859  0.1079  0.9163  0.0127
 5631SOL    HW322297   5.220   3.909   2.833 -0.1073  1.1147 -1.7420
 5631SOL    MW422298   5.179   3.974   2.874  0.0445  0.3050 -0.2504
 5632SOL     OW22299   5.062   2.151   5.526 -0.1942 -0.4160 -0.1887
 5632SOL    HW222300   5.021   2.089   5.465 -0.5160  0.9905 -1.4686
 5632SOL    HW322301   5.000   2.157   5.599 -0.1181 -1.6276  0.0016
 5632SOL    MW422302   5.048   2.143   5.528 -0.2266 -0.3903 -0.3325
 5633SOL     OW22303   5.789   4.416   4.163 -0.2253 -0.2589  0.1697
 5633SOL    HW222304   5.808   4.506   4.188  1.9723 -0.5456 -0.3076
 5633SOL    HW322305   5.846   4.363   4.218 -0.0833 -1.2415 -0.8904
 5633SOL    MW422306   5.799   4.421   4.174  0.0834 -0.4264 -0.0331
 5634SOL     OW22307   5.375   0.205   1.768 -0.0668 -0.5404 -0.0977
 5634SOL    HW222308   5.339   0.285   1.807  0.0752  0.1610 -1.3614
 5634SOL    HW322309   5.304   0.141   1.775 -0.9303  0.2932 -0.8920
 5634SOL    MW422310   5.361   0.208   1.774 -0.1620 -0.3379 -0.3692
 5635SOL     OW22311   1.082   2.968   2.392 -0.7016 -0.1081  0.4017
 5635SOL    HW222312   1.056   2.912   2.465  0.6628 -0.9074  0.3151
 5635SOL    HW322313   1.085   2.909   2.316  0.4244  0.1206  0.2382
 5635SOL    MW422314   1.079   2.953   2.391 -0.3730 -0.1834  0.3687
 5636SOL     OW22315   1.234   3.155   2.128 -0.6348  0.1665  0.6009
 5636SOL    HW222316   1.291   3.203   2.188  0.4291  0.3298 -0.4972
 5636SOL    HW322317   1.292   3.127   2.057 -1.8483 -0.0327 -0.3462
 5636SOL    MW422318   1.249   3.158   2.126 -0.6546  0.1618  0.3311
 5637SOL     OW22319   0.591   2.930   3.188  0.1415 -0.5524 -0.1493
 5637SOL    HW222320   0.543   3.010   3.205  1.7221  0.3775  0.0709
 5637SOL    HW322321   0.571   2.909   3.096  0.2243  0.4472 -0.4008
 5637SOL    MW422322   0.582   2.938   3.178  0.3610 -0.2979 -0.1534
 5638SOL     OW22323   1.940   4.991   5.179  0.0441  0.5945  0.5775
 5638SOL    HW222324   2.022   4.952   5.211 -0.1784 -0.3460  0.0469
 5638SOL    HW322325   1.879   4.917   5.175 -0.0242  0.7129 -1.6997
 5638SOL    MW422326   1.943   4.976   5.182  0.0058  0.4860  0.2071
 5639SOL     OW22327   5.828   1.205   2.737  0.3363  0.1315  0.3000
 5639SOL    HW222328   5.811   1.121   2.694  0.3349  0.4094 -0.2644
 5639SOL    HW322329   5.866   1.259   2.668  0.9578  0.3840  0.8354
 5639SOL    MW422330   5.830   1.201   2.722  0.4181  0.2015  0.2962
 5640SOL     OW22331   0.354   4.113   3.101  0.1203  0.2485 -0.6173
 5640SOL    HW222332   0.384   4.186   3.047 -0.5600  2.3178  1.6189
 5640SOL    HW322333   0.434   4.065   3.123  0.7211  0.8733 -1.3634
 5640SOL    MW422334   0.368   4.116   3.097  0.1098  0.6039 -0.4207
 5641SOL     OW22335   4.408   1.823   4.039 -0.4396  0.2510 -0.2519
 5641SOL    HW222336   4.414   1.824   4.134  0.5190 -0.6111 -0.2873
 5641SOL    HW322337   4.320   1.788   4.022  0.1119 -1.5353  0.3368
 5641SOL    MW422338   4.397   1.818   4.049 -0.2403 -0.0985 -0.1789
 5642SOL     OW22339   4.008   2.383   6.251  0.6868  0.3390 -0.0771
 5642SOL    HW222340   4.069   2.455   6.266 -0.3244  1.0241  0.9899
 5642SOL    HW322341   4.035   2.345   6.167  2.4780  0.6748  0.3100
 5642SOL    MW422342   4.019   2.388   6.242  0.7897  0.4737  0.1147
 5643SOL     OW22343   6.390   6.237   5.895  0.0864  0.2024 -0.1004
 5643SOL    HW222344   6.312   6.215   5.946 -0.0437 -2.1260 -1.1657
 5643SOL    HW322345   6.379   6.190   5.813  0.6255  3.2803 -2.0835
 5643SOL    MW422346   6.379   6.228   5.891  0.1403  0.3013 -0.5026
 5644SOL     OW22347   2.877   4.980   4.131  0.1574  0.8412 -0.1879
 5644SOL    HW222348   2.817   5.023   4.069 -1.4618 -0.3365  0.4628
 5644SOL    HW322349   2.860   4.886   4.117 -0.0393  0.5443  1.8144
 5644SOL    MW422350   2.867   4.973   4.121 -0.0822  0.6466  0.1622
 5645SOL     OW22351   3.434   0.111   4.484 -0.1294  0.1698  0.2260
 5645SOL    HW222352   3.416   0.094   4.392 -3.9193  2.2974  0.3556
 5645SOL    HW322353   3.437   0.206   4.491 -0.0704  0.0695  2.3393
 5645SOL    MW422354   3.432   0.121   4.473 -0.6216  0.4373  0.5219
 5646SOL     OW22355   0.353   1.617   4.181 -0.1682 -0.7434  0.5946
 5646SOL    HW222356   0.352   1.525   4.154 -0.7637 -0.4928 -0.2656
 5646SOL    HW322357   0.282   1.624   4.245 -1.0256 -0.5952 -0.3543
 5646SOL    MW422358   0.344   1.606   4.186 -0.3599 -0.6908  0.3559
 5647SOL     OW22359   1.688   4.975   4.155 -0.2461  0.3514  0.0946
 5647SOL    HW222360   1.657   5.064   4.141 -0.0980  0.6548  1.5276
 5647SOL    HW322361   1.783   4.981   4.153 -0.2139  0.4125  1.0806
 5647SOL    MW422362   1.696   4.987   4.153 -0.2223  0.3995  0.4138
 5648SOL     OW22363   3.268   1.652   0.995  0.3667 -0.4154 -0.1115
 5648SOL    HW222364   3.299   1.592   0.927  1.0921  0.4096 -0.5378
 5648SOL    HW322365   3.237   1.729   0.947  0.0039 -0.2105  0.4422
 5648SOL    MW422366   3.268   1.654   0.980  0.4145 -0.2795 -0.0947
 5649SOL     OW22367   1.965   5.698   1.055 -0.7092 -0.6283 -0.2917
 5649SOL    HW222368   1.889   5.646   1.081 -0.5919 -1.1120 -0.8939
 5649SOL    HW322369   1.944   5.731   0.968 -0.4152 -0.3943 -0.2756
 5649SOL    MW422370   1.952   5.695   1.047 -0.6550 -0.6613 -0.3690
 5650SOL     OW22371   5.336   2.751   3.534  0.4174  0.2289  0.2208
 5650SOL    HW222372   5.328   2.789   3.446 -1.3454 -0.2753  0.1161
 5650SOL    HW322373   5.427   2.721   3.539  0.6052  0.4061 -1.3797
 5650SOL    MW422374   5.347   2.752   3.523  0.2096  0.1857 -0.0042
 5651SOL     OW22375   4.500   5.745   0.822  0.3354 -0.3962  0.0806
 5651SOL    HW222376   4.508   5.728   0.916 -0.4950 -0.4998  0.1332
 5651SOL    HW322377   4.531   5.664   0.780  1.2100 -0.1624  0.2411
 5651SOL    MW422378   4.505   5.732   0.829  0.3412 -0.3790  0.1087
 5652SOL     OW22379   4.000   1.182   0.185  0.2906 -0.8463 -0.3372
 5652SOL    HW222380   4.064   1.245   0.154  2.6412 -1.5722  2.5246
 5652SOL    HW322381   4.051   1.103   0.205 -1.4289 -1.4936  2.0246
 5652SOL    MW422382   4.015   1.180   0.184  0.3738 -1.0275  0.3520
 5653SOL     OW22383   3.811   3.747   6.343 -0.1165 -0.1703 -0.5375
 5653SOL    HW222384   3.742   3.805   6.375  1.4436  1.6980 -0.3804
 5653SOL    HW322385   3.769   3.697   6.272 -2.5394 -1.6108  1.6986
 5653SOL    MW422386   3.796   3.748   6.338 -0.2304 -0.1139 -0.2217
 5654SOL     OW22387   5.048   6.179   0.617  0.5282 -0.1526 -0.0925
 5654SOL    HW222388   5.061   6.174   0.712  1.3380  0.3961 -0.1692
 5654SOL    HW322389   5.131   6.210   0.582  0.3030 -0.5407 -1.0124
 5654SOL    MW422390   5.060   6.183   0.625  0.6054 -0.1314 -0.2240
 5655SOL     OW22391   4.601   4.122   4.975 -0.3566 -0.4254 -0.4249
 5655SOL    HW222392   4.630   4.188   5.038 -1.6235  0.0272 -0.2800
 5655SOL    HW322393   4.599   4.168   4.891 -1.6695 -0.1048 -0.2526
 5655SOL    MW422394   4.604   4.137   4.972 -0.6970 -0.3234 -0.3831
 5656SOL     OW22395   1.797   4.695   0.115 -0.1810  0.5042 -0.2199
 5656SOL    HW222396   1.892   4.691   0.128 -0.2082  1.5511  0.4043
 5656SOL    HW322397   1.761   4.658   0.196 -0.3154  0.5767 -0.2470
 5656SOL    MW422398   1.805   4.690   0.128 -0.2023  0.6519 -0.1411
 5657SOL     OW22399   0.148   0.065   6.023  0.1883 -0.6759 -0.1798
 5657SOL    HW222400   0.182   0.141   5.976  1.4950 -1.1439 -0.0443
 5657SOL    HW322401   0.099   0.015   5.957 -0.0769 -0.0882 -0.4325
 5657SOL    MW422402   0.146   0.068   6.008  0.3257 -0.6601 -0.1952
 5658SOL     OW22403   2.952   3.992   2.916  0.5395 -0.3941  0.0260
 5658SOL    HW222404   2.892   4.020   2.847  1.5929  0.5028 -0.5473
 5658SOL    HW322405   3.038   3.991   2.875  0.8878 -2.1536  0.6901
 5658SOL    MW422406   2.956   3.995   2.902  0.7245 -0.5079  0.0380
 5659SOL     OW22407   3.377   0.410   4.766 -0.6213  0.1730 -0.3639
 5659SOL    HW222408   3.325   0.383   4.690 -1.0340 -0.0443 -0.0045
 5659SOL    HW322409   3.420   0.490   4.737  1.2509 -1.2405 -1.7232
 5659SOL    MW422410   3.375   0.417   4.752 -0.4287 -0.0421 -0.4958
 5660SOL     OW22411   2.505   6.273   4.667 -0.3698  0.1837 -0.0373
 5660SOL    HW222412   2.516   6.185   4.630 -1.8653 -0.1072  0.1649
 5660SOL    HW322413   2.506   6.331   4.591 -1.3968 -0.2091 -0.3600
 5660SOL    MW422414   2.507   6.269   4.652 -0.7026  0.0935 -0.0532
 5661SOL     OW22415   0.156   4.531   4.941  0.5399  0.2908  0.2547
 5661SOL    HW222416   0.188   4.450   4.901 -0.2565 -0.0346  0.2649
 5661SOL    HW322417   0.162   4.595   4.871  0.4172  0.0382  0.0111
 5661SOL    MW422418   0.161   4.529   4.926  0.4186  0.2145  0.2239
 5662SOL     OW22419   0.913   4.788   4.105  0.1615  0.0646  0.0187
 5662SOL    HW222420   0.976   4.858   4.088 -0.7546  1.3454  1.6332
 5662SOL    HW322421   0.966   4.715   4.135  0.9517  0.9117  0.7414
 5662SOL    MW422422   0.928   4.788   4.107  0.1449  0.3453  0.3271
 5663SOL     OW22423   1.853   5.239   4.366 -0.3843 -0.0108  0.1255
 5663SOL    HW222424   1.929   5.238   4.308 -0.1139  0.2947  0.4768
 5663SOL    HW322425   1.807   5.320   4.344 -0.3907  0.0063  0.2051
 5663SOL    MW422426   1.857   5.249   4.355 -0.3495  0.0318  0.1823
 5664SOL     OW22427   1.465   3.463   3.115  0.1084 -0.4208  0.4812
 5664SOL    HW222428   1.559   3.479   3.127  0.0123 -0.0156  0.7292
 5664SOL    HW322429   1.440   3.408   3.189 -0.1509  0.7317  1.2909
 5664SOL    MW422430   1.474   3.458   3.126  0.0615 -0.2153  0.6207
 5665SOL     OW22431   5.797   6.147   5.175  0.1525 -0.3726 -0.1153
 5665SOL    HW222432   5.842   6.088   5.236 -0.7615  0.1582  1.1240
 5665SOL    HW322433   5.732   6.192   5.229 -0.3657  0.4822 -1.4005
 5665SOL    MW422434   5.794   6.145   5.190 -0.0364 -0.1898 -0.1213
 5666SOL     OW22435   6.175   2.317   2.101 -0.2818  0.2156  0.0935
 5666SOL    HW222436   6.125   2.292   2.178  0.3227 -0.5582  0.2510
 5666SOL    HW322437   6.157   2.248   2.037 -1.6850  1.4326 -0.8922
 5666SOL    MW422438   6.166   2.305   2.103 -0.3872  0.2741 -0.0158
 5667SOL     OW22439   0.004   0.291   2.573  0.1706  0.0199 -0.0989
 5667SOL    HW222440  -0.006   0.381   2.603  0.7079  0.2520 -0.6040
 5667SOL    HW322441  -0.024   0.293   2.482 -2.1079 -0.8156  0.5160
 5667SOL    MW422442  -0.001   0.303   2.565 -0.0591 -0.0597 -0.0844
 5668SOL     OW22443   3.872   4.998   0.435 -0.2140  0.4656 -0.4270
 5668SOL    HW222444   3.873   4.998   0.530 -1.2911 -2.1718 -0.3287
 5668SOL    HW322445   3.780   5.014   0.412  0.4481  3.9105 -1.1991
 5668SOL    MW422446   3.860   5.000   0.444 -0.2688  0.5721 -0.5159
 5669SOL     OW22447   0.847   3.970   1.881 -0.2826  0.1408 -1.1333
 5669SOL    HW222448   0.919   4.000   1.826  0.8863  0.9722  0.7558
 5669SOL    HW322449   0.788   4.044   1.887 -0.4594  0.0174 -1.3432
 5669SOL    MW422450   0.849   3.984   1.875 -0.1517  0.2342 -0.9117
 5670SOL     OW22451   1.138   5.511   6.345 -0.1820 -0.2854 -0.3930
 5670SOL    HW222452   1.227   5.544   6.350 -0.6159  0.8387  0.5282
 5670SOL    HW322453   1.116   5.513   6.252  0.7516 -0.6000 -0.6273
 5670SOL    MW422454   1.147   5.515   6.333 -0.1160 -0.1786 -0.3024
 5671SOL     OW22455   5.778   5.464   5.622 -0.0110  0.0533 -0.2263
 5671SOL    HW222456   5.715   5.394   5.640 -0.0756 -0.2699 -1.6218
 5671SOL    HW322457   5.771   5.522   5.698 -2.4212  0.3667 -0.6158
 5671SOL    MW422458   5.769   5.462   5.634 -0.3375  0.0520 -0.4618
 5672SOL     OW22459   3.521   0.442   1.845 -0.0878  0.2921  0.2029
 5672SOL    HW222460   3.516   0.536   1.865 -1.9839 -0.2730  3.0322
 5672SOL    HW322461   3.567   0.405   1.921 -1.1615 -1.2593  0.1317
 5672SOL    MW422462   3.527   0.450   1.858 -0.4796  0.0128  0.5668
 5673SOL     OW22463   2.227   3.182   2.904 -0.1322  0.1187 -0.1766
 5673SOL    HW222464   2.289   3.112   2.885  0.8179  1.0674 -0.6825
 5673SOL    HW322465   2.164   3.179   2.831 -0.6603 -0.7931  0.2958
 5673SOL    MW422466   2.226   3.172   2.892 -0.0765  0.1236 -0.1810
 5674SOL     OW22467   3.669   2.402   0.849 -0.0825 -0.0904 -0.1791
 5674SOL    HW222468   3.762   2.424   0.847 -0.2601  0.6435 -0.7602
 5674SOL    HW322469   3.646   2.403   0.942  0.5469 -0.5723 -0.0056
 5674SOL    MW422470   3.678   2.405   0.861 -0.0229 -0.0572 -0.2329
 5675SOL     OW22471   4.059   5.568   1.033 -0.3405 -0.6393 -0.3723
 5675SOL    HW222472   4.006   5.590   1.109 -0.5998 -0.6760 -0.5407
 5675SOL    HW322473   4.009   5.600   0.958  1.7186  3.1498 -0.3809
 5675SOL    MW422474   4.046   5.575   1.033 -0.1030 -0.1442 -0.3956
 5676SOL     OW22475   0.095   2.551   4.536  0.4811  0.0358  0.4925
 5676SOL    HW222476   0.066   2.638   4.509 -0.1306  0.1713  1.5237
 5676SOL    HW322477   0.055   2.539   4.622  0.6614 -1.2149  0.4104
 5676SOL    MW422478   0.086   2.561   4.544  0.4242 -0.1113  0.6177
 5677SOL     OW22479   1.096   4.063   3.137 -0.5710  0.4286  0.4287
 5677SOL    HW222480   1.169   4.056   3.076 -0.9003  2.0312 -0.1998
 5677SOL    HW322481   1.120   4.136   3.195 -0.7845 -0.3192  1.4979
 5677SOL    MW422482   1.109   4.072   3.137 -0.6426  0.5414  0.4868
 5678SOL     OW22483   5.810   6.361   0.563  0.2300 -0.0101 -0.1709
 5678SOL    HW222484   5.886   6.311   0.534  1.2409  0.1819  1.9175
 5678SOL    HW322485   5.778   6.313   0.640  0.0317  1.4460  0.6992
 5678SOL    MW422486   5.816   6.348   0.570  0.3372  0.2074  0.2194
 5679SOL     OW22487   2.473   2.199   4.900 -0.3137  0.1689 -0.2006
 5679SOL    HW222488   2.445   2.114   4.867 -0.3296  0.2149 -0.3053
 5679SOL    HW322489   2.568   2.189   4.914 -0.3012  0.1604 -0.2923
 5679SOL    MW422490   2.482   2.186   4.898 -0.3142  0.1739 -0.2265
 5680SOL     OW22491   3.174   4.743   0.852  0.3960 -0.0426 -0.4251
 5680SOL    HW222492   3.196   4.831   0.883  0.0455  0.1116 -0.6130
 5680SOL    HW322493   3.081   4.733   0.871  0.2736 -0.1087 -1.0308
 5680SOL    MW422494   3.165   4.753   0.859  0.3336 -0.0310 -0.5298
 5681SOL     OW22495   4.972   3.564   4.964 -0.2673 -0.1825  0.2012
 5681SOL    HW222496   4.927   3.503   5.023 -0.1974 -0.6437 -0.2141
 5681SOL    HW322497   5.039   3.605   5.018  2.2277 -3.1587 -0.2929
 5681SOL    MW422498   4.975   3.561   4.979  0.0711 -0.6360  0.0812
 5682SOL     OW22499   2.609   4.897   5.619  0.0835 -0.2545 -0.4467
 5682SOL    HW222500   2.693   4.915   5.576  0.0892 -1.9250 -1.2024
 5682SOL    HW322501   2.604   4.802   5.624 -1.8749 -0.2012 -0.6286
 5682SOL    MW422502   2.620   4.887   5.614 -0.1741 -0.4678 -0.5704
 5683SOL     OW22503   6.169   6.198   4.946 -0.1051 -0.0216 -0.9975
 5683SOL    HW222504   6.215   6.251   5.012  0.9937 -0.6576 -1.2360
 5683SOL    HW322505   6.221   6.118   4.939 -1.0128 -0.5714 -1.6079
 5683SOL    MW422506   6.182   6.195   4.954 -0.0799 -0.1780 -1.1095
 5684SOL     OW22507   2.792   4.455   3.166 -0.0180 -0.8441 -0.1064
 5684SOL    HW222508   2.806   4.450   3.261 -1.7061 -1.4820  0.1427
 5684SOL    HW322509   2.850   4.388   3.130 -0.3785 -1.5591  0.6121
 5684SOL    MW422510   2.802   4.445   3.174 -0.2883 -1.0226  0.0213
 5685SOL     OW22511   2.281   3.249   1.720  0.1879 -0.5908 -0.3570
 5685SOL    HW222512   2.360   3.299   1.740 -1.1576  1.0794  1.0605
 5685SOL    HW322513   2.254   3.280   1.633 -0.4562  0.9768  0.3780
 5685SOL    MW422514   2.288   3.259   1.711 -0.0746 -0.1636 -0.0730
 5686SOL     OW22515   4.498   6.070   4.213 -0.3954 -0.3499  0.5696
 5686SOL    HW222516   4.556   5.999   4.240  2.0183  1.0295 -0.6717
 5686SOL    HW322517   4.542   6.150   4.240 -2.4907  0.7771  0.9159
 5686SOL    MW422518   4.511   6.071   4.220 -0.3534 -0.0192  0.4515
 5687SOL     OW22519   4.730   3.896   6.242 -0.2207 -0.1328 -0.1628
 5687SOL    HW222520   4.695   3.985   6.245 -1.4223 -0.6013  0.2532
 5687SOL    HW322521   4.696   3.859   6.161  0.8236 -0.0190 -0.6744
 5687SOL    MW422522   4.721   3.903   6.232 -0.2414 -0.1796 -0.1754
 5688SOL     OW22523   0.155   1.360   1.189 -0.1687  0.3840 -0.0718
 5688SOL    HW222524   0.095   1.314   1.248 -2.2784  2.1642 -0.7244
 5688SOL    HW322525   0.144   1.452   1.210  1.3696  0.8589 -1.1738
 5688SOL    MW422526   0.146   1.366   1.200 -0.2441  0.6816 -0.3033
 5689SOL     OW22527   0.947   2.148   4.655  0.3470 -0.0238 -1.2056
 5689SOL    HW222528   0.927   2.172   4.564 -0.1521  2.6467 -0.4731
 5689SOL    HW322529   0.918   2.223   4.707 -0.4266 -1.9252  1.3129
 5689SOL    MW422530   0.940   2.161   4.650  0.1791  0.0776 -0.7767
 5690SOL     OW22531   3.520   0.589   2.201 -0.3177  0.1066  0.1259
 5690SOL    HW222532   3.553   0.520   2.144  0.5124  0.1628  0.5112
 5690SOL    HW322533   3.573   0.666   2.179  0.4943 -0.0411  1.4024
 5690SOL    MW422534   3.531   0.590   2.191 -0.1010  0.0945  0.3451
 5691SOL     OW22535   5.423   5.640   4.510  0.1144 -0.5157 -0.3325
 5691SOL    HW222536   5.400   5.565   4.564 -2.0988  1.7861  2.2278
 5691SOL    HW322537   5.468   5.700   4.570  0.2882  0.9038 -1.8114
 5691SOL    MW422538   5.426   5.638   4.525 -0.1547 -0.0247 -0.1898
 5692SOL     OW22539   0.501   5.501   3.240  0.2518  0.1805 -0.5100
 5692SOL    HW222540   0.416   5.460   3.259 -0.6421  2.2458  0.1784
 5692SOL    HW322541   0.482   5.561   3.167  1.6001 -0.7583 -1.6941
 5692SOL    MW422542   0.487   5.503   3.233  0.3118  0.3291 -0.5754
 5693SOL     OW22543   0.856   3.667   0.321 -0.0469 -0.1807 -0.0075
 5693SOL    HW222544   0.810   3.735   0.272 -3.5152 -3.2896 -1.5850
 5693SOL    HW322545   0.940   3.658   0.276  0.8540  3.3132  0.6848
 5693SOL    MW422546   0.861   3.675   0.309 -0.3856 -0.1299 -0.1243
 5694SOL     OW22547   5.514   0.350   3.517  0.0263 -0.1645 -0.2580
 5694SOL    HW222548   5.555   0.315   3.596 -1.0213  0.4047  0.5737
 5694SOL    HW322549   5.420   0.348   3.536 -0.1764  1.1185 -1.0029
 5694SOL    MW422550   5.507   0.345   3.530 -0.1387  0.0798 -0.2466
 5695SOL     OW22551   1.484   0.756   4.047 -0.2150  0.8797  0.6646
 5695SOL    HW222552   1.507   0.758   4.139  0.8763  0.9786  0.3988
 5695SOL    HW322553   1.410   0.816   4.039 -1.1954 -0.1458  1.6974
 5695SOL    MW422554   1.477   0.764   4.058 -0.2004  0.7575  0.7658
 5696SOL     OW22555   2.609   1.271   5.295 -0.0015  0.3688 -0.2331
 5696SOL    HW222556   2.686   1.262   5.351  0.8180  0.5766 -1.2899
 5696SOL    HW322557   2.535   1.261   5.354  0.8362 -0.6529  0.6799
 5696SOL    MW422558   2.609   1.268   5.310  0.2172  0.2614 -0.2520
 5697SOL     OW22559   5.292   2.781   2.268 -0.3740 -0.1813  0.5686
 5697SOL    HW222560   5.359   2.723   2.304 -0.3091 -0.5064 -0.0486
 5697SOL    HW322561   5.209   2.735   2.286 -0.2960 -0.6763 -0.2693
 5697SOL    MW422562   5.290   2.767   2.275 -0.3551 -0.2895  0.3766
 5698SOL     OW22563   5.183   1.757   1.728 -0.4318 -0.0468 -0.2845
 5698SOL    HW222564   5.192   1.769   1.822 -0.1635  0.3100 -0.3511
 5698SOL    HW322565   5.091   1.774   1.709 -0.8674 -1.7579  0.1385
 5698SOL    MW422566   5.172   1.761   1.738 -0.4539 -0.2255 -0.2375
 5699SOL     OW22567   0.207   1.020   4.701  0.4710  0.0943 -0.3355
 5699SOL    HW222568   0.158   0.997   4.780  0.7901 -1.3595 -0.5301
 5699SOL    HW322569   0.265   1.091   4.727 -0.8024  0.9625  0.2282
 5699SOL    MW422570   0.208   1.026   4.715  0.3451  0.0171 -0.2868
 5700SOL     OW22571   1.179   1.353   4.831  0.5110  0.1286  0.0113
 5700SOL    HW222572   1.141   1.276   4.873 -2.7865  1.6873  0.1504
 5700SOL    HW322573   1.130   1.363   4.750 -0.5430  3.0914  0.8812
 5700SOL    MW422574   1.168   1.344   4.826 -0.0632  0.7252  0.1444
 5701SOL     OW22575   1.890   1.121   3.906 -0.4212  0.1969 -0.1519
 5701SOL    HW222576   1.885   1.201   3.957  1.2507 -0.4597  1.1437
 5701SOL    HW322577   1.966   1.075   3.941 -0.4987 -1.3069 -1.8082
 5701SOL    MW422578   1.900   1.125   3.917 -0.2108 -0.0882 -0.1994
 5702SOL     OW22579   5.414   3.713   2.408 -0.9531 -0.0308  0.0005
 5702SOL    HW222580   5.504   3.747   2.414 -0.0863 -2.3938  2.5535
 5702SOL    HW322581   5.360   3.783   2.446  0.4524 -0.2349  2.6627
 5702SOL    MW422582   5.419   3.727   2.414 -0.6533 -0.3695  0.6886
 5703SOL     OW22583   4.570   4.181   3.813  0.5824 -0.1383 -0.2572
 5703SOL    HW222584   4.525   4.182   3.898  1.2362  0.8230  0.0874
 5703SOL    HW322585   4.645   4.123   3.826  1.0895  0.5876  0.0319
 5703SOL    MW422586   4.574   4.173   3.826  0.7356  0.0843 -0.1736
 5704SOL     OW22587   0.574   3.818   0.589  0.3837 -0.1132  0.0820
 5704SOL    HW222588   0.571   3.762   0.666  0.3245 -1.1708 -0.6596
 5704SOL    HW322589   0.624   3.895   0.616  0.1079 -0.3303  1.2459
 5704SOL    MW422590   0.580   3.821   0.603  0.3395 -0.2814  0.1378
 5705SOL     OW22591   2.905   2.955   1.764 -0.3510 -0.1161  0.2873
 5705SOL    HW222592   2.961   2.891   1.808  0.4328  0.6437  0.4252
 5705SOL    HW322593   2.822   2.951   1.811  0.3356  0.3927  1.6150
 5705SOL    MW422594   2.901   2.946   1.776 -0.1570  0.0513  0.4806
 5706SOL     OW22595   3.846   4.957   0.718 -0.1547  0.0172 -0.5956
 5706SOL    HW222596   3.789   5.013   0.771  1.0714 -0.1990  1.0565
 5706SOL    HW322597   3.933   4.997   0.728  0.5462 -1.5337 -0.2856
 5706SOL    MW422598   3.850   4.970   0.726  0.0995 -0.2160 -0.3368
 5707SOL     OW22599   3.545   2.653   4.425  0.3189 -0.3741 -0.2998
 5707SOL    HW222600   3.570   2.639   4.334 -0.0550 -3.0008 -0.0547
 5707SOL    HW322601   3.452   2.676   4.422  0.1985 -0.8929 -0.5666
 5707SOL    MW422602   3.536   2.655   4.413  0.2537 -0.7891 -0.3027
 5708SOL     OW22603   5.665   0.386   3.962 -0.0310  0.4724 -0.1375
 5708SOL    HW222604   5.741   0.443   3.948  0.2070  0.0273 -0.7749
 5708SOL    HW322605   5.681   0.345   4.047 -0.4109  1.6498  0.5116
 5708SOL    MW422606   5.677   0.388   3.971 -0.0498  0.5690 -0.1360
 5709SOL     OW22607   1.483   1.367   3.353  0.0909  0.1958 -0.4391
 5709SOL    HW222608   1.579   1.364   3.355  0.0614 -0.9550  0.6826
 5709SOL    HW322609   1.459   1.292   3.298 -0.1681  0.1982 -0.3280
 5709SOL    MW422610   1.493   1.357   3.346  0.0528  0.0443 -0.2765
 5710SOL     OW22611   3.985   6.297   5.922  0.3213  0.7962  0.5782
 5710SOL    HW222612   3.984   6.339   6.009 -0.6346  3.9142 -0.7620
 5710SOL    HW322613   4.077   6.294   5.898  0.6345 -0.4294  1.7796
 5710SOL    MW422614   3.997   6.302   5.931  0.2365  1.0459  0.5599
 5711SOL     OW22615   0.295   4.024   5.548  0.4828  0.0760  0.5800
 5711SOL    HW222616   0.387   4.042   5.569  0.7492 -1.3601  0.7297
 5711SOL    HW322617   0.276   3.942   5.594 -0.7853  0.1986  0.2907
 5711SOL    MW422618   0.305   4.015   5.557  0.3507 -0.0973  0.5616
 5712SOL     OW22619   1.085   4.843   2.238  0.3610  0.0568 -0.1051
 5712SOL    HW222620   1.037   4.896   2.302 -1.9840 -1.6968 -0.2748
 5712SOL    HW322621   1.089   4.898   2.160 -3.2907 -0.3344 -0.7546
 5712SOL    MW422622   1.079   4.857   2.237 -0.4302 -0.2262 -0.2132
 5713SOL     OW22623   5.155   1.676   1.241 -0.5063  0.4636 -0.5440
 5713SOL    HW222624   5.101   1.614   1.290 -0.8966  1.8732  0.8784
 5713SOL    HW322625   5.155   1.642   1.152 -2.6864 -0.2668 -0.3243
 5713SOL    MW422626   5.148   1.663   1.236 -0.8455  0.5532 -0.3274
 5714SOL     OW22627   0.220   0.808   3.199  0.1128  0.0808 -0.9121
 5714SOL    HW222628   0.278   0.870   3.241  1.9949 -1.0384 -1.7308
 5714SOL    HW322629   0.216   0.734   3.260 -0.9588  0.3848 -0.5930
 5714SOL    MW422630   0.227   0.806   3.212  0.2198 -0.0267 -0.9780
 5715SOL     OW22631   3.244   2.724   5.398  0.6908  0.1017 -0.4265
 5715SOL    HW222632   3.336   2.719   5.423  0.5605  1.5173  0.4473
 5715SOL    HW322633   3.213   2.808   5.434 -0.3209  0.8144 -2.7546
 5715SOL    MW422634   3.252   2.734   5.406  0.5402  0.3825 -0.6184
 5716SOL     OW22635   2.737   0.887   4.545 -0.7032  0.1129 -0.1435
 5716SOL    HW222636   2.770   0.904   4.457  0.2337 -1.9671 -0.2658
 5716SOL    HW322637   2.790   0.943   4.602  0.6109 -0.5384 -0.6848
 5716SOL    MW422638   2.749   0.897   4.541 -0.4062 -0.2474 -0.2311
 5717SOL     OW22639   5.994   0.737   3.053  0.4114 -0.8673 -0.2806
 5717SOL    HW222640   6.022   0.807   3.112  0.4046 -1.1227  0.0277
 5717SOL    HW322641   5.914   0.703   3.093  0.9241 -1.6827  0.0888
 5717SOL    MW422642   5.987   0.742   3.066  0.4781 -1.0086 -0.1912
 5718SOL     OW22643   3.920   0.430   3.760 -0.2802  0.1152 -0.4628
 5718SOL    HW222644   3.892   0.509   3.807 -1.0240 -0.3218 -0.1670
 5718SOL    HW322645   3.884   0.357   3.811  0.1556 -0.4148 -0.8945
 5718SOL    MW422646   3.912   0.431   3.773 -0.3208 -0.0124 -0.4808
 5719SOL     OW22647   0.096   5.829   2.407  0.0971 -0.0581  0.2177
 5719SOL    HW222648   0.123   5.908   2.453  0.9860 -0.4811  0.4384
 5719SOL    HW322649   0.025   5.858   2.350  0.0118  0.7765  0.7309
 5719SOL    MW422650   0.090   5.843   2.405  0.2031 -0.0038  0.3145
 5720SOL     OW22651   5.334   0.904   3.757  0.3663 -0.1828  0.0337
 5720SOL    HW222652   5.280   0.915   3.835 -3.3774 -0.8547 -2.1802
 5720SOL    HW322653   5.316   0.983   3.705 -1.1978 -1.8255 -2.1240
 5720SOL    MW422654   5.324   0.916   3.760 -0.3340 -0.4882 -0.5431
 5721SOL     OW22655   3.632   6.286   2.095 -0.6841 -0.4398  0.0250
 5721SOL    HW222656   3.577   6.207   2.095  0.6547 -1.4224 -1.4058
 5721SOL    HW322657   3.707   6.263   2.040  0.3139  1.4551  0.5254
 5721SOL    MW422658   3.634   6.272   2.088 -0.3758 -0.3194 -0.0977
 5722SOL     OW22659   3.510   2.172   0.742 -0.1377 -0.2435  0.5219
 5722SOL    HW222660   3.498   2.108   0.813  0.0674 -1.0200 -0.1319
 5722SOL    HW322661   3.573   2.235   0.777  1.0991 -1.4310  0.5257
 5722SOL    MW422662   3.517   2.172   0.756  0.0525 -0.5026  0.4361
 5723SOL     OW22663   1.775   5.212   4.639 -0.2588 -0.0303  0.1732
 5723SOL    HW222664   1.803   5.206   4.547 -0.8103 -1.3873  0.0746
 5723SOL    HW322665   1.679   5.219   4.634 -0.3171 -0.4569  0.6587
 5723SOL    MW422666   1.766   5.212   4.626 -0.3393 -0.2656  0.2243
 5724SOL     OW22667   0.554   5.341   0.790  0.0911 -0.4683 -0.0734
 5724SOL    HW222668   0.539   5.435   0.788 -2.8784 -0.8331 -1.4258
 5724SOL    HW322669   0.521   5.312   0.875  0.6988 -0.3183  0.2113
 5724SOL    MW422670   0.548   5.349   0.801 -0.2205 -0.4966 -0.2143
 5725SOL     OW22671   1.149   2.776   2.961 -0.1920  0.1446 -0.3059
 5725SOL    HW222672   1.172   2.842   2.895 -1.3595  2.2778  1.3066
 5725SOL    HW322673   1.174   2.815   3.044  1.1686 -2.4574  0.6007
 5725SOL    MW422674   1.155   2.790   2.963 -0.1666  0.0827  0.0265
 5726SOL     OW22675   0.083   0.885   5.894  0.7104  0.8260 -0.0822
 5726SOL    HW222676   0.153   0.870   5.831 -0.1580  0.3191 -0.9604
 5726SOL    HW322677   0.037   0.963   5.862 -0.2283  0.1003 -0.5718
 5726SOL    MW422678   0.086   0.893   5.882  0.4720  0.6634 -0.2627
 5727SOL     OW22679   3.437   5.187   5.827 -0.4090  0.3210 -0.4986
 5727SOL    HW222680   3.521   5.220   5.858 -0.4068  0.2936 -0.4757
 5727SOL    HW322681   3.391   5.265   5.795  0.2064  0.1537 -1.8584
 5727SOL    MW422682   3.442   5.201   5.827 -0.3275  0.2953 -0.6750
 5728SOL     OW22683   0.240   5.981   1.089  0.0818 -0.5759  0.1241
 5728SOL    HW222684   0.237   5.901   1.038  2.6371 -1.3594  1.0742
 5728SOL    HW322685   0.321   6.025   1.062 -0.6810  1.1329  0.4538
 5728SOL    MW422686   0.250   5.977   1.079  0.3183 -0.4538  0.2929
 5729SOL     OW22687   3.866   5.449   3.965  0.3212  0.5365 -0.0856
 5729SOL    HW222688   3.808   5.509   4.013  0.7971  0.9444 -0.0063
 5729SOL    HW322689   3.933   5.506   3.927 -0.4386  0.3122 -1.8466
 5729SOL    MW422690   3.867   5.465   3.966  0.2837  0.5608 -0.3075
 5730SOL     OW22691   0.845   0.621   2.579 -0.0808 -0.5192  0.5569
 5730SOL    HW222692   0.846   0.673   2.659  0.3268  0.3752 -0.0211
 5730SOL    HW322693   0.917   0.558   2.591 -0.7188 -1.1214  1.3493
 5730SOL    MW422694   0.855   0.619   2.591 -0.1112 -0.4806  0.5852
 5731SOL     OW22695   1.586   4.552   5.493  0.0747 -0.5086  0.3976
 5731SOL    HW222696   1.595   4.570   5.586  0.3753  1.1239  0.0833
 5731SOL    HW322697   1.516   4.488   5.487 -1.7591  1.2864  1.5862
 5731SOL    MW422698   1.578   4.546   5.504 -0.1276 -0.0563  0.5130
 5732SOL     OW22699   4.537   1.845   1.295  0.0298  0.0299 -0.2953
 5732SOL    HW222700   4.475   1.837   1.222  1.4733 -3.2766 -1.3360
 5732SOL    HW322701   4.548   1.756   1.327  1.0916  1.0949  2.6576
 5732SOL    MW422702   4.530   1.833   1.290  0.3604 -0.2659 -0.0430
 5733SOL     OW22703   5.288   1.520   0.394 -0.3428  0.0689 -0.4400
 5733SOL    HW222704   5.328   1.439   0.362 -0.4995  1.2345 -4.0647
 5733SOL    HW322705   5.194   1.503   0.391 -0.3633  0.2422 -0.7632
 5733SOL    MW422706   5.281   1.507   0.390 -0.3662  0.2456 -0.9609
 5734SOL     OW22707   2.033   3.059   4.011  0.3876 -0.1161 -0.4868
 5734SOL    HW222708   2.030   3.013   4.095 -0.0451  0.3875 -0.2248
 5734SOL    HW322709   2.122   3.042   3.978  0.4781 -0.5188 -0.0473
 5734SOL    MW422710   2.045   3.051   4.018  0.3424 -0.1028 -0.3942
 5735SOL     OW22711   6.251   4.037   4.489 -0.0070 -0.5044  0.1211
 5735SOL    HW222712   6.286   4.116   4.530  1.4559 -1.2679  0.4308
 5735SOL    HW322713   6.167   4.023   4.531 -0.6420  1.2796 -0.4601
 5735SOL    MW422714   6.245   4.045   4.500  0.1022 -0.3698  0.0853
 5736SOL     OW22715   4.547   3.207   1.523 -0.1519 -0.8514  0.2433
 5736SOL    HW222716   4.462   3.184   1.559  0.2892 -0.9164  1.2827
 5736SOL    HW322717   4.610   3.171   1.585  0.6834 -1.9382 -1.1654
 5736SOL    MW422718   4.544   3.199   1.536  0.0165 -1.0034  0.1946
 5737SOL     OW22719   1.943   4.049   1.781 -0.5219  0.8845  0.2426
 5737SOL    HW222720   1.896   4.092   1.853  1.0409  0.3167  1.6850
 5737SOL    HW322721   1.984   3.973   1.822 -0.5933 -0.1779 -1.5547
 5737SOL    MW422722   1.942   4.045   1.796 -0.3251  0.6694  0.1958
 5738SOL     OW22723   1.058   5.300   0.088 -0.5790 -0.0680  0.1409
 5738SOL    HW222724   1.094   5.370   0.034 -0.9938 -0.9550 -1.3522
 5738SOL    HW322725   1.000   5.345   0.149  0.1420  1.0000  0.0668
 5738SOL    MW422726   1.055   5.315   0.089 -0.5386 -0.0441 -0.0659
 5739SOL     OW22727   1.155   3.641   5.115 -0.0268 -0.6320  0.5069
 5739SOL    HW222728   1.069   3.653   5.156  1.0651  1.3922  2.4513
 5739SOL    HW322729   1.186   3.730   5.097  1.7612 -1.2913  0.0451
 5739SOL    MW422730   1.148   3.654   5.118  0.3532 -0.4519  0.7025
 5740SOL     OW22731   0.130   0.221   5.541 -0.3258 -0.1623  0.1553
 5740SOL    HW222732   0.065   0.290   5.552  0.2841  0.2359  1.5140
 5740SOL    HW322733   0.104   0.153   5.604 -0.5631 -0.9047 -0.7257
 5740SOL    MW422734   0.118   0.221   5.551 -0.2766 -0.2077  0.2183
 5741SOL     OW22735   5.796   4.748   2.214 -0.2489 -0.0543 -0.3243
 5741SOL    HW222736   5.736   4.742   2.288  0.7002  0.6094  0.5339
 5741SOL    HW322737   5.768   4.679   2.155 -2.3954  0.7867 -0.3741
 5741SOL    MW422738   5.785   4.738   2.216 -0.4069  0.1442 -0.2176
 5742SOL     OW22739   4.845   2.229   1.430  0.2806  0.0132  0.1628
 5742SOL    HW222740   4.777   2.162   1.433 -0.1076  0.3519 -0.5635
 5742SOL    HW322741   4.894   2.210   1.350  1.2744 -0.4378  0.8699
 5742SOL    MW422742   4.843   2.218   1.420  0.3605 -0.0016  0.1603
 5743SOL     OW22743   6.229   0.910   5.574  0.2766  0.0775  0.1169
 5743SOL    HW222744   6.181   0.878   5.497  0.7580 -0.5260  0.0628
 5743SOL    HW322745   6.188   0.995   5.593 -1.0134 -0.5421  0.2566
 5743SOL    MW422746   6.217   0.917   5.566  0.1699 -0.0839  0.1282
 5744SOL     OW22747   0.966   2.072   5.799 -0.0197  0.7457 -0.4566
 5744SOL    HW222748   0.918   2.123   5.735 -0.8506 -0.7252 -1.0621
 5744SOL    HW322749   0.934   1.982   5.788 -0.7269  0.5151  2.4630
 5744SOL    MW422750   0.956   2.067   5.789 -0.2226  0.5212 -0.1513
 5745SOL     OW22751   2.967   5.100   0.181 -0.2911  0.0927  0.2193
 5745SOL    HW222752   2.994   5.127   0.093  0.0846 -1.6875 -0.2464
 5745SOL    HW322753   3.033   5.138   0.239  0.5274 -0.2616 -0.4600
 5745SOL    MW422754   2.979   5.109   0.177 -0.1335 -0.1889  0.0682
 5746SOL     OW22755   4.940   3.923   2.775  0.0783 -0.1216 -0.2805
 5746SOL    HW222756   4.899   3.848   2.818 -0.1395  0.9129  1.3954
 5746SOL    HW322757   4.915   3.914   2.683 -1.0947 -1.3476  0.1237
 5746SOL    MW422758   4.931   3.912   2.768 -0.1052 -0.1469 -0.0061
 5747SOL     OW22759   1.961   1.924   2.993  0.1854  0.4646  0.2276
 5747SOL    HW222760   1.950   1.829   3.000  1.4185  0.1822 -1.2058
 5747SOL    HW322761   1.962   1.955   3.084  1.5981 -1.1362  0.8116
 5747SOL    MW422762   1.960   1.916   3.006  0.5345  0.2161  0.1155
 5748SOL     OW22763   4.314   6.225   1.036  0.0901  0.0867  0.8912
 5748SOL    HW222764   4.400   6.212   0.997 -0.1247  1.2607 -0.0384
 5748SOL    HW322765   4.332   6.244   1.128  0.6854 -1.4299  1.1157
 5748SOL    MW422766   4.327   6.226   1.043  0.1403  0.0415  0.7982
 5749SOL     OW22767   2.564   3.073   6.006 -0.3239  0.2441 -0.2081
 5749SOL    HW222768   2.546   3.141   6.070  0.7103  0.6896 -0.3775
 5749SOL    HW322769   2.507   3.093   5.932  0.5519  1.4189 -0.5909
 5749SOL    MW422770   2.554   3.084   6.005 -0.0719  0.4579 -0.2809
 5750SOL     OW22771   3.612   2.803   5.454 -0.3023  0.1527 -0.2686
 5750SOL    HW222772   3.659   2.879   5.421  0.9494 -0.6303 -0.3366
 5750SOL    HW322773   3.612   2.814   5.549 -1.1243  0.7870 -0.3230
 5750SOL    MW422774   3.618   2.814   5.462 -0.2456  0.1331 -0.2847
 5751SOL     OW22775   6.395   4.958   5.714  0.0729  0.1900  0.1451
 5751SOL    HW222776   6.343   4.966   5.793 -0.9436  0.1021 -0.4946
 5751SOL    HW322777   6.483   4.985   5.740  0.1736 -1.4729  1.7187
 5751SOL    MW422778   6.400   4.962   5.727 -0.0479 -0.0410  0.2683
 5752SOL     OW22779   2.620   5.838   3.146  0.2902  0.3157 -0.0145
 5752SOL    HW222780   2.635   5.760   3.199  0.3617 -1.1823 -2.1219
 5752SOL    HW322781   2.578   5.805   3.066  0.7379  2.3618 -1.1677
 5752SOL    MW422782   2.616   5.823   3.142  0.3587  0.3880 -0.4447
 5753SOL     OW22783   3.953   2.920   1.573  0.1557  0.1673 -0.0211
 5753SOL    HW222784   4.038   2.876   1.577  0.4223  0.7433  1.2072
 5753SOL    HW322785   3.889   2.848   1.575  0.6032 -0.2374 -0.0639
 5753SOL    MW422786   3.956   2.904   1.574  0.2499  0.1899  0.1353
 5754SOL     OW22787   5.553   4.392   6.224  0.5532 -0.1961  0.8336
 5754SOL    HW222788   5.494   4.453   6.180 -0.0374 -0.8573  0.7058
 5754SOL    HW322789   5.524   4.392   6.315  0.3025 -0.5842  0.7545
 5754SOL    MW422790   5.542   4.400   6.231  0.4422 -0.3346  0.8063
 5755SOL     OW22791   6.080   0.823   2.790 -0.6519 -0.1591 -0.2225
 5755SOL    HW222792   6.115   0.912   2.791 -2.4669  0.5971  0.7727
 5755SOL    HW322793   6.052   0.807   2.881 -0.0538 -1.8956 -0.3017
 5755SOL    MW422794   6.081   0.832   2.802 -0.8124 -0.2884 -0.1016
 5756SOL     OW22795   0.132   4.202   0.530  0.1554 -0.0831 -0.4404
 5756SOL    HW222796   0.059   4.255   0.562 -0.4635  0.4338 -2.5058
 5756SOL    HW322797   0.093   4.117   0.510 -0.0754  0.3888 -2.1467
 5756SOL    MW422798   0.117   4.198   0.531  0.0433  0.0474 -0.9380
 5757SOL     OW22799   6.217   1.606   0.879  0.5423 -0.4091  0.1410
 5757SOL    HW222800   6.209   1.550   0.956  1.2713 -0.6498  0.0519
 5757SOL    HW322801   6.211   1.546   0.805  2.3741 -0.5497  0.0570
 5757SOL    MW422802   6.215   1.591   0.880  0.8802 -0.4594  0.1182
 5758SOL     OW22803   3.208   1.748   1.346 -0.1264 -0.9950 -0.3432
 5758SOL    HW222804   3.194   1.837   1.379 -1.0913 -2.3336  3.3331
 5758SOL    HW322805   3.143   1.738   1.277 -1.2320  0.5969  0.3891
 5758SOL    MW422806   3.198   1.759   1.341 -0.3996 -0.9616  0.2385
 5759SOL     OW22807   1.354   0.511   5.865 -0.4043 -0.0899 -0.7042
 5759SOL    HW222808   1.414   0.438   5.852 -0.9447 -0.1996 -2.7755
 5759SOL    HW322809   1.270   0.481   5.831 -1.7835  0.0226  2.2333
 5759SOL    MW422810   1.351   0.497   5.859 -0.6576 -0.0895 -0.5899
 5760SOL     OW22811   1.807   0.429   4.729 -0.0099  0.5673 -0.0720
 5760SOL    HW222812   1.817   0.340   4.694 -0.6551  0.4021  0.1556
 5760SOL    HW322813   1.878   0.478   4.688  1.2990 -0.3872  0.9315
 5760SOL    MW422814   1.818   0.423   4.719  0.0777  0.4195  0.0904
 5761SOL     OW22815   5.493   4.912   5.293  0.4589  0.0739  1.1168
 5761SOL    HW222816   5.451   4.846   5.349  0.0690 -0.3814  0.3062
 5761SOL    HW322817   5.457   4.995   5.324 -0.2021 -0.2227  1.1697
 5761SOL    MW422818   5.483   4.914   5.304  0.3202 -0.0253  1.0169
 5762SOL     OW22819   6.255   5.255   4.745  0.2088 -0.4256  0.6738
 5762SOL    HW222820   6.218   5.320   4.685  1.7023  0.2546  0.4496
 5762SOL    HW322821   6.179   5.215   4.787 -0.7917  0.4247 -0.2786
 5762SOL    MW422822   6.240   5.258   4.742  0.2738 -0.2237  0.5186
 5763SOL     OW22823   6.306   1.699   5.660 -0.1716 -0.4305 -0.0247
 5763SOL    HW222824   6.335   1.746   5.739 -0.8390  1.8044 -1.0140
 5763SOL    HW322825   6.371   1.722   5.594 -0.8186 -0.4497 -0.6756
 5763SOL    MW422826   6.319   1.708   5.662 -0.3450 -0.1382 -0.2411
 5764SOL     OW22827   0.222   3.773   3.222  0.2531  0.7605  0.0755
 5764SOL    HW222828   0.190   3.846   3.170  0.3256  0.9240  0.2619
 5764SOL    HW322829   0.314   3.763   3.197 -0.5188 -1.3783 -2.4398
 5764SOL    MW422830   0.230   3.781   3.212  0.1608  0.4999 -0.2318
 5765SOL     OW22831   0.772   0.366   4.937  0.2365 -0.2642  0.5918
 5765SOL    HW222832   0.758   0.420   4.860  2.9789  1.9138  1.4441
 5765SOL    HW322833   0.700   0.389   4.996 -1.1631 -1.0021 -0.7691
 5765SOL    MW422834   0.761   0.376   4.935  0.4137 -0.0742  0.5247
 5766SOL     OW22835   0.294   0.665   5.144 -0.0644 -0.9898 -0.0783
 5766SOL    HW222836   0.334   0.591   5.098  1.7666 -0.0911 -0.0213
 5766SOL    HW322837   0.358   0.736   5.136 -0.2471 -0.3868  2.6768
 5766SOL    MW422838   0.308   0.664   5.137  0.1531 -0.7917  0.2927
 5767SOL     OW22839   4.671   1.483   5.291 -0.0391 -0.6268  0.0532
 5767SOL    HW222840   4.593   1.503   5.343  1.4623  1.2164  1.7512
 5767SOL    HW322841   4.663   1.389   5.271 -1.9884 -0.7971  1.3425
 5767SOL    MW422842   4.659   1.473   5.295 -0.0982 -0.4061  0.4473
 5768SOL     OW22843   1.129   2.791   1.500 -0.0778 -0.2049 -0.3415
 5768SOL    HW222844   1.139   2.820   1.591 -1.2179  1.6573 -0.7718
 5768SOL    HW322845   1.048   2.833   1.470  0.2460 -0.8343 -2.2103
 5768SOL    MW422846   1.120   2.800   1.508 -0.1855 -0.0423 -0.6448
 5769SOL     OW22847   0.508   6.202   0.134 -0.1037 -0.6239  0.1128
 5769SOL    HW222848   0.460   6.200   0.051 -0.2909 -0.9536  0.2244
 5769SOL    HW322849   0.593   6.240   0.112  0.6161 -2.5188 -0.6534
 5769SOL    MW422850   0.513   6.207   0.120 -0.0334 -0.9174  0.0264
 5770SOL     OW22851   0.810   1.553   1.085  0.0112  0.1251  0.0606
 5770SOL    HW222852   0.883   1.546   1.024 -0.4541  1.1430 -0.6557
 5770SOL    HW322853   0.732   1.534   1.032 -0.3696  0.6515  0.4157
 5770SOL    MW422854   0.809   1.550   1.070 -0.1004  0.3289  0.0129
 5771SOL     OW22855   4.290   2.266   3.359  0.0873 -0.3371  0.1457
 5771SOL    HW222856   4.239   2.198   3.403  2.6572 -1.7051  1.2668
 5771SOL    HW322857   4.337   2.310   3.429  1.9639 -0.5137 -0.9243
 5771SOL    MW422858   4.290   2.263   3.374  0.6740 -0.5409  0.1524
 5772SOL     OW22859   3.436   4.811   5.840  0.5225  0.0503 -0.6496
 5772SOL    HW222860   3.369   4.872   5.810  1.5901  1.2827 -0.6366
 5772SOL    HW322861   3.388   4.738   5.878 -0.8040  1.3638  0.2981
 5772SOL    MW422862   3.421   4.810   5.841  0.4884  0.3862 -0.5229
 5773SOL     OW22863   5.348   5.223   1.315  0.0896  0.1653  0.1251
 5773SOL    HW222864   5.354   5.318   1.324  0.7520  0.1448 -0.0768
 5773SOL    HW322865   5.376   5.206   1.226  1.3215 -0.3405  0.5944
 5773SOL    MW422866   5.352   5.234   1.305  0.3395  0.0959  0.1604
 5774SOL     OW22867   3.264   6.051   0.521  0.0793 -1.4143 -0.1578
 5774SOL    HW222868   3.299   6.070   0.608 -1.6857 -2.1949  0.7829
 5774SOL    HW322869   3.338   6.016   0.472  1.1529 -0.7776  0.9651
 5774SOL    MW422870   3.278   6.049   0.526 -0.0119 -1.4333  0.1145
 5775SOL     OW22871   3.189   3.988   4.950  0.2899 -0.3980 -0.3912
 5775SOL    HW222872   3.147   3.902   4.956 -0.3044 -0.0111  1.8504
 5775SOL    HW322873   3.198   4.016   5.040  0.6716  1.8213 -1.0678
 5775SOL    MW422874   3.184   3.980   4.962  0.2618 -0.0541 -0.1847
 5776SOL     OW22875   3.008   5.451   5.837 -0.3273  0.3012  0.8249
 5776SOL    HW222876   3.039   5.384   5.898 -0.6016  0.0598  0.7021
 5776SOL    HW322877   3.030   5.534   5.879  0.2981  0.1339  0.8316
 5776SOL    MW422878   3.015   5.453   5.851 -0.2810  0.2473  0.8096
 5777SOL     OW22879   3.625   4.356   4.134  0.6022  0.2711 -0.0405
 5777SOL    HW222880   3.669   4.391   4.057  2.5781 -1.0164  0.4340
 5777SOL    HW322881   3.694   4.311   4.183 -1.3952 -2.7511  0.2836
 5777SOL    MW422882   3.640   4.355   4.130  0.5994 -0.2975  0.0649
 5778SOL     OW22883   1.423   0.660   1.345  0.2342  0.2730  1.4107
 5778SOL    HW222884   1.419   0.574   1.387 -0.7954 -0.1517  0.4850
 5778SOL    HW322885   1.360   0.714   1.393 -0.5077 -0.0440  0.8142
 5778SOL    MW422886   1.414   0.656   1.357  0.0005  0.1751  1.2099
 5779SOL     OW22887   3.810   4.134   5.909  0.2049  0.3734  0.3804
 5779SOL    HW222888   3.792   4.040   5.912  0.2463  0.3874  1.8559
 5779SOL    HW322889   3.903   4.142   5.928 -0.0030  0.7514  1.3038
 5779SOL    MW422890   3.820   4.123   5.912  0.1830  0.4251  0.6969
 5780SOL     OW22891   5.398   1.412   5.009  0.7290 -0.0237  0.1333
 5780SOL    HW222892   5.465   1.387   4.945 -0.1718  0.6153 -1.1006
 5780SOL    HW322893   5.371   1.499   4.982 -1.8954 -0.9603 -0.5552
 5780SOL    MW422894   5.403   1.420   4.997  0.2639 -0.0630 -0.1204
 5781SOL     OW22895   3.840   2.912   2.570  0.4526 -0.0034  0.1093
 5781SOL    HW222896   3.826   2.903   2.476 -0.3473  0.4539  0.1787
 5781SOL    HW322897   3.926   2.873   2.585  0.4703 -0.3232 -0.7670
 5781SOL    MW422898   3.850   2.906   2.559  0.3494  0.0148  0.0028
 5782SOL     OW22899   0.533   4.462   6.075 -0.4259 -0.2418  0.3722
 5782SOL    HW222900   0.558   4.554   6.064 -0.6414 -0.3354 -1.0166
 5782SOL    HW322901   0.461   4.449   6.013  1.5709 -2.1157 -1.6925
 5782SOL    MW422902   0.526   4.473   6.066 -0.1909 -0.5014 -0.0835
 5783SOL     OW22903   5.021   0.697   1.738 -0.4944  0.2281 -0.1201
 5783SOL    HW222904   5.009   0.603   1.730  0.9188  0.0776 -0.8306
 5783SOL    HW322905   4.944   0.735   1.695 -0.2373 -0.6096 -1.3642
 5783SOL    MW422906   5.009   0.690   1.731 -0.2740  0.0978 -0.3780
 5784SOL     OW22907   2.488   5.559   0.526  0.1246 -0.0311  0.1154
 5784SOL    HW222908   2.442   5.476   0.521  1.4178 -0.7445 -0.7266
 5784SOL    HW322909   2.422   5.626   0.507 -0.7155 -0.9488 -0.2242
 5784SOL    MW422910   2.473   5.557   0.522  0.1844 -0.2463 -0.0405
 5785SOL     OW22911   5.802   6.230   4.339  0.0216  0.2464  0.2253
 5785SOL    HW222912   5.710   6.224   4.312  0.7709 -0.6068 -2.5298
 5785SOL    HW322913   5.809   6.168   4.412 -1.4538 -0.2258  0.0138
 5785SOL    MW422914   5.791   6.221   4.345 -0.0742  0.0715 -0.1661
 5786SOL     OW22915   2.811   4.548   0.506  0.1342  0.5114 -0.0740
 5786SOL    HW222916   2.716   4.548   0.510  0.1526 -0.2755  0.6242
 5786SOL    HW322917   2.832   4.509   0.421 -0.1664 -0.8099  0.4341
 5786SOL    MW422918   2.801   4.543   0.496  0.0969  0.2333  0.0852
 5787SOL     OW22919   4.512   5.587   5.998  0.4872 -0.1879  0.6137
 5787SOL    HW222920   4.424   5.625   5.997  0.3688 -0.4695  0.1330
 5787SOL    HW322921   4.514   5.527   5.924  1.0238 -0.3324  0.7353
 5787SOL    MW422922   4.501   5.584   5.988  0.5424 -0.2441  0.5663
 5788SOL     OW22923   4.221   4.752   0.336 -0.1293 -0.6060 -0.1470
 5788SOL    HW222924   4.254   4.835   0.372  0.7070 -1.0856  0.2144
 5788SOL    HW322925   4.126   4.764   0.332 -0.0244  0.3527 -0.0549
 5788SOL    MW422926   4.213   4.765   0.340 -0.0051 -0.5428 -0.0871
 5789SOL     OW22927   3.838   5.461   1.971 -0.2049 -0.4224  0.1955
 5789SOL    HW222928   3.822   5.519   2.046 -2.0754 -1.2898  0.5214
 5789SOL    HW322929   3.751   5.444   1.935  0.4500 -1.8331 -0.8025
 5789SOL    MW422930   3.825   5.466   1.976 -0.3653 -0.7230  0.1069
 5790SOL     OW22931   5.543   5.419   3.069  0.3297  0.0477  0.4231
 5790SOL    HW222932   5.516   5.344   3.122 -3.3929  0.6730 -0.3658
 5790SOL    HW322933   5.552   5.383   2.980 -0.2102  0.2882  0.2703
 5790SOL    MW422934   5.541   5.404   3.064 -0.2327  0.1620  0.2988
 5791SOL     OW22935   5.041   2.256   4.886  0.5396  0.2070 -0.4513
 5791SOL    HW222936   5.058   2.339   4.841  2.7495 -0.2831 -0.6033
 5791SOL    HW322937   5.124   2.209   4.883 -0.4233 -1.6545  0.4227
 5791SOL    MW422938   5.054   2.261   4.880  0.7041 -0.1032 -0.3561
 5792SOL     OW22939   0.668   5.738   6.211  0.6120  0.0659  0.5302
 5792SOL    HW222940   0.587   5.761   6.166  0.1306  0.2801  1.4953
 5792SOL    HW322941   0.710   5.822   6.229  1.4335 -0.0706 -0.6293
 5792SOL    MW422942   0.663   5.752   6.207  0.6569  0.0761  0.5045
 5793SOL     OW22943   2.698   0.024   6.422  0.1292 -0.2936 -0.6703
 5793SOL    HW222944   2.766  -0.040   6.404 -1.0757 -1.4276 -1.3943
 5793SOL    HW322945   2.628   0.002   6.361 -0.1869  1.9770 -1.1943
 5793SOL    MW422946   2.698   0.012   6.412 -0.0715 -0.1436 -0.8350
 5794SOL     OW22947   5.737   5.138   5.554  0.1541  0.6010 -0.2331
 5794SOL    HW222948   5.753   5.091   5.472  1.8957  1.4515 -0.4297
 5794SOL    HW322949   5.749   5.072   5.622  1.1365  0.4222 -0.5679
 5794SOL    MW422950   5.741   5.123   5.552  0.5135  0.6896 -0.3032
 5795SOL     OW22951   2.671   1.471   2.452  0.3508  0.2967  0.0209
 5795SOL    HW222952   2.684   1.502   2.363 -0.4776  0.0735 -0.1825
 5795SOL    HW322953   2.760   1.455   2.485  0.7474  1.8524 -0.2185
 5795SOL    MW422954   2.685   1.473   2.445  0.2938  0.4725 -0.0375
 5796SOL     OW22955   4.846   1.976   0.292 -0.4089  0.2885 -0.0862
 5796SOL    HW222956   4.928   2.023   0.299 -0.4948  0.7317 -1.6899
 5796SOL    HW322957   4.778   2.042   0.306 -0.5052  0.3675 -0.8589
 5796SOL    MW422958   4.848   1.991   0.294 -0.4329  0.3574 -0.3997
 5797SOL     OW22959   1.164   0.615   3.552  0.0523 -0.2826 -0.1299
 5797SOL    HW222960   1.195   0.552   3.617  0.4503 -1.2671 -1.2298
 5797SOL    HW322961   1.211   0.696   3.572  1.0051 -0.8889  0.1432
 5797SOL    MW422962   1.174   0.617   3.563  0.2306 -0.4925 -0.2390
 5798SOL     OW22963   1.431   4.734   6.315 -0.3301  0.5354  0.0276
 5798SOL    HW222964   1.381   4.765   6.391  0.6031 -0.6576  1.1888
 5798SOL    HW322965   1.367   4.730   6.244 -1.7375 -0.2485  1.2741
 5798SOL    MW422966   1.416   4.738   6.316 -0.3926  0.2745  0.3453
 5799SOL     OW22967   0.049   1.266   5.616 -0.2061 -0.0580  0.0665
 5799SOL    HW222968   0.005   1.345   5.649  0.1470  0.4741 -0.7060
 5799SOL    HW322969   0.013   1.195   5.669 -0.8934  0.5565  0.4484
 5799SOL    MW422970   0.038   1.267   5.628 -0.2502  0.0933  0.0150
 5800SOL     OW22971   1.850   5.461   3.287  0.3857  0.4544  0.1575
 5800SOL    HW222972   1.797   5.395   3.244 -0.0810  0.8675  0.0953
 5800SOL    HW322973   1.810   5.471   3.374  1.5207 -0.6230  0.8445
 5800SOL    MW422974   1.838   5.454   3.293  0.4739  0.3668  0.2400
 5801SOL     OW22975   1.313   0.806   4.447 -0.2002 -0.1185  0.1388
 5801SOL    HW222976   1.260   0.727   4.453 -0.5981  0.1411  0.0815
 5801SOL    HW322977   1.331   0.829   4.538 -1.2495  0.4945  0.2064
 5801SOL    MW422978   1.309   0.799   4.460 -0.3912 -0.0033  0.1401
 5802SOL     OW22979   3.340   0.705   0.454 -0.1720 -0.7179  0.6603
 5802SOL    HW222980   3.282   0.651   0.400 -1.0228 -0.4058  1.2421
 5802SOL    HW322981   3.300   0.792   0.453  1.0941 -0.1173 -0.1188
 5802SOL    MW422982   3.327   0.709   0.447 -0.1172 -0.5975  0.6342
 5803SOL     OW22983   0.747   0.639   6.330  0.2079  0.0486  0.0675
 5803SOL    HW222984   0.656   0.615   6.311  0.4232 -1.0059  0.3136
 5803SOL    HW322985   0.798   0.601   6.259  0.3206  2.1692 -1.0859
 5803SOL    MW422986   0.742   0.631   6.318  0.2512  0.1893 -0.0522
 5804SOL     OW22987   4.049   2.114   6.011  0.1480 -0.6222  0.4897
 5804SOL    HW222988   4.057   2.028   5.969  0.5464  0.1498 -1.0849
 5804SOL    HW322989   3.998   2.166   5.950  0.8228  0.5852  0.9145
 5804SOL    MW422990   4.043   2.110   5.998  0.2896 -0.3611  0.3380
 5805SOL     OW22991   0.307   6.323   1.106 -0.1462 -0.4615  0.6389
 5805SOL    HW222992   0.221   6.337   1.067 -0.9299 -3.2708  1.1216
 5805SOL    HW322993   0.348   6.255   1.053  1.5874  0.4290  0.7512
 5805SOL    MW422994   0.301   6.316   1.094 -0.0209 -0.7146  0.7174
 5806SOL     OW22995   2.314   5.644   2.067  0.0017 -0.3544  0.3862
 5806SOL    HW222996   2.317   5.555   2.032 -0.3168 -0.2814  0.1702
 5806SOL    HW322997   2.368   5.696   2.007 -1.5965  0.0329 -0.7859
 5806SOL    MW422998   2.322   5.639   2.055 -0.2512 -0.2937  0.2030
 5807SOL     OW22999   0.543   3.541   2.721 -0.3852  0.5933 -0.0479
 5807SOL    HW223000   0.565   3.513   2.809  0.2323  1.2731  0.0283
 5807SOL    HW323001   0.458   3.585   2.730 -0.0754  1.1263  0.3059
 5807SOL    MW423002   0.535   3.543   2.733 -0.2629  0.7534  0.0088
 5808SOL     OW23003   1.551   0.150   6.223  0.5897  0.4461 -0.2502
 5808SOL    HW223004   1.507   0.162   6.307  1.5801 -0.0026  0.3483
 5808SOL    HW323005   1.581   0.237   6.198 -0.7833  0.7927 -0.7619
 5808SOL    MW423006   1.549   0.163   6.231  0.5392  0.4327 -0.2387
 5809SOL     OW23007   3.386   4.298   3.016 -0.1488  0.0650  0.6526
 5809SOL    HW223008   3.464   4.279   3.068 -0.0822  0.0585  0.5516
 5809SOL    HW323009   3.341   4.214   3.009 -0.9777  0.3711  2.0194
 5809SOL    MW423010   3.390   4.285   3.022 -0.2494  0.1045  0.8196
 5810SOL     OW23011   4.335   6.235   1.971 -0.4407  0.0755  0.2109
 5810SOL    HW223012   4.330   6.269   1.881 -0.0051  0.7758  0.4486
 5810SOL    HW323013   4.368   6.308   2.023  1.3424 -0.9412  0.5991
 5810SOL    MW423014   4.339   6.249   1.966 -0.1480  0.0338  0.2935
 5811SOL     OW23015   0.127   6.222   3.836 -0.1225 -0.4292 -0.3762
 5811SOL    HW223016   0.103   6.167   3.911 -0.2250 -0.7940 -0.6786
 5811SOL    HW323017   0.220   6.240   3.848  0.1721 -1.5532 -0.8450
 5811SOL    MW423018   0.136   6.217   3.848 -0.0971 -0.6256 -0.4779
 5812SOL     OW23019   4.290   3.608   3.460 -0.2128  0.1720 -0.5424
 5812SOL    HW223020   4.360   3.667   3.487  0.4263 -1.0780  0.6438
 5812SOL    HW323021   4.286   3.617   3.365  2.0179 -0.1888 -0.7284
 5812SOL    MW423022   4.299   3.617   3.451  0.1658 -0.0406 -0.4104
 5813SOL     OW23023   2.636   0.031   3.292  0.2045 -0.1365 -0.0631
 5813SOL    HW223024   2.677   0.089   3.356  2.1399 -1.6105  0.1403
 5813SOL    HW323025   2.577   0.087   3.242 -0.1079  1.3963  1.9033
 5813SOL    MW423026   2.633   0.046   3.294  0.4187 -0.1287  0.2232
 5814SOL     OW23027   1.208   1.504   5.281 -0.0318  0.3744  0.5866
 5814SOL    HW223028   1.218   1.570   5.212  1.0853 -0.6839 -0.2962
 5814SOL    HW323029   1.156   1.434   5.242  0.6391 -0.2535  0.7938
 5814SOL    MW423030   1.203   1.504   5.267  0.2041  0.1519  0.4975
 5815SOL     OW23031   0.507   5.006   4.684  0.1066 -0.0116  0.0686
 5815SOL    HW223032   0.490   5.100   4.684 -2.5030 -0.3912  0.5599
 5815SOL    HW323033   0.593   4.997   4.645 -0.5371  2.4332 -2.2446
 5815SOL    MW423034   0.516   5.017   4.679 -0.3226  0.2609 -0.1718
 5816SOL     OW23035   0.396   0.769   1.473  0.0089 -0.1551  0.3899
 5816SOL    HW223036   0.360   0.692   1.430  0.0975  0.2537 -0.4288
 5816SOL    HW323037   0.438   0.819   1.403  0.8112  0.1548  1.0632
 5816SOL    MW423038   0.397   0.766   1.458  0.1264 -0.0603  0.3707
 5817SOL     OW23039   0.309   4.654   2.125 -0.3688 -0.0424 -0.3148
 5817SOL    HW223040   0.235   4.610   2.083 -0.9210  1.4159 -0.9252
 5817SOL    HW323041   0.274   4.737   2.157  0.5165 -0.2356  1.2994
 5817SOL    MW423042   0.295   4.659   2.124 -0.3249  0.1245 -0.1824
 5818SOL     OW23043   3.095   4.580   3.306 -0.1531  0.6071  0.1238
 5818SOL    HW223044   3.111   4.527   3.228 -1.9327 -0.1212  0.1920
 5818SOL    HW323045   3.072   4.666   3.272 -1.1783  0.2236 -0.2017
 5818SOL    MW423046   3.094   4.584   3.292 -0.5232  0.4604  0.0899
 5819SOL     OW23047   5.068   6.397   3.916 -0.3813  1.2209 -0.5630
 5819SOL    HW223048   5.079   6.303   3.931  2.2659  1.4684 -0.3712
 5819SOL    HW323049   5.093   6.410   3.824 -2.0463  1.6106 -0.9973
 5819SOL    MW423050   5.073   6.386   3.906 -0.2517  1.3050 -0.5950
 5820SOL     OW23051   4.581   3.856   2.604  0.3504  0.7675 -0.5701
 5820SOL    HW223052   4.569   3.900   2.688 -1.2647 -0.3838 -0.1581
 5820SOL    HW323053   4.661   3.895   2.568  1.0096  1.3757  1.4195
 5820SOL    MW423054   4.590   3.867   2.610  0.2243  0.6959 -0.2532
 5821SOL     OW23055   3.945   5.721   5.100 -0.9027  0.3941 -0.2214
 5821SOL    HW223056   3.890   5.707   5.177 -0.8551 -1.1120 -0.4291
 5821SOL    HW323057   3.902   5.671   5.031  0.5386 -0.5616 -0.4706
 5821SOL    MW423058   3.932   5.713   5.101 -0.7063  0.0693 -0.2817
 5822SOL     OW23059   1.523   2.730   4.466  0.2837 -0.7662  0.0739
 5822SOL    HW223060   1.485   2.782   4.395  0.0585 -1.1977 -0.1251
 5822SOL    HW323061   1.617   2.726   4.445  0.2018 -0.9840 -0.2631
 5822SOL    MW423062   1.531   2.736   4.454  0.2432 -0.8519  0.0032
 5823SOL     OW23063   0.103   1.258   3.814 -0.5353 -0.0498 -0.4613
 5823SOL    HW223064   0.095   1.164   3.825 -1.1435 -0.0917 -1.2048
 5823SOL    HW323065   0.072   1.275   3.725 -1.0553  0.9222 -0.1138
 5823SOL    MW423066   0.098   1.248   3.804 -0.6842  0.0729 -0.5135
 5824SOL     OW23067   5.911   4.359   2.353 -0.0155  0.1091  0.3367
 5824SOL    HW223068   5.824   4.398   2.343 -0.8381 -1.5338  0.8343
 5824SOL    HW323069   5.958   4.421   2.408 -0.2407  1.9232 -1.4055
 5824SOL    MW423070   5.906   4.373   2.359 -0.1538  0.1317  0.1725
 5825SOL     OW23071   4.020   0.786   4.670 -0.0586 -0.2092  0.0844
 5825SOL    HW223072   3.932   0.798   4.707 -0.9348 -0.2514 -1.8386
 5825SOL    HW323073   4.063   0.725   4.729 -0.2970  1.9338  2.6320
 5825SOL    MW423074   4.014   0.779   4.682 -0.2056  0.0680  0.1668
 5826SOL     OW23075   2.777   3.324   4.837  0.2408  0.3473  0.0460
 5826SOL    HW223076   2.724   3.267   4.781 -0.8442 -1.5036  2.7488
 5826SOL    HW323077   2.851   3.270   4.864  0.6904  1.1561  0.4795
 5826SOL    MW423078   2.780   3.310   4.833  0.1570  0.2098  0.4598
 5827SOL     OW23079   5.064   2.927   6.303 -0.1675  0.3257  0.1479
 5827SOL    HW223080   5.129   2.996   6.293 -0.0576  0.3316  0.8544
 5827SOL    HW323081   5.113   2.845   6.296 -0.1208  0.3282  0.4425
 5827SOL    MW423082   5.079   2.925   6.301 -0.1469  0.3268  0.2800
 5828SOL     OW23083   3.784   4.050   0.193  0.1717 -0.1611  0.3448
 5828SOL    HW223084   3.870   4.075   0.161 -0.0519 -0.7326 -0.7357
 5828SOL    HW323085   3.749   3.991   0.126 -1.2032  0.3420  0.5810
 5828SOL    MW423086   3.791   4.046   0.180 -0.0392 -0.1701  0.2334
 5829SOL     OW23087   0.404   6.277   2.415 -0.5895  0.3202 -0.0697
 5829SOL    HW223088   0.483   6.251   2.463 -1.0919 -0.9672  0.1210
 5829SOL    HW323089   0.435   6.338   2.348  1.0228 -2.0680 -1.6684
 5829SOL    MW423090   0.418   6.281   2.413 -0.4431 -0.1647 -0.2555
 5830SOL     OW23091   5.598   0.622   3.470 -0.1239  0.0905 -0.0736
 5830SOL    HW223092   5.552   0.540   3.486  0.3227 -0.1336  0.0962
 5830SOL    HW323093   5.644   0.640   3.552  0.4807  0.0482 -0.3956
 5830SOL    MW423094   5.598   0.613   3.483  0.0148  0.0553 -0.0937
 5831SOL     OW23095   4.099   5.352   1.316  0.2854 -0.4546  0.0513
 5831SOL    HW223096   4.101   5.443   1.345  0.4571 -0.6243  0.5656
 5831SOL    HW323097   4.031   5.351   1.249  1.8812  0.5732 -1.7033
 5831SOL    MW423098   4.091   5.364   1.311  0.5186 -0.3414 -0.1123
 5832SOL     OW23099   3.518   2.700   2.879 -0.0699  0.1374 -0.0394
 5832SOL    HW223100   3.571   2.719   2.801  1.3977 -3.0236  0.0067
 5832SOL    HW323101   3.446   2.646   2.846 -1.5942  1.8180  0.3640
 5832SOL    MW423102   3.515   2.695   2.864 -0.0774 -0.0579  0.0199
 5833SOL     OW23103   2.008   1.896   0.435  0.0906 -0.0376 -0.2281
 5833SOL    HW223104   1.950   1.882   0.360  2.3444  0.1063 -2.1160
 5833SOL    HW323105   2.079   1.833   0.422  0.9151  0.5079  1.4019
 5833SOL    MW423106   2.010   1.885   0.423  0.4967  0.0534 -0.2621
 5834SOL     OW23107   4.974   5.689   6.143 -0.0670 -0.0152  0.4290
 5834SOL    HW223108   5.022   5.771   6.135  0.5997 -0.5420 -1.4921
 5834SOL    HW323109   4.892   5.713   6.185 -0.1484  1.7474 -0.6601
 5834SOL    MW423110   4.970   5.703   6.148  0.0102  0.1478  0.0319
 5835SOL     OW23111   4.091   5.635   0.360 -0.7920  0.2152 -0.2366
 5835SOL    HW223112   4.094   5.540   0.371 -1.3406  0.0252 -1.5531
 5835SOL    HW323113   4.179   5.658   0.330 -1.3477 -0.2432 -2.3508
 5835SOL    MW423114   4.103   5.625   0.358 -0.9377  0.1297 -0.6892
 5836SOL     OW23115   2.921   3.807   3.429  0.3813 -0.3430  0.8680
 5836SOL    HW223116   2.865   3.883   3.443  1.2022  0.5619 -0.4453
 5836SOL    HW323117   2.970   3.829   3.350  0.0910 -2.5826  0.0063
 5836SOL    MW423118   2.920   3.820   3.420  0.4513 -0.5191  0.5810
 5837SOL     OW23119   2.373   4.182   5.478  0.0459 -0.9771  0.3218
 5837SOL    HW223120   2.299   4.130   5.511 -0.2743 -0.7586 -0.0333
 5837SOL    HW323121   2.396   4.241   5.550  0.0162 -1.1985  0.5130
 5837SOL    MW423122   2.366   4.183   5.492 -0.0003 -0.9775  0.3002
 5838SOL     OW23123   3.824   6.011   6.305 -0.0807 -0.3661 -0.3958
 5838SOL    HW223124   3.734   6.037   6.283 -0.0820  0.7882  0.8221
 5838SOL    HW323125   3.819   5.983   6.396  0.9850  0.8234  0.0531
 5838SOL    MW423126   3.811   6.011   6.314  0.0598 -0.0568 -0.1759
 5839SOL     OW23127   0.787   1.052   4.930  0.0378 -0.2390 -0.0345
 5839SOL    HW223128   0.781   1.035   5.024 -0.5467 -2.3391 -0.3986
 5839SOL    HW323129   0.701   1.086   4.906 -0.6760 -2.0880 -0.2048
 5839SOL    MW423130   0.775   1.054   4.939 -0.1335 -0.7601 -0.1050
 5840SOL     OW23131   6.263   1.458   1.918  0.0264 -0.3665  0.2651
 5840SOL    HW223132   6.243   1.486   2.007 -0.5203  0.1165 -0.0063
 5840SOL    HW323133   6.182   1.419   1.886  0.6158 -1.8108  0.4508
 5840SOL    MW423134   6.250   1.457   1.926  0.0321 -0.4933  0.2538
 5841SOL     OW23135   5.429   6.176   6.084  0.0364  0.3500  0.2299
 5841SOL    HW223136   5.431   6.259   6.131  0.1705  1.2122 -1.2320
 5841SOL    HW323137   5.341   6.141   6.101  0.3508  0.2164  1.7559
 5841SOL    MW423138   5.418   6.182   6.092  0.0956  0.4461  0.2384
 5842SOL     OW23139   3.850   1.735   6.006  0.1086 -0.1937  0.6325
 5842SOL    HW223140   3.759   1.725   5.978  0.5915 -2.3576 -0.3717
 5842SOL    HW323141   3.845   1.749   6.101 -1.2421 -2.0389  0.8811
 5842SOL    MW423142   3.838   1.735   6.015 -0.0059 -0.7226  0.5328
 5843SOL     OW23143   4.565   3.857   4.469 -0.5173  0.6392 -0.1441
 5843SOL    HW223144   4.560   3.853   4.565 -0.8383 -0.9012 -0.1957
 5843SOL    HW323145   4.496   3.798   4.439 -1.8482  2.7089 -1.3835
 5843SOL    MW423146   4.556   3.848   4.478 -0.7353  0.7090 -0.3144
 5844SOL     OW23147   1.514   5.941   5.653 -0.1915  0.3573 -0.0333
 5844SOL    HW223148   1.581   5.881   5.622 -1.4763 -0.9234 -0.4406
 5844SOL    HW323149   1.486   5.904   5.737 -0.2173  1.0272  0.2610
 5844SOL    MW423150   1.519   5.928   5.660 -0.3645  0.2767 -0.0482
 5845SOL     OW23151   0.922   1.687   2.706  0.3538 -0.0787  0.4211
 5845SOL    HW223152   0.983   1.732   2.766  1.0163  1.9250 -1.6071
 5845SOL    HW323153   0.852   1.750   2.692 -0.0640 -0.7318 -0.4820
 5845SOL    MW423154   0.921   1.701   2.712  0.3861  0.0995  0.0344
 5846SOL     OW23155   4.433   2.772   3.933 -0.4434  0.0889  0.2200
 5846SOL    HW223156   4.450   2.742   4.022  0.8356 -1.7348 -0.5705
 5846SOL    HW323157   4.397   2.860   3.943  1.1093  0.5421  2.4741
 5846SOL    MW423158   4.430   2.779   3.946 -0.0698 -0.0919  0.4131
 5847SOL     OW23159   1.449   2.970   6.339  0.0141  0.0863 -0.0364
 5847SOL    HW223160   1.397   2.969   6.258 -1.1283 -0.7708  0.6776
 5847SOL    HW323161   1.474   3.062   6.349  2.4854 -0.1215 -2.7353
 5847SOL    MW423162   1.445   2.982   6.329  0.1894 -0.0542 -0.2983
 5848SOL     OW23163   0.671   3.050   6.291  0.3463  0.1571  0.1348
 5848SOL    HW223164   0.588   3.021   6.253 -0.3243  0.7801  1.0921
 5848SOL    HW323165   0.659   3.144   6.306  0.8494  0.0576  1.2239
 5848SOL    MW423166   0.658   3.058   6.288  0.3242  0.2262  0.4048
 5849SOL     OW23167   5.669   0.338   0.333  0.4392 -0.5995  0.4491
 5849SOL    HW223168   5.665   0.366   0.242  0.3425 -1.0547  0.3081
 5849SOL    HW323169   5.589   0.288   0.347 -0.3437  0.8357  1.2662
 5849SOL    MW423170   5.658   0.335   0.323  0.3232 -0.4702  0.5383
 5850SOL     OW23171   0.779   5.420   4.210  0.2256  0.0828 -0.6517
 5850SOL    HW223172   0.837   5.349   4.238 -0.3466 -0.2561 -0.3148
 5850SOL    HW323173   0.710   5.423   4.277  0.7392  1.5766 -0.1472
 5850SOL    MW423174   0.777   5.411   4.222  0.2179  0.2352 -0.5407
 5851SOL     OW23175   0.686   0.236   0.837  0.1714 -0.1422 -0.0954
 5851SOL    HW223176   0.692   0.167   0.903 -0.9661 -0.0046  0.1704
 5851SOL    HW323177   0.653   0.313   0.885  0.4088  0.2780 -0.5984
 5851SOL    MW423178   0.682   0.237   0.852  0.0526 -0.0686 -0.1267
 5852SOL     OW23179   3.803   1.351   0.332  0.3014  0.8886 -0.1728
 5852SOL    HW223180   3.848   1.301   0.265 -0.2226  0.3628 -0.1402
 5852SOL    HW323181   3.788   1.437   0.292  0.8832  0.9047 -0.3590
 5852SOL    MW423182   3.807   1.356   0.318  0.3090  0.8214 -0.1930
 5853SOL     OW23183   3.494   2.411   6.062  0.0374 -0.1193 -0.4829
 5853SOL    HW223184   3.494   2.319   6.034  0.5183 -0.6459  1.1436
 5853SOL    HW323185   3.567   2.450   6.014  0.6790 -0.9228 -0.1797
 5853SOL    MW423186   3.503   2.404   6.052  0.1855 -0.2948 -0.2283
 5854SOL     OW23187   0.928   1.402   1.538  0.0184 -0.0748 -0.1028
 5854SOL    HW223188   0.915   1.405   1.632  0.9917 -0.8516  0.0714
 5854SOL    HW323189   0.860   1.460   1.502  0.1011  0.7943  1.1027
 5854SOL    MW423190   0.917   1.410   1.545  0.1577 -0.0626  0.0792
 5855SOL     OW23191   5.785   5.641   0.484  0.4503  0.1843  0.1035
 5855SOL    HW223192   5.872   5.644   0.444  0.5499 -0.5015  0.2600
 5855SOL    HW323193   5.802   5.630   0.578  0.2159  1.6638  0.3407
 5855SOL    MW423194   5.799   5.640   0.491  0.4325  0.2890  0.1554
 5856SOL     OW23195   4.342   1.471   2.899  0.3032 -0.1773 -0.5943
 5856SOL    HW223196   4.339   1.404   2.830 -1.5446 -1.4731  0.6618
 5856SOL    HW323197   4.405   1.437   2.963 -0.0212 -0.3072 -0.3454
 5856SOL    MW423198   4.350   1.457   2.898  0.0166 -0.3654 -0.3957
 5857SOL     OW23199   0.711   1.678   3.511  0.3167  0.0564  0.2756
 5857SOL    HW223200   0.744   1.766   3.494 -0.8307  1.1737  3.2698
 5857SOL    HW323201   0.647   1.689   3.580  0.7812 -3.2634  1.4041
 5857SOL    MW423202   0.707   1.691   3.518  0.2266 -0.2342  0.8195
 5858SOL     OW23203   2.555   3.114   0.335  0.3064 -0.0083 -0.5178
 5858SOL    HW223204   2.486   3.142   0.396  2.4270  0.4294  1.8695
 5858SOL    HW323205   2.632   3.164   0.363  1.9407 -1.4664 -2.1945
 5858SOL    MW423206   2.556   3.124   0.347  0.8018 -0.1430 -0.4240
 5859SOL     OW23207   5.694   0.803   0.275 -0.1065 -0.4305 -0.1908
 5859SOL    HW223208   5.641   0.882   0.274 -0.1229 -0.4383 -0.0151
 5859SOL    HW323209   5.646   0.741   0.220 -2.0563 -1.5718  2.5521
 5859SOL    MW423210   5.680   0.805   0.267 -0.3659 -0.5821  0.1943
 5860SOL     OW23211   0.794   1.762   5.475 -0.1874 -0.0801  0.2178
 5860SOL    HW223212   0.801   1.764   5.570  1.6938  0.2038  0.1229
 5860SOL    HW323213   0.712   1.717   5.457 -0.5336 -0.1997  1.9680
 5860SOL    MW423214   0.784   1.756   5.485  0.0151 -0.0584  0.4362
 5861SOL     OW23215   1.482   4.749   2.937 -0.7925  0.8281  0.8354
 5861SOL    HW223216   1.431   4.797   3.002  1.9491  3.6003  1.1125
 5861SOL    HW323217   1.476   4.802   2.858  1.9666  1.5694  1.0237
 5861SOL    MW423218   1.474   4.762   2.935 -0.0668  1.2917  0.8968
 5862SOL     OW23219   1.250   2.561   2.610  0.4776  0.1272  0.1371
 5862SOL    HW223220   1.259   2.468   2.588  0.5544 -0.2333  1.5806
 5862SOL    HW323221   1.339   2.589   2.633  0.4883  0.6118 -0.4766
 5862SOL    MW423222   1.263   2.553   2.610  0.4891  0.1436  0.2466
 5863SOL     OW23223   5.913   3.557   3.740  0.0942 -0.2218 -0.0110
 5863SOL    HW223224   5.932   3.463   3.747 -0.1062 -0.3485 -1.0286
 5863SOL    HW323225   5.910   3.587   3.831  0.0433 -1.2192  0.3367
 5863SOL    MW423226   5.915   3.549   3.753  0.0610 -0.3701 -0.0994
 5864SOL     OW23227   0.815   3.016   5.478  0.0699 -0.1690 -0.1020
 5864SOL    HW223228   0.802   3.056   5.564 -1.2743 -1.3825  0.2868
 5864SOL    HW323229   0.842   3.089   5.422 -2.5323  1.3919  0.5071
 5864SOL    MW423230   0.817   3.031   5.482 -0.4508 -0.1232  0.0297
 5865SOL     OW23231   1.713   1.214   2.572 -0.6028  0.0695  0.0605
 5865SOL    HW223232   1.663   1.293   2.550 -0.9877 -0.4327 -0.9273
 5865SOL    HW323233   1.758   1.236   2.653  1.6174  2.3901 -1.6463
 5865SOL    MW423234   1.712   1.227   2.580 -0.3607  0.3094 -0.2950
 5866SOL     OW23235   1.833   3.206   6.139 -0.0953  0.4742 -0.1684
 5866SOL    HW223236   1.905   3.229   6.197  0.7097  0.8746 -1.2783
 5866SOL    HW323237   1.803   3.290   6.104 -0.6145  0.2482 -0.2648
 5866SOL    MW423238   1.839   3.220   6.142 -0.0576  0.4972 -0.3275
 5867SOL     OW23239   0.546   6.304   1.597 -0.4700 -0.0862  0.1291
 5867SOL    HW223240   0.515   6.245   1.528  1.3998 -2.6134  1.2699
 5867SOL    HW323241   0.498   6.276   1.675 -0.3348  0.6589  0.4881
 5867SOL    MW423242   0.536   6.292   1.598 -0.2054 -0.3213  0.3270
 5868SOL     OW23243   5.020   0.317   0.510  0.5211 -0.0315  0.5164
 5868SOL    HW223244   5.000   0.388   0.449 -0.0763 -1.5015 -1.0620
 5868SOL    HW323245   4.935   0.298   0.552  0.5637 -0.1677  0.5408
 5868SOL    MW423246   5.006   0.324   0.508  0.4479 -0.2434  0.3114
 5869SOL     OW23247   3.982   5.692   5.518  0.0462 -0.0237  0.3239
 5869SOL    HW223248   3.940   5.608   5.535 -0.7614  0.1771 -0.5771
 5869SOL    HW323249   4.056   5.670   5.461  0.7967 -0.2973  1.3729
 5869SOL    MW423250   3.986   5.678   5.513  0.0386 -0.0333  0.3434
 5870SOL     OW23251   4.797   1.551   3.643  0.0780  0.4908 -0.3982
 5870SOL    HW223252   4.790   1.638   3.605 -2.4956  0.9191  0.8421
 5870SOL    HW323253   4.726   1.547   3.707  2.0529 -1.4014  1.8777
 5870SOL    MW423254   4.787   1.562   3.646 -0.0010  0.2977  0.0657
 5871SOL     OW23255   4.003   6.398   5.522 -1.0333  0.1358 -0.1870
 5871SOL    HW223256   3.992   6.424   5.614 -0.1013 -0.5380  0.1332
 5871SOL    HW323257   4.093   6.365   5.517 -0.9624  0.4540 -1.4185
 5871SOL    MW423258   4.013   6.397   5.533 -0.9009  0.0888 -0.3072
 5872SOL     OW23259   6.116   5.190   1.536 -0.0501 -1.1084 -0.3115
 5872SOL    HW223260   6.086   5.178   1.445 -0.7954 -0.7225 -0.1227
 5872SOL    HW323261   6.202   5.146   1.539  0.7060  0.1911 -1.6152
 5872SOL    MW423262   6.124   5.183   1.524 -0.0487 -0.8861 -0.4586
 5873SOL     OW23263   0.091   3.509   5.242  0.4720 -0.3533 -0.6705
 5873SOL    HW223264   0.169   3.509   5.186  0.6584  0.6089 -0.4274
 5873SOL    HW323265   0.068   3.417   5.251  1.2979 -0.6153 -1.1383
 5873SOL    MW423266   0.098   3.497   5.236  0.6056 -0.2609 -0.7001
 5874SOL     OW23267   4.813   2.834   0.514 -0.2755  0.3429 -0.1766
 5874SOL    HW223268   4.851   2.746   0.503 -0.0498  0.2065  1.4483
 5874SOL    HW323269   4.786   2.859   0.426  0.2915 -1.0702 -0.7921
 5874SOL    MW423270   4.815   2.826   0.501 -0.1709  0.1385 -0.0434
 5875SOL     OW23271   2.272   0.817   6.256 -0.8290 -0.0104  0.1459
 5875SOL    HW223272   2.202   0.844   6.196 -1.3712 -1.5825  0.0144
 5875SOL    HW323273   2.244   0.732   6.288  0.8224 -0.4775  0.4427
 5875SOL    MW423274   2.259   0.810   6.252 -0.6827 -0.2795  0.1678
 5876SOL     OW23275   2.925   5.717   4.440  0.1841 -0.6138 -0.0355
 5876SOL    HW223276   2.923   5.729   4.345  0.6027 -1.1393 -0.1105
 5876SOL    HW323277   2.969   5.795   4.473 -0.7963  0.0304 -0.1873
 5876SOL    MW423278   2.930   5.729   4.432  0.1100 -0.5981 -0.0654
 5877SOL     OW23279   6.354   0.686   5.741 -0.2504 -0.4715  0.0428
 5877SOL    HW223280   6.398   0.730   5.813  2.4354 -0.2265 -1.5983
 5877SOL    HW323281   6.283   0.745   5.715 -0.2732  0.1431  1.4351
 5877SOL    MW423282   6.350   0.699   5.747  0.1009 -0.3581  0.0100
 5878SOL     OW23283   1.812   1.133   4.722 -0.3099 -0.3019  0.0741
 5878SOL    HW223284   1.748   1.204   4.710  0.8804  0.5055 -1.9079
 5878SOL    HW323285   1.761   1.053   4.709 -1.1972  0.2582 -0.0221
 5878SOL    MW423286   1.797   1.132   4.719 -0.2699 -0.1214 -0.2001
 5879SOL     OW23287   3.201   4.228   2.250  0.1881 -0.2593 -0.5322
 5879SOL    HW223288   3.203   4.185   2.336 -0.4980  0.4149 -0.1703
 5879SOL    HW323289   3.276   4.191   2.204  0.8761 -0.2513  0.5341
 5879SOL    MW423290   3.211   4.217   2.256  0.1883 -0.1693 -0.3437
 5880SOL     OW23291   0.981   4.463   1.099 -0.2271 -0.6369  0.1417
 5880SOL    HW223292   1.040   4.426   1.165 -0.1734 -0.3633  0.2513
 5880SOL    HW323293   0.981   4.400   1.028  1.2236 -0.0329 -0.4297
 5880SOL    MW423294   0.989   4.450   1.098 -0.0286 -0.5211  0.0808
 5881SOL     OW23295   1.277   5.158   5.804 -0.0233 -0.6340  0.2277
 5881SOL    HW223296   1.239   5.218   5.740  1.8138 -0.0272 -0.3453
 5881SOL    HW323297   1.262   5.201   5.888  0.7451  0.3646 -0.1279
 5881SOL    MW423298   1.270   5.172   5.807  0.3205 -0.4222  0.1052
 5882SOL     OW23299   5.658   1.661   1.076  0.2973  0.7714 -0.5702
 5882SOL    HW223300   5.641   1.755   1.088  1.2950  1.0953 -1.4945
 5882SOL    HW323301   5.619   1.640   0.991  0.6272  0.4970 -0.6549
 5882SOL    MW423302   5.651   1.671   1.066  0.4724  0.7779 -0.7034
 5883SOL     OW23303   2.302   0.778   3.254  0.2122  0.1196  0.1768
 5883SOL    HW223304   2.397   0.785   3.245  0.2154 -0.6119 -0.5580
 5883SOL    HW323305   2.286   0.685   3.266 -0.4455  0.1633 -0.2774
 5883SOL    MW423306   2.312   0.767   3.254  0.1258  0.0289  0.0199
 5884SOL     OW23307   3.186   3.465   1.936  0.1895 -0.3191  0.2016
 5884SOL    HW223308   3.150   3.453   1.849 -1.0419  0.6537  0.5516
 5884SOL    HW323309   3.226   3.380   1.957 -1.8806 -1.4731 -0.2373
 5884SOL    MW423310   3.187   3.452   1.928 -0.2461 -0.3430  0.1898
 5885SOL     OW23311   5.011   5.630   5.108  0.0959  0.0890  0.2938
 5885SOL    HW223312   5.065   5.694   5.154  0.7623  0.5312 -1.0482
 5885SOL    HW323313   5.042   5.545   5.140  1.0239  0.3664  0.1488
 5885SOL    MW423314   5.022   5.627   5.118  0.3063  0.1839  0.0976
 5886SOL     OW23315   6.005   1.104   0.788  0.5458  0.1125 -0.3618
 5886SOL    HW223316   5.980   1.196   0.778 -0.9191 -0.3188 -0.9419
 5886SOL    HW323317   6.076   1.105   0.851  0.7356  1.6720 -0.5681
 5886SOL    MW423318   6.011   1.116   0.795  0.3776  0.2613 -0.4656
 5887SOL     OW23319   5.048   0.006   0.160  0.0724  0.0403  0.2169
 5887SOL    HW223320   4.974  -0.041   0.198  0.4390 -0.4877  0.2907
 5887SOL    HW323321   5.083   0.057   0.232 -0.7871  1.0377 -0.0427
 5887SOL    MW423322   5.043   0.007   0.175  0.0074  0.1023  0.1924
 5888SOL     OW23323   2.445   4.381   0.153  0.2209  0.1304 -0.1392
 5888SOL    HW223324   2.487   4.345   0.076 -2.1530 -0.4899 -1.2497
 5888SOL    HW323325   2.437   4.475   0.135  0.4149  0.1230 -0.2614
 5888SOL    MW423326   2.449   4.389   0.140 -0.0667  0.0476 -0.3018
 5889SOL     OW23327   1.301   3.644   1.651  0.1878  0.2971  0.3910
 5889SOL    HW223328   1.254   3.613   1.574  0.9943  0.3064 -0.1110
 5889SOL    HW323329   1.306   3.739   1.640 -1.1776  0.5109  1.3099
 5889SOL    MW423330   1.296   3.652   1.640  0.1141  0.3265  0.4460
 5890SOL     OW23331   2.386   2.463   4.730  0.0413 -0.1138  0.3620
 5890SOL    HW223332   2.436   2.390   4.766  0.4989  0.4945  0.9885
 5890SOL    HW323333   2.298   2.452   4.767 -0.4958 -1.4922 -1.1656
 5890SOL    MW423334   2.381   2.452   4.739  0.0308 -0.2154  0.2431
 5891SOL     OW23335   1.001   5.100   0.353 -0.0559 -0.3120  0.1838
 5891SOL    HW223336   1.025   5.193   0.355 -1.7056  0.1291  0.7648
 5891SOL    HW323337   1.085   5.054   0.362  0.9016  1.0788 -1.0067
 5891SOL    MW423338   1.016   5.106   0.354 -0.1472 -0.0703  0.1034
 5892SOL     OW23339   2.872   5.806   6.341  0.5147  0.4064 -0.0881
 5892SOL    HW223340   2.894   5.883   6.393  0.4495 -0.3906  1.1785
 5892SOL    HW323341   2.787   5.778   6.375 -0.0906  0.5383 -1.4571
 5892SOL    MW423342   2.864   5.812   6.352  0.4263  0.3186 -0.1016
 5893SOL     OW23343   5.597   1.882   1.452 -0.0113 -0.0560 -0.0146
 5893SOL    HW223344   5.689   1.868   1.429  0.2190  0.2324  0.6866
 5893SOL    HW323345   5.553   1.802   1.423  0.4454 -0.1635 -0.4342
 5893SOL    MW423346   5.603   1.869   1.445  0.0793 -0.0321  0.0225
 5894SOL     OW23347   1.125   4.581   4.565 -0.3568 -0.1898  0.0797
 5894SOL    HW223348   1.041   4.579   4.611 -1.2090  0.4430 -1.3743
 5894SOL    HW323349   1.190   4.562   4.632 -1.4040  2.0214  1.8450
 5894SOL    MW423350   1.122   4.578   4.580 -0.6074  0.1854  0.1208
 5895SOL     OW23351   5.996   6.049   1.904 -0.1140 -0.1312  0.2964
 5895SOL    HW223352   5.995   6.125   1.962 -1.1603  0.7515 -0.8165
 5895SOL    HW323353   5.927   5.992   1.938 -0.6954  0.3631 -0.0366
 5895SOL    MW423354   5.987   6.052   1.916 -0.3288  0.0505  0.1056
 5896SOL     OW23355   2.766   2.296   0.499 -0.5454 -0.3785  0.5520
 5896SOL    HW223356   2.859   2.296   0.524 -0.7037  1.3488  1.2705
 5896SOL    HW323357   2.768   2.296   0.403  0.2128  0.1136  0.5550
 5896SOL    MW423358   2.779   2.296   0.490 -0.4663 -0.0857  0.6472
 5897SOL     OW23359   4.630   0.522   5.950  0.3001  0.1116  0.4023
 5897SOL    HW223360   4.700   0.478   5.901 -0.5583 -1.6578  0.6527
 5897SOL    HW323361   4.571   0.450   5.976 -0.1196  1.1799  2.6486
 5897SOL    MW423362   4.631   0.507   5.947  0.1315  0.0191  0.7317
 5898SOL     OW23363   3.780   4.479   3.237  0.2449  0.1359  0.1021
 5898SOL    HW223364   3.789   4.546   3.305  0.8741  1.3576 -1.1277
 5898SOL    HW323365   3.791   4.527   3.155  2.3598 -1.7136 -0.7993
 5898SOL    MW423366   3.783   4.494   3.235  0.6070  0.0531 -0.1791
 5899SOL     OW23367   2.405   0.904   4.998 -0.2374  0.5053 -0.6367
 5899SOL    HW223368   2.472   0.951   5.046  2.9519 -2.5910 -1.5915
 5899SOL    HW323369   2.362   0.849   5.064 -0.6774  1.2522 -0.2916
 5899SOL    MW423370   2.408   0.903   5.013  0.1253  0.1953 -0.7171
 5900SOL     OW23371   5.170   0.435   3.556 -0.3432  0.0308  0.2721
 5900SOL    HW223372   5.173   0.500   3.626  0.3501  0.0723  0.2079
 5900SOL    HW323373   5.219   0.475   3.484  0.7577 -0.8709  0.4958
 5900SOL    MW423374   5.177   0.449   3.556 -0.1065 -0.0827  0.2931
 5901SOL     OW23375   2.211   3.633   5.262 -0.2900 -0.0601 -0.0673
 5901SOL    HW223376   2.163   3.670   5.336  0.4857  1.0035 -0.0749
 5901SOL    HW323377   2.143   3.601   5.203 -1.0940  2.6626 -0.7429
 5901SOL    MW423378   2.195   3.633   5.264 -0.2937  0.4395 -0.1575
 5902SOL     OW23379   2.254   2.501   0.828 -0.0736 -0.7162 -0.5399
 5902SOL    HW223380   2.242   2.580   0.774 -1.9370 -0.5639  0.0067
 5902SOL    HW323381   2.324   2.523   0.888 -0.3442  0.4209 -0.6124
 5902SOL    MW423382   2.261   2.515   0.829 -0.3552 -0.5461 -0.4773
 5903SOL     OW23383   6.060   4.757   2.313 -0.1695 -0.6733 -0.3919
 5903SOL    HW223384   6.117   4.761   2.236 -0.5640 -3.0475 -0.8852
 5903SOL    HW323385   5.973   4.739   2.277 -1.0523  1.5940  0.4459
 5903SOL    MW423386   6.056   4.755   2.298 -0.3381 -0.6874 -0.3464
 5904SOL     OW23387   5.952   5.367   2.652  0.0816  0.3768 -0.1420
 5904SOL    HW223388   5.887   5.432   2.677  1.1990  1.5682 -0.2093
 5904SOL    HW323389   5.909   5.313   2.586 -0.3737  2.0567 -1.2689
 5904SOL    MW423390   5.938   5.369   2.646  0.1689  0.7556 -0.2996
 5905SOL     OW23391   5.790   4.593   1.463 -0.3199  0.2992 -0.2911
 5905SOL    HW223392   5.807   4.617   1.372  1.6059 -1.1125 -0.3667
 5905SOL    HW323393   5.813   4.500   1.468 -1.7033  0.0010  1.3456
 5905SOL    MW423394   5.796   4.584   1.452 -0.2483  0.0736 -0.0851
 5906SOL     OW23395   5.668   0.278   4.221 -0.0010 -0.2597  0.2002
 5906SOL    HW223396   5.752   0.251   4.257  0.3297  1.4264  0.7423
 5906SOL    HW323397   5.611   0.288   4.297  0.4880  2.5804  0.2914
 5906SOL    MW423398   5.671   0.276   4.236  0.1071  0.3375  0.2838
 5907SOL     OW23399   2.628   5.550   5.285  0.0239  0.7571 -0.2754
 5907SOL    HW223400   2.591   5.630   5.248  1.3990  0.9752 -1.2444
 5907SOL    HW323401   2.648   5.572   5.376  1.6474  1.9757 -0.8935
 5907SOL    MW423402   2.625   5.563   5.292  0.4195  0.9466 -0.4848
 5908SOL     OW23403   3.210   0.166   5.633  0.2485  0.5000 -0.0821
 5908SOL    HW223404   3.231   0.258   5.617 -2.5508  1.2821  0.1870
 5908SOL    HW323405   3.288   0.130   5.675  1.6823  2.5462 -0.8426
 5908SOL    MW423406   3.223   0.173   5.636  0.0683  0.8731 -0.1469
 5909SOL     OW23407   4.058   4.719   2.901 -0.0223  0.0522 -0.1730
 5909SOL    HW223408   4.122   4.682   2.962 -0.0194 -0.8924 -0.7327
 5909SOL    HW323409   4.096   4.804   2.876  0.4739 -0.0097  0.3418
 5909SOL    MW423410   4.072   4.726   2.906  0.0435 -0.0806 -0.1789
 5910SOL     OW23411   3.140   3.944   3.591 -0.4178  0.0013  0.0482
 5910SOL    HW223412   3.088   3.899   3.524 -0.3828  0.1757 -0.0968
 5910SOL    HW323413   3.114   4.035   3.584  0.2325  0.1579 -0.3240
 5910SOL    MW423414   3.129   3.950   3.581 -0.3274  0.0449 -0.0201
 5911SOL     OW23415   5.832   5.554   4.017  0.0696 -1.0718 -0.6453
 5911SOL    HW223416   5.848   5.622   4.082 -1.0395 -1.5542  0.1619
 5911SOL    HW323417   5.800   5.600   3.940 -0.9897 -0.6945  0.0075
 5911SOL    MW423418   5.830   5.569   4.016 -0.2165 -1.0857 -0.4526
 5912SOL     OW23419   4.357   1.244   0.530 -0.1213 -0.2893 -1.1184
 5912SOL    HW223420   4.277   1.193   0.512  1.3513 -2.6899 -1.2593
 5912SOL    HW323421   4.390   1.209   0.612  1.0980  0.2552 -1.3589
 5912SOL    MW423422   4.351   1.233   0.538  0.2338 -0.5342 -1.1687
 5913SOL     OW23423   5.839   3.057   5.572 -0.2522  0.3778  0.0767
 5913SOL    HW223424   5.926   3.058   5.612 -0.4586  1.7007  0.5715
 5913SOL    HW323425   5.850   3.007   5.491  0.9530  0.4507  0.1712
 5913SOL    MW423426   5.852   3.051   5.567 -0.1204  0.5620  0.1544
 5914SOL     OW23427   3.927   3.259   2.033 -0.1763  0.2472  0.0185
 5914SOL    HW223428   3.937   3.197   2.106  1.0652 -1.6075 -1.6109
 5914SOL    HW323429   3.866   3.215   1.973 -1.3985  1.8622  0.0129
 5914SOL    MW423430   3.920   3.245   2.035 -0.1737  0.2156 -0.1972
 5915SOL     OW23431   4.935   0.083   5.080  0.0840  0.1294 -0.6227
 5915SOL    HW223432   4.984   0.015   5.126  0.1522  0.1915 -0.6049
 5915SOL    HW323433   5.002   0.134   5.035 -0.0105 -0.2126 -1.1703
 5915SOL    MW423434   4.950   0.080   5.080  0.0805  0.0925 -0.6926
 5916SOL     OW23435   5.007   6.381   2.834 -0.4996 -0.1259  0.1540
 5916SOL    HW223436   5.006   6.442   2.908 -0.6442  0.0519  0.0112
 5916SOL    HW323437   4.918   6.387   2.798 -0.5418 -0.4976  0.1987
 5916SOL    MW423438   4.995   6.390   2.839 -0.5243 -0.1515  0.1411
 5917SOL     OW23439   3.554   4.829   2.457  0.3207 -0.0762  0.3183
 5917SOL    HW223440   3.545   4.834   2.552  1.4399  1.7161  0.3794
 5917SOL    HW323441   3.649   4.831   2.442  0.1943 -1.3006 -0.8129
 5917SOL    MW423442   3.565   4.830   2.468  0.4517 -0.0013  0.1771
 5918SOL     OW23443   0.943   4.210   3.746 -0.5879 -0.0604  0.0625
 5918SOL    HW223444   0.980   4.141   3.801  1.4987  0.0709 -1.0603
 5918SOL    HW323445   0.897   4.268   3.807  0.0732 -0.9129  1.4086
 5918SOL    MW423446   0.942   4.209   3.761 -0.2254 -0.1555  0.0919
 5919SOL     OW23447   1.821   2.416   3.577  0.4537 -0.5488 -0.5329
 5919SOL    HW223448   1.882   2.412   3.651  0.3593 -0.5868 -0.4562
 5919SOL    HW323449   1.776   2.500   3.587 -0.5899 -1.1814  0.2826
 5919SOL    MW423450   1.823   2.426   3.588  0.3035 -0.6373 -0.4152
 5920SOL     OW23451   4.856   3.828   3.714  0.4948  0.0612  0.6366
 5920SOL    HW223452   4.856   3.886   3.637  1.5980 -1.5593 -0.6526
 5920SOL    HW323453   4.937   3.778   3.706 -0.1179 -1.2202  2.0460
 5920SOL    MW423454   4.866   3.829   3.703  0.5595 -0.3217  0.6525
 5921SOL     OW23455   2.365   4.063   0.217 -1.0085 -0.0508  0.7109
 5921SOL    HW223456   2.295   4.011   0.176  0.9138 -0.8877 -1.7951
 5921SOL    HW323457   2.414   4.000   0.269  0.3122 -0.4538 -0.9510
 5921SOL    MW423458   2.362   4.048   0.218 -0.5806 -0.2144  0.1610
 5922SOL     OW23459   0.159   3.802   2.860 -0.1759 -0.1060 -0.4660
 5922SOL    HW223460   0.153   3.865   2.788  2.2110  2.8377  1.6536
 5922SOL    HW323461   0.253   3.786   2.871 -0.4400 -0.4286  1.9642
 5922SOL    MW423462   0.171   3.808   2.852  0.1042  0.2398  0.1343
 5923SOL     OW23463   2.039   1.700   0.078  0.0690  0.3462  0.0274
 5923SOL    HW223464   2.060   1.750  -0.001 -2.7638 -1.2313 -1.9034
 5923SOL    HW323465   1.964   1.745   0.116 -0.2620 -0.4024  0.2800
 5923SOL    MW423466   2.032   1.712   0.073 -0.3484  0.0393 -0.1940
 5924SOL     OW23467   1.629   0.829   1.131  0.2032  0.3447  0.7605
 5924SOL    HW223468   1.597   0.866   1.213  0.1315  0.4252  0.6961
 5924SOL    HW323469   1.594   0.740   1.129 -1.2910  0.9088 -0.0197
 5924SOL    MW423470   1.620   0.822   1.141 -0.0034  0.4297  0.6491
 5925SOL     OW23471   1.698   3.845   3.275 -0.0057 -0.3097  0.2007
 5925SOL    HW223472   1.676   3.805   3.359 -0.5439 -0.5849 -0.0694
 5925SOL    HW323473   1.764   3.910   3.297 -1.7917  1.2687  1.1941
 5925SOL    MW423474   1.704   3.848   3.289 -0.3124 -0.1378  0.2961
 5926SOL     OW23475   6.312   5.984   2.282  0.2466 -0.0309  0.3926
 5926SOL    HW223476   6.324   5.942   2.197 -0.7159  0.6443 -0.1003
 5926SOL    HW323477   6.372   6.059   2.282 -1.7015  1.6518 -0.8967
 5926SOL    MW423478   6.322   5.989   2.271 -0.1374  0.2802  0.1575
 5927SOL     OW23479   6.269   4.906   3.990  0.2209 -0.3327 -0.4398
 5927SOL    HW223480   6.185   4.863   4.004 -0.6716  1.4674  0.1438
 5927SOL    HW323481   6.333   4.835   3.991 -1.2870 -1.7695 -1.0381
 5927SOL    MW423482   6.267   4.891   3.992 -0.0958 -0.2848 -0.4417
 5928SOL     OW23483   6.271   1.302   6.035  0.0751 -0.2322  0.7847
 5928SOL    HW223484   6.189   1.306   5.985  0.4150 -1.2212  0.1302
 5928SOL    HW323485   6.261   1.226   6.092  0.8393 -0.8259  0.1441
 5928SOL    MW423486   6.259   1.292   6.036  0.2207 -0.4410  0.6138
 5929SOL     OW23487   4.890   1.328   2.022  0.2844  0.0852 -0.0418
 5929SOL    HW223488   4.878   1.266   1.951 -3.0592 -1.3296  1.5562
 5929SOL    HW323489   4.972   1.301   2.064  0.5129 -1.2120 -1.2717
 5929SOL    MW423490   4.899   1.316   2.018 -0.1266 -0.2726  0.0068
 5930SOL     OW23491   3.836   4.226   2.986 -0.1905 -0.2305  0.0590
 5930SOL    HW223492   3.788   4.159   3.035 -2.4510  0.3560 -1.2040
 5930SOL    HW323493   3.893   4.267   3.051 -1.9366 -0.5077  1.8622
 5930SOL    MW423494   3.837   4.223   3.001 -0.7192 -0.1897  0.1303
 5931SOL     OW23495   4.558   5.832   5.120 -0.1056  0.8789 -0.1427
 5931SOL    HW223496   4.502   5.828   5.198  0.2739 -2.2060  0.1092
 5931SOL    HW323497   4.512   5.891   5.060 -2.9147 -0.3842  0.5977
 5931SOL    MW423498   4.545   5.839   5.123 -0.4262  0.3052 -0.0118
 5932SOL     OW23499   0.776   3.246   1.583  0.1033 -0.0102  0.1172
 5932SOL    HW223500   0.750   3.155   1.568 -1.1442  0.1024  1.4110
 5932SOL    HW323501   0.737   3.295   1.512  0.4551 -0.4271 -0.3701
 5932SOL    MW423502   0.768   3.241   1.572 -0.0149 -0.0504  0.2236
 5933SOL     OW23503   5.521   1.598   4.187 -0.5455  0.6723  0.9213
 5933SOL    HW223504   5.451   1.662   4.169  0.1229  1.0471 -0.5001
 5933SOL    HW323505   5.498   1.562   4.272 -0.3355  3.6470  2.3766
 5933SOL    MW423506   5.509   1.602   4.196 -0.4296  1.1142  0.9258
 5934SOL     OW23507   0.414   5.945   5.536 -0.7082  0.5350  0.2490
 5934SOL    HW223508   0.482   6.001   5.574 -0.2758 -1.3418  2.4427
 5934SOL    HW323509   0.334   5.969   5.583 -1.5749  2.3000 -1.8984
 5934SOL    MW423510   0.412   5.956   5.547 -0.7655  0.5202  0.2551
 5935SOL     OW23511   3.671   5.791   0.459 -0.3003  0.1193 -0.3335
 5935SOL    HW223512   3.653   5.732   0.533 -0.8229  0.2971 -0.3158
 5935SOL    HW323513   3.761   5.820   0.473 -1.2207  2.3343  1.7909
 5935SOL    MW423514   3.680   5.787   0.471 -0.4907  0.4350 -0.0509
 5936SOL     OW23515   5.740   3.563   2.262  0.2731  0.2905  0.0703
 5936SOL    HW223516   5.788   3.645   2.252  0.9631 -0.0063  0.8884
 5936SOL    HW323517   5.805   3.500   2.292 -0.4770 -0.2995  0.4877
 5936SOL    MW423518   5.755   3.565   2.265  0.2651  0.1735  0.2333
 5937SOL     OW23519   6.170   4.873   4.711  0.0040  0.1231 -0.0031
 5937SOL    HW223520   6.207   4.799   4.759  1.2456  1.3121  0.9245
 5937SOL    HW323521   6.082   4.843   4.686  0.6879 -1.8786 -0.1898
 5937SOL    MW423522   6.163   4.859   4.714  0.2581  0.0159  0.0947
 5938SOL     OW23523   1.182   0.452   4.790  0.6310 -0.2185 -0.2116
 5938SOL    HW223524   1.140   0.460   4.876 -0.8792 -0.6454 -0.8920
 5938SOL    HW323525   1.124   0.397   4.739  1.9173 -0.6452 -1.2852
 5938SOL    MW423526   1.169   0.446   4.795  0.6014 -0.3312 -0.4430
 5939SOL     OW23527   2.421   1.597   5.655  0.3444 -0.4221 -0.4292
 5939SOL    HW223528   2.349   1.539   5.630  0.4981 -0.0988 -1.6791
 5939SOL    HW323529   2.445   1.568   5.744 -1.4575 -0.3840  0.1160
 5939SOL    MW423530   2.414   1.586   5.664  0.1269 -0.3744 -0.5222
 5940SOL     OW23531   0.272   0.709   1.918 -0.2374 -0.4655  0.1067
 5940SOL    HW223532   0.294   0.631   1.868  2.6992 -0.5478  1.3302
 5940SOL    HW323533   0.312   0.781   1.870 -1.5361  0.1194 -0.1498
 5940SOL    MW423534   0.280   0.708   1.905 -0.0213 -0.3992  0.2343
 5941SOL     OW23535   4.898   0.672   3.774  0.4981  0.1628  0.1097
 5941SOL    HW223536   4.915   0.756   3.733 -0.5339  0.4589  0.2677
 5941SOL    HW323537   4.962   0.666   3.845  0.3312  0.9896  0.3421
 5941SOL    MW423538   4.908   0.682   3.778  0.3399  0.3110  0.1612
 5942SOL     OW23539   6.189   2.443   1.815 -0.0285  0.1322  0.3942
 5942SOL    HW223540   6.200   2.396   1.897  0.7054 -1.6790 -0.7006
 5942SOL    HW323541   6.247   2.519   1.822  0.6590 -0.4641  1.2060
 5942SOL    MW423542   6.198   2.447   1.827  0.1590 -0.1854  0.3569
 5943SOL     OW23543   6.187   2.095   6.033 -0.0382 -0.0883 -0.1220
 5943SOL    HW223544   6.108   2.148   6.017  0.9128  1.4037 -0.0864
 5943SOL    HW323545   6.258   2.159   6.035  0.9699 -1.1977  1.5932
 5943SOL    MW423546   6.186   2.110   6.031  0.2203 -0.0378  0.1090
 5944SOL     OW23547   1.500   0.981   5.114  0.0045  0.0803  0.1587
 5944SOL    HW223548   1.553   0.924   5.058 -0.4084 -0.5508  0.4097
 5944SOL    HW323549   1.412   0.944   5.110 -0.1999  0.5085  0.5840
 5944SOL    MW423550   1.496   0.969   5.106 -0.0769  0.0535  0.2479
 5945SOL     OW23551   0.064   3.336   5.741  0.9692 -0.4236  0.3670
 5945SOL    HW223552   0.149   3.367   5.774  1.3873  0.7706 -1.6395
 5945SOL    HW323553   0.010   3.415   5.735  0.4960 -0.8000 -0.5459
 5945SOL    MW423554   0.068   3.351   5.744  0.9619 -0.3157 -0.0182
 5946SOL     OW23555   4.714   6.418   4.481  0.3397 -0.0663  0.7276
 5946SOL    HW223556   4.757   6.500   4.505 -1.9403  1.8618 -1.2955
 5946SOL    HW323557   4.637   6.413   4.537 -2.3946  2.0326 -2.4843
 5946SOL    MW423558   4.710   6.428   4.491 -0.3219  0.4650  0.0369
 5947SOL     OW23559   5.807   2.653   6.202 -0.2836  0.0598 -0.8077
 5947SOL    HW223560   5.780   2.664   6.111  0.9941 -0.3976 -1.2606
 5947SOL    HW323561   5.858   2.731   6.222  1.4178 -0.8979 -1.2522
 5947SOL    MW423562   5.810   2.665   6.193  0.1095 -0.1269 -0.9261
 5948SOL     OW23563   4.638   5.456   4.704 -0.0014 -0.5345  1.0224
 5948SOL    HW223564   4.710   5.452   4.642  0.0125 -2.3628  1.0814
 5948SOL    HW323565   4.670   5.408   4.781 -1.0345 -0.8436  1.2856
 5948SOL    MW423566   4.652   5.449   4.706 -0.1359 -0.8165  1.0649
 5949SOL     OW23567   0.716   2.411   4.999  0.2304  0.2864  0.3254
 5949SOL    HW223568   0.770   2.333   4.987 -0.9398 -0.2808 -1.7148
 5949SOL    HW323569   0.651   2.386   5.064 -2.6245 -1.9769 -3.0700
 5949SOL    MW423570   0.715   2.397   5.006 -0.3007 -0.0871 -0.3918
 5950SOL     OW23571   4.316   1.144   5.885 -0.1824  0.3799  0.1453
 5950SOL    HW223572   4.223   1.151   5.905 -0.1703  0.6798  0.1084
 5950SOL    HW323573   4.322   1.077   5.818 -0.6030  1.8021 -1.3776
 5950SOL    MW423574   4.304   1.136   5.879 -0.2363  0.6071 -0.0605
 5951SOL     OW23575   1.770   5.548   1.160 -0.1313  0.6081  0.1303
 5951SOL    HW223576   1.751   5.559   1.253  0.3426  1.4094  0.1432
 5951SOL    HW323577   1.686   5.563   1.117 -0.7912 -1.6613  0.5214
 5951SOL    MW423578   1.757   5.552   1.166 -0.1559  0.4144  0.1836
 5952SOL     OW23579   0.223   0.554   0.538 -0.0832  0.0339 -0.0066
 5952SOL    HW223580   0.143   0.506   0.518  0.2689 -0.4698 -0.2248
 5952SOL    HW323581   0.202   0.603   0.618 -0.3214 -0.8059  0.4561
 5952SOL    MW423582   0.210   0.554   0.546 -0.0682 -0.1433  0.0256
 5953SOL     OW23583   1.956   0.027   0.710  0.0075  0.4900  0.3736
 5953SOL    HW223584   1.891   0.036   0.640  1.5256  0.3079 -1.1210
 5953SOL    HW323585   1.979  -0.066   0.710 -0.3244  0.3897  1.4799
 5953SOL    MW423586   1.950   0.016   0.701  0.1640  0.4527  0.3224
 5954SOL     OW23587   2.401   2.426   5.490  0.1489 -0.0321  0.1698
 5954SOL    HW223588   2.307   2.414   5.502  0.2014 -2.6853 -1.3824
 5954SOL    HW323589   2.409   2.463   5.402  0.5556  1.7649  0.9131
 5954SOL    MW423590   2.389   2.429   5.480  0.2095 -0.1450  0.0631
 5955SOL     OW23591   3.528   1.382   6.409 -0.2269 -0.3307 -0.1818
 5955SOL    HW223592   3.434   1.399   6.417 -0.5658 -1.4840 -1.4280
 5955SOL    HW323593   3.538   1.289   6.429  0.7863 -0.0405  0.7782
 5955SOL    MW423594   3.517   1.372   6.413 -0.1379 -0.4446 -0.2196
 5956SOL     OW23595   1.449   3.010   3.274  0.0071  0.0293  0.0508
 5956SOL    HW223596   1.529   3.023   3.222  0.4655 -2.1252  0.1482
 5956SOL    HW323597   1.481   2.983   3.360 -0.8239 -1.0979  0.0147
 5956SOL    MW423598   1.464   3.008   3.278 -0.0421 -0.4037  0.0589
 5957SOL     OW23599   2.275   2.704   0.649  0.5826 -0.3434 -0.4123
 5957SOL    HW223600   2.328   2.784   0.641 -0.5304  0.4001 -0.6526
 5957SOL    HW323601   2.185   2.736   0.653  0.2255 -1.4648  1.9164
 5957SOL    MW423602   2.270   2.719   0.648  0.3887 -0.3932 -0.1367
 5958SOL     OW23603   2.889   0.423   5.354 -0.2552 -0.4478  0.1920
 5958SOL    HW223604   2.954   0.352   5.352  0.4254  0.1540  0.4759
 5958SOL    HW323605   2.902   0.469   5.272  0.4824  0.3629  0.7402
 5958SOL    MW423606   2.899   0.420   5.343 -0.0681 -0.2614  0.3018
 5959SOL     OW23607   3.182   2.387   4.217 -0.3150 -0.1333 -0.1225
 5959SOL    HW223608   3.144   2.446   4.151 -0.1523  0.7980  0.5860
 5959SOL    HW323609   3.267   2.426   4.238 -0.8283  0.2339  1.4359
 5959SOL    MW423610   3.188   2.400   4.211 -0.3613  0.0380  0.1766
 5960SOL     OW23611   3.447   4.731   1.846  0.0047 -0.5964  0.0084
 5960SOL    HW223612   3.464   4.767   1.759 -0.1753  0.3787  0.3686
 5960SOL    HW323613   3.437   4.807   1.902 -2.0725 -1.1823  0.4940
 5960SOL    MW423614   3.448   4.746   1.842 -0.2931 -0.5450  0.1200
 5961SOL     OW23615   4.081   5.738   6.077  0.1053  0.5113 -1.1424
 5961SOL    HW223616   4.093   5.661   6.021 -0.4165  1.0355 -2.0173
 5961SOL    HW323617   4.059   5.809   6.015 -1.9617  0.7929 -0.1855
 5961SOL    MW423618   4.080   5.737   6.061 -0.2363  0.6176 -1.1316
 5962SOL     OW23619   3.440   3.478   6.124  0.1305  0.3269  0.7066
 5962SOL    HW223620   3.402   3.397   6.158  1.6825 -2.1917 -2.9358
 5962SOL    HW323621   3.365   3.538   6.116 -2.2949 -2.6624 -1.4451
 5962SOL    MW423622   3.425   3.476   6.127  0.0153 -0.3998 -0.0579
 5963SOL     OW23623   0.927   0.886   2.517 -0.2034 -0.6004  0.3537
 5963SOL    HW223624   0.846   0.929   2.545  0.0674 -0.8349  1.5536
 5963SOL    HW323625   0.901   0.795   2.500 -0.8295 -0.0083 -2.4290
 5963SOL    MW423626   0.913   0.880   2.518 -0.2503 -0.5533  0.1449
 5964SOL     OW23627   3.325   4.562   5.920  0.1104 -0.0849  0.0860
 5964SOL    HW223628   3.300   4.549   6.011 -0.6937 -1.8860 -0.3373
 5964SOL    HW323629   3.343   4.473   5.887 -0.9105  0.3671 -1.8531
 5964SOL    MW423630   3.324   4.549   5.928 -0.1304 -0.2629 -0.2257
 5965SOL     OW23631   5.709   1.690   2.897  0.0284 -0.4232  0.0006
 5965SOL    HW223632   5.704   1.607   2.850 -0.1420 -0.1633 -0.4429
 5965SOL    HW323633   5.763   1.671   2.974 -0.4182 -1.0613  0.1581
 5965SOL    MW423634   5.716   1.677   2.901 -0.0530 -0.4731 -0.0371
 5966SOL     OW23635   1.944   5.000   4.727 -0.1508 -0.7444 -0.4737
 5966SOL    HW223636   2.012   5.038   4.782  2.3231 -1.3991 -2.8915
 5966SOL    HW323637   1.890   5.075   4.702  0.5662  0.0482  0.2793
 5966SOL    MW423638   1.946   5.015   4.731  0.2702 -0.7262 -0.6934
 5967SOL     OW23639   2.326   1.495   1.171 -0.2796  0.0122 -0.1342
 5967SOL    HW223640   2.338   1.518   1.079 -0.1671 -1.3999 -0.4997
 5967SOL    HW323641   2.380   1.557   1.219  0.6666 -0.0227 -1.1122
 5967SOL    MW423642   2.335   1.506   1.165 -0.1399 -0.1787 -0.3114
 5968SOL     OW23643   5.341   0.652   5.054 -0.1616  0.4248  0.0088
 5968SOL    HW223644   5.356   0.727   4.997 -1.3336 -0.7729 -1.9870
 5968SOL    HW323645   5.253   0.621   5.031 -0.2828 -0.7187  1.7834
 5968SOL    MW423646   5.331   0.657   5.044 -0.3322  0.1159 -0.0204
 5969SOL     OW23647   5.648   1.369   0.439 -0.3322  0.0049 -0.5169
 5969SOL    HW223648   5.717   1.342   0.378 -0.9317  1.6013 -1.9829
 5969SOL    HW323649   5.647   1.465   0.433 -0.8599  0.1819  1.5501
 5969SOL    MW423650   5.657   1.378   0.430 -0.4809  0.2389 -0.4376
 5970SOL     OW23651   5.221   4.271   6.156 -0.1093  0.1467 -0.5520
 5970SOL    HW223652   5.211   4.366   6.153 -2.3740 -0.0432 -2.2611
 5970SOL    HW323653   5.227   4.250   6.249 -5.1581  1.6291  0.4060
 5970SOL    MW423654   5.220   4.281   6.168 -1.0742  0.3172 -0.6511
 5971SOL     OW23655   0.293   1.706   4.659  0.0244 -0.4011 -0.3375
 5971SOL    HW223656   0.235   1.708   4.735 -0.0781  1.1700 -0.4353
 5971SOL    HW323657   0.367   1.650   4.687 -1.6666 -2.8048 -0.3675
 5971SOL    MW423658   0.295   1.699   4.673 -0.2123 -0.5109 -0.3543
 5972SOL     OW23659   5.974   0.363   0.884 -0.2483  0.1746  0.0364
 5972SOL    HW223660   5.956   0.326   0.798  1.7185  1.0312 -0.7878
 5972SOL    HW323661   5.893   0.409   0.908 -0.6622  0.3109 -1.5641
 5972SOL    MW423662   5.961   0.364   0.876 -0.0434  0.3056 -0.2835
 5973SOL     OW23663   4.184   5.438   0.059 -0.2407 -0.4486 -0.3563
 5973SOL    HW223664   4.233   5.357   0.073 -1.6913 -1.7385 -2.2041
 5973SOL    HW323665   4.230   5.483  -0.012  0.1574  0.0015  0.1834
 5973SOL    MW423666   4.196   5.433   0.051 -0.3796 -0.5594 -0.5289
 5974SOL     OW23667   0.726   1.597   1.445 -0.4109 -0.1306  0.4409
 5974SOL    HW223668   0.759   1.684   1.425 -1.5735  0.0382 -0.9464
 5974SOL    HW323669   0.651   1.586   1.386 -1.3925 -1.3642  1.8347
 5974SOL    MW423670   0.720   1.607   1.434 -0.6938 -0.2711  0.4418
 5975SOL     OW23671   2.475   1.630   1.737 -0.0539 -0.2678 -0.3220
 5975SOL    HW223672   2.451   1.601   1.649 -1.8287  1.4560 -0.4692
 5975SOL    HW323673   2.414   1.701   1.757  2.9144  2.2110  0.6831
 5975SOL    MW423674   2.464   1.635   1.728  0.1036  0.2867 -0.2088
 5976SOL     OW23675   3.101   5.155   2.146 -0.6606  1.2010 -0.2524
 5976SOL    HW223676   3.147   5.191   2.222 -0.8656  1.3582 -0.2023
 5976SOL    HW323677   3.076   5.067   2.174 -0.7322  1.2563 -0.1395
 5976SOL    MW423678   3.104   5.148   2.160 -0.6971  1.2290 -0.2309
 5977SOL     OW23679   3.106   1.368   5.665 -0.6671 -0.7389 -0.1484
 5977SOL    HW223680   3.068   1.432   5.605  0.6700 -0.8939 -1.2062
 5977SOL    HW323681   3.038   1.301   5.676 -0.9896 -0.6371 -1.4063
 5977SOL    MW423682   3.092   1.367   5.659 -0.5332 -0.7459 -0.4539
 5978SOL     OW23683   4.351   6.221   5.139 -0.1104  0.1546  0.5543
 5978SOL    HW223684   4.270   6.264   5.111 -0.8466 -1.5451 -0.0589
 5978SOL    HW323685   4.323   6.152   5.199  0.8401 -0.6185  0.1448
 5978SOL    MW423686   4.337   6.218   5.143 -0.0821 -0.1717  0.4194
 5979SOL     OW23687   1.088   0.722   6.170 -0.2378  0.0370 -0.1309
 5979SOL    HW223688   1.086   0.743   6.264  0.1005 -1.5278  0.2488
 5979SOL    HW323689   1.026   0.649   6.161  1.0230 -0.9818 -0.8022
 5979SOL    MW423690   1.079   0.715   6.181 -0.0268 -0.3039 -0.1694
 5980SOL     OW23691   4.773   5.416   6.395  0.5315  0.0848 -0.1965
 5980SOL    HW223692   4.730   5.422   6.481 -1.2270 -1.0990 -0.9189
 5980SOL    HW323693   4.701   5.402   6.334  1.8349 -0.0518 -1.7600
 5980SOL    MW423694   4.757   5.415   6.398  0.4714 -0.0894 -0.4981
 5981SOL     OW23695   1.305   3.793   3.714  0.2887 -0.3659 -0.0286
 5981SOL    HW223696   1.230   3.755   3.667  1.2452 -2.0382 -0.2658
 5981SOL    HW323697   1.357   3.835   3.645 -0.3233  0.6515  0.1138
 5981SOL    MW423698   1.302   3.794   3.698  0.3342 -0.4523 -0.0411
 5982SOL     OW23699   2.389   3.776   3.210 -0.4282  0.7723  0.6744
 5982SOL    HW223700   2.354   3.839   3.273  2.7753  3.5125  0.0030
 5982SOL    HW323701   2.425   3.705   3.264 -0.9565  1.2520  1.6826
 5982SOL    MW423702   2.389   3.775   3.225 -0.0752  1.1971  0.7188
 5983SOL     OW23703   1.257   4.344   2.793  0.4671  0.5833 -0.3637
 5983SOL    HW223704   1.269   4.249   2.786 -1.7502  0.2458 -0.3871
 5983SOL    HW323705   1.341   4.377   2.826  0.2975 -1.7711  2.9115
 5983SOL    MW423706   1.270   4.336   2.796  0.1522  0.2281  0.0654
 5984SOL     OW23707   5.258   2.433   3.405  0.2907  0.4208  0.1902
 5984SOL    HW223708   5.260   2.419   3.499 -1.5167  3.1380  0.7450
 5984SOL    HW323709   5.229   2.350   3.368 -0.8872 -0.1227  2.2210
 5984SOL    MW423710   5.255   2.420   3.412 -0.1031  0.7076  0.5313
 5985SOL     OW23711   6.345   0.503   3.794  0.3939  0.2473  0.2279
 5985SOL    HW223712   6.384   0.510   3.882  1.1014  0.3103 -0.0851
 5985SOL    HW323713   6.418   0.518   3.734 -0.0389 -0.0311 -0.3781
 5985SOL    MW423714   6.360   0.506   3.798  0.4302  0.2189  0.1066
 5986SOL     OW23715   0.424   2.940   3.408  0.3643  0.8317  0.2575
 5986SOL    HW223716   0.482   2.916   3.335  0.8411  0.2520  0.8102
 5986SOL    HW323717   0.417   2.859   3.460 -1.7864  0.5706 -0.3467
 5986SOL    MW423718   0.431   2.926   3.405  0.1435  0.7208  0.2507
 5987SOL     OW23719   2.003   2.268   2.151  0.2904  0.1105  0.1457
 5987SOL    HW223720   1.938   2.203   2.126  1.3985 -0.6985 -0.7785
 5987SOL    HW323721   1.991   2.279   2.246 -0.2953 -1.0167  0.2199
 5987SOL    MW423722   1.993   2.261   2.161  0.3593 -0.1449  0.0335
 5988SOL     OW23723   6.180   1.070   1.886 -0.0139  0.4996 -0.0723
 5988SOL    HW223724   6.209   1.088   1.976  0.4749  0.9577 -0.3116
 5988SOL    HW323725   6.260   1.078   1.833 -0.1021 -0.7833 -0.4184
 5988SOL    MW423726   6.194   1.074   1.891  0.0390  0.3908 -0.1495
 5989SOL     OW23727   5.521   0.535   6.110 -0.4539 -0.2744 -0.7464
 5989SOL    HW223728   5.436   0.547   6.153 -0.0574 -0.2126  0.0384
 5989SOL    HW323729   5.507   0.564   6.020 -1.2201 -0.1170 -0.5815
 5989SOL    MW423730   5.508   0.540   6.104 -0.5027 -0.2455 -0.6211
 5990SOL     OW23731   5.938   3.331   0.673  0.4491 -0.0600  0.5632
 5990SOL    HW223732   5.903   3.311   0.759  0.1977  0.2969  0.5445
 5990SOL    HW323733   5.960   3.424   0.677 -2.7046  0.8663 -0.8129
 5990SOL    MW423734   5.937   3.341   0.685 -0.0002  0.1093  0.3792
 5991SOL     OW23735   1.406   6.366   1.258  0.3889 -0.0676 -0.2347
 5991SOL    HW223736   1.393   6.346   1.350  1.8209  1.2421  0.3111
 5991SOL    HW323737   1.492   6.329   1.237  0.9829  1.3579 -0.4475
 5991SOL    MW423738   1.416   6.359   1.267  0.6562  0.2933 -0.1907
 5992SOL     OW23739   3.299   4.385   5.027 -0.4970 -0.5350  0.1767
 5992SOL    HW223740   3.338   4.466   4.994  0.6954 -0.8255  0.8460
 5992SOL    HW323741   3.212   4.382   4.985 -0.1294  0.5216 -0.7111
 5992SOL    MW423742   3.293   4.395   5.017 -0.2912 -0.4339  0.1479
 5993SOL     OW23743   4.983   4.515   0.333 -0.0361 -0.8878  0.3210
 5993SOL    HW223744   4.992   4.536   0.426  0.2875 -1.5493  0.4446
 5993SOL    HW323745   4.975   4.601   0.291  0.9499 -0.5154  0.8465
 5993SOL    MW423746   4.983   4.529   0.340  0.1367 -0.9259  0.4066
 5994SOL     OW23747   0.130   1.638   1.274  0.7071 -0.0056  0.5985
 5994SOL    HW223748   0.107   1.627   1.366  0.2547 -1.3134  0.3421
 5994SOL    HW323749   0.048   1.667   1.232  0.5007 -0.9343  0.3467
 5994SOL    MW423750   0.116   1.640   1.280  0.6202 -0.3007  0.5314
 5995SOL     OW23751   4.044   4.503   6.015  0.0299 -0.3072 -0.1711
 5995SOL    HW223752   4.075   4.572   6.073  1.1792 -1.6604  0.9047
 5995SOL    HW323753   4.064   4.535   5.927  1.1101  0.4690  0.3301
 5995SOL    MW423754   4.051   4.516   6.011  0.3241 -0.3834  0.0369
 5996SOL     OW23755   0.309   4.510   1.432  0.1513 -0.4726 -0.0688
 5996SOL    HW223756   0.314   4.440   1.498 -0.1076  0.2589  0.7355
 5996SOL    HW323757   0.385   4.565   1.450  0.1236 -0.3133 -0.4346
 5996SOL    MW423758   0.320   4.508   1.443  0.1135 -0.3551 -0.0109
 5997SOL     OW23759   5.687   0.315   0.707  0.1497  0.2258 -0.1686
 5997SOL    HW223760   5.739   0.393   0.692 -0.4630  0.7062  0.1607
 5997SOL    HW323761   5.673   0.278   0.619  1.9085 -0.5048 -0.1760
 5997SOL    MW423762   5.692   0.320   0.693  0.3009  0.1928 -0.1261
 5998SOL     OW23763   0.321   2.587   6.083 -0.0141  0.2749 -0.1727
 5998SOL    HW223764   0.326   2.544   5.998  0.0058  0.3618 -0.2152
 5998SOL    HW323765   0.384   2.540   6.138  1.9815  1.9325 -0.9456
 5998SOL    MW423766   0.330   2.575   6.079  0.2518  0.5050 -0.2803
 5999SOL     OW23767   3.164   2.925   0.775 -0.7491 -0.0603 -0.4892
 5999SOL    HW223768   3.104   2.863   0.734  0.0993 -1.2211 -0.0415
 5999SOL    HW323769   3.193   2.982   0.704 -0.9389 -0.6785 -1.0686
 5999SOL    MW423770   3.160   2.925   0.761 -0.6622 -0.2950 -0.5066
 6000SOL     OW23771   1.046   1.830   4.761  0.5308  0.3713  0.6147
 6000SOL    HW223772   1.119   1.879   4.723  0.3857  1.0585  1.2138
 6000SOL    HW323773   1.088   1.759   4.810  0.7320 -0.2899 -0.4627
 6000SOL    MW423774   1.061   1.827   4.762  0.5382  0.3747  0.5516
 6001SOL     OW23775   4.364   2.422   5.263  0.2336 -0.2425  0.3596
 6001SOL    HW223776   4.348   2.344   5.208 -0.3276  0.3073 -0.2808
 6001SOL    HW323777   4.284   2.432   5.314 -0.9969  1.6666 -1.7853
 6001SOL    MW423778   4.351   2.413   5.262 -0.0028  0.0819 -0.0079
 6002SOL     OW23779   3.874   4.855   5.121  0.0408  0.0761  0.5688
 6002SOL    HW223780   3.801   4.888   5.174 -0.5513  2.1667 -1.3978
 6002SOL    HW323781   3.948   4.910   5.145  0.1506  0.0692  0.2415
 6002SOL    MW423782   3.874   4.866   5.131 -0.0228  0.3510  0.2662
 6003SOL     OW23783   5.924   1.946   0.702 -0.7238 -0.1295  0.3433
 6003SOL    HW223784   5.937   1.851   0.706  0.3102 -0.0204 -0.0781
 6003SOL    HW323785   5.844   1.957   0.651 -0.9238 -0.7693  0.5025
 6003SOL    MW423786   5.915   1.935   0.696 -0.6138 -0.1995  0.3087
 6004SOL     OW23787   6.352   3.504   2.956 -0.0492 -0.2522 -0.1482
 6004SOL    HW223788   6.404   3.428   2.980 -0.4033 -1.2788 -2.4153
 6004SOL    HW323789   6.352   3.559   3.035  2.6053 -1.2172  0.6217
 6004SOL    MW423790   6.359   3.501   2.970  0.2543 -0.5150 -0.3458
 6005SOL     OW23791   2.478   5.386   6.429 -0.5489  0.2321  0.0980
 6005SOL    HW223792   2.468   5.412   6.520  0.9177 -0.2152  0.3987
 6005SOL    HW323793   2.505   5.294   6.432 -1.4846 -0.1043 -0.8289
 6005SOL    MW423794   2.480   5.377   6.441 -0.4789  0.1287  0.0154
 6006SOL     OW23795   0.442   5.346   1.976  0.1468  0.0026  0.0235
 6006SOL    HW223796   0.391   5.402   2.035  1.6616  1.4867 -0.0178
 6006SOL    HW323797   0.523   5.328   2.024  3.4186  4.7137 -2.8476
 6006SOL    MW423798   0.446   5.351   1.990  0.7784  0.8200 -0.3607
 6007SOL     OW23799   0.573   3.168   2.708 -0.1798  0.4502  0.3596
 6007SOL    HW223800   0.652   3.212   2.678 -1.3814  2.1764 -0.4994
 6007SOL    HW323801   0.566   3.192   2.800 -0.0672  0.9320  0.2504
 6007SOL    MW423802   0.582   3.177   2.716 -0.3235  0.7416  0.2319
 6008SOL     OW23803   3.475   5.520   2.700 -0.1048 -0.0379  0.2313
 6008SOL    HW223804   3.538   5.478   2.642 -0.1499  1.6023 -1.0670
 6008SOL    HW323805   3.393   5.521   2.649 -0.8354 -0.8663  1.3401
 6008SOL    MW423806   3.472   5.514   2.685 -0.2072  0.0692  0.2063
 6009SOL     OW23807   3.910   0.783   1.619  0.3570  0.6609 -0.4576
 6009SOL    HW223808   3.860   0.723   1.564 -0.8850  0.4766  0.8122
 6009SOL    HW323809   4.002   0.768   1.594 -0.0176 -0.8767 -1.0204
 6009SOL    MW423810   3.916   0.773   1.609  0.1437  0.4337 -0.3643
 6010SOL     OW23811   2.312   0.080   1.183 -0.1873 -0.3687  0.5435
 6010SOL    HW223812   2.402   0.054   1.164 -0.0233 -0.1927  1.0699
 6010SOL    HW323813   2.296   0.051   1.273  0.2551  1.9295  1.4398
 6010SOL    MW423814   2.322   0.073   1.192 -0.1073 -0.0423  0.7312
 6011SOL     OW23815   5.207   5.986   5.365  0.1801 -0.4748 -0.2037
 6011SOL    HW223816   5.238   5.895   5.366  0.8834 -0.2378  0.2489
 6011SOL    HW323817   5.111   5.978   5.366  0.1842 -1.2172  2.6490
 6011SOL    MW423818   5.198   5.973   5.365  0.2734 -0.5415  0.2324
 6012SOL     OW23819   1.594   0.186   1.188 -0.1695 -0.0357  0.1597
 6012SOL    HW223820   1.579   0.196   1.094  1.1295  0.4221 -0.0213
 6012SOL    HW323821   1.549   0.105   1.211  1.2072 -1.2689 -1.2846
 6012SOL    MW423822   1.586   0.177   1.178  0.1835 -0.1380 -0.0547
 6013SOL     OW23823   4.526   3.991   5.486  0.8539  0.2028  0.2131
 6013SOL    HW223824   4.591   4.048   5.445  2.2286 -2.0329 -0.9026
 6013SOL    HW323825   4.454   3.988   5.423  1.3223 -0.2559 -0.3097
 6013SOL    MW423826   4.525   3.998   5.472  1.0971 -0.1527 -0.0031
 6014SOL     OW23827   1.613   1.141   2.970  0.2188 -0.2308  0.1197
 6014SOL    HW223828   1.636   1.058   2.928 -1.5777 -1.0424  0.6381
 6014SOL    HW323829   1.544   1.178   2.914 -0.2280  0.0365  0.8305
 6014SOL    MW423830   1.607   1.135   2.957 -0.0772 -0.3026  0.2819
 6015SOL     OW23831   5.925   0.970   0.240  0.1365 -0.3429 -0.1977
 6015SOL    HW223832   5.854   0.914   0.208  2.0631 -2.5948 -0.7934
 6015SOL    HW323833   5.918   0.965   0.335 -1.4097  0.7679 -0.2109
 6015SOL    MW423834   5.914   0.962   0.248  0.1867 -0.4935 -0.2781
 6016SOL     OW23835   0.271   1.537   0.290  0.0970 -0.0245  0.2615
 6016SOL    HW223836   0.195   1.486   0.317  1.6876 -1.8868  1.4170
 6016SOL    HW323837   0.320   1.553   0.370 -0.4789  3.8277  0.0717
 6016SOL    MW423838   0.267   1.533   0.304  0.2309  0.2380  0.3889
 6017SOL     OW23839   2.144   3.803   2.547  0.3774 -0.3706 -0.7624
 6017SOL    HW223840   2.160   3.757   2.629 -0.8861 -0.2564 -0.4241
 6017SOL    HW323841   2.121   3.734   2.485 -1.1506 -0.2752 -0.3497
 6017SOL    MW423842   2.143   3.788   2.550  0.0091 -0.3429 -0.6633
 6018SOL     OW23843   5.266   2.926   0.768 -0.1551  0.3346  0.1286
 6018SOL    HW223844   5.334   2.914   0.702  0.2103 -1.6041  0.7753
 6018SOL    HW323845   5.311   2.907   0.851 -0.3669  3.5299  1.1172
 6018SOL    MW423846   5.281   2.922   0.770 -0.1348  0.5004  0.3444
 6019SOL     OW23847   4.778   0.231   0.634 -1.2087 -0.2309 -0.1301
 6019SOL    HW223848   4.706   0.293   0.641  0.4756  1.8976 -0.5869
 6019SOL    HW323849   4.769   0.174   0.711 -3.3583 -0.0881 -0.2224
 6019SOL    MW423850   4.768   0.231   0.645 -1.2701  0.0687 -0.2025
 6020SOL     OW23851   3.993   2.646   1.385  0.0604 -0.0065  0.7123
 6020SOL    HW223852   3.933   2.582   1.424 -1.3051 -0.1909 -1.5345
 6020SOL    HW323853   3.946   2.729   1.390  0.7989  0.3889  1.3859
 6020SOL    MW423854   3.979   2.648   1.391 -0.0223  0.0213  0.5047
 6021SOL     OW23855   5.737   6.348   5.521 -0.1222  0.3148  0.0773
 6021SOL    HW223856   5.697   6.380   5.601 -0.0023 -0.1247  0.3162
 6021SOL    HW323857   5.755   6.427   5.470 -0.1725  0.5981  0.4941
 6021SOL    MW423858   5.734   6.362   5.525 -0.1130  0.2942  0.1638
 6022SOL     OW23859   1.278   2.282   6.125 -0.1872 -0.5854 -0.4150
 6022SOL    HW223860   1.253   2.242   6.042 -0.4761  0.1273 -0.6804
 6022SOL    HW323861   1.205   2.339   6.147 -0.1078 -0.7594  0.3312
 6022SOL    MW423862   1.265   2.284   6.117 -0.2148 -0.5143 -0.3516
 6023SOL     OW23863   1.611   0.003   5.505 -0.2793 -0.0124 -0.3720
 6023SOL    HW223864   1.523  -0.021   5.478 -0.2024 -0.8972  0.1159
 6023SOL    HW323865   1.630  -0.056   5.578  0.8734 -0.1117 -0.7429
 6023SOL    MW423866   1.602  -0.008   5.511 -0.1170 -0.1422 -0.3566
 6024SOL     OW23867   4.999   3.548   3.252 -0.4016 -0.4292 -0.3891
 6024SOL    HW223868   5.054   3.473   3.273 -1.7040 -1.7011 -1.2904
 6024SOL    HW323869   4.965   3.578   3.336 -0.5525 -1.3977 -0.0969
 6024SOL    MW423870   5.002   3.542   3.266 -0.5934 -0.7248 -0.4695
 6025SOL     OW23871   2.622   0.350   5.268 -0.3775 -0.3064  0.5037
 6025SOL    HW223872   2.714   0.346   5.294 -0.5244 -0.2346  1.0439
 6025SOL    HW323873   2.617   0.297   5.188  0.4038  0.8702 -0.3503
 6025SOL    MW423874   2.633   0.343   5.261 -0.2938 -0.1417  0.4623
 6026SOL     OW23875   4.034   5.320   2.130 -0.9923 -0.2200  0.2013
 6026SOL    HW223876   3.956   5.329   2.076 -1.6246 -1.3201  0.8751
 6026SOL    HW323877   4.000   5.307   2.219  0.0156  2.1514  1.0201
 6026SOL    MW423878   4.019   5.319   2.135 -0.9427 -0.0523  0.3982
 6027SOL     OW23879   2.450   5.259   3.239 -0.2126  0.0522  0.5062
 6027SOL    HW223880   2.381   5.261   3.305  1.0107 -0.0353  1.8459
 6027SOL    HW323881   2.496   5.176   3.255  0.3134  0.1876 -0.2479
 6027SOL    MW423882   2.447   5.248   3.250  0.0182  0.0585  0.5835
 6028SOL     OW23883   0.598   6.329   1.901 -0.5158 -0.1343 -0.0800
 6028SOL    HW223884   0.548   6.409   1.914 -0.8592 -0.4663  0.6806
 6028SOL    HW323885   0.654   6.348   1.826 -0.7351  0.7440 -0.0311
 6028SOL    MW423886   0.599   6.342   1.893 -0.5901 -0.0622  0.0268
 6029SOL     OW23887   1.071   3.672   0.164  0.2704  0.0812 -0.0440
 6029SOL    HW223888   1.134   3.742   0.182 -0.0770  1.0000 -2.1633
 6029SOL    HW323889   1.126   3.597   0.141  0.6436  0.5785 -0.8435
 6029SOL    MW423890   1.087   3.671   0.163  0.2738  0.2680 -0.4291
 6030SOL     OW23891   4.634   0.681   3.896 -0.1956  0.1301  0.3327
 6030SOL    HW223892   4.655   0.610   3.956 -1.4021 -0.7997 -0.3132
 6030SOL    HW323893   4.708   0.683   3.835  0.0164 -0.3196  0.5686
 6030SOL    MW423894   4.647   0.672   3.896 -0.3268 -0.0519  0.2786
 6031SOL     OW23895   6.333   3.915   4.153 -0.0191 -0.7166 -0.3100
 6031SOL    HW223896   6.344   3.952   4.065 -3.1596 -2.2271 -1.5066
 6031SOL    HW323897   6.321   3.821   4.138 -0.7257 -1.0032  1.7243
 6031SOL    MW423898   6.333   3.907   4.139 -0.5266 -0.9537 -0.1995
 6032SOL     OW23899   1.101   0.579   1.747  0.1229  0.3000 -0.2072
 6032SOL    HW223900   1.079   0.664   1.783 -1.1717 -0.3300  0.5449
 6032SOL    HW323901   1.022   0.526   1.758  1.6435 -1.8044  1.8121
 6032SOL    MW423902   1.088   0.583   1.754  0.1527 -0.0608  0.1584
 6033SOL     OW23903   1.183   6.392   3.507  0.0065 -0.0206 -0.4166
 6033SOL    HW223904   1.217   6.451   3.440  0.6652 -0.1050 -0.1653
 6033SOL    HW323905   1.261   6.349   3.543 -0.2107  0.9259  1.2646
 6033SOL    MW423906   1.198   6.394   3.503  0.0648  0.0931 -0.1617
 6034SOL     OW23907   6.152   1.641   0.571  0.2441 -0.1250 -0.1675
 6034SOL    HW223908   6.115   1.584   0.503 -0.9909 -0.2464  0.5901
 6034SOL    HW323909   6.085   1.645   0.639  0.4220  1.9719 -0.0365
 6034SOL    MW423910   6.138   1.634   0.571  0.1047  0.1357 -0.0502
 6035SOL     OW23911   0.451   1.208   0.094  1.0271  0.4162  0.2429
 6035SOL    HW223912   0.362   1.210   0.128  1.0754 -0.6745  0.4664
 6035SOL    HW323913   0.478   1.300   0.092  1.0487  0.5973  3.2684
 6035SOL    MW423914   0.443   1.220   0.099  1.0363  0.2962  0.6716
 6036SOL     OW23915   3.991   4.814   1.200  0.1998 -0.0064  0.6414
 6036SOL    HW223916   4.031   4.880   1.144 -1.9026  1.2144  0.4415
 6036SOL    HW323917   4.052   4.802   1.273  2.0453 -0.1495 -0.8785
 6036SOL    MW423918   4.004   4.821   1.202  0.1659  0.1358  0.4145
 6037SOL     OW23919   0.289   0.237   4.206 -0.7194  0.0949  0.2470
 6037SOL    HW223920   0.332   0.254   4.290  0.9946  2.1244 -0.9334
 6037SOL    HW323921   0.254   0.322   4.179 -2.8209 -0.8910 -0.3123
 6037SOL    MW423922   0.290   0.251   4.213 -0.7705  0.2326  0.0175
 6038SOL     OW23923   2.149   5.085   0.092  0.0361  0.1681 -0.0720
 6038SOL    HW223924   2.203   5.023   0.043 -1.8251  0.4303 -2.6827
 6038SOL    HW323925   2.110   5.034   0.162  2.4513 -0.3395  1.0036
 6038SOL    MW423926   2.151   5.070   0.094  0.1092  0.1357 -0.2745
 6039SOL     OW23927   4.393   0.213   3.453  0.1050  0.2117 -0.0793
 6039SOL    HW223928   4.309   0.258   3.460 -0.6275 -1.2245  0.6535
 6039SOL    HW323929   4.440   0.239   3.533 -0.2108 -0.1144  0.2142
 6039SOL    MW423930   4.388   0.223   3.465 -0.0333 -0.0208  0.0561
 6040SOL     OW23931   3.182   1.328   3.672 -0.5629 -0.1812 -0.0260
 6040SOL    HW223932   3.275   1.336   3.690 -0.3249  0.4593 -1.4187
 6040SOL    HW323933   3.163   1.235   3.684  0.6154 -0.6153 -1.3014
 6040SOL    MW423934   3.192   1.317   3.676 -0.3760 -0.1540 -0.3780
 6041SOL     OW23935   6.257   1.444   5.749 -0.2343  0.0719  0.1320
 6041SOL    HW223936   6.173   1.452   5.794 -1.0444 -0.8362 -1.1589
 6041SOL    HW323937   6.276   1.532   5.717 -0.9648  0.1703 -0.0346
 6041SOL    MW423938   6.249   1.456   5.751 -0.4375 -0.0349 -0.0603
 6042SOL     OW23939   5.480   5.592   3.407  0.3456  0.6514 -0.1630
 6042SOL    HW223940   5.512   5.651   3.339  0.2365 -0.2887 -1.0450
 6042SOL    HW323941   5.558   5.563   3.453  0.4904  0.7003 -0.3764
 6042SOL    MW423942   5.494   5.596   3.404  0.3503  0.5338 -0.3076
 6043SOL     OW23943   4.842   3.723   0.040 -0.6367 -0.1353 -0.1562
 6043SOL    HW223944   4.932   3.741   0.068 -0.5150 -2.0228  0.8842
 6043SOL    HW323945   4.829   3.778  -0.037  1.2017  0.6370  0.0274
 6043SOL    MW423946   4.852   3.733   0.034 -0.3781 -0.2825  0.0052
 6044SOL     OW23947   1.618   6.410   1.932 -0.1978  0.0763  0.2583
 6044SOL    HW223948   1.713   6.410   1.919 -0.1624  1.6975  0.3353
 6044SOL    HW323949   1.585   6.347   1.868  0.8672  0.1089 -0.3473
 6044SOL    MW423950   1.626   6.402   1.922 -0.0526  0.2945  0.1886
 6045SOL     OW23951   0.282   2.533   2.609 -0.0036  0.6143  0.1666
 6045SOL    HW223952   0.373   2.505   2.603 -0.1006  0.4761 -1.1988
 6045SOL    HW323953   0.237   2.460   2.652  0.3792  0.2478 -0.0424
 6045SOL    MW423954   0.288   2.520   2.614  0.0341  0.5477 -0.0411
 6046SOL     OW23955   5.935   4.386   6.188  0.4677 -0.2245 -0.2577
 6046SOL    HW223956   5.892   4.460   6.146  0.3190  0.0613  0.3879
 6046SOL    HW323957   5.936   4.408   6.281  0.1205 -1.1856 -0.0153
 6046SOL    MW423958   5.929   4.398   6.195  0.4023 -0.3136 -0.1405
 6047SOL     OW23959   1.488   2.484   4.714 -0.5599 -0.2243 -0.1221
 6047SOL    HW223960   1.559   2.546   4.699 -1.9980  1.2648 -1.2503
 6047SOL    HW323961   1.411   2.527   4.675 -1.9110 -2.1009  0.3517
 6047SOL    MW423962   1.487   2.498   4.707 -0.9279 -0.2755 -0.2084
 6048SOL     OW23963   0.376   1.496   2.810 -0.4098 -0.3163 -0.6155
 6048SOL    HW223964   0.317   1.427   2.840 -0.3418 -0.2265 -0.2712
 6048SOL    HW323965   0.462   1.455   2.805 -0.2545 -0.0995  0.1895
 6048SOL    MW423966   0.379   1.482   2.813 -0.3803 -0.2759 -0.4638
 6049SOL     OW23967   3.167   5.312   2.384 -0.0131  0.1486  0.3326
 6049SOL    HW223968   3.100   5.277   2.443  0.1680 -0.3158  0.2689
 6049SOL    HW323969   3.205   5.386   2.432  2.4623 -2.2175  2.3383
 6049SOL    MW423970   3.163   5.317   2.398  0.3374 -0.2249  0.5888
 6050SOL     OW23971   1.044   2.944   4.718  0.4407  0.1488 -0.5543
 6050SOL    HW223972   1.079   2.977   4.801 -0.6009 -0.4546  0.1551
 6050SOL    HW323973   1.121   2.913   4.671  0.8441 -2.3452  1.5071
 6050SOL    MW423974   1.059   2.944   4.723  0.3565 -0.2599 -0.1887
 6051SOL     OW23975   3.504   1.153   4.997  0.0870 -0.6347 -0.0171
 6051SOL    HW223976   3.493   1.071   4.950  0.2585 -1.3877  1.1927
 6051SOL    HW323977   3.485   1.131   5.088  2.4596  0.0743  0.7384
 6051SOL    MW423978   3.500   1.139   5.003  0.4226 -0.6405  0.2422
 6052SOL     OW23979   1.597   0.572   2.427  0.2543 -0.0930  0.5059
 6052SOL    HW223980   1.501   0.576   2.427  0.2745  2.4134 -0.6644
 6052SOL    HW323981   1.618   0.522   2.348 -0.0662 -0.1918  0.4796
 6052SOL    MW423982   1.587   0.566   2.416  0.2147  0.2246  0.3480
 6053SOL     OW23983   2.567   4.854   5.917 -0.0580 -0.4414  0.2484
 6053SOL    HW223984   2.592   4.876   5.827 -0.0510 -0.2559  0.2969
 6053SOL    HW323985   2.593   4.762   5.927  0.0199 -0.4369  0.0893
 6053SOL    MW423986   2.574   4.845   5.906 -0.0468 -0.4163  0.2338
 6054SOL     OW23987   5.885   6.247   3.332  0.2507 -0.7743 -0.3047
 6054SOL    HW223988   5.802   6.203   3.345  0.5969 -1.5642 -0.7245
 6054SOL    HW323989   5.932   6.235   3.415  0.2008 -0.8788 -0.2919
 6054SOL    MW423990   5.880   6.240   3.345  0.2898 -0.8923 -0.3584
 6055SOL     OW23991   2.373   3.428   3.056  0.5291 -0.3912  0.4065
 6055SOL    HW223992   2.278   3.415   3.060  0.7986 -2.9586  0.2983
 6055SOL    HW323993   2.392   3.489   3.126 -1.2834  0.9482 -0.1798
 6055SOL    MW423994   2.363   3.434   3.065  0.3255 -0.5532  0.3149
 6056SOL     OW23995   5.003   4.866   5.258  0.9109 -0.5934  0.0459
 6056SOL    HW223996   5.020   4.922   5.333  2.3028  0.2034 -0.7990
 6056SOL    HW323997   5.048   4.910   5.185  1.1765 -2.2733 -0.8609
 6056SOL    MW423998   5.012   4.879   5.258  1.1296 -0.7099 -0.1852
 6057SOL     OW23999   5.251   2.755   2.681  0.2878  0.0094  0.5885
 6057SOL    HW224000   5.313   2.817   2.719  0.2209 -0.5385  1.6093
 6057SOL    HW324001   5.300   2.710   2.612  0.1436  1.6460 -0.6396
 6057SOL    MW424002   5.266   2.757   2.677  0.2599  0.1531  0.5612
 6058SOL     OW24003   4.146   1.544   3.070 -0.6340 -0.2986  0.2571
 6058SOL    HW224004   4.167   1.638   3.069 -1.0750 -0.1939 -1.3895
 6058SOL    HW324005   4.217   1.503   3.021 -1.8317 -0.4851 -1.3754
 6058SOL    MW424006   4.158   1.551   3.064 -0.8502 -0.3094 -0.1755
 6059SOL     OW24007   1.261   1.628   0.086 -0.2901  0.1129 -0.3019
 6059SOL    HW224008   1.168   1.630   0.061 -0.5249 -1.9990  0.1388
 6059SOL    HW324009   1.260   1.593   0.176  0.9615 -1.0878 -0.7196
 6059SOL    MW424010   1.248   1.623   0.095 -0.1559 -0.3241 -0.2989
 6060SOL     OW24011   5.724   6.075   1.254 -0.4525 -0.6081  0.6019
 6060SOL    HW224012   5.745   6.165   1.230 -0.4553 -0.8195 -0.2232
 6060SOL    HW324013   5.809   6.031   1.258 -0.5525 -0.9242 -0.4991
 6060SOL    MW424014   5.738   6.081   1.251 -0.4661 -0.6777  0.3478
 6061SOL     OW24015   4.245   5.130   2.160  0.1753  0.8073 -0.0792
 6061SOL    HW224016   4.197   5.048   2.154  1.5544 -0.1117  0.9374
 6061SOL    HW324017   4.188   5.195   2.118 -0.8816 -0.6779 -1.0143
 6061SOL    MW424018   4.231   5.128   2.154  0.2178  0.4901 -0.0684
 6062SOL     OW24019   2.058   6.214   2.372  0.0411 -0.2743  1.0130
 6062SOL    HW224020   2.095   6.253   2.451 -1.0706 -0.7743  1.8035
 6062SOL    HW324021   2.011   6.136   2.403 -0.3593 -0.5148 -0.1447
 6062SOL    MW424022   2.057   6.209   2.386 -0.1584 -0.3720  0.9645
 6063SOL     OW24023   2.612   0.047   1.958 -0.1480  0.4681 -0.0478
 6063SOL    HW224024   2.669   0.123   1.957  1.0154 -0.3223  1.3354
 6063SOL    HW324025   2.648  -0.012   1.892 -0.0724  0.4751 -0.0134
 6063SOL    MW424026   2.624   0.049   1.949  0.0154  0.3647  0.1392
 6064SOL     OW24027   2.643   2.528   6.005 -0.7297  0.1124  0.0295
 6064SOL    HW224028   2.582   2.458   6.030 -1.6197  1.7244  2.7361
 6064SOL    HW324029   2.667   2.569   6.087  0.8415  2.1605 -1.3679
 6064SOL    MW424030   2.638   2.524   6.019 -0.6398  0.5953  0.2023
 6065SOL     OW24031   0.499   2.632   3.093  0.4671  0.0828  0.4182
 6065SOL    HW224032   0.434   2.632   3.163 -0.2887  0.5834 -0.2780
 6065SOL    HW324033   0.580   2.605   3.137 -0.6794 -3.1844  0.8184
 6065SOL    MW424034   0.501   2.628   3.108  0.2161 -0.2822  0.3791
 6066SOL     OW24035   5.359   1.931   0.782 -0.0342  0.4399 -0.3676
 6066SOL    HW224036   5.341   1.932   0.876  1.3592 -0.3321 -0.0637
 6066SOL    HW324037   5.276   1.907   0.741 -0.2434 -0.9410  0.8010
 6066SOL    MW424038   5.346   1.928   0.789  0.1220  0.1558 -0.1733
 6067SOL     OW24039   2.278   1.840   1.799  0.1491  0.0487  0.5586
 6067SOL    HW224040   2.315   1.887   1.874  3.0164  0.2649 -0.8698
 6067SOL    HW324041   2.254   1.909   1.738 -0.0996 -0.2110  0.3612
 6067SOL    MW424042   2.280   1.855   1.801  0.4946  0.0430  0.3441
 6068SOL     OW24043   0.991   2.993   1.165  0.0582 -0.0892 -0.1177
 6068SOL    HW224044   0.956   2.995   1.254 -0.1357  1.1205 -0.1961
 6068SOL    HW324045   0.928   2.941   1.115 -1.6250  1.8873 -0.2135
 6068SOL    MW424046   0.978   2.986   1.170 -0.1894  0.3312 -0.1407
 6069SOL     OW24047   0.858   0.023   5.710 -0.2216 -0.1384 -0.3134
 6069SOL    HW224048   0.805   0.033   5.631 -0.1085 -0.0393 -0.3774
 6069SOL    HW324049   0.795   0.024   5.782 -0.3429 -0.4280 -0.4165
 6069SOL    MW424050   0.843   0.024   5.709 -0.2227 -0.1635 -0.3355
 6070SOL     OW24051   1.467   4.162   3.786  0.1901  0.0443  0.4577
 6070SOL    HW224052   1.514   4.245   3.796  0.1337  0.2129 -0.5615
 6070SOL    HW324053   1.375   4.187   3.787  0.1720  0.2026 -1.1734
 6070SOL    MW424054   1.461   4.176   3.787  0.1802  0.0874  0.1080
 6071SOL     OW24055   5.378   3.323   5.061  1.0150 -0.4021 -0.3249
 6071SOL    HW224056   5.332   3.274   4.993  1.7323 -0.9429 -0.4233
 6071SOL    HW324057   5.342   3.290   5.143 -0.8977  1.2446 -0.4040
 6071SOL    MW424058   5.367   3.312   5.063  0.8573 -0.2562 -0.3483
 6072SOL     OW24059   0.625   6.151   1.195 -0.1803 -0.1695 -0.0067
 6072SOL    HW224060   0.714   6.185   1.185 -0.7083  1.2678 -0.0516
 6072SOL    HW324061   0.637   6.063   1.231  1.2690 -0.1748 -0.4370
 6072SOL    MW424062   0.638   6.144   1.199 -0.0588  0.0195 -0.0694
 6073SOL     OW24063   3.743   1.285   5.024  0.7204 -0.2563  0.2924
 6073SOL    HW224064   3.667   1.232   5.000  0.2115  0.7326 -0.3515
 6073SOL    HW324065   3.771   1.251   5.109 -0.2466 -0.8464  0.3847
 6073SOL    MW424066   3.736   1.274   5.032  0.5256 -0.2037  0.2196
 6074SOL     OW24067   5.275   1.877   3.666  0.5832  0.0814 -0.1311
 6074SOL    HW224068   5.311   1.884   3.755  0.5593 -0.8422 -0.0487
 6074SOL    HW324069   5.203   1.815   3.673  0.8114 -0.2781 -0.8648
 6074SOL    MW424070   5.271   1.870   3.679  0.6102 -0.0879 -0.2170
 6075SOL     OW24071   0.374   6.011   2.301  0.6412  0.1019 -0.7385
 6075SOL    HW224072   0.379   6.100   2.336  0.8422 -0.7673  1.6616
 6075SOL    HW324073   0.462   5.993   2.268  0.6133  0.7624 -1.1844
 6075SOL    MW424074   0.386   6.021   2.301  0.6641  0.0743 -0.4807
 6076SOL     OW24075   3.116   5.113   1.545 -0.0995  0.2479  0.2060
 6076SOL    HW224076   3.128   5.203   1.515  1.0678  0.9269  2.5081
 6076SOL    HW324077   3.086   5.121   1.635 -0.4136 -1.6845  0.3176
 6076SOL    MW424078   3.113   5.126   1.553  0.0131  0.0825  0.5245
 6077SOL     OW24079   3.393   1.380   2.340  0.2009 -0.0823  0.1969
 6077SOL    HW224080   3.407   1.286   2.328  2.1494  0.0441  1.1170
 6077SOL    HW324081   3.406   1.418   2.252  1.6916 -0.4596  0.2306
 6077SOL    MW424082   3.397   1.373   2.327  0.6547 -0.1154  0.3227
 6078SOL     OW24083   2.802   1.274   4.130  0.0717  0.4863 -0.0476
 6078SOL    HW224084   2.795   1.242   4.220  0.0156 -0.3520 -0.3428
 6078SOL    HW324085   2.747   1.352   4.128 -0.8071 -0.1089  0.3668
 6078SOL    MW424086   2.794   1.280   4.142 -0.0516  0.2972 -0.0319
 6079SOL     OW24087   0.257   1.976   0.220  0.5055  0.2252  0.0160
 6079SOL    HW224088   0.351   1.959   0.215  0.6019  0.9371 -0.7809
 6079SOL    HW324089   0.251   2.069   0.242 -0.0187  0.0709  0.5376
 6079SOL    MW424090   0.269   1.986   0.222  0.4491  0.2987 -0.0203
 6080SOL     OW24091   0.123   5.945   3.360  0.4011  0.2194  0.4456
 6080SOL    HW224092   0.131   5.941   3.455  0.2805  1.1839  0.5086
 6080SOL    HW324093   0.049   6.004   3.345  0.1170 -0.3035 -0.2440
 6080SOL    MW424094   0.114   5.952   3.371  0.3477  0.2777  0.3629
 6081SOL     OW24095   0.746   1.066   5.207 -0.3241  0.1204 -0.3041
 6081SOL    HW224096   0.821   1.014   5.235 -0.9830 -0.6775  0.0259
 6081SOL    HW324097   0.671   1.006   5.213 -0.7919  0.4587 -1.9927
 6081SOL    MW424098   0.746   1.052   5.211 -0.4727  0.0597 -0.4833
 6082SOL     OW24099   0.853   1.912   6.056  0.1278 -0.4259  0.2499
 6082SOL    HW224100   0.889   1.826   6.036  0.6633 -0.7348  2.2822
 6082SOL    HW324101   0.922   1.956   6.105 -0.6331  0.6459  0.3959
 6082SOL    MW424102   0.867   1.906   6.060  0.0981 -0.3253  0.5373
 6083SOL     OW24103   4.203   5.559   2.797  0.2164 -0.0927 -0.4738
 6083SOL    HW224104   4.172   5.634   2.747 -0.5389 -1.3387 -1.9456
 6083SOL    HW324105   4.151   5.485   2.765  1.7336 -1.4680  0.0786
 6083SOL    MW424106   4.192   5.559   2.786  0.3169 -0.4385 -0.5951
 6084SOL     OW24107   5.416   0.551   0.334  0.2066 -0.4579  0.1987
 6084SOL    HW224108   5.416   0.646   0.327  0.9693 -0.4589  0.0838
 6084SOL    HW324109   5.508   0.528   0.347 -0.0154 -1.1523  0.5938
 6084SOL    MW424110   5.429   0.561   0.335  0.2779 -0.5497  0.2357
 6085SOL     OW24111   4.299   3.969   5.320  0.4587 -0.1848  0.3541
 6085SOL    HW224112   4.224   4.027   5.338 -0.1038 -0.2943 -1.4308
 6085SOL    HW324113   4.259   3.883   5.305  0.9396 -0.2607 -0.5311
 6085SOL    MW424114   4.284   3.965   5.320  0.4479 -0.2092  0.0018
 6086SOL     OW24115   5.525   0.780   2.745 -0.0502 -0.2465  0.2028
 6086SOL    HW224116   5.474   0.859   2.727  0.3007 -0.0971 -0.1531
 6086SOL    HW324117   5.550   0.789   2.837 -1.4231 -0.7653  0.6444
 6086SOL    MW424118   5.522   0.792   2.755 -0.1850 -0.2952  0.2141
 6087SOL     OW24119   2.019   0.558   4.606 -0.4304  0.2274 -0.5313
 6087SOL    HW224120   2.036   0.512   4.524 -0.3648 -0.7896  0.0432
 6087SOL    HW324121   2.090   0.622   4.612 -0.1495 -0.0249 -1.0181
 6087SOL    MW424122   2.031   0.560   4.596 -0.3847  0.0599 -0.5197
 6088SOL     OW24123   5.751   1.370   4.043  0.4248 -0.5573 -0.2095
 6088SOL    HW224124   5.657   1.353   4.034  0.7799 -2.5256 -0.7164
 6088SOL    HW324125   5.782   1.378   3.953  0.8709 -0.7883 -0.0776
 6088SOL    MW424126   5.742   1.369   4.030  0.5305 -0.8474 -0.2590
 6089SOL     OW24127   4.856   5.324   2.134  0.4687  0.0586  0.7438
 6089SOL    HW224128   4.852   5.251   2.196  0.5925 -0.4724  0.1421
 6089SOL    HW324129   4.802   5.392   2.173  0.2082 -0.4187  1.2322
 6089SOL    MW424130   4.849   5.323   2.147  0.4506 -0.0745  0.7289
 6090SOL     OW24131   5.564   1.234   4.408 -0.2580  0.3463  0.3406
 6090SOL    HW224132   5.538   1.201   4.494 -1.3454  1.0158  0.2894
 6090SOL    HW324133   5.533   1.325   4.407  0.9346  0.7585 -0.2563
 6090SOL    MW424134   5.556   1.242   4.419 -0.2441  0.4890  0.2551
 6091SOL     OW24135   0.014   4.179   1.281  0.2834 -0.0221 -0.1003
 6091SOL    HW224136   0.102   4.207   1.256  0.8652 -1.9830 -0.4106
 6091SOL    HW324137   0.024   4.143   1.369 -0.5428  1.1573  0.5012
 6091SOL    MW424138   0.027   4.178   1.289  0.2511 -0.1252 -0.0619
 6092SOL     OW24139   3.442   1.631   5.717 -0.1309 -0.0139  0.0477
 6092SOL    HW224140   3.410   1.553   5.671 -1.0861 -0.2464  1.0770
 6092SOL    HW324141   3.457   1.695   5.647 -3.7644  0.4598 -0.4730
 6092SOL    MW424142   3.440   1.629   5.702 -0.7363  0.0179  0.1148
 6093SOL     OW24143   2.900   1.145   0.279  0.6113  0.2906  0.2802
 6093SOL    HW224144   2.967   1.131   0.212  0.1186  1.6488 -0.5213
 6093SOL    HW324145   2.922   1.082   0.348  1.8895 -0.2369 -0.5769
 6093SOL    MW424146   2.912   1.135   0.279  0.7150  0.4002  0.0614
 6094SOL     OW24147   0.823   1.361   5.874 -0.2044 -0.5204  0.0873
 6094SOL    HW224148   0.761   1.298   5.836  0.0162  0.2034 -1.5484
 6094SOL    HW324149   0.863   1.313   5.947  0.3944 -2.5409 -1.4595
 6094SOL    MW424150   0.820   1.346   5.879 -0.0963 -0.6915 -0.3326
 6095SOL     OW24151   2.440   3.831   0.333  0.3919  0.2251  0.2218
 6095SOL    HW224152   2.464   3.820   0.241  2.2673  1.1299  0.5552
 6095SOL    HW324153   2.524   3.835   0.379 -0.4959  0.6718  1.8745
 6095SOL    MW424154   2.455   3.830   0.327  0.5222  0.4034  0.4838
 6096SOL     OW24155   5.678   5.918   3.019 -0.5993 -0.4177 -0.0597
 6096SOL    HW224156   5.605   5.980   3.028 -2.4333 -2.4495 -0.0877
 6096SOL    HW324157   5.755   5.968   3.044 -2.1948  1.4437  1.4894
 6096SOL    MW424158   5.678   5.933   3.024 -1.0518 -0.4402  0.1410
 6097SOL     OW24159   2.834   4.178   2.452 -0.1133  0.2642  0.7472
 6097SOL    HW224160   2.898   4.178   2.381 -1.2629 -1.0776 -0.3461
 6097SOL    HW324161   2.831   4.269   2.482  0.6270  0.7969 -0.6954
 6097SOL    MW424162   2.842   4.190   2.447 -0.1673  0.1574  0.4126
 6098SOL     OW24163   3.290   1.733   4.065 -0.1202 -0.0089  0.1318
 6098SOL    HW224164   3.247   1.684   3.995  1.6351 -1.3458 -0.0634
 6098SOL    HW324165   3.344   1.798   4.020 -0.8556  0.7859  0.3499
 6098SOL    MW424166   3.291   1.735   4.050  0.0144 -0.0804  0.1348
 6099SOL     OW24167   0.086   4.408   2.341 -0.3762 -0.7777  0.5768
 6099SOL    HW224168  -0.001   4.395   2.378 -0.8431 -0.8088 -0.4834
 6099SOL    HW324169   0.088   4.353   2.263  0.1241  0.1821 -0.1187
 6099SOL    MW424170   0.075   4.399   2.336 -0.3718 -0.6552  0.3452
 6100SOL     OW24171   4.876   5.455   4.564 -0.0821 -0.2894  0.4177
 6100SOL    HW224172   4.907   5.541   4.593 -2.0001  0.8551 -0.6909
 6100SOL    HW324173   4.874   5.460   4.469 -2.0105 -0.8353  0.3741
 6100SOL    MW424174   4.880   5.467   4.555 -0.5896 -0.2104  0.2657
 6101SOL     OW24175   0.672   4.276   3.382  0.2217  0.0459 -0.0897
 6101SOL    HW224176   0.748   4.235   3.423 -0.1726  0.0712  0.6878
 6101SOL    HW324177   0.709   4.330   3.312  0.7103 -2.2753 -1.7741
 6101SOL    MW424178   0.687   4.278   3.378  0.2341 -0.2570 -0.2094
 6102SOL     OW24179   3.293   0.274   1.861 -0.4115 -0.2338 -0.3864
 6102SOL    HW224180   3.342   0.356   1.849 -1.1261 -0.0441 -2.3480
 6102SOL    HW324181   3.353   0.218   1.911  0.6280  0.9973 -0.1864
 6102SOL    MW424182   3.307   0.278   1.866 -0.3686 -0.0463 -0.6188
 6103SOL     OW24183   3.718   5.171   5.882  0.6275  0.1850 -0.6173
 6103SOL    HW224184   3.721   5.257   5.840 -2.2744  0.2020 -0.9863
 6103SOL    HW324185   3.757   5.185   5.969 -1.3698  2.3695  0.0279
 6103SOL    MW424186   3.724   5.184   5.888 -0.0189  0.4754 -0.5809
 6104SOL     OW24187   4.045   4.596   4.781 -0.0867  0.4144  0.2364
 6104SOL    HW224188   3.964   4.550   4.804 -0.1708  0.4951  0.1087
 6104SOL    HW324189   4.019   4.688   4.776  0.2446  0.5723  1.2485
 6104SOL    MW424190   4.031   4.602   4.783 -0.0541  0.4459  0.3531
 6105SOL     OW24191   0.217   4.972   5.817  0.5522 -0.2223 -0.3083
 6105SOL    HW224192   0.263   5.043   5.771  0.6208  0.4912  0.8284
 6105SOL    HW324193   0.200   5.007   5.905  0.0794 -1.4098  0.0934
 6105SOL    MW424194   0.221   4.986   5.823  0.4988 -0.2849 -0.1054
 6106SOL     OW24195   5.359   1.608   0.669 -0.0612 -0.0920  0.3028
 6106SOL    HW224196   5.316   1.693   0.674  0.3023  0.1656 -0.6852
 6106SOL    HW324197   5.313   1.561   0.600 -1.1700 -1.2567  1.7782
 6106SOL    MW424198   5.348   1.613   0.661 -0.1595 -0.2117  0.3671
 6107SOL     OW24199   2.182   2.654   3.716 -0.1079 -0.2817  0.2723
 6107SOL    HW224200   2.265   2.640   3.763 -0.1886  0.1201  0.5400
 6107SOL    HW324201   2.126   2.697   3.780 -1.1565 -2.1938  0.7103
 6107SOL    MW424202   2.186   2.658   3.731 -0.2569 -0.4809  0.3654
 6108SOL     OW24203   4.931   5.886   4.873 -0.0224  0.3256 -0.0299
 6108SOL    HW224204   4.846   5.876   4.831  0.3484  0.7441 -0.8999
 6108SOL    HW324205   4.910   5.912   4.963 -0.8124  2.4179 -0.7597
 6108SOL    MW424206   4.917   5.888   4.879 -0.0777  0.6569 -0.2409
 6109SOL     OW24207   3.303   4.554   3.661 -0.2137  0.1678 -0.2053
 6109SOL    HW224208   3.338   4.560   3.750  0.3538  1.4959 -0.4930
 6109SOL    HW324209   3.291   4.460   3.646  1.4571 -0.2222  0.6020
 6109SOL    MW424210   3.306   4.542   3.670  0.0816  0.2916 -0.1367
 6110SOL     OW24211   6.356   0.433   5.453 -0.2828  0.3930  0.2421
 6110SOL    HW224212   6.310   0.444   5.536 -0.2401 -0.4736  0.3869
 6110SOL    HW324213   6.341   0.515   5.407 -3.2540 -0.3793 -0.3759
 6110SOL    MW424214   6.348   0.445   5.458 -0.6692  0.1768  0.1797
 6111SOL     OW24215   1.441   0.112   3.998 -0.8089 -0.2671 -0.2521
 6111SOL    HW224216   1.361   0.157   3.971 -1.5539 -1.7765 -0.6902
 6111SOL    HW324217   1.415   0.061   4.075 -0.1456 -0.3607 -0.0874
 6111SOL    MW424218   1.427   0.111   4.004 -0.8197 -0.4786 -0.2882
 6112SOL     OW24219   4.344   0.727   0.946  0.4081 -0.1241  0.2342
 6112SOL    HW224220   4.336   0.766   1.033  1.2841 -0.3821  0.4437
 6112SOL    HW324221   4.437   0.704   0.939  0.5296  0.6984 -1.1175
 6112SOL    MW424222   4.355   0.729   0.957  0.5397 -0.0496  0.0835
 6113SOL     OW24223   2.066   2.219   2.686 -0.2360  0.2314 -0.3793
 6113SOL    HW224224   2.114   2.287   2.639 -2.0918  2.3484  0.6003
 6113SOL    HW324225   2.030   2.263   2.763 -2.9254 -1.4163 -0.5365
 6113SOL    MW424226   2.068   2.233   2.690 -0.8357  0.2933 -0.2708
 6114SOL     OW24227   6.007   5.577   5.142 -0.0072  0.2223  0.3665
 6114SOL    HW224228   6.051   5.654   5.108 -0.3056 -0.0254 -0.6004
 6114SOL    HW324229   5.988   5.523   5.065  0.3840 -0.9220  1.0333
 6114SOL    MW424230   6.010   5.580   5.127  0.0051  0.0386  0.3269
 6115SOL     OW24231   2.280   2.092   2.355 -0.3402 -0.3574 -0.3654
 6115SOL    HW224232   2.318   2.038   2.424 -1.3503 -0.8801 -0.1957
 6115SOL    HW324233   2.351   2.152   2.329 -0.2103  0.5280  1.7880
 6115SOL    MW424234   2.295   2.093   2.361 -0.4563 -0.3096 -0.0589
 6116SOL     OW24235   3.590   4.083   4.925 -0.2287  0.2559  0.5051
 6116SOL    HW224236   3.539   4.016   4.880  0.5974 -0.2782  0.3363
 6116SOL    HW324237   3.531   4.118   4.992 -0.6046 -0.7886  0.7310
 6116SOL    MW424238   3.576   4.079   4.928 -0.1693  0.0476  0.5126
 6117SOL     OW24239   1.612   4.538   2.041  0.3473  0.3511 -0.2839
 6117SOL    HW224240   1.621   4.551   2.135  1.0448  0.7524 -0.3960
 6117SOL    HW324241   1.518   4.541   2.024  0.0700 -1.5050  0.6452
 6117SOL    MW424242   1.601   4.540   2.051  0.4027  0.1591 -0.1761
 6118SOL     OW24243   6.104   2.362   2.676 -0.1862  0.2247 -0.2446
 6118SOL    HW224244   6.130   2.393   2.762  1.7093  2.8797 -1.6315
 6118SOL    HW324245   6.015   2.397   2.663 -0.1669  0.4832  0.3120
 6118SOL    MW424246   6.095   2.371   2.685  0.0664  0.6091 -0.3541
 6119SOL     OW24247   5.973   5.233   5.186  0.2486  0.4046 -0.3909
 6119SOL    HW224248   5.964   5.223   5.280  0.2623  1.1431 -0.3039
 6119SOL    HW324249   6.050   5.181   5.162  0.2471  0.2244 -0.0012
 6119SOL    MW424250   5.982   5.225   5.195  0.2502  0.4783 -0.3280
 6120SOL     OW24251   0.546   0.669   2.892  0.4137  0.3589 -0.1947
 6120SOL    HW224252   0.516   0.587   2.931 -1.1251  0.7080 -0.5588
 6120SOL    HW324253   0.467   0.723   2.887  0.8751  0.9396 -2.2470
 6120SOL    MW424254   0.531   0.665   2.897  0.2715  0.4816 -0.5135
 6121SOL     OW24255   1.034   0.263   4.629  0.3151  0.3486  0.5976
 6121SOL    HW224256   0.960   0.278   4.570  0.3156 -0.4915  0.3666
 6121SOL    HW324257   1.081   0.189   4.590  1.7211  1.3522  0.3322
 6121SOL    MW424258   1.030   0.255   4.616  0.5006  0.3702  0.5321
 6122SOL     OW24259   3.840   5.978   2.818  0.2219  0.3070  0.1314
 6122SOL    HW224260   3.902   6.051   2.822 -0.5339  0.9068  2.3322
 6122SOL    HW324261   3.895   5.900   2.829  0.7016  0.8045  1.6502
 6122SOL    MW424262   3.856   5.977   2.820  0.1855  0.4518  0.6222
 6123SOL     OW24263   5.850   1.515   2.105  0.0036 -0.9868  0.0074
 6123SOL    HW224264   5.755   1.507   2.114  0.0026 -0.5900  0.3662
 6123SOL    HW324265   5.862   1.582   2.038  0.0311 -1.5294 -0.5400
 6123SOL    MW424266   5.839   1.523   2.097  0.0071 -1.0060 -0.0175
 6124SOL     OW24267   3.124   5.686   2.980  0.1538 -0.1002  0.6876
 6124SOL    HW224268   3.124   5.742   3.058  0.2627  0.3938  0.3389
 6124SOL    HW324269   3.044   5.635   2.987 -0.0896  0.3010  0.8749
 6124SOL    MW424270   3.114   5.687   2.991  0.1361  0.0179  0.6663
 6125SOL     OW24271   5.106   4.564   3.491 -0.2160  0.3884  0.0707
 6125SOL    HW224272   5.121   4.490   3.550 -0.3319  1.5992  1.6863
 6125SOL    HW324273   5.078   4.524   3.408 -0.3438 -1.3560  0.9206
 6125SOL    MW424274   5.104   4.549   3.488 -0.2481  0.3180  0.3960
 6126SOL     OW24275   3.937   1.333   3.187  0.3475 -0.0454  0.0051
 6126SOL    HW224276   4.002   1.401   3.168 -0.1607  0.5995  0.5555
 6126SOL    HW324277   3.920   1.293   3.101  2.0194 -0.7458 -0.0378
 6126SOL    MW424278   3.943   1.337   3.173  0.5010 -0.0527  0.0720
 6127SOL     OW24279   2.316   1.967   3.008 -0.3663  0.2911  0.6649
 6127SOL    HW224280   2.326   2.006   2.921 -0.1594 -0.6109  0.2728
 6127SOL    HW324281   2.402   1.973   3.047 -0.4666  0.7253  0.8162
 6127SOL    MW424282   2.328   1.973   3.001 -0.3522  0.2294  0.6331
 6128SOL     OW24283   0.605   5.032   0.293 -0.6018  0.0875 -0.8503
 6128SOL    HW224284   0.556   5.115   0.296  0.0089  0.4692  2.8438
 6128SOL    HW324285   0.685   5.054   0.245 -0.1641  1.8940  0.5890
 6128SOL    MW424286   0.609   5.046   0.287 -0.4635  0.3762 -0.1730
 6129SOL     OW24287   5.932   3.375   2.302  0.2480 -0.0630  0.2707
 6129SOL    HW224288   6.021   3.410   2.290 -0.0389  0.9331  0.9625
 6129SOL    HW324289   5.923   3.310   2.232  1.0879  0.6942 -0.5700
 6129SOL    MW424290   5.943   3.371   2.291  0.3210  0.1684  0.2511
 6130SOL     OW24291   6.031   2.294   1.356 -0.1678  0.0638 -0.1869
 6130SOL    HW224292   5.962   2.263   1.296 -0.4826  0.6568 -0.1453
 6130SOL    HW324293   6.007   2.258   1.441 -0.6204  0.5430 -0.1061
 6130SOL    MW424294   6.019   2.285   1.359 -0.2690  0.2052 -0.1707
 6131SOL     OW24295   3.541   0.719   1.927 -0.3505  0.1935  0.2513
 6131SOL    HW224296   3.556   0.770   2.007  0.1731 -1.3511  1.1728
 6131SOL    HW324297   3.596   0.761   1.861  1.7802 -0.4362  1.5394
 6131SOL    MW424298   3.550   0.731   1.929 -0.0003 -0.0934  0.5428
 6132SOL     OW24299   1.133   3.093   4.971  0.5053 -0.1901  0.1389
 6132SOL    HW224300   1.106   3.184   4.973 -0.1164 -0.3775  2.3147
 6132SOL    HW324301   1.227   3.095   4.988  0.4872  0.0493  0.2111
 6132SOL    MW424302   1.142   3.105   4.974  0.4209 -0.1832  0.4355
 6133SOL     OW24303   0.681   0.008   3.076  0.0738  0.5097 -0.0903
 6133SOL    HW224304   0.700  -0.040   3.156 -0.9170  0.1321 -0.0641
 6133SOL    HW324305   0.590   0.036   3.086 -0.4037 -0.4111 -1.4987
 6133SOL    MW424306   0.671   0.005   3.088 -0.1199  0.3384 -0.2726
 6134SOL     OW24307   3.262   1.725   2.589  0.0985  0.1990  0.7515
 6134SOL    HW224308   3.184   1.699   2.637 -0.7464  0.6100 -0.3603
 6134SOL    HW324309   3.321   1.651   2.597 -0.4651 -0.1829  1.4642
 6134SOL    MW424310   3.260   1.712   2.597 -0.0873  0.2028  0.6989
 6135SOL     OW24311   2.567   2.138   1.699 -0.0067  0.3011 -0.5438
 6135SOL    HW224312   2.639   2.195   1.728  0.3949 -0.5991  0.2911
 6135SOL    HW324313   2.589   2.052   1.735 -0.7346 -0.3263 -1.5612
 6135SOL    MW424314   2.580   2.134   1.708 -0.0498  0.0995 -0.5678
 6136SOL     OW24315   2.240   3.906   4.457  0.5340 -0.2806 -0.1599
 6136SOL    HW224316   2.206   3.821   4.486  1.0080 -0.2045  0.6509
 6136SOL    HW324317   2.228   3.963   4.533  0.8815  0.1872 -0.4537
 6136SOL    MW424318   2.234   3.902   4.471  0.6424 -0.2088 -0.0917
 6137SOL     OW24319   2.177   2.910   1.740  0.2094  0.4956  0.6177
 6137SOL    HW224320   2.081   2.901   1.740  0.3512 -1.5260 -0.4229
 6137SOL    HW324321   2.201   2.912   1.833 -0.6208 -2.7003  1.0106
 6137SOL    MW424322   2.167   2.909   1.752  0.1186 -0.1928  0.5323
 6138SOL     OW24323   0.562   0.779   5.755 -0.3103 -0.0303 -0.3206
 6138SOL    HW224324   0.592   0.804   5.841  0.2156  0.0905 -0.5384
 6138SOL    HW324325   0.627   0.716   5.723 -0.2767  0.2324 -0.7911
 6138SOL    MW424326   0.574   0.774   5.762 -0.2365  0.0203 -0.4114
 6139SOL     OW24327   0.045   0.191   3.537 -0.5219 -0.5451 -0.2499
 6139SOL    HW224328   0.094   0.116   3.571 -0.3437 -0.3361 -0.0460
 6139SOL    HW324329   0.065   0.192   3.443 -0.2129 -0.5206 -0.1851
 6139SOL    MW424330   0.054   0.181   3.529 -0.4576 -0.5143 -0.2145
 6140SOL     OW24331   6.374   2.250   2.578  0.1286  0.1037 -0.2666
 6140SOL    HW224332   6.279   2.252   2.590  0.1435 -0.8600  0.1583
 6140SOL    HW324333   6.386   2.240   2.484 -0.1109  2.8875 -0.6553
 6140SOL    MW424334   6.363   2.249   2.567  0.0990  0.3438 -0.2618
 6141SOL     OW24335   4.397   4.506   4.716 -0.1514 -0.3065  0.1111
 6141SOL    HW224336   4.437   4.565   4.780 -1.8503  0.1172  0.8198
 6141SOL    HW324337   4.458   4.432   4.711  0.5338  0.1305  1.4283
 6141SOL    MW424338   4.411   4.504   4.724 -0.2852 -0.1930  0.3784
 6142SOL     OW24339   5.375   1.250   0.038 -0.7825  0.5812 -0.0899
 6142SOL    HW224340   5.323   1.329   0.020 -0.5351  0.1490 -3.3632
 6142SOL    HW324341   5.312   1.178   0.034 -0.5206  0.3647 -0.4269
 6142SOL    MW424342   5.360   1.251   0.035 -0.7153  0.4956 -0.5663
 6143SOL     OW24343   3.147   1.724   0.084  0.3013 -0.4493 -0.0668
 6143SOL    HW224344   3.172   1.727  -0.008 -2.4972 -0.8620 -0.9340
 6143SOL    HW324345   3.097   1.805   0.098  0.1879 -0.6755  0.9050
 6143SOL    MW424346   3.143   1.735   0.074 -0.0829 -0.5336 -0.0530
 6144SOL     OW24347   5.458   5.896   0.255  0.0235 -0.2633  0.0766
 6144SOL    HW224348   5.379   5.948   0.267 -0.9945 -1.9319  0.8915
 6144SOL    HW324349   5.495   5.887   0.343  1.7382  1.3095 -0.3917
 6144SOL    MW424350   5.453   5.902   0.268  0.1154 -0.2759  0.1223
 6145SOL     OW24351   5.238   2.470   1.573  0.0424 -0.2658 -0.3236
 6145SOL    HW224352   5.226   2.523   1.494 -0.8834  0.1397  0.0651
 6145SOL    HW324353   5.224   2.380   1.543 -0.2357 -0.1212 -0.6418
 6145SOL    MW424354   5.234   2.465   1.559 -0.1165 -0.1932 -0.3143
 6146SOL     OW24355   1.010   2.300   5.249 -0.1752 -0.2992  0.0565
 6146SOL    HW224356   1.007   2.383   5.297 -0.7929 -0.3801  0.1683
 6146SOL    HW324357   1.082   2.251   5.288 -0.8650 -0.4876  1.1194
 6146SOL    MW424358   1.019   2.304   5.260 -0.3477 -0.3347  0.2115
 6147SOL     OW24359   0.505   2.008   3.852 -0.0817 -0.1306 -0.8429
 6147SOL    HW224360   0.531   2.004   3.945  0.3340 -2.8946 -0.9999
 6147SOL    HW324361   0.587   2.026   3.806  0.3178 -1.7195 -0.8264
 6147SOL    MW424362   0.519   2.010   3.858  0.0259 -0.7049 -0.8614
 6148SOL     OW24363   5.530   5.275   2.522  0.3108 -0.2005 -0.3740
 6148SOL    HW224364   5.615   5.292   2.563  0.9890 -1.0603 -1.3651
 6148SOL    HW324365   5.529   5.330   2.444  0.2516 -0.6855 -0.7205
 6148SOL    MW424366   5.541   5.284   2.517  0.3925 -0.3780 -0.5505
 6149SOL     OW24367   4.496   1.152   1.330  0.0349 -0.2402  0.2278
 6149SOL    HW224368   4.556   1.077   1.326  0.5802  0.1677  0.5436
 6149SOL    HW324369   4.474   1.159   1.423 -0.2597 -0.1925  0.1555
 6149SOL    MW424370   4.501   1.143   1.342  0.0680 -0.1801  0.2599
 6150SOL     OW24371   0.111   2.174   3.442  0.3842  0.0700 -0.1017
 6150SOL    HW224372   0.128   2.080   3.448  0.8254  0.1217 -0.4942
 6150SOL    HW324373   0.031   2.181   3.391 -0.6587 -0.1620  1.4201
 6150SOL    MW424374   0.103   2.162   3.436  0.3049  0.0462  0.0473
 6151SOL     OW24375   5.616   3.837   0.357  0.4565 -0.9473 -0.0175
 6151SOL    HW224376   5.603   3.917   0.306 -1.8850 -0.4625  1.2027
 6151SOL    HW324377   5.651   3.867   0.440 -0.6047 -1.1282  0.5115
 6151SOL    MW424378   5.619   3.852   0.361  0.0075 -0.9072  0.2133
 6152SOL     OW24379   4.526   3.029   5.258 -0.4379 -0.0177 -0.4570
 6152SOL    HW224380   4.602   3.000   5.207 -0.3880 -1.0484  0.1732
 6152SOL    HW324381   4.514   2.960   5.323 -0.7919  1.0335  0.6224
 6152SOL    MW424382   4.535   3.016   5.260 -0.4780 -0.0150 -0.2314
 6153SOL     OW24383   3.319   1.919   5.991 -0.0212  0.2619 -0.0234
 6153SOL    HW224384   3.344   1.997   6.042 -0.2662  1.4724 -1.6690
 6153SOL    HW324385   3.401   1.870   5.982  0.7648  1.7042 -1.2018
 6153SOL    MW424386   3.333   1.923   5.997  0.0502  0.6119 -0.3960
 6154SOL     OW24387   5.036   0.431   0.983 -0.0484  0.5922  0.4777
 6154SOL    HW224388   5.079   0.371   0.922 -1.5181 -0.1535  0.1351
 6154SOL    HW324389   4.959   0.383   1.013 -1.4779  2.4258 -0.0723
 6154SOL    MW424390   5.031   0.416   0.979 -0.4309  0.7357  0.3599
 6155SOL     OW24391   5.925   3.126   1.321  0.3498 -0.2749  0.5501
 6155SOL    HW224392   5.945   3.215   1.351  0.1817  0.1416 -0.5419
 6155SOL    HW324393   5.985   3.111   1.248 -0.2866 -0.6879  0.1024
 6155SOL    MW424394   5.936   3.136   1.315  0.2437 -0.2744  0.3470
 6156SOL     OW24395   0.406   2.340   1.482  0.2969 -0.5870  0.4280
 6156SOL    HW224396   0.337   2.381   1.534 -0.2947 -2.0177  0.8353
 6156SOL    HW324397   0.438   2.409   1.424 -1.8597 -0.0008 -0.1481
 6156SOL    MW424398   0.401   2.354   1.481 -0.0657 -0.6984  0.4057
 6157SOL     OW24399   3.865   4.256   4.542  0.4259  0.1850 -0.0412
 6157SOL    HW224400   3.809   4.290   4.611 -0.9376 -2.5543  0.3613
 6157SOL    HW324401   3.892   4.169   4.574  4.0973  0.9078 -0.7116
 6157SOL    MW424402   3.861   4.249   4.555  0.7304 -0.0810 -0.0766
 6158SOL     OW24403   0.582   4.359   4.326 -0.1003 -0.1446 -0.1010
 6158SOL    HW224404   0.538   4.435   4.287  0.0892  0.1304  0.2192
 6158SOL    HW324405   0.584   4.377   4.420 -0.6889 -0.8767  0.0711
 6158SOL    MW424406   0.576   4.371   4.333 -0.1529 -0.2049 -0.0361
 6159SOL     OW24407   0.622   4.482   3.570 -0.1033 -0.1335  0.1590
 6159SOL    HW224408   0.627   4.413   3.504 -0.2638 -2.0564  2.0148
 6159SOL    HW324409   0.550   4.538   3.541  0.0560 -0.7041 -1.4429
 6159SOL    MW424410   0.613   4.480   3.558 -0.1034 -0.4625  0.1925
 6160SOL     OW24411   0.475   4.703   2.357  0.2748  0.0288  0.5730
 6160SOL    HW224412   0.424   4.677   2.280 -0.4011  0.4717  0.8672
 6160SOL    HW324413   0.421   4.677   2.432  1.4716 -1.5195  0.9400
 6160SOL    MW424414   0.461   4.696   2.357  0.3435 -0.1171  0.6602
 6161SOL     OW24415   2.526   5.029   5.127 -0.3456 -0.5622 -0.1482
 6161SOL    HW224416   2.452   5.014   5.069 -0.7255  1.0262 -0.1232
 6161SOL    HW324417   2.493   5.091   5.192  0.5458 -1.0634  0.8026
 6161SOL    MW424418   2.512   5.035   5.128 -0.2781 -0.4188 -0.0195
 6162SOL     OW24419   5.308   2.831   5.909 -0.1231 -0.1149 -0.0722
 6162SOL    HW224420   5.215   2.822   5.932  0.0007 -0.8450  0.1768
 6162SOL    HW324421   5.355   2.815   5.991  0.2443 -0.4022 -0.3341
 6162SOL    MW424422   5.302   2.827   5.923 -0.0583 -0.2492 -0.0739
 6163SOL     OW24423   2.356   5.543   3.508 -0.1516 -0.4621 -0.2266
 6163SOL    HW224424   2.447   5.546   3.537 -0.0608  0.5435 -0.5888
 6163SOL    HW324425   2.317   5.624   3.541 -0.2632  0.3328 -2.1652
 6163SOL    MW424426   2.363   5.554   3.516 -0.1544 -0.2246 -0.5302
 6164SOL     OW24427   4.841   6.277   6.119 -0.4275 -0.4430  0.3130
 6164SOL    HW224428   4.879   6.315   6.198 -0.1997 -1.5938  0.7765
 6164SOL    HW324429   4.809   6.191   6.146 -1.8833 -0.1717 -0.4586
 6164SOL    MW424430   4.842   6.271   6.133 -0.5895 -0.5591  0.2724
 6165SOL     OW24431   5.859   4.605   0.251 -0.6964  0.3621 -0.4417
 6165SOL    HW224432   5.883   4.528   0.199  0.1977  0.7700 -0.6536
 6165SOL    HW324433   5.797   4.572   0.316  0.8924 -0.8894  0.5272
 6165SOL    MW424434   5.854   4.590   0.253 -0.3688  0.2508 -0.3418
 6166SOL     OW24435   5.357   5.907   0.691  0.0768 -0.1545  0.1996
 6166SOL    HW224436   5.440   5.861   0.700  0.2129 -0.2843 -1.3347
 6166SOL    HW324437   5.373   5.994   0.727  1.4696  0.4298 -1.6437
 6166SOL    MW424438   5.370   5.912   0.697  0.2785 -0.0945 -0.2461
 6167SOL     OW24439   5.560   4.950   3.115 -0.1290  0.3354  0.6701
 6167SOL    HW224440   5.546   4.856   3.131  0.7326  0.5383  2.9784
 6167SOL    HW324441   5.649   4.967   3.147 -0.2709  1.9394  0.2960
 6167SOL    MW424442   5.570   4.940   3.122 -0.0340  0.5738  0.9253
 6168SOL     OW24443   0.328   1.212   5.150 -0.4746  0.0882  0.2919
 6168SOL    HW224444   0.344   1.185   5.240 -0.5264 -0.6121  0.0926
 6168SOL    HW324445   0.268   1.286   5.158 -2.0158 -1.1530  0.7758
 6168SOL    MW424446   0.322   1.218   5.163 -0.6848 -0.1680  0.3294
 6169SOL     OW24447   3.650   2.744   1.806 -0.2056  0.5445  0.0175
 6169SOL    HW224448   3.573   2.746   1.749  0.6232 -2.2081 -1.3691
 6169SOL    HW324449   3.618   2.773   1.891 -2.0913  2.1750 -1.1653
 6169SOL    MW424450   3.636   2.748   1.810 -0.3450  0.3964 -0.3215
 6170SOL     OW24451   1.048   5.301   0.632 -0.6211 -0.1099  0.1724
 6170SOL    HW224452   0.990   5.316   0.557  0.3797 -1.9053 -1.0590
 6170SOL    HW324453   0.989   5.279   0.704 -1.5615  0.5941 -0.3583
 6170SOL    MW424454   1.032   5.300   0.632 -0.6132 -0.2539 -0.0601
 6171SOL     OW24455   1.884   6.364   0.994  0.3216 -0.0421 -0.2910
 6171SOL    HW224456   1.883   6.381   0.900  2.2060 -0.8811 -0.5195
 6171SOL    HW324457   1.912   6.273   1.001  1.7313  0.4401  1.0744
 6171SOL    MW424458   1.888   6.354   0.982  0.7562 -0.0892 -0.1410
 6172SOL     OW24459   2.951   1.408   3.806  0.6330 -0.2137  0.1775
 6172SOL    HW224460   3.013   1.367   3.746 -0.6874 -0.7831 -0.8361
 6172SOL    HW324461   2.866   1.396   3.765 -0.1085  1.0474  1.2643
 6172SOL    MW424462   2.948   1.401   3.793  0.3610 -0.1224  0.1872
 6173SOL     OW24463   0.522   4.234   1.221  0.0885 -0.0036  0.4949
 6173SOL    HW224464   0.431   4.263   1.216  0.1181  0.1183  0.6661
 6173SOL    HW324465   0.573   4.311   1.195  0.0851 -0.5523 -1.2976
 6173SOL    MW424466   0.517   4.248   1.217  0.0920 -0.0599  0.2810
 6174SOL     OW24467   1.517   2.973   2.141  0.4161 -0.0497  0.2821
 6174SOL    HW224468   1.589   2.952   2.083 -0.4183  1.1825 -1.2640
 6174SOL    HW324469   1.559   2.993   2.225  1.6482 -1.6751  0.1025
 6174SOL    MW424470   1.532   2.973   2.145  0.4686 -0.1016  0.0544
 6175SOL     OW24471   2.304   0.734   1.653 -0.3018 -0.3735  0.1804
 6175SOL    HW224472   2.209   0.745   1.647 -0.1422  1.5634  0.5115
 6175SOL    HW324473   2.336   0.755   1.565 -0.1427 -0.4613  0.2178
 6175SOL    MW424474   2.296   0.738   1.641 -0.2598 -0.1295  0.2290
 6176SOL     OW24475   4.302   4.004   2.975  0.1304  0.1388  0.0968
 6176SOL    HW224476   4.297   3.917   2.935 -2.0827  0.5637 -0.6646
 6176SOL    HW324477   4.238   4.056   2.928  0.6471  1.9215  1.2586
 6176SOL    MW424478   4.293   3.999   2.964 -0.0934  0.4301  0.1496
 6177SOL     OW24479   6.044   3.013   0.622 -0.3084  0.0192  0.8446
 6177SOL    HW224480   5.966   3.064   0.643 -1.1425 -0.8265 -0.0446
 6177SOL    HW324481   6.030   2.929   0.667 -1.2507 -1.1313 -1.4040
 6177SOL    MW424482   6.032   3.009   0.630 -0.5427 -0.2442  0.4306
 6178SOL     OW24483   0.127   0.112   2.270 -0.6497  0.2182  0.3270
 6178SOL    HW224484   0.165   0.094   2.356 -1.4867 -1.3649  0.4052
 6178SOL    HW324485   0.129   0.207   2.262  0.9637  0.3201  1.3823
 6178SOL    MW424486   0.133   0.122   2.280 -0.5473  0.0228  0.4766
 6179SOL     OW24487   5.609   5.325   5.843  0.1117 -0.0698 -0.0094
 6179SOL    HW224488   5.688   5.329   5.897 -0.2720  0.8063  0.4889
 6179SOL    HW324489   5.576   5.414   5.840  0.2977 -0.0087 -1.9703
 6179SOL    MW424490   5.615   5.337   5.849  0.0856  0.0538 -0.2024
 6180SOL     OW24491   0.635   2.406   3.539 -0.6495 -0.2845  0.3689
 6180SOL    HW224492   0.634   2.460   3.619 -1.6291 -0.0612  0.2173
 6180SOL    HW324493   0.728   2.396   3.519 -0.3896 -0.2552  1.4784
 6180SOL    MW424494   0.647   2.412   3.547 -0.7445 -0.2511  0.4953
 6181SOL     OW24495   0.545   6.239   0.687  0.0320  0.4805  0.0525
 6181SOL    HW224496   0.569   6.292   0.612 -1.4291  3.3085  1.4032
 6181SOL    HW324497   0.454   6.215   0.671  0.0546  0.1526  0.4054
 6181SOL    MW424498   0.536   6.243   0.675 -0.1578  0.8103  0.2773
 6182SOL     OW24499   0.397   1.372   4.452  0.4315 -0.3417 -0.3863
 6182SOL    HW224500   0.394   1.314   4.528 -1.6137  0.9875  0.6354
 6182SOL    HW324501   0.316   1.353   4.404  1.1090 -0.3032 -1.6010
 6182SOL    MW424502   0.386   1.362   4.456  0.2511 -0.1613 -0.4117
 6183SOL     OW24503   2.558   1.887   3.845 -0.1950  0.2865  0.2280
 6183SOL    HW224504   2.578   1.926   3.760 -2.9082  2.6961  0.5534
 6183SOL    HW324505   2.644   1.878   3.888  0.8990  3.3206 -1.0483
 6183SOL    MW424506   2.572   1.891   3.840 -0.4086  1.0047  0.1025
 6184SOL     OW24507   5.268   0.107   2.237 -0.1948 -0.3198  0.3256
 6184SOL    HW224508   5.233   0.031   2.191  1.3462 -2.8006  2.9603
 6184SOL    HW324509   5.358   0.115   2.205 -1.1953  2.5276 -2.2529
 6184SOL    MW424510   5.275   0.098   2.227 -0.1235 -0.2714  0.3330
 6185SOL     OW24511   5.491   3.236   1.606  0.5791 -0.4742  0.1754
 6185SOL    HW224512   5.489   3.328   1.632  4.1882 -0.2798  0.3032
 6185SOL    HW324513   5.498   3.188   1.689  2.4052 -0.5180  0.0475
 6185SOL    MW424514   5.492   3.241   1.620  1.2962 -0.4544  0.1754
 6186SOL     OW24515   3.512   0.138   3.904  0.2926 -0.3310  0.1212
 6186SOL    HW224516   3.444   0.163   3.841  1.2479 -0.1562 -0.8631
 6186SOL    HW324517   3.515   0.042   3.900  0.0138 -0.3490  0.2826
 6186SOL    MW424518   3.503   0.128   3.895  0.3819 -0.3103  0.0126
 6187SOL     OW24519   0.480   2.640   0.413 -0.1374 -0.4095  1.0189
 6187SOL    HW224520   0.492   2.559   0.463  2.3914 -0.0348  1.1251
 6187SOL    HW324521   0.559   2.691   0.430  0.8477 -0.1743 -3.2122
 6187SOL    MW424522   0.492   2.636   0.422  0.3262 -0.3291  0.4747
 6188SOL     OW24523   3.064   4.502   0.610 -0.5821  0.0609 -0.2384
 6188SOL    HW224524   2.992   4.559   0.585 -0.9544 -0.7690 -1.1152
 6188SOL    HW324525   3.094   4.464   0.528  0.9919  0.5341  0.0919
 6188SOL    MW424526   3.058   4.504   0.596 -0.4235  0.0138 -0.3105
 6189SOL     OW24527   1.970   1.786   4.571 -0.8189  0.0036 -0.5357
 6189SOL    HW224528   2.029   1.861   4.577  0.6210 -1.1178  0.0500
 6189SOL    HW324529   1.894   1.811   4.624  0.0775  0.6641  0.4907
 6189SOL    MW424530   1.968   1.799   4.579 -0.5107 -0.0572 -0.3230
 6190SOL     OW24531   3.049   4.599   2.721 -0.2048 -0.1882 -0.3969
 6190SOL    HW224532   3.109   4.667   2.751 -0.7443  1.1797 -2.2873
 6190SOL    HW324533   3.056   4.531   2.788  0.4912  1.6096  1.4648
 6190SOL    MW424534   3.058   4.599   2.734 -0.1842  0.2294 -0.4007
 6191SOL     OW24535   1.268   5.879   1.318  0.3266 -0.7788  0.5904
 6191SOL    HW224536   1.274   5.895   1.224  1.4615 -3.2612  0.1788
 6191SOL    HW324537   1.358   5.888   1.350  0.2964 -1.9463  1.0482
 6191SOL    MW424538   1.281   5.882   1.310  0.4724 -1.2603  0.5965
 6192SOL     OW24539   1.652   1.369   4.642 -0.1393 -0.2463 -0.4134
 6192SOL    HW224540   1.577   1.314   4.621 -1.2009  1.6593 -2.0254
 6192SOL    HW324541   1.645   1.442   4.580  2.6019  0.4100 -0.0462
 6192SOL    MW424542   1.641   1.372   4.631  0.0823  0.0917 -0.5777
 6193SOL     OW24543   4.179   4.439   0.853 -0.4334  0.0201  0.7057
 6193SOL    HW224544   4.181   4.395   0.938  1.0020 -1.9007 -0.2399
 6193SOL    HW324545   4.153   4.371   0.791 -3.3462  1.8250 -0.2582
 6193SOL    MW424546   4.176   4.424   0.856 -0.6283  0.0048  0.4537
 6194SOL     OW24547   5.335   2.796   0.354 -0.2544 -0.1143 -0.2996
 6194SOL    HW224548   5.326   2.730   0.285 -1.2375  0.4055 -0.6756
 6194SOL    HW324549   5.262   2.779   0.413 -0.6552  0.7913 -0.5246
 6194SOL    MW424550   5.324   2.785   0.353 -0.4370  0.0738 -0.3789
 6195SOL     OW24551   3.413   5.059   2.806  0.4729  0.2428 -0.2204
 6195SOL    HW224552   3.333   5.023   2.765  0.3768  1.0192 -0.7306
 6195SOL    HW324553   3.409   5.028   2.897  1.1300 -2.2471 -0.9667
 6195SOL    MW424554   3.402   5.050   2.813  0.5469  0.0167 -0.3862
 6196SOL     OW24555   0.093   1.038   6.179 -0.2381  0.4539 -0.1565
 6196SOL    HW224556   0.177   1.003   6.150  0.8430  0.7639  2.3565
 6196SOL    HW324557   0.115   1.104   6.243 -2.3478 -1.8628  3.3070
 6196SOL    MW424558   0.107   1.042   6.183 -0.3738  0.1891  0.6320
 6197SOL     OW24559   3.245   3.221   0.073  0.1749  0.2176 -0.0953
 6197SOL    HW224560   3.268   3.222  -0.020  1.9111  0.9464  0.2995
 6197SOL    HW324561   3.328   3.202   0.118 -1.0575 -2.7608  1.2192
 6197SOL    MW424562   3.259   3.218   0.067  0.2413 -0.0792  0.1303
 6198SOL     OW24563   4.892   2.736   1.296  0.5244 -0.8259  0.2009
 6198SOL    HW224564   4.875   2.712   1.387  0.1407 -0.4323  0.2338
 6198SOL    HW324565   4.958   2.672   1.266  0.6873 -0.9245  0.7638
 6198SOL    MW424566   4.899   2.724   1.304  0.4953 -0.7869  0.2795
 6199SOL     OW24567   3.324   5.241   3.644 -0.6799 -0.5362 -0.5441
 6199SOL    HW224568   3.348   5.148   3.641 -0.8941 -0.5768 -1.3282
 6199SOL    HW324569   3.376   5.281   3.575  0.6897  0.2551  0.9000
 6199SOL    MW424570   3.334   5.234   3.634 -0.5274 -0.4371 -0.4570
 6200SOL     OW24571   2.513   3.486   0.491 -0.5173 -0.2440 -0.1986
 6200SOL    HW224572   2.484   3.569   0.528 -0.3289 -0.3051  0.0880
 6200SOL    HW324573   2.601   3.504   0.457 -0.4479 -0.3472 -0.0711
 6200SOL    MW424574   2.521   3.499   0.491 -0.4833 -0.2657 -0.1440
 6201SOL     OW24575   5.747   2.674   5.295  0.5638 -0.0803  0.0464
 6201SOL    HW224576   5.680   2.606   5.304 -0.8710  1.2355 -0.3401
 6201SOL    HW324577   5.796   2.649   5.217  0.7145 -1.1961  0.4782
 6201SOL    MW424578   5.745   2.661   5.286  0.3944 -0.0539  0.0524
 6202SOL     OW24579   2.384   0.667   4.837  0.1360  0.1720 -0.4810
 6202SOL    HW224580   2.406   0.745   4.887 -1.8764 -1.3530  3.0978
 6202SOL    HW324581   2.416   0.594   4.890  0.4697 -1.5629 -2.8775
 6202SOL    MW424582   2.391   0.667   4.850 -0.0855 -0.2581 -0.3250
 6203SOL     OW24583   5.930   5.607   3.293  0.0993  0.0644  0.1213
 6203SOL    HW224584   6.002   5.633   3.236 -0.0749 -0.9517 -0.5868
 6203SOL    HW324585   5.902   5.521   3.260 -0.7047 -0.0665  1.0742
 6203SOL    MW424586   5.936   5.599   3.281 -0.0298 -0.0869  0.1536
 6204SOL     OW24587   6.008   3.287   1.041 -0.4453 -0.3084  0.9828
 6204SOL    HW224588   6.085   3.333   1.008 -1.1381  0.0137 -0.2051
 6204SOL    HW324589   6.038   3.197   1.054 -0.1423 -0.4460 -0.5277
 6204SOL    MW424590   6.022   3.281   1.039 -0.4967 -0.2840  0.6268
 6205SOL     OW24591   6.330   2.669   3.666  0.2251  0.3334  0.1937
 6205SOL    HW224592   6.346   2.711   3.581 -1.0142 -1.3453 -0.9353
 6205SOL    HW324593   6.372   2.583   3.658 -2.6463 -1.1557 -0.0213
 6205SOL    MW424594   6.338   2.663   3.654 -0.3172 -0.0845  0.0164
 6206SOL     OW24595   2.001   0.721   3.815  0.7528  0.3438  0.1470
 6206SOL    HW224596   2.050   0.639   3.816 -1.1330 -0.8340  0.8169
 6206SOL    HW324597   1.925   0.704   3.870 -0.0858  2.3110 -0.3311
 6206SOL    MW424598   1.998   0.708   3.822  0.3933  0.4480  0.1723
 6207SOL     OW24599   1.806   4.512   2.835 -0.2473  0.3022 -0.0693
 6207SOL    HW224600   1.869   4.583   2.850 -0.4513  0.0595  2.2819
 6207SOL    HW324601   1.814   4.492   2.742 -0.6208  3.7934 -0.9717
 6207SOL    MW424602   1.816   4.519   2.825 -0.3235  0.7308  0.1218
 6208SOL     OW24603   3.118   0.324   1.194  0.4056 -0.1134  0.3584
 6208SOL    HW224604   3.108   0.238   1.235 -2.0518 -0.0522  0.0273
 6208SOL    HW324605   3.031   0.363   1.199  1.2613  2.0141 -0.3041
 6208SOL    MW424606   3.105   0.318   1.200  0.1943  0.1754  0.2273
 6209SOL     OW24607   4.599   4.610   1.863  0.2752  0.3415 -0.2880
 6209SOL    HW224608   4.516   4.657   1.872 -0.7950 -1.6009  0.6391
 6209SOL    HW324609   4.618   4.578   1.952  1.0033 -0.8488 -0.8450
 6209SOL    MW424610   4.591   4.612   1.876  0.2301 -0.0718 -0.2392
 6210SOL     OW24611   4.168   2.853   2.970 -0.3383 -0.1080  0.2507
 6210SOL    HW224612   4.146   2.945   2.953 -0.5030 -0.0921  0.5516
 6210SOL    HW324613   4.125   2.805   2.900  0.8041  0.1541 -0.6769
 6210SOL    MW424614   4.160   2.859   2.959 -0.2093 -0.0713  0.1680
 6211SOL     OW24615   3.930   0.669   3.120  0.6550  0.3916 -0.6381
 6211SOL    HW224616   3.862   0.629   3.173  1.2188  0.6208  0.2842
 6211SOL    HW324617   4.012   0.648   3.165  1.1919  0.2490 -1.6416
 6211SOL    MW424618   3.932   0.661   3.133  0.8002  0.4030 -0.6488
 6212SOL     OW24619   5.641   4.069   5.582  0.1921  0.2974 -0.0819
 6212SOL    HW224620   5.646   4.109   5.495 -0.8959 -0.4362 -0.4970
 6212SOL    HW324621   5.620   4.142   5.640  1.3221  0.8688 -0.3453
 6212SOL    MW424622   5.639   4.084   5.578  0.1976  0.2760 -0.1714
 6213SOL     OW24623   6.263   4.013   3.025 -0.0055 -0.2729  0.1589
 6213SOL    HW224624   6.352   3.996   3.056  0.9016  1.2727 -1.4220
 6213SOL    HW324625   6.259   3.970   2.940 -1.2663 -1.4406  0.7598
 6213SOL    MW424626   6.274   4.005   3.018 -0.0522 -0.2231  0.0296
 6214SOL     OW24627   1.660   1.713   3.151 -0.3771  0.4630  0.2318
 6214SOL    HW224628   1.660   1.630   3.103 -0.3986 -0.8972  2.4810
 6214SOL    HW324629   1.750   1.744   3.146 -0.6592  1.1239 -1.8572
 6214SOL    MW424630   1.672   1.706   3.144 -0.4171  0.3707  0.2530
 6215SOL     OW24631   4.825   0.258   4.563  0.6113 -0.2476 -0.2378
 6215SOL    HW224632   4.919   0.273   4.576  0.2156  1.2916  1.1425
 6215SOL    HW324633   4.788   0.259   4.651 -0.6316 -1.5888 -0.7116
 6215SOL    MW424634   4.833   0.260   4.576  0.3951 -0.2215 -0.1182
 6216SOL     OW24635   0.548   3.226   4.983  0.2486 -0.8700 -0.1285
 6216SOL    HW224636   0.501   3.196   5.061 -0.0117 -1.4851 -0.5084
 6216SOL    HW324637   0.539   3.153   4.921  0.8808 -0.5926 -0.5522
 6216SOL    MW424638   0.540   3.212   4.985  0.2976 -0.9145 -0.2345
 6217SOL     OW24639   0.179   5.733   0.127 -0.1995 -0.4380  0.4469
 6217SOL    HW224640   0.092   5.757   0.156 -0.3023 -1.1115  0.7105
 6217SOL    HW324641   0.173   5.639   0.108  0.4435 -0.4719  0.3921
 6217SOL    MW424642   0.167   5.724   0.128 -0.1282 -0.5313  0.4744
 6218SOL     OW24643   2.322   0.940   0.452 -0.1213  0.3869 -0.3956
 6218SOL    HW224644   2.403   0.984   0.427  1.1138 -0.1276  2.3350
 6218SOL    HW324645   2.265   1.010   0.482  0.7780  0.4584  1.2485
 6218SOL    MW424646   2.325   0.955   0.452  0.1603  0.3284  0.1816
 6219SOL     OW24647   1.216   1.940   4.388  0.8053  0.2135  0.4362
 6219SOL    HW224648   1.287   1.992   4.351  0.7845 -0.7249 -1.0218
 6219SOL    HW324649   1.145   2.003   4.404  1.1449  0.8009 -0.3044
 6219SOL    MW424650   1.216   1.955   4.385  0.8473  0.1672  0.1461
 6220SOL     OW24651   3.685   0.858   6.066 -0.3685  0.7959  0.0770
 6220SOL    HW224652   3.682   0.769   6.029 -1.5888 -0.0459  2.0388
 6220SOL    HW324653   3.601   0.868   6.110  0.7013  1.9854  1.9632
 6220SOL    MW424654   3.673   0.847   6.067 -0.3883  0.8418  0.5847
 6221SOL     OW24655   5.031   5.630   3.287 -0.2205 -0.4170 -0.3417
 6221SOL    HW224656   5.003   5.539   3.290 -2.5133  0.2196  0.3344
 6221SOL    HW324657   5.010   5.659   3.199 -1.4551 -0.0447  0.0481
 6221SOL    MW424658   5.024   5.622   3.276 -0.6859 -0.2839 -0.2011
 6222SOL     OW24659   6.345   5.071   6.406  0.1239 -0.2394  0.5193
 6222SOL    HW224660   6.265   5.019   6.411 -0.3313  0.4546  0.4382
 6222SOL    HW324661   6.404   5.018   6.353 -0.8560 -0.0022 -0.8414
 6222SOL    MW424662   6.343   5.057   6.400 -0.0654 -0.1166  0.3290
 6223SOL     OW24663   5.348   6.205   3.351 -0.5062  0.5882  0.0695
 6223SOL    HW224664   5.284   6.266   3.389 -1.3475 -0.5150  0.4858
 6223SOL    HW324665   5.350   6.132   3.413  0.1409 -0.0215 -0.6552
 6223SOL    MW424666   5.340   6.203   3.365 -0.5318  0.3622  0.0288
 6224SOL     OW24667   2.494   3.052   2.616 -0.5388  0.1103 -0.4666
 6224SOL    HW224668   2.454   3.135   2.590 -0.4406  0.4479  0.3953
 6224SOL    HW324669   2.585   3.060   2.591 -0.4040  0.5068  0.1265
 6224SOL    MW424670   2.500   3.064   2.610 -0.5080  0.2072 -0.2746
 6225SOL     OW24671   3.804   2.527   6.188  0.3711  0.5393 -0.1724
 6225SOL    HW224672   3.889   2.486   6.204  0.3887  0.5913 -0.1338
 6225SOL    HW324673   3.779   2.495   6.101  0.3786  0.4370 -0.1379
 6225SOL    MW424674   3.812   2.517   6.178  0.3744  0.5326 -0.1628
 6226SOL     OW24675   5.782   2.924   5.050 -0.1436  0.1387 -0.2456
 6226SOL    HW224676   5.755   2.863   4.981  0.2314  0.6777 -0.8820
 6226SOL    HW324677   5.719   2.995   5.045 -1.8113 -1.0846  1.8238
 6226SOL    MW424678   5.770   2.925   5.040 -0.3141  0.0484 -0.0566
 6227SOL     OW24679   5.422   4.289   4.485 -0.0250 -0.3366  0.2990
 6227SOL    HW224680   5.424   4.236   4.565  0.7286 -0.9138 -0.0981
 6227SOL    HW324681   5.334   4.328   4.486 -1.4226 -3.1805 -0.4294
 6227SOL    MW424682   5.411   4.287   4.496 -0.1100 -0.7880  0.1505
 6228SOL     OW24683   2.977   5.612   2.528 -0.0019 -0.1938 -0.9675
 6228SOL    HW224684   2.981   5.665   2.448 -0.4853  0.8396 -0.3187
 6228SOL    HW324685   2.892   5.568   2.522  0.5313 -1.1818 -1.6589
 6228SOL    MW424686   2.966   5.613   2.517  0.0046 -0.1878 -0.9731
 6229SOL     OW24687   4.942   5.364   3.318  0.1292 -0.0230 -0.4483
 6229SOL    HW224688   4.981   5.313   3.247  1.4691  2.2089 -1.4510
 6229SOL    HW324689   4.854   5.385   3.286 -0.0783 -0.8514 -0.4504
 6229SOL    MW424690   4.936   5.360   3.304  0.2786  0.1622 -0.5809
 6230SOL     OW24691   2.043   1.201   2.513  0.1787 -0.4570  0.0048
 6230SOL    HW224692   1.948   1.195   2.510  0.0554  0.2797  1.2459
 6230SOL    HW324693   2.068   1.239   2.429 -0.8645  1.5263  0.5326
 6230SOL    MW424694   2.034   1.205   2.502  0.0248 -0.0981  0.2382
 6231SOL     OW24695   5.064   4.930   2.291 -0.1319 -0.3874  0.3678
 6231SOL    HW224696   5.158   4.917   2.294  0.0396  0.8637  1.8673
 6231SOL    HW324697   5.027   4.844   2.313  0.6122 -1.0514 -0.8958
 6231SOL    MW424698   5.071   4.917   2.295 -0.0111 -0.3100  0.3989
 6232SOL     OW24699   4.268   5.933   1.006 -0.3760  0.4404  0.3627
 6232SOL    HW224700   4.315   5.873   1.064  0.8769  0.4872 -0.5530
 6232SOL    HW324701   4.299   6.020   1.033 -0.9829  0.5755  0.6423
 6232SOL    MW424702   4.278   5.937   1.018 -0.2907  0.4644  0.2788
 6233SOL     OW24703   2.279   2.392   3.027  0.3133  0.2059  0.5771
 6233SOL    HW224704   2.279   2.296   3.032 -0.6195  0.1545 -0.2919
 6233SOL    HW324705   2.370   2.416   3.046  0.7751 -0.9005 -0.1234
 6233SOL    MW424706   2.291   2.382   3.030  0.2512  0.0531  0.3700
 6234SOL     OW24707   0.590   0.808   1.672 -0.3859  0.2630  0.2470
 6234SOL    HW224708   0.623   0.898   1.670 -2.3921  1.0385 -0.0133
 6234SOL    HW324709   0.512   0.810   1.617  1.1435 -2.3519 -2.2973
 6234SOL    MW424710   0.584   0.820   1.664 -0.4488  0.0203 -0.1231
 6235SOL     OW24711   2.840   1.794   0.181 -0.0613  0.1645 -0.4645
 6235SOL    HW224712   2.907   1.787   0.249 -1.5746  0.8421  1.1752
 6235SOL    HW324713   2.839   1.887   0.157  0.5875 -0.0969 -1.5991
 6235SOL    MW424714   2.849   1.805   0.187 -0.1753  0.2194 -0.3978
 6236SOL     OW24715   3.836   5.655   1.196  0.4854 -0.7119 -0.1756
 6236SOL    HW224716   3.749   5.614   1.195 -0.0200  0.3249  0.2101
 6236SOL    HW324717   3.835   5.712   1.273  1.5605 -0.7705 -0.0947
 6236SOL    MW424718   3.824   5.657   1.206  0.5606 -0.5829 -0.1141
 6237SOL     OW24719   3.857   2.703   0.894  0.2237  0.3974 -0.0813
 6237SOL    HW224720   3.951   2.695   0.914 -0.2741 -0.7152  2.1265
 6237SOL    HW324721   3.850   2.677   0.802  1.8179 -1.7762  0.3243
 6237SOL    MW424722   3.869   2.698   0.885  0.3684 -0.0362  0.2635
 6238SOL     OW24723   1.659   3.932   1.381  0.1676 -0.2861 -0.3499
 6238SOL    HW224724   1.617   3.854   1.417  0.6382 -0.5823 -0.4302
 6238SOL    HW324725   1.711   3.900   1.307  1.1291 -0.0482  0.1997
 6238SOL    MW424726   1.661   3.918   1.376  0.3566 -0.2938 -0.2880
 6239SOL     OW24727   4.193   4.339   1.109  0.2136 -0.3232  0.0244
 6239SOL    HW224728   4.243   4.259   1.092  0.7689  0.0669 -0.2258
 6239SOL    HW324729   4.205   4.356   1.202  1.0587  0.0943 -0.1494
 6239SOL    MW424730   4.201   4.330   1.119  0.3983 -0.2166 -0.0316
 6240SOL     OW24731   5.832   3.695   3.329  0.4034 -0.4739  0.0252
 6240SOL    HW224732   5.770   3.662   3.264 -1.0102  0.6351  0.7509
 6240SOL    HW324733   5.877   3.767   3.284  1.6982 -1.7064 -0.7252
 6240SOL    MW424734   5.830   3.700   3.314  0.3878 -0.4902  0.0219
 6241SOL     OW24735   3.136   2.356   1.381  0.2216  0.1117  0.2385
 6241SOL    HW224736   3.082   2.312   1.447  0.9070 -1.3578 -0.1436
 6241SOL    HW324737   3.087   2.343   1.299 -0.4033  1.5453  0.3504
 6241SOL    MW424738   3.122   2.349   1.379  0.2296  0.1070  0.2029
 6242SOL     OW24739   4.574   2.297   3.124 -0.6707 -0.4088 -0.3461
 6242SOL    HW224740   4.582   2.384   3.164 -0.5796 -0.4261 -0.3282
 6242SOL    HW324741   4.653   2.251   3.149 -1.2906 -0.9401  0.7061
 6242SOL    MW424742   4.585   2.303   3.132 -0.7405 -0.4812 -0.2049
 6243SOL     OW24743   5.903   2.435   1.766  0.0035  0.4477 -0.1703
 6243SOL    HW224744   5.877   2.527   1.764  0.3364  0.5591  0.3115
 6243SOL    HW324745   5.995   2.437   1.794 -0.6204 -0.1326  2.2124
 6243SOL    MW424746   5.912   2.447   1.770 -0.0349  0.3859  0.2077
 6244SOL     OW24747   5.552   0.266   6.053  0.0327  0.3831 -0.7023
 6244SOL    HW224748   5.471   0.220   6.076  0.7531 -0.3295  0.5131
 6244SOL    HW324749   5.532   0.359   6.067 -0.5070  0.1920 -0.1606
 6244SOL    MW424750   5.538   0.272   6.058  0.0566  0.2638 -0.4705
 6245SOL     OW24751   6.034   1.065   1.633  0.0637  0.4669  0.2069
 6245SOL    HW224752   5.940   1.056   1.647  0.1984 -1.6195  0.1538
 6245SOL    HW324753   6.073   1.051   1.719  0.3942 -1.0759 -0.1612
 6245SOL    MW424754   6.027   1.062   1.646  0.1251 -0.0119  0.1513
 6246SOL     OW24755   4.240   1.536   3.332  0.6543  0.0454 -0.5540
 6246SOL    HW224756   4.206   1.537   3.243  0.0294 -2.6632 -0.4403
 6246SOL    HW324757   4.291   1.455   3.337 -0.1154 -0.3675  1.7855
 6246SOL    MW424758   4.242   1.525   3.321  0.4703 -0.3665 -0.2304
 6247SOL     OW24759   1.155   4.175   2.449 -0.6425  0.2146  0.2088
 6247SOL    HW224760   1.159   4.265   2.483  0.4787  0.0939  0.4461
 6247SOL    HW324761   1.210   4.125   2.509 -1.9634 -0.8203  0.5967
 6247SOL    MW424762   1.163   4.180   2.461 -0.6688  0.0621  0.2913
 6248SOL     OW24763   2.271   0.405   2.228  0.3933 -0.1100 -0.5143
 6248SOL    HW224764   2.267   0.421   2.133 -1.2222 -0.2409 -0.4940
 6248SOL    HW324765   2.208   0.467   2.265  1.4160  0.3196  0.5521
 6248SOL    MW424766   2.262   0.415   2.220  0.3151 -0.0706 -0.3710
 6249SOL     OW24767   2.702   3.675   1.636 -0.1733  0.2144  0.3915
 6249SOL    HW224768   2.748   3.663   1.553 -0.7544 -0.1448  0.1189
 6249SOL    HW324769   2.664   3.762   1.630  0.4385  0.5047  0.6083
 6249SOL    MW424770   2.703   3.685   1.624 -0.1693  0.2053  0.3842
 6250SOL     OW24771   5.815   6.275   2.377 -0.3569 -0.2061 -0.2184
 6250SOL    HW224772   5.728   6.295   2.411  0.5483  1.8172  1.0698
 6250SOL    HW324773   5.862   6.237   2.451 -0.3821 -2.2175 -1.1729
 6250SOL    MW424774   5.810   6.272   2.391 -0.2408 -0.2045 -0.1744
 6251SOL     OW24775   3.708   2.295   2.157 -0.1115  0.5890  0.1217
 6251SOL    HW224776   3.622   2.336   2.161 -1.4411 -1.9208 -0.5075
 6251SOL    HW324777   3.720   2.273   2.065  0.5176 -0.3955  0.4236
 6251SOL    MW424778   3.698   2.297   2.145 -0.2039  0.1279  0.0785
 6252SOL     OW24779   0.154   0.298   5.239 -0.0872 -0.5215 -0.3832
 6252SOL    HW224780   0.173   0.359   5.310 -0.2636 -1.3746  0.4075
 6252SOL    HW324781   0.081   0.338   5.192 -0.1553 -0.0926  0.0822
 6252SOL    MW424782   0.147   0.311   5.242 -0.1195 -0.5774 -0.2175
 6253SOL     OW24783   3.306   1.512   2.808  0.2093 -0.5709 -0.6730
 6253SOL    HW224784   3.336   1.452   2.739 -1.0010  0.1864 -1.9088
 6253SOL    HW324785   3.213   1.490   2.820 -0.2679  1.0430 -1.1775
 6253SOL    MW424786   3.297   1.501   2.801 -0.0133 -0.2580 -0.9026
 6254SOL     OW24787   4.064   3.440   5.700  0.2602  0.0030  0.0541
 6254SOL    HW224788   4.046   3.491   5.779  1.1469  0.8998 -0.2914
 6254SOL    HW324789   4.145   3.392   5.720 -0.7817 -1.6330  0.5219
 6254SOL    MW424790   4.073   3.441   5.713  0.2397 -0.0945  0.0703
 6255SOL     OW24791   0.511   2.354   2.642  0.5030 -0.3290 -0.4642
 6255SOL    HW224792   0.480   2.385   2.727  0.3565 -0.4249 -0.4829
 6255SOL    HW324793   0.580   2.416   2.618 -0.0723  0.2246 -0.6934
 6255SOL    MW424794   0.516   2.366   2.650  0.4078 -0.2686 -0.4969
 6256SOL     OW24795   1.422   5.647   0.248  0.5668 -0.1621 -0.2376
 6256SOL    HW224796   1.331   5.675   0.255 -0.6733 -2.6939 -3.3601
 6256SOL    HW324797   1.471   5.727   0.230 -1.4449  1.0027 -0.9045
 6256SOL    MW424798   1.416   5.661   0.246  0.1378 -0.3425 -0.7376
 6257SOL     OW24799   5.629   5.035   4.651 -0.2459 -0.2307  0.3135
 6257SOL    HW224800   5.641   4.998   4.738  1.0535  0.3697  0.4052
 6257SOL    HW324801   5.676   4.975   4.593 -0.2521 -0.0810  0.1530
 6257SOL    MW424802   5.637   5.022   4.655 -0.0753 -0.1317  0.3044
 6258SOL     OW24803   1.943   4.275   3.010  0.0219 -0.1428 -0.3920
 6258SOL    HW224804   1.916   4.360   2.977  1.0269  0.5845  0.5998
 6258SOL    HW324805   2.000   4.240   2.942 -0.7672 -0.2513 -1.0137
 6258SOL    MW424806   1.947   4.281   2.997  0.0504 -0.0611 -0.3431
 6259SOL     OW24807   4.167   5.783   0.785 -0.7524  0.4702  0.1197
 6259SOL    HW224808   4.222   5.823   0.852  0.5737 -0.3791 -0.4462
 6259SOL    HW324809   4.202   5.816   0.702 -1.4518  0.3568 -0.2298
 6259SOL    MW424810   4.179   5.793   0.783 -0.6697  0.3432 -0.0010
 6260SOL     OW24811   1.552   6.400   0.888  0.3732 -0.1521 -0.2272
 6260SOL    HW224812   1.468   6.376   0.928 -0.4418 -0.0433 -1.8080
 6260SOL    HW324813   1.528   6.457   0.816  1.8237 -0.1421 -0.7188
 6260SOL    MW424814   1.538   6.404   0.884  0.4570 -0.1364 -0.5006
 6261SOL     OW24815   6.095   4.128   0.782  0.1922  0.0069  0.4398
 6261SOL    HW224816   6.051   4.159   0.703  1.2125 -0.7922 -0.4555
 6261SOL    HW324817   6.090   4.203   0.842 -0.8373  0.5256 -0.2597
 6261SOL    MW424818   6.088   4.142   0.780  0.1910 -0.0301  0.2294
 6262SOL     OW24819   2.904   0.404   4.960  0.0428 -0.4168 -0.2870
 6262SOL    HW224820   2.906   0.466   5.033  2.6483 -0.8379  0.0953
 6262SOL    HW324821   2.996   0.390   4.938 -0.5799 -2.2615 -2.0086
 6262SOL    MW424822   2.916   0.411   4.967  0.3044 -0.7158 -0.4637
 6263SOL     OW24823   4.084   5.028   5.185 -0.2285  0.0335  0.2686
 6263SOL    HW224824   4.031   5.102   5.215 -1.2360 -0.5794  0.0525
 6263SOL    HW324825   4.161   5.030   5.241 -0.2846  1.1870  0.3273
 6263SOL    MW424826   4.087   5.038   5.197 -0.3688  0.1048  0.2479
 6264SOL     OW24827   2.033   2.066   0.038  0.3733 -0.2712  0.4184
 6264SOL    HW224828   2.010   2.108  -0.044  1.0970 -0.0922  0.3026
 6264SOL    HW324829   2.042   2.138   0.101  2.3326 -0.1607  0.0485
 6264SOL    MW424830   2.031   2.081   0.036  0.7273 -0.2330  0.3543
 6265SOL     OW24831   2.543   3.008   4.022 -0.6166 -0.6167  0.7219
 6265SOL    HW224832   2.471   3.045   3.971 -0.3867  0.7352  1.3237
 6265SOL    HW324833   2.618   3.007   3.962 -0.1523  1.6498  1.1668
 6265SOL    MW424834   2.543   3.013   4.008 -0.5250 -0.1393  0.8600
 6266SOL     OW24835   5.894   2.473   4.074  0.2836  0.3857  0.4568
 6266SOL    HW224836   5.925   2.540   4.013  0.1688 -0.4047 -0.4938
 6266SOL    HW324837   5.972   2.425   4.099  0.7466  2.1857  2.8845
 6266SOL    MW424838   5.908   2.476   4.069  0.3295  0.5189  0.6517
 6267SOL     OW24839   1.561   0.958   2.020 -0.6843  0.3398  1.0250
 6267SOL    HW224840   1.548   0.871   2.059 -0.4755  0.0001  0.3535
 6267SOL    HW324841   1.611   0.941   1.940 -0.0096  1.1590  1.2618
 6267SOL    MW424842   1.566   0.944   2.014 -0.5677  0.4030  0.9677
 6268SOL     OW24843   3.574   2.341   3.908 -0.1871  0.3314  0.0044
 6268SOL    HW224844   3.480   2.338   3.926 -0.1264  2.3756  0.9927
 6268SOL    HW324845   3.586   2.283   3.832 -2.3595  0.6591 -0.6599
 6268SOL    MW424846   3.563   2.333   3.900 -0.4657  0.6443  0.0471
 6269SOL     OW24847   1.481   3.512   2.737  0.6852  0.0857  0.1859
 6269SOL    HW224848   1.399   3.546   2.700  0.6901  0.2225  0.3014
 6269SOL    HW324849   1.507   3.577   2.802  0.4036 -0.4033  0.8053
 6269SOL    MW424850   1.473   3.525   2.741  0.6487  0.0392  0.2829
 6270SOL     OW24851   4.671   4.603   5.650  0.0770 -0.2191 -0.4697
 6270SOL    HW224852   4.630   4.524   5.615 -2.4943  0.6751  0.2790
 6270SOL    HW324853   4.631   4.674   5.601  0.4952  0.7472  0.5458
 6270SOL    MW424854   4.661   4.602   5.639 -0.2071  0.0263 -0.2369
 6271SOL     OW24855   6.164   2.151   0.139 -0.3449 -0.2969 -0.0251
 6271SOL    HW224856   6.190   2.195   0.220 -2.2307 -1.6636  1.3952
 6271SOL    HW324857   6.137   2.223   0.081 -1.4929  0.5647  1.5135
 6271SOL    MW424858   6.164   2.167   0.142 -0.7452 -0.3636  0.3653
 6272SOL     OW24859   0.967   5.994   4.830  0.1007 -0.0198  0.1037
 6272SOL    HW224860   0.880   5.965   4.802  0.1999  1.9872 -2.6817
 6272SOL    HW324861   0.959   6.088   4.841  1.5974  0.0106  1.3035
 6272SOL    MW424862   0.954   6.002   4.828  0.3113  0.2490 -0.1055
 6273SOL     OW24863   2.379   3.467   1.459  0.3650 -0.0472  0.4075
 6273SOL    HW224864   2.344   3.542   1.508 -0.4130  0.0125 -0.2193
 6273SOL    HW324865   2.443   3.428   1.518 -0.0067  0.4691  1.1754
 6273SOL    MW424866   2.383   3.472   1.473  0.2133  0.0288  0.4261
 6274SOL     OW24867   3.908   3.785   3.947  0.1624  0.0866 -0.6969
 6274SOL    HW224868   3.988   3.733   3.936  0.0499 -0.2046 -0.1705
 6274SOL    HW324869   3.920   3.830   4.030 -0.1470  0.1761 -0.7014
 6274SOL    MW424870   3.920   3.784   3.956  0.1067  0.0600 -0.6281
 6275SOL     OW24871   1.141   5.943   3.997  0.5673 -0.2113 -0.2432
 6275SOL    HW224872   1.184   5.919   3.915  1.6439 -0.6487  0.4213
 6275SOL    HW324873   1.207   5.993   4.045 -0.0187 -0.0276  0.3979
 6275SOL    MW424874   1.155   5.946   3.992  0.6320 -0.2447 -0.0710
 6276SOL     OW24875   6.325   3.544   0.708  0.4555 -0.0665 -0.3012
 6276SOL    HW224876   6.374   3.477   0.660 -2.0387 -0.3446 -2.6347
 6276SOL    HW324877   6.391   3.610   0.730  2.1451 -1.0824 -2.0099
 6276SOL    MW424878   6.340   3.544   0.705  0.3494 -0.2372 -0.8345
 6277SOL     OW24879   4.906   1.880   3.306 -0.2920 -0.1318  0.1004
 6277SOL    HW224880   4.865   1.857   3.223 -0.6700  0.2072  0.1846
 6277SOL    HW324881   5.000   1.880   3.289 -0.4225  2.4587 -1.0221
 6277SOL    MW424882   4.913   1.877   3.293 -0.3591  0.2547 -0.0366
 6278SOL     OW24883   6.278   3.198   1.553 -0.4922  0.0179 -0.4647
 6278SOL    HW224884   6.259   3.275   1.607  3.0471 -0.2364  1.4390
 6278SOL    HW324885   6.341   3.230   1.487 -0.3711 -0.8704 -0.7936
 6278SOL    MW424886   6.284   3.212   1.551 -0.0093 -0.1329 -0.2569
 6279SOL     OW24887   4.147   3.415   2.208  0.5374  0.0773  0.4213
 6279SOL    HW224888   4.196   3.488   2.170 -1.8659  0.2000 -2.8549
 6279SOL    HW324889   4.167   3.341   2.149 -0.9529 -0.5766  0.7128
 6279SOL    MW424890   4.156   3.415   2.195  0.0237  0.0072  0.0275
 6280SOL     OW24891   3.417   2.733   4.739 -0.4296  0.0046 -0.1059
 6280SOL    HW224892   3.357   2.757   4.809 -0.4924 -1.0337  0.2164
 6280SOL    HW324893   3.463   2.814   4.717  0.5816  0.0927  2.0808
 6280SOL    MW424894   3.415   2.747   4.745 -0.3045 -0.1208  0.2252
 6281SOL     OW24895   5.898   4.903   2.703 -0.7806 -0.1458  0.9826
 6281SOL    HW224896   5.901   4.993   2.736  2.1027  0.7898 -1.3967
 6281SOL    HW324897   5.946   4.852   2.768  0.0213  0.6018  0.9942
 6281SOL    MW424898   5.905   4.908   2.716 -0.2943  0.0763  0.6702
 6282SOL     OW24899   0.677   5.301   5.466  0.5885 -0.4093 -0.2119
 6282SOL    HW224900   0.709   5.296   5.375  0.4104 -1.5593 -0.2286
 6282SOL    HW324901   0.650   5.211   5.486  1.5457 -0.3734  1.3256
 6282SOL    MW424902   0.677   5.288   5.456  0.6913 -0.5563 -0.0113
 6283SOL     OW24903   4.493   5.331   3.445 -0.1296 -0.4319 -0.4234
 6283SOL    HW224904   4.474   5.376   3.527  0.3231  0.9710 -1.0605
 6283SOL    HW324905   4.533   5.398   3.390  0.9878 -1.7526 -1.2580
 6283SOL    MW424906   4.495   5.346   3.449  0.0776 -0.4210 -0.6176
 6284SOL     OW24907   2.825   4.919   4.818  0.3957 -0.1164 -0.3188
 6284SOL    HW224908   2.733   4.942   4.804 -0.5586 -2.9541  0.6871
 6284SOL    HW324909   2.863   4.921   4.730 -1.1547 -0.8946 -1.0382
 6284SOL    MW424910   2.818   4.922   4.804  0.0652 -0.5935 -0.2810
 6285SOL     OW24911   5.849   4.596   2.647  0.0611 -0.4370  0.4555
 6285SOL    HW224912   5.854   4.667   2.711  1.2957  0.6216 -0.7319
 6285SOL    HW324913   5.756   4.588   2.626  0.0501  2.6430 -1.2285
 6285SOL    MW424914   5.837   4.604   2.653  0.2225  0.1090  0.0766
 6286SOL     OW24915   1.025   4.553   0.690  0.8378 -0.0722 -0.0495
 6286SOL    HW224916   0.937   4.522   0.669  0.0840  1.3343  0.8904
 6286SOL    HW324917   1.020   4.648   0.682  2.1930  0.0557  0.3508
 6286SOL    MW424918   1.013   4.561   0.686  0.9171  0.1302  0.1273
 6287SOL     OW24919   0.344   4.355   4.134  0.2685  0.5170 -0.0751
 6287SOL    HW224920   0.263   4.404   4.145 -0.2282 -0.5475  1.3773
 6287SOL    HW324921   0.405   4.417   4.093 -0.4504  2.2123  1.2886
 6287SOL    MW424922   0.342   4.370   4.130  0.1081  0.6003  0.2965
 6288SOL     OW24923   1.679   2.036   3.187 -0.1473  0.6568 -0.3396
 6288SOL    HW224924   1.771   2.062   3.199  0.1484 -0.5730  0.1313
 6288SOL    HW324925   1.643   2.036   3.276 -0.0887 -0.6961 -0.3051
 6288SOL    MW424926   1.686   2.040   3.201 -0.1005  0.3160 -0.2730
 6289SOL     OW24927   1.658   2.514   1.236 -0.5265  0.6339 -0.0140
 6289SOL    HW224928   1.741   2.498   1.281 -0.0649  0.4856 -0.8903
 6289SOL    HW324929   1.611   2.432   1.243 -0.8366  0.8771  0.9409
 6289SOL    MW424930   1.663   2.501   1.243 -0.5065  0.6464 -0.0037
 6290SOL     OW24931   3.136   2.153   1.017  0.6168  0.2856  0.4129
 6290SOL    HW224932   3.053   2.131   0.974  1.3584 -0.7384 -0.5651
 6290SOL    HW324933   3.117   2.232   1.067 -0.8214  0.3534 -0.1858
 6290SOL    MW424934   3.122   2.160   1.018  0.5249  0.1594  0.2049
 6291SOL     OW24935   0.641   0.199   3.803  0.4096  0.5619 -0.0784
 6291SOL    HW224936   0.690   0.162   3.876  0.7049  1.7761  0.3680
 6291SOL    HW324937   0.549   0.190   3.828  0.3401 -1.9504 -1.0268
 6291SOL    MW424938   0.636   0.193   3.816  0.4394  0.3907 -0.1446
 6292SOL     OW24939   5.921   2.036   0.196 -0.2400  0.1516  0.1776
 6292SOL    HW224940   5.941   1.984   0.275  1.2123 -1.3494 -1.1048
 6292SOL    HW324941   5.994   2.096   0.188  0.2686 -0.5693 -0.7029
 6292SOL    MW424942   5.933   2.037   0.206  0.0187 -0.1416 -0.1078
 6293SOL     OW24943   1.198   2.485   0.453  0.4056 -0.4317  0.6738
 6293SOL    HW224944   1.167   2.402   0.488  1.3425 -1.6217 -1.1821
 6293SOL    HW324945   1.286   2.466   0.420  1.2883  1.7008  1.6194
 6293SOL    MW424946   1.205   2.472   0.453  0.6457 -0.3074  0.5537
 6294SOL     OW24947   5.554   4.014   1.237 -0.0525 -0.0629  0.2903
 6294SOL    HW224948   5.609   4.056   1.302 -0.3446  2.2467 -0.8633
 6294SOL    HW324949   5.471   4.061   1.241 -0.6829 -1.0442 -0.5477
 6294SOL    MW424950   5.550   4.025   1.246 -0.1742  0.1123  0.0276
 6295SOL     OW24951   0.526   0.359   0.116 -0.1216  0.3221  0.3247
 6295SOL    HW224952   0.523   0.292   0.184  0.0420  0.3049  0.3157
 6295SOL    HW324953   0.487   0.318   0.039 -2.7907  1.1745  1.1074
 6295SOL    MW424954   0.520   0.345   0.115 -0.4522  0.4323  0.4268
 6296SOL     OW24955   3.841   4.230   4.276  0.6567  0.1508  0.4064
 6296SOL    HW224956   3.845   4.255   4.368  1.8411  0.6593  0.2251
 6296SOL    HW324957   3.924   4.185   4.259  0.0223 -0.8530 -0.1601
 6296SOL    MW424958   3.852   4.227   4.286  0.7293  0.0854  0.3078
 6297SOL     OW24959   0.604   2.647   2.598  0.1542  0.0404 -0.9326
 6297SOL    HW224960   0.585   2.741   2.591 -0.0681 -0.0933 -2.2294
 6297SOL    HW324961   0.651   2.639   2.681 -2.7740  0.8147  0.9593
 6297SOL    MW424962   0.608   2.658   2.608 -0.2615  0.1249 -0.8541
 6298SOL     OW24963   0.709   1.071   1.358  0.0854  0.1121 -0.4206
 6298SOL    HW224964   0.747   1.143   1.307  1.1393 -1.2512 -1.6417
 6298SOL    HW324965   0.785   1.024   1.393 -0.5137 -1.1363 -0.7216
 6298SOL    MW424966   0.724   1.074   1.356  0.1454 -0.2325 -0.6214
 6299SOL     OW24967   2.889   2.531   5.841 -0.4812 -0.2161  0.0788
 6299SOL    HW224968   2.841   2.504   5.762 -0.6581 -1.3966  0.5581
 6299SOL    HW324969   2.823   2.532   5.910 -0.1266 -0.2460  0.4233
 6299SOL    MW424970   2.874   2.527   5.840 -0.4577 -0.3758  0.1874
 6300SOL     OW24971   5.747   1.090   1.308 -0.1569 -0.0095 -0.0883
 6300SOL    HW224972   5.840   1.105   1.289 -0.6526  0.7754 -2.1404
 6300SOL    HW324973   5.723   1.163   1.365  0.2974  0.2607 -0.2294
 6300SOL    MW424974   5.756   1.102   1.313 -0.1624  0.1297 -0.3777
 6301SOL     OW24975   2.865   0.653   4.604 -0.9516  0.3737  0.0563
 6301SOL    HW224976   2.936   0.630   4.543  0.5135  1.9768  1.0653
 6301SOL    HW324977   2.829   0.734   4.569  1.3166  2.5418  2.2531
 6301SOL    MW424978   2.870   0.661   4.591 -0.4591  0.8713  0.4793
 6302SOL     OW24979   4.912   5.323   5.713  0.3318 -0.2678 -0.0502
 6302SOL    HW224980   4.846   5.272   5.667 -0.8590  0.6917  0.5240
 6302SOL    HW324981   4.925   5.401   5.658 -1.0315  0.8397  1.1129
 6302SOL    MW424982   4.905   5.327   5.700 -0.0052  0.0049  0.1790
 6303SOL     OW24983   1.530   1.685   1.929  0.3283  0.3265 -0.4349
 6303SOL    HW224984   1.602   1.747   1.933 -1.3660  2.3501  1.3831
 6303SOL    HW324985   1.554   1.616   1.991  1.1323  0.4420 -0.6153
 6303SOL    MW424986   1.542   1.684   1.938  0.2108  0.6087 -0.2189
 6304SOL     OW24987   4.775   2.659   6.260 -0.3422  0.1355 -0.0743
 6304SOL    HW224988   4.722   2.616   6.193 -0.5217  0.0120  0.1451
 6304SOL    HW324989   4.785   2.749   6.229  1.4249 -0.4671 -1.3614
 6304SOL    MW424990   4.769   2.665   6.247 -0.1327  0.0397 -0.2152
 6305SOL     OW24991   3.011   0.361   2.555  0.3047  0.1255  0.4110
 6305SOL    HW224992   2.967   0.288   2.599 -0.7667 -1.3067 -2.7640
 6305SOL    HW324993   2.944   0.429   2.547  0.2392  0.0367  0.2094
 6305SOL    MW424994   2.997   0.360   2.560  0.1547 -0.0752 -0.0345
 6306SOL     OW24995   2.875   0.048   2.315 -0.4396  0.3149 -0.4917
 6306SOL    HW224996   2.811  -0.023   2.309  0.9292 -0.8567 -2.1307
 6306SOL    HW324997   2.941   0.026   2.249 -0.0237  3.1993 -1.1466
 6306SOL    MW424998   2.875   0.036   2.305 -0.2041  0.5409 -0.7943
 6307SOL     OW24999   5.913   4.551   0.626 -0.1477  0.7614  0.3821
 6307SOL    HW225000   5.970   4.560   0.549  0.7365  0.2302  0.9510
 6307SOL    HW325001   5.964   4.588   0.698 -0.8613  1.0166  0.7628
 6307SOL    MW425002   5.927   4.557   0.625 -0.1252  0.7250  0.5074
 6308SOL     OW25003   4.296   2.592   2.158  0.4749  0.0723 -0.3591
 6308SOL    HW225004   4.262   2.666   2.107 -0.4289 -0.6927 -0.8778
 6308SOL    HW325005   4.391   2.601   2.151  0.3805  1.1136 -0.5232
 6308SOL    MW425006   4.304   2.603   2.150  0.3432  0.1087 -0.4492
 6309SOL     OW25007   1.144   1.970   2.502  0.9566  0.0305 -0.2525
 6309SOL    HW225008   1.084   1.896   2.499 -1.0943  1.5127  1.0497
 6309SOL    HW325009   1.150   1.991   2.595  2.8243  0.5002 -0.4476
 6309SOL    MW425010   1.136   1.963   2.514  0.9325  0.2880 -0.1064
 6310SOL     OW25011   4.164   0.718   0.563 -0.3342 -0.0372  0.1599
 6310SOL    HW225012   4.206   0.798   0.594 -0.2135  0.2254 -0.6649
 6310SOL    HW325013   4.092   0.703   0.624 -0.4459  0.7802  0.2315
 6310SOL    MW425014   4.160   0.726   0.575 -0.3330  0.1053  0.0605
 6311SOL     OW25015   1.050   5.500   5.378  0.2907 -0.3067 -0.2752
 6311SOL    HW225016   1.124   5.447   5.408  0.2404  0.2348  0.8528
 6311SOL    HW325017   0.976   5.471   5.432 -0.0639 -0.0712 -0.6285
 6311SOL    MW425018   1.050   5.489   5.389  0.2373 -0.2042 -0.1730
 6312SOL     OW25019   1.360   5.349   1.616 -0.4108  1.0222  0.2503
 6312SOL    HW225020   1.305   5.360   1.693 -0.2121  0.2957  0.5061
 6312SOL    HW325021   1.440   5.308   1.648 -1.1239 -1.2059 -0.5796
 6312SOL    MW425022   1.363   5.345   1.630 -0.4786  0.6324  0.1746
 6313SOL     OW25023   6.201   3.394   1.722 -0.0278 -0.7164 -0.3080
 6313SOL    HW225024   6.239   3.391   1.810 -0.9733  0.4532  0.1729
 6313SOL    HW325025   6.107   3.382   1.735 -0.7427  3.0169 -0.6524
 6313SOL    MW425026   6.194   3.392   1.735 -0.2469 -0.0695 -0.2900
 6314SOL     OW25027   6.029   1.426   4.703  0.2243 -0.1842  0.1974
 6314SOL    HW225028   6.094   1.480   4.749 -0.3533 -0.3798  1.2831
 6314SOL    HW325029   6.046   1.442   4.610  2.1555 -0.6139  0.4293
 6314SOL    MW425030   6.040   1.435   4.697  0.4029 -0.2667  0.3713
 6315SOL     OW25031   3.111   2.664   2.605 -0.1615 -0.2136 -0.3208
 6315SOL    HW225032   3.075   2.583   2.570 -0.2309  0.1432 -1.0908
 6315SOL    HW325033   3.196   2.639   2.643 -0.8709 -0.9288  0.8738
 6315SOL    MW425034   3.118   2.650   2.606 -0.2642 -0.2609 -0.2648
 6316SOL     OW25035   1.320   2.577   1.489  0.0997  0.1425  0.0611
 6316SOL    HW225036   1.408   2.613   1.502  0.0215 -0.3233  2.5163
 6316SOL    HW325037   1.267   2.653   1.465  0.9882  0.5910 -0.5540
 6316SOL    MW425038   1.325   2.592   1.488  0.2066  0.1402  0.3039
 6317SOL     OW25039   4.331   0.789   3.706 -0.5051  0.1516  0.3493
 6317SOL    HW225040   4.243   0.782   3.669  0.6790  1.6137 -3.0816
 6317SOL    HW325041   4.376   0.710   3.676  0.2618  0.9935 -0.7701
 6317SOL    MW425042   4.326   0.778   3.698 -0.2477  0.4556 -0.2511
 6318SOL     OW25043   2.427   4.879   3.114 -0.1731  0.4521 -0.0260
 6318SOL    HW225044   2.452   4.787   3.117  0.9458  0.6688 -1.4744
 6318SOL    HW325045   2.349   4.885   3.169 -3.0462 -2.2909 -3.2967
 6318SOL    MW425046   2.420   4.868   3.121 -0.4045  0.1188 -0.6486
 6319SOL     OW25047   5.411   3.496   5.885  0.1559 -0.2321  0.5441
 6319SOL    HW225048   5.421   3.567   5.949  0.0531 -1.3906  1.9227
 6319SOL    HW325049   5.368   3.536   5.810  3.0738  1.9146 -0.1571
 6319SOL    MW425050   5.407   3.510   5.884  0.5273 -0.1017  0.6335
 6320SOL     OW25051   0.031   6.285   1.881 -0.4113 -0.1916 -0.1111
 6320SOL    HW225052   0.039   6.311   1.789 -0.2007 -0.1982 -0.0948
 6320SOL    HW325053  -0.044   6.226   1.883 -3.6345  3.4570  0.4725
 6320SOL    MW425054   0.022   6.281   1.869 -0.8087  0.2889 -0.0319
 6321SOL     OW25055   5.457   3.669   5.403  0.4743  0.0165 -0.0235
 6321SOL    HW225056   5.459   3.738   5.469  0.0019 -0.6358  0.6816
 6321SOL    HW325057   5.387   3.610   5.431  1.1176 -0.9566 -0.4120
 6321SOL    MW425058   5.448   3.670   5.415  0.4969 -0.1980  0.0182
 6322SOL     OW25059   4.828   4.646   5.313  0.1064 -0.0453  0.4894
 6322SOL    HW225060   4.881   4.595   5.374  1.0917  0.0035 -0.3019
 6322SOL    HW325061   4.886   4.715   5.282 -0.3627 -0.0808 -0.5120
 6322SOL    MW425062   4.843   4.648   5.317  0.1745 -0.0435  0.2529
 6323SOL     OW25063   1.174   0.830   2.198  0.2208 -0.2614 -0.2385
 6323SOL    HW225064   1.221   0.881   2.265  0.9259  0.8434 -1.5323
 6323SOL    HW325065   1.100   0.886   2.173  0.8917  0.0667 -1.5378
 6323SOL    MW425066   1.170   0.844   2.204  0.4023 -0.0723 -0.5806
 6324SOL     OW25067   3.643   0.200   6.317  0.9581  0.1075 -0.0796
 6324SOL    HW225068   3.694   0.259   6.373 -0.6767 -0.0030  1.6191
 6324SOL    HW325069   3.557   0.243   6.309 -0.4473 -2.1609  1.5883
 6324SOL    MW425070   3.638   0.213   6.323  0.5570 -0.2063  0.3646
 6325SOL     OW25071   4.319   5.419   1.076  0.7044  0.4529  0.3056
 6325SOL    HW225072   4.239   5.468   1.093 -0.1891 -0.2405 -1.6105
 6325SOL    HW325073   4.296   5.328   1.095  1.1510  0.2913  0.0832
 6325SOL    MW425074   4.305   5.414   1.081  0.6455  0.3401  0.0235
 6326SOL     OW25075   1.957   1.800   4.935 -0.4322 -0.0213 -0.2412
 6326SOL    HW225076   1.888   1.820   4.999  0.0842  2.9344 -0.4593
 6326SOL    HW325077   2.019   1.873   4.944  1.9375 -1.8157 -1.0818
 6326SOL    MW425078   1.956   1.813   4.945 -0.0514  0.1319 -0.3809
 6327SOL     OW25079   5.033   4.434   3.986  0.4064 -0.3380 -0.4009
 6327SOL    HW225080   5.103   4.378   4.020  0.4969 -0.3394 -0.5907
 6327SOL    HW325081   4.956   4.377   3.983  0.0821 -0.0067  1.0078
 6327SOL    MW425082   5.032   4.419   3.990  0.3755 -0.2944 -0.2401
 6328SOL     OW25083   0.844   3.832   2.371  0.3122 -0.0282  0.2109
 6328SOL    HW225084   0.838   3.870   2.283  0.2813 -1.1805 -0.2949
 6328SOL    HW325085   0.898   3.895   2.419  0.5146  0.5193 -0.6920
 6328SOL    MW425086   0.851   3.846   2.365  0.3348 -0.1080  0.0250
 6329SOL     OW25087   0.342   4.261   6.312  0.8579  0.0276 -0.1925
 6329SOL    HW225088   0.334   4.198   6.241 -0.8289  0.4126 -0.3872
 6329SOL    HW325089   0.324   4.211   6.391  1.5405 -0.1480 -0.1434
 6329SOL    MW425090   0.338   4.246   6.313  0.7254  0.0552 -0.2117
 6330SOL     OW25091   4.032   5.267   6.292  0.0435  0.3394  0.2645
 6330SOL    HW225092   4.051   5.348   6.340 -0.9024  0.4269  0.5064
 6330SOL    HW325093   4.112   5.250   6.242 -0.0795  1.9132 -0.5092
 6330SOL    MW425094   4.045   5.275   6.292 -0.0975  0.5586  0.1944
 6331SOL     OW25095   3.074   4.665   1.475 -0.0105 -0.5163  0.0068
 6331SOL    HW225096   3.099   4.580   1.512 -1.6612 -0.4027  1.5484
 6331SOL    HW325097   3.149   4.722   1.495  1.0014 -1.5041 -0.8068
 6331SOL    MW425098   3.088   4.662   1.483 -0.0948 -0.6316  0.1028
 6332SOL     OW25099   1.970   1.810   3.365 -0.9579 -0.0351  0.2802
 6332SOL    HW225100   1.944   1.786   3.454 -0.3846 -1.0812  0.1740
 6332SOL    HW325101   2.055   1.769   3.353 -1.7712 -1.3374 -1.3607
 6332SOL    MW425102   1.978   1.802   3.375 -0.9895 -0.3450  0.0497
 6333SOL     OW25103   0.328   3.347   5.409  0.1220 -0.5916  0.2305
 6333SOL    HW225104   0.244   3.304   5.424 -0.4129 -0.1029 -1.1779
 6333SOL    HW325105   0.312   3.439   5.429 -1.1358  0.4592 -4.3658
 6333SOL    MW425106   0.315   3.354   5.414 -0.1145 -0.3885 -0.5617
 6334SOL     OW25107   3.599   2.816   3.812  0.4833  0.2532 -0.2339
 6334SOL    HW225108   3.526   2.763   3.781  1.1348 -0.7036 -0.1670
 6334SOL    HW325109   3.559   2.900   3.836 -0.3490  0.3235 -1.7335
 6334SOL    MW425110   3.584   2.820   3.811  0.4594  0.1362 -0.4230
 6335SOL     OW25111   5.574   3.953   3.142 -0.4558 -0.7723 -0.1037
 6335SOL    HW225112   5.489   3.983   3.175  1.4042  1.6359  3.0456
 6335SOL    HW325113   5.579   3.989   3.054 -1.7741  1.1831  0.5410
 6335SOL    MW425114   5.563   3.962   3.135 -0.3843 -0.1966  0.3969
 6336SOL     OW25115   3.521   0.305   1.064  0.3554  0.4369 -0.6128
 6336SOL    HW225116   3.527   0.365   0.989 -0.8168 -0.3508 -1.3730
 6336SOL    HW325117   3.477   0.356   1.132  1.4683  1.1726 -0.3988
 6336SOL    MW425118   3.516   0.320   1.063  0.3476  0.4300 -0.6848
 6337SOL     OW25119   2.764   4.951   0.577  0.4462 -0.4958  0.6398
 6337SOL    HW225120   2.781   5.025   0.635  4.6693 -1.2112  0.6130
 6337SOL    HW325121   2.709   4.892   0.630  2.6567 -0.3384  3.3569
 6337SOL    MW425122   2.759   4.953   0.592  1.2951 -0.5694  0.9947
 6338SOL     OW25123   6.112   0.659   3.792 -0.5621 -0.2328  0.1084
 6338SOL    HW225124   6.187   0.601   3.794 -0.4305 -0.1053 -0.7754
 6338SOL    HW325125   6.150   0.746   3.778 -0.8854 -0.2204 -0.7665
 6338SOL    MW425126   6.127   0.663   3.790 -0.5874 -0.2143 -0.1237
 6339SOL     OW25127   4.945   0.505   5.602  0.3375  0.1015  0.4265
 6339SOL    HW225128   5.004   0.576   5.576  0.7286 -0.5534 -0.5569
 6339SOL    HW325129   4.860   0.530   5.564  0.7436 -0.5020 -0.9389
 6339SOL    MW425130   4.942   0.518   5.593  0.4427 -0.0646  0.1166
 6340SOL     OW25131   2.177   0.333   5.130  0.1916 -0.5214  0.5322
 6340SOL    HW225132   2.160   0.393   5.202  1.9527  1.3307 -0.4600
 6340SOL    HW325133   2.110   0.353   5.065 -0.8238 -1.5269  1.2529
 6340SOL    MW425134   2.166   0.344   5.131  0.2900 -0.4097  0.4964
 6341SOL     OW25135   5.043   0.343   2.866  0.0369  0.0958 -0.5657
 6341SOL    HW225136   5.113   0.326   2.803 -1.3197 -1.3311 -1.7566
 6341SOL    HW325137   5.044   0.267   2.925 -1.1141 -0.4442 -1.2055
 6341SOL    MW425138   5.053   0.331   2.866 -0.2940 -0.1637 -0.8072
 6342SOL     OW25139   2.476   1.802   3.504 -0.1044  0.5053 -0.1752
 6342SOL    HW225140   2.504   1.746   3.432  1.7506  0.0771  0.8379
 6342SOL    HW325141   2.389   1.768   3.528  1.2119 -2.4551  0.8550
 6342SOL    MW425142   2.468   1.790   3.497  0.3140  0.0582  0.0944
 6343SOL     OW25143   5.942   1.972   3.673  0.0207  0.0210  0.0910
 6343SOL    HW225144   5.881   2.040   3.644  0.0748  0.4768  0.9807
 6343SOL    HW325145   6.011   1.970   3.607 -0.2192  0.5110 -0.1751
 6343SOL    MW425146   5.943   1.981   3.661 -0.0038  0.1458  0.1733
 6344SOL     OW25147   3.875   3.591   0.193 -0.1792  0.1825 -0.0959
 6344SOL    HW225148   3.836   3.516   0.239  0.1625  0.4489  0.6408
 6344SOL    HW325149   3.856   3.574   0.101 -0.6388 -0.5042  0.1113
 6344SOL    MW425150   3.867   3.579   0.187 -0.1948  0.1270  0.0286
 6345SOL     OW25151   1.820   4.869   3.882 -0.2046  0.0923 -0.0301
 6345SOL    HW225152   1.792   4.779   3.867 -0.1351  0.1761 -0.7209
 6345SOL    HW325153   1.752   4.906   3.938 -0.5045 -0.2424 -0.1693
 6345SOL    MW425154   1.807   4.862   3.887 -0.2350  0.0592 -0.1396
 6346SOL     OW25155   3.507   2.438   4.236 -0.0517  0.3863  0.4665
 6346SOL    HW225156   3.599   2.412   4.232  0.0968  0.9683 -0.1444
 6346SOL    HW325157   3.479   2.416   4.325  0.0129 -1.9309 -0.0211
 6346SOL    MW425158   3.515   2.432   4.247 -0.0236  0.1573  0.3216
 6347SOL     OW25159   1.886   1.645   5.863  0.1335 -0.4846 -0.2262
 6347SOL    HW225160   1.913   1.663   5.773  0.6440 -3.6080 -0.8351
 6347SOL    HW325161   1.969   1.638   5.912 -0.0303 -0.8773 -0.0015
 6347SOL    MW425162   1.901   1.646   5.858  0.1792 -0.9485 -0.2769
 6348SOL     OW25163   1.521   4.107   5.358  0.0049  0.4152 -0.5522
 6348SOL    HW225164   1.498   4.020   5.391  2.3011  0.9419  2.9430
 6348SOL    HW325165   1.444   4.161   5.377  0.2092  0.0550  1.4830
 6348SOL    MW425166   1.507   4.103   5.365  0.3348  0.4372  0.1775
 6349SOL     OW25167   3.388   2.054   5.212 -0.3844 -0.2423 -0.5103
 6349SOL    HW225168   3.415   2.017   5.296 -1.2135 -1.5125 -0.7756
 6349SOL    HW325169   3.459   2.031   5.152 -1.1183 -1.9066 -0.7839
 6349SOL    MW425170   3.401   2.046   5.215 -0.5906 -0.6294 -0.5814
 6350SOL     OW25171   3.386   1.132   3.342 -0.3301 -0.3036  0.6646
 6350SOL    HW225172   3.343   1.100   3.422 -1.0196  0.0924  0.4665
 6350SOL    HW325173   3.364   1.066   3.276 -1.5553  0.4221  0.3115
 6350SOL    MW425174   3.377   1.119   3.343 -0.5827 -0.1556  0.5919
 6351SOL     OW25175   6.239   2.885   5.215 -0.2960 -0.3281 -0.0204
 6351SOL    HW225176   6.166   2.910   5.158  0.2695  2.0435  0.1780
 6351SOL    HW325177   6.256   2.793   5.194  0.0513  0.4448 -3.9363
 6351SOL    MW425178   6.232   2.876   5.205 -0.1756  0.0867 -0.5109
 6352SOL     OW25179   1.388   3.543   3.781  0.5691  0.1733  0.2201
 6352SOL    HW225180   1.365   3.634   3.764  0.9177  0.7030  2.2498
 6352SOL    HW325181   1.478   3.547   3.814  0.4788 -0.8696  0.6363
 6352SOL    MW425182   1.397   3.555   3.783  0.6032  0.1056  0.5428
 6353SOL     OW25183   1.932   0.233   4.223  0.9459 -0.6130 -0.1840
 6353SOL    HW225184   1.986   0.296   4.271  1.5164  0.4886 -2.1641
 6353SOL    HW325185   1.842   0.263   4.236  1.1334 -0.0532 -0.1569
 6353SOL    MW425186   1.927   0.245   4.231  1.0459 -0.3938 -0.4417
 6354SOL     OW25187   0.236   4.088   5.274 -0.6529  0.0293  0.0881
 6354SOL    HW225188   0.275   4.173   5.293  0.2640 -0.2167 -0.6053
 6354SOL    HW325189   0.263   4.033   5.347 -1.8787  0.5098  0.9250
 6354SOL    MW425190   0.245   4.092   5.286 -0.6936  0.0603  0.1070
 6355SOL     OW25191   1.649   0.765   1.558  0.0658  0.2513  0.2803
 6355SOL    HW225192   1.575   0.713   1.527  0.8304 -0.2110 -0.8194
 6355SOL    HW325193   1.719   0.748   1.496  0.7863  1.4988  0.6960
 6355SOL    MW425194   1.648   0.756   1.546  0.2617  0.3549  0.1901
 6356SOL     OW25195   0.730   1.341   3.343 -0.1480 -0.1561 -0.5920
 6356SOL    HW225196   0.785   1.394   3.400  0.5661 -0.5456 -0.9156
 6356SOL    HW325197   0.642   1.347   3.382  0.2987 -0.2917  0.4564
 6356SOL    MW425198   0.725   1.348   3.356  0.0052 -0.2254 -0.4964
 6357SOL     OW25199   4.184   3.092   3.651  0.5811  0.0764  0.2283
 6357SOL    HW225200   4.190   3.113   3.558 -2.4956 -0.1205 -0.1354
 6357SOL    HW325201   4.254   3.029   3.666  1.1103  0.0436 -1.9618
 6357SOL    MW425202   4.194   3.087   3.641  0.2450  0.0461 -0.1087
 6358SOL     OW25203   2.723   5.530   5.598  0.1565  0.0312  0.0996
 6358SOL    HW225204   2.809   5.488   5.594  0.4534  0.6071  0.3491
 6358SOL    HW325205   2.697   5.524   5.690  0.2165  0.4289  0.1428
 6358SOL    MW425206   2.731   5.524   5.610  0.2036  0.1597  0.1382
 6359SOL     OW25207   5.872   1.339   3.800  0.1442  0.3673  0.3874
 6359SOL    HW225208   5.874   1.426   3.761 -1.4500  0.0490 -0.4635
 6359SOL    HW325209   5.960   1.328   3.838  0.7424  1.8723 -0.4820
 6359SOL    MW425210   5.884   1.349   3.800  0.0128  0.5238  0.1605
 6360SOL     OW25211   3.183   3.453   0.832  0.3744  0.2957 -0.0704
 6360SOL    HW225212   3.221   3.386   0.775  0.9402 -1.2311  1.9953
 6360SOL    HW325213   3.252   3.474   0.895 -1.2304 -0.6031  2.1323
 6360SOL    MW425214   3.197   3.447   0.833  0.2373 -0.0243  0.4928
 6361SOL     OW25215   1.505   1.455   0.013 -0.3230 -1.0400  0.9888
 6361SOL    HW225216   1.436   1.521   0.015 -1.0237 -1.7071 -0.0519
 6361SOL    HW325217   1.474   1.386   0.070  0.3501 -0.5509  1.9728
 6361SOL    MW425218   1.492   1.455   0.020 -0.3266 -1.0635  0.9813
 6362SOL     OW25219   1.769   0.995   6.346  0.0335  0.2224 -0.7617
 6362SOL    HW225220   1.854   1.035   6.367 -0.5395  1.6657 -1.0916
 6362SOL    HW325221   1.724   1.060   6.293 -1.9017  0.1496  0.6935
 6362SOL    MW425222   1.774   1.009   6.342 -0.2974  0.4032 -0.6133
 6363SOL     OW25223   0.944   1.235   0.371  0.5061 -0.2346 -0.0032
 6363SOL    HW225224   0.926   1.276   0.286  0.5809 -0.9978 -0.3881
 6363SOL    HW325225   0.901   1.150   0.366  0.4395 -0.2470  0.7606
 6363SOL    MW425226   0.936   1.229   0.359  0.5072 -0.3369  0.0468
 6364SOL     OW25227   0.768   0.117   6.248  0.4997 -0.0288 -0.5289
 6364SOL    HW225228   0.675   0.121   6.270  0.6491  0.9302 -0.0409
 6364SOL    HW325229   0.796   0.030   6.276  0.0871  0.2158  0.6712
 6364SOL    MW425230   0.759   0.106   6.254  0.4650  0.1300 -0.3062
 6365SOL     OW25231   2.449   4.195   6.084 -0.0323 -0.1591 -0.3871
 6365SOL    HW225232   2.360   4.165   6.103  0.0897  1.1669  2.9364
 6365SOL    HW325233   2.504   4.119   6.102 -0.3919 -0.8316 -1.9602
 6365SOL    MW425234   2.444   4.181   6.089 -0.0636 -0.0729 -0.1561
 6366SOL     OW25235   3.982   3.349   4.341 -0.2341 -0.2798 -0.2765
 6366SOL    HW225236   3.915   3.397   4.293 -0.8313 -0.0685  0.7539
 6366SOL    HW325237   4.027   3.298   4.274 -0.2544  0.9313 -1.2395
 6366SOL    MW425238   3.979   3.348   4.326 -0.3156 -0.0921 -0.2676
 6367SOL     OW25239   0.506   5.615   0.703  0.1049  0.3208 -0.0847
 6367SOL    HW225240   0.501   5.709   0.722 -1.0351  0.2217  0.1986
 6367SOL    HW325241   0.575   5.607   0.638  1.1884  1.1885  0.9174
 6367SOL    MW425242   0.514   5.627   0.697  0.0974  0.4222  0.0849
 6368SOL     OW25243   0.014   0.195   1.680 -0.1253 -0.2215 -0.1122
 6368SOL    HW225244   0.054   0.271   1.639 -0.8000  0.8096  1.0783
 6368SOL    HW325245  -0.080   0.202   1.660 -0.3066 -0.2925  0.6597
 6368SOL    MW425246   0.007   0.206   1.672 -0.2382 -0.0948  0.1467
 6369SOL     OW25247   2.223   2.190   4.286 -0.1685  0.6318  0.2859
 6369SOL    HW225248   2.129   2.199   4.271  0.0546  3.2353  0.1359
 6369SOL    HW325249   2.243   2.253   4.355  1.5064  0.1481  0.2983
 6369SOL    MW425250   2.213   2.199   4.293  0.0819  0.9115  0.2677
 6370SOL     OW25251   5.448   1.828   2.935 -0.3598  0.4945 -0.3240
 6370SOL    HW225252   5.458   1.886   3.011 -0.2272 -0.7422  0.6278
 6370SOL    HW325253   5.536   1.797   2.917 -0.6213 -0.4642  0.0273
 6370SOL    MW425254   5.461   1.832   2.943 -0.3768  0.2048 -0.1521
 6371SOL     OW25255   2.722   3.299   2.804  0.3639  0.4270  0.5723
 6371SOL    HW225256   2.712   3.242   2.728  2.6236  1.0667 -0.2779
 6371SOL    HW325257   2.641   3.350   2.805  0.6630  1.1250 -2.0522
 6371SOL    MW425258   2.710   3.298   2.794  0.7015  0.6035  0.1138
 6372SOL     OW25259   4.223   0.159   4.915 -0.7103 -0.2328 -0.2588
 6372SOL    HW225260   4.286   0.106   4.866 -0.1992  1.0395 -1.0258
 6372SOL    HW325261   4.253   0.153   5.006 -0.0274 -0.3877 -0.4851
 6372SOL    MW425262   4.235   0.151   4.921 -0.5527 -0.0854 -0.3899
 6373SOL     OW25263   5.653   1.577   1.336  0.2611 -0.0913 -0.1291
 6373SOL    HW225264   5.641   1.575   1.241 -1.7953  0.0214  0.0813
 6373SOL    HW325265   5.565   1.590   1.371  0.7220 -1.8004  1.8608
 6373SOL    MW425266   5.640   1.578   1.328  0.0506 -0.3020  0.1612
 6374SOL     OW25267   0.203   5.730   0.988  0.1378 -0.6915 -0.2621
 6374SOL    HW225268   0.265   5.717   1.060 -0.7848 -2.7467  0.2228
 6374SOL    HW325269   0.119   5.747   1.032  0.2039  1.5991 -0.9057
 6374SOL    MW425270   0.200   5.731   1.003  0.0248 -0.6605 -0.2831
 6375SOL     OW25271   4.700   3.513   5.936 -0.2238 -0.7525  0.0013
 6375SOL    HW225272   4.772   3.503   5.873 -0.7850  0.5934 -0.9072
 6375SOL    HW325273   4.621   3.512   5.882 -0.8653 -1.4793  0.9107
 6375SOL    MW425274   4.699   3.512   5.920 -0.3825 -0.6708  0.0015
 6376SOL     OW25275   3.386   6.023   4.614  0.4372  0.9160  0.1560
 6376SOL    HW225276   3.397   6.085   4.687  0.0116 -0.1697  1.1627
 6376SOL    HW325277   3.353   5.943   4.655 -0.8440  0.6137 -1.3641
 6376SOL    MW425278   3.383   6.021   4.629  0.2120  0.7329  0.0882
 6377SOL     OW25279   0.311   2.070   2.004 -0.0096 -0.1825 -0.2037
 6377SOL    HW225280   0.379   2.082   2.071  0.2280  3.3611 -0.9020
 6377SOL    HW325281   0.355   2.021   1.935  1.3606  0.5582  0.0951
 6377SOL    MW425282   0.326   2.065   2.004  0.2025  0.3828 -0.2564
 6378SOL     OW25283   5.556   2.514   0.490  0.0246 -0.5125  0.1901
 6378SOL    HW225284   5.462   2.500   0.500 -0.0871 -0.4611 -0.7333
 6378SOL    HW325285   5.580   2.568   0.566 -1.2982  2.1420 -1.1142
 6378SOL    MW425286   5.547   2.519   0.501 -0.1646 -0.1555 -0.1038
 6379SOL     OW25287   3.373   4.102   2.608 -0.1105 -0.0178 -0.1543
 6379SOL    HW225288   3.363   4.014   2.571 -0.5646 -0.3441  0.7067
 6379SOL    HW325289   3.294   4.148   2.581  0.3799  0.3117 -1.0675
 6379SOL    MW425290   3.361   4.096   2.599 -0.1057 -0.0174 -0.1612
 6380SOL     OW25291   5.426   2.811   6.178  0.6555 -0.5166 -0.2243
 6380SOL    HW225292   5.341   2.785   6.214  0.5654 -0.0037 -0.0564
 6380SOL    HW325293   5.430   2.905   6.192  1.8679 -0.7202  1.0552
 6380SOL    MW425294   5.415   2.820   6.184  0.8035 -0.4758 -0.0334
 6381SOL     OW25295   4.385   1.115   0.171 -0.1806  0.4933 -0.4517
 6381SOL    HW225296   4.376   1.049   0.241 -1.6611  1.1716  0.0454
 6381SOL    HW325297   4.382   1.064   0.090 -0.0189 -0.1691 -0.0501
 6381SOL    MW425298   4.383   1.099   0.170 -0.3546  0.4954 -0.3331
 6382SOL     OW25299   4.145   4.291   4.951 -0.9160  0.0201  0.0258
 6382SOL    HW225300   4.060   4.272   4.992 -0.5634 -0.6431  0.4850
 6382SOL    HW325301   4.202   4.221   4.983 -0.2538  0.3308 -0.4600
 6382SOL    MW425302   4.141   4.279   4.961 -0.7821 -0.0264  0.0223
 6383SOL     OW25303   0.596   4.538   0.771  0.7349 -0.9177  0.3199
 6383SOL    HW225304   0.653   4.494   0.708  1.3495  0.7908 -0.3968
 6383SOL    HW325305   0.508   4.513   0.746  1.0571 -1.5785 -0.1791
 6383SOL    MW425306   0.592   4.529   0.760  0.8585 -0.7795  0.1595
 6384SOL     OW25307   2.216   3.758   3.001  0.0209 -0.2916  0.3955
 6384SOL    HW225308   2.125   3.784   3.016  0.0662  0.1842 -0.1059
 6384SOL    HW325309   2.260   3.774   3.084 -0.4496 -0.9590  0.7801
 6384SOL    MW425310   2.210   3.763   3.014 -0.0352 -0.3169  0.3801
 6385SOL     OW25311   4.407   5.389   4.563 -0.1109  0.2879 -0.4471
 6385SOL    HW225312   4.493   5.395   4.603 -0.8704 -0.8259  1.4910
 6385SOL    HW325313   4.422   5.403   4.469  1.8011  2.7500  0.1123
 6385SOL    MW425314   4.420   5.392   4.556  0.0412  0.4658 -0.1176
 6386SOL     OW25315   2.673   2.722   2.377  0.4017 -0.0821  0.1955
 6386SOL    HW225316   2.595   2.778   2.385  0.5030  0.0136  0.5381
 6386SOL    HW325317   2.741   2.771   2.422 -0.0534 -1.5492  2.6867
 6386SOL    MW425318   2.671   2.736   2.384  0.3550 -0.2630  0.5694
 6387SOL     OW25319   5.470   5.818   1.065  0.9288 -0.8843  0.4883
 6387SOL    HW225320   5.383   5.858   1.062  0.8617 -1.0416  0.2781
 6387SOL    HW325321   5.493   5.817   1.157  0.7920 -0.6562  0.5238
 6387SOL    MW425322   5.461   5.823   1.076  0.9019 -0.8749  0.4652
 6388SOL     OW25323   5.648   1.351   1.727 -0.7079 -0.2565 -0.2651
 6388SOL    HW225324   5.618   1.331   1.638  0.3530  0.4473 -0.7999
 6388SOL    HW325325   5.643   1.446   1.733  2.8175  0.0849 -0.9442
 6388SOL    MW425326   5.643   1.361   1.716 -0.1028 -0.1186 -0.4252
 6389SOL     OW25327   2.704   4.790   1.352 -0.2882  0.3877 -0.1563
 6389SOL    HW225328   2.750   4.870   1.375  0.1337  0.8036 -2.1920
 6389SOL    HW325329   2.747   4.721   1.403  0.4976  1.2107  0.3194
 6389SOL    MW425330   2.716   4.792   1.361 -0.1289  0.5512 -0.3621
 6390SOL     OW25331   2.871   3.803   1.216  0.0533 -0.4674  0.9058
 6390SOL    HW225332   2.958   3.763   1.205 -0.8432 -2.6614  1.2180
 6390SOL    HW325333   2.869   3.874   1.152  1.2405 -1.9009 -0.8214
 6390SOL    MW425334   2.882   3.807   1.206  0.0916 -0.9460  0.7191
 6391SOL     OW25335   3.904   0.965   3.853 -0.1459 -0.1971 -0.2918
 6391SOL    HW225336   3.889   0.877   3.820  1.2155 -0.2314 -0.9362
 6391SOL    HW325337   3.866   0.966   3.940  2.2705 -2.3691  0.9346
 6391SOL    MW425338   3.897   0.954   3.860  0.3525 -0.4882 -0.2150
 6392SOL     OW25339   5.493   4.924   3.446  0.3203  0.1526 -0.6174
 6392SOL    HW225340   5.571   4.870   3.455  0.4537  0.5811  1.0245
 6392SOL    HW325341   5.497   4.986   3.518 -0.8985  1.0154 -1.2423
 6392SOL    MW425342   5.504   4.925   3.456  0.1771  0.3230 -0.4833
 6393SOL     OW25343   5.282   5.196   4.291  0.7839 -0.4588  0.1599
 6393SOL    HW225344   5.345   5.263   4.266  1.2787 -1.2724 -0.8165
 6393SOL    HW325345   5.331   5.135   4.345  0.5252 -0.4399  0.4192
 6393SOL    MW425346   5.297   5.197   4.295  0.8150 -0.5637  0.0653
 6394SOL     OW25347   5.823   2.633   1.524 -0.3011  0.3221 -0.2397
 6394SOL    HW225348   5.770   2.557   1.499  1.4729 -0.6402 -1.3017
 6394SOL    HW325349   5.759   2.704   1.537 -1.7677 -0.1722 -3.6277
 6394SOL    MW425350   5.808   2.633   1.522 -0.2606  0.1300 -0.8268
 6395SOL     OW25351   5.840   5.751   6.104  0.4652 -0.3831  1.1378
 6395SOL    HW225352   5.927   5.719   6.080  0.6965 -0.3773  1.9288
 6395SOL    HW325353   5.794   5.761   6.021  1.4954  0.3974  0.6289
 6395SOL    MW425354   5.845   5.748   6.090  0.6316 -0.2794  1.1750
 6396SOL     OW25355   2.756   4.979   6.070  0.0033  0.4900 -0.1243
 6396SOL    HW225356   2.712   4.931   6.000  2.5527  1.0978 -2.3414
 6396SOL    HW325357   2.703   5.057   6.083 -0.2426  0.6446 -1.8529
 6396SOL    MW425358   2.743   4.983   6.062  0.3072  0.5906 -0.6449
 6397SOL     OW25359   1.983   2.565   4.672 -0.8509 -0.0457 -0.0455
 6397SOL    HW225360   2.037   2.520   4.737  0.1902  0.3878 -0.5808
 6397SOL    HW325361   1.912   2.604   4.722 -0.7702 -0.7808  0.6578
 6397SOL    MW425362   1.981   2.564   4.687 -0.7029 -0.0855 -0.0234
 6398SOL     OW25363   4.220   0.446   1.926  0.4292 -0.1076 -0.3920
 6398SOL    HW225364   4.128   0.437   1.900  0.0546  0.7497  0.5340
 6398SOL    HW325365   4.219   0.516   1.992  1.8063  0.1833 -0.6503
 6398SOL    MW425366   4.208   0.454   1.931  0.5615  0.0439 -0.3039
 6399SOL     OW25367   0.319   5.197   2.287  0.1458  0.5460 -0.0513
 6399SOL    HW225368   0.345   5.258   2.356 -1.0723  1.1504 -0.0962
 6399SOL    HW325369   0.257   5.138   2.330  0.5990 -0.0855 -0.2486
 6399SOL    MW425370   0.314   5.197   2.302  0.0449  0.5424 -0.0832
 6400SOL     OW25371   0.914   3.178   2.288  0.0189  0.4230  0.0197
 6400SOL    HW225372   0.930   3.254   2.343  1.3808 -0.8984  1.5573
 6400SOL    HW325373   0.976   3.112   2.319 -1.6944 -1.6348 -0.6421
 6400SOL    MW425374   0.924   3.179   2.299 -0.0275 -0.0229  0.1353
 6401SOL     OW25375   3.142   4.499   2.194 -0.4802  0.4575  0.3211
 6401SOL    HW225376   3.194   4.423   2.220  0.5373  1.6032  1.7029
 6401SOL    HW325377   3.158   4.507   2.100 -0.1802 -0.6993  0.2504
 6401SOL    MW425378   3.151   4.490   2.185 -0.3064  0.4560  0.4941
 6402SOL     OW25379   6.258   1.154   3.210  0.3555  0.0694 -0.1523
 6402SOL    HW225380   6.238   1.244   3.184  0.9776  0.5367  0.9430
 6402SOL    HW325381   6.173   1.113   3.221  0.0570  0.6631 -0.1911
 6402SOL    MW425382   6.244   1.161   3.208  0.3982  0.2094 -0.0129
 6403SOL     OW25383   2.967   1.582   3.123 -0.5667 -0.0822  0.0159
 6403SOL    HW225384   3.031   1.519   3.157  0.6423  0.2821 -1.4710
 6403SOL    HW325385   2.904   1.529   3.075 -0.8125 -0.3364  0.6003
 6403SOL    MW425386   2.967   1.567   3.121 -0.4396 -0.0677 -0.1032
 6404SOL     OW25387   3.265   2.108   4.613 -0.0531 -0.3622 -0.2497
 6404SOL    HW225388   3.173   2.136   4.624 -0.0904 -0.6989  0.3424
 6404SOL    HW325389   3.263   2.049   4.538  0.0002  1.0840 -1.4410
 6404SOL    MW425390   3.252   2.104   4.605 -0.0510 -0.2158 -0.3287
 6405SOL     OW25391   4.470   5.241   2.760 -0.4567  0.2787  0.0691
 6405SOL    HW225392   4.545   5.300   2.767 -1.5747  1.7626 -0.0619
 6405SOL    HW325393   4.493   5.167   2.816  0.0549  1.8644  2.1029
 6405SOL    MW425394   4.483   5.239   2.768 -0.5367  0.6837  0.3201
 6406SOL     OW25395   5.799   6.074   2.770  0.0956  0.5586 -0.0045
 6406SOL    HW225396   5.809   5.979   2.769  2.3489  0.7363 -0.2604
 6406SOL    HW325397   5.876   6.105   2.818 -0.9302  2.2344  0.6400
 6406SOL    MW425398   5.811   6.065   2.776  0.2575  0.8032  0.0468
 6407SOL     OW25399   6.166   4.631   3.080  0.2350 -0.2413  0.7900
 6407SOL    HW225400   6.109   4.704   3.056 -0.1168 -0.9112 -0.5249
 6407SOL    HW325401   6.112   4.553   3.065  1.6640 -0.9288 -1.0424
 6407SOL    MW425402   6.151   4.630   3.075  0.3771 -0.4204  0.3747
 6408SOL     OW25403   5.023   5.166   3.120 -0.0730  0.3702 -0.4766
 6408SOL    HW225404   5.008   5.072   3.135 -0.7958  0.4591 -0.5855
 6408SOL    HW325405   5.102   5.169   3.067  1.7148 -0.0167  2.0157
 6408SOL    MW425406   5.031   5.154   3.115  0.0675  0.3309 -0.1621
 6409SOL     OW25407   1.261   3.662   1.296  0.3416 -0.1061 -0.2180
 6409SOL    HW225408   1.295   3.717   1.226 -0.5093 -0.3773 -0.8699
 6409SOL    HW325409   1.266   3.573   1.261 -1.9350 -0.0805 -0.7893
 6409SOL    MW425410   1.266   3.658   1.282 -0.0710 -0.1385 -0.3794
 6410SOL     OW25411   2.567   3.225   3.237 -0.5556 -0.7085 -0.0660
 6410SOL    HW225412   2.613   3.309   3.233  0.5368 -1.3065 -0.6656
 6410SOL    HW325413   2.495   3.234   3.175 -1.0032  0.0930  0.5568
 6410SOL    MW425414   2.564   3.237   3.228 -0.4706 -0.6817 -0.0630
 6411SOL     OW25415   2.056   0.412   0.912 -0.6076  0.5268  0.3217
 6411SOL    HW225416   1.973   0.457   0.928 -0.0882  1.2130  1.2166
 6411SOL    HW325417   2.050   0.380   0.822 -1.8133  0.6145  0.3655
 6411SOL    MW425418   2.045   0.414   0.902 -0.6981  0.6289  0.4456
 6412SOL     OW25419   1.010   0.840   1.839  0.0474  0.2684 -0.2303
 6412SOL    HW225420   0.999   0.851   1.933  1.7371 -1.1439  0.2120
 6412SOL    HW325421   1.101   0.866   1.822 -0.7538  2.3298 -1.8531
 6412SOL    MW425422   1.021   0.845   1.849  0.1647  0.3540 -0.3860
 6413SOL     OW25423   1.454   0.508   6.366 -0.7298  0.3907  0.6661
 6413SOL    HW225424   1.406   0.546   6.292 -0.1339  1.0681  0.6239
 6413SOL    HW325425   1.482   0.583   6.418 -0.3739 -0.0394  1.1024
 6413SOL    MW425426   1.451   0.523   6.363 -0.6043  0.4233  0.7181
 6414SOL     OW25427   4.138   0.361   1.147 -0.6047  0.0481  0.3327
 6414SOL    HW225428   4.173   0.392   1.064  0.7167 -1.2445  0.3569
 6414SOL    HW325429   4.044   0.377   1.142 -0.6265 -0.5256 -1.6516
 6414SOL    MW425430   4.130   0.367   1.136 -0.4332 -0.1981  0.0741
 6415SOL     OW25431   1.483   1.734   0.378  0.0897 -0.4764 -0.3736
 6415SOL    HW225432   1.547   1.676   0.419 -0.7101 -0.6648  0.6594
 6415SOL    HW325433   1.402   1.682   0.377 -0.3291  0.1791 -0.5872
 6415SOL    MW425434   1.481   1.719   0.383 -0.0711 -0.4148 -0.2655
 6416SOL     OW25435   4.823   3.141   3.121  0.2010 -0.6615 -0.6859
 6416SOL    HW225436   4.842   3.226   3.083  0.3574 -1.2012 -1.8634
 6416SOL    HW325437   4.811   3.158   3.214  2.1785  0.3580 -0.5608
 6416SOL    MW425438   4.824   3.154   3.128  0.4825 -0.5982 -0.8247
 6417SOL     OW25439   0.256   6.377   4.194 -0.1183  0.0355  0.2611
 6417SOL    HW225440   0.286   6.337   4.276  0.9047  0.8037  0.2833
 6417SOL    HW325441   0.288   6.467   4.197 -0.1870  0.1246 -0.9155
 6417SOL    MW425442   0.264   6.383   4.205  0.0076  0.1486  0.1088
 6418SOL     OW25443   6.196   2.160   3.009  0.1357 -0.7949  0.5331
 6418SOL    HW225444   6.207   2.123   2.921  1.8543 -0.4106  0.5432
 6418SOL    HW325445   6.102   2.155   3.026 -0.6987  1.7701 -2.4976
 6418SOL    MW425446   6.185   2.154   3.000  0.2524 -0.4058  0.1345
 6419SOL     OW25447   2.571   6.372   1.152  0.0566 -0.0146  0.5746
 6419SOL    HW225448   2.639   6.439   1.141  0.7284 -0.4756  1.7725
 6419SOL    HW325449   2.613   6.291   1.124 -0.2069 -0.2052  0.7279
 6419SOL    MW425450   2.586   6.370   1.147  0.1105 -0.1005  0.7529
 6420SOL     OW25451   3.953   3.876   1.543 -0.0742  0.2900 -0.6799
 6420SOL    HW225452   3.929   3.871   1.635 -1.5433  1.6433 -0.9387
 6420SOL    HW325453   4.048   3.871   1.542 -0.0950 -1.9667  0.7027
 6420SOL    MW425454   3.962   3.874   1.555 -0.2708  0.1708 -0.5316
 6421SOL     OW25455   0.378   4.180   4.405  0.0393  0.1841  0.1204
 6421SOL    HW225456   0.299   4.181   4.351  1.1023 -0.4414 -1.5277
 6421SOL    HW325457   0.430   4.253   4.374 -0.4631  1.5027  2.1965
 6421SOL    MW425458   0.374   4.189   4.394  0.1132  0.2755  0.1768
 6422SOL     OW25459   4.819   5.860   1.690  0.0292 -0.0406 -0.1700
 6422SOL    HW225460   4.823   5.833   1.781  2.4760  0.2879 -0.1130
 6422SOL    HW325461   4.872   5.796   1.643 -0.3079  0.4035 -1.2019
 6422SOL    MW425462   4.827   5.848   1.695  0.3075  0.0613 -0.2986
 6423SOL     OW25463   4.142   4.737   5.421 -0.3296 -0.6246 -0.4013
 6423SOL    HW225464   4.195   4.714   5.497 -0.0129 -0.0912 -0.4527
 6423SOL    HW325465   4.067   4.784   5.457 -1.9054 -3.1377 -0.1229
 6423SOL    MW425466   4.139   4.740   5.435 -0.4957 -0.8858 -0.3713
 6424SOL     OW25467   5.495   5.582   5.834 -0.3218  0.1565 -0.5457
 6424SOL    HW225468   5.435   5.595   5.908  0.4556 -0.7792  0.2819
 6424SOL    HW325469   5.437   5.572   5.758 -1.3715 -2.2912  0.4572
 6424SOL    MW425470   5.479   5.582   5.834 -0.3578 -0.2899 -0.3042
 6425SOL     OW25471   1.600   0.464   4.124  0.2414  0.3303 -0.4377
 6425SOL    HW225472   1.555   0.461   4.039  0.4115 -1.2516 -0.4927
 6425SOL    HW325473   1.671   0.528   4.111  1.1011 -0.8535 -1.9308
 6425SOL    MW425474   1.603   0.472   4.111  0.3773 -0.0346 -0.6419
 6426SOL     OW25475   4.775   3.013   5.466 -0.1753 -0.3685 -0.5231
 6426SOL    HW225476   4.792   2.920   5.446  0.7943 -0.1004 -1.0153
 6426SOL    HW325477   4.796   3.059   5.385 -1.0989  0.2454 -0.4202
 6426SOL    MW425478   4.780   3.007   5.453 -0.1693 -0.2521 -0.5744
 6427SOL     OW25479   1.261   0.956   1.969 -0.3268 -0.5673 -0.1755
 6427SOL    HW225480   1.243   0.896   2.042 -0.2007 -2.1265 -1.3878
 6427SOL    HW325481   1.357   0.959   1.964 -0.3357 -0.4211 -0.2727
 6427SOL    MW425482   1.271   0.949   1.978 -0.3113 -0.7538 -0.3483
 6428SOL     OW25483   1.265   0.357   1.670 -0.1867  0.7001 -0.0328
 6428SOL    HW225484   1.238   0.439   1.712  1.1598 -0.2954  3.0789
 6428SOL    HW325485   1.190   0.299   1.680  0.3355  0.2763  1.7012
 6428SOL    MW425486   1.251   0.360   1.677  0.0598  0.5128  0.6065
 6429SOL     OW25487   0.507   1.199   3.111  0.0443 -0.2555 -0.2376
 6429SOL    HW225488   0.555   1.117   3.115  0.3467 -0.0207  2.1419
 6429SOL    HW325489   0.415   1.173   3.112  0.1367 -0.5839  0.9618
 6429SOL    MW425490   0.501   1.185   3.112  0.0964 -0.2678  0.2346
 6430SOL     OW25491   5.407   4.611   3.418  0.0441 -0.4719 -0.0230
 6430SOL    HW225492   5.450   4.549   3.478 -0.0445 -1.1272 -0.6231
 6430SOL    HW325493   5.335   4.648   3.469  1.5833  1.0080  1.1709
 6430SOL    MW425494   5.403   4.608   3.432  0.2355 -0.3631  0.0554
 6431SOL     OW25495   5.370   5.727   4.981 -0.0705 -0.1925  0.5553
 6431SOL    HW225496   5.412   5.810   4.959 -0.1009 -0.3110  0.0186
 6431SOL    HW325497   5.292   5.724   4.924 -1.2190  0.3550  2.0395
 6431SOL    MW425498   5.365   5.737   4.971 -0.2260 -0.1359  0.6803
 6432SOL     OW25499   5.295   2.351   3.684 -0.8418 -1.0155 -0.0419
 6432SOL    HW225500   5.377   2.309   3.712 -0.1331 -0.3037 -1.0039
 6432SOL    HW325501   5.267   2.401   3.760 -0.2239 -1.0320  0.2036
 6432SOL    MW425502   5.302   2.352   3.698 -0.6668 -0.9237 -0.1364
 6433SOL     OW25503   3.668   5.444   2.503 -0.0198  0.1604  0.0518
 6433SOL    HW225504   3.641   5.388   2.430  0.0848  1.0447 -0.6809
 6433SOL    HW325505   3.705   5.384   2.567  2.2512 -0.4173 -1.6803
 6433SOL    MW425506   3.669   5.429   2.502  0.2936  0.2008 -0.2734
 6434SOL     OW25507   0.103   3.312   1.973 -0.4064 -0.4984  0.6123
 6434SOL    HW225508   0.014   3.346   1.978 -0.3754 -0.4752  1.0366
 6434SOL    HW325509   0.134   3.339   1.886 -1.0473 -1.0909  0.1853
 6434SOL    MW425510   0.095   3.320   1.962 -0.4869 -0.5735  0.6119
 6435SOL     OW25511   1.369   6.386   5.313 -0.2435 -0.0926 -0.5725
 6435SOL    HW225512   1.327   6.304   5.288  0.4168 -1.6459  2.8189
 6435SOL    HW325513   1.299   6.438   5.352 -0.0498 -0.4872  0.3226
 6435SOL    MW425514   1.354   6.382   5.315 -0.1308 -0.3496 -0.0069
 6436SOL     OW25515   6.030   1.528   4.011 -0.1501  0.1084  0.0448
 6436SOL    HW225516   6.087   1.470   4.061 -1.9544 -1.2435  0.6224
 6436SOL    HW325517   6.084   1.606   3.995  1.6808 -0.8940  0.9376
 6436SOL    MW425518   6.045   1.530   4.015 -0.1466 -0.2022  0.2388
 6437SOL     OW25519   2.094   3.066   3.691  0.0225 -0.3142  0.2195
 6437SOL    HW225520   2.083   3.020   3.608 -0.5707 -2.9005  1.6108
 6437SOL    HW325521   2.174   3.029   3.729  1.5729  2.4651 -0.1086
 6437SOL    MW425522   2.103   3.055   3.685  0.1488 -0.2887  0.3598
 6438SOL     OW25523   6.216   4.490   5.952  0.3519  0.7449 -0.9730
 6438SOL    HW225524   6.144   4.485   5.889 -0.6601  2.0642  0.0290
 6438SOL    HW325525   6.196   4.423   6.017  1.0985 -0.2258 -1.7020
 6438SOL    MW425526   6.204   4.480   5.952  0.3169  0.7909 -0.9370
 6439SOL     OW25527   4.981   1.874   2.351 -0.0269 -0.0052  0.5150
 6439SOL    HW225528   4.956   1.808   2.287 -0.4653  1.2874 -0.7091
 6439SOL    HW325529   5.075   1.888   2.337  0.3059 -1.0792  1.4980
 6439SOL    MW425530   4.990   1.867   2.341 -0.0409  0.0237  0.4832
 6440SOL     OW25531   5.303   6.421   5.846 -1.0291  0.0581  0.4969
 6440SOL    HW225532   5.305   6.487   5.915  0.7001 -1.2571  1.8112
 6440SOL    HW325533   5.232   6.362   5.871 -0.2757 -0.5292  1.3094
 6440SOL    MW425534   5.294   6.422   5.858 -0.7016 -0.1929  0.7775
 6441SOL     OW25535   5.809   2.901   5.824  0.5031  0.2029 -0.2274
 6441SOL    HW225536   5.868   2.950   5.881 -0.3975  0.6443  0.3396
 6441SOL    HW325537   5.808   2.951   5.742  1.2117 -0.0286 -0.3907
 6441SOL    MW425538   5.817   2.914   5.821  0.4778  0.2306 -0.1741
 6442SOL     OW25539   0.310   5.076   3.710 -0.2916 -0.2228  0.4760
 6442SOL    HW225540   0.362   5.019   3.766 -0.2015 -1.7155 -1.0355
 6442SOL    HW325541   0.232   5.024   3.689 -0.2321  0.1924 -0.8964
 6442SOL    MW425542   0.307   5.061   3.715 -0.2718 -0.3649  0.0955
 6443SOL     OW25543   4.300   2.951   5.539 -0.0380 -0.1719 -0.5519
 6443SOL    HW225544   4.276   3.016   5.473  3.1677  2.1785  0.3284
 6443SOL    HW325545   4.372   2.902   5.500 -1.0335 -1.8363 -0.3922
 6443SOL    MW425546   4.306   2.953   5.525  0.2536 -0.0814 -0.4147
 6444SOL     OW25547   0.156   0.671   2.487 -0.3814  0.8050  0.0435
 6444SOL    HW225548   0.247   0.664   2.460 -1.1401  0.7010 -2.8512
 6444SOL    HW325549   0.148   0.611   2.561  1.6938  0.1501 -0.2087
 6444SOL    MW425550   0.167   0.662   2.493 -0.2077  0.7049 -0.3717
 6445SOL     OW25551   5.835   5.118   6.337  0.8345 -1.0684 -0.0396
 6445SOL    HW225552   5.867   5.082   6.420  1.8403 -1.0555 -0.4206
 6445SOL    HW325553   5.804   5.206   6.360  0.2408 -1.4023  0.4939
 6445SOL    MW425554   5.835   5.125   6.351  0.8889 -1.1107 -0.0194
 6446SOL     OW25555   2.604   3.861   3.039 -0.1218  0.1429  0.4396
 6446SOL    HW225556   2.539   3.809   3.087 -0.5707  0.1759 -0.1284
 6446SOL    HW325557   2.687   3.820   3.060 -0.2065  0.6465  1.9110
 6446SOL    MW425558   2.606   3.849   3.048 -0.1922  0.2137  0.5588
 6447SOL     OW25559   2.502   1.691   5.411 -0.4378  0.7830  0.1397
 6447SOL    HW225560   2.479   1.671   5.502  0.3203 -3.2448 -0.4026
 6447SOL    HW325561   2.596   1.708   5.414  0.1268 -1.8645 -0.0897
 6447SOL    MW425562   2.511   1.691   5.424 -0.2633 -0.0977  0.0378
 6448SOL     OW25563   0.610   6.036   5.275  0.0140  0.0725 -0.5647
 6448SOL    HW225564   0.579   6.010   5.188  1.2508  1.2715 -1.3890
 6448SOL    HW325565   0.530   6.040   5.328 -0.8256 -0.1461 -1.7744
 6448SOL    MW425566   0.595   6.033   5.271  0.0664  0.2019 -0.8330
 6449SOL     OW25567   2.946   4.778   0.459  0.6064  0.0912  0.3540
 6449SOL    HW225568   2.890   4.842   0.504 -1.8209 -1.5954 -0.0645
 6449SOL    HW325569   2.895   4.697   0.459  2.7004 -1.3329 -0.9337
 6449SOL    MW425570   2.932   4.776   0.465  0.5624 -0.3192  0.1289
 6450SOL     OW25571   2.678   6.047   4.365  0.5287  0.1307  0.0239
 6450SOL    HW225572   2.649   5.978   4.305 -0.0525 -0.0184  0.4700
 6450SOL    HW325573   2.746   6.094   4.316  0.2952 -0.1931 -0.6264
 6450SOL    MW425574   2.683   6.044   4.350  0.4212  0.0683 -0.0030
 6451SOL     OW25575   0.512   0.231   5.929 -0.4326 -0.2247  0.2960
 6451SOL    HW225576   0.467   0.229   5.845 -0.8805 -0.9312  0.5461
 6451SOL    HW325577   0.547   0.320   5.935 -2.3935  0.5907  0.3934
 6451SOL    MW425578   0.511   0.243   5.919 -0.7504 -0.2104  0.3419
 6452SOL     OW25579   5.486   1.110   5.410  0.1061 -0.3893 -0.8094
 6452SOL    HW225580   5.469   1.148   5.496  1.6287  0.0549 -0.6736
 6452SOL    HW325581   5.456   1.177   5.348 -0.9441 -0.6873 -0.6406
 6452SOL    MW425582   5.480   1.124   5.413  0.1684 -0.3700 -0.7692
 6453SOL     OW25583   6.382   4.060   3.927 -0.2893 -0.2520  0.2464
 6453SOL    HW225584   6.449   4.128   3.918  0.2032 -0.6205  1.0707
 6453SOL    HW325585   6.371   4.025   3.838  1.2522 -0.7984  0.2370
 6453SOL    MW425586   6.389   4.065   3.914 -0.0209 -0.3727  0.3539
 6454SOL     OW25587   0.533   4.934   1.277  0.0116 -0.1598 -0.4371
 6454SOL    HW225588   0.544   4.862   1.339  1.2327  2.9189  3.2965
 6454SOL    HW325589   0.438   4.938   1.262 -0.5020 -0.4534  2.1859
 6454SOL    MW425590   0.522   4.925   1.283  0.1050  0.2077  0.4016
 6455SOL     OW25591   2.221   4.366   4.482 -0.1221  0.2587 -0.2777
 6455SOL    HW225592   2.167   4.338   4.408 -1.1319  1.3727  0.0144
 6455SOL    HW325593   2.174   4.439   4.520  2.0619  1.9288 -0.5682
 6455SOL    MW425594   2.208   4.372   4.477  0.0328  0.6260 -0.2775
 6456SOL     OW25595   0.716   3.109   5.726 -0.6223  0.3805 -0.0102
 6456SOL    HW225596   0.717   3.174   5.797 -1.7180 -0.7423  1.0880
 6456SOL    HW325597   0.632   3.121   5.683 -0.6474 -0.0158 -0.0792
 6456SOL    MW425598   0.705   3.119   5.730 -0.7701  0.1801  0.1256
 6457SOL     OW25599   4.792   1.974   5.835  0.1857  0.4893  0.6014
 6457SOL    HW225600   4.872   1.944   5.793 -1.8297 -1.7284 -2.0461
 6457SOL    HW325601   4.795   1.935   5.922  1.2289 -1.0516 -0.0704
 6457SOL    MW425602   4.803   1.965   5.841  0.0574 -0.0066  0.1635
 6458SOL     OW25603   6.099   0.858   1.164  0.3665 -0.1445 -0.0141
 6458SOL    HW225604   6.108   0.887   1.255 -0.2447  2.2342 -0.6571
 6458SOL    HW325605   6.005   0.849   1.151  0.3849  0.5872 -0.7065
 6458SOL    MW425606   6.088   0.860   1.174  0.2883  0.2659 -0.1903
 6459SOL     OW25607   1.619   5.008   3.111 -0.2785 -0.5376 -0.3029
 6459SOL    HW225608   1.634   5.098   3.140  0.6306 -0.1777 -1.7720
 6459SOL    HW325609   1.549   5.016   3.046  0.6712 -0.6868 -1.3722
 6459SOL    MW425610   1.611   5.021   3.106 -0.0333 -0.5098 -0.6378
 6460SOL     OW25611   1.612   1.615   2.758 -0.8031  0.1736  0.5042
 6460SOL    HW225612   1.624   1.708   2.779  1.5240  0.0537 -0.0895
 6460SOL    HW325613   1.628   1.570   2.841 -1.5273  0.2450  0.6953
 6460SOL    MW425614   1.616   1.622   2.772 -0.5916  0.1672  0.4511
 6461SOL     OW25615   4.427   0.010   5.347 -0.1584  0.6138  0.6552
 6461SOL    HW225616   4.384   0.090   5.318  1.0097  1.7609  1.9261
 6461SOL    HW325617   4.427  -0.048   5.271  0.0171  2.2757 -0.6490
 6461SOL    MW425618   4.421   0.013   5.333  0.0188  0.9844  0.6508
 6462SOL     OW25619   5.609   1.314   3.008  0.0269  0.3371  0.0840
 6462SOL    HW225620   5.537   1.357   3.053 -2.0787 -1.1679 -1.6592
 6462SOL    HW325621   5.618   1.362   2.926 -1.1813 -1.3399 -1.0992
 6462SOL    MW425622   5.601   1.326   3.003 -0.4103 -0.0827 -0.3021
 6463SOL     OW25623   4.637   4.319   1.479 -0.4084 -0.1405  0.3416
 6463SOL    HW225624   4.584   4.286   1.551 -0.6874 -0.2133  0.1028
 6463SOL    HW325625   4.586   4.390   1.441  0.3739  0.8747  1.1116
 6463SOL    MW425626   4.624   4.324   1.483 -0.3420 -0.0162  0.4117
 6464SOL     OW25627   3.739   6.413   0.043  0.4505 -0.0222 -0.2059
 6464SOL    HW225628   3.698   6.497   0.024  0.2423 -0.5050 -2.0615
 6464SOL    HW325629   3.815   6.435   0.096 -0.9913  1.0716  1.5031
 6464SOL    MW425630   3.744   6.427   0.047  0.2328  0.0584 -0.2252
 6465SOL     OW25631   2.634   1.187   0.153 -0.6791  0.1787 -0.5863
 6465SOL    HW225632   2.720   1.165   0.189 -0.2389  0.7970 -1.2461
 6465SOL    HW325633   2.652   1.226   0.068 -1.4789  2.3130  0.1501
 6465SOL    MW425634   2.647   1.189   0.147 -0.7265  0.5419 -0.5762
 6466SOL     OW25635   2.850   1.915   1.632 -0.0079 -0.1340 -0.1714
 6466SOL    HW225636   2.921   1.867   1.673  0.6697 -0.0324 -1.1842
 6466SOL    HW325637   2.836   1.871   1.548  0.1252  0.9642 -0.7957
 6466SOL    MW425638   2.858   1.903   1.626  0.0990  0.0243 -0.3874
 6467SOL     OW25639   4.436   0.055   0.168  0.1121 -0.0262 -0.3304
 6467SOL    HW225640   4.499  -0.014   0.188 -0.9850 -0.8606  0.4377
 6467SOL    HW325641   4.485   0.136   0.176  0.7822 -0.5599  1.7117
 6467SOL    MW425642   4.451   0.056   0.172  0.0558 -0.2067  0.0404
 6468SOL     OW25643   0.139   5.989   1.348  0.3042  0.3954 -0.2317
 6468SOL    HW225644   0.181   5.967   1.265 -0.0384 -0.3602 -0.2127
 6468SOL    HW325645   0.095   5.908   1.375  0.1457  0.7258  0.5271
 6468SOL    MW425646   0.138   5.976   1.341  0.2381  0.3393 -0.1291
 6469SOL     OW25647   4.687   6.044   2.817 -0.1520  0.1520  0.0871
 6469SOL    HW225648   4.708   6.089   2.735  0.4076  1.3853  0.8765
 6469SOL    HW325649   4.602   6.003   2.801 -0.6249  1.3974 -0.7125
 6469SOL    MW425650   4.678   6.045   2.804 -0.1405  0.4791  0.0858
 6470SOL     OW25651   4.152   5.220   2.483  0.2103  0.6698 -0.0977
 6470SOL    HW225652   4.236   5.258   2.455  0.6970 -1.1223 -1.2719
 6470SOL    HW325653   4.125   5.167   2.408 -0.5604 -1.0253  1.3323
 6470SOL    MW425654   4.160   5.218   2.469  0.1728  0.2097 -0.0639
 6471SOL     OW25655   3.777   3.332   5.890  0.4198  0.3174  0.3226
 6471SOL    HW225656   3.722   3.333   5.812  2.1786  0.7690 -0.9616
 6471SOL    HW325657   3.718   3.357   5.961 -1.3578 -0.6356 -0.7339
 6471SOL    MW425658   3.762   3.335   5.889  0.4174  0.2512  0.0138
 6472SOL     OW25659   4.970   4.054   5.604  0.1820  0.2158 -0.7820
 6472SOL    HW225660   5.061   4.030   5.585  0.9856  2.0978  0.4597
 6472SOL    HW325661   4.936   3.981   5.656  0.8948 -0.5989 -1.4307
 6472SOL    MW425662   4.977   4.041   5.608  0.3821  0.3566 -0.7038
 6473SOL     OW25663   4.652   3.788   6.008 -0.2589 -0.2573  0.0017
 6473SOL    HW225664   4.698   3.704   6.004  0.5909  0.1945 -0.1034
 6473SOL    HW325665   4.650   3.819   5.918  1.3824  0.8265  0.2870
 6473SOL    MW425666   4.658   3.781   5.996  0.0698 -0.0547  0.0255
 6474SOL     OW25667   3.301   4.886   3.351  0.0345  0.0262  0.1256
 6474SOL    HW225668   3.307   4.887   3.255 -2.4024  0.2171 -0.0982
 6474SOL    HW325669   3.252   4.966   3.372 -0.3895 -0.5590  1.4237
 6474SOL    MW425670   3.295   4.897   3.341 -0.3429 -0.0259  0.2673
 6475SOL     OW25671   2.084   5.811   2.962 -0.3528 -0.0440  0.0718
 6475SOL    HW225672   2.001   5.769   2.986 -0.1948 -0.6496 -0.4189
 6475SOL    HW325673   2.099   5.784   2.872 -0.7177  1.8482 -0.6010
 6475SOL    MW425674   2.075   5.802   2.953 -0.3801  0.1257 -0.0817
 6476SOL     OW25675   6.404   1.564   0.611  0.5706  0.0583 -0.2768
 6476SOL    HW225676   6.310   1.583   0.608  0.4958 -0.2081  0.3343
 6476SOL    HW325677   6.421   1.519   0.527 -0.3974 -2.2592  0.6720
 6476SOL    MW425678   6.394   1.560   0.599  0.4330 -0.2826 -0.0710
 6477SOL     OW25679   0.316   1.661   5.068 -1.1816 -0.6909  0.0908
 6477SOL    HW225680   0.388   1.650   5.129 -1.3296  0.1966  0.4459
 6477SOL    HW325681   0.344   1.614   4.989  1.3618  2.3327 -1.0597
 6477SOL    MW425682   0.329   1.653   5.065 -0.8655 -0.1749 -0.0142
 6478SOL     OW25683   5.476   3.265   0.893  0.0357 -0.4035  0.0073
 6478SOL    HW225684   5.427   3.244   0.972  0.3258 -0.1985  0.2463
 6478SOL    HW325685   5.521   3.347   0.914  1.6086 -1.3016  0.3349
 6478SOL    MW425686   5.476   3.273   0.906  0.2815 -0.4949  0.0820
 6479SOL     OW25687   0.142   0.410   6.259 -0.1441 -0.4557  0.1232
 6479SOL    HW225688   0.062   0.364   6.232 -0.0716  0.2626 -1.4012
 6479SOL    HW325689   0.160   0.375   6.347 -1.1237 -1.9588 -0.2167
 6479SOL    MW425690   0.134   0.399   6.267 -0.2638 -0.5593 -0.1228
 6480SOL     OW25691   1.115   2.627   2.368  0.0436 -0.0502 -0.2638
 6480SOL    HW225692   1.076   2.540   2.371 -0.7725  0.2505 -1.2027
 6480SOL    HW325693   1.175   2.630   2.442 -0.1974 -1.2720  0.0002
 6480SOL    MW425694   1.118   2.616   2.378 -0.0959 -0.1718 -0.3528
 6481SOL     OW25695   4.692   0.130   0.359 -0.2875  0.3275  0.3563
 6481SOL    HW225696   4.725   0.117   0.447  0.5849 -1.2599 -0.1724
 6481SOL    HW325697   4.676   0.042   0.325  0.0030  0.8600 -1.2822
 6481SOL    MW425698   4.694   0.117   0.366 -0.1340  0.1883  0.0704
 6482SOL     OW25699   0.475   2.085   0.794  0.1695  0.6056  0.0914
 6482SOL    HW225700   0.388   2.098   0.756 -0.4840  1.1887  1.7095
 6482SOL    HW325701   0.464   2.104   0.887  1.9736  0.3973  0.3853
 6482SOL    MW425702   0.463   2.089   0.801  0.3213  0.6551  0.3437
 6483SOL     OW25703   6.129   3.454   4.708  0.3229 -0.0159 -0.5378
 6483SOL    HW225704   6.106   3.543   4.681 -2.5139 -0.3020  0.6496
 6483SOL    HW325705   6.047   3.405   4.705  1.3129 -1.9574  1.2212
 6483SOL    MW425706   6.115   3.459   4.704  0.0792 -0.3098 -0.1491
 6484SOL     OW25707   0.919   4.888   3.336 -0.6314  0.2940  0.3879
 6484SOL    HW225708   0.877   4.861   3.417 -0.7590 -2.0398 -0.3806
 6484SOL    HW325709   0.881   4.973   3.316  0.4011  1.6286  3.4299
 6484SOL    MW425710   0.909   4.895   3.344 -0.5120  0.1622  0.6879
 6485SOL     OW25711   0.228   1.989   1.567  0.5823  0.0565  0.1907
 6485SOL    HW225712   0.257   2.056   1.505  0.3173  1.6225  1.6799
 6485SOL    HW325713   0.153   2.029   1.612  0.1722 -1.3994  0.8595
 6485SOL    MW425714   0.222   2.003   1.565  0.4932  0.0711  0.4754
 6486SOL     OW25715   6.026   5.826   5.014 -0.6554  0.3665 -0.5538
 6486SOL    HW225716   6.012   5.880   5.093 -1.0346 -0.5716  0.0409
 6486SOL    HW325717   5.948   5.843   4.960 -1.1214 -0.1116 -0.0477
 6486SOL    MW425718   6.014   5.836   5.018 -0.7669  0.1796 -0.4086
 6487SOL     OW25719   2.723   1.543   2.191  0.5719  0.2699  0.0939
 6487SOL    HW225720   2.648   1.539   2.132  0.4737 -0.6374  0.2618
 6487SOL    HW325721   2.786   1.480   2.155  0.1090 -1.0516  1.4697
 6487SOL    MW425722   2.722   1.534   2.179  0.4979 -0.0241  0.2976
 6488SOL     OW25723   4.319   1.428   1.303  0.0452  0.3190 -0.2770
 6488SOL    HW225724   4.241   1.467   1.265 -0.4060 -2.1580 -2.1044
 6488SOL    HW325725   4.304   1.431   1.398 -1.1119  2.0839 -0.4843
 6488SOL    MW425726   4.307   1.434   1.311 -0.1670  0.2250 -0.5454
 6489SOL     OW25727   3.185   1.483   1.471 -0.0119 -0.2359 -0.4621
 6489SOL    HW225728   3.200   1.432   1.391  1.0262  0.1663 -0.5464
 6489SOL    HW325729   3.200   1.574   1.445  0.7758 -0.1382  0.2817
 6489SOL    MW425730   3.189   1.488   1.457  0.2290 -0.1700 -0.3751
 6490SOL     OW25731   6.221   0.427   0.184 -0.4878  0.0048  0.0374
 6490SOL    HW225732   6.256   0.515   0.173 -0.4898 -0.0625 -0.5440
 6490SOL    HW325733   6.161   0.415   0.111  0.5604 -0.9686 -0.6949
 6490SOL    MW425734   6.218   0.437   0.173 -0.3497 -0.1325 -0.1359
 6491SOL     OW25735   2.259   2.343   2.507 -0.3045 -0.2128  0.2281
 6491SOL    HW225736   2.251   2.265   2.453  0.9888  0.1285 -0.4980
 6491SOL    HW325737   2.286   2.412   2.446  2.3380 -0.0568  1.4503
 6491SOL    MW425738   2.261   2.342   2.492  0.2148 -0.1472  0.2936
 6492SOL     OW25739   0.058   3.925   0.471  0.0254  0.4243  0.1653
 6492SOL    HW225740  -0.010   3.886   0.526 -1.1293 -0.0135 -1.5310
 6492SOL    HW325741   0.139   3.886   0.504 -0.4784  1.0364  2.2907
 6492SOL    MW425742   0.060   3.914   0.483 -0.1934  0.4473  0.2219
 6493SOL     OW25743   4.899   3.263   1.331  0.5707  0.2699 -0.0304
 6493SOL    HW225744   4.949   3.305   1.261  1.3177 -0.3617  0.1135
 6493SOL    HW325745   4.886   3.173   1.301  0.5724  0.0981  0.4747
 6493SOL    MW425746   4.903   3.257   1.318  0.6695  0.1639  0.0552
 6494SOL     OW25747   2.801   5.074   5.042  0.2333 -0.5528 -0.2663
 6494SOL    HW225748   2.714   5.046   5.070  0.0573 -0.3962 -0.6527
 6494SOL    HW325749   2.827   5.011   4.975  0.2949 -0.4255 -0.3634
 6494SOL    MW425750   2.793   5.062   5.037  0.2182 -0.5153 -0.3301
 6495SOL     OW25751   2.119   3.993   1.128  0.0952 -0.1419 -0.2694
 6495SOL    HW225752   2.033   3.952   1.123  0.2124 -0.3184 -1.0116
 6495SOL    HW325753   2.178   3.922   1.155  0.2578 -0.4241 -1.3144
 6495SOL    MW425754   2.116   3.978   1.131  0.1321 -0.2024 -0.5052
 6496SOL     OW25755   3.409   1.911   4.867  0.1477 -0.5004  0.0839
 6496SOL    HW225756   3.430   1.818   4.875 -0.6155 -0.7692 -0.9572
 6496SOL    HW325757   3.318   1.918   4.894 -0.1626 -0.2499 -0.9888
 6496SOL    MW425758   3.400   1.900   4.872  0.0061 -0.5028 -0.1950
 6497SOL     OW25759   3.380   4.561   0.368 -0.3167  0.3240  0.0037
 6497SOL    HW225760   3.317   4.629   0.391  0.1533  0.9759 -0.6104
 6497SOL    HW325761   3.458   4.583   0.418 -0.3939 -0.1872  0.3592
 6497SOL    MW425762   3.382   4.573   0.377 -0.2648  0.3426 -0.0305
 6498SOL     OW25763   0.759   1.047   3.335  0.3502 -0.3070  0.0202
 6498SOL    HW225764   0.853   1.040   3.317  0.2119  1.5336 -1.8424
 6498SOL    HW325765   0.749   1.133   3.374 -0.4607 -0.9946  1.3986
 6498SOL    MW425766   0.770   1.057   3.338  0.2250 -0.1549 -0.0437
 6499SOL     OW25767   1.805   2.912   2.128 -0.2596 -0.2401 -0.2645
 6499SOL    HW225768   1.830   2.997   2.092 -0.8158  0.4030  0.7985
 6499SOL    HW325769   1.830   2.849   2.061  1.6640  0.5900 -0.3990
 6499SOL    MW425770   1.811   2.915   2.115 -0.0792 -0.0457 -0.1420
 6500SOL     OW25771   2.875   4.143   1.891  0.4159  0.2598 -0.2662
 6500SOL    HW225772   2.780   4.152   1.893  0.4295  0.6792 -1.2341
 6500SOL    HW325773   2.900   4.138   1.983 -0.4971  0.6260  0.0148
 6500SOL    MW425774   2.866   4.144   1.903  0.2972  0.3635 -0.3568
 6501SOL     OW25775   4.188   3.286   0.907  0.0282  0.3667 -0.2694
 6501SOL    HW225776   4.230   3.324   0.831 -1.8122  2.9538 -0.1225
 6501SOL    HW325777   4.248   3.302   0.979  1.3413 -1.2533 -0.9287
 6501SOL    MW425778   4.201   3.293   0.907 -0.0414  0.4943 -0.3370
 6502SOL     OW25779   1.320   3.412   1.232  0.3802 -0.1521 -0.1939
 6502SOL    HW225780   1.389   3.411   1.166  0.7823  0.0249  0.2161
 6502SOL    HW325781   1.365   3.431   1.314 -0.2690  0.8391 -0.0479
 6502SOL    MW425782   1.335   3.414   1.234  0.3476  0.0020 -0.1205
 6503SOL     OW25783   1.198   4.955   3.387  0.6064  0.0123 -0.1589
 6503SOL    HW225784   1.111   4.917   3.383  0.3862  0.5678 -1.1493
 6503SOL    HW325785   1.183   5.050   3.392  1.1165  0.2289 -1.9501
 6503SOL    MW425786   1.185   4.963   3.387  0.6447  0.1141 -0.5259
 6504SOL     OW25787   6.056   2.960   2.182 -0.3154  0.7796  0.4079
 6504SOL    HW225788   5.969   2.973   2.219 -0.5173  0.5092  0.0232
 6504SOL    HW325789   6.112   2.947   2.259 -0.2698  2.8093  0.7809
 6504SOL    MW425790   6.052   2.960   2.197 -0.3360  1.0117  0.4063
 6505SOL     OW25791   6.282   0.144   4.844  0.3431  0.3651  0.4812
 6505SOL    HW225792   6.272   0.061   4.797 -0.9817  0.3236  0.7890
 6505SOL    HW325793   6.243   0.209   4.785  3.3146  1.2079 -0.7777
 6505SOL    MW425794   6.276   0.142   4.830  0.5603  0.4708  0.3557
 6506SOL     OW25795   6.364   3.578   6.177 -1.0668 -0.0303 -0.1701
 6506SOL    HW225796   6.339   3.607   6.265 -0.4001  0.3565 -0.0977
 6506SOL    HW325797   6.409   3.654   6.139  0.0323 -0.7041 -0.2601
 6506SOL    MW425798   6.367   3.592   6.184 -0.8338 -0.0681 -0.1724
 6507SOL     OW25799   5.953   2.696   3.895  0.2410  0.6920 -0.1239
 6507SOL    HW225800   5.970   2.630   3.828 -0.9757  3.4321 -3.3573
 6507SOL    HW325801   6.037   2.709   3.938  0.9137 -1.5866 -0.5902
 6507SOL    MW425802   5.966   2.689   3.892  0.1692  0.7529 -0.6120
 6508SOL     OW25803   0.859   1.869   1.444 -0.4974  0.7446 -0.0180
 6508SOL    HW225804   0.932   1.818   1.480 -1.6034 -0.6525  0.3409
 6508SOL    HW325805   0.865   1.854   1.349 -0.5532  0.3090  0.0460
 6508SOL    MW425806   0.869   1.860   1.436 -0.6507  0.5028  0.0378
 6509SOL     OW25807   3.263   0.621   2.109 -0.3320  0.0150  0.2274
 6509SOL    HW225808   3.229   0.680   2.176  0.2210  0.0485  0.4877
 6509SOL    HW325809   3.357   0.617   2.127  0.1315  1.3841 -1.5747
 6509SOL    MW425810   3.271   0.628   2.120 -0.1979  0.2000  0.0240
 6510SOL     OW25811   1.864   3.209   2.071  0.3774 -0.8397 -0.5884
 6510SOL    HW225812   1.866   3.221   2.166 -0.2045 -0.4604 -0.6192
 6510SOL    HW325813   1.956   3.211   2.045  0.4969  0.1191 -0.1507
 6510SOL    MW425814   1.877   3.211   2.080  0.3164 -0.6631 -0.5347
 6511SOL     OW25815   1.756   2.154   1.361  0.2065 -0.3366 -0.0962
 6511SOL    HW225816   1.754   2.083   1.426 -0.3254 -0.8423 -0.6413
 6511SOL    HW325817   1.802   2.117   1.286 -1.1181 -0.5425 -0.8445
 6511SOL    MW425818   1.762   2.140   1.359 -0.0384 -0.4305 -0.2668
 6512SOL     OW25819   5.430   1.565   3.453  0.1034 -0.4847 -0.0028
 6512SOL    HW225820   5.383   1.490   3.415  0.1609 -0.0435 -0.9597
 6512SOL    HW325821   5.509   1.573   3.399  0.9051 -0.7257  1.0991
 6512SOL    MW425822   5.434   1.556   3.441  0.2167 -0.4583  0.0163
 6513SOL     OW25823   5.539   0.120   2.199 -0.2811 -0.1944 -0.0592
 6513SOL    HW225824   5.587   0.165   2.268 -1.2213 -0.3117  0.6853
 6513SOL    HW325825   5.562   0.168   2.119  1.2435 -0.3958  0.2284
 6513SOL    MW425826   5.548   0.132   2.197 -0.2040 -0.2365  0.0769
 6514SOL     OW25827   3.755   0.945   5.177  0.6430 -0.9961  0.0513
 6514SOL    HW225828   3.685   1.009   5.189  1.1547 -0.5385  0.7179
 6514SOL    HW325829   3.832   0.998   5.153  0.2755 -1.6533 -2.9711
 6514SOL    MW425830   3.756   0.961   5.176  0.6621 -1.0224 -0.2595
 6515SOL     OW25831   0.938   3.199   4.619  0.0397  0.1018 -0.2022
 6515SOL    HW225832   0.905   3.177   4.532 -2.0967  1.1862  0.2738
 6515SOL    HW325833   0.989   3.122   4.645  0.4855 -0.3647 -2.2594
 6515SOL    MW425834   0.940   3.186   4.611 -0.1833  0.1833 -0.4108
 6516SOL     OW25835   5.279   5.452   3.679 -0.1883 -0.3757  0.1377
 6516SOL    HW225836   5.191   5.431   3.710  0.5733 -1.7284  1.5353
 6516SOL    HW325837   5.296   5.391   3.608 -0.9680  1.0049 -1.2842
 6516SOL    MW425838   5.270   5.441   3.674 -0.1907 -0.3720  0.1345
 6517SOL     OW25839   0.722   0.173   3.536 -0.4133 -0.0380  0.5031
 6517SOL    HW225840   0.711   0.162   3.630 -3.5733 -0.3690  0.1830
 6517SOL    HW325841   0.721   0.268   3.523 -2.1296 -0.0108  0.6519
 6517SOL    MW425842   0.721   0.184   3.546 -1.0567 -0.0780  0.4805
 6518SOL     OW25843   5.387   2.704   2.017 -0.3381  0.7592 -0.2458
 6518SOL    HW225844   5.337   2.741   2.089 -0.1804  0.7823 -0.1469
 6518SOL    HW325845   5.476   2.738   2.029 -0.3225  0.8060 -0.4798
 6518SOL    MW425846   5.392   2.713   2.028 -0.3153  0.7684 -0.2636
 6519SOL     OW25847   2.445   2.863   2.381 -0.0512 -0.1474  0.1958
 6519SOL    HW225848   2.458   2.929   2.449  0.1147 -0.0822  0.1019
 6519SOL    HW325849   2.386   2.799   2.421 -0.9536  0.5279 -0.0385
 6519SOL    MW425850   2.439   2.863   2.396 -0.1484 -0.0497  0.1525
 6520SOL     OW25851   6.236   6.266   1.627  0.4287 -0.4503 -0.5394
 6520SOL    HW225852   6.319   6.311   1.608  0.9293 -0.5281  1.2690
 6520SOL    HW325853   6.255   6.213   1.704 -1.5130  0.1651  0.4222
 6520SOL    MW425854   6.249   6.265   1.634  0.2385 -0.3794 -0.1740
 6521SOL     OW25855   0.682   1.287   6.220  0.0202  0.4057  0.2258
 6521SOL    HW225856   0.698   1.371   6.262  1.1868 -0.0846  0.7999
 6521SOL    HW325857   0.698   1.222   6.288  0.7163 -0.3480 -0.6192
 6521SOL    MW425858   0.686   1.290   6.234  0.2659  0.2416  0.1901
 6522SOL     OW25859   6.012   3.380   5.410 -0.1281  0.2094  0.4016
 6522SOL    HW225860   6.103   3.360   5.430  0.5965  0.8357 -1.9518
 6522SOL    HW325861   5.966   3.371   5.494  1.9182 -0.9764  1.4685
 6522SOL    MW425862   6.018   3.376   5.424  0.2375  0.1356  0.2319
 6523SOL     OW25863   2.357   6.165   2.027 -0.2162  0.0473 -0.1731
 6523SOL    HW225864   2.418   6.107   1.981 -0.1260 -0.5788  0.6953
 6523SOL    HW325865   2.364   6.137   2.119 -0.3652  1.2797  0.2201
 6523SOL    MW425866   2.366   6.153   2.033 -0.2240  0.1273 -0.0066
 6524SOL     OW25867   5.919   1.163   4.096  0.4735 -0.0123 -0.0407
 6524SOL    HW225868   5.869   1.243   4.079  0.9025  0.4364  0.7551
 6524SOL    HW325869   5.934   1.125   4.010 -0.1077  0.5376 -0.3902
 6524SOL    MW425870   5.914   1.169   4.083  0.4534  0.1194  0.0182
 6525SOL     OW25871   4.901   3.311   4.446 -0.2797 -0.4268  0.3201
 6525SOL    HW225872   4.968   3.314   4.377 -1.0426  1.9488 -0.4137
 6525SOL    HW325873   4.923   3.233   4.497  2.6757 -0.1016 -0.2695
 6525SOL    MW425874   4.913   3.301   4.444  0.0096 -0.0705  0.1455
 6526SOL     OW25875   6.317   4.177   3.443  0.0718  0.9326  0.0426
 6526SOL    HW225876   6.302   4.198   3.535  2.4682 -0.1806  0.7701
 6526SOL    HW325877   6.275   4.092   3.431  2.3792 -0.4609  1.0772
 6526SOL    MW425878   6.309   4.168   3.453  0.6924  0.6019  0.2751
 6527SOL     OW25879   2.340   5.077   5.685  0.3506 -0.5634 -0.4649
 6527SOL    HW225880   2.349   5.000   5.742  3.4436  1.4289  2.1001
 6527SOL    HW325881   2.428   5.114   5.681 -0.9781  2.8388 -1.6442
 6527SOL    MW425882   2.353   5.072   5.692  0.5834  0.1484 -0.2821
 6528SOL     OW25883   3.617   3.248   5.271 -0.0573  0.0177 -0.1366
 6528SOL    HW225884   3.627   3.320   5.334  0.1861 -1.5719  1.7530
 6528SOL    HW325885   3.523   3.239   5.260 -0.0839  0.8590 -0.7104
 6528SOL    MW425886   3.606   3.256   5.278 -0.0287 -0.0811  0.0370
 6529SOL     OW25887   4.036   5.912   4.519 -0.1307 -0.2352 -0.2715
 6529SOL    HW225888   4.000   5.987   4.567 -0.0047  0.3524 -1.0752
 6529SOL    HW325889   4.102   5.875   4.577  0.5783  0.9430 -0.2955
 6529SOL    MW425890   4.040   5.917   4.533 -0.0205 -0.0022 -0.3807
 6530SOL     OW25891   0.156   3.839   4.312 -0.0761 -0.5837  0.3369
 6530SOL    HW225892   0.153   3.879   4.399  0.0254  0.7787 -0.2668
 6530SOL    HW325893   0.073   3.864   4.272 -0.1076 -1.1814  0.0095
 6530SOL    MW425894   0.144   3.847   4.319 -0.0669 -0.4828  0.2141
 6531SOL     OW25895   6.050   4.031   5.369 -0.2627 -0.2253 -0.4181
 6531SOL    HW225896   6.119   3.979   5.411  0.1455  0.3291 -0.3857
 6531SOL    HW325897   6.097   4.088   5.308 -0.6933  0.1717 -0.3847
 6531SOL    MW425898   6.066   4.032   5.367 -0.2656 -0.0997 -0.4094
 6532SOL     OW25899   2.072   2.403   3.707  0.5118 -0.0531 -0.1047
 6532SOL    HW225900   2.137   2.335   3.691  0.7731  0.4878 -1.5036
 6532SOL    HW325901   2.120   2.485   3.694 -0.0236  0.3942  0.6583
 6532SOL    MW425902   2.087   2.405   3.703  0.4756  0.0773 -0.1886
 6533SOL     OW25903   3.105   4.722   2.400 -0.1662  0.1419 -0.0368
 6533SOL    HW225904   3.140   4.668   2.330 -0.5968  0.1037 -0.2266
 6533SOL    HW325905   3.038   4.668   2.442 -0.5038  0.4725 -0.1415
 6533SOL    MW425906   3.101   4.708   2.397 -0.2676  0.1804 -0.0756
 6534SOL     OW25907   0.452   2.390   0.533 -0.0203  0.0555 -0.0700
 6534SOL    HW225908   0.368   2.361   0.498 -1.3625 -0.7674  3.4536
 6534SOL    HW325909   0.505   2.310   0.537 -0.3065 -0.1002  0.8122
 6534SOL    MW425910   0.448   2.375   0.529 -0.2351 -0.0736  0.5113
 6535SOL     OW25911   4.321   1.894   2.797 -0.3821  0.3483  0.0710
 6535SOL    HW225912   4.269   1.825   2.755 -0.1171  0.5853 -0.6554
 6535SOL    HW325913   4.408   1.885   2.758 -0.1328  0.5796  0.5687
 6535SOL    MW425914   4.326   1.884   2.786 -0.3142  0.4101  0.0408
 6536SOL     OW25915   6.268   5.905   5.446 -0.0466 -0.8763  0.2028
 6536SOL    HW225916   6.188   5.859   5.419  0.9360 -1.4978 -1.8315
 6536SOL    HW325917   6.312   5.843   5.505 -0.7093 -0.8068  0.7865
 6536SOL    MW425918   6.263   5.891   5.451 -0.0044 -0.9491  0.0114
 6537SOL     OW25919   5.391   5.741   0.013 -0.6196 -0.0655  0.8273
 6537SOL    HW225920   5.427   5.768   0.097 -0.1141  0.3989  0.4725
 6537SOL    HW325921   5.446   5.786  -0.052 -3.0492  2.2896  0.2327
 6537SOL    MW425922   5.403   5.750   0.015 -0.8734  0.3065  0.7021
 6538SOL     OW25923   2.487   4.640   0.041  0.2187 -0.1081  0.4810
 6538SOL    HW225924   2.528   4.602  -0.037 -0.3749 -0.7231  0.4590
 6538SOL    HW325925   2.425   4.705   0.007 -1.6540 -1.8975  0.2820
 6538SOL    MW425926   2.484   4.644   0.026 -0.1067 -0.4254  0.4518
 6539SOL     OW25927   4.066   5.357   0.334  0.0947 -0.1604  0.4070
 6539SOL    HW225928   4.110   5.275   0.310  0.7603  0.4551 -0.5839
 6539SOL    HW325929   4.000   5.370   0.267  1.6406  1.3330 -0.9254
 6539SOL    MW425930   4.063   5.348   0.322  0.3865  0.1178  0.1004
 6540SOL     OW25931   1.298   3.863   1.094 -0.7721 -0.0827  0.1860
 6540SOL    HW225932   1.325   3.934   1.152 -2.2186 -0.6759  1.6732
 6540SOL    HW325933   1.264   3.908   1.016  0.2672  0.7630  0.2010
 6540SOL    MW425934   1.297   3.879   1.091 -0.8258 -0.0494  0.3842
 6541SOL     OW25935   4.371   5.483   2.092  0.5482 -0.4973  0.3562
 6541SOL    HW225936   4.375   5.388   2.086 -1.8178 -0.6600  0.3122
 6541SOL    HW325937   4.295   5.500   2.148 -1.2540  1.3523 -2.3754
 6541SOL    MW425938   4.362   5.473   2.099 -0.0017 -0.2747 -0.0100
 6542SOL     OW25939   2.625   1.069   1.018  0.8846 -0.3205  0.3892
 6542SOL    HW225940   2.564   1.111   1.079  0.8310 -0.5907  0.5241
 6542SOL    HW325941   2.639   0.982   1.055  0.7042 -0.5533 -0.0879
 6542SOL    MW425942   2.619   1.063   1.031  0.8537 -0.3869  0.3441
 6543SOL     OW25943   2.969   2.867   1.203 -0.4442  0.4001 -0.0108
 6543SOL    HW225944   2.894   2.870   1.262 -0.2032  0.6580  0.2874
 6543SOL    HW325945   2.941   2.811   1.130 -1.3382  1.4053 -0.4680
 6543SOL    MW425946   2.955   2.860   1.201 -0.5303  0.5667 -0.0318
 6544SOL     OW25947   1.701   5.020   5.560  0.2769  0.9459 -0.4792
 6544SOL    HW225948   1.781   5.044   5.606  0.1775 -1.1891  0.9145
 6544SOL    HW325949   1.721   4.935   5.520 -0.5441  1.4916 -2.1747
 6544SOL    MW425950   1.715   5.012   5.561  0.1554  0.7362 -0.5190
 6545SOL     OW25951   1.005   0.398   4.116  0.6853 -0.0829 -0.1612
 6545SOL    HW225952   0.985   0.375   4.207  1.0494  0.9857  0.2057
 6545SOL    HW325953   0.929   0.368   4.066  0.0943  0.0993  0.6161
 6545SOL    MW425954   0.993   0.391   4.122  0.6553  0.0821 -0.0102
 6546SOL     OW25955   0.944   0.772   5.498 -0.0254  0.7611  0.1451
 6546SOL    HW225956   0.854   0.773   5.465  0.5311  1.2595 -1.5118
 6546SOL    HW325957   0.937   0.804   5.588 -1.6976 -1.0587  0.7315
 6546SOL    MW425958   0.931   0.777   5.505 -0.1726  0.5867  0.0039
 6547SOL     OW25959   0.249   2.603   3.238 -0.6776 -0.1762  0.2115
 6547SOL    HW225960   0.254   2.663   3.312  1.7002  0.1965 -0.1696
 6547SOL    HW325961   0.235   2.517   3.277  0.1386  0.0669  1.0663
 6547SOL    MW425962   0.248   2.599   3.253 -0.2562 -0.0950  0.2740
 6548SOL     OW25963   4.887   1.281   5.431 -0.0830 -0.5336 -0.4038
 6548SOL    HW225964   4.897   1.305   5.339  0.6502 -0.2920 -0.2711
 6548SOL    HW325965   4.879   1.364   5.478 -1.5249 -0.6823 -0.3482
 6548SOL    MW425966   4.887   1.295   5.425 -0.1765 -0.5214 -0.3789
 6549SOL     OW25967   0.577   3.961   6.147  0.0405 -0.0921 -0.0002
 6549SOL    HW225968   0.590   4.051   6.174 -1.1286  0.7907 -2.1223
 6549SOL    HW325969   0.569   3.912   6.229  0.8581  1.6762  1.1933
 6549SOL    MW425970   0.578   3.966   6.161 -0.0058  0.2577 -0.1227
 6550SOL     OW25971   0.070   0.430   1.568  0.5919  0.2332  0.3065
 6550SOL    HW225972   0.004   0.481   1.522 -1.7478 -2.8705 -0.0843
 6550SOL    HW325973   0.153   0.460   1.531 -0.8259  1.6360 -1.9941
 6550SOL    MW425974   0.072   0.441   1.557  0.0962  0.0088 -0.0486
 6551SOL     OW25975   2.209   6.335   4.289 -0.7740  0.9451 -0.0814
 6551SOL    HW225976   2.271   6.267   4.262 -0.8903  1.4117 -1.5994
 6551SOL    HW325977   2.140   6.332   4.223 -2.5201  0.3084  1.6615
 6551SOL    MW425978   2.208   6.325   4.277 -1.0197  0.9227 -0.0517
 6552SOL     OW25979   1.705   3.874   5.017 -0.1082  0.0580 -0.1044
 6552SOL    HW225980   1.626   3.821   5.009  0.6912 -1.3187  0.5480
 6552SOL    HW325981   1.675   3.964   5.008 -1.5439 -0.4906 -1.1748
 6552SOL    MW425982   1.691   3.879   5.015 -0.1921 -0.1960 -0.1596
 6553SOL     OW25983   4.425   4.883   1.037 -0.2196  0.2909  0.2177
 6553SOL    HW225984   4.499   4.831   1.006 -1.3623 -0.4743 -1.3384
 6553SOL    HW325985   4.363   4.818   1.072 -1.6565  0.5164 -1.7383
 6553SOL    MW425986   4.427   4.867   1.038 -0.5599  0.2197 -0.2457
 6554SOL     OW25987   0.838   3.125   3.072 -0.3101 -0.3162  0.3745
 6554SOL    HW225988   0.914   3.171   3.038 -1.0269 -0.0894 -1.0088
 6554SOL    HW325989   0.764   3.182   3.052 -0.9280 -0.8777  0.9872
 6554SOL    MW425990   0.838   3.138   3.065 -0.4862 -0.3604  0.2728
 6555SOL     OW25991   3.307   5.797   4.780 -0.1084 -0.1750 -0.3548
 6555SOL    HW225992   3.214   5.802   4.799 -0.2299 -1.9167 -0.3832
 6555SOL    HW325993   3.320   5.711   4.741  1.3779  0.3832 -1.1980
 6555SOL    MW425994   3.297   5.786   4.777  0.0717 -0.3312 -0.4698
 6556SOL     OW25995   1.951   0.594   4.191 -0.0127  0.3625 -0.5756
 6556SOL    HW225996   1.889   0.568   4.259  1.0384 -0.2513  0.1775
 6556SOL    HW325997   1.900   0.652   4.133 -2.0483 -2.1641 -1.5008
 6556SOL    MW425998   1.936   0.599   4.192 -0.1426 -0.0518 -0.5983
 6557SOL     OW25999   3.667   5.322   1.047 -0.2196  0.4807  0.2929
 6557SOL    HW226000   3.672   5.389   1.116  1.8134  0.5564  0.1504
 6557SOL    HW326001   3.632   5.369   0.971  0.2431  1.1553  0.4835
 6557SOL    MW426002   3.663   5.337   1.046  0.1097  0.5797  0.2993
 6558SOL     OW26003   3.136   0.665   2.464  0.2238  0.1082 -0.0430
 6558SOL    HW226004   3.135   0.732   2.396  1.7230 -0.1222 -0.3229
 6558SOL    HW326005   3.099   0.587   2.422  0.1444  0.2624 -0.2616
 6558SOL    MW426006   3.131   0.664   2.450  0.4111  0.0981 -0.1088
 6559SOL     OW26007   0.802   1.486   2.107 -0.0036  0.0093  0.5914
 6559SOL    HW226008   0.726   1.527   2.066 -0.2563 -0.9892  0.0343
 6559SOL    HW326009   0.764   1.431   2.176  0.2711  0.0366  0.7662
 6559SOL    MW426010   0.787   1.484   2.111 -0.0007 -0.1188  0.5410
 6560SOL     OW26011   3.935   3.110   1.364  0.6440  0.6426  0.0453
 6560SOL    HW226012   3.979   3.187   1.401  2.3034 -0.3729  0.2656
 6560SOL    HW326013   3.940   3.044   1.433 -2.6186  0.9026  0.6768
 6560SOL    MW426014   3.942   3.112   1.378  0.4325  0.5430  0.1577
 6561SOL     OW26015   4.076   5.750   0.065 -0.8960 -0.2403 -0.1228
 6561SOL    HW226016   4.149   5.803   0.098  1.1477 -0.6051 -3.5647
 6561SOL    HW326017   4.088   5.664   0.106  1.1671 -0.5116 -1.1272
 6561SOL    MW426018   4.087   5.746   0.075 -0.3541 -0.3242 -0.7094
 6562SOL     OW26019   3.378   1.787   3.163  0.3947  0.0818 -0.2164
 6562SOL    HW226020   3.426   1.869   3.153  0.4392  0.2456  1.1247
 6562SOL    HW326021   3.420   1.744   3.238  0.8561 -1.5175 -1.3329
 6562SOL    MW426022   3.390   1.792   3.172  0.4614 -0.1076 -0.1868
 6563SOL     OW26023   6.328   1.865   0.873  0.1140  0.3227  0.3408
 6563SOL    HW226024   6.289   1.925   0.810  0.9616 -0.5276 -1.0442
 6563SOL    HW326025   6.276   1.785   0.867  0.7313 -0.0660  0.0728
 6563SOL    MW426026   6.316   1.862   0.864  0.3073  0.1592  0.1227
 6564SOL     OW26027   0.551   5.076   1.531 -0.1005  0.0170 -0.3337
 6564SOL    HW226028   0.640   5.058   1.562  0.3724  0.0603 -1.6190
 6564SOL    HW326029   0.556   5.069   1.436 -1.3569  0.5716 -0.4662
 6564SOL    MW426030   0.563   5.072   1.523 -0.2039  0.0958 -0.5208
 6565SOL     OW26031   1.878   1.042   0.928  0.1217  0.1895 -0.0204
 6565SOL    HW226032   1.782   1.037   0.927  0.0991  0.5505 -1.0244
 6565SOL    HW326033   1.903   1.034   0.836  1.0692  0.0110  0.2431
 6565SOL    MW426034   1.869   1.040   0.916  0.2438  0.2136 -0.1181
 6566SOL     OW26035   2.607   2.171   5.232 -0.2184  0.1302  0.0762
 6566SOL    HW226036   2.522   2.217   5.228 -0.8004 -0.9808 -0.9230
 6566SOL    HW326037   2.671   2.241   5.219 -0.9720  0.9754  0.6903
 6566SOL    MW426038   2.604   2.186   5.230 -0.3946  0.0951  0.0254
 6567SOL     OW26039   4.534   5.436   5.776 -0.0719 -0.5609  0.2996
 6567SOL    HW226040   4.590   5.468   5.706  1.1189 -1.1779  0.9451
 6567SOL    HW326041   4.496   5.355   5.742 -0.7806 -0.0284 -0.2208
 6567SOL    MW426042   4.536   5.429   5.762 -0.0083 -0.5720  0.3161
 6568SOL     OW26043   6.111   0.118   2.808 -0.3608 -0.1229 -0.4662
 6568SOL    HW226044   6.078   0.065   2.736 -1.8821  0.5345 -0.2896
 6568SOL    HW326045   6.202   0.091   2.818 -1.1172 -2.7940 -0.2533
 6568SOL    MW426046   6.119   0.108   2.799 -0.6613 -0.3886 -0.4148
 6569SOL     OW26047   4.564   2.638   0.016 -0.1347  0.7386  0.3848
 6569SOL    HW226048   4.582   2.652   0.109  1.7215  0.4592  0.0938
 6569SOL    HW326049   4.643   2.668  -0.029 -0.7159  0.1965 -1.0581
 6569SOL    MW426050   4.577   2.644   0.022  0.0335  0.6302  0.1561
 6570SOL     OW26051   1.445   5.650   4.850  0.4161 -0.3495 -0.2643
 6570SOL    HW226052   1.414   5.560   4.864  1.0817 -0.3961  1.1069
 6570SOL    HW326053   1.526   5.654   4.901 -0.3115  1.4376  0.8228
 6570SOL    MW426054   1.452   5.638   4.859  0.4079 -0.1198  0.0600
 6571SOL     OW26055   1.119   4.355   1.305  0.1792  0.3242 -0.2933
 6571SOL    HW226056   1.210   4.356   1.273  0.6996  0.4244  1.1515
 6571SOL    HW326057   1.094   4.263   1.300  1.1033 -0.0400  1.2944
 6571SOL    MW426058   1.128   4.343   1.300  0.3698  0.2893  0.1068
 6572SOL     OW26059   4.406   2.851   0.060 -0.0144  0.5238  0.1668
 6572SOL    HW226060   4.417   2.934   0.012 -0.7094  0.8536  0.5598
 6572SOL    HW326061   4.457   2.788   0.010 -1.9651  0.4861 -1.9554
 6572SOL    MW426062   4.414   2.854   0.047 -0.3635  0.5623 -0.0613
 6573SOL     OW26063   4.472   4.018   1.970  0.1636  0.3282  0.6089
 6573SOL    HW226064   4.480   4.056   2.057 -1.1222  0.2632  0.7771
 6573SOL    HW326065   4.491   3.925   1.982  2.2750  0.6798  0.3809
 6573SOL    MW426066   4.476   4.011   1.983  0.2725  0.3660  0.6010
 6574SOL     OW26067   0.622   3.985   3.415 -0.1675 -0.2923  0.4643
 6574SOL    HW226068   0.713   4.007   3.435  0.2885 -3.4766  2.6896
 6574SOL    HW326069   0.572   4.064   3.436  1.9821  1.4909 -0.6901
 6574SOL    MW426070   0.627   3.998   3.420  0.1763 -0.4772  0.6056
 6575SOL     OW26071   2.053   0.421   3.884  0.2784  0.0934  0.9601
 6575SOL    HW226072   2.148   0.407   3.889  0.6263  2.3643  1.6619
 6575SOL    HW326073   2.027   0.443   3.973 -0.9223 -0.4768  0.7687
 6575SOL    MW426074   2.062   0.422   3.896  0.1659  0.3178  1.0274
 6576SOL     OW26075   5.550   6.127   4.242 -0.4369  0.3523 -0.0368
 6576SOL    HW226076   5.467   6.162   4.208  0.3691  0.7882 -1.6973
 6576SOL    HW326077   5.530   6.100   4.331 -2.6431 -0.5246 -0.7066
 6576SOL    MW426078   5.536   6.128   4.249 -0.6217  0.2941 -0.3443
 6577SOL     OW26079   1.848   3.849   5.285 -0.4397 -0.7275 -0.4937
 6577SOL    HW226080   1.925   3.902   5.264 -0.7745  0.4082  0.9077
 6577SOL    HW326081   1.799   3.844   5.203  0.8356 -0.9906 -1.2682
 6577SOL    MW426082   1.852   3.856   5.272 -0.3156 -0.6124 -0.4110
 6578SOL     OW26083   3.385   3.444   5.342 -0.1950 -0.3259  0.4336
 6578SOL    HW226084   3.447   3.506   5.380  0.2651 -1.5650  1.8079
 6578SOL    HW326085   3.352   3.394   5.417 -0.0509 -2.1829 -0.6667
 6578SOL    MW426086   3.389   3.446   5.357 -0.1153 -0.7344  0.4698
 6579SOL     OW26087   1.199   2.486   0.033  0.4412 -0.4689 -0.0042
 6579SOL    HW226088   1.205   2.528  -0.053 -0.2898 -1.1091 -0.3871
 6579SOL    HW326089   1.267   2.527   0.085  0.0275  0.8869 -0.4931
 6579SOL    MW426090   1.209   2.497   0.029  0.2902 -0.3745 -0.1192
 6580SOL     OW26091   1.939   5.206   6.143 -0.2281 -0.0989  0.3033
 6580SOL    HW226092   1.892   5.265   6.084 -0.1626  0.1256  0.4779
 6580SOL    HW326093   1.882   5.128   6.149  0.1176 -0.4440 -0.6603
 6580SOL    MW426094   1.925   5.203   6.136 -0.1738 -0.1148  0.1992
 6581SOL     OW26095   0.915   3.946   1.036  0.2638  0.0577 -0.1763
 6581SOL    HW226096   0.895   3.886   0.965  1.2477 -0.0231 -0.3940
 6581SOL    HW326097   0.931   3.890   1.112  1.2696  0.0184 -0.4005
 6581SOL    MW426098   0.914   3.931   1.037  0.5263  0.0419 -0.2346
 6582SOL     OW26099   1.465   1.375   5.232 -0.2220 -0.7165 -0.0897
 6582SOL    HW226100   1.489   1.339   5.147 -0.2966  0.7009 -0.7330
 6582SOL    HW326101   1.369   1.377   5.232 -0.2464 -1.5431  0.3956
 6582SOL    MW426102   1.455   1.371   5.221 -0.2351 -0.6385 -0.1105
 6583SOL     OW26103   5.727   1.431   5.587  0.3800  0.4956  0.1476
 6583SOL    HW226104   5.650   1.436   5.530  0.5102 -0.1290 -0.0985
 6583SOL    HW326105   5.692   1.408   5.673  0.2309  0.9207  0.2047
 6583SOL    MW426106   5.712   1.429   5.591  0.3775  0.4693  0.1227
 6584SOL     OW26107   6.393   5.537   4.290  0.3284 -0.0368  0.6029
 6584SOL    HW226108   6.420   5.482   4.364 -1.5529  0.7369  1.9669
 6584SOL    HW326109   6.338   5.480   4.236  1.3667 -0.4866 -0.0052
 6584SOL    MW426110   6.389   5.522   4.293  0.2172  0.0059  0.7026
 6585SOL     OW26111   0.177   0.676   5.593 -0.0476 -0.1933 -0.0121
 6585SOL    HW226112   0.216   0.760   5.617  1.2575 -0.5365 -0.8449
 6585SOL    HW326113   0.091   0.676   5.636  0.0606  1.4241  0.2514
 6585SOL    MW426114   0.171   0.687   5.601  0.1389 -0.0252 -0.0872
 6586SOL     OW26115   0.060   2.691   2.130 -0.2615 -0.0900 -0.0938
 6586SOL    HW226116   0.110   2.651   2.201  0.3948 -1.5289 -1.3108
 6586SOL    HW326117   0.126   2.716   2.065 -0.7018  2.5073  0.3187
 6586SOL    MW426118   0.075   2.689   2.131 -0.2330  0.0628 -0.1999
 6587SOL     OW26119   1.682   1.056   0.471 -0.4024 -0.5472  0.3634
 6587SOL    HW226120   1.666   1.080   0.379  2.4704  0.9717  0.1422
 6587SOL    HW326121   1.649   1.131   0.521 -2.5924 -1.6673  0.7093
 6587SOL    MW426122   1.675   1.069   0.465 -0.3123 -0.4945  0.3799
 6588SOL     OW26123   6.425   3.024   0.293 -0.0362  0.7851  0.2592
 6588SOL    HW226124   6.429   2.942   0.244  1.7049  0.9183  0.1032
 6588SOL    HW326125   6.332   3.047   0.295 -0.3914 -0.4346 -0.9470
 6588SOL    MW426126   6.414   3.016   0.287  0.1466  0.6418  0.0795
 6589SOL     OW26127   5.820   0.308   5.068  0.2051  0.5060  0.2054
 6589SOL    HW226128   5.904   0.264   5.056  0.2084  0.7751 -0.8635
 6589SOL    HW326129   5.787   0.321   4.979 -0.7020  0.9207  0.5896
 6589SOL    MW426130   5.827   0.304   5.055  0.0858  0.5962  0.1151
 6590SOL     OW26131   2.493   3.090   1.163 -0.0407 -0.0681 -0.5663
 6590SOL    HW226132   2.567   3.106   1.103  0.7570 -1.0885  0.0990
 6590SOL    HW326133   2.533   3.088   1.250 -0.9582 -0.0549 -0.1347
 6590SOL    MW426134   2.508   3.092   1.167 -0.0565 -0.2010 -0.4215
 6591SOL     OW26135   5.711   2.073   3.537 -0.5287  0.1616  0.1353
 6591SOL    HW226136   5.707   2.036   3.449  0.8686  1.9266 -0.7376
 6591SOL    HW326137   5.634   2.037   3.582 -0.7742 -1.4955 -1.4914
 6591SOL    MW426138   5.700   2.063   3.531 -0.3767  0.1759 -0.1945
 6592SOL     OW26139   3.448   3.118   1.338  0.1928 -0.4622 -0.2174
 6592SOL    HW226140   3.500   3.130   1.417  2.5994 -0.2806 -1.7133
 6592SOL    HW326141   3.402   3.035   1.351  0.7845 -0.5798  1.2374
 6592SOL    MW426142   3.449   3.109   1.350  0.5884 -0.4537 -0.2228
 6593SOL     OW26143   2.515   1.664   5.927  0.0160 -0.3601  0.1213
 6593SOL    HW226144   2.549   1.751   5.948  0.5200 -0.3508 -0.7228
 6593SOL    HW326145   2.509   1.620   6.012  0.3755  0.2706  0.4825
 6593SOL    MW426146   2.518   1.670   5.941  0.1299 -0.2756  0.0576
 6594SOL     OW26147   3.170   1.372   4.709 -0.0231  0.1039 -0.1322
 6594SOL    HW226148   3.208   1.381   4.797 -0.6044 -0.8411  0.2344
 6594SOL    HW326149   3.223   1.430   4.654  1.3934 -0.5168  0.5242
 6594SOL    MW426150   3.182   1.381   4.714  0.0871 -0.1027  0.0028
 6595SOL     OW26151   3.681   0.412   0.560  0.1415 -0.1629  0.1433
 6595SOL    HW226152   3.772   0.385   0.570  0.9434  2.0011 -0.7200
 6595SOL    HW326153   3.649   0.420   0.650  1.0764 -0.0606  0.4785
 6595SOL    MW426154   3.689   0.409   0.573  0.3706  0.1361  0.0736
 6596SOL     OW26155   5.516   6.160   2.744 -0.6071  0.0313 -0.0777
 6596SOL    HW226156   5.606   6.128   2.746  0.2432  2.2202 -0.2071
 6596SOL    HW326157   5.478   6.131   2.827  0.0094 -1.3765 -0.2583
 6596SOL    MW426158   5.523   6.152   2.755 -0.4136  0.1343 -0.1186
 6597SOL     OW26159   3.005   2.254   4.368  0.4341 -0.1610 -0.0213
 6597SOL    HW226160   3.064   2.276   4.296  0.7657 -0.6066  0.1167
 6597SOL    HW326161   3.043   2.298   4.444  0.9758 -1.0158  0.2101
 6597SOL    MW426162   3.018   2.263   4.368  0.5493 -0.3326  0.0274
 6598SOL     OW26163   6.252   5.609   4.898  0.4341  0.3127  0.2385
 6598SOL    HW226164   6.277   5.641   4.984 -0.8541  0.5517  0.5310
 6598SOL    HW326165   6.189   5.539   4.915  0.4516  0.1038 -0.5022
 6598SOL    MW426166   6.247   5.604   4.911  0.2665  0.3166  0.1794
 6599SOL     OW26167   3.845   2.936   0.285 -0.2234  0.2266  0.6561
 6599SOL    HW226168   3.862   2.846   0.257  0.5371  0.6905 -0.4518
 6599SOL    HW326169   3.928   2.964   0.325 -0.4211  0.4682  0.8939
 6599SOL    MW426170   3.858   2.928   0.287 -0.1492  0.3197  0.5413
 6600SOL     OW26171   3.012   1.771   1.780  0.4105  0.0312  0.4382
 6600SOL    HW226172   3.098   1.798   1.749  0.4654 -0.6977 -0.0865
 6600SOL    HW326173   3.018   1.777   1.876  1.1239 -0.2249  0.4177
 6600SOL    MW426174   3.024   1.775   1.789  0.5119 -0.0988  0.3662
 6601SOL     OW26175   4.739   1.434   6.301  0.8176  0.1272  0.3595
 6601SOL    HW226176   4.668   1.413   6.240 -0.0335  1.2210  0.9428
 6601SOL    HW326177   4.818   1.437   6.246  0.1058  0.8262 -0.6546
 6601SOL    MW426178   4.740   1.432   6.285  0.6114  0.3637  0.3027
 6602SOL     OW26179   2.263   5.321   2.320  0.2594  0.0084 -0.5304
 6602SOL    HW226180   2.177   5.357   2.296  1.0114  1.5390 -1.0655
 6602SOL    HW326181   2.255   5.227   2.303 -1.0580  0.2385 -1.3532
 6602SOL    MW426182   2.250   5.313   2.314  0.1848  0.2407 -0.7096
 6603SOL     OW26183   0.444   6.094   1.848  0.6311 -0.2932 -0.5754
 6603SOL    HW226184   0.368   6.078   1.902  1.2215 -0.1916  0.3042
 6603SOL    HW326185   0.476   6.180   1.876  1.5624 -0.7108 -0.3321
 6603SOL    MW426186   0.438   6.103   1.859  0.8319 -0.3349 -0.4273
 6604SOL     OW26187   0.864   3.057   3.937  0.1140  0.0254 -0.6020
 6604SOL    HW226188   0.870   3.133   3.994  2.5607  0.4320 -1.2798
 6604SOL    HW326189   0.782   3.070   3.889 -0.0545  1.6633  0.0570
 6604SOL    MW426190   0.854   3.069   3.938  0.4146  0.2952 -0.6045
 6605SOL     OW26191   1.168   3.792   2.862  0.0436 -0.4201  0.4237
 6605SOL    HW226192   1.075   3.816   2.858 -0.0666 -0.6080  1.5016
 6605SOL    HW326193   1.198   3.830   2.945  1.4862  1.5229 -0.9117
 6605SOL    MW426194   1.159   3.800   2.872  0.2194 -0.1885  0.3898
 6606SOL     OW26195   4.372   6.005   4.575  0.1581 -0.1287  0.5689
 6606SOL    HW226196   4.336   6.047   4.497 -0.8112  0.7619  1.4622
 6606SOL    HW326197   4.402   5.920   4.545 -0.2106  0.1943 -0.7676
 6606SOL    MW426198   4.371   6.000   4.561 -0.0184  0.0314  0.5104
 6607SOL     OW26199   1.950   5.993   0.212 -0.3877  0.0916 -0.2163
 6607SOL    HW226200   1.900   5.943   0.277  0.6301  0.3698  0.8186
 6607SOL    HW326201   2.040   5.963   0.225  0.3284  2.4411  0.7099
 6607SOL    MW426202   1.955   5.982   0.223 -0.1589  0.4383  0.0425
 6608SOL     OW26203   6.208   6.327   3.811  0.5218  0.5442  0.0082
 6608SOL    HW226204   6.273   6.397   3.809  0.4873  0.5765  0.0243
 6608SOL    HW326205   6.258   6.249   3.837  0.6924  0.4294 -0.6400
 6608SOL    MW426206   6.223   6.326   3.814  0.5397  0.5333 -0.0752
 6609SOL     OW26207   4.973   4.066   4.648 -0.1084 -0.0029 -0.3358
 6609SOL    HW226208   4.945   4.001   4.713 -0.4615 -0.1278 -0.6074
 6609SOL    HW326209   4.900   4.070   4.586 -0.2269  0.8867 -0.1481
 6609SOL    MW426210   4.960   4.058   4.648 -0.1706  0.0980 -0.3469
 6610SOL     OW26211   1.972   2.651   1.668 -0.1562 -0.1828 -0.3975
 6610SOL    HW226212   1.985   2.665   1.574 -0.6692  1.9952 -0.2147
 6610SOL    HW326213   1.988   2.558   1.681  2.2272 -0.1481 -2.2605
 6610SOL    MW426214   1.976   2.641   1.657  0.0906  0.1091 -0.6192
 6611SOL     OW26215   4.068   3.838   3.497 -0.1571  0.2058 -0.1735
 6611SOL    HW226216   4.138   3.783   3.462  0.0193  0.0328  0.4371
 6611SOL    HW326217   4.108   3.882   3.573 -0.9513 -0.5825  0.7343
 6611SOL    MW426218   4.083   3.836   3.503 -0.2386  0.0790  0.0268
 6612SOL     OW26219   1.184   3.815   6.259 -0.4180  0.6338 -0.2905
 6612SOL    HW226220   1.181   3.737   6.204  1.2498  0.4299 -0.1447
 6612SOL    HW326221   1.223   3.785   6.341 -0.9676  1.3616  0.2518
 6612SOL    MW426222   1.189   3.800   6.263 -0.2705  0.7029 -0.1997
 6613SOL     OW26223   0.726   1.562   6.244  0.3254 -0.0258 -0.2404
 6613SOL    HW226224   0.810   1.596   6.275  1.5486  0.6173 -3.7479
 6613SOL    HW326225   0.661   1.622   6.281  1.5819  0.6617  0.9479
 6613SOL    MW426226   0.728   1.575   6.253  0.6525  0.1498 -0.5464
 6614SOL     OW26227   4.730   1.144   4.034 -1.0458 -0.0786  0.0710
 6614SOL    HW226228   4.662   1.203   4.066  1.0975  1.6924  1.6915
 6614SOL    HW326229   4.801   1.201   4.006  0.3045 -1.8584 -0.3681
 6614SOL    MW426230   4.730   1.159   4.034 -0.5848 -0.0798  0.2269
 6615SOL     OW26231   3.982   6.422   2.099  0.5319  0.3798  0.1907
 6615SOL    HW226232   3.988   6.510   2.062 -1.9994  1.0400  1.0989
 6615SOL    HW326233   3.971   6.436   2.193  1.1897 -0.9647  0.4887
 6615SOL    MW426234   3.981   6.435   2.107  0.2847  0.2895  0.3499
 6616SOL     OW26235   1.872   4.153   0.843  0.1535  0.0002  0.6195
 6616SOL    HW226236   1.902   4.071   0.804 -1.1206 -0.3204  0.2715
 6616SOL    HW326237   1.812   4.128   0.913  1.4973  0.6101  2.0523
 6616SOL    MW426238   1.868   4.139   0.847  0.1627  0.0384  0.7626
 6617SOL     OW26239   4.164   2.735   3.597 -0.2841  0.4073  0.5293
 6617SOL    HW226240   4.252   2.769   3.583  0.2712 -1.2761 -0.3004
 6617SOL    HW326241   4.106   2.806   3.567  0.8085  0.8269 -0.7092
 6617SOL    MW426242   4.168   2.749   3.591 -0.0667  0.2406  0.2564
 6618SOL     OW26243   6.022   1.288   5.896  0.3399  0.2886 -0.0565
 6618SOL    HW226244   5.980   1.240   5.825  0.1165 -1.4515  1.1835
 6618SOL    HW326245   5.967   1.364   5.910 -0.0327  0.2452 -1.2312
 6618SOL    MW426246   6.009   1.291   5.889  0.2613  0.0533 -0.0479
 6619SOL     OW26247   3.538   4.835   4.593 -0.6992  0.3058 -0.2610
 6619SOL    HW226248   3.464   4.892   4.616 -1.3066 -1.0798  1.4063
 6619SOL    HW326249   3.610   4.866   4.648 -1.0580 -0.5428  0.7224
 6619SOL    MW426250   3.538   4.847   4.604 -0.8266  0.0110  0.0887
 6620SOL     OW26251   5.571   2.607   4.519 -0.1016  0.0423 -0.3944
 6620SOL    HW226252   5.617   2.676   4.566  0.9982 -1.0446  0.1671
 6620SOL    HW326253   5.620   2.597   4.437 -0.5334  0.2256 -0.6822
 6620SOL    MW426254   5.583   2.615   4.514 -0.0134 -0.0769 -0.3583
 6621SOL     OW26255   5.664   3.835   2.461  0.0461 -0.3726  0.7240
 6621SOL    HW226256   5.735   3.771   2.459 -0.9867 -1.6652 -3.3135
 6621SOL    HW326257   5.708   3.920   2.453  1.2250 -0.8975  1.3703
 6621SOL    MW426258   5.680   3.838   2.459  0.0654 -0.6124  0.2766
 6622SOL     OW26259   3.511   5.726   1.923 -0.4903  0.0690  0.3603
 6622SOL    HW226260   3.455   5.789   1.877 -1.2211 -0.6894  0.1906
 6622SOL    HW326261   3.458   5.697   1.998  0.1659  0.2708  0.9118
 6622SOL    MW426262   3.497   5.731   1.927 -0.5002 -0.0045  0.4107
 6623SOL     OW26263   3.538   2.230   2.886 -0.4343  0.1689  0.2671
 6623SOL    HW226264   3.585   2.253   2.806 -0.7508 -1.0271 -0.2951
 6623SOL    HW326265   3.455   2.193   2.855 -0.0520 -1.4641  1.0784
 6623SOL    MW426266   3.533   2.228   2.872 -0.4256 -0.2043  0.3000
 6624SOL     OW26267   1.278   6.376   1.552  0.1972  0.3398 -0.7067
 6624SOL    HW226268   1.306   6.295   1.594  0.2739  0.1737 -1.0807
 6624SOL    HW326269   1.335   6.443   1.591 -0.4322  0.3451  0.2232
 6624SOL    MW426270   1.290   6.374   1.563  0.1243  0.3186 -0.6334
 6625SOL     OW26271   3.114   1.330   2.374  0.7875 -0.2335  0.4510
 6625SOL    HW226272   3.101   1.237   2.391  0.5813 -0.5216 -1.1099
 6625SOL    HW326273   3.208   1.338   2.356  1.4423  0.4335  3.5723
 6625SOL    MW426274   3.125   1.319   2.374  0.8466 -0.1835  0.6568
 6626SOL     OW26275   6.262   6.099   1.838 -0.0320 -0.2372 -0.0508
 6626SOL    HW226276   6.175   6.061   1.847 -0.3497  0.6427  0.7804
 6626SOL    HW326277   6.320   6.023   1.830 -0.9482 -0.8202 -1.6600
 6626SOL    MW426278   6.258   6.084   1.838 -0.1948 -0.1980 -0.1534
 6627SOL     OW26279   0.797   2.968   5.062 -0.2224  0.3142 -0.0433
 6627SOL    HW226280   0.824   2.949   4.972  0.4197 -1.2268  0.4504
 6627SOL    HW326281   0.702   2.985   5.055 -0.3048 -0.4205 -0.9194
 6627SOL    MW426282   0.788   2.968   5.049 -0.1486  0.0140 -0.0937
 6628SOL     OW26283   2.213   1.630   4.474  0.4734  0.0100  0.1804
 6628SOL    HW226284   2.120   1.647   4.486  0.0810 -1.3799 -0.7073
 6628SOL    HW326285   2.236   1.679   4.396 -0.8041 -3.6137 -2.7579
 6628SOL    MW426286   2.204   1.639   4.466  0.2531 -0.6514 -0.3244
 6629SOL     OW26287   1.702   2.429   2.612 -0.7114 -0.4430 -0.7023
 6629SOL    HW226288   1.783   2.470   2.584 -0.5432 -0.5458 -0.3675
 6629SOL    HW326289   1.715   2.409   2.704 -1.2306 -0.1879 -0.5688
 6629SOL    MW426290   1.714   2.432   2.620 -0.7577 -0.4229 -0.6405
 6630SOL     OW26291   4.566   4.810   2.188  0.4844  0.1227 -0.1168
 6630SOL    HW226292   4.607   4.890   2.157  1.1044 -0.7803 -1.7315
 6630SOL    HW326293   4.621   4.781   2.261  1.3649  0.1669 -0.7565
 6630SOL    MW426294   4.579   4.817   2.194  0.6824  0.0094 -0.4142
 6631SOL     OW26295   2.954   1.365   2.140  0.2619 -0.5211 -0.6033
 6631SOL    HW226296   2.970   1.286   2.088  1.4767 -0.9339  0.3283
 6631SOL    HW326297   3.025   1.364   2.205 -1.5301 -0.3678  1.4497
 6631SOL    MW426298   2.966   1.354   2.142  0.1857 -0.5554 -0.2095
 6632SOL     OW26299   4.103   6.323   4.801 -0.5633 -0.6865  0.4959
 6632SOL    HW226300   4.134   6.335   4.891 -0.3676  0.9946  0.2219
 6632SOL    HW326301   4.177   6.351   4.747 -0.8111 -1.3566 -0.2091
 6632SOL    MW426302   4.117   6.328   4.806 -0.5701 -0.5531  0.3667
 6633SOL     OW26303   5.176   3.467   4.363 -0.5457 -0.8659 -0.0529
 6633SOL    HW226304   5.210   3.456   4.452 -0.9281  0.2111  0.2401
 6633SOL    HW326305   5.219   3.399   4.312  1.5560  0.0238  0.4454
 6633SOL    MW426306   5.186   3.456   4.368 -0.3189 -0.6064  0.0515
 6634SOL     OW26307   2.507   3.483   4.481 -0.5156 -0.1168  0.2091
 6634SOL    HW226308   2.589   3.435   4.473  0.3878  1.3234  0.4493
 6634SOL    HW326309   2.516   3.531   4.563 -0.6190  1.8110 -0.8634
 6634SOL    MW426310   2.519   3.483   4.491 -0.4100  0.3276  0.0993
 6635SOL     OW26311   0.125   2.237   4.105  0.3334 -0.0708 -0.8284
 6635SOL    HW226312   0.155   2.314   4.154  0.4953 -1.6351  1.7374
 6635SOL    HW326313   0.136   2.261   4.013  0.1406  3.0250 -0.1512
 6635SOL    MW426314   0.130   2.250   4.099  0.3293  0.1313 -0.4005
 6636SOL     OW26315   2.017   1.499   6.262 -0.4597  0.0199  0.3034
 6636SOL    HW226316   1.939   1.455   6.297 -0.4904 -0.8363 -0.7799
 6636SOL    HW326317   1.998   1.592   6.271 -1.8236 -0.1659 -0.3360
 6636SOL    MW426318   2.004   1.505   6.268 -0.6437 -0.1176  0.0761
 6637SOL     OW26319   2.957   3.784   2.037 -0.0163 -0.1551 -0.3303
 6637SOL    HW226320   3.005   3.866   2.038  0.5360 -0.4617  1.1402
 6637SOL    HW326321   2.995   3.733   2.109 -0.8963 -1.3759 -0.6922
 6637SOL    MW426322   2.969   3.788   2.047 -0.0595 -0.3567 -0.1840
 6638SOL     OW26323   5.292   0.764   3.091  0.9126  0.3353  0.1428
 6638SOL    HW226324   5.262   0.676   3.069  1.1630 -0.2612  1.9773
 6638SOL    HW326325   5.265   0.818   3.017  0.9727 -1.3187 -1.1372
 6638SOL    MW426326   5.284   0.760   3.078  0.9536  0.0384  0.2160
 6639SOL     OW26327   6.326   5.526   5.434  0.2064 -0.4254  0.4265
 6639SOL    HW226328   6.241   5.512   5.391 -0.2914 -0.9327  1.5357
 6639SOL    HW326329   6.305   5.533   5.527  1.1486  1.6887  0.5295
 6639SOL    MW426330   6.312   5.525   5.440  0.2650 -0.2134  0.5865
 6640SOL     OW26331   0.579   2.747   4.521 -0.2717  0.4368 -0.0931
 6640SOL    HW226332   0.611   2.837   4.528  0.3715  0.1834  0.2516
 6640SOL    HW326333   0.517   2.750   4.448 -0.5416  1.2392  0.1611
 6640SOL    MW426334   0.575   2.759   4.512 -0.2224  0.5093 -0.0141
 6641SOL     OW26335   1.110   6.276   2.534 -0.3083 -0.2654 -0.1396
 6641SOL    HW226336   1.078   6.222   2.606 -0.5900  1.6302  1.2197
 6641SOL    HW326337   1.204   6.280   2.547 -0.6165  2.8207  2.2832
 6641SOL    MW426338   1.118   6.269   2.545 -0.3861  0.3918  0.3594
 6642SOL     OW26339   3.935   1.806   0.613  0.1562 -0.0556 -0.1317
 6642SOL    HW226340   3.910   1.806   0.521  0.3892  0.0567 -0.1950
 6642SOL    HW326341   3.971   1.719   0.629 -2.7545 -1.2313  0.6405
 6642SOL    MW426342   3.937   1.795   0.603 -0.1971 -0.1959 -0.0382
 6643SOL     OW26343   3.052   1.597   5.481 -0.3808  0.2708 -0.0121
 6643SOL    HW226344   3.029   1.600   5.388  2.0493  0.8698 -0.6668
 6643SOL    HW326345   3.071   1.688   5.504  1.5084 -0.1778  0.3522
 6643SOL    MW426346   3.051   1.610   5.472  0.1890  0.2907 -0.0504
 6644SOL     OW26347   3.808   2.053   0.226  0.3834 -0.4618  0.1728
 6644SOL    HW226348   3.759   2.051   0.144 -0.6371 -0.6060  0.7618
 6644SOL    HW326349   3.886   2.105   0.207 -0.5144  0.6768 -0.5227
 6644SOL    MW426350   3.812   2.060   0.213  0.1303 -0.3306  0.1588
 6645SOL     OW26351   4.126   0.600   4.830  0.0665 -0.0704  0.1742
 6645SOL    HW226352   4.096   0.509   4.833 -0.2691  0.0026 -0.8740
 6645SOL    HW326353   4.200   0.602   4.892  0.2456 -1.1137  0.0201
 6645SOL    MW426354   4.132   0.588   4.839  0.0459 -0.1984  0.0156
 6646SOL     OW26355   3.798   5.285   6.106 -0.2300 -0.0969 -0.0561
 6646SOL    HW226356   3.787   5.372   6.067 -0.2766 -0.2305 -0.3415
 6646SOL    HW326357   3.890   5.282   6.133 -0.8313  1.0523  2.3995
 6646SOL    MW426358   3.808   5.296   6.105 -0.3155  0.0371  0.2302
 6647SOL     OW26359   4.844   2.420   0.955 -0.1370 -0.5005 -0.0765
 6647SOL    HW226360   4.901   2.411   0.879 -1.7890  3.0355 -1.9870
 6647SOL    HW326361   4.764   2.373   0.932 -1.1231  1.5842 -1.2648
 6647SOL    MW426362   4.841   2.413   0.942 -0.4850  0.2411 -0.4854
 6648SOL     OW26363   1.395   4.363   1.241 -0.3632 -0.3657  0.1935
 6648SOL    HW226364   1.438   4.419   1.305 -0.1477 -1.8207  1.3754
 6648SOL    HW326365   1.398   4.413   1.159  2.0641  0.2777  0.6003
 6648SOL    MW426366   1.401   4.377   1.238 -0.0145 -0.4728  0.4031
 6649SOL     OW26367   0.280   3.645   5.403  0.1311 -0.6376  0.7707
 6649SOL    HW226368   0.204   3.604   5.363  0.6877 -1.6297  0.6850
 6649SOL    HW326369   0.309   3.711   5.340 -0.7830 -0.0954  0.9109
 6649SOL    MW426370   0.274   3.648   5.390  0.0839 -0.6970  0.7779
 6650SOL     OW26371   4.470   5.452   3.722 -0.3137 -0.0985 -0.4335
 6650SOL    HW226372   4.515   5.528   3.758 -0.1792 -0.0205 -0.7581
 6650SOL    HW326373   4.414   5.421   3.793 -0.2947  0.2430 -0.2666
 6650SOL    MW426374   4.469   5.458   3.736 -0.2934 -0.0431 -0.4543
 6651SOL     OW26375   3.818   2.276   4.475 -0.2757 -0.5680 -0.1241
 6651SOL    HW226376   3.757   2.205   4.455 -0.0236 -1.2443  1.3726
 6651SOL    HW326377   3.861   2.248   4.556 -0.5321  1.5174  0.7898
 6651SOL    MW426378   3.815   2.263   4.483 -0.2762 -0.3821  0.1940
 6652SOL     OW26379   2.640   3.386   5.882  0.3191  0.5964 -0.4633
 6652SOL    HW226380   2.690   3.408   5.961 -1.7040 -0.4700  1.2189
 6652SOL    HW326381   2.552   3.366   5.914  0.0335 -2.4251 -2.6724
 6652SOL    MW426382   2.635   3.386   5.897  0.0145  0.0570 -0.5328
 6653SOL     OW26383   5.904   0.856   5.176  0.0680 -0.4204  1.1455
 6653SOL    HW226384   5.967   0.833   5.108 -0.0219  1.0230  0.5364
 6653SOL    HW326385   5.823   0.812   5.150 -0.9536  2.7083 -1.6319
 6653SOL    MW426386   5.902   0.847   5.164 -0.0787  0.1828  0.6987
 6654SOL     OW26387   0.986   2.766   3.640 -0.3494  0.2103 -0.1016
 6654SOL    HW226388   1.043   2.831   3.682 -0.2823 -0.6518  1.2140
 6654SOL    HW326389   0.966   2.703   3.710 -2.9825  0.4946 -0.4970
 6654SOL    MW426390   0.991   2.766   3.655 -0.6880  0.1341  0.0198
 6655SOL     OW26391   6.090   0.422   2.520  0.4912 -0.1778  0.3242
 6655SOL    HW226392   6.052   0.427   2.432  0.8406  0.3576  0.1968
 6655SOL    HW326393   6.018   0.393   2.576  0.3065 -0.6807 -0.1633
 6655SOL    MW426394   6.076   0.419   2.516  0.5130 -0.1735  0.2431
 6656SOL     OW26395   2.690   2.492   2.598 -0.0153  0.4862  0.0171
 6656SOL    HW226396   2.664   2.548   2.524 -0.8751  1.6000  1.1183
 6656SOL    HW326397   2.733   2.552   2.659 -0.6595 -0.1016  1.0767
 6656SOL    MW426398   2.692   2.507   2.596 -0.2138  0.5556  0.3022
 6657SOL     OW26399   3.000   3.679   0.899  0.3100 -0.2714 -0.5186
 6657SOL    HW226400   3.037   3.673   0.986  0.6564 -0.5871 -0.6837
 6657SOL    HW326401   3.051   3.618   0.846 -1.2810 -1.7401 -0.4666
 6657SOL    MW426402   3.011   3.670   0.903  0.1458 -0.5069 -0.5336
 6658SOL     OW26403   4.378   0.928   2.548 -0.4967  0.1535 -0.3815
 6658SOL    HW226404   4.289   0.920   2.514  0.0605 -1.3924 -1.6167
 6658SOL    HW326405   4.430   0.958   2.473  0.3123 -0.7964 -0.2292
 6658SOL    MW426406   4.373   0.931   2.533 -0.3165 -0.1758 -0.5244
 6659SOL     OW26407   0.877   3.774   0.813  0.0571  0.0173 -0.0008
 6659SOL    HW226408   0.806   3.727   0.857 -0.5218  0.1248 -0.8015
 6659SOL    HW326409   0.833   3.830   0.750  0.7376  1.7204  0.9774
 6659SOL    MW426410   0.862   3.775   0.811  0.0705  0.2562  0.0226
 6660SOL     OW26411   0.928   5.626   2.313  0.3952 -0.3670 -0.4373
 6660SOL    HW226412   0.852   5.639   2.257  0.5474 -2.3888 -1.2196
 6660SOL    HW326413   1.002   5.657   2.261  0.3110 -0.2129 -0.4648
 6660SOL    MW426414   0.928   5.632   2.299  0.4041 -0.6134 -0.5441
 6661SOL     OW26415   1.614   2.017   3.452 -0.0321  0.3203 -0.0368
 6661SOL    HW226416   1.699   2.017   3.497  0.3448 -1.0892 -0.6754
 6661SOL    HW326417   1.556   1.969   3.511  0.0124 -0.0210 -0.2680
 6661SOL    MW426418   1.617   2.011   3.466  0.0235  0.0893 -0.1515
 6662SOL     OW26419   1.914   5.818   3.992  0.1216  0.0619 -0.5576
 6662SOL    HW226420   1.901   5.866   4.074  0.8706 -0.1153 -0.3247
 6662SOL    HW326421   1.995   5.854   3.956  0.0290 -0.1719 -1.0007
 6662SOL    MW426422   1.923   5.829   3.998  0.2082  0.0077 -0.5853
 6663SOL     OW26423   3.018   2.280   5.115 -0.1162  0.3103  0.0823
 6663SOL    HW226424   3.030   2.226   5.193  1.4200 -2.6329 -1.9589
 6663SOL    HW326425   2.927   2.265   5.090 -0.1885  0.0304  0.4929
 6663SOL    MW426426   3.008   2.271   5.122  0.0770 -0.1150 -0.1328
 6664SOL     OW26427   0.764   2.299   3.194 -0.2596  0.8059  0.1500
 6664SOL    HW226428   0.695   2.265   3.137  1.9659 -1.7994 -1.1673
 6664SOL    HW326429   0.793   2.380   3.152 -0.4660  0.3227 -0.9328
 6664SOL    MW426430   0.759   2.305   3.181  0.0068  0.3984 -0.1666
 6665SOL     OW26431   4.798   4.364   6.322 -0.4118 -0.1184 -0.1398
 6665SOL    HW226432   4.877   4.366   6.376 -1.1837  0.2609  1.0144
 6665SOL    HW326433   4.796   4.450   6.281 -0.4612  0.0419  0.1925
 6665SOL    MW426434   4.808   4.376   6.324 -0.5202 -0.0472  0.0563
 6666SOL     OW26435   4.577   4.334   5.542 -0.0667 -0.3777 -0.3282
 6666SOL    HW226436   4.545   4.322   5.631 -2.0841 -0.8879 -1.0788
 6666SOL    HW326437   4.661   4.288   5.540 -0.2920 -0.8972  1.1318
 6666SOL    MW426438   4.584   4.327   5.553 -0.3626 -0.5136 -0.2346
 6667SOL     OW26439   1.980   2.014   5.895 -0.1135 -0.6186  0.2238
 6667SOL    HW226440   2.059   1.970   5.925  0.8138  0.7579 -0.1212
 6667SOL    HW326441   1.985   2.102   5.932 -0.3695  0.1900 -1.5459
 6667SOL    MW426442   1.991   2.020   5.904 -0.0249 -0.3303 -0.0552
 6668SOL     OW26443   2.991   4.170   0.320  0.2887  0.6609  0.1303
 6668SOL    HW226444   3.044   4.238   0.364 -0.0649  0.2786  1.1682
 6668SOL    HW326445   3.044   4.091   0.328  0.3387  0.6414 -0.3783
 6668SOL    MW426446   3.005   4.169   0.327  0.2486  0.6079  0.2001
 6669SOL     OW26447   4.675   5.513   5.525 -0.4424 -0.7908 -0.4024
 6669SOL    HW226448   4.714   5.600   5.532 -1.2206 -0.1964 -2.5876
 6669SOL    HW326449   4.742   5.460   5.481  0.0223 -1.3322  0.9035
 6669SOL    MW426450   4.689   5.517   5.520 -0.4838 -0.7838 -0.5184
 6670SOL     OW26451   3.740   1.141   1.064  0.9042 -0.0325  0.7334
 6670SOL    HW226452   3.783   1.169   0.984 -1.5127 -0.8249 -0.9402
 6670SOL    HW326453   3.759   1.047   1.071 -0.6973 -0.4618 -0.1955
 6670SOL    MW426454   3.748   1.132   1.055  0.3740 -0.1937  0.3900
 6671SOL     OW26455   5.649   4.823   2.678  0.1569  0.3483  0.4875
 6671SOL    HW226456   5.641   4.782   2.764  0.3909  0.1129  0.3966
 6671SOL    HW326457   5.742   4.844   2.670  0.4449 -1.1348 -0.3914
 6671SOL    MW426458   5.660   4.821   2.688  0.2258  0.1215  0.3596
 6672SOL     OW26459   2.937   1.434   0.374 -0.0179 -0.7059 -0.3781
 6672SOL    HW226460   2.912   1.348   0.341  0.5419 -0.6379 -0.9796
 6672SOL    HW326461   3.032   1.432   0.380  0.0074 -0.0963 -0.4758
 6672SOL    MW426462   2.946   1.422   0.371  0.0593 -0.6165 -0.4703
 6673SOL     OW26463   2.304   4.543   6.160 -0.5997 -0.4273  0.0105
 6673SOL    HW226464   2.358   4.619   6.140  0.1841 -1.4499 -2.0427
 6673SOL    HW326465   2.362   4.485   6.210 -0.1268 -1.0107 -1.1720
 6673SOL    MW426466   2.319   4.545   6.164 -0.4339 -0.6391 -0.4164
 6674SOL     OW26467   2.235   1.713   0.453 -0.1733  0.3488 -0.4011
 6674SOL    HW226468   2.210   1.635   0.402 -0.3446 -0.9396  1.5556
 6674SOL    HW326469   2.304   1.754   0.401  0.0088 -1.1877 -1.4301
 6674SOL    MW426470   2.241   1.708   0.439 -0.1719 -0.0239 -0.2787
 6675SOL     OW26471   5.260   1.372   2.128 -0.3947  0.1972  0.4250
 6675SOL    HW226472   5.236   1.305   2.065  1.5625  0.9229 -1.2043
 6675SOL    HW326473   5.268   1.325   2.211 -0.5270 -1.2801 -0.3653
 6675SOL    MW426474   5.258   1.357   2.131 -0.1539  0.0981  0.1058
 6676SOL     OW26475   0.178   2.979   3.068 -0.3101  0.4034  0.0428
 6676SOL    HW226476   0.262   2.984   3.023 -1.0662  0.6687 -1.4052
 6676SOL    HW326477   0.135   3.062   3.048 -0.8320  0.3534  0.9285
 6676SOL    MW426478   0.183   2.991   3.059 -0.4787  0.4318 -0.0314
 6677SOL     OW26479   5.721   4.490   5.673 -0.5746  0.6640 -0.2534
 6677SOL    HW226480   5.662   4.519   5.603 -1.7029  0.0304  0.3873
 6677SOL    HW326481   5.673   4.419   5.716  0.0022  1.1567  1.2750
 6677SOL    MW426482   5.707   4.485   5.669 -0.6473  0.6454  0.0328
 6678SOL     OW26483   5.359   0.866   5.288 -0.3594  0.0783 -0.3086
 6678SOL    HW226484   5.336   0.917   5.210 -0.6343  0.3861 -0.0329
 6678SOL    HW326485   5.395   0.931   5.349 -0.3132 -0.1288 -0.1146
 6678SOL    MW426486   5.360   0.881   5.286 -0.3895  0.0916 -0.2466
 6679SOL     OW26487   0.284   3.399   3.337  0.9252 -0.3648  0.0418
 6679SOL    HW226488   0.285   3.396   3.432  0.3694 -1.9718  0.0295
 6679SOL    HW326489   0.194   3.423   3.314  1.2507  0.8006 -0.0958
 6679SOL    MW426490   0.272   3.402   3.346  0.8948 -0.4230  0.0220
 6680SOL     OW26491   1.111   5.667   1.020  0.1201 -0.0986 -0.1768
 6680SOL    HW226492   1.058   5.623   0.954 -0.8181  0.6571  0.0536
 6680SOL    HW326493   1.080   5.632   1.103  0.3464 -0.0402 -0.0680
 6680SOL    MW426494   1.100   5.656   1.022  0.0262  0.0088 -0.1320
 6681SOL     OW26495   3.766   2.902   2.261  0.3068  0.3165  0.5127
 6681SOL    HW226496   3.831   2.972   2.268  1.0298 -0.3259  0.3394
 6681SOL    HW326497   3.818   2.821   2.258 -0.4140 -0.1350 -1.1065
 6681SOL    MW426498   3.781   2.901   2.261  0.3071  0.1722  0.2762
 6682SOL     OW26499   2.292   3.253   4.526  0.0718 -0.2646 -0.1459
 6682SOL    HW226500   2.356   3.324   4.513 -0.4125  0.0848 -0.6472
 6682SOL    HW326501   2.207   3.294   4.510 -0.1814 -1.0943 -0.9687
 6682SOL    MW426502   2.289   3.268   4.522 -0.0255 -0.3280 -0.3206
 6683SOL     OW26503   4.188   0.359   6.387 -0.3076 -0.3623 -0.2554
 6683SOL    HW226504   4.189   0.397   6.475 -0.7024 -0.4258 -0.2254
 6683SOL    HW326505   4.281   0.355   6.363 -0.3026  1.7794 -0.7586
 6683SOL    MW426506   4.201   0.363   6.396 -0.3590 -0.0881 -0.3178
 6684SOL     OW26507   3.593   3.671   4.099  0.2970  0.1130 -0.4365
 6684SOL    HW226508   3.530   3.609   4.136 -0.6972  0.8993 -0.7622
 6684SOL    HW326509   3.550   3.757   4.108  2.2731  1.0061  1.4632
 6684SOL    MW426510   3.579   3.674   4.105  0.4266  0.3346 -0.2289
 6685SOL     OW26511   3.127   6.207   1.601  0.1930 -0.5503 -0.1258
 6685SOL    HW226512   3.069   6.271   1.561 -0.0390 -1.7787 -1.8372
 6685SOL    HW326513   3.085   6.186   1.685 -1.4499 -0.8527 -0.9843
 6685SOL    MW426514   3.114   6.212   1.607 -0.0544 -0.7523 -0.4648
 6686SOL     OW26515   4.402   2.170   2.602  0.2170 -0.2058  0.0671
 6686SOL    HW226516   4.419   2.103   2.535  0.0060  0.5962 -0.8025
 6686SOL    HW326517   4.307   2.169   2.612  0.0477  1.0520 -1.1260
 6686SOL    MW426518   4.392   2.161   2.595  0.1668  0.0659 -0.2050
 6687SOL     OW26519   5.148   1.640   5.874 -0.1538 -0.2910  0.4820
 6687SOL    HW226520   5.238   1.665   5.893  0.0191 -0.6173  0.1137
 6687SOL    HW326521   5.104   1.722   5.852  0.1678 -0.1880  0.2229
 6687SOL    MW426522   5.154   1.654   5.874 -0.0886 -0.3205  0.3992
 6688SOL     OW26523   4.561   3.039   3.420  0.2781 -0.0658 -0.2603
 6688SOL    HW226524   4.632   3.101   3.438  1.6909 -1.6556 -0.1142
 6688SOL    HW326525   4.537   3.056   3.329  2.7293 -1.2077 -1.2303
 6688SOL    MW426526   4.567   3.049   3.410  0.7879 -0.4262 -0.3690
 6689SOL     OW26527   5.127   1.929   5.168 -0.7056  0.2014 -0.2718
 6689SOL    HW226528   5.208   1.964   5.205  0.6439 -3.1213  0.2812
 6689SOL    HW326529   5.147   1.914   5.076 -0.7825 -0.3344 -0.2049
 6689SOL    MW426530   5.140   1.931   5.161 -0.5377 -0.3076 -0.1900
 6690SOL     OW26531   3.281   3.474   5.853 -0.0442 -1.1227  0.0639
 6690SOL    HW226532   3.344   3.461   5.923 -0.2573 -5.3851 -0.2816
 6690SOL    HW326533   3.199   3.495   5.898  0.5370 -0.4642  0.8392
 6690SOL    MW426534   3.279   3.475   5.868  0.0044 -1.5982  0.1206
 6691SOL     OW26535   1.861   1.734   3.607  0.4315  0.2813  0.0593
 6691SOL    HW226536   1.773   1.700   3.592  0.4484  0.3200 -0.1349
 6691SOL    HW326537   1.873   1.730   3.702 -0.0946  1.0738  0.1669
 6691SOL    MW426538   1.851   1.729   3.618  0.3644  0.3910  0.0478
 6692SOL     OW26539   4.480   3.170   1.254 -0.2076 -0.0823  0.1297
 6692SOL    HW226540   4.526   3.181   1.337  0.1759  1.3082 -0.2417
 6692SOL    HW326541   4.392   3.142   1.279  0.4334 -1.5140  0.9056
 6692SOL    MW426542   4.474   3.168   1.268 -0.0724 -0.0877  0.1831
 6693SOL     OW26543   4.257   3.900   1.568 -0.1269 -0.4209 -0.5222
 6693SOL    HW226544   4.246   3.920   1.661  0.5979  1.0788 -0.7443
 6693SOL    HW326545   4.267   3.985   1.525  1.5489 -1.1623 -1.7212
 6693SOL    MW426546   4.257   3.914   1.574  0.1898 -0.3208 -0.7097
 6694SOL     OW26547   5.395   2.889   1.348  0.3535  0.5960 -0.4561
 6694SOL    HW226548   5.444   2.866   1.427  0.2595  1.3322 -0.1692
 6694SOL    HW326549   5.334   2.958   1.378 -0.2455  0.3077 -0.9898
 6694SOL    MW426550   5.393   2.895   1.362  0.2621  0.6551 -0.4887
 6695SOL     OW26551   1.205   0.154   1.337  0.4649  0.7977  0.2310
 6695SOL    HW226552   1.272   0.219   1.360  2.9345 -0.9665 -1.3471
 6695SOL    HW326553   1.253   0.071   1.334 -2.4561 -1.0824  1.7314
 6695SOL    MW426554   1.220   0.151   1.340  0.4054  0.3169  0.2208
 6696SOL     OW26555   0.427   0.952   3.326  0.4903 -0.0762  0.2635
 6696SOL    HW226556   0.462   1.036   3.355  1.7468  0.5337 -2.6557
 6696SOL    HW326557   0.473   0.887   3.379  1.4846  0.9832  0.7487
 6696SOL    MW426558   0.438   0.954   3.337  0.7873  0.1440 -0.0576
 6697SOL     OW26559   2.416   1.969   4.290  0.2524  0.5540  0.0265
 6697SOL    HW226560   2.351   2.038   4.281 -0.9415 -0.3968  0.9830
 6697SOL    HW326561   2.496   2.006   4.253 -0.0407  2.8531  1.5480
 6697SOL    MW426562   2.418   1.983   4.284  0.0562  0.7319  0.3534
 6698SOL     OW26563   6.182   3.650   2.466 -0.2473 -0.1088  0.2028
 6698SOL    HW226564   6.213   3.591   2.536 -4.4373 -1.5603  1.1933
 6698SOL    HW326565   6.230   3.731   2.480  2.0429 -1.6418  2.1552
 6698SOL    MW426566   6.192   3.653   2.477 -0.4979 -0.5026  0.5911
 6699SOL     OW26567   5.512   4.558   6.018 -0.5274 -0.5658  0.4264
 6699SOL    HW226568   5.606   4.571   6.014 -0.6611  1.1852  1.6828
 6699SOL    HW326569   5.484   4.555   5.927  0.5222  0.8811  0.0190
 6699SOL    MW426570   5.520   4.560   6.006 -0.4065 -0.1439  0.5384
 6700SOL     OW26571   5.824   3.378   4.981 -0.1449 -0.2340  0.0284
 6700SOL    HW226572   5.818   3.309   5.047  2.0338 -0.2164  0.3148
 6700SOL    HW326573   5.894   3.435   5.012 -0.3432  0.8337 -1.3698
 6700SOL    MW426574   5.833   3.377   4.994  0.1164 -0.0908 -0.1183
 6701SOL     OW26575   5.884   1.274   3.026  0.3646 -0.1207  0.1487
 6701SOL    HW226576   5.881   1.253   2.933  1.7204 -0.1158  0.0926
 6701SOL    HW326577   5.792   1.276   3.052  0.0072 -2.6126 -0.6192
 6701SOL    MW426578   5.871   1.271   3.017  0.4963 -0.4488  0.0400
 6702SOL     OW26579   4.048   3.027   0.875  0.4354  0.5199  0.1033
 6702SOL    HW226580   3.973   3.009   0.931  0.2534 -1.2820 -0.6403
 6702SOL    HW326581   4.085   3.108   0.909 -1.3436  0.9933  1.0038
 6702SOL    MW426582   4.043   3.035   0.887  0.1767  0.3446  0.1240
 6703SOL     OW26583   5.756   3.379   1.100 -0.3707  0.2882  0.4683
 6703SOL    HW226584   5.850   3.370   1.117 -0.1815  1.8121  0.3622
 6703SOL    HW326585   5.721   3.421   1.178 -1.1189 -0.9005  0.8013
 6703SOL    MW426586   5.764   3.383   1.112 -0.4444  0.3324  0.4982
 6704SOL     OW26587   1.540   2.624   2.266 -0.3805  0.1247  0.5277
 6704SOL    HW226588   1.452   2.619   2.231 -0.5911 -0.2380  1.1025
 6704SOL    HW326589   1.597   2.610   2.190 -0.8260 -0.4560  0.2982
 6704SOL    MW426590   1.536   2.622   2.251 -0.4670  0.0002  0.5733
 6705SOL     OW26591   0.497   5.552   3.710  0.5131  0.7621 -0.3640
 6705SOL    HW226592   0.459   5.611   3.644  3.1960  2.9373 -0.1214
 6705SOL    HW326593   0.428   5.544   3.776 -0.7615  1.8238 -1.4764
 6705SOL    MW426594   0.483   5.559   3.710  0.6989  1.1892 -0.4788
 6706SOL     OW26595   4.310   2.358   3.923 -0.1718  0.2862  0.0892
 6706SOL    HW226596   4.254   2.432   3.897  0.4242  0.0437 -2.0841
 6706SOL    HW326597   4.360   2.391   3.997 -1.3397  1.3708  0.4369
 6706SOL    MW426598   4.309   2.372   3.930 -0.2473  0.3973 -0.1517
 6707SOL     OW26599   6.189   4.891   3.336 -1.3578  0.2963 -0.9413
 6707SOL    HW226600   6.188   4.795   3.331 -1.2222  0.3175 -1.3822
 6707SOL    HW326601   6.115   4.913   3.392 -0.5247 -0.1383  0.3944
 6707SOL    MW426602   6.179   4.881   3.343 -1.2300  0.2418 -0.8233
 6708SOL     OW26603   3.509   5.463   3.987 -0.8300  0.2945 -0.5331
 6708SOL    HW226604   3.473   5.472   4.075 -0.6662 -0.2207 -0.4077
 6708SOL    HW326605   3.444   5.503   3.929 -1.8215 -0.9820 -0.3609
 6708SOL    MW426606   3.496   5.469   3.991 -0.9392  0.0581 -0.4939
 6709SOL     OW26607   4.224   2.055   4.178  0.3401 -0.2315 -0.8019
 6709SOL    HW226608   4.312   2.049   4.214  0.4999  0.1920 -1.1085
 6709SOL    HW326609   4.196   1.964   4.167  1.0476 -0.3861 -1.4448
 6709SOL    MW426610   4.232   2.042   4.181  0.4545 -0.1960 -0.9272
 6710SOL     OW26611   0.925   1.388   0.104  0.1774  0.0623 -0.2687
 6710SOL    HW226612   0.930   1.479   0.132  0.7820 -0.1097  0.2152
 6710SOL    HW326613   1.010   1.371   0.062  0.6228 -0.6550  0.8661
 6710SOL    MW426614   0.937   1.398   0.102  0.3159 -0.0550 -0.0551
 6711SOL     OW26615   2.225   6.310   3.771 -0.0251 -0.2105 -0.1022
 6711SOL    HW226616   2.289   6.342   3.707 -0.5939 -1.2537 -1.2107
 6711SOL    HW326617   2.140   6.319   3.728 -0.1330 -5.4820 -1.6520
 6711SOL    MW426618   2.222   6.316   3.757 -0.1144 -1.0437 -0.4529
 6712SOL     OW26619   4.384   4.933   4.614  0.2698  0.4388  0.1344
 6712SOL    HW226620   4.391   4.910   4.707 -0.2297 -0.1010  0.0467
 6712SOL    HW326621   4.308   4.991   4.609  0.1151  0.2246  0.0162
 6712SOL    MW426622   4.375   4.938   4.626  0.1835  0.3393  0.1072
 6713SOL     OW26623   4.563   2.260   2.819  0.4695 -0.6180  0.0047
 6713SOL    HW226624   4.517   2.229   2.741 -1.1864  0.2244  0.6135
 6713SOL    HW326625   4.531   2.204   2.890  1.0334 -0.5713  0.3043
 6713SOL    MW426626   4.553   2.249   2.818  0.3254 -0.5007  0.1245
 6714SOL     OW26627   3.822   0.506   5.619 -0.7176  0.1923  0.1116
 6714SOL    HW226628   3.804   0.417   5.650 -0.7245  0.9544  2.5448
 6714SOL    HW326629   3.909   0.501   5.580 -1.2516 -1.1116 -1.0003
 6714SOL    MW426630   3.831   0.493   5.618 -0.7889  0.1208  0.2859
 6715SOL     OW26631   5.925   3.340   1.739 -0.4231 -0.2169 -0.1268
 6715SOL    HW226632   5.908   3.265   1.682 -1.3277  0.7994 -1.2312
 6715SOL    HW326633   5.844   3.390   1.738  0.9918  2.2312 -1.6440
 6715SOL    MW426634   5.912   3.336   1.731 -0.3558  0.2402 -0.4727
 6716SOL     OW26635   5.765   3.583   1.778  0.1435  0.3311  0.4014
 6716SOL    HW226636   5.846   3.633   1.790 -0.7239  1.8366  0.3174
 6716SOL    HW326637   5.695   3.648   1.787 -0.9919 -0.4973 -1.5422
 6716SOL    MW426638   5.767   3.599   1.780 -0.1207  0.4204  0.1339
 6717SOL     OW26639   2.145   4.376   6.001 -0.1510 -0.0364 -0.6115
 6717SOL    HW226640   2.211   4.427   6.048 -1.4945  0.4157  0.8667
 6717SOL    HW326641   2.065   4.386   6.053 -1.2950 -0.9077 -2.1151
 6717SOL    MW426642   2.143   4.384   6.014 -0.4792 -0.0917 -0.6149
 6718SOL     OW26643   0.644   0.457   3.495 -0.1501  0.1682 -0.6436
 6718SOL    HW226644   0.688   0.445   3.410 -0.7668  0.8839 -1.0702
 6718SOL    HW326645   0.705   0.509   3.546  0.5663 -0.9049 -0.3558
 6718SOL    MW426646   0.658   0.462   3.491 -0.1369  0.1211 -0.6619
 6719SOL     OW26647   1.588   4.127   5.069 -0.3866  0.5599  0.0108
 6719SOL    HW226648   1.557   4.128   5.160  0.9437 -1.0471  0.5413
 6719SOL    HW326649   1.658   4.192   5.068 -0.6045  0.7993  0.0452
 6719SOL    MW426650   1.593   4.135   5.081 -0.2398  0.3795  0.0853
 6720SOL     OW26651   1.562   3.173   1.336 -0.0446  0.2918  0.1740
 6720SOL    HW226652   1.657   3.186   1.336 -0.0423  0.3678 -0.7711
 6720SOL    HW326653   1.547   3.101   1.397  0.7926 -0.8491 -0.9114
 6720SOL    MW426654   1.573   3.165   1.344  0.0662  0.1513 -0.0939
 6721SOL     OW26655   2.972   0.835   1.277  0.2453 -0.1810 -0.3448
 6721SOL    HW226656   2.966   0.928   1.258  0.7238 -0.0493  0.1508
 6721SOL    HW326657   3.032   0.800   1.211  0.0882 -0.1362 -0.5119
 6721SOL    MW426658   2.979   0.842   1.266  0.2877 -0.1577 -0.3014
 6722SOL     OW26659   0.897   4.164   0.622 -0.3631  0.2431 -0.0069
 6722SOL    HW226660   0.989   4.137   0.618  0.1330  1.5436  1.4300
 6722SOL    HW326661   0.851   4.088   0.659  0.3379  0.0095  0.4025
 6722SOL    MW426662   0.903   4.150   0.627 -0.2051  0.3839  0.2367
 6723SOL     OW26663   5.696   0.576   2.151 -0.1748  0.3004 -0.9718
 6723SOL    HW226664   5.673   0.669   2.160  0.2350  0.3306 -0.1572
 6723SOL    HW326665   5.750   0.572   2.073  0.9403  0.9703 -0.2519
 6723SOL    MW426666   5.700   0.588   2.142  0.0264  0.3928 -0.7693
 6724SOL     OW26667   1.441   2.592   3.717  0.4544  0.2653  0.0969
 6724SOL    HW226668   1.351   2.593   3.749 -0.0911  1.0985 -1.3893
 6724SOL    HW326669   1.465   2.500   3.713  0.2273  0.0921  1.9440
 6724SOL    MW426670   1.433   2.580   3.721  0.3525  0.3523  0.1445
 6725SOL     OW26671   0.550   0.458   5.076  0.2735 -0.0318  0.7244
 6725SOL    HW226672   0.498   0.460   4.996 -2.2614  0.6254  2.2684
 6725SOL    HW326673   0.581   0.548   5.087  0.3158 -0.0415  0.6870
 6725SOL    MW426674   0.548   0.470   5.067 -0.0553  0.0536  0.9232
 6726SOL     OW26675   1.240   1.244   0.855 -0.3030 -0.4028  0.4478
 6726SOL    HW226676   1.151   1.259   0.887 -0.3553  0.3115 -0.0221
 6726SOL    HW326677   1.240   1.152   0.828 -0.9537 -0.3617  0.2873
 6726SOL    MW426678   1.229   1.234   0.856 -0.3957 -0.3031  0.3646
 6727SOL     OW26679   1.540   3.565   1.838  0.3163 -0.2669 -0.2254
 6727SOL    HW226680   1.538   3.469   1.839 -0.5667 -0.2542 -0.2910
 6727SOL    HW326681   1.449   3.591   1.826  0.0582  0.6157  2.8926
 6727SOL    MW426682   1.528   3.556   1.837  0.1658 -0.1488  0.1773
 6728SOL     OW26683   2.057   3.582   0.365 -0.0630 -0.4182 -0.1891
 6728SOL    HW226684   1.964   3.595   0.383 -0.0013  0.1780 -0.3000
 6728SOL    HW326685   2.100   3.659   0.401  0.4888 -1.0972  0.6369
 6728SOL    MW426686   2.050   3.594   0.372  0.0179 -0.4292 -0.0948
 6729SOL     OW26687   6.022   3.798   4.964  0.2541  0.1842 -0.2601
 6729SOL    HW226688   6.097   3.856   4.949 -0.1670  1.1767  1.2024
 6729SOL    HW326689   5.984   3.830   5.046 -1.3660 -0.7337 -0.6185
 6729SOL    MW426690   6.027   3.810   4.973 -0.0152  0.1940 -0.1145
 6730SOL     OW26691   2.378   2.539   5.210 -0.4747 -0.9601 -0.1097
 6730SOL    HW226692   2.427   2.595   5.150 -1.9981 -0.5069 -0.9804
 6730SOL    HW326693   2.383   2.452   5.171 -0.2098 -0.9488 -0.0998
 6730SOL    MW426694   2.385   2.535   5.197 -0.6408 -0.8988 -0.2233
 6731SOL     OW26695   2.748   6.197   3.195  0.0484 -0.2238 -0.2462
 6731SOL    HW226696   2.699   6.275   3.223 -0.2277 -0.3507 -0.3724
 6731SOL    HW326697   2.684   6.144   3.147 -0.3707 -1.5474  1.6521
 6731SOL    MW426698   2.733   6.200   3.193 -0.0433 -0.4152 -0.0124
 6732SOL     OW26699   0.358   2.091   4.106  0.1428 -0.1883  0.2130
 6732SOL    HW226700   0.280   2.146   4.117 -0.0909 -0.7157  1.2178
 6732SOL    HW326701   0.412   2.111   4.182  2.0411  1.7928 -1.4883
 6732SOL    MW426702   0.355   2.101   4.117  0.3625  0.0035  0.1211
 6733SOL     OW26703   4.978   1.561   4.725  0.1413  0.1725 -0.3367
 6733SOL    HW226704   4.947   1.504   4.795 -0.4393 -1.0186 -1.5072
 6733SOL    HW326705   4.917   1.545   4.653  1.4700  0.3878 -1.5531
 6733SOL    MW426706   4.966   1.552   4.724  0.2400  0.0438 -0.6516
 6734SOL     OW26707   6.009   2.579   2.324  0.2223 -0.5654 -0.1397
 6734SOL    HW226708   5.970   2.546   2.243 -0.0961  0.0122 -0.2276
 6734SOL    HW326709   6.094   2.535   2.330 -0.7415 -2.4492  0.4611
 6734SOL    MW426710   6.015   2.568   2.314  0.0531 -0.7377 -0.0720
 6735SOL     OW26711   1.171   2.248   3.067  0.1020  0.6501 -0.1385
 6735SOL    HW226712   1.223   2.204   3.000  1.1808 -1.4947  1.9583
 6735SOL    HW326713   1.084   2.207   3.061  0.4977 -0.3118  0.3980
 6735SOL    MW426714   1.166   2.237   3.058  0.2966  0.2402  0.2089
 6736SOL     OW26715   4.353   5.708   0.363 -0.2584 -0.5875 -0.7446
 6736SOL    HW226716   4.324   5.770   0.296  0.3178  0.5988  0.0627
 6736SOL    HW326717   4.369   5.762   0.440  0.9663 -1.6358 -0.2234
 6736SOL    MW426718   4.351   5.723   0.364 -0.0208 -0.5693 -0.5693
 6737SOL     OW26719   5.623   1.270   2.390 -0.0575  0.3555 -0.0359
 6737SOL    HW226720   5.630   1.176   2.406  0.5208  0.0345 -1.8938
 6737SOL    HW326721   5.621   1.278   2.295  0.3063  2.2542  0.0718
 6737SOL    MW426722   5.624   1.259   2.380  0.0668  0.5636 -0.2668
 6738SOL     OW26723   0.569   3.680   3.900  0.5148  0.2788 -0.2766
 6738SOL    HW226724   0.617   3.699   3.820  2.1921 -1.2400  0.3110
 6738SOL    HW326725   0.517   3.602   3.879 -0.0208  0.6196 -0.2440
 6738SOL    MW426726   0.568   3.672   3.887  0.6654  0.1234 -0.1948
 6739SOL     OW26727   2.614   1.152   5.900  0.4989  0.1906  0.3113
 6739SOL    HW226728   2.677   1.223   5.912 -0.6465  1.4222 -0.7183
 6739SOL    HW326729   2.539   1.193   5.857 -1.1083 -1.1715  1.6423
 6739SOL    MW426730   2.613   1.167   5.896  0.1357  0.1734  0.3510
 6740SOL     OW26731   1.684   1.124   0.182  0.2958 -0.4739  0.5135
 6740SOL    HW226732   1.774   1.133   0.212  0.2699 -1.8259  1.0921
 6740SOL    HW326733   1.688   1.057   0.114 -0.2965 -0.6581  0.6556
 6740SOL    MW426734   1.696   1.116   0.177  0.2142 -0.6766  0.6086
 6741SOL     OW26735   6.314   2.608   5.153 -0.2501  0.0242  0.0169
 6741SOL    HW226736   6.285   2.612   5.062 -0.2370 -1.0014 -0.0440
 6741SOL    HW326737   6.356   2.522   5.161 -0.5356 -0.0306  1.0767
 6741SOL    MW426738   6.316   2.597   5.142 -0.2861 -0.1183  0.1487
 6742SOL     OW26739   5.338   5.632   1.701  0.5407 -0.1895 -0.1028
 6742SOL    HW226740   5.375   5.553   1.739  1.6743  0.9795  1.3558
 6742SOL    HW326741   5.268   5.658   1.761  1.6591  1.1003  0.7196
 6742SOL    MW426742   5.334   5.625   1.714  0.8378  0.1349  0.1982
 6743SOL     OW26743   2.852   0.355   3.874  0.6231 -0.1751 -0.4973
 6743SOL    HW226744   2.908   0.372   3.951  0.7605  0.2352 -0.6835
 6743SOL    HW326745   2.774   0.313   3.910  0.7018 -0.0174 -0.1338
 6743SOL    MW426746   2.849   0.352   3.889  0.6516 -0.1002 -0.4739
 6744SOL     OW26747   2.455   4.173   0.681 -0.0590 -0.4006  0.4912
 6744SOL    HW226748   2.538   4.131   0.703  0.5756  1.4801  1.9705
 6744SOL    HW326749   2.464   4.196   0.589  0.0400 -2.3500 -0.0355
 6744SOL    MW426750   2.467   4.170   0.672  0.0378 -0.4097  0.6169
 6745SOL     OW26751   4.729   2.794   3.342  0.0582 -0.3742 -0.0167
 6745SOL    HW226752   4.662   2.859   3.365  1.3723  1.2172 -0.4156
 6745SOL    HW326753   4.706   2.767   3.253 -1.4758 -1.7977  0.7759
 6745SOL    MW426754   4.717   2.799   3.333  0.0292 -0.3520  0.0353
 6746SOL     OW26755   1.264   4.699   1.411 -0.2596 -0.4360 -0.0055
 6746SOL    HW226756   1.175   4.707   1.378 -1.8135  1.1472  4.0030
 6746SOL    HW326757   1.258   4.634   1.481  1.7229 -0.2725  0.3783
 6746SOL    MW426758   1.252   4.691   1.416 -0.2031 -0.2055  0.5740
 6747SOL     OW26759   5.740   0.355   5.862  0.3079  0.4310 -0.0268
 6747SOL    HW226760   5.683   0.324   5.932 -0.2567 -0.3615 -0.8217
 6747SOL    HW326761   5.682   0.400   5.801  0.8466  1.4180  0.1667
 6747SOL    MW426762   5.725   0.357   5.864  0.3045  0.4567 -0.1062
 6748SOL     OW26763   2.934   0.758   1.552  0.6094  0.1150 -0.2481
 6748SOL    HW226764   2.894   0.672   1.549 -0.2113  0.4075  1.3619
 6748SOL    HW326765   2.961   0.775   1.461 -0.0534 -1.4164 -0.7667
 6748SOL    MW426766   2.933   0.749   1.539  0.4136 -0.0484 -0.1041
 6749SOL     OW26767   1.068   0.454   2.577  0.7707 -0.3527 -0.1388
 6749SOL    HW226768   1.132   0.493   2.637  0.1220 -1.3787  1.2867
 6749SOL    HW326769   1.092   0.487   2.491  0.4271  2.9839  0.9105
 6749SOL    MW426770   1.079   0.463   2.574  0.6398 -0.0478  0.1877
 6750SOL     OW26771   1.469   3.806   4.605 -0.1325  0.4110 -0.7929
 6750SOL    HW226772   1.414   3.843   4.536  0.9658  1.5599 -1.1016
 6750SOL    HW326773   1.517   3.881   4.640  0.9892 -0.4997 -0.3073
 6750SOL    MW426774   1.468   3.821   4.601  0.1604  0.4424 -0.7696
 6751SOL     OW26775   4.089   0.127   5.315  0.2997 -0.3488  0.4017
 6751SOL    HW226776   4.019   0.171   5.267 -0.0239 -2.0844 -0.8280
 6751SOL    HW326777   4.044   0.074   5.381  0.5877  0.0553  0.9310
 6751SOL    MW426778   4.074   0.126   5.317  0.2950 -0.5245  0.3093
 6752SOL     OW26779   4.802   3.931   5.091 -0.3371  0.1353  0.6567
 6752SOL    HW226780   4.883   3.919   5.141 -0.8782  0.1286  1.5432
 6752SOL    HW326781   4.791   4.026   5.085 -0.1136  0.1408  0.2747
 6752SOL    MW426782   4.811   3.942   5.097 -0.3790  0.1351  0.7232
 6753SOL     OW26783   5.478   2.871   0.567  0.2460 -0.5457  0.9859
 6753SOL    HW226784   5.448   2.956   0.535 -1.1987 -0.7495  1.7217
 6753SOL    HW326785   5.453   2.809   0.499 -0.6851 -0.6636  1.4270
 6753SOL    MW426786   5.471   2.874   0.554 -0.0674 -0.5882  1.1412
 6754SOL     OW26787   0.482   4.536   3.281 -0.1697  0.4973  0.0726
 6754SOL    HW226788   0.562   4.506   3.239 -1.0863 -0.5234 -1.0324
 6754SOL    HW326789   0.424   4.460   3.280 -2.1318  1.8749 -1.7008
 6754SOL    MW426790   0.485   4.522   3.275 -0.5495  0.5444 -0.3072
 6755SOL     OW26791   1.560   4.388   0.939 -0.1904  0.5944  0.6217
 6755SOL    HW226792   1.597   4.469   0.975 -1.8475  0.6564  2.3766
 6755SOL    HW326793   1.597   4.319   0.995 -0.3821  0.3542  0.4515
 6755SOL    MW426794   1.570   4.390   0.951 -0.4343  0.5709  0.8308
 6756SOL     OW26795   5.748   4.141   2.255 -0.0464  0.2679  0.2421
 6756SOL    HW226796   5.784   4.229   2.263  0.0387  0.2779 -0.1887
 6756SOL    HW326797   5.821   4.083   2.277 -0.1639  0.3086  0.7359
 6756SOL    MW426798   5.762   4.145   2.259 -0.0507  0.2746  0.2504
 6757SOL     OW26799   5.147   1.005   1.095  0.2175 -0.5929  0.0955
 6757SOL    HW226800   5.094   0.963   1.162 -2.1404 -0.3179 -1.4756
 6757SOL    HW326801   5.227   1.032   1.140 -0.6158 -1.7519  2.3938
 6757SOL    MW426802   5.150   1.003   1.110 -0.2036 -0.7095  0.1914
 6758SOL     OW26803   3.325   5.838   5.291  0.2309  1.0700  0.0112
 6758SOL    HW226804   3.309   5.932   5.303  1.5218  1.2330  0.6058
 6758SOL    HW326805   3.348   5.829   5.199  0.6408  1.4279  0.0759
 6758SOL    MW426806   3.326   5.849   5.281  0.4553  1.1387  0.0982
 6759SOL     OW26807   0.866   0.373   3.842 -0.8896 -0.0804 -0.5769
 6759SOL    HW226808   0.780   0.332   3.830 -1.2908  0.8445 -0.9302
 6759SOL    HW326809   0.879   0.426   3.763  0.4020 -0.8851 -0.9469
 6759SOL    MW426810   0.857   0.374   3.830 -0.7722 -0.0645 -0.6723
 6760SOL     OW26811   1.571   6.053   5.295  0.5408  0.4010 -0.1780
 6760SOL    HW226812   1.493   6.013   5.334  1.6269  0.0826  1.7919
 6760SOL    HW326813   1.546   6.069   5.204 -1.5114 -0.5007  0.1578
 6760SOL    MW426814   1.557   6.050   5.288  0.4134  0.2400  0.1262
 6761SOL     OW26815   0.708   1.630   0.705  0.0814 -0.1058 -0.1450
 6761SOL    HW226816   0.648   1.703   0.694  1.6061  1.0608 -1.1466
 6761SOL    HW326817   0.743   1.614   0.617  3.0281  0.9031  0.7271
 6761SOL    MW426818   0.705   1.637   0.692  0.6714  0.1812 -0.1621
 6762SOL     OW26819   2.294   0.132   5.628  0.0399 -0.2751  0.1814
 6762SOL    HW226820   2.263   0.056   5.578  0.0595 -0.1621 -0.0053
 6762SOL    HW326821   2.368   0.166   5.577 -1.3789  1.2407 -0.9858
 6762SOL    MW426822   2.300   0.127   5.614 -0.1447 -0.0602  0.0028
 6763SOL     OW26823   1.084   2.676   6.005  0.0006 -0.4370 -0.4587
 6763SOL    HW226824   1.000   2.713   6.033 -0.6110 -0.9095 -1.5879
 6763SOL    HW326825   1.120   2.741   5.945  0.0892 -0.5682 -0.5482
 6763SOL    MW426826   1.077   2.689   6.001 -0.0684 -0.5167 -0.6195
 6764SOL     OW26827   5.589   3.541   0.874  0.0748 -0.1365  0.0583
 6764SOL    HW226828   5.636   3.594   0.938 -1.1569  1.2558 -0.1451
 6764SOL    HW326829   5.642   3.545   0.795 -0.0549  0.8869  0.0173
 6764SOL    MW426830   5.602   3.548   0.872 -0.1048  0.1822  0.0261
 6765SOL     OW26831   1.150   1.909   3.497 -0.0813  0.5418  0.1857
 6765SOL    HW226832   1.134   1.836   3.437 -2.2694  1.2371 -0.1877
 6765SOL    HW326833   1.220   1.879   3.554 -0.0341 -1.3335 -0.7808
 6765SOL    MW426834   1.157   1.895   3.496 -0.3638  0.3861  0.0089
 6766SOL     OW26835   4.264   1.751   6.191  0.4578  0.3093 -0.5454
 6766SOL    HW226836   4.335   1.805   6.156  0.3973  0.3144 -0.6599
 6766SOL    HW326837   4.306   1.699   6.260  0.5485  0.3953 -0.5341
 6766SOL    MW426838   4.279   1.752   6.195  0.4618  0.3213 -0.5590
 6767SOL     OW26839   6.101   1.684   3.039 -0.4958  0.5172  0.4825
 6767SOL    HW226840   6.139   1.708   2.954 -0.2271 -0.3471  0.3531
 6767SOL    HW326841   6.056   1.764   3.068  2.2168  1.9293  1.1256
 6767SOL    MW426842   6.100   1.698   3.032 -0.1024  0.5894  0.5503
 6768SOL     OW26843   2.984   4.084   5.635 -0.0869  0.3363  0.1368
 6768SOL    HW226844   2.925   4.121   5.700 -0.8013  1.1871 -0.9693
 6768SOL    HW326845   3.042   4.156   5.611 -1.5659  0.8536 -2.1279
 6768SOL    MW426846   2.984   4.098   5.641 -0.3763  0.5168 -0.3079
 6769SOL     OW26847   1.972   0.084   4.457  0.4693 -0.1290 -0.1173
 6769SOL    HW226848   1.984   0.136   4.377 -0.3668 -0.0177 -0.1816
 6769SOL    HW326849   2.023   0.131   4.523  0.5880  0.1791 -0.4215
 6769SOL    MW426850   1.980   0.097   4.455  0.3746 -0.0737 -0.1659
 6770SOL     OW26851   2.197   5.939   4.647 -0.0080  0.7489 -0.3998
 6770SOL    HW226852   2.221   6.023   4.687 -0.7980  0.4538  0.7621
 6770SOL    HW326853   2.263   5.878   4.680 -1.6053  0.1521  1.9511
 6770SOL    MW426854   2.209   5.942   4.657 -0.3230  0.6312  0.0637
 6771SOL     OW26855   4.117   1.155   5.578 -0.0601 -0.2115  0.0660
 6771SOL    HW226856   4.118   1.157   5.674 -1.1265  0.0405  0.0903
 6771SOL    HW326857   4.055   1.224   5.554 -0.6157 -0.9806 -0.7603
 6771SOL    MW426858   4.109   1.164   5.588 -0.2741 -0.2798 -0.0398
 6772SOL     OW26859   1.480   4.165   6.295  0.4721 -0.3768 -0.3412
 6772SOL    HW226860   1.556   4.125   6.253  0.6590 -0.9273  0.4892
 6772SOL    HW326861   1.405   4.136   6.242  0.7583 -0.5395 -0.6587
 6772SOL    MW426862   1.480   4.155   6.282  0.5345 -0.4709 -0.2735
 6773SOL     OW26863   1.706   2.178   5.778  0.0678 -0.4635  0.3099
 6773SOL    HW226864   1.709   2.247   5.844 -0.0452 -0.8270  0.7032
 6773SOL    HW326865   1.710   2.097   5.829  1.1506 -0.7493 -0.1900
 6773SOL    MW426866   1.707   2.176   5.793  0.1957 -0.5492  0.2958
 6774SOL     OW26867   2.496   1.627   3.915  0.0917 -0.0369  0.7409
 6774SOL    HW226868   2.473   1.596   3.827 -2.4677  1.5270  0.7478
 6774SOL    HW326869   2.528   1.716   3.900  1.7505 -0.5256  1.2334
 6774SOL    MW426870   2.497   1.635   3.901 -0.0271  0.1049  0.8068
 6775SOL     OW26871   5.680   0.725   3.716 -0.0676 -0.1734  0.1985
 6775SOL    HW226872   5.739   0.788   3.675  1.0022 -1.7689 -0.8143
 6775SOL    HW326873   5.739   0.659   3.754 -1.1291 -0.2174  1.8755
 6775SOL    MW426874   5.696   0.724   3.716 -0.0665 -0.3897  0.2861
 6776SOL     OW26875   6.038   3.269   3.517 -0.2139 -0.7737 -0.2197
 6776SOL    HW226876   6.045   3.197   3.454  1.2747 -0.2658 -0.6852
 6776SOL    HW326877   6.040   3.348   3.464 -1.3137 -0.3636  0.3257
 6776SOL    MW426878   6.039   3.270   3.502 -0.1626 -0.6526 -0.2092
 6777SOL     OW26879   5.830   3.471   2.703  0.0864 -0.1156 -0.2182
 6777SOL    HW226880   5.921   3.453   2.728  0.0872  1.2036  0.7897
 6777SOL    HW326881   5.809   3.401   2.640  1.1837 -1.5380  0.9217
 6777SOL    MW426882   5.839   3.459   2.698  0.2312 -0.1292  0.0651
 6778SOL     OW26883   5.731   0.359   3.356 -0.2478 -0.5335 -0.0919
 6778SOL    HW226884   5.659   0.359   3.418  0.9442  2.7556  1.4829
 6778SOL    HW326885   5.776   0.276   3.372  0.1262  0.2371  3.6842
 6778SOL    MW426886   5.728   0.348   3.366 -0.0412  0.0021  0.6141
 6779SOL     OW26887   5.111   3.725   3.674  0.2707 -0.7859 -0.4001
 6779SOL    HW226888   5.124   3.795   3.610  0.5072 -0.6269 -0.1784
 6779SOL    HW326889   5.092   3.648   3.621  1.7732 -0.9581 -0.7396
 6779SOL    MW426890   5.110   3.724   3.658  0.5002 -0.7876 -0.4157
 6780SOL     OW26891   0.922   6.269   1.975  0.0070 -0.2705  0.3074
 6780SOL    HW226892   0.872   6.329   1.920  0.8058  0.3762  0.2585
 6780SOL    HW326893   0.932   6.190   1.922  0.2979  0.1444 -0.2742
 6780SOL    MW426894   0.917   6.267   1.961  0.1508 -0.1304  0.2242
 6781SOL     OW26895   3.729   1.360   5.869  0.3597 -0.1426  0.1550
 6781SOL    HW226896   3.723   1.447   5.830  1.1456 -0.4426 -0.6688
 6781SOL    HW326897   3.653   1.313   5.835  0.2814  0.0223  0.0995
 6781SOL    MW426898   3.718   1.365   5.860  0.4531 -0.1605  0.0390
 6782SOL     OW26899   3.335   5.459   1.051 -1.1884  0.7009  0.5852
 6782SOL    HW226900   3.330   5.457   0.955  1.8886 -1.9167  0.3093
 6782SOL    HW326901   3.292   5.378   1.079  0.6684 -0.1544  1.1050
 6782SOL    MW426902   3.328   5.448   1.042 -0.5375  0.2427  0.6174
 6783SOL     OW26903   1.980   1.499   3.766  0.0858 -0.3983  0.0245
 6783SOL    HW226904   2.013   1.410   3.782 -1.5347 -1.0436 -0.0291
 6783SOL    HW326905   1.949   1.497   3.675  1.1958  0.6215 -0.4033
 6783SOL    MW426906   1.980   1.487   3.756  0.0184 -0.3489 -0.0390
 6784SOL     OW26907   1.943   6.315   5.086 -0.2070  0.8551 -0.4182
 6784SOL    HW226908   1.867   6.355   5.043 -0.0306  0.1394 -1.4353
 6784SOL    HW326909   2.018   6.348   5.037 -0.1128 -1.5493 -2.0736
 6784SOL    MW426910   1.943   6.325   5.074 -0.1713  0.4434 -0.7708
 6785SOL     OW26911   1.792   1.430   0.959  0.0207 -0.2344  0.0347
 6785SOL    HW226912   1.822   1.378   1.033  0.6114 -1.3309 -0.9506
 6785SOL    HW326913   1.870   1.478   0.929 -0.6343  1.7535  1.2993
 6785SOL    MW426914   1.806   1.430   0.965  0.0122 -0.1168  0.0715
 6786SOL     OW26915   3.390   6.017   5.689 -0.3208  0.0749 -0.3586
 6786SOL    HW226916   3.375   6.013   5.783 -0.0909  1.6239 -0.2289
 6786SOL    HW326917   3.318   5.966   5.651  0.7258 -2.3691  0.6766
 6786SOL    MW426918   3.379   6.010   5.696 -0.1524 -0.0432 -0.2049
 6787SOL     OW26919   3.426   3.971   3.045  0.3626 -0.2021 -0.4585
 6787SOL    HW226920   3.410   3.982   3.139  1.1919 -0.6536 -0.2599
 6787SOL    HW326921   3.501   4.028   3.026 -0.6659  0.9782 -1.1485
 6787SOL    MW426922   3.434   3.980   3.055  0.3363 -0.1060 -0.5233
 6788SOL     OW26923   1.840   3.219   5.490 -0.2108  0.4533 -0.4079
 6788SOL    HW226924   1.913   3.170   5.451 -0.5887 -0.7775  0.3619
 6788SOL    HW326925   1.793   3.255   5.415 -0.9259 -1.8525 -1.1698
 6788SOL    MW426926   1.843   3.217   5.475 -0.3550 -0.0133 -0.4069
 6789SOL     OW26927   4.595   1.740   4.787  0.2393 -0.0061  0.2075
 6789SOL    HW226928   4.622   1.679   4.855 -2.8693 -1.7221  0.0754
 6789SOL    HW326929   4.644   1.712   4.709  1.0200 -0.4362  0.8358
 6789SOL    MW426930   4.605   1.728   4.786 -0.0678 -0.2893  0.2730
 6790SOL     OW26931   0.460   1.643   0.458  0.1273 -0.1372  0.3990
 6790SOL    HW226932   0.530   1.579   0.444  1.2796  1.1056  0.2340
 6790SOL    HW326933   0.484   1.716   0.401 -1.2151  0.4049  0.5045
 6790SOL    MW426934   0.473   1.644   0.448  0.1022  0.0983  0.3911
 6791SOL     OW26935   0.833   3.759   4.827  0.1553 -0.5138  0.1545
 6791SOL    HW226936   0.780   3.739   4.750  1.4160 -1.1756 -0.5808
 6791SOL    HW326937   0.918   3.721   4.807  0.2974 -1.3673  2.2213
 6791SOL    MW426938   0.837   3.751   4.814  0.3404 -0.7137  0.3302
 6792SOL     OW26939   3.312   4.533   1.311  0.2036 -0.0665 -0.6083
 6792SOL    HW226940   3.257   4.610   1.321  1.6051  0.7874  1.2905
 6792SOL    HW326941   3.397   4.568   1.284  0.4254 -1.1216 -1.3413
 6792SOL    MW426942   3.316   4.548   1.309  0.4178 -0.0931 -0.4545
 6793SOL     OW26943   6.239   2.689   0.720  0.1307 -0.2612  0.1127
 6793SOL    HW226944   6.243   2.638   0.801  0.0459  2.5591  2.0372
 6793SOL    HW326945   6.173   2.756   0.738 -1.3524 -0.6861 -3.0885
 6793SOL    MW426946   6.231   2.691   0.733 -0.0762  0.0549 -0.0557
 6794SOL     OW26947   5.474   2.558   5.825  0.0256 -0.1600  0.2468
 6794SOL    HW226948   5.389   2.591   5.795  0.0257  0.2216  0.6466
 6794SOL    HW326949   5.500   2.494   5.759  0.6918  1.6588 -1.3432
 6794SOL    MW426950   5.466   2.554   5.812  0.1135  0.1303  0.0898
 6795SOL     OW26951   2.811   4.803   2.985  0.1975  0.1645  1.1119
 6795SOL    HW226952   2.750   4.876   2.975  0.2314 -0.0919 -1.7020
 6795SOL    HW326953   2.897   4.844   2.982  0.2784 -0.0119 -2.2876
 6795SOL    MW426954   2.814   4.818   2.983  0.2126  0.1074  0.2921
 6796SOL     OW26955   0.564   2.491   6.158 -0.2295  0.5258 -0.5802
 6796SOL    HW226956   0.578   2.397   6.173 -0.4638  0.4945 -0.5501
 6796SOL    HW326957   0.627   2.514   6.090 -0.3180  0.2995 -0.7402
 6796SOL    MW426958   0.574   2.481   6.151 -0.2721  0.4918 -0.5974
 6797SOL     OW26959   4.137   0.131   0.870  0.1629  0.2987  0.5861
 6797SOL    HW226960   4.043   0.148   0.871  0.0219 -0.3902  0.1298
 6797SOL    HW326961   4.162   0.129   0.962 -0.2284  0.6974  0.7049
 6797SOL    MW426962   4.128   0.133   0.882  0.0927  0.2604  0.5415
 6798SOL     OW26963   1.301   3.885   4.412  0.4144  0.2298 -0.6847
 6798SOL    HW226964   1.343   3.853   4.332  0.9413  0.7243 -0.6093
 6798SOL    HW326965   1.221   3.832   4.420  0.2561  0.3042 -1.6372
 6798SOL    MW426966   1.296   3.874   4.402  0.4630  0.3049 -0.8004
 6799SOL     OW26967   6.004   1.793   0.359  0.0544  0.4442  0.1604
 6799SOL    HW226968   6.065   1.805   0.285  0.0598 -3.2033 -0.6290
 6799SOL    HW326969   6.059   1.802   0.437  0.7710  0.9567 -0.3837
 6799SOL    MW426970   6.019   1.796   0.359  0.1497  0.0306 -0.0156
 6800SOL     OW26971   0.546   2.277   0.228 -0.0204  0.1253  0.0068
 6800SOL    HW226972   0.540   2.223   0.149 -0.7386  0.5236 -0.2187
 6800SOL    HW326973   0.461   2.264   0.271 -0.3458  1.3697 -0.2410
 6800SOL    MW426974   0.534   2.268   0.223 -0.1581  0.3421 -0.0557
 6801SOL     OW26975   0.083   1.259   6.375  0.0567  0.3522 -0.0876
 6801SOL    HW226976   0.106   1.234   6.465 -0.4559 -0.6985 -0.2325
 6801SOL    HW326977   0.096   1.353   6.372  1.5093  0.2034  0.6722
 6801SOL    MW426978   0.088   1.268   6.387  0.1807  0.1940 -0.0065
 6802SOL     OW26979   4.480   2.411   4.156  0.3865  0.0495 -0.4344
 6802SOL    HW226980   4.498   2.317   4.166 -0.2426 -0.0082  0.2733
 6802SOL    HW326981   4.400   2.425   4.207  0.2216  0.8866 -0.9111
 6802SOL    MW426982   4.472   2.400   4.164  0.2818  0.1523 -0.4039
 6803SOL     OW26983   0.510   3.311   6.291  0.3073 -0.1237 -0.0207
 6803SOL    HW226984   0.542   3.322   6.201  2.7237 -0.1966  0.7468
 6803SOL    HW326985   0.503   3.400   6.325 -2.8432  0.0855 -0.8784
 6803SOL    MW426986   0.513   3.324   6.284  0.2105 -0.1057 -0.0326
 6804SOL     OW26987   4.188   3.582   3.169 -0.3315 -0.5491  0.0897
 6804SOL    HW226988   4.099   3.611   3.150  0.2474  0.1198 -1.8369
 6804SOL    HW326989   4.193   3.494   3.132  0.1961 -0.0397 -1.1094
 6804SOL    MW426990   4.177   3.574   3.161 -0.1855 -0.3936 -0.3227
 6805SOL     OW26991   5.718   1.113   5.766  0.2563  0.3303  0.0436
 6805SOL    HW226992   5.757   1.125   5.679 -1.0802  0.3662 -0.5773
 6805SOL    HW326993   5.787   1.074   5.818  1.3587  1.0844 -0.8094
 6805SOL    MW426994   5.732   1.110   5.761  0.2254  0.4346 -0.1509
 6806SOL     OW26995   6.385   5.121   1.568  0.2512  0.6780 -0.3201
 6806SOL    HW226996   6.395   5.171   1.648 -0.2483  3.6544 -1.9612
 6806SOL    HW326997   6.474   5.101   1.540  0.4409  0.2554  0.5561
 6806SOL    MW426998   6.398   5.125   1.575  0.2103  1.0150 -0.4210
 6807SOL     OW26999   5.824   2.530   3.315  0.1855 -0.0386  0.2894
 6807SOL    HW227000   5.733   2.549   3.289 -0.0651 -1.3445  0.1454
 6807SOL    HW327001   5.850   2.606   3.366 -0.5773  0.9155 -0.6754
 6807SOL    MW427002   5.815   2.542   3.318  0.0518 -0.0850  0.1431
 6808SOL     OW27003   4.712   4.679   0.511  0.1073  0.3984 -0.1973
 6808SOL    HW227004   4.752   4.712   0.592  0.1569 -0.3854  0.1077
 6808SOL    HW327005   4.627   4.722   0.507  0.0133  0.2852  0.3934
 6808SOL    MW427006   4.706   4.689   0.521  0.1015  0.2800 -0.0791
 6809SOL     OW27007   6.193   5.523   3.673  0.0657 -0.0152  0.1998
 6809SOL    HW227008   6.132   5.591   3.704  2.2009  1.2622  1.9622
 6809SOL    HW327009   6.161   5.442   3.712 -1.5079  0.2683 -0.4407
 6809SOL    MW427010   6.181   5.522   3.682  0.1398  0.1907  0.3478
 6810SOL     OW27011   3.741   3.674   1.459 -0.2347 -0.2998 -0.0442
 6810SOL    HW227012   3.822   3.724   1.448  0.8231 -1.2747  2.4854
 6810SOL    HW327013   3.680   3.736   1.499  0.5312 -0.4823  1.5079
 6810SOL    MW427014   3.744   3.689   1.463  0.0059 -0.4525  0.4944
 6811SOL     OW27015   2.358   4.305   2.153  0.3359 -0.1651 -0.0730
 6811SOL    HW227016   2.336   4.263   2.237 -0.6378  0.5472  0.0483
 6811SOL    HW327017   2.391   4.234   2.099 -1.0524 -1.0726  0.2096
 6811SOL    MW427018   2.359   4.290   2.157  0.0243 -0.1909 -0.0197
 6812SOL     OW27019   4.740   0.356   3.062 -0.1970  0.1283  0.5215
 6812SOL    HW227020   4.815   0.304   3.034 -1.1336 -0.1565 -1.5844
 6812SOL    HW327021   4.711   0.315   3.144  1.7723  0.1289  1.2772
 6812SOL    MW427022   4.746   0.344   3.069 -0.0608  0.0908  0.3434
 6813SOL     OW27023   1.065   2.726   3.360 -0.1592  0.0201  0.5502
 6813SOL    HW227024   1.035   2.742   3.450 -1.0379  3.5831 -0.2078
 6813SOL    HW327025   0.984   2.719   3.310  0.2521 -4.0486  0.1507
 6813SOL    MW427026   1.050   2.727   3.366 -0.2209 -0.0467  0.3975
 6814SOL     OW27027   1.151   1.256   1.349  0.2423 -0.0233 -0.1062
 6814SOL    HW227028   1.086   1.283   1.413 -0.4408 -0.4728 -0.6011
 6814SOL    HW327029   1.235   1.281   1.388 -0.3114  2.2290 -0.2620
 6814SOL    MW427030   1.154   1.263   1.362  0.0791  0.2146 -0.1921
 6815SOL     OW27031   1.643   5.742   0.634  0.6830 -0.5093  0.1578
 6815SOL    HW227032   1.732   5.742   0.599  0.4849 -1.9192 -0.4101
 6815SOL    HW327033   1.600   5.668   0.591 -0.7186  0.0367  0.5542
 6815SOL    MW427034   1.649   5.732   0.624  0.4719 -0.6233  0.1352
 6816SOL     OW27035   0.029   4.562   1.403 -0.9040 -0.4382 -0.2518
 6816SOL    HW227036   0.117   4.568   1.441 -1.4321  1.8055  0.8209
 6816SOL    HW327037   0.005   4.470   1.412  0.9953 -0.9337  0.2120
 6816SOL    MW427038   0.038   4.551   1.409 -0.7231 -0.2076 -0.0490
 6817SOL     OW27039   3.313   3.706   1.468 -0.6668 -0.2721 -0.0172
 6817SOL    HW227040   3.317   3.712   1.373  0.6179 -0.0883  0.0284
 6817SOL    HW327041   3.335   3.615   1.487  1.0704  0.1483  0.1611
 6817SOL    MW427042   3.316   3.695   1.458 -0.2681 -0.1924  0.0124
 6818SOL     OW27043   0.025   5.369   0.981  0.1457  0.5669 -0.0106
 6818SOL    HW227044  -0.013   5.426   0.915 -0.6721  1.3921  1.1463
 6818SOL    HW327045   0.061   5.295   0.931 -0.9205  0.9025 -1.3199
 6818SOL    MW427046   0.025   5.367   0.966 -0.1029  0.7201 -0.0307
 6819SOL     OW27047   3.899   4.302   5.215 -0.1972 -0.0590 -0.0051
 6819SOL    HW227048   3.938   4.389   5.229 -0.5583  0.0966  0.0420
 6819SOL    HW327049   3.952   4.243   5.269  2.6454 -0.5708 -3.0229
 6819SOL    MW427050   3.911   4.306   5.224  0.1302 -0.1060 -0.3971
 6820SOL     OW27051   3.584   1.619   3.970  0.0451  0.4415 -0.0564
 6820SOL    HW227052   3.509   1.559   3.970 -0.0035  0.4487 -1.6683
 6820SOL    HW327053   3.660   1.563   3.983 -0.2224  0.4528  1.7669
 6820SOL    MW427054   3.584   1.604   3.971  0.0034  0.4439 -0.0285
 6821SOL     OW27055   2.310   2.524   2.024  0.1167  0.1302  0.0575
 6821SOL    HW227056   2.367   2.600   2.034 -1.4536  1.2233  1.1383
 6821SOL    HW327057   2.276   2.530   1.935  0.7749  0.1182 -0.1988
 6821SOL    MW427058   2.313   2.535   2.014 -0.0036  0.2728  0.1663
 6822SOL     OW27059   3.053   2.468   5.538  0.3618  0.4402  0.4654
 6822SOL    HW227060   3.006   2.506   5.463 -1.5945  2.0546  2.3684
 6822SOL    HW327061   3.107   2.539   5.571 -1.2629  0.8383  2.4468
 6822SOL    MW427062   3.054   2.483   5.532 -0.1107  0.7057  0.9779
 6823SOL     OW27063   2.333   4.935   4.963  0.1861 -0.0416  0.0779
 6823SOL    HW227064   2.307   4.858   5.014  2.5138 -1.6193 -0.9418
 6823SOL    HW327065   2.253   4.988   4.957 -0.2321  0.6291  5.7139
 6823SOL    MW427066   2.319   4.932   4.969  0.4380 -0.1612  0.6870
 6824SOL     OW27067   2.820   5.456   2.802 -0.1004 -0.1881 -0.0542
 6824SOL    HW227068   2.746   5.396   2.806 -0.3655  0.0624 -0.9486
 6824SOL    HW327069   2.864   5.446   2.886  0.4668 -2.4162 -0.5528
 6824SOL    MW427070   2.816   5.447   2.814 -0.0606 -0.4490 -0.2380
 6825SOL     OW27071   4.772   4.048   4.445  0.8285 -0.8382  0.4125
 6825SOL    HW227072   4.696   3.991   4.439 -0.2262  0.5322  0.2367
 6825SOL    HW327073   4.737   4.137   4.438  2.6503 -0.1927 -1.7795
 6825SOL    MW427074   4.758   4.052   4.443  0.9297 -0.5722  0.1001
 6826SOL     OW27075   4.842   0.287   4.215  0.0948  0.2323  0.1328
 6826SOL    HW227076   4.925   0.330   4.236 -0.2546  2.0693 -1.8441
 6826SOL    HW327077   4.866   0.200   4.185  1.4753  1.0739 -1.3820
 6826SOL    MW427078   4.856   0.281   4.214  0.2308  0.5857 -0.3279
 6827SOL     OW27079   2.472   1.264   4.713  0.1180 -0.5233  0.3371
 6827SOL    HW227080   2.479   1.239   4.621 -0.1713 -2.3620  0.7813
 6827SOL    HW327081   2.404   1.331   4.714 -1.9616 -2.4872 -0.4762
 6827SOL    MW427082   2.464   1.270   4.701 -0.1945 -1.0250  0.2884
 6828SOL     OW27083   2.822   0.643   2.837 -0.5849 -0.3314 -0.4741
 6828SOL    HW227084   2.892   0.698   2.802 -0.8468 -0.4884 -1.2820
 6828SOL    HW327085   2.746   0.702   2.842 -0.6514 -0.4101 -0.5554
 6828SOL    MW427086   2.821   0.658   2.833 -0.6282 -0.3625 -0.5914
 6829SOL     OW27087   4.517   1.250   4.698  0.6021 -0.7566  0.1824
 6829SOL    HW227088   4.587   1.304   4.661 -0.3238  0.0405 -0.4523
 6829SOL    HW327089   4.436   1.287   4.662 -0.2696 -0.6960  2.0753
 6829SOL    MW427090   4.515   1.262   4.688  0.3649 -0.6434  0.3484
 6830SOL     OW27091   5.575   3.486   6.306 -0.2090 -0.4767 -0.2465
 6830SOL    HW227092   5.662   3.513   6.335  0.0746 -0.0513 -1.4390
 6830SOL    HW327093   5.586   3.394   6.280 -0.0138 -0.3021 -0.7868
 6830SOL    MW427094   5.588   3.477   6.307 -0.1459 -0.3976 -0.4751
 6831SOL     OW27095   6.169   1.355   2.870 -0.6394 -0.6147  0.0475
 6831SOL    HW227096   6.181   1.399   2.954 -0.6464  0.2441 -0.3813
 6831SOL    HW327097   6.240   1.390   2.815 -1.6327  0.1545 -0.7995
 6831SOL    MW427098   6.180   1.366   2.874 -0.7714 -0.3999 -0.1208
 6832SOL     OW27099   5.755   2.158   1.231  0.3037 -0.1197 -0.1832
 6832SOL    HW227100   5.769   2.064   1.223  0.3736 -0.1733  0.5437
 6832SOL    HW327101   5.696   2.167   1.306  2.8147  0.5918  1.8403
 6832SOL    MW427102   5.749   2.147   1.240  0.6442 -0.0329  0.1797
 6833SOL     OW27103   3.368   2.921   2.361  0.7933 -0.4297 -0.0217
 6833SOL    HW227104   3.377   2.860   2.288  0.6019 -0.1762 -0.2593
 6833SOL    HW327105   3.412   2.877   2.434 -0.6923 -1.5444  0.2336
 6833SOL    MW427106   3.375   2.907   2.361  0.5720 -0.5433 -0.0194
 6834SOL     OW27107   0.287   3.569   0.413  0.4779  0.1453  0.1787
 6834SOL    HW227108   0.364   3.529   0.373 -0.3011 -0.4531 -0.7641
 6834SOL    HW327109   0.256   3.504   0.476 -1.0827 -1.0577 -1.7096
 6834SOL    MW427110   0.293   3.556   0.416  0.1692 -0.0924 -0.1948
 6835SOL     OW27111   0.697   3.438   4.390  0.1071 -0.3293 -0.5401
 6835SOL    HW227112   0.698   3.516   4.334  0.7852 -1.4315 -2.1476
 6835SOL    HW327113   0.651   3.466   4.469  2.2484  2.3446 -0.0708
 6835SOL    MW427114   0.691   3.452   4.393  0.4791 -0.1220 -0.6902
 6836SOL     OW27115   0.080   4.366   3.380 -0.0111  0.0205 -0.5367
 6836SOL    HW227116   0.026   4.291   3.406 -0.8851  1.0888  0.8173
 6836SOL    HW327117   0.168   4.329   3.370 -0.2555 -1.0321  0.9619
 6836SOL    MW427118   0.085   4.351   3.382 -0.1586  0.0226 -0.1604
 6837SOL     OW27119   5.229   0.395   2.667 -0.4514  0.0499 -0.2231
 6837SOL    HW227120   5.321   0.423   2.672 -0.6775  0.7083  0.4599
 6837SOL    HW327121   5.230   0.321   2.606  0.7489 -0.8306  0.8087
 6837SOL    MW427122   5.242   0.389   2.660 -0.3229  0.0206  0.0032
 6838SOL     OW27123   2.561   4.011   3.763 -0.1095  0.6206 -0.1552
 6838SOL    HW227124   2.499   4.065   3.714 -2.2459 -1.0012  0.6040
 6838SOL    HW327125   2.618   4.074   3.807 -1.3015  2.2066 -0.7940
 6838SOL    MW427126   2.560   4.027   3.762 -0.5486  0.6158 -0.1393
 6839SOL     OW27127   5.375   0.186   3.799  0.3385 -0.4360  0.2325
 6839SOL    HW227128   5.367   0.185   3.894  1.9313  0.5825  0.4227
 6839SOL    HW327129   5.466   0.212   3.783 -0.8527  3.3858 -1.5449
 6839SOL    MW427130   5.386   0.189   3.810  0.3915  0.2026  0.0231
 6840SOL     OW27131   5.567   5.852   1.319  0.3377  0.1527  0.2959
 6840SOL    HW227132   5.645   5.798   1.305  1.0171  0.5029  2.3118
 6840SOL    HW327133   5.598   5.942   1.310  0.0357  0.2837  0.5424
 6840SOL    MW427134   5.582   5.857   1.316  0.3875  0.2162  0.5944
 6841SOL     OW27135   3.123   2.070   3.831  0.0812  0.0284  0.0329
 6841SOL    HW227136   3.209   2.060   3.871  0.2893 -2.1240 -0.7739
 6841SOL    HW327137   3.126   2.012   3.754 -2.3558 -0.8247  0.4856
 6841SOL    MW427138   3.134   2.061   3.826 -0.2129 -0.3681 -0.0138
 6842SOL     OW27139   4.483   2.644   0.723 -0.2508 -0.3293  0.5564
 6842SOL    HW227140   4.439   2.724   0.750 -0.2075  0.0138 -0.3578
 6842SOL    HW327141   4.573   2.654   0.755 -0.7430 -0.9416  2.2474
 6842SOL    MW427142   4.489   2.656   0.731 -0.3100 -0.3648  0.6589
 6843SOL     OW27143   2.322   4.510   5.505 -0.3631  0.5243 -0.0534
 6843SOL    HW227144   2.293   4.483   5.592  1.0378  0.1620  0.3242
 6843SOL    HW327145   2.251   4.484   5.446 -0.5615 -0.8374  0.7505
 6843SOL    MW427146   2.309   4.503   5.509 -0.2045  0.2968  0.1025
 6844SOL     OW27147   2.036   3.291   0.325  0.7985  0.4980 -0.6716
 6844SOL    HW227148   2.035   3.385   0.304  0.9715  0.1497 -2.3638
 6844SOL    HW327149   2.117   3.258   0.287  1.4387 -0.1320  1.1040
 6844SOL    MW427150   2.046   3.299   0.318  0.9058  0.3690 -0.6606
 6845SOL     OW27151   0.367   3.005   0.171  0.4822  0.1950  0.1101
 6845SOL    HW227152   0.342   3.083   0.121 -0.2342  1.0574  1.7501
 6845SOL    HW327153   0.412   2.949   0.107  0.4809  1.6755 -1.2458
 6845SOL    MW427154   0.370   3.008   0.156  0.3875  0.5041  0.1476
 6846SOL     OW27155   4.269   3.946   4.833 -0.0445  0.7364 -0.2005
 6846SOL    HW227156   4.237   4.013   4.773 -0.1157  0.4817 -0.4470
 6846SOL    HW327157   4.265   3.988   4.919 -1.5787  0.5389 -0.1464
 6846SOL    MW427158   4.264   3.961   4.837 -0.2564  0.6767 -0.2259
 6847SOL     OW27159   5.024   6.251   4.269  0.1213 -0.4292  0.4116
 6847SOL    HW227160   4.980   6.251   4.353 -1.7283  0.7120 -0.4871
 6847SOL    HW327161   4.992   6.173   4.224 -0.8759  0.2840 -0.1577
 6847SOL    MW427162   5.014   6.241   4.274 -0.2543 -0.1846  0.2179
 6848SOL     OW27163   5.451   1.480   3.157 -0.0131 -0.6332  0.5004
 6848SOL    HW227164   5.498   1.564   3.160 -0.3581 -0.4469  0.8985
 6848SOL    HW327165   5.386   1.492   3.088 -0.2275 -0.4759  0.7246
 6848SOL    MW427166   5.449   1.493   3.148 -0.0869 -0.5878  0.5825
 6849SOL     OW27167   5.435   5.117   2.259  0.1355 -0.3868  0.0510
 6849SOL    HW227168   5.470   5.104   2.171 -0.5678  1.4835 -0.5627
 6849SOL    HW327169   5.507   5.093   2.317  0.9487 -0.7186 -1.0460
 6849SOL    MW427170   5.449   5.112   2.255  0.1500 -0.1838 -0.1747
 6850SOL     OW27171   5.579   1.547   2.097 -0.0482  0.8919  0.2343
 6850SOL    HW227172   5.549   1.465   2.060  1.5146  0.0775  0.6815
 6850SOL    HW327173   5.532   1.554   2.180  0.9396 -0.3703  0.9390
 6850SOL    MW427174   5.569   1.537   2.103  0.2883  0.6180  0.3863
 6851SOL     OW27175   5.479   4.038   2.880  0.3538 -0.3185 -0.2199
 6851SOL    HW227176   5.487   3.960   2.826  0.7255 -1.1690  1.0354
 6851SOL    HW327177   5.388   4.037   2.911  0.9715 -1.6135  1.7383
 6851SOL    MW427178   5.468   4.028   2.877  0.4843 -0.6016  0.2041
 6852SOL     OW27179   0.166   5.113   3.316  0.6935  0.0656 -0.1983
 6852SOL    HW227180   0.205   5.107   3.228  0.6146  1.2037 -0.3296
 6852SOL    HW327181   0.072   5.114   3.300  0.6684 -0.2019 -0.0650
 6852SOL    MW427182   0.159   5.113   3.302  0.6798  0.1805 -0.1981
 6853SOL     OW27183   0.942   5.340   1.430 -0.7822  0.3877  0.1585
 6853SOL    HW227184   0.969   5.252   1.406  0.3025  0.8838 -0.5076
 6853SOL    HW327185   0.935   5.338   1.525  1.2752  0.1256  0.3413
 6853SOL    MW427186   0.944   5.328   1.439 -0.3677  0.4185  0.0948
 6854SOL     OW27187   5.134   5.185   1.077 -0.1350  0.5442  0.0575
 6854SOL    HW227188   5.109   5.180   1.169 -1.8995 -1.5020 -0.4534
 6854SOL    HW327189   5.174   5.272   1.068 -1.3667  1.4461  2.3717
 6854SOL    MW427190   5.136   5.196   1.088 -0.5303  0.3932  0.2954
 6855SOL     OW27191   3.808   0.023   4.483 -0.4093 -0.1690  0.4734
 6855SOL    HW227192   3.875  -0.027   4.436 -0.9740  0.0332 -0.5942
 6855SOL    HW327193   3.820   0.113   4.453 -1.2284 -0.1509  0.1570
 6855SOL    MW427194   3.818   0.028   4.473 -0.5918 -0.1400  0.2908
 6856SOL     OW27195   4.923   2.922   2.394 -0.5953  0.7557  0.0922
 6856SOL    HW227196   4.890   2.966   2.316  0.9163  1.4440 -0.1860
 6856SOL    HW327197   4.925   2.829   2.370 -3.1805  0.5210  0.4633
 6856SOL    MW427198   4.919   2.916   2.381 -0.7370  0.8156  0.1045
 6857SOL     OW27199   1.844   0.164   3.015  0.1601 -0.0002 -0.1026
 6857SOL    HW227200   1.787   0.104   2.967 -0.6120 -0.5853  1.4871
 6857SOL    HW327201   1.807   0.168   3.103  0.6340  2.2203  0.0667
 6857SOL    MW427202   1.832   0.157   3.020  0.1208  0.2156  0.1295
 6858SOL     OW27203   4.587   6.237   0.034 -0.2149 -0.0821  0.3527
 6858SOL    HW227204   4.653   6.168   0.044  0.8520  0.8083 -0.3571
 6858SOL    HW327205   4.554   6.225  -0.055 -0.1206  0.2436  0.2736
 6858SOL    MW427206   4.592   6.226   0.024 -0.0617  0.0783  0.2486
 6859SOL     OW27207   3.233   1.015   6.019  0.9609  0.1191 -0.0763
 6859SOL    HW227208   3.250   1.046   5.930  1.3730  1.9088  0.5792
 6859SOL    HW327209   3.273   1.081   6.076 -0.7325 -0.0830  1.4656
 6859SOL    MW427210   3.240   1.027   6.015  0.7918  0.3285  0.2136
 6860SOL     OW27211   5.567   0.781   3.027  0.1569 -0.0221 -0.4409
 6860SOL    HW227212   5.476   0.765   3.053  0.1529  1.5005  0.6716
 6860SOL    HW327213   5.575   0.877   3.028  1.3656 -0.0739 -2.0252
 6860SOL    MW427214   5.556   0.792   3.031  0.3159  0.1719 -0.5031
 6861SOL     OW27215   0.335   6.148   5.140  0.4992 -0.0088  0.1158
 6861SOL    HW227216   0.250   6.136   5.096  0.7681 -0.2014 -0.3559
 6861SOL    HW327217   0.359   6.239   5.121  1.8641 -0.7945 -2.4212
 6861SOL    MW427218   0.327   6.159   5.132  0.7147 -0.1379 -0.2812
 6862SOL     OW27219   5.201   3.441   1.422  0.2845  0.3097 -0.1127
 6862SOL    HW227220   5.152   3.443   1.339  0.0501 -1.1569 -0.0430
 6862SOL    HW327221   5.237   3.352   1.426 -1.0952 -0.2410  2.1266
 6862SOL    MW427222   5.199   3.429   1.412  0.0715  0.0436  0.1919
 6863SOL     OW27223   1.389   3.068   0.916 -0.1759 -0.4400 -0.4306
 6863SOL    HW227224   1.304   3.109   0.932  0.3242  0.4377  0.0761
 6863SOL    HW327225   1.379   3.025   0.831 -1.4726 -1.3161  0.1330
 6863SOL    MW427226   1.376   3.068   0.907 -0.2810 -0.4398 -0.2894
 6864SOL     OW27227   4.457   3.533   5.780  0.4403 -0.4825 -0.1636
 6864SOL    HW227228   4.386   3.581   5.823  0.2480 -0.3759 -0.5974
 6864SOL    HW327229   4.488   3.592   5.711  0.7456 -0.6531 -0.1769
 6864SOL    MW427230   4.452   3.547   5.777  0.4552 -0.4909 -0.2226
 6865SOL     OW27231   5.735   4.617   4.965  0.0776  0.4537  0.4443
 6865SOL    HW227232   5.830   4.617   4.973  0.5788  1.2698 -3.5042
 6865SOL    HW327233   5.711   4.709   4.960 -0.7343  0.2247 -0.1165
 6865SOL    MW427234   5.744   4.629   4.966  0.0366  0.5311 -0.1506
 6866SOL     OW27235   3.418   1.138   6.177 -0.5254 -0.6982  0.4018
 6866SOL    HW227236   3.498   1.186   6.155 -1.8812  0.4357 -2.5782
 6866SOL    HW327237   3.369   1.197   6.233 -0.0432 -0.6697  0.7970
 6866SOL    MW427238   3.422   1.152   6.181 -0.6407 -0.5448  0.0608
 6867SOL     OW27239   2.392   5.480   5.509  0.5569  0.7311 -0.8441
 6867SOL    HW227240   2.395   5.494   5.603  1.8829  0.2053 -0.7880
 6867SOL    HW327241   2.383   5.568   5.472  3.0874  1.3012 -0.2955
 6867SOL    MW427242   2.392   5.494   5.516  1.0657  0.7369 -0.7643
 6868SOL     OW27243   4.556   2.292   5.476  0.2508 -0.3390  0.7336
 6868SOL    HW227244   4.642   2.321   5.446  0.2201  0.6314  1.5427
 6868SOL    HW327245   4.494   2.332   5.416  0.3416 -0.8795  0.2696
 6868SOL    MW427246   4.559   2.301   5.464  0.2587 -0.2823  0.7792
 6869SOL     OW27247   0.585   5.725   1.073  0.0440 -0.0607 -0.4362
 6869SOL    HW227248   0.556   5.777   0.999  1.7945  1.4187 -0.1448
 6869SOL    HW327249   0.516   5.736   1.139 -0.9475 -0.4339 -1.3854
 6869SOL    MW427250   0.572   5.733   1.072  0.1442  0.0852 -0.5230
 6870SOL     OW27251   0.580   3.722   2.065 -0.0391  0.4088  0.1450
 6870SOL    HW227252   0.634   3.657   2.110 -1.2232 -1.5069 -1.0545
 6870SOL    HW327253   0.604   3.714   1.973 -0.3733  1.5432 -0.0632
 6870SOL    MW427254   0.590   3.712   2.059 -0.2394  0.3057 -0.0407
 6871SOL     OW27255   3.436   4.597   2.381  0.0189  0.5861  0.5655
 6871SOL    HW227256   3.432   4.585   2.286 -3.4082  0.5124  0.6140
 6871SOL    HW327257   3.465   4.688   2.392 -0.4252  0.8961 -0.5938
 6871SOL    MW427258   3.440   4.607   2.370 -0.4918  0.6172  0.4190
 6872SOL     OW27259   3.235   5.171   5.587  0.0785  0.6775 -0.1627
 6872SOL    HW227260   3.284   5.253   5.598 -0.2619  0.8557  0.0520
 6872SOL    HW327261   3.187   5.182   5.505 -0.0109  0.7186 -0.1057
 6872SOL    MW427262   3.235   5.183   5.578  0.0218  0.7064 -0.1268
 6873SOL     OW27263   1.713   2.042   4.942  0.6180  0.2035 -0.1405
 6873SOL    HW227264   1.805   2.055   4.920  0.7364 -2.5407 -1.6172
 6873SOL    HW327265   1.704   1.948   4.957 -1.6720  0.5935  1.4488
 6873SOL    MW427266   1.724   2.032   4.941  0.3315 -0.1071 -0.1256
 6874SOL     OW27267   3.194   2.912   3.696 -0.5237 -0.0527  0.0366
 6874SOL    HW227268   3.245   2.831   3.702 -0.6614 -0.0867  0.9894
 6874SOL    HW327269   3.105   2.883   3.678 -1.0713 -0.3338  2.7321
 6874SOL    MW427270   3.189   2.897   3.694 -0.6141 -0.0943  0.5179
 6875SOL     OW27271   2.941   6.273   3.436 -0.5265  0.4048  0.6298
 6875SOL    HW227272   2.919   6.332   3.364 -0.2806  0.9604  1.0012
 6875SOL    HW327273   2.882   6.199   3.425  1.6761 -1.1303 -2.0822
 6875SOL    MW427274   2.931   6.271   3.425 -0.2034  0.2756  0.3210
 6876SOL     OW27275   3.774   1.778   6.307  0.3153  0.7402  0.2624
 6876SOL    HW227276   3.775   1.871   6.328  0.5711  0.5509  1.1308
 6876SOL    HW327277   3.847   1.741   6.356 -1.1086 -0.2868  1.7395
 6876SOL    MW427278   3.783   1.785   6.316  0.1612  0.5797  0.5719
 6877SOL     OW27279   5.604   1.015   0.566  0.3945  0.0522  0.4579
 6877SOL    HW227280   5.571   0.967   0.641 -0.0127  1.0750  0.9488
 6877SOL    HW327281   5.697   0.992   0.561  0.0638 -1.3051  0.2536
 6877SOL    MW427282   5.612   1.006   0.575  0.2971  0.0081  0.4957
 6878SOL     OW27283   3.321   6.276   3.979 -0.5658 -0.3712 -0.2092
 6878SOL    HW227284   3.300   6.254   4.069 -1.1658 -1.3704 -0.5640
 6878SOL    HW327285   3.397   6.221   3.958 -1.2453 -1.1543 -0.6976
 6878SOL    MW427286   3.328   6.266   3.988 -0.7346 -0.6063 -0.3204
 6879SOL     OW27287   4.756   3.651   4.753 -0.1081  0.1134  0.2597
 6879SOL    HW227288   4.780   3.625   4.842 -2.4756 -0.4690  0.8096
 6879SOL    HW327289   4.662   3.668   4.758 -0.2031  0.5491 -2.0364
 6879SOL    MW427290   4.747   3.649   4.766 -0.4330  0.0941  0.0293
 6880SOL     OW27291   0.934   3.419   2.915  0.1219 -0.0009 -0.7813
 6880SOL    HW227292   0.898   3.506   2.901  1.7640  0.8010 -0.3008
 6880SOL    HW327293   1.027   3.434   2.930  0.2202 -1.6954  0.7061
 6880SOL    MW427294   0.941   3.432   2.915  0.3515 -0.1187 -0.5217
 6881SOL     OW27295   0.067   3.792   1.851  0.0382  0.0472 -0.2438
 6881SOL    HW227296   0.052   3.723   1.916 -1.2882  1.1146  0.6319
 6881SOL    HW327297   0.046   3.750   1.767 -0.9893 -0.5706  0.2941
 6881SOL    MW427298   0.062   3.777   1.849 -0.2724  0.1065 -0.0573
 6882SOL     OW27299   3.369   3.127   5.290  0.3396  1.1017  0.1610
 6882SOL    HW227300   3.317   3.171   5.223  1.7879 -0.7778 -2.4016
 6882SOL    HW327301   3.399   3.046   5.248  1.7022 -0.0256  2.9818
 6882SOL    MW427302   3.366   3.122   5.276  0.7105  0.7050  0.1951
 6883SOL     OW27303   1.918   4.239   4.899  0.1025  0.7360  0.1772
 6883SOL    HW227304   2.008   4.211   4.914  0.5626  1.8229 -0.3722
 6883SOL    HW327305   1.913   4.250   4.804 -1.2840 -1.4193 -0.0510
 6883SOL    MW427306   1.929   4.237   4.888 -0.0197  0.5951  0.0746
 6884SOL     OW27307   3.481   1.557   5.246 -0.0248 -0.2743  0.4993
 6884SOL    HW227308   3.529   1.572   5.164 -2.0981  1.2857 -0.5541
 6884SOL    HW327309   3.508   1.470   5.274  1.9221 -0.2385 -1.0069
 6884SOL    MW427310   3.491   1.548   5.239 -0.0415 -0.0638  0.1616
 6885SOL     OW27311   5.999   0.777   5.434  0.8043  0.4219  0.0173
 6885SOL    HW227312   5.950   0.794   5.353  0.2875  2.4878  0.6927
 6885SOL    HW327313   5.938   0.803   5.504  1.9792  0.6793  0.9716
 6885SOL    MW427314   5.984   0.783   5.432  0.8911  0.7284  0.2323
 6886SOL     OW27315   0.319   6.259   5.980 -0.2297 -0.0801  0.2604
 6886SOL    HW227316   0.299   6.211   6.060 -1.5560  0.1669  0.1080
 6886SOL    HW327317   0.289   6.348   5.998  0.6019  0.2832 -0.0817
 6886SOL    MW427318   0.312   6.265   5.993 -0.2950  0.0004  0.1951
 6887SOL     OW27319   4.395   6.393   2.588 -0.3290  0.3467 -0.4877
 6887SOL    HW227320   4.334   6.447   2.537 -2.3962  0.2690  1.7279
 6887SOL    HW327321   4.442   6.455   2.643 -2.6507  0.0962  2.0026
 6887SOL    MW427322   4.393   6.408   2.588 -0.9080  0.3034  0.1332
 6888SOL     OW27323   5.473   3.968   0.761 -0.2407 -0.3493  0.2357
 6888SOL    HW227324   5.433   3.881   0.751  0.8267 -0.7807 -0.5365
 6888SOL    HW327325   5.400   4.029   0.752 -0.7377 -1.1017 -1.2800
 6888SOL    MW427326   5.458   3.964   0.758 -0.1655 -0.5055 -0.0662
 6889SOL     OW27327   3.381   3.971   2.191 -0.3162 -0.7059  0.1075
 6889SOL    HW227328   3.355   3.943   2.279 -1.5247  0.6727  0.2151
 6889SOL    HW327329   3.475   3.991   2.199 -0.4183 -0.5830  1.0869
 6889SOL    MW427330   3.390   3.970   2.204 -0.4891 -0.5078  0.2509
 6890SOL     OW27331   3.452   1.973   2.307 -0.5227 -0.1210 -0.5660
 6890SOL    HW227332   3.370   1.928   2.290 -0.8843  0.3910 -0.2173
 6890SOL    HW327333   3.492   1.984   2.221 -0.1225 -1.6575 -0.5948
 6890SOL    MW427334   3.447   1.969   2.293 -0.5176 -0.2562 -0.5238
 6891SOL     OW27335   5.430   2.146   1.122  0.5213 -0.2202  0.5321
 6891SOL    HW227336   5.449   2.200   1.045  2.0179 -1.2041  0.1777
 6891SOL    HW327337   5.461   2.197   1.196 -2.6901  1.6242  0.7933
 6891SOL    MW427338   5.436   2.160   1.121  0.2950 -0.1067  0.5198
 6892SOL     OW27339   2.866   3.621   5.297 -0.4926  0.0065  0.0621
 6892SOL    HW227340   2.813   3.542   5.294  2.2727 -2.0467  0.8530
 6892SOL    HW327341   2.832   3.671   5.371 -2.8280  0.0761 -0.9737
 6892SOL    MW427342   2.854   3.617   5.306 -0.4359 -0.2552  0.0298
 6893SOL     OW27343   1.399   1.370   4.412  0.3455  0.1089 -0.0721
 6893SOL    HW227344   1.458   1.295   4.405  0.7382  0.2732  1.2355
 6893SOL    HW327345   1.332   1.342   4.475  1.0462  1.1655  1.2067
 6893SOL    MW427346   1.398   1.356   4.420  0.4897  0.2699  0.2691
 6894SOL     OW27347   0.663   5.318   3.000  0.2554 -0.9297 -0.9959
 6894SOL    HW227348   0.617   5.306   3.082 -0.1600  2.9836 -0.4848
 6894SOL    HW327349   0.755   5.308   3.022  0.2358  1.3488  0.3057
 6894SOL    MW427350   0.669   5.315   3.014  0.1980 -0.1127 -0.7567
 6895SOL     OW27351   4.132   0.965   1.643 -0.2080 -0.4782  0.0194
 6895SOL    HW227352   4.068   0.950   1.713 -0.0132 -0.5169  0.1901
 6895SOL    HW327353   4.201   0.901   1.660 -0.2736 -0.6527 -0.3494
 6895SOL    MW427354   4.133   0.954   1.654 -0.1910 -0.5063 -0.0067
 6896SOL     OW27355   3.535   0.370   4.178  0.6517 -0.1027  0.5648
 6896SOL    HW227356   3.560   0.281   4.154  0.6989 -0.8280  3.0305
 6896SOL    HW327357   3.608   0.424   4.149  1.5854 -1.1637  0.8586
 6896SOL    MW427358   3.548   0.365   4.171  0.7811 -0.3384  0.9289
 6897SOL     OW27359   2.287   3.735   1.103  0.2160 -0.3739  0.4595
 6897SOL    HW227360   2.209   3.725   1.157 -0.3795  0.1838 -0.2589
 6897SOL    HW327361   2.279   3.666   1.037  1.0545 -1.1966  1.1925
 6897SOL    MW427362   2.275   3.725   1.101  0.2480 -0.4089  0.4614
 6898SOL     OW27363   5.784   3.174   3.615 -0.4163 -0.1600 -0.3557
 6898SOL    HW227364   5.870   3.204   3.585 -1.3221  0.7323 -2.1971
 6898SOL    HW327365   5.722   3.232   3.572 -2.0267 -1.7844 -0.3422
 6898SOL    MW427366   5.787   3.185   3.605 -0.7483 -0.2566 -0.5969
 6899SOL     OW27367   5.297   3.138   5.294 -0.1073  0.0078  0.1865
 6899SOL    HW227368   5.259   3.145   5.382 -0.6323 -1.0396  0.0626
 6899SOL    HW327369   5.311   3.044   5.281  0.6419  0.2127 -0.5704
 6899SOL    MW427370   5.294   3.126   5.304 -0.0777 -0.1033  0.0703
 6900SOL     OW27371   3.461   4.558   5.603  0.1795  0.1726 -0.0757
 6900SOL    HW227372   3.423   4.566   5.690  0.1855  0.2968 -0.0846
 6900SOL    HW327373   3.505   4.473   5.603 -0.8210 -0.3686 -0.3355
 6900SOL    MW427374   3.462   4.548   5.614  0.0483  0.1176 -0.1111
 6901SOL     OW27375   4.849   3.142   2.735 -0.0215  0.6890  0.0479
 6901SOL    HW227376   4.888   3.058   2.759 -2.0513 -0.4757 -0.5598
 6901SOL    HW327377   4.910   3.207   2.770  1.7306 -1.0131  0.3150
 6901SOL    MW427378   4.862   3.140   2.743 -0.0581  0.3108  0.0029
 6902SOL     OW27379   2.900   4.950   5.491  0.3130  0.2325  0.3098
 6902SOL    HW227380   2.966   4.885   5.514  0.2700 -0.0802 -0.4199
 6902SOL    HW327381   2.951   5.028   5.468  0.4631 -0.1330 -0.6477
 6902SOL    MW427382   2.915   4.952   5.491  0.3272  0.1430  0.0872
 6903SOL     OW27383   4.254   0.113   1.142  0.0246 -0.1079 -0.2269
 6903SOL    HW227384   4.251   0.203   1.173 -0.4170  0.2772 -1.3455
 6903SOL    HW327385   4.303   0.066   1.210 -0.5958  0.7599  0.8567
 6903SOL    MW427386   4.260   0.119   1.155 -0.1155  0.0574 -0.2315
 6904SOL     OW27387   4.953   4.050   4.212 -0.0725  0.1935 -0.2305
 6904SOL    HW227388   4.879   4.041   4.273  0.4426 -0.0544  0.3690
 6904SOL    HW327389   4.964   3.963   4.174 -0.3851  0.3452 -0.6721
 6904SOL    MW427390   4.944   4.038   4.215 -0.0458  0.1808 -0.2097
 6905SOL     OW27391   4.651   2.636   0.282  0.5264 -0.2018 -0.0323
 6905SOL    HW227392   4.667   2.600   0.369 -0.6232 -2.0311 -0.5228
 6905SOL    HW327393   4.617   2.724   0.298 -1.5410 -1.2095  1.5141
 6905SOL    MW427394   4.648   2.643   0.295  0.1020 -0.5761  0.1070
 6906SOL     OW27395   2.341   4.419   3.166  0.5866 -0.2820  0.2128
 6906SOL    HW227396   2.361   4.344   3.222 -0.4471 -0.5885  0.1874
 6906SOL    HW327397   2.309   4.486   3.226  1.5003  0.1510  0.2342
 6906SOL    MW427398   2.339   4.418   3.181  0.5708 -0.2653  0.2123
 6907SOL     OW27399   0.575   1.578   4.593 -0.1734 -0.3734  0.3150
 6907SOL    HW227400   0.565   1.667   4.558 -1.3681 -0.3999  0.5399
 6907SOL    HW327401   0.520   1.524   4.537 -1.1760 -0.6076  1.4863
 6907SOL    MW427402   0.566   1.583   4.581 -0.4633 -0.4078  0.4992
 6908SOL     OW27403   4.179   2.762   1.612  0.2723  0.1031  0.1282
 6908SOL    HW227404   4.262   2.799   1.582  0.3914  0.2978  0.6775
 6908SOL    HW327405   4.160   2.692   1.550  1.2552 -0.4696  0.4390
 6908SOL    MW427406   4.188   2.758   1.600  0.4177  0.0532  0.2417
 6909SOL     OW27407   5.382   4.752   5.054  0.1433  0.2879  0.4744
 6909SOL    HW227408   5.318   4.701   5.104  0.6378 -0.4554  0.3640
 6909SOL    HW327409   5.438   4.793   5.120 -0.3774  0.8602  0.5682
 6909SOL    MW427410   5.381   4.751   5.069  0.1399  0.2653  0.4722
 6910SOL     OW27411   0.112   0.249   4.883  0.0728 -0.6945  0.3940
 6910SOL    HW227412   0.028   0.211   4.857 -0.1703 -0.0967  0.2792
 6910SOL    HW327413   0.146   0.190   4.949 -0.9204 -0.4083  1.1770
 6910SOL    MW427414   0.105   0.236   4.888 -0.0903 -0.5779  0.4822
 6911SOL     OW27415   0.260   4.885   0.801  1.0548  0.2218 -0.4474
 6911SOL    HW227416   0.293   4.832   0.874  0.8265  0.1875 -0.3680
 6911SOL    HW327417   0.312   4.856   0.725 -0.7780 -1.9925 -0.9715
 6911SOL    MW427418   0.271   4.874   0.801  0.7829 -0.0749 -0.5061
 6912SOL     OW27419   3.817   5.899   0.137 -0.8442 -1.1730  0.1977
 6912SOL    HW227420   3.877   5.833   0.101  0.1308 -0.5678  0.6877
 6912SOL    HW327421   3.869   5.946   0.202 -1.9722 -0.8824  0.9072
 6912SOL    MW427422   3.832   5.896   0.141 -0.8644 -1.0548  0.3560
 6913SOL     OW27423   5.896   5.793   2.759 -0.1050 -0.1322  0.1955
 6913SOL    HW227424   5.933   5.770   2.674 -1.8136  0.7885 -0.8724
 6913SOL    HW327425   5.846   5.716   2.785  0.5356 -0.4682  0.4496
 6913SOL    MW427426   5.894   5.780   2.751 -0.2459 -0.0551  0.0881
 6914SOL     OW27427   2.330   4.063   4.013  0.0219  0.3897  1.2496
 6914SOL    HW227428   2.263   4.038   4.076 -1.1547  0.2190 -0.0415
 6914SOL    HW327429   2.287   4.127   3.956  0.4806 -0.8275 -0.5156
 6914SOL    MW427430   2.316   4.068   4.014 -0.0728  0.2066  0.8463
 6915SOL     OW27431   3.284   1.244   0.559 -0.6396 -0.5216  0.6794
 6915SOL    HW227432   3.222   1.276   0.625 -1.5310  0.9237 -0.8055
 6915SOL    HW327433   3.263   1.151   0.551 -1.1916 -0.5034  1.7039
 6915SOL    MW427434   3.273   1.236   0.567 -0.8300 -0.3285  0.6187
 6916SOL     OW27435   1.619   2.799   0.680  0.3647  0.6115 -0.1558
 6916SOL    HW227436   1.620   2.745   0.602 -0.6842  0.9252 -0.4003
 6916SOL    HW327437   1.559   2.870   0.660  2.0828  2.1827 -0.0302
 6916SOL    MW427438   1.611   2.801   0.667  0.4530  0.8602 -0.1715
 6917SOL     OW27439   3.306   3.788   1.201  0.2271 -0.2656  0.2041
 6917SOL    HW227440   3.310   3.870   1.152 -1.0766 -0.0951  0.3425
 6917SOL    HW327441   3.365   3.729   1.155  0.1528  0.3487 -0.6947
 6917SOL    MW427442   3.314   3.791   1.189  0.0453 -0.1620  0.1037
 6918SOL     OW27443   4.808   3.511   2.255 -0.0074  0.1313 -0.1009
 6918SOL    HW227444   4.718   3.541   2.271  0.4194  0.6380  1.6051
 6918SOL    HW327445   4.863   3.581   2.291  1.0695 -0.3024 -0.8740
 6918SOL    MW427446   4.803   3.524   2.262  0.1910  0.1409  0.0222
 6919SOL     OW27447   5.473   1.770   1.920  0.0722  0.0866  0.4160
 6919SOL    HW227448   5.382   1.794   1.936  0.2471  0.3462  1.0624
 6919SOL    HW327449   5.492   1.703   1.985  1.2262  2.1737  2.3872
 6919SOL    MW427450   5.464   1.764   1.930  0.2475  0.3963  0.7614
 6920SOL     OW27451   3.560   5.463   1.906  0.0744 -0.3289 -0.1547
 6920SOL    HW227452   3.482   5.421   1.869  1.5119 -0.0773 -3.8706
 6920SOL    HW327453   3.539   5.556   1.908  0.0320 -0.3311 -0.4776
 6920SOL    MW427454   3.547   5.470   1.901  0.2585 -0.2960 -0.6876
 6921SOL     OW27455   3.873   5.853   1.407  0.0516  0.0250  0.5215
 6921SOL    HW227456   3.860   5.827   1.498 -1.1510  0.4704  0.5036
 6921SOL    HW327457   3.891   5.947   1.411  1.0492 -0.1486  0.3598
 6921SOL    MW427458   3.874   5.862   1.420  0.0245  0.0609  0.4978
 6922SOL     OW27459   2.110   1.711   0.955  0.0447  0.0737 -0.1964
 6922SOL    HW227460   2.050   1.782   0.934  1.4818  1.6002  0.6505
 6922SOL    HW327461   2.064   1.661   1.022 -0.3633  1.1491  0.3522
 6922SOL    MW427462   2.096   1.714   0.961  0.1805  0.4170 -0.0122
 6923SOL     OW27463   4.972   3.725   1.324 -0.2296  0.1844  0.3072
 6923SOL    HW227464   4.974   3.690   1.235 -1.1391 -1.2600  0.8240
 6923SOL    HW327465   4.975   3.647   1.381  0.1622  1.0633  1.5445
 6923SOL    MW427466   4.973   3.710   1.320 -0.2979  0.1098  0.5386
 6924SOL     OW27467   3.900   4.782   5.819 -0.1668  0.1786  0.1124
 6924SOL    HW227468   3.970   4.720   5.795  0.1012  0.5831 -0.1668
 6924SOL    HW327469   3.946   4.865   5.834 -0.4081  0.1030  1.3930
 6924SOL    MW427470   3.915   4.785   5.818 -0.1633  0.2220  0.2445
 6925SOL     OW27471   6.187   4.287   6.143 -0.1588  0.3162 -0.2872
 6925SOL    HW227472   6.196   4.192   6.150  0.4995  0.4971  3.2128
 6925SOL    HW327473   6.093   4.303   6.147 -0.3898 -0.1905 -2.5856
 6925SOL    MW427474   6.176   4.277   6.145 -0.1024  0.2732 -0.1287
 6926SOL     OW27475   1.946   2.722   0.059 -0.6400  0.2041  0.6302
 6926SOL    HW227476   1.932   2.634   0.025  2.0097  0.3716 -1.2476
 6926SOL    HW327477   1.867   2.770   0.036 -2.1658 -1.6238  1.7479
 6926SOL    MW427478   1.934   2.717   0.052 -0.4917 -0.0150  0.5299
 6927SOL     OW27479   6.327   1.106   5.819 -0.5060  0.6472  0.1444
 6927SOL    HW227480   6.267   1.038   5.848  2.4711 -1.4100  2.0426
 6927SOL    HW327481   6.312   1.179   5.880 -0.8158  0.0075  0.8452
 6927SOL    MW427482   6.317   1.107   5.831 -0.1541  0.2914  0.4873
 6928SOL     OW27483   5.226   6.235   0.057  0.0237  0.1740 -0.1160
 6928SOL    HW227484   5.174   6.306   0.093 -0.7332 -0.1085 -0.6281
 6928SOL    HW327485   5.162   6.175   0.019  0.7142 -0.2314 -0.6672
 6928SOL    MW427486   5.211   6.237   0.056  0.0149  0.0833 -0.2563
 6929SOL     OW27487   1.038   3.563   1.832 -0.1114 -0.0594 -0.3157
 6929SOL    HW227488   1.054   3.516   1.750 -1.0869  1.6846 -1.5724
 6929SOL    HW327489   0.967   3.515   1.874  2.9928 -3.4088  1.6383
 6929SOL    MW427490   1.031   3.550   1.827  0.1694 -0.2712 -0.2237
 6930SOL     OW27491   1.741   0.758   4.933 -0.0552 -0.2466 -0.3543
 6930SOL    HW227492   1.828   0.786   4.962 -0.9122  1.2849  0.9099
 6930SOL    HW327493   1.733   0.791   4.844  0.6699 -0.4624 -0.5035
 6930SOL    MW427494   1.751   0.766   4.926 -0.0726 -0.0730 -0.2072
 6931SOL     OW27495   2.055   5.521   2.873 -0.1717  0.4822 -0.1369
 6931SOL    HW227496   2.055   5.488   2.962  1.1045 -0.4188 -0.4498
 6931SOL    HW327497   2.147   5.533   2.852 -0.3937 -0.3604 -1.7133
 6931SOL    MW427498   2.067   5.518   2.882 -0.0326  0.2522 -0.3862
 6932SOL     OW27499   5.689   4.465   0.434  0.0156 -0.0670  0.1683
 6932SOL    HW227500   5.709   4.371   0.436 -1.1381 -0.3711 -1.0856
 6932SOL    HW327501   5.722   4.498   0.517  1.6435 -1.3250  0.0926
 6932SOL    MW427502   5.696   4.457   0.445  0.0782 -0.2731 -0.0071
 6933SOL     OW27503   3.106   5.350   3.486 -0.1120 -0.7435  0.1573
 6933SOL    HW227504   3.053   5.410   3.537  1.2952 -0.4557  1.3335
 6933SOL    HW327505   3.166   5.311   3.549 -0.7588 -3.1817 -0.6168
 6933SOL    MW427506   3.107   5.353   3.501 -0.0117 -1.0272  0.2104
 6934SOL     OW27507   2.790   2.035   5.398 -0.3990 -0.2004 -0.0786
 6934SOL    HW227508   2.727   2.076   5.340  0.2112 -0.3834 -0.8951
 6934SOL    HW327509   2.873   2.080   5.381 -0.2930  0.0377  0.9718
 6934SOL    MW427510   2.793   2.046   5.388 -0.3045 -0.1932 -0.0477
 6935SOL     OW27511   1.294   1.952   2.276  0.3750  0.4383  0.5966
 6935SOL    HW227512   1.243   1.933   2.354  0.6302  1.7322  1.0994
 6935SOL    HW327513   1.307   2.047   2.277  0.4802  0.4769 -0.9537
 6935SOL    MW427514   1.289   1.962   2.286  0.4225  0.6141  0.4584
 6936SOL     OW27515   3.102   5.849   2.634  0.8999 -0.2796 -0.2719
 6936SOL    HW227516   3.084   5.874   2.725  0.2115  0.7524 -0.6660
 6936SOL    HW327517   3.079   5.756   2.629  0.7469 -0.2942  0.5637
 6936SOL    MW427518   3.096   5.840   2.645  0.7889 -0.1453 -0.2137
 6937SOL     OW27519   4.020   5.492   4.410  0.0575 -0.0840 -0.7096
 6937SOL    HW227520   4.047   5.506   4.501 -2.0471  0.3264 -0.0928
 6937SOL    HW327521   4.094   5.522   4.358  0.7777  0.9933  0.8480
 6937SOL    MW427522   4.033   5.498   4.415 -0.1252  0.1123 -0.4227
 6938SOL     OW27523   5.996   6.422   3.951 -0.1035  0.2625 -0.3256
 6938SOL    HW227524   6.020   6.414   4.043 -1.6550  0.6760  0.1421
 6938SOL    HW327525   6.072   6.388   3.904  0.7434  0.0950  1.0928
 6938SOL    MW427526   6.009   6.416   3.957 -0.1965  0.2950 -0.0768
 6939SOL     OW27527   6.001   3.107   1.584  0.2461  0.0078  0.0065
 6939SOL    HW227528   6.083   3.154   1.569 -0.9481  1.7854 -1.3482
 6939SOL    HW327529   5.971   3.083   1.497 -0.5905 -0.7729  0.4993
 6939SOL    MW427530   6.008   3.110   1.571 -0.0218  0.1394 -0.1072
 6940SOL     OW27531   5.422   4.563   2.009  0.0291  0.1879  0.4528
 6940SOL    HW227532   5.416   4.498   1.939 -1.9724 -1.2620  1.8535
 6940SOL    HW327533   5.516   4.574   2.024  0.4382 -1.4710 -0.6583
 6940SOL    MW427534   5.434   4.556   2.002 -0.1810 -0.2223  0.4910
 6941SOL     OW27535   6.303   4.315   0.599  0.2957 -0.4078  0.1497
 6941SOL    HW227536   6.227   4.258   0.585  1.1891 -1.3413 -1.1756
 6941SOL    HW327537   6.295   4.382   0.531  1.1875 -1.1146 -0.6668
 6941SOL    MW427538   6.292   4.316   0.588  0.5312 -0.6242 -0.1329
 6942SOL     OW27539   0.230   1.916   1.111 -0.2885  0.2472 -0.4011
 6942SOL    HW227540   0.192   1.847   1.166  1.1769  0.6569  1.2056
 6942SOL    HW327541   0.191   1.997   1.145 -0.3427  0.4008 -0.8277
 6942SOL    MW427542   0.220   1.918   1.123 -0.1023  0.3215 -0.2454
 6943SOL     OW27543   0.453   3.194   3.248  0.1122  0.3647  0.1800
 6943SOL    HW227544   0.393   3.268   3.246 -0.1398  0.1428 -0.4523
 6943SOL    HW327545   0.493   3.198   3.336  0.1137  1.2531  0.1460
 6943SOL    MW427546   0.451   3.204   3.260  0.0792  0.4527  0.0921
 6944SOL     OW27547   1.343   5.562   1.299  0.0731 -0.4337 -0.6390
 6944SOL    HW227548   1.250   5.586   1.301 -0.2141 -1.4018 -1.2167
 6944SOL    HW327549   1.378   5.593   1.382 -1.0432 -1.0380  0.0940
 6944SOL    MW427550   1.335   5.569   1.310 -0.1121 -0.6412 -0.6185
 6945SOL     OW27551   0.955   5.638   0.792 -0.4431 -0.5307  0.7784
 6945SOL    HW227552   0.921   5.550   0.776 -0.5004 -0.7232  1.8599
 6945SOL    HW327553   0.994   5.665   0.708 -1.1439 -1.2544  0.2075
 6945SOL    MW427554   0.956   5.630   0.779 -0.5431 -0.6516  0.8458
 6946SOL     OW27555   1.894   0.863   0.319  0.3497  0.1467 -0.1789
 6946SOL    HW227556   1.813   0.857   0.370 -0.3398 -1.7943 -1.4109
 6946SOL    HW327557   1.918   0.955   0.323 -0.3158  0.2959  2.6285
 6946SOL    MW427558   1.886   0.874   0.326  0.1709 -0.0897  0.0289
 6947SOL     OW27559   2.803   2.350   6.244  0.1591 -0.8599 -0.5390
 6947SOL    HW227560   2.792   2.357   6.150 -2.6094  1.1178 -0.2076
 6947SOL    HW327561   2.798   2.440   6.276 -1.6386 -1.6309  1.6454
 6947SOL    MW427562   2.801   2.362   6.236 -0.4434 -0.7007 -0.2070
 6948SOL     OW27563   3.293   5.720   3.295  0.9056 -0.1896 -0.9044
 6948SOL    HW227564   3.245   5.800   3.316  3.1708  0.9552  0.2616
 6948SOL    HW327565   3.226   5.658   3.269 -1.0856  1.6046 -0.3139
 6948SOL    MW427566   3.278   5.723   3.294  0.9417  0.1981 -0.6727
 6949SOL     OW27567   3.921   0.186   4.115 -0.2902 -0.2386 -0.1739
 6949SOL    HW227568   3.999   0.237   4.091  0.0035 -0.9705 -0.8271
 6949SOL    HW327569   3.900   0.215   4.204  0.0974  0.7312 -0.3882
 6949SOL    MW427570   3.929   0.197   4.124 -0.2003 -0.2072 -0.2883
 6950SOL     OW27571   2.246   5.625   0.888  0.0780 -0.6101 -0.3513
 6950SOL    HW227572   2.201   5.550   0.849 -0.4266 -0.7288  0.4285
 6950SOL    HW327573   2.196   5.701   0.858 -0.2949 -0.6989  0.0386
 6950SOL    MW427574   2.233   5.625   0.879 -0.0378 -0.6375 -0.1970
 6951SOL     OW27575   3.700   0.697   5.048  0.2818 -0.6713  0.5233
 6951SOL    HW227576   3.721   0.776   5.097 -1.0267 -0.6818  1.1497
 6951SOL    HW327577   3.776   0.640   5.060  1.0875  0.3396  0.3502
 6951SOL    MW427578   3.713   0.700   5.056  0.2155 -0.5393  0.5831
 6952SOL     OW27579   3.217   3.071   5.712  0.1186 -0.1230 -0.3333
 6952SOL    HW227580   3.161   3.148   5.723 -2.7038 -2.1520  0.8049
 6952SOL    HW327581   3.207   3.047   5.620  2.8674  2.0001 -1.3518
 6952SOL    MW427582   3.208   3.078   5.702  0.1089 -0.1106 -0.3175
 6953SOL     OW27583   3.314   3.244   5.012  0.1686 -0.4740 -0.2486
 6953SOL    HW227584   3.394   3.288   4.983  0.3727 -1.6379 -1.5571
 6953SOL    HW327585   3.249   3.313   5.015  1.1981  0.4881  0.7911
 6953SOL    MW427586   3.316   3.259   5.009  0.3314 -0.5006 -0.2840
 6954SOL     OW27587   3.887   1.168   2.516 -0.0868  0.2590 -0.4164
 6954SOL    HW227588   3.850   1.131   2.596  0.1130 -0.2920 -0.5741
 6954SOL    HW327589   3.908   1.259   2.539  0.2995  0.0103  0.2697
 6954SOL    MW427590   3.885   1.175   2.530 -0.0095  0.1535 -0.3467
 6955SOL     OW27591   5.544   4.275   1.476  0.5735  0.0031 -0.3305
 6955SOL    HW227592   5.488   4.216   1.526 -0.3784  0.9066 -0.3155
 6955SOL    HW327593   5.498   4.286   1.393  0.8563  0.5519 -0.4160
 6955SOL    MW427594   5.531   4.269   1.471  0.4852  0.1948 -0.3398
 6956SOL     OW27595   2.704   5.898   0.697 -0.0451  0.0174  0.2084
 6956SOL    HW227596   2.609   5.897   0.703  0.0097 -1.3237  1.2239
 6956SOL    HW327597   2.733   5.827   0.754  1.5162 -0.4222 -1.0548
 6956SOL    MW427598   2.696   5.889   0.705  0.1681 -0.2175  0.1757
 6957SOL     OW27599   5.071   3.661   2.639  0.2844 -0.4380  0.4761
 6957SOL    HW227600   5.027   3.663   2.724  0.9032 -0.5115  0.8087
 6957SOL    HW327601   5.002   3.642   2.576 -0.3672  0.6940  0.8358
 6957SOL    MW427602   5.056   3.659   2.642  0.2800 -0.2984  0.5674
 6958SOL     OW27603   5.527   0.564   4.617 -0.1471 -0.1201  0.4389
 6958SOL    HW227604   5.618   0.536   4.607 -0.0508 -0.8390  2.6403
 6958SOL    HW327605   5.533   0.657   4.636  0.1899 -0.2580  1.0457
 6958SOL    MW427606   5.540   0.572   4.618 -0.0899 -0.2332  0.8094
 6959SOL     OW27607   4.746   6.260   1.595 -1.0197  1.0004  0.1891
 6959SOL    HW227608   4.815   6.241   1.659 -0.6433  0.0198 -0.4740
 6959SOL    HW327609   4.794   6.282   1.515 -1.4544  0.1446 -0.3252
 6959SOL    MW427610   4.762   6.260   1.593 -1.0274  0.7581  0.0338
 6960SOL     OW27611   4.945   2.444   2.958  0.0629 -0.2478 -0.3690
 6960SOL    HW227612   4.947   2.419   2.866 -1.0761 -1.6866 -0.0467
 6960SOL    HW327613   5.028   2.489   2.973  0.9074 -1.2645 -1.7543
 6960SOL    MW427614   4.956   2.446   2.948  0.0240 -0.5718 -0.5092
 6961SOL     OW27615   1.645   6.197   5.673 -0.5315  0.3531 -0.0306
 6961SOL    HW227616   1.580   6.130   5.653 -0.4637  0.2619  0.0517
 6961SOL    HW327617   1.717   6.179   5.611 -2.1053  2.7516 -2.7951
 6961SOL    MW427618   1.646   6.185   5.662 -0.7302  0.6575 -0.3845
 6962SOL     OW27619   0.206   0.216   1.325  0.3649  0.2483  0.2115
 6962SOL    HW227620   0.150   0.140   1.343  0.9853 -0.0171  1.0955
 6962SOL    HW327621   0.145   0.288   1.311 -0.2188  0.1495  2.0169
 6962SOL    MW427622   0.191   0.216   1.325  0.3697  0.2002  0.5664
 6963SOL     OW27623   4.130   3.864   0.126  0.5789  0.1191  0.0059
 6963SOL    HW227624   4.049   3.842   0.171  0.2835 -1.0237 -1.0228
 6963SOL    HW327625   4.112   3.946   0.080 -0.6733 -1.0851 -1.7709
 6963SOL    MW427626   4.117   3.872   0.126  0.3747 -0.1905 -0.3642
 6964SOL     OW27627   0.751   0.856   3.695  0.0123  0.3566  0.6764
 6964SOL    HW227628   0.689   0.887   3.760 -0.5671 -2.1146  1.4037
 6964SOL    HW327629   0.700   0.848   3.614 -0.0678  0.3745  0.7261
 6964SOL    MW427630   0.736   0.859   3.693 -0.0747  0.0329  0.7789
 6965SOL     OW27631   2.277   5.763   1.488 -0.1258 -0.2457 -0.3844
 6965SOL    HW227632   2.214   5.767   1.417 -1.2857  3.3303  0.6313
 6965SOL    HW327633   2.362   5.747   1.445 -0.6709  2.4509 -2.7090
 6965SOL    MW427634   2.280   5.761   1.473 -0.3508  0.5819 -0.5571
 6966SOL     OW27635   3.400   3.847   3.812 -0.3427  0.2712 -0.2409
 6966SOL    HW227636   3.490   3.816   3.817  0.1333  1.6967  2.1156
 6966SOL    HW327637   3.347   3.768   3.800  1.1003 -0.8050  0.2433
 6966SOL    MW427638   3.404   3.833   3.811 -0.0895  0.3172  0.1339
 6967SOL     OW27639   3.710   1.542   0.128 -0.2126  0.0142  0.1670
 6967SOL    HW227640   3.644   1.492   0.079 -1.3499  2.0670 -0.5098
 6967SOL    HW327641   3.660   1.590   0.194  1.0530 -0.9430  1.8872
 6967SOL    MW427642   3.694   1.541   0.130 -0.1957  0.1587  0.3047
 6968SOL     OW27643   2.941   3.523   5.646  0.4162  0.5184  0.6581
 6968SOL    HW227644   2.955   3.465   5.721  1.0773 -0.0912  0.0666
 6968SOL    HW327645   2.998   3.598   5.664  2.6396 -0.8004 -0.4799
 6968SOL    MW427646   2.950   3.526   5.658  0.7968  0.2640  0.4299
 6969SOL     OW27647   2.645   4.022   6.179 -0.5081  0.2743 -0.1013
 6969SOL    HW227648   2.634   4.043   6.272  0.9513 -2.5985  0.8699
 6969SOL    HW327649   2.738   4.001   6.171 -1.0843 -2.1703 -1.5164
 6969SOL    MW427650   2.656   4.022   6.190 -0.3915 -0.4272 -0.1598
 6970SOL     OW27651   1.122   5.232   3.381 -0.4743  0.2708 -0.5113
 6970SOL    HW227652   1.159   5.304   3.431 -0.3196  0.7311 -1.2747
 6970SOL    HW327653   1.036   5.217   3.419  0.3784 -0.6605  1.1491
 6970SOL    MW427654   1.116   5.239   3.393 -0.3414  0.2087 -0.3930
 6971SOL     OW27655   5.817   3.897   5.159  0.4349 -0.0466 -0.2386
 6971SOL    HW227656   5.860   3.943   5.232 -0.4056 -0.5430  0.5790
 6971SOL    HW327657   5.768   3.827   5.200 -1.7217  0.9017 -1.0754
 6971SOL    MW427658   5.816   3.894   5.174  0.0395  0.0130 -0.2411
 6972SOL     OW27659   5.172   5.954   2.709 -0.4941  0.0509  0.0613
 6972SOL    HW227660   5.258   5.931   2.673 -0.8427 -0.5226 -0.4160
 6972SOL    HW327661   5.109   5.909   2.652 -1.1050  0.2801  0.5449
 6972SOL    MW427662   5.175   5.945   2.696 -0.6207  0.0055  0.0621
 6973SOL     OW27663   4.690   1.388   2.679 -0.2883  0.9267  0.3378
 6973SOL    HW227664   4.784   1.407   2.682 -0.4038  1.5780  0.0620
 6973SOL    HW327665   4.672   1.340   2.760  0.2426  0.9857  0.4936
 6973SOL    MW427666   4.700   1.384   2.690 -0.2335  1.0204  0.3220
 6974SOL     OW27667   1.155   5.568   4.043 -0.3197  0.3863  0.4334
 6974SOL    HW227668   1.087   5.576   3.976  0.6190  1.1977 -0.4645
 6974SOL    HW327669   1.236   5.595   3.999  0.3053  1.1171  1.9257
 6974SOL    MW427670   1.157   5.573   4.028 -0.1133  0.5898  0.5118
 6975SOL     OW27671   5.620   5.280   0.478  0.0978 -0.3573  0.3176
 6975SOL    HW227672   5.708   5.289   0.514  0.0031  1.7839  0.1458
 6975SOL    HW327673   5.628   5.307   0.386 -0.8800  0.7148  0.5280
 6975SOL    MW427674   5.633   5.285   0.470 -0.0437  0.0667  0.3227
 6976SOL     OW27675   1.422   0.379   4.662 -0.5763 -0.2939  0.3163
 6976SOL    HW227676   1.421   0.286   4.640  0.9200 -0.3403  0.3690
 6976SOL    HW327677   1.336   0.395   4.701 -0.7067 -1.7450  0.6833
 6976SOL    MW427678   1.410   0.369   4.665 -0.3961 -0.4915  0.3716
 6977SOL     OW27679   4.955   5.948   0.296 -0.0458  0.2963  0.2502
 6977SOL    HW227680   4.939   5.939   0.390 -0.9546 -1.2407 -0.0216
 6977SOL    HW327681   4.997   5.866   0.270  1.3343  1.1874 -0.4940
 6977SOL    MW427682   4.958   5.936   0.305  0.0164  0.2111  0.1161
 6978SOL     OW27683   1.292   2.749   4.077  0.2847  0.1113 -0.4913
 6978SOL    HW227684   1.221   2.806   4.048  1.7147  0.9667 -2.5152
 6978SOL    HW327685   1.255   2.661   4.074 -1.5688  0.7264  1.4409
 6978SOL    MW427686   1.278   2.745   4.073  0.2288  0.3053 -0.5034
 6979SOL     OW27687   3.155   5.766   0.366  0.6834  0.1026  0.3472
 6979SOL    HW227688   3.196   5.848   0.338  1.8755 -1.0076 -1.2984
 6979SOL    HW327689   3.088   5.749   0.299  1.0651 -0.7156  0.1598
 6979SOL    MW427690   3.151   5.775   0.353  0.8910 -0.1518  0.1054
 6980SOL     OW27691   5.427   0.422   4.932  0.0813 -0.1397 -0.1650
 6980SOL    HW227692   5.416   0.497   4.991 -0.3337 -1.0708  0.9686
 6980SOL    HW327693   5.520   0.423   4.910  0.4162 -0.2562  1.1679
 6980SOL    MW427694   5.437   0.432   4.937  0.0707 -0.2779  0.1604
 6981SOL     OW27695   1.666   2.564   6.314  0.0525 -0.5530  0.2238
 6981SOL    HW227696   1.602   2.553   6.384  0.2215 -2.2053  0.1543
 6981SOL    HW327697   1.627   2.628   6.255 -0.7394 -0.2345  1.0720
 6981SOL    MW427698   1.653   2.571   6.315 -0.0297 -0.7290  0.3265
 6982SOL     OW27699   0.975   1.623   0.837  0.5838  0.1221  0.1637
 6982SOL    HW227700   0.884   1.612   0.811  0.0837 -0.7236  2.0753
 6982SOL    HW327701   0.978   1.707   0.884  0.5168 -0.3695  1.0759
 6982SOL    MW427702   0.964   1.633   0.840  0.5090 -0.0543  0.5363
 6983SOL     OW27703   0.414   0.685   6.002 -0.0101 -0.3434  0.5907
 6983SOL    HW227704   0.433   0.639   6.084  0.8324  1.3598  1.4084
 6983SOL    HW327705   0.375   0.619   5.946  1.6582 -2.2016  1.4853
 6983SOL    MW427706   0.412   0.670   6.006  0.3212 -0.3639  0.8166
 6984SOL     OW27707   2.655   6.298   2.309  0.2463  0.4344 -0.1684
 6984SOL    HW227708   2.642   6.306   2.403 -0.3526 -0.7499 -0.1248
 6984SOL    HW327709   2.574   6.330   2.270  0.8322  1.7662 -0.3408
 6984SOL    MW427710   2.643   6.303   2.316  0.2446  0.4538 -0.1854
 6985SOL     OW27711   0.033   0.620   0.027  0.1404  0.0394  0.2148
 6985SOL    HW227712   0.090   0.588  -0.043 -0.5679  3.4799 -2.1894
 6985SOL    HW327713   0.093   0.638   0.100  1.0756 -2.3699  0.1500
 6985SOL    MW427714   0.048   0.618   0.028  0.1703  0.1755 -0.1109
 6986SOL     OW27715   2.912   4.975   5.767  0.3300  0.5987  0.0908
 6986SOL    HW227716   3.003   4.991   5.791 -0.4173  1.8682  2.3218
 6986SOL    HW327717   2.909   4.991   5.673  1.9935  2.6172  0.3218
 6986SOL    MW427718   2.923   4.979   5.758  0.4509  1.0325  0.4156
 6987SOL     OW27719   1.954   2.080   3.238  0.5797  0.3038 -0.5685
 6987SOL    HW227720   1.937   2.011   3.302  0.7483  0.3549 -0.4672
 6987SOL    HW327721   2.050   2.088   3.236  0.5460  0.8621 -0.2276
 6987SOL    MW427722   1.964   2.072   3.246  0.5975  0.3842 -0.5101
 6988SOL     OW27723   2.621   1.936   2.216 -0.3929  0.4750 -0.4006
 6988SOL    HW227724   2.576   2.012   2.179  0.7136  1.1349 -0.4633
 6988SOL    HW327725   2.640   1.962   2.307  0.8070  0.6856 -0.6835
 6988SOL    MW427726   2.618   1.950   2.223 -0.0886  0.5898 -0.4462
 6989SOL     OW27727   2.773   2.750   4.072  0.0288 -0.1001 -0.6684
 6989SOL    HW227728   2.749   2.829   4.024 -0.2172  0.6015  0.5537
 6989SOL    HW327729   2.839   2.708   4.018 -1.0094  0.0836 -2.1250
 6989SOL    MW427730   2.779   2.755   4.059 -0.1406  0.0167 -0.6993
 6990SOL     OW27731   3.237   4.994   6.071 -0.0943 -0.1060  0.3003
 6990SOL    HW227732   3.161   4.939   6.089 -0.6859  0.7412  0.4179
 6990SOL    HW327733   3.310   4.948   6.112 -0.4542 -1.1663 -0.2195
 6990SOL    MW427734   3.237   4.981   6.079 -0.2199 -0.1341  0.2473
 6991SOL     OW27735   3.361   5.986   5.977  0.2724  0.2793 -0.0563
 6991SOL    HW227736   3.287   6.043   5.992  0.1602  0.4873 -1.2737
 6991SOL    HW327737   3.350   5.914   6.040 -1.3854 -0.0971 -0.7337
 6991SOL    MW427738   3.350   5.984   5.987  0.0389  0.2571 -0.3063
 6992SOL     OW27739   6.030   2.621   3.147 -0.4471  0.3638  0.1990
 6992SOL    HW227740   5.954   2.589   3.195 -0.8649  1.8065  0.5536
 6992SOL    HW327741   6.054   2.549   3.088 -0.8364 -0.8689  1.4952
 6992SOL    MW427742   6.023   2.607   3.146 -0.5536  0.3915  0.4168
 6993SOL     OW27743   5.217   6.068   0.298 -0.1347 -0.3716 -0.1399
 6993SOL    HW227744   5.244   6.105   0.215 -1.3963 -2.6130 -1.6764
 6993SOL    HW327745   5.130   6.031   0.280 -2.1767  2.2147  3.1698
 6993SOL    MW427746   5.209   6.068   0.285 -0.5706 -0.3261  0.0941
 6994SOL     OW27747   6.247   3.170   3.151  0.2398  0.0281  0.3946
 6994SOL    HW227748   6.265   3.090   3.102  1.6008  0.5204  0.0403
 6994SOL    HW327749   6.195   3.223   3.090  1.0126  0.1983 -0.1355
 6994SOL    MW427750   6.243   3.167   3.136  0.5213  0.1155  0.2779
 6995SOL     OW27751   1.765   3.526   6.296  0.2386 -0.1433 -0.3124
 6995SOL    HW227752   1.719   3.485   6.223  0.3780  0.2402 -0.6174
 6995SOL    HW327753   1.697   3.541   6.362  0.2912 -1.4563  0.0753
 6995SOL    MW427754   1.750   3.522   6.295  0.2639 -0.2659 -0.3015
 6996SOL     OW27755   4.190   2.086   4.588  0.4961  0.2587  0.2480
 6996SOL    HW227756   4.254   2.154   4.564 -0.2485  1.0278  0.3976
 6996SOL    HW327757   4.165   2.047   4.504 -0.5924  1.5709 -0.0682
 6996SOL    MW427758   4.195   2.090   4.574  0.2542  0.5333  0.2260
 6997SOL     OW27759   2.690   2.897   0.611  0.7557 -0.1372  0.1056
 6997SOL    HW227760   2.641   2.857   0.539  2.3307 -1.5124 -0.2545
 6997SOL    HW327761   2.719   2.982   0.576 -1.0524  0.5704  0.2272
 6997SOL    MW427762   2.687   2.903   0.597  0.7250 -0.2253  0.0741
 6998SOL     OW27763   2.983   5.762   2.298  0.0676 -0.0484 -0.4139
 6998SOL    HW227764   2.919   5.814   2.348 -0.8380 -1.7314  0.2495
 6998SOL    HW327765   2.932   5.726   2.226  0.5731 -0.3882 -0.6035
 6998SOL    MW427766   2.968   5.764   2.295  0.0148 -0.3153 -0.3514
 6999SOL     OW27767   1.398   1.240   0.166  0.1895 -0.4588  0.6166
 6999SOL    HW227768   1.474   1.190   0.194  0.9058  0.4121  0.2783
 6999SOL    HW327769   1.332   1.223   0.234  0.5997 -1.4056  0.7866
 6999SOL    MW427770   1.399   1.231   0.179  0.3381 -0.4688  0.5944
 7000SOL     OW27771   0.611   6.227   3.507  0.5150  1.1007  0.3091
 7000SOL    HW227772   0.703   6.200   3.518  0.7442  2.1566  1.1212
 7000SOL    HW327773   0.598   6.229   3.413  1.2275  0.6189  0.1897
 7000SOL    MW427774   0.622   6.223   3.496  0.6392  1.1764  0.4005
 7001SOL     OW27775   3.906   0.504   5.055 -0.7661 -0.0319 -0.1112
 7001SOL    HW227776   3.874   0.512   4.965  0.2205  0.8819 -0.4070
 7001SOL    HW327777   3.927   0.411   5.065 -0.1765 -0.0232 -1.0931
 7001SOL    MW427778   3.905   0.493   5.044 -0.5581  0.0898 -0.2798
 7002SOL     OW27779   3.493   3.669   0.426 -0.2876  0.0383  0.0251
 7002SOL    HW227780   3.537   3.678   0.342  0.1206  0.1641  0.2532
 7002SOL    HW327781   3.532   3.737   0.481 -1.5798  0.9276 -0.1112
 7002SOL    MW427782   3.504   3.679   0.422 -0.4042  0.1722  0.0372
 7003SOL     OW27783   4.163   0.545   3.672 -0.2683 -0.0356 -0.9697
 7003SOL    HW227784   4.130   0.624   3.631 -0.1713 -0.3897 -1.7386
 7003SOL    HW327785   4.086   0.508   3.717 -0.3447  0.4131 -0.7240
 7003SOL    MW427786   4.148   0.550   3.673 -0.2656 -0.0231 -1.0387
 7004SOL     OW27787   5.535   4.217   1.953 -0.7253 -0.1062  0.2611
 7004SOL    HW227788   5.462   4.270   1.921 -1.3347 -1.1025 -0.0049
 7004SOL    HW327789   5.498   4.163   2.022  0.4058  1.4478  2.2189
 7004SOL    MW427790   5.521   4.217   1.958 -0.6565 -0.0326  0.4843
 7005SOL     OW27791   0.800   2.664   4.384 -0.2080  0.0770  0.6143
 7005SOL    HW227792   0.726   2.688   4.440  0.9773  0.3197  2.1385
 7005SOL    HW327793   0.832   2.747   4.348 -0.6238 -0.0221 -0.0011
 7005SOL    MW427794   0.794   2.678   4.387 -0.1065  0.0960  0.7342
 7006SOL     OW27795   5.286   3.390   0.017  0.1514 -0.0815 -0.6376
 7006SOL    HW227796   5.378   3.381   0.043 -0.1144  0.2468  0.5082
 7006SOL    HW327797   5.244   3.432   0.093 -1.2645 -1.6991 -0.4757
 7006SOL    MW427798   5.292   3.395   0.031 -0.0705 -0.2516 -0.4650
 7007SOL     OW27799   2.747   1.747   4.625 -0.0355  0.4271  0.1195
 7007SOL    HW227800   2.675   1.778   4.569 -0.5227 -0.6651  0.1102
 7007SOL    HW327801   2.706   1.681   4.681  1.0285 -0.4743 -0.1260
 7007SOL    MW427802   2.732   1.743   4.625  0.0406  0.1641  0.0859
 7008SOL     OW27803   5.901   3.169   5.858 -0.5887 -0.4105 -0.0045
 7008SOL    HW227804   5.986   3.148   5.819 -0.5277  0.9306 -0.6660
 7008SOL    HW327805   5.909   3.144   5.950  0.5666 -0.1740 -0.0312
 7008SOL    MW427806   5.913   3.163   5.865 -0.4282 -0.2024 -0.0953
 7009SOL     OW27807   2.949   1.859   1.049  0.3842  0.5460  0.1422
 7009SOL    HW227808   3.005   1.843   0.973 -1.1507 -1.3033 -0.6859
 7009SOL    HW327809   2.865   1.885   1.011 -0.9906 -2.2074  1.0390
 7009SOL    MW427810   2.945   1.860   1.034  0.0003 -0.0612  0.1513
 7010SOL     OW27811   6.388   4.942   4.543  0.4415 -0.5188  0.1688
 7010SOL    HW227812   6.406   4.886   4.468 -1.4098  2.1364 -2.5000
 7010SOL    HW327813   6.308   4.905   4.581  0.9395 -1.4121  0.3836
 7010SOL    MW427814   6.380   4.930   4.538  0.2630 -0.2864 -0.1550
 7011SOL     OW27815   2.109   0.442   6.101 -0.4574 -0.4752 -0.2331
 7011SOL    HW227816   2.101   0.500   6.176 -0.4227  0.8982 -1.2439
 7011SOL    HW327817   2.143   0.360   6.137 -2.1833 -0.5021  1.5108
 7011SOL    MW427818   2.113   0.439   6.115 -0.6805 -0.2975 -0.1363
 7012SOL     OW27819   3.399   5.552   0.102 -0.0932  0.9071  0.2129
 7012SOL    HW227820   3.344   5.621   0.064 -1.0770  0.3778  0.6490
 7012SOL    HW327821   3.378   5.552   0.195  0.2298  0.3156  0.2931
 7012SOL    MW427822   3.389   5.561   0.109 -0.1804  0.7592  0.2810
 7013SOL     OW27823   4.677   2.512   2.859 -0.2468 -0.2221  0.6427
 7013SOL    HW227824   4.750   2.486   2.915 -0.2314  0.7082  1.0721
 7013SOL    HW327825   4.633   2.430   2.837  1.6444 -0.9618 -0.6556
 7013SOL    MW427826   4.681   2.498   2.863  0.0047 -0.1970  0.5281
 7014SOL     OW27827   5.933   0.820   0.802 -0.1167  0.3027  0.5814
 7014SOL    HW227828   5.995   0.780   0.862  1.0947  1.9510  0.4960
 7014SOL    HW327829   5.952   0.914   0.806 -1.4546  0.6815 -0.7497
 7014SOL    MW427830   5.943   0.827   0.810 -0.1334  0.5701  0.3945
 7015SOL     OW27831   5.114   2.657   0.474  0.6952  0.2188  0.2014
 7015SOL    HW227832   5.065   2.633   0.395 -0.4567 -1.4503  1.3528
 7015SOL    HW327833   5.048   2.693   0.533  1.5365  1.4167  0.4417
 7015SOL    MW427834   5.099   2.659   0.471  0.6543  0.1566  0.3850
 7016SOL     OW27835   2.038   2.638   2.242 -0.3526 -0.2865 -0.3433
 7016SOL    HW227836   1.992   2.599   2.168  0.2017 -0.1724 -0.7568
 7016SOL    HW327837   2.079   2.717   2.206 -1.5745  0.7773  0.5080
 7016SOL    MW427838   2.038   2.643   2.228 -0.4407 -0.1311 -0.2856
 7017SOL     OW27839   5.084   3.566   3.969  0.8099 -0.5979 -0.1193
 7017SOL    HW227840   5.154   3.632   3.967 -0.4225  0.7728 -2.8534
 7017SOL    HW327841   5.075   3.538   3.878 -1.5487 -1.4448  0.3126
 7017SOL    MW427842   5.092   3.571   3.957  0.3361 -0.5288 -0.4230
 7018SOL     OW27843   4.443   0.720   3.244  0.1765 -0.6451 -0.4619
 7018SOL    HW227844   4.520   0.720   3.301 -1.2283 -1.0767  1.5533
 7018SOL    HW327845   4.398   0.802   3.264  0.4872  0.0064 -2.2442
 7018SOL    MW427846   4.448   0.731   3.255  0.0322 -0.6161 -0.4312
 7019SOL     OW27847   6.184   5.100   5.065  0.4231 -0.0657  0.1457
 7019SOL    HW227848   6.278   5.085   5.056  0.7216  2.1059 -1.3311
 7019SOL    HW327849   6.149   5.090   4.976 -0.7238 -0.6673  0.6406
 7019SOL    MW427850   6.191   5.097   5.052  0.3111  0.1414  0.0162
 7020SOL     OW27851   4.216   2.409   0.993  0.1823 -0.4411  0.0892
 7020SOL    HW227852   4.307   2.394   0.967  0.0927 -1.2120  0.2150
 7020SOL    HW327853   4.220   2.422   1.087  0.3634  1.2407 -0.1082
 7020SOL    MW427854   4.229   2.409   1.002  0.1944 -0.3209  0.0798
 7021SOL     OW27855   1.782   3.695   5.947  0.2115 -0.5859  0.0549
 7021SOL    HW227856   1.792   3.768   5.886 -0.0644 -1.9260 -1.6891
 7021SOL    HW327857   1.708   3.719   6.002  0.9345  0.9913  0.3921
 7021SOL    MW427858   1.774   3.708   5.946  0.2705 -0.5546 -0.1307
 7022SOL     OW27859   0.469   5.894   5.999  0.6201 -0.3871  0.3471
 7022SOL    HW227860   0.528   5.862   5.932  0.5060 -0.0667  0.0889
 7022SOL    HW327861   0.386   5.910   5.953  0.5139 -0.2588  0.5803
 7022SOL    MW427862   0.466   5.892   5.984  0.5911 -0.3279  0.3438
 7023SOL     OW27863   2.429   0.495   5.106 -0.4033  0.1592 -0.4923
 7023SOL    HW227864   2.379   0.416   5.086  0.4803 -0.9138  1.2570
 7023SOL    HW327865   2.497   0.466   5.167  0.2283  2.1979 -0.1338
 7023SOL    MW427866   2.432   0.481   5.111 -0.2034  0.2866 -0.2142
 7024SOL     OW27867   5.125   4.417   1.037  0.6190  0.0374  0.4649
 7024SOL    HW227868   5.213   4.436   1.068  1.3568 -0.7467 -1.0154
 7024SOL    HW327869   5.123   4.451   0.948 -0.2360 -0.8154  0.1384
 7024SOL    MW427870   5.136   4.424   1.029  0.6035 -0.1786  0.2265
 7025SOL     OW27871   4.188   4.736   1.408 -0.2501 -0.0361 -0.4176
 7025SOL    HW227872   4.212   4.700   1.322 -0.1935  3.0598 -1.8461
 7025SOL    HW327873   4.259   4.798   1.427 -0.4933 -0.3630  1.7093
 7025SOL    MW427874   4.201   4.739   1.399 -0.2747  0.3292 -0.3255
 7026SOL     OW27875   2.933   5.042   0.841  0.1887  0.3589 -0.2876
 7026SOL    HW227876   2.943   4.947   0.832 -0.0450  0.2212  0.7234
 7026SOL    HW327877   2.875   5.052   0.916 -0.2253  1.2990 -0.7225
 7026SOL    MW427878   2.927   5.031   0.850  0.1032  0.4648 -0.2116
 7027SOL     OW27879   1.680   2.652   1.766 -0.5022 -0.3298  0.4802
 7027SOL    HW227880   1.770   2.641   1.733 -0.5353 -0.0586  0.3029
 7027SOL    HW327881   1.666   2.746   1.768 -1.5506 -0.3799 -1.5853
 7027SOL    MW427882   1.690   2.663   1.762 -0.6449 -0.3007  0.1843
 7028SOL     OW27883   5.432   3.043   0.156 -0.4570 -0.5202 -0.3222
 7028SOL    HW227884   5.467   2.955   0.168  2.4785  0.7625  1.8500
 7028SOL    HW327885   5.363   3.051   0.221 -1.8895 -1.6720 -1.6417
 7028SOL    MW427886   5.428   3.032   0.166 -0.2587 -0.5029 -0.2097
 7029SOL     OW27887   2.792   0.637   4.035 -0.0967 -0.0214  0.0728
 7029SOL    HW227888   2.774   0.636   4.129 -1.1921  1.2864 -0.0800
 7029SOL    HW327889   2.769   0.549   4.005 -0.8343 -0.1040  0.8529
 7029SOL    MW427890   2.786   0.625   4.043 -0.3386  0.1402  0.1556
 7030SOL     OW27891   5.381   5.154   5.393 -0.8333  0.1772 -0.0962
 7030SOL    HW227892   5.409   5.142   5.484  0.5574 -1.9234 -0.7311
 7030SOL    HW327893   5.448   5.210   5.354 -1.9653  1.9413  0.3491
 7030SOL    MW427894   5.394   5.160   5.400 -0.7992  0.1328 -0.1213
 7031SOL     OW27895   3.414   4.047   0.137 -0.1809  0.1078  0.2801
 7031SOL    HW227896   3.368   4.070   0.056 -0.1097  0.6918  0.4014
 7031SOL    HW327897   3.346   4.012   0.194 -1.0991  3.4372  1.4799
 7031SOL    MW427898   3.399   4.046   0.134 -0.2926  0.6241  0.4544
 7032SOL     OW27899   3.795   6.254   0.456  0.3551  0.1257  0.6692
 7032SOL    HW227900   3.740   6.332   0.470  2.1760  1.3705  1.2899
 7032SOL    HW327901   3.815   6.223   0.544  0.6920 -0.2726  0.4537
 7032SOL    MW427902   3.790   6.260   0.469  0.6398  0.2374  0.7227
 7033SOL     OW27903   5.450   2.571   2.399  0.0044 -0.0434  0.7175
 7033SOL    HW227904   5.451   2.547   2.491  2.1239 -1.8036  0.3193
 7033SOL    HW327905   5.542   2.582   2.375 -0.5349  1.4412 -0.9699
 7033SOL    MW427906   5.462   2.569   2.408  0.2129 -0.0798  0.4423
 7034SOL     OW27907   4.822   4.660   3.166 -0.7777 -0.2967 -0.1833
 7034SOL    HW227908   4.851   4.722   3.233 -0.4402  0.6558 -1.1890
 7034SOL    HW327909   4.774   4.593   3.215 -2.0247  1.2676  0.8369
 7034SOL    MW427910   4.819   4.660   3.181 -0.8977  0.0354 -0.1814
 7035SOL     OW27911   2.311   4.094   1.692  0.7822  0.5815  0.0869
 7035SOL    HW227912   2.359   4.141   1.624  2.6629  0.3756  1.1734
 7035SOL    HW327913   2.231   4.144   1.705  0.5283  0.7915 -2.0179
 7035SOL    MW427914   2.307   4.107   1.685  0.9969  0.5820 -0.0474
 7036SOL     OW27915   4.629   0.905   1.345 -0.5226 -0.4236 -0.1168
 7036SOL    HW227916   4.587   0.847   1.409 -1.3677  1.2311  0.9001
 7036SOL    HW327917   4.662   0.846   1.278 -2.0780 -2.0259  0.4362
 7036SOL    MW427918   4.628   0.890   1.345 -0.8394 -0.4167  0.0903
 7037SOL     OW27919   3.243   3.596   3.824  0.0367 -0.1558  0.0946
 7037SOL    HW227920   3.243   3.547   3.741  1.2075  0.7579 -0.4882
 7037SOL    HW327921   3.185   3.547   3.881 -1.3833 -0.4209 -1.4999
 7037SOL    MW427922   3.236   3.583   3.820  0.0038 -0.0702 -0.1926
 7038SOL     OW27923   3.050   0.869   3.513 -0.0522  0.0251  0.1936
 7038SOL    HW227924   2.965   0.914   3.514  0.5016  1.1810  2.0574
 7038SOL    HW327925   3.054   0.825   3.429 -1.3561  2.1633 -1.0684
 7038SOL    MW427926   3.039   0.869   3.502 -0.1512  0.4597  0.2730
 7039SOL     OW27927   4.366   5.872   0.598  0.5878 -0.3350 -0.2046
 7039SOL    HW227928   4.419   5.947   0.572  0.6380 -0.3203 -0.0646
 7039SOL    HW327929   4.419   5.827   0.664 -0.1553  0.4731  0.9968
 7039SOL    MW427930   4.380   5.876   0.604  0.4964 -0.2264 -0.0276
 7040SOL     OW27931   6.162   3.657   1.624  0.1049  0.2786  0.2263
 7040SOL    HW227932   6.160   3.570   1.665  1.0589  0.2543  0.2464
 7040SOL    HW327933   6.140   3.641   1.533  1.3642 -0.1645 -0.0289
 7040SOL    MW427934   6.159   3.644   1.618  0.3969  0.2169  0.1952
 7041SOL     OW27935   1.815   1.173   1.761  0.1110  0.0492  0.5032
 7041SOL    HW227936   1.759   1.096   1.754 -0.7663  0.6784  0.4064
 7041SOL    HW327937   1.904   1.139   1.756 -0.2686 -0.8287 -1.1568
 7041SOL    MW427938   1.819   1.159   1.759 -0.0548  0.0164  0.2714
 7042SOL     OW27939   0.765   0.443   2.359  0.4183 -0.1738  0.1934
 7042SOL    HW227940   0.857   0.458   2.336  0.4952 -0.3294  0.3977
 7042SOL    HW327941   0.760   0.465   2.452  0.6402 -1.8573  0.6344
 7042SOL    MW427942   0.777   0.448   2.368  0.4577 -0.4164  0.2786
 7043SOL     OW27943   2.089   1.656   2.647 -0.3128 -0.0607 -0.6090
 7043SOL    HW227944   2.142   1.645   2.568  0.1170 -0.0193 -0.3275
 7043SOL    HW327945   2.077   1.751   2.655 -0.3922 -0.0672 -0.6447
 7043SOL    MW427946   2.094   1.667   2.638 -0.2666 -0.0561 -0.5766
 7044SOL     OW27947   4.689   4.314   0.981 -0.4898  0.1782  0.4203
 7044SOL    HW227948   4.650   4.268   1.056 -0.5385 -1.2007 -0.4230
 7044SOL    HW327949   4.784   4.308   0.996 -0.5095  0.4193  0.6579
 7044SOL    MW427950   4.696   4.307   0.993 -0.4988  0.0281  0.3404
 7045SOL     OW27951   3.760   3.203   3.221  0.0268  0.2317 -0.0614
 7045SOL    HW227952   3.756   3.144   3.146  0.1529  0.0453  0.0789
 7045SOL    HW327953   3.676   3.250   3.219 -0.1830 -0.1383 -0.0189
 7045SOL    MW427954   3.748   3.202   3.211  0.0158  0.1583 -0.0373
 7046SOL     OW27955   3.142   5.994   4.104  0.2223  0.0438 -0.0430
 7046SOL    HW227956   3.079   6.060   4.077 -1.8321 -1.4999  0.7050
 7046SOL    HW327957   3.159   5.942   4.025  1.2622  0.9475 -0.4459
 7046SOL    MW427958   3.136   5.996   4.090  0.0884 -0.0406  0.0026
 7047SOL     OW27959   2.959   2.796   5.765 -0.5200  0.0515 -0.1591
 7047SOL    HW227960   2.926   2.710   5.791 -0.6991 -0.0129 -0.6004
 7047SOL    HW327961   3.054   2.792   5.782 -0.7483  0.3126  1.3254
 7047SOL    MW427962   2.967   2.784   5.771 -0.5737  0.0775 -0.0214
 7048SOL     OW27963   4.287   2.050   5.651 -1.0514  0.2290  0.4936
 7048SOL    HW227964   4.221   2.010   5.707  0.6457  0.0620  2.5082
 7048SOL    HW327965   4.369   2.005   5.674  0.0615  1.5371 -0.6876
 7048SOL    MW427966   4.289   2.039   5.661 -0.6806  0.3796  0.6036
 7049SOL     OW27967   0.881   4.064   3.484 -0.1087  0.2223 -0.9733
 7049SOL    HW227968   0.967   4.031   3.456 -0.5581  0.3914 -2.6881
 7049SOL    HW327969   0.892   4.087   3.576  1.1055 -1.7131 -0.5826
 7049SOL    MW427970   0.894   4.062   3.492 -0.0078 -0.0107 -1.1480
 7050SOL     OW27971   5.949   4.441   3.049 -0.7354 -0.5759  0.0499
 7050SOL    HW227972   5.891   4.498   3.100  0.3304  1.0481 -0.4766
 7050SOL    HW327973   5.975   4.372   3.110  0.3580  1.2080  1.7250
 7050SOL    MW427974   5.945   4.440   3.064 -0.4505 -0.1263  0.2014
 7051SOL     OW27975   3.673   1.922   3.492  0.6866  0.1183 -0.4676
 7051SOL    HW227976   3.670   1.963   3.578  0.3170 -0.7250 -0.0648
 7051SOL    HW327977   3.649   1.991   3.431  0.4375  0.5905  0.1600
 7051SOL    MW427978   3.669   1.936   3.495  0.6050  0.0693 -0.3316
 7052SOL     OW27979   5.108   4.033   1.005 -0.4460 -0.8162 -0.0543
 7052SOL    HW227980   5.149   4.057   0.921  1.0522  1.1068  1.1284
 7052SOL    HW327981   5.042   4.101   1.020  0.5284 -0.0859  1.1148
 7052SOL    MW427982   5.105   4.045   0.996 -0.1198 -0.4662  0.2560
 7053SOL     OW27983   3.246   5.293   6.269  0.3431 -0.0087  0.0877
 7053SOL    HW227984   3.189   5.224   6.303 -0.1713 -0.0277 -0.8029
 7053SOL    HW327985   3.321   5.245   6.232 -0.0191 -0.1012 -0.5409
 7053SOL    MW427986   3.248   5.277   6.269  0.2275 -0.0234 -0.1127
 7054SOL     OW27987   3.272   0.137   2.769 -0.1071 -0.3521 -0.4536
 7054SOL    HW227988   3.207   0.132   2.839 -0.6515 -1.8406 -1.0207
 7054SOL    HW327989   3.259   0.223   2.730 -0.1147  0.3140  0.9545
 7054SOL    MW427990   3.262   0.148   2.773 -0.1799 -0.4606 -0.3427
 7055SOL     OW27991   6.006   2.586   4.448 -0.0014 -0.2011 -0.1458
 7055SOL    HW227992   5.987   2.553   4.536  0.2477  0.4152  0.1466
 7055SOL    HW327993   5.935   2.553   4.394  0.1952 -1.1486  0.1469
 7055SOL    MW427994   5.994   2.578   4.453  0.0574 -0.2448 -0.0686
 7056SOL     OW27995   6.420   3.644   2.719  0.7273 -0.0638 -0.3432
 7056SOL    HW227996   6.405   3.569   2.777 -0.6880  1.3946  1.2967
 7056SOL    HW327997   6.464   3.708   2.774 -0.9688  1.4934 -0.7053
 7056SOL    MW427998   6.424   3.642   2.734  0.3168  0.3340 -0.1746
 7057SOL     OW27999   1.406   0.001   4.967  0.4333  0.1121  0.6182
 7057SOL    HW228000   1.314   0.026   4.964  0.0260 -1.4098 -0.5928
 7057SOL    HW328001   1.453   0.085   4.963 -0.8858  0.8407 -1.8794
 7057SOL    MW428002   1.400   0.016   4.966  0.2055  0.0075  0.1289
 7058SOL     OW28003   4.843   1.620   1.572  0.7207 -0.7602  0.3630
 7058SOL    HW228004   4.880   1.695   1.619  1.5049 -1.3023  0.6335
 7058SOL    HW328005   4.913   1.591   1.514 -0.4860  0.3785 -1.7836
 7058SOL    MW428006   4.857   1.626   1.571  0.6649 -0.6815  0.1155
 7059SOL     OW28007   2.435   4.667   2.795 -0.9366 -0.2935 -0.3973
 7059SOL    HW228008   2.358   4.611   2.790 -0.2860 -1.3188  0.4891
 7059SOL    HW328009   2.458   4.668   2.888 -1.1476  1.7976 -0.3036
 7059SOL    MW428010   2.428   4.660   2.807 -0.8786 -0.1529 -0.2680
 7060SOL     OW28011   2.347   1.084   0.035 -0.8370 -0.3391 -0.2725
 7060SOL    HW228012   2.363   1.096  -0.058  0.7547 -1.9178 -0.2371
 7060SOL    HW328013   2.410   1.143   0.078 -1.4350  0.2393 -0.1553
 7060SOL    MW428014   2.357   1.094   0.029 -0.7059 -0.4711 -0.2524
 7061SOL     OW28015   6.236   4.335   1.391 -0.3920  0.4342 -0.2058
 7061SOL    HW228016   6.196   4.393   1.325  0.8848 -0.3727 -1.7651
 7061SOL    HW328017   6.293   4.277   1.340 -0.7439 -1.4534  1.4365
 7061SOL    MW428018   6.238   4.335   1.375 -0.2700  0.0787 -0.1949
 7062SOL     OW28019   3.879   6.219   3.410 -0.4407 -0.2620 -0.1687
 7062SOL    HW228020   3.912   6.307   3.428 -0.8614 -0.3720  1.3266
 7062SOL    HW328021   3.784   6.230   3.406 -0.5090 -0.6631  0.2086
 7062SOL    MW428022   3.871   6.232   3.412 -0.5052 -0.3294  0.0783
 7063SOL     OW28023   3.730   4.038   3.604  0.0427 -0.1563 -0.1534
 7063SOL    HW228024   3.748   3.954   3.562  0.7068  0.7320 -1.7080
 7063SOL    HW328025   3.776   4.033   3.688  0.8259 -1.0136 -0.6148
 7063SOL    MW428026   3.739   4.026   3.610  0.2337 -0.1522 -0.4194
 7064SOL     OW28027   0.312   2.351   2.244  0.0112 -0.0808  0.1393
 7064SOL    HW228028   0.362   2.355   2.162 -0.0734 -0.9581  0.0437
 7064SOL    HW328029   0.334   2.266   2.282 -0.4723  0.0404  0.6965
 7064SOL    MW428030   0.322   2.341   2.238 -0.0637 -0.1806  0.2002
 7065SOL     OW28031   1.916   3.429   0.767  0.3065 -0.7082  1.0095
 7065SOL    HW228032   1.869   3.506   0.735  0.9466 -0.6945  0.0594
 7065SOL    HW328033   1.997   3.428   0.717  0.6565 -1.5664  1.5732
 7065SOL    MW428034   1.920   3.439   0.756  0.4371 -0.8196  0.9585
 7066SOL     OW28035   5.215   4.486   6.389  0.1147 -0.0301  0.4250
 7066SOL    HW228036   5.298   4.527   6.416  0.4519  1.1211 -2.0970
 7066SOL    HW328037   5.153   4.559   6.385 -0.1898 -0.3428 -0.7717
 7066SOL    MW428038   5.218   4.501   6.392  0.1190  0.0806 -0.0656
 7067SOL     OW28039   3.583   2.807   2.065  0.0281  0.5448 -0.0559
 7067SOL    HW228040   3.505   2.862   2.062 -1.5554 -1.4715  1.5332
 7067SOL    HW328041   3.634   2.841   2.138 -0.0862  0.9614 -0.1697
 7067SOL    MW428042   3.579   2.818   2.074 -0.1959  0.3337  0.1388
 7068SOL     OW28043   3.925   0.271   0.564 -0.4815 -0.1401  0.6255
 7068SOL    HW228044   3.960   0.183   0.551  0.3985  0.3165 -0.3104
 7068SOL    HW328045   3.991   0.315   0.618  0.3725  0.6611 -0.9718
 7068SOL    MW428046   3.939   0.265   0.569 -0.2527  0.0259  0.2913
 7069SOL     OW28047   1.424   0.159   3.119 -0.0812 -0.4626  0.4805
 7069SOL    HW228048   1.473   0.221   3.066 -1.5834  0.0464 -0.3699
 7069SOL    HW328049   1.409   0.084   3.061 -1.5917  0.0265  0.2148
 7069SOL    MW428050   1.429   0.157   3.105 -0.4787 -0.3309  0.3332
 7070SOL     OW28051   5.952   0.779   3.399 -0.0231  0.5651 -0.1300
 7070SOL    HW228052   5.969   0.692   3.435 -0.7923  0.5041  0.0909
 7070SOL    HW328053   5.883   0.765   3.335 -0.2601  1.0440  0.0223
 7070SOL    MW428054   5.945   0.766   3.395 -0.1558  0.6203 -0.0808
 7071SOL     OW28055   1.510   4.239   4.468 -0.1500 -0.5293  0.1821
 7071SOL    HW228056   1.418   4.263   4.457 -0.6614 -2.2154  0.4168
 7071SOL    HW328057   1.549   4.249   4.381 -1.3727 -2.8432 -0.7267
 7071SOL    MW428058   1.503   4.244   4.455 -0.3788 -1.0570  0.0932
 7072SOL     OW28059   6.187   5.844   6.208 -0.0437 -0.3244  0.0236
 7072SOL    HW228060   6.258   5.908   6.220  0.2014 -0.6673  0.4120
 7072SOL    HW328061   6.169   5.846   6.113  0.4568 -0.2106 -0.0717
 7072SOL    MW428062   6.194   5.853   6.197  0.0547 -0.3547  0.0623
 7073SOL     OW28063   4.346   4.155   3.231  0.1890 -0.5396 -0.2819
 7073SOL    HW228064   4.267   4.209   3.224  1.8032  1.8204 -2.2082
 7073SOL    HW328065   4.335   4.088   3.163 -1.7905 -2.7834  2.0633
 7073SOL    MW428066   4.334   4.154   3.221  0.1408 -0.5243 -0.2267
 7074SOL     OW28067   5.241   5.115   3.889  0.0825  0.2027 -0.4276
 7074SOL    HW228068   5.189   5.055   3.942 -0.5253  1.1700  0.0974
 7074SOL    HW328069   5.180   5.147   3.822  0.6064 -0.3297 -1.1710
 7074SOL    MW428070   5.226   5.111   3.888  0.0714  0.2601 -0.4564
 7075SOL     OW28071   2.166   3.884   0.151  0.1621  0.1827 -0.0545
 7075SOL    HW228072   2.095   3.896   0.088 -1.0611  0.9576  1.4323
 7075SOL    HW328073   2.187   3.791   0.145 -1.5752 -0.2554  0.0843
 7075SOL    MW428074   2.160   3.874   0.142 -0.2285  0.2271  0.1600
 7076SOL     OW28075   4.758   2.941   1.911 -0.6799  0.7816 -0.0159
 7076SOL    HW228076   4.686   2.907   1.963 -0.7758  1.2262  0.1488
 7076SOL    HW328077   4.837   2.908   1.954 -0.7440  1.4174  0.6251
 7076SOL    MW428078   4.759   2.932   1.923 -0.7010  0.9242  0.0904
 7077SOL     OW28079   5.962   6.031   3.846  0.1864  0.5478  0.1964
 7077SOL    HW228080   6.054   6.051   3.830  0.2555 -0.3321 -0.5779
 7077SOL    HW328081   5.948   6.055   3.938  0.7366  2.2700 -0.1287
 7077SOL    MW428082   5.972   6.037   3.856  0.2681  0.6589  0.0514
 7078SOL     OW28083   2.024   2.405   0.987  0.4750  0.0204  0.3113
 7078SOL    HW228084   2.046   2.432   1.076  2.5022 -1.4531  0.3355
 7078SOL    HW328085   2.099   2.432   0.934  0.3971 -1.2338 -0.4844
 7078SOL    MW428086   2.037   2.412   0.992  0.7322 -0.3395  0.2095
 7079SOL     OW28087   1.401   4.876   2.514 -0.3436 -0.1566 -0.3920
 7079SOL    HW228088   1.317   4.906   2.548  0.2094  1.5213 -0.3631
 7079SOL    HW328089   1.464   4.900   2.583  0.2302 -0.8514 -0.6592
 7079SOL    MW428090   1.398   4.883   2.528 -0.1949 -0.0269 -0.4234
 7080SOL     OW28091   0.546   0.524   5.400 -0.5310 -0.1680 -0.1803
 7080SOL    HW228092   0.453   0.538   5.378  0.3030  0.5285 -3.9316
 7080SOL    HW328093   0.554   0.430   5.408 -1.6600 -0.2071  0.8582
 7080SOL    MW428094   0.535   0.514   5.398 -0.5699 -0.0813 -0.5382
 7081SOL     OW28095   2.194   0.696   2.891  0.6275  0.1135  0.3369
 7081SOL    HW228096   2.134   0.678   2.963  0.4505 -0.8488 -0.0330
 7081SOL    HW328097   2.137   0.727   2.820  0.6866  0.1599  0.3100
 7081SOL    MW428098   2.178   0.698   2.891  0.6119 -0.0073  0.2846
 7082SOL     OW28099   1.614   3.038   5.598 -0.1102  0.1290 -0.1510
 7082SOL    HW228100   1.697   3.051   5.552 -0.1794  1.3658  0.0239
 7082SOL    HW328101   1.638   3.003   5.683  0.0019 -2.5253 -1.1822
 7082SOL    MW428102   1.628   3.035   5.603 -0.1045 -0.0580 -0.2640
 7083SOL     OW28103   3.619   4.211   0.447  0.0713 -0.1707  0.0012
 7083SOL    HW228104   3.579   4.235   0.364 -0.8377 -0.6523  0.2836
 7083SOL    HW328105   3.676   4.285   0.469 -0.7676  0.5961 -0.3499
 7083SOL    MW428106   3.622   4.224   0.439 -0.1593 -0.1331 -0.0078
 7084SOL     OW28107   2.475   2.772   5.032 -0.9479 -0.0144  0.3553
 7084SOL    HW228108   2.465   2.759   4.938 -0.6838  2.3913 -0.0640
 7084SOL    HW328109   2.514   2.859   5.041 -0.0658 -0.5614  2.6712
 7084SOL    MW428110   2.479   2.782   5.021 -0.7967  0.2308  0.6055
 7085SOL     OW28111   0.549   4.013   4.574 -0.0597 -0.0944 -0.2731
 7085SOL    HW228112   0.590   4.097   4.596 -2.7062  1.1246  0.5345
 7085SOL    HW328113   0.474   4.038   4.520  0.0667 -2.1415 -1.4729
 7085SOL    MW428114   0.544   4.027   4.570 -0.3922 -0.2037 -0.3248
 7086SOL     OW28115   3.108   0.009   5.172  0.6853  0.2079 -0.1282
 7086SOL    HW228116   3.129   0.011   5.266  0.7594 -3.0183  0.0293
 7086SOL    HW328117   3.191   0.030   5.129  1.4152 -1.1463  0.5582
 7086SOL    MW428118   3.122   0.012   5.179  0.7914 -0.3964 -0.0169
 7087SOL     OW28119   2.109   3.246   1.458  0.1795  0.8980  0.6265
 7087SOL    HW228120   2.157   3.299   1.395 -0.3263  2.0670  1.1774
 7087SOL    HW328121   2.063   3.310   1.513  0.2307 -0.0875  1.8811
 7087SOL    MW428122   2.109   3.262   1.457  0.1195  0.9222  0.8647
 7088SOL     OW28123   2.246   1.580   2.392 -0.4603 -0.2692  0.0942
 7088SOL    HW228124   2.279   1.491   2.377 -0.7741 -0.5270  0.8623
 7088SOL    HW328125   2.305   1.636   2.342 -0.0308 -0.8800 -0.0999
 7088SOL    MW428126   2.258   1.576   2.384 -0.4450 -0.3838  0.1699
 7089SOL     OW28127   0.749   5.622   4.572  0.1019  0.3140 -0.1663
 7089SOL    HW228128   0.716   5.623   4.482 -0.6496 -0.1126  0.0920
 7089SOL    HW328129   0.682   5.574   4.621 -0.6217  2.4495  1.0567
 7089SOL    MW428130   0.736   5.616   4.567 -0.0928  0.5395  0.0291
 7090SOL     OW28131   1.898   5.710   0.547  0.3564  0.0873 -0.0773
 7090SOL    HW228132   1.933   5.630   0.588 -2.1476 -0.3639  1.4123
 7090SOL    HW328133   1.866   5.681   0.462  0.8835 -0.1561 -0.1938
 7090SOL    MW428134   1.898   5.696   0.542  0.0956 -0.0044  0.1038
 7091SOL     OW28135   5.006   4.374   0.102  0.5717  0.3903 -0.2382
 7091SOL    HW228136   5.085   4.402   0.056  1.6274  0.2585  1.4381
 7091SOL    HW328137   5.002   4.428   0.180  0.1369 -0.9844  0.7326
 7091SOL    MW428138   5.016   4.385   0.106  0.6536  0.1916  0.1111
 7092SOL     OW28139   0.175   2.351   0.855 -0.7236  0.2346  0.4946
 7092SOL    HW228140   0.156   2.259   0.837 -0.7152  0.5835 -1.5664
 7092SOL    HW328141   0.269   2.360   0.838 -1.0027  0.9053 -0.7974
 7092SOL    MW428142   0.185   2.340   0.851 -0.7593  0.3691  0.0522
 7093SOL     OW28143   4.326   5.644   3.995  0.1649  0.2121  0.5049
 7093SOL    HW228144   4.342   5.730   3.955 -0.7057  0.7056  1.1790
 7093SOL    HW328145   4.311   5.663   4.087  0.4729 -0.7318  0.7608
 7093SOL    MW428146   4.326   5.658   4.002  0.0907  0.1527  0.6276
 7094SOL     OW28147   1.872   4.727   6.063  0.1991 -0.3197 -0.3815
 7094SOL    HW228148   1.901   4.766   6.146  1.4847 -1.4827 -0.2507
 7094SOL    HW328149   1.953   4.711   6.015 -0.4601 -0.7492 -1.3751
 7094SOL    MW428150   1.886   4.730   6.068  0.2817 -0.5298 -0.4953
 7095SOL     OW28151   0.489   2.102   4.359 -0.2363  0.7495  0.2146
 7095SOL    HW228152   0.580   2.074   4.372 -0.3479 -0.3622 -1.0962
 7095SOL    HW328153   0.437   2.025   4.381 -0.8447  1.2794  0.6399
 7095SOL    MW428154   0.494   2.088   4.363 -0.3313  0.6728  0.0978
 7096SOL     OW28155   3.180   1.390   3.212  0.3376 -0.1943  0.4493
 7096SOL    HW228156   3.271   1.375   3.237 -0.1407 -1.3647  1.5996
 7096SOL    HW328157   3.157   1.316   3.156  0.3281  0.5330 -0.5287
 7096SOL    MW428158   3.189   1.378   3.208  0.2733 -0.2528  0.4720
 7097SOL     OW28159   6.305   1.722   4.502  0.1767 -0.7083 -0.3752
 7097SOL    HW228160   6.239   1.652   4.500 -0.0987 -0.4417 -0.7667
 7097SOL    HW328161   6.271   1.788   4.442  0.3124 -0.1182  0.1962
 7097SOL    MW428162   6.292   1.721   4.494  0.1583 -0.5953 -0.3514
 7098SOL     OW28163   3.764   2.298   1.250  0.5088 -0.1059  0.2520
 7098SOL    HW228164   3.773   2.391   1.227  0.5097 -0.0950  0.2957
 7098SOL    HW328165   3.688   2.268   1.199  0.7326 -0.1740 -0.0419
 7098SOL    MW428166   3.755   2.307   1.240  0.5385 -0.1134  0.2190
 7099SOL     OW28167   2.276   5.633   3.226  0.3294 -0.3098 -0.3575
 7099SOL    HW228168   2.207   5.698   3.241  0.2140 -0.4082 -0.4654
 7099SOL    HW328169   2.308   5.612   3.314 -0.1701 -0.6946 -0.2629
 7099SOL    MW428170   2.271   5.639   3.240  0.2483 -0.3735 -0.3592
 7100SOL     OW28171   0.537   2.431   4.463  0.3474 -0.0272  0.9781
 7100SOL    HW228172   0.557   2.339   4.445 -0.1117 -0.0017  0.3162
 7100SOL    HW328173   0.496   2.430   4.550  1.3558 -0.3077  1.4637
 7100SOL    MW428174   0.534   2.419   4.472  0.4199 -0.0608  0.9548
 7101SOL     OW28175   3.793   0.732   3.500 -0.0353  0.1296 -0.3284
 7101SOL    HW228176   3.732   0.793   3.459 -0.0410  0.2559 -0.1331
 7101SOL    HW328177   3.781   0.650   3.452 -0.7788 -0.0116  0.0811
 7101SOL    MW428178   3.783   0.729   3.489 -0.1341  0.1276 -0.2486
 7102SOL     OW28179   3.610   5.159   4.018 -0.4383 -0.3988  0.3765
 7102SOL    HW228180   3.641   5.184   4.106 -0.2617  0.3884  0.0977
 7102SOL    HW328181   3.623   5.237   3.965  1.3905 -1.4636 -0.8786
 7102SOL    MW428182   3.616   5.172   4.023 -0.1737 -0.4354  0.1741
 7103SOL     OW28183   1.990   1.948   0.881 -0.2631  0.0171  0.0828
 7103SOL    HW228184   2.052   2.018   0.861  0.2562 -0.8727 -1.6624
 7103SOL    HW328185   1.913   1.968   0.829 -0.2958 -0.4402 -0.0491
 7103SOL    MW428186   1.988   1.960   0.871 -0.1989 -0.1606 -0.1649
 7104SOL     OW28187   1.464   6.037   2.090 -0.3239  0.3626  0.5007
 7104SOL    HW228188   1.542   6.081   2.057  0.2359 -0.5598  0.5617
 7104SOL    HW328189   1.406   6.029   2.014 -0.0032  0.2723  0.2688
 7104SOL    MW428190   1.466   6.042   2.076 -0.2078  0.2290  0.4781
 7105SOL     OW28191   0.753   3.221   0.839 -0.1675  0.0094  0.9982
 7105SOL    HW228192   0.794   3.274   0.907  1.6510 -1.0978  0.8400
 7105SOL    HW328193   0.816   3.151   0.822 -0.8351 -0.1072 -1.3927
 7105SOL    MW428194   0.767   3.219   0.845 -0.0157 -0.1520  0.6619
 7106SOL     OW28195   0.722   2.877   1.900  0.2449  0.3377 -0.3673
 7106SOL    HW228196   0.776   2.945   1.940  0.0871  1.5583 -2.1219
 7106SOL    HW328197   0.666   2.847   1.972  2.1942  0.0604  1.1246
 7106SOL    MW428198   0.721   2.882   1.915  0.4812  0.4621 -0.4020
 7107SOL     OW28199   6.188   4.056   1.205  0.2129  0.0545 -0.5098
 7107SOL    HW228200   6.270   4.101   1.224  1.2616 -0.5106 -3.1844
 7107SOL    HW328201   6.159   4.021   1.290  2.2482  1.0129  0.6508
 7107SOL    MW428202   6.195   4.057   1.219  0.6198  0.1064 -0.7096
 7108SOL     OW28203   5.505   0.593   4.330  0.0130 -0.2797  0.0711
 7108SOL    HW228204   5.511   0.597   4.426 -0.5489  1.4739  0.0709
 7108SOL    HW328205   5.595   0.578   4.302 -0.0075 -2.3041  0.8789
 7108SOL    MW428206   5.518   0.591   4.339 -0.0638 -0.3154  0.1776
 7109SOL     OW28207   2.918   4.747   3.994 -0.2218  0.0264 -0.0380
 7109SOL    HW228208   2.946   4.680   4.056  0.9951 -2.0111 -2.6313
 7109SOL    HW328209   2.997   4.773   3.948 -1.4126 -0.4997 -2.5366
 7109SOL    MW428210   2.932   4.742   3.996 -0.2183 -0.3118 -0.7098
 7110SOL     OW28211   2.701   1.365   1.891  0.5562  0.5238 -0.0327
 7110SOL    HW228212   2.778   1.420   1.876  2.0651 -0.9593  1.7433
 7110SOL    HW328213   2.634   1.425   1.921  1.4743  1.6642 -0.1622
 7110SOL    MW428214   2.703   1.380   1.893  0.8764  0.4786  0.1846
 7111SOL     OW28215   0.879   6.117   3.587 -0.2206  0.0190  0.4936
 7111SOL    HW228216   0.918   6.057   3.523  1.4369 -0.1665  1.6207
 7111SOL    HW328217   0.914   6.203   3.563 -0.4760  0.1259  0.4998
 7111SOL    MW428218   0.889   6.120   3.575 -0.0356  0.0087  0.6431
 7112SOL     OW28219   1.919   2.842   2.602  0.4400 -0.0327 -0.6090
 7112SOL    HW228220   1.843   2.856   2.658  1.8724 -0.6550  1.6479
 7112SOL    HW328221   1.913   2.750   2.576  0.4211 -0.0905 -0.4025
 7112SOL    MW428222   1.908   2.832   2.606  0.6265 -0.1224 -0.2840
 7113SOL     OW28223   5.038   6.010   5.708  0.0006  0.5522  0.3871
 7113SOL    HW228224   4.957   6.045   5.673  0.5078  1.4429  0.0771
 7113SOL    HW328225   5.107   6.059   5.663  0.6782  2.0693  2.8740
 7113SOL    MW428226   5.037   6.021   5.698  0.1570  0.8699  0.6743
 7114SOL     OW28227   4.632   5.076   1.598  0.7204 -0.2651 -0.2301
 7114SOL    HW228228   4.576   5.147   1.630  1.1891  0.1047 -0.2299
 7114SOL    HW328229   4.586   4.996   1.626 -0.5481 -0.0149 -1.4565
 7114SOL    MW428230   4.618   5.074   1.606  0.6148 -0.1833 -0.3919
 7115SOL     OW28231   4.949   5.607   5.663  0.0514  0.0641  0.7517
 7115SOL    HW228232   5.033   5.653   5.661  0.0830  0.0299 -1.2738
 7115SOL    HW328233   4.919   5.615   5.753  0.1309  3.9143  0.6155
 7115SOL    MW428234   4.956   5.614   5.674  0.0661  0.5676  0.4665
 7116SOL     OW28235   3.109   2.143   2.152 -0.3850  0.2078  0.2021
 7116SOL    HW228236   3.173   2.210   2.176  0.4806 -0.4661 -0.1976
 7116SOL    HW328237   3.149   2.097   2.079 -1.5210  0.0476 -0.3309
 7116SOL    MW428238   3.123   2.146   2.146 -0.4207  0.0977  0.0790
 7117SOL     OW28239   4.023   3.713   1.248  0.0210  0.1570 -0.2722
 7117SOL    HW228240   3.969   3.695   1.172 -0.4107  0.5907 -0.0754
 7117SOL    HW328241   4.056   3.628   1.276 -2.0926 -0.4023  0.7396
 7117SOL    MW428242   4.020   3.700   1.242 -0.3148  0.1404 -0.1128
 7118SOL     OW28243   1.549   2.182   1.688  0.5807  0.0278  0.3011
 7118SOL    HW228244   1.593   2.099   1.675  0.6912 -0.0611  1.1860
 7118SOL    HW328245   1.591   2.242   1.625  0.2698 -0.6535 -0.5707
 7118SOL    MW428246   1.560   2.179   1.678  0.5543 -0.0739  0.3028
 7119SOL     OW28247   4.397   2.013   3.623  0.3730  0.0275  0.0202
 7119SOL    HW228248   4.365   1.940   3.675  0.3767 -0.6179 -0.8615
 7119SOL    HW328249   4.400   2.087   3.684 -3.2395  0.2897  0.0696
 7119SOL    MW428250   4.393   2.013   3.638 -0.1031 -0.0231 -0.0896
 7120SOL     OW28251   5.869   1.901   2.743  0.2270  0.1543 -0.1285
 7120SOL    HW228252   5.833   1.973   2.794  1.1146  0.2639  0.3721
 7120SOL    HW328253   5.825   1.823   2.778 -0.2214  0.3798 -0.1889
 7120SOL    MW428254   5.859   1.900   2.754  0.2849  0.1985 -0.0704
 7121SOL     OW28255   0.132   1.408   4.047  0.0857  0.1732 -0.4925
 7121SOL    HW228256   0.226   1.389   4.054  1.2125  3.8503 -2.8142
 7121SOL    HW328257   0.103   1.363   3.968 -0.5546 -2.0729  0.9442
 7121SOL    MW428258   0.141   1.400   4.038  0.1499  0.3620 -0.6093
 7122SOL     OW28259   0.357   4.438   1.738  0.4474  0.6479 -0.6553
 7122SOL    HW228260   0.290   4.375   1.765 -0.3274  1.7156  0.0216
 7122SOL    HW328261   0.408   4.454   1.818  1.0265  0.4210 -0.9771
 7122SOL    MW428262   0.355   4.432   1.752  0.4216  0.7588 -0.6084
 7123SOL     OW28263   0.554   2.936   5.338 -0.0022  1.0454 -0.1992
 7123SOL    HW228264   0.587   2.862   5.288 -1.6697 -0.9383  1.4714
 7123SOL    HW328265   0.631   2.974   5.379  1.0016  0.8821 -1.8346
 7123SOL    MW428266   0.569   2.931   5.337 -0.0898  0.7622 -0.1945
 7124SOL     OW28267   3.672   3.683   5.741  1.0851  0.4350  0.0250
 7124SOL    HW228268   3.582   3.667   5.716  1.1594 -2.5765  1.2442
 7124SOL    HW328269   3.719   3.695   5.659  0.2080 -2.1589 -0.9434
 7124SOL    MW428270   3.667   3.683   5.727  0.9792 -0.3046  0.0581
 7125SOL     OW28271   3.530   3.396   0.429 -0.0576  0.7433 -0.6140
 7125SOL    HW228272   3.574   3.391   0.514  0.2063  0.1077 -0.7834
 7125SOL    HW328273   3.522   3.490   0.412  2.8751  0.9417 -1.4079
 7125SOL    MW428274   3.535   3.408   0.438  0.3642  0.6857 -0.7411
 7126SOL     OW28275   0.155   3.947   2.611  0.0320 -0.5624 -0.4557
 7126SOL    HW228276   0.202   4.028   2.630  0.5657 -0.8101 -0.6962
 7126SOL    HW328277   0.224   3.885   2.584 -0.3661 -1.0984 -0.2545
 7126SOL    MW428278   0.171   3.949   2.610  0.0499 -0.6658 -0.4609
 7127SOL     OW28279   3.798   1.283   4.140  0.3071 -0.0025  0.8786
 7127SOL    HW228280   3.882   1.244   4.168  0.6138 -1.5932 -1.8969
 7127SOL    HW328281   3.822   1.345   4.072 -0.7586 -0.6840 -0.1560
 7127SOL    MW428282   3.813   1.286   4.135  0.2069 -0.3023  0.3759
 7128SOL     OW28283   2.841   1.124   4.991 -0.1409 -0.0945 -0.3402
 7128SOL    HW228284   2.931   1.146   5.014 -0.5100  0.0054  1.0867
 7128SOL    HW328285   2.811   1.067   5.062 -1.3031  0.1187 -0.6311
 7128SOL    MW428286   2.849   1.119   5.004 -0.3429 -0.0532 -0.1903
 7129SOL     OW28287   2.479   6.322   0.857 -0.1904 -0.5688 -0.1235
 7129SOL    HW228288   2.534   6.246   0.838  0.8936  0.1409  0.0528
 7129SOL    HW328289   2.539   6.385   0.897 -0.7070  0.9392 -1.5827
 7129SOL    MW428290   2.494   6.320   0.860 -0.1155 -0.2762 -0.2927
 7130SOL     OW28291   4.774   0.592   3.234  0.4027 -0.1451  0.4088
 7130SOL    HW228292   4.837   0.571   3.303  1.2384 -1.3361 -0.6734
 7130SOL    HW328293   4.766   0.512   3.182 -0.7155  0.5053 -0.4987
 7130SOL    MW428294   4.781   0.579   3.236  0.3655 -0.2164  0.1463
 7131SOL     OW28295   0.484   5.101   4.209 -0.3515  0.7002  0.2484
 7131SOL    HW228296   0.546   5.105   4.281  0.9332  0.0231 -0.7782
 7131SOL    HW328297   0.398   5.092   4.252  0.4796 -1.0228  1.6924
 7131SOL    MW428298   0.481   5.100   4.224 -0.0723  0.3835  0.3035
 7132SOL     OW28299   2.390   3.416   5.296  0.2380 -0.3442  0.4879
 7132SOL    HW228300   2.396   3.426   5.391  0.6109  0.3034  0.3965
 7132SOL    HW328301   2.334   3.489   5.268  0.8763  0.0015  0.1084
 7132SOL    MW428302   2.383   3.427   5.305  0.3714 -0.2132  0.4257
 7133SOL     OW28303   1.327   0.437   2.420 -0.0119  0.1051 -0.2595
 7133SOL    HW228304   1.307   0.405   2.332 -1.5657 -1.0531  0.4627
 7133SOL    HW328305   1.380   0.368   2.460  0.9717  0.7751 -0.3784
 7133SOL    MW428306   1.332   0.424   2.414 -0.0871  0.0407 -0.1799
 7134SOL     OW28307   4.581   0.302   5.075  0.3209  0.3558 -0.0103
 7134SOL    HW228308   4.559   0.393   5.056  1.0416  0.3979 -0.7200
 7134SOL    HW328309   4.646   0.307   5.146  0.0388  0.3710  0.2471
 7134SOL    MW428310   4.587   0.315   5.082  0.3787  0.3633 -0.0699
 7135SOL     OW28311   0.279   0.183   4.637  0.0497 -0.1290  0.5080
 7135SOL    HW228312   0.224   0.169   4.714  1.2417 -1.2475  1.1909
 7135SOL    HW328313   0.366   0.201   4.672 -0.0330  2.7341 -0.5172
 7135SOL    MW428314   0.283   0.184   4.651  0.1960  0.1012  0.4628
 7136SOL     OW28315   0.826   1.308   1.253  0.8762 -0.2856 -0.3938
 7136SOL    HW228316   0.836   1.358   1.172  1.5934  1.0097  0.4535
 7136SOL    HW328317   0.823   1.375   1.322 -2.7759 -1.1108  0.4872
 7136SOL    MW428318   0.827   1.324   1.252  0.4890 -0.2235 -0.1658
 7137SOL     OW28319   0.247   2.541   1.736 -0.9451  0.0667 -0.0402
 7137SOL    HW228320   0.240   2.461   1.788  0.2355 -0.1290 -0.1595
 7137SOL    HW328321   0.225   2.611   1.798 -0.6306 -0.2484  0.4341
 7137SOL    MW428322   0.243   2.540   1.751 -0.7479 -0.0007  0.0066
 7138SOL     OW28323   3.233   0.741   1.149  0.4371 -0.0082  0.4214
 7138SOL    HW228324   3.285   0.798   1.093  1.7714 -1.1210  0.4562
 7138SOL    HW328325   3.294   0.671   1.174 -1.0690 -1.3327  0.5335
 7138SOL    MW428326   3.248   0.739   1.145  0.4144 -0.3298  0.4408
 7139SOL     OW28327   1.345   5.341   4.919  0.3634 -0.4773  0.3286
 7139SOL    HW228328   1.334   5.251   4.952 -2.4414 -0.7276 -0.9927
 7139SOL    HW328329   1.308   5.396   4.989  1.6999 -0.3355  0.9548
 7139SOL    MW428330   1.339   5.336   4.933  0.1697 -0.4916  0.2369
 7140SOL     OW28331   1.335   3.780   0.768  0.0605  0.0638 -0.1446
 7140SOL    HW228332   1.276   3.844   0.807 -1.1048 -1.1859  0.2570
 7140SOL    HW328333   1.423   3.812   0.787 -0.4566  2.1518 -1.0363
 7140SOL    MW428334   1.339   3.793   0.776 -0.1615  0.1744 -0.2093
 7141SOL     OW28335   4.463   0.293   2.310  0.2873  0.0750  0.2292
 7141SOL    HW228336   4.432   0.306   2.220  0.8375  0.2671  0.0627
 7141SOL    HW328337   4.473   0.198   2.318 -1.4715 -0.1044  0.6813
 7141SOL    MW428338   4.460   0.282   2.299  0.1278  0.0767  0.2669
 7142SOL     OW28339   2.205   0.763   4.559  0.3985  0.2734  0.2739
 7142SOL    HW228340   2.300   0.750   4.554  0.0680 -2.5637 -0.0510
 7142SOL    HW328341   2.193   0.820   4.635  2.4083  2.0532 -0.6078
 7142SOL    MW428342   2.216   0.769   4.568  0.6201  0.1339  0.1147
 7143SOL     OW28343   3.840   3.522   4.122  0.3157  0.0167 -0.6507
 7143SOL    HW228344   3.899   3.589   4.089  0.3320  0.9760  1.1804
 7143SOL    HW328345   3.755   3.566   4.130  0.3142 -0.1439  0.5273
 7143SOL    MW428346   3.836   3.537   4.119  0.3176  0.1220 -0.2537
 7144SOL     OW28347   0.839   0.005   1.748  0.1819 -0.3467  0.1290
 7144SOL    HW228348   0.772   0.050   1.696  0.1682 -0.7221 -0.1836
 7144SOL    HW328349   0.882  -0.054   1.685  0.3839 -0.5656  0.4714
 7144SOL    MW428350   0.836   0.003   1.733  0.2067 -0.4251  0.1330
 7145SOL     OW28351   0.920   0.045   5.282 -0.4283 -0.0682 -0.1029
 7145SOL    HW228352   0.832   0.011   5.264 -0.5493 -0.0916  0.5115
 7145SOL    HW328353   0.971  -0.033   5.306  0.1403 -0.2707 -1.7988
 7145SOL    MW428354   0.915   0.030   5.283 -0.3692 -0.0980 -0.2456
 7146SOL     OW28355   5.083   0.758   2.343 -0.0529  0.5592  0.3087
 7146SOL    HW228356   5.040   0.691   2.396 -1.0240  1.1469  0.2839
 7146SOL    HW328357   5.152   0.711   2.296  0.6778 -0.0321  1.8784
 7146SOL    MW428358   5.087   0.743   2.344 -0.0846  0.5588  0.5125
 7147SOL     OW28359   2.420   1.997   4.623  0.0700 -0.0082 -0.4286
 7147SOL    HW228360   2.403   1.943   4.700  1.0535 -0.0960 -0.2624
 7147SOL    HW328361   2.473   1.941   4.566  0.3785  0.4803 -0.6272
 7147SOL    MW428362   2.425   1.982   4.626  0.2404  0.0447 -0.4329
 7148SOL     OW28363   5.243   1.560   4.659  0.1377  0.5174 -0.4905
 7148SOL    HW228364   5.152   1.547   4.683 -0.0582  0.0826 -1.4091
 7148SOL    HW328365   5.286   1.587   4.740 -0.4201 -1.1891  0.4294
 7148SOL    MW428366   5.237   1.562   4.673  0.0383  0.2348 -0.4903
 7149SOL     OW28367   2.261   1.130   4.128 -0.5583  0.1108 -0.1503
 7149SOL    HW228368   2.216   1.069   4.070 -0.9296 -1.4305  1.6253
 7149SOL    HW328369   2.201   1.140   4.203  1.3539 -0.8833  1.6222
 7149SOL    MW428370   2.247   1.123   4.130 -0.3550 -0.2237  0.3178
 7150SOL     OW28371   1.479   2.626   5.100  0.1064  0.1330 -0.1285
 7150SOL    HW228372   1.445   2.556   5.045 -0.4710  0.3001  0.0033
 7150SOL    HW328373   1.574   2.618   5.094  0.0789 -1.5781  1.0299
 7150SOL    MW428374   1.487   2.616   5.092  0.0266 -0.0707  0.0417
 7151SOL     OW28375   1.712   6.398   4.969 -0.6646  0.1175  0.5908
 7151SOL    HW228376   1.675   6.393   5.057  0.9634 -0.7636  1.2720
 7151SOL    HW328377   1.677   6.480   4.933 -0.8637  0.8252  2.3004
 7151SOL    MW428378   1.703   6.408   4.976 -0.4761  0.0946  0.9063
 7152SOL     OW28379   2.683   3.807   5.870 -0.4616  0.0945 -0.1155
 7152SOL    HW228380   2.666   3.891   5.827  2.1588  0.8123  0.0659
 7152SOL    HW328381   2.688   3.744   5.798  0.5835  0.6771 -0.5714
 7152SOL    MW428382   2.681   3.809   5.855  0.0220  0.2661 -0.1517
 7153SOL     OW28383   2.682   2.395   5.672  0.1110  0.1565  0.3400
 7153SOL    HW228384   2.672   2.458   5.601 -0.1945 -1.2022 -0.8611
 7153SOL    HW328385   2.601   2.402   5.722  0.2200  0.9394  0.4235
 7153SOL    MW428386   2.670   2.404   5.669  0.0851  0.0805  0.1925
 7154SOL     OW28387   4.754   2.116   3.315  0.4301 -0.7725 -0.8359
 7154SOL    HW228388   4.671   2.072   3.331  1.0192 -1.0487  1.9106
 7154SOL    HW328389   4.820   2.047   3.322  1.0397 -0.2502 -1.2367
 7154SOL    MW428390   4.752   2.101   3.318  0.5882 -0.7401 -0.5264
 7155SOL     OW28391   6.206   5.151   6.175 -0.4257  0.1673  0.3007
 7155SOL    HW228392   6.246   5.110   6.098  0.1528  2.6689 -0.8292
 7155SOL    HW328393   6.277   5.156   6.239 -0.5436 -0.6717  0.5103
 7155SOL    MW428394   6.221   5.146   6.174 -0.3649  0.3866  0.1793
 7156SOL     OW28395   3.863   4.422   0.152 -0.1567 -0.4288  0.7542
 7156SOL    HW228396   3.914   4.388   0.226 -0.3957 -0.3557  0.9519
 7156SOL    HW328397   3.788   4.363   0.144  0.1548 -0.7639  0.2184
 7156SOL    MW428398   3.860   4.410   0.161 -0.1471 -0.4633  0.7096
 7157SOL     OW28399   0.889   0.923   4.318  0.5662 -0.5146  0.1245
 7157SOL    HW228400   0.863   0.976   4.242  1.9135  1.9734  1.2861
 7157SOL    HW328401   0.860   0.973   4.394  0.1995 -2.4281  1.3094
 7157SOL    MW428402   0.882   0.936   4.318  0.6956 -0.4388  0.4341
 7158SOL     OW28403   6.101   0.531   5.278 -0.6465 -0.0470  0.1926
 7158SOL    HW228404   6.050   0.545   5.199  0.6365  0.5570 -0.5611
 7158SOL    HW328405   6.074   0.602   5.337  0.5147  1.3284 -0.8531
 7158SOL    MW428406   6.090   0.543   5.276 -0.3240  0.2141 -0.0448
 7159SOL     OW28407   1.723   4.516   5.990 -0.2674  0.5177 -0.3203
 7159SOL    HW228408   1.657   4.500   6.058 -0.7250  1.1247 -0.6068
 7159SOL    HW328409   1.772   4.592   6.022  1.3312 -0.8515  0.6282
 7159SOL    MW428410   1.721   4.524   6.003 -0.1168  0.4171 -0.2329
 7160SOL     OW28411   2.337   3.261   0.483 -0.0882  0.4540 -0.3522
 7160SOL    HW228412   2.249   3.299   0.490  0.1639  0.9721  0.0757
 7160SOL    HW328413   2.396   3.333   0.506  0.3874 -0.2507  0.6859
 7160SOL    MW428414   2.333   3.275   0.487  0.0078  0.4293 -0.1588
 7161SOL     OW28415   3.987   1.362   0.532  0.2643 -0.4584 -0.4410
 7161SOL    HW228416   3.919   1.362   0.463  0.1760  1.3668 -0.4098
 7161SOL    HW328417   4.068   1.344   0.485  0.1550  0.4115 -0.9909
 7161SOL    MW428418   3.988   1.360   0.516  0.2382 -0.1028 -0.5094
 7162SOL     OW28419   4.694   5.993   0.150 -0.0110  0.2808  0.0861
 7162SOL    HW228420   4.659   5.916   0.104 -1.4230  0.5198  0.7167
 7162SOL    HW328421   4.777   5.963   0.186  0.0032 -0.6109 -0.6269
 7162SOL    MW428422   4.700   5.979   0.148 -0.1954  0.1947  0.0752
 7163SOL     OW28423   4.829   2.311   4.102  0.5853  0.1724  0.0240
 7163SOL    HW228424   4.820   2.335   4.010 -0.7261  0.8128  0.2915
 7163SOL    HW328425   4.895   2.242   4.103 -0.4837 -0.9389 -1.5932
 7163SOL    MW428426   4.836   2.305   4.090  0.2712  0.1103 -0.1540
 7164SOL     OW28427   2.791   1.752   5.362 -0.4075  0.1250  0.4255
 7164SOL    HW228428   2.800   1.847   5.355 -2.2686  0.3469  0.4723
 7164SOL    HW328429   2.804   1.721   5.272  1.0859  0.3101  0.5566
 7164SOL    MW428430   2.794   1.761   5.349 -0.4560  0.1787  0.4490
 7165SOL     OW28431   5.388   4.310   0.598  0.3580 -0.6247 -0.1650
 7165SOL    HW228432   5.355   4.236   0.648 -1.7425  0.6763  0.4790
 7165SOL    HW328433   5.356   4.295   0.509  0.2042 -0.6483 -0.1054
 7165SOL    MW428434   5.380   4.298   0.593  0.0605 -0.4562 -0.0722
 7166SOL     OW28435   5.980   1.894   3.170 -0.0156  0.0670 -0.1187
 7166SOL    HW228436   6.018   1.901   3.258 -1.6355  0.3423  0.5941
 7166SOL    HW328437   5.972   1.985   3.140 -1.8127  0.1539  0.5293
 7166SOL    MW428438   5.984   1.907   3.178 -0.4664  0.1148  0.0608
 7167SOL     OW28439   6.298   3.802   4.652  0.3174 -0.0057 -0.3386
 7167SOL    HW228440   6.306   3.865   4.580  3.1047  1.2646  0.9035
 7167SOL    HW328441   6.205   3.802   4.673  0.0662  3.3187 -0.8068
 7167SOL    MW428442   6.287   3.811   4.645  0.6520  0.6005 -0.2365
 7168SOL     OW28443   1.286   6.076   3.499 -0.0610 -0.1042  0.0855
 7168SOL    HW228444   1.339   6.105   3.425  0.8026 -0.8397  0.4065
 7168SOL    HW328445   1.305   5.983   3.508  1.1334  0.2815  2.2436
 7168SOL    MW428446   1.295   6.068   3.490  0.2106 -0.1504  0.4126
 7169SOL     OW28447   1.892   3.991   1.523 -0.1424  0.3782 -0.1048
 7169SOL    HW228448   1.799   3.989   1.502 -0.5271  1.0753  1.3643
 7169SOL    HW328449   1.895   4.004   1.618  1.4012  3.1329 -0.3964
 7169SOL    MW428450   1.880   3.993   1.533  0.0105  0.8336  0.0505
 7170SOL     OW28451   4.859   1.727   0.900 -0.1346  0.1244  0.3510
 7170SOL    HW228452   4.895   1.814   0.919  0.4813 -0.1029  0.2664
 7170SOL    HW328453   4.778   1.744   0.852  0.3856  0.6409 -0.3554
 7170SOL    MW428454   4.853   1.741   0.897  0.0153  0.1626  0.2466
 7171SOL     OW28455   4.088   2.722   5.993  0.8491  0.0225 -0.0647
 7171SOL    HW228456   4.105   2.774   5.914  0.5011  1.8737  1.0221
 7171SOL    HW328457   4.021   2.772   6.040 -0.1472 -1.8903  0.6338
 7171SOL    MW428458   4.081   2.736   5.989  0.6717  0.0144  0.1709
 7172SOL     OW28459   4.280   2.455   4.352  0.0900  1.0381 -0.1756
 7172SOL    HW228460   4.289   2.547   4.326 -2.2686  1.6326  0.8110
 7172SOL    HW328461   4.192   2.431   4.324  0.2123 -0.5431  0.7016
 7172SOL    MW428462   4.270   2.464   4.345 -0.2050  0.9079  0.0703
 7173SOL     OW28463   5.067   4.404   5.202 -0.3623 -0.6412  0.2054
 7173SOL    HW228464   5.062   4.310   5.216  1.0415 -0.6736  0.6700
 7173SOL    HW328465   4.985   4.427   5.160 -0.9251 -1.9929  0.5353
 7173SOL    MW428466   5.056   4.395   5.198 -0.2514 -0.8238  0.3102
 7174SOL     OW28467   0.920   2.763   5.522 -0.0028  0.0415  0.5442
 7174SOL    HW228468   0.882   2.847   5.499  0.4669  0.2717  0.5883
 7174SOL    HW328469   0.863   2.729   5.591 -0.5839  0.0068  0.0568
 7174SOL    MW428470   0.908   2.770   5.528 -0.0175  0.0673  0.4857
 7175SOL     OW28471   3.636   5.736   2.482 -0.4347  0.1610  0.1263
 7175SOL    HW228472   3.633   5.803   2.551  0.7440  0.8034 -0.4021
 7175SOL    HW328473   3.610   5.655   2.525 -0.8059  0.7597  1.0495
 7175SOL    MW428474   3.632   5.734   2.497 -0.3282  0.3247  0.1784
 7176SOL     OW28475   5.116   1.412   3.134 -0.5307 -0.6407  0.6099
 7176SOL    HW228476   5.115   1.325   3.094 -1.8673 -0.5710  0.4660
 7176SOL    HW328477   5.186   1.407   3.200  0.2519 -1.4171 -0.2542
 7176SOL    MW428478   5.125   1.400   3.138 -0.6038 -0.7340  0.4769
 7177SOL     OW28479   0.608   4.173   4.062  0.4687  0.5370  0.1719
 7177SOL    HW228480   0.544   4.226   4.108  1.3470  1.0196  0.8874
 7177SOL    HW328481   0.679   4.235   4.041  0.2819  0.2249 -1.4439
 7177SOL    MW428482   0.609   4.188   4.066  0.5599  0.5595  0.0531
 7178SOL     OW28483   5.138   1.003   2.153  0.1716  0.1857 -0.2423
 7178SOL    HW228484   5.111   0.920   2.116 -1.1753 -0.2211  1.5301
 7178SOL    HW328485   5.059   1.040   2.191  0.5049  2.8106 -1.8696
 7178SOL    MW428486   5.124   0.997   2.153  0.0379  0.4784 -0.2231
 7179SOL     OW28487   4.249   5.358   3.311  0.5451  0.0260 -0.1482
 7179SOL    HW228488   4.333   5.333   3.349  0.5155 -1.9226 -1.2327
 7179SOL    HW328489   4.273   5.417   3.239  1.1709 -1.8229 -1.5210
 7179SOL    MW428490   4.263   5.363   3.306  0.6238 -0.4750 -0.4724
 7180SOL     OW28491   5.245   2.210   1.490 -0.3416 -0.3065 -0.1681
 7180SOL    HW228492   5.304   2.177   1.557 -0.3738  0.7912  0.4341
 7180SOL    HW328493   5.161   2.167   1.508  0.0883 -1.3412 -0.6000
 7180SOL    MW428494   5.242   2.200   1.501 -0.2891 -0.2982 -0.1456
 7181SOL     OW28495   5.142   5.807   0.111  0.3358  0.2558 -0.4817
 7181SOL    HW228496   5.085   5.732   0.097 -1.7810  1.6521  0.2347
 7181SOL    HW328497   5.227   5.779   0.077 -0.4601 -2.3062 -0.5619
 7181SOL    MW428498   5.146   5.794   0.104 -0.0485  0.1020 -0.3978
 7182SOL     OW28499   2.162   0.363   1.480  0.8497 -0.3732 -0.4524
 7182SOL    HW228500   2.140   0.356   1.387 -0.5872  1.2231 -0.2819
 7182SOL    HW328501   2.216   0.442   1.486  2.1010 -1.2397 -0.0973
 7182SOL    MW428502   2.166   0.373   1.468  0.8252 -0.2769 -0.3831
 7183SOL     OW28503   3.113   2.600   0.729 -0.3443  0.1888  0.2329
 7183SOL    HW228504   3.037   2.651   0.703 -0.1383  0.3067 -0.1439
 7183SOL    HW328505   3.098   2.513   0.692  0.1444  0.4683 -0.6658
 7183SOL    MW428506   3.101   2.595   0.721 -0.2527  0.2412  0.0646
 7184SOL     OW28507   1.598   5.204   2.620  0.1475  1.0205 -0.3272
 7184SOL    HW228508   1.650   5.281   2.643  1.2363  0.5480 -1.1299
 7184SOL    HW328509   1.510   5.238   2.605  0.0485  1.7696  1.5632
 7184SOL    MW428510   1.593   5.218   2.621  0.2781  1.0570 -0.1837
 7185SOL     OW28511   6.225   6.405   2.421  0.3306  0.5420  0.2787
 7185SOL    HW228512   6.271   6.335   2.468 -0.4908 -0.3258 -0.1595
 7185SOL    HW328513   6.189   6.361   2.344 -0.1346  1.4759 -0.0436
 7185SOL    MW428514   6.226   6.390   2.417  0.1609  0.5507  0.1784
 7186SOL     OW28515   0.024   1.113   5.198  0.3197  0.7835 -0.3659
 7186SOL    HW228516   0.094   1.110   5.263 -0.3564  0.4496  0.3604
 7186SOL    HW328517  -0.039   1.047   5.228 -0.6738  1.6188 -0.5848
 7186SOL    MW428518   0.025   1.104   5.211  0.0994  0.8497 -0.2989
 7187SOL     OW28519   0.406   1.748   2.582  0.3535 -0.2637  0.3985
 7187SOL    HW228520   0.421   1.749   2.677  1.0023  1.5622  0.3240
 7187SOL    HW328521   0.404   1.655   2.559  0.8510 -0.7373  2.0965
 7187SOL    MW428522   0.408   1.736   2.592  0.5048 -0.0853  0.6127
 7188SOL     OW28523   5.605   1.355   5.818  0.7411 -0.1268  0.0649
 7188SOL    HW228524   5.633   1.267   5.843  1.8335 -1.0118 -3.6533
 7188SOL    HW328525   5.547   1.383   5.889  1.3967 -3.2652  2.0316
 7188SOL    MW428526   5.601   1.347   5.831  0.9717 -0.6576 -0.1662
 7189SOL     OW28527   5.104   0.956   0.339  0.0481 -0.2970  0.1166
 7189SOL    HW228528   5.133   1.001   0.260  1.0632 -0.9292  0.1161
 7189SOL    HW328529   5.008   0.956   0.333  0.0133  1.6246  0.0058
 7189SOL    MW428530   5.095   0.962   0.328  0.1775 -0.1268  0.1019
 7190SOL     OW28531   5.268   2.157   2.592  0.0225 -0.3080 -0.2831
 7190SOL    HW228532   5.303   2.085   2.645 -1.0208 -0.2915  0.4549
 7190SOL    HW328533   5.302   2.140   2.504  1.4174 -0.5903  0.2736
 7190SOL    MW428534   5.277   2.145   2.588  0.0689 -0.3431 -0.1123
 7191SOL     OW28535   4.319   4.957   0.498  0.3120  0.5266 -0.2377
 7191SOL    HW228536   4.345   5.047   0.481  2.9832 -0.2459 -0.6439
 7191SOL    HW328537   4.375   4.929   0.571 -0.9295 -0.6171  0.3247
 7191SOL    MW428538   4.330   4.965   0.505  0.5007  0.2738 -0.2171
 7192SOL     OW28539   6.111   4.891   6.418 -0.3537  0.0848  0.3967
 7192SOL    HW228540   6.060   4.880   6.338  0.1287  0.1976  0.0697
 7192SOL    HW328541   6.049   4.929   6.481 -0.7514 -0.0692  0.1001
 7192SOL    MW428542   6.096   4.895   6.416 -0.3426  0.0794  0.3144
 7193SOL     OW28543   5.338   4.376   1.810 -0.0531  0.3705 -0.1305
 7193SOL    HW228544   5.255   4.358   1.853  0.7215  0.7920  1.6328
 7193SOL    HW328545   5.314   4.399   1.720 -1.8464  0.7132  0.3966
 7193SOL    MW428546   5.324   4.377   1.804 -0.1875  0.4713  0.1717
 7194SOL     OW28547   2.999   0.039   3.236  0.5439  0.0469 -0.0713
 7194SOL    HW228548   3.001   0.031   3.141  1.6362 -0.5166 -0.0162
 7194SOL    HW328549   2.997   0.134   3.252 -1.5454  0.1626 -0.6387
 7194SOL    MW428550   2.999   0.051   3.225  0.4124 -0.0122 -0.1389
 7195SOL     OW28551   4.522   4.064   2.802  0.1092 -0.1058  0.8082
 7195SOL    HW228552   4.470   4.077   2.881 -0.9025 -0.8552  0.2889
 7195SOL    HW328553   4.613   4.068   2.832 -0.2461  0.7072  1.8159
 7195SOL    MW428554   4.527   4.066   2.816 -0.0711 -0.0974  0.8726
 7196SOL     OW28555   0.773   1.009   0.272  1.1951  0.1945  0.5905
 7196SOL    HW228556   0.728   0.960   0.204 -1.0421  1.1599  1.2573
 7196SOL    HW328557   0.702   1.051   0.322  2.8472  1.4559  2.0201
 7196SOL    MW428558   0.758   1.008   0.270  1.1179  0.4883  0.8671
 7197SOL     OW28559   1.066   4.112   1.692 -0.0273  0.5238  0.4870
 7197SOL    HW228560   1.047   4.184   1.632 -1.6924 -0.4410 -0.2131
 7197SOL    HW328561   1.156   4.128   1.720  0.1764  2.0150 -0.8472
 7197SOL    MW428562   1.076   4.124   1.688 -0.2201  0.5932  0.2186
 7198SOL     OW28563   1.225   1.573   2.525 -0.5729  0.0406 -0.0396
 7198SOL    HW228564   1.148   1.627   2.505 -2.0750 -0.4447  3.6203
 7198SOL    HW328565   1.269   1.619   2.596  0.7007 -1.3322  0.1110
 7198SOL    MW428566   1.220   1.587   2.532 -0.6030 -0.2045  0.4632
 7199SOL     OW28567   2.356   0.335   4.383 -0.2614  0.6183 -0.1881
 7199SOL    HW228568   2.334   0.379   4.466 -1.0798  2.4179 -1.3042
 7199SOL    HW328569   2.445   0.364   4.363 -0.2328  0.5437 -0.1704
 7199SOL    MW428570   2.365   0.344   4.392 -0.3656  0.8459 -0.3330
 7200SOL     OW28571   0.681   0.544   5.648  0.0182 -0.6146 -0.4535
 7200SOL    HW228572   0.775   0.549   5.629 -0.3276  1.3105 -1.9487
 7200SOL    HW328573   0.640   0.528   5.563 -1.0445 -1.2893  0.1643
 7200SOL    MW428574   0.688   0.543   5.634 -0.1676 -0.4497 -0.5692
 7201SOL     OW28575   0.424   3.001   6.168 -0.2614  0.2863  0.4465
 7201SOL    HW228576   0.466   2.944   6.104  0.9205  1.7243 -0.1243
 7201SOL    HW328577   0.396   2.942   6.238  0.7017 -1.0076 -0.2111
 7201SOL    MW428578   0.426   2.986   6.169  0.0216  0.3053  0.2845
 7202SOL     OW28579   6.261   6.291   0.333  0.1957  0.1552  0.7525
 7202SOL    HW228580   6.340   6.238   0.333 -0.1391 -0.5884 -2.8033
 7202SOL    HW328581   6.269   6.348   0.257 -1.6039  1.8903  1.7406
 7202SOL    MW428582   6.272   6.292   0.323 -0.0859  0.2861  0.4137
 7203SOL     OW28583   3.801   5.003   2.701 -0.2479  0.3009  0.5879
 7203SOL    HW228584   3.767   4.956   2.778 -0.2487  1.7720  1.5286
 7203SOL    HW328585   3.760   5.090   2.706  0.5175  0.7508 -0.5409
 7203SOL    MW428586   3.791   5.008   2.712 -0.1470  0.5544  0.5631
 7204SOL     OW28587   2.696   2.535   0.070 -0.1336  0.3380  0.3471
 7204SOL    HW228588   2.604   2.513   0.055  0.1995 -2.4546  1.8195
 7204SOL    HW328589   2.694   2.612   0.127 -1.5219  0.4751  0.1363
 7204SOL    MW428590   2.684   2.542   0.075 -0.2728 -0.0124  0.5135
 7205SOL     OW28591   4.941   4.412   2.718  0.1735 -0.3658  0.2244
 7205SOL    HW228592   5.008   4.405   2.786 -1.3112 -2.0320  1.6228
 7205SOL    HW328593   4.873   4.467   2.756 -0.3186 -0.6577 -0.2092
 7205SOL    MW428594   4.941   4.418   2.732 -0.0873 -0.6242  0.3517
 7206SOL     OW28595   0.747   3.943   5.674  0.1931 -0.0018 -0.4786
 7206SOL    HW228596   0.747   3.916   5.765  0.5621  0.0001 -0.4765
 7206SOL    HW328597   0.807   4.018   5.671 -0.5783  0.6296 -0.5376
 7206SOL    MW428598   0.755   3.950   5.685  0.1400  0.0817 -0.4861
 7207SOL     OW28599   1.885   5.704   2.511 -0.2987 -0.5114  0.7971
 7207SOL    HW228600   1.906   5.624   2.558 -1.0954 -1.1147  0.1542
 7207SOL    HW328601   1.840   5.675   2.431 -0.9038  0.5759  0.7104
 7207SOL    MW428602   1.882   5.690   2.507 -0.4837 -0.4475  0.7009
 7208SOL     OW28603   0.308   3.335   1.759 -0.4774  0.1787 -0.3019
 7208SOL    HW228604   0.319   3.290   1.843 -3.1269  1.2929  0.7363
 7208SOL    HW328605   0.364   3.412   1.766 -0.8697  0.3951  0.5576
 7208SOL    MW428606   0.317   3.339   1.771 -0.8787  0.3543 -0.0515
 7209SOL     OW28607   5.723   1.880   3.894  0.0302 -0.2521  0.2245
 7209SOL    HW228608   5.748   1.820   3.964  1.4851 -0.1905 -0.2182
 7209SOL    HW328609   5.729   1.827   3.814  0.7427  0.3008 -0.1036
 7209SOL    MW428610   5.727   1.865   3.893  0.3162 -0.1710  0.1228
 7210SOL     OW28611   4.392   3.640   2.625  0.1208  0.2858  0.4166
 7210SOL    HW228612   4.443   3.720   2.614  0.1159  0.4821  1.6910
 7210SOL    HW328613   4.360   3.620   2.536  0.5594  1.3884 -0.0134
 7210SOL    MW428614   4.394   3.648   2.611  0.1780  0.4572  0.5280
 7211SOL     OW28615   5.187   1.377   6.168 -0.0184  0.4769  0.1013
 7211SOL    HW228616   5.271   1.353   6.131 -0.3110 -0.1412 -0.1813
 7211SOL    HW328617   5.207   1.413   6.255  0.3941 -1.5674  0.9048
 7211SOL    MW428618   5.200   1.378   6.175 -0.0026  0.1256  0.1700
 7212SOL     OW28619   0.132   0.498   0.952 -0.2744 -0.1962 -0.1312
 7212SOL    HW228620   0.048   0.492   0.998  0.0351 -0.5158  0.3987
 7212SOL    HW328621   0.128   0.428   0.886 -1.0237  0.7409 -1.1212
 7212SOL    MW428622   0.120   0.488   0.949 -0.3324 -0.1147 -0.1919
 7213SOL     OW28623   5.622   6.181   3.440  0.0599 -0.3760  0.3555
 7213SOL    HW228624   5.612   6.085   3.439 -0.6219 -0.3080 -0.8383
 7213SOL    HW328625   5.545   6.214   3.396  0.0611  0.7760  1.1774
 7213SOL    MW428626   5.611   6.172   3.434 -0.0299 -0.2150  0.3064
 7214SOL     OW28627   4.638   6.325   4.218 -0.0165 -0.7714 -0.0609
 7214SOL    HW228628   4.671   6.356   4.302 -0.0692  0.3800 -0.4479
 7214SOL    HW328629   4.713   6.334   4.158 -0.6427  0.7079 -0.6661
 7214SOL    MW428630   4.653   6.330   4.221 -0.1061 -0.4243 -0.1918
 7215SOL     OW28631   2.636   0.379   3.060  0.3386  1.1964  0.2814
 7215SOL    HW228632   2.676   0.401   3.144 -0.2414  0.5591  0.7395
 7215SOL    HW328633   2.580   0.453   3.040 -1.5697  0.2555  1.7887
 7215SOL    MW428634   2.634   0.392   3.068  0.0103  0.9881  0.5407
 7216SOL     OW28635   3.929   0.258   5.162 -0.1745  0.4389  0.0155
 7216SOL    HW228636   3.863   0.302   5.216 -1.0483 -0.8463  0.0542
 7216SOL    HW328637   3.878   0.195   5.110  1.0129 -0.5873  0.0505
 7216SOL    MW428638   3.913   0.255   5.162 -0.1331  0.1339  0.0252
 7217SOL     OW28639   4.497   1.733   0.416  0.3508  0.7816 -0.5976
 7217SOL    HW228640   4.459   1.713   0.330  1.2008  1.7147 -1.2180
 7217SOL    HW328641   4.452   1.813   0.443 -0.2319  0.2471  0.0477
 7217SOL    MW428642   4.486   1.741   0.408  0.3861  0.8342 -0.5943
 7218SOL     OW28643   5.289   3.432   4.609  0.4614 -0.4945  0.0794
 7218SOL    HW228644   5.219   3.443   4.673 -0.7118 -0.5758 -1.1508
 7218SOL    HW328645   5.355   3.497   4.634 -1.1288  1.2878 -0.1537
 7218SOL    MW428646   5.288   3.442   4.620  0.0968 -0.2701 -0.1136
 7219SOL     OW28647   1.730   1.418   3.486  0.5412 -0.1576  0.3221
 7219SOL    HW228648   1.820   1.438   3.460  0.1972  0.5764 -0.3317
 7219SOL    HW328649   1.738   1.337   3.538  1.8597  1.0482  2.1582
 7219SOL    MW428650   1.743   1.410   3.490  0.6698  0.0983  0.4781
 7220SOL     OW28651   0.692   4.812   0.472  0.1827 -0.2072 -0.3300
 7220SOL    HW228652   0.645   4.863   0.406 -0.9299 -2.1801 -1.1317
 7220SOL    HW328653   0.628   4.799   0.542  1.4441  2.1716  1.4667
 7220SOL    MW428654   0.678   4.817   0.473  0.2023 -0.1537 -0.1987
 7221SOL     OW28655   0.425   5.763   1.518  0.1375  0.0367 -0.0716
 7221SOL    HW228656   0.440   5.696   1.584 -0.7997 -2.2757 -2.0573
 7221SOL    HW328657   0.374   5.830   1.563 -0.2889 -1.3388  1.5895
 7221SOL    MW428658   0.420   5.763   1.533 -0.0424 -0.4499 -0.1144
 7222SOL     OW28659   5.575   0.130   3.125 -0.2143 -0.0104 -0.1445
 7222SOL    HW228660   5.659   0.171   3.142  0.2333 -0.8132 -0.3881
 7222SOL    HW328661   5.539   0.178   3.051 -0.2574  0.7378  0.3541
 7222SOL    MW428662   5.581   0.141   3.118 -0.1609 -0.0176 -0.1109
 7223SOL     OW28663   2.690   2.084   6.230 -0.2941 -0.0536  0.1054
 7223SOL    HW228664   2.720   2.171   6.205  1.5135 -0.4919  0.6228
 7223SOL    HW328665   2.749   2.024   6.185 -0.7831 -0.9932  0.6751
 7223SOL    MW428666   2.701   2.088   6.220 -0.1201 -0.2354  0.2488
 7224SOL     OW28667   1.201   3.515   2.996  0.2060  0.0410  0.2010
 7224SOL    HW228668   1.281   3.531   3.047  1.0500 -2.5034 -0.1866
 7224SOL    HW328669   1.168   3.602   2.976  1.6552  1.1627  2.2658
 7224SOL    MW428670   1.208   3.529   3.000  0.5086 -0.1467  0.4223
 7225SOL     OW28671   5.457   0.278   5.476  0.4015 -0.0101 -0.3635
 7225SOL    HW228672   5.508   0.268   5.395 -1.6064 -0.2571 -1.6735
 7225SOL    HW328673   5.430   0.189   5.498 -0.8171  0.2704 -0.6440
 7225SOL    MW428674   5.460   0.265   5.468 -0.0242 -0.0057 -0.5733
 7226SOL     OW28675   0.398   2.914   5.739 -0.1678 -0.1493 -0.4187
 7226SOL    HW228676   0.421   3.000   5.777  2.0355 -0.9143  0.1596
 7226SOL    HW328677   0.303   2.912   5.741 -0.3943  2.8846 -1.8033
 7226SOL    MW428678   0.389   2.925   5.745  0.0930  0.1501 -0.5251
 7227SOL     OW28679   4.033   3.993   5.100  0.0379 -0.3052  0.0928
 7227SOL    HW228680   4.067   4.042   5.174  1.4250  0.1150 -0.7996
 7227SOL    HW328681   3.959   4.046   5.068 -0.4312 -0.3834  1.0151
 7227SOL    MW428682   4.027   4.006   5.105  0.1590 -0.2601  0.0968
 7228SOL     OW28683   1.057   3.366   3.562 -0.3462  0.0788 -0.8381
 7228SOL    HW228684   1.073   3.307   3.489  3.4050 -0.6632  0.3622
 7228SOL    HW328685   1.071   3.313   3.640 -1.2828  1.5599  0.4066
 7228SOL    MW428686   1.061   3.351   3.563  0.0252  0.1763 -0.5155
 7229SOL     OW28687   1.846   0.873   5.419 -0.7641  0.2575 -0.2047
 7229SOL    HW228688   1.830   0.932   5.493  0.4336 -0.1364  0.3835
 7229SOL    HW328689   1.860   0.787   5.459  1.2973  0.2833 -0.7551
 7229SOL    MW428690   1.845   0.869   5.434 -0.3341  0.2089 -0.1997
 7230SOL     OW28691   3.112   5.492   4.846  0.9339  0.3372 -0.1615
 7230SOL    HW228692   3.154   5.435   4.910  1.4197 -0.1599 -0.9107
 7230SOL    HW328693   3.057   5.434   4.793  1.0479  0.6383 -0.6194
 7230SOL    MW428694   3.110   5.477   4.848  1.0130  0.3114 -0.3207
 7231SOL     OW28695   2.793   0.535   6.345  0.4879 -0.0677 -0.0807
 7231SOL    HW228696   2.840   0.617   6.359 -0.9212  0.6916  0.3521
 7231SOL    HW328697   2.734   0.528   6.420 -0.2461 -0.8909 -0.7123
 7231SOL    MW428698   2.792   0.545   6.357  0.2051 -0.0761 -0.1069
 7232SOL     OW28699   6.168   3.241   6.308 -0.3224  0.2279 -0.5506
 7232SOL    HW228700   6.210   3.160   6.337 -0.4222  0.1442 -0.6397
 7232SOL    HW328701   6.216   3.310   6.353 -1.6985  0.0029  1.4007
 7232SOL    MW428702   6.180   3.239   6.318 -0.5171  0.1872 -0.3049
 7233SOL     OW28703   2.391   0.974   3.607 -0.1757  0.0006 -1.0723
 7233SOL    HW228704   2.470   1.026   3.617  1.3691 -2.0862 -1.7031
 7233SOL    HW328705   2.357   0.999   3.521  0.2496  0.3147 -1.1523
 7233SOL    MW428706   2.397   0.984   3.597  0.0842 -0.2333 -1.1661
 7234SOL     OW28707   2.516   0.345   5.564  0.0605 -0.0192 -0.0500
 7234SOL    HW228708   2.424   0.361   5.582  0.0254 -0.4685  0.1867
 7234SOL    HW328709   2.526   0.363   5.471 -0.2919 -0.0902 -0.1003
 7234SOL    MW428710   2.505   0.350   5.554  0.0094 -0.0878 -0.0254
 7235SOL     OW28711   5.160   4.383   4.460  0.6659  0.3548 -0.1408
 7235SOL    HW228712   5.188   4.444   4.391  1.0496 -0.7673 -1.0025
 7235SOL    HW328713   5.162   4.297   4.418 -0.5339 -0.1861  0.8555
 7235SOL    MW428714   5.164   4.380   4.445  0.5582  0.1354 -0.1230
 7236SOL     OW28715   1.998   2.889   2.947 -0.5327 -0.6251 -0.2842
 7236SOL    HW228716   2.022   2.802   2.979 -0.4744 -0.3899  0.3291
 7236SOL    HW328717   2.077   2.922   2.904 -0.6956 -1.0539 -0.9293
 7236SOL    MW428718   2.012   2.882   2.946 -0.5465 -0.6506 -0.2884
 7237SOL     OW28719   1.379   4.831   1.877 -0.1789 -0.3477  0.2682
 7237SOL    HW228720   1.327   4.898   1.833 -0.2783 -0.8193 -0.3474
 7237SOL    HW328721   1.314   4.771   1.913 -0.1615  0.7671  2.3140
 7237SOL    MW428722   1.363   4.832   1.876 -0.1897 -0.2628  0.4569
 7238SOL     OW28723   3.612   6.410   2.627 -0.0949  0.4660  0.5673
 7238SOL    HW228724   3.536   6.363   2.661  0.8678 -1.6571  0.0014
 7238SOL    HW328725   3.628   6.369   2.541  1.4550  1.1031  0.5195
 7238SOL    MW428726   3.604   6.398   2.620  0.2366  0.2699  0.4864
 7239SOL     OW28727   0.834   5.093   0.822  0.3572  0.0579 -0.5283
 7239SOL    HW228728   0.841   5.082   0.728  2.2401  1.6615 -0.6196
 7239SOL    HW328729   0.823   5.187   0.836 -0.4253 -0.1914  0.8595
 7239SOL    MW428730   0.833   5.104   0.812  0.5023  0.2366 -0.3573
 7240SOL     OW28731   6.002   4.037   6.350  0.5756  0.2008  0.1085
 7240SOL    HW228732   6.038   3.973   6.288  2.0335  2.0400 -1.0262
 7240SOL    HW328733   5.909   4.013   6.358  1.2048 -2.4883  0.3292
 7240SOL    MW428734   5.994   4.025   6.343  0.8510  0.0886 -0.0121
 7241SOL     OW28735   5.783   0.609   4.273  0.0206 -0.3268 -0.2511
 7241SOL    HW228736   5.848   0.680   4.272  2.1836 -2.1174  1.5652
 7241SOL    HW328737   5.828   0.537   4.230 -1.8200 -0.8846 -1.3026
 7241SOL    MW428738   5.798   0.609   4.267  0.0631 -0.6366 -0.1502
 7242SOL     OW28739   2.207   1.445   5.634 -0.5607  0.0454  0.0134
 7242SOL    HW228740   2.156   1.384   5.582 -2.6500 -0.2551  2.2134
 7242SOL    HW328741   2.146   1.516   5.654  0.6514  0.9419  0.6740
 7242SOL    MW428742   2.192   1.447   5.630 -0.6764  0.1241  0.3908
 7243SOL     OW28743   4.459   2.101   1.116  0.4501 -0.1896 -0.1044
 7243SOL    HW228744   4.534   2.047   1.096  1.3235 -0.1016  2.5512
 7243SOL    HW328745   4.397   2.085   1.045  1.3879 -3.2787 -0.3393
 7243SOL    MW428746   4.461   2.092   1.104  0.6891 -0.5856  0.2150
 7244SOL     OW28747   2.098   4.907   0.286 -0.6147  0.3779 -0.0010
 7244SOL    HW228748   2.004   4.915   0.299 -1.1650 -1.4404 -2.1330
 7244SOL    HW328749   2.113   4.813   0.279  1.6739  0.5194  1.9378
 7244SOL    MW428750   2.088   4.896   0.287 -0.3853  0.1567 -0.0265
 7245SOL     OW28751   2.609   3.515   6.427  0.1454  0.3909  0.1345
 7245SOL    HW228752   2.584   3.479   6.512  1.1612  2.5888  1.4205
 7245SOL    HW328753   2.541   3.482   6.367 -0.4026 -1.4816  1.6747
 7245SOL    MW428754   2.597   3.506   6.430  0.2072  0.4339  0.5074
 7246SOL     OW28755   5.677   3.305   5.608 -0.2547 -0.1858  0.1932
 7246SOL    HW228756   5.732   3.228   5.593 -0.7449 -0.2121 -1.7577
 7246SOL    HW328757   5.669   3.346   5.522 -0.2231  1.9235  1.1402
 7246SOL    MW428758   5.683   3.300   5.595 -0.3152  0.0890  0.0608
 7247SOL     OW28759   0.573   3.624   0.811  0.3391  1.1887 -0.6149
 7247SOL    HW228760   0.589   3.550   0.752  0.0715 -0.5624  1.3633
 7247SOL    HW328761   0.483   3.612   0.841  1.2267  0.4601  2.0717
 7247SOL    MW428762   0.563   3.613   0.807  0.4209  0.8615  0.0006
 7248SOL     OW28763   4.380   4.202   6.348 -0.3580  0.4570 -0.8774
 7248SOL    HW228764   4.340   4.179   6.264 -1.9150  0.5641 -0.2060
 7248SOL    HW328765   4.307   4.199   6.410  0.4937  1.7090  0.2260
 7248SOL    MW428766   4.365   4.199   6.345 -0.4510  0.6363 -0.6433
 7249SOL     OW28767   0.397   1.511   4.837 -0.3625  0.4653 -0.1625
 7249SOL    HW228768   0.478   1.494   4.886 -0.6793 -0.3307  0.1021
 7249SOL    HW328769   0.345   1.431   4.848 -1.5116  1.2517  0.3019
 7249SOL    MW428770   0.401   1.498   4.845 -0.5559  0.4641 -0.0663
 7250SOL     OW28771   4.065   4.574   5.760 -0.3311  0.5830 -0.4284
 7250SOL    HW228772   4.150   4.562   5.718 -1.4123  0.3938 -2.7193
 7250SOL    HW328773   4.003   4.533   5.700 -1.6815 -3.7121  3.3984
 7250SOL    MW428774   4.068   4.567   5.747 -0.6519 -0.0087 -0.2257
 7251SOL     OW28775   0.880   3.589   5.324 -0.4962  0.2424 -0.0591
 7251SOL    HW228776   0.840   3.588   5.238  1.1262  0.0357 -0.8522
 7251SOL    HW328777   0.880   3.681   5.351 -1.4752  0.2401 -0.0432
 7251SOL    MW428778   0.875   3.601   5.317 -0.4113  0.2148 -0.1616
 7252SOL     OW28779   6.375   2.514   1.235 -0.5014  0.2953  0.1712
 7252SOL    HW228780   6.437   2.571   1.281  0.2508  0.2854 -0.7966
 7252SOL    HW328781   6.295   2.566   1.230 -0.7289  0.1485  1.7986
 7252SOL    MW428782   6.373   2.529   1.240 -0.4322  0.2746  0.2583
 7253SOL     OW28783   6.109   2.802   1.948 -0.3373 -0.0214 -0.1441
 7253SOL    HW228784   6.138   2.872   1.889  0.4403 -0.2388 -0.0272
 7253SOL    HW328785   6.100   2.844   2.033  0.2646 -0.0903 -0.0445
 7253SOL    MW428786   6.111   2.817   1.951 -0.1553 -0.0591 -0.1155
 7254SOL     OW28787   3.662   1.505   1.300 -0.0129  0.4818 -0.4451
 7254SOL    HW228788   3.742   1.463   1.269  1.3030  1.9201  0.8446
 7254SOL    HW328789   3.632   1.556   1.224  0.7625  0.5753 -0.7019
 7254SOL    MW428790   3.669   1.507   1.286  0.2631  0.6839 -0.3088
 7255SOL     OW28791   5.355   1.759   0.243 -0.2165  0.3078  0.7473
 7255SOL    HW228792   5.331   1.680   0.291 -0.6306  0.9056  1.5430
 7255SOL    HW328793   5.441   1.738   0.205 -1.0474 -1.1251 -0.4831
 7255SOL    MW428794   5.363   1.746   0.244 -0.3807  0.1976  0.6899
 7256SOL     OW28795   0.563   0.177   0.329 -0.3686  0.3826 -0.1856
 7256SOL    HW228796   0.624   0.103   0.334  0.7734  1.2789 -0.4962
 7256SOL    HW328797   0.573   0.223   0.412  0.1681  1.1368 -0.6649
 7256SOL    MW428798   0.572   0.173   0.340 -0.1471  0.6004 -0.2898
 7257SOL     OW28799   0.357   4.623   2.866 -0.2971 -0.0788  0.1928
 7257SOL    HW228800   0.311   4.677   2.930  0.0320 -0.8709  1.1200
 7257SOL    HW328801   0.447   4.618   2.898 -0.0886 -0.3729 -0.4109
 7257SOL    MW428802   0.363   4.630   2.878 -0.2261 -0.2221  0.2355
 7258SOL     OW28803   1.455   0.207   2.562  0.0697 -0.4214  0.9462
 7258SOL    HW228804   1.462   0.118   2.527 -1.8127  0.1997 -1.2496
 7258SOL    HW328805   1.396   0.199   2.636  0.7029 -1.1339  1.3878
 7258SOL    MW428806   1.448   0.194   2.567 -0.0951 -0.4334  0.7148
 7259SOL     OW28807   2.017   1.789   6.244  0.4185  0.4743  0.1620
 7259SOL    HW228808   1.921   1.784   6.245  0.3677  0.9131  2.4251
 7259SOL    HW328809   2.039   1.806   6.152 -1.8630  3.4043  0.0227
 7259SOL    MW428810   2.007   1.791   6.232  0.1108  0.9188  0.4422
 7260SOL     OW28811   4.593   6.275   0.355 -0.3225  0.2917 -0.0635
 7260SOL    HW228812   4.662   6.253   0.417  0.2864  0.2782 -0.7349
 7260SOL    HW328813   4.609   6.217   0.280 -1.3591 -0.0717 -0.0331
 7260SOL    MW428814   4.604   6.264   0.353 -0.3790  0.2419 -0.1481
 7261SOL     OW28815   2.806   3.031   5.846 -0.4567 -0.7004 -0.8849
 7261SOL    HW228816   2.800   3.040   5.751  2.1438 -2.1887 -1.2730
 7261SOL    HW328817   2.717   3.050   5.878 -1.8139 -1.7829 -3.7267
 7261SOL    MW428818   2.793   3.035   5.838 -0.2927 -1.0396 -1.3110
 7262SOL     OW28819   5.347   2.704   5.473  0.1508 -0.3237  0.0918
 7262SOL    HW228820   5.289   2.655   5.531  0.2000 -0.2890  0.1704
 7262SOL    HW328821   5.387   2.771   5.529 -1.8898  1.5249 -0.5430
 7262SOL    MW428822   5.345   2.706   5.488 -0.1120 -0.0752  0.0184
 7263SOL     OW28823   2.881   3.034   4.625 -0.5668  0.0016 -0.0156
 7263SOL    HW228824   2.790   3.061   4.617 -0.2645  0.7609 -1.0368
 7263SOL    HW328825   2.914   3.034   4.536  1.1808  2.4323  0.5297
 7263SOL    MW428826   2.873   3.037   4.612 -0.2963  0.4225 -0.0784
 7264SOL     OW28827   3.893   0.493   0.942  0.1156 -0.5097 -0.5278
 7264SOL    HW228828   3.828   0.462   1.006 -0.0502  0.3169 -0.2799
 7264SOL    HW328829   3.930   0.414   0.905  0.1406 -1.0091  0.5289
 7264SOL    MW428830   3.889   0.479   0.945  0.0970 -0.4665 -0.3557
 7265SOL     OW28831   3.654   0.351   2.065  0.1692  0.5313 -0.5313
 7265SOL    HW228832   3.744   0.382   2.068 -0.0501  1.2559  2.6972
 7265SOL    HW328833   3.655   0.268   2.114 -0.7503 -0.0462 -1.4385
 7265SOL    MW428834   3.666   0.344   2.072  0.0190  0.5507 -0.2251
 7266SOL     OW28835   3.304   5.734   2.119  0.4280 -0.5105  0.0049
 7266SOL    HW228836   3.261   5.653   2.146  0.5827 -0.6687 -0.2196
 7266SOL    HW328837   3.317   5.782   2.200  0.2443 -0.6651  0.1283
 7266SOL    MW428838   3.300   5.730   2.133  0.4242 -0.5517 -0.0085
 7267SOL     OW28839   2.715   1.238   2.676 -0.2176  0.4409 -0.3176
 7267SOL    HW228840   2.696   1.185   2.598 -0.8607 -1.6977  1.1723
 7267SOL    HW328841   2.639   1.295   2.685  0.1336  1.1431 -1.5472
 7267SOL    MW428842   2.702   1.238   2.667 -0.2561  0.2513 -0.2832
 7268SOL     OW28843   0.354   3.403   3.624  0.2634 -0.1299 -0.0421
 7268SOL    HW228844   0.314   3.317   3.632 -0.9172  0.4067  0.1839
 7268SOL    HW328845   0.279   3.464   3.626  1.1222  0.9458  0.7182
 7268SOL    MW428846   0.339   3.400   3.626  0.2209  0.0828  0.0880
 7269SOL     OW28847   5.973   1.547   2.677  0.3486 -0.4022 -0.0046
 7269SOL    HW228848   6.025   1.608   2.624 -0.7657  1.6231  1.1036
 7269SOL    HW328849   6.038   1.500   2.729  1.3037 -0.8414 -1.5481
 7269SOL    MW428850   5.989   1.549   2.677  0.3276 -0.1929 -0.0621
 7270SOL     OW28851   2.151   3.174   5.839 -0.5452  0.3212 -0.0532
 7270SOL    HW228852   2.153   3.115   5.915 -0.0166  0.2827 -0.0926
 7270SOL    HW328853   2.065   3.159   5.800 -0.6748  0.0635  0.3244
 7270SOL    MW428854   2.140   3.164   5.844 -0.4925  0.2821 -0.0086
 7271SOL     OW28855   1.039   6.237   5.437  0.3516  0.3709 -0.0545
 7271SOL    HW228856   1.096   6.188   5.378  1.6674  0.0010  1.4407
 7271SOL    HW328857   0.957   6.187   5.438  0.5869 -0.0586 -0.9278
 7271SOL    MW428858   1.035   6.224   5.429  0.5562  0.2655  0.0275
 7272SOL     OW28859   1.348   5.686   0.843 -0.4764 -0.6665  0.0580
 7272SOL    HW228860   1.272   5.669   0.898  0.1438  2.1391  2.0226
 7272SOL    HW328861   1.423   5.657   0.896 -0.0155 -0.3880 -0.4313
 7272SOL    MW428862   1.348   5.680   0.857 -0.3338 -0.2596  0.2526
 7273SOL     OW28863   2.415   0.693   0.891  0.1592  0.0977 -0.8790
 7273SOL    HW228864   2.411   0.714   0.798 -1.0276  0.0853 -0.8485
 7273SOL    HW328865   2.369   0.765   0.934  2.0029  0.8898 -0.1329
 7273SOL    MW428866   2.408   0.705   0.885  0.2459  0.2006 -0.7765
 7274SOL     OW28867   2.602   5.950   6.009  0.1605  0.2576 -0.8595
 7274SOL    HW228868   2.695   5.967   6.027  0.0169  0.6408 -0.4877
 7274SOL    HW328869   2.579   6.012   5.940 -0.0700  0.8307 -0.2771
 7274SOL    MW428870   2.612   5.960   6.002  0.1111  0.3838 -0.7336
 7275SOL     OW28871   3.545   1.573   1.049  0.4251 -0.1659 -0.6692
 7275SOL    HW228872   3.525   1.479   1.052  3.0046 -0.7715  0.2190
 7275SOL    HW328873   3.460   1.615   1.036 -0.7941 -2.6152 -1.2357
 7275SOL    MW428874   3.531   1.566   1.048  0.6046 -0.5689 -0.6267
 7276SOL     OW28875   1.625   2.826   2.467  0.0619 -0.5029 -0.1486
 7276SOL    HW228876   1.592   2.765   2.400  1.0420  0.7977 -1.8990
 7276SOL    HW328877   1.600   2.785   2.550 -2.1459 -1.6754 -1.2788
 7276SOL    MW428878   1.617   2.812   2.469 -0.1001 -0.4860 -0.5286
 7277SOL     OW28879   4.185   3.726   5.265  0.2542  0.3243 -0.2036
 7277SOL    HW228880   4.177   3.708   5.359  0.0367  0.2534 -0.2339
 7277SOL    HW328881   4.268   3.687   5.239  0.6573  0.9578  0.1052
 7277SOL    MW428882   4.195   3.719   5.274  0.2787  0.3985 -0.1669
 7278SOL     OW28883   0.164   1.284   4.325 -0.1227  0.5655  0.3454
 7278SOL    HW228884   0.128   1.360   4.279 -0.7008  0.2870  0.3291
 7278SOL    HW328885   0.155   1.212   4.263 -1.0767  0.1472  0.9439
 7278SOL    MW428886   0.158   1.285   4.310 -0.3249  0.4736  0.4222
 7279SOL     OW28887   3.929   5.833   0.508 -0.2546 -0.4395 -0.5636
 7279SOL    HW228888   3.940   5.921   0.473 -1.5813 -0.7204 -1.8157
 7279SOL    HW328889   3.979   5.777   0.448  0.7523 -0.5243  0.3447
 7279SOL    MW428890   3.937   5.837   0.495 -0.2968 -0.4878 -0.6090
 7280SOL     OW28891   1.372   0.360   5.395  0.0295 -0.0132  1.2092
 7280SOL    HW228892   1.430   0.334   5.467 -2.0273  1.4212  3.5482
 7280SOL    HW328893   1.301   0.295   5.396 -1.5821  1.6574  2.5894
 7280SOL    MW428894   1.370   0.348   5.405 -0.4545  0.3965  1.6999
 7281SOL     OW28895   5.615   3.313   5.938  0.4600 -0.2668  0.4124
 7281SOL    HW228896   5.616   3.219   5.918  1.8353  0.2620 -2.5988
 7281SOL    HW328897   5.524   3.339   5.926  0.6970 -0.5751 -2.8571
 7281SOL    MW428898   5.603   3.304   5.934  0.6727 -0.2377 -0.4163
 7282SOL     OW28899   6.203   6.002   4.219 -0.1240 -0.2804  0.7211
 7282SOL    HW228900   6.227   5.911   4.203 -0.8622 -0.2197 -0.8844
 7282SOL    HW328901   6.285   6.051   4.208  0.4903 -0.8126  2.5726
 7282SOL    MW428902   6.217   5.997   4.216 -0.1404 -0.3426  0.7535
 7283SOL     OW28903   3.651   2.000   6.116  0.3704 -0.5216  0.4595
 7283SOL    HW228904   3.608   1.917   6.098 -0.0435 -0.5040  1.2973
 7283SOL    HW328905   3.642   2.050   6.035  0.4356 -1.2117  0.0241
 7283SOL    MW428906   3.644   1.996   6.103  0.3244 -0.6103  0.5125
 7284SOL     OW28907   3.799   3.325   1.045 -0.2972  0.0039  0.0464
 7284SOL    HW228908   3.808   3.244   1.096 -0.4627 -1.1369 -1.6654
 7284SOL    HW328909   3.707   3.326   1.019 -0.0745  0.2160 -0.7589
 7284SOL    MW428910   3.788   3.314   1.048 -0.2897 -0.1186 -0.2857
 7285SOL     OW28911   2.974   6.128   0.514 -0.3261  0.3853 -0.0406
 7285SOL    HW228912   2.992   6.181   0.436 -1.2069 -0.0649 -0.5622
 7285SOL    HW328913   3.057   6.083   0.532  0.0309  0.8826 -0.4094
 7285SOL    MW428914   2.988   6.129   0.506 -0.3952  0.3915 -0.1581
 7286SOL     OW28915   0.023   1.103   1.332  0.3209  0.2718 -0.1088
 7286SOL    HW228916   0.114   1.090   1.358  0.0973  1.7210  1.5771
 7286SOL    HW328917   0.022   1.088   1.238  2.0087 -1.1956  0.0620
 7286SOL    MW428918   0.035   1.099   1.323  0.5141  0.2694  0.1362
 7287SOL     OW28919   3.612   3.703   0.174  0.6073  0.4175  0.1236
 7287SOL    HW228920   3.568   3.680   0.093  0.1923  1.5469  0.0113
 7287SOL    HW328921   3.701   3.670   0.163 -0.0020 -1.3017  0.0862
 7287SOL    MW428922   3.618   3.696   0.162  0.4721  0.3397  0.1038
 7288SOL     OW28923   2.176   3.955   3.673 -0.1909 -0.5285 -0.6673
 7288SOL    HW228924   2.244   3.920   3.730  0.6572 -1.3278 -2.1128
 7288SOL    HW328925   2.113   3.884   3.664 -2.0700  0.6948  1.8508
 7288SOL    MW428926   2.177   3.941   3.679 -0.3270 -0.4725 -0.5258
 7289SOL     OW28927   5.471   6.398   0.910 -0.3780  0.2528  0.0225
 7289SOL    HW228928   5.424   6.417   0.991 -0.9424  1.2898 -0.5184
 7289SOL    HW328929   5.553   6.446   0.917 -0.7322  0.9187 -0.3046
 7289SOL    MW428930   5.475   6.407   0.921 -0.4992  0.4775 -0.0920
 7290SOL     OW28931   5.109   0.380   1.485 -0.0610 -0.1876 -0.4295
 7290SOL    HW228932   5.099   0.462   1.437 -0.1418 -0.3467 -0.6858
 7290SOL    HW328933   5.202   0.360   1.481 -0.3919 -1.6032 -2.8680
 7290SOL    MW428934   5.120   0.389   1.478 -0.1153 -0.3953 -0.7850
 7291SOL     OW28935   0.126   3.957   6.301  0.1555 -0.6851  0.0488
 7291SOL    HW228936   0.131   3.964   6.397 -0.9383 -4.2187  0.4821
 7291SOL    HW328937   0.037   3.983   6.280  1.0112  2.3238 -0.4294
 7291SOL    MW428938   0.115   3.962   6.311  0.1241 -0.7543  0.0429
 7292SOL     OW28939   2.536   4.554   0.552 -1.1363  0.2246  0.1030
 7292SOL    HW228940   2.496   4.486   0.497 -1.4144  1.0705 -0.7531
 7292SOL    HW328941   2.557   4.508   0.634  0.0579 -1.2725 -0.9700
 7292SOL    MW428942   2.533   4.539   0.555 -1.0154  0.1387 -0.1515
 7293SOL     OW28943   2.443   2.537   5.729 -0.6139  0.0732  0.0550
 7293SOL    HW228944   2.446   2.490   5.646 -0.3419 -2.1202  1.2287
 7293SOL    HW328945   2.385   2.485   5.784 -0.9631  1.5996  1.1878
 7293SOL    MW428946   2.436   2.524   5.725 -0.6241 -0.0148  0.3593
 7294SOL     OW28947   5.239   1.372   3.395  0.1489 -0.1399 -0.0948
 7294SOL    HW228948   5.156   1.325   3.402 -0.0132  0.0141 -0.8803
 7294SOL    HW328949   5.304   1.304   3.376  0.0151 -0.1226 -0.6171
 7294SOL    MW428950   5.237   1.357   3.393  0.1099 -0.1173 -0.2673
 7295SOL     OW28951   0.943   0.958   2.090 -0.2732  0.0298  0.3267
 7295SOL    HW228952   0.924   1.052   2.083  0.1523  0.0184 -1.6385
 7295SOL    HW328953   0.858   0.916   2.078 -0.3083  0.1534  0.1274
 7295SOL    MW428954   0.929   0.965   2.087 -0.2217  0.0446  0.0411
 7296SOL     OW28955   0.478   1.486   0.089  0.2281  0.0046  0.1921
 7296SOL    HW228956   0.457   1.549   0.019  0.2266 -0.9202 -0.6594
 7296SOL    HW328957   0.409   1.498   0.154 -0.0335  0.5525 -0.1814
 7296SOL    MW428958   0.466   1.496   0.088  0.1934 -0.0452  0.0305
 7297SOL     OW28959   6.034   6.215   0.471 -0.2979  0.0520 -0.3237
 7297SOL    HW228960   6.110   6.249   0.425 -0.2411  0.8985  0.3499
 7297SOL    HW328961   6.070   6.166   0.545 -0.3937 -0.7763 -0.8217
 7297SOL    MW428962   6.049   6.213   0.475 -0.3030  0.0544 -0.3005
 7298SOL     OW28963   1.220   0.267   3.958 -0.2901 -0.0820 -0.1067
 7298SOL    HW228964   1.156   0.207   3.919  0.1551 -1.4682  1.1631
 7298SOL    HW328965   1.173   0.305   4.033  0.1391 -0.6000  0.4344
 7298SOL    MW428966   1.205   0.264   3.963 -0.1747 -0.3332  0.1322
 7299SOL     OW28967   1.921   2.503   0.314  0.1531  0.2158  0.3278
 7299SOL    HW228968   1.937   2.598   0.315  3.6191 -0.2198 -1.1168
 7299SOL    HW328969   1.938   2.475   0.404 -0.1881  0.8276  0.5936
 7299SOL    MW428970   1.925   2.512   0.326  0.5654  0.2390  0.1723
 7300SOL     OW28971   1.539   4.316   3.477 -0.2641 -0.0142 -0.0953
 7300SOL    HW228972   1.518   4.342   3.388 -0.8763 -1.0309 -0.2564
 7300SOL    HW328973   1.506   4.388   3.531  0.6128  0.8766 -0.7028
 7300SOL    MW428974   1.532   4.329   3.473 -0.2292 -0.0308 -0.1967
 7301SOL     OW28975   6.130   1.970   5.433 -0.0902 -0.6587 -0.6022
 7301SOL    HW228976   6.083   1.921   5.500 -1.4187  0.0566 -0.9818
 7301SOL    HW328977   6.197   2.019   5.481 -1.5280  0.4473  0.3351
 7301SOL    MW428978   6.133   1.970   5.448 -0.4552 -0.4184 -0.5286
 7302SOL     OW28979   1.857   1.700   0.624  0.6623 -0.0795  0.2062
 7302SOL    HW228980   1.797   1.756   0.673  0.3401 -0.2199 -0.0307
 7302SOL    HW328981   1.913   1.762   0.576  1.0290  0.0606  0.8005
 7302SOL    MW428982   1.857   1.716   0.625  0.6681 -0.0795  0.2533
 7303SOL     OW28983   3.908   6.005   3.597  0.2034 -0.2599  0.8028
 7303SOL    HW228984   3.876   6.070   3.535 -0.5159  1.0485  2.4582
 7303SOL    HW328985   3.893   5.921   3.554 -1.2075  0.5508 -0.3862
 7303SOL    MW428986   3.901   6.002   3.583 -0.0777  0.0197  0.8643
 7304SOL     OW28987   5.236   0.493   3.027 -0.3142  0.3943  0.2833
 7304SOL    HW228988   5.151   0.458   2.999  0.5283 -1.0017 -0.6244
 7304SOL    HW328989   5.237   0.479   3.122 -1.6609  1.7642  0.5508
 7304SOL    MW428990   5.225   0.486   3.036 -0.3807  0.3909  0.1988
 7305SOL     OW28991   5.742   0.871   2.234 -0.6643 -0.1717  0.0131
 7305SOL    HW228992   5.822   0.895   2.280 -1.2875  0.8143  0.6288
 7305SOL    HW328993   5.671   0.903   2.290 -1.5022 -1.0313 -0.5048
 7305SOL    MW428994   5.743   0.878   2.247 -0.8571 -0.1550  0.0260
 7306SOL     OW28995   5.955   4.869   0.614  0.5942  0.7550 -0.1186
 7306SOL    HW228996   5.874   4.833   0.649  1.0374  1.7870  2.1949
 7306SOL    HW328997   5.989   4.802   0.555 -0.6349 -0.8030  0.8867
 7306SOL    MW428998   5.949   4.855   0.611  0.4905  0.6856  0.3193
 7307SOL     OW28999   2.579   4.124   5.105 -0.2646  0.2201 -0.2027
 7307SOL    HW229000   2.495   4.154   5.070 -0.3493  1.0793  0.6916
 7307SOL    HW329001   2.632   4.203   5.111 -0.4980  0.2573  2.2292
 7307SOL    MW429002   2.575   4.138   5.101 -0.3065  0.3384  0.2362
 7308SOL     OW29003   0.558   4.290   0.452 -0.4026  0.1603 -0.4410
 7308SOL    HW229004   0.623   4.350   0.488 -1.7514  0.8388  0.9694
 7308SOL    HW329005   0.499   4.272   0.525 -2.4663  0.4789 -1.9425
 7308SOL    MW429006   0.559   4.295   0.466 -0.8528  0.2919 -0.4531
 7309SOL     OW29007   0.722   2.813   5.762 -0.5614  0.2545  0.4126
 7309SOL    HW229008   0.726   2.906   5.738  1.1519 -0.0297 -0.5753
 7309SOL    HW329009   0.737   2.812   5.857  1.6149  0.9070  0.1329
 7309SOL    MW429010   0.725   2.825   5.771 -0.0482  0.3031  0.2454
 7310SOL     OW29011   5.070   2.701   4.385  0.5855  0.0717  0.2125
 7310SOL    HW229012   5.024   2.690   4.302 -0.2077  0.8481  0.5288
 7310SOL    HW329013   5.142   2.638   4.381 -0.5562 -1.2481 -0.2460
 7310SOL    MW429014   5.073   2.691   4.373  0.3302 -0.0000  0.1937
 7311SOL     OW29015   5.176   3.022   2.446 -0.2201  0.3353 -0.1712
 7311SOL    HW229016   5.213   2.954   2.390 -0.6881 -1.3785  1.4935
 7311SOL    HW329017   5.081   3.009   2.439 -0.2949  0.3372  0.6718
 7311SOL    MW429018   5.168   3.011   2.438 -0.2917  0.1094  0.1597
 7312SOL     OW29019   2.665   4.709   0.242  0.4844 -0.1709 -0.5928
 7312SOL    HW229020   2.651   4.802   0.261 -1.1760 -0.6795  0.8908
 7312SOL    HW329021   2.594   4.684   0.184 -0.0511 -0.8818  0.3439
 7312SOL    MW429022   2.654   4.718   0.237  0.1947 -0.3318 -0.2734
 7313SOL     OW29023   4.753   6.411   2.754 -0.3237  0.4073  0.3144
 7313SOL    HW229024   4.720   6.441   2.839 -1.5090  1.0549 -0.3509
 7313SOL    HW329025   4.736   6.484   2.694 -2.0835 -1.0598 -1.0812
 7313SOL    MW429026   4.747   6.424   2.757 -0.7123  0.2992  0.0425
 7314SOL     OW29027   0.442   3.788   5.212 -0.2481  0.7652  0.7029
 7314SOL    HW229028   0.519   3.835   5.242 -0.7353  2.0953 -0.0634
 7314SOL    HW329029   0.467   3.695   5.218  1.9335  1.1731 -0.8514
 7314SOL    MW429030   0.456   3.782   5.216 -0.0245  0.9945  0.3967
 7315SOL     OW29031   5.164   2.479   4.676  0.0930 -0.8856 -0.0845
 7315SOL    HW229032   5.224   2.411   4.645  0.2347  0.1997 -2.4103
 7315SOL    HW329033   5.208   2.561   4.655 -1.7779 -0.0638 -1.0059
 7315SOL    MW429034   5.178   2.481   4.669 -0.1352 -0.6340 -0.5129
 7316SOL     OW29035   3.709   0.779   0.695  0.4896  0.2513 -0.4279
 7316SOL    HW229036   3.663   0.733   0.625 -0.5709  2.3302 -1.1647
 7316SOL    HW329037   3.656   0.762   0.773 -0.7886  1.4440 -0.9991
 7316SOL    MW429038   3.696   0.771   0.696  0.1810  0.6829 -0.6005
 7317SOL     OW29039   1.799   6.125   5.451 -0.4085  0.2175 -0.3018
 7317SOL    HW229040   1.820   6.032   5.467 -0.6506  0.2392  0.1735
 7317SOL    HW329041   1.717   6.123   5.402  0.0217  0.1628 -1.0260
 7317SOL    MW429042   1.791   6.112   5.447 -0.3837  0.2131 -0.3347
 7318SOL     OW29043   4.741   3.294   2.510  0.0572 -0.2054  0.8067
 7318SOL    HW229044   4.781   3.270   2.426  0.7689 -1.1189  1.3954
 7318SOL    HW329045   4.784   3.237   2.574 -0.0977  0.8509  1.8709
 7318SOL    MW429046   4.752   3.283   2.507  0.1307 -0.1866  1.0248
 7319SOL     OW29047   3.925   5.701   2.785  0.1472 -0.2434 -0.2129
 7319SOL    HW229048   3.911   5.707   2.691  0.3697 -1.2908 -0.3209
 7319SOL    HW329049   3.862   5.635   2.814  1.6247 -1.6099  0.0115
 7319SOL    MW429050   3.914   5.693   2.777  0.3715 -0.5619 -0.1975
 7320SOL     OW29051   3.631   2.446   5.388  0.0199 -0.3684  0.1989
 7320SOL    HW229052   3.591   2.508   5.327 -0.1663 -1.3024 -0.6618
 7320SOL    HW329053   3.715   2.485   5.410  0.6189 -0.5276 -1.5930
 7320SOL    MW429054   3.637   2.459   5.383  0.0744 -0.5126 -0.1511
 7321SOL     OW29055   5.705   3.974   0.577  0.2744 -0.1523 -0.2485
 7321SOL    HW229056   5.645   3.951   0.648 -0.7164  0.3722 -0.8991
 7321SOL    HW329057   5.784   3.922   0.595  0.2947  0.4056  1.5743
 7321SOL    MW429058   5.708   3.964   0.589  0.1463 -0.0095 -0.0938
 7322SOL     OW29059   0.301   3.807   0.553  0.3172 -0.0895  0.0311
 7322SOL    HW229060   0.307   3.721   0.511  0.8757  0.0632 -0.2153
 7322SOL    HW329061   0.392   3.832   0.570  0.2311  0.9178 -0.8706
 7322SOL    MW429062   0.313   3.799   0.550  0.3795  0.0635 -0.1203
 7323SOL     OW29063   3.931   3.404   2.674  0.2523 -0.5338  0.3315
 7323SOL    HW229064   3.837   3.396   2.692  0.5221 -1.7030  1.3061
 7323SOL    HW329065   3.946   3.348   2.598  0.0017  0.4626 -0.4772
 7323SOL    MW429066   3.921   3.396   2.667  0.2548 -0.5566  0.3534
 7324SOL     OW29067   1.580   0.218   4.921  0.4459  0.4373 -0.2722
 7324SOL    HW229068   1.577   0.284   4.851  0.4773  1.7110  0.8773
 7324SOL    HW329069   1.628   0.261   4.992  0.3235 -0.7843  0.5793
 7324SOL    MW429070   1.586   0.233   4.921  0.4339  0.4442 -0.0082
 7325SOL     OW29071   2.466   5.086   1.522  0.0860  0.1851 -0.4561
 7325SOL    HW229072   2.380   5.128   1.524  0.1379  0.2780  0.0598
 7325SOL    HW329073   2.448   4.997   1.493 -0.1798  0.2196 -0.4042
 7325SOL    MW429074   2.452   5.080   1.518  0.0578  0.2019 -0.3812
 7326SOL     OW29075   1.600   0.584   4.620 -0.2195  0.4231 -0.2503
 7326SOL    HW229076   1.528   0.521   4.617  0.1251 -0.0441  0.8217
 7326SOL    HW329077   1.669   0.540   4.670  0.1922  1.4716  0.1343
 7326SOL    MW429078   1.599   0.570   4.626 -0.1197  0.4998 -0.0581
 7327SOL     OW29079   3.618   3.939   6.403  0.2488 -0.4142 -0.1313
 7327SOL    HW229080   3.545   3.952   6.463 -1.4803 -3.2903 -1.4154
 7327SOL    HW329081   3.593   3.987   6.324 -0.6108 -1.8459 -0.7705
 7327SOL    MW429082   3.605   3.947   6.401 -0.0928 -0.9826 -0.3851
 7328SOL     OW29083   2.625   1.492   6.160  0.2435 -0.1493 -0.0638
 7328SOL    HW229084   2.544   1.532   6.191  0.1689 -0.5889  0.3067
 7328SOL    HW329085   2.693   1.556   6.181  0.3097 -0.7752  1.7576
 7328SOL    MW429086   2.624   1.506   6.167  0.2424 -0.2899  0.2254
 7329SOL     OW29087   4.280   6.415   3.335  0.8239 -0.2321  0.4036
 7329SOL    HW229088   4.351   6.470   3.370 -0.2557  0.7691  1.0933
 7329SOL    HW329089   4.269   6.347   3.401  2.2477 -1.4172 -0.5110
 7329SOL    MW429090   4.288   6.413   3.349  0.8693 -0.2564  0.3739
 7330SOL     OW29091   6.381   0.763   3.329  0.4585  0.7360  0.0296
 7330SOL    HW229092   6.455   0.800   3.376  1.2456  1.0636 -1.4077
 7330SOL    HW329093   6.368   0.677   3.368  1.2344  0.8954  0.6629
 7330SOL    MW429094   6.389   0.757   3.340  0.6647  0.8002 -0.0765
 7331SOL     OW29095   1.277   5.421   4.359  0.2930 -0.1886 -0.2479
 7331SOL    HW229096   1.325   5.437   4.440 -1.0855  0.6572  0.4377
 7331SOL    HW329097   1.246   5.507   4.330  0.4804 -0.5128 -1.5069
 7331SOL    MW429098   1.279   5.434   4.366  0.1358 -0.1198 -0.3236
 7332SOL     OW29099   4.332   1.711   1.748 -0.3328 -0.3644  0.1125
 7332SOL    HW229100   4.301   1.738   1.834 -1.3019 -1.3037  0.0902
 7332SOL    HW329101   4.314   1.786   1.691 -0.3670 -0.0135  0.5869
 7332SOL    MW429102   4.325   1.725   1.752 -0.4652 -0.4420  0.1721
 7333SOL     OW29103   4.860   5.079   3.408 -0.3547  0.7423 -0.4123
 7333SOL    HW229104   4.882   5.167   3.376  2.5029  0.6861  1.0459
 7333SOL    HW329105   4.918   5.021   3.358 -0.4806 -0.0374  0.3443
 7333SOL    MW429106   4.871   5.083   3.397  0.0057  0.6320 -0.1201
 7334SOL     OW29107   6.318   5.257   0.192  0.5726 -0.4104 -0.3011
 7334SOL    HW229108   6.323   5.265   0.097  0.2123 -0.6695 -0.3412
 7334SOL    HW329109   6.301   5.164   0.208 -1.3502 -0.0621 -0.0662
 7334SOL    MW429110   6.317   5.246   0.182  0.2714 -0.3986 -0.2754
 7335SOL     OW29111   0.062   4.424   4.142  0.3375 -0.1992 -0.3051
 7335SOL    HW229112   0.041   4.375   4.062 -1.3737 -0.5030  0.2866
 7335SOL    HW329113  -0.023   4.452   4.176  1.0165 -0.1382  1.4517
 7335SOL    MW429114   0.048   4.421   4.136  0.2013 -0.2313  0.0048
 7336SOL     OW29115   3.070   2.293   5.913 -0.0698 -0.4689  0.2398
 7336SOL    HW229116   2.995   2.348   5.894  0.2038  0.5842  1.9603
 7336SOL    HW329117   3.075   2.232   5.839 -3.3345 -1.4154  0.6290
 7336SOL    MW429118   3.061   2.292   5.901 -0.4645 -0.4549  0.5181
 7337SOL     OW29119   0.094   3.231   2.978 -0.0320  0.4306  0.1878
 7337SOL    HW229120   0.092   3.226   2.882  0.9046 -0.6962  0.1996
 7337SOL    HW329121   0.155   3.302   2.996 -1.3297  1.6373 -0.0320
 7337SOL    MW429122   0.102   3.240   2.967 -0.0797  0.4411  0.1603
 7338SOL     OW29123   0.576   1.075   5.548 -0.4357 -0.4807 -0.2237
 7338SOL    HW229124   0.582   1.134   5.623 -1.4560 -1.3950  0.6109
 7338SOL    HW329125   0.579   0.987   5.586 -2.2822 -0.9673 -1.0994
 7338SOL    MW429126   0.577   1.071   5.563 -0.8139 -0.6656 -0.2291
 7339SOL     OW29127   4.622   1.612   4.240 -0.5730 -0.4434 -0.0918
 7339SOL    HW229128   4.539   1.654   4.261 -0.8931 -0.6103 -1.0107
 7339SOL    HW329129   4.679   1.683   4.211 -0.6259 -0.4379 -0.1802
 7339SOL    MW429130   4.619   1.627   4.239 -0.6222 -0.4647 -0.2247
 7340SOL     OW29131   5.638   0.453   5.607  0.3064 -0.2478  0.1760
 7340SOL    HW229132   5.573   0.389   5.578  2.7647 -3.6432  1.4471
 7340SOL    HW329133   5.700   0.460   5.534  0.3355  0.3535  0.2479
 7340SOL    MW429134   5.637   0.446   5.594  0.6346 -0.6165  0.3532
 7341SOL     OW29135   3.520   2.699   1.107  0.2221  0.1143 -0.0668
 7341SOL    HW229136   3.560   2.711   1.193 -0.9401 -0.3243  0.5549
 7341SOL    HW329137   3.431   2.669   1.126 -1.0836  2.8328 -1.3471
 7341SOL    MW429138   3.514   2.697   1.121 -0.1035  0.4151 -0.1537
 7342SOL     OW29139   3.523   3.090   3.955 -0.1226 -0.0221  0.2974
 7342SOL    HW229140   3.489   3.127   3.874 -1.2345 -0.0363  0.7313
 7342SOL    HW329141   3.445   3.056   4.000 -0.2543  3.4626  3.2069
 7342SOL    MW429142   3.508   3.090   3.950 -0.2867  0.4358  0.7385
 7343SOL     OW29143   5.411   1.658   1.433 -0.3235 -0.2640 -0.3273
 7343SOL    HW229144   5.380   1.616   1.513 -0.7905  2.2130  0.8931
 7343SOL    HW329145   5.333   1.667   1.379 -0.2376 -0.8444 -0.5565
 7343SOL    MW429146   5.397   1.654   1.436 -0.3738 -0.0138 -0.1966
 7344SOL     OW29147   3.579   3.588   3.128 -0.3114 -0.0692  0.0613
 7344SOL    HW229148   3.570   3.651   3.200  1.8639 -0.3066  0.6072
 7344SOL    HW329149   3.506   3.608   3.070  0.8048  3.7309 -0.3480
 7344SOL    MW429150   3.568   3.599   3.130  0.1228  0.4008  0.0793
 7345SOL     OW29151   0.466   1.486   3.095 -0.1762  0.0196  0.2904
 7345SOL    HW229152   0.440   1.502   3.005 -2.3456 -0.6315  0.7261
 7345SOL    HW329153   0.488   1.393   3.097  1.5660  0.4041  0.0954
 7345SOL    MW429154   0.465   1.476   3.084 -0.2325 -0.0156  0.3222
 7346SOL     OW29155   3.839   4.594   4.489  0.1442 -0.1352 -0.3796
 7346SOL    HW229156   3.907   4.662   4.490  0.2340 -0.2291 -0.1543
 7346SOL    HW329157   3.767   4.634   4.438 -0.6730  0.9935  1.5472
 7346SOL    MW429158   3.838   4.608   4.482  0.0482  0.0013 -0.0957
 7347SOL     OW29159   5.159   1.384   1.691  0.1616  0.6817 -0.3980
 7347SOL    HW229160   5.226   1.450   1.708 -1.1683  1.9322  0.0775
 7347SOL    HW329161   5.076   1.427   1.711 -0.6921 -1.4734  1.0222
 7347SOL    MW429162   5.157   1.398   1.696 -0.1265  0.5624 -0.1479
 7348SOL     OW29163   4.655   5.969   0.744 -0.1754  0.0639  0.3057
 7348SOL    HW229164   4.625   5.881   0.766  0.3481  0.1927  1.6939
 7348SOL    HW329165   4.750   5.966   0.756 -0.1487  0.8029  0.3684
 7348SOL    MW429166   4.664   5.957   0.749 -0.1028  0.1784  0.4971
 7349SOL     OW29167   5.905   6.082   3.087  0.4789 -0.1643  0.9356
 7349SOL    HW229168   5.902   6.142   3.162 -0.0031  1.5718 -0.4184
 7349SOL    HW329169   5.951   6.132   3.019  1.1835 -1.8205  0.1607
 7349SOL    MW429170   5.911   6.097   3.088  0.5082 -0.1537  0.6547
 7350SOL     OW29171   0.642   1.309   5.371  0.3307 -0.4509  0.2317
 7350SOL    HW229172   0.692   1.292   5.291 -2.3724 -0.5993 -1.6004
 7350SOL    HW329173   0.628   1.222   5.409  0.3385 -0.5670 -0.0248
 7350SOL    MW429174   0.647   1.295   5.365 -0.0249 -0.4858 -0.0439
 7351SOL     OW29175   5.617   4.207   3.678 -0.1950 -0.5272  0.3527
 7351SOL    HW229176   5.566   4.215   3.759  2.6180 -1.9084  2.4261
 7351SOL    HW329177   5.604   4.116   3.652 -0.2086 -0.3900 -0.1174
 7351SOL    MW429178   5.608   4.196   3.685  0.1743 -0.6913  0.5642
 7352SOL     OW29179   5.859   0.563   3.872  0.3243 -1.2676 -0.1735
 7352SOL    HW229180   5.850   0.618   3.950 -1.8921 -1.7235 -0.0341
 7352SOL    HW329181   5.941   0.591   3.832 -1.1628  2.9900 -0.7395
 7352SOL    MW429182   5.869   0.574   3.877 -0.1643 -0.7660 -0.2298
 7353SOL     OW29183   6.322   3.352   2.553  0.3306  0.1700 -0.4384
 7353SOL    HW229184   6.376   3.367   2.475  0.1867 -2.0308 -1.0542
 7353SOL    HW329185   6.256   3.289   2.524 -1.6916  1.6564  0.6840
 7353SOL    MW429186   6.321   3.345   2.539  0.0448  0.0757 -0.3716
 7354SOL     OW29187   0.645   3.940   4.958  0.0194 -0.0557  0.4580
 7354SOL    HW229188   0.726   3.902   4.926 -0.9893 -0.5207 -1.7313
 7354SOL    HW329189   0.578   3.874   4.941 -0.9831  0.6831  1.3275
 7354SOL    MW429190   0.647   3.927   4.952 -0.2460 -0.0196  0.2839
 7355SOL     OW29191   4.638   1.217   5.546  0.2926  0.2519 -0.2905
 7355SOL    HW229192   4.663   1.166   5.623  0.1097  0.1699 -0.2853
 7355SOL    HW329193   4.721   1.241   5.505  0.3736 -0.3243 -0.4728
 7355SOL    MW429194   4.652   1.213   5.550  0.2792  0.1650 -0.3138
 7356SOL     OW29195   5.214   5.348   1.923 -0.2663  0.3024 -0.1473
 7356SOL    HW229196   5.190   5.284   1.990  0.6594  0.9051  0.8018
 7356SOL    HW329197   5.173   5.316   1.843 -1.0866 -0.6448  0.6267
 7356SOL    MW429198   5.205   5.335   1.921 -0.2524  0.2569  0.0801
 7357SOL     OW29199   4.580   5.051   3.453  0.5661  0.1655  0.2005
 7357SOL    HW229200   4.578   5.147   3.452  0.0707  0.2721 -3.3130
 7357SOL    HW329201   4.673   5.029   3.456  0.6991  0.7758  0.6943
 7357SOL    MW429202   4.592   5.061   3.453  0.5183  0.2601 -0.1979
 7358SOL     OW29203   3.242   3.220   2.089 -0.8048  0.4103 -0.0689
 7358SOL    HW229204   3.168   3.208   2.031 -2.1831  2.4719  1.1088
 7358SOL    HW329205   3.211   3.191   2.175  0.2756 -0.1113  0.1642
 7358SOL    MW429206   3.228   3.215   2.093 -0.8441  0.6135  0.1173
 7359SOL     OW29207   3.555   4.974   4.309 -0.4577 -0.4462  0.5407
 7359SOL    HW229208   3.623   4.927   4.260 -0.3936  0.2209 -0.0223
 7359SOL    HW329209   3.551   4.929   4.394  1.9301  0.5759  1.2814
 7359SOL    MW429210   3.564   4.962   4.314 -0.1342 -0.2234  0.5642
 7360SOL     OW29211   0.897   1.693   4.551  0.1458 -0.3295  0.3599
 7360SOL    HW229212   0.809   1.686   4.588 -0.5680 -0.9968 -1.3755
 7360SOL    HW329213   0.942   1.755   4.608 -1.6000  0.4193  0.9849
 7360SOL    MW429214   0.892   1.700   4.563 -0.1787 -0.3187  0.2134
 7361SOL     OW29215   1.979   5.033   4.146  0.0707 -0.3719  0.5390
 7361SOL    HW229216   2.048   5.055   4.208  0.4351 -0.3526  0.1288
 7361SOL    HW329217   2.007   5.071   4.063 -0.1994 -0.7667  0.2588
 7361SOL    MW429218   1.992   5.041   4.143  0.0831 -0.4214  0.4479
 7362SOL     OW29219   1.868   4.434   0.533 -0.2772  0.1356 -0.1290
 7362SOL    HW229220   1.796   4.413   0.593 -0.9839 -0.2349 -1.0796
 7362SOL    HW329221   1.879   4.355   0.481  1.2825 -0.0500  0.4346
 7362SOL    MW429222   1.860   4.421   0.534 -0.1646  0.0622 -0.1801
 7363SOL     OW29223   3.871   5.541   0.819 -0.9029 -0.1679 -0.3782
 7363SOL    HW229224   3.776   5.531   0.831 -0.5297 -1.9503  1.8356
 7363SOL    HW329225   3.894   5.472   0.757 -1.1289  0.8473 -1.6319
 7363SOL    MW429226   3.861   5.530   0.812 -0.8835 -0.2691 -0.2515
 7364SOL     OW29227   5.035   1.805   4.859 -0.2655 -0.2038 -0.1729
 7364SOL    HW229228   5.026   1.889   4.814 -2.4582 -0.2509  0.0569
 7364SOL    HW329229   4.989   1.743   4.803  0.1320 -0.9732  0.3410
 7364SOL    MW429230   5.028   1.808   4.846 -0.5023 -0.3115 -0.0748
 7365SOL     OW29231   2.957   2.569   5.308  0.1859 -0.3890  0.2559
 7365SOL    HW229232   3.028   2.522   5.263  0.5672 -1.6889  2.1234
 7365SOL    HW329233   2.877   2.532   5.271  0.4888 -0.7870 -0.0123
 7365SOL    MW429234   2.956   2.558   5.297  0.2762 -0.6130  0.4669
 7366SOL     OW29235   0.318   5.148   6.346 -1.0597 -0.3261 -0.1811
 7366SOL    HW229236   0.275   5.104   6.419 -1.6423 -0.3517 -0.5291
 7366SOL    HW329237   0.246   5.180   6.292 -0.6532  1.0765  0.0764
 7366SOL    MW429238   0.303   5.146   6.348 -1.0829 -0.1444 -0.1930
 7367SOL     OW29239   1.735   0.185   4.579  0.3370 -0.1373  0.2302
 7367SOL    HW229240   1.686   0.251   4.530  0.2350  0.0120  0.5298
 7367SOL    HW329241   1.798   0.150   4.515  1.3371  1.2276  0.4033
 7367SOL    MW429242   1.737   0.189   4.564  0.4555  0.0625  0.2926
 7368SOL     OW29243   3.057   2.436   0.292  0.3622 -0.3019  0.1574
 7368SOL    HW229244   3.080   2.385   0.369  1.0726 -0.0026  0.1478
 7368SOL    HW329245   3.094   2.388   0.218  1.5477  0.4988  0.1969
 7368SOL    MW429246   3.065   2.423   0.292  0.6123 -0.1567  0.1613
 7369SOL     OW29247   1.062   2.544   1.218 -0.1041 -0.0363 -0.2516
 7369SOL    HW229248   1.096   2.631   1.201  1.2640 -0.2543  1.1704
 7369SOL    HW329249   1.124   2.484   1.176 -1.1182 -0.3555 -1.3604
 7369SOL    MW429250   1.074   2.547   1.210 -0.0574 -0.1072 -0.2102
 7370SOL     OW29251   2.766   2.090   5.665 -1.1112  0.4561 -0.1465
 7370SOL    HW229252   2.746   2.184   5.660  0.9279  0.9085 -0.5605
 7370SOL    HW329253   2.783   2.064   5.575 -0.2725  0.0121  0.1333
 7370SOL    MW429254   2.765   2.099   5.653 -0.7315  0.4572 -0.1642
 7371SOL     OW29255   2.055   0.887   6.058 -0.3501  0.0569  0.0584
 7371SOL    HW229256   2.045   0.879   5.963  0.4102  1.7285 -0.2042
 7371SOL    HW329257   1.969   0.864   6.093 -1.2539  1.3223 -1.1965
 7371SOL    MW429258   2.042   0.883   6.050 -0.3690  0.4444 -0.1418
 7372SOL     OW29259   6.258   0.829   0.805 -0.0953  0.1090 -0.0657
 7372SOL    HW229260   6.223   0.752   0.848 -0.8907  0.3329 -0.2975
 7372SOL    HW329261   6.232   0.820   0.714 -1.3317  1.2694  0.1368
 7372SOL    MW429262   6.250   0.818   0.799 -0.3633  0.2917 -0.0696
 7373SOL     OW29263   1.076   5.058   2.068 -0.0418  0.6016  0.0805
 7373SOL    HW229264   1.157   5.107   2.053 -0.2920  0.8824 -0.3834
 7373SOL    HW329265   1.006   5.123   2.054 -0.3592  0.2356 -0.0463
 7373SOL    MW429266   1.077   5.073   2.064 -0.1167  0.5904  0.0026
 7374SOL     OW29267   0.309   5.089   0.514  0.0580 -0.0033 -0.3243
 7374SOL    HW229268   0.404   5.090   0.518  0.0799 -0.7227 -0.4121
 7374SOL    HW329269   0.282   5.178   0.536  0.7492  0.2008 -0.2995
 7374SOL    MW429270   0.318   5.101   0.517  0.1521 -0.0713 -0.3326
 7375SOL     OW29271   3.006   2.932   6.030 -0.3588 -0.4116 -0.3694
 7375SOL    HW229272   2.960   2.923   5.947 -0.5772 -0.1158 -0.2841
 7375SOL    HW329273   3.098   2.924   6.008 -0.1470  2.7770 -1.1424
 7375SOL    MW429274   3.012   2.930   6.016 -0.3597  0.0481 -0.4602
 7376SOL     OW29275   0.490   2.146   4.887 -0.3808  0.0482 -0.7858
 7376SOL    HW229276   0.531   2.101   4.960 -0.4510  1.7407  0.3353
 7376SOL    HW329277   0.413   2.093   4.867 -0.0448 -0.7476 -0.0220
 7376SOL    MW429278   0.485   2.133   4.894 -0.3457  0.1665 -0.5371
 7377SOL     OW29279   3.473   4.232   1.305 -0.6335 -0.0006 -0.0512
 7377SOL    HW229280   3.516   4.317   1.302  0.6519 -0.6533 -1.5389
 7377SOL    HW329281   3.388   4.247   1.262  0.1194  0.2749 -1.4974
 7377SOL    MW429282   3.467   4.245   1.299 -0.3645 -0.0504 -0.4383
 7378SOL     OW29283   5.975   2.890   4.225 -0.5562  0.6879  0.5620
 7378SOL    HW229284   6.049   2.878   4.284 -0.4664 -1.6131  0.0913
 7378SOL    HW329285   5.899   2.863   4.276 -1.0670  2.6345  0.9032
 7378SOL    MW429286   5.975   2.885   4.239 -0.6118  0.6412  0.5449
 7379SOL     OW29287   3.644   4.336   5.297 -0.2297  0.2229 -0.6849
 7379SOL    HW229288   3.736   4.332   5.271 -0.4606  0.8405 -1.6658
 7379SOL    HW329289   3.615   4.423   5.268 -0.8248  0.5002  0.6586
 7379SOL    MW429290   3.653   4.347   5.290 -0.3387  0.3410 -0.6370
 7380SOL     OW29291   3.378   6.342   6.302 -0.1311 -0.0022  0.4282
 7380SOL    HW229292   3.464   6.302   6.289 -0.9768 -1.4913 -0.8625
 7380SOL    HW329293   3.396   6.418   6.358  2.0646 -0.0608 -0.0829
 7380SOL    MW429294   3.392   6.347   6.308  0.0470 -0.2064  0.1905
 7381SOL     OW29295   3.266   2.929   5.954 -0.2940 -0.0576  0.3066
 7381SOL    HW229296   3.338   2.965   6.007  0.9857  0.2939 -1.5427
 7381SOL    HW329297   3.258   2.991   5.881 -1.2824 -1.0609 -0.4612
 7381SOL    MW429298   3.275   2.942   5.951 -0.2556 -0.1436 -0.0387
 7382SOL     OW29299   0.089   3.188   5.422 -0.1191 -0.3029  0.0443
 7382SOL    HW229300   0.068   3.108   5.470  0.5241 -0.8846 -0.6265
 7382SOL    HW329301   0.062   3.170   5.332 -0.3349  0.3829 -0.0345
 7382SOL    MW429302   0.083   3.175   5.417 -0.0627 -0.2892 -0.0546
 7383SOL     OW29303   2.576   3.298   5.020  0.5090 -0.1202  0.0932
 7383SOL    HW229304   2.641   3.298   4.950 -1.7075 -3.5111 -2.2559
 7383SOL    HW329305   2.514   3.367   4.995  1.5109  1.0829  0.7574
 7383SOL    MW429306   2.576   3.307   5.008  0.3487 -0.4089 -0.1291
 7384SOL     OW29307   0.365   2.689   3.560  0.3279  0.0049 -0.4193
 7384SOL    HW229308   0.450   2.659   3.592 -0.0208 -0.8783 -0.3055
 7384SOL    HW329309   0.328   2.738   3.633  0.0292 -1.0313  0.1383
 7384SOL    MW429310   0.371   2.691   3.574  0.2425 -0.2484 -0.3307
 7385SOL     OW29311   1.849   4.721   0.665 -0.0596 -0.1705 -0.2253
 7385SOL    HW229312   1.839   4.643   0.610  0.9725 -0.7348  0.3529
 7385SOL    HW329313   1.760   4.753   0.678 -0.5408 -1.4706 -0.1632
 7385SOL    MW429314   1.836   4.715   0.659  0.0131 -0.4165 -0.1408
 7386SOL     OW29315   5.697   1.003   3.293 -0.1132 -0.2577 -0.3313
 7386SOL    HW229316   5.635   1.020   3.221  0.0131  0.6961 -0.2313
 7386SOL    HW329317   5.642   1.000   3.371  0.0577  1.8873 -0.0665
 7386SOL    MW429318   5.682   1.005   3.294 -0.0740  0.1512 -0.2831
 7387SOL     OW29319   3.523   1.897   2.721  0.5631 -0.9425 -0.2316
 7387SOL    HW229320   3.514   1.819   2.777  0.4827 -1.4615 -0.9530
 7387SOL    HW329321   3.604   1.939   2.750 -0.0066 -0.6276  0.9695
 7387SOL    MW429322   3.532   1.892   2.732  0.4773 -0.9694 -0.1683
 7388SOL     OW29323   0.353   4.061   4.763 -0.4491 -0.2929  0.1192
 7388SOL    HW229324   0.345   4.015   4.846 -0.6045 -0.8602 -0.2075
 7388SOL    HW329325   0.440   4.038   4.731 -1.0416 -1.4528 -0.6895
 7388SOL    MW429326   0.364   4.052   4.770 -0.5478 -0.5208 -0.0306
 7389SOL     OW29327   4.276   3.084   1.592  0.2290 -0.1427 -0.1884
 7389SOL    HW229328   4.307   3.074   1.682  0.4501  0.3270 -0.2105
 7389SOL    HW329329   4.318   3.013   1.543 -0.1679 -0.6136  0.1476
 7389SOL    MW429330   4.285   3.073   1.597  0.2058 -0.1428 -0.1470
 7390SOL     OW29331   2.598   3.226   2.064 -0.2540 -0.7699 -0.3866
 7390SOL    HW229332   2.545   3.284   2.009  2.5661  3.4161  0.8473
 7390SOL    HW329333   2.618   3.278   2.141  1.6946 -3.8920  1.3986
 7390SOL    MW429334   2.594   3.241   2.067  0.3752 -0.6296  0.0117
 7391SOL     OW29335   3.243   3.136   0.981  0.2147 -0.4005 -0.2735
 7391SOL    HW229336   3.244   3.146   0.885 -0.8092 -1.5518 -0.4272
 7391SOL    HW329337   3.181   3.202   1.011 -0.6356 -1.0387 -0.5672
 7391SOL    MW429338   3.235   3.146   0.972 -0.0326 -0.6366 -0.3325
 7392SOL     OW29339   2.449   5.995   3.293 -0.3303 -0.1828  0.1123
 7392SOL    HW229340   2.361   5.973   3.263  0.0065 -1.4799  0.0325
 7392SOL    HW329341   2.506   5.929   3.253  0.8240  1.2037 -0.6315
 7392SOL    MW429342   2.445   5.983   3.284 -0.1336 -0.1710  0.0036
 7393SOL     OW29343   1.749   2.953   1.768  0.7214  0.0402  0.2174
 7393SOL    HW229344   1.740   3.046   1.749  0.9287  0.0391  0.1102
 7393SOL    HW329345   1.824   2.947   1.826 -0.6972  0.1854  2.1584
 7393SOL    MW429346   1.758   2.964   1.773  0.5616  0.0592  0.4594
 7394SOL     OW29347   0.989   5.719   5.217  0.0591  0.5574  0.1413
 7394SOL    HW229348   0.932   5.751   5.286  0.4043  0.7051  0.3614
 7394SOL    HW329349   1.033   5.643   5.255  0.1705  0.5745  0.0466
 7394SOL    MW429350   0.987   5.713   5.231  0.1194  0.5792  0.1578
 7395SOL     OW29351   2.985   0.524   2.243  0.9202 -0.7870 -0.2406
 7395SOL    HW229352   2.938   0.441   2.241  1.0999 -0.8831 -0.7185
 7395SOL    HW329353   3.060   0.510   2.186  0.1445  0.1727 -1.5472
 7395SOL    MW429354   2.989   0.511   2.235  0.8416 -0.6730 -0.4760
 7396SOL     OW29355   1.265   0.922   4.050  0.1141 -0.3257 -0.1546
 7396SOL    HW229356   1.197   0.898   3.987  0.5020  1.7892 -1.4786
 7396SOL    HW329357   1.222   0.915   4.136 -1.6380  0.4813 -0.9241
 7396SOL    MW429358   1.250   0.918   4.053 -0.0659  0.0598 -0.4308
 7397SOL     OW29359   5.725   0.101   0.904  0.2858 -0.0727 -0.1276
 7397SOL    HW229360   5.739   0.175   0.845  0.9032 -1.3138 -1.6119
 7397SOL    HW329361   5.802   0.101   0.961 -0.5030  1.3696  1.0155
 7397SOL    MW429362   5.737   0.111   0.904  0.2632 -0.0461 -0.1726
 7398SOL     OW29363   0.725   4.299   1.414 -0.2982 -0.3652  0.2420
 7398SOL    HW229364   0.706   4.355   1.339  2.4804 -0.7529 -0.8665
 7398SOL    HW329365   0.640   4.288   1.458 -1.1479  3.9009  0.0612
 7398SOL    MW429366   0.711   4.305   1.410 -0.0437  0.1465  0.0719
 7399SOL     OW29367   5.673   5.679   3.816 -0.6240 -0.8804  0.4891
 7399SOL    HW229368   5.591   5.713   3.851 -1.2839 -1.2874 -0.6205
 7399SOL    HW329369   5.712   5.753   3.770 -0.3124 -0.6591  1.1014
 7399SOL    MW429370   5.667   5.693   3.814 -0.6699 -0.9049  0.4235
 7400SOL     OW29371   6.279   5.178   3.948 -0.3050  0.7473 -0.3862
 7400SOL    HW229372   6.245   5.218   4.028 -0.7403  1.7823 -1.0599
 7400SOL    HW329373   6.275   5.084   3.964 -0.1363  0.9508  0.9003
 7400SOL    MW429374   6.274   5.171   3.961 -0.3402  0.9107 -0.3053
 7401SOL     OW29375   3.587   2.914   0.627 -0.6854  0.3522 -0.8984
 7401SOL    HW229376   3.545   2.851   0.686 -0.1691  0.3649 -0.5185
 7401SOL    HW329377   3.679   2.887   0.625 -0.8474 -0.2091 -2.4009
 7401SOL    MW429378   3.593   2.902   0.634 -0.6387  0.2798 -1.0465
 7402SOL     OW29379   2.248   5.803   2.676  0.6474  0.0418 -0.2207
 7402SOL    HW229380   2.299   5.737   2.629 -0.0209 -0.8016  0.2114
 7402SOL    HW329381   2.183   5.833   2.613  0.2367 -0.5374 -0.0803
 7402SOL    MW429382   2.246   5.798   2.661  0.5051 -0.1459 -0.1451
 7403SOL     OW29383   3.066   3.571   1.467 -0.9215  0.2775 -0.2585
 7403SOL    HW229384   3.090   3.506   1.534  0.5541 -1.2216 -2.1079
 7403SOL    HW329385   3.140   3.632   1.467 -0.6515 -0.0433 -0.8665
 7403SOL    MW429386   3.079   3.570   1.476 -0.6912  0.0374 -0.5827
 7404SOL     OW29387   1.611   3.674   4.432  0.4414  0.5079 -0.0694
 7404SOL    HW229388   1.568   3.729   4.497  1.9170  1.3322  0.2704
 7404SOL    HW329389   1.557   3.595   4.427  0.2252  0.4586  2.0750
 7404SOL    MW429390   1.598   3.671   4.440  0.6076  0.6102  0.2584
 7405SOL     OW29391   4.039   6.242   0.927  0.0418  0.6565  0.1085
 7405SOL    HW229392   4.027   6.310   0.993  1.1607  0.8143  0.1726
 7405SOL    HW329393   4.133   6.244   0.908 -0.1891  0.2678 -1.1198
 7405SOL    MW429394   4.050   6.251   0.934  0.1589  0.6260 -0.0451
 7406SOL     OW29395   4.233   2.305   1.560  0.2781  0.6972  0.5511
 7406SOL    HW229396   4.311   2.355   1.584  0.7480  1.0458 -1.4787
 7406SOL    HW329397   4.206   2.342   1.475 -0.5108 -1.1835 -0.0838
 7406SOL    MW429398   4.240   2.317   1.552  0.2360  0.4951  0.1995
 7407SOL     OW29399   4.858   5.369   0.706 -0.2445  0.3267  0.1111
 7407SOL    HW229400   4.782   5.412   0.667  1.4915  1.8620 -1.7821
 7407SOL    HW329401   4.872   5.291   0.652 -1.3546 -0.8890  1.4677
 7407SOL    MW429402   4.849   5.364   0.694 -0.1619  0.3688  0.0403
 7408SOL     OW29403   0.549   0.740   0.306  0.1171 -0.2860 -0.1951
 7408SOL    HW229404   0.460   0.738   0.271 -0.2955  1.5841  0.6243
 7408SOL    HW329405   0.540   0.781   0.392  1.9190  1.1915 -0.6471
 7408SOL    MW429406   0.536   0.745   0.313  0.3004  0.1557 -0.1466
 7409SOL     OW29407   5.172   5.834   3.919  0.1326  0.0527  0.6716
 7409SOL    HW229408   5.242   5.779   3.882  1.0556  1.3793  0.3956
 7409SOL    HW329409   5.096   5.815   3.864  0.9867  0.5606 -0.7508
 7409SOL    MW429410   5.172   5.824   3.907  0.3671  0.2947  0.4475
 7410SOL     OW29411   4.149   3.953   3.750  0.8565 -0.0270 -0.4188
 7410SOL    HW229412   4.236   3.915   3.761  0.2570 -1.6467 -0.9567
 7410SOL    HW329413   4.164   4.047   3.746  2.2997 -0.0745  2.0612
 7410SOL    MW429414   4.162   3.960   3.751  0.9678 -0.2470 -0.1625
 7411SOL     OW29415   1.289   4.581   3.219  0.0856  0.8738  0.6652
 7411SOL    HW229416   1.359   4.646   3.211  0.0067  1.1871  2.2316
 7411SOL    HW329417   1.244   4.605   3.300 -0.1808 -0.9067  1.0795
 7411SOL    MW429418   1.293   4.593   3.228  0.0401  0.6802  0.9265
 7412SOL     OW29419   3.320   1.376   1.174 -0.1402  0.6048 -0.2016
 7412SOL    HW229420   3.375   1.331   1.110  1.1650 -0.0440  1.2845
 7412SOL    HW329421   3.239   1.395   1.128  1.0994  1.0502 -2.3093
 7412SOL    MW429422   3.317   1.372   1.160  0.1956  0.5780 -0.2836
 7413SOL     OW29423   4.498   4.075   1.703  0.4387 -0.0524 -0.7687
 7413SOL    HW229424   4.481   4.066   1.797  1.5374  0.8018 -0.4690
 7413SOL    HW329425   4.536   3.990   1.678 -0.4510 -0.5169 -0.5982
 7413SOL    MW429426   4.501   4.062   1.712  0.4663 -0.0010 -0.7066
 7414SOL     OW29427   1.976   4.610   5.405  0.3458  0.0811 -0.5845
 7414SOL    HW229428   1.955   4.517   5.404 -0.6919  0.3026 -0.5824
 7414SOL    HW329429   1.892   4.654   5.417  0.0435  1.2164 -4.9609
 7414SOL    MW429430   1.962   4.603   5.406  0.1690  0.2601 -1.1617
 7415SOL     OW29431   3.441   5.331   3.394 -0.4593 -0.1002 -0.1336
 7415SOL    HW229432   3.348   5.356   3.399 -0.4081 -0.0785  1.0148
 7415SOL    HW329433   3.488   5.414   3.406 -0.2775 -0.0177 -1.3109
 7415SOL    MW429434   3.435   5.346   3.396 -0.4285 -0.0865 -0.1374
 7416SOL     OW29435   1.735   5.849   6.060 -0.4652  0.1866 -0.7186
 7416SOL    HW229436   1.739   5.895   6.144 -0.2929  0.3788 -0.8302
 7416SOL    HW329437   1.802   5.892   6.006 -0.1025 -0.3853 -0.7310
 7416SOL    MW429438   1.744   5.861   6.064 -0.3946  0.1365 -0.7350
 7417SOL     OW29439   0.868   3.551   3.225  0.2105  0.4726 -0.2462
 7417SOL    HW229440   0.883   3.458   3.244 -1.5020 -0.4569 -2.7977
 7417SOL    HW329441   0.800   3.577   3.287 -0.8644 -0.6518 -0.9085
 7417SOL    MW429442   0.861   3.542   3.236 -0.1573  0.2016 -0.6702
 7418SOL     OW29443   0.187   2.696   5.252  0.3199  0.1649  0.2235
 7418SOL    HW229444   0.141   2.626   5.205 -0.9072  0.3056  1.1677
 7418SOL    HW329445   0.226   2.652   5.328  2.3457 -0.0720 -0.8740
 7418SOL    MW429446   0.186   2.681   5.256  0.4252  0.1522  0.2033
 7419SOL     OW29447   6.255   1.126   3.991  0.2382 -0.3065 -0.6275
 7419SOL    HW229448   6.214   1.203   3.952  0.8537  1.5848  2.1070
 7419SOL    HW329449   6.199   1.053   3.967 -3.3283  1.7338  0.7119
 7419SOL    MW429450   6.242   1.127   3.983 -0.1512  0.2123 -0.0900
 7420SOL     OW29451   5.850   1.180   3.564 -1.0463 -0.1324  0.1433
 7420SOL    HW229452   5.840   1.250   3.628 -0.1380 -0.7607  1.0084
 7420SOL    HW329453   5.806   1.212   3.486 -2.2755  0.6180  1.1071
 7420SOL    MW429454   5.843   1.193   3.562 -1.0886 -0.1163  0.3846
 7421SOL     OW29455   0.773   0.718   0.676 -0.2547  0.3825 -0.3772
 7421SOL    HW229456   0.685   0.721   0.714 -0.9036  1.3606 -1.8406
 7421SOL    HW329457   0.797   0.810   0.664  0.7260  0.1202 -0.5470
 7421SOL    MW429458   0.765   0.731   0.680 -0.2109  0.4769 -0.5927
 7422SOL     OW29459   1.874   1.348   3.169  0.3950 -0.0422 -0.5153
 7422SOL    HW229460   1.869   1.443   3.172  0.7820 -0.0444  0.6829
 7422SOL    HW329461   1.953   1.327   3.218 -0.7324 -1.0577  0.9683
 7422SOL    MW429462   1.884   1.358   3.176  0.2973 -0.1764 -0.1615
 7423SOL     OW29463   5.564   4.553   3.935 -0.1934 -0.1461  0.3396
 7423SOL    HW229464   5.494   4.541   3.871 -0.1149  1.1054 -0.0119
 7423SOL    HW329465   5.521   4.553   4.020 -1.0019  2.8446  0.0333
 7423SOL    MW429466   5.549   4.551   3.938 -0.2897  0.4136  0.2528
 7424SOL     OW29467   6.162   4.418   5.587 -0.2358 -0.1587 -0.2084
 7424SOL    HW229468   6.250   4.451   5.603  0.2019 -1.8923  1.3543
 7424SOL    HW329469   6.147   4.432   5.493  1.1771  1.3074 -0.2482
 7424SOL    MW429470   6.172   4.424   5.576  0.0083 -0.1940 -0.0075
 7425SOL     OW29471   5.986   0.782   1.876 -0.2784 -0.2276 -0.2091
 7425SOL    HW229472   5.925   0.851   1.903 -0.5194 -0.8184  0.7976
 7425SOL    HW329473   6.058   0.829   1.833  0.1562  0.7931  1.5227
 7425SOL    MW429474   5.988   0.797   1.874 -0.2529 -0.1708  0.1522
 7426SOL     OW29475   4.504   1.349   6.143  0.6121  0.2604  0.0141
 7426SOL    HW229476   4.462   1.380   6.063  0.7300  0.5402  0.0566
 7426SOL    HW329477   4.514   1.255   6.130  1.9638  0.4869 -0.9497
 7426SOL    MW429478   4.500   1.341   6.130  0.8060  0.3272 -0.1075
 7427SOL     OW29479   0.173   4.116   3.604  0.1657 -0.1933 -0.0125
 7427SOL    HW229480   0.161   4.099   3.511 -1.9883  1.0379 -0.0422
 7427SOL    HW329481   0.199   4.032   3.641 -0.9102 -1.2162 -1.4533
 7427SOL    MW429482   0.175   4.103   3.597 -0.2605 -0.1658 -0.2065
 7428SOL     OW29483   4.179   3.231   5.038  0.2389 -0.7438  0.3183
 7428SOL    HW229484   4.118   3.278   4.982 -0.6670 -0.1603  1.7271
 7428SOL    HW329485   4.262   3.279   5.029 -0.1972  0.0377  0.3448
 7428SOL    MW429486   4.182   3.244   5.029  0.0618 -0.5637  0.5076
 7429SOL     OW29487   1.291   5.050   1.747  0.0758  1.0251 -0.4026
 7429SOL    HW229488   1.272   5.008   1.663  0.7341 -0.2968  0.0857
 7429SOL    HW329489   1.273   5.143   1.732 -1.5225  0.5789 -1.4927
 7429SOL    MW429490   1.286   5.057   1.734 -0.0482  0.7919 -0.4820
 7430SOL     OW29491   5.068   3.184   0.335 -0.1236  0.0268 -0.5192
 7430SOL    HW229492   5.098   3.112   0.280  0.5440  0.2439 -0.4458
 7430SOL    HW329493   5.042   3.143   0.418 -0.9714 -0.2793 -0.9219
 7430SOL    MW429494   5.068   3.169   0.339 -0.1474  0.0151 -0.5626
 7431SOL     OW29495   2.819   3.339   1.820 -0.1056 -0.2948  0.0844
 7431SOL    HW229496   2.876   3.401   1.774  0.2779  0.0490  1.0097
 7431SOL    HW329497   2.781   3.390   1.891  0.4604 -1.1926  1.0487
 7431SOL    MW429498   2.822   3.354   1.823  0.0197 -0.3679  0.3337
 7432SOL     OW29499   0.762   0.987   0.609  0.1466 -0.2262 -0.0564
 7432SOL    HW229500   0.729   1.058   0.665  0.2734  1.4442 -2.0185
 7432SOL    HW329501   0.855   1.006   0.598  0.4244 -1.3304  0.2628
 7432SOL    MW429502   0.770   0.999   0.615  0.2000 -0.1515 -0.2731
 7433SOL     OW29503   0.787   1.282   4.273 -0.0867 -0.1914  0.0375
 7433SOL    HW229504   0.839   1.280   4.192 -1.0116 -2.1323 -0.5795
 7433SOL    HW329505   0.780   1.374   4.296  0.7313  0.3472 -1.7602
 7433SOL    MW429506   0.793   1.294   4.265 -0.1008 -0.3764 -0.2811
 7434SOL     OW29507   6.244   3.829   5.472 -0.2667  0.0649  0.3416
 7434SOL    HW229508   6.223   3.760   5.408  0.6040 -0.9421  1.1147
 7434SOL    HW329509   6.319   3.875   5.433 -1.2835  1.0734 -0.5098
 7434SOL    MW429510   6.251   3.826   5.458 -0.2860  0.0651  0.3313
 7435SOL     OW29511   0.826   1.092   4.503  0.1652  0.0548 -0.4017
 7435SOL    HW229512   0.909   1.124   4.538  0.8608 -1.3448 -0.6827
 7435SOL    HW329513   0.801   1.156   4.437  0.1305  1.3923  0.8656
 7435SOL    MW429514   0.834   1.104   4.499  0.2524  0.0466 -0.2716
 7436SOL     OW29515   6.349   5.235   1.823 -0.1950 -0.3586  0.0108
 7436SOL    HW229516   6.298   5.154   1.830  4.4454 -3.5542  1.6228
 7436SOL    HW329517   6.316   5.291   1.893 -2.1123 -1.7299  0.2825
 7436SOL    MW429518   6.338   5.232   1.833  0.1643 -0.9611  0.2594
 7437SOL     OW29519   1.639   0.372   6.095 -0.2776 -0.0551 -0.3968
 7437SOL    HW229520   1.624   0.466   6.105 -0.4834 -0.1486  0.1766
 7437SOL    HW329521   1.602   0.351   6.009  1.7386  0.8028 -1.5527
 7437SOL    MW429522   1.633   0.382   6.085 -0.0388  0.0458 -0.4736
 7438SOL     OW29523   1.849   3.246   1.331  0.1326  0.2964 -0.2970
 7438SOL    HW229524   1.865   3.325   1.281 -1.0519  1.2746  0.7708
 7438SOL    HW329525   1.928   3.233   1.383  0.1540  1.0735 -0.1270
 7438SOL    MW429526   1.861   3.255   1.331 -0.0209  0.5280 -0.1337
 7439SOL     OW29527   2.404   5.155   5.351 -0.0086 -0.5027  0.2510
 7439SOL    HW229528   2.454   5.160   5.433 -0.0831  0.6774  0.2390
 7439SOL    HW329529   2.322   5.114   5.376 -1.2920  2.4909  1.4631
 7439SOL    MW429530   2.400   5.150   5.366 -0.1877  0.0480  0.4093
 7440SOL     OW29531   4.115   1.699   0.187  0.2756 -0.4226 -0.5387
 7440SOL    HW229532   4.066   1.639   0.131 -0.9022  0.0699 -0.0721
 7440SOL    HW329533   4.123   1.779   0.135 -1.9471  0.4902  0.4022
 7440SOL    MW429534   4.109   1.702   0.173 -0.1731 -0.2372 -0.3530
 7441SOL     OW29535   4.935   3.647   2.879  0.0551 -0.4379 -0.4656
 7441SOL    HW229536   4.850   3.682   2.903 -0.1480 -0.4917 -1.0804
 7441SOL    HW329537   4.994   3.674   2.949 -0.6775 -1.2946  0.5159
 7441SOL    MW429538   4.932   3.655   2.891 -0.0683 -0.5580 -0.4172
 7442SOL     OW29539   4.441   3.734   0.583 -0.7364  0.0135  0.4096
 7442SOL    HW229540   4.531   3.766   0.572  0.1186 -2.3393  0.0805
 7442SOL    HW329541   4.400   3.750   0.498  0.2724 -1.4243 -0.3949
 7442SOL    MW429542   4.448   3.741   0.570 -0.4905 -0.4866  0.2601
 7443SOL     OW29543   0.281   3.729   1.305 -0.0653  0.3186 -0.2048
 7443SOL    HW229544   0.238   3.694   1.227 -1.2701 -0.8856  0.9358
 7443SOL    HW329545   0.267   3.662   1.371  1.6760  0.9148  0.8422
 7443SOL    MW429546   0.274   3.715   1.303  0.0055  0.2384  0.0839
 7444SOL     OW29547   1.314   5.035   2.314  0.3301 -0.7056  0.5409
 7444SOL    HW229548   1.353   4.983   2.385 -0.0277 -1.1871  0.3844
 7444SOL    HW329549   1.233   4.989   2.292  1.5984 -1.9478 -1.8354
 7444SOL    MW429550   1.309   5.022   2.321  0.4503 -0.9330  0.2067
 7445SOL     OW29551   0.097   1.387   5.132  0.0394  0.3955 -0.2281
 7445SOL    HW229552   0.048   1.306   5.133  2.2422 -1.0490 -0.8209
 7445SOL    HW329553   0.118   1.405   5.224 -1.5380  1.0673  0.0365
 7445SOL    MW429554   0.094   1.379   5.144  0.1219  0.2936 -0.2714
 7446SOL     OW29555   0.906   4.348   0.324 -0.3386 -0.1599  0.0014
 7446SOL    HW229556   0.830   4.400   0.298  0.9408  1.2184 -1.1178
 7446SOL    HW329557   0.977   4.411   0.332  1.0285 -1.6078 -0.3549
 7446SOL    MW429558   0.905   4.363   0.322  0.0106 -0.1691 -0.1933
 7447SOL     OW29559   3.444   3.916   0.671  0.0326  0.8262  0.2717
 7447SOL    HW229560   3.488   3.975   0.733  0.6755  0.9425 -0.2886
 7447SOL    HW329561   3.496   3.921   0.592 -0.1839 -0.1380  0.0554
 7447SOL    MW429562   3.456   3.925   0.669  0.0888  0.7144  0.1692
 7448SOL     OW29563   2.777   4.452   5.509  0.1605 -0.6107  0.1611
 7448SOL    HW229564   2.796   4.444   5.416 -0.9759  2.4730 -0.4544
 7448SOL    HW329565   2.858   4.486   5.548  0.0968 -0.2294 -0.0352
 7448SOL    MW429566   2.790   4.455   5.502  0.0022 -0.1536  0.0540
 7449SOL     OW29567   0.686   4.511   2.364 -0.1351 -0.1345  0.1243
 7449SOL    HW229568   0.617   4.574   2.380 -0.2579 -0.0178 -0.7784
 7449SOL    HW329569   0.744   4.554   2.301 -0.2265 -0.9171 -0.5151
 7449SOL    MW429570   0.685   4.525   2.358 -0.1634 -0.2223 -0.0792
 7450SOL     OW29571   6.042   4.815   1.395 -0.0613  0.2534  0.5499
 7450SOL    HW229572   6.040   4.765   1.477 -0.1507  1.7093  1.4872
 7450SOL    HW329573   6.029   4.906   1.423 -0.0138  0.7929 -1.0894
 7450SOL    MW429574   6.040   4.820   1.410 -0.0669  0.5167  0.4573
 7451SOL     OW29575   1.076   0.709   4.698  0.2325  0.0959 -0.9107
 7451SOL    HW229576   1.081   0.639   4.764  0.7059  0.8542 -0.1158
 7451SOL    HW329577   1.118   0.673   4.620  2.2302  0.1269  0.0779
 7451SOL    MW429578   1.082   0.695   4.697  0.5586  0.2000 -0.6754
 7452SOL     OW29579   5.749   6.227   0.811  0.7803 -0.6575  0.1129
 7452SOL    HW229580   5.748   6.312   0.857 -0.2221  1.4431 -3.3994
 7452SOL    HW329581   5.672   6.181   0.843 -0.0029  0.7923  0.4046
 7452SOL    MW429582   5.739   6.232   0.822  0.5447 -0.1891 -0.3120
 7453SOL     OW29583   2.226   2.878   2.029  0.4698 -0.2498  0.1432
 7453SOL    HW229584   2.243   2.955   2.082 -0.2506  1.4243 -1.9479
 7453SOL    HW329585   2.311   2.833   2.024  0.8715  0.3218  1.4523
 7453SOL    MW429586   2.239   2.882   2.035  0.4278  0.0465  0.0400
 7454SOL     OW29587   4.898   1.815   2.796 -0.0456  0.3011  0.2742
 7454SOL    HW229588   4.940   1.901   2.785  1.0063 -0.4208 -1.7295
 7454SOL    HW329589   4.970   1.755   2.815 -0.4664 -0.5252 -0.6588
 7454SOL    MW429590   4.913   1.819   2.797  0.0377  0.0969 -0.1133
 7455SOL     OW29591   5.805   1.416   4.901 -0.1585 -0.6672 -0.0471
 7455SOL    HW229592   5.804   1.348   4.968 -1.1627  0.4234  1.0936
 7455SOL    HW329593   5.895   1.415   4.867  0.5262 -0.9498  1.6469
 7455SOL    MW429594   5.817   1.407   4.905 -0.2006 -0.5606  0.3269
 7456SOL     OW29595   0.509   2.001   2.511 -0.2918  0.5413 -0.1513
 7456SOL    HW229596   0.487   1.908   2.503  1.7859 -0.4909  3.4122
 7456SOL    HW329597   0.476   2.026   2.598  1.8291  2.1977  0.2685
 7456SOL    MW429598   0.502   1.992   2.522  0.2622  0.6236  0.3743
 7457SOL     OW29599   4.775   3.059   2.208 -0.6450  0.0821  0.0178
 7457SOL    HW229600   4.823   3.141   2.224  0.5620 -0.5283 -0.3945
 7457SOL    HW329601   4.711   3.055   2.280 -0.8555  1.4742 -0.0574
 7457SOL    MW429602   4.773   3.070   2.220 -0.5135  0.1852 -0.0465
 7458SOL     OW29603   3.136   1.871   5.805  0.0366  0.1348 -0.0129
 7458SOL    HW229604   3.206   1.892   5.866  0.5895  0.3376 -0.6963
 7458SOL    HW329605   3.081   1.809   5.851 -0.1395  1.0599  1.0691
 7458SOL    MW429606   3.138   1.866   5.819  0.0863  0.2836  0.0397
 7459SOL     OW29607   3.501   3.715   1.968 -0.5127 -0.1949  0.6153
 7459SOL    HW229608   3.414   3.720   1.928 -1.1597  1.8777  2.0612
 7459SOL    HW329609   3.546   3.793   1.936  1.2663 -1.7812 -0.9482
 7459SOL    MW429610   3.495   3.726   1.959 -0.3634 -0.1307  0.5998
 7460SOL     OW29611   1.755   0.365   1.921  0.7683 -0.5808  0.2528
 7460SOL    HW229612   1.834   0.391   1.968  0.1216  1.8539  0.1350
 7460SOL    HW329613   1.769   0.273   1.900  3.5417 -0.2504  0.2605
 7460SOL    MW429614   1.767   0.357   1.925  1.0489 -0.2160  0.2383
 7461SOL     OW29615   1.422   6.030   3.867 -0.1070 -0.2022 -0.4372
 7461SOL    HW229616   1.458   5.944   3.847  0.2421  0.0668 -0.9982
 7461SOL    HW329617   1.434   6.040   3.962 -0.9926 -1.1399 -0.2152
 7461SOL    MW429618   1.428   6.020   3.877 -0.1777 -0.2904 -0.4820
 7462SOL     OW29619   1.863   3.910   5.775  0.2743 -0.4977 -0.4920
 7462SOL    HW229620   1.831   3.976   5.713 -1.7079  0.6322  1.5913
 7462SOL    HW329621   1.929   3.956   5.827  0.2040 -0.6987 -0.2207
 7462SOL    MW429622   1.868   3.925   5.774  0.0035 -0.3752 -0.1813
 7463SOL     OW29623   0.113   4.830   2.601 -0.2868 -0.1982 -0.3533
 7463SOL    HW229624   0.047   4.764   2.623  0.0467 -0.5294 -0.3400
 7463SOL    HW329625   0.195   4.780   2.591 -0.0210  0.2202 -0.2813
 7463SOL    MW429626   0.115   4.815   2.602 -0.2077 -0.1867 -0.3420
 7464SOL     OW29627   5.611   0.986   3.882 -0.4588 -0.5638 -0.2331
 7464SOL    HW229628   5.586   0.913   3.825 -3.1635 -0.0270  0.1626
 7464SOL    HW329629   5.567   1.062   3.845 -0.3419  0.2434  1.2242
 7464SOL    MW429630   5.602   0.986   3.870 -0.8002 -0.3865  0.0114
 7465SOL     OW29631   1.161   4.130   4.307 -0.1761  0.8295  0.1622
 7465SOL    HW229632   1.216   4.204   4.331  0.9197 -0.1966  0.8940
 7465SOL    HW329633   1.203   4.054   4.348 -2.0219 -0.0197  0.5946
 7465SOL    MW429634   1.174   4.130   4.316 -0.2751  0.5821  0.3158
 7466SOL     OW29635   2.032   0.020   6.284  0.4178  0.2432  0.1644
 7466SOL    HW229636   2.080   0.082   6.229 -0.7596  1.0088 -0.0420
 7466SOL    HW329637   1.950   0.005   6.237  0.0333 -0.2692  0.9739
 7466SOL    MW429638   2.028   0.027   6.270  0.2117  0.2766  0.2440
 7467SOL     OW29639   3.545   4.054   6.135  0.4684  0.7137  0.0761
 7467SOL    HW229640   3.587   3.989   6.079  0.5952  0.1363  0.8253
 7467SOL    HW329641   3.451   4.040   6.121  0.4684 -0.5360  1.2283
 7467SOL    MW429642   3.538   4.044   6.126  0.4852  0.4726  0.3270
 7468SOL     OW29643   3.263   4.713   2.881 -0.3414  0.4557  0.2258
 7468SOL    HW229644   3.336   4.734   2.823 -0.1146  1.5098  0.8679
 7468SOL    HW329645   3.218   4.797   2.893 -2.2460 -0.3493 -0.9366
 7468SOL    MW429646   3.267   4.727   2.875 -0.5627  0.4886  0.1572
 7469SOL     OW29647   2.352   3.196   2.411  0.0710  0.4510 -0.3896
 7469SOL    HW229648   2.277   3.145   2.442 -0.9791  1.3590 -1.3139
 7469SOL    HW329649   2.318   3.285   2.402  1.1481  0.7966 -1.2450
 7469SOL    MW429650   2.338   3.201   2.414  0.0745  0.6164 -0.6244
 7470SOL     OW29651   3.965   4.092   1.830 -0.4040  0.0816  0.4294
 7470SOL    HW229652   3.972   4.160   1.763  0.9312 -0.8370 -0.4011
 7470SOL    HW329653   3.906   4.130   1.896 -0.1917  1.7801 -0.3055
 7470SOL    MW429654   3.958   4.106   1.830 -0.1998  0.1845  0.2229
 7471SOL     OW29655   4.177   3.307   3.835  0.1247 -0.1221 -0.5098
 7471SOL    HW229656   4.160   3.230   3.781 -0.6559  0.6722 -1.4520
 7471SOL    HW329657   4.147   3.380   3.781  0.2932  0.7869  0.5985
 7471SOL    MW429658   4.171   3.306   3.821  0.0440  0.1026 -0.4879
 7472SOL     OW29659   1.296   4.687   0.659 -0.1940  0.6785  0.1645
 7472SOL    HW229660   1.260   4.770   0.627  0.4151  0.1933 -1.9582
 7472SOL    HW329661   1.223   4.625   0.655 -0.1708  0.6674 -0.0650
 7472SOL    MW429662   1.282   4.690   0.654 -0.1106  0.6130 -0.1459
 7473SOL     OW29663   4.500   6.208   2.990  0.1252 -0.1399  0.3413
 7473SOL    HW229664   4.534   6.288   3.031  2.0005 -0.3533 -0.7049
 7473SOL    HW329665   4.577   6.166   2.952 -1.1577 -1.3249 -1.0387
 7473SOL    MW429666   4.515   6.213   2.991  0.2033 -0.3244  0.0212
 7474SOL     OW29667   2.842   6.381   4.615  0.1271  0.1682 -0.2021
 7474SOL    HW229668   2.868   6.377   4.707  0.2719  1.7662 -0.1465
 7474SOL    HW329669   2.770   6.445   4.613  1.9291  2.3124 -1.5286
 7474SOL    MW429670   2.836   6.389   4.627  0.3840  0.6619 -0.3698
 7475SOL     OW29671   2.112   2.562   5.143  0.2588  0.0181  0.1734
 7475SOL    HW229672   2.046   2.582   5.209  0.5424  1.6522  0.0217
 7475SOL    HW329673   2.193   2.547   5.193  0.4163  0.9988  0.2325
 7475SOL    MW429674   2.114   2.563   5.159  0.3170  0.3631  0.1612
 7476SOL     OW29675   3.434   0.869   6.201  0.2871 -0.0316  0.5328
 7476SOL    HW229676   3.418   0.963   6.201  1.6031  0.2127  0.9632
 7476SOL    HW329677   3.399   0.839   6.285 -0.4987 -0.0034  0.2211
 7476SOL    MW429678   3.428   0.877   6.212  0.3571  0.0043  0.5484
 7477SOL     OW29679   5.068   4.306   2.401  0.0578  0.5316 -0.1029
 7477SOL    HW229680   4.992   4.358   2.377 -0.7337 -0.9106 -0.8615
 7477SOL    HW329681   5.106   4.279   2.317 -1.2512 -2.4640  0.1382
 7477SOL    MW429682   5.063   4.309   2.387 -0.2194 -0.0539 -0.1712
 7478SOL     OW29683   4.308   5.917   2.929 -0.3779 -0.7718  0.4978
 7478SOL    HW229684   4.221   5.883   2.950 -0.0089 -1.5620  0.7946
 7478SOL    HW329685   4.300   6.012   2.941 -1.0682 -0.8852  0.9992
 7478SOL    MW429686   4.295   5.925   2.934 -0.4203 -0.8910  0.6031
 7479SOL     OW29687   4.970   4.804   2.025  0.2918  0.0884 -0.4107
 7479SOL    HW229688   4.990   4.857   2.102  0.9329 -0.4280 -0.2161
 7479SOL    HW329689   4.891   4.844   1.989  0.0100  0.3675  0.4856
 7479SOL    MW429690   4.962   4.817   2.031  0.3392  0.0571 -0.2668
 7480SOL     OW29691   5.343   2.129   6.269  0.2096 -0.1366 -0.0897
 7480SOL    HW229692   5.397   2.062   6.228  1.2003  0.1959  0.6389
 7480SOL    HW329693   5.382   2.212   6.242 -0.9546  0.1760 -0.9118
 7480SOL    MW429694   5.355   2.131   6.260  0.1867 -0.0515 -0.1020
 7481SOL     OW29695   2.331   3.936   3.430  0.1565  0.0018  0.6164
 7481SOL    HW229696   2.421   3.942   3.463 -0.0497  0.7314  1.0690
 7481SOL    HW329697   2.277   3.936   3.509 -0.3197  1.2471  0.3111
 7481SOL    MW429698   2.336   3.937   3.445  0.0664  0.2624  0.6358
 7482SOL     OW29699   4.009   0.362   5.991  0.3306 -0.1634 -0.5745
 7482SOL    HW229700   3.976   0.361   6.081  0.5120 -1.0965 -0.5041
 7482SOL    HW329701   3.974   0.443   5.953 -0.8893 -0.4332 -0.0785
 7482SOL    MW429702   4.000   0.372   5.998  0.1936 -0.3221 -0.4998
 7483SOL     OW29703   2.441   6.164   1.636  0.0838  0.1856 -0.1447
 7483SOL    HW229704   2.469   6.210   1.556 -1.1093  0.2314 -0.5671
 7483SOL    HW329705   2.386   6.092   1.603  1.6583 -1.3767  0.5231
 7483SOL    MW429706   2.437   6.161   1.621  0.1341 -0.0145 -0.1123
 7484SOL     OW29707   4.032   5.339   0.660  0.2131 -0.0577 -0.4242
 7484SOL    HW229708   4.024   5.359   0.567  0.6418  1.2225 -0.2099
 7484SOL    HW329709   4.114   5.381   0.686  0.5855 -1.2115  0.3323
 7484SOL    MW429710   4.042   5.347   0.651  0.3188 -0.0411 -0.2961
 7485SOL     OW29711   2.300   2.682   3.479  0.6077 -0.1959  0.3037
 7485SOL    HW229712   2.239   2.703   3.549  0.1937 -1.0686  0.2121
 7485SOL    HW329713   2.302   2.586   3.475  2.7383 -0.2443  0.9642
 7485SOL    MW429714   2.292   2.672   3.488  0.8342 -0.3174  0.3787
 7486SOL     OW29715   1.888   2.962   6.062  0.3268  0.3121 -0.7173
 7486SOL    HW229716   1.936   2.936   6.140 -0.6591 -0.9683 -0.4978
 7486SOL    HW329717   1.862   3.053   6.079 -0.7636 -0.2569  0.9579
 7486SOL    MW429718   1.891   2.971   6.074  0.0529  0.0681 -0.4673
 7487SOL     OW29719   3.403   2.820   3.106  0.3697 -0.2147  0.2332
 7487SOL    HW229720   3.452   2.756   3.056  0.4793 -0.3774  0.5472
 7487SOL    HW329721   3.375   2.885   3.041 -1.0960 -1.3832 -0.3693
 7487SOL    MW429722   3.406   2.820   3.091  0.1908 -0.3903  0.1951
 7488SOL     OW29723   4.376   4.379   2.248  0.1666 -0.6930 -0.1193
 7488SOL    HW229724   4.374   4.472   2.225 -1.4274 -0.7654 -0.4061
 7488SOL    HW329725   4.287   4.360   2.277  0.9621 -1.6712  1.8680
 7488SOL    MW429726   4.364   4.389   2.249  0.0612 -0.8316  0.1051
 7489SOL     OW29727   0.387   2.824   4.294 -0.8894 -0.1540 -0.0401
 7489SOL    HW229728   0.311   2.881   4.278 -1.0221  0.9880  3.6580
 7489SOL    HW329729   0.460   2.869   4.250 -1.4965  1.5133  0.5690
 7489SOL    MW429730   0.387   2.838   4.286 -0.9870  0.2166  0.5282
 7490SOL     OW29731   2.073   5.775   2.059 -0.2515 -0.0120 -0.0557
 7490SOL    HW229732   2.058   5.818   1.975 -0.5256 -0.3751 -0.1957
 7490SOL    HW329733   2.164   5.745   2.055 -1.1571 -2.9090 -1.5768
 7490SOL    MW429734   2.083   5.776   2.048 -0.4071 -0.4421 -0.2749
 7491SOL     OW29735   4.057   0.069   1.746 -0.0450 -0.4420 -0.0418
 7491SOL    HW229736   4.048   0.118   1.829  2.0279  1.1030 -0.6444
 7491SOL    HW329737   4.023   0.129   1.680 -3.3795 -2.3401 -0.2728
 7491SOL    MW429738   4.051   0.084   1.748 -0.2115 -0.4886 -0.1518
 7492SOL     OW29739   4.941   1.624   2.163 -0.4867 -0.4836  0.3037
 7492SOL    HW229740   5.017   1.610   2.106  1.2162  1.2285  2.0323
 7492SOL    HW329741   4.951   1.559   2.232  1.3363  1.7607  2.3163
 7492SOL    MW429742   4.952   1.613   2.164 -0.0215  0.0384  0.7973
 7493SOL     OW29743   2.043   1.467   2.849 -0.5983 -0.2450 -0.7768
 7493SOL    HW229744   2.089   1.521   2.784 -1.2628  1.9168  0.4230
 7493SOL    HW329745   1.971   1.428   2.800  0.2762 -0.5745 -1.8378
 7493SOL    MW429746   2.040   1.469   2.834 -0.5706 -0.0033 -0.7585
 7494SOL     OW29747   3.547   0.081   4.204 -0.1818 -0.3577 -0.6182
 7494SOL    HW229748   3.592   0.017   4.149  2.0861  0.0575  0.6062
 7494SOL    HW329749   3.601   0.086   4.283  0.3989  3.7962 -1.0450
 7494SOL    MW429750   3.560   0.073   4.207  0.1940  0.2451 -0.5130
 7495SOL     OW29751   0.578   4.230   4.947  0.6238  0.0677 -0.0405
 7495SOL    HW229752   0.597   4.146   4.987 -0.0142  0.0305  0.2037
 7495SOL    HW329753   0.592   4.216   4.854  1.1459 -0.1244  0.0619
 7495SOL    MW429754   0.582   4.217   4.940  0.6085  0.0375  0.0052
 7496SOL     OW29755   0.400   4.223   0.662  0.9140  0.1626 -0.0478
 7496SOL    HW229756   0.341   4.296   0.680 -1.0636 -1.6840  1.3393
 7496SOL    HW329757   0.454   4.216   0.740  0.7992 -0.1497  0.0031
 7496SOL    MW429758   0.400   4.232   0.674  0.6379 -0.1223  0.1419
 7497SOL     OW29759   4.317   4.079   5.053 -0.3903 -0.3196 -0.2327
 7497SOL    HW229760   4.410   4.097   5.033 -0.9284  0.5330 -2.3434
 7497SOL    HW329761   4.314   4.068   5.148  1.7607  0.3829 -0.0265
 7497SOL    MW429762   4.329   4.080   5.063 -0.1775 -0.1144 -0.4840
 7498SOL     OW29763   6.266   5.164   4.429  0.2412 -0.0100  0.1806
 7498SOL    HW229764   6.305   5.079   4.450 -0.3093 -0.2650  0.2018
 7498SOL    HW329765   6.178   5.159   4.467  0.2697  0.6419  0.3402
 7498SOL    MW429766   6.259   5.152   4.437  0.1723  0.0423  0.2045
 7499SOL     OW29767   4.459   3.035   4.960  0.6994  0.3740  0.2749
 7499SOL    HW229768   4.386   3.022   4.899  1.2750  1.0043 -0.5673
 7499SOL    HW329769   4.463   3.130   4.972  1.6618  0.3859 -0.0548
 7499SOL    MW429770   4.450   3.046   4.953  0.9023  0.4587  0.1203
 7500SOL     OW29771   5.899   0.977   0.534  0.2362  0.0559  0.7160
 7500SOL    HW229772   5.966   0.910   0.543  2.2711  1.4880 -2.2241
 7500SOL    HW329773   5.935   1.053   0.579 -1.4849 -0.3306  2.9127
 7500SOL    MW429774   5.912   0.978   0.541  0.2776  0.1938  0.6179
 7501SOL     OW29775   4.447   2.609   2.976 -0.0306 -0.1231 -0.2897
 7501SOL    HW229776   4.432   2.691   2.928  0.3847  1.0173  1.4278
 7501SOL    HW329777   4.530   2.576   2.941 -1.2431 -1.0334 -2.5350
 7501SOL    MW429778   4.456   2.616   2.965 -0.1358 -0.0927 -0.3594
 7502SOL     OW29779   6.282   1.970   2.514  0.3368 -0.3279  0.0494
 7502SOL    HW229780   6.243   1.977   2.426  0.9473 -0.8311 -0.2710
 7502SOL    HW329781   6.364   1.922   2.500  0.2982 -0.6775  0.9398
 7502SOL    MW429782   6.288   1.964   2.500  0.4123 -0.4404  0.1246
 7503SOL     OW29783   2.031   0.072   1.189  0.3030  0.6604  0.1981
 7503SOL    HW229784   2.112   0.024   1.169 -0.7274 -1.9176  1.6581
 7503SOL    HW329785   1.967   0.038   1.127 -0.3928  0.2695  1.0965
 7503SOL    MW429786   2.034   0.061   1.179  0.0753  0.2687  0.5093
 7504SOL     OW29787   1.663   5.943   2.863  0.2964 -0.5621 -0.1262
 7504SOL    HW229788   1.575   5.933   2.826  0.7763 -3.3795 -0.7070
 7504SOL    HW329789   1.713   5.985   2.794 -0.4787  0.8647  0.1268
 7504SOL    MW429790   1.658   5.948   2.849  0.2575 -0.7456 -0.1694
 7505SOL     OW29791   0.963   2.606   4.639  0.4517  0.7617 -0.4627
 7505SOL    HW229792   0.954   2.594   4.734 -0.6523  3.7951 -0.0641
 7505SOL    HW329793   1.051   2.574   4.619 -0.3925 -2.8626  0.9412
 7505SOL    MW429794   0.974   2.600   4.649  0.1946  0.6837 -0.2249
 7506SOL     OW29795   2.427   2.946   0.607  0.5511  0.6399  0.6082
 7506SOL    HW229796   2.398   3.022   0.658  0.1695  1.3865 -0.6705
 7506SOL    HW329797   2.521   2.941   0.622  0.3594  0.4871  1.8315
 7506SOL    MW429798   2.436   2.955   0.616  0.4755  0.7182  0.6009
 7507SOL     OW29799   5.070   0.556   1.253  0.3674  0.1988  0.4191
 7507SOL    HW229800   5.165   0.566   1.251  0.4515 -0.3291  1.4504
 7507SOL    HW329801   5.048   0.523   1.166  1.0047  1.2645 -0.1696
 7507SOL    MW429802   5.079   0.553   1.241  0.4626  0.2697  0.4775
 7508SOL     OW29803   4.510   2.904   4.232  0.1383 -0.3851  0.0821
 7508SOL    HW229804   4.494   2.983   4.179 -2.8715 -0.0523  1.2514
 7508SOL    HW329805   4.475   2.927   4.319  1.8034 -2.0697  1.2594
 7508SOL    MW429806   4.503   2.918   4.236 -0.0391 -0.5634  0.3917
 7509SOL     OW29807   3.974   2.854   0.645 -0.2392 -0.1443  0.2071
 7509SOL    HW229808   3.977   2.908   0.724 -1.2252  0.2879 -0.0405
 7509SOL    HW329809   4.015   2.908   0.577  0.1532 -0.3169  0.3043
 7509SOL    MW429810   3.980   2.868   0.646 -0.3175 -0.1101  0.1873
 7510SOL     OW29811   2.683   2.351   3.367  0.2339 -0.1984 -0.0447
 7510SOL    HW229812   2.761   2.361   3.312 -0.4054  0.6687 -0.8449
 7510SOL    HW329813   2.699   2.407   3.443  0.4982 -0.2096 -0.0923
 7510SOL    MW429814   2.696   2.360   3.369  0.1844 -0.0855 -0.1566
 7511SOL     OW29815   5.452   0.999   0.834 -0.0564 -0.3684  0.4002
 7511SOL    HW229816   5.540   0.994   0.872 -0.1183 -0.3377  0.5476
 7511SOL    HW329817   5.404   0.928   0.876  0.2115 -1.1046 -0.5022
 7511SOL    MW429818   5.457   0.989   0.845 -0.0292 -0.4615  0.3006
 7512SOL     OW29819   3.242   1.129   4.235 -0.0939 -0.1833  0.3257
 7512SOL    HW229820   3.330   1.128   4.272  0.7274  0.1560 -1.4790
 7512SOL    HW329821   3.198   1.054   4.275  0.6210  0.2878  2.1014
 7512SOL    MW429822   3.248   1.119   4.245  0.1088 -0.0764  0.3219
 7513SOL     OW29823   6.031   6.252   2.909  0.9143  0.2328  0.2161
 7513SOL    HW229824   6.003   6.327   2.962  1.5568  0.7143 -0.1148
 7513SOL    HW329825   6.056   6.290   2.825  3.1972 -0.0682  0.7002
 7513SOL    MW429826   6.031   6.267   2.905  1.3003  0.2566  0.2364
 7514SOL     OW29827   4.542   4.777   5.278  0.1057 -0.1036 -0.0141
 7514SOL    HW229828   4.633   4.755   5.297  0.2554 -1.4654 -2.0124
 7514SOL    HW329829   4.519   4.722   5.203 -2.5356 -0.1763  0.7441
 7514SOL    MW429830   4.551   4.767   5.271 -0.2230 -0.2928 -0.1777
 7515SOL     OW29831   0.694   0.773   5.361 -0.0505 -0.5342 -0.0831
 7515SOL    HW229832   0.637   0.697   5.364 -0.4608 -0.2364 -0.3080
 7515SOL    HW329833   0.732   0.770   5.273  1.7842 -1.8158  0.6839
 7515SOL    MW429834   0.692   0.762   5.350  0.1374 -0.6640 -0.0116
 7516SOL     OW29835   5.241   4.787   4.093  0.1752  0.2116  0.3792
 7516SOL    HW229836   5.241   4.713   4.154  1.3398  0.9183  1.2751
 7516SOL    HW329837   5.217   4.749   4.009 -0.1855 -1.0139  1.0089
 7516SOL    MW429838   5.238   4.772   4.090  0.2812  0.1431  0.5805
 7517SOL     OW29839   0.585   3.511   6.069 -0.2950  0.1623 -0.1061
 7517SOL    HW229840   0.650   3.570   6.106 -0.0625  0.3659 -0.8183
 7517SOL    HW329841   0.503   3.561   6.069  0.4104  1.5425 -3.1523
 7517SOL    MW429842   0.583   3.526   6.073 -0.1713  0.3713 -0.6020
 7518SOL     OW29843   6.098   4.114   2.567  0.4680 -0.1016 -0.0047
 7518SOL    HW229844   6.051   4.079   2.491  1.0090 -2.0880  0.5343
 7518SOL    HW329845   6.139   4.194   2.534  0.4986 -0.7987 -1.7742
 7518SOL    MW429846   6.097   4.120   2.552  0.5434 -0.4556 -0.1670
 7519SOL     OW29847   4.139   0.243   1.431 -0.2582  0.1503  0.6327
 7519SOL    HW229848   4.103   0.154   1.432  1.7755 -0.7173  2.3526
 7519SOL    HW329849   4.115   0.277   1.345 -2.3451 -1.4964  0.4722
 7519SOL    MW429850   4.131   0.235   1.420 -0.2652 -0.1814  0.8384
 7520SOL     OW29851   4.822   2.896   6.120  0.0001  0.2871  0.2357
 7520SOL    HW229852   4.884   2.924   6.187  0.8171  0.7586 -0.6909
 7520SOL    HW329853   4.774   2.976   6.097  0.2377  0.2920 -0.2589
 7520SOL    MW429854   4.824   2.910   6.126  0.1392  0.3500  0.0482
 7521SOL     OW29855   0.014   0.752   4.470 -0.4304  0.0162 -0.1048
 7521SOL    HW229856   0.022   0.715   4.559 -1.5278  3.1879  1.4733
 7521SOL    HW329857   0.094   0.803   4.458 -0.7722  0.4693 -0.4863
 7521SOL    MW429858   0.025   0.754   4.480 -0.6203  0.4945  0.0530
 7522SOL     OW29859   1.969   5.225   0.417 -0.7791 -0.0299  0.3177
 7522SOL    HW229860   1.893   5.217   0.359  0.0693  0.8112 -0.9916
 7522SOL    HW329861   2.043   5.238   0.357  0.5243 -1.5016  1.5153
 7522SOL    MW429862   1.969   5.226   0.401 -0.4952 -0.1131  0.3030
 7523SOL     OW29863   2.350   4.911   0.010 -0.0662  0.5056 -0.6597
 7523SOL    HW229864   2.367   4.898  -0.083  0.0291 -0.6388 -0.4913
 7523SOL    HW329865   2.429   4.952   0.043  0.4585 -0.3561 -0.8200
 7523SOL    MW429866   2.363   4.915   0.002  0.0156  0.2409 -0.6586
 7524SOL     OW29867   0.893   1.828   3.175  0.2884  0.2316  0.3051
 7524SOL    HW229868   0.803   1.796   3.182  0.0503  0.8673  0.2017
 7524SOL    HW329869   0.944   1.767   3.228 -0.2684  0.1249  0.7260
 7524SOL    MW429870   0.887   1.815   3.183  0.1835  0.3014  0.3470
 7525SOL     OW29871   3.334   3.705   3.522 -0.4210  0.0905  0.4025
 7525SOL    HW229872   3.251   3.683   3.479 -0.1169 -0.1873 -0.0535
 7525SOL    HW329873   3.311   3.774   3.584 -1.2334 -0.8970  1.2243
 7525SOL    MW429874   3.320   3.712   3.524 -0.4881 -0.0764  0.4508
 7526SOL     OW29875   3.035   5.143   6.347  0.6511 -0.0733 -0.0215
 7526SOL    HW229876   2.977   5.205   6.303 -0.1105  0.2853  1.4264
 7526SOL    HW329877   3.001   5.056   6.323 -0.3403  0.1305  0.5994
 7526SOL    MW429878   3.023   5.139   6.338  0.4198  0.0009  0.2514
 7527SOL     OW29879   0.332   3.851   1.020  0.0636 -0.2567  0.4473
 7527SOL    HW229880   0.326   3.891   0.933  2.4352  0.2804  0.4585
 7527SOL    HW329881   0.304   3.761   1.007  0.7678 -0.3035 -0.9980
 7527SOL    MW429882   0.328   3.845   1.007  0.4694 -0.1920  0.2581
 7528SOL     OW29883   2.472   2.576   0.997 -0.2602  0.0335 -0.3550
 7528SOL    HW229884   2.510   2.654   0.956  0.2780 -0.8656 -1.6703
 7528SOL    HW329885   2.548   2.519   1.014 -0.7653 -0.7519 -0.6710
 7528SOL    MW429886   2.487   2.579   0.994 -0.2559 -0.1888 -0.5702
 7529SOL     OW29887   4.680   0.436   2.195 -0.0486 -0.0668  0.3016
 7529SOL    HW229888   4.765   0.394   2.210 -0.0777 -0.6608 -1.0733
 7529SOL    HW329889   4.617   0.381   2.241  0.2702  0.2784  1.1783
 7529SOL    MW429890   4.683   0.423   2.203 -0.0104 -0.0996  0.2359
 7530SOL     OW29891   2.323   1.865   5.766  0.5711  0.3178  0.2710
 7530SOL    HW229892   2.380   1.806   5.718  1.3826  1.7589 -0.6329
 7530SOL    HW329893   2.379   1.903   5.833  0.9790  2.3192 -1.1035
 7530SOL    MW429894   2.338   1.863   5.768  0.7320  0.7720 -0.0296
 7531SOL     OW29895   4.552   5.383   6.202  0.1052 -0.7451 -0.4782
 7531SOL    HW229896   4.514   5.457   6.153 -0.7494 -0.9243 -0.0962
 7531SOL    HW329897   4.609   5.340   6.138 -1.7501 -1.5661 -1.6635
 7531SOL    MW429898   4.555   5.387   6.187 -0.2523 -0.8771 -0.5842
 7532SOL     OW29899   1.646   0.032   5.235 -0.0912  0.1125 -0.3005
 7532SOL    HW229900   1.680   0.004   5.320  0.5403 -1.7447 -1.1152
 7532SOL    HW329901   1.551   0.025   5.243  0.0094 -1.1123 -0.0774
 7532SOL    MW429902   1.638   0.027   5.247  0.0054 -0.2941 -0.3785
 7533SOL     OW29903   1.262   5.790   6.022 -0.7516 -0.0843  0.2923
 7533SOL    HW229904   1.209   5.857   5.979 -0.0641 -0.3051 -0.9520
 7533SOL    HW329905   1.349   5.798   5.981 -1.0603 -2.7880 -1.1221
 7533SOL    MW429906   1.267   5.800   6.011 -0.7016 -0.4701 -0.0585
 7534SOL     OW29907   5.098   1.265   4.642 -0.4073 -0.0305 -0.1330
 7534SOL    HW229908   5.092   1.285   4.736 -0.1724 -1.0294  0.1096
 7534SOL    HW329909   5.145   1.181   4.639 -1.2071 -0.4580 -1.0951
 7534SOL    MW429910   5.104   1.256   4.654 -0.4818 -0.2187 -0.2279
 7535SOL     OW29911   4.501   5.777   5.397  0.4197  0.1214  0.2617
 7535SOL    HW229912   4.562   5.761   5.470  0.6575 -0.3144 -0.0314
 7535SOL    HW329913   4.438   5.706   5.402 -0.1864  0.6765  0.6792
 7535SOL    MW429914   4.501   5.766   5.408  0.3711  0.1371  0.2781
 7536SOL     OW29915   4.437   5.614   3.343  0.1485 -0.3069 -0.3849
 7536SOL    HW229916   4.518   5.641   3.386 -0.5340  0.7873  0.2430
 7536SOL    HW329917   4.444   5.652   3.255 -0.5155  1.4844  0.2848
 7536SOL    MW429918   4.448   5.623   3.337 -0.0291  0.0738 -0.2137
 7537SOL     OW29919   1.196   4.317   3.773 -0.1444  0.0175 -0.2447
 7537SOL    HW229920   1.210   4.307   3.867 -3.9071  0.9331  0.5578
 7537SOL    HW329921   1.110   4.280   3.757 -0.3953  1.5272 -3.0192
 7537SOL    MW429922   1.187   4.310   3.783 -0.6740  0.3375 -0.5049
 7538SOL     OW29923   1.965   0.036   4.004  0.4843  0.2836  0.3201
 7538SOL    HW229924   2.054   0.069   3.994  1.3771 -1.0556  2.9250
 7538SOL    HW329925   1.925   0.092   4.070  0.1940 -0.4798  0.8136
 7538SOL    MW429926   1.971   0.047   4.011  0.5638  0.0062  0.7289
 7539SOL     OW29927   1.311   1.844   1.561  0.0171 -0.4750  0.4989
 7539SOL    HW229928   1.272   1.903   1.497 -0.8401 -1.1803  0.3420
 7539SOL    HW329929   1.347   1.901   1.629 -1.1386  0.2185  0.5423
 7539SOL    MW429930   1.311   1.859   1.562 -0.2485 -0.4765  0.4839
 7540SOL     OW29931   4.816   5.430   3.551  0.4504  0.3944  0.0673
 7540SOL    HW229932   4.737   5.484   3.543 -1.2450 -1.8540  0.5546
 7540SOL    HW329933   4.865   5.447   3.471 -1.3369  0.6733 -1.0306
 7540SOL    MW429934   4.812   5.439   3.540 -0.0091  0.1345 -0.0133
 7541SOL     OW29935   4.012   4.865   4.751 -0.2916  0.4207 -0.3778
 7541SOL    HW229936   3.928   4.910   4.751  0.0257  1.0205 -0.7954
 7541SOL    HW329937   4.027   4.842   4.659 -0.2938 -0.2544 -0.2179
 7541SOL    MW429938   4.003   4.868   4.739 -0.2500  0.4107 -0.4118
 7542SOL     OW29939   2.817   2.182   2.749  0.9020  0.3205  0.2008
 7542SOL    HW229940   2.779   2.140   2.672  1.4815  0.0921  0.0357
 7542SOL    HW329941   2.890   2.125   2.774  1.6731  1.1881  0.0082
 7542SOL    MW429942   2.822   2.169   2.742  1.0802  0.4049  0.1536
 7543SOL     OW29943   3.380   5.259   0.092 -0.9812 -0.2408  0.2933
 7543SOL    HW229944   3.327   5.293   0.020 -1.1393 -1.7938 -0.3776
 7543SOL    HW329945   3.459   5.313   0.092 -0.8242 -0.4327 -1.2922
 7543SOL    MW429946   3.384   5.270   0.083 -0.9813 -0.4710 -0.0044
 7544SOL     OW29947   4.695   3.850   0.582 -0.7544  0.6691  0.2039
 7544SOL    HW229948   4.756   3.782   0.554 -0.7937  0.8631 -0.3583
 7544SOL    HW329949   4.682   3.904   0.504 -1.3228  0.8689  0.4354
 7544SOL    MW429950   4.701   3.848   0.568 -0.8346  0.7211  0.1603
 7545SOL     OW29951   4.707   4.326   0.199  0.0731  0.1344 -0.2438
 7545SOL    HW229952   4.730   4.342   0.291  0.2848 -1.0021 -0.0840
 7545SOL    HW329953   4.791   4.306   0.157 -0.3107 -2.3340 -0.0213
 7545SOL    MW429954   4.721   4.325   0.205  0.0504 -0.3412 -0.1934
 7546SOL     OW29955   1.840   4.938   1.602  0.0815  0.0936 -0.3657
 7546SOL    HW229956   1.837   4.995   1.679  0.6984  0.0828 -0.3283
 7546SOL    HW329957   1.880   4.992   1.534 -0.3860  0.0761 -0.6591
 7546SOL    MW429958   1.845   4.953   1.603  0.1013  0.0898 -0.3995
 7547SOL     OW29959   4.739   0.263   4.816 -0.2908  0.3510  0.4636
 7547SOL    HW229960   4.646   0.285   4.823 -0.7277 -1.2647  0.0992
 7547SOL    HW329961   4.752   0.194   4.880 -0.0468 -1.4535 -1.4188
 7547SOL    MW429962   4.728   0.257   4.825 -0.3162 -0.1003  0.1671
 7548SOL     OW29963   5.064   2.518   4.080  0.3655 -0.5291  0.0504
 7548SOL    HW229964   4.981   2.471   4.078 -0.3996  0.6807  1.2494
 7548SOL    HW329965   5.039   2.611   4.075  1.4264 -0.0221  2.4551
 7548SOL    MW429966   5.050   2.524   4.079  0.4045 -0.3025  0.5258
 7549SOL     OW29967   0.766   1.800   4.805  0.2284 -0.5771  0.5333
 7549SOL    HW229968   0.858   1.825   4.810  0.0812 -0.0851  0.7403
 7549SOL    HW329969   0.726   1.867   4.750 -0.0002 -0.8222  0.3987
 7549SOL    MW429970   0.773   1.812   4.798  0.1788 -0.5446  0.5429
 7550SOL     OW29971   0.538   4.307   5.824 -0.4491  0.4607 -0.2915
 7550SOL    HW229972   0.453   4.350   5.830 -0.4625  0.3519  0.4162
 7550SOL    HW329973   0.570   4.304   5.914 -0.9058 -1.9006 -0.1248
 7550SOL    MW429974   0.531   4.312   5.837 -0.5111  0.1348 -0.1762
 7551SOL     OW29975   3.821   3.729   3.550  0.2585  0.1189  0.2724
 7551SOL    HW229976   3.911   3.761   3.537  0.6069 -1.3877 -1.3767
 7551SOL    HW329977   3.825   3.636   3.528 -2.0265  0.3512 -1.5746
 7551SOL    MW429978   3.834   3.721   3.545  0.0030 -0.0493 -0.1889
 7552SOL     OW29979   0.521   1.659   1.653  0.6467 -0.0758  0.0199
 7552SOL    HW229980   0.426   1.663   1.644  0.7351 -0.9880 -1.7507
 7552SOL    HW329981   0.553   1.664   1.563  2.2477 -0.4655  0.5451
 7552SOL    MW429982   0.513   1.661   1.640  0.8696 -0.2476 -0.1444
 7553SOL     OW29983   3.759   1.630   4.790  0.2646 -0.3992 -0.0142
 7553SOL    HW229984   3.730   1.619   4.881  1.3006 -1.7444  0.1792
 7553SOL    HW329985   3.802   1.548   4.768 -1.4709 -0.7792 -2.3349
 7553SOL    MW429986   3.761   1.618   4.799  0.1723 -0.6268 -0.2949
 7554SOL     OW29987   0.803   6.310   0.785  0.2883  0.6145  0.1428
 7554SOL    HW229988   0.707   6.310   0.788  0.2104 -0.1484 -1.3681
 7554SOL    HW329989   0.828   6.220   0.803  0.3869 -0.5124 -4.2913
 7554SOL    MW429990   0.794   6.298   0.787  0.2911  0.3651 -0.6416
 7555SOL     OW29991   1.288   0.480   3.760  0.2925 -0.0954  0.3196
 7555SOL    HW229992   1.267   0.479   3.853  0.1039  1.2762  0.3104
 7555SOL    HW329993   1.297   0.387   3.736 -0.6887 -0.5121  1.4645
 7555SOL    MW429994   1.286   0.468   3.769  0.1382  0.0306  0.4694
 7556SOL     OW29995   0.898   3.181   6.097  0.0257 -0.1858  0.2044
 7556SOL    HW229996   0.872   3.271   6.115 -0.5956 -0.3771  0.2671
 7556SOL    HW329997   0.959   3.187   6.024  2.5642  0.6251  2.2268
 7556SOL    MW429998   0.903   3.193   6.090  0.2787 -0.1040  0.4795
 7557SOL     OW29999   2.849   3.897   5.472  0.1465  0.3861  0.1435
 7557SOL    HW230000   2.908   3.964   5.505  0.2091 -0.2082  1.3049
 7557SOL    HW330001   2.830   3.923   5.382  2.5170  0.3774 -0.4353
 7557SOL    MW430002   2.854   3.909   5.465  0.4675  0.3065  0.2203
 7558SOL     OW30003   2.396   1.937   4.897 -0.3374 -0.2896 -0.3971
 7558SOL    HW230004   2.314   1.957   4.943 -0.4153  1.9034 -1.3463
 7558SOL    HW330005   2.444   1.881   4.958 -1.8935 -0.3629  0.8459
 7558SOL    MW430006   2.392   1.932   4.911 -0.5530 -0.0100 -0.3583
 7559SOL     OW30007   4.700   3.940   1.211  0.2903 -0.9969  0.0129
 7559SOL    HW230008   4.686   3.892   1.129  0.8237  0.9688 -1.2990
 7559SOL    HW330009   4.793   3.929   1.229 -0.0139 -2.2414  0.9274
 7559SOL    MW430010   4.711   3.932   1.203  0.3206 -0.9017 -0.0396
 7560SOL     OW30011   2.993   0.964   6.198  0.3365 -0.0204 -0.0044
 7560SOL    HW230012   3.052   0.994   6.129  0.8645  2.4313  1.3846
 7560SOL    HW330013   2.906   0.973   6.160  0.5829  1.8236 -0.2248
 7560SOL    MW430014   2.990   0.969   6.184  0.4386  0.5464  0.1498
 7561SOL     OW30015   3.984   5.330   2.962 -0.7152 -0.1465 -0.9206
 7561SOL    HW230016   4.029   5.393   3.018 -1.5251  0.8098 -1.3170
 7561SOL    HW330017   4.051   5.301   2.900 -0.1091 -0.3526 -0.1789
 7561SOL    MW430018   3.998   5.335   2.961 -0.7421 -0.0475 -0.8750
 7562SOL     OW30019   5.286   3.459   5.467 -0.0960 -0.0109  0.3834
 7562SOL    HW230020   5.215   3.445   5.405 -1.5752  1.7236  1.5641
 7562SOL    HW330021   5.308   3.371   5.499 -1.7726 -0.5827  0.0469
 7562SOL    MW430022   5.279   3.445   5.463 -0.5124  0.1425  0.4948
 7563SOL     OW30023   2.235   2.230   6.173  0.6080 -0.4721 -0.1054
 7563SOL    HW230024   2.168   2.254   6.109 -0.5370 -1.6327  0.6221
 7563SOL    HW330025   2.228   2.298   6.241  0.5569 -0.2892 -0.2909
 7563SOL    MW430026   2.225   2.242   6.173  0.4502 -0.6011 -0.0339
 7564SOL     OW30027   1.884   0.864   4.159  0.3069  0.6124 -0.0155
 7564SOL    HW230028   1.812   0.926   4.167  0.5823  0.8388  0.8637
 7564SOL    HW330029   1.927   0.867   4.244 -0.8405 -2.2188  0.7899
 7564SOL    MW430030   1.880   0.873   4.171  0.1918  0.2687  0.2068
 7565SOL     OW30031   2.207   4.088   4.652 -0.1090  0.2038 -0.2731
 7565SOL    HW230032   2.179   4.087   4.743  0.1961 -2.4776 -0.1368
 7565SOL    HW330033   2.301   4.105   4.655 -0.1680  0.5009 -0.1229
 7565SOL    MW430034   2.216   4.090   4.664 -0.0765 -0.1108 -0.2353
 7566SOL     OW30035   0.519   1.539   5.924  0.2204 -0.1432  0.3181
 7566SOL    HW230036   0.609   1.570   5.934  0.9240 -2.4626  2.2491
 7566SOL    HW330037   0.508   1.475   5.995 -1.5430 -3.0118 -2.2865
 7566SOL    MW430038   0.529   1.534   5.935  0.0805 -0.8277  0.2292
 7567SOL     OW30039   0.732   3.685   1.047 -0.8571 -0.0243 -0.2047
 7567SOL    HW230040   0.686   3.668   1.129  1.8349 -1.0044  1.1999
 7567SOL    HW330041   0.678   3.642   0.981 -2.2328 -0.6475  1.2422
 7567SOL    MW430042   0.719   3.677   1.049 -0.6834 -0.2358  0.1715
 7568SOL     OW30043   0.516   4.837   3.622 -0.0111  0.1408  0.1194
 7568SOL    HW230044   0.612   4.836   3.627  0.0396  1.5582 -0.1442
 7568SOL    HW330045   0.495   4.917   3.572 -1.3253 -0.1533  0.1593
 7568SOL    MW430046   0.526   4.848   3.616 -0.1778  0.2890  0.0899
 7569SOL     OW30047   4.675   6.293   3.900  0.3468 -0.4415  0.2274
 7569SOL    HW230048   4.586   6.259   3.900 -0.0153  0.4835 -0.0728
 7569SOL    HW330049   4.730   6.217   3.923 -0.3715 -1.3763 -1.0002
 7569SOL    MW430050   4.671   6.278   3.903  0.2042 -0.4428  0.0258
 7570SOL     OW30051   6.023   5.454   5.759 -0.4281 -0.5190 -0.0627
 7570SOL    HW230052   5.946   5.478   5.707  0.4199  1.2807 -0.5540
 7570SOL    HW330053   6.007   5.363   5.784 -2.9100 -0.0966  0.1938
 7570SOL    MW430054   6.011   5.445   5.756 -0.6437 -0.2259 -0.0937
 7571SOL     OW30055   1.041   5.902   6.144  0.8875 -0.2175  0.8125
 7571SOL    HW230056   0.976   5.921   6.077  1.0853  0.5593  0.8304
 7571SOL    HW330057   0.993   5.850   6.209  0.0497  1.0237  1.2276
 7571SOL    MW430058   1.026   5.898   6.144  0.8030  0.0487  0.8697
 7572SOL     OW30059   5.475   5.252   3.905  0.2589  0.6666  0.4656
 7572SOL    HW230060   5.519   5.210   3.978 -1.2759  2.7857  2.7464
 7572SOL    HW330061   5.387   5.214   3.905  0.1747  0.8402 -0.1943
 7572SOL    MW430062   5.469   5.241   3.914  0.0453  0.9691  0.6795
 7573SOL     OW30063   5.952   6.042   2.521 -0.3449 -0.1794  0.8053
 7573SOL    HW230064   5.893   6.080   2.587 -0.2236  0.1889  0.7033
 7573SOL    HW330065   6.032   6.022   2.569  0.6171  2.2151  0.3519
 7573SOL    MW430066   5.954   6.044   2.536 -0.2019  0.1851  0.7320
 7574SOL     OW30067   0.751   5.503   1.087  0.5567 -0.9699  0.2749
 7574SOL    HW230068   0.732   5.451   1.165  0.0114  0.6632  1.2658
 7574SOL    HW330069   0.676   5.561   1.077  0.4487 -1.3837 -1.7040
 7574SOL    MW430070   0.739   5.504   1.096  0.4705 -0.8090  0.1445
 7575SOL     OW30071   4.022   4.303   1.653 -0.0429  0.6779 -0.2719
 7575SOL    HW230072   4.080   4.246   1.603  2.1711  1.9011  0.7190
 7575SOL    HW330073   3.956   4.332   1.591  0.2451 -0.9735 -1.4033
 7575SOL    MW430074   4.021   4.299   1.638  0.2872  0.6214 -0.2904
 7576SOL     OW30075   2.496   6.270   0.433 -0.2089  0.0461  0.2261
 7576SOL    HW230076   2.474   6.283   0.341  0.2460 -0.8286 -0.0193
 7576SOL    HW330077   2.577   6.220   0.431 -0.7855 -0.9726  1.0864
 7576SOL    MW430078   2.504   6.265   0.420 -0.2250 -0.2037  0.3072
 7577SOL     OW30079   0.395   3.196   2.371  0.1852  0.6991  0.1922
 7577SOL    HW230080   0.486   3.168   2.376  0.6190  1.8204 -0.9149
 7577SOL    HW330081   0.387   3.264   2.438 -0.1632 -0.1820  1.0687
 7577SOL    MW430082   0.406   3.202   2.380  0.1964  0.7308  0.1617
 7578SOL     OW30083   4.288   5.016   5.403 -0.2727 -0.0120 -0.4374
 7578SOL    HW230084   4.375   4.976   5.410 -0.3672 -0.1744 -0.1543
 7578SOL    HW330085   4.227   4.944   5.420 -0.4535  0.1667 -0.3179
 7578SOL    MW430086   4.291   5.001   5.406 -0.3090 -0.0098 -0.3843
 7579SOL     OW30087   3.221   0.849   3.801  0.5504  0.3680  0.4293
 7579SOL    HW230088   3.272   0.785   3.752 -2.1755 -0.9055 -1.0062
 7579SOL    HW330089   3.165   0.797   3.859 -0.1517  1.5643  0.8797
 7579SOL    MW430090   3.220   0.834   3.802  0.0981  0.3578  0.2993
 7580SOL     OW30091   2.578   2.743   4.434 -1.0928  0.2438  0.3133
 7580SOL    HW230092   2.559   2.807   4.366 -0.8827  1.1572  1.0881
 7580SOL    HW330093   2.564   2.658   4.392 -1.2467  0.7891 -0.7719
 7580SOL    MW430094   2.573   2.740   4.419 -1.0854  0.4362  0.2723
 7581SOL     OW30095   1.369   5.600   1.839  0.6535  0.2111  0.0027
 7581SOL    HW230096   1.399   5.535   1.904  0.3513  0.8598  0.8024
 7581SOL    HW330097   1.449   5.626   1.793  0.8557 -0.3297  0.0361
 7581SOL    MW430098   1.384   5.595   1.841  0.6403  0.2253  0.1126
 7582SOL     OW30099   1.662   3.240   4.290  0.2404  0.2426  0.0037
 7582SOL    HW230100   1.722   3.302   4.248 -0.1011  1.5514  1.3237
 7582SOL    HW330101   1.623   3.191   4.218  2.1616  0.0151 -0.9426
 7582SOL    MW430102   1.665   3.242   4.275  0.4488  0.3853  0.0530
 7583SOL     OW30103   5.467   6.322   0.177 -0.3967  0.0152 -0.1849
 7583SOL    HW230104   5.541   6.296   0.123  0.1619  3.4464 -1.3717
 7583SOL    HW330105   5.393   6.272   0.143  0.8564 -1.4716 -0.8190
 7583SOL    MW430106   5.467   6.312   0.165 -0.1576  0.2717 -0.4252
 7584SOL     OW30107   5.693   2.696   0.337  0.5254 -0.0990 -0.6548
 7584SOL    HW230108   5.764   2.724   0.395 -0.0459  1.8449 -0.8316
 7584SOL    HW330109   5.642   2.634   0.389  0.7163  0.6896  0.5065
 7584SOL    MW430110   5.696   2.692   0.351  0.4752  0.2615 -0.5249
 7585SOL     OW30111   5.898   1.335   0.950 -0.5074 -0.0039  0.0939
 7585SOL    HW230112   5.978   1.322   1.002 -0.9456 -0.0891  0.7564
 7585SOL    HW330113   5.889   1.430   0.942  0.6425  0.0073 -1.5391
 7585SOL    MW430114   5.908   1.346   0.956 -0.4135 -0.0137 -0.0342
 7586SOL     OW30115   0.632   2.543   5.687 -0.1671  0.3614  0.5216
 7586SOL    HW230116   0.596   2.609   5.628  1.4920  0.1895 -0.7443
 7586SOL    HW330117   0.713   2.514   5.645  0.7718 -0.2239  2.5639
 7586SOL    MW430118   0.638   2.548   5.674  0.1757  0.2615  0.6241
 7587SOL     OW30119   3.372   4.522   0.744 -0.6575 -0.2984  0.3116
 7587SOL    HW230120   3.355   4.460   0.673 -0.9428  0.6045 -0.4459
 7587SOL    HW330121   3.298   4.583   0.740  0.1133  0.6766  0.3526
 7587SOL    MW430122   3.360   4.522   0.734 -0.5934 -0.0506  0.2170
 7588SOL     OW30123   2.032   1.005   5.185 -0.4280  0.2909 -0.5898
 7588SOL    HW230124   2.017   0.974   5.096 -0.2088  1.1691 -0.9443
 7588SOL    HW330125   1.973   0.952   5.239  0.5932 -1.3958 -1.0247
 7588SOL    MW430126   2.022   0.994   5.180 -0.2643  0.1842 -0.6940
 7589SOL     OW30127   4.545   4.660   2.553 -0.2319 -0.4030  0.2233
 7589SOL    HW230128   4.612   4.715   2.513  0.3270  0.0161  1.6824
 7589SOL    HW330129   4.468   4.716   2.558 -0.4046 -0.5620 -0.5376
 7589SOL    MW430130   4.544   4.674   2.548 -0.1809 -0.3687  0.3154
 7590SOL     OW30131   5.360   0.143   3.301  0.6916  0.3012  0.0853
 7590SOL    HW230132   5.447   0.164   3.268  1.2573  0.4106  1.5642
 7590SOL    HW330133   5.376   0.102   3.386 -0.7484  2.4351  1.4949
 7590SOL    MW430134   5.373   0.140   3.308  0.5762  0.5972  0.4664
 7591SOL     OW30135   5.775   1.305   3.321  0.5542 -0.0278  0.4005
 7591SOL    HW230136   5.868   1.329   3.319  1.1456 -2.1611 -1.3196
 7591SOL    HW330137   5.774   1.211   3.305 -2.0029  0.2443 -1.8279
 7591SOL    MW430138   5.787   1.296   3.319  0.2948 -0.2733 -0.1204
 7592SOL     OW30139   6.300   5.554   0.843 -0.0930 -0.0597  0.9835
 7592SOL    HW230140   6.222   5.508   0.810  2.0418 -2.1554 -1.5646
 7592SOL    HW330141   6.314   5.624   0.779  0.4356 -0.0428  1.1175
 7592SOL    MW430142   6.291   5.557   0.830  0.2584 -0.3340  0.6650
 7593SOL     OW30143   4.768   5.782   5.540 -1.3567 -0.7214 -0.3045
 7593SOL    HW230144   4.835   5.721   5.571  0.0551 -0.0614 -1.9176
 7593SOL    HW330145   4.738   5.827   5.619 -0.2093 -1.3365  0.5143
 7593SOL    MW430146   4.773   5.780   5.555 -1.0191 -0.7155 -0.4093
 7594SOL     OW30147   0.029   2.103   1.728 -0.6522 -0.0530 -0.1458
 7594SOL    HW230148  -0.050   2.137   1.687 -1.7654 -0.3388  1.6740
 7594SOL    HW330149   0.067   2.178   1.774  0.1002  0.0493 -0.8908
 7594SOL    MW430150   0.024   2.117   1.728 -0.6998 -0.0772 -0.0040
 7595SOL     OW30151   5.055   3.409   4.754 -0.1339  0.7688 -0.2554
 7595SOL    HW230152   4.973   3.362   4.740  0.3144 -0.7196  1.7285
 7595SOL    HW330153   5.039   3.464   4.830  0.5604  0.8175 -0.1385
 7595SOL    MW430154   5.042   3.410   4.762  0.0169  0.5788  0.0218
 7596SOL     OW30155   2.767   4.512   4.338  0.3422 -0.2818  0.1534
 7596SOL    HW230156   2.752   4.543   4.427 -0.8173  0.3019 -0.2304
 7596SOL    HW330157   2.681   4.483   4.307  0.9492 -1.6865 -0.3429
 7596SOL    MW430158   2.754   4.512   4.345  0.2693 -0.3901  0.0373
 7597SOL     OW30159   6.052   6.234   6.297  0.1457 -0.7945  0.1486
 7597SOL    HW230160   6.017   6.302   6.355 -1.2511 -0.1914 -1.2956
 7597SOL    HW330161   6.132   6.204   6.340  1.5404  2.6202  0.3265
 7597SOL    MW430162   6.058   6.239   6.310  0.1454 -0.2644 -0.0184
 7598SOL     OW30163   2.757   3.579   0.650 -0.1365  0.4990 -0.0213
 7598SOL    HW230164   2.838   3.627   0.631 -0.9469  0.4461 -4.8281
 7598SOL    HW330165   2.785   3.490   0.669  1.0473  1.4488  3.3044
 7598SOL    MW430166   2.771   3.574   0.650 -0.0872  0.6174 -0.2167
 7599SOL     OW30167   5.696   2.677   5.946  0.6424 -0.4727  0.0648
 7599SOL    HW230168   5.606   2.677   5.915  0.6918  0.2348 -0.1084
 7599SOL    HW330169   5.743   2.733   5.884  1.1980 -0.8164  0.1630
 7599SOL    MW430170   5.691   2.685   5.934  0.7222 -0.4247  0.0549
 7600SOL     OW30171   4.312   0.606   4.380  0.4762  0.3127  0.0526
 7600SOL    HW230172   4.253   0.598   4.305  1.2323 -0.4177 -0.4694
 7600SOL    HW330173   4.400   0.597   4.343  0.8848  0.4688  0.9577
 7600SOL    MW430174   4.316   0.604   4.365  0.6299  0.2369  0.1031
 7601SOL     OW30175   0.131   3.214   4.363  0.1305  0.3145 -0.5883
 7601SOL    HW230176   0.158   3.236   4.452 -1.1578  0.3736 -0.1936
 7601SOL    HW330177   0.209   3.229   4.310  0.7733  0.7629  0.4530
 7601SOL    MW430178   0.144   3.218   4.368  0.0454  0.3814 -0.3988
 7602SOL     OW30179   5.595   0.231   1.959  0.5196 -0.6542 -0.4548
 7602SOL    HW230180   5.671   0.259   1.907 -0.3544 -2.3221 -2.8015
 7602SOL    HW330181   5.525   0.220   1.895 -1.0866 -1.3345  1.3358
 7602SOL    MW430182   5.596   0.233   1.944  0.1924 -0.9640 -0.5281
 7603SOL     OW30183   3.440   0.385   3.503  0.2505  0.0440 -0.3248
 7603SOL    HW230184   3.471   0.414   3.418  1.1405 -4.6714 -1.9001
 7603SOL    HW330185   3.346   0.399   3.501  0.3436  0.5532 -1.8419
 7603SOL    MW430186   3.432   0.391   3.492  0.3802 -0.5110 -0.7328
 7604SOL     OW30187   3.615   6.272   1.178 -0.3294  0.5560 -0.4552
 7604SOL    HW230188   3.638   6.244   1.266 -0.3779  1.6368 -0.0881
 7604SOL    HW330189   3.580   6.194   1.136 -1.2763  0.2854  0.8170
 7604SOL    MW430190   3.614   6.258   1.184 -0.4607  0.6629 -0.2389
 7605SOL     OW30191   1.759   0.508   4.375 -0.0087  0.3037  0.2194
 7605SOL    HW230192   1.726   0.564   4.445 -1.0211  1.7458 -1.3142
 7605SOL    HW330193   1.681   0.479   4.328  0.5589 -1.7712  0.4663
 7605SOL    MW430194   1.745   0.512   4.378 -0.0674  0.2202  0.0496
 7606SOL     OW30195   3.006   2.396   1.134  0.0164  0.1660 -0.2117
 7606SOL    HW230196   3.049   2.481   1.129  0.1758  0.0778 -0.3722
 7606SOL    HW330197   2.915   2.413   1.112  0.4597 -0.0255 -2.4423
 7606SOL    MW430198   3.000   2.409   1.130  0.0959  0.1291 -0.5271
 7607SOL     OW30199   5.367   5.621   3.874  0.2979  0.0985 -0.7641
 7607SOL    HW230200   5.334   5.549   3.819 -2.1489 -0.0529  0.7683
 7607SOL    HW330201   5.436   5.581   3.927 -1.4413 -1.3990  0.5164
 7607SOL    MW430202   5.371   5.606   3.874 -0.2544 -0.1190 -0.3930
 7608SOL     OW30203   3.353   2.326   5.283  0.0114 -0.8480  0.5848
 7608SOL    HW230204   3.380   2.243   5.244 -2.5607 -1.3639 -0.3125
 7608SOL    HW330205   3.332   2.305   5.374 -0.3484 -1.1432  0.4373
 7608SOL    MW430206   3.353   2.312   5.290 -0.3754 -0.9551  0.4470
 7609SOL     OW30207   1.760   2.931   5.225 -0.0221  0.0711 -0.0334
 7609SOL    HW230208   1.818   2.925   5.301 -2.7261  2.7973  2.5344
 7609SOL    HW330209   1.815   2.906   5.151  3.8864  0.7535  2.3350
 7609SOL    MW430210   1.775   2.927   5.225  0.1368  0.5208  0.6178
 7610SOL     OW30211   3.681   5.024   5.212  0.4930  0.4977 -0.2123
 7610SOL    HW230212   3.591   5.014   5.245  0.9752 -1.6185  0.6249
 7610SOL    HW330213   3.733   5.047   5.289  0.7264  1.6503 -0.6834
 7610SOL    MW430214   3.676   5.026   5.226  0.5874  0.3706 -0.1640
 7611SOL     OW30215   0.369   5.824   3.844 -0.0776  0.3628  0.0438
 7611SOL    HW230216   0.371   5.797   3.936 -0.6011 -1.9306 -0.5733
 7611SOL    HW330217   0.448   5.878   3.834  0.6149 -0.3183  1.5506
 7611SOL    MW430218   0.380   5.828   3.855 -0.0553 -0.0296  0.1612
 7612SOL     OW30219   1.299   4.289   5.422 -0.4752  0.0852  0.7145
 7612SOL    HW230220   1.321   4.336   5.503 -0.7276 -2.1618  2.1723
 7612SOL    HW330221   1.204   4.277   5.427 -0.4913 -0.0645  0.0818
 7612SOL    MW430222   1.289   4.294   5.433 -0.5106 -0.2310  0.8234
 7613SOL     OW30223   1.874   0.790   1.973 -0.4019  0.1348  0.1320
 7613SOL    HW230224   1.833   0.718   1.925 -1.0099  0.6775 -0.1619
 7613SOL    HW330225   1.965   0.790   1.943 -0.6597  0.1661 -0.6652
 7613SOL    MW430226   1.881   0.780   1.963 -0.5161  0.2105 -0.0120
 7614SOL     OW30227   3.357   3.456   1.572 -0.2980  0.3083 -0.0601
 7614SOL    HW230228   3.441   3.476   1.613  0.2577  1.8567 -1.8373
 7614SOL    HW330229   3.377   3.385   1.511 -0.8808 -1.1501  1.3548
 7614SOL    MW430230   3.371   3.449   1.569 -0.3016  0.3202 -0.1079
 7615SOL     OW30231   4.398   3.034   2.638 -0.2939 -0.4700  0.4144
 7615SOL    HW230232   4.302   3.031   2.631 -0.4821 -0.8633  2.5827
 7615SOL    HW330233   4.421   2.957   2.690  1.2468 -0.5510 -0.3403
 7615SOL    MW430234   4.388   3.023   2.644 -0.1155 -0.5326  0.6009
 7616SOL     OW30235   1.952   5.601   5.719 -0.1618  0.8415  0.6911
 7616SOL    HW230236   1.962   5.542   5.794  1.9329 -2.1732 -1.6812
 7616SOL    HW330237   2.024   5.663   5.728  0.5383  0.0296  0.8049
 7616SOL    MW430238   1.963   5.601   5.730  0.2069  0.3367  0.3931
 7617SOL     OW30239   0.670   1.203   3.695 -0.6500  0.1179  0.5130
 7617SOL    HW230240   0.616   1.206   3.616 -0.2998 -2.4967  0.1090
 7617SOL    HW330241   0.757   1.231   3.667 -0.3294 -1.5328 -0.2740
 7617SOL    MW430242   0.674   1.207   3.681 -0.5615 -0.4448  0.3559
 7618SOL     OW30243   4.174   6.317   3.983  0.2741  0.2303 -0.1453
 7618SOL    HW230244   4.165   6.368   3.903  2.4178  0.1530 -0.5015
 7618SOL    HW330245   4.084   6.304   4.014 -0.6031  0.4269 -2.4140
 7618SOL    MW430246   4.161   6.322   3.976  0.4412  0.2461 -0.4917
 7619SOL     OW30247   1.920   5.071   2.202  0.0859 -0.2073  0.0188
 7619SOL    HW230248   1.846   5.107   2.250 -0.7304 -0.8304 -0.7515
 7619SOL    HW330249   1.921   5.119   2.119  0.6306 -0.1143  0.0710
 7619SOL    MW430250   1.911   5.082   2.198  0.0500 -0.2773 -0.0759
 7620SOL     OW30251   6.347   5.782   2.613 -0.8472  0.0579 -0.0228
 7620SOL    HW230252   6.401   5.778   2.534 -0.4015  0.3953  0.2560
 7620SOL    HW330253   6.366   5.700   2.660  1.3497  1.2113  1.2810
 7620SOL    MW430254   6.357   5.770   2.609 -0.4985  0.2546  0.1860
 7621SOL     OW30255   2.621   0.421   0.107 -0.7335  0.6594 -0.1573
 7621SOL    HW230256   2.632   0.385   0.195 -2.1546 -0.1947 -0.3097
 7621SOL    HW330257   2.541   0.472   0.111 -2.3167 -1.5631 -1.5814
 7621SOL    MW430258   2.612   0.423   0.119 -1.1299  0.2535 -0.3653
 7622SOL     OW30259   1.621   5.194   1.636  0.0669  0.3803 -0.8618
 7622SOL    HW230260   1.620   5.117   1.579  1.3885 -0.8062  0.6330
 7622SOL    HW330261   1.711   5.225   1.633  0.0469  0.5718  0.2375
 7622SOL    MW430262   1.632   5.188   1.628  0.2386  0.2490 -0.5196
 7623SOL     OW30263   4.988   4.214   4.894  0.1828  0.2681  0.0731
 7623SOL    HW230264   5.014   4.300   4.860 -0.9890 -0.2419 -2.2517
 7623SOL    HW330265   4.969   4.162   4.817 -0.4816 -1.6924  1.4820
 7623SOL    MW430266   4.989   4.219   4.879 -0.0594 -0.0578 -0.0477
 7624SOL     OW30267   5.250   0.915   1.454 -0.2353  0.0371  0.8193
 7624SOL    HW230268   5.204   0.988   1.497 -0.7320 -0.3166  0.9076
 7624SOL    HW330269   5.315   0.957   1.398 -1.4207  0.6118 -0.1849
 7624SOL    MW430270   5.252   0.930   1.452 -0.4572  0.0663  0.6985
 7625SOL     OW30271   4.915   0.634   0.846 -0.2844 -0.0132  0.2129
 7625SOL    HW230272   4.949   0.724   0.845  2.5583 -0.9726  0.2663
 7625SOL    HW330273   4.981   0.585   0.894 -2.9622 -1.7665  2.3859
 7625SOL    MW430274   4.928   0.640   0.852 -0.2627 -0.3711  0.5067
 7626SOL     OW30275   5.723   0.007   3.901 -0.6388  0.2288  0.0290
 7626SOL    HW230276   5.732  -0.022   3.810  0.9850  0.0767  0.2111
 7626SOL    HW330277   5.812   0.006   3.936 -1.3286 -0.5878  1.9163
 7626SOL    MW430278   5.736   0.003   3.894 -0.5156  0.1010  0.3021
 7627SOL     OW30279   4.563   0.762   1.587 -0.1576  0.2098  0.0466
 7627SOL    HW230280   4.476   0.764   1.628 -0.2058  0.5558 -0.0645
 7627SOL    HW330281   4.577   0.671   1.564 -0.3441  0.0913  0.3850
 7627SOL    MW430282   4.553   0.751   1.590 -0.1885  0.2398  0.0766
 7628SOL     OW30283   4.393   1.562   2.086 -0.2487  1.2767  0.1706
 7628SOL    HW230284   4.335   1.625   2.129 -0.4513  2.3546 -1.6013
 7628SOL    HW330285   4.475   1.610   2.072  0.6031  0.2270  1.3328
 7628SOL    MW430286   4.396   1.576   2.090 -0.1630  1.2804  0.0902
 7629SOL     OW30287   4.355   1.419   1.593  0.7482  0.1885  0.4590
 7629SOL    HW230288   4.343   1.328   1.621 -2.3230  0.5813  0.6998
 7629SOL    HW330289   4.339   1.470   1.672  1.0418  0.9884  0.0081
 7629SOL    MW430290   4.351   1.414   1.607  0.3818  0.3459  0.4313
 7630SOL     OW30291   4.929   2.625   5.170  0.2363  0.0126 -0.0853
 7630SOL    HW230292   4.883   2.586   5.096 -0.6845  0.7565  0.0879
 7630SOL    HW330293   4.988   2.556   5.200 -1.2823 -1.2339  0.1635
 7630SOL    MW430294   4.931   2.611   5.164 -0.0855 -0.0537 -0.0296
 7631SOL     OW30295   3.823   3.913   4.782  0.7662 -0.0771 -0.6671
 7631SOL    HW230296   3.828   3.819   4.801  2.4334  0.2481  0.7708
 7631SOL    HW330297   3.729   3.932   4.785  0.5089 -1.2781  1.3977
 7631SOL    MW430298   3.811   3.903   4.785  0.9522 -0.1926 -0.2049
 7632SOL     OW30299   1.712   5.247   1.279 -0.4650 -0.0152 -0.1210
 7632SOL    HW230300   1.691   5.240   1.185 -1.3311 -0.1797  0.0766
 7632SOL    HW330301   1.679   5.332   1.305  0.2099  0.2380 -0.0601
 7632SOL    MW430302   1.705   5.257   1.270 -0.4902 -0.0035 -0.0869
 7633SOL     OW30303   4.231   2.632   4.588 -0.7906 -0.6404  0.4271
 7633SOL    HW230304   4.205   2.588   4.669  2.3011 -0.8238  1.4554
 7633SOL    HW330305   4.242   2.561   4.525 -1.9429 -0.6322  0.2012
 7633SOL    MW430306   4.229   2.617   4.590 -0.5347 -0.6635  0.5330
 7634SOL     OW30307   0.077   2.189   3.035  0.3865 -0.7279 -0.1116
 7634SOL    HW230308   0.005   2.219   3.092  0.9041  0.3358  0.0009
 7634SOL    HW330309   0.141   2.152   3.096  1.4634  1.4581  0.1708
 7634SOL    MW430310   0.076   2.188   3.051  0.5968 -0.2992 -0.0595
 7635SOL     OW30311   4.213   1.878   1.941  0.0106 -0.5066  0.1214
 7635SOL    HW230312   4.229   1.869   2.035  2.4598 -0.2688 -0.2036
 7635SOL    HW330313   4.294   1.917   1.907 -0.6565 -0.9804 -2.1453
 7635SOL    MW430314   4.226   1.882   1.949  0.2457 -0.5377 -0.2206
 7636SOL     OW30315   6.183   5.995   2.671 -0.2396  0.3989  0.4644
 7636SOL    HW230316   6.181   5.960   2.760  1.5900  2.2317  1.3069
 7636SOL    HW330317   6.241   5.935   2.623  1.2537  1.0566  1.3636
 7636SOL    MW430318   6.191   5.982   2.676  0.1988  0.7275  0.6942
 7637SOL     OW30319   1.202   2.077   1.419  0.1733 -0.3825  0.2123
 7637SOL    HW230320   1.119   2.109   1.456 -1.1404 -1.1271 -1.9275
 7637SOL    HW330321   1.245   2.156   1.388 -1.1606 -0.2098 -1.3426
 7637SOL    MW430322   1.196   2.092   1.420 -0.1760 -0.4579 -0.2752
 7638SOL     OW30323   1.406   3.842   2.336 -0.5952  0.5574  0.6176
 7638SOL    HW230324   1.394   3.749   2.356  0.7703  0.1020 -0.5217
 7638SOL    HW330325   1.340   3.862   2.270 -2.8008  1.1828  2.8666
 7638SOL    MW430326   1.396   3.832   2.330 -0.7061  0.5799  0.7640
 7639SOL     OW30327   0.487   3.711   4.880  0.4301  0.1624 -0.1309
 7639SOL    HW230328   0.408   3.679   4.926  0.2472 -0.0189 -0.5681
 7639SOL    HW330329   0.457   3.729   4.791  1.2995 -1.8245 -0.8784
 7639SOL    MW430330   0.473   3.709   4.875  0.5207 -0.1237 -0.2872
 7640SOL     OW30331   1.775   2.963   3.971 -0.4131  0.0352  0.4005
 7640SOL    HW230332   1.867   2.989   3.968 -0.2046 -0.6468 -2.9832
 7640SOL    HW330333   1.777   2.868   3.983 -0.5285 -0.2719 -1.7375
 7640SOL    MW430334   1.788   2.954   3.973 -0.4008 -0.0953 -0.3280
 7641SOL     OW30335   2.951   3.922   1.710 -0.0938 -0.3243 -0.1408
 7641SOL    HW230336   2.933   3.988   1.776  1.9063 -0.8453  1.0138
 7641SOL    HW330337   3.041   3.940   1.682 -0.0422 -1.6337 -0.9086
 7641SOL    MW430338   2.961   3.933   1.715  0.1769 -0.5658 -0.0898
 7642SOL     OW30339   1.856   3.583   4.549  0.1257 -0.3209 -0.3977
 7642SOL    HW230340   1.769   3.600   4.512  0.3285  0.2943 -0.6076
 7642SOL    HW330341   1.840   3.569   4.642 -0.2661 -0.8110 -0.5356
 7642SOL    MW430342   1.843   3.583   4.556  0.1008 -0.3044 -0.4436
 7643SOL     OW30343   1.255   5.478   5.114 -0.2440  0.1846 -0.2987
 7643SOL    HW230344   1.257   5.574   5.117  2.3926  0.1992 -0.1336
 7643SOL    HW330345   1.328   5.451   5.170 -1.5354 -1.9746  0.4258
 7643SOL    MW430346   1.265   5.487   5.122 -0.0665 -0.0983 -0.1813
 7644SOL     OW30347   5.419   4.456   0.325 -0.5038  0.4918  0.3465
 7644SOL    HW230348   5.380   4.510   0.393 -0.3777 -0.4496  1.1777
 7644SOL    HW330349   5.511   4.450   0.349  0.5952  3.7116 -2.2423
 7644SOL    MW430350   5.426   4.462   0.337 -0.3422  0.7924  0.1146
 7645SOL     OW30351   2.307   0.974   1.805 -0.4142 -0.0996 -0.3027
 7645SOL    HW230352   2.327   0.890   1.763 -1.3872 -1.0672  1.0903
 7645SOL    HW330353   2.220   0.997   1.773 -0.0577  0.5112 -0.8559
 7645SOL    MW430354   2.299   0.966   1.796 -0.4955 -0.1467 -0.1919
 7646SOL     OW30355   3.172   4.987   2.426  0.1310 -0.5512 -0.3656
 7646SOL    HW230356   3.149   4.894   2.426  1.3256 -0.8679  0.6546
 7646SOL    HW330357   3.088   5.032   2.416 -0.6687 -1.7078  0.7265
 7646SOL    MW430358   3.158   4.980   2.425  0.1831 -0.7456 -0.0869
 7647SOL     OW30359   3.175   6.181   2.395 -0.6283  0.2849  0.0471
 7647SOL    HW230360   3.154   6.250   2.458  1.0169 -0.3081  1.3190
 7647SOL    HW330361   3.114   6.110   2.416 -2.2173  1.2419 -1.1613
 7647SOL    MW430362   3.165   6.181   2.406 -0.6209  0.3329  0.0555
 7648SOL     OW30363   5.527   2.491   4.074 -0.2288  0.1047  0.0193
 7648SOL    HW230364   5.540   2.535   4.158  0.1509  0.5987 -0.2854
 7648SOL    HW330365   5.558   2.402   4.089  0.5237  0.3833  0.2134
 7648SOL    MW430366   5.533   2.485   4.087 -0.0794  0.2066  0.0047
 7649SOL     OW30367   3.780   4.694   0.103  0.1865  0.3964 -0.0488
 7649SOL    HW230368   3.799   4.600   0.109  0.2264  0.3553 -0.6844
 7649SOL    HW330369   3.685   4.700   0.106  0.2197  0.4508  1.3135
 7649SOL    MW430370   3.770   4.682   0.104  0.1961  0.3981  0.0471
 7650SOL     OW30371   0.294   4.328   4.838  1.0503 -0.1308  0.3529
 7650SOL    HW230372   0.315   4.235   4.835  2.4248  0.1915 -1.1170
 7650SOL    HW330373   0.342   4.367   4.765 -0.0752  1.6343  0.4702
 7650SOL    MW430374   0.303   4.321   4.828  1.0832  0.1446  0.1745
 7651SOL     OW30375   6.266   4.672   4.852 -0.3169 -0.0203  0.2241
 7651SOL    HW230376   6.295   4.618   4.779 -2.4795  0.5659 -1.1663
 7651SOL    HW330377   6.345   4.715   4.883  1.0512 -2.1286 -0.1795
 7651SOL    MW430378   6.280   4.671   4.846 -0.4217 -0.2211 -0.0126
 7652SOL     OW30379   0.527   2.798   5.998  0.0827  0.0700  0.0179
 7652SOL    HW230380   0.471   2.728   6.032  3.0951 -1.9773  1.2343
 7652SOL    HW330381   0.526   2.786   5.903 -0.1942 -1.0197  0.1477
 7652SOL    MW430382   0.520   2.787   5.990  0.4436 -0.3439  0.1955
 7653SOL     OW30383   0.398   2.979   2.100 -0.6302  0.2903 -0.1536
 7653SOL    HW230384   0.408   2.946   2.189  1.0862  1.4031  0.1055
 7653SOL    HW330385   0.429   2.907   2.045  0.1311  0.3039  0.2456
 7653SOL    MW430386   0.403   2.965   2.104 -0.3033  0.4389 -0.0668
 7654SOL     OW30387   0.979   0.816   0.349 -0.1729 -0.3196  0.6606
 7654SOL    HW230388   0.934   0.894   0.317  0.0334  0.4867  2.2122
 7654SOL    HW330389   0.920   0.744   0.329 -1.1820  0.4665  0.7394
 7654SOL    MW430390   0.965   0.817   0.342 -0.2788 -0.1095  0.8757
 7655SOL     OW30391   2.829   2.084   0.072  0.0804  0.6496 -0.5892
 7655SOL    HW230392   2.792   2.082  -0.017  0.1234  1.9648 -0.6603
 7655SOL    HW330393   2.824   2.176   0.097  0.1998  0.3134  0.7301
 7655SOL    MW430394   2.823   2.096   0.063  0.1018  0.7788 -0.4245
 7656SOL     OW30395   4.666   3.513   0.166 -0.0440  0.4802  0.2020
 7656SOL    HW230396   4.686   3.603   0.141 -0.9437 -0.0519 -2.8232
 7656SOL    HW330397   4.749   3.466   0.156 -0.1936  0.4575 -1.0052
 7656SOL    MW430398   4.679   3.519   0.162 -0.1824  0.4070 -0.3564
 7657SOL     OW30399   0.868   2.821   3.146  0.5651 -0.3563  0.2484
 7657SOL    HW230400   0.890   2.872   3.068  0.9416 -1.0441 -0.1045
 7657SOL    HW330401   0.786   2.859   3.177  0.6782  0.2545 -0.1885
 7657SOL    MW430402   0.860   2.832   3.140  0.6297 -0.3664  0.1442
 7658SOL     OW30403   0.194   0.042   0.684  0.0593  0.1300 -0.0509
 7658SOL    HW230404   0.189   0.073   0.594 -0.0497  0.9647  0.2385
 7658SOL    HW330405   0.286   0.050   0.707  0.2129 -0.7624 -0.3158
 7658SOL    MW430406   0.205   0.047   0.675  0.0652  0.1224 -0.0476
 7659SOL     OW30407   3.604   1.839   4.141  0.0354  0.1572  1.0755
 7659SOL    HW230408   3.591   1.782   4.066  1.7989  2.2939 -1.0112
 7659SOL    HW330409   3.600   1.780   4.217 -3.6041 -1.8414 -0.4025
 7659SOL    MW430410   3.602   1.824   4.141 -0.2121  0.1754  0.6052
 7660SOL     OW30411   6.266   4.047   1.661  0.2450  0.1328  0.0129
 7660SOL    HW230412   6.265   4.143   1.660 -0.1648  0.1333 -0.9294
 7660SOL    HW330413   6.347   4.024   1.616  0.8584  0.0290  1.1502
 7660SOL    MW430414   6.277   4.057   1.655  0.2718  0.1191  0.0387
 7661SOL     OW30415   6.128   3.654   0.505  0.6727  0.1148  0.5501
 7661SOL    HW230416   6.128   3.583   0.441 -0.0972 -0.5392  1.2540
 7661SOL    HW330417   6.189   3.625   0.572  0.2665  0.0577  0.8973
 7661SOL    MW430418   6.136   3.641   0.505  0.5176  0.0210  0.6888
 7662SOL     OW30419   2.407   0.364   1.195  0.8263  0.1047 -0.0633
 7662SOL    HW230420   2.376   0.274   1.210  1.1862 -0.1271 -0.6471
 7662SOL    HW330421   2.395   0.377   1.101  0.3744  0.8291  0.0926
 7662SOL    MW430422   2.401   0.354   1.184  0.8141  0.1697 -0.1197
 7663SOL     OW30423   2.728   3.002   3.123  0.0282  0.0109  0.0984
 7663SOL    HW230424   2.666   3.055   3.173  0.5940  2.8728 -1.9809
 7663SOL    HW330425   2.693   3.002   3.034  0.5806 -2.4104 -0.2027
 7663SOL    MW430426   2.715   3.009   3.118  0.1757  0.0690 -0.2157
 7664SOL     OW30427   5.638   5.022   2.426 -0.2408  0.3482  0.0518
 7664SOL    HW230428   5.577   5.056   2.491 -0.8001 -0.8895  0.2107
 7664SOL    HW330429   5.717   5.075   2.436 -0.9891  1.4152  0.4304
 7664SOL    MW430430   5.641   5.033   2.436 -0.4133  0.3256  0.1227
 7665SOL     OW30431   4.376   5.206   5.664  0.1927 -0.1299  0.1716
 7665SOL    HW230432   4.315   5.196   5.591 -1.7823  0.4034  1.6807
 7665SOL    HW330433   4.344   5.147   5.731  1.5912 -0.1121  0.9015
 7665SOL    MW430434   4.364   5.197   5.663  0.1167 -0.0572  0.4670
 7666SOL     OW30435   5.160   6.162   6.129  0.2197  0.0099 -0.3900
 7666SOL    HW230436   5.136   6.095   6.193  1.8646 -0.3912 -0.1428
 7666SOL    HW330437   5.138   6.245   6.172  0.1167 -0.2981  0.1640
 7666SOL    MW430438   5.154   6.165   6.144  0.4231 -0.0836 -0.2843
 7667SOL     OW30439   2.695   1.377   3.656  0.1563  0.1555  0.8051
 7667SOL    HW230440   2.670   1.287   3.675 -0.2732 -0.4703 -2.2626
 7667SOL    HW330441   2.733   1.374   3.568  2.8384  2.5531  1.7007
 7667SOL    MW430442   2.697   1.365   3.647  0.4535  0.3893  0.5186
 7668SOL     OW30443   0.461   1.629   1.311 -0.2546  0.6802 -0.1207
 7668SOL    HW230444   0.453   1.662   1.221 -0.8580  2.8759  0.6721
 7668SOL    HW330445   0.383   1.662   1.355 -0.8852 -1.8689  0.8275
 7668SOL    MW430446   0.450   1.638   1.305 -0.4174  0.6336  0.1090
 7669SOL     OW30447   5.258   0.751   3.363 -0.1503  0.1080  0.3148
 7669SOL    HW230448   5.277   0.747   3.269 -0.4515 -2.0014  0.2869
 7669SOL    HW330449   5.342   0.774   3.404  0.7672 -1.8792 -0.3093
 7669SOL    MW430450   5.272   0.753   3.356 -0.0690 -0.4325  0.2287
 7670SOL     OW30451   5.641   4.231   5.801 -0.4355 -0.6196  0.4358
 7670SOL    HW230452   5.583   4.231   5.877 -0.2384  1.3757  0.6396
 7670SOL    HW330453   5.729   4.220   5.838 -0.4420 -0.9152  0.3683
 7670SOL    MW430454   5.645   4.229   5.816 -0.4104 -0.3954  0.4538
 7671SOL     OW30455   3.154   1.859   5.536  0.3220  0.3500  0.6517
 7671SOL    HW230456   3.153   1.859   5.632  0.6776 -2.1656  0.7233
 7671SOL    HW330457   3.240   1.893   5.513  0.1085  1.2908  1.1921
 7671SOL    MW430458   3.165   1.864   5.546  0.3407  0.1422  0.7325
 7672SOL     OW30459   2.315   4.263   2.432  0.0761 -0.2894  0.6036
 7672SOL    HW230460   2.257   4.195   2.466  2.3654 -1.9100  1.5678
 7672SOL    HW330461   2.398   4.248   2.477  1.0212  2.4810 -0.0160
 7672SOL    MW430462   2.319   4.252   2.442  0.5029 -0.1377  0.6490
 7673SOL     OW30463   0.847   1.429   1.804  0.5414 -0.0704 -0.1083
 7673SOL    HW230464   0.867   1.386   1.888  1.5821 -0.7881 -0.6901
 7673SOL    HW330465   0.755   1.411   1.789  0.7715 -1.5099  0.0305
 7673SOL    MW430466   0.838   1.421   1.813  0.7091 -0.3550 -0.1668
 7674SOL     OW30467   4.561   0.014   2.332  0.0253  0.1082 -0.1416
 7674SOL    HW230468   4.617   0.067   2.388 -0.4596  1.8213 -1.1726
 7674SOL    HW330469   4.512  -0.042   2.392 -1.7233  3.0135  1.4354
 7674SOL    MW430470   4.562   0.014   2.347 -0.2694  0.7175 -0.0695
 7675SOL     OW30471   0.147   2.217   5.763  0.3603 -0.2928 -0.0678
 7675SOL    HW230472   0.195   2.227   5.845  0.5838 -0.3027 -0.1982
 7675SOL    HW330473   0.106   2.131   5.769  1.8768 -1.1073 -0.7471
 7675SOL    MW430474   0.148   2.207   5.774  0.5898 -0.4016 -0.1747
 7676SOL     OW30475   5.782   6.321   1.177 -0.0598  0.2607  0.0025
 7676SOL    HW230476   5.817   6.382   1.242 -0.5042 -1.2727  1.7482
 7676SOL    HW330477   5.859   6.292   1.127  0.1680  2.0974 -0.7769
 7676SOL    MW430478   5.797   6.325   1.179 -0.0884  0.3007  0.1300
 7677SOL     OW30479   3.354   4.234   0.586 -0.5296 -1.1137  0.0272
 7677SOL    HW230480   3.302   4.156   0.566 -0.8988 -0.7601 -0.4244
 7677SOL    HW330481   3.432   4.226   0.531 -1.6629 -0.0121 -1.8571
 7677SOL    MW430482   3.357   4.223   0.576 -0.7278 -0.9217 -0.2810
 7678SOL     OW30483   6.155   2.729   5.969 -0.0519  0.0507  0.2943
 7678SOL    HW230484   6.201   2.749   6.051  0.8010 -0.2196 -0.1045
 7678SOL    HW330485   6.105   2.650   5.989 -0.2388  0.2656  0.6956
 7678SOL    MW430486   6.155   2.722   5.983  0.0360  0.0434  0.2946
 7679SOL     OW30487   4.200   0.998   2.952  0.0142  0.3341  0.7022
 7679SOL    HW230488   4.190   1.090   2.926  1.0807  1.0906  2.7107
 7679SOL    HW330489   4.129   0.983   3.014 -1.5170 -0.9405 -1.2429
 7679SOL    MW430490   4.189   1.009   2.957 -0.0471  0.2657  0.7106
 7680SOL     OW30491   2.405   4.567   2.166 -0.2401  0.0067 -0.8474
 7680SOL    HW230492   2.393   4.472   2.174 -0.0080 -0.0223 -0.8390
 7680SOL    HW330493   2.325   4.604   2.204  0.3131 -0.1521  0.5056
 7680SOL    MW430494   2.392   4.559   2.172 -0.1365 -0.0181 -0.6678
 7681SOL     OW30495   2.704   5.373   4.115  0.2256 -0.1156 -0.3325
 7681SOL    HW230496   2.743   5.354   4.200  1.4249 -2.6459 -1.3389
 7681SOL    HW330497   2.778   5.394   4.059 -0.4936  0.9308 -0.9238
 7681SOL    MW430498   2.719   5.373   4.119  0.2890 -0.3114 -0.5433
 7682SOL     OW30499   4.598   3.816   1.702  0.0126  0.1965 -0.2537
 7682SOL    HW230500   4.535   3.748   1.677 -1.7353  1.4488  0.5333
 7682SOL    HW330501   4.663   3.816   1.632 -1.5935 -0.2467 -1.8273
 7682SOL    MW430502   4.598   3.807   1.690 -0.4299  0.3032 -0.3575
 7683SOL     OW30503   5.888   2.721   2.527 -0.0705  0.3652 -0.5283
 7683SOL    HW230504   5.884   2.650   2.591  1.2887  0.5335 -0.2206
 7683SOL    HW330505   5.934   2.683   2.452  0.1182  0.7369 -0.6025
 7683SOL    MW430506   5.893   2.707   2.525  0.1338  0.4364 -0.4975
 7684SOL     OW30507   2.056   5.940   1.798 -0.1913  0.0895 -0.4127
 7684SOL    HW230508   1.977   5.943   1.745  0.3227  0.6942 -1.1659
 7684SOL    HW330509   2.049   6.016   1.856 -0.2016  0.0913 -0.4163
 7684SOL    MW430510   2.045   5.950   1.799 -0.1249  0.1695 -0.5126
 7685SOL     OW30511   5.459   3.208   4.578  0.2184  0.0586  0.2753
 7685SOL    HW230512   5.462   3.178   4.488  0.2644  0.9921 -0.0474
 7685SOL    HW330513   5.374   3.250   4.588 -0.4191 -1.3502  1.1229
 7685SOL    MW430514   5.449   3.210   4.568  0.1404 -0.0041  0.3446
 7686SOL     OW30515   1.065   1.961   2.045 -0.0222  0.4470 -0.0194
 7686SOL    HW230516   1.136   1.952   2.109  0.8937  0.2412 -1.0427
 7686SOL    HW330517   1.102   1.928   1.963 -1.5732 -0.4692 -0.3943
 7686SOL    MW430518   1.079   1.955   2.043 -0.1060  0.2990 -0.2039
 7687SOL     OW30519   5.349   3.023   3.576 -0.2782 -0.3113 -0.6935
 7687SOL    HW230520   5.377   3.065   3.495  1.4293 -0.0354 -0.0019
 7687SOL    HW330521   5.347   2.929   3.556 -0.7106 -0.1864 -1.2716
 7687SOL    MW430522   5.352   3.016   3.563 -0.1100 -0.2584 -0.6785
 7688SOL     OW30523   1.005   5.595   3.795  0.2862  0.0247  0.2153
 7688SOL    HW230524   1.009   5.502   3.775  0.4120  0.4057 -1.7216
 7688SOL    HW330525   0.912   5.614   3.804  0.2430 -0.2138  0.2712
 7688SOL    MW430526   0.994   5.585   3.794  0.2971  0.0435 -0.0329
 7689SOL     OW30527   3.860   4.430   5.627  0.1757 -0.4876 -0.5510
 7689SOL    HW230528   3.908   4.353   5.598 -0.0373 -0.7752 -0.1547
 7689SOL    HW330529   3.774   4.397   5.651  0.1606 -0.1669 -0.1495
 7689SOL    MW430530   3.855   4.415   5.626  0.1456 -0.4832 -0.4457
 7690SOL     OW30531   4.395   2.607   1.348 -0.4012  0.6631 -0.2378
 7690SOL    HW230532   4.474   2.558   1.369 -1.4674 -1.6509 -1.2729
 7690SOL    HW330533   4.397   2.615   1.252 -1.1496  1.0382 -0.2267
 7690SOL    MW430534   4.406   2.601   1.338 -0.6406  0.4073 -0.3729
 7691SOL     OW30535   1.299   0.960   3.011  0.0436 -0.0273  0.3231
 7691SOL    HW230536   1.315   0.877   3.056  0.4424 -0.5321 -0.7142
 7691SOL    HW330537   1.349   0.953   2.930 -0.0885  1.1482  0.1239
 7691SOL    MW430538   1.308   0.948   3.006  0.0788  0.0612  0.1599
 7692SOL     OW30539   6.380   2.944   1.398  0.5961  0.5936 -0.3828
 7692SOL    HW230540   6.362   2.861   1.442  0.6730  0.4035 -0.7061
 7692SOL    HW330541   6.331   3.009   1.449  1.1239  0.4640  0.3122
 7692SOL    MW430542   6.371   2.942   1.411  0.6759  0.5514 -0.3338
 7693SOL     OW30543   5.956   6.360   5.228  0.4069  0.0813 -0.2902
 7693SOL    HW230544   5.904   6.283   5.206  1.3677 -1.2202  1.6732
 7693SOL    HW330545   5.999   6.384   5.146 -0.7038 -0.8393 -1.1758
 7693SOL    MW430546   5.955   6.353   5.214  0.3871 -0.2119 -0.1480
 7694SOL     OW30547   3.433   0.430   1.485 -0.3897 -0.1342 -0.5694
 7694SOL    HW230548   3.376   0.499   1.519  2.0669  1.4195  0.6336
 7694SOL    HW330549   3.413   0.353   1.538 -2.2148 -0.0264 -1.0389
 7694SOL    MW430550   3.423   0.429   1.496 -0.3064  0.0850 -0.4726
 7695SOL     OW30551   3.267   2.635   5.709  0.1220 -0.1053  0.9787
 7695SOL    HW230552   3.264   2.614   5.802  0.3150 -1.8869  0.6171
 7695SOL    HW330553   3.339   2.582   5.674 -0.0148  0.4430 -0.2109
 7695SOL    MW430554   3.276   2.626   5.716  0.1294 -0.2680  0.7740
 7696SOL     OW30555   6.099   4.138   0.427  0.1865  0.1316 -0.4671
 7696SOL    HW230556   6.054   4.074   0.371  1.1574 -0.9698 -0.0389
 7696SOL    HW330557   6.133   4.203   0.366  0.2667 -0.4423 -1.0543
 7696SOL    MW430558   6.097   4.138   0.411  0.3252 -0.0895 -0.4880
 7697SOL     OW30559   6.306   4.570   4.584 -0.2705 -0.3979 -0.2030
 7697SOL    HW230560   6.237   4.592   4.521  0.8067  0.3747 -1.1809
 7697SOL    HW330561   6.383   4.555   4.529  1.0040  1.4450  0.9639
 7697SOL    MW430562   6.307   4.571   4.568  0.0398 -0.0528 -0.1781
 7698SOL     OW30563   3.119   4.296   3.349 -0.3705  0.8124 -0.4621
 7698SOL    HW230564   3.078   4.282   3.263  0.4879  0.3478 -0.8066
 7698SOL    HW330565   3.103   4.389   3.368 -0.7418  0.8737 -1.0344
 7698SOL    MW430566   3.111   4.307   3.340 -0.3063  0.7592 -0.5831
 7699SOL     OW30567   0.869   1.773   5.742 -0.2819  0.3109 -0.0226
 7699SOL    HW230568   0.844   1.731   5.824  0.0992  0.2967  0.0881
 7699SOL    HW330569   0.961   1.751   5.730  0.2184  1.9012  0.5474
 7699SOL    MW430570   0.878   1.765   5.751 -0.1656  0.5188  0.0672
 7700SOL     OW30571   4.068   5.941   5.612  0.1327  0.3853  0.0624
 7700SOL    HW230572   4.123   5.967   5.538 -0.9936  1.0517 -0.5795
 7700SOL    HW330573   4.019   5.865   5.580 -0.5873  0.8639 -0.0197
 7700SOL    MW430574   4.068   5.934   5.598 -0.1109  0.5364 -0.0331
 7701SOL     OW30575   4.079   0.157   3.316 -0.4916  0.2335 -0.0913
 7701SOL    HW230576   4.155   0.099   3.320 -0.6231 -0.0163 -1.0582
 7701SOL    HW330577   4.116   0.245   3.307 -0.3031  0.2218  0.5588
 7701SOL    MW430578   4.094   0.161   3.315 -0.4841  0.1990 -0.1331
 7702SOL     OW30579   1.593   2.119   0.507 -0.1594 -0.5180 -0.5427
 7702SOL    HW230580   1.616   2.174   0.433 -1.3966 -0.9677 -1.2833
 7702SOL    HW330581   1.674   2.114   0.559  0.0149  1.9439 -0.4501
 7702SOL    MW430582   1.607   2.126   0.504 -0.2996 -0.2525 -0.6282
 7703SOL     OW30583   0.148   0.336   5.929  0.5093  0.3938  0.1727
 7703SOL    HW230584   0.059   0.371   5.927  0.6389  0.7414 -1.1493
 7703SOL    HW330585   0.203   0.412   5.908  1.0875  0.1223  0.6924
 7703SOL    MW430586   0.144   0.351   5.926  0.6027  0.4039  0.0669
 7704SOL     OW30587   2.298   3.320   1.233 -0.7669  0.0216 -0.1147
 7704SOL    HW230588   2.334   3.372   1.304 -0.6015 -0.1156 -0.0967
 7704SOL    HW330589   2.363   3.251   1.219 -1.1942 -0.4433  0.1635
 7704SOL    MW430590   2.311   3.318   1.240 -0.8015 -0.0578 -0.0756
 7705SOL     OW30591   1.758   6.409   0.521 -0.2919  0.0359 -0.7018
 7705SOL    HW230592   1.782   6.324   0.485 -0.0357  0.1795 -0.8667
 7705SOL    HW330593   1.784   6.473   0.454 -0.3522  0.2557 -0.5190
 7705SOL    MW430594   1.764   6.407   0.507 -0.2661  0.0839 -0.6995
 7706SOL     OW30595   1.176   0.295   0.280 -0.0836 -0.0932 -0.8271
 7706SOL    HW230596   1.210   0.353   0.212  0.3745  1.1574  0.4007
 7706SOL    HW330597   1.135   0.355   0.343 -1.8399 -1.3183 -0.7236
 7706SOL    MW430598   1.175   0.311   0.279 -0.2549 -0.0899 -0.6514
 7707SOL     OW30599   1.695   4.162   1.063  0.6967  0.0488 -0.1994
 7707SOL    HW230600   1.627   4.123   1.119 -0.0548  0.7342 -0.6230
 7707SOL    HW330601   1.732   4.232   1.117  1.2673 -0.5034  0.1356
 7707SOL    MW430602   1.691   4.166   1.078  0.6728  0.0664 -0.2111
 7708SOL     OW30603   0.382   0.588   0.092 -0.4520 -0.0568 -0.0626
 7708SOL    HW230604   0.421   0.504   0.117 -0.7735 -0.1121  0.2625
 7708SOL    HW330605   0.308   0.599   0.152 -0.0299  0.7668  0.3303
 7708SOL    MW430606   0.377   0.579   0.103 -0.4387  0.0446  0.0322
 7709SOL     OW30607   0.474   0.814   4.964  0.0198  0.1956 -0.4231
 7709SOL    HW230608   0.430   0.775   4.888 -1.9873  0.6637  0.4437
 7709SOL    HW330609   0.478   0.907   4.944 -2.7709  0.7085  1.0217
 7709SOL    MW430610   0.469   0.821   4.951 -0.6132  0.3250 -0.1181
 7710SOL     OW30611   2.662   3.106   0.943  0.3121 -0.0805  0.3933
 7710SOL    HW230612   2.735   3.076   0.888  0.4484 -1.3236  1.2293
 7710SOL    HW330613   2.618   3.172   0.889  0.8173 -0.8015 -0.9594
 7710SOL    MW430614   2.666   3.111   0.928  0.3968 -0.3397  0.3252
 7711SOL     OW30615   3.458   1.367   1.468  0.0198 -0.2413 -0.5134
 7711SOL    HW230616   3.519   1.400   1.402 -1.9422 -0.6052 -2.6613
 7711SOL    HW330617   3.384   1.428   1.464 -0.0808 -0.1628  1.5431
 7711SOL    MW430618   3.456   1.380   1.459 -0.2523 -0.2789 -0.5255
 7712SOL     OW30619   6.258   4.303   3.044 -0.2029  0.2496 -0.0823
 7712SOL    HW230620   6.202   4.307   3.122 -0.9294 -0.4776 -0.5557
 7712SOL    HW330621   6.261   4.210   3.021  1.4139  0.2380  0.0715
 7712SOL    MW430622   6.251   4.291   3.051 -0.0854  0.1521 -0.1245
 7713SOL     OW30623   4.457   2.592   2.555 -0.3610 -0.1679 -0.3313
 7713SOL    HW230624   4.370   2.586   2.518 -0.0855  1.6450 -1.4101
 7713SOL    HW330625   4.443   2.622   2.645 -0.8902 -1.2704 -0.0376
 7713SOL    MW430626   4.444   2.595   2.562 -0.3945 -0.0741 -0.4349
 7714SOL     OW30627   2.684   2.632   5.482 -0.1528  0.4817  0.3162
 7714SOL    HW230628   2.769   2.673   5.464  0.4509 -0.2446  1.4015
 7714SOL    HW330629   2.651   2.678   5.559  1.2192 -1.9118  2.4831
 7714SOL    MW430630   2.691   2.644   5.490  0.1078  0.0701  0.7453
 7715SOL     OW30631   2.304   2.384   4.462  0.8292  0.2954  0.6259
 7715SOL    HW230632   2.341   2.400   4.549  2.3672  2.0521 -0.2853
 7715SOL    HW330633   2.255   2.464   4.442  0.2259 -0.2233  0.0059
 7715SOL    MW430634   2.303   2.397   4.471  0.9525  0.4587  0.4239
 7716SOL     OW30635   0.182   5.468   1.872  0.2170  0.2307  0.2960
 7716SOL    HW230636   0.185   5.393   1.932  1.7135  0.2816  0.3219
 7716SOL    HW330637   0.089   5.489   1.864 -0.4877 -2.9955 -1.4420
 7716SOL    MW430638   0.170   5.461   1.879  0.3215 -0.1883  0.0701
 7717SOL     OW30639   5.562   2.401   3.426  0.2544 -0.4831 -0.1812
 7717SOL    HW230640   5.468   2.385   3.416 -0.1799  1.0896  0.9781
 7717SOL    HW330641   5.568   2.491   3.458  2.2025 -0.3523 -0.7798
 7717SOL    MW430642   5.551   2.411   3.429  0.4542 -0.2584 -0.1072
 7718SOL     OW30643   3.140   0.729   6.221 -0.1822 -0.3049 -0.1995
 7718SOL    HW230644   3.100   0.815   6.215 -1.0650 -0.7750 -1.6605
 7718SOL    HW330645   3.194   0.722   6.142 -0.1523 -1.1066 -0.1175
 7718SOL    MW430646   3.142   0.739   6.210 -0.2948 -0.4727 -0.3814
 7719SOL     OW30647   2.712   6.145   1.087  0.5607  0.1348 -0.1865
 7719SOL    HW230648   2.711   6.163   0.993 -0.5881 -0.1701 -0.2433
 7719SOL    HW330649   2.672   6.058   1.096 -1.9785  1.3084  0.7840
 7719SOL    MW430650   2.706   6.136   1.076  0.0741  0.2494 -0.0659
 7720SOL     OW30651   1.971   1.369   4.032 -0.0511 -0.0264 -0.4177
 7720SOL    HW230652   2.058   1.348   3.998 -0.1381  0.6636 -1.0934
 7720SOL    HW330653   1.978   1.460   4.061 -0.1863 -0.3754  0.7601
 7720SOL    MW430654   1.983   1.378   4.032 -0.0804  0.0186 -0.3515
 7721SOL     OW30655   3.720   1.606   5.754 -0.0336 -0.1603  0.1052
 7721SOL    HW230656   3.633   1.600   5.715 -0.1496  0.5010  0.2566
 7721SOL    HW330657   3.773   1.654   5.690 -0.0986  0.4948  0.5319
 7721SOL    MW430658   3.715   1.611   5.741 -0.0575  0.0134  0.1814
 7722SOL     OW30659   0.729   4.040   1.278  0.2169 -0.1858 -0.5739
 7722SOL    HW230660   0.673   4.047   1.201  0.1290  0.8953 -0.4229
 7722SOL    HW330661   0.711   4.120   1.328  1.1255 -0.3274 -0.0081
 7722SOL    MW430662   0.719   4.051   1.275  0.3252 -0.0618 -0.4793
 7723SOL     OW30663   5.020   4.935   3.839  0.3401 -0.2253  0.2417
 7723SOL    HW230664   5.010   4.912   3.747  2.8106  1.5701 -0.5997
 7723SOL    HW330665   4.938   4.980   3.861  1.4649  3.9637 -2.7733
 7723SOL    MW430666   5.008   4.938   3.830  0.8145  0.5642 -0.2671
 7724SOL     OW30667   3.467   4.137   4.252 -0.4287  0.2553  0.2398
 7724SOL    HW230668   3.482   4.207   4.189  0.6637 -1.9178 -2.0759
 7724SOL    HW330669   3.385   4.162   4.296 -0.9312  2.1766 -1.6239
 7724SOL    MW430670   3.458   4.150   4.249 -0.3509  0.2220 -0.3116
 7725SOL     OW30671   4.402   3.171   5.997 -0.0476  0.2594  0.0174
 7725SOL    HW230672   4.355   3.102   6.044 -0.7354  0.6040 -0.1439
 7725SOL    HW330673   4.370   3.253   6.036  0.7899  0.4926  0.2360
 7725SOL    MW430674   4.391   3.173   6.008 -0.0278  0.3357  0.0249
 7726SOL     OW30675   0.545   3.836   6.390  0.3030  0.4872  0.2708
 7726SOL    HW230676   0.554   3.741   6.394 -1.0165  0.2572 -1.1671
 7726SOL    HW330677   0.609   3.869   6.452  0.0887 -1.3684  1.5549
 7726SOL    MW430678   0.554   3.828   6.399  0.1006  0.2120  0.2505
 7727SOL     OW30679   5.349   4.649   1.059  0.1031 -0.0829  0.7581
 7727SOL    HW230680   5.442   4.638   1.079  0.3048  2.1998  1.4433
 7727SOL    HW330681   5.311   4.683   1.140 -1.4299 -1.3494  0.5962
 7727SOL    MW430682   5.357   4.652   1.072 -0.0726  0.0512  0.8272
 7728SOL     OW30683   0.484   4.806   5.870 -0.0321  0.0581 -0.0335
 7728SOL    HW230684   0.419   4.870   5.899  0.6776  0.6873  0.2164
 7728SOL    HW330685   0.433   4.736   5.829 -0.9192  0.1136  0.9455
 7728SOL    MW430686   0.469   4.806   5.868 -0.0555  0.1485  0.1286
 7729SOL     OW30687   0.758   5.298   5.195 -0.1218  0.2595  0.6097
 7729SOL    HW230688   0.741   5.217   5.147 -2.5649  1.9768 -1.7615
 7729SOL    HW330689   0.846   5.323   5.168  0.5857 -1.4490  1.2206
 7729SOL    MW430690   0.767   5.291   5.185 -0.3508  0.2607  0.3775
 7730SOL     OW30691   2.663   3.591   5.690 -0.3765  0.1754 -0.2134
 7730SOL    HW230692   2.651   3.526   5.759  1.3223 -0.4525 -0.4563
 7730SOL    HW330693   2.751   3.575   5.658  0.0399  2.5370 -0.3841
 7730SOL    MW430694   2.673   3.580   5.695 -0.0975  0.4041 -0.2679
 7731SOL     OW30695   4.304   1.314   2.206  0.2394  0.5828 -0.3515
 7731SOL    HW230696   4.337   1.396   2.168 -0.3210  1.0991  0.2525
 7731SOL    HW330697   4.224   1.339   2.251 -1.1548 -0.7023 -1.9978
 7731SOL    MW430698   4.298   1.328   2.207 -0.0185  0.4814 -0.4890
 7732SOL     OW30699   3.143   6.416   2.549  0.5982  0.5556  0.7932
 7732SOL    HW230700   3.122   6.393   2.639  0.5776  0.0303  0.6575
 7732SOL    HW330701   3.079   6.484   2.526  2.1983  2.6087  1.9910
 7732SOL    MW430702   3.132   6.422   2.557  0.8066  0.7572  0.9333
 7733SOL     OW30703   0.264   6.021   4.599  0.4220  0.1207 -0.4043
 7733SOL    HW230704   0.259   5.940   4.547 -0.6012 -0.4768  0.5731
 7733SOL    HW330705   0.193   6.012   4.662  0.2477  1.8407 -0.3298
 7733SOL    MW430706   0.254   6.009   4.600  0.2640  0.2688 -0.2655
 7734SOL     OW30707   1.319   1.860   2.994  0.5872 -0.2241 -0.2966
 7734SOL    HW230708   1.350   1.842   3.083 -0.7980  0.7766  0.4333
 7734SOL    HW330709   1.397   1.854   2.939  1.4383 -1.0441  0.9571
 7734SOL    MW430710   1.333   1.857   2.998  0.5167 -0.2002 -0.0349
 7735SOL     OW30711   3.396   1.525   4.600 -0.1264  0.2696 -0.1164
 7735SOL    HW230712   3.457   1.452   4.597 -1.5074 -0.9172 -2.8407
 7735SOL    HW330713   3.451   1.603   4.591  1.3898 -0.2981  3.0498
 7735SOL    MW430714   3.411   1.526   4.598 -0.1085  0.0381 -0.0581
 7736SOL     OW30715   4.414   1.822   4.319  0.3856 -0.3461  0.2624
 7736SOL    HW230716   4.445   1.878   4.390  0.5790  0.5096 -0.4685
 7736SOL    HW330717   4.331   1.786   4.350  0.8748 -0.6520  1.2419
 7736SOL    MW430718   4.408   1.825   4.332  0.4757 -0.2736  0.2952
 7737SOL     OW30719   6.182   3.425   0.347 -0.1467  0.0577  0.5453
 7737SOL    HW230720   6.272   3.455   0.363  0.0766  0.6999 -1.6025
 7737SOL    HW330721   6.173   3.347   0.402  2.4627 -1.2512 -0.6640
 7737SOL    MW430722   6.193   3.418   0.356  0.2270 -0.0303  0.1023
 7738SOL     OW30723   1.999   6.068   5.708  0.7614  0.1241 -0.1092
 7738SOL    HW230724   2.049   6.073   5.789  0.9406  0.1505 -0.2215
 7738SOL    HW330725   1.980   6.159   5.686  2.2125  0.2400 -1.0264
 7738SOL    MW430726   2.003   6.081   5.716  0.9765  0.1429 -0.2450
 7739SOL     OW30727   4.476   3.389   2.519 -0.1085  0.1736 -0.0046
 7739SOL    HW230728   4.566   3.372   2.546  0.6059  1.1061 -1.6346
 7739SOL    HW330729   4.442   3.449   2.586  0.1106 -0.9497  1.1638
 7739SOL    MW430730   4.483   3.395   2.531  0.0147  0.1484 -0.0655
 7740SOL     OW30731   1.284   4.380   4.417  0.3305  0.0757  0.2778
 7740SOL    HW230732   1.346   4.453   4.427 -1.5349  2.0171 -1.4074
 7740SOL    HW330733   1.232   4.382   4.497  1.4967 -0.6535  1.0719
 7740SOL    MW430734   1.285   4.390   4.429  0.2382  0.2356  0.1602
 7741SOL     OW30735   0.549   5.858   0.101  0.1748  0.2568  0.2314
 7741SOL    HW230736   0.532   5.952   0.102 -0.9665  0.1030 -1.3319
 7741SOL    HW330737   0.513   5.828   0.018  1.0010 -1.4867  0.4612
 7741SOL    MW430738   0.542   5.866   0.091  0.1332  0.0065  0.0555
 7742SOL     OW30739   3.673   4.475   3.882 -0.6531  0.3342 -0.4118
 7742SOL    HW230740   3.760   4.512   3.868  0.1936 -1.2759  0.2867
 7742SOL    HW330741   3.654   4.426   3.802  1.6226 -3.9489  1.3084
 7742SOL    MW430742   3.682   4.473   3.870 -0.2411 -0.4433 -0.0927
 7743SOL     OW30743   2.218   1.772   3.640  0.0055  0.1574 -0.1108
 7743SOL    HW230744   2.192   1.709   3.573 -0.0925  0.7415 -0.6309
 7743SOL    HW330745   2.198   1.857   3.602  0.2220  0.5091  0.5462
 7743SOL    MW430746   2.212   1.775   3.626  0.0211  0.2809 -0.0927
 7744SOL     OW30747   1.021   1.765   0.426  0.0641 -0.0192 -0.2080
 7744SOL    HW230748   1.071   1.844   0.407  1.7360 -0.7635  0.8466
 7744SOL    HW330749   0.988   1.777   0.515  1.5233 -1.0255  0.5199
 7744SOL    MW430750   1.024   1.777   0.435  0.4772 -0.2502  0.0272
 7745SOL     OW30751   3.782   5.559   0.009  0.2123 -0.1494  0.7681
 7745SOL    HW230752   3.808   5.637  -0.041  1.7699 -0.9434  0.2749
 7745SOL    HW330753   3.794   5.585   0.101  0.3930  0.2966  0.6214
 7745SOL    MW430754   3.787   5.573   0.015  0.4416 -0.1953  0.6837
 7746SOL     OW30755   1.481   6.248   2.798 -0.5333  0.2703  0.0202
 7746SOL    HW230756   1.442   6.161   2.794 -0.3351  0.1603  0.3767
 7746SOL    HW330757   1.422   6.299   2.853  0.4077 -0.2316  1.5853
 7746SOL    MW430758   1.468   6.243   2.805 -0.3830  0.1896  0.2738
 7747SOL     OW30759   6.289   3.130   4.390 -0.2427  0.0189  0.6460
 7747SOL    HW230760   6.273   3.156   4.480 -0.3858  0.2467  0.5551
 7747SOL    HW330761   6.381   3.152   4.375 -0.0485 -0.5728  0.9224
 7747SOL    MW430762   6.299   3.136   4.400 -0.2360 -0.0291  0.6705
 7748SOL     OW30763   4.363   2.263   5.815  0.0040 -0.1014 -0.5477
 7748SOL    HW230764   4.442   2.257   5.869 -0.0327  0.7020 -0.3816
 7748SOL    HW330765   4.359   2.180   5.768  0.3195 -0.6094  0.3009
 7748SOL    MW430766   4.373   2.251   5.816  0.0408 -0.0624 -0.4138
 7749SOL     OW30767   2.990   5.534   0.997  0.0343  0.4139  0.4164
 7749SOL    HW230768   3.063   5.547   0.936 -1.2153  0.7195 -1.0454
 7749SOL    HW330769   2.958   5.622   1.016 -0.9950  0.1968 -0.2518
 7749SOL    MW430770   2.996   5.547   0.992 -0.2664  0.4256  0.1354
 7750SOL     OW30771   6.140   0.164   3.393 -0.0502 -0.3729  0.1423
 7750SOL    HW230772   6.149   0.213   3.475 -0.6242 -0.0449  0.0213
 7750SOL    HW330773   6.215   0.105   3.391  0.3234  0.0801  0.5892
 7750SOL    MW430774   6.151   0.163   3.403 -0.0767 -0.2698  0.1853
 7751SOL     OW30775   2.347   3.810   6.322  0.0855  0.1245 -0.5475
 7751SOL    HW230776   2.264   3.763   6.316 -1.2152  2.4673 -2.4134
 7751SOL    HW330777   2.391   3.795   6.238  2.0657 -1.7870  0.7141
 7751SOL    MW430778   2.342   3.802   6.310  0.1752  0.1814 -0.6272
 7752SOL     OW30779   3.783   2.372   3.376  0.1842  0.1833  0.2771
 7752SOL    HW230780   3.794   2.387   3.470 -0.2062  1.2352  0.1762
 7752SOL    HW330781   3.872   2.378   3.340  0.3440 -0.3035  0.5863
 7752SOL    MW430782   3.796   2.375   3.384  0.1538  0.2579  0.3046
 7753SOL     OW30783   3.971   0.960   3.145  0.1829  0.1774 -0.0747
 7753SOL    HW230784   3.980   0.867   3.165 -1.2821  0.2943  1.3999
 7753SOL    HW330785   3.886   0.984   3.182  1.2668  2.4776  1.1117
 7753SOL    MW430786   3.961   0.951   3.153  0.1326  0.4963  0.2764
 7754SOL     OW30787   1.654   4.923   0.030  0.6426 -0.1474 -0.5352
 7754SOL    HW230788   1.579   4.895  -0.023 -0.6153  0.9557  0.5611
 7754SOL    HW330789   1.691   4.842   0.064 -1.0244 -0.6783  0.1262
 7754SOL    MW430790   1.649   4.909   0.027  0.2567 -0.0719 -0.3033
 7755SOL     OW30791   1.039   1.837   4.132  0.4541  0.3295  0.0410
 7755SOL    HW230792   0.956   1.822   4.177  0.9313 -1.9045  0.2973
 7755SOL    HW330793   1.102   1.856   4.202  0.5710 -0.0943  0.0562
 7755SOL    MW430794   1.037   1.838   4.147  0.5325 -0.0212  0.0768
 7756SOL     OW30795   1.642   1.643   1.047 -0.4745  0.0258 -0.5412
 7756SOL    HW230796   1.694   1.567   1.023 -0.8768 -0.0356 -1.2526
 7756SOL    HW330797   1.551   1.615   1.035 -0.6148  0.8304 -1.5358
 7756SOL    MW430798   1.637   1.629   1.042 -0.5461  0.1238 -0.7663
 7757SOL     OW30799   1.989   4.699   2.603 -0.3069 -0.0245  0.1042
 7757SOL    HW230800   2.008   4.675   2.512 -0.1431 -0.8568  0.3529
 7757SOL    HW330801   1.924   4.769   2.596  0.7791  0.9565 -0.6873
 7757SOL    MW430802   1.983   4.705   2.590 -0.1420 -0.0049  0.0326
 7758SOL     OW30803   0.867   5.509   3.480  0.1033  0.3813  0.0484
 7758SOL    HW230804   0.847   5.569   3.552  0.5847  0.8370 -0.1885
 7758SOL    HW330805   0.830   5.426   3.508 -0.6920  0.8134  0.3292
 7758SOL    MW430806   0.860   5.506   3.494  0.0619  0.4984  0.0542
 7759SOL     OW30807   4.040   4.575   5.234  0.1421 -0.5080  0.0899
 7759SOL    HW230808   4.058   4.591   5.142 -1.7965 -0.3577 -0.3151
 7759SOL    HW330809   4.077   4.651   5.279 -1.2299  0.8165 -0.8933
 7759SOL    MW430810   4.047   4.587   5.228 -0.2947 -0.3134 -0.0932
 7760SOL     OW30811   3.332   0.208   3.710  0.3464  0.0335 -0.3907
 7760SOL    HW230812   3.264   0.253   3.761  0.0959 -0.9019  0.1291
 7760SOL    HW330813   3.369   0.276   3.654 -0.3373  0.7792  0.0388
 7760SOL    MW430814   3.328   0.223   3.709  0.2232  0.0085 -0.2654
 7761SOL     OW30815   5.666   5.745   3.259  0.2796 -0.1831 -0.6771
 7761SOL    HW230816   5.750   5.702   3.274 -0.3055 -0.6407  1.6359
 7761SOL    HW330817   5.677   5.792   3.176  3.6745  1.8351  0.7397
 7761SOL    MW430818   5.678   5.746   3.250  0.6503  0.0228 -0.1850
 7762SOL     OW30819   6.376   6.417   3.365  0.7298  0.1823  0.4606
 7762SOL    HW230820   6.420   6.433   3.448  1.1670 -0.0191  0.2714
 7762SOL    HW330821   6.357   6.323   3.365 -0.2031  0.3614  0.7817
 7762SOL    MW430822   6.379   6.406   3.376  0.6644  0.1793  0.4780
 7763SOL     OW30823   3.093   3.566   3.465  0.2794  0.4973  0.2845
 7763SOL    HW230824   3.098   3.538   3.373 -0.2972  0.0451  0.3810
 7763SOL    HW330825   3.013   3.619   3.469 -0.8753 -1.1968  0.9360
 7763SOL    MW430826   3.083   3.569   3.453  0.0509  0.2141  0.3832
 7764SOL     OW30827   5.495   3.002   3.130  0.0981 -0.2228  0.3086
 7764SOL    HW230828   5.494   3.075   3.192  0.2048 -0.4590  0.5897
 7764SOL    HW330829   5.587   2.976   3.126 -0.1070 -1.1087  1.1129
 7764SOL    MW430830   5.507   3.008   3.138  0.0851 -0.3708  0.4518
 7765SOL     OW30831   2.565   3.796   0.697  0.7373 -0.5280 -0.4175
 7765SOL    HW230832   2.596   3.849   0.623  1.2422  1.2026  0.9857
 7765SOL    HW330833   2.638   3.736   0.716  1.4996  0.5309  0.0638
 7765SOL    MW430834   2.579   3.795   0.689  0.9045 -0.1600 -0.1688
 7766SOL     OW30835   3.369   2.650   3.758 -0.1392  0.3830  0.2095
 7766SOL    HW230836   3.380   2.631   3.851  1.5310  0.9324  0.1653
 7766SOL    HW330837   3.418   2.580   3.714  1.1373  1.4480 -0.1389
 7766SOL    MW430838   3.377   2.638   3.764  0.2496  0.5960  0.1577
 7767SOL     OW30839   4.085   0.769   3.547 -0.4624 -0.1917 -0.2113
 7767SOL    HW230840   4.000   0.748   3.508  0.0299 -0.9908 -0.8671
 7767SOL    HW330841   4.093   0.864   3.537 -0.8795 -0.2310 -0.9624
 7767SOL    MW430842   4.075   0.779   3.540 -0.4525 -0.3023 -0.3969
 7768SOL     OW30843   0.341   4.255   3.337  0.0977 -0.1822 -0.1636
 7768SOL    HW230844   0.337   4.227   3.246 -2.1754 -1.2769  0.1982
 7768SOL    HW330845   0.429   4.230   3.366 -0.2468 -2.8587 -1.1523
 7768SOL    MW430846   0.352   4.248   3.329 -0.2476 -0.6798 -0.2463
 7769SOL     OW30847   0.827   0.608   3.053 -0.2932  0.5464  0.2185
 7769SOL    HW230848   0.836   0.664   2.976  1.5231  1.2681  0.9108
 7769SOL    HW330849   0.749   0.642   3.098 -2.4206 -0.9492 -2.0641
 7769SOL    MW430850   0.818   0.620   3.049 -0.3343  0.4443  0.0087
 7770SOL     OW30851   6.205   0.553   3.001 -0.2265  0.5003  0.6356
 7770SOL    HW230852   6.212   0.560   2.906  0.4591 -0.7437  0.5745
 7770SOL    HW330853   6.133   0.612   3.024  1.4901  3.1179 -0.3129
 7770SOL    MW430854   6.196   0.561   2.992  0.0904  0.6815  0.5024
 7771SOL     OW30855   0.558   4.840   0.738  0.2409  0.3965 -0.2443
 7771SOL    HW230856   0.564   4.888   0.821  1.3095 -0.4765  0.2122
 7771SOL    HW330857   0.566   4.748   0.763  0.3544  0.1097 -1.2928
 7771SOL    MW430858   0.560   4.834   0.752  0.3968  0.2435 -0.3224
 7772SOL     OW30859   3.050   5.156   1.821  0.3976  0.2315  0.2315
 7772SOL    HW230860   2.962   5.193   1.812  0.7031  1.4282  1.8889
 7772SOL    HW330861   3.083   5.190   1.903  2.1922 -0.7222 -0.0378
 7772SOL    MW430862   3.043   5.165   1.830  0.6747  0.2636  0.4146
 7773SOL     OW30863   4.391   0.957   0.398  0.0702  1.0418  0.2765
 7773SOL    HW230864   4.455   0.995   0.458  0.2320  0.6325  0.3670
 7773SOL    HW330865   4.306   0.985   0.433  0.1600  0.7574  0.7333
 7773SOL    MW430866   4.388   0.966   0.411  0.1034  0.9503  0.3487
 7774SOL     OW30867   0.742   1.992   0.432 -0.2278  0.2189  0.0637
 7774SOL    HW230868   0.805   1.958   0.495 -0.1306  0.2725 -0.0045
 7774SOL    HW330869   0.686   2.051   0.483  0.5622  1.1544 -0.1263
 7774SOL    MW430870   0.743   1.996   0.447 -0.1107  0.3494  0.0296
 7775SOL     OW30871   4.313   5.887   0.107 -0.4863 -0.0526 -0.0035
 7775SOL    HW230872   4.310   5.979   0.134  1.9719  0.0693  0.0213
 7775SOL    HW330873   4.280   5.887   0.017 -0.6171  0.8220  0.0350
 7775SOL    MW430874   4.308   5.899   0.099 -0.1792  0.0789  0.0049
 7776SOL     OW30875   2.782   0.150   1.138 -0.0431 -0.1518  0.6186
 7776SOL    HW230876   2.853   0.109   1.186  0.8341  0.0814 -0.4305
 7776SOL    HW330877   2.796   0.244   1.149  0.9942 -0.0465 -1.1532
 7776SOL    MW430878   2.793   0.157   1.146  0.2095 -0.1071  0.2464
 7777SOL     OW30879   0.726   0.321   2.644 -0.6321 -0.0108  0.3169
 7777SOL    HW230880   0.801   0.261   2.634 -0.3780  0.6026 -2.0448
 7777SOL    HW330881   0.722   0.338   2.738 -1.0143 -4.0605  1.2575
 7777SOL    MW430882   0.736   0.315   2.655 -0.6490 -0.4642  0.1294
 7778SOL     OW30883   6.155   5.845   5.935 -0.5520  0.0790  0.2572
 7778SOL    HW230884   6.107   5.763   5.945 -0.3710  0.2335  2.8742
 7778SOL    HW330885   6.089   5.908   5.908 -1.3730 -0.2136  1.5227
 7778SOL    MW430886   6.140   5.842   5.932 -0.6364  0.0608  0.7695
 7779SOL     OW30887   0.231   5.580   0.761 -0.4649 -0.3705  0.1591
 7779SOL    HW230888   0.322   5.601   0.740 -0.3711 -1.6432 -0.8399
 7779SOL    HW330889   0.209   5.638   0.834  0.8295  0.6478 -0.2207
 7779SOL    MW430890   0.240   5.590   0.768 -0.2817 -0.4041 -0.0228
 7780SOL     OW30891   2.781   1.022   2.266 -0.0747  0.3435  0.2100
 7780SOL    HW230892   2.776   1.080   2.190  0.7517 -0.6752 -0.6562
 7780SOL    HW330893   2.756   0.936   2.233 -2.1868  0.3263  1.6889
 7780SOL    MW430894   2.777   1.019   2.252 -0.2443  0.2068  0.2908
 7781SOL     OW30895   6.404   5.460   3.922  0.4537 -0.2725 -0.0284
 7781SOL    HW230896   6.372   5.370   3.926  1.3823 -0.5782  1.2230
 7781SOL    HW330897   6.478   5.456   3.861 -1.1064  0.2279 -2.0925
 7781SOL    MW430898   6.410   5.448   3.914  0.3703 -0.2468 -0.1356
 7782SOL     OW30899   0.675   3.739   4.593  0.3464 -0.7391  0.4296
 7782SOL    HW230900   0.692   3.741   4.499 -2.1894  1.2265 -0.0848
 7782SOL    HW330901   0.652   3.829   4.616 -0.1933 -1.3887  2.7229
 7782SOL    MW430902   0.674   3.751   4.584 -0.0593 -0.5655  0.6643
 7783SOL     OW30903   0.612   4.732   6.093 -0.0459 -0.3965 -0.4493
 7783SOL    HW230904   0.564   4.760   6.015  1.0364 -1.7316 -1.6677
 7783SOL    HW330905   0.642   4.813   6.133  0.9631  0.3183 -2.5044
 7783SOL    MW430906   0.610   4.746   6.088  0.2300 -0.4784 -0.8812
 7784SOL     OW30907   0.791   5.570   3.180 -0.4769  0.0102 -0.0803
 7784SOL    HW230908   0.801   5.538   3.270  0.4149 -1.2168 -0.5898
 7784SOL    HW330909   0.698   5.590   3.172 -1.0640 -2.2355  0.3844
 7784SOL    MW430910   0.780   5.568   3.191 -0.4367 -0.4480 -0.0862
 7785SOL     OW30911   2.195   2.421   1.509  0.3650  0.3260  0.3313
 7785SOL    HW230912   2.122   2.390   1.562  1.7856  1.5502  3.2480
 7785SOL    HW330913   2.250   2.343   1.496 -0.3059 -0.1147  0.0724
 7785SOL    MW430914   2.193   2.406   1.514  0.4639  0.4294  0.6820
 7786SOL     OW30915   4.258   3.248   5.752 -0.7725 -0.2161  0.1028
 7786SOL    HW230916   4.284   3.219   5.840 -2.5787 -0.7827  0.4875
 7786SOL    HW330917   4.319   3.202   5.694  0.5241  0.2439  1.0348
 7786SOL    MW430918   4.270   3.238   5.756 -0.8398 -0.2301  0.2766
 7787SOL     OW30919   5.417   1.959   2.697  0.2554 -0.2883  0.4831
 7787SOL    HW230920   5.508   1.966   2.671 -0.2730 -0.3251 -1.5485
 7787SOL    HW330921   5.417   1.900   2.773  1.8614 -0.5076  0.3355
 7787SOL    MW430922   5.429   1.952   2.704  0.3976 -0.3221  0.1956
 7788SOL     OW30923   3.868   3.795   2.122 -0.3331 -0.0768 -0.3962
 7788SOL    HW230924   3.855   3.833   2.035  1.7299  2.0167  0.1263
 7788SOL    HW330925   3.950   3.746   2.114 -0.9075 -1.1510  0.0253
 7788SOL    MW430926   3.877   3.793   2.109 -0.1367  0.0577 -0.2717
 7789SOL     OW30927   0.877   5.460   5.600  0.1725  0.2385  0.2829
 7789SOL    HW230928   0.853   5.552   5.616 -1.0821  0.1081 -0.7303
 7789SOL    HW330929   0.795   5.412   5.604  0.5353 -0.5548 -1.1430
 7789SOL    MW430930   0.863   5.466   5.603  0.0548  0.1167 -0.0389
 7790SOL     OW30931   1.628   3.275   1.892 -0.5393 -0.8525 -0.3141
 7790SOL    HW230932   1.685   3.295   1.818 -0.9506  1.5050 -0.0802
 7790SOL    HW330933   1.687   3.259   1.965 -0.1555 -1.6473 -0.7884
 7790SOL    MW430934   1.643   3.276   1.892 -0.5429 -0.6463 -0.3458
 7791SOL     OW30935   5.167   0.127   0.371 -0.3809  0.3821 -0.0646
 7791SOL    HW230936   5.105   0.182   0.419 -1.4364  0.5660 -1.5548
 7791SOL    HW330937   5.165   0.043   0.417 -1.8892  0.3387 -0.1341
 7791SOL    MW430938   5.158   0.123   0.383 -0.7191  0.4006 -0.2704
 7792SOL     OW30939   4.835   5.371   2.477 -0.0369  0.3947 -0.5207
 7792SOL    HW230940   4.897   5.444   2.475  0.5823 -0.1224 -1.2953
 7792SOL    HW330941   4.758   5.403   2.430 -0.1107  0.8334 -0.1024
 7792SOL    MW430942   4.833   5.385   2.470  0.0351  0.3844 -0.5677
 7793SOL     OW30943   2.701   1.735   3.021  0.6486  0.6617 -0.0334
 7793SOL    HW230944   2.775   1.737   3.082  1.0223  0.4654 -0.4775
 7793SOL    HW330945   2.734   1.688   2.945  0.1290  0.7598 -0.3219
 7793SOL    MW430946   2.715   1.729   3.019  0.6294  0.6487 -0.1300
 7794SOL     OW30947   6.000   2.479   3.734 -0.3346 -0.2462  0.4473
 7794SOL    HW230948   5.916   2.450   3.700  0.6189 -1.8359 -0.7252
 7794SOL    HW330949   6.030   2.406   3.788  0.5150  0.0796  0.4333
 7794SOL    MW430950   5.993   2.465   3.736 -0.0967 -0.4129  0.2908
 7795SOL     OW30951   2.755   0.421   4.437  0.5244  0.3245 -0.5836
 7795SOL    HW230952   2.850   0.433   4.444  0.7567 -1.5610 -0.0296
 7795SOL    HW330953   2.739   0.336   4.477 -1.2562  0.0263 -1.8551
 7795SOL    MW430954   2.766   0.412   4.443  0.3201  0.0364 -0.6783
 7796SOL     OW30955   3.096   3.134   1.354  0.6707 -0.2638 -0.4930
 7796SOL    HW230956   3.105   3.221   1.315 -1.5612  0.9746  1.4902
 7796SOL    HW330957   3.045   3.085   1.290  0.0672  0.5987 -0.6888
 7796SOL    MW430958   3.090   3.139   1.340  0.2966  0.0134 -0.2572
 7797SOL     OW30959   1.669   6.297   1.206  0.6815 -0.0387 -0.6864
 7797SOL    HW230960   1.734   6.334   1.146  0.8715  0.8260  0.0167
 7797SOL    HW330961   1.666   6.204   1.184  2.2451 -0.1306 -0.6738
 7797SOL    MW430962   1.677   6.290   1.195  0.9129  0.0633 -0.5920
 7798SOL     OW30963   4.125   3.510   3.665  0.0336  0.3647 -0.6085
 7798SOL    HW230964   4.046   3.488   3.615  0.3271  1.0536 -1.4072
 7798SOL    HW330965   4.189   3.534   3.598  1.2967 -1.2933 -0.0356
 7798SOL    MW430966   4.123   3.510   3.649  0.2390  0.2369 -0.6383
 7799SOL     OW30967   6.191   2.878   4.412  0.0794  0.0089 -0.2876
 7799SOL    HW230968   6.139   2.899   4.490  0.3444  0.8183 -0.3239
 7799SOL    HW330969   6.232   2.960   4.387  2.0009 -0.7463  0.1745
 7799SOL    MW430970   6.189   2.891   4.419  0.3679  0.0161 -0.2314
 7800SOL     OW30971   0.439   3.151   0.411 -0.1835  0.2824  0.0003
 7800SOL    HW230972   0.449   3.080   0.347  2.9027  0.4842  0.0764
 7800SOL    HW330973   0.467   3.229   0.364  1.5158  0.5408  1.3429
 7800SOL    MW430974   0.444   3.152   0.397  0.4479  0.3431  0.1874
 7801SOL     OW30975   1.038   5.281   3.781 -0.0877 -0.1644 -0.0069
 7801SOL    HW230976   1.114   5.225   3.801  0.3080  0.3584 -0.0185
 7801SOL    HW330977   0.963   5.234   3.817  0.1303 -1.0991 -0.7270
 7801SOL    MW430978   1.038   5.268   3.788 -0.0067 -0.2187 -0.1034
 7802SOL     OW30979   2.453   4.903   3.617 -0.0018 -0.4628 -0.7934
 7802SOL    HW230980   2.439   4.876   3.708  0.8628  0.9288 -0.2114
 7802SOL    HW330981   2.370   4.946   3.592  0.4877  1.1052  0.1159
 7802SOL    MW430982   2.440   4.905   3.626  0.1769 -0.0723 -0.5966
 7803SOL     OW30983   4.104   4.120   2.449  0.4401 -0.1656  0.6409
 7803SOL    HW230984   4.126   4.071   2.370  0.4735  2.1250 -0.8637
 7803SOL    HW330985   4.188   4.140   2.490  0.6230  0.8117 -0.1706
 7803SOL    MW430986   4.118   4.117   2.444  0.4686  0.2656  0.3353
 7804SOL     OW30987   3.270   0.373   5.239  0.0511 -0.6285  0.3168
 7804SOL    HW230988   3.234   0.386   5.151  1.4384 -0.6407 -0.2778
 7804SOL    HW330989   3.237   0.287   5.265 -0.1545 -0.7476 -0.3004
 7804SOL    MW430990   3.261   0.363   5.231  0.2070 -0.6459  0.1569
 7805SOL     OW30991   1.322   6.389   2.967 -0.8304 -0.2684  0.2113
 7805SOL    HW230992   1.255   6.440   2.922 -0.9422 -1.4684 -1.0358
 7805SOL    HW330993   1.275   6.347   3.039 -1.2450 -0.4702 -0.1735
 7805SOL    MW430994   1.307   6.390   2.971 -0.8998 -0.4534 -0.0040
 7806SOL     OW30995   1.360   2.100   4.000 -0.0069 -0.9634 -0.3639
 7806SOL    HW230996   1.393   2.189   3.986  1.1888 -1.4763 -0.9606
 7806SOL    HW330997   1.277   2.112   4.046  0.3716  0.4382 -0.0037
 7806SOL    MW430998   1.353   2.114   4.004  0.2008 -0.8461 -0.3951
 7807SOL     OW30999   4.355   2.418   6.245  0.3334 -0.4089  0.0942
 7807SOL    HW231000   4.322   2.505   6.224 -0.8796 -0.9590 -0.3359
 7807SOL    HW331001   4.351   2.369   6.163 -1.2559 -1.5668  0.8176
 7807SOL    MW431002   4.350   2.423   6.232 -0.0363 -0.6342  0.1329
 7808SOL     OW31003   4.331   0.815   2.791 -0.5060  0.0843 -0.3048
 7808SOL    HW231004   4.348   0.859   2.708 -0.5708  1.8991  0.5836
 7808SOL    HW331005   4.274   0.876   2.839 -2.3635 -1.9345  0.2066
 7808SOL    MW431006   4.326   0.829   2.786 -0.7596  0.0574 -0.1201
 7809SOL     OW31007   5.866   0.113   3.396 -0.3351 -0.4557 -0.1553
 7809SOL    HW231008   5.960   0.129   3.390  0.0011 -1.3536  1.9054
 7809SOL    HW331009   5.858   0.018   3.390 -0.9938 -0.4686  0.8299
 7809SOL    MW431010   5.877   0.103   3.394 -0.3777 -0.5758  0.2466
 7810SOL     OW31011   0.116   3.968   3.069  0.4560  0.3718  0.0487
 7810SOL    HW231012   0.185   4.034   3.063 -1.7427  2.6934 -3.3693
 7810SOL    HW331013   0.134   3.907   2.997  0.2698 -0.4446  0.6743
 7810SOL    MW431014   0.127   3.968   3.058  0.1413  0.5704 -0.3197
 7811SOL     OW31015   1.526   3.225   6.310 -0.3270  0.2388  0.2283
 7811SOL    HW231016   1.604   3.205   6.258  0.5640 -0.2822  1.7162
 7811SOL    HW331017   1.561   3.266   6.390 -1.6567  0.9421  0.4688
 7811SOL    MW431018   1.541   3.228   6.314 -0.3849  0.2628  0.4564
 7812SOL     OW31019   4.406   6.152   0.522  0.4997 -0.2201  0.0405
 7812SOL    HW231020   4.459   6.211   0.469  0.6965 -0.2925  0.1564
 7812SOL    HW331021   4.385   6.202   0.601 -0.6996  0.2805 -0.5679
 7812SOL    MW431022   4.410   6.167   0.526  0.3674 -0.1636 -0.0245
 7813SOL     OW31023   1.262   3.607   2.629 -0.2541  0.4149  0.3981
 7813SOL    HW231024   1.211   3.616   2.548  0.2161 -0.3648  0.0026
 7813SOL    HW331025   1.204   3.641   2.697 -0.1609  2.3174 -0.4031
 7813SOL    MW431026   1.247   3.613   2.627 -0.1798  0.5630  0.2402
 7814SOL     OW31027   5.417   4.706   4.600 -0.0712  0.5468  0.1798
 7814SOL    HW231028   5.461   4.630   4.639 -3.9255 -1.2774  1.4747
 7814SOL    HW331029   5.367   4.745   4.672  0.0005  2.9556 -0.9914
 7814SOL    MW431030   5.416   4.701   4.615 -0.5703  0.6239  0.1961
 7815SOL     OW31031   0.908   3.909   6.292  0.3864 -0.7877 -0.4779
 7815SOL    HW231032   0.881   3.996   6.260  0.6080  0.1552  1.7200
 7815SOL    HW331033   0.998   3.899   6.261  0.9907  0.5897  0.6940
 7815SOL    MW431034   0.916   3.919   6.284  0.4954 -0.4815 -0.0333
 7816SOL     OW31035   6.135   5.793   0.371 -0.8818 -0.4096  0.1422
 7816SOL    HW231036   6.118   5.699   0.364  0.2354 -0.6380  0.3670
 7816SOL    HW331037   6.141   5.810   0.464 -1.5837 -0.0095  0.1209
 7816SOL    MW431038   6.134   5.783   0.382 -0.8270 -0.3870  0.1690
 7817SOL     OW31039   0.705   6.411   5.486 -0.2201 -0.4319 -0.3294
 7817SOL    HW231040   0.615   6.383   5.505 -0.4321 -0.0514 -0.7435
 7817SOL    HW331041   0.741   6.340   5.432 -0.8053  0.1347 -1.5101
 7817SOL    MW431042   0.698   6.398   5.481 -0.3253 -0.3069 -0.5398
 7818SOL     OW31043   3.623   5.217   2.321  0.0426  0.6482  0.2325
 7818SOL    HW231044   3.571   5.280   2.272 -2.0023 -1.8375 -1.0475
 7818SOL    HW331045   3.570   5.137   2.322  2.1664 -0.9094  2.3184
 7818SOL    MW431046   3.609   5.215   2.315  0.0530  0.1148  0.3388
 7819SOL     OW31047   0.974   3.795   3.666  0.3341 -0.5899 -0.1280
 7819SOL    HW231048   0.992   3.806   3.573 -0.4250 -0.9966 -0.3283
 7819SOL    HW331049   0.944   3.704   3.674 -0.2806 -0.3442  0.4056
 7819SOL    MW431050   0.973   3.784   3.655  0.1528 -0.6112 -0.0840
 7820SOL     OW31051   2.335   1.394   5.890  0.4654 -0.7232 -0.5223
 7820SOL    HW231052   2.281   1.432   5.959 -0.3060 -3.4521  0.4935
 7820SOL    HW331053   2.277   1.388   5.814  1.4651  2.7948 -1.7811
 7820SOL    MW431054   2.320   1.398   5.889  0.4956 -0.6191 -0.5544
 7821SOL     OW31055   4.423   0.686   0.290 -0.0460 -0.1546  0.1765
 7821SOL    HW231056   4.432   0.765   0.344  1.5292  0.4585 -0.9093
 7821SOL    HW331057   4.418   0.718   0.200  2.2826 -1.2696 -0.4428
 7821SOL    MW431058   4.423   0.701   0.285  0.4691 -0.2208 -0.0485
 7822SOL     OW31059   5.516   1.236   3.426 -0.0682 -0.5867  0.2019
 7822SOL    HW231060   5.595   1.272   3.385  0.1051 -1.2389 -0.0642
 7822SOL    HW331061   5.495   1.159   3.373 -0.1811 -1.1108  0.9858
 7822SOL    MW431062   5.524   1.230   3.414 -0.0602 -0.7419  0.2702
 7823SOL     OW31063   2.731   4.328   1.242  0.0794 -0.1469 -0.6447
 7823SOL    HW231064   2.800   4.312   1.306  0.2380  0.6097 -0.6109
 7823SOL    HW331065   2.689   4.243   1.229  1.6857 -0.8475 -1.4742
 7823SOL    MW431066   2.734   4.315   1.249  0.3123 -0.1395 -0.7497
 7824SOL     OW31067   1.643   3.926   4.176 -0.2468 -0.4499 -0.5706
 7824SOL    HW231068   1.689   3.905   4.258  0.6280  0.7698 -0.7194
 7824SOL    HW331069   1.713   3.953   4.116 -1.0729  0.7167 -1.0393
 7824SOL    MW431070   1.659   3.927   4.179 -0.2404 -0.1350 -0.6521
 7825SOL     OW31071   0.253   5.732   5.235  0.2708  0.0818  0.1484
 7825SOL    HW231072   0.300   5.776   5.163 -1.0755 -0.1156 -0.9003
 7825SOL    HW331073   0.321   5.689   5.286  1.3008  0.5196 -0.8158
 7825SOL    MW431074   0.268   5.732   5.232  0.2291  0.1135 -0.1172
 7826SOL     OW31075   3.193   6.386   3.438  0.1813 -0.2453 -0.3450
 7826SOL    HW231076   3.218   6.461   3.384 -0.6547 -0.0957 -0.5363
 7826SOL    HW331077   3.099   6.375   3.423 -0.4578  0.8127  2.3471
 7826SOL    MW431078   3.184   6.394   3.429 -0.0133 -0.0860 -0.0151
 7827SOL     OW31079   3.472   2.971   0.375  0.5112 -0.6869 -0.0688
 7827SOL    HW231080   3.500   2.943   0.463  1.7164 -0.5878 -0.4029
 7827SOL    HW331081   3.520   2.913   0.316 -0.5035 -0.9320 -0.6749
 7827SOL    MW431082   3.482   2.959   0.379  0.5364 -0.7061 -0.1929
 7828SOL     OW31083   1.257   2.686   6.243 -0.0260  0.3159  0.5577
 7828SOL    HW231084   1.196   2.686   6.168  0.3764  0.7910  0.2256
 7828SOL    HW331085   1.338   2.723   6.208  0.3704 -0.0606  1.0712
 7828SOL    MW431086   1.259   2.691   6.228  0.0794  0.3289  0.5816
 7829SOL     OW31087   4.335   3.215   0.356  0.4294 -0.3067  0.1697
 7829SOL    HW231088   4.335   3.139   0.415  1.5845 -0.9605 -0.6366
 7829SOL    HW331089   4.334   3.290   0.415 -1.1421 -0.9135  0.9896
 7829SOL    MW431090   4.335   3.215   0.372  0.3745 -0.4730  0.1715
 7830SOL     OW31091   3.741   0.540   4.099 -0.5820  0.0024 -0.3457
 7830SOL    HW231092   3.699   0.594   4.032 -1.4116  0.1542  0.2823
 7830SOL    HW331093   3.835   0.551   4.083 -0.7597  0.7127 -0.9467
 7830SOL    MW431094   3.748   0.549   4.088 -0.7149  0.1161 -0.3421
 7831SOL     OW31095   5.230   1.932   0.058  0.1579  0.0428  0.4530
 7831SOL    HW231096   5.280   1.871   0.111  0.9232 -0.4832 -0.8243
 7831SOL    HW331097   5.238   2.016   0.103  3.7884  0.4333 -0.5799
 7831SOL    MW431098   5.237   1.935   0.071  0.7378  0.0249  0.1482
 7832SOL     OW31099   0.485   0.006   2.205 -0.1447  0.0082 -0.0608
 7832SOL    HW231100   0.499   0.089   2.251  0.3784  0.9240 -1.7978
 7832SOL    HW331101   0.573  -0.027   2.187 -0.3468 -1.1021  0.8739
 7832SOL    MW431102   0.498   0.012   2.209 -0.1023 -0.0175 -0.1667
 7833SOL     OW31103   0.007   0.409   1.272 -0.6083 -0.1516  0.8262
 7833SOL    HW231104  -0.039   0.375   1.195  0.4924 -0.2455  0.1982
 7833SOL    HW331105   0.028   0.500   1.250  0.4605 -0.4270  0.6515
 7833SOL    MW431106   0.003   0.416   1.259 -0.3220 -0.2004  0.7203
 7834SOL     OW31107   2.282   3.540   4.304  0.4348  0.0854  0.5961
 7834SOL    HW231108   2.223   3.557   4.378  1.1988  0.9125  1.0265
 7834SOL    HW331109   2.368   3.526   4.345  0.1983 -3.6372  0.2372
 7834SOL    MW431110   2.285   3.540   4.319  0.5044 -0.2966  0.6055
 7835SOL     OW31111   5.284   3.171   1.427  0.1834  0.1773  0.7212
 7835SOL    HW231112   5.361   3.202   1.475  1.8133 -1.0520 -0.9535
 7835SOL    HW331113   5.313   3.168   1.336 -1.6995 -0.8339  0.1095
 7835SOL    MW431114   5.298   3.175   1.421  0.1500 -0.1183  0.4195
 7836SOL     OW31115   1.616   3.971   1.914  0.3643 -0.6259  0.1112
 7836SOL    HW231116   1.523   3.964   1.893 -0.1172 -0.1838  1.8728
 7836SOL    HW331117   1.658   3.902   1.863 -0.9130 -0.7557 -0.7983
 7836SOL    MW431118   1.610   3.961   1.905  0.1322 -0.5847  0.2236
 7837SOL     OW31119   6.057   5.391   6.188 -0.3166 -0.1421 -0.4930
 7837SOL    HW231120   6.117   5.318   6.200  0.7314  0.6632 -0.7009
 7837SOL    HW331121   5.973   5.350   6.169 -0.1205 -1.3091  1.0217
 7837SOL    MW431122   6.054   5.376   6.187 -0.1524 -0.1898 -0.3205
 7838SOL     OW31123   1.481   4.563   4.408 -0.1021 -0.5392  0.3920
 7838SOL    HW231124   1.552   4.540   4.467  1.2963 -0.2318 -1.0828
 7838SOL    HW331125   1.494   4.656   4.389  0.2447 -0.9130 -1.3414
 7838SOL    MW431126   1.492   4.572   4.413  0.1282 -0.5480 -0.0313
 7839SOL     OW31127   1.470   2.742   6.070  0.1374 -0.3994 -0.2614
 7839SOL    HW231128   1.566   2.734   6.070  0.1041 -1.3450  1.1953
 7839SOL    HW331129   1.440   2.659   6.034 -0.1411 -0.1802 -0.5327
 7839SOL    MW431130   1.479   2.730   6.065  0.0962 -0.4953 -0.1050
 7840SOL     OW31131   3.708   3.319   5.012 -0.1371  0.1187 -0.6284
 7840SOL    HW231132   3.657   3.274   5.079  0.0326 -1.2828 -1.3955
 7840SOL    HW331133   3.693   3.412   5.028 -0.0166 -0.1785  1.3905
 7840SOL    MW431134   3.700   3.325   5.023 -0.0988 -0.1054 -0.4632
 7841SOL     OW31135   2.674   5.662   3.349  0.2651 -0.3385  0.4077
 7841SOL    HW231136   2.766   5.684   3.335  0.0674  0.1034 -0.2244
 7841SOL    HW331137   2.671   5.628   3.439  0.9083  0.3765  0.7129
 7841SOL    MW431138   2.686   5.660   3.359  0.3239 -0.1859  0.3646
 7842SOL     OW31139   2.197   6.220   1.279  0.2528 -0.4872 -0.5490
 7842SOL    HW231140   2.171   6.258   1.363 -0.3594 -3.2815  0.6443
 7842SOL    HW331141   2.266   6.157   1.302  1.4716  0.0807 -2.4331
 7842SOL    MW431142   2.203   6.217   1.293  0.3328 -0.7809 -0.6401
 7843SOL     OW31143   5.640   4.628   2.871 -0.0234 -0.2482  0.0698
 7843SOL    HW231144   5.650   4.535   2.852  0.4359 -0.9253  3.0835
 7843SOL    HW331145   5.569   4.632   2.935 -0.3728  1.5412 -0.3705
 7843SOL    MW431146   5.632   4.617   2.877 -0.0089 -0.1014  0.4093
 7844SOL     OW31147   2.347   5.526   2.829 -0.4777 -0.4952  0.0995
 7844SOL    HW231148   2.346   5.510   2.734  1.1426  0.2239 -0.0655
 7844SOL    HW331149   2.360   5.439   2.867  0.5760 -0.5799 -0.4292
 7844SOL    MW431150   2.348   5.512   2.821 -0.1249 -0.4115  0.0080
 7845SOL     OW31151   3.242   2.577   1.096 -0.0758  0.2423  0.3218
 7845SOL    HW231152   3.249   2.520   1.019  1.1395 -1.9083  1.9162
 7845SOL    HW331153   3.223   2.663   1.060  0.1960 -0.7235 -2.3668
 7845SOL    MW431154   3.240   2.581   1.081  0.1204 -0.1689  0.1775
 7846SOL     OW31155   3.679   4.311   2.329  0.5038 -0.1870 -0.7001
 7846SOL    HW231156   3.723   4.258   2.395 -1.9103 -0.8834  0.4860
 7846SOL    HW331157   3.611   4.253   2.293  0.9457  0.5783 -2.9382
 7846SOL    MW431158   3.676   4.296   2.333  0.2436 -0.1779 -0.8389
 7847SOL     OW31159   2.830   1.637   0.528  0.2539  0.2777  0.0006
 7847SOL    HW231160   2.737   1.647   0.511  0.0377  1.1597  1.5427
 7847SOL    HW331161   2.858   1.565   0.471 -1.7977 -1.4769  1.0848
 7847SOL    MW431162   2.822   1.629   0.518 -0.0453  0.1626  0.3471
 7848SOL     OW31163   5.056   3.544   1.939 -0.3115  0.1104 -0.3161
 7848SOL    HW231164   4.968   3.506   1.941 -0.3707  0.2604  0.5108
 7848SOL    HW331165   5.079   3.555   2.031  1.4679 -1.9519 -0.4295
 7848SOL    MW431166   5.047   3.541   1.951 -0.0845 -0.1419 -0.2219
 7849SOL     OW31167   2.899   5.387   3.938  0.0725 -0.3133  0.2549
 7849SOL    HW231168   2.841   5.383   3.862  1.5710 -0.9781 -0.9087
 7849SOL    HW331169   2.984   5.359   3.904  1.9614  3.7134  1.0872
 7849SOL    MW431170   2.903   5.383   3.923  0.5194  0.1303  0.2112
 7850SOL     OW31171   3.659   4.018   4.404  0.1713 -0.1647 -0.4367
 7850SOL    HW231172   3.589   4.064   4.358 -0.9433 -2.1819 -0.8558
 7850SOL    HW331173   3.738   4.037   4.353 -0.3908  0.5786 -1.0639
 7850SOL    MW431174   3.660   4.027   4.391 -0.0499 -0.3328 -0.5747
 7851SOL     OW31175   2.241   4.902   2.026  0.1265 -0.4669  0.3060
 7851SOL    HW231176   2.327   4.910   2.067  1.0663 -1.5444 -1.3422
 7851SOL    HW331177   2.246   4.956   1.947 -0.6784 -0.6111  0.1479
 7851SOL    MW431178   2.253   4.910   2.021  0.1443 -0.6281  0.0677
 7852SOL     OW31179   0.074   1.108   4.113  0.3182  0.0405 -0.3712
 7852SOL    HW231180   0.007   1.145   4.056 -0.8458  0.5179  1.2532
 7852SOL    HW331181   0.047   1.017   4.127  0.9059 -0.2398 -1.0068
 7852SOL    MW431182   0.062   1.101   4.107  0.2421  0.0665 -0.2408
 7853SOL     OW31183   5.556   1.966   0.042 -0.2335 -0.2728 -0.0907
 7853SOL    HW231184   5.485   2.001  -0.012  1.4563  0.0045 -2.3017
 7853SOL    HW331185   5.571   2.034   0.108 -1.6266 -0.0862  0.0670
 7853SOL    MW431186   5.549   1.980   0.043 -0.1944 -0.2116 -0.3616
 7854SOL     OW31187   2.795   3.561   1.387  0.1132 -0.0310  0.2317
 7854SOL    HW231188   2.891   3.558   1.391  0.2133 -2.2685 -1.7279
 7854SOL    HW331189   2.776   3.612   1.309 -0.1347 -2.1566 -1.1759
 7854SOL    MW431190   2.806   3.567   1.377  0.0937 -0.6066 -0.2125
 7855SOL     OW31191   1.451   1.374   4.137 -0.9137 -0.1933 -0.2391
 7855SOL    HW231192   1.546   1.366   4.135 -0.6798  1.4583 -3.6790
 7855SOL    HW331193   1.432   1.421   4.219  1.2654 -0.1137  0.2702
 7855SOL    MW431194   1.461   1.379   4.147 -0.5953  0.0351 -0.6258
 7856SOL     OW31195   4.635   4.166   6.242 -0.1570  0.6197 -0.1126
 7856SOL    HW231196   4.698   4.230   6.276  1.7002  0.5709 -3.1458
 7856SOL    HW331197   4.553   4.188   6.287  1.2178  2.7993  1.5742
 7856SOL    MW431198   4.633   4.177   6.253  0.2694  0.9008 -0.2903
 7857SOL     OW31199   3.965   5.052   5.829 -0.3426  0.0163  0.4460
 7857SOL    HW231200   3.879   5.092   5.843  0.6966  3.0747 -1.0412
 7857SOL    HW331201   4.022   5.096   5.891  0.7991  0.6871 -1.0155
 7857SOL    MW431202   3.961   5.063   5.839 -0.0548  0.5083  0.0570
 7858SOL     OW31203   0.145   5.265   4.194 -0.2179  0.3017  0.0844
 7858SOL    HW231204   0.167   5.242   4.104 -0.6613 -0.4397  0.1603
 7858SOL    HW331205   0.060   5.308   4.188 -0.9586 -1.0649  0.2839
 7858SOL    MW431206   0.137   5.267   4.181 -0.3741  0.0236  0.1208
 7859SOL     OW31207   1.300   2.596   2.147 -0.0431  0.0943  0.0216
 7859SOL    HW231208   1.308   2.684   2.110  3.2757  1.2142  2.8524
 7859SOL    HW331209   1.246   2.608   2.226 -0.2812 -0.6026 -0.0278
 7859SOL    MW431210   1.294   2.609   2.153  0.3634  0.1501  0.3886
 7860SOL     OW31211   0.340   4.755   1.040 -0.4974  0.1260 -0.0089
 7860SOL    HW231212   0.429   4.732   1.066 -1.0420 -0.8445  1.0755
 7860SOL    HW331213   0.315   4.827   1.097 -1.6602 -1.9457  2.2961
 7860SOL    MW431214   0.348   4.761   1.051 -0.7227 -0.2754  0.4383
 7861SOL     OW31215   2.452   6.050   5.141 -0.5603 -0.1888  0.2493
 7861SOL    HW231216   2.477   5.959   5.160  0.7411  0.3727  1.3365
 7861SOL    HW331217   2.357   6.046   5.129 -0.3083 -2.0287 -1.8079
 7861SOL    MW431218   2.443   6.037   5.142 -0.3553 -0.3575  0.1213
 7862SOL     OW31219   1.794   2.665   4.096  0.1501  0.0898 -0.3694
 7862SOL    HW231220   1.707   2.625   4.096  0.7768 -1.3600 -1.1033
 7862SOL    HW331221   1.815   2.676   4.189 -0.7988  0.4229 -0.1894
 7862SOL    MW431222   1.785   2.661   4.109  0.1076 -0.0575 -0.4425
 7863SOL     OW31223   0.312   0.877   0.763 -0.2640 -0.2161 -0.1673
 7863SOL    HW231224   0.240   0.815   0.757 -0.0767 -0.5515  0.8292
 7863SOL    HW331225   0.282   0.942   0.827 -0.2211  0.3966 -0.7611
 7863SOL    MW431226   0.299   0.878   0.771 -0.2336 -0.1795 -0.1142
 7864SOL     OW31227   1.089   2.321   2.318 -0.5061  0.3207  0.1636
 7864SOL    HW231228   1.177   2.285   2.326 -0.1841  0.9087 -0.5847
 7864SOL    HW331229   1.038   2.276   2.385  0.1279 -0.7499 -0.0492
 7864SOL    MW431230   1.094   2.310   2.328 -0.3800  0.2571  0.0368
 7865SOL     OW31231   6.368   4.505   1.762  0.2906 -0.1477 -0.8980
 7865SOL    HW231232   6.411   4.506   1.848 -0.9587  0.9261 -0.2311
 7865SOL    HW331233   6.390   4.589   1.723 -1.4610  0.6244 -0.3517
 7865SOL    MW431234   6.376   4.516   1.769 -0.1054  0.0959 -0.7379
 7866SOL     OW31235   3.314   1.129   4.692 -0.2719  0.4910 -0.0603
 7866SOL    HW231236   3.346   1.127   4.602 -0.9336 -0.5844 -0.2952
 7866SOL    HW331237   3.259   1.207   4.697  0.7698  1.2550 -0.2102
 7866SOL    MW431238   3.311   1.139   4.681 -0.2218  0.4499 -0.1111
 7867SOL     OW31239   5.541   5.298   4.299 -0.4013 -0.1466 -0.0542
 7867SOL    HW231240   5.564   5.302   4.392 -0.2744 -0.5308 -0.0674
 7867SOL    HW331241   5.582   5.375   4.261 -0.2957 -0.0898  0.1738
 7867SOL    MW431242   5.549   5.309   4.306 -0.3706 -0.1898 -0.0259
 7868SOL     OW31243   2.815   4.256   5.817 -0.3696  0.1822 -0.2852
 7868SOL    HW231244   2.747   4.280   5.754 -1.2411 -0.9331  0.2027
 7868SOL    HW331245   2.771   4.255   5.901  0.9201  2.2793  0.4917
 7868SOL    MW431246   2.801   4.259   5.819 -0.3145  0.3117 -0.1183
 7869SOL     OW31247   5.494   3.627   4.642  0.2976 -0.0370 -0.1884
 7869SOL    HW231248   5.484   3.677   4.561 -0.8479 -0.3265 -0.2337
 7869SOL    HW331249   5.561   3.561   4.621 -1.3345 -1.3482 -1.5328
 7869SOL    MW431250   5.502   3.625   4.628 -0.0689 -0.2482 -0.3718
 7870SOL     OW31251   2.078   3.460   3.105  0.5063 -0.2069  0.3469
 7870SOL    HW231252   2.063   3.429   3.195  0.1187 -0.2864  0.2565
 7870SOL    HW331253   2.085   3.555   3.114  3.5778 -0.3992  0.8888
 7870SOL    MW431254   2.077   3.468   3.118  0.8604 -0.2427  0.4065
 7871SOL     OW31255   1.055   1.695   6.191 -0.1200 -0.4181 -0.3575
 7871SOL    HW231256   1.083   1.766   6.249 -0.2779  1.4290 -2.4114
 7871SOL    HW331257   1.122   1.627   6.202 -0.5601 -0.5138  2.5063
 7871SOL    MW431258   1.068   1.695   6.200 -0.1989 -0.1870 -0.2506
 7872SOL     OW31259   2.154   0.211   4.672 -0.1024  0.5619  0.4312
 7872SOL    HW231260   2.224   0.155   4.641  1.9804  1.9512  2.3248
 7872SOL    HW331261   2.181   0.300   4.648 -1.9579  1.0523 -0.0737
 7872SOL    MW431262   2.167   0.216   4.664 -0.0724  0.8099  0.6144
 7873SOL     OW31263   4.193   1.713   4.459 -0.0018  0.7598 -0.1378
 7873SOL    HW231264   4.100   1.728   4.477  0.0288 -0.6224  1.4657
 7873SOL    HW331265   4.236   1.722   4.544  1.3989  1.6085 -0.8945
 7873SOL    MW431266   4.186   1.716   4.472  0.1870  0.6894 -0.0261
 7874SOL     OW31267   4.351   1.464   5.899 -0.3825 -0.3636  0.3381
 7874SOL    HW231268   4.272   1.482   5.951 -1.2262  0.8614 -1.3005
 7874SOL    HW331269   4.330   1.385   5.850 -0.1048 -0.7404  0.8175
 7874SOL    MW431270   4.338   1.456   5.900 -0.4572 -0.2517  0.1852
 7875SOL     OW31271   6.354   6.246   2.640 -0.0356  0.5465  0.2574
 7875SOL    HW231272   6.314   6.169   2.681  0.7962 -0.0803 -0.0658
 7875SOL    HW331273   6.383   6.300   2.714 -0.2173  0.3278  0.4911
 7875SOL    MW431274   6.352   6.243   2.655  0.0502  0.4350  0.2456
 7876SOL     OW31275   1.324   2.978   6.076 -0.4140  0.3689 -0.4749
 7876SOL    HW231276   1.368   2.895   6.061 -1.0762 -0.0538 -0.0981
 7876SOL    HW331277   1.266   2.988   6.000  0.2730  0.9052 -0.9491
 7876SOL    MW431278   1.322   2.969   6.064 -0.4107  0.3839 -0.4877
 7877SOL     OW31279   6.398   1.831   4.195  0.4718 -0.0792 -0.1806
 7877SOL    HW231280   6.331   1.896   4.217 -0.0772 -0.9852  0.9926
 7877SOL    HW331281   6.451   1.872   4.127 -0.8585  0.9357 -0.6455
 7877SOL    MW431282   6.396   1.845   4.189  0.2239 -0.0649 -0.0871
 7878SOL     OW31283   1.344   5.370   0.680 -0.5200  0.3346 -0.3461
 7878SOL    HW231284   1.371   5.279   0.670 -0.2479 -0.0503  2.8287
 7878SOL    HW331285   1.248   5.367   0.680 -0.5191  0.2194 -1.3254
 7878SOL    MW431286   1.335   5.358   0.679 -0.4840  0.2686 -0.0565
 7879SOL     OW31287   5.205   1.930   1.980 -0.0783  0.2268  0.5678
 7879SOL    HW231288   5.111   1.909   1.984  0.0382 -0.7356 -0.9470
 7879SOL    HW331289   5.211   1.997   1.913  0.2571  0.7956  1.1589
 7879SOL    MW431290   5.193   1.936   1.972 -0.0187  0.1749  0.4460
 7880SOL     OW31291   1.944   5.037   0.633  0.1400  0.3827 -0.5117
 7880SOL    HW231292   2.023   4.998   0.670 -0.7369  0.3292  1.4206
 7880SOL    HW331293   1.976   5.104   0.572  1.6467 -1.0972 -1.4035
 7880SOL    MW431294   1.958   5.041   0.630  0.2231  0.1804 -0.3744
 7881SOL     OW31295   5.312   2.059   4.467  0.3656  0.2460 -0.1001
 7881SOL    HW231296   5.326   2.148   4.501 -0.0856  0.3156 -0.0884
 7881SOL    HW331297   5.306   2.004   4.545  1.4222  0.0777 -0.1225
 7881SOL    MW431298   5.313   2.064   4.482  0.4455  0.2330 -0.1015
 7882SOL     OW31299   2.026   1.925   2.732  0.0936  0.2730  0.2101
 7882SOL    HW231300   2.064   2.011   2.715 -1.1464  0.6882 -0.5565
 7882SOL    HW331301   2.026   1.917   2.828 -0.1634  1.2941  0.3030
 7882SOL    MW431302   2.031   1.935   2.743 -0.1039  0.4625  0.1212
 7883SOL     OW31303   0.412   1.898   6.305 -0.1433  0.3859  0.2857
 7883SOL    HW231304   0.392   1.929   6.217 -0.0280 -2.1984 -0.7324
 7883SOL    HW331305   0.458   1.971   6.346  1.1960  1.1287 -2.3138
 7883SOL    MW431306   0.415   1.911   6.299  0.0487  0.1429 -0.1916
 7884SOL     OW31307   2.685   5.735   3.791  0.0723 -0.3564 -0.0552
 7884SOL    HW231308   2.613   5.799   3.786 -0.1079 -0.5021  0.6150
 7884SOL    HW331309   2.654   5.661   3.739 -0.2008 -0.3597  0.1074
 7884SOL    MW431310   2.671   5.734   3.783  0.0125 -0.3760  0.0547
 7885SOL     OW31311   0.774   2.857   3.478 -0.4285  0.3309 -0.2269
 7885SOL    HW231312   0.805   2.926   3.420 -0.4104 -0.4600 -1.1904
 7885SOL    HW331313   0.847   2.839   3.537 -1.5591  3.5679  2.5039
 7885SOL    MW431314   0.787   2.864   3.478 -0.5753  0.6536  0.0063
 7886SOL     OW31315   2.058   2.944   0.215 -0.2168 -0.2346 -0.2042
 7886SOL    HW231316   2.049   2.860   0.170 -0.3644 -0.3073 -0.0387
 7886SOL    HW331317   2.142   2.938   0.260  0.5175  0.2956 -1.4300
 7886SOL    MW431318   2.068   2.932   0.215 -0.1394 -0.1742 -0.3441
 7887SOL     OW31319   1.528   2.632   2.653  0.6493 -0.6217  0.4282
 7887SOL    HW231320   1.569   2.555   2.613  0.9660 -0.3073  0.1447
 7887SOL    HW331321   1.551   2.626   2.746 -0.2596 -1.4639  0.6237
 7887SOL    MW431322   1.536   2.621   2.660  0.5712 -0.6913  0.4166
 7888SOL     OW31323   4.511   6.076   5.934 -0.1206  0.2697 -0.4853
 7888SOL    HW231324   4.490   6.081   6.027 -0.0969 -1.7348 -0.3191
 7888SOL    HW331325   4.451   6.009   5.899  1.7457 -1.1015 -1.2717
 7888SOL    MW431326   4.501   6.068   5.942  0.1287 -0.1757 -0.5671
 7889SOL     OW31327   1.020   5.052   1.386  0.0928 -0.4459  0.5093
 7889SOL    HW231328   1.101   5.042   1.435 -0.4316 -2.6589  1.0548
 7889SOL    HW331329   1.033   4.999   1.307 -0.4700 -0.0565  0.1460
 7889SOL    MW431330   1.032   5.044   1.382 -0.0507 -0.6865  0.5333
 7890SOL     OW31331   5.753   4.147   3.220 -0.6643  0.0233  0.7399
 7890SOL    HW231332   5.696   4.081   3.180  0.2153  0.1501 -0.8065
 7890SOL    HW331333   5.785   4.105   3.300 -0.3560 -1.3312 -0.0559
 7890SOL    MW431334   5.749   4.133   3.225 -0.5076 -0.1387  0.4309
 7891SOL     OW31335   3.209   1.385   0.344  0.6658 -0.5251 -0.3709
 7891SOL    HW231336   3.238   1.344   0.426  0.0943  0.3936  0.3039
 7891SOL    HW331337   3.201   1.312   0.283  1.7132 -1.1507  0.2009
 7891SOL    MW431338   3.212   1.370   0.347  0.7286 -0.4865 -0.2064
 7892SOL     OW31339   0.891   3.434   4.745 -0.0712  0.1382 -0.2980
 7892SOL    HW231340   0.801   3.453   4.772 -0.6165 -1.3264 -0.9927
 7892SOL    HW331341   0.884   3.353   4.695  1.6821 -0.1257 -0.1532
 7892SOL    MW431342   0.878   3.426   4.742  0.0882 -0.0899 -0.3706
 7893SOL     OW31343   5.780   2.051   0.922 -0.2573 -0.4223  0.1289
 7893SOL    HW231344   5.837   2.005   0.861 -0.2317 -0.9833  0.5710
 7893SOL    HW331345   5.715   2.094   0.866  0.8780  0.6470 -0.4153
 7893SOL    MW431346   5.779   2.051   0.906 -0.1041 -0.3553  0.1154
 7894SOL     OW31347   0.578   5.764   3.157  0.8328  0.2919  0.1426
 7894SOL    HW231348   0.609   5.845   3.198  0.8328 -0.2295  1.1885
 7894SOL    HW331349   0.535   5.794   3.076  0.5688  1.3619  0.6562
 7894SOL    MW431350   0.576   5.779   3.152  0.7980  0.3643  0.3483
 7895SOL     OW31351   1.186   6.052   0.664  0.4882  0.7902  0.0073
 7895SOL    HW231352   1.206   6.100   0.583  2.2619 -1.9807 -1.3794
 7895SOL    HW331353   1.093   6.031   0.658  0.2549  1.9209 -0.5432
 7895SOL    MW431354   1.177   6.055   0.652  0.6914  0.5738 -0.2483
 7896SOL     OW31355   3.999   3.992   4.554  0.5696 -0.1355  0.6628
 7896SOL    HW231356   4.038   3.914   4.516 -1.2648 -0.3073 -0.9980
 7896SOL    HW331357   3.961   3.962   4.637  0.6817 -0.7999  0.4761
 7896SOL    MW431358   3.999   3.978   4.560  0.3424 -0.2458  0.4190
 7897SOL     OW31359   4.515   0.302   3.694  0.2237 -0.5135  0.4036
 7897SOL    HW231360   4.504   0.397   3.695 -0.1231 -0.5544  0.9928
 7897SOL    HW331361   4.582   0.284   3.760 -0.1942 -0.7271  0.7811
 7897SOL    MW431362   4.523   0.312   3.703  0.1228 -0.5471  0.5311
 7898SOL     OW31363   6.275   3.126   6.044 -0.6591 -0.3740 -0.3350
 7898SOL    HW231364   6.238   3.210   6.071  0.2467 -0.4728  1.3105
 7898SOL    HW331365   6.301   3.140   5.953  0.4187  1.4743  0.2025
 7898SOL    MW431366   6.273   3.139   6.036 -0.3974 -0.1431 -0.0470
 7899SOL     OW31367   3.500   2.812   4.127  0.3401  0.2027 -0.0877
 7899SOL    HW231368   3.493   2.875   4.199 -0.5632 -2.0667  1.9614
 7899SOL    HW331369   3.592   2.815   4.101  0.4901  1.7278  0.5404
 7899SOL    MW431370   3.512   2.820   4.133  0.2407  0.1045  0.2655
 7900SOL     OW31371   3.393   4.576   3.295 -0.5869  0.6761  0.4251
 7900SOL    HW231372   3.437   4.639   3.353 -0.3869  1.2916 -0.3614
 7900SOL    HW331373   3.301   4.580   3.320 -0.4989  0.9132  0.7179
 7900SOL    MW431374   3.387   4.585   3.306 -0.5489  0.7886  0.3600
 7901SOL     OW31375   5.125   2.257   6.395  0.2377 -0.4030  0.1460
 7901SOL    HW231376   5.206   2.216   6.363  1.5127  0.3145  2.2871
 7901SOL    HW331377   5.147   2.288   6.482 -1.3368  2.8893 -0.4919
 7901SOL    MW431378   5.139   2.256   6.402  0.1982  0.1260  0.3443
 7902SOL     OW31379   2.527   1.144   0.738  0.0397  0.1010  0.4189
 7902SOL    HW231380   2.563   1.227   0.708  1.6274 -0.7972 -0.3309
 7902SOL    HW331381   2.575   1.124   0.818  0.5165 -0.6080 -0.0218
 7902SOL    MW431382   2.538   1.152   0.744  0.3121 -0.1110  0.2618
 7903SOL     OW31383   4.242   1.792   3.084  0.1237 -0.7912  0.0588
 7903SOL    HW231384   4.312   1.775   3.147  0.5847  1.6416  0.3009
 7903SOL    HW331385   4.288   1.810   3.002 -0.3924 -1.9323 -0.5113
 7903SOL    MW431386   4.257   1.792   3.081  0.1164 -0.6208  0.0155
 7904SOL     OW31387   0.844   3.272   2.706 -0.5201  0.2828  0.3268
 7904SOL    HW231388   0.873   3.319   2.628  0.7947 -1.4423 -0.2735
 7904SOL    HW331389   0.848   3.337   2.776 -0.3258  1.4798 -0.7622
 7904SOL    MW431390   0.848   3.287   2.705 -0.3210  0.2131  0.1040
 7905SOL     OW31391   4.007   0.742   0.330 -0.0473  0.1543  0.2996
 7905SOL    HW231392   4.056   0.787   0.261 -0.5955  0.8843  0.3726
 7905SOL    HW331393   4.069   0.734   0.403  0.7144 -1.1227 -0.4552
 7905SOL    MW431394   4.021   0.747   0.331 -0.0192  0.0821  0.2097
 7906SOL     OW31395   2.004   0.728   1.661  0.4459  0.1798 -0.0956
 7906SOL    HW231396   1.949   0.664   1.707 -0.0564  0.2114 -0.6424
 7906SOL    HW331397   1.985   0.714   1.568 -0.1747  1.5552 -0.2049
 7906SOL    MW431398   1.994   0.718   1.655  0.2978  0.3654 -0.1822
 7907SOL     OW31399   0.375   2.182   5.272  0.3086  0.3833 -0.0494
 7907SOL    HW231400   0.361   2.201   5.365 -0.0545  2.7936 -0.5162
 7907SOL    HW331401   0.413   2.263   5.237 -3.0035  1.0212 -2.7043
 7907SOL    MW431402   0.378   2.195   5.280 -0.1763  0.7855 -0.4613
 7908SOL     OW31403   2.291   3.168   0.751 -0.2679  0.4135  0.4047
 7908SOL    HW231404   2.286   3.217   0.669 -1.0740  0.3128  0.3884
 7908SOL    HW331405   2.201   3.165   0.783 -0.1198 -0.4299  0.7750
 7908SOL    MW431406   2.279   3.174   0.744 -0.3547  0.2889  0.4514
 7909SOL     OW31407   5.023   5.037   0.331  0.2152 -0.3117  0.2770
 7909SOL    HW231408   5.019   4.946   0.301 -2.6630 -0.4750  0.8220
 7909SOL    HW331409   5.039   5.088   0.252 -1.4271 -1.1316 -0.6450
 7909SOL    MW431410   5.025   5.032   0.317 -0.3812 -0.4414  0.2273
 7910SOL     OW31411   1.141   6.052   3.086 -0.4974  0.5159 -0.4545
 7910SOL    HW231412   1.075   5.992   3.123 -0.7184 -0.0101 -1.6227
 7910SOL    HW331413   1.131   6.133   3.136  0.0918 -0.5186  1.4646
 7910SOL    MW431414   1.131   6.055   3.097 -0.4488  0.3101 -0.3554
 7911SOL     OW31415   1.878   0.152   1.438 -0.3420  0.9677 -0.0641
 7911SOL    HW231416   1.812   0.083   1.447  0.9287 -0.5558 -1.5159
 7911SOL    HW331417   1.943   0.114   1.378  1.2341  2.8518  0.3594
 7911SOL    MW431418   1.878   0.138   1.431  0.0336  1.0152 -0.1998
 7912SOL     OW31419   2.056   0.971   4.721 -0.4021 -0.3548  0.3762
 7912SOL    HW231420   2.126   1.026   4.755  0.3195 -1.1272  0.1739
 7912SOL    HW331421   1.989   1.032   4.691  0.7799  0.4297 -0.7125
 7912SOL    MW431422   2.056   0.986   4.722 -0.1509 -0.3532  0.2059
 7913SOL     OW31423   0.206   5.795   6.224 -0.2531 -0.0879  0.2853
 7913SOL    HW231424   0.205   5.871   6.282 -1.2652  0.3066 -0.2271
 7913SOL    HW331425   0.275   5.738   6.260 -1.2067 -0.1164  2.2087
 7913SOL    MW431426   0.215   5.797   6.237 -0.5125 -0.0396  0.4714
 7914SOL     OW31427   5.946   6.203   0.999 -0.1731  0.3125  0.3021
 7914SOL    HW231428   6.018   6.258   0.969 -0.2211 -0.3637 -1.0957
 7914SOL    HW331429   5.883   6.205   0.927  0.3427 -2.5055 -0.3158
 7914SOL    MW431430   5.947   6.211   0.986 -0.1114 -0.1485  0.0362
 7915SOL     OW31431   6.087   5.780   0.652  0.0902  0.3307  1.2370
 7915SOL    HW231432   6.075   5.686   0.663  1.0308  0.0368 -0.0753
 7915SOL    HW331433   5.998   5.815   0.643 -0.1904 -0.6903 -0.1826
 7915SOL    MW431434   6.074   5.772   0.652  0.1773  0.1572  0.8766
 7916SOL     OW31435   1.608   4.791   3.511 -0.3683 -0.1914 -0.0120
 7916SOL    HW231436   1.580   4.766   3.423  0.7141 -3.2242  0.3782
 7916SOL    HW331437   1.533   4.771   3.567 -0.4042 -0.0869 -0.0233
 7916SOL    MW431438   1.595   4.785   3.507 -0.2302 -0.5778  0.0380
 7917SOL     OW31439   1.183   1.294   6.398 -0.3537 -0.0688 -0.1559
 7917SOL    HW231440   1.252   1.279   6.462  0.4648 -0.7224 -1.1599
 7917SOL    HW331441   1.153   1.207   6.373 -0.7686  0.1769 -0.5542
 7917SOL    MW431442   1.188   1.281   6.403 -0.3004 -0.1226 -0.3409
 7918SOL     OW31443   0.894   6.256   4.848 -0.2567 -0.4846 -0.5293
 7918SOL    HW231444   0.911   6.351   4.849  0.5630 -0.6322 -0.1091
 7918SOL    HW331445   0.800   6.249   4.866 -0.3443  0.2508 -0.6480
 7918SOL    MW431446   0.884   6.268   4.850 -0.1601 -0.4071 -0.4895
 7919SOL     OW31447   5.279   4.866   3.303  0.5665  0.3832  0.1979
 7919SOL    HW231448   5.357   4.888   3.353 -0.8625  0.1827  2.6778
 7919SOL    HW331449   5.293   4.775   3.277  1.2764  0.4308  0.3909
 7919SOL    MW431450   5.291   4.857   3.306  0.4716  0.3630  0.5506
 7920SOL     OW31451   1.790   4.043   4.556  0.7565  0.3818 -0.1893
 7920SOL    HW231452   1.837   3.997   4.626 -1.9326  0.8873  2.1263
 7920SOL    HW331453   1.825   4.132   4.559  1.5613  0.0845 -0.4050
 7920SOL    MW431454   1.801   4.049   4.566  0.5079  0.4092  0.0878
 7921SOL     OW31455   0.875   3.281   1.288  0.4850 -0.0367 -0.1466
 7921SOL    HW231456   0.960   3.258   1.327  0.7476 -2.4929 -1.9213
 7921SOL    HW331457   0.895   3.304   1.198 -0.6728 -0.0490 -0.4223
 7921SOL    MW431458   0.889   3.281   1.281  0.3669 -0.3624 -0.4171
 7922SOL     OW31459   0.317   4.363   5.292 -0.0886  0.2853  0.4061
 7922SOL    HW231460   0.335   4.438   5.235 -2.3562  0.9322  0.4318
 7922SOL    HW331461   0.309   4.401   5.379 -2.9716  0.3982  0.1888
 7922SOL    MW431462   0.319   4.378   5.296 -0.7682  0.3855  0.3808
 7923SOL     OW31463   2.248   6.204   4.746 -0.0533  0.3571 -0.2535
 7923SOL    HW231464   2.336   6.229   4.719  0.5617 -1.9730 -0.5601
 7923SOL    HW331465   2.192   6.235   4.674  0.2606  2.9903  0.5162
 7923SOL    MW431466   2.252   6.212   4.733  0.0692  0.3971 -0.1924
 7924SOL     OW31467   2.907   2.376   4.025 -0.2317 -0.3614  0.3815
 7924SOL    HW231468   2.913   2.284   4.052 -0.1929 -0.9031 -1.3832
 7924SOL    HW331469   2.904   2.424   4.108  0.5047 -1.8867  1.3524
 7924SOL    MW431470   2.907   2.370   4.040 -0.1295 -0.6341  0.2768
 7925SOL     OW31471   4.319   0.988   5.468 -0.1133  0.3699  0.5221
 7925SOL    HW231472   4.370   0.936   5.531 -0.0691 -1.0101 -0.6146
 7925SOL    HW331473   4.257   1.037   5.522  1.9017  1.5689  1.8925
 7925SOL    MW431474   4.318   0.988   5.484  0.1584  0.3460  0.5530
 7926SOL     OW31475   0.478   0.164   1.367 -0.1909  0.2089  0.4416
 7926SOL    HW231476   0.482   0.256   1.393  0.2601 -0.0253  1.2519
 7926SOL    HW331477   0.396   0.156   1.319  0.2343  1.2424 -0.4857
 7926SOL    MW431478   0.467   0.175   1.364 -0.0753  0.3144  0.4261
 7927SOL     OW31479   1.220   3.163   4.201  0.2548 -0.1691 -0.2201
 7927SOL    HW231480   1.288   3.208   4.150 -0.4828  1.1290 -0.1088
 7927SOL    HW331481   1.211   3.215   4.281  1.4311 -2.2021  1.3383
 7927SOL    MW431482   1.227   3.176   4.205  0.3127 -0.2661  0.0002
 7928SOL     OW31483   1.697   1.156   3.260  0.0212  0.3848  0.1952
 7928SOL    HW231484   1.661   1.123   3.177  2.0456  0.0235 -0.6189
 7928SOL    HW331485   1.747   1.234   3.235  2.1905 -0.7466  0.6937
 7928SOL    MW431486   1.699   1.162   3.245  0.5745  0.1879  0.1536
 7929SOL     OW31487   1.429   2.854   3.846 -0.1102  0.5089  0.2498
 7929SOL    HW231488   1.378   2.815   3.917 -0.3724 -0.2260 -0.3232
 7929SOL    HW331489   1.492   2.786   3.822 -0.4983  0.4791 -0.6991
 7929SOL    MW431490   1.431   2.840   3.852 -0.1960  0.4080  0.0490
 7930SOL     OW31491   1.392   5.977   0.841  0.0854  1.0117  0.1823
 7930SOL    HW231492   1.400   5.883   0.822 -0.8913  0.7413  0.9868
 7930SOL    HW331493   1.336   6.011   0.771 -0.8193  0.6711  0.7194
 7930SOL    MW431494   1.385   5.969   0.830 -0.1628  0.9311  0.3593
 7931SOL     OW31495   0.080   3.948   0.182  0.1709 -0.2493  0.0731
 7931SOL    HW231496   0.065   3.963   0.275 -0.1864  1.5195 -0.2318
 7931SOL    HW331497  -0.007   3.930   0.146 -0.4905  3.2991 -0.5525
 7931SOL    MW431498   0.066   3.948   0.189  0.0365  0.4522 -0.0497
 7932SOL     OW31499   3.214   3.689   6.134 -0.0698 -0.2780 -0.0389
 7932SOL    HW231500   3.169   3.684   6.219 -0.2939 -1.1479 -0.1923
 7932SOL    HW331501   3.151   3.653   6.072 -0.6572  2.1098 -0.9258
 7932SOL    MW431502   3.200   3.683   6.137 -0.1769 -0.0777 -0.1762
 7933SOL     OW31503   1.474   1.913   4.496  0.2005  0.1762  0.0801
 7933SOL    HW231504   1.397   1.952   4.537  0.2999  0.3841  0.0687
 7933SOL    HW331505   1.500   1.975   4.428 -1.4399 -1.3093 -2.0230
 7933SOL    MW431506   1.467   1.926   4.493 -0.0028  0.0077 -0.1989
 7934SOL     OW31507   0.638   1.158   5.810  0.2264 -0.1851 -0.3129
 7934SOL    HW231508   0.695   1.090   5.846  0.0713  0.3463  0.9801
 7934SOL    HW331509   0.572   1.172   5.878 -0.2075  0.6916 -0.9056
 7934SOL    MW431510   0.637   1.151   5.824  0.1487  0.0007 -0.2205
 7935SOL     OW31511   1.722   3.252   3.878  0.0884 -0.4048 -0.9614
 7935SOL    HW231512   1.647   3.192   3.874  0.7177 -1.2722 -0.1527
 7935SOL    HW331513   1.756   3.242   3.966 -0.0026  1.4493 -0.6716
 7935SOL    MW431514   1.716   3.243   3.889  0.1594 -0.2746 -0.8165
 7936SOL     OW31515   5.395   5.013   6.036 -0.7044  0.3711 -0.7467
 7936SOL    HW231516   5.435   4.995   6.121  1.8320  2.2991 -1.3956
 7936SOL    HW331517   5.309   5.051   6.057 -0.9135 -0.8892  0.8408
 7936SOL    MW431518   5.389   5.016   6.050 -0.3973  0.4592 -0.6229
 7937SOL     OW31519   3.305   6.107   5.338  0.7511  0.3891  0.1605
 7937SOL    HW231520   3.210   6.106   5.329  0.6097 -0.8572  1.4037
 7937SOL    HW331521   3.320   6.158   5.418  1.0066 -0.8252  0.9019
 7937SOL    MW431522   3.295   6.114   5.348  0.7661  0.0644  0.4224
 7938SOL     OW31523   3.814   0.951   0.351  0.2784  0.2402 -0.4658
 7938SOL    HW231524   3.731   0.921   0.313 -0.6767 -1.0035  2.3217
 7938SOL    HW331525   3.867   0.872   0.357  0.0759  0.2021  1.4104
 7938SOL    MW431526   3.810   0.937   0.347  0.1257  0.0711  0.1495
 7939SOL     OW31527   4.340   4.854   2.559 -0.8180  0.7896  0.0875
 7939SOL    HW231528   4.272   4.874   2.623  0.0077 -0.1488  1.3183
 7939SOL    HW331529   4.294   4.812   2.487 -1.4408 -1.2678  1.5596
 7939SOL    MW431530   4.325   4.851   2.558 -0.7912  0.3943  0.4441
 7940SOL     OW31531   4.348   4.143   6.070 -0.2680  0.2096  0.2519
 7940SOL    HW231532   4.354   4.047   6.065 -1.3019  0.1832 -1.0786
 7940SOL    HW331533   4.255   4.161   6.059 -0.0577  1.3800  0.3242
 7940SOL    MW431534   4.337   4.132   6.068 -0.3767  0.3606  0.0859
 7941SOL     OW31535   2.810   4.764   3.289 -0.3555  0.3321 -0.1551
 7941SOL    HW231536   2.856   4.847   3.305  0.2171  0.0973 -0.5441
 7941SOL    HW331537   2.821   4.749   3.195 -0.6256 -0.0841 -0.1208
 7941SOL    MW431538   2.818   4.773   3.279 -0.3156  0.2462 -0.2019
 7942SOL     OW31539   1.424   2.460   5.695 -0.1333  0.4893  0.5050
 7942SOL    HW231540   1.352   2.458   5.632  0.7906  0.2732 -0.5983
 7942SOL    HW331541   1.434   2.368   5.722  0.0775  0.4230  0.2164
 7942SOL    MW431542   1.416   2.447   5.690  0.0164  0.4520  0.3214
 7943SOL     OW31543   0.554   1.158   0.357  0.4377 -0.7848  0.1308
 7943SOL    HW231544   0.470   1.120   0.384 -0.1964  1.6301  1.8697
 7943SOL    HW331545   0.543   1.177   0.264 -1.6846  1.0908  0.6718
 7943SOL    MW431546   0.542   1.155   0.348  0.0740 -0.2187  0.4316
 7944SOL     OW31547   0.807   0.380   0.089 -0.1938 -0.1295  0.2226
 7944SOL    HW231548   0.713   0.397   0.078  0.0739  1.0149 -0.4652
 7944SOL    HW331549   0.842   0.381   0.000  0.3831 -1.1853  0.4206
 7944SOL    MW431550   0.799   0.382   0.076 -0.0824 -0.1178  0.1580
 7945SOL     OW31551   1.039   2.764   5.130  0.0292 -0.0824  0.7025
 7945SOL    HW231552   0.988   2.842   5.151 -1.7261 -1.4487  1.8476
 7945SOL    HW331553   1.007   2.738   5.043 -0.3873 -0.2549  0.9012
 7945SOL    MW431554   1.028   2.771   5.121 -0.2573 -0.2854  0.8798
 7946SOL     OW31555   4.010   3.910   3.037 -0.0227 -0.1963 -0.2650
 7946SOL    HW231556   4.069   3.835   3.027 -0.8092 -0.7659 -0.8140
 7946SOL    HW331557   4.041   3.974   2.973  0.5061 -0.1552  0.0346
 7946SOL    MW431558   4.022   3.909   3.027 -0.0567 -0.2660 -0.2979
 7947SOL     OW31559   3.090   2.638   3.977  0.3297 -0.5673  0.2787
 7947SOL    HW231560   3.074   2.597   3.892 -0.5678 -0.7874  0.5458
 7947SOL    HW331561   3.186   2.641   3.984  0.4198 -0.0868 -0.9485
 7947SOL    MW431562   3.101   2.633   3.967  0.2232 -0.5330  0.1520
 7948SOL     OW31563   3.394   5.939   2.707 -0.0961  0.1725 -0.3516
 7948SOL    HW231564   3.307   5.940   2.667 -0.5999 -0.8221  0.6606
 7948SOL    HW331565   3.396   5.859   2.759  0.7113  1.1132  1.1615
 7948SOL    MW431566   3.382   5.929   2.709 -0.0561  0.1654 -0.0184
 7949SOL     OW31567   1.163   3.971   0.871 -0.0239  0.1886  0.0453
 7949SOL    HW231568   1.156   4.036   0.800 -1.7243 -1.7096 -1.6352
 7949SOL    HW331569   1.086   3.987   0.926 -0.4986 -0.4578 -0.4277
 7949SOL    MW431570   1.152   3.982   0.869 -0.3109 -0.1471 -0.2388
 7950SOL     OW31571   5.924   1.779   1.914  0.0857  0.1390  0.5257
 7950SOL    HW231572   5.880   1.864   1.926 -2.6576 -1.1975  0.8695
 7950SOL    HW331573   5.999   1.782   1.972  0.2399  2.4339  0.2972
 7950SOL    MW431574   5.928   1.791   1.923 -0.2559  0.2654  0.5409
 7951SOL     OW31575   3.465   4.542   2.103  0.2575  0.3545  0.4332
 7951SOL    HW231576   3.390   4.523   2.046  0.2798  1.1953  0.1097
 7951SOL    HW331577   3.507   4.618   2.062 -0.0971  1.3816  1.9152
 7951SOL    MW431578   3.461   4.549   2.090  0.2137  0.6009  0.5860
 7952SOL     OW31579   2.096   1.398   1.309 -0.2466  0.0891  0.0079
 7952SOL    HW231580   2.169   1.395   1.248  0.2802 -1.3672  0.6669
 7952SOL    HW331581   2.031   1.337   1.274  0.5468 -1.6770  1.4222
 7952SOL    MW431582   2.097   1.390   1.297 -0.0724 -0.3361  0.2815
 7953SOL     OW31583   2.857   1.211   3.181 -0.4291 -0.2754  0.5041
 7953SOL    HW231584   2.838   1.261   3.101  1.7810  0.4979  0.4029
 7953SOL    HW331585   2.871   1.121   3.151 -2.8642 -0.7423  0.4994
 7953SOL    MW431586   2.856   1.206   3.167 -0.4588 -0.2349  0.4901
 7954SOL     OW31587   2.888   3.203   3.001  0.1515 -0.2180  0.2097
 7954SOL    HW231588   2.832   3.229   2.928  1.8902  1.2053 -0.6665
 7954SOL    HW331589   2.833   3.142   3.051 -1.6474 -0.0273 -1.3872
 7954SOL    MW431590   2.873   3.198   2.998  0.1435 -0.0051 -0.1166
 7955SOL     OW31591   3.671   0.559   6.043  0.2774 -0.3745 -0.6942
 7955SOL    HW231592   3.633   0.496   5.982  0.6330 -0.8379 -0.4417
 7955SOL    HW331593   3.619   0.548   6.123 -0.3116  0.3649 -0.9672
 7955SOL    MW431594   3.659   0.549   6.046  0.2466 -0.3381 -0.6969
 7956SOL     OW31595   2.800   0.255   1.924  0.4376 -0.1025 -0.1835
 7956SOL    HW231596   2.884   0.277   1.883  0.7540  0.8515  0.9351
 7956SOL    HW331597   2.818   0.254   2.018 -0.5644 -0.9985  0.0246
 7956SOL    MW431598   2.813   0.258   1.931  0.3471 -0.0948 -0.0085
 7957SOL     OW31599   4.877   0.784   2.841 -0.4412  0.0469 -0.5828
 7957SOL    HW231600   4.856   0.788   2.747  1.4093 -1.4828 -1.1233
 7957SOL    HW331601   4.873   0.691   2.862  0.3372  0.2601  0.5747
 7957SOL    MW431602   4.873   0.773   2.831 -0.0943 -0.1268 -0.5014
 7958SOL     OW31603   0.888   0.654   3.927 -0.3103 -0.0642  0.1586
 7958SOL    HW231604   0.912   0.575   3.879 -0.1222  0.8048 -1.2535
 7958SOL    HW331605   0.930   0.725   3.878 -0.7226  0.9403  1.2116
 7958SOL    MW431606   0.896   0.653   3.914 -0.3399  0.1830  0.1112
 7959SOL     OW31607   3.446   3.913   4.099 -0.2328  0.6033 -0.2310
 7959SOL    HW231608   3.391   3.919   4.021 -2.0704  1.3066  1.0759
 7959SOL    HW331609   3.410   3.977   4.160  0.5662 -0.5718  1.5726
 7959SOL    MW431610   3.434   3.922   4.097 -0.3698  0.5411  0.1794
 7960SOL     OW31611   6.289   0.312   6.215  0.1256  0.0845 -0.1767
 7960SOL    HW231612   6.235   0.320   6.293 -1.2630  0.3974 -1.1459
 7960SOL    HW331613   6.249   0.242   6.164  0.0237  0.9680 -1.3580
 7960SOL    MW431614   6.277   0.304   6.218 -0.0710  0.2424 -0.4604
 7961SOL     OW31615   3.964   6.152   3.136 -0.1616  0.1234  0.6131
 7961SOL    HW231616   3.928   6.075   3.093  0.0934  0.9418 -1.1590
 7961SOL    HW331617   3.903   6.170   3.208 -1.1969 -0.6864 -0.0303
 7961SOL    MW431618   3.951   6.144   3.140 -0.2646  0.1245  0.2944
 7962SOL     OW31619   1.916   5.473   5.447  0.4165  0.0322 -0.8071
 7962SOL    HW231620   1.997   5.422   5.448 -0.4354 -1.5999 -3.5595
 7962SOL    HW331621   1.895   5.486   5.540  3.4269 -0.0394 -0.0038
 7962SOL    MW431622   1.924   5.468   5.459  0.7013 -0.1926 -1.0643
 7963SOL     OW31623   0.900   4.137   4.385  0.0144 -0.7690  0.0507
 7963SOL    HW231624   0.915   4.139   4.480  2.5923 -0.5698 -0.2805
 7963SOL    HW331625   0.984   4.109   4.349 -0.8037 -0.4507 -2.2154
 7963SOL    MW431626   0.913   4.133   4.393  0.2466 -0.7007 -0.2920
 7964SOL     OW31627   4.273   0.791   1.213 -0.3083 -0.0661 -0.3989
 7964SOL    HW231628   4.184   0.770   1.241 -0.8529  1.0660 -1.2054
 7964SOL    HW331629   4.270   0.885   1.195  1.2368  0.1211  0.2353
 7964SOL    MW431630   4.261   0.800   1.215 -0.1763  0.1080 -0.4216
 7965SOL     OW31631   0.070   4.932   6.215  1.0736 -0.1973  0.2537
 7965SOL    HW231632   0.086   4.847   6.173 -1.5556  0.0882 -1.5882
 7965SOL    HW331633   0.133   4.991   6.175  0.5145 -0.5712 -1.2743
 7965SOL    MW431634   0.080   4.929   6.204  0.6530 -0.2090 -0.1909
 7966SOL     OW31635   0.828   2.635   1.326 -0.4852  0.0127  0.6460
 7966SOL    HW231636   0.790   2.584   1.397  1.7478  1.2052  2.8661
 7966SOL    HW331637   0.911   2.592   1.307 -0.3416  0.6246 -0.1844
 7966SOL    MW431638   0.834   2.623   1.333 -0.1716  0.2508  0.8294
 7967SOL     OW31639   2.009   0.798   0.092 -0.0182  0.3604  0.2528
 7967SOL    HW231640   2.102   0.788   0.112 -0.4163 -3.5579  0.9911
 7967SOL    HW331641   1.970   0.829   0.174  0.3853  0.0634  0.5600
 7967SOL    MW431642   2.016   0.801   0.106 -0.0175 -0.1958  0.3908
 7968SOL     OW31643   1.122   5.396   5.716  0.2008  0.2959  0.0262
 7968SOL    HW231644   1.044   5.422   5.666  0.2325  1.9010  0.7463
 7968SOL    HW331645   1.130   5.463   5.783  1.4864 -0.5604  0.7601
 7968SOL    MW431646   1.113   5.408   5.718  0.3746  0.3947  0.2180
 7969SOL     OW31647   1.398   5.327   0.954  0.2579  0.1071 -0.1349
 7969SOL    HW231648   1.369   5.364   0.871  0.5118 -0.1847 -0.3545
 7969SOL    HW331649   1.318   5.296   0.996  0.3022 -1.2827 -1.0253
 7969SOL    MW431650   1.384   5.328   0.949  0.2972 -0.1148 -0.2814
 7970SOL     OW31651   2.301   3.628   0.682 -0.4074 -0.5909 -0.4891
 7970SOL    HW231652   2.288   3.689   0.610 -1.1576 -0.2948 -0.1179
 7970SOL    HW331653   2.386   3.652   0.719 -0.7602  0.3375 -0.2528
 7970SOL    MW431654   2.311   3.639   0.678 -0.5529 -0.4293 -0.4090
 7971SOL     OW31655   1.642   5.485   2.655 -0.0336  0.0592  0.3043
 7971SOL    HW231656   1.724   5.513   2.615  0.2404  1.7341  1.9034
 7971SOL    HW331657   1.624   5.551   2.722 -2.4960 -0.4677  0.2642
 7971SOL    MW431658   1.650   5.497   2.659 -0.3224  0.2107  0.5100
 7972SOL     OW31659   5.402   3.350   2.051 -0.0350 -0.6887  0.0939
 7972SOL    HW231660   5.457   3.422   2.022 -1.4259  1.5466  2.5529
 7972SOL    HW331661   5.330   3.348   1.988 -0.1604  0.3402  0.1917
 7972SOL    MW431662   5.400   3.359   2.039 -0.2351 -0.2580  0.4312
 7973SOL     OW31663   3.086   5.889   3.139 -0.6623 -0.4394 -0.7244
 7973SOL    HW231664   3.091   5.949   3.213 -0.8423  0.9593 -1.8238
 7973SOL    HW331665   3.002   5.908   3.098 -0.2652 -0.7215 -1.6852
 7973SOL    MW431666   3.075   5.899   3.143 -0.6336 -0.2920 -0.9962
 7974SOL     OW31667   3.395   3.070   1.740  0.5149  0.0115 -0.0354
 7974SOL    HW231668   3.302   3.078   1.717  0.2624 -0.2009  0.8986
 7974SOL    HW331669   3.409   3.137   1.807  1.3575  0.9224 -1.0872
 7974SOL    MW431670   3.384   3.080   1.746  0.5928  0.1036 -0.0509
 7975SOL     OW31671   5.688   1.613   1.683 -0.9307 -1.0236  0.3619
 7975SOL    HW231672   5.769   1.590   1.637 -1.2810  0.3823 -1.0843
 7975SOL    HW331673   5.716   1.674   1.751 -0.7747 -0.1055 -0.4857
 7975SOL    MW431674   5.702   1.618   1.686 -0.9564 -0.7170  0.0593
 7976SOL     OW31675   4.442   4.577   5.117  0.0676 -0.1191  0.4277
 7976SOL    HW231676   4.352   4.579   5.084  1.2357 -0.2996 -3.2686
 7976SOL    HW331677   4.447   4.498   5.170 -1.2704 -1.7799 -1.7546
 7976SOL    MW431678   4.431   4.567   5.119  0.0452 -0.3620 -0.3479
 7977SOL     OW31679   3.900   6.100   5.272  0.1859  0.0851 -0.3423
 7977SOL    HW231680   3.833   6.034   5.289 -0.3409 -0.3336 -3.4008
 7977SOL    HW331681   3.875   6.137   5.187  3.5756  0.1862 -1.4402
 7977SOL    MW431682   3.888   6.096   5.263  0.5636  0.0432 -0.8907
 7978SOL     OW31683   5.325   3.949   1.904  0.4063  0.5194  0.6333
 7978SOL    HW231684   5.335   3.897   1.984 -0.6891 -1.8054 -0.6293
 7978SOL    HW331685   5.243   3.997   1.916 -0.1241 -0.3711  0.6417
 7978SOL    MW431686   5.316   3.948   1.916  0.1918  0.0952  0.4678
 7979SOL     OW31687   3.301   4.246   3.701  0.8455 -0.1203 -0.0141
 7979SOL    HW231688   3.306   4.231   3.796  0.8975  0.2140  0.0373
 7979SOL    HW331689   3.355   4.176   3.663  1.7586  0.4163  0.2647
 7979SOL    MW431690   3.309   4.235   3.709  0.9728 -0.0054  0.0295
 7980SOL     OW31691   3.825   5.892   1.074  0.2111  0.2505  0.4680
 7980SOL    HW231692   3.834   5.814   1.128 -0.5186 -0.0247  0.2109
 7980SOL    HW331693   3.908   5.938   1.083  0.1727  0.0989  1.6451
 7980SOL    MW431694   3.837   5.888   1.082  0.1097  0.1942  0.5894
 7981SOL     OW31695   1.207   1.915   5.352  0.0745  0.3154  0.0013
 7981SOL    HW231696   1.222   1.842   5.292  0.9929  2.2553 -2.3158
 7981SOL    HW331697   1.271   1.903   5.422  0.4181 -0.9212 -0.5009
 7981SOL    MW431698   1.217   1.904   5.353  0.2410  0.4082 -0.3707
 7982SOL     OW31699   3.403   4.579   3.916  0.4047  0.0078  0.1094
 7982SOL    HW231700   3.392   4.662   3.963 -1.7132 -1.1816  1.8643
 7982SOL    HW331701   3.496   4.558   3.928  0.7697  1.6156  0.4489
 7982SOL    MW431702   3.414   4.587   3.923  0.1735  0.0630  0.3858
 7983SOL     OW31703   3.197   4.985   5.808 -0.2954 -0.3627  0.5805
 7983SOL    HW231704   3.241   5.047   5.750 -2.5371 -0.0852 -0.9886
 7983SOL    HW331705   3.233   5.003   5.895  0.4714  1.8508 -0.1189
 7983SOL    MW431706   3.207   4.996   5.812 -0.4900 -0.0340  0.2812
 7984SOL     OW31707   4.977   0.541   2.573  0.4351 -0.9613  0.0565
 7984SOL    HW231708   4.923   0.547   2.652  0.4074 -0.6475  0.0128
 7984SOL    HW331709   5.065   0.521   2.606  0.3560 -1.1615  0.1466
 7984SOL    MW431710   4.982   0.539   2.588  0.4210 -0.9463  0.0626
 7985SOL     OW31711   4.234   5.839   2.663  0.2936 -0.1893 -0.3215
 7985SOL    HW231712   4.172   5.890   2.611 -0.1683 -1.1393 -0.7085
 7985SOL    HW331713   4.291   5.905   2.703  1.1328  0.5467 -2.6081
 7985SOL    MW431714   4.233   5.855   2.662  0.3434 -0.2175 -0.6743
 7986SOL     OW31715   4.255   1.075   1.194  0.0923  0.4619 -0.0080
 7986SOL    HW231716   4.331   1.109   1.240 -0.0703  0.3812  0.3199
 7986SOL    HW331717   4.183   1.085   1.256  0.1587 -1.0829  0.3474
 7986SOL    MW431718   4.255   1.081   1.208  0.0796  0.2474  0.0821
 7987SOL     OW31719   5.970   2.680   1.176 -0.3007 -0.2588  0.1579
 7987SOL    HW231720   6.027   2.650   1.246 -0.5414  2.4406  1.6501
 7987SOL    HW331721   6.028   2.694   1.101  0.4595 -0.4943  0.6983
 7987SOL    MW431722   5.985   2.678   1.175 -0.2322  0.0663  0.4260
 7988SOL     OW31723   3.864   1.224   3.508  0.3059 -0.1037  0.2728
 7988SOL    HW231724   3.948   1.180   3.502 -0.6131 -1.9687  0.3540
 7988SOL    HW331725   3.811   1.184   3.439 -1.0662 -0.2895  1.3959
 7988SOL    MW431726   3.868   1.213   3.498  0.0036 -0.3743  0.4317
 7989SOL     OW31727   5.493   1.198   3.695 -0.4810  0.1540 -0.1585
 7989SOL    HW231728   5.525   1.192   3.605  1.0870  0.0977  0.3645
 7989SOL    HW331729   5.485   1.292   3.711 -0.6156  0.1688 -0.3134
 7989SOL    MW431730   5.496   1.210   3.685 -0.2918  0.1485 -0.1099
 7990SOL     OW31731   0.110   4.416   6.260  0.8284 -0.1238  0.0544
 7990SOL    HW231732   0.088   4.390   6.171  0.1849 -1.2884  0.5372
 7990SOL    HW331733   0.200   4.383   6.273  1.5651  1.5024 -0.7021
 7990SOL    MW431734   0.119   4.408   6.250  0.8407 -0.0629  0.0183
 7991SOL     OW31735   0.437   0.124   3.489  0.2499 -0.0538  0.2859
 7991SOL    HW231736   0.417   0.097   3.400 -1.4505  1.5154  0.1345
 7991SOL    HW331737   0.533   0.125   3.492  0.3647  0.7755 -1.8230
 7991SOL    MW431738   0.447   0.121   3.478  0.0407  0.2626 -0.0123
 7992SOL     OW31739   1.339   1.281   1.559 -0.2026 -0.0161 -0.4769
 7992SOL    HW231740   1.434   1.278   1.547  0.1176  2.4324  0.7664
 7992SOL    HW331741   1.327   1.298   1.652 -1.8062  0.9005 -0.8102
 7992SOL    MW431742   1.350   1.283   1.570 -0.3719  0.4279 -0.3568
 7993SOL     OW31743   5.986   0.064   6.424 -0.4253 -0.0016  0.5189
 7993SOL    HW231744   5.916   0.073   6.489  0.4935  2.6021  1.2771
 7993SOL    HW331745   6.066   0.062   6.476  0.2925  1.4260 -0.4793
 7993SOL    MW431746   5.987   0.065   6.440 -0.2094  0.5303  0.4872
 7994SOL     OW31747   6.231   1.301   4.429 -0.0209 -0.3992  0.0074
 7994SOL    HW231748   6.206   1.228   4.373  0.5653 -1.1589  0.7035
 7994SOL    HW331749   6.316   1.275   4.465  1.4302  1.7209 -1.6490
 7994SOL    MW431750   6.239   1.288   4.427  0.2479 -0.2197 -0.1193
 7995SOL     OW31751   1.083   3.282   0.021  0.0405 -0.3227  0.7745
 7995SOL    HW231752   1.082   3.198  -0.025 -1.6132 -0.2583  0.6164
 7995SOL    HW331753   1.163   3.280   0.074  0.7622 -1.3840 -0.3108
 7995SOL    MW431754   1.093   3.270   0.022 -0.0824 -0.4542  0.6104
 7996SOL     OW31755   5.930   1.871   6.388 -0.7561  0.4256 -0.0488
 7996SOL    HW231756   5.849   1.821   6.399  0.2276 -0.7341  3.2971
 7996SOL    HW331757   5.931   1.930   6.463  0.2287  2.4528 -1.5644
 7996SOL    MW431758   5.919   1.872   6.400 -0.4964  0.5401  0.1927
 7997SOL     OW31759   5.599   3.162   5.022 -0.1277 -0.5226  0.1441
 7997SOL    HW231760   5.622   3.170   4.929  0.1808 -1.0920  0.1681
 7997SOL    HW331761   5.520   3.216   5.031  0.7677  0.8824 -0.0891
 7997SOL    MW431762   5.591   3.170   5.011  0.0312 -0.4124  0.1165
 7998SOL     OW31763   3.845   3.278   4.588 -0.1417  0.5586 -0.7824
 7998SOL    HW231764   3.818   3.369   4.602  0.1186  0.4945  0.1910
 7998SOL    HW331765   3.864   3.273   4.494  0.2370  1.6184 -0.7748
 7998SOL    MW431766   3.844   3.289   4.577 -0.0574  0.6900 -0.6530
 7999SOL     OW31767   4.709   2.259   3.536  0.3744 -0.2134  0.1640
 7999SOL    HW231768   4.622   2.248   3.575  0.6121 -0.4457  0.6278
 7999SOL    HW331769   4.703   2.214   3.452 -0.2786  0.6704 -0.2784
 7999SOL    MW431770   4.697   2.252   3.530  0.3196 -0.1274  0.1668
 8000SOL     OW31771   1.027   3.551   1.447 -0.1356 -0.4793 -0.0702
 8000SOL    HW231772   1.007   3.578   1.357  1.0344 -2.1293 -0.8834
 8000SOL    HW331773   1.005   3.627   1.500  0.4342  1.0574 -1.9117
 8000SOL    MW431774   1.022   3.564   1.442  0.0939 -0.4942 -0.4205
 8001SOL     OW31775   1.628   3.172   5.092  0.7492  0.0660  0.3789
 8001SOL    HW231776   1.665   3.090   5.126  1.0740  0.1481  0.2296
 8001SOL    HW331777   1.649   3.237   5.158 -0.0996 -0.0979  0.8181
 8001SOL    MW431778   1.635   3.170   5.105  0.6800  0.0552  0.4171
 8002SOL     OW31779   3.243   4.421   1.540 -0.1369 -0.1434  0.3147
 8002SOL    HW231780   3.260   4.327   1.547 -2.1861 -0.6267 -0.3646
 8002SOL    HW331781   3.282   4.447   1.456 -0.7727 -0.7252 -0.1752
 8002SOL    MW431782   3.250   4.412   1.530 -0.4912 -0.2839  0.1605
 8003SOL     OW31783   5.430   1.329   6.040 -0.4705  0.3680  0.5656
 8003SOL    HW231784   5.489   1.256   6.056 -0.7925 -0.1704 -0.5956
 8003SOL    HW331785   5.460   1.398   6.099 -1.1859 -1.2331  2.9248
 8003SOL    MW431786   5.442   1.329   6.050 -0.6074  0.0858  0.7237
 8004SOL     OW31787   1.553   0.491   3.842 -0.0508 -0.3981 -0.5238
 8004SOL    HW231788   1.579   0.402   3.817 -1.5909 -0.8849 -0.5410
 8004SOL    HW331789   1.464   0.499   3.808 -0.3441  0.7510  0.4694
 8004SOL    MW431790   1.545   0.480   3.834 -0.2927 -0.3107 -0.3950
 8005SOL     OW31791   2.607   3.023   5.089 -0.1879  0.0542 -0.0065
 8005SOL    HW231792   2.688   3.027   5.139 -0.3866 -1.0258  0.4238
 8005SOL    HW331793   2.599   3.110   5.050  0.9294  0.3238  0.3221
 8005SOL    MW431794   2.617   3.035   5.090 -0.0667 -0.0527  0.0936
 8006SOL     OW31795   4.741   5.571   5.123 -0.1181 -0.3379 -0.4530
 8006SOL    HW231796   4.834   5.595   5.125  0.1918 -1.4711  1.9903
 8006SOL    HW331797   4.695   5.654   5.135  0.7876 -0.1589  2.8352
 8006SOL    MW431798   4.747   5.585   5.125  0.0423 -0.4638  0.3032
 8007SOL     OW31799   1.914   4.226   0.081  0.6455  0.0924  0.5842
 8007SOL    HW231800   1.881   4.300   0.030  2.2453  0.1717 -0.4268
 8007SOL    HW331801   2.008   4.244   0.090  1.4873 -2.7036 -1.3286
 8007SOL    MW431802   1.922   4.238   0.076  0.9676 -0.2661  0.1984
 8008SOL     OW31803   1.612   1.258   5.441 -0.2187 -0.0965 -0.0216
 8008SOL    HW231804   1.570   1.175   5.466 -0.3680 -0.4795 -1.4876
 8008SOL    HW331805   1.564   1.287   5.364  1.5742 -0.0541 -1.1617
 8008SOL    MW431806   1.600   1.251   5.434 -0.0018 -0.1415 -0.3655
 8009SOL     OW31807   2.893   0.794   4.983  0.6359 -0.0669 -0.3307
 8009SOL    HW231808   2.959   0.762   4.920  1.2636 -2.4794  1.4093
 8009SOL    HW331809   2.816   0.740   4.966  0.7326 -0.5686  0.7758
 8009SOL    MW431810   2.892   0.783   4.972  0.7315 -0.4514  0.0449
 8010SOL     OW31811   0.978   5.812   2.835  0.1761  0.1995 -0.0880
 8010SOL    HW231812   0.902   5.868   2.823  0.9232  1.4724  0.8140
 8010SOL    HW331813   1.040   5.841   2.767 -0.6835 -1.9419 -1.9199
 8010SOL    MW431814   0.976   5.823   2.824  0.1612  0.0849 -0.2107
 8011SOL     OW31815   4.281   4.178   1.540 -0.1580 -0.3981 -0.0947
 8011SOL    HW231816   4.295   4.255   1.486  1.3780 -0.4330  0.1965
 8011SOL    HW331817   4.357   4.176   1.598 -1.5803 -0.5338  1.8691
 8011SOL    MW431818   4.293   4.188   1.541 -0.1430 -0.4206  0.2028
 8012SOL     OW31819   1.702   0.341   0.245  0.1501  0.1638 -0.1764
 8012SOL    HW231820   1.767   0.271   0.252  0.3732  0.2380 -1.3269
 8012SOL    HW331821   1.626   0.309   0.293  0.0701 -1.0730 -1.1091
 8012SOL    MW431822   1.701   0.328   0.252  0.1690  0.0104 -0.4513
 8013SOL     OW31823   3.983   6.422   1.159 -0.7509 -1.1445 -0.3377
 8013SOL    HW231824   3.912   6.486   1.167  1.9826  1.8932  1.4337
 8013SOL    HW331825   4.062   6.474   1.150  1.5320 -4.3496 -0.4649
 8013SOL    MW431826   3.984   6.437   1.159 -0.0891 -1.1666 -0.1207
 8014SOL     OW31827   1.325   2.246   6.414 -0.0130 -0.0410 -0.0667
 8014SOL    HW231828   1.308   2.260   6.321 -2.8352 -0.2862  0.3158
 8014SOL    HW331829   1.289   2.324   6.457  1.9882  0.4565  0.8215
 8014SOL    MW431830   1.318   2.258   6.407 -0.1213 -0.0077  0.1009
 8015SOL     OW31831   4.503   1.032   4.309  0.4800  0.0652 -0.3408
 8015SOL    HW231832   4.488   1.038   4.403  0.1124  1.3759 -0.4612
 8015SOL    HW331833   4.561   0.956   4.299  1.4457  0.5786  1.0542
 8015SOL    MW431834   4.509   1.023   4.320  0.5589  0.3058 -0.1727
 8016SOL     OW31835   4.943   0.605   4.636 -0.1768  0.6279 -0.2074
 8016SOL    HW231836   4.978   0.523   4.602  0.4274  0.6729  0.2615
 8016SOL    HW331837   4.895   0.580   4.715 -0.9740  0.6005 -0.6950
 8016SOL    MW431838   4.942   0.591   4.642 -0.2023  0.6302 -0.2099
 8017SOL     OW31839   4.499   2.460   5.668 -0.4695  0.4676  0.4534
 8017SOL    HW231840   4.528   2.407   5.594 -1.2563  1.0686 -0.3100
 8017SOL    HW331841   4.468   2.396   5.732  1.9559 -0.1755  1.0939
 8017SOL    MW431842   4.499   2.444   5.666 -0.2533  0.4621  0.4372
 8018SOL     OW31843   1.558   4.726   3.248  0.0541 -0.4165  0.2604
 8018SOL    HW231844   1.617   4.663   3.206 -1.0569 -0.7815 -0.8025
 8018SOL    HW331845   1.576   4.809   3.203  1.6127  0.1207  1.7501
 8018SOL    MW431846   1.568   4.728   3.236  0.1132 -0.3938  0.3167
 8019SOL     OW31847   1.334   1.061   6.097 -0.2337  0.0479 -0.3577
 8019SOL    HW231848   1.364   0.992   6.038 -0.8305 -0.5446  0.0166
 8019SOL    HW331849   1.378   1.042   6.180 -1.6913 -0.9100  0.2351
 8019SOL    MW431850   1.344   1.049   6.100 -0.5047 -0.1567 -0.2301
 8020SOL     OW31851   6.087   6.179   2.293 -0.5218 -0.5206 -0.5236
 8020SOL    HW231852   6.156   6.118   2.267 -0.7826 -0.5470 -1.1807
 8020SOL    HW331853   6.032   6.128   2.354  1.4217  0.2700  2.0840
 8020SOL    MW431854   6.089   6.164   2.298 -0.2998 -0.4198 -0.2663
 8021SOL     OW31855   6.006   3.861   0.887 -0.6103  0.3132 -0.5691
 8021SOL    HW231856   5.935   3.903   0.935 -0.6604 -0.5308  0.1070
 8021SOL    HW331857   6.044   3.932   0.834  0.6503  1.7575  2.0682
 8021SOL    MW431858   6.002   3.876   0.886 -0.4506  0.3924 -0.1319
 8022SOL     OW31859   1.093   3.668   2.368  0.5833 -0.0081 -0.0057
 8022SOL    HW231860   1.004   3.701   2.380 -0.2649 -2.4322  1.1518
 8022SOL    HW331861   1.135   3.733   2.312 -1.5447  1.8060  0.3241
 8022SOL    MW431862   1.087   3.681   2.362  0.1906 -0.0886  0.1905
 8023SOL     OW31863   2.794   3.561   0.311 -0.3221  0.2265  0.3287
 8023SOL    HW231864   2.797   3.505   0.233  0.2586  0.7946 -0.0700
 8023SOL    HW331865   2.849   3.516   0.375 -1.5278 -0.7018  0.7370
 8023SOL    MW431866   2.802   3.548   0.309 -0.4045  0.1790  0.3299
 8024SOL     OW31867   4.883   3.748   0.991  0.6260 -0.0484 -0.2444
 8024SOL    HW231868   4.876   3.827   0.937 -0.1725  1.9727  2.5917
 8024SOL    HW331869   4.849   3.678   0.935 -2.7282  2.3485 -1.5221
 8024SOL    MW431870   4.877   3.749   0.976  0.0781  0.5345 -0.0388
 8025SOL     OW31871   5.385   2.981   4.742  0.2885 -0.6957  0.3145
 8025SOL    HW231872   5.309   3.010   4.793 -0.2368 -2.2005  0.4554
 8025SOL    HW331873   5.411   3.058   4.692 -1.3689 -0.1356  0.2349
 8025SOL    MW431874   5.378   2.995   4.742  0.0005 -0.8203  0.3226
 8026SOL     OW31875   1.525   0.541   1.102 -0.3655 -0.1130  0.5519
 8026SOL    HW231876   1.449   0.596   1.084 -0.8292 -1.1168 -0.7017
 8026SOL    HW331877   1.513   0.513   1.193  1.1969  3.7962  2.1892
 8026SOL    MW431878   1.513   0.545   1.112 -0.2206  0.2703  0.6025
 8027SOL     OW31879   4.058   5.548   3.139  0.4411 -0.8118  0.2715
 8027SOL    HW231880   3.979   5.585   3.180  0.0254 -1.9481  0.5239
 8027SOL    HW331881   4.092   5.619   3.085 -0.6400 -0.2336  0.3229
 8027SOL    MW431882   4.052   5.562   3.137  0.2436 -0.8855  0.3116
 8028SOL     OW31883   5.275   6.122   5.588 -0.0542 -0.7830  0.1842
 8028SOL    HW231884   5.281   6.064   5.512 -2.1511 -1.5250  0.5196
 8028SOL    HW331885   5.278   6.210   5.550  0.6829 -1.1168 -0.5729
 8028SOL    MW431886   5.276   6.126   5.573 -0.2336 -0.9250  0.1286
 8029SOL     OW31887   4.785   3.564   0.779 -0.3557 -0.0924  0.4428
 8029SOL    HW231888   4.690   3.570   0.777 -0.2634  1.7641 -0.1101
 8029SOL    HW331889   4.811   3.576   0.687  0.4609  0.9825  0.7974
 8029SOL    MW431890   4.776   3.566   0.767 -0.2358  0.2944  0.4166
 8030SOL     OW31891   2.694   2.265   0.863 -0.2894  0.7812  0.8293
 8030SOL    HW231892   2.611   2.221   0.881 -0.2158  0.1012 -0.3764
 8030SOL    HW331893   2.673   2.331   0.797  0.4414 -0.7593 -1.0307
 8030SOL    MW431894   2.681   2.268   0.857 -0.1833  0.4882  0.4248
 8031SOL     OW31895   5.082   4.066   1.942  0.1925 -0.1447 -0.1540
 8031SOL    HW231896   5.041   4.065   1.855  1.4478  0.5433 -0.7751
 8031SOL    HW331897   5.104   4.158   1.957  0.1641 -0.2921  0.8115
 8031SOL    MW431898   5.079   4.078   1.932  0.3544 -0.0734 -0.1086
 8032SOL     OW31899   1.928   5.461   2.638  0.2712  0.1429  0.0855
 8032SOL    HW231900   2.003   5.409   2.610  0.6625  0.7994 -0.1147
 8032SOL    HW331901   1.941   5.471   2.733 -0.7410 -1.5815  0.4468
 8032SOL    MW431902   1.940   5.455   2.647  0.1893  0.0020  0.1068
 8033SOL     OW31903   4.622   1.566   5.021  0.1684  0.5307  0.1013
 8033SOL    HW231904   4.639   1.548   5.113  1.5738  0.6699 -0.1199
 8033SOL    HW331905   4.535   1.529   5.006  0.9081 -1.6831  0.8868
 8033SOL    MW431906   4.612   1.559   5.031  0.4514  0.2570  0.1758
 8034SOL     OW31907   4.518   4.535   1.356 -0.1017  0.1445 -0.0195
 8034SOL    HW231908   4.557   4.607   1.406  0.2956  0.3264 -0.5872
 8034SOL    HW331909   4.563   4.537   1.272 -0.6618 -0.2538 -0.3344
 8034SOL    MW431910   4.529   4.545   1.351 -0.1232  0.1159 -0.1360
 8035SOL     OW31911   1.705   1.494   3.913 -0.2871 -0.0421  0.2274
 8035SOL    HW231912   1.794   1.486   3.879  0.3034  0.9620  1.4595
 8035SOL    HW331913   1.651   1.449   3.848  1.0097  0.0634 -0.9841
 8035SOL    MW431914   1.710   1.487   3.900 -0.0381  0.1043  0.2301
 8036SOL     OW31915   1.537   0.507   3.463 -0.5358  0.2136  0.0961
 8036SOL    HW231916   1.449   0.539   3.484  0.2252  1.3261  1.8024
 8036SOL    HW331917   1.524   0.414   3.441 -2.3845  0.8474 -1.8120
 8036SOL    MW431918   1.523   0.499   3.463 -0.6793  0.4440  0.0695
 8037SOL     OW31919   0.764   6.240   2.206  0.5794 -0.7646  0.1306
 8037SOL    HW231920   0.815   6.242   2.125  0.0410  2.0557 -0.2265
 8037SOL    HW331921   0.726   6.152   2.208  0.8076 -1.0037 -2.5524
 8037SOL    MW431922   0.766   6.228   2.196  0.5385 -0.4240 -0.2705
 8038SOL     OW31923   3.119   0.121   4.341  0.1799 -0.6916  0.7097
 8038SOL    HW231924   3.184   0.110   4.272  2.4176 -1.4483  2.8163
 8038SOL    HW331925   3.144   0.057   4.408 -2.8146 -1.0804  1.6159
 8038SOL    MW431926   3.131   0.111   4.341  0.0800 -0.8427  1.1072
 8039SOL     OW31927   1.432   0.887   3.321 -0.2222  0.5200  0.4549
 8039SOL    HW231928   1.408   0.972   3.284 -0.1412  0.4737  0.2961
 8039SOL    HW331929   1.428   0.900   3.416 -0.0668  0.7434  0.4318
 8039SOL    MW431930   1.428   0.900   3.329 -0.1910  0.5433  0.4309
 8040SOL     OW31931   1.570   2.236   4.534 -0.2090  0.3335 -0.0490
 8040SOL    HW231932   1.554   2.326   4.507 -1.2816 -0.0805 -0.8585
 8040SOL    HW331933   1.523   2.226   4.616 -1.7651 -0.0300 -0.9473
 8040SOL    MW431934   1.562   2.246   4.541 -0.5558  0.2309 -0.2743
 8041SOL     OW31935   0.126   3.352   6.218  0.0140  0.0927 -0.0518
 8041SOL    HW231936   0.065   3.416   6.180 -0.3323 -0.6429 -0.7673
 8041SOL    HW331937   0.195   3.406   6.256  1.4776  0.9311 -3.4882
 8041SOL    MW431938   0.127   3.368   6.218  0.1614  0.1062 -0.5996
 8042SOL     OW31939   4.224   0.095   4.168 -0.2173 -0.5357  0.2987
 8042SOL    HW231940   4.318   0.108   4.178 -0.1820 -0.6617  0.1350
 8042SOL    HW331941   4.216   0.030   4.098 -0.4482  0.0870 -0.2628
 8042SOL    MW431942   4.235   0.088   4.160 -0.2431 -0.4702  0.2030
 8043SOL     OW31943   2.519   0.220   2.508 -0.0918 -0.0972 -0.6178
 8043SOL    HW231944   2.548   0.129   2.504 -0.9507 -0.4885  1.1063
 8043SOL    HW331945   2.426   0.215   2.530  0.4905  1.1258  2.7492
 8043SOL    MW431946   2.511   0.207   2.511 -0.1283  0.0126  0.0539
 8044SOL     OW31947   5.138   1.800   0.639  0.3664 -0.3561  0.6490
 8044SOL    HW231948   5.091   1.883   0.646 -0.9091 -0.9197 -0.7230
 8044SOL    HW331949   5.097   1.744   0.705 -0.1988 -0.5273  0.1590
 8044SOL    MW431950   5.127   1.804   0.649  0.1236 -0.4530  0.4034
 8045SOL     OW31951   2.808   5.386   0.564 -0.4017  0.1585  0.4426
 8045SOL    HW231952   2.731   5.344   0.602 -1.2519  1.0780 -0.2174
 8045SOL    HW331953   2.882   5.341   0.605 -1.2788  0.1737  2.1459
 8045SOL    MW431954   2.808   5.375   0.575 -0.6296  0.2818  0.5803
 8046SOL     OW31955   2.580   5.611   4.045  0.0963 -0.6998 -0.2609
 8046SOL    HW231956   2.624   5.528   4.064 -0.0099 -1.4747 -3.0249
 8046SOL    HW331957   2.620   5.641   3.964 -1.9711  0.4007 -0.9310
 8046SOL    MW431958   2.591   5.604   4.037 -0.1905 -0.6568 -0.7140
 8047SOL     OW31959   5.290   4.987   2.979  0.4799 -0.3960  0.0795
 8047SOL    HW231960   5.351   5.013   2.910 -1.1677  0.1005 -1.2729
 8047SOL    HW331961   5.338   5.002   3.061  2.4706 -0.9333 -0.9291
 8047SOL    MW431962   5.304   4.992   2.981  0.5252 -0.4014 -0.2320
 8048SOL     OW31963   0.542   3.818   2.437  0.0054 -0.3946  0.1177
 8048SOL    HW231964   0.473   3.875   2.403 -0.2228 -1.1492 -0.7398
 8048SOL    HW331965   0.623   3.852   2.398 -0.0183 -0.1633  0.2668
 8048SOL    MW431966   0.544   3.830   2.427 -0.0279 -0.4637  0.0242
 8049SOL     OW31967   2.134   4.436   1.534 -0.6929  0.1667  0.7924
 8049SOL    HW231968   2.101   4.382   1.462  1.0106  1.9762 -1.4795
 8049SOL    HW331969   2.106   4.389   1.613 -2.2238 -2.1877 -0.9988
 8049SOL    MW431970   2.126   4.423   1.535 -0.6702  0.0948  0.2563
 8050SOL     OW31971   4.033   2.443   5.967 -0.3648  0.4314 -0.1246
 8050SOL    HW231972   4.085   2.421   5.890 -0.3206 -1.2112  0.3340
 8050SOL    HW331973   4.042   2.538   5.975  0.5108  0.5029 -1.5018
 8050SOL    MW431974   4.041   2.453   5.958 -0.2434  0.2241 -0.2458
 8051SOL     OW31975   4.378   3.576   1.755 -0.1170 -0.0832 -0.1033
 8051SOL    HW231976   4.442   3.506   1.741 -0.9455 -0.7623 -0.6311
 8051SOL    HW331977   4.299   3.531   1.784  0.3188  0.9462  2.9574
 8051SOL    MW431978   4.376   3.561   1.757 -0.1688 -0.0370  0.2309
 8052SOL     OW31979   5.836   0.543   1.910 -0.3239  0.5127 -0.2884
 8052SOL    HW231980   5.897   0.613   1.888 -0.3719  0.3760 -0.8730
 8052SOL    HW331981   5.891   0.472   1.944 -0.3926  1.3609  1.7729
 8052SOL    MW431982   5.851   0.543   1.912 -0.3393  0.6065 -0.0936
 8053SOL     OW31983   5.632   4.241   4.772 -0.0516 -0.4960  0.1825
 8053SOL    HW231984   5.560   4.178   4.772  0.6101 -1.2558 -0.5992
 8053SOL    HW331985   5.687   4.216   4.699  0.5308  0.6535  0.2018
 8053SOL    MW431986   5.630   4.229   4.763  0.1126 -0.4446  0.0819
 8054SOL     OW31987   3.924   3.412   3.472  0.1523 -0.3006  0.0610
 8054SOL    HW231988   3.914   3.367   3.388 -2.3804  0.2178 -0.0053
 8054SOL    HW331989   3.857   3.373   3.528  1.4823 -0.3050  1.7252
 8054SOL    MW431990   3.914   3.401   3.468 -0.0064 -0.2328  0.2718
 8055SOL     OW31991   4.416   5.491   5.429 -0.5288 -0.9819  0.1443
 8055SOL    HW231992   4.365   5.416   5.399  0.5504 -1.6823  0.0259
 8055SOL    HW331993   4.507   5.464   5.421 -0.1171  0.2837  0.2587
 8055SOL    MW431994   4.421   5.478   5.424 -0.3321 -0.9074  0.1438
 8056SOL     OW31995   2.095   0.403   4.373  0.2903 -0.3220 -0.1452
 8056SOL    HW231996   2.184   0.371   4.359 -0.1847 -1.1439 -1.5083
 8056SOL    HW331997   2.097   0.494   4.344  0.6937 -0.3312 -0.1461
 8056SOL    MW431998   2.107   0.410   4.368  0.2809 -0.4317 -0.3251
 8057SOL     OW31999   3.588   3.729   3.361  0.2915 -0.1646 -0.3404
 8057SOL    HW232000   3.543   3.694   3.438 -0.1068  1.7100  0.3221
 8057SOL    HW332001   3.681   3.722   3.383  0.1725  0.6265  0.4401
 8057SOL    MW432002   3.594   3.723   3.374  0.2232  0.1871 -0.1500
 8058SOL     OW32003   2.535   0.797   6.245 -0.1851 -0.6099 -0.1799
 8058SOL    HW232004   2.573   0.831   6.326 -0.1360 -0.3182 -0.3261
 8058SOL    HW332005   2.443   0.822   6.249  0.4007  2.0436 -1.5935
 8058SOL    MW432006   2.528   0.804   6.256 -0.1013 -0.2213 -0.3857
 8059SOL     OW32007   3.639   0.314   3.071 -0.3384  0.5734 -0.4247
 8059SOL    HW232008   3.726   0.277   3.086 -0.3560 -0.5830 -2.6415
 8059SOL    HW332009   3.593   0.245   3.022 -2.0440  1.6911 -0.4613
 8059SOL    MW432010   3.644   0.300   3.066 -0.5657  0.5683 -0.7220
 8060SOL     OW32011   0.187   5.519   2.385 -0.4576 -0.9344 -0.6490
 8060SOL    HW232012   0.278   5.522   2.414 -0.8513 -0.4688  0.6310
 8060SOL    HW332013   0.149   5.600   2.420 -0.8935 -0.1417 -2.8282
 8060SOL    MW432014   0.194   5.530   2.394 -0.5671 -0.7684 -0.7676
 8061SOL     OW32015   0.240   5.826   4.391  0.2109 -0.3549  0.7691
 8061SOL    HW232016   0.208   5.742   4.424  0.0953 -1.2273 -1.3589
 8061SOL    HW332017   0.324   5.805   4.349 -0.7919  0.1099 -1.6362
 8061SOL    MW432018   0.247   5.812   4.390  0.0633 -0.4086  0.1710
 8062SOL     OW32019   6.393   5.067   2.166  0.7520 -0.4361 -0.5013
 8062SOL    HW232020   6.465   5.005   2.177  1.1088  0.1146  0.4007
 8062SOL    HW332021   6.371   5.095   2.255  0.6555  0.7820 -0.8825
 8062SOL    MW432022   6.400   5.063   2.179  0.7864 -0.2027 -0.4326
 8063SOL     OW32023   2.232   2.900   3.219  0.2025 -0.2918 -0.1482
 8063SOL    HW232024   2.174   2.826   3.233 -0.6578  0.2705 -0.6272
 8063SOL    HW332025   2.308   2.863   3.175 -0.0533 -0.9478 -0.0433
 8063SOL    MW432026   2.235   2.885   3.215  0.0553 -0.3042 -0.1976
 8064SOL     OW32027   2.173   5.912   3.204  0.0603  0.1147  0.2636
 8064SOL    HW232028   2.093   5.942   3.247 -0.6130 -2.9483  1.4421
 8064SOL    HW332029   2.145   5.885   3.117  0.2168  0.7105  0.0199
 8064SOL    MW432030   2.159   5.912   3.198 -0.0079 -0.2108  0.3869
 8065SOL     OW32031   6.320   1.147   2.127 -0.2900 -0.1790  0.2187
 8065SOL    HW232032   6.289   1.191   2.206 -1.2127 -0.0983 -0.1703
 8065SOL    HW332033   6.315   1.054   2.147 -2.0030 -0.2304 -0.2265
 8065SOL    MW432034   6.315   1.141   2.140 -0.6377 -0.1751  0.1086
 8066SOL     OW32035   1.060   0.623   1.297  0.1746 -0.2949  0.6230
 8066SOL    HW232036   1.104   0.681   1.359 -1.8036  0.7945  1.0799
 8066SOL    HW332037   1.052   0.540   1.343  1.9814 -0.6450  0.3963
 8066SOL    MW432038   1.065   0.620   1.311  0.1520 -0.1974  0.6534
 8067SOL     OW32039   2.052   5.480   6.378  0.1250  0.1575 -0.5462
 8067SOL    HW232040   2.130   5.493   6.324 -0.1913 -0.1376 -1.0879
 8067SOL    HW332041   2.027   5.389   6.361 -0.0783  0.1184 -0.0314
 8067SOL    MW432042   2.059   5.469   6.368  0.0564  0.1134 -0.5498
 8068SOL     OW32043   1.688   4.068   6.123 -0.7970  0.2301 -0.4661
 8068SOL    HW232044   1.782   4.051   6.131 -0.9657 -0.8550 -0.6517
 8068SOL    HW332045   1.678   4.100   6.033 -0.7622 -0.9439 -0.9148
 8068SOL    MW432046   1.699   4.070   6.112 -0.8147 -0.0679 -0.5498
 8069SOL     OW32047   5.293   4.015   3.186 -0.4619 -0.1979  0.2120
 8069SOL    HW232048   5.272   4.008   3.093  1.1146 -1.6011 -0.0906
 8069SOL    HW332049   5.281   4.108   3.206 -2.4590 -0.1581 -0.9431
 8069SOL    MW432050   5.289   4.027   3.176 -0.5174 -0.3778  0.0196
 8070SOL     OW32051   5.198   2.583   5.686 -0.4539  0.1607  0.3467
 8070SOL    HW232052   5.114   2.588   5.731 -1.4619 -0.4090 -1.3823
 8070SOL    HW332053   5.205   2.492   5.657  0.2560  0.4425 -0.4204
 8070SOL    MW432054   5.188   2.572   5.688 -0.4932  0.1227  0.0173
 8071SOL     OW32055   1.452   4.365   0.084  0.3335  0.3050  0.5450
 8071SOL    HW232056   1.501   4.311   0.147 -0.8725 -0.1426  1.1423
 8071SOL    HW332057   1.445   4.310   0.006  0.3706  0.1821  0.6273
 8071SOL    MW432058   1.457   4.350   0.082  0.1793  0.2297  0.6346
 8072SOL     OW32059   5.905   4.835   4.599  0.0679 -0.2028  0.1950
 8072SOL    HW232060   5.933   4.859   4.511 -2.1468  0.6766 -0.3643
 8072SOL    HW332061   5.884   4.742   4.594  0.1224 -0.1951 -0.1677
 8072SOL    MW432062   5.906   4.826   4.587 -0.2171 -0.0858  0.0733
 8073SOL     OW32063   1.576   0.383   1.585  0.1425 -0.0094 -0.6179
 8073SOL    HW232064   1.566   0.300   1.632  0.6031 -1.0884 -2.3642
 8073SOL    HW332065   1.670   0.392   1.571  0.2193  1.3985  0.4997
 8073SOL    MW432066   1.587   0.373   1.589  0.2134  0.0340 -0.7009
 8074SOL     OW32067   0.009   1.873   3.082 -0.0139  0.4283  0.1093
 8074SOL    HW232068  -0.014   1.960   3.050 -3.6385  0.1154  1.3369
 8074SOL    HW332069  -0.023   1.813   3.014  1.1678 -0.0164 -0.0753
 8074SOL    MW432070   0.002   1.877   3.069 -0.3362  0.3284  0.2469
 8075SOL     OW32071   5.656   5.558   6.186 -0.2937 -0.3472  0.0229
 8075SOL    HW232072   5.706   5.638   6.198 -1.4634  0.4295 -0.1339
 8075SOL    HW332073   5.618   5.540   6.273 -2.2939  0.8572 -0.5325
 8075SOL    MW432074   5.658   5.566   6.199 -0.7119 -0.0858 -0.0711
 8076SOL     OW32075   1.597   0.662   6.026 -0.4510 -0.0845  0.3955
 8076SOL    HW232076   1.629   0.642   5.938 -0.9128 -1.9952  0.6245
 8076SOL    HW332077   1.665   0.718   6.064 -0.5113  1.2471 -1.3443
 8076SOL    MW432078   1.611   0.667   6.019 -0.5199 -0.1610  0.1962
 8077SOL     OW32079   3.968   0.135   5.816 -0.3993  0.3223  0.2660
 8077SOL    HW232080   3.964   0.058   5.872  0.3778  1.5124  2.0398
 8077SOL    HW332081   3.981   0.208   5.876  0.9698  1.6171 -1.5053
 8077SOL    MW432082   3.969   0.135   5.831 -0.1161  0.6501  0.2663
 8078SOL     OW32083   3.027   4.421   5.861  0.5001 -0.6834 -0.0091
 8078SOL    HW232084   2.957   4.357   5.846 -0.7818  0.2025  1.7955
 8078SOL    HW332085   3.052   4.449   5.773  0.7053 -3.1744 -0.8328
 8078SOL    MW432086   3.021   4.416   5.847  0.3580 -0.8952  0.1203
 8079SOL     OW32087   0.771   1.572   0.407 -0.3235  0.4879 -0.5134
 8079SOL    HW232088   0.848   1.561   0.352 -0.4479  0.6795 -0.7311
 8079SOL    HW332089   0.744   1.483   0.430 -1.6562  0.2588 -2.7008
 8079SOL    MW432090   0.778   1.559   0.403 -0.5157  0.4829 -0.8307
 8080SOL     OW32091   2.374   0.221   1.900 -0.1357  0.0955 -0.3078
 8080SOL    HW232092   2.445   0.178   1.948 -0.2376 -0.7928 -0.9209
 8080SOL    HW332093   2.300   0.222   1.961 -0.3563 -1.2996 -0.5016
 8080SOL    MW432094   2.373   0.215   1.914 -0.1782 -0.2057 -0.4143
 8081SOL     OW32095   2.881   5.092   4.533  0.1577 -0.1611 -0.7207
 8081SOL    HW232096   2.944   5.020   4.527  0.6738  0.0241  1.5077
 8081SOL    HW332097   2.887   5.137   4.449  2.3453 -0.7051 -0.9063
 8081SOL    MW432098   2.890   5.088   4.521  0.5144 -0.2084 -0.4512
 8082SOL     OW32099   3.680   2.574   4.001  0.2478 -0.1850  0.5023
 8082SOL    HW232100   3.642   2.490   3.976  0.2983 -0.4493  1.2860
 8082SOL    HW332101   3.679   2.626   3.921  0.4516 -1.0223 -0.0488
 8082SOL    MW432102   3.675   2.570   3.987  0.2814 -0.3303  0.5330
 8083SOL     OW32103   4.495   4.679   3.377  0.4834  0.2209  0.4378
 8083SOL    HW232104   4.508   4.756   3.322  0.7730 -0.2935 -0.2254
 8083SOL    HW332105   4.411   4.643   3.348 -0.9540  1.7150  2.5052
 8083SOL    MW432106   4.485   4.684   3.366  0.3319  0.3502  0.6231
 8084SOL     OW32107   4.544   5.214   5.012 -0.2678  0.1851  0.1676
 8084SOL    HW232108   4.526   5.157   4.938  0.7328  1.1826 -0.8748
 8084SOL    HW332109   4.586   5.157   5.076 -0.1320 -0.4527 -0.4787
 8084SOL    MW432110   4.547   5.199   5.011 -0.1179  0.2326 -0.0552
 8085SOL     OW32111   6.206   4.191   5.197  0.0326 -1.1342 -0.3118
 8085SOL    HW232112   6.162   4.276   5.202  0.3005 -1.0033 -0.1604
 8085SOL    HW332113   6.161   4.146   5.126  0.7933 -0.3283 -1.3479
 8085SOL    MW432114   6.194   4.197   5.188  0.1683 -1.0106 -0.4285
 8086SOL     OW32115   3.318   1.457   5.912  0.6063  0.4100 -0.1574
 8086SOL    HW232116   3.315   1.541   5.866  1.5065  1.2540  1.2109
 8086SOL    HW332117   3.239   1.411   5.884  0.5776  1.3116 -1.6684
 8086SOL    MW432118   3.307   1.462   5.903  0.7212  0.6403 -0.1762
 8087SOL     OW32119   1.374   5.330   0.209 -0.3491 -0.6400  0.1078
 8087SOL    HW232120   1.397   5.422   0.214  0.7816 -0.9571  1.9883
 8087SOL    HW332121   1.278   5.328   0.217 -0.5778  0.4314 -1.9827
 8087SOL    MW432122   1.364   5.342   0.211 -0.2301 -0.5405  0.0801
 8088SOL     OW32123   2.111   1.212   3.632 -0.1577 -0.3608 -0.4837
 8088SOL    HW232124   2.152   1.235   3.716  0.4017  0.7522 -1.0495
 8088SOL    HW332125   2.083   1.121   3.644 -0.4853 -0.0975  1.0662
 8088SOL    MW432126   2.113   1.203   3.645 -0.1271 -0.1792 -0.3538
 8089SOL     OW32127   0.120   5.278   2.085 -0.2046  0.1429  0.0718
 8089SOL    HW232128   0.196   5.278   2.142  0.2523 -1.0473 -0.5058
 8089SOL    HW332129   0.072   5.198   2.109  0.2845 -0.6736 -1.5647
 8089SOL    MW432130   0.123   5.267   2.096 -0.0798 -0.1218 -0.2203
 8090SOL     OW32131   4.282   0.293   0.488 -0.3438  0.5279 -0.6682
 8090SOL    HW232132   4.275   0.202   0.518  1.5423  1.0308  1.5260
 8090SOL    HW332133   4.232   0.344   0.552  0.0974  1.2240 -0.8699
 8090SOL    MW432134   4.274   0.288   0.500 -0.0367  0.6861 -0.4053
 8091SOL     OW32135   3.109   3.365   1.655 -0.1908  0.0125  0.6498
 8091SOL    HW232136   3.196   3.391   1.627 -0.7942 -0.8530 -2.4868
 8091SOL    HW332137   3.110   3.269   1.651 -1.0657 -0.0427  1.3825
 8091SOL    MW432138   3.120   3.356   1.651 -0.3858 -0.1090  0.3326
 8092SOL     OW32139   2.367   2.154   0.341 -0.1896 -0.1411  0.3201
 8092SOL    HW232140   2.300   2.136   0.407  0.1002 -0.2830  0.5754
 8092SOL    HW332141   2.325   2.132   0.258 -0.9264  1.0273  0.3500
 8092SOL    MW432142   2.352   2.149   0.339 -0.2486 -0.0057  0.3577
 8093SOL     OW32143   2.273   0.844   0.185  0.0512 -0.1302  0.4717
 8093SOL    HW232144   2.282   0.870   0.276 -1.9502 -0.9416  0.9651
 8093SOL    HW332145   2.313   0.916   0.135  2.0837 -0.1436  1.9690
 8093SOL    MW432146   2.279   0.857   0.190  0.0553 -0.2390  0.7343
 8094SOL     OW32147   3.734   5.306   5.413 -0.3391  0.1989  0.4984
 8094SOL    HW232148   3.772   5.356   5.485  1.4803  0.7713 -0.7911
 8094SOL    HW332149   3.694   5.230   5.456 -0.1949  1.0069  2.1771
 8094SOL    MW432150   3.733   5.303   5.428 -0.0801  0.3810  0.5498
 8095SOL     OW32151   6.081   0.610   5.957 -0.1767  0.7135  0.0379
 8095SOL    HW232152   6.032   0.572   6.029 -0.5675 -0.2025 -0.6895
 8095SOL    HW332153   6.162   0.559   5.953  0.4599  1.6271  0.6514
 8095SOL    MW432154   6.086   0.598   5.966 -0.1443  0.7132  0.0229
 8096SOL     OW32155   1.689   5.590   4.687  0.5578 -0.2810  0.3305
 8096SOL    HW232156   1.683   5.658   4.620  1.3721  0.3876  0.9209
 8096SOL    HW332157   1.699   5.638   4.769  0.6754 -1.1107  0.8123
 8096SOL    MW432158   1.689   5.605   4.689  0.6807 -0.3022  0.4720
 8097SOL     OW32159   0.308   4.365   2.951 -0.0635 -0.0448  0.2211
 8097SOL    HW232160   0.341   4.443   2.905  1.4275 -0.0469  1.2000
 8097SOL    HW332161   0.237   4.398   3.005  0.6190  0.6809  0.7011
 8097SOL    MW432162   0.303   4.380   2.952  0.2233  0.0507  0.4136
 8098SOL     OW32163   1.378   6.069   4.154 -0.0574  0.1650  0.8853
 8098SOL    HW232164   1.364   6.159   4.183  0.7242  0.5497  0.1019
 8098SOL    HW332165   1.346   6.016   4.227 -1.4984  1.0411  0.9485
 8098SOL    MW432166   1.372   6.074   4.168 -0.1444  0.3314  0.7903
 8099SOL     OW32167   0.054   1.285   1.953 -0.2150 -0.2981 -0.6544
 8099SOL    HW232168  -0.015   1.348   1.931  1.7180  2.3063  0.2024
 8099SOL    HW332169   0.014   1.228   2.019 -2.2049 -0.3583 -1.8355
 8099SOL    MW432170   0.040   1.286   1.959 -0.2225  0.0376 -0.6972
 8100SOL     OW32171   5.772   0.738   5.606  0.1620 -0.0108 -0.1490
 8100SOL    HW232172   5.691   0.716   5.561  0.3449 -0.0773 -0.4523
 8100SOL    HW332173   5.815   0.654   5.620  0.1545  0.0198  0.0572
 8100SOL    MW432174   5.767   0.724   5.602  0.1851 -0.0155 -0.1618
 8101SOL     OW32175   0.806   4.672   1.561  0.1502 -0.1239 -0.4264
 8101SOL    HW232176   0.795   4.766   1.567  1.6988  0.0907 -0.4975
 8101SOL    HW332177   0.755   4.637   1.634  0.4539  0.8578  0.2808
 8101SOL    MW432178   0.798   4.679   1.572  0.3946  0.0340 -0.3425
 8102SOL     OW32179   2.789   5.312   0.283 -0.5444 -0.5861  0.1684
 8102SOL    HW232180   2.829   5.225   0.271  1.1041  0.2796 -1.0759
 8102SOL    HW332181   2.809   5.335   0.374 -0.9988 -1.5014  0.5101
 8102SOL    MW432182   2.797   5.303   0.294 -0.3868 -0.5926  0.0493
 8103SOL     OW32183   1.078   6.176   0.998 -0.2193 -0.2379 -0.1322
 8103SOL    HW232184   1.120   6.094   1.027  1.9677  1.6347  2.5249
 8103SOL    HW332185   1.016   6.197   1.067  1.2671  1.7040  0.6751
 8103SOL    MW432186   1.075   6.168   1.011  0.2653  0.2654  0.3249
 8104SOL     OW32187   3.949   2.942   6.084  0.2904  0.0928  0.1508
 8104SOL    HW232188   3.902   2.909   6.161  0.5564  0.8136  0.6194
 8104SOL    HW332189   3.928   3.035   6.080  2.2228  0.5979  0.7670
 8104SOL    MW432190   3.940   2.950   6.094  0.5804  0.2545  0.2939
 8105SOL     OW32191   3.362   4.939   0.252  0.2728 -0.2672 -0.0372
 8105SOL    HW232192   3.302   5.005   0.288  0.1602  0.8632 -2.1377
 8105SOL    HW332193   3.345   4.860   0.304 -2.5665  0.1950 -0.1313
 8105SOL    MW432194   3.352   4.938   0.264 -0.1167 -0.0571 -0.3267
 8106SOL     OW32195   0.268   4.119   3.979 -0.0735  0.0863 -0.0668
 8106SOL    HW232196   0.311   4.197   4.013 -1.8165  0.7321  0.7828
 8106SOL    HW332197   0.297   4.049   4.038  0.1070  0.4240  0.2508
 8106SOL    MW432198   0.278   4.120   3.991 -0.2796  0.2161  0.0872
 8107SOL     OW32199   5.563   0.448   1.087  0.0809  0.1407  0.6686
 8107SOL    HW232200   5.513   0.410   1.014  0.3857  1.1813 -0.1044
 8107SOL    HW332201   5.498   0.497   1.138  0.1369  0.7131  0.1981
 8107SOL    MW432202   5.548   0.449   1.084  0.1285  0.3535  0.5046
 8108SOL     OW32203   4.842   3.785   5.693  0.2207 -0.3991  0.2147
 8108SOL    HW232204   4.903   3.806   5.763 -0.7868 -0.5620  1.1585
 8108SOL    HW332205   4.757   3.814   5.725 -0.0800  0.7416 -1.4921
 8108SOL    MW432206   4.839   3.791   5.706  0.0481 -0.2701  0.1140
 8109SOL     OW32207   5.084   3.466   5.287 -0.1008  0.1904 -1.3034
 8109SOL    HW232208   5.139   3.506   5.219  1.1754 -0.0575 -0.4470
 8109SOL    HW332209   5.052   3.540   5.338  2.2468  0.2375  0.2738
 8109SOL    MW432210   5.087   3.481   5.285  0.3773  0.1639 -0.9823
 8110SOL     OW32211   4.861   2.705   3.077 -0.2038  0.1898 -0.0534
 8110SOL    HW232212   4.941   2.758   3.082 -0.3381  0.4024 -0.1665
 8110SOL    HW332213   4.892   2.620   3.044 -0.3693  1.0694 -2.7940
 8110SOL    MW432214   4.876   2.701   3.073 -0.2434  0.3339 -0.4299
 8111SOL     OW32215   3.147   4.122   5.920 -0.2365  0.5318  0.1138
 8111SOL    HW232216   3.168   4.073   5.999 -0.2566 -0.7750 -0.6581
 8111SOL    HW332217   3.215   4.189   5.914  0.5308 -0.1942  0.5347
 8111SOL    MW432218   3.159   4.124   5.929 -0.1379  0.2636  0.0675
 8112SOL     OW32219   0.240   1.546   5.931 -0.1241  0.0357 -0.9133
 8112SOL    HW232220   0.210   1.455   5.934 -0.4054  0.1511  0.7678
 8112SOL    HW332221   0.335   1.540   5.924 -0.0461 -0.4183  0.3739
 8112SOL    MW432222   0.248   1.533   5.931 -0.1509 -0.0090 -0.5217
 8113SOL     OW32223   0.672   5.565   0.017 -0.0991 -0.0128 -0.1098
 8113SOL    HW232224   0.588   5.545  -0.023 -0.2685 -2.4290  1.2247
 8113SOL    HW332225   0.716   5.623  -0.045 -1.2430 -1.6843 -2.6466
 8113SOL    MW432226   0.667   5.570   0.004 -0.2724 -0.5521 -0.2684
 8114SOL     OW32227   6.229   0.281   0.721  0.1640  0.2253 -0.9640
 8114SOL    HW232228   6.185   0.333   0.654 -1.8211  0.8632  0.7291
 8114SOL    HW332229   6.257   0.202   0.675  1.6451  1.9148 -3.1802
 8114SOL    MW432230   6.227   0.277   0.706  0.0975  0.5324 -1.0330
 8115SOL     OW32231   4.274   4.917   2.906 -0.1893 -0.3690  0.4404
 8115SOL    HW232232   4.297   4.976   2.978  1.7804 -1.4284  0.7532
 8115SOL    HW332233   4.234   4.974   2.841  2.8502  1.6926  0.1326
 8115SOL    MW432234   4.272   4.932   2.907  0.4716 -0.2368  0.4411
 8116SOL     OW32235   2.172   4.586   2.817  0.1466  0.3889 -0.0245
 8116SOL    HW232236   2.115   4.630   2.880 -0.9391 -2.4951  1.1772
 8116SOL    HW332237   2.122   4.587   2.735 -0.3787  0.3812  0.2896
 8116SOL    MW432238   2.158   4.592   2.815 -0.0659  0.0074  0.1755
 8117SOL     OW32239   3.224   2.884   1.085 -0.0694  0.7168 -0.0254
 8117SOL    HW232240   3.137   2.885   1.124 -1.3270 -0.3815 -2.5400
 8117SOL    HW332241   3.230   2.967   1.037  0.0863  0.6118 -0.1904
 8117SOL    MW432242   3.213   2.895   1.084 -0.2148  0.5581 -0.3790
 8118SOL     OW32243   3.514   2.442   3.093 -0.1250  0.1481 -0.2206
 8118SOL    HW232244   3.422   2.432   3.116 -0.6202  0.3065 -1.9552
 8118SOL    HW332245   3.530   2.372   3.029  1.3196 -0.6609  0.9570
 8118SOL    MW432246   3.504   2.431   3.087  0.0002  0.0623 -0.2941
 8119SOL     OW32247   3.713   4.039   3.138  0.2173 -0.8467 -0.7429
 8119SOL    HW232248   3.662   4.100   3.191 -1.5494 -1.2457 -1.8950
 8119SOL    HW332249   3.793   4.023   3.189 -0.1031  0.9954  0.4034
 8119SOL    MW432250   3.717   4.045   3.152 -0.0580 -0.6563 -0.7436
 8120SOL     OW32251   3.982   1.219   2.928 -0.7432 -0.1082  0.0621
 8120SOL    HW232252   3.926   1.155   2.886  0.1222 -0.1669 -1.0467
 8120SOL    HW332253   3.950   1.304   2.896 -0.1040 -0.1513 -0.7197
 8120SOL    MW432254   3.971   1.222   2.919 -0.5447 -0.1216 -0.1873
 8121SOL     OW32255   3.561   2.511   4.847 -0.1768 -0.4120  0.0142
 8121SOL    HW232256   3.594   2.476   4.764 -2.9903 -1.1494 -0.9133
 8121SOL    HW332257   3.521   2.595   4.823 -1.3564 -0.8138  0.4982
 8121SOL    MW432258   3.560   2.517   4.833 -0.7036 -0.5623 -0.0443
 8122SOL     OW32259   0.322   4.895   4.884  0.4801  0.6345  0.3612
 8122SOL    HW232260   0.361   4.905   4.971  0.7541  1.9587  0.1080
 8122SOL    HW332261   0.393   4.917   4.823 -0.4500  2.5795 -0.1092
 8122SOL    MW432262   0.337   4.899   4.888  0.3935  1.0658  0.2657
 8123SOL     OW32263   3.429   2.889   2.630  0.2747 -0.3502  0.2152
 8123SOL    HW232264   3.415   2.811   2.684  0.7616 -0.9088 -0.4447
 8123SOL    HW332265   3.512   2.925   2.662 -0.3116  0.3328  1.0162
 8123SOL    MW432266   3.438   2.884   2.641  0.2616 -0.3338  0.2338
 8124SOL     OW32267   5.128   4.355   3.668 -0.0594 -0.3542 -0.0878
 8124SOL    HW232268   5.038   4.349   3.699  0.0151 -1.4852 -0.0576
 8124SOL    HW332269   5.151   4.266   3.641  0.9331 -0.0167 -0.4235
 8124SOL    MW432270   5.119   4.343   3.669  0.0814 -0.4589 -0.1281
 8125SOL     OW32271   2.277   6.051   2.286  0.1218 -0.1481 -0.0132
 8125SOL    HW232272   2.248   5.961   2.296 -0.8109  0.1832  0.4070
 8125SOL    HW332273   2.209   6.103   2.330  1.7098  0.6321  1.6826
 8125SOL    MW432274   2.264   6.046   2.293  0.2082 -0.0015  0.2659
 8126SOL     OW32275   2.265   6.263   2.566 -0.0918  0.0968 -0.0392
 8126SOL    HW232276   2.279   6.321   2.641  0.1755 -1.4017  1.1154
 8126SOL    HW332277   2.333   6.197   2.573  0.2196  0.1626 -1.8920
 8126SOL    MW432278   2.276   6.262   2.577 -0.0155 -0.0922 -0.1314
 8127SOL     OW32279   1.072   5.664   5.809 -0.1911 -0.3325 -0.0532
 8127SOL    HW232280   0.977   5.652   5.808 -0.1814 -0.3815 -0.3055
 8127SOL    HW332281   1.085   5.759   5.801 -0.2281 -0.2800  0.4437
 8127SOL    MW432282   1.061   5.675   5.808 -0.1947 -0.3321 -0.0209
 8128SOL     OW32283   5.858   5.185   2.462  0.1066  0.0693 -0.2053
 8128SOL    HW232284   5.894   5.099   2.438  0.6676  0.0218  0.7517
 8128SOL    HW332285   5.815   5.216   2.382  1.1200 -0.4750 -0.9873
 8128SOL    MW432286   5.857   5.178   2.448  0.3143 -0.0088 -0.1822
 8129SOL     OW32287   3.271   2.553   4.575 -0.1573  0.1955  0.3679
 8129SOL    HW232288   3.230   2.620   4.521 -0.8123  0.3129  0.9899
 8129SOL    HW332289   3.324   2.602   4.638  2.3025  0.0123 -1.4220
 8129SOL    MW432290   3.273   2.568   4.576  0.0808  0.1868  0.2138
 8130SOL     OW32291   0.921   1.236   6.087 -0.1951 -0.3633 -0.2272
 8130SOL    HW232292   0.837   1.252   6.129 -0.5044 -0.9298 -0.6243
 8130SOL    HW332293   0.934   1.142   6.091 -0.2610 -0.4466 -1.4393
 8130SOL    MW432294   0.912   1.226   6.093 -0.2446 -0.4491 -0.4395
 8131SOL     OW32295   5.032   2.045   2.695  0.3315 -0.3420  0.2098
 8131SOL    HW232296   4.958   2.096   2.661 -0.0222 -0.5084  0.7137
 8131SOL    HW332297   5.103   2.061   2.633  0.5247  1.5298  0.8538
 8131SOL    MW432298   5.031   2.054   2.683  0.3103 -0.1170  0.3613
 8132SOL     OW32299   1.174   2.525   3.111 -0.0591  0.1616 -0.7017
 8132SOL    HW232300   1.187   2.433   3.091  0.5936  0.0774  0.0961
 8132SOL    HW332301   1.199   2.571   3.030 -2.7749 -0.4511 -2.0268
 8132SOL    MW432302   1.179   2.519   3.098 -0.3313  0.0697 -0.7712
 8133SOL     OW32303   0.624   4.761   4.274 -0.1670 -0.1917 -0.9093
 8133SOL    HW232304   0.701   4.720   4.313  0.2783  0.4676 -1.0912
 8133SOL    HW332305   0.550   4.715   4.314  0.3143 -1.9522 -1.9030
 8133SOL    MW432306   0.624   4.749   4.284 -0.0448 -0.3370 -1.0644
 8134SOL     OW32307   6.347   0.047   2.078  0.1362  0.6611 -0.0106
 8134SOL    HW232308   6.398  -0.005   2.017 -1.1080 -2.5660  1.4739
 8134SOL    HW332309   6.403   0.057   2.155 -0.6961 -1.2568  0.8925
 8134SOL    MW432310   6.361   0.042   2.080 -0.1378 -0.0177  0.3044
 8135SOL     OW32311   4.400   3.285   4.422  0.4283 -0.6248 -0.5549
 8135SOL    HW232312   4.479   3.332   4.449 -0.1651 -0.3177  0.7111
 8135SOL    HW332313   4.417   3.194   4.445 -0.5410 -0.2059  2.1526
 8135SOL    MW432314   4.413   3.279   4.429  0.2221 -0.5290 -0.0306
 8136SOL     OW32315   0.100   1.803   5.180 -0.0166 -0.5299 -0.4708
 8136SOL    HW232316   0.086   1.772   5.270  1.6440  0.5527  0.2290
 8136SOL    HW332317   0.185   1.766   5.156  0.5427  0.8843 -0.7695
 8136SOL    MW432318   0.110   1.794   5.189  0.2763 -0.2005 -0.4179
 8137SOL     OW32319   5.998   1.989   1.496 -0.0392 -0.0862  0.6613
 8137SOL    HW232320   5.933   1.927   1.463 -1.6310  2.0390 -0.4949
 8137SOL    HW332321   6.054   1.937   1.554 -0.3167 -2.8889 -1.3662
 8137SOL    MW432322   5.997   1.974   1.500 -0.2858 -0.1756  0.2412
 8138SOL     OW32323   1.608   1.282   1.485 -0.1351  0.6456  0.2748
 8138SOL    HW232324   1.674   1.213   1.482  0.6434  1.3835 -0.4289
 8138SOL    HW332325   1.658   1.362   1.503 -0.8215  1.2385 -0.3779
 8138SOL    MW432326   1.623   1.283   1.487 -0.1229  0.8212  0.0958
 8139SOL     OW32327   0.720   5.702   0.254  0.1956 -0.4291 -0.1192
 8139SOL    HW232328   0.715   5.623   0.200  0.0739  0.7362 -1.8868
 8139SOL    HW332329   0.640   5.750   0.233 -0.3373 -0.3677  1.8573
 8139SOL    MW432330   0.709   5.698   0.244  0.1093 -0.2673 -0.0917
 8140SOL     OW32331   5.431   3.902   6.127  0.5900  0.0493 -0.2295
 8140SOL    HW232332   5.451   3.937   6.214  1.8645 -1.3741  0.0863
 8140SOL    HW332333   5.505   3.929   6.073  2.1154 -2.7923  0.2446
 8140SOL    MW432334   5.443   3.910   6.131  0.9594 -0.5134 -0.1253
 8141SOL     OW32335   4.136   5.081   0.287 -0.3490 -0.4099 -0.0832
 8141SOL    HW232336   4.084   5.070   0.367 -0.1609  2.2605  0.5134
 8141SOL    HW332337   4.072   5.072   0.216 -0.9923 -0.4295  0.4858
 8141SOL    MW432338   4.120   5.078   0.288 -0.4091 -0.0602  0.0706
 8142SOL     OW32339   2.077   4.016   5.166  0.1859 -0.0186 -0.1410
 8142SOL    HW232340   2.086   4.101   5.209  2.6122 -1.6078  2.8641
 8142SOL    HW332341   2.167   3.986   5.151 -0.5834 -1.9418 -1.3607
 8142SOL    MW432342   2.090   4.023   5.170  0.4045 -0.4820  0.0945
 8143SOL     OW32343   4.736   5.189   2.967 -0.3166 -0.3157  0.2140
 8143SOL    HW232344   4.814   5.209   3.019 -0.2647  0.3786 -0.1239
 8143SOL    HW332345   4.724   5.094   2.977  0.5549 -0.4270  0.2884
 8143SOL    MW432346   4.745   5.179   2.975 -0.1948 -0.2388  0.1792
 8144SOL     OW32347   1.677   0.904   4.694  0.3552 -0.2754 -0.6552
 8144SOL    HW232348   1.586   0.925   4.714 -0.1718 -2.1901 -0.7787
 8144SOL    HW332349   1.676   0.881   4.601  1.3366  1.4236 -1.1120
 8144SOL    MW432350   1.665   0.903   4.684  0.4151 -0.3039 -0.7318
 8145SOL     OW32351   2.064   5.049   2.651 -0.4422 -0.6454  0.0617
 8145SOL    HW232352   2.139   4.990   2.651  0.0250 -0.0754 -0.6718
 8145SOL    HW332353   2.008   5.016   2.580 -1.3022 -1.5474  1.1131
 8145SOL    MW432354   2.066   5.037   2.642 -0.4940 -0.6892  0.1036
 8146SOL     OW32355   1.072   1.082   3.290  0.0479  0.2544  0.1352
 8146SOL    HW232356   1.061   1.005   3.234  2.8060  0.7336 -1.2199
 8146SOL    HW332357   1.088   1.046   3.377 -2.1160 -0.5553  0.2544
 8146SOL    MW432358   1.072   1.067   3.294  0.1263  0.2108 -0.0278
 8147SOL     OW32359   3.141   3.080   1.636 -0.4358  0.2374 -0.1075
 8147SOL    HW232360   3.143   3.075   1.541  0.3497  0.2910 -0.0955
 8147SOL    HW332361   3.066   3.025   1.661 -0.4276 -0.0671 -0.7338
 8147SOL    MW432362   3.131   3.072   1.627 -0.3311  0.2043 -0.1886
 8148SOL     OW32363   5.774   5.565   1.784 -0.2324  0.3424 -0.0096
 8148SOL    HW232364   5.708   5.624   1.820  1.1595  2.2628 -0.4374
 8148SOL    HW332365   5.852   5.619   1.774  0.6447 -1.1647 -2.0228
 8148SOL    MW432366   5.775   5.580   1.788  0.0670  0.3969 -0.3317
 8149SOL     OW32367   4.981   0.498   2.018  0.1829 -0.4396  0.8645
 8149SOL    HW232368   4.938   0.424   1.976  1.7981 -0.2694 -1.2679
 8149SOL    HW332369   5.041   0.458   2.082 -0.4661 -0.8303  1.2444
 8149SOL    MW432370   4.983   0.483   2.021  0.3104 -0.4687  0.6333
 8150SOL     OW32371   3.888   2.117   3.647 -0.2054  0.0960 -0.2838
 8150SOL    HW232372   3.806   2.157   3.617 -0.0226  1.0093  0.4096
 8150SOL    HW332373   3.908   2.162   3.729 -0.0377 -1.4725  0.5826
 8150SOL    MW432374   3.880   2.128   3.654 -0.1592  0.0095 -0.0780
 8151SOL     OW32375   2.278   0.244   3.395  0.0005 -0.1764 -0.2967
 8151SOL    HW232376   2.218   0.315   3.373 -0.1857 -0.4719 -0.7680
 8151SOL    HW332377   2.223   0.174   3.430  0.2449  0.1031  0.6646
 8151SOL    MW432378   2.263   0.244   3.396  0.0082 -0.1785 -0.2321
 8152SOL     OW32379   0.791   6.104   5.464  0.2721  0.1026  0.0660
 8152SOL    HW232380   0.745   6.084   5.545 -1.3004  1.2560 -0.4995
 8152SOL    HW332381   0.731   6.075   5.395  2.1537 -2.1681 -0.7574
 8152SOL    MW432382   0.777   6.097   5.465  0.3129 -0.0448 -0.1172
 8153SOL     OW32383   0.631   4.669   1.005 -0.0799 -0.4443 -0.4886
 8153SOL    HW232384   0.616   4.604   0.936 -0.2285 -3.2525  1.9706
 8153SOL    HW332385   0.726   4.684   1.004 -0.3721  2.0004 -3.1957
 8153SOL    MW432386   0.642   4.662   0.996 -0.1381 -0.4922 -0.5213
 8154SOL     OW32387   5.557   3.394   0.467  0.1241 -0.3076 -0.1783
 8154SOL    HW232388   5.614   3.444   0.524 -1.1618  0.8522  0.1284
 8154SOL    HW332389   5.552   3.446   0.387 -2.1265  0.7091  0.5547
 8154SOL    MW432390   5.564   3.407   0.464 -0.3425 -0.0205 -0.0411
 8155SOL     OW32391   1.682   3.058   3.147 -0.4371 -0.8213  0.6866
 8155SOL    HW232392   1.755   2.998   3.133 -0.3844 -0.4877 -0.5717
 8155SOL    HW332393   1.723   3.142   3.167 -0.4942 -0.8266  0.8303
 8155SOL    MW432394   1.697   3.061   3.148 -0.4377 -0.7780  0.5395
 8156SOL     OW32395   6.273   4.350   2.524  0.5527  0.3056 -0.3000
 8156SOL    HW232396   6.215   4.420   2.494  0.4352 -0.5781 -2.2783
 8156SOL    HW332397   6.290   4.371   2.616 -1.4298  1.5818 -0.1598
 8156SOL    MW432398   6.268   4.362   2.532  0.2756  0.3574 -0.5425
 8157SOL     OW32399   2.240   0.860   1.034 -0.3236  0.1358 -0.3419
 8157SOL    HW232400   2.235   0.935   0.974 -0.7435 -0.9057 -1.6773
 8157SOL    HW332401   2.148   0.841   1.055 -0.1424  1.1344  1.5232
 8157SOL    MW432402   2.227   0.868   1.029 -0.3551  0.1301 -0.2720
 8158SOL     OW32403   5.388   2.292   0.243  0.3985 -0.4524 -0.3131
 8158SOL    HW232404   5.378   2.293   0.338  0.7691  1.2819 -0.2535
 8158SOL    HW332405   5.474   2.253   0.228 -0.1236 -1.7550 -0.0158
 8158SOL    MW432406   5.398   2.287   0.253  0.3785 -0.3954 -0.2660
 8159SOL     OW32407   0.052   2.679   4.091 -0.4182 -0.0535  0.1488
 8159SOL    HW232408   0.050   2.625   4.169  0.2859  1.1639  1.0405
 8159SOL    HW332409   0.107   2.631   4.029 -0.5115 -0.7516  0.6004
 8159SOL    MW432410   0.059   2.666   4.093 -0.3376  0.0150  0.3260
 8160SOL     OW32411   4.085   2.578   5.200  0.1357  0.5189  0.3216
 8160SOL    HW232412   4.074   2.533   5.284  2.5526  1.5851  1.2995
 8160SOL    HW332413   4.138   2.519   5.147  0.3299  0.7194  0.2937
 8160SOL    MW432414   4.090   2.565   5.204  0.4802  0.6860  0.4469
 8161SOL     OW32415   2.732   4.925   6.359 -0.3110 -0.1552 -0.2414
 8161SOL    HW232416   2.742   4.939   6.265  0.2872 -1.0415 -0.3125
 8161SOL    HW332417   2.752   4.833   6.373  0.6099  0.1862  0.8991
 8161SOL    MW432418   2.736   4.915   6.349 -0.1106 -0.2271 -0.1003
 8162SOL     OW32419   3.613   3.118   0.819  0.0016  0.0402  0.6961
 8162SOL    HW232420   3.583   3.047   0.761 -1.2905  1.3413 -0.3106
 8162SOL    HW332421   3.675   3.076   0.878 -1.9118 -2.2989  1.1959
 8162SOL    MW432422   3.617   3.103   0.819 -0.4213 -0.0967  0.6292
 8163SOL     OW32423   4.115   5.964   1.694 -0.0543 -0.0811  0.1594
 8163SOL    HW232424   4.199   5.929   1.723 -0.2263 -0.9327 -0.3259
 8163SOL    HW332425   4.051   5.899   1.725 -0.5603  0.6526  0.6909
 8163SOL    MW432426   4.118   5.951   1.702 -0.1438 -0.0967  0.1655
 8164SOL     OW32427   1.873   5.371   1.674 -0.1042  0.7983 -0.4098
 8164SOL    HW232428   1.964   5.345   1.657 -0.3007 -0.3537  0.2401
 8164SOL    HW332429   1.881   5.448   1.731  0.4626  1.5596 -1.4761
 8164SOL    MW432430   1.886   5.378   1.679 -0.0553  0.7468 -0.4648
 8165SOL     OW32431   6.416   0.922   0.171  0.2375 -0.0773 -0.5380
 8165SOL    HW232432   6.398   0.888   0.083  1.5882  0.2716 -0.9716
 8165SOL    HW332433   6.353   0.994   0.182 -2.9141 -2.7497  0.5352
 8165SOL    MW432434   6.405   0.927   0.161 -0.0001 -0.3839 -0.4536
 8166SOL     OW32435   5.854   2.523   2.732 -0.3320 -0.6358 -0.2063
 8166SOL    HW232436   5.806   2.454   2.686  2.4767 -0.7416 -3.3304
 8166SOL    HW332437   5.788   2.590   2.751 -2.0087 -1.3186 -3.0680
 8166SOL    MW432438   5.839   2.523   2.728 -0.1826 -0.7398 -0.9960
 8167SOL     OW32439   2.846   3.225   3.812 -0.0847 -0.2984  0.4969
 8167SOL    HW232440   2.828   3.255   3.901  0.6814 -2.0296  1.2859
 8167SOL    HW332441   2.941   3.210   3.811 -0.1633 -0.7789 -0.4540
 8167SOL    MW432442   2.856   3.227   3.824  0.0060 -0.5902  0.4755
 8168SOL     OW32443   1.193   2.904   3.181  0.5260  0.1052 -0.3901
 8168SOL    HW232444   1.280   2.904   3.219 -0.2494  0.2449  1.4932
 8168SOL    HW332445   1.144   2.838   3.231 -0.1684 -0.7721 -2.1466
 8168SOL    MW432446   1.198   2.896   3.193  0.3320  0.0079 -0.3733
 8169SOL     OW32447   1.479   0.931   0.695 -0.1145 -0.9782  0.4339
 8169SOL    HW232448   1.544   0.944   0.626  0.6080  0.6249  1.3670
 8169SOL    HW332449   1.524   0.956   0.776 -1.3508 -1.5423  1.3318
 8169SOL    MW432450   1.494   0.936   0.697 -0.1823 -0.8411  0.6754
 8170SOL     OW32451   6.327   5.269   0.682 -0.3159  0.2152 -0.2265
 8170SOL    HW232452   6.272   5.326   0.627 -1.1265  0.0983  0.4338
 8170SOL    HW332453   6.277   5.188   0.689 -0.9839  0.7458  1.9098
 8170SOL    MW432454   6.313   5.266   0.675 -0.5110  0.2698  0.1425
 8171SOL     OW32455   6.027   6.396   4.244  0.2662 -0.1455 -0.3817
 8171SOL    HW232456   6.082   6.344   4.302 -0.4397 -0.7788 -0.2658
 8171SOL    HW332457   5.937   6.370   4.265 -0.0592  0.5175 -0.8974
 8171SOL    MW432458   6.022   6.385   4.254  0.1302 -0.1416 -0.4344
 8172SOL     OW32459   2.842   3.510   4.239 -0.3925 -0.2639 -0.2035
 8172SOL    HW232460   2.783   3.456   4.293 -2.6319  0.8409 -1.4311
 8172SOL    HW332461   2.788   3.581   4.207  1.9746  1.5961 -0.3720
 8172SOL    MW432462   2.827   3.512   4.242 -0.3756  0.1273 -0.3877
 8173SOL     OW32463   6.338   2.769   6.178 -0.0020  0.7514  0.6448
 8173SOL    HW232464   6.335   2.723   6.263 -1.3208 -0.5088 -0.0359
 8173SOL    HW332465   6.428   2.800   6.171  0.3971  0.0250  2.0773
 8173SOL    MW432466   6.350   2.767   6.189 -0.1233  0.4893  0.7440
 8174SOL     OW32467   0.077   4.951   3.672  0.1221  0.2049  0.0405
 8174SOL    HW232468  -0.006   4.995   3.653  0.7512  0.8256 -1.4803
 8174SOL    HW332469   0.053   4.861   3.693 -0.9542  0.4025 -0.2881
 8174SOL    MW432470   0.063   4.945   3.672  0.0631  0.3129 -0.2035
 8175SOL     OW32471   5.522   2.510   5.330 -0.2170  0.2713 -0.2598
 8175SOL    HW232472   5.471   2.433   5.304 -0.4529 -0.7272  2.7390
 8175SOL    HW332473   5.460   2.564   5.380  0.6653  1.0032  0.0807
 8175SOL    MW432474   5.507   2.507   5.333 -0.1317  0.2361  0.1808
 8176SOL     OW32475   4.004   2.352   2.205  0.3530 -0.1168 -0.3170
 8176SOL    HW232476   3.937   2.304   2.156  0.1398 -0.2764  0.1231
 8176SOL    HW332477   3.999   2.441   2.172 -1.5252  0.3868  1.1309
 8176SOL    MW432478   3.995   2.357   2.194  0.0771 -0.0714 -0.0679
 8177SOL     OW32479   5.181   3.797   6.238  0.0312  0.0674 -0.3810
 8177SOL    HW232480   5.104   3.853   6.226  0.1870  0.4541  0.3986
 8177SOL    HW332481   5.252   3.846   6.196  0.0336  0.1334 -0.2995
 8177SOL    MW432482   5.180   3.811   6.231  0.0521  0.1271 -0.2674
 8178SOL     OW32483   1.199   6.163   3.741 -0.7256 -0.3490  0.6755
 8178SOL    HW232484   1.281   6.128   3.776 -0.1683  1.4135  1.2567
 8178SOL    HW332485   1.207   6.152   3.646  0.6074  0.5735  0.6448
 8178SOL    MW432486   1.211   6.157   3.733 -0.4762  0.0052  0.7481
 8179SOL     OW32487   5.053   2.631   3.402  0.3598 -0.2396  0.1619
 8179SOL    HW232488   5.120   2.563   3.395  1.5881  1.0383 -1.3178
 8179SOL    HW332489   4.971   2.586   3.379  0.9002 -1.5179  0.6396
 8179SOL    MW432490   5.051   2.616   3.398  0.5931 -0.2396  0.0297
 8180SOL     OW32491   5.498   3.835   5.649 -0.5321  0.2302 -0.3919
 8180SOL    HW232492   5.540   3.911   5.608  1.3435 -0.0258  0.8995
 8180SOL    HW332493   5.571   3.777   5.672 -1.5506 -0.1543  2.2203
 8180SOL    MW432494   5.513   3.837   5.646 -0.4190  0.1457  0.1231
 8181SOL     OW32495   5.640   0.640   1.405  0.2511  0.1632  0.3974
 8181SOL    HW232496   5.706   0.577   1.375  0.2305  0.4995 -0.3881
 8181SOL    HW332497   5.596   0.596   1.477  0.5034 -0.5679  0.1194
 8181SOL    MW432498   5.643   0.626   1.410  0.2816  0.1111  0.2571
 8182SOL     OW32499   2.283   0.995   1.273  0.1855 -0.3799  0.2633
 8182SOL    HW232500   2.252   0.947   1.195 -0.1567  1.1997 -0.6126
 8182SOL    HW332501   2.356   1.047   1.241  0.4264 -0.1546  1.1575
 8182SOL    MW432502   2.288   0.995   1.258  0.1721 -0.1418  0.2657
 8183SOL     OW32503   2.100   3.699   1.294 -0.1624 -0.1946 -0.1713
 8183SOL    HW232504   2.105   3.726   1.386  1.7584  1.0373 -0.5694
 8183SOL    HW332505   2.059   3.612   1.296  0.7911 -0.6520  1.9535
 8183SOL    MW432506   2.095   3.691   1.306  0.2168 -0.0924  0.0565
 8184SOL     OW32507   2.216   0.571   2.590  0.8097 -0.2766  0.2466
 8184SOL    HW232508   2.186   0.607   2.507  0.5914  1.4400  1.0186
 8184SOL    HW332509   2.146   0.594   2.652  1.2077 -1.0548  1.0000
 8184SOL    MW432510   2.202   0.579   2.587  0.8334 -0.1528  0.4479
 8185SOL     OW32511   2.707   0.361   0.408  0.1623  0.5056  0.2574
 8185SOL    HW232512   2.616   0.338   0.387  0.7866  1.3151 -4.7764
 8185SOL    HW332513   2.758   0.284   0.384  0.9833  0.8851  0.7352
 8185SOL    MW432514   2.702   0.348   0.402  0.3530  0.6625 -0.3437
 8186SOL     OW32515   3.869   2.770   6.296 -0.6258 -0.2511  0.4455
 8186SOL    HW232516   3.931   2.762   6.368 -0.3995 -0.4741  0.2271
 8186SOL    HW332517   3.847   2.679   6.273  0.4319 -0.2354 -0.7420
 8186SOL    MW432518   3.874   2.757   6.303 -0.4564 -0.2785  0.2600
 8187SOL     OW32519   1.464   2.466   0.390 -0.0937 -0.2639 -0.1529
 8187SOL    HW232520   1.501   2.554   0.403 -0.9021 -0.1462  1.8353
 8187SOL    HW332521   1.539   2.408   0.388  0.4759  0.4862 -1.7925
 8187SOL    MW432522   1.479   2.470   0.392 -0.1252 -0.1494 -0.1069
 8188SOL     OW32523   1.233   2.671   0.660  0.0841  0.4618  0.0566
 8188SOL    HW232524   1.216   2.754   0.615 -1.2983 -0.0236 -0.3760
 8188SOL    HW332525   1.221   2.604   0.592  1.0144 -0.1034  0.4372
 8188SOL    MW432526   1.229   2.673   0.645  0.0244  0.3232  0.0497
 8189SOL     OW32527   2.624   5.867   4.171  0.6645  0.4170 -0.1656
 8189SOL    HW232528   2.697   5.889   4.114 -0.3941  1.7198 -1.0766
 8189SOL    HW332529   2.607   5.774   4.153  0.9653  0.5621 -1.2838
 8189SOL    MW432530   2.631   5.857   4.161  0.5645  0.6080 -0.4333
 8190SOL     OW32531   4.569   3.507   4.135  0.0167 -0.3632  0.4815
 8190SOL    HW232532   4.620   3.588   4.142  0.0218 -0.2464 -0.7022
 8190SOL    HW332533   4.579   3.481   4.043 -1.3727 -0.7947  0.4410
 8190SOL    MW432534   4.577   3.514   4.124 -0.1659 -0.4047  0.3200
 8191SOL     OW32535   2.502   1.692   2.599 -0.5605  0.2140 -0.3576
 8191SOL    HW232536   2.492   1.614   2.544 -1.4822  0.8048 -1.0659
 8191SOL    HW332537   2.484   1.662   2.688  3.2409 -1.3036  0.1027
 8191SOL    MW432538   2.499   1.678   2.603 -0.1806  0.0917 -0.3903
 8192SOL     OW32539   0.699   4.869   0.017  0.6325  0.2696 -0.2181
 8192SOL    HW232540   0.720   4.949   0.065  0.4273 -0.3025  0.8702
 8192SOL    HW332541   0.619   4.890  -0.031 -0.9067 -0.0057  2.0547
 8192SOL    MW432542   0.691   4.882   0.017  0.4024  0.1578  0.2254
 8193SOL     OW32543   5.626   4.853   1.274 -1.2785 -0.2227  0.6148
 8193SOL    HW232544   5.564   4.917   1.308  0.2681  0.7233  1.8000
 8193SOL    HW332545   5.712   4.890   1.292 -0.3126 -0.8754 -2.1636
 8193SOL    MW432546   5.630   4.866   1.281 -0.9470 -0.1840  0.4046
 8194SOL     OW32547   2.213   2.181   5.784 -0.5443 -0.1345 -0.0024
 8194SOL    HW232548   2.119   2.170   5.794 -0.3564 -1.1923  0.7481
 8194SOL    HW332549   2.245   2.094   5.760  0.1118  0.4633 -1.4064
 8194SOL    MW432550   2.205   2.168   5.782 -0.4330 -0.1952 -0.0886
 8195SOL     OW32551   4.030   2.224   0.620 -0.4431  0.2410  0.4766
 8195SOL    HW232552   3.956   2.202   0.563  0.3251 -1.3599  0.0090
 8195SOL    HW332553   4.074   2.140   0.634  1.0667  1.0921  1.0399
 8195SOL    MW432554   4.026   2.210   0.614 -0.1426  0.1421  0.4892
 8196SOL     OW32555   4.390   6.077   1.420  0.3359 -0.3989  0.0308
 8196SOL    HW232556   4.399   6.024   1.341 -0.4297 -2.8640  1.4692
 8196SOL    HW332557   4.452   6.038   1.482 -0.5283  0.1361  1.2776
 8196SOL    MW432558   4.399   6.065   1.418  0.1209 -0.6536  0.3851
 8197SOL     OW32559   5.417   1.968   0.437  0.1306  0.0656  0.3615
 8197SOL    HW232560   5.387   1.881   0.412 -1.3418  0.0874  1.8856
 8197SOL    HW332561   5.481   1.953   0.506 -0.3700  0.1792  0.8600
 8197SOL    MW432562   5.421   1.955   0.443 -0.1297  0.0835  0.6283
 8198SOL     OW32563   3.669   4.307   6.219 -0.1773  0.1634 -0.1072
 8198SOL    HW232564   3.638   4.227   6.176 -0.4995  0.1157  0.2114
 8198SOL    HW332565   3.703   4.361   6.147  2.4318 -1.2819 -0.0993
 8198SOL    MW432566   3.669   4.303   6.204  0.1244 -0.0336 -0.0641
 8199SOL     OW32567   1.784   1.202   3.659 -0.0442 -0.9374  0.3074
 8199SOL    HW232568   1.826   1.132   3.608  0.9637 -0.0912 -0.0511
 8199SOL    HW332569   1.811   1.184   3.749  1.6516 -0.0498  0.0084
 8199SOL    MW432570   1.793   1.190   3.664  0.3125 -0.7087  0.2207
 8200SOL     OW32571   5.541   5.104   0.148  0.0065  0.0592 -0.2439
 8200SOL    HW232572   5.602   5.037   0.178 -1.7163 -0.1520  3.3432
 8200SOL    HW332573   5.595   5.168   0.101  2.4864 -1.4184  0.4531
 8200SOL    MW432574   5.556   5.104   0.145  0.1064 -0.1636  0.3214
 8201SOL     OW32575   1.294   3.435   5.269 -0.1569  0.0152 -0.1800
 8201SOL    HW232576   1.299   3.347   5.230 -0.2582 -0.3621  0.6483
 8201SOL    HW332577   1.244   3.486   5.206 -2.5551 -1.2337  0.6004
 8201SOL    MW432578   1.288   3.430   5.255 -0.4867 -0.1993  0.0322
 8202SOL     OW32579   0.566   1.126   0.756  0.2100 -0.0384 -0.3613
 8202SOL    HW232580   0.508   1.202   0.745 -1.3754 -1.1363  0.0773
 8202SOL    HW332581   0.581   1.121   0.850  0.6590 -0.0262 -0.4320
 8202SOL    MW432582   0.560   1.135   0.767  0.0601 -0.1816 -0.3128
 8203SOL     OW32583   6.155   4.337   4.655 -0.1459 -0.6458 -0.3969
 8203SOL    HW232584   6.204   4.412   4.621 -1.6404  0.0864 -1.0514
 8203SOL    HW332585   6.106   4.372   4.729  0.1964 -1.3341  0.1672
 8203SOL    MW432586   6.155   4.352   4.660 -0.2979 -0.6400 -0.4088
 8204SOL     OW32587   4.760   1.751   3.102 -0.3141 -0.1050 -0.4909
 8204SOL    HW232588   4.668   1.776   3.117 -1.3624 -3.7490  0.1760
 8204SOL    HW332589   4.786   1.802   3.026 -3.4400 -0.0398 -1.6907
 8204SOL    MW432590   4.751   1.761   3.094 -0.8649 -0.5772 -0.5612
 8205SOL     OW32591   3.375   3.701   2.966 -0.1673  0.3188 -0.4404
 8205SOL    HW232592   3.419   3.687   2.882  1.1431 -0.4076  0.3254
 8205SOL    HW332593   3.399   3.791   2.989  0.7247  0.0300 -0.1733
 8205SOL    MW432594   3.384   3.711   2.958  0.1233  0.1849 -0.3041
 8206SOL     OW32595   3.584   4.276   3.207 -0.4923  0.3197 -0.8035
 8206SOL    HW232596   3.654   4.341   3.217  0.3461 -0.6898  0.0809
 8206SOL    HW332597   3.543   4.271   3.294 -0.3302 -0.5700 -0.7695
 8206SOL    MW432598   3.588   4.284   3.220 -0.3603  0.0691 -0.6823
 8207SOL     OW32599   1.939   2.193   2.435 -0.2164 -0.0322  0.2217
 8207SOL    HW232600   1.934   2.192   2.531 -1.1901 -0.2946  0.1831
 8207SOL    HW332601   1.975   2.107   2.412  1.2886  0.5306  0.3903
 8207SOL    MW432602   1.943   2.181   2.445 -0.1463  0.0074  0.2389
 8208SOL     OW32603   1.229   1.671   4.470 -0.4614  0.1556 -0.4872
 8208SOL    HW232604   1.245   1.765   4.459 -1.1933  0.6219  1.8163
 8208SOL    HW332605   1.209   1.639   4.382  1.2603  1.8305 -1.5690
 8208SOL    MW432606   1.229   1.679   4.457 -0.3308  0.4381 -0.3260
 8209SOL     OW32607   4.806   3.616   0.520 -0.0715 -0.3003 -0.0438
 8209SOL    HW232608   4.742   3.555   0.482  0.3518 -1.0784  0.4798
 8209SOL    HW332609   4.891   3.582   0.492  0.1667  0.0230  0.2903
 8209SOL    MW432610   4.809   3.603   0.511  0.0157 -0.3603  0.0694
 8210SOL     OW32611   4.210   2.103   3.921  0.4608 -0.4750 -0.8710
 8210SOL    HW232612   4.217   2.082   4.014 -1.0022  0.2996 -0.5557
 8210SOL    HW332613   4.263   2.182   3.910  1.3192 -1.0417 -0.8856
 8210SOL    MW432614   4.218   2.111   3.932  0.3811 -0.4476 -0.8313
 8211SOL     OW32615   4.359   3.744   4.120  0.2868  0.0356 -0.0507
 8211SOL    HW232616   4.293   3.703   4.064  0.0682  2.5139 -1.7582
 8211SOL    HW332617   4.440   3.741   4.068  1.1522 -1.3595  1.2850
 8211SOL    MW432618   4.361   3.738   4.106  0.3722  0.1785 -0.0998
 8212SOL     OW32619   5.287   0.524   0.102 -0.2676 -0.6616 -0.1677
 8212SOL    HW232620   5.252   0.436   0.113 -0.2728 -0.4492  1.8863
 8212SOL    HW332621   5.346   0.536   0.177  3.0551 -0.4247 -2.5942
 8212SOL    MW432622   5.290   0.514   0.114  0.1701 -0.6024 -0.2169
 8213SOL     OW32623   2.815   0.415   1.215  0.3221  0.2364  0.0621
 8213SOL    HW232624   2.806   0.443   1.306  1.0357 -1.1879  0.6038
 8213SOL    HW332625   2.738   0.449   1.171 -0.0728  0.8783  1.2188
 8213SOL    MW432626   2.804   0.423   1.221  0.3642  0.1331  0.2862
 8214SOL     OW32627   4.597   2.419   4.657  0.1080  0.1614  0.4940
 8214SOL    HW232628   4.658   2.416   4.583 -0.7067 -0.9164 -0.1612
 8214SOL    HW332629   4.640   2.368   4.725 -0.2564 -1.0109 -0.1342
 8214SOL    MW432630   4.611   2.412   4.656 -0.0476 -0.1355  0.3247
 8215SOL     OW32631   3.767   5.910   1.677 -0.2981 -0.4191 -0.1434
 8215SOL    HW232632   3.811   5.829   1.704  0.1074 -0.2191 -0.1947
 8215SOL    HW332633   3.759   5.961   1.757  1.1657  0.2984 -0.4221
 8215SOL    MW432634   3.772   5.906   1.691 -0.0515 -0.2980 -0.1870
 8216SOL     OW32635   3.915   5.706   2.496  0.1644  1.0872 -0.4328
 8216SOL    HW232636   3.930   5.612   2.498  0.0772  1.0732 -0.4461
 8216SOL    HW332637   3.820   5.716   2.500  0.1982  1.1944  0.2264
 8216SOL    MW432638   3.904   5.695   2.497  0.1574  1.0995 -0.3476
 8217SOL     OW32639   3.552   5.503   0.850  0.0814  0.3880 -0.0746
 8217SOL    HW232640   3.549   5.462   0.764 -0.5407 -0.7826  0.4834
 8217SOL    HW332641   3.570   5.596   0.832 -1.5999  0.4700 -1.5554
 8217SOL    MW432642   3.554   5.510   0.837 -0.2225  0.2444 -0.1963
 8218SOL     OW32643   0.009   4.637   3.423  0.1524 -0.0321  0.3837
 8218SOL    HW232644   0.040   4.547   3.424 -0.6675 -0.3349 -0.4653
 8218SOL    HW332645   0.088   4.690   3.408  0.4735 -0.6890 -0.2881
 8218SOL    MW432646   0.024   4.632   3.421  0.0866 -0.1587  0.1831
 8219SOL     OW32647   3.663   1.554   5.028  0.0495 -0.6137 -0.1983
 8219SOL    HW232648   3.679   1.461   5.012 -1.6011 -1.6876  3.4013
 8219SOL    HW332649   3.581   1.572   4.982 -0.3360 -1.3140  0.2023
 8219SOL    MW432650   3.654   1.544   5.020 -0.2191 -0.8478  0.3295
 8220SOL     OW32651   1.832   0.599   5.455  0.0938  0.1912  0.4232
 8220SOL    HW232652   1.851   0.596   5.549  0.3188 -0.7520  0.3602
 8220SOL    HW332653   1.756   0.542   5.444 -0.2283  0.6724  0.0875
 8220SOL    MW432654   1.824   0.591   5.466  0.0810  0.1303  0.3706
 8221SOL     OW32655   2.838   0.175   5.140  0.2245 -0.4340 -0.4086
 8221SOL    HW232656   2.916   0.140   5.096  2.2715  2.1795  0.8407
 8221SOL    HW332657   2.817   0.255   5.091 -2.7898 -1.8547 -1.7074
 8221SOL    MW432658   2.846   0.181   5.127  0.0969 -0.2766 -0.4151
 8222SOL     OW32659   5.630   2.297   4.656 -0.6456 -0.2111  0.7540
 8222SOL    HW232660   5.652   2.364   4.720 -1.6404  1.0297 -0.1598
 8222SOL    HW332661   5.714   2.255   4.635  0.2307  1.6639  0.3283
 8222SOL    MW432662   5.644   2.300   4.661 -0.6612  0.2000  0.5773
 8223SOL     OW32663   3.218   0.638   5.279 -0.7109  0.2994  0.3738
 8223SOL    HW232664   3.233   0.543   5.281 -0.1820  0.3685 -0.0541
 8223SOL    HW332665   3.305   0.676   5.267 -1.0100  0.7981 -0.3171
 8223SOL    MW432666   3.231   0.630   5.277 -0.6806  0.3743  0.2262
 8224SOL     OW32667   5.965   0.157   0.651 -0.1650 -0.4083  0.1042
 8224SOL    HW232668   6.031   0.174   0.584 -0.2003 -0.1641  0.1292
 8224SOL    HW332669   5.902   0.098   0.609 -0.5724  0.3143 -0.3174
 8224SOL    MW432670   5.965   0.151   0.637 -0.2234 -0.2808  0.0519
 8225SOL     OW32671   0.346   4.739   6.287  0.4975  0.5330  0.1873
 8225SOL    HW232672   0.304   4.712   6.206  1.6684  1.0099 -0.6109
 8225SOL    HW332673   0.403   4.666   6.310 -0.1050  0.2479  0.7810
 8225SOL    MW432674   0.348   4.726   6.279  0.5725  0.5583  0.1603
 8226SOL     OW32675   4.844   0.836   3.120 -0.1790  0.0691 -0.5641
 8226SOL    HW232676   4.823   0.748   3.153 -0.1930  0.1472 -0.3649
 8226SOL    HW332677   4.846   0.826   3.025 -1.4835  0.1302 -0.6173
 8226SOL    MW432678   4.841   0.823   3.112 -0.3530  0.0875 -0.5449
 8227SOL     OW32679   6.242   3.288   5.507 -0.4383  0.3600 -0.5612
 8227SOL    HW232680   6.259   3.360   5.568 -0.7964  0.0180 -0.0543
 8227SOL    HW332681   6.329   3.262   5.476 -0.2729  0.7062 -0.3947
 8227SOL    MW432682   6.256   3.294   5.511 -0.4637  0.3606 -0.4724
 8228SOL     OW32683   3.257   0.553   3.123  0.2725  0.4099 -0.1972
 8228SOL    HW232684   3.234   0.466   3.090  1.3157  0.1565 -0.2994
 8228SOL    HW332685   3.238   0.612   3.050  0.8062  0.0911 -0.6026
 8228SOL    MW432686   3.251   0.549   3.109  0.4806  0.3344 -0.2642
 8229SOL     OW32687   2.712   1.537   5.549  0.1718 -0.8144  0.3679
 8229SOL    HW232688   2.757   1.620   5.533  0.5969 -0.9527  0.8327
 8229SOL    HW332689   2.620   1.555   5.529  0.0224  0.1527  1.7898
 8229SOL    MW432690   2.706   1.550   5.544  0.2082 -0.7051  0.6168
 8230SOL     OW32691   1.935   0.889   2.248 -0.6237 -0.0160  0.2404
 8230SOL    HW232692   1.918   0.848   2.163 -0.6381 -0.3875  0.4190
 8230SOL    HW332693   1.858   0.869   2.301 -1.0093  0.9615  0.0772
 8230SOL    MW432694   1.923   0.881   2.244 -0.6765  0.0639  0.2425
 8231SOL     OW32695   3.606   3.920   1.807  0.1127  0.6610 -0.0813
 8231SOL    HW232696   3.602   4.015   1.816  0.3862  0.9760 -2.5374
 8231SOL    HW332697   3.560   3.902   1.725 -3.0399 -1.7240  1.9514
 8231SOL    MW432698   3.599   3.930   1.797 -0.2671  0.3879 -0.1372
 8232SOL     OW32699   1.783   5.511   2.334 -0.2710 -0.0026  0.0648
 8232SOL    HW232700   1.770   5.506   2.239  1.0054 -0.5261 -0.1047
 8232SOL    HW332701   1.777   5.421   2.364  0.4939  0.0182  0.3013
 8232SOL    MW432702   1.780   5.499   2.326 -0.0017 -0.0689  0.0736
 8233SOL     OW32703   4.388   3.554   2.164  0.5473  0.5973  0.3445
 8233SOL    HW232704   4.430   3.599   2.090 -0.6501  0.8067 -0.2346
 8233SOL    HW332705   4.424   3.597   2.242  2.0347  0.1977 -0.0858
 8233SOL    MW432706   4.398   3.566   2.164  0.5856  0.5722  0.2113
 8234SOL     OW32707   3.427   6.054   1.375 -0.3272  0.5578  0.1837
 8234SOL    HW232708   3.346   6.102   1.359  0.1111  0.5544 -2.5158
 8234SOL    HW332709   3.400   5.962   1.375 -0.5067  0.6054  0.7470
 8234SOL    MW432710   3.413   6.048   1.373 -0.2931  0.5636 -0.0981
 8235SOL     OW32711   2.477   3.403   2.791 -0.8770 -0.3342  0.1862
 8235SOL    HW232712   2.423   3.358   2.856 -1.6434 -0.8778 -0.7894
 8235SOL    HW332713   2.416   3.462   2.745  0.0397  1.5365  1.2377
 8235SOL    MW432714   2.462   3.405   2.793 -0.8572 -0.1591  0.1962
 8236SOL     OW32715   5.177   0.837   2.851 -0.2371 -0.3271  0.0710
 8236SOL    HW232716   5.089   0.830   2.814 -0.6718  0.2579  0.9772
 8236SOL    HW332717   5.235   0.809   2.780 -1.1709 -1.0955 -0.4096
 8236SOL    MW432718   5.173   0.832   2.837 -0.4176 -0.3513  0.1271
 8237SOL     OW32719   6.074   0.088   2.082 -0.7860 -0.2802 -0.0168
 8237SOL    HW232720   6.168   0.086   2.101 -0.5971  2.2178 -0.3945
 8237SOL    HW332721   6.033   0.098   2.167 -0.8376 -2.3165  0.2560
 8237SOL    MW432722   6.081   0.089   2.096 -0.7679 -0.2193 -0.0307
 8238SOL     OW32723   6.077   3.507   3.337  0.0561  0.5678  0.1560
 8238SOL    HW232724   6.069   3.463   3.253  1.6632  0.5563 -0.0348
 8238SOL    HW332725   5.998   3.560   3.345 -0.4163  0.0681 -1.0554
 8238SOL    MW432726   6.066   3.508   3.327  0.2058  0.5003 -0.0290
 8239SOL     OW32727   3.574   1.743   4.592  0.2156 -0.1907 -0.3537
 8239SOL    HW232728   3.620   1.721   4.673  1.3797  0.4691 -0.8094
 8239SOL    HW332729   3.585   1.838   4.583 -2.7405  0.3247  0.3872
 8239SOL    MW432730   3.582   1.753   4.601 -0.0208 -0.0357 -0.3161
 8240SOL     OW32731   3.517   3.733   2.499 -0.1875 -0.2330 -0.4750
 8240SOL    HW232732   3.466   3.681   2.436  0.1863  0.0889 -1.0459
 8240SOL    HW332733   3.570   3.791   2.445  2.5164 -2.0877 -0.0067
 8240SOL    MW432734   3.517   3.734   2.483  0.2186 -0.4352 -0.4885
 8241SOL     OW32735   4.428   2.845   1.512  0.7278  0.2622 -0.6682
 8241SOL    HW232736   4.417   2.769   1.454 -0.6311  0.5131 -0.7871
 8241SOL    HW332737   4.494   2.818   1.575  0.2627 -1.0362 -0.7005
 8241SOL    MW432738   4.435   2.832   1.513  0.4871  0.1240 -0.6881
 8242SOL     OW32739   2.482   3.035   1.701  0.0792  0.2987  0.4104
 8242SOL    HW232740   2.413   2.970   1.689  0.3678 -0.2924  1.7688
 8242SOL    HW332741   2.435   3.117   1.715 -0.3651 -0.0803  1.2165
 8242SOL    MW432742   2.466   3.037   1.701  0.0587  0.1707  0.6960
 8243SOL     OW32743   2.505   0.207   6.238 -0.1510  0.1440  0.8304
 8243SOL    HW232744   2.460   0.193   6.321  0.0457 -0.9288  0.7711
 8243SOL    HW332745   2.541   0.296   6.245  0.4616 -0.1742  2.1838
 8243SOL    MW432746   2.504   0.217   6.250 -0.0442 -0.0395  1.0011
 8244SOL     OW32747   4.772   0.870   1.728 -0.4101 -0.6221  0.1261
 8244SOL    HW232748   4.715   0.803   1.690  0.5641 -1.1380 -0.4374
 8244SOL    HW332749   4.789   0.839   1.817 -0.7448 -0.6164  0.1966
 8244SOL    MW432750   4.767   0.857   1.735 -0.3257 -0.6894  0.0611
 8245SOL     OW32751   3.508   4.837   1.180  0.3242  0.4145 -0.1371
 8245SOL    HW232752   3.557   4.919   1.182  0.3504  0.4045 -0.3384
 8245SOL    HW332753   3.576   4.769   1.181  0.3335  0.4051 -0.9434
 8245SOL    MW432754   3.524   4.839   1.180  0.3289  0.4119 -0.2701
 8246SOL     OW32755   4.155   1.684   1.372  0.0532  0.0236  0.3962
 8246SOL    HW232756   4.065   1.712   1.358  0.3540  0.7755 -0.0444
 8246SOL    HW332757   4.148   1.615   1.438 -0.9726 -0.8175 -0.5497
 8246SOL    MW432758   4.142   1.678   1.379 -0.0424  0.0118  0.2133
 8247SOL     OW32759   4.494   0.171   2.818  0.0522  0.4261  0.0617
 8247SOL    HW232760   4.474   0.250   2.768  1.0195  1.6520  1.5211
 8247SOL    HW332761   4.409   0.135   2.842 -0.3989  1.2729 -0.2418
 8247SOL    MW432762   4.480   0.176   2.814  0.1203  0.6996  0.2142
 8248SOL     OW32763   5.549   4.839   1.730 -0.3238  0.4707  0.0946
 8248SOL    HW232764   5.529   4.793   1.649 -0.1813  0.7633 -0.1099
 8248SOL    HW332765   5.640   4.816   1.750 -0.0538  1.1325 -0.3326
 8248SOL    MW432766   5.559   4.830   1.722 -0.2693  0.5966  0.0113
 8249SOL     OW32767   4.836   1.537   4.014 -0.2328  0.0574 -0.3818
 8249SOL    HW232768   4.760   1.554   3.958 -0.3388 -3.5908 -1.5704
 8249SOL    HW332769   4.889   1.475   3.964  2.0983  0.2861  1.6466
 8249SOL    MW432770   4.833   1.531   4.000  0.0608 -0.3938 -0.2710
 8250SOL     OW32771   4.818   0.963   5.935  0.2346  0.7153  0.1630
 8250SOL    HW232772   4.756   1.035   5.943  0.6938  1.1266  0.1177
 8250SOL    HW332773   4.896   1.003   5.895  0.3209  0.0912 -0.3164
 8250SOL    MW432774   4.820   0.978   5.930  0.3066  0.6872  0.0938
 8251SOL     OW32775   6.093   0.477   0.540  0.9220  0.1693 -0.3231
 8251SOL    HW232776   6.028   0.496   0.608  0.8124  0.8627 -0.6154
 8251SOL    HW332777   6.061   0.397   0.499  0.4127  0.3399 -0.2642
 8251SOL    MW432778   6.080   0.469   0.544  0.8403  0.2833 -0.3539
 8252SOL     OW32779   3.644   5.089   4.962 -0.3227 -0.1558  0.0791
 8252SOL    HW232780   3.588   5.162   4.936 -0.0922  0.1002  0.2908
 8252SOL    HW332781   3.652   5.098   5.057  0.1957 -0.0998  0.0369
 8252SOL    MW432782   3.638   5.100   4.971 -0.2239 -0.1147  0.1015
 8253SOL     OW32783   3.881   5.705   4.267  0.3391  0.5724  0.1403
 8253SOL    HW232784   3.886   5.706   4.171 -0.4466  1.9088  0.1011
 8253SOL    HW332785   3.926   5.624   4.291  1.8639  0.9227 -1.2804
 8253SOL    MW432786   3.888   5.694   4.257  0.4366  0.7949 -0.0523
 8254SOL     OW32787   4.763   4.274   3.482  0.1157  0.2409  0.8780
 8254SOL    HW232788   4.792   4.295   3.571  1.3933 -0.4081  0.6426
 8254SOL    HW332789   4.844   4.261   3.433 -0.5814 -0.1692 -0.1981
 8254SOL    MW432790   4.778   4.275   3.487  0.1923  0.1012  0.7050
 8255SOL     OW32791   4.986   1.561   0.438  0.4031 -0.5629  0.2004
 8255SOL    HW232792   4.921   1.629   0.456  0.6711 -0.9675  3.2430
 8255SOL    HW332793   4.992   1.558   0.343 -2.4648  0.9394 -0.1360
 8255SOL    MW432794   4.978   1.570   0.428  0.0601 -0.4181  0.5575
 8256SOL     OW32795   4.099   4.019   2.788  0.3921  0.3735 -0.5470
 8256SOL    HW232796   4.033   3.979   2.731  0.0458  0.4360 -0.2002
 8256SOL    HW332797   4.118   4.103   2.746  0.6274  0.1405 -0.9180
 8256SOL    MW432798   4.093   4.025   2.775  0.3775  0.3510 -0.5502
 8257SOL     OW32799   3.358   1.955   3.905  0.1596  0.4954 -0.2292
 8257SOL    HW232800   3.453   1.961   3.913  0.2771 -1.2865  0.2352
 8257SOL    HW332801   3.344   1.909   3.823 -0.3642  1.7401 -0.8549
 8257SOL    MW432802   3.369   1.950   3.895  0.1060  0.4246 -0.2504
 8258SOL     OW32803   5.302   4.842   5.652  0.1441  0.1268  0.7572
 8258SOL    HW232804   5.361   4.893   5.708  0.2590 -0.1294  0.8701
 8258SOL    HW332805   5.216   4.851   5.693 -0.3036  2.1155 -0.4604
 8258SOL    MW432806   5.299   4.850   5.665  0.1002  0.3554  0.6115
 8259SOL     OW32807   1.091   2.822   0.875 -0.5819 -0.1308  0.2565
 8259SOL    HW232808   1.094   2.816   0.971  0.7726 -0.6228  0.2073
 8259SOL    HW332809   1.174   2.786   0.846 -0.6147  0.7839 -1.0854
 8259SOL    MW432810   1.102   2.816   0.884 -0.4075 -0.0751  0.0730
 8260SOL     OW32811   5.752   0.692   3.221  0.4521 -0.0880  0.1005
 8260SOL    HW232812   5.687   0.725   3.159  1.0126  1.6816  0.3841
 8260SOL    HW332813   5.700   0.663   3.296 -0.0397  1.9212  0.5984
 8260SOL    MW432814   5.736   0.693   3.223  0.4611  0.4106  0.2036
 8261SOL     OW32815   1.948   2.345   0.604  0.1761 -0.3639  0.5524
 8261SOL    HW232816   2.032   2.383   0.629  0.4964  0.4343 -1.6216
 8261SOL    HW332817   1.971   2.264   0.557 -0.3036 -0.4667  0.4873
 8261SOL    MW432818   1.962   2.339   0.601  0.1551 -0.2722  0.2570
 8262SOL     OW32819   4.131   1.771   3.418  0.5264 -0.4854  0.2964
 8262SOL    HW232820   4.196   1.840   3.406 -0.3667  0.2028 -0.8099
 8262SOL    HW332821   4.173   1.692   3.385  1.0940 -0.2227  0.3788
 8262SOL    MW432822   4.145   1.770   3.412  0.4834 -0.3599  0.1613
 8263SOL     OW32823   0.401   5.088   1.929 -0.3576  0.1821  0.4410
 8263SOL    HW232824   0.322   5.081   1.875 -0.3943 -0.4658  0.5689
 8263SOL    HW332825   0.404   5.181   1.954 -0.1758  0.5535 -0.8924
 8263SOL    MW432826   0.391   5.100   1.925 -0.3385  0.1456  0.2819
 8264SOL     OW32827   1.590   1.303   0.580  0.2316  0.4368 -0.0659
 8264SOL    HW232828   1.609   1.316   0.673 -0.0468  0.6311 -0.0336
 8264SOL    HW332829   1.499   1.334   0.570 -0.0239 -0.3548 -0.2328
 8264SOL    MW432830   1.580   1.309   0.591  0.1612  0.3580 -0.0837
 8265SOL     OW32831   0.840   5.749   4.967 -0.3405  0.3961 -0.1181
 8265SOL    HW232832   0.880   5.671   4.929 -0.8640 -0.1613  0.4497
 8265SOL    HW332833   0.871   5.750   5.058 -0.4148  0.7986 -0.0936
 8265SOL    MW432834   0.850   5.739   4.974 -0.4194  0.3757 -0.0399
 8266SOL     OW32835   3.105   2.107   0.374  0.1603  0.2795 -0.5989
 8266SOL    HW232836   3.201   2.114   0.380  0.5895 -3.0918 -1.6105
 8266SOL    HW332837   3.087   2.014   0.385 -2.8252  0.4885 -2.6512
 8266SOL    MW432838   3.115   2.096   0.376 -0.1770 -0.1377 -1.0032
 8267SOL     OW32839   2.604   4.442   2.632 -0.0594  0.0462  0.8394
 8267SOL    HW232840   2.565   4.498   2.565 -1.2336 -0.4239  1.0944
 8267SOL    HW332841   2.631   4.503   2.701  0.7148  0.4866  0.1603
 8267SOL    MW432842   2.602   4.457   2.632 -0.1122  0.0423  0.7835
 8268SOL     OW32843   3.058   2.039   2.849 -0.5040  0.3931 -0.2359
 8268SOL    HW232844   3.052   1.947   2.825  0.7174  0.4713 -0.9225
 8268SOL    HW332845   3.142   2.068   2.814 -1.0640  1.8927 -0.4226
 8268SOL    MW432846   3.068   2.031   2.841 -0.4167  0.6013 -0.3511
 8269SOL     OW32847   3.448   1.392   3.279  0.1926  0.2143 -0.1103
 8269SOL    HW232848   3.529   1.431   3.312 -0.6995  0.1529  2.4339
 8269SOL    HW332849   3.454   1.300   3.306 -1.0057  0.3729  0.7708
 8269SOL    MW432850   3.460   1.385   3.287 -0.0832  0.2272  0.3416
 8270SOL     OW32851   2.132   3.425   0.606  0.4513 -0.4764 -0.5067
 8270SOL    HW232852   2.090   3.463   0.529 -0.2459 -0.0957  0.0394
 8270SOL    HW332853   2.192   3.494   0.636  1.2191 -0.8815 -1.0802
 8270SOL    MW432854   2.134   3.439   0.600  0.4606 -0.4797 -0.5103
 8271SOL     OW32855   3.152   6.282   0.045  0.2651 -0.1799  0.1274
 8271SOL    HW232856   3.153   6.186   0.047  1.6096 -0.1851 -0.2378
 8271SOL    HW332857   3.235   6.306   0.006 -0.9548  1.1179 -1.8247
 8271SOL    MW432858   3.163   6.272   0.040  0.2815 -0.0093 -0.1783
 8272SOL     OW32859   0.080   4.167   5.026  0.1863 -0.0578 -0.5407
 8272SOL    HW232860   0.137   4.185   4.951 -0.3864  1.1523 -0.7197
 8272SOL    HW332861  -0.008   4.182   4.993 -0.1322 -0.3959  0.1395
 8272SOL    MW432862   0.076   4.172   5.012  0.0687  0.0573 -0.4746
 8273SOL     OW32863   2.080   2.409   5.453 -0.4298 -0.0671  0.1881
 8273SOL    HW232864   2.096   2.503   5.462 -0.4838 -0.1175  0.9005
 8273SOL    HW332865   1.992   2.396   5.488 -1.6346  0.0328 -2.5846
 8273SOL    MW432866   2.071   2.419   5.459 -0.5959 -0.0606 -0.0837
 8274SOL     OW32867   2.567   3.409   1.658  0.2029 -0.1054 -0.2836
 8274SOL    HW232868   2.624   3.477   1.621 -0.9608  1.5282  0.7493
 8274SOL    HW332869   2.617   3.373   1.730  0.6377  0.0377 -0.5078
 8274SOL    MW432870   2.581   3.413   1.663  0.1067  0.1290 -0.1769
 8275SOL     OW32871   6.404   0.434   0.525  0.5094 -0.0137 -0.3343
 8275SOL    HW232872   6.409   0.397   0.613 -2.5930 -2.0654 -0.8649
 8275SOL    HW332873   6.340   0.504   0.532  0.1899 -0.2392 -0.9544
 8275SOL    MW432874   6.396   0.438   0.538  0.0579 -0.3141 -0.4862
 8276SOL     OW32875   3.839   5.293   5.000 -0.1297 -0.0792 -0.3494
 8276SOL    HW232876   3.801   5.219   4.953 -0.2141  0.1095 -0.5775
 8276SOL    HW332877   3.931   5.293   4.975 -0.2952  0.3710 -0.9667
 8276SOL    MW432878   3.846   5.283   4.991 -0.1627  0.0051 -0.4610
 8277SOL     OW32879   4.234   0.454   0.917  0.1317 -0.0173  0.1357
 8277SOL    HW232880   4.327   0.430   0.912 -0.0560 -0.6489 -0.3413
 8277SOL    HW332881   4.234   0.536   0.967  0.7466 -1.1411  2.1029
 8277SOL    MW432882   4.247   0.462   0.923  0.1881 -0.2489  0.3323
 8278SOL     OW32883   4.362   1.708   5.101 -0.4004  0.0583  0.5076
 8278SOL    HW232884   4.335   1.768   5.032  0.0051 -1.9055 -1.4546
 8278SOL    HW332885   4.452   1.734   5.122 -0.8845  1.3355  1.1149
 8278SOL    MW432886   4.370   1.719   5.095 -0.4108 -0.0323  0.3289
 8279SOL     OW32887   5.051   0.175   3.065  0.2750  0.0623 -0.4551
 8279SOL    HW232888   5.042   0.158   3.159  0.5413 -2.4054 -0.8002
 8279SOL    HW332889   5.143   0.157   3.046 -0.1956 -1.4692 -1.4869
 8279SOL    MW432890   5.062   0.171   3.075  0.2481 -0.4654 -0.6368
 8280SOL     OW32891   4.633   0.737   3.461  0.5281  0.3032 -0.1937
 8280SOL    HW232892   4.660   0.829   3.473  1.2380  0.3250 -1.6524
 8280SOL    HW332893   4.686   0.707   3.387  0.2569 -1.2804  0.2279
 8280SOL    MW432894   4.644   0.745   3.453  0.5860  0.0972 -0.3305
 8281SOL     OW32895   2.547   4.630   5.647  0.0317 -0.2440 -0.4677
 8281SOL    HW232896   2.481   4.582   5.596  1.1261  0.1370 -2.3731
 8281SOL    HW332897   2.628   4.579   5.635  0.7855  1.0076 -0.9109
 8281SOL    MW432898   2.549   4.617   5.638  0.2755 -0.0286 -0.7776
 8282SOL     OW32899   5.187   4.113   4.347 -0.5403 -0.0686 -0.4463
 8282SOL    HW232900   5.223   4.043   4.400 -1.2619  0.2750  0.5227
 8282SOL    HW332901   5.098   4.085   4.326 -0.5632  0.1976 -0.7203
 8282SOL    MW432902   5.180   4.100   4.351 -0.6385  0.0118 -0.3546
 8283SOL     OW32903   6.098   4.074   4.202  0.4242 -0.1792  0.4700
 8283SOL    HW232904   6.108   4.113   4.115 -0.6047 -2.5092 -0.7496
 8283SOL    HW332905   6.187   4.046   4.225  0.7595  0.7255  0.3555
 8283SOL    MW432906   6.111   4.076   4.194  0.3327 -0.3673  0.2940
 8284SOL     OW32907   1.884   3.042   3.450  0.4447 -0.4200  0.1217
 8284SOL    HW232908   1.864   3.119   3.398  0.8016 -0.7799 -0.5664
 8284SOL    HW332909   1.838   2.971   3.407 -0.5435 -0.4799  1.2170
 8284SOL    MW432910   1.875   3.043   3.438  0.3614 -0.4754  0.1754
 8285SOL     OW32911   1.199   3.634   3.477 -0.0152 -0.1158  0.0382
 8285SOL    HW232912   1.161   3.546   3.482 -0.1281 -0.1563 -1.2650
 8285SOL    HW332913   1.287   3.621   3.443  0.1965  0.2238  0.4496
 8285SOL    MW432914   1.205   3.621   3.473 -0.0022 -0.0764 -0.0794
 8286SOL     OW32915   3.624   2.331   6.322 -0.7396 -0.4466 -0.4566
 8286SOL    HW232916   3.566   2.350   6.249 -0.2280  2.0239 -0.3014
 8286SOL    HW332917   3.698   2.389   6.311 -0.1358 -0.7557  1.4585
 8286SOL    MW432918   3.626   2.341   6.311 -0.5925 -0.1614 -0.1835
 8287SOL     OW32919   4.483   3.140   0.678 -0.3909 -0.3157 -0.0322
 8287SOL    HW232920   4.433   3.220   0.695  0.0920  0.2845 -1.3087
 8287SOL    HW332921   4.522   3.118   0.762  1.4549  2.1924 -0.1131
 8287SOL    MW432922   4.481   3.148   0.691 -0.0837  0.0944 -0.2113
 8288SOL     OW32923   5.920   5.005   0.172 -0.3898  0.3030  0.5144
 8288SOL    HW232924   5.946   5.038   0.257  1.1989 -0.8496  0.5120
 8288SOL    HW332925   5.856   4.936   0.191 -0.4927  0.4597  0.7346
 8288SOL    MW432926   5.915   5.000   0.185 -0.1937  0.1716  0.5431
 8289SOL     OW32927   5.382   0.318   1.516 -0.1187 -0.4925  0.7844
 8289SOL    HW232928   5.386   0.286   1.606  1.7455 -1.4972  0.4040
 8289SOL    HW332929   5.430   0.253   1.465 -0.3319  0.5243 -0.8024
 8289SOL    MW432930   5.389   0.305   1.521  0.0992 -0.4909  0.5248
 8290SOL     OW32931   3.903   2.187   5.060 -0.1902  0.0826  0.2218
 8290SOL    HW232932   3.828   2.224   5.106 -0.5714 -0.3830 -0.0207
 8290SOL    HW332933   3.904   2.231   4.975 -0.3004 -0.0440  0.1543
 8290SOL    MW432934   3.893   2.197   5.055 -0.2550  0.0045  0.1809
 8291SOL     OW32935   0.761   2.637   2.836 -0.1994  0.1333 -0.0680
 8291SOL    HW232936   0.855   2.643   2.818 -0.2221  0.6936  0.0064
 8291SOL    HW332937   0.737   2.722   2.874 -0.1888 -0.9029  2.5007
 8291SOL    MW432938   0.770   2.649   2.839 -0.2010  0.0705  0.2808
 8292SOL     OW32939   3.839   0.070   3.691 -0.8834 -0.1097 -0.4380
 8292SOL    HW232940   3.830   0.119   3.772  1.9467 -0.4186  0.1713
 8292SOL    HW332941   3.816  -0.020   3.714 -0.6843 -0.0846 -0.1403
 8292SOL    MW432942   3.835   0.064   3.705 -0.4837 -0.1472 -0.3184
 8293SOL     OW32943   5.445   4.092   1.693  0.3004 -0.3892  0.4512
 8293SOL    HW232944   5.487   4.155   1.751 -2.3120  1.1180  0.8754
 8293SOL    HW332945   5.396   4.034   1.751  0.5022 -1.1145 -0.0812
 8293SOL    MW432946   5.444   4.093   1.708 -0.0176 -0.2861  0.4369
 8294SOL     OW32947   2.318   4.015   2.754 -0.5941  0.4527 -0.7536
 8294SOL    HW232948   2.394   3.960   2.773 -1.4747 -1.1091 -1.5607
 8294SOL    HW332949   2.353   4.104   2.751  1.3045 -0.2630 -1.6454
 8294SOL    MW432950   2.332   4.020   2.756 -0.4598  0.1522 -0.9777
 8295SOL     OW32951   4.322   5.128   1.112  0.2530  0.5138 -0.2711
 8295SOL    HW232952   4.240   5.098   1.071  0.3009  1.0818 -0.7912
 8295SOL    HW332953   4.389   5.071   1.075  0.0888 -0.0425  0.2559
 8295SOL    MW432954   4.320   5.116   1.102  0.2376  0.5154 -0.2702
 8296SOL     OW32955   4.399   3.075   1.835 -0.2544 -0.0934 -0.1429
 8296SOL    HW232956   4.475   3.108   1.882  0.1240 -1.6051  0.3516
 8296SOL    HW332957   4.323   3.112   1.882  0.1140  2.1192 -1.1480
 8296SOL    MW432958   4.399   3.084   1.847 -0.1559 -0.0009 -0.2102
 8297SOL     OW32959   0.828   0.195   1.206 -0.4810 -0.2401  0.4293
 8297SOL    HW232960   0.863   0.130   1.145 -1.1833 -1.0247  0.8415
 8297SOL    HW332961   0.771   0.144   1.264 -2.5648  1.0151 -0.4031
 8297SOL    MW432962   0.825   0.179   1.205 -0.8486 -0.1780  0.3738
 8298SOL     OW32963   1.706   6.222   2.522  0.2242  0.0964  0.0579
 8298SOL    HW232964   1.684   6.138   2.482 -1.2692  0.0791  0.8622
 8298SOL    HW332965   1.764   6.199   2.595 -2.0315 -0.5495  1.7618
 8298SOL    MW432966   1.711   6.208   2.527 -0.2704  0.0089  0.3888
 8299SOL     OW32967   0.390   1.613   6.292 -0.0695  0.3042  0.2532
 8299SOL    HW232968   0.301   1.581   6.307 -0.3205  0.4490 -0.8590
 8299SOL    HW332969   0.387   1.705   6.318 -0.0757  0.1476  0.8130
 8299SOL    MW432970   0.378   1.621   6.297 -0.1035  0.3026  0.1803
 8300SOL     OW32971   3.423   5.967   0.257 -0.3684 -0.1116 -0.1981
 8300SOL    HW232972   3.472   5.889   0.231 -0.7716 -0.8046  1.0571
 8300SOL    HW332973   3.490   6.031   0.281 -0.0511 -0.3991 -0.3158
 8300SOL    MW432974   3.438   5.965   0.257 -0.3798 -0.2410 -0.0480
 8301SOL     OW32975   5.067   0.680   4.263  0.3870  0.4154 -0.2588
 8301SOL    HW232976   5.078   0.668   4.169 -0.6284  1.4551 -0.5377
 8301SOL    HW332977   4.975   0.704   4.273  0.6362  0.9263  0.9387
 8301SOL    MW432978   5.056   0.682   4.252  0.2859  0.6199 -0.1376
 8302SOL     OW32979   3.777   5.723   5.318  0.5681 -0.2582 -0.7485
 8302SOL    HW232980   3.846   5.728   5.385 -0.7844 -0.5266  0.7249
 8302SOL    HW332981   3.722   5.799   5.335  0.2560 -0.2799 -1.6319
 8302SOL    MW432982   3.779   5.734   5.329  0.3485 -0.2965 -0.6707
 8303SOL     OW32983   3.451   3.334   4.519 -0.3017 -0.5592 -0.2100
 8303SOL    HW232984   3.464   3.399   4.588 -0.4275 -0.0970 -0.6118
 8303SOL    HW332985   3.422   3.255   4.565  1.1608 -0.7523  0.4133
 8303SOL    MW432986   3.449   3.332   4.534 -0.1253 -0.5237 -0.1808
 8304SOL     OW32987   4.513   1.276   4.983 -0.5021  0.1433  0.1395
 8304SOL    HW232988   4.504   1.272   4.888 -0.2921 -0.8302  0.1416
 8304SOL    HW332989   4.436   1.323   5.013 -1.4477 -0.9972 -0.4045
 8304SOL    MW432990   4.502   1.282   4.975 -0.5991 -0.1356  0.0680
 8305SOL     OW32991   4.252   4.559   0.128  0.3804  0.1803 -0.0601
 8305SOL    HW232992   4.222   4.613   0.201  0.6092 -1.0609  0.9966
 8305SOL    HW332993   4.340   4.531   0.153  0.3534 -0.5027 -0.6748
 8305SOL    MW432994   4.260   4.562   0.141  0.4070 -0.0736 -0.0018
 8306SOL     OW32995   0.268   4.344   1.189 -0.2023 -0.1896  0.5445
 8306SOL    HW232996   0.267   4.419   1.248  1.3006  0.5326 -0.2831
 8306SOL    HW332997   0.240   4.379   1.104 -1.8739 -1.1129  0.6914
 8306SOL    MW432998   0.264   4.358   1.186 -0.2245 -0.2162  0.4547
 8307SOL     OW32999   1.233   1.579   0.382  0.1473  0.4839  0.2210
 8307SOL    HW233000   1.157   1.635   0.398 -0.3410  0.1183 -0.7270
 8307SOL    HW333001   1.225   1.508   0.446 -0.9266 -0.1434 -0.5744
 8307SOL    MW433002   1.222   1.577   0.392 -0.0588  0.3529 -0.0090
 8308SOL     OW33003   4.983   0.732   3.438  0.8108 -0.0973  0.4991
 8308SOL    HW233004   5.074   0.741   3.408  0.7529 -0.0362  0.3392
 8308SOL    HW333005   4.970   0.638   3.448  0.1323 -0.3257 -1.8701
 8308SOL    MW433006   4.993   0.721   3.435  0.7137 -0.1194  0.1654
 8309SOL     OW33007   6.060   0.166   5.079 -0.3602  0.1479  0.4773
 8309SOL    HW233008   6.131   0.155   5.016 -0.1897  0.4187  0.6174
 8309SOL    HW333009   6.104   0.190   5.161 -0.6108  0.3187  0.5654
 8309SOL    MW433010   6.075   0.168   5.081 -0.3707  0.2062  0.5074
 8310SOL     OW33011   5.348   0.787   6.097  1.0261  0.1713  0.1105
 8310SOL    HW233012   5.414   0.813   6.032  0.7194  0.1944 -0.1958
 8310SOL    HW333013   5.279   0.853   6.087  1.2591  0.5448  0.8991
 8310SOL    MW433014   5.348   0.799   6.087  1.0164  0.2236  0.1741
 8311SOL     OW33015   2.159   4.252   1.084 -0.4341 -0.3883 -0.0993
 8311SOL    HW233016   2.139   4.297   1.002  1.6290 -0.3359 -0.6363
 8311SOL    HW333017   2.125   4.163   1.072 -1.1027 -0.0715 -0.5731
 8311SOL    MW433018   2.152   4.246   1.072 -0.2501 -0.3396 -0.2327
 8312SOL     OW33019   3.693   5.450   1.633 -0.3483 -0.0976 -0.4515
 8312SOL    HW233020   3.787   5.432   1.635 -0.6698 -1.9602  0.7026
 8312SOL    HW333021   3.667   5.451   1.725 -1.1167  2.7406 -0.6126
 8312SOL    MW433022   3.702   5.448   1.645 -0.4921  0.0311 -0.3205
 8313SOL     OW33023   2.711   1.546   4.126 -0.3361 -0.0494  0.2544
 8313SOL    HW233024   2.675   1.594   4.051  0.2545 -0.6265 -0.4023
 8313SOL    HW333025   2.782   1.601   4.157  0.7689 -0.7677 -0.9028
 8313SOL    MW433026   2.715   1.560   4.120 -0.1124 -0.2203  0.0151
 8314SOL     OW33027   2.806   0.132   6.059 -0.1752 -0.3764 -0.1005
 8314SOL    HW233028   2.735   0.177   6.013  0.2970  0.1378 -0.3293
 8314SOL    HW333029   2.806   0.169   6.147  0.4408  0.3385 -0.3923
 8314SOL    MW433030   2.797   0.143   6.065 -0.0316 -0.2142 -0.1692
 8315SOL     OW33031   2.239   1.026   3.380 -0.2482 -0.1143  0.1451
 8315SOL    HW233032   2.177   1.003   3.448 -0.4699  0.7477  0.2455
 8315SOL    HW333033   2.258   0.943   3.336  1.5726 -1.1091  2.6000
 8315SOL    MW433034   2.233   1.012   3.383 -0.0372 -0.1318  0.4822
 8316SOL     OW33035   1.371   2.529   3.300 -0.1175 -0.0292  0.8263
 8316SOL    HW233036   1.312   2.550   3.227  0.2913  1.2899  0.8441
 8316SOL    HW333037   1.443   2.592   3.291  1.7543 -2.1209  0.2984
 8316SOL    MW433038   1.373   2.540   3.289  0.1834 -0.1311  0.7590
 8317SOL     OW33039   0.878   1.248   2.783  0.0594  0.0590 -0.6390
 8317SOL    HW233040   0.933   1.255   2.861  0.0425  1.1271 -0.6963
 8317SOL    HW333041   0.915   1.312   2.722 -0.1183 -0.5401 -1.3921
 8317SOL    MW433042   0.890   1.258   2.785  0.0337  0.1208 -0.7459
 8318SOL     OW33043   2.656   2.037   0.540 -0.1757 -0.0754 -0.2397
 8318SOL    HW233044   2.659   1.985   0.460  1.8191 -1.0283  0.3982
 8318SOL    HW333045   2.689   2.123   0.515 -1.3319  0.2243 -0.8079
 8318SOL    MW433046   2.661   2.042   0.527 -0.0651 -0.1616 -0.2305
 8319SOL     OW33047   3.323   4.606   6.202  0.2695 -0.0214  0.2239
 8319SOL    HW233048   3.375   4.684   6.183  0.9561 -0.5242 -0.0185
 8319SOL    HW333049   3.386   4.543   6.238  0.1742 -1.1939 -1.4994
 8319SOL    MW433050   3.338   4.608   6.204  0.3475 -0.2424 -0.0354
 8320SOL     OW33051   4.647   5.667   1.490 -0.2079 -0.3731  0.1424
 8320SOL    HW233052   4.738   5.661   1.520  0.4314  0.2221 -1.5526
 8320SOL    HW333053   4.620   5.577   1.475  1.2914 -0.4738 -2.5579
 8320SOL    MW433054   4.655   5.655   1.492  0.0743 -0.3079 -0.4375
 8321SOL     OW33055   3.802   4.597   1.924  0.2629 -0.0655 -0.1105
 8321SOL    HW233056   3.743   4.546   1.867 -0.5283 -1.8203  2.1326
 8321SOL    HW333057   3.883   4.547   1.926  0.1700 -0.1999  0.5440
 8321SOL    MW433058   3.805   4.584   1.916  0.1462 -0.3148  0.2718
 8322SOL     OW33059   5.687   3.948   1.523 -0.1457  1.0772 -0.2041
 8322SOL    HW233060   5.610   4.004   1.538 -0.5361  0.6737 -0.6523
 8322SOL    HW333061   5.671   3.871   1.578  0.3319  1.3447  0.3176
 8322SOL    MW433062   5.675   3.945   1.532 -0.1342  1.0593 -0.1944
 8323SOL     OW33063   3.017   2.393   2.500 -0.4443 -0.8201 -0.2441
 8323SOL    HW233064   2.978   2.361   2.581 -1.1706 -1.9708 -1.0272
 8323SOL    HW333065   2.942   2.407   2.441  0.1261 -0.7097 -0.9612
 8323SOL    MW433066   3.002   2.391   2.503 -0.4648 -0.9574 -0.4420
 8324SOL     OW33067   4.297   4.726   1.882  0.2774  0.2272 -0.1162
 8324SOL    HW233068   4.333   4.813   1.868 -1.0053  1.0700  1.5423
 8324SOL    HW333069   4.202   4.739   1.882  0.0764 -1.0897  0.5860
 8324SOL    MW433070   4.289   4.739   1.880  0.0817  0.1646  0.1952
 8325SOL     OW33071   5.398   3.053   2.098 -0.7530 -0.0699  0.2290
 8325SOL    HW233072   5.396   3.148   2.101 -2.1944  0.0029 -1.4785
 8325SOL    HW333073   5.307   3.027   2.089 -0.3246 -1.5780 -0.0660
 8325SOL    MW433074   5.386   3.062   2.097 -0.8867 -0.2593 -0.0352
 8326SOL     OW33075   6.088   5.020   0.993  0.1126 -0.1932  0.1608
 8326SOL    HW233076   6.127   4.934   1.009 -0.1265 -0.3854 -0.2674
 8326SOL    HW333077   6.145   5.081   1.039 -0.4311 -0.6995  1.5399
 8326SOL    MW433078   6.101   5.017   1.001  0.0093 -0.2854  0.2862
 8327SOL     OW33079   2.140   4.694   1.863  0.0950 -0.1557  0.1541
 8327SOL    HW233080   2.164   4.768   1.919 -1.5275  1.2077 -0.8279
 8327SOL    HW333081   2.131   4.620   1.922 -1.3867  1.1831  1.7164
 8327SOL    MW433082   2.142   4.694   1.878 -0.3145  0.2008  0.2307
 8328SOL     OW33083   4.124   1.782   4.126 -0.4464  0.1306  0.1989
 8328SOL    HW233084   4.122   1.688   4.144  1.0615 -0.1270 -0.7905
 8328SOL    HW333085   4.035   1.804   4.101 -1.1101 -0.7604  1.6525
 8328SOL    MW433086   4.112   1.773   4.125 -0.3350 -0.0210  0.2602
 8329SOL     OW33087   4.012   1.641   0.957  0.0462 -0.0384  0.4712
 8329SOL    HW233088   4.047   1.634   0.868  0.2292  0.7676  0.4796
 8329SOL    HW333089   4.034   1.729   0.986 -0.1631 -0.2298  1.2586
 8329SOL    MW433090   4.020   1.651   0.949  0.0427  0.0427  0.5762
 8330SOL     OW33091   5.957   5.995   3.483  0.1392 -0.1331 -0.6886
 8330SOL    HW233092   6.026   5.971   3.544 -1.6496  0.6368  1.8218
 8330SOL    HW333093   5.998   5.993   3.397  2.8475 -1.1412  0.5368
 8330SOL    MW433094   5.972   5.992   3.480  0.2605 -0.1645 -0.1957
 8331SOL     OW33095   3.533   1.280   5.336 -0.1045  0.0439  0.1326
 8331SOL    HW233096   3.624   1.254   5.331  0.2925  1.3899 -0.1105
 8331SOL    HW333097   3.484   1.198   5.337  1.0844 -0.6857 -0.0162
 8331SOL    MW433098   3.538   1.266   5.336  0.1047  0.1252  0.0809
 8332SOL     OW33099   1.089   1.229   2.980  0.3793  0.0945  0.3773
 8332SOL    HW233100   1.066   1.204   3.069 -1.3075  0.7538  0.1681
 8332SOL    HW333101   1.168   1.282   2.989 -0.5179  1.2905  1.6575
 8332SOL    MW433102   1.097   1.233   2.993  0.0384  0.3393  0.5186
 8333SOL     OW33103   0.987   4.452   2.041 -0.0062 -0.1373  0.5469
 8333SOL    HW233104   1.006   4.364   2.073  0.9745  0.1266  0.7235
 8333SOL    HW333105   0.944   4.496   2.114 -0.4854 -0.4501  0.4634
 8333SOL    MW433106   0.984   4.446   2.055  0.0600 -0.1438  0.5592
 8334SOL     OW33107   2.223   3.503   2.050 -0.7750  0.0983  0.1280
 8334SOL    HW233108   2.242   3.585   2.095  2.9672 -0.0579 -0.8842
 8334SOL    HW333109   2.205   3.441   2.121  1.4326  0.6875  1.2848
 8334SOL    MW433110   2.223   3.506   2.066  0.0100  0.1554  0.1471
 8335SOL     OW33111   0.745   0.915   6.190  0.0656 -0.5704 -0.7334
 8335SOL    HW233112   0.656   0.922   6.225  1.0882  0.4181  1.9714
 8335SOL    HW333113   0.786   0.846   6.242  1.4457  0.4337 -0.4161
 8335SOL    MW433114   0.739   0.907   6.202  0.3826 -0.3075 -0.3346
 8336SOL     OW33115   1.802   5.944   0.786  0.6478  0.8305  0.3501
 8336SOL    HW233116   1.744   5.875   0.753  0.1732  1.3367  0.1060
 8336SOL    HW333117   1.743   6.014   0.813  1.1775  2.3877 -2.2084
 8336SOL    MW433118   1.787   5.944   0.785  0.6551  1.1027 -0.0197
 8337SOL     OW33119   0.694   0.819   2.056  0.1874 -0.5293  0.2430
 8337SOL    HW233120   0.664   0.761   2.126  0.3659  0.3810  1.1032
 8337SOL    HW333121   0.631   0.892   2.057  0.4810 -0.2654 -0.2055
 8337SOL    MW433122   0.682   0.821   2.066  0.2497 -0.3744  0.2973
 8338SOL     OW33123   1.230   5.759   3.766 -0.1478 -0.8778  0.1734
 8338SOL    HW233124   1.289   5.709   3.822  0.5130 -0.8938 -0.5280
 8338SOL    HW333125   1.144   5.719   3.779  0.2341 -1.6828  0.2170
 8338SOL    MW433126   1.226   5.747   3.775 -0.0102 -0.9861  0.0866
 8339SOL     OW33127   4.698   1.204   5.178  0.0485  0.3051  0.4912
 8339SOL    HW233128   4.641   1.217   5.102  0.6019  0.9819  0.1786
 8339SOL    HW333129   4.647   1.149   5.237  0.0495 -1.2111 -0.8581
 8339SOL    MW433130   4.684   1.198   5.176  0.1217  0.1944  0.2719
 8340SOL     OW33131   1.538   3.585   5.259 -0.3356  0.3456  0.1628
 8340SOL    HW233132   1.539   3.609   5.166  2.7586 -0.3306 -0.0798
 8340SOL    HW333133   1.466   3.522   5.267  0.1210 -0.5471 -2.0738
 8340SOL    MW433134   1.529   3.580   5.248  0.1329  0.1386 -0.1643
 8341SOL     OW33135   1.511   5.962   0.531 -0.0479 -0.4314 -0.5408
 8341SOL    HW233136   1.578   6.030   0.530 -0.8219  0.3462 -0.1958
 8341SOL    HW333137   1.557   5.884   0.563  0.5924  0.2120  0.1452
 8341SOL    MW433138   1.526   5.960   0.535 -0.0655 -0.2439 -0.4047
 8342SOL     OW33139   3.177   4.008   0.620  0.7087 -0.1266 -0.2708
 8342SOL    HW233140   3.260   3.970   0.648  0.4583 -0.4343  0.0634
 8342SOL    HW333141   3.139   4.046   0.700  0.5028 -0.0360 -0.4096
 8342SOL    MW433142   3.183   4.008   0.634  0.6485 -0.1552 -0.2450
 8343SOL     OW33143   1.643   5.220   0.991 -0.1963  0.6200 -0.0695
 8343SOL    HW233144   1.669   5.175   0.911  0.8020  0.0416  0.5469
 8343SOL    HW333145   1.560   5.263   0.970 -1.4556 -1.8961 -0.5550
 8343SOL    MW433146   1.636   5.220   0.978 -0.2307  0.2117 -0.0522
 8344SOL     OW33147   5.974   1.498   1.648  0.2652 -0.3646 -0.0172
 8344SOL    HW233148   6.010   1.439   1.583 -1.4209 -2.1377  0.5670
 8344SOL    HW333149   5.963   1.445   1.726  0.2282  1.1612  1.0651
 8344SOL    MW433150   5.977   1.483   1.650  0.0379 -0.3973  0.2027
 8345SOL     OW33151   3.546   3.851   1.553  0.2639  0.1090 -0.0339
 8345SOL    HW233152   3.545   3.901   1.472  1.1577 -2.0686 -1.4738
 8345SOL    HW333153   3.467   3.797   1.550 -0.0048  0.4300  0.8418
 8345SOL    MW433154   3.536   3.850   1.542  0.3464 -0.1359 -0.1084
 8346SOL     OW33155   1.702   1.931   5.923 -0.1489  0.4386  0.5564
 8346SOL    HW233156   1.644   1.874   5.872 -0.8824  1.1252  0.5923
 8346SOL    HW333157   1.789   1.917   5.887 -0.4643 -0.0285 -0.0328
 8346SOL    MW433158   1.706   1.922   5.912 -0.2873  0.4676  0.4834
 8347SOL     OW33159   5.734   0.042   4.550  0.4164  0.2383 -0.2970
 8347SOL    HW233160   5.663   0.017   4.491  1.4455 -2.1163 -0.6530
 8347SOL    HW333161   5.722  -0.013   4.627  0.5480  1.4960  0.6656
 8347SOL    MW433162   5.723   0.032   4.552  0.5695  0.0936 -0.2170
 8348SOL     OW33163   5.307   5.539   5.620  0.7487  0.0297 -0.1709
 8348SOL    HW233164   5.359   5.589   5.557 -0.8567  0.8106 -0.9434
 8348SOL    HW333165   5.264   5.606   5.673  1.1480 -0.6083  0.9699
 8348SOL    MW433166   5.308   5.554   5.618  0.5896  0.0486 -0.1223
 8349SOL     OW33167   0.924   3.906   2.832 -0.1460 -0.9076 -0.3391
 8349SOL    HW233168   0.962   3.940   2.751 -1.0079 -2.4085 -1.4229
 8349SOL    HW333169   0.894   3.984   2.879 -1.0598 -0.0812 -2.2077
 8349SOL    MW433170   0.925   3.921   2.828 -0.3803 -0.9966 -0.7287
 8350SOL     OW33171   2.596   6.365   4.407 -0.9092 -0.3642 -0.1779
 8350SOL    HW233172   2.537   6.398   4.339 -0.4253  1.5109  0.2641
 8350SOL    HW333173   2.672   6.332   4.359 -1.4903 -1.0442 -0.6451
 8350SOL    MW433174   2.599   6.365   4.392 -0.9220 -0.2065 -0.1812
 8351SOL     OW33175   2.266   1.416   6.351  0.2022  0.5209  0.0039
 8351SOL    HW233176   2.176   1.446   6.348  0.7270  2.2413  0.2676
 8351SOL    HW333177   2.274   1.353   6.280 -1.0992  0.6209 -0.2406
 8351SOL    MW433178   2.255   1.412   6.341  0.0998  0.7611  0.0064
 8352SOL     OW33179   2.213   5.256   6.061  0.1010  0.0959  0.2560
 8352SOL    HW233180   2.215   5.273   5.967  0.8650 -1.5061 -0.0509
 8352SOL    HW333181   2.120   5.244   6.081 -0.2188  1.9594  0.0332
 8352SOL    MW433182   2.201   5.257   6.052  0.1596  0.1304  0.1861
 8353SOL     OW33183   4.010   3.245   0.528  0.6959  0.1827  0.5340
 8353SOL    HW233184   3.982   3.277   0.613  2.1754  0.8553  0.8011
 8353SOL    HW333185   3.947   3.283   0.466  0.8774  1.4843  1.1103
 8353SOL    MW433186   3.998   3.254   0.531  0.9150  0.4432  0.6453
 8354SOL     OW33187   3.633   5.725   3.478 -0.0465  0.2987 -0.3849
 8354SOL    HW233188   3.641   5.729   3.573 -1.6251 -0.9783 -0.1637
 8354SOL    HW333189   3.592   5.808   3.454 -3.0435 -0.7992  0.5192
 8354SOL    MW433190   3.629   5.737   3.487 -0.6502 -0.0147 -0.2364
 8355SOL     OW33191   1.997   6.192   1.568  0.2337  0.0333 -0.2221
 8355SOL    HW233192   2.056   6.116   1.574 -1.7178 -1.5031  1.3928
 8355SOL    HW333193   2.026   6.250   1.639 -0.6153 -1.1043  1.1142
 8355SOL    MW433194   2.009   6.189   1.578 -0.1358 -0.3195  0.1673
 8356SOL     OW33195   1.078   1.275   5.202 -0.9626  0.0276  0.1903
 8356SOL    HW233196   1.074   1.210   5.132  0.8240  1.9485 -1.8439
 8356SOL    HW333197   1.135   1.236   5.268 -0.4647 -0.7454 -0.6696
 8356SOL    MW433198   1.085   1.261   5.202 -0.6612  0.1791 -0.1915
 8357SOL     OW33199   5.812   4.196   1.924 -0.3023  0.0768 -0.5806
 8357SOL    HW233200   5.723   4.231   1.931 -0.5481 -0.2374 -1.7633
 8357SOL    HW333201   5.804   4.126   1.858  0.5626 -0.8479  0.2698
 8357SOL    MW433202   5.799   4.191   1.916 -0.2206 -0.0866 -0.6245
 8358SOL     OW33203   4.711   5.937   3.221  0.2898 -0.7620  0.1292
 8358SOL    HW233204   4.634   5.993   3.233  1.0648  0.7979 -1.7071
 8358SOL    HW333205   4.778   5.975   3.277 -0.1307 -1.9613  1.5191
 8358SOL    MW433206   4.710   5.949   3.230  0.3366 -0.7144  0.0703
 8359SOL     OW33207   0.296   4.694   4.030 -0.7694  0.2971  0.4164
 8359SOL    HW233208   0.373   4.643   4.054  0.2083  1.4712 -0.1150
 8359SOL    HW333209   0.331   4.780   4.004 -2.0775  0.2795 -1.6125
 8359SOL    MW433210   0.310   4.699   4.030 -0.8130  0.4497  0.0786
 8360SOL     OW33211   4.898   2.364   0.244  0.3894 -0.0769  0.0065
 8360SOL    HW233212   4.827   2.349   0.181  1.6313  1.0139 -1.7164
 8360SOL    HW333213   4.879   2.450   0.282 -1.6079 -1.6218  2.9799
 8360SOL    MW433214   4.886   2.373   0.241  0.2897 -0.1368  0.1715
 8361SOL     OW33215   2.171   4.975   6.075 -0.6249  0.0348 -0.1963
 8361SOL    HW233216   2.185   4.948   5.984  0.7431 -0.1498  0.0468
 8361SOL    HW333217   2.202   5.065   6.079 -2.4545  0.7235 -0.3173
 8361SOL    MW433218   2.177   4.983   6.063 -0.6858  0.1013 -0.1802
 8362SOL     OW33219   1.698   1.160   5.847  0.5884  0.1666  0.1539
 8362SOL    HW233220   1.608   1.149   5.816 -0.0815  0.8009  1.7750
 8362SOL    HW333221   1.729   1.240   5.803  1.1044 -1.1079 -1.9367
 8362SOL    MW433222   1.690   1.169   5.837  0.5681  0.0821  0.0920
 8363SOL     OW33223   5.999   1.155   1.242 -0.1907 -0.5615 -0.4439
 8363SOL    HW233224   6.072   1.120   1.292 -0.1878 -1.5350 -1.1016
 8363SOL    HW333225   6.013   1.123   1.153 -0.4233  0.7786 -0.9900
 8363SOL    MW433226   6.010   1.146   1.237 -0.2210 -0.5131 -0.6027
 8364SOL     OW33227   0.306   2.125   1.353  0.7423 -0.2188 -0.1133
 8364SOL    HW233228   0.240   2.147   1.287 -0.1827 -1.7712  0.2423
 8364SOL    HW333229   0.338   2.210   1.385 -1.8939  0.6378  0.4978
 8364SOL    MW433230   0.302   2.139   1.349  0.2725 -0.3106  0.0143
 8365SOL     OW33231   1.289   4.043   6.146 -0.1223  0.1268 -0.3207
 8365SOL    HW233232   1.349   4.014   6.077  1.4907  1.2908  0.5283
 8365SOL    HW333233   1.263   3.962   6.190  2.5930 -0.3253  0.6692
 8365SOL    MW433234   1.294   4.028   6.143  0.4488  0.2207 -0.0781
 8366SOL     OW33235   1.433   0.586   5.548 -0.5031  0.6414  0.2299
 8366SOL    HW233236   1.459   0.666   5.503  0.6144  0.3152  0.2814
 8366SOL    HW333237   1.400   0.529   5.479  0.5038  0.4241 -0.0766
 8366SOL    MW433238   1.432   0.589   5.533 -0.2228  0.5697  0.1962
 8367SOL     OW33239   1.214   2.723   0.273 -0.6828  0.0688  0.1242
 8367SOL    HW233240   1.175   2.732   0.187  1.1494 -1.0416 -0.8999
 8367SOL    HW333241   1.182   2.639   0.306  1.1653 -1.1355 -0.9744
 8367SOL    MW433242   1.205   2.713   0.266 -0.1972 -0.2366 -0.1559
 8368SOL     OW33243   3.298   5.012   4.946 -0.5045 -0.7467 -0.2290
 8368SOL    HW233244   3.303   5.008   4.851 -0.0562 -0.1137 -0.2329
 8368SOL    HW333245   3.279   5.103   4.966  0.3746 -0.6678  0.3240
 8368SOL    MW433246   3.296   5.023   4.936 -0.3294 -0.6528 -0.1565
 8369SOL     OW33247   3.126   1.331   5.297 -0.2754 -0.1524 -0.6932
 8369SOL    HW233248   3.155   1.391   5.365 -0.4683 -1.5138  0.6368
 8369SOL    HW333249   3.036   1.308   5.322 -0.0468 -1.3327 -0.9277
 8369SOL    MW433250   3.118   1.336   5.309 -0.2707 -0.4877 -0.5486
 8370SOL     OW33251   2.168   6.388   4.953 -0.2614 -0.0918  0.2422
 8370SOL    HW233252   2.111   6.458   4.922 -1.0014 -0.1748  1.3341
 8370SOL    HW333253   2.188   6.337   4.875 -0.0415  1.0953 -0.4960
 8370SOL    MW433254   2.163   6.390   4.939 -0.3300  0.0539  0.2889
 8371SOL     OW33255   1.391   3.385   0.753 -0.2613 -0.0786 -0.5434
 8371SOL    HW233256   1.370   3.450   0.819  1.1421  1.3903 -1.4728
 8371SOL    HW333257   1.475   3.348   0.781 -1.2402 -1.8438  0.1971
 8371SOL    MW433258   1.399   3.389   0.765 -0.2053 -0.1177 -0.5683
 8372SOL     OW33259   1.510   5.578   1.523 -0.1523  0.4425  0.2068
 8372SOL    HW233260   1.530   5.642   1.592  1.6246  0.2032 -0.0422
 8372SOL    HW333261   1.442   5.522   1.562 -0.9136  1.7530  0.8492
 8372SOL    MW433262   1.504   5.579   1.537 -0.0183  0.5838  0.2587
 8373SOL     OW33263   5.417   0.549   3.970 -0.2969  0.5604 -0.1078
 8373SOL    HW233264   5.439   0.621   4.028 -1.3083  1.0982 -0.3656
 8373SOL    HW333265   5.498   0.498   3.963  0.4549  1.7029  0.0143
 8373SOL    MW433266   5.430   0.552   3.977 -0.3312  0.7821 -0.1257
 8374SOL     OW33267   1.058   1.675   1.503 -0.1330 -0.7755  0.4828
 8374SOL    HW233268   1.039   1.581   1.507 -0.3853 -0.6934  1.5611
 8374SOL    HW333269   1.125   1.683   1.435 -0.5218 -1.6573 -0.0295
 8374SOL    MW433270   1.064   1.664   1.494 -0.2176 -0.8810  0.5575
 8375SOL     OW33271   4.554   4.569   4.451 -0.2891  0.1088 -0.1359
 8375SOL    HW233272   4.529   4.506   4.383 -0.7767  0.6104 -0.4258
 8375SOL    HW333273   4.473   4.589   4.497 -0.2309  0.8845 -0.3531
 8375SOL    MW433274   4.540   4.564   4.448 -0.3457  0.2773 -0.2028
 8376SOL     OW33275   3.854   4.513   0.929 -0.0598 -0.1879 -0.8541
 8376SOL    HW233276   3.879   4.425   0.901  1.7117  0.1169 -0.3394
 8376SOL    HW333277   3.926   4.569   0.899 -0.4188  0.8428  0.1599
 8376SOL    MW433278   3.867   4.508   0.921  0.1265 -0.0117 -0.6524
 8377SOL     OW33279   5.214   5.431   0.990 -0.4221 -0.1830 -0.4933
 8377SOL    HW233280   5.193   5.466   0.903  1.3556 -0.3383 -1.0220
 8377SOL    HW333281   5.306   5.455   1.004 -0.5838 -0.4425  1.2157
 8377SOL    MW433282   5.223   5.439   0.981 -0.2089 -0.2377 -0.3376
 8378SOL     OW33283   4.031   1.455   1.992 -0.3263 -0.3417  0.1102
 8378SOL    HW233284   3.963   1.449   1.925  1.5807 -1.1608 -1.8589
 8378SOL    HW333285   4.078   1.536   1.971 -0.6143  0.2126  1.4502
 8378SOL    MW433286   4.028   1.465   1.980 -0.1127 -0.3767  0.0272
 8379SOL     OW33287   5.497   5.598   2.474  0.3696 -0.4832  0.2451
 8379SOL    HW233288   5.446   5.625   2.551 -2.4790  0.5900 -1.8374
 8379SOL    HW333289   5.575   5.652   2.477 -0.5864  0.9166  1.3925
 8379SOL    MW433290   5.500   5.609   2.485 -0.1324 -0.1569  0.1217
 8380SOL     OW33291   3.589   5.997   3.391 -0.4738  0.1281  0.1638
 8380SOL    HW233292   3.587   6.023   3.299  0.4629  0.8840  0.3422
 8380SOL    HW333293   3.532   6.059   3.436 -3.2512 -1.9455 -0.2615
 8380SOL    MW433294   3.582   6.008   3.385 -0.7166 -0.0458  0.1313
 8381SOL     OW33295   0.743   6.283   6.427  0.2172  0.1741 -0.1146
 8381SOL    HW233296   0.750   6.207   6.370  1.1667  0.2219 -0.0796
 8381SOL    HW333297   0.821   6.279   6.483 -0.7878  0.0258  1.3190
 8381SOL    MW433298   0.754   6.273   6.427  0.2099  0.1608  0.0791
 8382SOL     OW33299   3.341   0.112   3.228  0.2591 -0.0215  0.2693
 8382SOL    HW233300   3.321   0.026   3.190  1.1649 -0.2421  0.2622
 8382SOL    HW333301   3.436   0.112   3.236  0.1912  0.6066  1.1652
 8382SOL    MW433302   3.351   0.100   3.224  0.3696  0.0323  0.3865
 8383SOL     OW33303   0.189   0.050   5.067 -0.2806 -0.1682 -0.2076
 8383SOL    HW233304   0.162  -0.036   5.037  0.2836  0.0460 -1.3932
 8383SOL    HW333305   0.149   0.059   5.154  0.1077 -1.8417  0.1865
 8383SOL    MW433306   0.181   0.040   5.075 -0.1549 -0.3607 -0.3120
 8384SOL     OW33307   3.630   1.744   2.324 -0.3259  0.3560 -0.3410
 8384SOL    HW233308   3.640   1.743   2.419 -0.5258 -0.1255 -0.3266
 8384SOL    HW333309   3.551   1.797   2.309 -1.5280 -1.3001 -0.1241
 8384SOL    MW433310   3.621   1.751   2.334 -0.5109  0.0740 -0.3105
 8385SOL     OW33311   4.527   5.002   2.879  0.0014 -0.4430  0.6723
 8385SOL    HW233312   4.598   4.937   2.877 -0.8114 -1.3412  0.2570
 8385SOL    HW333313   4.447   4.950   2.879 -0.6699  0.5601  1.3096
 8385SOL    MW433314   4.526   4.986   2.878 -0.1944 -0.4291  0.7016
 8386SOL     OW33315   0.056   5.886   1.797  0.1319  0.1002 -0.4509
 8386SOL    HW233316   0.064   5.801   1.756 -0.3217 -0.6950  1.0165
 8386SOL    HW333317   0.116   5.942   1.749  0.0891 -0.9214 -1.7417
 8386SOL    MW433318   0.065   5.882   1.786  0.0664 -0.1395 -0.4276
 8387SOL     OW33319   5.371   1.987   3.214 -0.3199 -0.6952  0.2985
 8387SOL    HW233320   5.344   1.934   3.288  1.0954  0.0824  1.4150
 8387SOL    HW333321   5.455   2.025   3.240 -1.3880  2.3691 -0.2550
 8387SOL    MW433322   5.378   1.985   3.227 -0.2741 -0.1883  0.3727
 8388SOL     OW33323   4.328   5.866   3.439  0.4823 -0.3377 -1.0039
 8388SOL    HW233324   4.341   5.772   3.424 -2.5925 -0.6025 -2.9178
 8388SOL    HW333325   4.339   5.906   3.353 -1.5523  0.5326 -0.9098
 8388SOL    MW433326   4.331   5.859   3.426 -0.1918 -0.2578 -1.2440
 8389SOL     OW33327   2.882   0.802   6.414 -0.2284  0.0411 -0.0128
 8389SOL    HW233328   2.806   0.860   6.420 -1.0997 -1.0060 -0.5244
 8389SOL    HW333329   2.926   0.830   6.333 -0.2845  0.3989  0.0774
 8389SOL    MW433330   2.878   0.813   6.404 -0.3507 -0.0499 -0.0684
 8390SOL     OW33331   4.665   4.292   4.461 -0.7782  0.3893 -0.0178
 8390SOL    HW233332   4.746   4.342   4.474  0.6704 -0.8500 -3.1218
 8390SOL    HW333333   4.617   4.341   4.394 -1.3980 -0.1929 -0.0071
 8390SOL    MW433334   4.670   4.305   4.454 -0.6689  0.1490 -0.4260
 8391SOL     OW33335   0.454   2.197   3.539  0.3641 -0.0487  0.3388
 8391SOL    HW233336   0.518   2.265   3.558 -0.1349  0.0691  1.6931
 8391SOL    HW333337   0.385   2.209   3.604 -0.6849 -0.6444 -0.6044
 8391SOL    MW433338   0.453   2.208   3.550  0.1599 -0.1118  0.3930
 8392SOL     OW33339   0.684   1.095   1.651 -0.2054 -0.3664  0.6103
 8392SOL    HW233340   0.772   1.103   1.689 -0.6769  1.5199  1.4236
 8392SOL    HW333341   0.693   1.133   1.563  0.0076 -1.1931  0.2582
 8392SOL    MW433342   0.697   1.101   1.644 -0.2395 -0.2266  0.6712
 8393SOL     OW33343   4.925   5.656   0.462 -0.0496  0.0564 -0.8916
 8393SOL    HW233344   4.948   5.570   0.427 -1.5519 -0.5093 -0.5720
 8393SOL    HW333345   5.009   5.694   0.489  0.5243 -1.9168  0.3210
 8393SOL    MW433346   4.939   5.649   0.461 -0.1721 -0.2786 -0.6894
 8394SOL     OW33347   1.645   0.463   2.190  0.0401  0.2497  0.2214
 8394SOL    HW233348   1.639   0.416   2.107  0.7320  2.2157 -0.9927
 8394SOL    HW333349   1.737   0.456   2.215  0.5353  2.2844 -0.8397
 8394SOL    MW433350   1.656   0.456   2.182  0.1967  0.7775 -0.0788
 8395SOL     OW33351   1.404   6.145   1.642 -0.3429  0.3611  0.6042
 8395SOL    HW233352   1.417   6.083   1.571  0.2165  1.7530 -0.5706
 8395SOL    HW333353   1.493   6.166   1.672 -0.4797  1.1462  0.4750
 8395SOL    MW433354   1.418   6.140   1.637 -0.2872  0.6483  0.4321
 8396SOL     OW33355   6.194   1.422   3.145 -0.0997  0.4549  0.1954
 8396SOL    HW233356   6.182   1.513   3.118  2.3770  1.1815  1.2256
 8396SOL    HW333357   6.135   1.411   3.220  1.3265  2.0799  1.6577
 8396SOL    MW433358   6.185   1.432   3.151  0.4152  0.7651  0.5243
 8397SOL     OW33359   0.617   4.227   6.197  0.0156 -0.2059  0.6712
 8397SOL    HW233360   0.622   4.238   6.292  1.4486  1.6888  0.4275
 8397SOL    HW333361   0.585   4.311   6.165 -3.3233 -1.6927 -0.4147
 8397SOL    MW433362   0.613   4.239   6.206 -0.2358 -0.1521  0.4958
 8398SOL     OW33363   3.237   1.607   0.584  0.0474 -0.2698 -1.0333
 8398SOL    HW233364   3.251   1.619   0.490  1.9624  2.0510 -0.5560
 8398SOL    HW333365   3.253   1.694   0.622 -0.5753 -1.1533  1.4613
 8398SOL    MW433366   3.241   1.620   0.577  0.2179 -0.0801 -0.6412
 8399SOL     OW33367   3.401   6.212   3.488  0.1448 -0.3708 -0.3960
 8399SOL    HW233368   3.475   6.266   3.464  0.8732 -0.0752  2.2328
 8399SOL    HW333369   3.324   6.264   3.464  0.7851  0.2800 -1.0923
 8399SOL    MW433370   3.400   6.226   3.482  0.3254 -0.2460 -0.1411
 8400SOL     OW33371   4.057   2.471   3.332 -0.1949  0.3364 -0.3855
 8400SOL    HW233372   4.117   2.404   3.298 -1.3185  0.4714 -2.8663
 8400SOL    HW333373   4.062   2.461   3.427  1.6645 -1.4772 -0.5860
 8400SOL    MW433374   4.066   2.461   3.340 -0.0978  0.1150 -0.7393
 8401SOL     OW33375   4.679   0.938   5.684 -0.4722 -0.3696 -0.3633
 8401SOL    HW233376   4.743   0.908   5.619  0.7439  3.0707 -0.9736
 8401SOL    HW333377   4.725   0.933   5.768 -0.0539  0.3768 -0.5472
 8401SOL    MW433378   4.693   0.933   5.686 -0.2565  0.1827 -0.4681
 8402SOL     OW33379   5.116   5.507   2.256 -0.2312  0.2924 -0.4814
 8402SOL    HW233380   5.050   5.556   2.207 -1.3771 -0.7943 -0.0790
 8402SOL    HW333381   5.107   5.417   2.225  0.7757  0.0506 -0.1038
 8402SOL    MW433382   5.106   5.501   2.245 -0.2496  0.1171 -0.3785
 8403SOL     OW33383   1.251   5.266   2.110  0.0078 -0.0358  0.4765
 8403SOL    HW233384   1.281   5.204   2.176  0.5200  0.9391  1.1829
 8403SOL    HW333385   1.175   5.308   2.150 -0.1964 -0.0372  0.0933
 8403SOL    MW433386   1.244   5.263   2.124  0.0484  0.0927  0.5192
 8404SOL     OW33387   0.817   2.423   2.596  0.4558 -0.1639 -0.2018
 8404SOL    HW233388   0.859   2.509   2.592 -0.2417  0.2168  0.4522
 8404SOL    HW333389   0.816   2.401   2.689  1.4574 -1.3102 -0.4253
 8404SOL    MW433390   0.823   2.431   2.608  0.4959 -0.2649 -0.1450
 8405SOL     OW33391   5.792   3.986   0.998  0.0415  0.3679 -0.2068
 8405SOL    HW233392   5.831   4.025   1.076 -2.6136  3.2774 -0.0798
 8405SOL    HW333393   5.743   3.911   1.031  0.2268  0.6198  0.6797
 8405SOL    MW433394   5.790   3.981   1.013 -0.2844  0.7850 -0.0731
 8406SOL     OW33395   3.753   4.052   5.563  0.0846 -0.0505 -0.7429
 8406SOL    HW233396   3.776   4.032   5.473  0.7388  1.8924 -1.0680
 8406SOL    HW333397   3.661   4.079   5.559  0.5673  1.6870 -1.1833
 8406SOL    MW433398   3.744   4.053   5.551  0.2346  0.4351 -0.8439
 8407SOL     OW33399   6.316   1.573   6.136  0.9340  0.3074 -0.0846
 8407SOL    HW233400   6.263   1.602   6.210  3.0175 -0.0811  1.6434
 8407SOL    HW333401   6.278   1.490   6.110 -0.2380  0.7762  0.0799
 8407SOL    MW433402   6.304   1.566   6.142  1.0543  0.3180  0.1651
 8408SOL     OW33403   3.656   6.307   3.973  0.1617 -0.1632 -0.1562
 8408SOL    HW233404   3.677   6.242   3.905  0.4749  0.3584 -0.5632
 8408SOL    HW333405   3.738   6.318   4.021 -0.6278 -2.3433  1.9165
 8408SOL    MW433406   3.670   6.300   3.970  0.0988 -0.3820  0.0636
 8409SOL     OW33407   6.333   6.311   5.145  0.1634 -0.0272 -0.0480
 8409SOL    HW233408   6.375   6.379   5.198  0.1689  1.3979 -1.8226
 8409SOL    HW333409   6.288   6.256   5.210  1.0633  0.9957  1.5244
 8409SOL    MW433410   6.333   6.313   5.161  0.2829  0.2958 -0.0747
 8410SOL     OW33411   2.550   3.325   4.137  0.1239 -0.0526  0.3330
 8410SOL    HW233412   2.537   3.414   4.103 -0.7130 -0.6409 -0.9818
 8410SOL    HW333413   2.637   3.300   4.108 -0.5602 -0.5235 -1.4238
 8410SOL    MW433414   2.560   3.334   4.129 -0.0768 -0.1924 -0.0723
 8411SOL     OW33415   1.092   5.062   4.418 -0.3470 -0.3046  0.3905
 8411SOL    HW233416   1.143   4.988   4.386 -0.2809  0.1543 -0.6243
 8411SOL    HW333417   1.143   5.097   4.491  0.2976 -0.4423  0.0068
 8411SOL    MW433418   1.105   5.057   4.423 -0.2533 -0.2623  0.2060
 8412SOL     OW33419   1.513   1.218   4.991  1.1708 -0.4064 -0.3015
 8412SOL    HW233420   1.513   1.133   5.036  1.9150  0.4297  1.3588
 8412SOL    HW333421   1.605   1.237   4.975  1.0112  0.0925 -0.6444
 8412SOL    MW433422   1.525   1.209   4.995  1.2479 -0.2302 -0.1277
 8413SOL     OW33423   3.438   1.394   1.737  0.0665 -0.4279 -0.3652
 8413SOL    HW233424   3.455   1.373   1.645 -0.3054  1.2599 -0.8402
 8413SOL    HW333425   3.520   1.432   1.768 -0.6004  1.4192 -0.7579
 8413SOL    MW433426   3.451   1.396   1.729 -0.0706  0.0385 -0.4797
 8414SOL     OW33427   1.315   2.851   5.159  0.3999  0.0942  0.2599
 8414SOL    HW233428   1.371   2.780   5.130 -1.3829 -1.0926 -0.3945
 8414SOL    HW333429   1.227   2.826   5.131 -0.2412  2.7645 -0.3998
 8414SOL    MW433430   1.311   2.839   5.152  0.0801  0.2899  0.0865
 8415SOL     OW33431   2.520   5.339   2.527  0.0575 -0.3629 -0.0336
 8415SOL    HW233432   2.536   5.277   2.456 -0.6305 -0.6338  0.0456
 8415SOL    HW333433   2.587   5.318   2.592  0.5789 -0.2314 -0.5148
 8415SOL    MW433434   2.531   5.328   2.526  0.0355 -0.3813 -0.0867
 8416SOL     OW33435   4.810   3.312   0.927 -0.3878 -0.0180 -0.0264
 8416SOL    HW233436   4.723   3.286   0.959 -0.8704  1.1158 -0.3892
 8416SOL    HW333437   4.795   3.394   0.881  0.8496  0.0601 -0.3088
 8416SOL    MW433438   4.797   3.319   0.925 -0.2882  0.1419 -0.1116
 8417SOL     OW33439   2.075   2.869   6.259 -0.2041  0.4190 -0.3304
 8417SOL    HW233440   2.028   2.827   6.332  1.2466  0.8795  0.9185
 8417SOL    HW333441   2.161   2.829   6.260 -0.3761 -0.0805 -2.3029
 8417SOL    MW433442   2.080   2.858   6.269 -0.0354  0.4139 -0.4259
 8418SOL     OW33443   3.899   4.500   4.174  0.3053  0.1490 -0.0785
 8418SOL    HW233444   3.877   4.515   4.266 -0.5307 -1.3999  0.0162
 8418SOL    HW333445   3.915   4.405   4.169  1.4339  0.3892 -1.3113
 8418SOL    MW433446   3.898   4.489   4.186  0.3439 -0.0236 -0.2287
 8419SOL     OW33447   4.321   2.952   6.165 -0.3868  0.0079  0.0063
 8419SOL    HW233448   4.415   2.958   6.185 -0.4376 -0.0033  0.2554
 8419SOL    HW333449   4.308   2.862   6.134 -0.2754  0.0763 -0.2360
 8419SOL    MW433450   4.332   2.941   6.164 -0.3788  0.0155  0.0072
 8420SOL     OW33451   6.240   0.483   1.890 -0.3068 -0.0342  0.7423
 8420SOL    HW233452   6.322   0.444   1.921  0.4364  0.1259 -0.8821
 8420SOL    HW333453   6.175   0.414   1.902  0.2814 -0.5356  1.1116
 8420SOL    MW433454   6.243   0.468   1.896 -0.1311 -0.0793  0.5767
 8421SOL     OW33455   6.261   0.192   5.299 -0.0417 -0.7390  0.4036
 8421SOL    HW233456   6.257   0.256   5.371 -0.7908 -1.1183  0.7195
 8421SOL    HW333457   6.344   0.146   5.312  1.2079  1.1094 -0.6771
 8421SOL    MW433458   6.271   0.194   5.311  0.0243 -0.5452  0.3027
 8422SOL     OW33459   6.044   5.594   5.990  0.1336 -0.3714 -0.5446
 8422SOL    HW233460   6.033   5.540   5.912 -0.2319 -0.6859 -0.2808
 8422SOL    HW333461   6.081   5.535   6.056 -1.3702 -0.6317  0.1113
 8422SOL    MW433462   6.048   5.579   5.989 -0.1130 -0.4473 -0.4233
 8423SOL     OW33463   2.831   0.749   2.177 -0.3036  0.5418  0.1964
 8423SOL    HW233464   2.747   0.725   2.216  0.3971  0.2787  1.6262
 8423SOL    HW333465   2.888   0.674   2.196  0.7572  1.5142  0.9556
 8423SOL    MW433466   2.827   0.736   2.185 -0.0712  0.6354  0.4852
 8424SOL     OW33467   1.595   1.745   4.862 -0.0270 -0.1609  0.2099
 8424SOL    HW233468   1.509   1.726   4.825 -0.7492  0.7845  1.3399
 8424SOL    HW333469   1.625   1.661   4.898 -0.8049 -0.3476  0.4358
 8424SOL    MW433470   1.588   1.731   4.862 -0.2250 -0.0608  0.3888
 8425SOL     OW33471   1.018   3.357   1.637 -0.2563  0.2312 -0.4045
 8425SOL    HW233472   1.035   3.411   1.560 -0.1195  0.7765  0.0048
 8425SOL    HW333473   0.931   3.319   1.621 -0.2322  0.3402 -0.8192
 8425SOL    MW433474   1.009   3.359   1.624 -0.2351  0.3175 -0.4052
 8426SOL     OW33475   0.656   4.658   1.841  0.0363 -0.2894 -0.3213
 8426SOL    HW233476   0.565   4.666   1.870  0.5603  0.8580  1.1145
 8426SOL    HW333477   0.681   4.569   1.866 -0.1405  0.0143  1.0087
 8426SOL    MW433478   0.647   4.647   1.848  0.0821 -0.0979  0.0436
 8427SOL     OW33479   4.736   0.510   1.253  0.1690 -0.0122  0.2746
 8427SOL    HW233480   4.642   0.524   1.240  0.2015  0.2525  0.3333
 8427SOL    HW333481   4.746   0.502   1.348  0.3087  0.6942  0.3250
 8427SOL    MW433482   4.725   0.510   1.263  0.1917  0.1159  0.2890
 8428SOL     OW33483   0.748   0.783   1.002  0.4860  0.0078  0.0721
 8428SOL    HW233484   0.802   0.705   1.005 -0.4335 -0.6150  1.0054
 8428SOL    HW333485   0.693   0.771   0.924 -0.9406 -1.1959  1.2034
 8428SOL    MW433486   0.748   0.771   0.992  0.1765 -0.2332  0.3445
 8429SOL     OW33487   3.016   5.310   2.649  0.2220  0.2014 -0.0246
 8429SOL    HW233488   3.104   5.339   2.674 -0.0181  1.1839 -0.2743
 8429SOL    HW333489   2.959   5.345   2.718 -0.1011  0.5276 -0.4516
 8429SOL    MW433490   3.021   5.318   2.661  0.1477  0.3741 -0.1139
 8430SOL     OW33491   4.192   3.454   0.474 -0.0820 -0.1234 -0.5085
 8430SOL    HW233492   4.138   3.375   0.485  0.4299 -0.7209 -2.0523
 8430SOL    HW333493   4.168   3.487   0.387  0.1848  1.0795 -0.1462
 8430SOL    MW433494   4.182   3.448   0.464  0.0207 -0.0435 -0.6644
 8431SOL     OW33495   0.291   0.510   1.413  0.4570  0.2052  0.0577
 8431SOL    HW233496   0.373   0.483   1.454 -0.8341 -1.7949  1.5752
 8431SOL    HW333497   0.293   0.471   1.326  0.9841 -0.1006  0.2018
 8431SOL    MW433498   0.302   0.502   1.407  0.3562 -0.0990  0.2770
 8432SOL     OW33499   4.141   2.784   1.184 -0.2729  0.6310  0.0097
 8432SOL    HW233500   4.108   2.723   1.250 -0.4526  0.4126 -0.2786
 8432SOL    HW333501   4.157   2.730   1.107  1.0186  0.6881  0.2219
 8432SOL    MW433502   4.139   2.769   1.183 -0.1262  0.6097 -0.0003
 8433SOL     OW33503   6.042   1.786   5.628 -0.0426 -0.1437  0.4549
 8433SOL    HW233504   5.998   1.817   5.707  0.9648 -1.4975  1.6339
 8433SOL    HW333505   6.130   1.762   5.659  0.0538 -1.6348 -0.8727
 8433SOL    MW433506   6.048   1.787   5.643  0.1031 -0.5191  0.4353
 8434SOL     OW33507   0.127   1.351   2.415 -0.4994  0.3290  0.2745
 8434SOL    HW233508   0.043   1.396   2.424 -0.9459 -0.6447  1.2238
 8434SOL    HW333509   0.155   1.368   2.325 -2.0386  0.1112 -0.2609
 8434SOL    MW433510   0.120   1.359   2.404 -0.7614  0.1718  0.3291
 8435SOL     OW33511   4.722   6.109   1.199  0.0140  0.0205  0.2750
 8435SOL    HW233512   4.811   6.140   1.178 -0.3291  0.5193 -0.4717
 8435SOL    HW333513   4.671   6.129   1.121 -0.7787 -0.1819  0.7386
 8435SOL    MW433514   4.727   6.116   1.186 -0.1359  0.0596  0.2377
 8436SOL     OW33515   2.375   4.235   1.420  0.0786  0.9110  0.8333
 8436SOL    HW233516   2.409   4.324   1.419  0.0681  0.9071 -0.0466
 8436SOL    HW333517   2.330   4.225   1.337 -1.3681  0.6260  1.6157
 8436SOL    MW433518   2.374   4.245   1.409 -0.1136  0.8729  0.8204
 8437SOL     OW33519   6.012   0.770   4.263 -0.1361  0.8474  0.4781
 8437SOL    HW233520   6.025   0.835   4.332 -0.5663  0.9417  0.4769
 8437SOL    HW333521   6.074   0.700   4.283 -0.2442  0.8821  0.9557
 8437SOL    MW433522   6.022   0.769   4.275 -0.2071  0.8644  0.5410
 8438SOL     OW33523   0.303   0.898   2.265  0.0013  0.6298 -0.1599
 8438SOL    HW233524   0.295   0.820   2.211  0.9309  0.1409  0.3806
 8438SOL    HW333525   0.213   0.928   2.277 -0.3794 -0.4090 -0.2917
 8438SOL    MW433526   0.290   0.892   2.259  0.0737  0.4282 -0.1060
 8439SOL     OW33527   4.650   5.434   2.794 -0.2974 -0.2184  0.3561
 8439SOL    HW233528   4.597   5.511   2.772 -0.2384  0.3512  2.0653
 8439SOL    HW333529   4.737   5.471   2.815 -0.0704 -0.8219  0.4961
 8439SOL    MW433530   4.655   5.449   2.794 -0.2597 -0.2229  0.6001
 8440SOL     OW33531   4.767   3.990   0.847  0.4606  0.2059  0.3582
 8440SOL    HW233532   4.729   3.974   0.761  1.0778 -1.1767  0.3168
 8440SOL    HW333533   4.824   4.066   0.834 -0.6349  0.9704 -0.0699
 8440SOL    MW433534   4.770   3.998   0.834  0.3975  0.1244  0.2962
 8441SOL     OW33535   4.784   3.900   1.975 -1.0976  0.0886  0.0694
 8441SOL    HW233536   4.851   3.919   2.040 -0.1860 -0.4841 -0.6901
 8441SOL    HW333537   4.828   3.849   1.908 -2.0282  0.6191 -0.9901
 8441SOL    MW433538   4.798   3.896   1.975 -1.1001  0.0830 -0.1706
 8442SOL     OW33539   1.080   4.867   1.170  0.2366 -0.3903 -0.9344
 8442SOL    HW233540   1.038   4.811   1.236 -1.0207 -0.0541 -1.4308
 8442SOL    HW333541   1.154   4.815   1.139  0.3630 -0.8968  0.1384
 8442SOL    MW433542   1.084   4.853   1.175  0.0874 -0.4128 -0.8584
 8443SOL     OW33543   4.988   2.911   5.852  0.0846 -0.1549  0.5362
 8443SOL    HW233544   4.996   2.995   5.896 -0.7378 -0.5415  1.4884
 8443SOL    HW333545   5.006   2.929   5.760  0.5643  0.9284  0.8352
 8443SOL    MW433546   4.991   2.924   5.846  0.0394 -0.0630  0.7013
 8444SOL     OW33547   2.474   5.942   3.811  0.0576  0.1351 -0.5938
 8444SOL    HW233548   2.410   5.871   3.808  0.9216 -0.8253  1.3511
 8444SOL    HW333549   2.444   5.999   3.882  1.7079 -0.7939  0.9557
 8444SOL    MW433550   2.462   5.940   3.820  0.3893 -0.1142 -0.1328
 8445SOL     OW33551   4.529   3.730   3.908  0.8311  0.5493 -0.3414
 8445SOL    HW233552   4.547   3.660   3.845 -1.6806 -2.1771  1.6811
 8445SOL    HW333553   4.491   3.800   3.856  0.8094 -0.7263 -2.1192
 8445SOL    MW433554   4.526   3.730   3.893  0.4968  0.0213 -0.3091
 8446SOL     OW33555   4.644   6.158   1.880 -0.7504  0.1079 -0.1009
 8446SOL    HW233556   4.596   6.152   1.797 -1.7164 -0.4958  0.4715
 8446SOL    HW333557   4.615   6.240   1.919  0.3429  0.8077 -0.7249
 8446SOL    MW433558   4.634   6.168   1.875 -0.7336  0.1206 -0.1077
 8447SOL     OW33559   5.440   2.424   1.996 -0.0110  0.8170  0.1051
 8447SOL    HW233560   5.509   2.421   1.931 -0.6563 -2.2517 -0.6373
 8447SOL    HW333561   5.408   2.514   1.995  3.4508  2.1773  0.0436
 8447SOL    MW433562   5.445   2.435   1.987  0.3606  0.5916 -0.0010
 8448SOL     OW33563   0.830   5.689   4.247 -0.1926 -0.5153  0.0999
 8448SOL    HW233564   0.822   5.596   4.224 -0.3614  0.0564 -2.4964
 8448SOL    HW333565   0.741   5.723   4.240 -0.0395 -0.0339  0.4349
 8448SOL    MW433566   0.817   5.681   4.243 -0.1947 -0.3763 -0.1985
 8449SOL     OW33567   5.099   5.088   3.567 -0.0405  0.0590  0.1974
 8449SOL    HW233568   5.029   5.113   3.506  1.7577  2.7648 -0.9537
 8449SOL    HW333569   5.090   4.993   3.576 -2.9898  0.1242 -0.9248
 8449SOL    MW433570   5.088   5.079   3.560 -0.1924  0.4246 -0.1025
 8450SOL     OW33571   4.711   3.289   4.246 -0.0791  0.4674 -0.5669
 8450SOL    HW233572   4.682   3.375   4.215  0.4505  0.3107 -1.5131
 8450SOL    HW333573   4.747   3.306   4.333  1.0233  1.3997 -1.1832
 8450SOL    MW433574   4.712   3.302   4.254  0.1362  0.5698 -0.7730
 8451SOL     OW33575   3.401   6.314   1.689  0.1390  0.1232  0.2309
 8451SOL    HW233576   3.328   6.272   1.644  1.0505 -0.6177 -0.5637
 8451SOL    HW333577   3.474   6.253   1.681  0.5935  0.3799  1.9120
 8451SOL    MW433578   3.401   6.301   1.682  0.3192  0.0593  0.3478
 8452SOL     OW33579   5.086   6.197   4.659  0.0585  0.5144  0.0416
 8452SOL    HW233580   5.074   6.212   4.753  2.1366 -2.4008  0.9164
 8452SOL    HW333581   5.126   6.277   4.626 -1.2066  1.8043  1.4624
 8452SOL    MW433582   5.090   6.210   4.667  0.1658  0.3000  0.3445
 8453SOL     OW33583   5.736   4.751   3.464 -0.0965 -0.1331 -0.1380
 8453SOL    HW233584   5.745   4.677   3.524 -0.2502  0.0595  0.1244
 8453SOL    HW333585   5.815   4.803   3.479  0.5863 -0.8452 -1.1617
 8453SOL    MW433586   5.748   4.748   3.474 -0.0267 -0.2017 -0.2385
 8454SOL     OW33587   5.331   6.235   4.911 -0.4586 -0.4257  0.2442
 8454SOL    HW233588   5.359   6.227   4.820  0.1752  1.6639  0.1915
 8454SOL    HW333589   5.245   6.278   4.906 -0.5936 -0.6406  0.6355
 8454SOL    MW433590   5.323   6.240   4.898 -0.3928 -0.1784  0.2888
 8455SOL     OW33591   4.654   0.112   5.448 -0.3404 -0.3787  0.5497
 8455SOL    HW233592   4.679   0.197   5.412  1.2083 -0.5099  1.2299
 8455SOL    HW333593   4.586   0.079   5.389 -0.3669  0.9527 -0.1910
 8455SOL    MW433594   4.648   0.119   5.435 -0.1396 -0.2204  0.5417
 8456SOL     OW33595   0.987   5.894   0.281 -0.0263  0.0265  0.6743
 8456SOL    HW233596   1.032   5.950   0.219 -2.3137  0.6657 -0.5163
 8456SOL    HW333597   0.916   5.854   0.231 -0.7243 -1.0287  2.3995
 8456SOL    MW433598   0.983   5.896   0.266 -0.4202 -0.0284  0.7449
 8457SOL     OW33599   3.194   3.954   1.970  0.1027 -0.0203  0.0922
 8457SOL    HW233600   3.208   3.876   1.916  1.8501  0.8899 -0.8552
 8457SOL    HW333601   3.255   3.944   2.044  0.4066  0.4778 -0.0851
 8457SOL    MW433602   3.204   3.942   1.973  0.3733  0.1655 -0.0562
 8458SOL     OW33603   2.303   4.616   3.358 -0.4066  0.0969  0.5757
 8458SOL    HW233604   2.396   4.638   3.363 -0.0220 -1.3877  0.4301
 8458SOL    HW333605   2.259   4.701   3.357  0.9957  0.8614 -0.5276
 8458SOL    MW433606   2.310   4.630   3.359 -0.1708  0.0019  0.4109
 8459SOL     OW33607   5.747   1.024   4.246 -0.3662 -0.2813 -0.6746
 8459SOL    HW233608   5.814   1.078   4.203  0.7822  0.1887  1.5826
 8459SOL    HW333609   5.666   1.072   4.232 -0.0544 -0.1786 -2.3201
 8459SOL    MW433610   5.745   1.038   4.238 -0.1735 -0.2058 -0.5939
 8460SOL     OW33611   4.363   5.488   0.520 -0.5524  0.1656 -0.2198
 8460SOL    HW233612   4.330   5.509   0.607  0.2897  0.5059  0.0237
 8460SOL    HW333613   4.335   5.562   0.466 -0.3749  0.3527 -0.0584
 8460SOL    MW433614   4.355   5.500   0.524 -0.4179  0.2352 -0.1664
 8461SOL     OW33615   2.539   3.895   4.356  0.0287  0.3068  0.4011
 8461SOL    HW233616   2.455   3.853   4.368  1.8338 -4.1512 -0.6620
 8461SOL    HW333617   2.519   3.974   4.305 -3.4928 -0.0846  0.9273
 8461SOL    MW433618   2.526   3.900   4.351 -0.1978 -0.3330  0.3303
 8462SOL     OW33619   3.583   1.689   0.334  0.3856 -0.0407 -0.2706
 8462SOL    HW233620   3.488   1.682   0.342  0.3375  1.1517  0.3236
 8462SOL    HW333621   3.617   1.643   0.411  0.2436  0.5469  0.1542
 8462SOL    MW433622   3.575   1.682   0.345  0.3605  0.1942 -0.1362
 8463SOL     OW33623   1.833   4.865   0.402  0.2693 -0.5061  0.2118
 8463SOL    HW233624   1.795   4.778   0.398  2.4645 -1.5504  0.8312
 8463SOL    HW333625   1.849   4.881   0.495  0.0164  0.4974  0.0926
 8463SOL    MW433626   1.830   4.856   0.413  0.5256 -0.5115  0.2778
 8464SOL     OW33627   2.488   2.646   4.147  0.4806  0.1138 -0.2201
 8464SOL    HW233628   2.502   2.565   4.196 -0.0658  0.7818  1.0888
 8464SOL    HW333629   2.576   2.673   4.119  1.0645  0.5755  1.8600
 8464SOL    MW433630   2.502   2.639   4.150  0.4856  0.2628  0.2271
 8465SOL     OW33631   0.634   2.718   5.176  0.3381 -0.2342  0.9252
 8465SOL    HW233632   0.620   2.636   5.224 -0.3088 -1.0394 -0.5474
 8465SOL    HW333633   0.703   2.697   5.113 -0.8718 -0.1511 -0.4973
 8465SOL    MW433634   0.641   2.704   5.174  0.0931 -0.3295  0.5432
 8466SOL     OW33635   4.932   6.338   1.088 -0.0420  0.3178 -0.5104
 8466SOL    HW233636   5.004   6.382   1.134  0.1193  0.6737 -1.1038
 8466SOL    HW333637   4.903   6.400   1.022 -1.4057  0.4733  0.2051
 8466SOL    MW433638   4.938   6.352   1.086 -0.2007  0.3853 -0.4943
 8467SOL     OW33639   2.916   0.640   5.565 -0.3841 -0.1716  0.1659
 8467SOL    HW233640   2.908   0.582   5.488 -1.6824  0.0422  0.1280
 8467SOL    HW333641   3.010   0.641   5.583  0.0371  0.2009 -1.7495
 8467SOL    MW433642   2.928   0.632   5.557 -0.4998 -0.0942 -0.0918
 8468SOL     OW33643   1.228   6.248   0.448 -0.0965 -0.3929 -0.8472
 8468SOL    HW233644   1.302   6.305   0.426 -0.8319  0.8359 -0.2700
 8468SOL    HW333645   1.153   6.307   0.453 -1.0218 -1.5256 -0.8533
 8468SOL    MW433646   1.228   6.263   0.445 -0.3156 -0.3802 -0.7719
 8469SOL     OW33647   5.542   0.587   5.252  0.2540  0.0892  0.0705
 8469SOL    HW233648   5.541   0.491   5.252 -1.2758  0.0022  2.7164
 8469SOL    HW333649   5.461   0.612   5.209  0.7319  0.2448 -0.7711
 8469SOL    MW433650   5.531   0.578   5.247  0.1152  0.0983  0.3086
 8470SOL     OW33651   2.570   2.778   3.534  0.0935  0.4367  0.4389
 8470SOL    HW233652   2.478   2.755   3.522 -0.1013  1.2084  0.3444
 8470SOL    HW333653   2.567   2.860   3.584  0.6089  2.1596 -2.1878
 8470SOL    MW433654   2.558   2.786   3.539  0.1358  0.7658  0.0799
 8471SOL     OW33655   4.776   3.206   3.495  0.0914 -0.4490  0.4256
 8471SOL    HW233656   4.866   3.176   3.510  0.7031  1.7972  1.7155
 8471SOL    HW333657   4.739   3.217   3.582 -0.6544  0.8052 -0.0161
 8471SOL    MW433658   4.783   3.203   3.508  0.0737  0.0128  0.5375
 8472SOL     OW33659   2.452   1.302   1.499 -0.0010  0.4474 -0.3935
 8472SOL    HW233660   2.540   1.298   1.536 -0.3883 -0.2579  0.4685
 8472SOL    HW333661   2.461   1.264   1.411  0.5457  0.3710 -0.3050
 8472SOL    MW433662   2.465   1.297   1.492  0.0200  0.3443 -0.2681
 8473SOL     OW33663   5.079   4.552   5.990 -0.8047  0.6801  0.5436
 8473SOL    HW233664   5.134   4.630   6.000  0.0862  0.3082 -1.1947
 8473SOL    HW333665   5.050   4.554   5.899 -1.2865 -0.6893  0.6399
 8473SOL    MW433666   5.083   4.563   5.980 -0.7507  0.4504  0.3270
 8474SOL     OW33667   5.401   6.220   3.730 -0.1849 -0.0765 -0.1772
 8474SOL    HW233668   5.443   6.271   3.660 -0.8526  0.4892 -0.1818
 8474SOL    HW333669   5.366   6.143   3.685 -2.7735  1.4591 -0.9991
 8474SOL    MW433670   5.402   6.217   3.715 -0.6146  0.2007 -0.2862
 8475SOL     OW33671   3.390   5.222   0.807 -0.1942 -0.0181 -0.2469
 8475SOL    HW233672   3.363   5.181   0.890 -0.9083  0.7805 -0.0678
 8475SOL    HW333673   3.484   5.208   0.803  0.0355  0.8526  1.2326
 8475SOL    MW433674   3.399   5.215   0.818 -0.2581  0.2021 -0.0281
 8476SOL     OW33675   4.207   6.043   4.810 -0.1348  0.0045 -0.8032
 8476SOL    HW233676   4.197   6.137   4.796 -0.5522  0.3437  1.4423
 8476SOL    HW333677   4.259   6.013   4.735  1.5053  2.3261 -0.7066
 8476SOL    MW433678   4.212   6.051   4.798  0.0265  0.3555 -0.4942
 8477SOL     OW33679   5.070   3.726   4.391  0.7435 -0.2161 -0.6269
 8477SOL    HW233680   5.003   3.693   4.451 -0.1883  0.7417 -1.1139
 8477SOL    HW333681   5.126   3.650   4.376  0.0029 -0.9434  0.0991
 8477SOL    MW433682   5.068   3.711   4.397  0.5228 -0.1857 -0.5954
 8478SOL     OW33683   0.860   5.593   1.740 -0.4156  0.3038  0.3917
 8478SOL    HW233684   0.779   5.607   1.788 -0.7445  1.3000 -0.4336
 8478SOL    HW333685   0.883   5.679   1.704 -1.2824 -0.7167 -2.9289
 8478SOL    MW433686   0.853   5.606   1.742 -0.5733  0.3006 -0.1553
 8479SOL     OW33687   5.903   1.673   0.704  0.1218  0.0006 -0.2658
 8479SOL    HW233688   5.815   1.637   0.689 -1.4378  3.1712  0.5261
 8479SOL    HW333689   5.922   1.653   0.796  0.6509 -1.4037 -0.6543
 8479SOL    MW433690   5.894   1.665   0.714 -0.0141  0.2336 -0.2126
 8480SOL     OW33691   0.302   0.518   5.777  0.0563 -0.2226 -0.4242
 8480SOL    HW233692   0.327   0.439   5.730 -0.9699 -0.9731  0.2437
 8480SOL    HW333693   0.244   0.565   5.717 -0.6524 -0.8098 -0.2203
 8480SOL    MW433694   0.298   0.514   5.763 -0.1726 -0.3991 -0.3092
 8481SOL     OW33695   5.036   4.497   5.475 -0.0761 -0.3011  0.5653
 8481SOL    HW233696   5.001   4.430   5.533  0.8435 -0.7842  0.5729
 8481SOL    HW333697   5.060   4.449   5.395 -0.1405  0.1513  0.2689
 8481SOL    MW433698   5.035   4.482   5.472  0.0368 -0.3052  0.5272
 8482SOL     OW33699   4.940   0.731   0.565 -0.1416  0.1937  0.1146
 8482SOL    HW233700   4.978   0.808   0.607 -0.7749 -0.5637  2.2103
 8482SOL    HW333701   4.908   0.677   0.637 -1.8452 -0.9450 -1.3845
 8482SOL    MW433702   4.941   0.734   0.580 -0.4499 -0.0564  0.1933
 8483SOL     OW33703   1.260   1.461   6.187  0.6738 -0.7532  0.0279
 8483SOL    HW233704   1.244   1.395   6.255 -0.7223 -1.8364 -1.2450
 8483SOL    HW333705   1.270   1.409   6.106  1.0762  0.5303 -0.7736
 8483SOL    MW433706   1.259   1.445   6.185  0.5427 -0.7268 -0.2458
 8484SOL     OW33707   4.880   3.400   3.047  0.0321  0.4565 -0.2004
 8484SOL    HW233708   4.822   3.430   2.977 -0.0823 -0.5596 -0.5459
 8484SOL    HW333709   4.894   3.478   3.101 -1.7563  0.7095 -0.0273
 8484SOL    MW433710   4.874   3.414   3.045 -0.2189  0.3558 -0.2231
 8485SOL     OW33711   6.278   5.484   2.105  0.1580  0.1370  0.9410
 8485SOL    HW233712   6.358   5.455   2.148  0.4088  0.2834  0.5778
 8485SOL    HW333713   6.282   5.580   2.108 -0.0263  0.1452  0.9627
 8485SOL    MW433714   6.289   5.493   2.111  0.1668  0.1574  0.8960
 8486SOL     OW33715   6.370   0.655   1.401  0.4302  0.2639  0.0001
 8486SOL    HW233716   6.295   0.697   1.442 -1.2192 -1.1249 -1.4014
 8486SOL    HW333717   6.380   0.700   1.317  0.2702 -0.4373 -0.4062
 8486SOL    MW433718   6.361   0.666   1.395  0.1915 -0.0118 -0.2384
 8487SOL     OW33719   1.177   2.069   4.948 -0.2036  0.7437 -0.2205
 8487SOL    HW233720   1.189   2.046   4.856  2.4487  0.6965  0.0447
 8487SOL    HW333721   1.261   2.046   4.989 -1.3294  0.6889  2.2324
 8487SOL    MW433722   1.190   2.063   4.942 -0.0022  0.7302  0.1381
 8488SOL     OW33723   2.495   2.000   5.945 -0.3439 -0.5910  0.2807
 8488SOL    HW233724   2.475   1.996   6.039 -0.1436  2.0733  0.5098
 8488SOL    HW333725   2.588   1.980   5.939 -0.6244 -2.1016  0.4446
 8488SOL    MW433726   2.504   1.996   5.957 -0.3545 -0.4388  0.3326
 8489SOL     OW33727   4.666   2.818   5.879 -0.1131 -0.0233  0.3985
 8489SOL    HW233728   4.587   2.810   5.931 -0.0261  0.3853  0.5929
 8489SOL    HW333729   4.734   2.844   5.941 -0.0335  0.5909  0.0596
 8489SOL    MW433730   4.665   2.820   5.894 -0.0911  0.1116  0.3794
 8490SOL     OW33731   0.832   3.194   4.364  0.5360 -0.0614 -0.3663
 8490SOL    HW233732   0.860   3.188   4.272  0.9139  1.1661 -0.3472
 8490SOL    HW333733   0.795   3.282   4.371 -1.5429 -0.9320  0.1140
 8490SOL    MW433734   0.831   3.205   4.353  0.3116 -0.0143 -0.3004
 8491SOL     OW33735   3.894   4.281   1.163  0.4617 -0.0302  0.7873
 8491SOL    HW233736   3.827   4.335   1.121 -0.1255 -0.7539  0.7869
 8491SOL    HW333737   3.976   4.329   1.146  0.1422  0.1193 -0.4938
 8491SOL    MW433738   3.896   4.295   1.155  0.3420 -0.1059  0.6182
 8492SOL     OW33739   3.638   5.548   4.605  0.5962  0.0120 -0.0119
 8492SOL    HW233740   3.714   5.589   4.646  1.9220 -2.0770 -0.2578
 8492SOL    HW333741   3.639   5.579   4.515  1.1097  0.0566  0.0074
 8492SOL    MW433742   3.648   5.557   4.599  0.8389 -0.2577 -0.0418
 8493SOL     OW33743   3.092   2.583   3.141 -0.0689  0.0622 -0.2540
 8493SOL    HW233744   3.158   2.606   3.207 -0.2396 -1.3678  0.4550
 8493SOL    HW333745   3.050   2.666   3.119  1.5051  0.9074 -0.2270
 8493SOL    MW433746   3.095   2.597   3.147  0.1163 -0.0149 -0.1569
 8494SOL     OW33747   3.934   6.212   4.369  0.0932  0.0134  0.0190
 8494SOL    HW233748   4.009   6.270   4.386  0.8677 -1.0161  0.1951
 8494SOL    HW333749   3.913   6.174   4.454 -0.8884  0.5698  0.0415
 8494SOL    MW433750   3.941   6.215   4.382  0.0658 -0.0490  0.0452
 8495SOL     OW33751   5.840   1.262   4.482 -0.1372  0.1380 -0.8789
 8495SOL    HW233752   5.756   1.220   4.461 -0.2653  0.5542 -1.2138
 8495SOL    HW333753   5.890   1.194   4.527 -0.9542  0.1292  0.0358
 8495SOL    MW433754   5.835   1.247   4.485 -0.2619  0.1918 -0.8024
 8496SOL     OW33755   3.733   2.192   5.511 -0.3798 -0.0919 -0.0332
 8496SOL    HW233756   3.710   2.244   5.434  0.9741 -1.6935 -1.6088
 8496SOL    HW333757   3.757   2.106   5.476 -0.7658 -1.2316  2.2947
 8496SOL    MW433758   3.733   2.187   5.496 -0.2521 -0.4536  0.0660
 8497SOL     OW33759   5.790   4.165   4.572  0.1268 -0.1257  0.4208
 8497SOL    HW233760   5.813   4.218   4.496  1.1244 -2.0390 -0.6955
 8497SOL    HW333761   5.874   4.143   4.613 -0.4165  1.2962  2.4411
 8497SOL    MW433762   5.804   4.169   4.567  0.1867 -0.1906  0.5401
 8498SOL     OW33763   3.090   6.264   5.797  1.5140  0.1267  0.3295
 8498SOL    HW233764   3.086   6.359   5.805  0.0223 -0.0462  2.5974
 8498SOL    HW333765   3.000   6.238   5.775  2.0690 -0.7384 -1.0572
 8498SOL    MW433766   3.078   6.273   5.795  1.3904 -0.0103  0.4457
 8499SOL     OW33767   1.044   2.271   0.521 -0.0139  0.2558  0.1421
 8499SOL    HW233768   0.978   2.317   0.469  0.9498  0.7429 -0.6973
 8499SOL    HW333769   1.067   2.195   0.468  1.6671  1.2638 -0.6526
 8499SOL    MW433770   1.038   2.267   0.507  0.3351  0.4531 -0.0735
 8500SOL     OW33771   3.399   5.802   2.377  0.6857 -0.3008 -0.0976
 8500SOL    HW233772   3.481   5.763   2.405  0.6767 -1.5366 -1.6519
 8500SOL    HW333773   3.413   5.896   2.385  2.2242 -0.4901 -0.2480
 8500SOL    MW433774   3.411   5.809   2.381  0.8875 -0.4888 -0.3225
 8501SOL     OW33775   4.518   0.495   2.921 -0.5389 -0.6658 -0.0202
 8501SOL    HW233776   4.552   0.584   2.907 -0.7836 -0.7967 -1.6183
 8501SOL    HW333777   4.596   0.442   2.939 -0.4698 -0.0025  1.8971
 8501SOL    MW433778   4.533   0.500   2.922 -0.5621 -0.5956  0.0219
 8502SOL     OW33779   1.096   5.965   2.099 -0.4221  0.3717 -0.2211
 8502SOL    HW233780   1.156   5.971   2.024  0.7103  1.4976  0.7359
 8502SOL    HW333781   1.079   5.871   2.108  0.0417  0.1506 -1.4030
 8502SOL    MW433782   1.102   5.953   2.090 -0.2115  0.4911 -0.2508
 8503SOL     OW33783   3.853   2.611   0.619 -0.4290  0.6630  0.0437
 8503SOL    HW233784   3.775   2.618   0.563 -0.0834 -1.0546 -0.7276
 8503SOL    HW333785   3.901   2.692   0.603 -1.1645  0.9390 -0.8914
 8503SOL    MW433786   3.849   2.622   0.609 -0.4805  0.4728 -0.1814
 8504SOL     OW33787   4.380   6.031   3.235  0.7244  0.6185  0.2456
 8504SOL    HW233788   4.343   6.034   3.147  0.8024  0.2355  0.1973
 8504SOL    HW333789   4.446   6.100   3.235  1.0638  0.3021 -0.1554
 8504SOL    MW433790   4.384   6.041   3.223  0.7795  0.5262  0.1863
 8505SOL     OW33791   2.185   2.096   1.202 -0.0777  0.2356  0.4959
 8505SOL    HW233792   2.092   2.083   1.187 -0.0234  0.6157 -0.2113
 8505SOL    HW333793   2.227   2.021   1.160 -0.0796 -0.1490  1.1625
 8505SOL    MW433794   2.178   2.085   1.195 -0.0708  0.2350  0.4905
 8506SOL     OW33795   1.960   5.997   6.019  0.0973 -0.0478  0.7701
 8506SOL    HW233796   2.047   6.028   5.994 -1.1806  1.4371 -2.4240
 8506SOL    HW333797   1.904   6.074   6.013 -1.5663 -1.0708  2.2410
 8506SOL    MW433798   1.964   6.011   6.015 -0.2908  0.0132  0.5427
 8507SOL     OW33799   4.949   1.274   0.493  0.0438 -0.3183 -0.4620
 8507SOL    HW233800   4.931   1.366   0.471  0.4793 -0.3829 -1.1127
 8507SOL    HW333801   4.863   1.234   0.502 -0.2407  0.6717  2.2079
 8507SOL    MW433802   4.935   1.281   0.491  0.0637 -0.1962 -0.1956
 8508SOL     OW33803   1.554   3.471   5.803  0.1904 -0.1529  0.0250
 8508SOL    HW233804   1.570   3.524   5.726 -0.1025 -0.8414 -0.5171
 8508SOL    HW333805   1.518   3.389   5.769 -0.5257 -0.2302  0.9241
 8508SOL    MW433806   1.551   3.467   5.789  0.0573 -0.2539  0.0721
 8509SOL     OW33807   5.006   5.577   2.487 -0.2921 -0.0534 -0.3872
 8509SOL    HW233808   5.056   5.546   2.412  1.8069  1.0124  0.4704
 8509SOL    HW333809   5.063   5.562   2.562 -0.4250  2.8464  0.4454
 8509SOL    MW433810   5.020   5.571   2.487 -0.0327  0.4698 -0.1642
 8510SOL     OW33811   0.270   0.024   2.024  0.1641 -0.3670  0.1492
 8510SOL    HW233812   0.339  -0.013   2.079  0.7267  0.2275 -0.1398
 8510SOL    HW333813   0.206   0.060   2.085  0.1161 -0.9093  0.4191
 8510SOL    MW433814   0.270   0.024   2.039  0.2320 -0.3601  0.1467
 8511SOL     OW33815   5.108   3.449   0.726 -0.6160  0.2628 -0.1190
 8511SOL    HW233816   5.126   3.499   0.806 -0.4720 -0.0110  0.0200
 8511SOL    HW333817   5.127   3.359   0.749  1.2891  0.3981 -1.0265
 8511SOL    MW433818   5.113   3.444   0.739 -0.3456  0.2445 -0.2204
 8512SOL     OW33819   0.736   5.839   4.732  0.0618  0.3436 -0.4954
 8512SOL    HW233820   0.737   5.759   4.680  3.4543 -0.7963  1.0393
 8512SOL    HW333821   0.770   5.813   4.818 -1.5640  2.8871  1.0570
 8512SOL    MW433822   0.741   5.825   4.737  0.2949  0.5288 -0.0881
 8513SOL     OW33823   0.625   4.982   5.723 -0.1808  0.5056 -0.1552
 8513SOL    HW233824   0.567   4.921   5.768  0.0174 -0.5090 -1.1948
 8513SOL    HW333825   0.573   5.017   5.651  0.5092 -0.6532 -1.2891
 8513SOL    MW433826   0.611   4.978   5.719 -0.0636  0.2189 -0.4420
 8514SOL     OW33827   3.564   1.986   1.774  0.4630  0.0883  0.5558
 8514SOL    HW233828   3.555   2.007   1.681 -2.1808 -0.0791  0.7065
 8514SOL    HW333829   3.635   1.922   1.777  1.7065  1.2821 -1.1182
 8514SOL    MW433830   3.572   1.980   1.762  0.2782  0.2237  0.3548
 8515SOL     OW33831   4.139   1.971   0.670 -1.0054 -0.1859  0.1298
 8515SOL    HW233832   4.174   1.912   0.737  0.4203 -0.7672 -1.0629
 8515SOL    HW333833   4.066   1.923   0.632  0.0533 -1.1495 -0.7308
 8515SOL    MW433834   4.134   1.957   0.674 -0.6776 -0.3897 -0.1411
 8516SOL     OW33835   4.453   0.559   1.217  0.1038  0.6039 -0.1115
 8516SOL    HW233836   4.401   0.498   1.268  1.4140 -0.3757  0.1262
 8516SOL    HW333837   4.424   0.646   1.244 -0.1243  0.0911  1.3400
 8516SOL    MW433838   4.443   0.563   1.227  0.2466  0.4070  0.1114
 8517SOL     OW33839   4.001   2.407   2.767 -0.4771  0.0097 -0.0570
 8517SOL    HW233840   3.933   2.435   2.706 -2.1929  0.9775  2.1653
 8517SOL    HW333841   3.970   2.323   2.801 -0.1130  0.0214  0.3158
 8517SOL    MW433842   3.988   2.400   2.763 -0.6555  0.1390  0.2854
 8518SOL     OW33843   1.511   3.294   1.068  0.3896  0.0682  0.4893
 8518SOL    HW233844   1.453   3.241   1.014 -4.2043  1.8292  3.1359
 8518SOL    HW333845   1.527   3.241   1.146 -1.4756  1.1600  1.6850
 8518SOL    MW433846   1.506   3.280   1.071 -0.4626  0.4446  0.9962
 8519SOL     OW33847   5.105   5.448   6.139  0.2006 -0.1544 -0.3217
 8519SOL    HW233848   5.057   5.527   6.165 -1.2156 -0.9985 -0.2947
 8519SOL    HW333849   5.087   5.385   6.208 -1.0794 -1.4362 -1.7494
 8519SOL    MW433850   5.097   5.450   6.151 -0.1551 -0.4349 -0.5065
 8520SOL     OW33851   0.709   0.192   2.288 -0.0150  0.1799 -0.6622
 8520SOL    HW233852   0.727   0.286   2.297  0.2996 -0.0064  1.1094
 8520SOL    HW333853   0.792   0.150   2.311 -0.5404 -0.5484 -0.0412
 8520SOL    MW433854   0.722   0.199   2.292 -0.0428  0.0592 -0.3465
 8521SOL     OW33855   1.842   2.251   5.542 -0.1947  0.1551 -0.0659
 8521SOL    HW233856   1.786   2.327   5.529  0.4627  0.4248 -1.4810
 8521SOL    HW333857   1.824   2.224   5.632 -2.9272 -0.0575 -0.5724
 8521SOL    MW433858   1.832   2.257   5.552 -0.4685  0.1626 -0.3195
 8522SOL     OW33859   4.430   6.027   4.954  0.1342  0.3862 -0.0912
 8522SOL    HW233860   4.356   6.038   4.895  0.0558 -1.1219 -0.3298
 8522SOL    HW333861   4.418   6.094   5.022 -1.0848  0.5828 -0.4841
 8522SOL    MW433862   4.418   6.037   4.956 -0.0370  0.2132 -0.1745
 8523SOL     OW33863   5.901   3.211   6.181 -0.3432 -0.3355  0.2506
 8523SOL    HW233864   5.815   3.202   6.223 -0.3654 -1.1182  0.0466
 8523SOL    HW333865   5.962   3.225   6.254 -0.7825  1.5021  0.3276
 8523SOL    MW433866   5.898   3.212   6.196 -0.4041 -0.1963  0.2339
 8524SOL     OW33867   1.128   3.306   0.696  0.0778  0.5613  0.6439
 8524SOL    HW233868   1.064   3.376   0.687 -0.1772  0.2337 -0.1870
 8524SOL    HW333869   1.212   3.350   0.699 -0.0356  0.8942 -0.4521
 8524SOL    MW433870   1.131   3.321   0.695  0.0292  0.5620  0.3896
 8525SOL     OW33871   0.708   0.731   5.078 -0.6175  0.1981  0.1358
 8525SOL    HW233872   0.633   0.764   5.028  0.1775 -0.0190 -1.2441
 8525SOL    HW333873   0.778   0.723   5.014  0.7638  0.8874  1.4947
 8525SOL    MW433874   0.707   0.735   5.063 -0.3304  0.2604  0.1331
 8526SOL     OW33875   4.613   0.179   1.936  0.3270 -0.4180  0.4479
 8526SOL    HW233876   4.596   0.168   1.842  0.3030 -0.1607  0.4225
 8526SOL    HW333877   4.528   0.202   1.973  0.1622 -1.3173  0.6594
 8526SOL    MW433878   4.599   0.181   1.928  0.3021 -0.5027  0.4725
 8527SOL     OW33879   3.416   5.171   1.383  0.0986  0.2552 -0.4512
 8527SOL    HW233880   3.462   5.153   1.465  1.2860 -0.3534 -1.2150
 8527SOL    HW333881   3.369   5.253   1.399  1.9536  1.2483  0.1873
 8527SOL    MW433882   3.416   5.179   1.396  0.5000  0.3059 -0.4677
 8528SOL     OW33883   2.782   5.087   2.958 -0.6120 -0.4954  0.9573
 8528SOL    HW233884   2.722   5.092   3.032  0.6933  0.8764  1.9837
 8528SOL    HW333885   2.869   5.099   2.996  0.1165  0.1665 -0.7799
 8528SOL    MW433886   2.786   5.089   2.973 -0.3437 -0.2270  0.8635
 8529SOL     OW33887   2.500   2.676   1.679  0.3074 -0.3623 -0.6203
 8529SOL    HW233888   2.416   2.645   1.712 -0.1856  0.4968 -1.0365
 8529SOL    HW333889   2.561   2.664   1.752 -0.5030  0.4089  0.2043
 8529SOL    MW433890   2.497   2.671   1.693  0.1354 -0.1472 -0.5664
 8530SOL     OW33891   5.816   4.754   1.761  0.2767  0.2255  0.2975
 8530SOL    HW233892   5.901   4.749   1.804  1.2996  0.7458 -1.5716
 8530SOL    HW333893   5.812   4.676   1.705 -0.6586  0.0026  0.6472
 8530SOL    MW433894   5.827   4.743   1.759  0.2883  0.2647  0.0970
 8531SOL     OW33895   6.406   2.618   2.816 -0.1596 -0.0952 -0.0597
 8531SOL    HW233896   6.445   2.537   2.783  0.6708  0.5547 -0.7237
 8531SOL    HW333897   6.476   2.659   2.868 -0.1298  0.7863 -0.7609
 8531SOL    MW433898   6.421   2.613   2.819 -0.0461  0.1068 -0.2398
 8532SOL     OW33899   0.680   0.396   1.073  0.1505  0.3100  0.1374
 8532SOL    HW233900   0.593   0.400   1.114  0.7233  0.6619  1.3507
 8532SOL    HW333901   0.721   0.319   1.110  0.2147 -0.1008 -0.7626
 8532SOL    MW433902   0.674   0.387   1.083  0.2346  0.3022  0.1787
 8533SOL     OW33903   0.047   0.724   6.108 -0.1558  0.2379 -0.1869
 8533SOL    HW233904   0.133   0.728   6.151 -0.0076  0.5781 -0.5128
 8533SOL    HW333905   0.046   0.799   6.049 -1.7498  1.9161  1.7838
 8533SOL    MW433906   0.058   0.734   6.106 -0.3466  0.5042  0.0301
 8534SOL     OW33907   0.057   4.706   2.333  0.1814  0.0236  0.3478
 8534SOL    HW233908   0.085   4.736   2.419 -0.0380  0.1927  0.3604
 8534SOL    HW333909   0.091   4.616   2.327 -0.4143 -0.2434  0.8935
 8534SOL    MW433910   0.066   4.698   2.343  0.0738  0.0107  0.4215
 8535SOL     OW33911   0.010   2.949   2.745 -0.6937 -0.5519  0.7174
 8535SOL    HW233912  -0.055   2.895   2.701 -2.0816  0.8161  1.0356
 8535SOL    HW333913   0.088   2.893   2.750 -2.1257 -2.5988  1.2248
 8535SOL    MW433914   0.012   2.934   2.740 -1.0658 -0.6415  0.8263
 8536SOL     OW33915   5.487   5.036   2.784 -1.0332 -0.2371 -0.8193
 8536SOL    HW233916   5.542   4.959   2.767 -0.5401 -0.1457  0.2692
 8536SOL    HW333917   5.438   5.049   2.703  0.8073 -0.1005 -1.9681
 8536SOL    MW433918   5.488   5.027   2.771 -0.7253 -0.2070 -0.8272
 8537SOL     OW33919   4.861   2.491   1.987  0.2304 -0.6229 -0.3489
 8537SOL    HW233920   4.906   2.444   2.057 -2.7021 -0.6655  1.7050
 8537SOL    HW333921   4.821   2.421   1.934  0.4062 -0.5404 -0.5914
 8537SOL    MW433922   4.862   2.475   1.989 -0.1333 -0.6176 -0.1099
 8538SOL     OW33923   3.229   5.663   1.190  0.3303  0.5450  0.2731
 8538SOL    HW233924   3.264   5.584   1.149 -0.9129 -0.6761  1.4723
 8538SOL    HW333925   3.174   5.703   1.122  0.8941  0.3521 -0.3073
 8538SOL    MW433926   3.226   5.658   1.175  0.2406  0.3584  0.3547
 8539SOL     OW33927   4.889   1.699   5.216 -0.1874  0.3563 -0.2569
 8539SOL    HW233928   4.845   1.761   5.158 -2.6263 -0.8156  0.2210
 8539SOL    HW333929   4.820   1.642   5.248  1.2952 -0.0104  2.6573
 8539SOL    MW433930   4.874   1.700   5.212 -0.3136  0.1533  0.1907
 8540SOL     OW33931   1.403   0.852   5.917  0.2386 -0.6355 -0.4368
 8540SOL    HW233932   1.346   0.821   5.847  0.4527 -1.0828 -0.4242
 8540SOL    HW333933   1.468   0.782   5.927  1.8182  0.6004 -1.6149
 8540SOL    MW433934   1.404   0.838   5.909  0.4752 -0.5315 -0.5905
 8541SOL     OW33935   2.751   6.422   0.564  0.6313  0.5330 -0.2061
 8541SOL    HW233936   2.747   6.327   0.560 -1.0780  0.6086 -0.9136
 8541SOL    HW333937   2.715   6.444   0.650  1.2688  0.5609  0.0671
 8541SOL    MW433938   2.746   6.412   0.575  0.4899  0.5467 -0.2634
 8542SOL     OW33939   2.546   5.015   4.798  0.0644 -0.8973  0.2964
 8542SOL    HW233940   2.478   4.974   4.852  0.1883  0.7476  1.7872
 8542SOL    HW333941   2.576   5.090   4.849  2.1917 -0.8789 -0.8376
 8542SOL    MW433942   2.541   5.019   4.812  0.3614 -0.6779  0.3435
 8543SOL     OW33943   5.387   0.834   4.833  0.0149 -0.3831  0.7653
 8543SOL    HW233944   5.296   0.806   4.824  0.0195 -0.7238  1.6520
 8543SOL    HW333945   5.382   0.918   4.878  0.0088  1.0617 -1.7859
 8543SOL    MW433946   5.375   0.841   4.838  0.0147 -0.2374  0.5457
 8544SOL     OW33947   1.560   5.873   0.155  0.7361  0.1916 -0.3866
 8544SOL    HW233948   1.641   5.867   0.204  1.0499  1.8769 -0.6490
 8544SOL    HW333949   1.517   5.952   0.188 -0.5395 -0.3655 -0.6406
 8544SOL    MW433950   1.565   5.883   0.165  0.6092  0.3405 -0.4548
 8545SOL     OW33951   5.947   5.704   4.197  0.3390 -0.3598 -1.1853
 8545SOL    HW233952   6.023   5.713   4.255 -0.0583 -1.6936 -0.3958
 8545SOL    HW333953   5.887   5.772   4.225  0.8774  0.1412 -1.2269
 8545SOL    MW433954   5.949   5.714   4.209  0.3576 -0.4697 -1.0866
 8546SOL     OW33955   5.261   2.629   1.322 -0.2727  0.1348  0.7097
 8546SOL    HW233956   5.335   2.578   1.289 -0.1006 -0.3994  1.8762
 8546SOL    HW333957   5.293   2.719   1.327  0.0042  0.0581  0.3707
 8546SOL    MW433958   5.275   2.634   1.318 -0.2135  0.0542  0.8188
 8547SOL     OW33959   1.719   5.662   4.954  0.4545 -0.3022  0.0144
 8547SOL    HW233960   1.717   5.731   5.020 -0.7295 -2.0289  1.9078
 8547SOL    HW333961   1.808   5.627   4.958  0.0431 -1.2800  1.7634
 8547SOL    MW433962   1.730   5.666   4.963  0.2440 -0.6590  0.4949
 8548SOL     OW33963   2.961   6.145   1.180 -0.0907 -0.2802 -0.2011
 8548SOL    HW233964   3.017   6.131   1.104  1.1565 -1.2953  0.8663
 8548SOL    HW333965   2.872   6.139   1.146  0.4502 -0.6090 -1.5997
 8548SOL    MW433966   2.956   6.142   1.166  0.1452 -0.4575 -0.2448
 8549SOL     OW33967   5.024   1.883   5.439 -0.3640  0.0065 -0.4084
 8549SOL    HW233968   5.056   1.885   5.349 -4.7868 -1.6931 -2.3101
 8549SOL    HW333969   5.044   1.795   5.470 -0.1766  0.0943 -0.2762
 8549SOL    MW433970   5.031   1.871   5.431 -0.9228 -0.2062 -0.6418
 8550SOL     OW33971   4.532   4.914   3.208 -0.1166  0.1988  0.4752
 8550SOL    HW233972   4.546   4.959   3.291  0.7007  0.9819 -0.0602
 8550SOL    HW333973   4.461   4.963   3.166  0.1489  0.4313  0.2906
 8550SOL    MW433974   4.525   4.926   3.213  0.0262  0.3328  0.3802
 8551SOL     OW33975   4.045   0.010   6.236  0.2780 -0.0600  0.2940
 8551SOL    HW233976   4.132   0.031   6.203  0.5032 -0.4536  0.6488
 8551SOL    HW333977   4.036   0.062   6.316 -0.2183  0.7895 -0.2950
 8551SOL    MW433978   4.055   0.020   6.242  0.2422  0.0002  0.2631
 8552SOL     OW33979   0.557   1.791   4.261 -0.3315 -0.3522  0.2589
 8552SOL    HW233980   0.470   1.762   4.231 -0.3774  0.2372 -0.1850
 8552SOL    HW333981   0.542   1.819   4.351 -0.8841  0.9526 -0.2148
 8552SOL    MW433982   0.543   1.790   4.269 -0.4104 -0.1023  0.1378
 8553SOL     OW33983   5.363   5.765   3.616  0.1262 -0.2095  0.2530
 8553SOL    HW233984   5.394   5.697   3.555  0.1173  0.2538 -0.2802
 8553SOL    HW333985   5.354   5.720   3.700 -2.6375 -1.5961 -0.6724
 8553SOL    MW433986   5.366   5.750   3.619 -0.2396 -0.3313  0.0606
 8554SOL     OW33987   5.514   4.863   4.132 -0.6185 -0.0091  0.7781
 8554SOL    HW233988   5.562   4.857   4.050  1.1433  0.3279  1.7412
 8554SOL    HW333989   5.422   4.851   4.107 -0.1994  0.7637 -1.3162
 8554SOL    MW433990   5.508   4.861   4.118 -0.3307  0.1373  0.6288
 8555SOL     OW33991   4.660   4.463   3.310 -0.6910  0.6367 -0.2648
 8555SOL    HW233992   4.669   4.405   3.386 -1.4807  2.4163  1.2552
 8555SOL    HW333993   4.605   4.535   3.341  0.6272  2.4600 -1.9287
 8555SOL    MW433994   4.654   4.465   3.324 -0.6213  1.1121 -0.2838
 8556SOL     OW33995   0.884   4.423   4.297  0.0582 -0.5966  0.2478
 8556SOL    HW233996   0.914   4.334   4.317 -0.4613 -1.4343 -2.2836
 8556SOL    HW333997   0.790   4.415   4.283 -0.2491  0.6670  1.3383
 8556SOL    MW433998   0.876   4.410   4.298 -0.0509 -0.5404  0.0577
 8557SOL     OW33999   2.236   3.221   5.133 -0.1391 -0.1641  0.0320
 8557SOL    HW234000   2.271   3.137   5.106  1.4493  0.2172  0.7480
 8557SOL    HW334001   2.311   3.266   5.173 -0.8344  1.7429 -0.6873
 8557SOL    MW434002   2.251   3.216   5.135 -0.0213  0.1378  0.0315
 8558SOL     OW34003   3.963   3.069   3.341 -0.6042  0.6233 -0.4198
 8558SOL    HW234004   3.878   3.097   3.306 -1.7304 -0.4958  1.2881
 8558SOL    HW334005   3.974   2.980   3.308 -0.3600  0.5726 -0.2003
 8558SOL    MW434006   3.953   3.061   3.332 -0.7205  0.4690 -0.1655
 8559SOL     OW34007   3.505   1.440   2.618 -0.4822 -0.2466  0.0451
 8559SOL    HW234008   3.475   1.429   2.528 -1.5069  0.1939  0.3067
 8559SOL    HW334009   3.559   1.519   2.616 -1.0527  0.1484 -0.0726
 8559SOL    MW434010   3.508   1.449   2.606 -0.6927 -0.1363  0.0641
 8560SOL     OW34011   1.157   3.219   5.599 -0.3256 -0.3199  0.1122
 8560SOL    HW234012   1.126   3.163   5.528 -1.9073 -0.2662  0.7292
 8560SOL    HW334013   1.157   3.307   5.563 -0.8142 -0.3348  0.0674
 8560SOL    MW434014   1.153   3.223   5.585 -0.5988 -0.3148  0.1877
 8561SOL     OW34015   5.959   4.004   2.350  0.7608  0.1676  0.3915
 8561SOL    HW234016   6.018   4.024   2.278  2.9204  0.0529  2.0379
 8561SOL    HW334017   5.954   3.908   2.350  0.4651  0.1813  0.1841
 8561SOL    MW434018   5.966   3.994   2.341  1.0067  0.1543  0.5813
 8562SOL     OW34019   0.031   4.331   5.336 -0.4134  0.3443  0.4197
 8562SOL    HW234020   0.121   4.354   5.311 -0.9058  0.4863 -1.3605
 8562SOL    HW334021  -0.024   4.375   5.272 -1.7339 -0.3494  1.0318
 8562SOL    MW434022   0.036   4.339   5.324 -0.6526  0.2715  0.2656
 8563SOL     OW34023   2.510   4.075   4.654 -0.5795  0.3387 -0.0310
 8563SOL    HW234024   2.528   4.020   4.731 -1.5493 -0.5540 -0.4274
 8563SOL    HW334025   2.507   4.014   4.581 -0.0109  1.1408 -0.7473
 8563SOL    MW434026   2.512   4.060   4.655 -0.6324  0.3267 -0.1778
 8564SOL     OW34027   0.413   0.003   3.243  0.0876 -0.5022  0.2391
 8564SOL    HW234028   0.336   0.041   3.200 -0.4174 -1.8510 -0.0963
 8564SOL    HW334029   0.384  -0.083   3.273  1.9626 -1.9382 -1.6743
 8564SOL    MW434030   0.399  -0.003   3.241  0.2683 -0.8696 -0.0576
 8565SOL     OW34031   0.479   4.514   6.352  0.1152  0.5201  0.0681
 8565SOL    HW234032   0.487   4.501   6.257  1.3742  1.0419  0.0833
 8565SOL    HW334033   0.444   4.431   6.384  0.6475 -0.0308 -0.7293
 8565SOL    MW434034   0.475   4.502   6.343  0.3516  0.5163 -0.0351
 8566SOL     OW34035   6.414   6.158   4.149  0.0069 -0.6358  0.1172
 8566SOL    HW234036   6.500   6.136   4.186 -0.5061  0.1220  1.8397
 8566SOL    HW334037   6.417   6.254   4.139 -0.2096 -0.7293 -1.0052
 8566SOL    MW434038   6.426   6.168   4.152 -0.0893 -0.5481  0.1964
 8567SOL     OW34039   3.064   5.185   3.081 -0.1643  0.5621 -0.5154
 8567SOL    HW234040   3.062   5.160   3.173  1.6509 -2.3177 -1.1277
 8567SOL    HW334041   3.143   5.238   3.072  1.0448 -1.1758 -0.7441
 8567SOL    MW434042   3.074   5.188   3.092  0.2348 -0.0472 -0.6263
 8568SOL     OW34043   4.474   5.693   4.755 -0.2140  0.0654  0.3687
 8568SOL    HW234044   4.397   5.709   4.701 -0.5277  1.3512  1.1641
 8568SOL    HW334045   4.507   5.608   4.725 -1.1231  0.1466 -0.9315
 8568SOL    MW434046   4.468   5.684   4.744 -0.3754  0.2457  0.3021
 8569SOL     OW34047   4.347   5.914   2.405  0.4363  0.2734 -0.3117
 8569SOL    HW234048   4.280   5.886   2.343  1.3809  0.2948 -1.3668
 8569SOL    HW334049   4.317   5.880   2.490 -1.4409  1.2124 -0.5655
 8569SOL    MW434050   4.334   5.905   2.408  0.3132  0.4001 -0.4844
 8570SOL     OW34051   5.396   5.480   1.395 -0.2188 -0.2700 -0.9854
 8570SOL    HW234052   5.434   5.497   1.309 -0.2607  0.4408 -0.8700
 8570SOL    HW334053   5.318   5.536   1.398  0.7751  1.1338  0.2102
 8570SOL    MW434054   5.391   5.490   1.384 -0.0932  0.0090 -0.8124
 8571SOL     OW34055   1.964   2.535   5.853 -0.4824 -0.3414 -0.1842
 8571SOL    HW234056   1.943   2.616   5.806 -0.4467  0.9845  1.9472
 8571SOL    HW334057   1.880   2.503   5.884 -0.4687 -1.0097 -0.8242
 8571SOL    MW434058   1.950   2.542   5.850 -0.4759 -0.2546  0.0126
 8572SOL     OW34059   0.037   4.559   2.016 -0.6765 -0.2641 -0.1527
 8572SOL    HW234060  -0.037   4.613   2.046 -1.2847 -0.9643 -0.3761
 8572SOL    HW334061   0.012   4.470   2.039 -1.2770 -0.8860 -2.9306
 8572SOL    MW434062   0.024   4.555   2.023 -0.8360 -0.4386 -0.5487
 8573SOL     OW34063   5.487   3.969   6.419 -0.2468 -0.0578  0.0689
 8573SOL    HW234064   5.505   4.014   6.502  0.7283  0.0421 -0.1886
 8573SOL    HW334065   5.490   3.876   6.441  0.0266 -0.0317  0.1409
 8573SOL    MW434066   5.490   3.963   6.433 -0.0820 -0.0411  0.0444
 8574SOL     OW34067   6.363   0.017   1.235 -0.5849  0.0629  0.1642
 8574SOL    HW234068   6.396   0.051   1.151 -0.0232 -3.2123 -1.0751
 8574SOL    HW334069   6.281   0.064   1.249 -0.2208  1.4005 -1.7064
 8574SOL    MW434070   6.357   0.028   1.226 -0.4627 -0.1927 -0.2461
 8575SOL     OW34071   6.270   0.107   3.120 -0.2851 -0.2383  0.5388
 8575SOL    HW234072   6.327   0.065   3.183 -0.1429 -0.4964  0.2393
 8575SOL    HW334073   6.182   0.074   3.140 -0.2146 -0.4573  0.4866
 8575SOL    MW434074   6.266   0.097   3.131 -0.2570 -0.3012  0.4924
 8576SOL     OW34075   1.745   4.759   5.444 -0.1490  0.2347  0.4833
 8576SOL    HW234076   1.729   4.760   5.350  0.0404  0.2064  0.4499
 8576SOL    HW334077   1.681   4.697   5.479 -0.7125  0.7982  0.4660
 8576SOL    MW434078   1.734   4.751   5.436 -0.1984  0.3053  0.4766
 8577SOL     OW34079   4.192   2.443   1.301 -0.7840  0.0259  0.3100
 8577SOL    HW234080   4.269   2.494   1.330 -1.2060  0.4875  0.6393
 8577SOL    HW334081   4.118   2.503   1.313 -1.5478 -1.2292  2.3922
 8577SOL    MW434082   4.193   2.458   1.307 -0.9405 -0.0788  0.6282
 8578SOL     OW34083   4.861   1.164   4.876  0.3505 -0.3083  0.2587
 8578SOL    HW234084   4.863   1.255   4.907  0.0802 -0.7992  1.8175
 8578SOL    HW334085   4.848   1.112   4.955  1.6438 -1.7986 -0.4478
 8578SOL    MW434086   4.860   1.169   4.891  0.4855 -0.5697  0.3712
 8579SOL     OW34087   3.377   4.939   3.085  0.2119  0.1992  0.1462
 8579SOL    HW234088   3.438   4.867   3.076  0.5070  0.5914 -1.2039
 8579SOL    HW334089   3.417   4.997   3.150 -0.0410 -0.8422  1.2534
 8579SOL    MW434090   3.390   4.937   3.092  0.2175  0.1136  0.1142
 8580SOL     OW34091   5.257   0.634   3.737 -0.5116 -0.1374 -0.2149
 8580SOL    HW234092   5.296   0.718   3.714 -3.1662  1.4991  0.7114
 8580SOL    HW334093   5.318   0.595   3.799  2.1838 -0.3425 -2.8167
 8580SOL    MW434094   5.270   0.640   3.742 -0.5062  0.0515 -0.4360
 8581SOL     OW34095   6.014   3.704   4.643  0.1189 -0.2072  0.3496
 8581SOL    HW234096   5.973   3.683   4.560  0.7243  0.4166 -0.1292
 8581SOL    HW334097   5.944   3.744   4.696 -0.2205 -0.4308  0.0684
 8581SOL    MW434098   6.000   3.707   4.639  0.1540 -0.1544  0.2493
 8582SOL     OW34099   5.681   5.943   3.754  0.2883 -0.0035 -0.2657
 8582SOL    HW234100   5.695   5.938   3.659  2.4474 -0.6569  0.0499
 8582SOL    HW334101   5.763   5.976   3.789 -0.7416  0.9494  1.3452
 8582SOL    MW434102   5.693   5.947   3.746  0.4373  0.0360 -0.0116
 8583SOL     OW34103   0.906   6.062   3.846  0.0423  0.6768 -0.3053
 8583SOL    HW234104   1.001   6.062   3.861  0.2039  4.2662 -0.4861
 8583SOL    HW334105   0.897   6.075   3.751 -0.6271  1.2809 -0.1622
 8583SOL    MW434106   0.917   6.063   3.835 -0.0247  1.2301 -0.3103
 8584SOL     OW34107   1.243   6.136   5.238  0.5749  0.1703  0.9461
 8584SOL    HW234108   1.210   6.076   5.171 -0.0488  2.1949 -0.6717
 8584SOL    HW334109   1.275   6.079   5.308  0.9209 -2.0578 -0.9005
 8584SOL    MW434110   1.243   6.121   5.238  0.5383  0.1434  0.4890
 8585SOL     OW34111   3.756   4.988   4.730 -0.1533 -0.1708  0.3878
 8585SOL    HW234112   3.721   5.003   4.817  0.0360 -0.4123  0.5074
 8585SOL    HW334113   3.776   5.076   4.696  1.9874 -0.1611  1.5106
 8585SOL    MW434114   3.754   5.002   4.737  0.1541 -0.2014  0.5517
 8586SOL     OW34115   3.796   0.308   0.093  0.0986 -0.2905  0.1226
 8586SOL    HW234116   3.846   0.387   0.115  0.2329 -0.3253 -0.0477
 8586SOL    HW334117   3.737   0.295   0.167  0.2846 -0.1993  0.2888
 8586SOL    MW434118   3.795   0.316   0.106  0.1409 -0.2831  0.1220
 8587SOL     OW34119   5.432   0.138   0.058  0.1074 -0.0822  0.3222
 8587SOL    HW234120   5.415   0.105  -0.030 -2.4240  0.8239  0.3792
 8587SOL    HW334121   5.448   0.060   0.111 -1.4881 -0.9213 -0.3603
 8587SOL    MW434122   5.432   0.123   0.053 -0.4371 -0.0734  0.2397
 8588SOL     OW34123   4.918   1.850   1.715  0.0319  0.9569  0.2261
 8588SOL    HW234124   4.927   1.857   1.810 -0.6826  0.1224  0.3657
 8588SOL    HW334125   4.829   1.881   1.698 -0.6103 -0.9011  0.0805
 8588SOL    MW434126   4.907   1.855   1.726 -0.1471  0.6017  0.2253
 8589SOL     OW34127   4.585   1.502   0.649 -0.1555 -0.1395  0.1826
 8589SOL    HW234128   4.593   1.489   0.555 -0.6048 -0.6684  0.2149
 8589SOL    HW334129   4.673   1.486   0.683  0.9957  3.6688 -0.5214
 8589SOL    MW434130   4.597   1.498   0.641 -0.0629  0.2932  0.0940
 8590SOL     OW34131   4.595   0.618   5.034 -0.2883 -0.2691  0.2789
 8590SOL    HW234132   4.575   0.689   5.094  0.5730 -0.6072  0.9883
 8590SOL    HW334133   4.514   0.605   4.984 -0.3209  1.5052 -0.1937
 8590SOL    MW434134   4.582   0.626   5.035 -0.1789 -0.0796  0.3102
 8591SOL     OW34135   3.031   4.560   5.602  0.2301  0.3799 -0.4278
 8591SOL    HW234136   2.971   4.598   5.666  0.5929  0.6777 -0.2588
 8591SOL    HW334137   3.095   4.630   5.585  0.6319  0.0073 -0.4675
 8591SOL    MW434138   3.032   4.574   5.608  0.3310  0.3700 -0.4107
 8592SOL     OW34139   5.693   0.732   5.053 -0.0282 -0.2916 -0.0814
 8592SOL    HW234140   5.642   0.702   5.129  0.1006 -0.5919 -0.1130
 8592SOL    HW334141   5.759   0.664   5.040  1.4506  0.8816  0.9896
 8592SOL    MW434142   5.695   0.719   5.061  0.1839 -0.1764  0.0557
 8593SOL     OW34143   3.852   4.165   4.905  0.1658 -0.2298  0.1978
 8593SOL    HW234144   3.876   4.097   4.843  0.5516 -0.4112  0.5409
 8593SOL    HW334145   3.758   4.155   4.916 -0.4028  1.4369 -2.3025
 8593SOL    MW434146   3.843   4.155   4.898  0.1417 -0.0338 -0.0868
 8594SOL     OW34147   5.581   2.657   3.541 -0.1423  0.2647  0.1915
 8594SOL    HW234148   5.560   2.627   3.630  0.1164 -0.3580  0.0461
 8594SOL    HW334149   5.639   2.732   3.555  1.2334 -0.8185  0.5531
 8594SOL    MW434150   5.586   2.663   3.555  0.0734  0.0396  0.2200
 8595SOL     OW34151   4.175   1.956   1.555  0.2493 -0.1907 -0.3571
 8595SOL    HW234152   4.157   1.881   1.498  2.5444 -0.7711 -0.4042
 8595SOL    HW334153   4.219   2.019   1.499  0.7680  0.0465  0.3094
 8595SOL    MW434154   4.178   1.954   1.540  0.6205 -0.2360 -0.2753
 8596SOL     OW34155   2.933   0.687   5.957 -0.1184  0.0454  0.1033
 8596SOL    HW234156   2.886   0.611   5.992  1.6555 -0.0025  2.6234
 8596SOL    HW334157   3.024   0.659   5.955  0.1241  0.7446 -2.9810
 8596SOL    MW434158   2.939   0.673   5.962  0.1477  0.1313  0.0288
 8597SOL     OW34159   6.080   4.617   1.597 -0.3053 -0.7233  0.4443
 8597SOL    HW234160   5.997   4.573   1.581 -0.2340 -1.4811  1.9516
 8597SOL    HW334161   6.095   4.607   1.691  0.4072  1.3162  0.6186
 8597SOL    MW434162   6.071   4.610   1.608 -0.2019 -0.5542  0.6662
 8598SOL     OW34163   5.272   1.655   4.935  0.7420  0.4787  0.3866
 8598SOL    HW234164   5.330   1.726   4.964  0.6922 -0.2235  2.3340
 8598SOL    HW334165   5.195   1.701   4.901  1.7510  1.3886 -0.7603
 8598SOL    MW434166   5.270   1.671   4.935  0.8685  0.5061  0.4922
 8599SOL     OW34167   5.992   5.500   0.025 -0.4480  0.3152 -0.5024
 8599SOL    HW234168   5.957   5.586   0.004  0.2341  0.4052 -1.3198
 8599SOL    HW334169   6.031   5.469  -0.056  1.4701  0.2876  0.3705
 8599SOL    MW434170   5.993   5.507   0.012 -0.1049  0.3234 -0.4951
 8600SOL     OW34171   0.568   1.613   1.953  0.0676  0.0866  0.6887
 8600SOL    HW234172   0.482   1.635   1.987  0.7440  3.7710  0.4314
 8600SOL    HW334173   0.551   1.560   1.875 -2.0023  0.9285  0.5210
 8600SOL    MW434174   0.555   1.609   1.947 -0.1162  0.6838  0.6326
 8601SOL     OW34175   0.025   2.812   4.447 -0.5957 -0.2453 -0.0719
 8601SOL    HW234176  -0.069   2.830   4.445 -0.3205  2.0143  2.0435
 8601SOL    HW334177   0.055   2.829   4.358 -2.0457 -0.0705 -0.5408
 8601SOL    MW434178   0.017   2.817   4.435 -0.7507  0.0759  0.1453
 8602SOL     OW34179   2.428   2.008   0.690 -0.1614 -0.1490 -0.2927
 8602SOL    HW234180   2.508   2.014   0.638 -0.3084  1.9645 -0.3593
 8602SOL    HW334181   2.410   1.914   0.696  1.8227 -0.6135 -1.0135
 8602SOL    MW434182   2.436   1.996   0.684  0.0810  0.0686 -0.3966
 8603SOL     OW34183   4.487   3.940   0.924  0.3411 -0.7065 -0.2291
 8603SOL    HW234184   4.576   3.960   0.894 -0.4130  1.4859 -1.2230
 8603SOL    HW334185   4.468   4.007   0.989 -0.5096 -1.3076  0.1564
 8603SOL    MW434186   4.496   3.951   0.928  0.1294 -0.4965 -0.3094
 8604SOL     OW34187   1.220   0.757   5.375 -0.2457 -0.4083 -0.0383
 8604SOL    HW234188   1.224   0.745   5.470  2.3727 -2.9851 -0.3015
 8604SOL    HW334189   1.153   0.695   5.346  0.6088 -1.4165  0.0346
 8604SOL    MW434190   1.212   0.747   5.384  0.2125 -0.8813 -0.0634
 8605SOL     OW34191   4.133   2.664   0.933 -0.6042  0.1897 -0.2328
 8605SOL    HW234192   4.166   2.574   0.928  0.8559  0.7402 -1.4777
 8605SOL    HW334193   4.208   2.718   0.909 -1.0239  1.8644  1.9452
 8605SOL    MW434194   4.147   2.659   0.929 -0.4669  0.4833 -0.1097
 8606SOL     OW34195   3.649   0.146   3.481  0.0222 -0.3961 -0.4921
 8606SOL    HW234196   3.617   0.236   3.479  1.2058  0.0194 -1.6869
 8606SOL    HW334197   3.702   0.142   3.561  0.8243  0.2882 -0.9732
 8606SOL    MW434198   3.651   0.158   3.492  0.2842 -0.2510 -0.7132
 8607SOL     OW34199   1.895   0.417   2.306  0.2473 -0.0201 -0.2382
 8607SOL    HW234200   1.941   0.400   2.224 -1.2534  1.3439 -1.4407
 8607SOL    HW334201   1.929   0.352   2.368  1.4730 -1.0249 -1.9092
 8607SOL    MW434202   1.905   0.406   2.304  0.2110  0.0273 -0.6173
 8608SOL     OW34203   6.134   0.335   4.719  0.0928 -0.1190 -0.0088
 8608SOL    HW234204   6.168   0.358   4.633 -0.5829 -0.6364 -0.4262
 8608SOL    HW334205   6.048   0.298   4.701  0.3515 -1.1472  0.7946
 8608SOL    MW434206   6.127   0.333   4.705  0.0378 -0.3229  0.0421
 8609SOL     OW34207   4.210   2.394   4.994  0.1548  0.6309  0.0128
 8609SOL    HW234208   4.228   2.312   4.946 -0.7305  1.8432 -2.6002
 8609SOL    HW334209   4.291   2.444   4.987  0.6250  0.0963  1.4227
 8609SOL    MW434210   4.223   2.390   4.987  0.1000  0.7203 -0.1460
 8610SOL     OW34211   4.245   0.096   2.924  0.3355  0.8185  0.4471
 8610SOL    HW234212   4.160   0.124   2.890 -0.0966 -1.3832 -0.4598
 8610SOL    HW334213   4.226   0.016   2.973  1.7876  0.7051  0.8738
 8610SOL    MW434214   4.232   0.089   2.926  0.4701  0.5131  0.3838
 8611SOL     OW34215   3.356   1.930   6.382 -0.1035 -0.4157  0.2570
 8611SOL    HW234216   3.377   1.845   6.421 -0.1205  0.0172  1.2563
 8611SOL    HW334217   3.269   1.950   6.415 -0.5274 -0.4684 -0.8017
 8611SOL    MW434218   3.348   1.922   6.392 -0.1617 -0.3655  0.2491
 8612SOL     OW34219   2.981   4.268   6.135 -0.5597  0.3705 -0.4492
 8612SOL    HW234220   3.021   4.287   6.050  1.6209  0.3016  0.4848
 8612SOL    HW334221   2.973   4.173   6.138 -0.7025  0.3778 -0.6088
 8612SOL    MW434222   2.985   4.258   6.124 -0.2909  0.3624 -0.3470
 8613SOL     OW34223   6.352   1.660   1.744  0.0618 -0.2916 -0.7971
 8613SOL    HW234224   6.330   1.619   1.827  0.9966  2.8344  1.2080
 8613SOL    HW334225   6.268   1.692   1.710 -0.0867  0.4312  0.1951
 8613SOL    MW434226   6.338   1.659   1.751  0.1655  0.2162 -0.4016
 8614SOL     OW34227   1.129   2.331   4.567  0.4325  0.5579 -0.2064
 8614SOL    HW234228   1.180   2.294   4.495  0.3048  1.0317 -0.5457
 8614SOL    HW334229   1.081   2.256   4.603  0.9832  0.1979 -0.1964
 8614SOL    MW434230   1.130   2.316   4.562  0.4883  0.5729 -0.2499
 8615SOL     OW34231   2.423   1.256   2.787  0.9350 -0.5227  0.2442
 8615SOL    HW234232   2.353   1.250   2.852  0.1042 -0.0422 -0.5946
 8615SOL    HW334233   2.386   1.216   2.708  1.7118 -0.5256 -0.1266
 8615SOL    MW434234   2.409   1.250   2.785  0.9279 -0.4597  0.0846
 8616SOL     OW34235   4.071   6.140   6.274  0.1034  0.2636 -0.3933
 8616SOL    HW234236   4.057   6.234   6.281 -2.5381 -0.0467 -0.7848
 8616SOL    HW334237   3.984   6.103   6.261  1.1144 -2.2177 -0.6521
 8616SOL    MW434238   4.058   6.147   6.274 -0.1117 -0.1047 -0.4791
 8617SOL     OW34239   1.465   5.438   5.283 -1.3576  0.2175  0.2133
 8617SOL    HW234240   1.412   5.423   5.361 -0.3216 -0.0430  0.8810
 8617SOL    HW334241   1.483   5.532   5.284  0.3424 -0.0712  1.4368
 8617SOL    MW434242   1.460   5.448   5.293 -0.9966  0.1451  0.4629
 8618SOL     OW34243   3.896   0.101   4.737  0.2982  0.3420 -0.0613
 8618SOL    HW234244   3.865   0.095   4.647  0.3076  0.9712 -0.1109
 8618SOL    HW334245   3.961   0.031   4.744 -1.3109 -1.2062  0.1482
 8618SOL    MW434246   3.901   0.091   4.726  0.0871  0.2208 -0.0402
 8619SOL     OW34247   3.284   1.052   5.716 -0.3660 -0.1723  0.5688
 8619SOL    HW234248   3.327   0.968   5.701  0.5948 -0.0174  2.1519
 8619SOL    HW334249   3.244   1.074   5.632  0.1512 -1.7557 -0.1371
 8619SOL    MW434250   3.284   1.044   5.703 -0.1710 -0.3608  0.6845
 8620SOL     OW34251   5.614   0.691   0.518 -0.0604 -0.3031 -0.6500
 8620SOL    HW234252   5.536   0.725   0.562  0.2408  0.1599 -0.4636
 8620SOL    HW334253   5.625   0.747   0.442 -0.5967 -1.1258 -1.3435
 8620SOL    MW434254   5.605   0.703   0.514 -0.0915 -0.3506 -0.7169
 8621SOL     OW34255   5.358   2.855   1.014  0.4016 -0.5241  0.2314
 8621SOL    HW234256   5.317   2.768   1.010 -0.8492  0.0918 -1.4870
 8621SOL    HW334257   5.289   2.912   1.050  0.7579 -0.0041  0.1041
 8621SOL    MW434258   5.343   2.851   1.018  0.2836 -0.3742 -0.0121
 8622SOL     OW34259   5.448   6.119   1.564  0.6264 -0.4904  0.1409
 8622SOL    HW234260   5.479   6.153   1.647 -1.3803  0.2604  0.6473
 8622SOL    HW334261   5.452   6.024   1.572  1.6064 -0.4089  0.6150
 8622SOL    MW434262   5.452   6.111   1.576  0.4909 -0.3806  0.2703
 8623SOL     OW34263   5.402   5.216   5.678 -0.5321 -0.7181  0.7205
 8623SOL    HW234264   5.476   5.260   5.720 -0.4062  0.8167 -0.9823
 8623SOL    HW334265   5.327   5.240   5.732 -0.5086  1.9176 -0.2344
 8623SOL    MW434266   5.402   5.225   5.691 -0.5124 -0.1678  0.3699
 8624SOL     OW34267   0.659   3.081   2.322  0.0617  0.0039  0.1865
 8624SOL    HW234268   0.657   3.007   2.262  0.2773  0.0675  0.0989
 8624SOL    HW334269   0.744   3.121   2.308 -0.7355  1.3528 -1.1034
 8624SOL    MW434270   0.670   3.077   2.312 -0.0151  0.1902  0.0048
 8625SOL     OW34271   2.503   5.997   4.609 -0.1839 -0.0239  0.0075
 8625SOL    HW234272   2.596   5.978   4.594 -0.1878 -0.8189  0.9040
 8625SOL    HW334273   2.496   6.007   4.704 -0.2888  4.0414 -0.2377
 8625SOL    MW434274   2.515   5.996   4.620 -0.1982  0.4076  0.0935
 8626SOL     OW34275   2.858   6.234   4.262  0.1217 -0.5031 -0.3907
 8626SOL    HW234276   2.913   6.227   4.341  0.7118 -2.3205 -0.9096
 8626SOL    HW334277   2.919   6.219   4.190 -1.0821 -3.4180 -0.9567
 8626SOL    MW434278   2.874   6.231   4.263  0.0407 -1.1275 -0.5339
 8627SOL     OW34279   3.336   0.958   0.179 -0.3324 -0.2781  0.4716
 8627SOL    HW234280   3.345   0.869   0.146  0.2896 -1.0848  2.6652
 8627SOL    HW334281   3.413   1.004   0.145  0.0397 -0.9348  0.4139
 8627SOL    MW434282   3.347   0.952   0.170 -0.2012 -0.4712  0.7534
 8628SOL     OW34283   4.070   4.692   3.451 -0.0847  0.2106 -0.0289
 8628SOL    HW234284   3.985   4.726   3.423 -0.0731 -0.8635 -1.5478
 8628SOL    HW334285   4.076   4.712   3.544 -1.9562  0.4072  0.0708
 8628SOL    MW434286   4.060   4.699   3.459 -0.3301  0.0948 -0.2162
 8629SOL     OW34287   4.191   4.558   5.015 -0.4219 -0.3180 -0.0220
 8629SOL    HW234288   4.209   4.464   5.016 -0.8938 -0.4071  0.4101
 8629SOL    HW334289   4.159   4.576   4.927 -0.2126 -0.5405 -0.1429
 8629SOL    MW434290   4.189   4.548   5.004 -0.4566 -0.3591  0.0190
 8630SOL     OW34291   4.544   5.749   0.033  0.2221 -0.9350 -0.1869
 8630SOL    HW234292   4.474   5.805   0.068  0.0115  0.2535 -2.3560
 8630SOL    HW334293   4.577   5.701   0.110 -0.1827  1.5008  1.6334
 8630SOL    MW434294   4.539   5.750   0.048  0.1409 -0.4568 -0.2330
 8631SOL     OW34295   2.549   1.539   0.237 -0.0867  0.0609 -0.0131
 8631SOL    HW234296   2.570   1.588   0.317 -0.3059  1.4694 -0.7850
 8631SOL    HW334297   2.631   1.537   0.188 -0.3613  0.7076 -0.5152
 8631SOL    MW434298   2.563   1.545   0.241 -0.1518  0.3320 -0.1812
 8632SOL     OW34299   1.285   5.125   3.821 -0.3546 -0.5870  0.2428
 8632SOL    HW234300   1.238   5.106   3.902  0.4476 -0.9609  0.6393
 8632SOL    HW334301   1.334   5.205   3.840  1.6667 -1.9005  0.9825
 8632SOL    MW434302   1.286   5.133   3.834  0.0179 -0.8097  0.3927
 8633SOL     OW34303   4.188   5.259   2.771 -0.7310 -0.1346  0.0552
 8633SOL    HW234304   4.283   5.254   2.777 -0.6930  0.4001 -0.0295
 8633SOL    HW334305   4.166   5.211   2.691 -0.4364  0.6493 -0.5081
 8633SOL    MW434306   4.198   5.252   2.762 -0.6871  0.0394 -0.0303
 8634SOL     OW34307   5.939   2.181   4.308 -0.1029  0.1382 -0.2934
 8634SOL    HW234308   5.936   2.086   4.297  0.6104  0.1633 -0.8267
 8634SOL    HW334309   5.848   2.208   4.319 -0.2381 -0.7082  0.7972
 8634SOL    MW434310   5.927   2.172   4.308 -0.0266  0.0298 -0.2199
 8635SOL     OW34311   6.305   2.738   3.189 -0.3066  0.2967 -0.2711
 8635SOL    HW234312   6.219   2.697   3.193 -0.2591  0.2406  0.2683
 8635SOL    HW334313   6.316   2.780   3.274  1.2461 -1.8725  0.7159
 8635SOL    MW434314   6.295   2.738   3.201 -0.0955  0.0031 -0.0697
 8636SOL     OW34315   2.323   0.067   4.487  0.3089  0.4441  0.0421
 8636SOL    HW234316   2.287   0.013   4.416  0.8670  0.2832 -0.1258
 8636SOL    HW334317   2.335   0.153   4.447 -0.3967  0.6401  0.2532
 8636SOL    MW434318   2.320   0.071   4.472  0.2895  0.4487  0.0478
 8637SOL     OW34319   1.845   6.255   5.992 -0.0837  0.1588 -0.0490
 8637SOL    HW234320   1.776   6.272   5.928  0.5084  1.3171 -0.4043
 8637SOL    HW334321   1.823   6.311   6.066  0.7108  0.8769 -0.3455
 8637SOL    MW434322   1.833   6.264   5.993  0.0992  0.4064 -0.1350
 8638SOL     OW34323   1.383   3.950   3.514  0.2185  0.1139  0.4423
 8638SOL    HW234324   1.353   4.035   3.546  2.1706  0.4721  1.5331
 8638SOL    HW334325   1.416   3.967   3.426 -1.8689 -0.1226 -0.4369
 8638SOL    MW434326   1.383   3.964   3.507  0.2006  0.1300  0.4702
 8639SOL     OW34327   5.956   4.945   1.623 -0.5160  0.2979  0.2525
 8639SOL    HW234328   5.921   5.033   1.641 -0.5783  0.1535  0.8376
 8639SOL    HW334329   5.892   4.886   1.662  0.9781  0.0338  2.4541
 8639SOL    MW434330   5.943   4.949   1.630 -0.3271  0.2440  0.6202
 8640SOL     OW34331   1.430   5.797   2.660 -0.0362 -0.1583 -0.6541
 8640SOL    HW234332   1.405   5.817   2.570 -3.9761 -0.7474  0.1607
 8640SOL    HW334333   1.376   5.722   2.685  1.9922 -0.9844  1.7993
 8640SOL    MW434334   1.420   5.790   2.652 -0.2884 -0.3450 -0.2229
 8641SOL     OW34335   4.506   3.227   3.075  0.0625 -0.0656 -0.7396
 8641SOL    HW234336   4.415   3.258   3.075  0.4594  1.2128  1.0398
 8641SOL    HW334337   4.520   3.197   2.985 -1.6036  1.2475 -1.5102
 8641SOL    MW434338   4.496   3.227   3.063 -0.1049  0.2763 -0.6065
 8642SOL     OW34339   0.037   0.059   5.748  0.3903 -0.3052  0.7340
 8642SOL    HW234340  -0.022  -0.015   5.761  1.0345 -0.5540  2.4981
 8642SOL    HW334341  -0.007   0.132   5.791  1.6786 -0.6921  2.8993
 8642SOL    MW434342   0.023   0.059   5.755  0.6453 -0.3891  1.2525
 8643SOL     OW34343   0.172   6.393   2.525  0.0610 -0.1385 -0.3572
 8643SOL    HW234344   0.112   6.325   2.558  0.0299  0.3340  0.6058
 8643SOL    HW334345   0.252   6.345   2.504 -0.7772 -0.8579 -2.1300
 8643SOL    MW434346   0.174   6.377   2.527 -0.0537 -0.1711 -0.4640
 8644SOL     OW34347   5.592   4.603   1.157  0.1413 -0.3355  0.1432
 8644SOL    HW234348   5.664   4.583   1.096  0.6424 -0.6422  0.8274
 8644SOL    HW334349   5.626   4.673   1.212  0.5625 -1.6011  1.5671
 8644SOL    MW434350   5.606   4.610   1.156  0.2630 -0.5429  0.4213
 8645SOL     OW34351   3.239   4.479   1.004  0.1798  0.3147 -0.3395
 8645SOL    HW234352   3.284   4.498   0.922 -1.4938  0.0458 -1.3513
 8645SOL    HW334353   3.215   4.564   1.039 -2.6250  0.4106 -2.2008
 8645SOL    MW434354   3.242   4.493   0.998 -0.4111  0.2919 -0.7185
 8646SOL     OW34355   4.298   4.414   1.981 -0.4596  0.2564  0.1751
 8646SOL    HW234356   4.367   4.376   1.927 -0.1999  1.0220 -0.0504
 8646SOL    HW334357   4.319   4.385   2.070 -0.7401 -0.7924 -0.0900
 8646SOL    MW434358   4.310   4.405   1.985 -0.4623  0.2191  0.1104
 8647SOL     OW34359   1.308   1.646   1.755 -0.7163 -0.0430  0.7392
 8647SOL    HW234360   1.395   1.648   1.796 -0.4338 -0.6093  0.1842
 8647SOL    HW334361   1.317   1.699   1.677 -1.1004  0.5710  1.1056
 8647SOL    MW434362   1.321   1.653   1.750 -0.7297 -0.0367  0.7143
 8648SOL     OW34363   3.241   2.555   5.973  0.1232  0.1882  0.1284
 8648SOL    HW234364   3.201   2.474   5.942 -0.3276  0.1756  0.7119
 8648SOL    HW334365   3.317   2.527   6.023  0.7058  0.1971 -0.7304
 8648SOL    MW434366   3.246   2.540   5.976  0.1406  0.1877  0.0920
 8649SOL     OW34367   5.361   3.896   4.277 -0.5309 -0.0388 -0.0433
 8649SOL    HW234368   5.332   3.940   4.197 -0.8246 -0.3024 -0.0852
 8649SOL    HW334369   5.422   3.957   4.318  2.1521 -1.1393 -2.0700
 8649SOL    MW434370   5.365   3.910   4.272 -0.2156 -0.2188 -0.3162
 8650SOL     OW34371   3.189   3.468   2.428 -0.5812  0.1127  0.2617
 8650SOL    HW234372   3.168   3.553   2.467  0.2770  1.0660 -1.2257
 8650SOL    HW334373   3.273   3.444   2.466 -1.0898 -0.3723  1.1100
 8650SOL    MW434374   3.197   3.476   2.438 -0.5350  0.1745  0.1774
 8651SOL     OW34375   2.698   4.159   3.942  0.0874  0.3067  0.2881
 8651SOL    HW234376   2.768   4.220   3.918 -0.3873  1.0211  0.7060
 8651SOL    HW334377   2.669   4.188   4.028 -0.6472 -0.0574  0.1674
 8651SOL    MW434378   2.703   4.171   3.950 -0.0722  0.3529  0.3273
 8652SOL     OW34379   2.524   5.393   0.279 -0.6935  0.2022 -0.2941
 8652SOL    HW234380   2.517   5.455   0.352 -0.8135 -1.8203  1.4898
 8652SOL    HW334381   2.611   5.355   0.288 -0.9892 -0.6014 -0.7663
 8652SOL    MW434382   2.534   5.396   0.290 -0.7484 -0.1707 -0.1210
 8653SOL     OW34383   0.409   0.218   1.630 -0.0258  0.1743  0.0305
 8653SOL    HW234384   0.366   0.147   1.677 -1.4447  2.0952  1.8070
 8653SOL    HW334385   0.441   0.177   1.550 -0.5868 -2.4881  1.0586
 8653SOL    MW434386   0.407   0.203   1.625 -0.2870  0.0765  0.4005
 8654SOL     OW34387   4.969   0.428   1.724  0.2911 -0.0419  0.1393
 8654SOL    HW234388   5.023   0.408   1.648  0.1932 -1.1680  0.3583
 8654SOL    HW334389   4.949   0.343   1.763 -0.6455  0.4409  0.7485
 8654SOL    MW434390   4.973   0.414   1.719  0.1546 -0.1268  0.2486
 8655SOL     OW34391   6.417   2.432   2.010 -0.4617 -0.3494  0.2475
 8655SOL    HW234392   6.355   2.384   2.064 -1.0830  0.5959  0.3972
 8655SOL    HW334393   6.411   2.522   2.041 -0.9444  0.2540 -1.4805
 8655SOL    MW434394   6.408   2.437   2.021 -0.6074 -0.1451  0.0393
 8656SOL     OW34395   6.081   2.227   5.255  0.1342  0.1971  0.0229
 8656SOL    HW234396   6.054   2.300   5.312  1.5774  0.1710  0.7699
 8656SOL    HW334397   6.094   2.154   5.314  0.5822 -0.1405 -0.4889
 8656SOL    MW434398   6.079   2.227   5.270  0.3837  0.1491  0.0539
 8657SOL     OW34399   3.660   2.917   3.570 -0.5653 -0.0874 -0.0434
 8657SOL    HW234400   3.755   2.912   3.572 -0.4229  1.0664 -1.8249
 8657SOL    HW334401   3.632   2.869   3.648  1.3998 -1.6060 -0.2006
 8657SOL    MW434402   3.669   2.910   3.581 -0.2872 -0.1355 -0.2992
 8658SOL     OW34403   1.640   5.932   6.329 -0.7042  0.2263 -0.1732
 8658SOL    HW234404   1.612   5.905   6.416  1.8439 -1.3563  0.2397
 8658SOL    HW334405   1.652   6.027   6.336 -0.2756  0.0815  1.2754
 8658SOL    MW434406   1.638   5.941   6.341 -0.3115 -0.0016  0.0724
 8659SOL     OW34407   4.381   0.216   4.566  0.2885 -0.0762 -0.2432
 8659SOL    HW234408   4.306   0.259   4.525 -1.0112 -1.1420  0.9455
 8659SOL    HW334409   4.455   0.238   4.509 -0.8969  1.0706 -1.3963
 8659SOL    MW434410   4.381   0.224   4.553 -0.0394 -0.0655 -0.2385
 8660SOL     OW34411   0.963   3.782   2.064 -0.6012  0.3791 -0.2932
 8660SOL    HW234412   0.926   3.695   2.055 -3.8853  1.4955  0.8167
 8660SOL    HW334413   0.919   3.834   1.996  1.2647  1.2178 -0.9253
 8660SOL    MW434414   0.952   3.778   2.054 -0.7883  0.6370 -0.2301
 8661SOL     OW34415   5.208   1.204   3.972 -0.1856  0.0666 -0.5469
 8661SOL    HW234416   5.214   1.109   3.972 -0.7671  0.0139  0.4155
 8661SOL    HW334417   5.299   1.234   3.965  0.1365 -0.5807  0.6224
 8661SOL    MW434418   5.221   1.196   3.971 -0.2198 -0.0257 -0.2656
 8662SOL     OW34419   4.031   0.765   2.582  0.0931 -0.0381 -0.2576
 8662SOL    HW234420   4.097   0.697   2.598 -1.5675 -1.1866  2.3935
 8662SOL    HW334421   3.967   0.722   2.525  0.9974  0.6898 -1.8693
 8662SOL    MW434422   4.032   0.750   2.577 -0.0067 -0.0936 -0.1204
 8663SOL     OW34423   5.931   6.014   5.929  0.3679  0.1612  0.7481
 8663SOL    HW234424   5.864   6.046   5.868  0.3467  0.2392  0.8121
 8663SOL    HW334425   5.892   6.025   6.016  0.1212 -0.6118  0.7409
 8663SOL    MW434426   5.917   6.020   5.933  0.3325  0.0695  0.7556
 8664SOL     OW34427   0.887   3.412   2.453 -0.2442 -0.1555 -0.9243
 8664SOL    HW234428   0.805   3.461   2.452 -0.3224 -0.2944 -1.5369
 8664SOL    HW334429   0.953   3.474   2.422  0.1004  0.3066  0.6177
 8664SOL    MW434430   0.885   3.427   2.449 -0.2090 -0.1129 -0.8017
 8665SOL     OW34431   1.178   2.889   1.745  0.1381  0.0983  0.1535
 8665SOL    HW234432   1.154   2.845   1.826 -1.4297  1.0700  0.2542
 8665SOL    HW334433   1.158   2.981   1.761  0.1397  0.3623 -1.2250
 8665SOL    MW434434   1.172   2.896   1.758 -0.0685  0.2613 -0.0151
 8666SOL     OW34435   0.539   0.683   0.786  0.4005 -0.3611  0.4245
 8666SOL    HW234436   0.482   0.611   0.760  1.3023 -0.7512 -0.5456
 8666SOL    HW334437   0.478   0.754   0.808 -0.4715 -0.9009 -0.1542
 8666SOL    MW434438   0.523   0.683   0.785  0.4044 -0.4838  0.2201
 8667SOL     OW34439   2.229   6.229   6.237 -0.0679 -0.1698 -0.7935
 8667SOL    HW234440   2.185   6.314   6.237 -0.5547 -0.4220 -0.7998
 8667SOL    HW334441   2.216   6.196   6.326  0.7820  0.1004 -0.5600
 8667SOL    MW434442   2.222   6.236   6.249 -0.0200 -0.1674 -0.7635
 8668SOL     OW34443   6.353   4.122   2.350 -0.6192  0.0812 -0.1919
 8668SOL    HW234444   6.313   4.196   2.395 -1.6891  0.2537 -1.3795
 8668SOL    HW334445   6.350   4.050   2.414  2.8513  1.6006  2.0032
 8668SOL    MW434446   6.348   4.122   2.364 -0.3025  0.3044 -0.0590
 8669SOL     OW34447   0.655   4.195   1.877  0.1627 -0.0796  0.3054
 8669SOL    HW234448   0.720   4.263   1.861  0.4872 -0.6038 -0.7169
 8669SOL    HW334449   0.604   4.191   1.796 -0.4125 -0.4500  0.6815
 8669SOL    MW434450   0.657   4.203   1.864  0.1296 -0.1976  0.2201
 8670SOL     OW34451   5.316   4.130   4.803  0.9973 -0.3260 -0.0219
 8670SOL    HW234452   5.238   4.078   4.822 -0.2303  1.0313 -1.0912
 8670SOL    HW334453   5.292   4.219   4.831  1.5872  0.4089 -1.7064
 8670SOL    MW434454   5.303   4.135   4.809  0.9132 -0.0500 -0.3853
 8671SOL     OW34455   0.963   2.105   4.379  0.5586 -0.4382 -0.4059
 8671SOL    HW234456   0.922   2.171   4.323 -0.7448 -1.4258 -0.6624
 8671SOL    HW334457   0.935   2.021   4.342  1.4489 -1.1367  0.4426
 8671SOL    MW434458   0.954   2.102   4.367  0.5041 -0.6607 -0.3278
 8672SOL     OW34459   3.321   2.252   4.015  0.3943 -0.9106 -0.8754
 8672SOL    HW234460   3.365   2.187   4.069  0.5773 -0.4060 -0.4121
 8672SOL    HW334461   3.269   2.304   4.077  1.9083  0.7503 -0.9168
 8672SOL    MW434462   3.320   2.251   4.030  0.6182 -0.6249 -0.8197
 8673SOL     OW34463   2.309   3.009   3.469 -0.0162 -0.0147 -0.0440
 8673SOL    HW234464   2.292   2.979   3.379  2.2474  0.5342 -0.7210
 8673SOL    HW334465   2.305   3.105   3.463 -0.8262  0.0116  0.6922
 8673SOL    MW434466   2.306   3.018   3.456  0.1756  0.0612 -0.0362
 8674SOL     OW34467   4.776   6.163   2.201 -0.3365 -0.3502 -0.2280
 8674SOL    HW234468   4.732   6.200   2.125 -0.7372 -1.1987 -0.4179
 8674SOL    HW334469   4.705   6.139   2.261 -0.0323  0.2015  0.3729
 8674SOL    MW434470   4.761   6.165   2.199 -0.3492 -0.3894 -0.1737
 8675SOL     OW34471   4.547   2.643   5.197 -0.0533  0.2423  0.1428
 8675SOL    HW234472   4.500   2.560   5.189  1.9565 -0.9194 -0.2443
 8675SOL    HW334473   4.490   2.707   5.154 -1.5397 -0.9599  0.2555
 8675SOL    MW434474   4.533   2.641   5.190  0.0157 -0.0696  0.1066
 8676SOL     OW34475   3.043   0.797   2.691  0.1412 -0.2061  0.1495
 8676SOL    HW234476   3.071   0.749   2.613  1.4399 -0.0645  0.5133
 8676SOL    HW334477   3.076   0.886   2.678  0.4680 -0.2090  0.9076
 8676SOL    MW434478   3.051   0.802   2.679  0.3557 -0.1878  0.2975
 8677SOL     OW34479   6.185   5.417   0.501  0.2479 -0.8090  0.0415
 8677SOL    HW234480   6.143   5.390   0.420 -0.6889 -2.3980  1.0133
 8677SOL    HW334481   6.264   5.464   0.473 -1.3308  0.8872 -1.8053
 8677SOL    MW434482   6.190   5.420   0.487 -0.0840 -0.7948 -0.0739
 8678SOL     OW34483   0.167   1.896   3.994 -0.2037  0.2824 -0.1797
 8678SOL    HW234484   0.144   1.930   3.907 -0.1713  0.2973 -0.1826
 8678SOL    HW334485   0.222   1.964   4.032  1.1051 -0.4081 -0.7718
 8678SOL    MW434486   0.171   1.909   3.987 -0.0268  0.1933 -0.2582
 8679SOL     OW34487   4.386   1.121   1.589 -0.8448  0.3952  0.3282
 8679SOL    HW234488   4.437   1.083   1.661 -1.7243 -2.0774 -0.2498
 8679SOL    HW334489   4.296   1.092   1.607 -1.0240 -0.6432 -1.9294
 8679SOL    MW434490   4.380   1.112   1.601 -0.9845 -0.0680 -0.0460
 8680SOL     OW34491   5.369   0.668   2.046 -0.5483  0.0854  0.8552
 8680SOL    HW234492   5.441   0.708   1.995  0.2990 -1.0262  1.1428
 8680SOL    HW334493   5.291   0.717   2.019  0.2663  1.1568  0.3368
 8680SOL    MW434494   5.368   0.680   2.036 -0.3290  0.0801  0.8247
 8681SOL     OW34495   0.938   1.507   3.037  0.1346 -0.0041  0.5363
 8681SOL    HW234496   0.889   1.425   3.031 -0.0359  0.1345 -0.0371
 8681SOL    HW334497   0.918   1.541   3.124 -0.3442 -0.2316  0.5187
 8681SOL    MW434498   0.929   1.501   3.047  0.0489 -0.0158  0.4583
 8682SOL     OW34499   6.362   5.764   1.074 -0.5954  0.3161 -0.0195
 8682SOL    HW234500   6.295   5.820   1.115 -1.3136 -0.4575 -0.1006
 8682SOL    HW334501   6.344   5.677   1.109  0.0560  0.0081 -0.4422
 8682SOL    MW434502   6.351   5.760   1.084 -0.6042  0.1734 -0.0860
 8683SOL     OW34503   5.190   1.346   4.378  0.4240 -0.1418  0.3514
 8683SOL    HW234504   5.168   1.320   4.467 -1.4311 -0.5336 -0.1863
 8683SOL    HW334505   5.110   1.386   4.343  0.4809 -1.7038 -1.7541
 8683SOL    MW434506   5.177   1.348   4.385  0.1868 -0.3996  0.0027
 8684SOL     OW34507   4.603   5.444   4.015 -0.1665  0.5252 -0.1336
 8684SOL    HW234508   4.631   5.354   4.036 -0.4144  0.8671  1.9388
 8684SOL    HW334509   4.508   5.443   4.029 -0.1955  1.0635 -0.2969
 8684SOL    MW434510   4.594   5.432   4.020 -0.2030  0.6413  0.1183
 8685SOL     OW34511   3.066   0.138   6.413 -0.4667  0.4452 -0.0984
 8685SOL    HW234512   2.980   0.167   6.382 -0.7090 -0.6707 -0.5404
 8685SOL    HW334513   3.081   0.055   6.367  1.4075  1.2178 -0.9920
 8685SOL    MW434514   3.057   0.131   6.403 -0.2514  0.3999 -0.2746
 8686SOL     OW34515   4.155   3.803   0.864  0.0725 -0.1603  0.3523
 8686SOL    HW234516   4.124   3.745   0.794 -2.6399  0.3283  1.0530
 8686SOL    HW334517   4.096   3.878   0.861  1.1560  0.8222  1.9119
 8686SOL    MW434518   4.143   3.805   0.854 -0.1424  0.0338  0.6505
 8687SOL     OW34519   2.592   4.110   0.052 -0.0410  0.4146  0.3391
 8687SOL    HW234520   2.509   4.089   0.094 -0.8242  0.3611 -1.1665
 8687SOL    HW334521   2.656   4.109   0.123 -1.0775 -0.9478  1.3059
 8687SOL    MW434522   2.589   4.107   0.067 -0.2811  0.2278  0.2681
 8688SOL     OW34523   1.550   1.387   0.859 -0.2169  0.3352 -0.2814
 8688SOL    HW234524   1.639   1.409   0.887 -0.1475  0.9146 -0.9371
 8688SOL    HW334525   1.510   1.349   0.937  0.7943 -0.5234 -0.1535
 8688SOL    MW434526   1.557   1.385   0.873 -0.0743  0.2983 -0.3510
 8689SOL     OW34527   2.990   2.797   4.608 -0.7040 -0.2717  0.2402
 8689SOL    HW234528   2.940   2.875   4.632  0.4232  0.8492 -0.9318
 8689SOL    HW334529   2.953   2.769   4.524 -0.1376 -0.1081 -0.0703
 8689SOL    MW434530   2.978   2.804   4.600 -0.4805 -0.1022  0.0446
 8690SOL     OW34531   1.990   0.194   2.456  0.2005  0.2507 -0.0994
 8690SOL    HW234532   1.900   0.166   2.443  0.3301  0.1267 -0.7847
 8690SOL    HW334533   2.043   0.130   2.408  0.6830  0.1068  0.6031
 8690SOL    MW434534   1.985   0.182   2.448  0.2813  0.2154 -0.0972
 8691SOL     OW34535   4.988   2.890   2.787  0.2404 -0.0031 -0.1589
 8691SOL    HW234536   4.960   2.817   2.731 -1.4340  1.0687 -0.7722
 8691SOL    HW334537   5.067   2.923   2.744 -0.6056  0.3320 -1.5055
 8691SOL    MW434538   4.995   2.885   2.774 -0.0921  0.1826 -0.4175
 8692SOL     OW34539   0.408   0.944   1.819  0.3374  0.0655 -0.5149
 8692SOL    HW234540   0.432   0.995   1.896 -1.0166  1.0016 -0.6716
 8692SOL    HW334541   0.490   0.908   1.787  0.9672 -0.0658  1.1660
 8692SOL    MW434542   0.422   0.946   1.825  0.2418  0.1717 -0.3138
 8693SOL     OW34543   3.061   3.178   3.428  0.2610  0.5147 -0.3845
 8693SOL    HW234544   3.076   3.255   3.373 -0.4412  0.9133 -0.0327
 8693SOL    HW334545   3.149   3.152   3.457  0.8264 -0.5977 -2.8340
 8693SOL    MW434546   3.075   3.185   3.424  0.2430  0.4205 -0.6613
 8694SOL     OW34547   1.922   5.102   1.397  0.1362 -0.0377 -0.2559
 8694SOL    HW234548   1.885   5.178   1.352 -0.7055 -0.2454  0.0715
 8694SOL    HW334549   1.961   5.049   1.328  0.5042  0.5654 -0.5165
 8694SOL    MW434550   1.923   5.105   1.382  0.0737  0.0145 -0.2471
 8695SOL     OW34551   0.242   3.363   5.965 -0.2319 -0.3483  0.1813
 8695SOL    HW234552   0.196   3.331   6.042  0.7346 -0.2236  0.8234
 8695SOL    HW334553   0.297   3.290   5.937  0.2859 -0.0123  0.3074
 8695SOL    MW434554   0.243   3.349   5.971 -0.0360 -0.2875  0.2827
 8696SOL     OW34555   1.252   2.015   0.127 -0.5443  0.0729  0.8008
 8696SOL    HW234556   1.331   1.962   0.116 -1.4847 -0.8765 -3.2075
 8696SOL    HW334557   1.274   2.100   0.087 -1.3305 -0.0260  0.1142
 8696SOL    MW434558   1.265   2.020   0.120 -0.7721 -0.0654  0.1814
 8697SOL     OW34559   3.679   6.360   3.094  0.5330 -0.1308  0.1374
 8697SOL    HW234560   3.710   6.283   3.047  0.2208  0.5267 -1.1752
 8697SOL    HW334561   3.640   6.415   3.027  1.4869  1.5649  0.9155
 8697SOL    MW434562   3.678   6.357   3.079  0.6177  0.1797  0.0669
 8698SOL     OW34563   5.935   4.374   2.771  0.1718 -0.4286  0.2143
 8698SOL    HW234564   5.894   4.449   2.727 -2.8669 -1.1097  1.5881
 8698SOL    HW334565   5.926   4.393   2.864  1.4169 -1.5061  0.5797
 8698SOL    MW434566   5.928   4.387   2.777 -0.0648 -0.6607  0.4438
 8699SOL     OW34567   4.970   0.118   2.444  0.3365 -0.3744 -0.1146
 8699SOL    HW234568   5.047   0.119   2.501 -1.5981  0.2437  2.6545
 8699SOL    HW334569   4.964   0.207   2.410  0.9668 -0.4955 -0.5636
 8699SOL    MW434570   4.979   0.130   2.447  0.1644 -0.3088  0.1915
 8700SOL     OW34571   4.507   0.392   0.919 -0.5092  0.0951 -0.2648
 8700SOL    HW234572   4.526   0.397   0.825 -0.9472 -2.0574 -0.5354
 8700SOL    HW334573   4.527   0.479   0.953 -2.1374  1.5226 -2.6691
 8700SOL    MW434574   4.512   0.404   0.911 -0.7818 -0.0006 -0.6177
 8701SOL     OW34575   4.030   2.146   1.358 -0.2065 -0.1674  0.3091
 8701SOL    HW234576   4.027   2.220   1.298  0.7539  1.3620  2.0292
 8701SOL    HW334577   3.955   2.159   1.415  0.8603  0.4630  1.6339
 8701SOL    MW434578   4.020   2.157   1.358  0.0610  0.1175  0.7108
 8702SOL     OW34579   0.982   0.938   5.261 -0.3060 -0.0125  0.3463
 8702SOL    HW234580   1.042   0.910   5.192 -0.9575  0.0363 -0.2499
 8702SOL    HW334581   0.992   0.872   5.330 -1.6457 -1.6393 -0.9352
 8702SOL    MW434582   0.991   0.925   5.261 -0.5687 -0.2207  0.0986
 8703SOL     OW34583   1.480   2.085   4.253  0.6515  0.2820  0.2070
 8703SOL    HW234584   1.423   2.149   4.295  0.1916 -0.6778  1.0993
 8703SOL    HW334585   1.435   2.065   4.170  1.8786  2.6363 -1.1514
 8703SOL    MW434586   1.466   2.091   4.247  0.7527  0.4660  0.1455
 8704SOL     OW34587   4.182   1.158   4.436  0.1540 -0.3902 -0.5144
 8704SOL    HW234588   4.208   1.068   4.414 -2.0178 -1.0313 -0.6267
 8704SOL    HW334589   4.140   1.191   4.357 -1.8834 -0.4213  0.5111
 8704SOL    MW434590   4.180   1.151   4.423 -0.4013 -0.4789 -0.3939
 8705SOL     OW34591   1.749   5.469   2.049 -0.2313 -0.3066  0.0889
 8705SOL    HW234592   1.790   5.385   2.030 -0.1036  0.3271 -2.9917
 8705SOL    HW334593   1.657   5.457   2.024 -0.2992  0.3471  0.0068
 8705SOL    MW434594   1.742   5.456   2.043 -0.2234 -0.1367 -0.3284
 8706SOL     OW34595   3.156   1.349   1.698  0.3870  0.0544  0.0996
 8706SOL    HW234596   3.244   1.331   1.732  0.5066  1.5469  0.6457
 8706SOL    HW334597   3.171   1.399   1.618  0.0283  0.7773  0.4800
 8706SOL    MW434598   3.170   1.353   1.692  0.3555  0.3467  0.2218
 8707SOL     OW34599   4.058   2.262   1.778 -0.4725  0.4189  0.1316
 8707SOL    HW234600   4.099   2.273   1.692 -0.3542 -0.2842  0.0950
 8707SOL    HW334601   4.035   2.169   1.782 -0.8923  0.5421  0.6766
 8707SOL    MW434602   4.060   2.251   1.767 -0.5123  0.3424  0.1987
 8708SOL     OW34603   0.666   3.840   1.474 -1.1528 -0.0089  0.1484
 8708SOL    HW234604   0.682   3.894   1.397 -0.9433 -0.2314  0.0314
 8708SOL    HW334605   0.752   3.830   1.515 -1.2795  0.1889  0.4645
 8708SOL    MW434606   0.680   3.846   1.470 -1.1419 -0.0122  0.1747
 8709SOL     OW34607   2.576   2.810   5.719 -0.2497  0.2750  0.4404
 8709SOL    HW234608   2.542   2.731   5.761  0.0903 -0.2009 -0.1629
 8709SOL    HW334609   2.656   2.831   5.769  0.5102 -0.6598 -0.3440
 8709SOL    MW434610   2.582   2.802   5.731 -0.1046  0.0889  0.2573
 8710SOL     OW34611   0.533   1.196   4.254  0.6451 -0.2825  0.4154
 8710SOL    HW234612   0.623   1.201   4.222 -0.2175  2.4383 -2.0304
 8710SOL    HW334613   0.528   1.261   4.324  0.1594  1.1075 -0.8604
 8710SOL    MW434614   0.544   1.205   4.259  0.4672  0.2598 -0.0756
 8711SOL     OW34615   4.135   0.422   2.305 -0.2585 -0.6874  0.3079
 8711SOL    HW234616   4.133   0.331   2.333  1.1066 -0.5411  1.0005
 8711SOL    HW334617   4.212   0.459   2.349  0.4037  0.2753 -1.5334
 8711SOL    MW434618   4.145   0.415   2.314  0.0090 -0.5411  0.1563
 8712SOL     OW34619   2.398   5.231   1.153 -0.1514  0.2490  0.6247
 8712SOL    HW234620   2.429   5.272   1.234 -0.9575  1.7018  0.2521
 8712SOL    HW334621   2.430   5.141   1.157 -0.3576  0.2102  2.6651
 8712SOL    MW434622   2.406   5.225   1.164 -0.2850  0.4355  0.8447
 8713SOL     OW34623   2.199   3.808   0.464 -0.4539 -0.5515  0.0944
 8713SOL    HW234624   2.273   3.832   0.408 -0.3547  0.3704  0.5924
 8713SOL    HW334625   2.210   3.863   0.541 -1.6132 -0.4683  0.2093
 8713SOL    MW434626   2.210   3.818   0.467 -0.5937 -0.4188  0.1753
 8714SOL     OW34627   2.755   1.453   3.369 -0.2077 -0.3464 -0.1958
 8714SOL    HW234628   2.734   1.391   3.299  1.5367  0.8009 -1.8390
 8714SOL    HW334629   2.836   1.496   3.339 -0.8302  2.0407  1.3001
 8714SOL    MW434630   2.763   1.450   3.356 -0.0597  0.1199 -0.2153
 8715SOL     OW34631   6.035   5.340   3.822 -0.3588  0.3665  0.1384
 8715SOL    HW234632   6.041   5.246   3.842 -1.4293  0.4137  0.7374
 8715SOL    HW334633   5.966   5.372   3.879  1.4973  1.9913  1.6122
 8715SOL    MW434634   6.027   5.332   3.832 -0.2552  0.5871  0.4119
 8716SOL     OW34635   0.709   2.502   1.533 -0.2824  0.1693 -0.7397
 8716SOL    HW234636   0.616   2.522   1.544 -0.5106 -1.0436 -0.3768
 8716SOL    HW334637   0.712   2.409   1.513  0.9599 -0.3285  1.3793
 8716SOL    MW434638   0.697   2.493   1.532 -0.1486 -0.0564 -0.4123
 8717SOL     OW34639   3.941   2.890   3.566 -0.1517  0.0379  0.0819
 8717SOL    HW234640   3.937   2.928   3.653 -0.0858  0.4604 -0.0937
 8717SOL    HW334641   3.950   2.966   3.507  0.6660 -0.2860 -0.2286
 8717SOL    MW434642   3.941   2.905   3.569 -0.0351  0.0509  0.0177
 8718SOL     OW34643   1.198   6.112   6.124 -0.1761  0.7002 -0.0215
 8718SOL    HW234644   1.135   6.041   6.136 -0.9900  1.0329 -1.8925
 8718SOL    HW334645   1.146   6.192   6.128  0.0332  0.9730 -1.7980
 8718SOL    MW434646   1.183   6.113   6.126 -0.2559  0.7801 -0.5027
 8719SOL     OW34647   3.578   3.156   2.374 -0.3379 -0.0772  0.0094
 8719SOL    HW234648   3.531   3.074   2.358 -0.5879 -0.1052  0.8585
 8719SOL    HW334649   3.569   3.205   2.292 -1.1471 -0.4291 -0.1242
 8719SOL    MW434650   3.571   3.152   2.361 -0.4777 -0.1273  0.1038
 8720SOL     OW34651   4.843   6.088   3.947 -0.5493 -0.3184  0.2197
 8720SOL    HW234652   4.819   6.011   3.998  0.1966 -1.8596 -1.6134
 8720SOL    HW334653   4.938   6.083   3.940 -0.6505 -0.5507 -1.7643
 8720SOL    MW434654   4.852   6.077   3.953 -0.4643 -0.5524 -0.2839
 8721SOL     OW34655   0.227   4.963   2.143  0.1867 -0.6284 -0.7742
 8721SOL    HW234656   0.190   4.973   2.055 -0.4033 -0.5607 -0.5270
 8721SOL    HW334657   0.296   5.029   2.147  0.0339 -0.4414 -1.0961
 8721SOL    MW434658   0.231   4.973   2.132  0.0887 -0.5948 -0.7841
 8722SOL     OW34659   2.870   2.850   2.542 -0.1937 -0.1887  0.1632
 8722SOL    HW234660   2.950   2.845   2.489 -0.0302 -0.7599  0.4552
 8722SOL    HW334661   2.881   2.783   2.609 -0.8597 -0.1768  0.2954
 8722SOL    MW434662   2.882   2.841   2.544 -0.2600 -0.2625  0.2192
 8723SOL     OW34663   5.267   6.275   0.486 -0.2213 -0.3295 -0.2632
 8723SOL    HW234664   5.273   6.208   0.417 -0.2942 -0.0664 -0.5250
 8723SOL    HW334665   5.357   6.305   0.498 -0.4005  0.7110 -1.3232
 8723SOL    MW434666   5.280   6.270   0.479 -0.2546 -0.1575 -0.4376
 8724SOL     OW34667   0.150   2.491   0.603  0.2131  0.5504  0.1452
 8724SOL    HW234668   0.164   2.450   0.688  0.5725  1.5581  0.5766
 8724SOL    HW334669   0.185   2.579   0.611  0.2802  0.6598 -1.0605
 8724SOL    MW434670   0.156   2.497   0.615  0.2694  0.6978  0.0431
 8725SOL     OW34671   1.688   2.004   4.069 -0.6937  0.2702 -0.0665
 8725SOL    HW234672   1.642   2.049   4.140 -0.0112  0.7030  0.1118
 8725SOL    HW334673   1.694   1.913   4.098 -0.9074  0.3336  0.1781
 8725SOL    MW434674   1.683   1.998   4.082 -0.6318  0.3357 -0.0107
 8726SOL     OW34675   5.566   2.204   3.231  0.1152 -0.9995  0.3685
 8726SOL    HW234676   5.505   2.238   3.165  0.0149 -1.0663  0.4271
 8726SOL    HW334677   5.579   2.278   3.291 -0.1632 -1.0874  0.5387
 8726SOL    MW434678   5.560   2.218   3.230  0.0652 -1.0199  0.3987
 8727SOL     OW34679   2.565   5.319   1.387 -0.4081 -0.1557  0.7180
 8727SOL    HW234680   2.657   5.331   1.362 -0.7449 -0.8718 -1.0079
 8727SOL    HW334681   2.564   5.237   1.436 -0.4962 -1.8471 -1.9110
 8727SOL    MW434682   2.577   5.310   1.390 -0.4642 -0.4733  0.1434
 8728SOL     OW34683   2.259   2.709   2.512  0.0779  0.4863 -0.3811
 8728SOL    HW234684   2.188   2.774   2.518  0.2398  0.6275  0.0782
 8728SOL    HW334685   2.293   2.703   2.601  1.7393  1.6479 -0.8833
 8728SOL    MW434686   2.254   2.717   2.525  0.3185  0.6582 -0.3868
 8729SOL     OW34687   2.721   5.259   4.868  0.6378 -0.6261 -0.3981
 8729SOL    HW234688   2.768   5.227   4.791  0.8737  1.9324 -1.3931
 8729SOL    HW334689   2.757   5.208   4.941  2.5254 -1.0682 -1.5787
 8729SOL    MW434690   2.732   5.248   4.868  0.9180 -0.3468 -0.6852
 8730SOL     OW34691   2.825   2.481   4.267  0.0258 -0.1412 -0.3239
 8730SOL    HW234692   2.842   2.571   4.295 -0.2452  0.1775 -1.1354
 8730SOL    HW334693   2.883   2.428   4.321  1.3938  0.6680 -0.9380
 8730SOL    MW434694   2.835   2.486   4.278  0.1706  0.0076 -0.5120
 8731SOL     OW34695   0.398   3.421   3.936 -0.1073 -0.3211 -0.2245
 8731SOL    HW234696   0.393   3.410   3.841 -0.2069  0.4148 -0.3105
 8731SOL    HW334697   0.347   3.348   3.971 -0.5495 -0.2796 -0.7579
 8731SOL    MW434698   0.391   3.410   3.928 -0.1788 -0.2186 -0.3062
 8732SOL     OW34699   5.322   4.754   6.086  0.0301  0.1300  0.1032
 8732SOL    HW234700   5.346   4.841   6.052  1.2673 -0.7301 -1.3560
 8732SOL    HW334701   5.392   4.696   6.054 -2.1178 -1.8929 -1.2489
 8732SOL    MW434702   5.335   4.758   6.077 -0.0900 -0.2504 -0.2677
 8733SOL     OW34703   4.940   4.001   3.170 -0.3181 -0.3529  0.2213
 8733SOL    HW234704   4.953   4.058   3.095  3.1580 -1.3929 -0.1407
 8733SOL    HW334705   4.998   3.926   3.154 -1.2314 -1.7652  2.8380
 8733SOL    MW434706   4.949   3.998   3.158  0.0200 -0.6764  0.5188
 8734SOL     OW34707   3.369   3.747   4.543  0.4683  0.9270  0.3112
 8734SOL    HW234708   3.393   3.701   4.463  1.2519  0.0490  1.0283
 8734SOL    HW334709   3.345   3.835   4.514  1.2544  0.7844 -0.8254
 8734SOL    MW434710   3.369   3.753   4.529  0.6754  0.7923  0.2559
 8735SOL     OW34711   6.274   5.946   4.944  0.5450 -0.2897  0.4668
 8735SOL    HW234712   6.194   5.897   4.966  0.5730  0.4617  2.4784
 8735SOL    HW334713   6.331   5.932   5.019  1.7244  0.4095 -0.2852
 8735SOL    MW434714   6.271   5.937   4.957  0.7043 -0.0983  0.6330
 8736SOL     OW34715   5.301   1.530   2.925 -0.6499  0.2022 -0.2387
 8736SOL    HW234716   5.217   1.546   2.967  0.2286  1.2274  1.2533
 8736SOL    HW334717   5.335   1.617   2.904  0.8663 -0.0280  1.0068
 8736SOL    MW434718   5.295   1.543   2.928 -0.3340  0.3071  0.1225
 8737SOL     OW34719   4.946   4.518   1.292 -0.0037  0.1142 -0.3922
 8737SOL    HW234720   5.001   4.444   1.318 -1.0717 -0.5962 -0.1078
 8737SOL    HW334721   4.983   4.593   1.339  0.0262 -0.5616  0.7077
 8737SOL    MW434722   4.958   4.518   1.302 -0.1407 -0.0687 -0.2096
 8738SOL     OW34723   5.820   5.402   3.120 -0.1551  0.1089 -0.4509
 8738SOL    HW234724   5.877   5.460   3.069  1.2593 -0.1902  0.7219
 8738SOL    HW334725   5.731   5.428   3.095  0.3991  3.0115  0.2321
 8738SOL    MW434726   5.815   5.413   3.110  0.1046  0.4524 -0.2060
 8739SOL     OW34727   3.609   0.659   0.444  0.1449  0.1347 -0.1645
 8739SOL    HW234728   3.638   0.570   0.462  1.1831  0.2048 -1.3518
 8739SOL    HW334729   3.514   0.656   0.453  0.1508 -1.1307 -0.3381
 8739SOL    MW434730   3.600   0.647   0.448  0.2826 -0.0230 -0.3441
 8740SOL     OW34731   0.136   2.984   5.141 -0.5796 -0.3986  0.1805
 8740SOL    HW234732   0.137   2.891   5.163 -0.6251 -0.3992  0.1800
 8740SOL    HW334733   0.228   3.009   5.135 -0.5239  0.0151  2.1050
 8740SOL    MW434734   0.148   2.975   5.143 -0.5783 -0.3441  0.4344
 8741SOL     OW34735   4.106   1.552   6.077  0.2720 -0.7010 -0.0641
 8741SOL    HW234736   4.062   1.581   5.997  0.5269  0.3730  0.1575
 8741SOL    HW334737   4.136   1.634   6.118  0.1666 -1.2237  1.1102
 8741SOL    MW434738   4.104   1.567   6.072  0.2917 -0.6282  0.1201
 8742SOL     OW34739   0.227   3.485   3.025  0.0444 -0.1072 -0.2155
 8742SOL    HW234740   0.259   3.539   2.953  1.6876 -0.2698  0.3549
 8742SOL    HW334741   0.171   3.544   3.077 -0.3938  0.2616 -1.0942
 8742SOL    MW434742   0.223   3.500   3.023  0.2034 -0.0800 -0.2562
 8743SOL     OW34743   4.939   2.658   0.222 -0.5618 -0.2080 -0.0156
 8743SOL    HW234744   4.958   2.625   0.134 -0.6525 -0.6274  0.1209
 8743SOL    HW334745   4.846   2.683   0.219 -0.8210 -1.1298  0.2420
 8743SOL    MW434746   4.929   2.657   0.210 -0.6080 -0.3849  0.0364
 8744SOL     OW34747   4.682   2.882   2.991 -0.7593  0.0032  0.4479
 8744SOL    HW234748   4.755   2.821   2.999 -1.4592 -0.8486  0.5788
 8744SOL    HW334749   4.721   2.969   2.998  0.2971 -0.4221  0.0093
 8744SOL    MW434750   4.697   2.886   2.993 -0.7123 -0.1653  0.4073
 8745SOL     OW34751   5.437   0.816   4.112  0.4641  0.4827 -0.2750
 8745SOL    HW234752   5.527   0.821   4.082  1.4241  0.7230  2.4130
 8745SOL    HW334753   5.443   0.805   4.207 -2.3377  0.1770 -0.0318
 8745SOL    MW434754   5.450   0.815   4.120  0.2211  0.4741  0.1117
 8746SOL     OW34755   6.202   3.655   6.404  0.1495 -0.0148  0.1828
 8746SOL    HW234756   6.227   3.569   6.439 -2.0845 -0.4918  0.7354
 8746SOL    HW334757   6.120   3.639   6.359  0.8739  1.4345 -1.7455
 8746SOL    MW434758   6.195   3.641   6.403 -0.0497  0.1135  0.0013
 8747SOL     OW34759   1.406   2.696   0.892  0.4416 -0.1525 -0.5875
 8747SOL    HW234760   1.374   2.696   0.802 -0.2430 -1.6841 -0.3818
 8747SOL    HW334761   1.334   2.660   0.944  1.7385 -1.8337  0.1712
 8747SOL    MW434762   1.393   2.691   0.887  0.5224 -0.5764 -0.4602
 8748SOL     OW34763   4.336   1.781   1.101 -0.4400  0.1701 -0.2006
 8748SOL    HW234764   4.244   1.778   1.128 -0.1562 -0.5676  0.7215
 8748SOL    HW334765   4.365   1.690   1.104  0.7732  0.5691  1.1348
 8748SOL    MW434766   4.328   1.769   1.105 -0.2425  0.1254  0.0973
 8749SOL     OW34767   2.991   4.668   1.171  0.6222 -0.2442  0.4237
 8749SOL    HW234768   3.074   4.716   1.170  1.1367 -1.1357 -0.0037
 8749SOL    HW334769   2.959   4.681   1.261  0.6103  1.1076  0.2549
 8749SOL    MW434770   2.998   4.676   1.183  0.6885 -0.1835  0.3450
 8750SOL     OW34771   0.198   1.414   2.157  0.5066  0.4925 -0.3996
 8750SOL    HW234772   0.154   1.393   2.075  1.5939 -0.4167 -0.7893
 8750SOL    HW334773   0.266   1.346   2.165  0.1133  0.2799  1.4973
 8750SOL    MW434774   0.201   1.402   2.147  0.5981  0.3445 -0.2007
 8751SOL     OW34775   5.636   0.035   1.637 -0.2514  0.1243 -0.3224
 8751SOL    HW234776   5.617  -0.025   1.709 -1.1742 -0.2311 -0.8472
 8751SOL    HW334777   5.678   0.110   1.679 -0.5021 -0.2066  0.5474
 8751SOL    MW434778   5.639   0.037   1.652 -0.4062  0.0337 -0.2769
 8752SOL     OW34779   1.523   1.932   5.308  0.1374 -0.0458  0.0875
 8752SOL    HW234780   1.471   1.936   5.389 -0.5345  0.3543 -0.3510
 8752SOL    HW334781   1.541   1.839   5.295 -0.5904 -0.2040  0.1778
 8752SOL    MW434782   1.519   1.921   5.317 -0.0473 -0.0139  0.0415
 8753SOL     OW34783   1.679   1.460   2.984  0.3033 -0.4050  0.1049
 8753SOL    HW234784   1.765   1.423   3.006  0.6187 -0.1495 -0.6574
 8753SOL    HW334785   1.619   1.386   2.985  0.6736 -0.7097 -0.0918
 8753SOL    MW434786   1.683   1.446   2.987  0.3938 -0.4115 -0.0216
 8754SOL     OW34787   5.339   2.324   0.888  0.0366 -0.8267 -0.0652
 8754SOL    HW234788   5.324   2.414   0.914  0.5411 -0.4510 -1.0325
 8754SOL    HW334789   5.252   2.285   0.884 -0.1560 -0.4770  0.6760
 8754SOL    MW434790   5.326   2.330   0.891  0.0778 -0.7310 -0.0950
 8755SOL     OW34791   0.471   0.975   6.360 -0.9178  0.2742  0.0156
 8755SOL    HW234792   0.536   0.930   6.414 -2.2814 -0.4804  1.0916
 8755SOL    HW334793   0.453   1.056   6.408  0.2654  1.2028 -1.0378
 8755SOL    MW434794   0.478   0.980   6.374 -0.9416  0.2972  0.0186
 8756SOL     OW34795   3.378   0.288   6.263 -0.0573 -0.6317  0.2732
 8756SOL    HW234796   3.357   0.249   6.178  1.3864  2.2892 -1.6138
 8756SOL    HW334797   3.293   0.296   6.307 -0.7216 -3.0922 -0.4149
 8756SOL    MW434798   3.364   0.284   6.258  0.0455 -0.5710 -0.0666
 8757SOL     OW34799   6.019   5.533   0.298  0.2087 -0.1679 -0.4539
 8757SOL    HW234800   6.014   5.532   0.203 -1.0951  1.9738 -0.4740
 8757SOL    HW334801   5.963   5.461   0.327  0.5723 -0.7939 -1.2789
 8757SOL    MW434802   6.011   5.524   0.290  0.0847  0.0320 -0.5654
 8758SOL     OW34803   1.301   3.817   3.101  0.8321 -0.6407 -1.1338
 8758SOL    HW234804   1.230   3.780   3.153  0.6300  0.4583 -0.5793
 8758SOL    HW334805   1.358   3.860   3.166 -0.9702  3.3839 -1.8985
 8758SOL    MW434806   1.299   3.818   3.117  0.5676  0.0353 -1.1615
 8759SOL     OW34807   4.315   0.796   5.029 -0.3333 -0.8909 -0.2568
 8759SOL    HW234808   4.271   0.822   5.111 -0.2136 -1.6076  0.0424
 8759SOL    HW334809   4.306   0.701   5.027  0.5904 -0.9760 -0.5545
 8759SOL    MW434810   4.308   0.787   5.040 -0.1956 -0.9967 -0.2566
 8760SOL     OW34811   0.568   6.285   5.846  0.0371 -0.8728  0.2037
 8760SOL    HW234812   0.616   6.326   5.918  0.1572 -0.2776 -0.2064
 8760SOL    HW334813   0.480   6.273   5.879  0.2806 -1.3003  0.7106
 8760SOL    MW434814   0.563   6.289   5.860  0.0850 -0.8506  0.2165
 8761SOL     OW34815   0.400   5.549   1.719  0.6968 -0.4028  0.3348
 8761SOL    HW234816   0.341   5.510   1.784  1.0617  0.0810  0.9747
 8761SOL    HW334817   0.463   5.480   1.700 -0.0786 -0.9274 -0.3660
 8761SOL    MW434818   0.401   5.535   1.725  0.6426 -0.4082  0.3268
 8762SOL     OW34819   3.771   2.660   5.758  0.3041 -0.0103 -0.1378
 8762SOL    HW234820   3.801   2.749   5.773 -1.9475  0.8006 -0.0520
 8762SOL    HW334821   3.817   2.632   5.679  0.5655  1.4694 -0.5422
 8762SOL    MW434822   3.781   2.668   5.750  0.0416  0.2919 -0.1798
 8763SOL     OW34823   5.069   4.794   2.986 -0.4709  0.4052 -0.4862
 8763SOL    HW234824   5.134   4.865   2.989 -2.0058  1.8794 -0.5578
 8763SOL    HW334825   5.031   4.800   2.898 -0.6110 -0.5495 -0.5022
 8763SOL    MW434826   5.073   4.804   2.975 -0.6919  0.4738 -0.4978
 8764SOL     OW34827   4.943   5.714   3.777 -0.1837  0.3334 -0.6485
 8764SOL    HW234828   4.946   5.734   3.683  0.2597  0.9364 -0.5113
 8764SOL    HW334829   4.852   5.688   3.793  0.0827 -1.2306 -1.5230
 8764SOL    MW434830   4.931   5.713   3.767 -0.0901  0.2066 -0.7458
 8765SOL     OW34831   5.144   3.607   0.939 -0.2582  0.4694 -0.4880
 8765SOL    HW234832   5.211   3.664   0.900  0.2535  2.0726  2.4446
 8765SOL    HW334833   5.064   3.660   0.939  0.0186  0.9395  1.5192
 8765SOL    MW434834   5.142   3.621   0.934 -0.1542  0.7429  0.1637
 8766SOL     OW34835   3.630   3.810   1.092 -0.0138 -0.2331 -0.1903
 8766SOL    HW234836   3.630   3.714   1.099 -0.6489 -0.1293  2.7091
 8766SOL    HW334837   3.588   3.839   1.173 -1.1996  2.4995 -1.6635
 8766SOL    MW434838   3.624   3.801   1.104 -0.2540  0.1411 -0.0022
 8767SOL     OW34839   6.110   1.460   2.159  0.1202 -0.0935 -0.0135
 8767SOL    HW234840   6.022   1.457   2.121  0.9055  0.9616 -2.0559
 8767SOL    HW334841   6.102   1.410   2.241 -2.0734 -1.0527 -0.7308
 8767SOL    MW434842   6.097   1.453   2.165 -0.0656 -0.0809 -0.3776
 8768SOL     OW34843   0.934   2.109   3.094 -0.2299  0.4355  0.4328
 8768SOL    HW234844   0.915   2.026   3.138 -1.6135 -1.0284 -2.6346
 8768SOL    HW334845   0.870   2.171   3.131 -2.2487 -1.0780 -0.3592
 8768SOL    MW434846   0.923   2.106   3.105 -0.6788  0.0427 -0.0764
 8769SOL     OW34847   2.605   1.999   3.058  0.5549 -0.5986 -0.2029
 8769SOL    HW234848   2.584   2.001   3.151  1.3806  2.2018  0.0121
 8769SOL    HW334849   2.662   1.923   3.047  0.7953 -0.7180  1.6604
 8769SOL    MW434850   2.610   1.989   3.069  0.6956 -0.2448  0.0713
 8770SOL     OW34851   5.692   2.619   2.311 -0.1554 -0.0050  0.1041
 8770SOL    HW234852   5.739   2.535   2.317  0.0262 -0.0274 -1.2627
 8770SOL    HW334853   5.732   2.673   2.379  0.6356 -0.6042  0.1403
 8770SOL    MW434854   5.704   2.615   2.321 -0.0270 -0.0870 -0.0715
 8771SOL     OW34855   3.763   2.435   5.928  0.6168 -0.0957  0.3260
 8771SOL    HW234856   3.766   2.515   5.876  1.8477 -1.1346 -1.2714
 8771SOL    HW334857   3.855   2.415   5.946  0.3207 -1.1369  0.7201
 8771SOL    MW434858   3.776   2.443   5.924  0.7402 -0.3701  0.1672
 8772SOL     OW34859   5.486   0.568   5.845  0.4166 -0.2951  0.1925
 8772SOL    HW234860   5.413   0.507   5.841  1.3541 -1.4648  0.1188
 8772SOL    HW334861   5.476   0.623   5.767 -1.5241  0.9776  1.2809
 8772SOL    MW434862   5.475   0.568   5.834  0.2842 -0.2815  0.3264
 8773SOL     OW34863   5.418   4.823   0.194 -0.1280  0.7282 -0.7048
 8773SOL    HW234864   5.354   4.781   0.252  3.0847 -2.1316  1.0739
 8773SOL    HW334865   5.417   4.915   0.222 -1.7951  0.3248  0.8046
 8773SOL    MW434866   5.409   4.830   0.205  0.0759  0.2976 -0.2710
 8774SOL     OW34867   4.897   6.137   2.963 -0.1730 -0.3723 -0.7983
 8774SOL    HW234868   4.924   6.196   2.893 -0.3563 -1.5743 -1.9316
 8774SOL    HW334869   4.813   6.102   2.933 -1.1440  0.4129  0.8662
 8774SOL    MW434870   4.889   6.140   2.950 -0.3253 -0.4273 -0.7282
 8775SOL     OW34871   2.721   4.151   0.304 -0.4454  0.1629  0.0732
 8775SOL    HW234872   2.697   4.237   0.271 -0.5447  0.3122  0.5203
 8775SOL    HW334873   2.817   4.150   0.299 -0.4418  0.3109  0.0923
 8775SOL    MW434874   2.730   4.162   0.299 -0.4580  0.2021  0.1347
 8776SOL     OW34875   4.613   3.439   3.865  0.2294 -0.2620 -0.3039
 8776SOL    HW234876   4.540   3.390   3.828  1.0563 -1.4458 -0.4196
 8776SOL    HW334877   4.647   3.492   3.792  2.0857 -2.8513 -1.4758
 8776SOL    MW434878   4.608   3.440   3.851  0.5834 -0.7598 -0.4738
 8777SOL     OW34879   4.539   3.761   2.009 -0.1408  0.1635 -0.3392
 8777SOL    HW234880   4.621   3.800   2.038  1.2814 -3.0214  0.4234
 8777SOL    HW334881   4.543   3.763   1.913  0.0329  1.4948 -0.3103
 8777SOL    MW434882   4.550   3.766   2.000  0.0698 -0.0811 -0.2348
 8778SOL     OW34883   0.078   0.063   0.992  0.7597 -0.3353 -0.3720
 8778SOL    HW234884   0.076   0.057   0.896  3.2902 -0.1065 -0.5020
 8778SOL    HW334885   0.148   0.125   1.010  0.1526 -0.1843  1.6525
 8778SOL    MW434886   0.087   0.070   0.981  1.0135 -0.2852 -0.1220
 8779SOL     OW34887   2.714   5.119   3.951 -0.6807 -0.4372  0.0987
 8779SOL    HW234888   2.619   5.114   3.942 -0.8791  1.9572  0.0569
 8779SOL    HW334889   2.729   5.204   3.992  1.5350  0.0895 -1.5981
 8779SOL    MW434890   2.704   5.130   3.955 -0.4146 -0.0518 -0.1307
 8780SOL     OW34891   2.786   3.153   0.488 -0.6251 -0.4999 -0.2308
 8780SOL    HW234892   2.792   3.218   0.558 -1.8482  1.3186 -1.7418
 8780SOL    HW334893   2.874   3.116   0.482  0.1736  1.1774  0.5205
 8780SOL    MW434894   2.799   3.157   0.497 -0.6811 -0.0387 -0.3311
 8781SOL     OW34895   4.943   3.187   5.888 -0.6628  0.0639  0.1988
 8781SOL    HW234896   4.854   3.164   5.916 -1.1342  0.7410 -0.6954
 8781SOL    HW334897   4.983   3.225   5.966 -1.0703 -0.4443  0.6733
 8781SOL    MW434898   4.936   3.189   5.902 -0.7787  0.0862  0.1434
 8782SOL     OW34899   0.738   2.225   1.451 -0.7329  0.4393  0.3663
 8782SOL    HW234900   0.828   2.212   1.479  0.1593  1.1617 -1.9142
 8782SOL    HW334901   0.717   2.146   1.400 -1.1639  0.5398  0.3850
 8782SOL    MW434902   0.747   2.213   1.448 -0.6721  0.5479  0.0679
 8783SOL     OW34903   3.844   1.973   5.374  0.0801 -0.2459 -0.3082
 8783SOL    HW234904   3.904   2.039   5.340  3.5606 -3.0903 -0.3016
 8783SOL    HW334905   3.833   1.911   5.301 -0.0874 -1.5175  0.7550
 8783SOL    MW434906   3.851   1.973   5.360  0.5172 -0.7890 -0.1671
 8784SOL     OW34907   4.420   6.190   6.194 -0.4415  0.1446  0.7035
 8784SOL    HW234908   4.363   6.267   6.187 -2.2423 -1.1443  0.7065
 8784SOL    HW334909   4.364   6.121   6.230  0.7102 -1.5948 -0.6521
 8784SOL    MW434910   4.405   6.191   6.197 -0.5271 -0.2550  0.5250
 8785SOL     OW34911   4.778   5.344   4.919 -0.7523  0.2758 -0.3994
 8785SOL    HW234912   4.699   5.309   4.958 -0.6511 -0.5315 -0.8967
 8785SOL    HW334913   4.795   5.425   4.967 -3.2067  1.7804 -1.8411
 8785SOL    MW434914   4.770   5.350   4.930 -1.0628  0.3678 -0.6552
 8786SOL     OW34915   1.285   0.847   3.651 -0.5051  0.1770 -0.2906
 8786SOL    HW234916   1.277   0.924   3.707 -2.4230 -0.6240  0.6334
 8786SOL    HW334917   1.377   0.821   3.658 -0.5790  0.3790  2.1233
 8786SOL    MW434918   1.296   0.854   3.659 -0.7679  0.0979  0.1498
 8787SOL     OW34919   3.764   1.322   2.132  0.1812 -0.0312 -0.3834
 8787SOL    HW234920   3.853   1.288   2.131 -0.4004 -1.8759  1.9170
 8787SOL    HW334921   3.768   1.398   2.189  0.1907 -0.5091  0.2664
 8787SOL    MW434922   3.776   1.327   2.140  0.1057 -0.3376  0.0058
 8788SOL     OW34923   3.694   1.473   2.925  0.3012  0.9275  0.1100
 8788SOL    HW234924   3.663   1.562   2.914 -1.9410 -0.0081 -2.2525
 8788SOL    HW334925   3.614   1.421   2.936  1.5734 -0.7676  2.1294
 8788SOL    MW434926   3.679   1.477   2.925  0.1732  0.5804  0.0647
 8789SOL     OW34927   6.269   3.406   0.076  0.3712 -0.0285 -0.1565
 8789SOL    HW234928   6.231   3.395   0.163  1.6533  1.8529  0.6902
 8789SOL    HW334929   6.363   3.414   0.091  0.7048 -0.4054 -1.8049
 8789SOL    MW434930   6.276   3.405   0.089  0.5844  0.1700 -0.2623
 8790SOL     OW34931   5.909   1.916   4.187 -0.4542 -0.1991  1.1738
 8790SOL    HW234932   5.932   1.862   4.111 -0.5059  2.4063 -0.8636
 8790SOL    HW334933   5.826   1.879   4.218 -1.7390  0.0399 -1.6380
 8790SOL    MW434934   5.901   1.904   4.181 -0.6305  0.1762  0.5340
 8791SOL     OW34935   3.217   4.046   2.863 -0.4512  0.2796  0.4207
 8791SOL    HW234936   3.258   4.072   2.781  0.6425 -0.2585  0.7857
 8791SOL    HW334937   3.289   4.018   2.920 -1.2070  0.4047  1.4864
 8791SOL    MW434938   3.232   4.046   2.860 -0.4066  0.2251  0.6095
 8792SOL     OW34939   0.931   5.064   2.384 -0.0352 -0.5274  0.1381
 8792SOL    HW234940   0.952   5.157   2.390  0.9089 -0.7365  0.2315
 8792SOL    HW334941   0.874   5.047   2.459  1.0356 -0.3411  1.0155
 8792SOL    MW434942   0.926   5.074   2.394  0.2306 -0.5304  0.2662
 8793SOL     OW34943   3.633   0.760   0.189 -0.2936  0.3884  0.1663
 8793SOL    HW234944   3.676   0.693   0.136 -2.1315 -1.6913  1.1190
 8793SOL    HW334945   3.636   0.726   0.278 -3.2991  0.3621  0.3637
 8793SOL    MW434946   3.639   0.747   0.194 -0.9326  0.1106  0.3180
 8794SOL     OW34947   0.552   3.253   4.136 -0.0354 -0.5906 -0.4714
 8794SOL    HW234948   0.526   3.332   4.089  1.7252  0.0919 -0.3487
 8794SOL    HW334949   0.526   3.269   4.227  3.9443  1.7495  0.4735
 8794SOL    MW434950   0.545   3.265   4.142  0.7220 -0.1918 -0.3306
 8795SOL     OW34951   3.812   3.960   5.307  0.3682  0.0062 -0.0228
 8795SOL    HW234952   3.736   3.930   5.257 -0.2044  2.6802 -0.9453
 8795SOL    HW334953   3.883   3.961   5.243  0.7021 -0.6290  0.3346
 8795SOL    MW434954   3.811   3.956   5.292  0.3367  0.2752 -0.0973
 8796SOL     OW34955   1.588   1.640   3.579  0.0961 -0.0144  0.0446
 8796SOL    HW234956   1.635   1.577   3.525  0.6504  0.3180  0.1413
 8796SOL    HW334957   1.513   1.591   3.613  0.8573 -0.7909  0.6131
 8796SOL    MW434958   1.584   1.625   3.576  0.2697 -0.0730  0.1324
 8797SOL     OW34959   6.242   0.953   5.271 -0.1705  0.2252  0.2471
 8797SOL    HW234960   6.183   1.026   5.292 -1.4126 -0.6952  0.0886
 8797SOL    HW334961   6.197   0.905   5.201  0.9045 -0.3670 -0.0617
 8797SOL    MW434962   6.228   0.956   5.264 -0.1925  0.0256  0.1854
 8798SOL     OW34963   0.561   2.446   5.250 -0.0756  0.4316  0.1899
 8798SOL    HW234964   0.629   2.382   5.273  0.3310  0.3778 -1.0730
 8798SOL    HW334965   0.503   2.447   5.326  0.0419 -1.2619  0.3509
 8798SOL    MW434966   0.563   2.437   5.263 -0.0064  0.2011  0.0445
 8799SOL     OW34967   1.733   3.574   4.882  0.5826 -0.8025  0.0329
 8799SOL    HW234968   1.810   3.588   4.937  1.2310 -0.5978 -0.8963
 8799SOL    HW334969   1.718   3.480   4.885 -1.4530 -0.5271  3.2192
 8799SOL    MW434970   1.741   3.564   4.890  0.3996 -0.7392  0.3307
 8800SOL     OW34971   5.706   4.864   0.270  0.0556 -0.0414  0.2404
 8800SOL    HW234972   5.674   4.907   0.349  0.1634 -1.1596  0.9143
 8800SOL    HW334973   5.640   4.797   0.251 -1.7520  2.3294 -2.5823
 8800SOL    MW434974   5.693   4.861   0.278 -0.1687  0.1239 -0.0431
 8801SOL     OW34975   1.153   1.067   5.808  0.1849 -0.1224 -0.1425
 8801SOL    HW234976   1.086   1.053   5.741  1.2290  0.6523 -1.4018
 8801SOL    HW334977   1.109   1.046   5.890 -1.8680  1.1709 -0.8320
 8801SOL    MW434978   1.138   1.062   5.810  0.0518  0.1504 -0.3996
 8802SOL     OW34979   3.833   2.629   2.334 -0.1398 -0.5119 -0.4382
 8802SOL    HW234980   3.864   2.585   2.255 -0.4301  0.5204 -1.1484
 8802SOL    HW334981   3.739   2.612   2.336 -0.5096  1.2064 -1.4959
 8802SOL    MW434982   3.825   2.621   2.324 -0.2269 -0.1490 -0.6715
 8803SOL     OW34983   4.664   0.469   4.074 -0.2650  0.1342  0.3013
 8803SOL    HW234984   4.696   0.383   4.101  0.4616  0.5333  0.7339
 8803SOL    HW334985   4.569   0.461   4.076 -0.2101 -0.3780  1.2994
 8803SOL    MW434986   4.656   0.457   4.078 -0.1619  0.1193  0.4901
 8804SOL     OW34987   1.665   5.538   6.368 -0.0952  0.4448 -0.1459
 8804SOL    HW234988   1.585   5.559   6.416 -0.0389  1.6997 -0.5672
 8804SOL    HW334989   1.719   5.617   6.375  2.2100 -1.1990  2.2013
 8804SOL    MW434990   1.661   5.551   6.375  0.2164  0.3935  0.1082
 8805SOL     OW34991   2.045   1.672   5.625  0.3729  0.1923  0.9447
 8805SOL    HW234992   1.989   1.645   5.552  0.4344 -0.4938  1.1412
 8805SOL    HW334993   2.032   1.766   5.631 -0.2960  0.1330  0.5954
 8805SOL    MW434994   2.036   1.681   5.616  0.2928  0.0939  0.9246
 8806SOL     OW34995   3.410   0.731   0.029  0.5734 -0.2598 -0.1291
 8806SOL    HW234996   3.353   0.673   0.080  0.4674  0.6786  0.8616
 8806SOL    HW334997   3.483   0.750   0.088  1.4893 -0.7522 -1.0710
 8806SOL    MW434998   3.412   0.726   0.044  0.6803 -0.2010 -0.1227
 8807SOL     OW34999   0.267   5.549   2.864  0.1802  0.3547 -0.2121
 8807SOL    HW235000   0.249   5.510   2.950  3.6618  0.2925  0.6609
 8807SOL    HW335001   0.304   5.635   2.884 -2.8768  2.2423 -1.9321
 8807SOL    MW435002   0.270   5.555   2.878  0.2362  0.5955 -0.3238
 8808SOL     OW35003   3.831   6.355   1.655  0.3522 -0.3335  0.4165
 8808SOL    HW235004   3.794   6.318   1.575 -0.4337  2.3879 -0.5864
 8808SOL    HW335005   3.925   6.365   1.636  1.2377 -4.3311  1.8138
 8808SOL    MW435006   3.839   6.352   1.642  0.3653 -0.5019  0.4685
 8809SOL     OW35007   0.593   3.368   0.645 -0.4809  0.5596  0.1143
 8809SOL    HW235008   0.634   3.366   0.558 -1.2841  2.2206 -0.3578
 8809SOL    HW335009   0.656   3.325   0.703  0.0751 -0.5765 -1.2817
 8809SOL    MW435010   0.607   3.362   0.641 -0.5136  0.6289 -0.1321
 8810SOL     OW35011   4.906   4.263   0.510  0.5556 -0.2958  0.0223
 8810SOL    HW235012   4.836   4.324   0.533  1.6029  0.8820  0.2410
 8810SOL    HW335013   4.861   4.183   0.482 -0.8376  0.0881  1.0702
 8810SOL    MW435014   4.891   4.261   0.509  0.5100 -0.0897  0.1894
 8811SOL     OW35015   1.304   4.910   3.092 -0.0913 -0.1462 -0.0671
 8811SOL    HW235016   1.294   4.938   3.183 -0.9529 -0.1342 -0.1562
 8811SOL    HW335017   1.247   4.834   3.083  2.3122 -2.1025  0.1974
 8811SOL    MW435018   1.295   4.904   3.103  0.1121 -0.4027 -0.0440
 8812SOL     OW35019   4.750   1.992   4.593  0.3095 -0.0671 -0.1083
 8812SOL    HW235020   4.743   1.896   4.587  0.4304 -0.1633  1.0849
 8812SOL    HW335021   4.662   2.024   4.576 -0.1144 -0.5022  1.1500
 8812SOL    MW435022   4.738   1.983   4.590  0.2695 -0.1372  0.2152
 8813SOL     OW35023   6.298   3.886   2.493  0.0440  0.1713 -0.1996
 8813SOL    HW235024   6.251   3.917   2.569  0.3839 -1.8066  0.9019
 8813SOL    HW335025   6.390   3.889   2.518  0.2865  1.0028 -1.1394
 8813SOL    MW435026   6.304   3.890   2.506  0.1209  0.0201 -0.1783
 8814SOL     OW35027   2.365   2.278   5.137 -0.3167 -0.0698  0.4051
 8814SOL    HW235028   2.272   2.256   5.133 -0.4043  0.4100 -1.0796
 8814SOL    HW335029   2.403   2.235   5.060  1.0332 -1.5969  1.8498
 8814SOL    MW435030   2.358   2.270   5.126 -0.1502 -0.2080  0.3998
 8815SOL     OW35031   1.683   6.170   0.204 -0.4378 -0.1925 -0.1872
 8815SOL    HW235032   1.676   6.265   0.190  0.1260 -0.0465  0.4386
 8815SOL    HW335033   1.742   6.162   0.279  0.5648 -1.0837 -1.0485
 8815SOL    MW435034   1.690   6.182   0.212 -0.2311 -0.2908 -0.2183
 8816SOL     OW35035   2.190   1.401   5.249 -0.3309  0.2430  0.2654
 8816SOL    HW235036   2.225   1.378   5.163 -1.5688 -1.8581  0.2716
 8816SOL    HW335037   2.241   1.348   5.311  0.6701  1.8613  0.9171
 8816SOL    MW435038   2.201   1.391   5.246 -0.3622  0.1793  0.3522
 8817SOL     OW35039   4.598   2.017   5.436 -0.6759  0.2204  0.2239
 8817SOL    HW235040   4.600   2.112   5.442  2.6917  0.1713  1.6938
 8817SOL    HW335041   4.573   1.988   5.523 -0.7217 -0.2503  0.0580
 8817SOL    MW435042   4.595   2.025   5.448 -0.2377  0.1518  0.3959
 8818SOL     OW35043   5.995   5.955   5.292 -0.1517  0.1243  0.6731
 8818SOL    HW235044   5.981   5.938   5.386 -2.2689  0.6863  0.5194
 8818SOL    HW335045   6.037   6.041   5.289  0.6974 -0.2637  1.1141
 8818SOL    MW435046   5.998   5.964   5.304 -0.3190  0.1473  0.7110
 8819SOL     OW35047   3.122   2.811   1.887  0.0847  0.0994  0.2273
 8819SOL    HW235048   3.185   2.835   1.955  0.1100  1.4426 -0.2374
 8819SOL    HW335049   3.095   2.722   1.910  1.5413 -0.2158  0.8884
 8819SOL    MW435050   3.127   2.802   1.899  0.2802  0.2351  0.2532
 8820SOL     OW35051   4.811   2.371   5.387  0.3782  0.0573 -0.1371
 8820SOL    HW235052   4.846   2.284   5.403 -0.5888 -0.5811 -1.3601
 8820SOL    HW335053   4.827   2.387   5.294 -0.9048  0.4903 -0.3076
 8820SOL    MW435054   4.817   2.362   5.377  0.0814  0.0302 -0.3209
 8821SOL     OW35055   3.700   5.213   4.277  0.5855 -0.6004 -0.2110
 8821SOL    HW235056   3.795   5.198   4.274  0.5125 -0.9599 -0.9866
 8821SOL    HW335057   3.664   5.128   4.303  0.3945 -0.8650 -1.2818
 8821SOL    MW435058   3.708   5.200   4.280  0.5507 -0.6828 -0.4546
 8822SOL     OW35059   3.680   4.871   5.679 -0.9077  0.0693  0.5314
 8822SOL    HW235060   3.751   4.860   5.742 -1.4349  0.2688  1.1787
 8822SOL    HW335061   3.601   4.848   5.728 -1.5404  2.1265  0.5481
 8822SOL    MW435062   3.679   4.866   5.694 -1.0607  0.3670  0.6190
 8823SOL     OW35063   3.728   6.204   5.844  0.2652 -0.0781  0.7461
 8823SOL    HW235064   3.813   6.239   5.873 -0.2075  0.1746  1.8521
 8823SOL    HW335065   3.706   6.137   5.909 -0.3617 -0.1963  0.4196
 8823SOL    MW435066   3.737   6.200   5.856  0.1202 -0.0604  0.8489
 8824SOL     OW35067   4.742   0.156   3.497 -0.2007  0.0968  0.0937
 8824SOL    HW235068   4.693   0.224   3.542  1.4100 -0.2334  2.5264
 8824SOL    HW335069   4.688   0.077   3.507 -0.7601  0.4130 -0.3200
 8824SOL    MW435070   4.728   0.155   3.504 -0.0620  0.0950  0.3601
 8825SOL     OW35071   3.833   2.663   0.216  0.0015 -0.0281 -0.0574
 8825SOL    HW235072   3.779   2.643   0.292  0.7832  0.9231  0.7682
 8825SOL    HW335073   3.919   2.626   0.237  0.6112  1.4461  0.1596
 8825SOL    MW435074   3.837   2.655   0.229  0.1851  0.2919  0.0802
 8826SOL     OW35075   2.713   0.504   0.628  0.0658 -0.0618 -0.0750
 8826SOL    HW235076   2.736   0.461   0.546 -1.0588  0.6320 -0.7774
 8826SOL    HW335077   2.633   0.462   0.657  0.4659 -0.3197  0.6995
 8826SOL    MW435078   2.706   0.493   0.621 -0.0298 -0.0043 -0.0655
 8827SOL     OW35079   3.900   5.141   3.112 -0.0740 -0.2698  0.2642
 8827SOL    HW235080   3.925   5.167   3.201 -2.0656  1.6153  0.3562
 8827SOL    HW335081   3.942   5.206   3.056 -0.1178 -0.5050 -0.0434
 8827SOL    MW435082   3.909   5.153   3.116 -0.3425 -0.0521  0.2358
 8828SOL     OW35083   5.817   2.454   1.187  0.9381 -0.9566  0.2044
 8828SOL    HW235084   5.861   2.388   1.134 -0.0510 -0.2864 -1.5295
 8828SOL    HW335085   5.879   2.526   1.193  1.9922 -1.9553  2.0421
 8828SOL    MW435086   5.831   2.455   1.181  0.9466 -0.9999  0.2181
 8829SOL     OW35087   3.439   3.958   3.326 -0.0796 -0.6614 -0.2416
 8829SOL    HW235088   3.446   3.988   3.417  1.7154  0.8947 -0.8205
 8829SOL    HW335089   3.477   3.870   3.327 -2.6557 -1.8902  0.9446
 8829SOL    MW435090   3.445   3.950   3.338 -0.1826 -0.6182 -0.1615
 8830SOL     OW35091   3.310   6.274   4.821 -0.1856  0.7379 -0.4828
 8830SOL    HW235092   3.238   6.266   4.883  1.8623  0.8485  2.0885
 8830SOL    HW335093   3.269   6.301   4.739 -2.8176  3.4524  1.5289
 8830SOL    MW435094   3.295   6.277   4.818 -0.2627  1.1106  0.1219
 8831SOL     OW35095   3.436   6.146   0.729 -0.0290 -0.1784 -0.2269
 8831SOL    HW235096   3.479   6.226   0.760  0.4828  0.4019 -2.2822
 8831SOL    HW335097   3.494   6.114   0.659 -0.0180 -2.5845  0.8116
 8831SOL    MW435098   3.450   6.152   0.724  0.0399 -0.4193 -0.3611
 8832SOL     OW35099   3.244   4.785   0.450  0.2429 -0.7985 -0.2160
 8832SOL    HW235100   3.257   4.853   0.516  0.5901 -1.3895  0.3424
 8832SOL    HW335101   3.153   4.757   0.463  1.0033 -2.7082  1.8293
 8832SOL    MW435102   3.233   4.790   0.461  0.3891 -1.1285  0.1275
 8833SOL     OW35103   4.802   0.763   1.144  0.3277 -0.3589 -0.0552
 8833SOL    HW235104   4.872   0.790   1.203 -1.9512  1.2091  2.1656
 8833SOL    HW335105   4.797   0.668   1.153  0.9769 -0.2879  1.2152
 8833SOL    MW435106   4.810   0.754   1.153  0.1127 -0.1427  0.4054
 8834SOL     OW35107   4.295   1.426   5.053 -0.6471 -0.0159  0.2550
 8834SOL    HW235108   4.216   1.396   5.097 -0.7891 -0.4353 -0.2736
 8834SOL    HW335109   4.302   1.518   5.076 -1.7633  0.2429 -0.3752
 8834SOL    MW435110   4.285   1.434   5.062 -0.8131 -0.0371  0.1021
 8835SOL     OW35111   3.788   0.124   6.099  0.1897 -0.4535 -0.1372
 8835SOL    HW235112   3.734   0.153   6.172 -0.3087 -2.0546  0.1546
 8835SOL    HW335113   3.867   0.088   6.139  0.9894  0.7814 -0.5171
 8835SOL    MW435114   3.791   0.123   6.114  0.2294 -0.5018 -0.1488
 8836SOL     OW35115   1.705   6.396   3.926 -0.5558 -0.8487 -0.0463
 8836SOL    HW235116   1.687   6.340   4.002 -0.3857 -1.7697 -0.6666
 8836SOL    HW335117   1.795   6.425   3.939 -1.0543  0.3477  0.9268
 8836SOL    MW435118   1.714   6.392   3.938 -0.5991 -0.8124  0.0003
 8837SOL     OW35119   0.551   0.731   1.196  0.0502  0.7445  0.0505
 8837SOL    HW235120   0.623   0.731   1.134  0.0423 -1.7274 -0.0474
 8837SOL    HW335121   0.592   0.750   1.280  1.0053 -1.3411  0.1179
 8837SOL    MW435122   0.566   0.734   1.199  0.1752  0.1432  0.0465
 8838SOL     OW35123   2.503   0.744   4.573 -0.3857  0.4971 -0.0557
 8838SOL    HW235124   2.510   0.703   4.659 -1.0870  1.7160  0.6018
 8838SOL    HW335125   2.581   0.798   4.565 -1.0872  1.6235  0.5077
 8838SOL    MW435126   2.514   0.746   4.583 -0.5708  0.8065  0.1054
 8839SOL     OW35127   5.165   5.333   4.499  0.2109  0.4554 -0.7858
 8839SOL    HW235128   5.196   5.277   4.428 -1.6622 -1.3606 -0.2761
 8839SOL    HW335129   5.129   5.410   4.456 -0.7209 -0.5310 -1.8123
 8839SOL    MW435130   5.165   5.336   4.484 -0.1592  0.0857 -0.8539
 8840SOL     OW35131   0.691   5.817   3.560 -0.0676 -0.2648  0.0934
 8840SOL    HW235132   0.705   5.767   3.640 -0.2818 -0.0596  0.2600
 8840SOL    HW335133   0.613   5.777   3.520  0.0849 -0.4181 -0.0537
 8840SOL    MW435134   0.683   5.805   3.565 -0.0757 -0.2580  0.0960
 8841SOL     OW35135   6.390   5.642   6.202 -0.3059  0.7552 -0.0277
 8841SOL    HW235136   6.322   5.708   6.216 -0.0414  1.2957 -1.2097
 8841SOL    HW335137   6.472   5.691   6.211 -0.0030 -0.0541  2.2434
 8841SOL    MW435138   6.392   5.657   6.205 -0.2310  0.7197  0.1160
 8842SOL     OW35139   0.196   5.982   0.020  0.3703  0.0772  0.1004
 8842SOL    HW235140   0.214   5.913   0.083 -0.1701  1.8405  2.3141
 8842SOL    HW335141   0.101   5.997   0.026  0.4387  0.8525 -0.4860
 8842SOL    MW435142   0.186   5.975   0.029  0.3080  0.4122  0.3151
 8843SOL     OW35143   5.760   6.340   4.963  0.3710 -0.1464 -0.5586
 8843SOL    HW235144   5.732   6.271   5.024  0.0842 -0.8581 -1.4596
 8843SOL    HW335145   5.737   6.422   5.007 -0.1861 -0.6514  0.1183
 8843SOL    MW435146   5.753   6.341   4.977  0.2596 -0.3070 -0.5882
 8844SOL     OW35147   0.343   5.720   1.262  0.3923 -0.3371 -0.3152
 8844SOL    HW235148   0.382   5.632   1.262  0.2883 -0.3909 -0.9806
 8844SOL    HW335149   0.364   5.756   1.348 -0.9472 -1.6364  0.6144
 8844SOL    MW435150   0.351   5.713   1.273  0.2018 -0.5156 -0.2803
 8845SOL     OW35151   1.887   0.970   0.650  0.6191  0.1863 -0.2725
 8845SOL    HW235152   1.895   0.876   0.632  0.5673 -0.1047  1.0983
 8845SOL    HW335153   1.808   0.997   0.604 -0.3086 -0.8237  0.6727
 8845SOL    MW435154   1.878   0.961   0.642  0.4899  0.0146  0.0331
 8846SOL     OW35155   1.829   1.357   5.269 -0.5775 -0.0675  0.1567
 8846SOL    HW235156   1.818   1.319   5.182  0.5496  0.7980 -0.3860
 8846SOL    HW335157   1.759   1.318   5.321  0.3482 -2.6530 -0.4105
 8846SOL    MW435158   1.818   1.347   5.264 -0.3066 -0.2945  0.0103
 8847SOL     OW35159   5.142   4.918   0.985 -0.0689  0.6397  0.1347
 8847SOL    HW235160   5.132   5.009   1.014 -0.4141  0.3005  1.1525
 8847SOL    HW335161   5.229   4.893   1.014  0.3389  0.8851 -0.8594
 8847SOL    MW435162   5.152   4.927   0.993 -0.0606  0.6273  0.1379
 8848SOL     OW35163   4.651   3.626   3.658 -0.3143 -0.2518 -0.0857
 8848SOL    HW235164   4.714   3.584   3.599 -0.7084 -1.4460  0.3173
 8848SOL    HW335165   4.703   3.694   3.703  0.7652 -1.3399  0.3824
 8848SOL    MW435166   4.666   3.629   3.657 -0.2239 -0.5529  0.0292
 8849SOL     OW35167   3.558   6.005   1.120  0.0762 -0.1290 -0.3156
 8849SOL    HW235168   3.518   6.004   1.207  0.7514  0.6057  0.0172
 8849SOL    HW335169   3.644   5.965   1.133  0.9643  1.6856 -0.2114
 8849SOL    MW435170   3.564   6.000   1.133  0.2825  0.2074 -0.2580
 8850SOL     OW35171   4.930   5.769   3.503  0.3657 -0.2299  0.3840
 8850SOL    HW235172   4.944   5.864   3.500  0.8870 -0.3063  0.3283
 8850SOL    HW335173   4.935   5.741   3.412  0.5060 -0.3478  0.4270
 8850SOL    MW435174   4.933   5.778   3.491  0.4530 -0.2555  0.3823
 8851SOL     OW35175   3.636   4.731   0.502 -0.2545  0.6627 -0.3487
 8851SOL    HW235176   3.614   4.824   0.492  0.2086  0.8959  0.6069
 8851SOL    HW335177   3.648   4.721   0.597 -1.4639 -0.6376 -0.3089
 8851SOL    MW435178   3.635   4.742   0.513 -0.3530  0.5219 -0.2174
 8852SOL     OW35179   4.175   5.790   1.998 -0.3349 -0.5940  0.3754
 8852SOL    HW235180   4.243   5.775   1.932 -0.0148 -1.2923  0.8495
 8852SOL    HW335181   4.181   5.883   2.018 -1.1309 -0.1297 -1.3290
 8852SOL    MW435182   4.185   5.800   1.992 -0.3977 -0.6249  0.2131
 8853SOL     OW35183   2.289   2.029   2.015  0.2103 -0.1399  0.2762
 8853SOL    HW235184   2.250   2.008   2.100  0.4163  0.5041  0.5376
 8853SOL    HW335185   2.236   2.102   1.981  1.2850  0.9005  0.7375
 8853SOL    MW435186   2.277   2.036   2.022  0.3792  0.0824  0.3716
 8854SOL     OW35187   0.810   2.353   0.715  0.0136 -0.0821 -0.2382
 8854SOL    HW235188   0.875   2.412   0.677 -1.1543 -0.1515 -2.5153
 8854SOL    HW335189   0.860   2.295   0.772  1.3114  2.5584  1.4884
 8854SOL    MW435190   0.825   2.353   0.717  0.0308  0.2572 -0.3108
 8855SOL     OW35191   0.570   0.889   2.348 -0.3844 -0.0728  0.0796
 8855SOL    HW235192   0.474   0.891   2.344 -0.4080 -1.0381  0.1176
 8855SOL    HW335193   0.591   0.805   2.388  0.5077 -0.2684 -0.7700
 8855SOL    MW435194   0.560   0.878   2.353 -0.2698 -0.2260 -0.0275
 8856SOL     OW35195   4.244   1.866   3.787  0.2352  0.0243 -0.5749
 8856SOL    HW235196   4.217   1.951   3.823 -0.4633 -0.8974  1.2545
 8856SOL    HW335197   4.162   1.816   3.783  0.8357 -1.0002 -0.2653
 8856SOL    MW435198   4.229   1.871   3.791  0.2223 -0.2325 -0.2927
 8857SOL     OW35199   2.877   6.210   2.589  0.2557  0.1250  0.4568
 8857SOL    HW235200   2.940   6.232   2.658  0.7128 -2.5130  0.9890
 8857SOL    HW335201   2.812   6.155   2.632 -0.0127 -0.7367 -0.9902
 8857SOL    MW435202   2.877   6.206   2.604  0.2806 -0.3367  0.3361
 8858SOL     OW35203   3.578   1.743   5.472 -0.2924 -0.3416 -0.3705
 8858SOL    HW235204   3.671   1.730   5.489 -0.5671 -0.1678  1.4181
 8858SOL    HW335205   3.555   1.673   5.411  0.3102 -2.4950  1.7481
 8858SOL    MW435206   3.587   1.732   5.466 -0.2492 -0.6028  0.1450
 8859SOL     OW35207   2.147   1.278   0.963 -0.1794 -0.5204  0.0295
 8859SOL    HW235208   2.078   1.245   1.020  0.7147 -1.1412  0.7807
 8859SOL    HW335209   2.154   1.212   0.894 -2.2997  0.9569 -1.7412
 8859SOL    MW435210   2.139   1.265   0.961 -0.3412 -0.4074 -0.1050
 8860SOL     OW35211   6.046   5.418   2.254  0.1377  0.6326  0.0736
 8860SOL    HW235212   6.019   5.502   2.292  0.2247  0.7822 -0.1943
 8860SOL    HW335213   6.125   5.439   2.204 -0.2539  0.5349 -0.5943
 8860SOL    MW435214   6.053   5.432   2.252  0.0975  0.6395 -0.0499
 8861SOL     OW35215   4.377   5.219   0.440  0.2268 -0.1809 -0.0271
 8861SOL    HW235216   4.362   5.222   0.346  1.6172  1.3424 -0.2418
 8861SOL    HW335217   4.379   5.311   0.468  0.1236 -0.5890  1.4459
 8861SOL    MW435218   4.375   5.231   0.432  0.3966 -0.0338  0.1389
 8862SOL     OW35219   5.255   3.888   2.598  0.2028 -0.3303  0.4089
 8862SOL    HW235220   5.244   3.983   2.593  0.6829 -0.2379  1.0119
 8862SOL    HW335221   5.165   3.853   2.597  0.0036  0.1646  0.8444
 8862SOL    MW435222   5.241   3.896   2.597  0.2399 -0.2528  0.5459
 8863SOL     OW35223   3.825   3.301   1.677 -0.4610 -0.3514 -0.0267
 8863SOL    HW235224   3.832   3.392   1.704 -1.4114 -0.3603  0.3182
 8863SOL    HW335225   3.904   3.284   1.626 -1.7545  1.6443 -3.0049
 8863SOL    MW435226   3.836   3.311   1.674 -0.7571 -0.0893 -0.3741
 8864SOL     OW35227   4.971   2.170   3.076 -0.3895  0.3691 -0.0249
 8864SOL    HW235228   4.949   2.261   3.055  0.8686  0.4134 -1.2932
 8864SOL    HW335229   4.996   2.172   3.168 -0.7763  1.2338  0.0723
 8864SOL    MW435230   4.971   2.182   3.085 -0.2745  0.4890 -0.1794
 8865SOL     OW35231   3.636   5.943   4.494  0.6785  0.2392  0.2523
 8865SOL    HW235232   3.563   5.970   4.550 -0.0520  0.2147 -0.6694
 8865SOL    HW335233   3.687   5.884   4.549 -0.1145  0.0736  0.8384
 8865SOL    MW435234   3.633   5.939   4.509  0.4775  0.2141  0.2080
 8866SOL     OW35235   0.138   4.711   6.066 -0.4381  1.2048  0.3807
 8866SOL    HW235236   0.087   4.638   6.102  0.5146  1.1090  1.6080
 8866SOL    HW335237   0.121   4.708   5.972 -1.2347  0.0382  0.5396
 8866SOL    MW435238   0.129   4.701   6.058 -0.4175  1.0382  0.5636
 8867SOL     OW35239   1.411   6.153   5.960 -0.4952 -0.0253  0.0299
 8867SOL    HW235240   1.335   6.144   6.017 -0.5151 -1.2111 -0.1754
 8867SOL    HW335241   1.379   6.202   5.884 -0.8422  0.1983  0.3219
 8867SOL    MW435242   1.397   6.159   5.957 -0.5436 -0.1523  0.0414
 8868SOL     OW35243   2.441   5.268   2.953 -0.1011  0.3055 -0.0603
 8868SOL    HW235244   2.432   5.284   3.047 -1.4452 -0.6617 -0.0018
 8868SOL    HW335245   2.381   5.196   2.934  1.3852 -0.6509 -1.3740
 8868SOL    MW435246   2.432   5.261   2.963 -0.0823  0.0517 -0.2259
 8869SOL     OW35247   2.881   2.026   3.393 -0.3681 -0.2867 -0.3666
 8869SOL    HW235248   2.872   2.087   3.320  1.1435  0.5996  0.1370
 8869SOL    HW335249   2.862   1.940   3.355  1.7844 -0.0550 -2.1966
 8869SOL    MW435250   2.878   2.023   3.378  0.1153 -0.1392 -0.5416
 8870SOL     OW35251   1.590   0.744   0.018  0.4021 -0.0070  0.6465
 8870SOL    HW235252   1.547   0.811  -0.037 -1.1706 -0.8559  0.7821
 8870SOL    HW335253   1.668   0.720  -0.032  0.1982  0.8473 -0.1332
 8870SOL    MW435254   1.595   0.750   0.004  0.1677 -0.0063  0.5615
 8871SOL     OW35255   5.899   3.981   1.730  0.2210  0.3275 -0.8195
 8871SOL    HW235256   5.931   3.908   1.783  2.1544  1.4780 -0.2935
 8871SOL    HW335257   5.870   3.941   1.648 -1.2463 -1.2955  0.4038
 8871SOL    MW435258   5.899   3.966   1.726  0.2825  0.2651 -0.5887
 8872SOL     OW35259   5.274   0.097   5.222 -0.3494 -0.6215 -0.1974
 8872SOL    HW235260   5.222   0.169   5.259 -0.8759 -1.0540 -0.0776
 8872SOL    HW335261   5.279   0.032   5.292  0.6682 -0.4313 -0.0914
 8872SOL    MW435262   5.268   0.098   5.236 -0.2846 -0.6535 -0.1676
 8873SOL     OW35263   1.333   5.639   5.699  0.5045  0.1151  0.2933
 8873SOL    HW235264   1.306   5.670   5.612  1.7078  0.6741  0.1071
 8873SOL    HW335265   1.251   5.636   5.749 -0.0912  0.5688 -0.6169
 8873SOL    MW435266   1.318   5.643   5.694  0.5847  0.2487  0.1487
 8874SOL     OW35267   2.659   5.235   2.771 -0.5255 -0.2017  0.3735
 8874SOL    HW235268   2.722   5.197   2.831 -0.9611 -1.6524 -0.0489
 8874SOL    HW335269   2.574   5.227   2.815 -0.6094  0.4545  0.3494
 8874SOL    MW435270   2.656   5.229   2.785 -0.5940 -0.3065  0.3146
 8875SOL     OW35271   3.937   0.066   2.371  0.0976  0.4262  0.2596
 8875SOL    HW235272   3.854   0.110   2.385 -0.9345 -0.3035 -2.8231
 8875SOL    HW335273   3.933  -0.011   2.428 -0.6191  1.2221  1.3155
 8875SOL    MW435274   3.926   0.061   2.381 -0.1331  0.4350 -0.0078
 8876SOL     OW35275   2.351   1.532   4.714 -0.0004  0.3246 -0.3717
 8876SOL    HW235276   2.313   1.541   4.627  0.5189 -0.8649 -0.7372
 8876SOL    HW335277   2.294   1.584   4.771 -1.2518 -0.1378 -1.1693
 8876SOL    MW435278   2.338   1.540   4.710 -0.0970  0.1067 -0.5251
 8877SOL     OW35279   0.740   1.106   2.363  0.9629 -0.0897  0.3159
 8877SOL    HW235280   0.709   1.021   2.334  0.4564  0.0367  0.4865
 8877SOL    HW335281   0.833   1.091   2.385  1.5042 -0.0865 -1.7676
 8877SOL    MW435282   0.748   1.093   2.362  0.9675 -0.0726  0.0635
 8878SOL     OW35283   2.441   4.186   3.309 -0.5035 -0.4076  0.1314
 8878SOL    HW235284   2.474   4.225   3.390  1.5347 -0.5775 -0.5601
 8878SOL    HW335285   2.395   4.108   3.337 -0.4036 -0.1010  1.1877
 8878SOL    MW435286   2.440   4.181   3.323 -0.2214 -0.3896  0.1795
 8879SOL     OW35287   1.989   2.362   1.698 -0.2715 -0.0216 -0.2019
 8879SOL    HW235288   1.899   2.348   1.670 -0.5890 -1.6200  1.4126
 8879SOL    HW335289   1.983   2.373   1.793  1.1822  0.4010 -0.1382
 8879SOL    MW435290   1.976   2.362   1.707 -0.1216 -0.1767  0.0196
 8880SOL     OW35291   3.643   1.690   2.593  0.3665  0.5586  0.5419
 8880SOL    HW235292   3.731   1.726   2.600  0.1285  1.4666 -0.8252
 8880SOL    HW335293   3.586   1.756   2.632  0.1548  0.6063  0.1565
 8880SOL    MW435294   3.647   1.703   2.599  0.3072  0.6847  0.3107
 8881NA      NA35295   1.035   2.503   1.855  0.4709  0.3787  0.4556
 8882NA      NA35296   4.369   2.183   3.148 -0.0948  0.1255  0.3910
 8883NA      NA35297   0.017   4.119   5.247 -0.0333  0.3307  0.5018
 8884NA      NA35298   3.466   2.132   4.732  0.1367 -0.1142 -0.0712
 8885NA      NA35299   2.556   4.778   5.209 -0.1826 -0.2399  0.3282
 8886NA      NA35300   5.772   3.425   5.831 -0.5687  0.2201  0.1601
 8887NA      NA35301   0.636   1.818   1.803  0.1014 -0.0776 -0.3059
   6.42842   6.42842   6.42842
